Title t= 481.00000 step= 240500
44463
    1GLY      N    1   2.373   3.036   3.709
    1GLY    HT1    2   2.346   3.128   3.749
    1GLY    HT2    3   2.362   3.047   3.606
    1GLY    HT3    4   2.477   3.030   3.712
    1GLY     CA    5   2.313   2.914   3.782
    1GLY    HA1    6   2.351   2.832   3.722
    1GLY    HA2    7   2.209   2.928   3.759
    1GLY      C    8   2.335   2.905   3.924
    1GLY      O    9   2.403   2.982   3.993
    2PRO      N   10   2.293   2.798   3.992
    2PRO     CD   11   2.197   2.701   3.944
    2PRO    HD1   12   2.220   2.647   3.850
    2PRO    HD2   13   2.102   2.755   3.923
    2PRO     CA   14   2.365   2.747   4.107
    2PRO     HA   15   2.347   2.810   4.192
    2PRO     CB   16   2.308   2.603   4.136
    2PRO    HB1   17   2.309   2.576   4.244
    2PRO    HB2   18   2.363   2.524   4.079
    2PRO     CG   19   2.170   2.618   4.072
    2PRO    HG1   20   2.119   2.522   4.051
    2PRO    HG2   21   2.119   2.688   4.142
    2PRO      C   22   2.517   2.749   4.100
    2PRO      O   23   2.568   2.747   3.989
    3GLY      N   24   2.592   2.767   4.211
    3GLY     HN   25   2.548   2.778   4.300
    3GLY     CA   26   2.739   2.753   4.211
    3GLY    HA1   27   2.782   2.802   4.298
    3GLY    HA2   28   2.772   2.812   4.127
    3GLY      C   29   2.796   2.614   4.200
    3GLY      O   30   2.725   2.511   4.175
    4ASP      N   31   2.928   2.598   4.229
    4ASP     HN   32   2.985   2.673   4.261
    4ASP     CA   33   2.997   2.470   4.225
    4ASP     HA   34   2.989   2.434   4.124
    4ASP     CB   35   3.147   2.497   4.263
    4ASP    HB1   36   3.198   2.400   4.284
    4ASP    HB2   37   3.141   2.555   4.357
    4ASP     CG   38   3.228   2.581   4.164
    4ASP    OD1   39   3.179   2.593   4.051
    4ASP    OD2   40   3.337   2.636   4.206
    4ASP      C   41   2.940   2.366   4.328
    4ASP      O   42   2.894   2.399   4.439
    5PRO      N   43   2.944   2.233   4.293
    5PRO     CD   44   2.956   2.185   4.156
    5PRO    HD1   45   3.056   2.213   4.118
    5PRO    HD2   46   2.874   2.215   4.088
    5PRO     CA   47   2.930   2.124   4.384
    5PRO     HA   48   2.827   2.109   4.411
    5PRO     CB   49   2.994   2.003   4.313
    5PRO    HB1   50   2.964   1.906   4.358
    5PRO    HB2   51   3.104   2.017   4.317
    5PRO     CG   52   2.958   2.034   4.166
    5PRO    HG1   53   3.029   1.997   4.089
    5PRO    HG2   54   2.856   2.000   4.138
    5PRO      C   55   2.991   2.154   4.521
    5PRO      O   56   3.108   2.182   4.538
    6GLY      N   57   2.916   2.147   4.635
    6GLY     HN   58   2.819   2.139   4.613
    6GLY     CA   59   2.972   2.138   4.772
    6GLY    HA1   60   2.891   2.162   4.840
    6GLY    HA2   61   3.049   2.212   4.785
    6GLY      C   62   3.023   1.992   4.813
    6GLY      O   63   3.045   1.904   4.730
    7PRO      N   64   3.041   1.963   4.943
    7PRO     CD   65   3.049   2.070   5.035
    7PRO    HD1   66   2.947   2.109   5.052
    7PRO    HD2   67   3.120   2.148   5.000
    7PRO     CA   68   3.060   1.837   5.013
    7PRO     HA   69   3.166   1.818   5.009
    7PRO     CB   70   3.033   1.875   5.161
    7PRO    HB1   71   3.090   1.811   5.232
    7PRO    HB2   72   2.926   1.877   5.191
    7PRO     CG   73   3.090   2.012   5.170
    7PRO    HG1   74   3.056   2.081   5.250
    7PRO    HG2   75   3.200   2.003   5.179
    7PRO      C   76   2.997   1.712   4.961
    7PRO      O   77   2.879   1.722   4.919
    8GLY      N   78   3.070   1.602   4.951
    8GLY     HN   79   3.163   1.608   4.987
    8GLY     CA   80   3.012   1.477   4.900
    8GLY    HA1   81   2.927   1.454   4.961
    8GLY    HA2   82   3.097   1.413   4.915
    8GLY      C   83   2.987   1.482   4.746
    8GLY      O   84   3.016   1.582   4.676
    9ASP      N   85   2.937   1.371   4.688
    9ASP     HN   86   2.905   1.295   4.744
    9ASP     CA   87   2.925   1.353   4.546
    9ASP     HA   88   3.025   1.370   4.510
    9ASP     CB   89   2.878   1.214   4.504
    9ASP    HB1   90   2.890   1.192   4.396
    9ASP    HB2   91   2.771   1.203   4.533
    9ASP     CG   92   2.955   1.097   4.578
    9ASP    OD1   93   2.897   0.990   4.594
    9ASP    OD2   94   3.073   1.113   4.607
    9ASP      C   95   2.827   1.453   4.484
    9ASP      O   96   2.720   1.477   4.545
   10PRO      N   97   2.864   1.516   4.369
   10PRO     CD   98   3.000   1.503   4.312
   10PRO    HD1   99   3.011   1.396   4.284
   10PRO    HD2  100   3.075   1.537   4.387
   10PRO     CA  101   2.774   1.574   4.266
   10PRO     HA  102   2.747   1.671   4.305
   10PRO     CB  103   2.855   1.573   4.133
   10PRO    HB1  104   2.820   1.660   4.073
   10PRO    HB2  105   2.852   1.477   4.076
   10PRO     CG  106   2.998   1.591   4.190
   10PRO    HG1  107   3.083   1.567   4.122
   10PRO    HG2  108   3.017   1.695   4.224
   10PRO      C  109   2.654   1.493   4.236
   10PRO      O  110   2.669   1.370   4.223
   11GLY      N  111   2.535   1.562   4.217
   11GLY     HN  112   2.539   1.661   4.209
   11GLY     CA  113   2.411   1.504   4.180
   11GLY    HA1  114   2.437   1.436   4.100
   11GLY    HA2  115   2.345   1.581   4.143
   11GLY      C  116   2.345   1.418   4.291
   11GLY      O  117   2.388   1.415   4.407
   12PRO      N  118   2.238   1.341   4.254
   12PRO     CD  119   2.176   1.368   4.129
   12PRO    HD1  120   2.248   1.342   4.049
   12PRO    HD2  121   2.148   1.475   4.129
   12PRO     CA  122   2.170   1.234   4.325
   12PRO     HA  123   2.112   1.282   4.403
   12PRO     CB  124   2.086   1.163   4.217
   12PRO    HB1  125   2.001   1.101   4.254
   12PRO    HB2  126   2.150   1.099   4.153
   12PRO     CG  127   2.044   1.282   4.124
   12PRO    HG1  128   2.021   1.244   4.021
   12PRO    HG2  129   1.957   1.334   4.170
   12PRO      C  130   2.268   1.140   4.393
   12PRO      O  131   2.353   1.088   4.321
   13GLY      N  132   2.254   1.112   4.527
   13GLY     HN  133   2.185   1.171   4.567
   13GLY     CA  134   2.323   1.008   4.596
   13GLY    HA1  135   2.287   1.021   4.697
   13GLY    HA2  136   2.428   1.030   4.596
   13GLY      C  137   2.308   0.867   4.545
   13GLY      O  138   2.204   0.830   4.490
   14ASP      N  139   2.417   0.788   4.553
   14ASP     HN  140   2.511   0.803   4.581
   14ASP     CA  141   2.409   0.652   4.508
   14ASP     HA  142   2.361   0.652   4.411
   14ASP     CB  143   2.552   0.598   4.511
   14ASP    HB1  144   2.551   0.489   4.491
   14ASP    HB2  145   2.592   0.616   4.613
   14ASP     CG  146   2.636   0.668   4.411
   14ASP    OD1  147   2.598   0.705   4.295
   14ASP    OD2  148   2.761   0.680   4.437
   14ASP      C  149   2.314   0.562   4.600
   14ASP      O  150   2.298   0.579   4.719
   15PRO      N  151   2.238   0.473   4.537
   15PRO     CD  152   2.225   0.450   4.392
   15PRO    HD1  153   2.319   0.451   4.334
   15PRO    HD2  154   2.163   0.537   4.363
   15PRO     CA  155   2.142   0.400   4.618
   15PRO     HA  156   2.082   0.458   4.687
   15PRO     CB  157   2.057   0.331   4.509
   15PRO    HB1  158   1.974   0.401   4.485
   15PRO    HB2  159   2.008   0.237   4.541
   15PRO     CG  160   2.150   0.321   4.385
   15PRO    HG1  161   2.220   0.238   4.409
   15PRO    HG2  162   2.097   0.308   4.288
   15PRO      C  163   2.216   0.284   4.694
   15PRO    OT1  164   2.290   0.198   4.633
   15PRO    OT2  165   2.188   0.262   4.814
   16LIT    LIT  166   2.373   0.189   4.826
   17LIT    LIT  167   1.803   2.441   5.351
   18LIT    LIT  168   3.124   6.866   1.124
   19LIT    LIT  169   6.216   5.667   3.554
   20LIT    LIT  170   2.296   5.348   2.365
   21LIT    LIT  171   1.638   2.577   3.573
   22LIT    LIT  172   1.173   1.324   4.888
   23LIT    LIT  173   2.146   3.162   1.999
   24LIT    LIT  174   7.574   1.330   6.651
   25LIT    LIT  175   4.318   0.867   3.201
   26LIT    LIT  176   6.259   2.529   5.019
   27LIT    LIT  177   6.892   0.094   0.306
   28LIT    LIT  178   5.495   2.550   4.953
   29LIT    LIT  179   3.126   4.653   1.365
   30LIT    LIT  180   7.428   7.234   6.500
   31LIT    LIT  181   6.962   6.077   6.017
   32LIT    LIT  182   4.729   4.135   0.200
   33LIT    LIT  183   7.147   1.958   2.302
   34LIT    LIT  184   4.688   6.409   2.832
   35LIT    LIT  185   4.149   7.118   5.453
   36LIT    LIT  186   1.349   7.068   4.498
   37LIT    LIT  187   1.193   5.838   1.105
   38LIT    LIT  188   3.878   7.098   3.908
   39LIT    LIT  189   2.834   1.179   3.462
   40LIT    LIT  190   2.089   1.963   3.823
   41LIT    LIT  191   5.229   0.600   3.356
   42LIT    LIT  192   3.353   5.633   6.741
   43LIT    LIT  193   3.777   3.065   1.215
   44LIT    LIT  194   4.838   7.512   6.161
   45LIT    LIT  195   6.148   7.371   3.233
   46LIT    LIT  196   5.549   1.025   5.696
   47LIT    LIT  197   1.130   5.636   2.893
   48LIT    LIT  198   7.112   1.811   4.424
   49LIT    LIT  199   1.679   0.317   5.958
   50LIT    LIT  200   0.019   1.147   3.782
   51LIT    LIT  201   1.722   1.445   1.899
   52LIT    LIT  202   3.450   2.774   6.375
   53LIT    LIT  203   3.059   7.274   6.549
   54LIT    LIT  204   7.847   3.125   2.953
   55LIT    LIT  205   5.129   7.445   3.402
   56LIT    LIT  206   6.984   1.227   2.989
   57LIT    LIT  207   7.251   6.293   0.907
   58LIT    LIT  208   2.766   0.791   4.242
   59LIT    LIT  209   0.526   5.162   4.053
   60LIT    LIT  210   3.006   4.199   4.398
   61CLA    CLA  211   0.415   5.670   3.097
   62CLA    CLA  212   1.835   5.914   4.915
   63CLA    CLA  213   0.308   1.562   4.844
   64CLA    CLA  214   7.018   3.568   0.565
   65CLA    CLA  215   0.981   0.827   1.263
   66CLA    CLA  216   1.226   1.652   5.375
   67CLA    CLA  217   7.295   6.497   5.659
   68CLA    CLA  218   6.822   0.211   3.581
   69CLA    CLA  219   3.251   3.525   4.978
   70CLA    CLA  220   6.129   5.285   6.270
   71CLA    CLA  221   7.931   5.686   4.988
   72CLA    CLA  222   2.388   5.013   0.985
   73CLA    CLA  223   0.402   3.604   2.741
   74CLA    CLA  224   0.190   4.318   3.796
   75CLA    CLA  225   3.367   7.289   5.548
   76CLA    CLA  226   3.169   0.727   1.846
   77CLA    CLA  227   2.540   6.077   4.018
   78CLA    CLA  228   5.741   6.295   2.403
   79CLA    CLA  229   5.273   2.278   5.607
   80CLA    CLA  230   0.672   6.221   1.662
   81CLA    CLA  231   4.359   6.140   5.898
   82CLA    CLA  232   0.408   0.754   6.059
   83CLA    CLA  233   3.523   4.408   0.379
   84CLA    CLA  234   6.949   2.071   0.327
   85CLA    CLA  235   2.944   6.262   5.157
   86CLA    CLA  236   7.924   4.205   2.540
   87CLA    CLA  237   3.443   6.457   2.191
   88CLA    CLA  238   4.830   3.254   0.709
   89CLA    CLA  239   6.648   2.394   6.509
   90CLA    CLA  240   5.757   2.420   0.436
   91CLA    CLA  241   4.819   3.715   4.580
   92CLA    CLA  242   5.993   6.988   5.820
   93CLA    CLA  243   4.492   1.861   5.068
   94CLA    CLA  244   1.592   2.205   5.858
   95CLA    CLA  245   2.829   5.917   2.187
   96CLA    CLA  246   7.842   1.350   3.059
   97CLA    CLA  247   0.733   1.713   4.070
   98CLA    CLA  248   1.687   6.908   6.223
   99CLA    CLA  249   6.955   1.851   2.297
  100CLA    CLA  250   2.589   3.133   4.701
  101CLA    CLA  251   1.483   2.660   3.728
  102CLA    CLA  252   6.596   7.766   3.953
  103TIP3   OH2  253   4.087   5.435   1.942
  103TIP3    H1  254   4.090   5.355   1.889
  103TIP3    H2  255   4.166   5.483   1.917
  104TIP3   OH2  256   0.368   1.991   1.537
  104TIP3    H1  257   0.416   1.928   1.591
  104TIP3    H2  258   0.315   2.041   1.600
  105TIP3   OH2  259   7.812   0.337   3.692
  105TIP3    H1  260   7.733   0.384   3.664
  105TIP3    H2  261   7.824   0.363   3.784
  106TIP3   OH2  262   6.333   6.092   0.560
  106TIP3    H1  263   6.285   6.036   0.499
  106TIP3    H2  264   6.268   6.119   0.624
  107TIP3   OH2  265   1.286   1.954   1.744
  107TIP3    H1  266   1.326   2.014   1.681
  107TIP3    H2  267   1.195   1.984   1.750
  108TIP3   OH2  268   2.944   7.461   5.818
  108TIP3    H1  269   3.008   7.531   5.833
  108TIP3    H2  270   2.992   7.380   5.833
  109TIP3   OH2  271   2.033   1.568   3.305
  109TIP3    H1  272   2.015   1.536   3.393
  109TIP3    H2  273   1.999   1.658   3.304
  110TIP3   OH2  274   3.700   4.752   5.052
  110TIP3    H1  275   3.713   4.809   5.128
  110TIP3    H2  276   3.643   4.802   4.994
  111TIP3   OH2  277   7.057   5.697   5.305
  111TIP3    H1  278   7.032   5.787   5.323
  111TIP3    H2  279   7.080   5.661   5.391
  112TIP3   OH2  280   6.930   7.222   0.954
  112TIP3    H1  281   6.915   7.315   0.938
  112TIP3    H2  282   6.990   7.220   1.029
  113TIP3   OH2  283   0.903   7.185   1.981
  113TIP3    H1  284   0.935   7.101   1.946
  113TIP3    H2  285   0.819   7.197   1.938
  114TIP3   OH2  286   6.467   7.335   0.170
  114TIP3    H1  287   6.456   7.320   0.264
  114TIP3    H2  288   6.561   7.320   0.155
  115TIP3   OH2  289   3.436   7.341   4.370
  115TIP3    H1  290   3.360   7.303   4.327
  115TIP3    H2  291   3.487   7.265   4.400
  116TIP3   OH2  292   1.122   2.053   5.273
  116TIP3    H1  293   1.170   2.029   5.352
  116TIP3    H2  294   1.144   2.145   5.259
  117TIP3   OH2  295   7.540   2.959   4.018
  117TIP3    H1  296   7.572   3.027   3.959
  117TIP3    H2  297   7.452   2.939   3.988
  118TIP3   OH2  298   0.193   2.968   0.854
  118TIP3    H1  299   0.285   2.950   0.876
  118TIP3    H2  300   0.167   3.036   0.916
  119TIP3   OH2  301   4.970   0.448   4.823
  119TIP3    H1  302   5.004   0.537   4.813
  119TIP3    H2  303   5.031   0.394   4.773
  120TIP3   OH2  304   3.341   1.473   5.648
  120TIP3    H1  305   3.400   1.539   5.685
  120TIP3    H2  306   3.383   1.389   5.667
  121TIP3   OH2  307   2.806   4.303   2.065
  121TIP3    H1  308   2.831   4.284   2.155
  121TIP3    H2  309   2.731   4.245   2.048
  122TIP3   OH2  310   5.738   5.698   4.929
  122TIP3    H1  311   5.669   5.693   4.995
  122TIP3    H2  312   5.779   5.783   4.942
  123TIP3   OH2  313   4.861   3.519   0.519
  123TIP3    H1  314   4.846   3.441   0.572
  123TIP3    H2  315   4.867   3.487   0.429
  124TIP3   OH2  316   1.334   5.647   3.359
  124TIP3    H1  317   1.341   5.578   3.425
  124TIP3    H2  318   1.403   5.709   3.382
  125TIP3   OH2  319   7.832   6.570   4.279
  125TIP3    H1  320   7.912   6.609   4.313
  125TIP3    H2  321   7.843   6.570   4.184
  126TIP3   OH2  322   7.851   3.039   0.400
  126TIP3    H1  323   7.911   3.041   0.475
  126TIP3    H2  324   7.902   3.000   0.329
  127TIP3   OH2  325   6.702   1.992   1.934
  127TIP3    H1  326   6.638   1.935   1.978
  127TIP3    H2  327   6.746   1.934   1.872
  128TIP3   OH2  328   3.177   1.962   1.671
  128TIP3    H1  329   3.128   1.981   1.752
  128TIP3    H2  330   3.111   1.969   1.602
  129TIP3   OH2  331   0.633   1.288   0.984
  129TIP3    H1  332   0.659   1.236   0.908
  129TIP3    H2  333   0.537   1.288   0.982
  130TIP3   OH2  334   7.297   2.622   0.750
  130TIP3    H1  335   7.266   2.542   0.706
  130TIP3    H2  336   7.268   2.612   0.840
  131TIP3   OH2  337   5.711   5.375   5.591
  131TIP3    H1  338   5.717   5.290   5.547
  131TIP3    H2  339   5.740   5.439   5.526
  132TIP3   OH2  340   5.571   4.068   3.009
  132TIP3    H1  341   5.588   3.990   3.063
  132TIP3    H2  342   5.481   4.091   3.027
  133TIP3   OH2  343   2.876   5.304   6.543
  133TIP3    H1  344   2.823   5.224   6.550
  133TIP3    H2  345   2.821   5.364   6.493
  134TIP3   OH2  346   0.146   7.382   3.423
  134TIP3    H1  347   0.102   7.297   3.429
  134TIP3    H2  348   0.078   7.441   3.391
  135TIP3   OH2  349   5.324   4.270   5.242
  135TIP3    H1  350   5.386   4.292   5.311
  135TIP3    H2  351   5.370   4.292   5.161
  136TIP3   OH2  352   1.489   2.508   2.456
  136TIP3    H1  353   1.400   2.537   2.436
  136TIP3    H2  354   1.526   2.577   2.510
  137TIP3   OH2  355   1.689   4.492   1.966
  137TIP3    H1  356   1.729   4.405   1.958
  137TIP3    H2  357   1.678   4.522   1.876
  138TIP3   OH2  358   4.760   5.410   4.301
  138TIP3    H1  359   4.688   5.351   4.324
  138TIP3    H2  360   4.721   5.474   4.242
  139TIP3   OH2  361   6.887   1.221   5.006
  139TIP3    H1  362   6.800   1.260   4.998
  139TIP3    H2  363   6.925   1.260   5.085
  140TIP3   OH2  364   3.498   0.788   1.851
  140TIP3    H1  365   3.414   0.815   1.816
  140TIP3    H2  366   3.555   0.779   1.774
  141TIP3   OH2  367   4.114   6.533   2.591
  141TIP3    H1  368   4.154   6.459   2.545
  141TIP3    H2  369   4.021   6.510   2.597
  142TIP3   OH2  370   4.557   7.704   3.722
  142TIP3    H1  371   4.511   7.767   3.778
  142TIP3    H2  372   4.561   7.624   3.775
  143TIP3   OH2  373   0.488   6.464   0.914
  143TIP3    H1  374   0.429   6.518   0.863
  143TIP3    H2  375   0.455   6.374   0.902
  144TIP3   OH2  376   7.990   5.088   3.603
  144TIP3    H1  377   7.969   4.995   3.595
  144TIP3    H2  378   7.927   5.122   3.665
  145TIP3   OH2  379   0.479   7.819   0.731
  145TIP3    H1  380   0.446   7.775   0.809
  145TIP3    H2  381   0.402   7.834   0.677
  146TIP3   OH2  382   7.398   0.097   3.231
  146TIP3    H1  383   7.318   0.118   3.278
  146TIP3    H2  384   7.426   0.013   3.267
  147TIP3   OH2  385   1.012   4.671   4.011
  147TIP3    H1  386   1.090   4.717   4.042
  147TIP3    H2  387   0.974   4.634   4.090
  148TIP3   OH2  388   7.981   6.360   0.185
  148TIP3    H1  389   7.996   6.336   0.093
  148TIP3    H2  390   7.985   6.455   0.185
  149TIP3   OH2  391   4.080   4.297   0.528
  149TIP3    H1  392   3.989   4.299   0.557
  149TIP3    H2  393   4.093   4.382   0.486
  150TIP3   OH2  394   6.150   5.170   4.700
  150TIP3    H1  395   6.057   5.177   4.681
  150TIP3    H2  396   6.164   5.226   4.776
  151TIP3   OH2  397   2.723   4.907   4.374
  151TIP3    H1  398   2.631   4.898   4.351
  151TIP3    H2  399   2.737   4.844   4.445
  152TIP3   OH2  400   4.996   4.299   5.789
  152TIP3    H1  401   5.061   4.362   5.820
  152TIP3    H2  402   5.034   4.263   5.709
  153TIP3   OH2  403   7.704   5.779   2.052
  153TIP3    H1  404   7.705   5.691   2.016
  153TIP3    H2  405   7.794   5.794   2.082
  154TIP3   OH2  406   5.743   7.468   3.277
  154TIP3    H1  407   5.697   7.552   3.277
  154TIP3    H2  408   5.681   7.407   3.237
  155TIP3   OH2  409   5.515   1.842   2.191
  155TIP3    H1  410   5.456   1.806   2.124
  155TIP3    H2  411   5.601   1.808   2.168
  156TIP3   OH2  412   1.994   7.511   0.227
  156TIP3    H1  413   2.044   7.551   0.156
  156TIP3    H2  414   1.916   7.475   0.185
  157TIP3   OH2  415   7.989   3.085   3.065
  157TIP3    H1  416   8.028   2.997   3.068
  157TIP3    H2  417   8.048   3.139   3.118
  158TIP3   OH2  418   2.228   3.614   2.039
  158TIP3    H1  419   2.254   3.670   2.112
  158TIP3    H2  420   2.134   3.628   2.029
  159TIP3   OH2  421   0.545   1.179   1.801
  159TIP3    H1  422   0.586   1.195   1.716
  159TIP3    H2  423   0.451   1.178   1.783
  160TIP3   OH2  424   2.535   4.414   0.723
  160TIP3    H1  425   2.610   4.428   0.780
  160TIP3    H2  426   2.461   4.452   0.771
  161TIP3   OH2  427   1.427   0.585   5.424
  161TIP3    H1  428   1.422   0.679   5.438
  161TIP3    H2  429   1.372   0.547   5.493
  162TIP3   OH2  430   6.552   2.978   0.418
  162TIP3    H1  431   6.594   2.915   0.359
  162TIP3    H2  432   6.625   3.025   0.457
  163TIP3   OH2  433   6.581   2.660   3.561
  163TIP3    H1  434   6.583   2.638   3.468
  163TIP3    H2  435   6.493   2.634   3.589
  164TIP3   OH2  436   5.804   2.562   5.742
  164TIP3    H1  437   5.824   2.531   5.654
  164TIP3    H2  438   5.876   2.528   5.796
  165TIP3   OH2  439   3.551   3.348   4.918
  165TIP3    H1  440   3.589   3.400   4.847
  165TIP3    H2  441   3.474   3.398   4.946
  166TIP3   OH2  442   1.012   5.820   6.053
  166TIP3    H1  443   1.004   5.888   6.120
  166TIP3    H2  444   0.949   5.846   5.986
  167TIP3   OH2  445   7.587   1.421   6.092
  167TIP3    H1  446   7.570   1.418   5.998
  167TIP3    H2  447   7.673   1.381   6.103
  168TIP3   OH2  448   2.538   6.832   1.647
  168TIP3    H1  449   2.577   6.897   1.706
  168TIP3    H2  450   2.606   6.767   1.634
  169TIP3   OH2  451   6.782   1.474   6.253
  169TIP3    H1  452   6.815   1.442   6.170
  169TIP3    H2  453   6.837   1.433   6.319
  170TIP3   OH2  454   2.704   1.899   1.078
  170TIP3    H1  455   2.724   1.806   1.065
  170TIP3    H2  456   2.661   1.903   1.163
  171TIP3   OH2  457   5.941   4.476   5.744
  171TIP3    H1  458   5.850   4.506   5.741
  171TIP3    H2  459   5.963   4.475   5.837
  172TIP3   OH2  460   3.566   0.216   1.519
  172TIP3    H1  461   3.660   0.224   1.507
  172TIP3    H2  462   3.536   0.305   1.539
  173TIP3   OH2  463   7.886   1.200   0.830
  173TIP3    H1  464   7.851   1.144   0.899
  173TIP3    H2  465   7.980   1.183   0.829
  174TIP3   OH2  466   7.057   4.380   3.792
  174TIP3    H1  467   7.018   4.433   3.721
  174TIP3    H2  468   7.152   4.388   3.777
  175TIP3   OH2  469   4.086   6.881   1.533
  175TIP3    H1  470   4.011   6.834   1.498
  175TIP3    H2  471   4.156   6.815   1.537
  176TIP3   OH2  472   6.965   3.454   6.111
  176TIP3    H1  473   6.969   3.440   6.206
  176TIP3    H2  474   6.893   3.398   6.082
  177TIP3   OH2  475   1.096   5.815   4.929
  177TIP3    H1  476   1.109   5.723   4.906
  177TIP3    H2  477   1.006   5.834   4.904
  178TIP3   OH2  478   4.945   5.602   1.745
  178TIP3    H1  479   5.015   5.622   1.682
  178TIP3    H2  480   4.938   5.506   1.742
  179TIP3   OH2  481   8.107   3.719   3.680
  179TIP3    H1  482   8.189   3.769   3.686
  179TIP3    H2  483   8.105   3.666   3.760
  180TIP3   OH2  484   3.370   1.741   5.448
  180TIP3    H1  485   3.288   1.788   5.462
  180TIP3    H2  486   3.356   1.655   5.488
  181TIP3   OH2  487   2.234   3.489   0.715
  181TIP3    H1  488   2.212   3.404   0.753
  181TIP3    H2  489   2.263   3.542   0.789
  182TIP3   OH2  490   3.123   5.467   1.683
  182TIP3    H1  491   3.198   5.525   1.671
  182TIP3    H2  492   3.055   5.523   1.720
  183TIP3   OH2  493   1.964   6.028   6.601
  183TIP3    H1  494   1.906   6.041   6.675
  183TIP3    H2  495   1.951   6.105   6.546
  184TIP3   OH2  496   0.461   7.256   3.605
  184TIP3    H1  497   0.444   7.170   3.568
  184TIP3    H2  498   0.476   7.241   3.698
  185TIP3   OH2  499   5.296   2.055   2.989
  185TIP3    H1  500   5.225   2.010   2.943
  185TIP3    H2  501   5.286   2.147   2.964
  186TIP3   OH2  502   7.042   0.659   4.675
  186TIP3    H1  503   6.991   0.644   4.754
  186TIP3    H2  504   6.980   0.697   4.613
  187TIP3   OH2  505   4.119   6.733   0.629
  187TIP3    H1  506   4.189   6.672   0.653
  187TIP3    H2  507   4.058   6.730   0.703
  188TIP3   OH2  508   3.647   2.405   5.492
  188TIP3    H1  509   3.724   2.457   5.514
  188TIP3    H2  510   3.670   2.362   5.409
  189TIP3   OH2  511   6.151   0.319   0.332
  189TIP3    H1  512   6.123   0.405   0.299
  189TIP3    H2  513   6.120   0.257   0.266
  190TIP3   OH2  514   3.063   1.918   6.417
  190TIP3    H1  515   2.979   1.948   6.383
  190TIP3    H2  516   3.048   1.828   6.444
  191TIP3   OH2  517   4.131   3.993   5.602
  191TIP3    H1  518   4.118   4.017   5.694
  191TIP3    H2  519   4.219   4.024   5.581
  192TIP3   OH2  520   6.882   3.795   5.690
  192TIP3    H1  521   6.820   3.755   5.629
  192TIP3    H2  522   6.827   3.842   5.753
  193TIP3   OH2  523   8.198   0.292   1.125
  193TIP3    H1  524   8.218   0.366   1.182
  193TIP3    H2  525   8.220   0.214   1.177
  194TIP3   OH2  526   8.042   3.363   3.265
  194TIP3    H1  527   8.079   3.448   3.239
  194TIP3    H2  528   7.952   3.365   3.232
  195TIP3   OH2  529   7.307   2.861   0.138
  195TIP3    H1  530   7.257   2.888   0.215
  195TIP3    H2  531   7.387   2.822   0.174
  196TIP3   OH2  532   6.762   2.486   3.681
  196TIP3    H1  533   6.721   2.411   3.636
  196TIP3    H2  534   6.705   2.560   3.659
  197TIP3   OH2  535   6.440   1.344   1.351
  197TIP3    H1  536   6.412   1.269   1.299
  197TIP3    H2  537   6.370   1.356   1.416
  198TIP3   OH2  538   3.937   5.885   1.593
  198TIP3    H1  539   3.911   5.975   1.615
  198TIP3    H2  540   4.031   5.889   1.580
  199TIP3   OH2  541   6.598   4.490   5.568
  199TIP3    H1  542   6.676   4.435   5.559
  199TIP3    H2  543   6.538   4.457   5.502
  200TIP3   OH2  544   0.786   3.256   3.310
  200TIP3    H1  545   0.749   3.311   3.378
  200TIP3    H2  546   0.713   3.240   3.250
  201TIP3   OH2  547   6.869   5.084   5.191
  201TIP3    H1  548   6.822   5.016   5.239
  201TIP3    H2  549   6.818   5.164   5.205
  202TIP3   OH2  550   3.588   2.276   0.551
  202TIP3    H1  551   3.555   2.350   0.499
  202TIP3    H2  552   3.524   2.266   0.622
  203TIP3   OH2  553   5.214   4.400   4.579
  203TIP3    H1  554   5.305   4.393   4.551
  203TIP3    H2  555   5.219   4.448   4.662
  204TIP3   OH2  556   3.716   3.159   2.992
  204TIP3    H1  557   3.651   3.117   3.049
  204TIP3    H2  558   3.697   3.253   3.000
  205TIP3   OH2  559   1.130   5.576   3.194
  205TIP3    H1  560   1.198   5.617   3.247
  205TIP3    H2  561   1.062   5.643   3.185
  206TIP3   OH2  562   3.398   4.711   5.714
  206TIP3    H1  563   3.461   4.729   5.783
  206TIP3    H2  564   3.446   4.656   5.651
  207TIP3   OH2  565   4.642   7.229   4.274
  207TIP3    H1  566   4.598   7.145   4.270
  207TIP3    H2  567   4.734   7.209   4.257
  208TIP3   OH2  568   6.681   0.761   2.191
  208TIP3    H1  569   6.693   0.740   2.284
  208TIP3    H2  570   6.736   0.838   2.177
  209TIP3   OH2  571   5.661   3.894   1.308
  209TIP3    H1  572   5.703   3.979   1.318
  209TIP3    H2  573   5.638   3.868   1.398
  210TIP3   OH2  574   7.193   1.064   5.668
  210TIP3    H1  575   7.273   1.106   5.638
  210TIP3    H2  576   7.154   1.127   5.728
  211TIP3   OH2  577   4.968   0.773   4.796
  211TIP3    H1  578   4.935   0.863   4.796
  211TIP3    H2  579   5.051   0.778   4.844
  212TIP3   OH2  580   8.141   6.337   0.427
  212TIP3    H1  581   8.071   6.400   0.407
  212TIP3    H2  582   8.119   6.304   0.514
  213TIP3   OH2  583   5.851   0.726   0.367
  213TIP3    H1  584   5.820   0.739   0.277
  213TIP3    H2  585   5.869   0.814   0.399
  214TIP3   OH2  586   7.061   6.573   1.348
  214TIP3    H1  587   7.047   6.665   1.369
  214TIP3    H2  588   7.019   6.561   1.262
  215TIP3   OH2  589   7.441   3.234   3.065
  215TIP3    H1  590   7.357   3.279   3.074
  215TIP3    H2  591   7.468   3.217   3.156
  216TIP3   OH2  592   1.762   3.399   5.669
  216TIP3    H1  593   1.828   3.358   5.726
  216TIP3    H2  594   1.678   3.366   5.701
  217TIP3   OH2  595   3.365   6.549   5.461
  217TIP3    H1  596   3.275   6.538   5.491
  217TIP3    H2  597   3.369   6.641   5.433
  218TIP3   OH2  598   6.805   6.612   3.931
  218TIP3    H1  599   6.828   6.703   3.911
  218TIP3    H2  600   6.726   6.596   3.879
  219TIP3   OH2  601   6.509   0.447   1.604
  219TIP3    H1  602   6.520   0.533   1.563
  219TIP3    H2  603   6.472   0.392   1.536
  220TIP3   OH2  604   2.917   2.619   1.104
  220TIP3    H1  605   2.972   2.654   1.033
  220TIP3    H2  606   2.969   2.548   1.141
  221TIP3   OH2  607   4.004   1.676   3.070
  221TIP3    H1  608   3.964   1.609   3.126
  221TIP3    H2  609   4.098   1.671   3.089
  222TIP3   OH2  610   7.318   4.611   2.950
  222TIP3    H1  611   7.328   4.525   2.910
  222TIP3    H2  612   7.389   4.663   2.912
  223TIP3   OH2  613   1.019   3.010   6.125
  223TIP3    H1  614   1.112   3.033   6.117
  223TIP3    H2  615   0.973   3.080   6.078
  224TIP3   OH2  616   4.300   4.138   5.054
  224TIP3    H1  617   4.386   4.127   5.095
  224TIP3    H2  618   4.309   4.096   4.969
  225TIP3   OH2  619   4.855   5.340   1.690
  225TIP3    H1  620   4.766   5.326   1.724
  225TIP3    H2  621   4.867   5.269   1.627
  226TIP3   OH2  622   1.235   5.318   3.226
  226TIP3    H1  623   1.202   5.253   3.163
  226TIP3    H2  624   1.185   5.397   3.206
  227TIP3   OH2  625   1.949   4.771   0.354
  227TIP3    H1  626   1.999   4.790   0.433
  227TIP3    H2  627   1.864   4.740   0.386
  228TIP3   OH2  628   7.954   6.985   2.777
  228TIP3    H1  629   7.981   6.909   2.724
  228TIP3    H2  630   7.898   7.036   2.718
  229TIP3   OH2  631   0.161   2.158   5.710
  229TIP3    H1  632   0.254   2.171   5.726
  229TIP3    H2  633   0.156   2.076   5.660
  230TIP3   OH2  634   6.067   2.772   2.936
  230TIP3    H1  635   6.052   2.780   2.842
  230TIP3    H2  636   6.158   2.800   2.948
  231TIP3   OH2  637   4.384   5.702   1.434
  231TIP3    H1  638   4.461   5.663   1.477
  231TIP3    H2  639   4.322   5.629   1.427
  232TIP3   OH2  640   2.956   3.237   5.979
  232TIP3    H1  641   2.910   3.295   6.039
  232TIP3    H2  642   3.018   3.189   6.035
  233TIP3   OH2  643   6.382   0.533   0.385
  233TIP3    H1  644   6.408   0.458   0.332
  233TIP3    H2  645   6.287   0.536   0.377
  234TIP3   OH2  646   0.554   7.174   5.783
  234TIP3    H1  647   0.545   7.095   5.731
  234TIP3    H2  648   0.638   7.211   5.756
  235TIP3   OH2  649   1.142   3.540   0.650
  235TIP3    H1  650   1.049   3.523   0.665
  235TIP3    H2  651   1.183   3.527   0.735
  236TIP3   OH2  652   5.048   2.974   4.118
  236TIP3    H1  653   5.066   2.912   4.189
  236TIP3    H2  654   4.970   2.939   4.075
  237TIP3   OH2  655   3.990   5.943   5.712
  237TIP3    H1  656   3.905   5.975   5.741
  237TIP3    H2  657   3.977   5.922   5.619
  238TIP3   OH2  658   2.994   5.665   0.915
  238TIP3    H1  659   3.012   5.758   0.899
  238TIP3    H2  660   2.935   5.639   0.844
  239TIP3   OH2  661   4.064   3.808   4.455
  239TIP3    H1  662   3.997   3.846   4.397
  239TIP3    H2  663   4.017   3.791   4.537
  240TIP3   OH2  664   2.874   2.033   5.630
  240TIP3    H1  665   2.793   2.006   5.675
  240TIP3    H2  666   2.892   2.120   5.664
  241TIP3   OH2  667   6.603   0.306   4.884
  241TIP3    H1  668   6.588   0.218   4.850
  241TIP3    H2  669   6.519   0.333   4.919
  242TIP3   OH2  670   3.773   4.060   5.114
  242TIP3    H1  671   3.864   4.089   5.118
  242TIP3    H2  672   3.765   3.995   5.183
  243TIP3   OH2  673   4.913   7.697   1.770
  243TIP3    H1  674   4.928   7.609   1.737
  243TIP3    H2  675   4.984   7.711   1.833
  244TIP3   OH2  676   3.093   3.505   3.382
  244TIP3    H1  677   3.017   3.447   3.382
  244TIP3    H2  678   3.080   3.560   3.459
  245TIP3   OH2  679   0.633   5.879   6.556
  245TIP3    H1  680   0.690   5.898   6.630
  245TIP3    H2  681   0.683   5.908   6.480
  246TIP3   OH2  682   6.679   4.756   4.929
  246TIP3    H1  683   6.654   4.804   4.851
  246TIP3    H2  684   6.735   4.816   4.978
  247TIP3   OH2  685   1.531   6.903   6.572
  247TIP3    H1  686   1.544   6.883   6.479
  247TIP3    H2  687   1.467   6.975   6.573
  248TIP3   OH2  688   6.187   2.078   2.903
  248TIP3    H1  689   6.275   2.109   2.881
  248TIP3    H2  690   6.178   2.099   2.996
  249TIP3   OH2  691   3.563   1.550   6.575
  249TIP3    H1  692   3.488   1.576   6.521
  249TIP3    H2  693   3.597   1.472   6.531
  250TIP3   OH2  694   4.513   0.682   6.124
  250TIP3    H1  695   4.507   0.713   6.034
  250TIP3    H2  696   4.459   0.603   6.126
  251TIP3   OH2  697   3.979   6.273   3.946
  251TIP3    H1  698   3.983   6.330   3.869
  251TIP3    H2  699   3.894   6.292   3.985
  252TIP3   OH2  700   2.054   3.071   4.451
  252TIP3    H1  701   2.023   3.083   4.541
  252TIP3    H2  702   2.007   3.136   4.400
  253TIP3   OH2  703   2.300   2.897   0.931
  253TIP3    H1  704   2.310   2.991   0.915
  253TIP3    H2  705   2.249   2.891   1.012
  254TIP3   OH2  706   4.091   0.754   4.968
  254TIP3    H1  707   4.029   0.687   4.999
  254TIP3    H2  708   4.057   0.780   4.882
  255TIP3   OH2  709   6.888   3.939   2.077
  255TIP3    H1  710   6.951   3.869   2.061
  255TIP3    H2  711   6.894   3.996   2.000
  256TIP3   OH2  712   6.449   2.377   1.839
  256TIP3    H1  713   6.487   2.371   1.927
  256TIP3    H2  714   6.493   2.310   1.788
  257TIP3   OH2  715   0.094   4.028   0.706
  257TIP3    H1  716   0.153   4.014   0.779
  257TIP3    H2  717   0.036   4.098   0.736
  258TIP3   OH2  718   3.842   3.840   1.251
  258TIP3    H1  719   3.845   3.840   1.155
  258TIP3    H2  720   3.931   3.816   1.277
  259TIP3   OH2  721   0.061   2.893   4.522
  259TIP3    H1  722  -0.001   2.836   4.476
  259TIP3    H2  723   0.075   2.967   4.463
  260TIP3   OH2  724   2.479   0.254   6.787
  260TIP3    H1  725   2.553   0.213   6.742
  260TIP3    H2  726   2.520   0.315   6.849
  261TIP3   OH2  727   0.148   7.009   1.666
  261TIP3    H1  728   0.099   7.084   1.631
  261TIP3    H2  729   0.104   6.932   1.629
  262TIP3   OH2  730   7.323   7.238   0.167
  262TIP3    H1  731   7.294   7.151   0.140
  262TIP3    H2  732   7.418   7.235   0.162
  263TIP3   OH2  733   4.787   7.378   3.128
  263TIP3    H1  734   4.778   7.471   3.108
  263TIP3    H2  735   4.822   7.375   3.217
  264TIP3   OH2  736   5.444   4.695   3.819
  264TIP3    H1  737   5.425   4.779   3.777
  264TIP3    H2  738   5.400   4.700   3.904
  265TIP3   OH2  739   7.937   5.584   1.923
  265TIP3    H1  740   8.004   5.627   1.869
  265TIP3    H2  741   7.972   5.497   1.940
  266TIP3   OH2  742   6.431   5.739   3.106
  266TIP3    H1  743   6.450   5.735   3.200
  266TIP3    H2  744   6.496   5.682   3.066
  267TIP3   OH2  745   5.418   7.350   4.206
  267TIP3    H1  746   5.504   7.372   4.168
  267TIP3    H2  747   5.438   7.319   4.294
  268TIP3   OH2  748   5.744   3.886   6.118
  268TIP3    H1  749   5.731   3.826   6.045
  268TIP3    H2  750   5.770   3.829   6.191
  269TIP3   OH2  751   3.436   7.367   0.578
  269TIP3    H1  752   3.438   7.463   0.578
  269TIP3    H2  753   3.514   7.341   0.530
  270TIP3   OH2  754   8.170   0.349   5.949
  270TIP3    H1  755   8.167   0.432   5.997
  270TIP3    H2  756   8.147   0.373   5.859
  271TIP3   OH2  757   4.580   3.037   3.596
  271TIP3    H1  758   4.670   3.052   3.568
  271TIP3    H2  759   4.587   2.973   3.667
  272TIP3   OH2  760   3.166   0.776   5.461
  272TIP3    H1  761   3.259   0.777   5.482
  272TIP3    H2  762   3.163   0.771   5.366
  273TIP3   OH2  763   3.860   6.874   2.282
  273TIP3    H1  764   3.927   6.937   2.256
  273TIP3    H2  765   3.783   6.928   2.301
  274TIP3   OH2  766   2.015   0.413   5.913
  274TIP3    H1  767   2.109   0.400   5.927
  274TIP3    H2  768   1.995   0.494   5.960
  275TIP3   OH2  769   4.853   6.454   3.629
  275TIP3    H1  770   4.758   6.445   3.632
  275TIP3    H2  771   4.869   6.548   3.624
  276TIP3   OH2  772   0.617   0.036   2.978
  276TIP3    H1  773   0.669   0.112   3.005
  276TIP3    H2  774   0.544   0.033   3.040
  277TIP3   OH2  775   5.294   1.208   4.338
  277TIP3    H1  776   5.227   1.275   4.350
  277TIP3    H2  777   5.272   1.140   4.403
  278TIP3   OH2  778   4.349   0.353   2.736
  278TIP3    H1  779   4.331   0.275   2.788
  278TIP3    H2  780   4.411   0.404   2.789
  279TIP3   OH2  781   7.651   6.601   5.171
  279TIP3    H1  782   7.666   6.601   5.077
  279TIP3    H2  783   7.568   6.646   5.183
  280TIP3   OH2  784   3.277   5.916   5.464
  280TIP3    H1  785   3.290   5.934   5.557
  280TIP3    H2  786   3.196   5.963   5.442
  281TIP3   OH2  787   5.221   2.655   1.936
  281TIP3    H1  788   5.197   2.581   1.991
  281TIP3    H2  789   5.292   2.622   1.881
  282TIP3   OH2  790   2.704   2.414   2.226
  282TIP3    H1  791   2.612   2.411   2.201
  282TIP3    H2  792   2.740   2.488   2.178
  283TIP3   OH2  793   6.529   4.465   4.869
  283TIP3    H1  794   6.558   4.461   4.778
  283TIP3    H2  795   6.477   4.386   4.881
  284TIP3   OH2  796   5.780   5.450   1.993
  284TIP3    H1  797   5.685   5.454   1.988
  284TIP3    H2  798   5.801   5.357   1.986
  285TIP3   OH2  799   5.456   1.526   2.352
  285TIP3    H1  800   5.433   1.618   2.369
  285TIP3    H2  801   5.420   1.478   2.427
  286TIP3   OH2  802   2.632   1.976   4.476
  286TIP3    H1  803   2.626   2.021   4.560
  286TIP3    H2  804   2.688   1.901   4.493
  287TIP3   OH2  805   0.640   5.876   3.956
  287TIP3    H1  806   0.646   5.784   3.930
  287TIP3    H2  807   0.565   5.880   4.015
  288TIP3   OH2  808   4.874   4.225   1.267
  288TIP3    H1  809   4.962   4.207   1.233
  288TIP3    H2  810   4.817   4.170   1.213
  289TIP3   OH2  811   2.403   6.719   5.156
  289TIP3    H1  812   2.370   6.631   5.139
  289TIP3    H2  813   2.380   6.768   5.077
  290TIP3   OH2  814   6.720   5.090   3.028
  290TIP3    H1  815   6.714   5.061   2.937
  290TIP3    H2  816   6.814   5.084   3.048
  291TIP3   OH2  817   1.068   1.342   0.320
  291TIP3    H1  818   1.070   1.315   0.228
  291TIP3    H2  819   1.035   1.265   0.367
  292TIP3   OH2  820   3.789   7.724   0.319
  292TIP3    H1  821   3.878   7.737   0.288
  292TIP3    H2  822   3.737   7.788   0.270
  293TIP3   OH2  823   4.130   5.667   0.330
  293TIP3    H1  824   4.105   5.716   0.409
  293TIP3    H2  825   4.224   5.652   0.341
  294TIP3   OH2  826   3.126   7.728   3.690
  294TIP3    H1  827   3.165   7.807   3.727
  294TIP3    H2  828   3.178   7.709   3.613
  295TIP3   OH2  829   3.945   3.732   2.574
  295TIP3    H1  830   4.028   3.764   2.609
  295TIP3    H2  831   3.969   3.655   2.523
  296TIP3   OH2  832   4.434   0.947   1.889
  296TIP3    H1  833   4.349   0.989   1.902
  296TIP3    H2  834   4.480   1.004   1.827
  297TIP3   OH2  835   2.549   0.661   2.379
  297TIP3    H1  836   2.619   0.640   2.318
  297TIP3    H2  837   2.572   0.747   2.414
  298TIP3   OH2  838   7.822   2.084   1.806
  298TIP3    H1  839   7.819   2.143   1.882
  298TIP3    H2  840   7.826   1.996   1.844
  299TIP3   OH2  841   5.607   4.666   6.564
  299TIP3    H1  842   5.581   4.754   6.537
  299TIP3    H2  843   5.701   4.672   6.582
  300TIP3   OH2  844   8.165   7.191   6.184
  300TIP3    H1  845   8.246   7.147   6.158
  300TIP3    H2  846   8.192   7.253   6.252
  301TIP3   OH2  847   5.434   6.119   2.241
  301TIP3    H1  848   5.340   6.134   2.255
  301TIP3    H2  849   5.456   6.048   2.302
  302TIP3   OH2  850   8.225   4.846   2.855
  302TIP3    H1  851   8.264   4.888   2.779
  302TIP3    H2  852   8.137   4.820   2.826
  303TIP3   OH2  853   5.498   3.560   2.205
  303TIP3    H1  854   5.483   3.648   2.168
  303TIP3    H2  855   5.593   3.555   2.215
  304TIP3   OH2  856   8.297   0.466   3.794
  304TIP3    H1  857   8.211   0.438   3.763
  304TIP3    H2  858   8.280   0.513   3.875
  305TIP3   OH2  859   8.303   2.889   5.272
  305TIP3    H1  860   8.383   2.933   5.300
  305TIP3    H2  861   8.249   2.883   5.350
  306TIP3   OH2  862   7.143   7.449   0.554
  306TIP3    H1  863   7.089   7.383   0.597
  306TIP3    H2  864   7.110   7.453   0.465
  307TIP3   OH2  865   0.321   1.323   3.147
  307TIP3    H1  866   0.394   1.327   3.085
  307TIP3    H2  867   0.282   1.410   3.143
  308TIP3   OH2  868   2.645   0.679   6.571
  308TIP3    H1  869   2.654   0.584   6.559
  308TIP3    H2  870   2.693   0.698   6.651
  309TIP3   OH2  871   2.370   3.480   6.125
  309TIP3    H1  872   2.302   3.547   6.129
  309TIP3    H2  873   2.322   3.397   6.128
  310TIP3   OH2  874   7.905   6.328   1.578
  310TIP3    H1  875   7.915   6.373   1.662
  310TIP3    H2  876   7.976   6.264   1.575
  311TIP3   OH2  877   0.251   3.253   3.236
  311TIP3    H1  878   0.172   3.297   3.267
  311TIP3    H2  879   0.219   3.180   3.184
  312TIP3   OH2  880   7.771   3.434   2.363
  312TIP3    H1  881   7.773   3.489   2.284
  312TIP3    H2  882   7.677   3.428   2.384
  313TIP3   OH2  883   3.450   0.055   5.239
  313TIP3    H1  884   3.370   0.055   5.293
  313TIP3    H2  885   3.444  -0.027   5.189
  314TIP3   OH2  886   1.028   4.533   1.407
  314TIP3    H1  887   1.114   4.493   1.420
  314TIP3    H2  888   0.971   4.489   1.470
  315TIP3   OH2  889   6.800   5.739   5.863
  315TIP3    H1  890   6.733   5.672   5.871
  315TIP3    H2  891   6.877   5.693   5.831
  316TIP3   OH2  892   5.580   4.067   5.353
  316TIP3    H1  893   5.510   4.025   5.304
  316TIP3    H2  894   5.547   4.154   5.373
  317TIP3   OH2  895   0.456   3.442   5.062
  317TIP3    H1  896   0.400   3.439   5.139
  317TIP3    H2  897   0.409   3.391   4.996
  318TIP3   OH2  898   3.314   3.903   5.326
  318TIP3    H1  899   3.403   3.936   5.321
  318TIP3    H2  900   3.320   3.813   5.295
  319TIP3   OH2  901   5.508   1.434   4.053
  319TIP3    H1  902   5.485   1.342   4.060
  319TIP3    H2  903   5.604   1.435   4.049
  320TIP3   OH2  904   1.283   6.825   0.754
  320TIP3    H1  905   1.237   6.756   0.802
  320TIP3    H2  906   1.355   6.780   0.711
  321TIP3   OH2  907   2.215   0.168   2.594
  321TIP3    H1  908   2.241   0.260   2.601
  321TIP3    H2  909   2.144   0.169   2.529
  322TIP3   OH2  910   6.143   1.628   3.721
  322TIP3    H1  911   6.214   1.691   3.734
  322TIP3    H2  912   6.187   1.546   3.698
  323TIP3   OH2  913   3.094   4.626   2.738
  323TIP3    H1  914   3.185   4.596   2.735
  323TIP3    H2  915   3.044   4.556   2.696
  324TIP3   OH2  916   0.620   6.046   5.175
  324TIP3    H1  917   0.608   6.021   5.266
  324TIP3    H2  918   0.692   5.991   5.144
  325TIP3   OH2  919   7.937   4.155   0.031
  325TIP3    H1  920   7.970   4.066   0.048
  325TIP3    H2  921   7.843   4.147   0.040
  326TIP3   OH2  922   5.770   1.176   2.781
  326TIP3    H1  923   5.804   1.209   2.864
  326TIP3    H2  924   5.698   1.118   2.805
  327TIP3   OH2  925   5.421   6.973   1.489
  327TIP3    H1  926   5.484   6.948   1.422
  327TIP3    H2  927   5.444   6.918   1.565
  328TIP3   OH2  928   2.358   1.772   1.416
  328TIP3    H1  929   2.336   1.859   1.451
  328TIP3    H2  930   2.365   1.785   1.321
  329TIP3   OH2  931   0.390   1.428   3.699
  329TIP3    H1  932   0.312   1.402   3.649
  329TIP3    H2  933   0.464   1.398   3.646
  330TIP3   OH2  934   1.836   2.954   1.883
  330TIP3    H1  935   1.803   2.955   1.972
  330TIP3    H2  936   1.764   2.918   1.831
  331TIP3   OH2  937   1.353   5.051   3.303
  331TIP3    H1  938   1.318   4.964   3.286
  331TIP3    H2  939   1.293   5.110   3.258
  332TIP3   OH2  940   4.572   2.055   1.250
  332TIP3    H1  941   4.545   2.096   1.332
  332TIP3    H2  942   4.575   2.127   1.187
  333TIP3   OH2  943   0.829   7.514   4.469
  333TIP3    H1  944   0.735   7.496   4.471
  333TIP3    H2  945   0.836   7.606   4.496
  334TIP3   OH2  946   5.103   4.735   0.312
  334TIP3    H1  947   5.051   4.816   0.322
  334TIP3    H2  948   5.051   4.681   0.253
  335TIP3   OH2  949   2.826   3.764   6.735
  335TIP3    H1  950   2.881   3.752   6.657
  335TIP3    H2  951   2.736   3.758   6.702
  336TIP3   OH2  952   1.517   6.413   2.252
  336TIP3    H1  953   1.495   6.320   2.247
  336TIP3    H2  954   1.473   6.444   2.330
  337TIP3   OH2  955   0.865   4.630   4.243
  337TIP3    H1  956   0.802   4.674   4.300
  337TIP3    H2  957   0.877   4.544   4.283
  338TIP3   OH2  958   7.457   5.913   4.823
  338TIP3    H1  959   7.543   5.898   4.783
  338TIP3    H2  960   7.476   5.935   4.914
  339TIP3   OH2  961   7.345   2.668   5.028
  339TIP3    H1  962   7.306   2.746   5.066
  339TIP3    H2  963   7.359   2.691   4.936
  340TIP3   OH2  964   5.184   3.353   4.548
  340TIP3    H1  965   5.115   3.321   4.607
  340TIP3    H2  966   5.148   3.339   4.460
  341TIP3   OH2  967   5.718   5.366   2.281
  341TIP3    H1  968   5.782   5.426   2.243
  341TIP3    H2  969   5.764   5.321   2.351
  342TIP3   OH2  970   2.091   4.952   6.483
  342TIP3    H1  971   2.159   5.002   6.528
  342TIP3    H2  972   2.083   4.994   6.397
  343TIP3   OH2  973   1.141   7.370   0.209
  343TIP3    H1  974   1.079   7.418   0.264
  343TIP3    H2  975   1.141   7.418   0.126
  344TIP3   OH2  976   7.562   4.546   1.827
  344TIP3    H1  977   7.654   4.571   1.822
  344TIP3    H2  978   7.560   4.477   1.893
  345TIP3   OH2  979   8.036   5.299   6.674
  345TIP3    H1  980   8.055   5.381   6.719
  345TIP3    H2  981   8.082   5.233   6.726
  346TIP3   OH2  982   6.242   4.831   4.793
  346TIP3    H1  983   6.204   4.918   4.778
  346TIP3    H2  984   6.237   4.787   4.708
  347TIP3   OH2  985   2.656   4.682   4.902
  347TIP3    H1  986   2.647   4.769   4.942
  347TIP3    H2  987   2.738   4.648   4.938
  348TIP3   OH2  988   3.740   7.235   3.910
  348TIP3    H1  989   3.647   7.232   3.931
  348TIP3    H2  990   3.747   7.306   3.847
  349TIP3   OH2  991   6.268   1.076   3.781
  349TIP3    H1  992   6.218   1.144   3.827
  349TIP3    H2  993   6.332   1.124   3.729
  350TIP3   OH2  994   7.492   0.551   3.124
  350TIP3    H1  995   7.534   0.624   3.079
  350TIP3    H2  996   7.474   0.487   3.055
  351TIP3   OH2  997   4.083   7.207   2.840
  351TIP3    H1  998   4.060   7.229   2.930
  351TIP3    H2  999   4.179   7.210   2.838
  352TIP3   OH2 1000   8.025   3.191   2.261
  352TIP3    H1 1001   8.053   3.270   2.308
  352TIP3    H2 1002   8.088   3.124   2.286
  353TIP3   OH2 1003   0.458   3.225   6.690
  353TIP3    H1 1004   0.511   3.235   6.611
  353TIP3    H2 1005   0.436   3.132   6.693
  354TIP3   OH2 1006   1.497   0.791   4.413
  354TIP3    H1 1007   1.525   0.711   4.459
  354TIP3    H2 1008   1.446   0.839   4.478
  355TIP3   OH2 1009   2.952   1.465   2.159
  355TIP3    H1 1010   2.892   1.515   2.214
  355TIP3    H2 1011   3.038   1.506   2.173
  356TIP3   OH2 1012   7.512   1.469   1.264
  356TIP3    H1 1013   7.450   1.465   1.191
  356TIP3    H2 1014   7.463   1.439   1.340
  357TIP3   OH2 1015   8.168   2.004   5.961
  357TIP3    H1 1016   8.109   2.031   6.031
  357TIP3    H2 1017   8.230   1.945   6.004
  358TIP3   OH2 1018   0.381   5.576   5.516
  358TIP3    H1 1019   0.471   5.544   5.521
  358TIP3    H2 1020   0.330   5.499   5.491
  359TIP3   OH2 1021   0.487   6.219   6.119
  359TIP3    H1 1022   0.511   6.224   6.211
  359TIP3    H2 1023   0.492   6.125   6.098
  360TIP3   OH2 1024   3.012   0.162   3.546
  360TIP3    H1 1025   3.066   0.082   3.543
  360TIP3    H2 1026   3.065   0.227   3.500
  361TIP3   OH2 1027   4.262   3.343   3.801
  361TIP3    H1 1028   4.348   3.330   3.762
  361TIP3    H2 1029   4.278   3.402   3.875
  362TIP3   OH2 1030   5.956   1.202   6.200
  362TIP3    H1 1031   5.999   1.266   6.144
  362TIP3    H2 1032   5.961   1.120   6.150
  363TIP3   OH2 1033   7.450   6.179   2.285
  363TIP3    H1 1034   7.530   6.209   2.242
  363TIP3    H2 1035   7.409   6.259   2.318
  364TIP3   OH2 1036   3.878   4.852   3.938
  364TIP3    H1 1037   3.915   4.936   3.910
  364TIP3    H2 1038   3.784   4.866   3.939
  365TIP3   OH2 1039   7.787   4.655   4.487
  365TIP3    H1 1040   7.779   4.695   4.573
  365TIP3    H2 1041   7.732   4.577   4.491
  366TIP3   OH2 1042   1.082   6.983   3.244
  366TIP3    H1 1043   1.057   7.076   3.246
  366TIP3    H2 1044   1.032   6.943   3.315
  367TIP3   OH2 1045   5.733   4.062   4.617
  367TIP3    H1 1046   5.739   4.042   4.523
  367TIP3    H2 1047   5.719   4.157   4.620
  368TIP3   OH2 1048   3.699   0.695   4.462
  368TIP3    H1 1049   3.697   0.729   4.373
  368TIP3    H2 1050   3.621   0.732   4.503
  369TIP3   OH2 1051   3.955   3.262   5.656
  369TIP3    H1 1052   3.907   3.199   5.603
  369TIP3    H2 1053   4.045   3.230   5.655
  370TIP3   OH2 1054   0.457   5.282   2.570
  370TIP3    H1 1055   0.425   5.217   2.632
  370TIP3    H2 1056   0.385   5.344   2.560
  371TIP3   OH2 1057   4.026   2.017   6.331
  371TIP3    H1 1058   3.958   1.997   6.396
  371TIP3    H2 1059   4.016   1.949   6.264
  372TIP3   OH2 1060   1.665   4.586   1.653
  372TIP3    H1 1061   1.572   4.598   1.635
  372TIP3    H2 1062   1.708   4.655   1.603
  373TIP3   OH2 1063   4.845   1.818   4.444
  373TIP3    H1 1064   4.755   1.800   4.415
  373TIP3    H2 1065   4.837   1.894   4.501
  374TIP3   OH2 1066   4.271   4.295   4.545
  374TIP3    H1 1067   4.275   4.387   4.518
  374TIP3    H2 1068   4.187   4.287   4.589
  375TIP3   OH2 1069   7.543   1.168   0.352
  375TIP3    H1 1070   7.558   1.081   0.316
  375TIP3    H2 1071   7.592   1.169   0.434
  376TIP3   OH2 1072   6.896   3.124   3.060
  376TIP3    H1 1073   6.940   3.208   3.060
  376TIP3    H2 1074   6.843   3.124   2.980
  377TIP3   OH2 1075   4.607   0.355   1.798
  377TIP3    H1 1076   4.537   0.402   1.752
  377TIP3    H2 1077   4.667   0.424   1.826
  378TIP3   OH2 1078   5.101   2.251   6.260
  378TIP3    H1 1079   5.187   2.263   6.221
  378TIP3    H2 1080   5.043   2.233   6.185
  379TIP3   OH2 1081   7.311   5.109   1.489
  379TIP3    H1 1082   7.355   5.179   1.537
  379TIP3    H2 1083   7.250   5.070   1.552
  380TIP3   OH2 1084   5.144   0.271   4.659
  380TIP3    H1 1085   5.226   0.231   4.687
  380TIP3    H2 1086   5.160   0.294   4.567
  381TIP3   OH2 1087   1.603   6.041   4.164
  381TIP3    H1 1088   1.520   6.015   4.204
  381TIP3    H2 1089   1.663   5.968   4.184
  382TIP3   OH2 1090   6.033   3.547   4.790
  382TIP3    H1 1091   6.065   3.515   4.875
  382TIP3    H2 1092   5.973   3.479   4.760
  383TIP3   OH2 1093   1.531   0.101   5.628
  383TIP3    H1 1094   1.618   0.097   5.666
  383TIP3    H2 1095   1.517   0.014   5.591
  384TIP3   OH2 1096   6.390   4.161   5.283
  384TIP3    H1 1097   6.324   4.223   5.312
  384TIP3    H2 1098   6.386   4.163   5.187
  385TIP3   OH2 1099   1.235   7.240   2.227
  385TIP3    H1 1100   1.238   7.248   2.131
  385TIP3    H2 1101   1.270   7.323   2.259
  386TIP3   OH2 1102   5.379   5.017   0.897
  386TIP3    H1 1103   5.467   4.990   0.873
  386TIP3    H2 1104   5.324   4.983   0.826
  387TIP3   OH2 1105   6.496   1.494   1.765
  387TIP3    H1 1106   6.572   1.534   1.722
  387TIP3    H2 1107   6.478   1.551   1.840
  388TIP3   OH2 1108   4.860   2.834   4.002
  388TIP3    H1 1109   4.920   2.780   3.949
  388TIP3    H2 1110   4.798   2.869   3.938
  389TIP3   OH2 1111   6.154   7.282   1.813
  389TIP3    H1 1112   6.194   7.319   1.892
  389TIP3    H2 1113   6.061   7.304   1.821
  390TIP3   OH2 1114   0.683   7.729   2.602
  390TIP3    H1 1115   0.597   7.765   2.622
  390TIP3    H2 1116   0.683   7.719   2.507
  391TIP3   OH2 1117   0.445   1.752   1.225
  391TIP3    H1 1118   0.508   1.727   1.292
  391TIP3    H2 1119   0.375   1.688   1.232
  392TIP3   OH2 1120   1.182   3.367   0.289
  392TIP3    H1 1121   1.156   3.459   0.281
  392TIP3    H2 1122   1.230   3.348   0.208
  393TIP3   OH2 1123   1.590   2.389   5.013
  393TIP3    H1 1124   1.546   2.413   4.932
  393TIP3    H2 1125   1.626   2.302   4.997
  394TIP3   OH2 1126   8.130   3.306   5.535
  394TIP3    H1 1127   8.099   3.389   5.499
  394TIP3    H2 1128   8.202   3.280   5.477
  395TIP3   OH2 1129   3.954   3.826   4.017
  395TIP3    H1 1130   3.937   3.919   4.033
  395TIP3    H2 1131   3.881   3.797   3.963
  396TIP3   OH2 1132   1.269   0.511   4.021
  396TIP3    H1 1133   1.270   0.481   3.930
  396TIP3    H2 1134   1.266   0.430   4.072
  397TIP3   OH2 1135   2.724   6.072   3.778
  397TIP3    H1 1136   2.663   6.083   3.850
  397TIP3    H2 1137   2.792   6.013   3.813
  398TIP3   OH2 1138   4.737   2.181   4.417
  398TIP3    H1 1139   4.762   2.128   4.493
  398TIP3    H2 1140   4.795   2.150   4.347
  399TIP3   OH2 1141   2.563   7.180   3.376
  399TIP3    H1 1142   2.616   7.238   3.322
  399TIP3    H2 1143   2.538   7.233   3.452
  400TIP3   OH2 1144   2.342   0.710   6.053
  400TIP3    H1 1145   2.405   0.648   6.017
  400TIP3    H2 1146   2.384   0.744   6.132
  401TIP3   OH2 1147   6.095   4.134   4.371
  401TIP3    H1 1148   6.086   4.111   4.278
  401TIP3    H2 1149   6.019   4.189   4.389
  402TIP3   OH2 1150   4.035   3.135   3.824
  402TIP3    H1 1151   4.097   3.206   3.839
  402TIP3    H2 1152   3.954   3.179   3.796
  403TIP3   OH2 1153   6.944   5.681   3.630
  403TIP3    H1 1154   6.955   5.642   3.716
  403TIP3    H2 1155   7.032   5.710   3.605
  404TIP3   OH2 1156   5.349   2.379   0.102
  404TIP3    H1 1157   5.347   2.283   0.097
  404TIP3    H2 1158   5.440   2.401   0.083
  405TIP3   OH2 1159   2.909   5.258   0.795
  405TIP3    H1 1160   2.883   5.228   0.882
  405TIP3    H2 1161   2.991   5.213   0.776
  406TIP3   OH2 1162   7.465   5.089   1.818
  406TIP3    H1 1163   7.547   5.138   1.822
  406TIP3    H2 1164   7.486   5.010   1.768
  407TIP3   OH2 1165   6.017   4.754   3.185
  407TIP3    H1 1166   6.004   4.847   3.203
  407TIP3    H2 1167   6.093   4.750   3.127
  408TIP3   OH2 1168   5.638   2.061   2.605
  408TIP3    H1 1169   5.685   2.136   2.568
  408TIP3    H2 1170   5.693   1.986   2.584
  409TIP3   OH2 1171   4.737   5.948   4.148
  409TIP3    H1 1172   4.680   5.940   4.072
  409TIP3    H2 1173   4.792   5.870   4.146
  410TIP3   OH2 1174   3.810   1.443   2.742
  410TIP3    H1 1175   3.770   1.452   2.828
  410TIP3    H2 1176   3.821   1.533   2.710
  411TIP3   OH2 1177   6.488   3.303   2.457
  411TIP3    H1 1178   6.415   3.313   2.519
  411TIP3    H2 1179   6.513   3.393   2.436
  412TIP3   OH2 1180   6.668   3.282   2.025
  412TIP3    H1 1181   6.651   3.365   1.981
  412TIP3    H2 1182   6.702   3.305   2.111
  413TIP3   OH2 1183   7.721   6.318   2.879
  413TIP3    H1 1184   7.667   6.281   2.810
  413TIP3    H2 1185   7.664   6.378   2.926
  414TIP3   OH2 1186   3.609   5.033   1.633
  414TIP3    H1 1187   3.524   5.046   1.675
  414TIP3    H2 1188   3.629   4.940   1.647
  415TIP3   OH2 1189   6.005   5.056   0.522
  415TIP3    H1 1190   6.061   5.124   0.484
  415TIP3    H2 1191   5.983   5.089   0.609
  416TIP3   OH2 1192   1.535   1.503   1.915
  416TIP3    H1 1193   1.447   1.466   1.924
  416TIP3    H2 1194   1.521   1.598   1.923
  417TIP3   OH2 1195   4.509   5.310   3.019
  417TIP3    H1 1196   4.425   5.273   3.045
  417TIP3    H2 1197   4.526   5.273   2.932
  418TIP3   OH2 1198   4.869   3.686   6.477
  418TIP3    H1 1199   4.855   3.687   6.382
  418TIP3    H2 1200   4.931   3.757   6.493
  419TIP3   OH2 1201   3.142   1.979   2.490
  419TIP3    H1 1202   3.230   2.014   2.474
  419TIP3    H2 1203   3.144   1.891   2.452
  420TIP3   OH2 1204   7.190   3.208   2.723
  420TIP3    H1 1205   7.221   3.252   2.802
  420TIP3    H2 1206   7.111   3.162   2.751
  421TIP3   OH2 1207   2.041   7.799   6.311
  421TIP3    H1 1208   2.100   7.746   6.364
  421TIP3    H2 1209   1.979   7.836   6.374
  422TIP3   OH2 1210   1.464   0.145   1.747
  422TIP3    H1 1211   1.493   0.229   1.711
  422TIP3    H2 1212   1.522   0.081   1.707
  423TIP3   OH2 1213   6.470   0.412   5.363
  423TIP3    H1 1214   6.481   0.323   5.398
  423TIP3    H2 1215   6.409   0.454   5.424
  424TIP3   OH2 1216   5.653   6.284   3.586
  424TIP3    H1 1217   5.681   6.233   3.661
  424TIP3    H2 1218   5.610   6.220   3.528
  425TIP3   OH2 1219   7.442   0.087   0.164
  425TIP3    H1 1220   7.503   0.156   0.190
  425TIP3    H2 1221   7.398   0.062   0.245
  426TIP3   OH2 1222   5.617   4.586   3.625
  426TIP3    H1 1223   5.551   4.630   3.679
  426TIP3    H2 1224   5.605   4.625   3.538
  427TIP3   OH2 1225   7.400   4.510   6.492
  427TIP3    H1 1226   7.354   4.526   6.574
  427TIP3    H2 1227   7.481   4.561   6.501
  428TIP3   OH2 1228   6.614   1.796   1.366
  428TIP3    H1 1229   6.648   1.867   1.420
  428TIP3    H2 1230   6.520   1.814   1.358
  429TIP3   OH2 1231   4.889   6.691   2.391
  429TIP3    H1 1232   4.895   6.603   2.355
  429TIP3    H2 1233   4.799   6.698   2.423
  430TIP3   OH2 1234   3.460   5.038   6.094
  430TIP3    H1 1235   3.377   5.008   6.057
  430TIP3    H2 1236   3.477   5.121   6.049
  431TIP3   OH2 1237   1.641   1.447   0.814
  431TIP3    H1 1238   1.727   1.448   0.770
  431TIP3    H2 1239   1.612   1.356   0.806
  432TIP3   OH2 1240   0.858   1.056   1.442
  432TIP3    H1 1241   0.768   1.078   1.420
  432TIP3    H2 1242   0.888   1.000   1.371
  433TIP3   OH2 1243   1.346   4.147   6.211
  433TIP3    H1 1244   1.304   4.083   6.267
  433TIP3    H2 1245   1.297   4.142   6.128
  434TIP3   OH2 1246   2.997   2.190   5.827
  434TIP3    H1 1247   2.961   2.271   5.792
  434TIP3    H2 1248   3.061   2.162   5.761
  435TIP3   OH2 1249   7.438   7.007   5.597
  435TIP3    H1 1250   7.410   6.943   5.662
  435TIP3    H2 1251   7.421   7.092   5.638
  436TIP3   OH2 1252   4.341   6.961   2.101
  436TIP3    H1 1253   4.419   6.907   2.084
  436TIP3    H2 1254   4.300   6.970   2.015
  437TIP3   OH2 1255   4.621   0.833   0.530
  437TIP3    H1 1256   4.595   0.791   0.447
  437TIP3    H2 1257   4.542   0.829   0.584
  438TIP3   OH2 1258   5.702   4.196   1.440
  438TIP3    H1 1259   5.665   4.182   1.527
  438TIP3    H2 1260   5.648   4.265   1.401
  439TIP3   OH2 1261   5.746   1.514   5.119
  439TIP3    H1 1262   5.698   1.442   5.077
  439TIP3    H2 1263   5.694   1.592   5.100
  440TIP3   OH2 1264   5.948   3.240   5.552
  440TIP3    H1 1265   6.038   3.263   5.528
  440TIP3    H2 1266   5.915   3.317   5.597
  441TIP3   OH2 1267   3.572   2.537   4.190
  441TIP3    H1 1268   3.486   2.580   4.198
  441TIP3    H2 1269   3.558   2.466   4.128
  442TIP3   OH2 1270   0.724   5.830   0.391
  442TIP3    H1 1271   0.649   5.825   0.449
  442TIP3    H2 1272   0.765   5.744   0.397
  443TIP3   OH2 1273   3.260  -0.005   4.130
  443TIP3    H1 1274   3.271   0.074   4.183
  443TIP3    H2 1275   3.186   0.015   4.072
  444TIP3   OH2 1276   6.694   7.830   1.240
  444TIP3    H1 1277   6.706   7.898   1.307
  444TIP3    H2 1278   6.669   7.752   1.290
  445TIP3   OH2 1279   4.076   7.728   0.233
  445TIP3    H1 1280   4.064   7.634   0.245
  445TIP3    H2 1281   4.073   7.740   0.138
  446TIP3   OH2 1282   0.815   4.357   0.185
  446TIP3    H1 1283   0.749   4.426   0.183
  446TIP3    H2 1284   0.805   4.311   0.102
  447TIP3   OH2 1285   5.060   0.099   0.214
  447TIP3    H1 1286   5.037   0.180   0.169
  447TIP3    H2 1287   5.056   0.122   0.307
  448TIP3   OH2 1288   2.516   2.284   1.094
  448TIP3    H1 1289   2.501   2.271   1.188
  448TIP3    H2 1290   2.459   2.358   1.071
  449TIP3   OH2 1291   7.887   1.803   3.350
  449TIP3    H1 1292   7.879   1.758   3.434
  449TIP3    H2 1293   7.874   1.895   3.371
  450TIP3   OH2 1294   4.797   6.716   3.153
  450TIP3    H1 1295   4.732   6.718   3.224
  450TIP3    H2 1296   4.881   6.712   3.198
  451TIP3   OH2 1297   6.016   0.772   1.553
  451TIP3    H1 1298   5.956   0.711   1.509
  451TIP3    H2 1299   6.103   0.744   1.525
  452TIP3   OH2 1300   4.329   0.497   6.057
  452TIP3    H1 1301   4.290   0.417   6.093
  452TIP3    H2 1302   4.325   0.485   5.962
  453TIP3   OH2 1303   4.357   0.431   2.333
  453TIP3    H1 1304   4.420   0.499   2.308
  453TIP3    H2 1305   4.276   0.456   2.289
  454TIP3   OH2 1306   0.778   6.021   0.678
  454TIP3    H1 1307   0.868   6.029   0.648
  454TIP3    H2 1308   0.742   5.949   0.627
  455TIP3   OH2 1309   3.121   4.682   3.026
  455TIP3    H1 1310   3.136   4.774   3.008
  455TIP3    H2 1311   3.071   4.650   2.950
  456TIP3   OH2 1312   8.090   7.192   4.512
  456TIP3    H1 1313   8.031   7.257   4.475
  456TIP3    H2 1314   8.050   7.167   4.594
  457TIP3   OH2 1315   3.574   0.922   5.080
  457TIP3    H1 1316   3.621   0.840   5.097
  457TIP3    H2 1317   3.544   0.950   5.167
  458TIP3   OH2 1318   5.401   0.525   5.469
  458TIP3    H1 1319   5.368   0.435   5.470
  458TIP3    H2 1320   5.483   0.520   5.420
  459TIP3   OH2 1321   6.818   4.438   2.646
  459TIP3    H1 1322   6.738   4.414   2.691
  459TIP3    H2 1323   6.803   4.412   2.555
  460TIP3   OH2 1324   1.111   6.160   1.836
  460TIP3    H1 1325   1.022   6.135   1.809
  460TIP3    H2 1326   1.166   6.139   1.760
  461TIP3   OH2 1327   2.467   2.337   5.315
  461TIP3    H1 1328   2.448   2.374   5.229
  461TIP3    H2 1329   2.474   2.243   5.300
  462TIP3   OH2 1330   2.373   2.623   1.482
  462TIP3    H1 1331   2.411   2.710   1.492
  462TIP3    H2 1332   2.320   2.628   1.403
  463TIP3   OH2 1333   7.437   0.848   5.029
  463TIP3    H1 1334   7.497   0.825   5.100
  463TIP3    H2 1335   7.395   0.929   5.057
  464TIP3   OH2 1336   1.524   4.834   5.127
  464TIP3    H1 1337   1.437   4.800   5.106
  464TIP3    H2 1338   1.538   4.906   5.065
  465TIP3   OH2 1339   4.971   6.052   0.069
  465TIP3    H1 1340   4.958   5.958   0.055
  465TIP3    H2 1341   4.982   6.088  -0.019
  466TIP3   OH2 1342   5.852   2.679   0.314
  466TIP3    H1 1343   5.797   2.611   0.353
  466TIP3    H2 1344   5.924   2.691   0.375
  467TIP3   OH2 1345   1.286   4.868   2.172
  467TIP3    H1 1346   1.295   4.956   2.209
  467TIP3    H2 1347   1.229   4.822   2.233
  468TIP3   OH2 1348   7.918   3.694   5.978
  468TIP3    H1 1349   7.955   3.732   5.898
  468TIP3    H2 1350   7.825   3.686   5.960
  469TIP3   OH2 1351   3.548   7.720   0.761
  469TIP3    H1 1352   3.612   7.785   0.731
  469TIP3    H2 1353   3.512   7.684   0.681
  470TIP3   OH2 1354   2.280   3.757   0.878
  470TIP3    H1 1355   2.224   3.709   0.939
  470TIP3    H2 1356   2.348   3.795   0.933
  471TIP3   OH2 1357   4.226   2.839   0.612
  471TIP3    H1 1358   4.288   2.895   0.566
  471TIP3    H2 1359   4.194   2.779   0.544
  472TIP3   OH2 1360   5.978   1.577   0.114
  472TIP3    H1 1361   5.952   1.639   0.182
  472TIP3    H2 1362   6.074   1.576   0.118
  473TIP3   OH2 1363   3.921   6.597   4.022
  473TIP3    H1 1364   3.882   6.599   4.109
  473TIP3    H2 1365   4.003   6.548   4.034
  474TIP3   OH2 1366   4.392   3.145   6.152
  474TIP3    H1 1367   4.339   3.120   6.076
  474TIP3    H2 1368   4.411   3.063   6.196
  475TIP3   OH2 1369   5.649   5.367   6.377
  475TIP3    H1 1370   5.564   5.397   6.346
  475TIP3    H2 1371   5.697   5.346   6.296
  476TIP3   OH2 1372   5.023   0.360   1.862
  476TIP3    H1 1373   5.016   0.386   1.954
  476TIP3    H2 1374   5.074   0.431   1.822
  477TIP3   OH2 1375   4.782   6.003   0.531
  477TIP3    H1 1376   4.876   6.002   0.548
  477TIP3    H2 1377   4.768   5.935   0.466
  478TIP3   OH2 1378   2.245   2.463   4.772
  478TIP3    H1 1379   2.262   2.385   4.825
  478TIP3    H2 1380   2.269   2.536   4.829
  479TIP3   OH2 1381   5.669   1.852   3.463
  479TIP3    H1 1382   5.639   1.834   3.374
  479TIP3    H2 1383   5.765   1.853   3.457
  480TIP3   OH2 1384   6.554   1.184   0.281
  480TIP3    H1 1385   6.591   1.192   0.193
  480TIP3    H2 1386   6.496   1.260   0.290
  481TIP3   OH2 1387   1.963   1.108   0.107
  481TIP3    H1 1388   2.029   1.042   0.091
  481TIP3    H2 1389   1.921   1.081   0.189
  482TIP3   OH2 1390   4.983   5.535   6.089
  482TIP3    H1 1391   5.061   5.570   6.133
  482TIP3    H2 1392   4.971   5.593   6.013
  483TIP3   OH2 1393   1.413   4.661   1.665
  483TIP3    H1 1394   1.326   4.631   1.639
  483TIP3    H2 1395   1.431   4.615   1.747
  484TIP3   OH2 1396   6.931   4.729   2.694
  484TIP3    H1 1397   6.996   4.733   2.764
  484TIP3    H2 1398   6.866   4.666   2.725
  485TIP3   OH2 1399   7.647   0.005   0.862
  485TIP3    H1 1400   7.680   0.094   0.847
  485TIP3    H2 1401   7.605   0.009   0.948
  486TIP3   OH2 1402   5.530   4.987   5.126
  486TIP3    H1 1403   5.544   5.048   5.054
  486TIP3    H2 1404   5.602   4.924   5.120
  487TIP3   OH2 1405   2.604   1.647   1.184
  487TIP3    H1 1406   2.577   1.666   1.094
  487TIP3    H2 1407   2.523   1.622   1.229
  488TIP3   OH2 1408   0.793   6.535   3.319
  488TIP3    H1 1409   0.742   6.570   3.392
  488TIP3    H2 1410   0.779   6.440   3.323
  489TIP3   OH2 1411   4.528   0.588   3.614
  489TIP3    H1 1412   4.613   0.575   3.656
  489TIP3    H2 1413   4.539   0.666   3.559
  490TIP3   OH2 1414   1.824   7.278   5.495
  490TIP3    H1 1415   1.868   7.284   5.579
  490TIP3    H2 1416   1.840   7.189   5.465
  491TIP3   OH2 1417   3.548   5.452   0.066
  491TIP3    H1 1418   3.455   5.447   0.089
  491TIP3    H2 1419   3.550   5.445  -0.029
  492TIP3   OH2 1420   0.966   3.711   6.197
  492TIP3    H1 1421   0.870   3.714   6.199
  492TIP3    H2 1422   0.989   3.733   6.107
  493TIP3   OH2 1423   2.871   0.310   0.072
  493TIP3    H1 1424   2.931   0.384   0.080
  493TIP3    H2 1425   2.820   0.312   0.153
  494TIP3   OH2 1426   5.904   2.022   1.485
  494TIP3    H1 1427   5.935   2.112   1.475
  494TIP3    H2 1428   5.967   1.969   1.435
  495TIP3   OH2 1429   1.179   5.006   4.687
  495TIP3    H1 1430   1.159   5.045   4.772
  495TIP3    H2 1431   1.263   4.962   4.701
  496TIP3   OH2 1432   4.724   7.304   0.255
  496TIP3    H1 1433   4.778   7.382   0.248
  496TIP3    H2 1434   4.635   7.338   0.271
  497TIP3   OH2 1435   1.231   2.801   1.702
  497TIP3    H1 1436   1.247   2.819   1.610
  497TIP3    H2 1437   1.261   2.711   1.715
  498TIP3   OH2 1438   4.327   5.708   1.127
  498TIP3    H1 1439   4.371   5.737   1.207
  498TIP3    H2 1440   4.246   5.760   1.123
  499TIP3   OH2 1441   3.879   0.056   2.018
  499TIP3    H1 1442   3.857  -0.034   1.996
  499TIP3    H2 1443   3.972   0.054   2.038
  500TIP3   OH2 1444   3.268   3.318   4.719
  500TIP3    H1 1445   3.259   3.381   4.790
  500TIP3    H2 1446   3.348   3.345   4.674
  501TIP3   OH2 1447   7.691   6.058   3.030
  501TIP3    H1 1448   7.707   6.060   3.124
  501TIP3    H2 1449   7.735   6.137   2.997
  502TIP3   OH2 1450   6.728   4.113   5.115
  502TIP3    H1 1451   6.702   4.196   5.155
  502TIP3    H2 1452   6.651   4.057   5.123
  503TIP3   OH2 1453   2.956   3.089   6.341
  503TIP3    H1 1454   2.924   3.145   6.413
  503TIP3    H2 1455   2.981   3.008   6.384
  504TIP3   OH2 1456   1.239   5.137   0.156
  504TIP3    H1 1457   1.237   5.171   0.246
  504TIP3    H2 1458   1.175   5.066   0.156
  505TIP3   OH2 1459   2.783   7.323   2.082
  505TIP3    H1 1460   2.702   7.336   2.031
  505TIP3    H2 1461   2.767   7.371   2.164
  506TIP3   OH2 1462   4.746   0.042   4.986
  506TIP3    H1 1463   4.755  -0.052   4.971
  506TIP3    H2 1464   4.836   0.072   5.000
  507TIP3   OH2 1465   3.554   5.502   5.135
  507TIP3    H1 1466   3.607   5.441   5.187
  507TIP3    H2 1467   3.578   5.589   5.168
  508TIP3   OH2 1468   7.333   4.863   0.490
  508TIP3    H1 1469   7.415   4.823   0.518
  508TIP3    H2 1470   7.331   4.851   0.395
  509TIP3   OH2 1471   7.632   7.331   5.243
  509TIP3    H1 1472   7.627   7.282   5.161
  509TIP3    H2 1473   7.607   7.267   5.310
  510TIP3   OH2 1474   4.598   1.180   2.307
  510TIP3    H1 1475   4.613   1.096   2.263
  510TIP3    H2 1476   4.537   1.226   2.250
  511TIP3   OH2 1477   0.307   6.224   4.315
  511TIP3    H1 1478   0.214   6.202   4.322
  511TIP3    H2 1479   0.346   6.150   4.269
  512TIP3   OH2 1480   5.817   0.256   4.221
  512TIP3    H1 1481   5.887   0.204   4.261
  512TIP3    H2 1482   5.803   0.215   4.135
  513TIP3   OH2 1483   7.831   4.479   3.095
  513TIP3    H1 1484   7.747   4.524   3.086
  513TIP3    H2 1485   7.896   4.542   3.062
  514TIP3   OH2 1486   0.484   0.303   1.858
  514TIP3    H1 1487   0.444   0.294   1.771
  514TIP3    H2 1488   0.537   0.224   1.868
  515TIP3   OH2 1489   1.388   0.104   3.372
  515TIP3    H1 1490   1.293   0.108   3.358
  515TIP3    H2 1491   1.425   0.084   3.286
  516TIP3   OH2 1492   5.627   7.419   4.723
  516TIP3    H1 1493   5.664   7.477   4.790
  516TIP3    H2 1494   5.550   7.380   4.765
  517TIP3   OH2 1495   5.101   4.265   0.733
  517TIP3    H1 1496   5.018   4.240   0.775
  517TIP3    H2 1497   5.161   4.195   0.757
  518TIP3   OH2 1498   5.757   5.191   4.519
  518TIP3    H1 1499   5.674   5.211   4.562
  518TIP3    H2 1500   5.732   5.156   4.434
  519TIP3   OH2 1501   5.836   5.032   0.744
  519TIP3    H1 1502   5.908   5.025   0.807
  519TIP3    H2 1503   5.805   5.122   0.753
  520TIP3   OH2 1504   1.873   6.048   2.400
  520TIP3    H1 1505   1.872   6.122   2.340
  520TIP3    H2 1506   1.781   6.037   2.425
  521TIP3   OH2 1507   2.496   6.196   5.824
  521TIP3    H1 1508   2.473   6.131   5.758
  521TIP3    H2 1509   2.474   6.155   5.907
  522TIP3   OH2 1510   5.472   0.536   0.044
  522TIP3    H1 1511   5.494   0.607  -0.017
  522TIP3    H2 1512   5.395   0.568   0.091
  523TIP3   OH2 1513   1.485   4.783   4.286
  523TIP3    H1 1514   1.536   4.800   4.366
  523TIP3    H2 1515   1.543   4.728   4.232
  524TIP3   OH2 1516   7.285   5.727   5.925
  524TIP3    H1 1517   7.307   5.668   5.853
  524TIP3    H2 1518   7.286   5.815   5.887
  525TIP3   OH2 1519   5.208   4.509   5.307
  525TIP3    H1 1520   5.268   4.448   5.264
  525TIP3    H2 1521   5.265   4.572   5.350
  526TIP3   OH2 1522   1.693   2.960   0.917
  526TIP3    H1 1523   1.766   2.913   0.958
  526TIP3    H2 1524   1.615   2.915   0.948
  527TIP3   OH2 1525   6.592   0.751   0.128
  527TIP3    H1 1526   6.686   0.763   0.138
  527TIP3    H2 1527   6.553   0.820   0.183
  528TIP3   OH2 1528   7.098   0.986   0.142
  528TIP3    H1 1529   7.164   1.038   0.188
  528TIP3    H2 1530   7.021   0.988   0.199
  529TIP3   OH2 1531   7.581   2.008   1.664
  529TIP3    H1 1532   7.488   2.003   1.643
  529TIP3    H2 1533   7.594   1.938   1.728
  530TIP3   OH2 1534   3.366   5.853   3.163
  530TIP3    H1 1535   3.314   5.919   3.207
  530TIP3    H2 1536   3.457   5.884   3.170
  531TIP3   OH2 1537   1.803   2.715   6.030
  531TIP3    H1 1538   1.735   2.648   6.041
  531TIP3    H2 1539   1.756   2.792   6.000
  532TIP3   OH2 1540   5.937   4.426   6.042
  532TIP3    H1 1541   5.856   4.405   6.090
  532TIP3    H2 1542   5.959   4.514   6.071
  533TIP3   OH2 1543   5.850   4.180   3.051
  533TIP3    H1 1544   5.831   4.114   3.118
  533TIP3    H2 1545   5.769   4.187   3.001
  534TIP3   OH2 1546   7.393   6.703   1.514
  534TIP3    H1 1547   7.309   6.704   1.559
  534TIP3    H2 1548   7.378   6.653   1.434
  535TIP3   OH2 1549   7.190   2.745   5.468
  535TIP3    H1 1550   7.132   2.790   5.406
  535TIP3    H2 1551   7.278   2.763   5.435
  536TIP3   OH2 1552   2.166   3.021   3.208
  536TIP3    H1 1553   2.218   3.091   3.167
  536TIP3    H2 1554   2.076   3.053   3.206
  537TIP3   OH2 1555   2.886   6.911   6.359
  537TIP3    H1 1556   2.801   6.902   6.316
  537TIP3    H2 1557   2.950   6.903   6.288
  538TIP3   OH2 1558   7.636   0.755   2.994
  538TIP3    H1 1559   7.642   0.767   2.899
  538TIP3    H2 1560   7.598   0.837   3.026
  539TIP3   OH2 1561   3.600   5.981   3.150
  539TIP3    H1 1562   3.668   6.049   3.145
  539TIP3    H2 1563   3.566   5.974   3.061
  540TIP3   OH2 1564   0.404   5.957   5.042
  540TIP3    H1 1565   0.423   5.864   5.031
  540TIP3    H2 1566   0.487   5.996   5.069
  541TIP3   OH2 1567   7.962   6.523   3.216
  541TIP3    H1 1568   7.912   6.461   3.269
  541TIP3    H2 1569   7.896   6.585   3.183
  542TIP3   OH2 1570   5.462   5.045   2.749
  542TIP3    H1 1571   5.554   5.070   2.754
  542TIP3    H2 1572   5.426   5.098   2.678
  543TIP3   OH2 1573   8.129   1.747   2.580
  543TIP3    H1 1574   8.171   1.673   2.537
  543TIP3    H2 1575   8.201   1.804   2.608
  544TIP3   OH2 1576   1.634   2.706   5.668
  544TIP3    H1 1577   1.692   2.668   5.603
  544TIP3    H2 1578   1.640   2.646   5.743
  545TIP3   OH2 1579   7.385   1.298   4.680
  545TIP3    H1 1580   7.411   1.381   4.720
  545TIP3    H2 1581   7.372   1.238   4.754
  546TIP3   OH2 1582   5.243   6.746   4.115
  546TIP3    H1 1583   5.206   6.704   4.193
  546TIP3    H2 1584   5.185   6.721   4.044
  547TIP3   OH2 1585   4.107   6.831   0.908
  547TIP3    H1 1586   4.202   6.836   0.899
  547TIP3    H2 1587   4.073   6.893   0.844
  548TIP3   OH2 1588   5.897   1.146   5.472
  548TIP3    H1 1589   5.960   1.218   5.472
  548TIP3    H2 1590   5.814   1.186   5.447
  549TIP3   OH2 1591   2.847   7.214   6.206
  549TIP3    H1 1592   2.901   7.147   6.164
  549TIP3    H2 1593   2.758   7.178   6.204
  550TIP3   OH2 1594  -0.001   6.190   0.842
  550TIP3    H1 1595  -0.083   6.201   0.794
  550TIP3    H2 1596   0.065   6.172   0.774
  551TIP3   OH2 1597   6.356   1.344   4.105
  551TIP3    H1 1598   6.278   1.289   4.098
  551TIP3    H2 1599   6.425   1.294   4.061
  552TIP3   OH2 1600   5.983   0.167   6.091
  552TIP3    H1 1601   5.981   0.262   6.098
  552TIP3    H2 1602   6.008   0.137   6.178
  553TIP3   OH2 1603   4.093   3.558   0.408
  553TIP3    H1 1604   4.166   3.580   0.467
  553TIP3    H2 1605   4.015   3.564   0.463
  554TIP3   OH2 1606   4.475   7.203   2.153
  554TIP3    H1 1607   4.428   7.254   2.087
  554TIP3    H2 1608   4.440   7.115   2.146
  555TIP3   OH2 1609   1.347   1.847   4.609
  555TIP3    H1 1610   1.284   1.847   4.681
  555TIP3    H2 1611   1.344   1.936   4.574
  556TIP3   OH2 1612   0.729   1.398   4.450
  556TIP3    H1 1613   0.706   1.489   4.468
  556TIP3    H2 1614   0.706   1.385   4.358
  557TIP3   OH2 1615   5.458   3.054   2.910
  557TIP3    H1 1616   5.391   2.991   2.937
  557TIP3    H2 1617   5.409   3.126   2.871
  558TIP3   OH2 1618   4.198   0.381   5.105
  558TIP3    H1 1619   4.168   0.381   5.014
  558TIP3    H2 1620   4.226   0.471   5.121
  559TIP3   OH2 1621   4.026   4.381   4.360
  559TIP3    H1 1622   4.092   4.424   4.414
  559TIP3    H2 1623   4.042   4.287   4.375
  560TIP3   OH2 1624   3.083   7.413   3.127
  560TIP3    H1 1625   2.990   7.393   3.117
  560TIP3    H2 1626   3.101   7.397   3.220
  561TIP3   OH2 1627   3.834   0.256   4.205
  561TIP3    H1 1628   3.914   0.272   4.154
  561TIP3    H2 1629   3.815   0.340   4.247
  562TIP3   OH2 1630   3.892   3.725   6.149
  562TIP3    H1 1631   3.874   3.725   6.243
  562TIP3    H2 1632   3.878   3.635   6.121
  563TIP3   OH2 1633   3.760   2.019   0.190
  563TIP3    H1 1634   3.818   1.944   0.206
  563TIP3    H2 1635   3.762   2.068   0.272
  564TIP3   OH2 1636   5.425   0.945   1.080
  564TIP3    H1 1637   5.508   0.899   1.096
  564TIP3    H2 1638   5.451   1.025   1.034
  565TIP3   OH2 1639   4.703   7.494   5.573
  565TIP3    H1 1640   4.653   7.565   5.531
  565TIP3    H2 1641   4.794   7.520   5.562
  566TIP3   OH2 1642   1.499   0.366   1.573
  566TIP3    H1 1643   1.542   0.408   1.499
  566TIP3    H2 1644   1.408   0.354   1.545
  567TIP3   OH2 1645   4.436   5.338   3.938
  567TIP3    H1 1646   4.390   5.388   3.870
  567TIP3    H2 1647   4.525   5.374   3.938
  568TIP3   OH2 1648   4.802   6.591   4.752
  568TIP3    H1 1649   4.844   6.506   4.746
  568TIP3    H2 1650   4.823   6.622   4.841
  569TIP3   OH2 1651   5.905   2.898   0.873
  569TIP3    H1 1652   5.908   2.973   0.813
  569TIP3    H2 1653   5.918   2.937   0.959
  570TIP3   OH2 1654   1.887   1.442   0.670
  570TIP3    H1 1655   1.844   1.423   0.586
  570TIP3    H2 1656   1.949   1.370   0.681
  571TIP3   OH2 1657   5.635   4.354   2.338
  571TIP3    H1 1658   5.713   4.353   2.392
  571TIP3    H2 1659   5.575   4.293   2.381
  572TIP3   OH2 1660   5.408   6.987   4.488
  572TIP3    H1 1661   5.470   6.996   4.561
  572TIP3    H2 1662   5.461   6.954   4.416
  573TIP3   OH2 1663   7.799   7.555   2.236
  573TIP3    H1 1664   7.828   7.594   2.319
  573TIP3    H2 1665   7.879   7.546   2.184
  574TIP3   OH2 1666   7.318   3.937   2.365
  574TIP3    H1 1667   7.406   3.922   2.330
  574TIP3    H2 1668   7.284   3.850   2.385
  575TIP3   OH2 1669   6.191   6.661   2.088
  575TIP3    H1 1670   6.280   6.632   2.066
  575TIP3    H2 1671   6.199   6.696   2.177
  576TIP3   OH2 1672   3.041   2.095   6.068
  576TIP3    H1 1673   2.971   2.070   6.128
  576TIP3    H2 1674   2.997   2.120   5.987
  577TIP3   OH2 1675   3.792   0.447   1.165
  577TIP3    H1 1676   3.845   0.408   1.234
  577TIP3    H2 1677   3.745   0.374   1.126
  578TIP3   OH2 1678   0.559   1.430   2.699
  578TIP3    H1 1679   0.490   1.382   2.653
  578TIP3    H2 1680   0.525   1.439   2.789
  579TIP3   OH2 1681   7.610   6.258   0.799
  579TIP3    H1 1682   7.703   6.277   0.792
  579TIP3    H2 1683   7.606   6.167   0.830
  580TIP3   OH2 1684   4.478   5.049   4.062
  580TIP3    H1 1685   4.544   5.073   4.127
  580TIP3    H2 1686   4.453   4.959   4.085
  581TIP3   OH2 1687   8.279   1.909   6.564
  581TIP3    H1 1688   8.195   1.863   6.569
  581TIP3    H2 1689   8.266   1.975   6.496
  582TIP3   OH2 1690   0.214   0.239   0.786
  582TIP3    H1 1691   0.220   0.143   0.784
  582TIP3    H2 1692   0.305   0.269   0.787
  583TIP3   OH2 1693   1.302   0.396   3.789
  583TIP3    H1 1694   1.314   0.303   3.809
  583TIP3    H2 1695   1.369   0.416   3.724
  584TIP3   OH2 1696   7.826   2.392   6.083
  584TIP3    H1 1697   7.860   2.390   5.993
  584TIP3    H2 1698   7.775   2.473   6.087
  585TIP3   OH2 1699   2.035   2.592   5.056
  585TIP3    H1 1700   2.094   2.668   5.045
  585TIP3    H2 1701   2.058   2.558   5.143
  586TIP3   OH2 1702   7.714   7.774   4.594
  586TIP3    H1 1703   7.738   7.867   4.599
  586TIP3    H2 1704   7.650   7.762   4.664
  587TIP3   OH2 1705   0.185   1.736   6.291
  587TIP3    H1 1706   0.249   1.733   6.362
  587TIP3    H2 1707   0.177   1.646   6.261
  588TIP3   OH2 1708   1.859   5.428   2.186
  588TIP3    H1 1709   1.801   5.399   2.257
  588TIP3    H2 1710   1.823   5.387   2.108
  589TIP3   OH2 1711   0.356   3.079   6.433
  589TIP3    H1 1712   0.420   3.033   6.487
  589TIP3    H2 1713   0.319   3.011   6.376
  590TIP3   OH2 1714   6.728   3.772   0.791
  590TIP3    H1 1715   6.786   3.765   0.867
  590TIP3    H2 1716   6.700   3.864   0.791
  591TIP3   OH2 1717   1.961   2.414   1.635
  591TIP3    H1 1718   1.970   2.401   1.540
  591TIP3    H2 1719   2.026   2.354   1.673
  592TIP3   OH2 1720   5.803  -0.014   0.963
  592TIP3    H1 1721   5.858   0.035   1.024
  592TIP3    H2 1722   5.780   0.049   0.895
  593TIP3   OH2 1723   5.462   3.707   5.482
  593TIP3    H1 1724   5.457   3.672   5.393
  593TIP3    H2 1725   5.372   3.703   5.514
  594TIP3   OH2 1726   0.297   6.586   1.862
  594TIP3    H1 1727   0.219   6.545   1.900
  594TIP3    H2 1728   0.272   6.677   1.848
  595TIP3   OH2 1729   5.740   2.306   6.609
  595TIP3    H1 1730   5.739   2.233   6.547
  595TIP3    H2 1731   5.831   2.335   6.609
  596TIP3   OH2 1732   3.969   1.777   5.249
  596TIP3    H1 1733   3.900   1.794   5.185
  596TIP3    H2 1734   4.050   1.800   5.204
  597TIP3   OH2 1735   5.663   2.816   1.562
  597TIP3    H1 1736   5.740   2.794   1.614
  597TIP3    H2 1737   5.651   2.741   1.504
  598TIP3   OH2 1738   2.696   6.471   0.223
  598TIP3    H1 1739   2.682   6.554   0.268
  598TIP3    H2 1740   2.736   6.496   0.140
  599TIP3   OH2 1741   3.951   2.071   0.845
  599TIP3    H1 1742   3.952   2.013   0.769
  599TIP3    H2 1743   3.910   2.151   0.813
  600TIP3   OH2 1744   7.657   0.049   3.471
  600TIP3    H1 1745   7.699   0.034   3.556
  600TIP3    H2 1746   7.588   0.112   3.489
  601TIP3   OH2 1747   6.416  -0.041   4.918
  601TIP3    H1 1748   6.388   0.033   4.863
  601TIP3    H2 1749   6.453   0.000   4.996
  602TIP3   OH2 1750   0.204   1.276   2.619
  602TIP3    H1 1751   0.281   1.263   2.564
  602TIP3    H2 1752   0.165   1.358   2.588
  603TIP3   OH2 1753   7.250   5.850   5.117
  603TIP3    H1 1754   7.159   5.879   5.119
  603TIP3    H2 1755   7.245   5.759   5.088
  604TIP3   OH2 1756   4.539   0.463   3.198
  604TIP3    H1 1757   4.632   0.468   3.221
  604TIP3    H2 1758   4.502   0.401   3.262
  605TIP3   OH2 1759   1.160   0.674   0.650
  605TIP3    H1 1760   1.099   0.745   0.631
  605TIP3    H2 1761   1.244   0.717   0.661
  606TIP3   OH2 1762   4.769   5.196   0.731
  606TIP3    H1 1763   4.748   5.158   0.817
  606TIP3    H2 1764   4.779   5.290   0.748
  607TIP3   OH2 1765   7.750   7.328   5.630
  607TIP3    H1 1766   7.739   7.243   5.585
  607TIP3    H2 1767   7.666   7.371   5.619
  608TIP3   OH2 1768   0.486   4.356   3.583
  608TIP3    H1 1769   0.467   4.301   3.658
  608TIP3    H2 1770   0.539   4.427   3.619
  609TIP3   OH2 1771   4.656   6.568   4.524
  609TIP3    H1 1772   4.571   6.524   4.530
  609TIP3    H2 1773   4.691   6.564   4.613
  610TIP3   OH2 1774   0.995   1.756   4.857
  610TIP3    H1 1775   0.929   1.816   4.891
  610TIP3    H2 1776   1.025   1.707   4.934
  611TIP3   OH2 1777   3.339   6.743   6.532
  611TIP3    H1 1778   3.313   6.833   6.547
  611TIP3    H2 1779   3.434   6.743   6.544
  612TIP3   OH2 1780   2.818   1.176   4.879
  612TIP3    H1 1781   2.791   1.125   4.802
  612TIP3    H2 1782   2.736   1.192   4.926
  613TIP3   OH2 1783   7.998   6.732   2.657
  613TIP3    H1 1784   8.082   6.714   2.699
  613TIP3    H2 1785   8.001   6.682   2.576
  614TIP3   OH2 1786   0.611   6.069   1.368
  614TIP3    H1 1787   0.694   6.086   1.324
  614TIP3    H2 1788   0.619   6.113   1.453
  615TIP3   OH2 1789   3.902   0.164   3.910
  615TIP3    H1 1790   3.869   0.090   3.858
  615TIP3    H2 1791   3.826   0.221   3.921
  616TIP3   OH2 1792   3.261   2.822   5.339
  616TIP3    H1 1793   3.344   2.870   5.348
  616TIP3    H2 1794   3.277   2.739   5.383
  617TIP3   OH2 1795   6.565   3.490   3.776
  617TIP3    H1 1796   6.529   3.405   3.803
  617TIP3    H2 1797   6.617   3.470   3.698
  618TIP3   OH2 1798   6.921   7.655   5.251
  618TIP3    H1 1799   6.934   7.569   5.211
  618TIP3    H2 1800   6.863   7.701   5.191
  619TIP3   OH2 1801   3.990   6.446   1.980
  619TIP3    H1 1802   3.918   6.497   2.017
  619TIP3    H2 1803   4.048   6.429   2.054
  620TIP3   OH2 1804   5.735   6.846   3.861
  620TIP3    H1 1805   5.778   6.794   3.793
  620TIP3    H2 1806   5.656   6.797   3.882
  621TIP3   OH2 1807   4.197   5.594   3.570
  621TIP3    H1 1808   4.252   5.525   3.606
  621TIP3    H2 1809   4.208   5.587   3.476
  622TIP3   OH2 1810   0.746   6.221   2.184
  622TIP3    H1 1811   0.772   6.145   2.133
  622TIP3    H2 1812   0.773   6.296   2.130
  623TIP3   OH2 1813   1.489   1.414   6.692
  623TIP3    H1 1814   1.394   1.401   6.699
  623TIP3    H2 1815   1.507   1.486   6.752
  624TIP3   OH2 1816   3.389   2.779   1.261
  624TIP3    H1 1817   3.325   2.818   1.322
  624TIP3    H2 1818   3.400   2.844   1.192
  625TIP3   OH2 1819   7.606   0.083   1.490
  625TIP3    H1 1820   7.534   0.144   1.474
  625TIP3    H2 1821   7.580   0.035   1.568
  626TIP3   OH2 1822   3.675   5.204   1.201
  626TIP3    H1 1823   3.648   5.199   1.293
  626TIP3    H2 1824   3.729   5.283   1.196
  627TIP3   OH2 1825   4.428   7.427   4.324
  627TIP3    H1 1826   4.376   7.356   4.285
  627TIP3    H2 1827   4.483   7.384   4.389
  628TIP3   OH2 1828   1.336   3.541   5.984
  628TIP3    H1 1829   1.295   3.592   6.054
  628TIP3    H2 1830   1.268   3.480   5.956
  629TIP3   OH2 1831   7.328   0.017   0.801
  629TIP3    H1 1832   7.344   0.085   0.735
  629TIP3    H2 1833   7.246   0.043   0.842
  630TIP3   OH2 1834   1.368   7.265   4.472
  630TIP3    H1 1835   1.304   7.302   4.410
  630TIP3    H2 1836   1.382   7.333   4.537
  631TIP3   OH2 1837   7.462   2.121   2.036
  631TIP3    H1 1838   7.472   2.186   2.105
  631TIP3    H2 1839   7.552   2.094   2.016
  632TIP3   OH2 1840   5.608   7.756   6.203
  632TIP3    H1 1841   5.684   7.811   6.224
  632TIP3    H2 1842   5.625   7.673   6.247
  633TIP3   OH2 1843   6.283   2.077   1.315
  633TIP3    H1 1844   6.289   2.149   1.252
  633TIP3    H2 1845   6.360   2.088   1.370
  634TIP3   OH2 1846   3.806   0.376   0.817
  634TIP3    H1 1847   3.752   0.361   0.895
  634TIP3    H2 1848   3.744   0.373   0.745
  635TIP3   OH2 1849   0.609   1.004   5.562
  635TIP3    H1 1850   0.631   0.913   5.543
  635TIP3    H2 1851   0.691   1.051   5.553
  636TIP3   OH2 1852   5.177   4.514   2.173
  636TIP3    H1 1853   5.220   4.455   2.234
  636TIP3    H2 1854   5.101   4.547   2.221
  637TIP3   OH2 1855   5.502   7.290   0.657
  637TIP3    H1 1856   5.480   7.369   0.607
  637TIP3    H2 1857   5.598   7.288   0.658
  638TIP3   OH2 1858   5.720   3.339   6.032
  638TIP3    H1 1859   5.734   3.282   6.107
  638TIP3    H2 1860   5.775   3.302   5.963
  639TIP3   OH2 1861   3.527   7.026   1.138
  639TIP3    H1 1862   3.590   6.956   1.152
  639TIP3    H2 1863   3.509   7.059   1.226
  640TIP3   OH2 1864   5.038   2.692   3.607
  640TIP3    H1 1865   5.111   2.748   3.579
  640TIP3    H2 1866   4.960   2.747   3.597
  641TIP3   OH2 1867   7.080   1.160   4.804
  641TIP3    H1 1868   7.142   1.092   4.830
  641TIP3    H2 1869   7.017   1.165   4.876
  642TIP3   OH2 1870   5.555   2.730   4.924
  642TIP3    H1 1871   5.592   2.760   5.007
  642TIP3    H2 1872   5.506   2.805   4.890
  643TIP3   OH2 1873   7.883   4.618   5.318
  643TIP3    H1 1874   7.912   4.534   5.353
  643TIP3    H2 1875   7.954   4.679   5.339
  644TIP3   OH2 1876   1.845   4.342   6.665
  644TIP3    H1 1877   1.828   4.331   6.571
  644TIP3    H2 1878   1.937   4.369   6.669
  645TIP3   OH2 1879   4.747   6.794   3.895
  645TIP3    H1 1880   4.694   6.763   3.821
  645TIP3    H2 1881   4.723   6.737   3.967
  646TIP3   OH2 1882   7.164   1.599   1.415
  646TIP3    H1 1883   7.200   1.657   1.347
  646TIP3    H2 1884   7.159   1.654   1.493
  647TIP3   OH2 1885   0.192   3.439   2.539
  647TIP3    H1 1886   0.245   3.485   2.605
  647TIP3    H2 1887   0.111   3.416   2.585
  648TIP3   OH2 1888   7.518   4.823   2.962
  648TIP3    H1 1889   7.465   4.882   3.016
  648TIP3    H2 1890   7.535   4.873   2.882
  649TIP3   OH2 1891   2.120   7.021   3.167
  649TIP3    H1 1892   2.094   6.960   3.235
  649TIP3    H2 1893   2.146   7.100   3.214
  650TIP3   OH2 1894   5.931   1.050   1.602
  650TIP3    H1 1895   5.954   0.957   1.604
  650TIP3    H2 1896   5.968   1.081   1.519
  651TIP3   OH2 1897   5.894   2.018   3.999
  651TIP3    H1 1898   5.892   2.002   3.905
  651TIP3    H2 1899   5.983   1.997   4.026
  652TIP3   OH2 1900   5.470   4.299   4.481
  652TIP3    H1 1901   5.562   4.318   4.500
  652TIP3    H2 1902   5.470   4.271   4.389
  653TIP3   OH2 1903   0.702   1.198   6.590
  653TIP3    H1 1904   0.687   1.164   6.679
  653TIP3    H2 1905   0.621   1.177   6.543
  654TIP3   OH2 1906   3.536   3.991   0.646
  654TIP3    H1 1907   3.525   4.067   0.588
  654TIP3    H2 1908   3.449   3.975   0.682
  655TIP3   OH2 1909   7.396   6.432   2.349
  655TIP3    H1 1910   7.317   6.485   2.354
  655TIP3    H2 1911   7.438   6.457   2.267
  656TIP3   OH2 1912   1.973   7.595   6.015
  656TIP3    H1 1913   1.894   7.618   6.066
  656TIP3    H2 1914   2.010   7.520   6.060
  657TIP3   OH2 1915   6.717   2.640   1.534
  657TIP3    H1 1916   6.661   2.716   1.518
  657TIP3    H2 1917   6.672   2.567   1.491
  658TIP3   OH2 1918   6.447   0.936   0.295
  658TIP3    H1 1919   6.487   1.023   0.297
  658TIP3    H2 1920   6.392   0.936   0.217
  659TIP3   OH2 1921   0.939   6.779   2.149
  659TIP3    H1 1922   0.980   6.865   2.162
  659TIP3    H2 1923   0.846   6.794   2.164
  660TIP3   OH2 1924   3.174   0.645   4.839
  660TIP3    H1 1925   3.228   0.713   4.879
  660TIP3    H2 1926   3.105   0.694   4.794
  661TIP3   OH2 1927   8.097   5.043   5.635
  661TIP3    H1 1928   8.036   5.090   5.692
  661TIP3    H2 1929   8.181   5.086   5.649
  662TIP3   OH2 1930   1.503   2.239   3.746
  662TIP3    H1 1931   1.522   2.197   3.663
  662TIP3    H2 1932   1.409   2.252   3.746
  663TIP3   OH2 1933   1.389   2.697   5.551
  663TIP3    H1 1934   1.367   2.788   5.527
  663TIP3    H2 1935   1.475   2.703   5.593
  664TIP3   OH2 1936   4.448   6.158   2.216
  664TIP3    H1 1937   4.505   6.213   2.162
  664TIP3    H2 1938   4.498   6.143   2.296
  665TIP3   OH2 1939   4.696   1.533   0.396
  665TIP3    H1 1940   4.752   1.608   0.416
  665TIP3    H2 1941   4.609   1.559   0.428
  666TIP3   OH2 1942   5.000   7.552   3.500
  666TIP3    H1 1943   5.002   7.633   3.550
  666TIP3    H2 1944   4.933   7.499   3.543
  667TIP3   OH2 1945   7.744   4.973   0.409
  667TIP3    H1 1946   7.764   4.954   0.317
  667TIP3    H2 1947   7.649   4.982   0.411
  668TIP3   OH2 1948   4.531   6.327   0.802
  668TIP3    H1 1949   4.486   6.252   0.839
  668TIP3    H2 1950   4.590   6.290   0.737
  669TIP3   OH2 1951   5.535   3.966   3.717
  669TIP3    H1 1952   5.535   3.879   3.757
  669TIP3    H2 1953   5.553   4.025   3.790
  670TIP3   OH2 1954   2.807   1.785   4.621
  670TIP3    H1 1955   2.863   1.803   4.696
  670TIP3    H2 1956   2.844   1.706   4.582
  671TIP3   OH2 1957   4.586   5.591   5.865
  671TIP3    H1 1958   4.567   5.501   5.892
  671TIP3    H2 1959   4.542   5.645   5.930
  672TIP3   OH2 1960   4.996   2.387   2.965
  672TIP3    H1 1961   4.981   2.294   2.947
  672TIP3    H2 1962   5.018   2.390   3.058
  673TIP3   OH2 1963   6.934   3.945   2.838
  673TIP3    H1 1964   6.936   4.037   2.865
  673TIP3    H2 1965   6.898   3.899   2.913
  674TIP3   OH2 1966   5.590   2.867   1.934
  674TIP3    H1 1967   5.546   2.897   2.013
  674TIP3    H2 1968   5.585   2.941   1.874
  675TIP3   OH2 1969   7.798   7.191   1.337
  675TIP3    H1 1970   7.887   7.163   1.316
  675TIP3    H2 1971   7.802   7.215   1.430
  676TIP3   OH2 1972   8.048   7.070   5.961
  676TIP3    H1 1973   8.122   7.031   5.915
  676TIP3    H2 1974   8.082   7.095   6.046
  677TIP3   OH2 1975   7.086   4.429   5.009
  677TIP3    H1 1976   7.065   4.350   5.059
  677TIP3    H2 1977   7.002   4.460   4.977
  678TIP3   OH2 1978   6.342   3.149   6.351
  678TIP3    H1 1979   6.381   3.088   6.413
  678TIP3    H2 1980   6.384   3.129   6.268
  679TIP3   OH2 1981   4.794   3.819   2.619
  679TIP3    H1 1982   4.851   3.804   2.544
  679TIP3    H2 1983   4.739   3.741   2.625
  680TIP3   OH2 1984   7.040   5.800   2.961
  680TIP3    H1 1985   7.067   5.877   2.911
  680TIP3    H2 1986   6.945   5.797   2.951
  681TIP3   OH2 1987   2.738   4.628   1.984
  681TIP3    H1 1988   2.736   4.682   1.905
  681TIP3    H2 1989   2.649   4.594   1.992
  682TIP3   OH2 1990   5.419   1.229   0.074
  682TIP3    H1 1991   5.411   1.174   0.152
  682TIP3    H2 1992   5.508   1.214   0.043
  683TIP3   OH2 1993   2.051   5.212   3.355
  683TIP3    H1 1994   2.079   5.138   3.300
  683TIP3    H2 1995   1.959   5.194   3.374
  684TIP3   OH2 1996   3.936   1.687   2.412
  684TIP3    H1 1997   3.895   1.716   2.330
  684TIP3    H2 1998   4.006   1.751   2.427
  685TIP3   OH2 1999   5.304   2.334   3.443
  685TIP3    H1 2000   5.280   2.250   3.483
  685TIP3    H2 2001   5.367   2.311   3.374
  686TIP3   OH2 2002   2.381   6.459   0.374
  686TIP3    H1 2003   2.329   6.409   0.311
  686TIP3    H2 2004   2.421   6.529   0.322
  687TIP3   OH2 2005   5.932   4.970   6.141
  687TIP3    H1 2006   5.912   4.958   6.234
  687TIP3    H2 2007   5.862   4.923   6.096
  688TIP3   OH2 2008   4.494   6.204   2.552
  688TIP3    H1 2009   4.446   6.226   2.633
  688TIP3    H2 2010   4.462   6.117   2.529
  689TIP3   OH2 2011   4.539   3.719   0.620
  689TIP3    H1 2012   4.450   3.696   0.649
  689TIP3    H2 2013   4.590   3.640   0.635
  690TIP3   OH2 2014   6.944   3.847   5.390
  690TIP3    H1 2015   6.852   3.844   5.415
  690TIP3    H2 2016   6.987   3.895   5.461
  691TIP3   OH2 2017   7.275   2.982   3.939
  691TIP3    H1 2018   7.214   3.019   3.875
  691TIP3    H2 2019   7.220   2.930   3.998
  692TIP3   OH2 2020   5.166   5.994   1.704
  692TIP3    H1 2021   5.259   6.010   1.723
  692TIP3    H2 2022   5.149   6.045   1.625
  693TIP3   OH2 2023   4.950   5.242   5.561
  693TIP3    H1 2024   4.925   5.330   5.532
  693TIP3    H2 2025   4.948   5.189   5.481
  694TIP3   OH2 2026   5.523   0.024   0.337
  694TIP3    H1 2027   5.528   0.119   0.350
  694TIP3    H2 2028   5.571   0.008   0.256
  695TIP3   OH2 2029   3.682   3.970   4.843
  695TIP3    H1 2030   3.601   3.955   4.891
  695TIP3    H2 2031   3.751   3.953   4.907
  696TIP3   OH2 2032   1.714   7.262   4.508
  696TIP3    H1 2033   1.664   7.310   4.574
  696TIP3    H2 2034   1.806   7.284   4.526
  697TIP3   OH2 2035   0.696   4.129   2.486
  697TIP3    H1 2036   0.666   4.218   2.470
  697TIP3    H2 2037   0.716   4.094   2.399
  698TIP3   OH2 2038   2.127   0.494   3.357
  698TIP3    H1 2039   2.210   0.480   3.402
  698TIP3    H2 2040   2.072   0.421   3.384
  699TIP3   OH2 2041   2.439   5.040   5.763
  699TIP3    H1 2042   2.382   4.977   5.719
  699TIP3    H2 2043   2.528   5.011   5.742
  700TIP3   OH2 2044   1.706   5.370   2.391
  700TIP3    H1 2045   1.784   5.369   2.448
  700TIP3    H2 2046   1.671   5.281   2.396
  701TIP3   OH2 2047   2.073   0.170   5.738
  701TIP3    H1 2048   2.130   0.110   5.788
  701TIP3    H2 2049   2.033   0.226   5.805
  702TIP3   OH2 2050   7.002   5.533   5.837
  702TIP3    H1 2051   7.038   5.534   5.926
  702TIP3    H2 2052   7.057   5.470   5.791
  703TIP3   OH2 2053   0.328   3.835   5.483
  703TIP3    H1 2054   0.419   3.836   5.453
  703TIP3    H2 2055   0.278   3.870   5.410
  704TIP3   OH2 2056   1.927   6.569   5.378
  704TIP3    H1 2057   1.858   6.553   5.443
  704TIP3    H2 2058   1.907   6.508   5.307
  705TIP3   OH2 2059   0.590   7.641   1.618
  705TIP3    H1 2060   0.667   7.678   1.575
  705TIP3    H2 2061   0.619   7.623   1.708
  706TIP3   OH2 2062   7.428   5.295   2.896
  706TIP3    H1 2063   7.443   5.373   2.949
  706TIP3    H2 2064   7.348   5.313   2.848
  707TIP3   OH2 2065   5.189   1.100   5.504
  707TIP3    H1 2066   5.190   1.166   5.434
  707TIP3    H2 2067   5.161   1.148   5.582
  708TIP3   OH2 2068   7.825   2.467   5.798
  708TIP3    H1 2069   7.909   2.449   5.754
  708TIP3    H2 2070   7.773   2.388   5.785
  709TIP3   OH2 2071   2.162   7.427   6.687
  709TIP3    H1 2072   2.102   7.375   6.634
  709TIP3    H2 2073   2.157   7.389   6.774
  710TIP3   OH2 2074   0.190   2.714   2.866
  710TIP3    H1 2075   0.247   2.690   2.939
  710TIP3    H2 2076   0.154   2.631   2.835
  711TIP3   OH2 2077   6.268   5.432   6.495
  711TIP3    H1 2078   6.207   5.375   6.448
  711TIP3    H2 2079   6.211   5.493   6.542
  712TIP3   OH2 2080   3.205   2.318   2.889
  712TIP3    H1 2081   3.148   2.253   2.849
  712TIP3    H2 2082   3.255   2.356   2.817
  713TIP3   OH2 2083   6.290   3.349   1.175
  713TIP3    H1 2084   6.203   3.340   1.138
  713TIP3    H2 2085   6.348   3.304   1.113
  714TIP3   OH2 2086   1.433   7.013   2.758
  714TIP3    H1 2087   1.390   7.063   2.689
  714TIP3    H2 2088   1.378   6.935   2.769
  715TIP3   OH2 2089   7.785   2.165   0.458
  715TIP3    H1 2090   7.842   2.225   0.505
  715TIP3    H2 2091   7.836   2.137   0.382
  716TIP3   OH2 2092   1.454   3.933   1.530
  716TIP3    H1 2093   1.513   3.983   1.586
  716TIP3    H2 2094   1.459   3.975   1.445
  717TIP3   OH2 2095   2.363   5.960   2.914
  717TIP3    H1 2096   2.410   5.973   2.996
  717TIP3    H2 2097   2.310   6.039   2.903
  718TIP3   OH2 2098   1.125   6.789   1.433
  718TIP3    H1 2099   1.215   6.771   1.460
  718TIP3    H2 2100   1.077   6.710   1.457
  719TIP3   OH2 2101   6.578   2.322   3.495
  719TIP3    H1 2102   6.561   2.367   3.412
  719TIP3    H2 2103   6.500   2.269   3.510
  720TIP3   OH2 2104   1.232   4.339   4.864
  720TIP3    H1 2105   1.284   4.266   4.830
  720TIP3    H2 2106   1.177   4.300   4.932
  721TIP3   OH2 2107   7.058   0.403   4.581
  721TIP3    H1 2108   7.138   0.422   4.630
  721TIP3    H2 2109   6.993   0.464   4.616
  722TIP3   OH2 2110   6.695   4.167   3.761
  722TIP3    H1 2111   6.742   4.092   3.798
  722TIP3    H2 2112   6.606   4.158   3.795
  723TIP3   OH2 2113   5.183   5.842   0.415
  723TIP3    H1 2114   5.172   5.817   0.507
  723TIP3    H2 2115   5.273   5.875   0.410
  724TIP3   OH2 2116   6.884   3.122   3.351
  724TIP3    H1 2117   6.874   3.129   3.256
  724TIP3    H2 2118   6.845   3.037   3.372
  725TIP3   OH2 2119   6.057   2.774   6.411
  725TIP3    H1 2120   6.045   2.860   6.451
  725TIP3    H2 2121   6.123   2.788   6.343
  726TIP3   OH2 2122   6.514   0.091   5.139
  726TIP3    H1 2123   6.600   0.104   5.101
  726TIP3    H2 2124   6.511   0.149   5.215
  727TIP3   OH2 2125   7.439   4.196   1.757
  727TIP3    H1 2126   7.415   4.284   1.786
  727TIP3    H2 2127   7.387   4.138   1.813
  728TIP3   OH2 2128   4.612   3.204   2.149
  728TIP3    H1 2129   4.570   3.166   2.072
  728TIP3    H2 2130   4.674   3.268   2.114
  729TIP3   OH2 2131   4.168   3.914   5.318
  729TIP3    H1 2132   4.247   3.946   5.276
  729TIP3    H2 2133   4.166   3.959   5.402
  730TIP3   OH2 2134   6.224   1.767   1.025
  730TIP3    H1 2135   6.131   1.792   1.026
  730TIP3    H2 2136   6.248   1.762   1.117
  731TIP3   OH2 2137   2.531   1.085   3.795
  731TIP3    H1 2138   2.480   1.161   3.768
  731TIP3    H2 2139   2.474   1.037   3.855
  732TIP3   OH2 2140   3.051   6.695   1.052
  732TIP3    H1 2141   3.083   6.690   0.962
  732TIP3    H2 2142   2.969   6.646   1.052
  733TIP3   OH2 2143   2.653   3.182   1.237
  733TIP3    H1 2144   2.574   3.128   1.249
  733TIP3    H2 2145   2.716   3.123   1.197
  734TIP3   OH2 2146   7.427   6.109   3.241
  734TIP3    H1 2147   7.347   6.091   3.191
  734TIP3    H2 2148   7.471   6.178   3.192
  735TIP3   OH2 2149   5.133   6.554   1.547
  735TIP3    H1 2150   5.166   6.612   1.478
  735TIP3    H2 2151   5.075   6.609   1.600
  736TIP3   OH2 2152   7.424   2.575   6.330
  736TIP3    H1 2153   7.398   2.516   6.259
  736TIP3    H2 2154   7.448   2.656   6.286
  737TIP3   OH2 2155   0.630   5.125   0.230
  737TIP3    H1 2156   0.702   5.141   0.170
  737TIP3    H2 2157   0.577   5.204   0.227
  738TIP3   OH2 2158   7.781   5.206   6.591
  738TIP3    H1 2159   7.761   5.119   6.627
  738TIP3    H2 2160   7.861   5.233   6.636
  739TIP3   OH2 2161   0.931   5.425   1.116
  739TIP3    H1 2162   0.935   5.330   1.125
  739TIP3    H2 2163   0.859   5.451   1.174
  740TIP3   OH2 2164   4.581   2.821   1.118
  740TIP3    H1 2165   4.556   2.891   1.179
  740TIP3    H2 2166   4.675   2.833   1.105
  741TIP3   OH2 2167   7.987   0.497   4.404
  741TIP3    H1 2168   8.000   0.448   4.485
  741TIP3    H2 2169   8.012   0.587   4.427
  742TIP3   OH2 2170   2.611   3.940   2.997
  742TIP3    H1 2171   2.664   3.863   3.014
  742TIP3    H2 2172   2.635   4.001   3.067
  743TIP3   OH2 2173   6.691   7.413   6.770
  743TIP3    H1 2174   6.662   7.394   6.681
  743TIP3    H2 2175   6.691   7.509   6.775
  744TIP3   OH2 2176   8.244   0.227   5.088
  744TIP3    H1 2177   8.268   0.288   5.158
  744TIP3    H2 2178   8.268   0.272   5.007
  745TIP3   OH2 2179   5.670   1.384   5.881
  745TIP3    H1 2180   5.753   1.357   5.841
  745TIP3    H2 2181   5.668   1.336   5.964
  746TIP3   OH2 2182   3.969   3.537   3.897
  746TIP3    H1 2183   3.924   3.596   3.837
  746TIP3    H2 2184   3.919   3.543   3.979
  747TIP3   OH2 2185   4.800   7.675   0.044
  747TIP3    H1 2186   4.749   7.756   0.056
  747TIP3    H2 2187   4.840   7.659   0.129
  748TIP3   OH2 2188  -0.022   7.435   1.609
  748TIP3    H1 2189   0.051   7.402   1.663
  748TIP3    H2 2190  -0.014   7.388   1.526
  749TIP3   OH2 2191   0.417   4.230   0.820
  749TIP3    H1 2192   0.498   4.179   0.813
  749TIP3    H2 2193   0.369   4.190   0.893
  750TIP3   OH2 2194   7.601   1.873   0.248
  750TIP3    H1 2195   7.685   1.873   0.203
  750TIP3    H2 2196   7.561   1.789   0.223
  751TIP3   OH2 2197   2.166   6.143   2.048
  751TIP3    H1 2198   2.172   6.126   2.142
  751TIP3    H2 2199   2.253   6.118   2.014
  752TIP3   OH2 2200   6.975   3.418   6.376
  752TIP3    H1 2201   7.046   3.451   6.431
  752TIP3    H2 2202   6.958   3.330   6.410
  753TIP3   OH2 2203   7.123   0.898   1.270
  753TIP3    H1 2204   7.209   0.875   1.304
  753TIP3    H2 2205   7.062   0.846   1.323
  754TIP3   OH2 2206   6.761   3.287   1.588
  754TIP3    H1 2207   6.755   3.318   1.497
  754TIP3    H2 2208   6.686   3.327   1.632
  755TIP3   OH2 2209   8.199   1.380   4.008
  755TIP3    H1 2210   8.292   1.356   4.005
  755TIP3    H2 2211   8.153   1.296   4.005
  756TIP3   OH2 2212   5.279   3.828   1.035
  756TIP3    H1 2213   5.290   3.748   1.086
  756TIP3    H2 2214   5.368   3.854   1.011
  757TIP3   OH2 2215   8.149   4.225   1.721
  757TIP3    H1 2216   8.152   4.162   1.793
  757TIP3    H2 2217   8.158   4.172   1.642
  758TIP3   OH2 2218   4.993   6.794   0.220
  758TIP3    H1 2219   4.935   6.820   0.292
  758TIP3    H2 2220   5.002   6.873   0.166
  759TIP3   OH2 2221   6.899   4.229   4.655
  759TIP3    H1 2222   6.838   4.162   4.623
  759TIP3    H2 2223   6.880   4.236   4.749
  760TIP3   OH2 2224   4.835   7.484   5.968
  760TIP3    H1 2225   4.774   7.427   5.922
  760TIP3    H2 2226   4.899   7.510   5.901
  761TIP3   OH2 2227   8.078   5.727   3.257
  761TIP3    H1 2228   8.097   5.672   3.181
  761TIP3    H2 2229   8.064   5.666   3.329
  762TIP3   OH2 2230   7.812   3.043   4.901
  762TIP3    H1 2231   7.748   2.991   4.950
  762TIP3    H2 2232   7.772   3.058   4.816
  763TIP3   OH2 2233   7.040   1.360   6.722
  763TIP3    H1 2234   7.111   1.362   6.659
  763TIP3    H2 2235   6.960   1.359   6.668
  764TIP3   OH2 2236   1.973   6.080   2.902
  764TIP3    H1 2237   2.050   6.134   2.884
  764TIP3    H2 2238   1.979   6.009   2.838
  765TIP3   OH2 2239   2.355   0.904   0.101
  765TIP3    H1 2240   2.285   0.853   0.059
  765TIP3    H2 2241   2.349   0.881   0.193
  766TIP3   OH2 2242   0.990   7.600   0.615
  766TIP3    H1 2243   0.967   7.693   0.608
  766TIP3    H2 2244   0.942   7.569   0.692
  767TIP3   OH2 2245   3.369   1.171   5.630
  767TIP3    H1 2246   3.291   1.114   5.630
  767TIP3    H2 2247   3.374   1.203   5.540
  768TIP3   OH2 2248   3.589   4.575   5.578
  768TIP3    H1 2249   3.572   4.484   5.557
  768TIP3    H2 2250   3.672   4.574   5.626
  769TIP3   OH2 2251   5.696   5.287   1.063
  769TIP3    H1 2252   5.697   5.192   1.068
  769TIP3    H2 2253   5.679   5.316   1.153
  770TIP3   OH2 2254   3.358   1.614   3.259
  770TIP3    H1 2255   3.313   1.545   3.209
  770TIP3    H2 2256   3.302   1.628   3.335
  771TIP3   OH2 2257   5.945   2.500   5.505
  771TIP3    H1 2258   6.031   2.459   5.497
  771TIP3    H2 2259   5.931   2.543   5.420
  772TIP3   OH2 2260   2.692   0.870   5.374
  772TIP3    H1 2261   2.607   0.906   5.347
  772TIP3    H2 2262   2.741   0.862   5.292
  773TIP3   OH2 2263   0.310   4.848   2.998
  773TIP3    H1 2264   0.259   4.796   2.936
  773TIP3    H2 2265   0.293   4.808   3.083
  774TIP3   OH2 2266   6.349   5.432   3.313
  774TIP3    H1 2267   6.444   5.440   3.300
  774TIP3    H2 2268   6.336   5.339   3.333
  775TIP3   OH2 2269   5.072   5.058   4.698
  775TIP3    H1 2270   5.012   5.070   4.772
  775TIP3    H2 2271   5.050   4.971   4.664
  776TIP3   OH2 2272   0.891   3.786   5.726
  776TIP3    H1 2273   0.919   3.739   5.805
  776TIP3    H2 2274   0.969   3.787   5.670
  777TIP3   OH2 2275   2.709   6.398   1.237
  777TIP3    H1 2276   2.744   6.486   1.251
  777TIP3    H2 2277   2.644   6.409   1.167
  778TIP3   OH2 2278   6.793   7.288   6.105
  778TIP3    H1 2279   6.716   7.239   6.135
  778TIP3    H2 2280   6.757   7.358   6.051
  779TIP3   OH2 2281   0.238   7.004   1.394
  779TIP3    H1 2282   0.216   6.929   1.339
  779TIP3    H2 2283   0.237   6.970   1.483
  780TIP3   OH2 2284   1.501   6.517   2.522
  780TIP3    H1 2285   1.534   6.584   2.582
  780TIP3    H2 2286   1.406   6.525   2.527
  781TIP3   OH2 2287   2.002   1.712   0.631
  781TIP3    H1 2288   2.063   1.706   0.558
  781TIP3    H2 2289   1.986   1.621   0.657
  782TIP3   OH2 2290   7.509   7.456   1.596
  782TIP3    H1 2291   7.562   7.503   1.531
  782TIP3    H2 2292   7.497   7.369   1.558
  783TIP3   OH2 2293   4.050   4.222   5.834
  783TIP3    H1 2294   4.126   4.166   5.821
  783TIP3    H2 2295   4.074   4.305   5.795
  784TIP3   OH2 2296   1.893   2.846   6.546
  784TIP3    H1 2297   1.888   2.754   6.572
  784TIP3    H2 2298   1.805   2.865   6.512
  785TIP3   OH2 2299   2.734   1.497   0.744
  785TIP3    H1 2300   2.792   1.471   0.672
  785TIP3    H2 2301   2.771   1.580   0.775
  786TIP3   OH2 2302   7.284   3.437   4.327
  786TIP3    H1 2303   7.317   3.390   4.251
  786TIP3    H2 2304   7.211   3.383   4.359
  787TIP3   OH2 2305   7.566   5.885   2.632
  787TIP3    H1 2306   7.506   5.884   2.557
  787TIP3    H2 2307   7.540   5.962   2.682
  788TIP3   OH2 2308   6.134   3.798   0.841
  788TIP3    H1 2309   6.072   3.764   0.777
  788TIP3    H2 2310   6.217   3.757   0.818
  789TIP3   OH2 2311   6.544   1.050   2.156
  789TIP3    H1 2312   6.500   1.091   2.082
  789TIP3    H2 2313   6.509   0.960   2.158
  790TIP3   OH2 2314   1.369   0.215   2.615
  790TIP3    H1 2315   1.323   0.249   2.692
  790TIP3    H2 2316   1.309   0.152   2.577
  791TIP3   OH2 2317   1.777   2.532   5.176
  791TIP3    H1 2318   1.713   2.491   5.118
  791TIP3    H2 2319   1.818   2.600   5.123
  792TIP3   OH2 2320   1.900   2.462   6.333
  792TIP3    H1 2321   1.844   2.456   6.410
  792TIP3    H2 2322   1.987   2.439   6.365
  793TIP3   OH2 2323   3.139   0.721   3.177
  793TIP3    H1 2324   3.051   0.753   3.193
  793TIP3    H2 2325   3.127   0.641   3.125
  794TIP3   OH2 2326   0.834   2.218   1.247
  794TIP3    H1 2327   0.778   2.152   1.207
  794TIP3    H2 2328   0.825   2.295   1.191
  795TIP3   OH2 2329   8.234   3.708   2.101
  795TIP3    H1 2330   8.250   3.718   2.007
  795TIP3    H2 2331   8.141   3.726   2.111
  796TIP3   OH2 2332   0.230   3.184   4.591
  796TIP3    H1 2333   0.192   3.210   4.508
  796TIP3    H2 2334   0.157   3.188   4.653
  797TIP3   OH2 2335   2.529   3.732   0.036
  797TIP3    H1 2336   2.595   3.774   0.091
  797TIP3    H2 2337   2.579   3.668  -0.016
  798TIP3   OH2 2338   8.142   1.660   6.537
  798TIP3    H1 2339   8.059   1.628   6.502
  798TIP3    H2 2340   8.144   1.629   6.628
  799TIP3   OH2 2341   6.324   7.615   4.752
  799TIP3    H1 2342   6.314   7.639   4.660
  799TIP3    H2 2343   6.303   7.695   4.799
  800TIP3   OH2 2344   2.569   0.495   1.412
  800TIP3    H1 2345   2.506   0.485   1.483
  800TIP3    H2 2346   2.644   0.538   1.452
  801TIP3   OH2 2347   4.101   3.440   5.343
  801TIP3    H1 2348   4.184   3.435   5.391
  801TIP3    H2 2349   4.081   3.534   5.340
  802TIP3   OH2 2350   3.758   5.115   6.750
  802TIP3    H1 2351   3.743   5.112   6.655
  802TIP3    H2 2352   3.674   5.094   6.789
  803TIP3   OH2 2353   5.181   6.226   6.312
  803TIP3    H1 2354   5.176   6.294   6.379
  803TIP3    H2 2355   5.177   6.273   6.229
  804TIP3   OH2 2356   5.764   4.073   0.078
  804TIP3    H1 2357   5.673   4.057   0.056
  804TIP3    H2 2358   5.813   4.014   0.020
  805TIP3   OH2 2359   6.606   7.827   6.467
  805TIP3    H1 2360   6.689   7.780   6.467
  805TIP3    H2 2361   6.544   7.766   6.428
  806TIP3   OH2 2362   0.992   6.434   1.147
  806TIP3    H1 2363   0.942   6.405   1.224
  806TIP3    H2 2364   1.077   6.460   1.182
  807TIP3   OH2 2365   4.793   6.744   2.757
  807TIP3    H1 2366   4.733   6.791   2.814
  807TIP3    H2 2367   4.753   6.751   2.670
  808TIP3   OH2 2368   6.736   4.670   6.644
  808TIP3    H1 2369   6.670   4.631   6.587
  808TIP3    H2 2370   6.765   4.598   6.701
  809TIP3   OH2 2371   4.207   6.325   2.914
  809TIP3    H1 2372   4.237   6.410   2.882
  809TIP3    H2 2373   4.222   6.265   2.841
  810TIP3   OH2 2374   6.861   5.480   2.786
  810TIP3    H1 2375   6.945   5.525   2.781
  810TIP3    H2 2376   6.882   5.387   2.777
  811TIP3   OH2 2377   0.187   2.021   6.185
  811TIP3    H1 2378   0.242   2.008   6.107
  811TIP3    H2 2379   0.209   1.946   6.241
  812TIP3   OH2 2380   5.764   2.729   2.141
  812TIP3    H1 2381   5.726   2.671   2.207
  812TIP3    H2 2382   5.691   2.754   2.085
  813TIP3   OH2 2383   0.618   5.111   1.708
  813TIP3    H1 2384   0.628   5.022   1.741
  813TIP3    H2 2385   0.646   5.106   1.616
  814TIP3   OH2 2386   5.039   2.057   5.765
  814TIP3    H1 2387   5.073   1.987   5.821
  814TIP3    H2 2388   5.074   2.138   5.803
  815TIP3   OH2 2389   7.537   6.404   3.792
  815TIP3    H1 2390   7.500   6.376   3.875
  815TIP3    H2 2391   7.624   6.364   3.789
  816TIP3   OH2 2392   5.179   7.531   0.645
  816TIP3    H1 2393   5.241   7.571   0.705
  816TIP3    H2 2394   5.178   7.438   0.669
  817TIP3   OH2 2395   1.852   6.982   5.445
  817TIP3    H1 2396   1.836   7.013   5.357
  817TIP3    H2 2397   1.912   6.907   5.434
  818TIP3   OH2 2398   5.929   2.512   1.934
  818TIP3    H1 2399   5.998   2.455   1.900
  818TIP3    H2 2400   5.859   2.452   1.958
  819TIP3   OH2 2401   1.199   7.313   5.901
  819TIP3    H1 2402   1.240   7.375   5.962
  819TIP3    H2 2403   1.211   7.228   5.942
  820TIP3   OH2 2404   7.096   4.357   4.113
  820TIP3    H1 2405   7.100   4.382   4.021
  820TIP3    H2 2406   7.057   4.270   4.113
  821TIP3   OH2 2407   0.699   6.840   0.490
  821TIP3    H1 2408   0.633   6.893   0.537
  821TIP3    H2 2409   0.750   6.798   0.559
  822TIP3   OH2 2410   5.142   6.808   2.423
  822TIP3    H1 2411   5.093   6.872   2.474
  822TIP3    H2 2412   5.085   6.731   2.421
  823TIP3   OH2 2413   1.342   1.441   2.479
  823TIP3    H1 2414   1.357   1.364   2.425
  823TIP3    H2 2415   1.248   1.456   2.475
  824TIP3   OH2 2416   3.892   2.420   5.871
  824TIP3    H1 2417   3.800   2.411   5.896
  824TIP3    H2 2418   3.934   2.340   5.903
  825TIP3   OH2 2419   4.023   1.883   2.813
  825TIP3    H1 2420   3.931   1.904   2.832
  825TIP3    H2 2421   4.029   1.788   2.828
  826TIP3   OH2 2422   7.966   2.005   1.268
  826TIP3    H1 2423   7.937   1.988   1.358
  826TIP3    H2 2424   7.995   1.919   1.236
  827TIP3   OH2 2425   3.901   5.633   3.370
  827TIP3    H1 2426   3.934   5.715   3.406
  827TIP3    H2 2427   3.816   5.621   3.412
  828TIP3   OH2 2428   3.122   7.189   0.903
  828TIP3    H1 2429   3.165   7.184   0.989
  828TIP3    H2 2430   3.029   7.185   0.922
  829TIP3   OH2 2431   2.507   3.331   5.585
  829TIP3    H1 2432   2.424   3.378   5.574
  829TIP3    H2 2433   2.484   3.252   5.634
  830TIP3   OH2 2434   0.698   1.697   1.375
  830TIP3    H1 2435   0.737   1.783   1.391
  830TIP3    H2 2436   0.695   1.656   1.461
  831TIP3   OH2 2437   1.878   0.014   5.197
  831TIP3    H1 2438   1.887  -0.069   5.245
  831TIP3    H2 2439   1.857   0.079   5.264
  832TIP3   OH2 2440   1.012   1.918   3.214
  832TIP3    H1 2441   1.025   1.907   3.308
  832TIP3    H2 2442   1.056   2.001   3.193
  833TIP3   OH2 2443   1.999   1.828   5.448
  833TIP3    H1 2444   1.996   1.774   5.369
  833TIP3    H2 2445   2.076   1.798   5.495
  834TIP3   OH2 2446   6.715   6.963   2.085
  834TIP3    H1 2447   6.777   7.027   2.120
  834TIP3    H2 2448   6.769   6.901   2.036
  835TIP3   OH2 2449   3.556   0.533   5.353
  835TIP3    H1 2450   3.562   0.445   5.316
  835TIP3    H2 2451   3.598   0.589   5.289
  836TIP3   OH2 2452   4.465   0.643   1.334
  836TIP3    H1 2453   4.560   0.652   1.346
  836TIP3    H2 2454   4.428   0.716   1.384
  837TIP3   OH2 2455   3.852   3.879   4.308
  837TIP3    H1 2456   3.832   3.878   4.215
  837TIP3    H2 2457   3.788   3.820   4.348
  838TIP3   OH2 2458   4.109   1.582   1.350
  838TIP3    H1 2459   4.017   1.560   1.333
  838TIP3    H2 2460   4.132   1.645   1.282
  839TIP3   OH2 2461   2.934   3.266   0.068
  839TIP3    H1 2462   2.977   3.303   0.145
  839TIP3    H2 2463   2.999   3.207   0.030
  840TIP3   OH2 2464   1.529   7.021   3.451
  840TIP3    H1 2465   1.500   7.056   3.535
  840TIP3    H2 2466   1.610   7.069   3.431
  841TIP3   OH2 2467   2.032   0.049   4.805
  841TIP3    H1 2468   2.065   0.018   4.889
  841TIP3    H2 2469   2.071   0.136   4.794
  842TIP3   OH2 2470   4.449   0.157   5.783
  842TIP3    H1 2471   4.476   0.069   5.757
  842TIP3    H2 2472   4.479   0.214   5.713
  843TIP3   OH2 2473   0.779   5.147   1.453
  843TIP3    H1 2474   0.762   5.106   1.368
  843TIP3    H2 2475   0.781   5.241   1.435
  844TIP3   OH2 2476   2.952   3.987   5.062
  844TIP3    H1 2477   2.986   3.899   5.047
  844TIP3    H2 2478   3.027   4.036   5.094
  845TIP3   OH2 2479   0.132   6.474   3.195
  845TIP3    H1 2480   0.049   6.520   3.189
  845TIP3    H2 2481   0.119   6.411   3.266
  846TIP3   OH2 2482   1.904   7.812   3.096
  846TIP3    H1 2483   1.869   7.736   3.050
  846TIP3    H2 2484   1.844   7.826   3.169
  847TIP3   OH2 2485   8.296   4.133   2.459
  847TIP3    H1 2486   8.207   4.139   2.494
  847TIP3    H2 2487   8.285   4.126   2.364
  848TIP3   OH2 2488   6.785   0.859   4.291
  848TIP3    H1 2489   6.773   0.861   4.196
  848TIP3    H2 2490   6.837   0.781   4.307
  849TIP3   OH2 2491   7.347   2.419   6.558
  849TIP3    H1 2492   7.346   2.470   6.477
  849TIP3    H2 2493   7.439   2.393   6.568
  850TIP3   OH2 2494   3.468   2.514   6.768
  850TIP3    H1 2495   3.471   2.508   6.672
  850TIP3    H2 2496   3.512   2.597   6.787
  851TIP3   OH2 2497   6.834   4.206   0.160
  851TIP3    H1 2498   6.816   4.239   0.248
  851TIP3    H2 2499   6.802   4.115   0.161
  852TIP3   OH2 2500   5.247   6.446   3.361
  852TIP3    H1 2501   5.179   6.393   3.401
  852TIP3    H2 2502   5.240   6.531   3.403
  853TIP3   OH2 2503   7.416   6.792   2.489
  853TIP3    H1 2504   7.362   6.729   2.442
  853TIP3    H2 2505   7.420   6.868   2.431
  854TIP3   OH2 2506   2.596   0.819   3.010
  854TIP3    H1 2507   2.591   0.784   2.921
  854TIP3    H2 2508   2.583   0.743   3.067
  855TIP3   OH2 2509   4.948   5.531   3.245
  855TIP3    H1 2510   4.978   5.606   3.298
  855TIP3    H2 2511   4.904   5.474   3.307
  856TIP3   OH2 2512   4.947   2.263   4.749
  856TIP3    H1 2513   4.938   2.295   4.839
  856TIP3    H2 2514   5.031   2.298   4.719
  857TIP3   OH2 2515   0.168   1.034   3.693
  857TIP3    H1 2516   0.153   0.948   3.734
  857TIP3    H2 2517   0.263   1.041   3.688
  858TIP3   OH2 2518   7.479   5.316   5.575
  858TIP3    H1 2519   7.416   5.245   5.566
  858TIP3    H2 2520   7.548   5.296   5.511
  859TIP3   OH2 2521   6.380   1.187   3.536
  859TIP3    H1 2522   6.461   1.142   3.560
  859TIP3    H2 2523   6.340   1.130   3.470
  860TIP3   OH2 2524   3.507   4.926   3.797
  860TIP3    H1 2525   3.579   4.940   3.735
  860TIP3    H2 2526   3.551   4.897   3.877
  861TIP3   OH2 2527   3.159   4.453   6.402
  861TIP3    H1 2528   3.224   4.400   6.355
  861TIP3    H2 2529   3.080   4.446   6.350
  862TIP3   OH2 2530   0.631   7.156   3.827
  862TIP3    H1 2531   0.657   7.245   3.849
  862TIP3    H2 2532   0.631   7.110   3.911
  863TIP3   OH2 2533   4.975   2.732   1.339
  863TIP3    H1 2534   5.001   2.693   1.255
  863TIP3    H2 2535   5.027   2.685   1.404
  864TIP3   OH2 2536   0.602   3.706   5.880
  864TIP3    H1 2537   0.527   3.662   5.841
  864TIP3    H2 2538   0.598   3.795   5.845
  865TIP3   OH2 2539   2.948   0.231   6.548
  865TIP3    H1 2540   3.034   0.234   6.507
  865TIP3    H2 2541   2.935   0.319   6.582
  866TIP3   OH2 2542   6.227   0.577   1.709
  866TIP3    H1 2543   6.225   0.610   1.620
  866TIP3    H2 2544   6.293   0.631   1.753
  867TIP3   OH2 2545   0.020   3.400   2.250
  867TIP3    H1 2546  -0.047   3.457   2.287
  867TIP3    H2 2547   0.029   3.329   2.313
  868TIP3   OH2 2548   4.548   7.314   4.887
  868TIP3    H1 2549   4.510   7.387   4.839
  868TIP3    H2 2550   4.635   7.344   4.912
  869TIP3   OH2 2551   7.442   4.884   6.142
  869TIP3    H1 2552   7.477   4.966   6.178
  869TIP3    H2 2553   7.353   4.879   6.175
  870TIP3   OH2 2554   3.996   6.031   2.877
  870TIP3    H1 2555   3.979   6.063   2.789
  870TIP3    H2 2556   4.003   5.936   2.868
  871TIP3   OH2 2557   2.551   1.424   1.968
  871TIP3    H1 2558   2.580   1.475   2.044
  871TIP3    H2 2559   2.633   1.394   1.928
  872TIP3   OH2 2560   3.199   4.513   4.095
  872TIP3    H1 2561   3.256   4.579   4.135
  872TIP3    H2 2562   3.113   4.530   4.133
  873TIP3   OH2 2563   4.416   1.323   1.111
  873TIP3    H1 2564   4.323   1.340   1.128
  873TIP3    H2 2565   4.433   1.362   1.025
  874TIP3   OH2 2566   1.328   6.787   6.017
  874TIP3    H1 2567   1.333   6.857   6.082
  874TIP3    H2 2568   1.416   6.748   6.017
  875TIP3   OH2 2569   4.023   7.186   3.808
  875TIP3    H1 2570   4.115   7.163   3.820
  875TIP3    H2 2571   4.024   7.258   3.745
  876TIP3   OH2 2572   2.649   4.653   3.112
  876TIP3    H1 2573   2.683   4.739   3.087
  876TIP3    H2 2574   2.645   4.655   3.208
  877TIP3   OH2 2575   4.345   6.623   4.197
  877TIP3    H1 2576   4.283   6.551   4.186
  877TIP3    H2 2577   4.332   6.652   4.287
  878TIP3   OH2 2578   3.496   4.186   3.252
  878TIP3    H1 2579   3.539   4.261   3.292
  878TIP3    H2 2580   3.566   4.139   3.206
  879TIP3   OH2 2581   6.395   1.408   2.743
  879TIP3    H1 2582   6.414   1.427   2.651
  879TIP3    H2 2583   6.343   1.328   2.741
  880TIP3   OH2 2584   4.981   5.727   0.724
  880TIP3    H1 2585   5.075   5.722   0.739
  880TIP3    H2 2586   4.966   5.675   0.645
  881TIP3   OH2 2587   2.053   7.241   4.246
  881TIP3    H1 2588   2.007   7.273   4.324
  881TIP3    H2 2589   1.998   7.270   4.173
  882TIP3   OH2 2590   4.028   5.045   3.830
  882TIP3    H1 2591   4.092   4.994   3.779
  882TIP3    H2 2592   4.078   5.119   3.864
  883TIP3   OH2 2593   4.005   5.486   5.699
  883TIP3    H1 2594   3.916   5.501   5.732
  883TIP3    H2 2595   4.011   5.541   5.621
  884TIP3   OH2 2596   4.766   4.101   3.878
  884TIP3    H1 2597   4.691   4.074   3.931
  884TIP3    H2 2598   4.776   4.033   3.812
  885TIP3   OH2 2599   5.834   2.905   0.158
  885TIP3    H1 2600   5.827   2.822   0.205
  885TIP3    H2 2601   5.755   2.908   0.104
  886TIP3   OH2 2602   8.215   0.255   4.571
  886TIP3    H1 2603   8.291   0.280   4.519
  886TIP3    H2 2604   8.172   0.186   4.521
  887TIP3   OH2 2605   2.852   7.418   0.779
  887TIP3    H1 2606   2.801   7.491   0.742
  887TIP3    H2 2607   2.927   7.409   0.721
  888TIP3   OH2 2608   3.510   2.214   4.135
  888TIP3    H1 2609   3.577   2.186   4.073
  888TIP3    H2 2610   3.450   2.140   4.140
  889TIP3   OH2 2611   3.700   2.244   2.479
  889TIP3    H1 2612   3.708   2.208   2.391
  889TIP3    H2 2613   3.606   2.250   2.494
  890TIP3   OH2 2614   3.855   6.761   0.736
  890TIP3    H1 2615   3.815   6.815   0.668
  890TIP3    H2 2616   3.824   6.800   0.818
  891TIP3   OH2 2617   3.745   1.442   5.075
  891TIP3    H1 2618   3.704   1.528   5.085
  891TIP3    H2 2619   3.673   1.380   5.087
  892TIP3   OH2 2620   6.709   2.987   1.561
  892TIP3    H1 2621   6.701   3.080   1.543
  892TIP3    H2 2622   6.732   2.983   1.654
  893TIP3   OH2 2623   5.655   0.948   3.863
  893TIP3    H1 2624   5.713   0.907   3.799
  893TIP3    H2 2625   5.599   1.005   3.811
  894TIP3   OH2 2626   3.095   5.052   1.646
  894TIP3    H1 2627   3.006   5.081   1.663
  894TIP3    H2 2628   3.148   5.095   1.714
  895TIP3   OH2 2629   1.453   6.198   0.111
  895TIP3    H1 2630   1.373   6.250   0.110
  895TIP3    H2 2631   1.425   6.110   0.086
  896TIP3   OH2 2632   0.698   7.565   3.505
  896TIP3    H1 2633   0.758   7.612   3.446
  896TIP3    H2 2634   0.639   7.518   3.446
  897TIP3   OH2 2635   2.353   7.742   2.660
  897TIP3    H1 2636   2.313   7.812   2.608
  897TIP3    H2 2637   2.326   7.762   2.750
  898TIP3   OH2 2638   4.406   4.220   3.591
  898TIP3    H1 2639   4.444   4.149   3.643
  898TIP3    H2 2640   4.403   4.185   3.502
  899TIP3   OH2 2641   3.916   0.069   6.406
  899TIP3    H1 2642   3.837   0.037   6.449
  899TIP3    H2 2643   3.897   0.161   6.386
  900TIP3   OH2 2644   7.157   2.135   2.804
  900TIP3    H1 2645   7.211   2.210   2.776
  900TIP3    H2 2646   7.213   2.087   2.865
  901TIP3   OH2 2647   1.415   7.719   1.652
  901TIP3    H1 2648   1.374   7.678   1.576
  901TIP3    H2 2649   1.400   7.657   1.723
  902TIP3   OH2 2650   2.572   4.099   4.638
  902TIP3    H1 2651   2.541   4.071   4.724
  902TIP3    H2 2652   2.655   4.052   4.626
  903TIP3   OH2 2653   0.814   5.774   1.617
  903TIP3    H1 2654   0.731   5.804   1.580
  903TIP3    H2 2655   0.789   5.718   1.690
  904TIP3   OH2 2656   0.127   3.439   6.029
  904TIP3    H1 2657   0.056   3.375   6.034
  904TIP3    H2 2658   0.116   3.494   6.106
  905TIP3   OH2 2659   1.706   1.898   2.993
  905TIP3    H1 2660   1.665   1.872   2.911
  905TIP3    H2 2661   1.693   1.993   2.998
  906TIP3   OH2 2662   2.197   7.688   0.121
  906TIP3    H1 2663   2.138   7.700   0.046
  906TIP3    H2 2664   2.218   7.777   0.149
  907TIP3   OH2 2665   6.880   4.391   6.270
  907TIP3    H1 2666   6.887   4.463   6.207
  907TIP3    H2 2667   6.887   4.433   6.356
  908TIP3   OH2 2668   3.424   3.299   6.236
  908TIP3    H1 2669   3.416   3.228   6.172
  908TIP3    H2 2670   3.353   3.360   6.213
  909TIP3   OH2 2671   3.994   3.490   2.441
  909TIP3    H1 2672   3.980   3.408   2.489
  909TIP3    H2 2673   4.057   3.468   2.373
  910TIP3   OH2 2674   4.049   0.492   1.512
  910TIP3    H1 2675   4.046   0.582   1.546
  910TIP3    H2 2676   4.141   0.468   1.517
  911TIP3   OH2 2677   3.247   5.936   1.119
  911TIP3    H1 2678   3.283   6.024   1.116
  911TIP3    H2 2679   3.275   5.895   1.037
  912TIP3   OH2 2680   6.713   4.362   5.228
  912TIP3    H1 2681   6.798   4.370   5.272
  912TIP3    H2 2682   6.684   4.453   5.216
  913TIP3   OH2 2683   6.249   0.264   2.684
  913TIP3    H1 2684   6.289   0.245   2.769
  913TIP3    H2 2685   6.245   0.179   2.641
  914TIP3   OH2 2686   5.968   7.486   2.623
  914TIP3    H1 2687   5.891   7.429   2.625
  914TIP3    H2 2688   5.944   7.562   2.675
  915TIP3   OH2 2689   2.328   3.226  -0.040
  915TIP3    H1 2690   2.291   3.190   0.040
  915TIP3    H2 2691   2.359   3.313  -0.016
  916TIP3   OH2 2692   1.859   1.041   0.360
  916TIP3    H1 2693   1.906   0.960   0.380
  916TIP3    H2 2694   1.924   1.110   0.369
  917TIP3   OH2 2695   0.687   0.829   5.235
  917TIP3    H1 2696   0.682   0.808   5.329
  917TIP3    H2 2697   0.671   0.746   5.191
  918TIP3   OH2 2698   1.896   1.479   4.931
  918TIP3    H1 2699   1.962   1.549   4.929
  918TIP3    H2 2700   1.884   1.454   4.840
  919TIP3   OH2 2701   6.612   4.321   2.474
  919TIP3    H1 2702   6.624   4.278   2.389
  919TIP3    H2 2703   6.589   4.250   2.533
  920TIP3   OH2 2704   0.719   6.400   0.780
  920TIP3    H1 2705   0.717   6.323   0.836
  920TIP3    H2 2706   0.634   6.441   0.791
  921TIP3   OH2 2707   6.066   0.072   4.944
  921TIP3    H1 2708   5.972   0.068   4.965
  921TIP3    H2 2709   6.101   0.135   5.006
  922TIP3   OH2 2710   1.240   3.407   5.200
  922TIP3    H1 2711   1.208   3.497   5.193
  922TIP3    H2 2712   1.333   3.414   5.178
  923TIP3   OH2 2713   4.727   3.191   4.909
  923TIP3    H1 2714   4.739   3.098   4.893
  923TIP3    H2 2715   4.704   3.227   4.823
  924TIP3   OH2 2716   7.449   2.436   3.099
  924TIP3    H1 2717   7.360   2.450   3.067
  924TIP3    H2 2718   7.494   2.519   3.083
  925TIP3   OH2 2719   6.928   3.482   0.944
  925TIP3    H1 2720   6.901   3.393   0.968
  925TIP3    H2 2721   6.907   3.534   1.021
  926TIP3   OH2 2722   2.522   5.693   1.113
  926TIP3    H1 2723   2.602   5.739   1.090
  926TIP3    H2 2724   2.551   5.614   1.158
  927TIP3   OH2 2725   6.614   6.250   3.104
  927TIP3    H1 2726   6.645   6.328   3.150
  927TIP3    H2 2727   6.675   6.181   3.129
  928TIP3   OH2 2728   5.081   0.478   2.152
  928TIP3    H1 2729   5.169   0.441   2.137
  928TIP3    H2 2730   5.043   0.421   2.219
  929TIP3   OH2 2731   1.006   0.078   2.634
  929TIP3    H1 2732   1.048   0.064   2.718
  929TIP3    H2 2733   1.020   0.170   2.614
  930TIP3   OH2 2734   2.290   3.842   2.948
  930TIP3    H1 2735   2.208   3.891   2.952
  930TIP3    H2 2736   2.356   3.901   2.983
  931TIP3   OH2 2737   0.990   5.020   6.535
  931TIP3    H1 2738   1.036   4.968   6.600
  931TIP3    H2 2739   1.058   5.045   6.472
  932TIP3   OH2 2740   5.859   1.656   6.009
  932TIP3    H1 2741   5.855   1.561   6.006
  932TIP3    H2 2742   5.898   1.676   6.094
  933TIP3   OH2 2743   3.252   3.200   5.802
  933TIP3    H1 2744   3.200   3.228   5.877
  933TIP3    H2 2745   3.236   3.266   5.735
  934TIP3   OH2 2746   0.017   0.943   1.940
  934TIP3    H1 2747   0.051   0.879   2.003
  934TIP3    H2 2748  -0.057   0.985   1.985
  935TIP3   OH2 2749   5.970   6.968   0.089
  935TIP3    H1 2750   5.930   7.051   0.115
  935TIP3    H2 2751   5.905   6.902   0.114
  936TIP3   OH2 2752   2.504   3.029   0.249
  936TIP3    H1 2753   2.540   2.972   0.181
  936TIP3    H2 2754   2.410   3.032   0.230
  937TIP3   OH2 2755   8.017   3.892   0.055
  937TIP3    H1 2756   8.066   3.849   0.125
  937TIP3    H2 2757   7.941   3.836   0.040
  938TIP3   OH2 2758   2.050   1.727   0.954
  938TIP3    H1 2759   1.986   1.792   0.926
  938TIP3    H2 2760   2.100   1.771   1.023
  939TIP3   OH2 2761   8.219   2.605   4.068
  939TIP3    H1 2762   8.222   2.546   4.143
  939TIP3    H2 2763   8.259   2.555   3.997
  940TIP3   OH2 2764   4.226   2.856   1.828
  940TIP3    H1 2765   4.280   2.913   1.773
  940TIP3    H2 2766   4.214   2.906   1.909
  941TIP3   OH2 2767   4.200   1.405   5.195
  941TIP3    H1 2768   4.122   1.431   5.146
  941TIP3    H2 2769   4.234   1.487   5.232
  942TIP3   OH2 2770   4.853   0.146   1.229
  942TIP3    H1 2771   4.784   0.080   1.222
  942TIP3    H2 2772   4.812   0.220   1.273
  943TIP3   OH2 2773   6.920   1.975   5.780
  943TIP3    H1 2774   6.854   2.000   5.715
  943TIP3    H2 2775   7.003   1.982   5.733
  944TIP3   OH2 2776   5.532   0.890   0.365
  944TIP3    H1 2777   5.506   0.970   0.318
  944TIP3    H2 2778   5.586   0.842   0.302
  945TIP3   OH2 2779   5.798   1.787   2.574
  945TIP3    H1 2780   5.881   1.746   2.550
  945TIP3    H2 2781   5.732   1.720   2.558
  946TIP3   OH2 2782   5.671   7.012   5.790
  946TIP3    H1 2783   5.684   6.987   5.699
  946TIP3    H2 2784   5.759   7.026   5.825
  947TIP3   OH2 2785   6.229   5.452   2.526
  947TIP3    H1 2786   6.140   5.485   2.533
  947TIP3    H2 2787   6.226   5.390   2.454
  948TIP3   OH2 2788   6.359   5.587   2.039
  948TIP3    H1 2789   6.323   5.499   2.027
  948TIP3    H2 2790   6.446   5.572   2.076
  949TIP3   OH2 2791   7.670   3.295   3.752
  949TIP3    H1 2792   7.592   3.265   3.799
  949TIP3    H2 2793   7.682   3.231   3.682
  950TIP3   OH2 2794   5.358   7.813   4.491
  950TIP3    H1 2795   5.449   7.790   4.471
  950TIP3    H2 2796   5.306   7.757   4.433
  951TIP3   OH2 2797   4.422   5.066   1.446
  951TIP3    H1 2798   4.448   5.121   1.372
  951TIP3    H2 2799   4.341   5.023   1.416
  952TIP3   OH2 2800   5.152   5.275   2.979
  952TIP3    H1 2801   5.125   5.367   2.983
  952TIP3    H2 2802   5.072   5.226   3.002
  953TIP3   OH2 2803   6.254   7.757   6.496
  953TIP3    H1 2804   6.215   7.822   6.438
  953TIP3    H2 2805   6.292   7.692   6.437
  954TIP3   OH2 2806   1.390   6.809   4.972
  954TIP3    H1 2807   1.332   6.740   4.944
  954TIP3    H2 2808   1.341   6.890   4.958
  955TIP3   OH2 2809   2.229   5.811   3.862
  955TIP3    H1 2810   2.216   5.797   3.768
  955TIP3    H2 2811   2.263   5.728   3.895
  956TIP3   OH2 2812   2.688   4.423   6.036
  956TIP3    H1 2813   2.645   4.405   5.952
  956TIP3    H2 2814   2.677   4.343   6.087
  957TIP3   OH2 2815   5.315   6.965   0.101
  957TIP3    H1 2816   5.405   6.943   0.126
  957TIP3    H2 2817   5.265   6.886   0.119
  958TIP3   OH2 2818   0.039   3.246   5.382
  958TIP3    H1 2819   0.089   3.185   5.328
  958TIP3    H2 2820   0.098   3.319   5.397
  959TIP3   OH2 2821   0.657   4.568   6.549
  959TIP3    H1 2822   0.673   4.478   6.521
  959TIP3    H2 2823   0.563   4.580   6.537
  960TIP3   OH2 2824   8.289   5.450   0.626
  960TIP3    H1 2825   8.194   5.455   0.629
  960TIP3    H2 2826   8.308   5.361   0.597
  961TIP3   OH2 2827   4.859   5.278   3.776
  961TIP3    H1 2828   4.834   5.190   3.748
  961TIP3    H2 2829   4.816   5.291   3.860
  962TIP3   OH2 2830   0.095   3.599   6.292
  962TIP3    H1 2831   0.186   3.617   6.316
  962TIP3    H2 2832   0.044   3.662   6.343
  963TIP3   OH2 2833   1.629   0.841   5.514
  963TIP3    H1 2834   1.535   0.861   5.521
  963TIP3    H2 2835   1.654   0.875   5.428
  964TIP3   OH2 2836   0.476   5.955   1.003
  964TIP3    H1 2837   0.442   5.894   0.938
  964TIP3    H2 2838   0.555   5.913   1.037
  965TIP3   OH2 2839   8.240   7.006   2.386
  965TIP3    H1 2840   8.199   7.069   2.446
  965TIP3    H2 2841   8.242   7.050   2.302
  966TIP3   OH2 2842   5.009   3.129   1.510
  966TIP3    H1 2843   4.957   3.181   1.450
  966TIP3    H2 2844   4.957   3.049   1.523
  967TIP3   OH2 2845   6.262   5.043   2.405
  967TIP3    H1 2846   6.268   4.991   2.325
  967TIP3    H2 2847   6.214   5.122   2.380
  968TIP3   OH2 2848   4.337   4.719   3.500
  968TIP3    H1 2849   4.383   4.799   3.527
  968TIP3    H2 2850   4.340   4.663   3.578
  969TIP3   OH2 2851   7.154   4.571   6.086
  969TIP3    H1 2852   7.235   4.550   6.040
  969TIP3    H2 2853   7.086   4.520   6.040
  970TIP3   OH2 2854   0.968   4.193   0.506
  970TIP3    H1 2855   0.979   4.288   0.497
  970TIP3    H2 2856   0.875   4.181   0.521
  971TIP3   OH2 2857   4.345   4.356   2.086
  971TIP3    H1 2858   4.334   4.303   2.007
  971TIP3    H2 2859   4.263   4.342   2.135
  972TIP3   OH2 2860   6.088   7.509   0.620
  972TIP3    H1 2861   6.111   7.430   0.572
  972TIP3    H2 2862   6.030   7.557   0.561
  973TIP3   OH2 2863   6.754   0.179   1.766
  973TIP3    H1 2864   6.713   0.240   1.828
  973TIP3    H2 2865   6.845   0.175   1.793
  974TIP3   OH2 2866   0.770   2.769   2.887
  974TIP3    H1 2867   0.853   2.767   2.839
  974TIP3    H2 2868   0.713   2.826   2.836
  975TIP3   OH2 2869   1.957   5.533   1.688
  975TIP3    H1 2870   1.938   5.595   1.618
  975TIP3    H2 2871   1.965   5.448   1.645
  976TIP3   OH2 2872   0.753   0.052   4.908
  976TIP3    H1 2873   0.678  -0.003   4.931
  976TIP3    H2 2874   0.721   0.142   4.916
  977TIP3   OH2 2875   1.796   1.878   1.909
  977TIP3    H1 2876   1.857   1.841   1.845
  977TIP3    H2 2877   1.771   1.963   1.872
  978TIP3   OH2 2878   0.492   7.347   4.784
  978TIP3    H1 2879   0.553   7.421   4.789
  978TIP3    H2 2880   0.457   7.338   4.872
  979TIP3   OH2 2881   5.350   6.711   0.538
  979TIP3    H1 2882   5.277   6.768   0.561
  979TIP3    H2 2883   5.333   6.630   0.587
  980TIP3   OH2 2884   2.726   4.791   0.748
  980TIP3    H1 2885   2.718   4.700   0.719
  980TIP3    H2 2886   2.808   4.793   0.797
  981TIP3   OH2 2887   0.382   1.360   4.629
  981TIP3    H1 2888   0.350   1.403   4.709
  981TIP3    H2 2889   0.402   1.433   4.570
  982TIP3   OH2 2890   4.179   3.622   1.555
  982TIP3    H1 2891   4.251   3.570   1.591
  982TIP3    H2 2892   4.213   3.711   1.549
  983TIP3   OH2 2893   0.359   1.293   0.991
  983TIP3    H1 2894   0.276   1.290   1.037
  983TIP3    H2 2895   0.382   1.386   0.989
  984TIP3   OH2 2896   5.122   0.593  -0.022
  984TIP3    H1 2897   5.189   0.605   0.045
  984TIP3    H2 2898   5.078   0.678  -0.027
  985TIP3   OH2 2899   7.234   4.049   5.051
  985TIP3    H1 2900   7.310   4.097   5.019
  985TIP3    H2 2901   7.202   4.001   4.974
  986TIP3   OH2 2902   6.613   2.056   3.308
  986TIP3    H1 2903   6.592   2.087   3.396
  986TIP3    H2 2904   6.708   2.065   3.302
  987TIP3   OH2 2905   3.356   1.213   0.355
  987TIP3    H1 2906   3.261   1.223   0.352
  987TIP3    H2 2907   3.381   1.200   0.263
  988TIP3   OH2 2908   7.130   3.552   6.583
  988TIP3    H1 2909   7.065   3.619   6.562
  988TIP3    H2 2910   7.103   3.518   6.668
  989TIP3   OH2 2911   6.781   6.078   5.959
  989TIP3    H1 2912   6.725   6.010   5.996
  989TIP3    H2 2913   6.740   6.099   5.875
  990TIP3   OH2 2914   1.305   7.078   6.570
  990TIP3    H1 2915   1.287   7.158   6.521
  990TIP3    H2 2916   1.221   7.054   6.609
  991TIP3   OH2 2917   4.949   5.614   6.404
  991TIP3    H1 2918   4.979   5.704   6.412
  991TIP3    H2 2919   5.025   5.566   6.371
  992TIP3   OH2 2920   3.412   0.815   2.847
  992TIP3    H1 2921   3.357   0.810   2.769
  992TIP3    H2 2922   3.499   0.837   2.814
  993TIP3   OH2 2923   1.158   7.368   4.299
  993TIP3    H1 2924   1.073   7.352   4.259
  993TIP3    H2 2925   1.145   7.446   4.353
  994TIP3   OH2 2926   6.047   2.479   4.136
  994TIP3    H1 2927   6.118   2.416   4.130
  994TIP3    H2 2928   5.967   2.426   4.135
  995TIP3   OH2 2929   0.933   4.624   3.118
  995TIP3    H1 2930   0.919   4.683   3.044
  995TIP3    H2 2931   1.025   4.599   3.111
  996TIP3   OH2 2932   8.287   0.035   1.168
  996TIP3    H1 2933   8.199   0.009   1.195
  996TIP3    H2 2934   8.304  -0.017   1.089
  997TIP3   OH2 2935   1.342   0.075   0.791
  997TIP3    H1 2936   1.350   0.051   0.884
  997TIP3    H2 2937   1.358  -0.007   0.744
  998TIP3   OH2 2938   3.248   1.722   4.631
  998TIP3    H1 2939   3.186   1.653   4.654
  998TIP3    H2 2940   3.199   1.803   4.644
  999TIP3   OH2 2941   2.977   6.642   3.858
  999TIP3    H1 2942   3.044   6.695   3.900
  999TIP3    H2 2943   2.911   6.705   3.828
 1000TIP3   OH2 2944   4.414   2.825   6.772
 1000TIP3    H1 2945   4.404   2.817   6.677
 1000TIP3    H2 2946   4.327   2.847   6.803
 1001TIP3   OH2 2947   7.921   6.159   4.370
 1001TIP3    H1 2948   7.956   6.240   4.333
 1001TIP3    H2 2949   7.912   6.178   4.464
 1002TIP3   OH2 2950   6.386   3.145   5.238
 1002TIP3    H1 2951   6.463   3.150   5.182
 1002TIP3    H2 2952   6.392   3.060   5.281
 1003TIP3   OH2 2953   2.501   2.855   5.053
 1003TIP3    H1 2954   2.514   2.772   5.099
 1003TIP3    H2 2955   2.587   2.898   5.057
 1004TIP3   OH2 2956   4.717   1.395   6.296
 1004TIP3    H1 2957   4.727   1.444   6.377
 1004TIP3    H2 2958   4.676   1.312   6.323
 1005TIP3   OH2 2959   3.685   3.727   5.670
 1005TIP3    H1 2960   3.609   3.781   5.648
 1005TIP3    H2 2961   3.719   3.766   5.751
 1006TIP3   OH2 2962   3.647   4.305   1.909
 1006TIP3    H1 2963   3.562   4.332   1.875
 1006TIP3    H2 2964   3.636   4.212   1.931
 1007TIP3   OH2 2965   1.439   1.596   0.185
 1007TIP3    H1 2966   1.478   1.572   0.269
 1007TIP3    H2 2967   1.495   1.666   0.152
 1008TIP3   OH2 2968   7.347   5.651   4.357
 1008TIP3    H1 2969   7.340   5.714   4.429
 1008TIP3    H2 2970   7.349   5.705   4.278
 1009TIP3   OH2 2971   7.064   4.475   2.292
 1009TIP3    H1 2972   7.024   4.544   2.344
 1009TIP3    H2 2973   7.008   4.399   2.305
 1010TIP3   OH2 2974   2.683   0.820   2.728
 1010TIP3    H1 2975   2.608   0.846   2.674
 1010TIP3    H2 2976   2.702   0.731   2.700
 1011TIP3   OH2 2977   2.838   3.859   1.303
 1011TIP3    H1 2978   2.820   3.836   1.394
 1011TIP3    H2 2979   2.918   3.811   1.281
 1012TIP3   OH2 2980   1.924   7.539   5.264
 1012TIP3    H1 2981   1.959   7.615   5.311
 1012TIP3    H2 2982   1.848   7.511   5.317
 1013TIP3   OH2 2983   3.494   4.702   2.052
 1013TIP3    H1 2984   3.436   4.728   2.124
 1013TIP3    H2 2985   3.557   4.642   2.093
 1014TIP3   OH2 2986   6.990   7.555   1.263
 1014TIP3    H1 2987   6.954   7.526   1.347
 1014TIP3    H2 2988   6.972   7.483   1.203
 1015TIP3   OH2 2989   3.538   2.201   6.652
 1015TIP3    H1 2990   3.600   2.240   6.714
 1015TIP3    H2 2991   3.572   2.224   6.566
 1016TIP3   OH2 2992   4.414   0.921   4.826
 1016TIP3    H1 2993   4.326   0.943   4.797
 1016TIP3    H2 2994   4.441   0.850   4.768
 1017TIP3   OH2 2995   1.689   1.346   3.616
 1017TIP3    H1 2996   1.656   1.427   3.578
 1017TIP3    H2 2997   1.642   1.277   3.570
 1018TIP3   OH2 2998   5.259   3.344   0.486
 1018TIP3    H1 2999   5.297   3.429   0.468
 1018TIP3    H2 3000   5.196   3.360   0.556
 1019TIP3   OH2 3001   1.729   2.954   5.934
 1019TIP3    H1 3002   1.731   2.963   5.839
 1019TIP3    H2 3003   1.817   2.976   5.963
 1020TIP3   OH2 3004   3.363   4.591   2.714
 1020TIP3    H1 3005   3.408   4.664   2.755
 1020TIP3    H2 3006   3.425   4.556   2.650
 1021TIP3   OH2 3007   1.485   4.667   2.001
 1021TIP3    H1 3008   1.518   4.756   2.016
 1021TIP3    H2 3009   1.559   4.610   2.024
 1022TIP3   OH2 3010   0.309   3.318   4.853
 1022TIP3    H1 3011   0.390   3.338   4.808
 1022TIP3    H2 3012   0.297   3.224   4.842
 1023TIP3   OH2 3013   1.262   5.285   6.651
 1023TIP3    H1 3014   1.188   5.344   6.637
 1023TIP3    H2 3015   1.227   5.197   6.634
 1024TIP3   OH2 3016   3.985   2.883   4.879
 1024TIP3    H1 3017   3.924   2.878   4.806
 1024TIP3    H2 3018   3.929   2.894   4.956
 1025TIP3   OH2 3019   4.026   3.635   0.787
 1025TIP3    H1 3020   4.036   3.539   0.789
 1025TIP3    H2 3021   3.964   3.651   0.716
 1026TIP3   OH2 3022   4.936   5.898   1.155
 1026TIP3    H1 3023   4.937   5.932   1.065
 1026TIP3    H2 3024   4.848   5.864   1.167
 1027TIP3   OH2 3025   5.310   2.661   0.061
 1027TIP3    H1 3026   5.276   2.572   0.047
 1027TIP3    H2 3027   5.391   2.648   0.110
 1028TIP3   OH2 3028   7.670   7.074   6.224
 1028TIP3    H1 3029   7.764   7.087   6.233
 1028TIP3    H2 3030   7.654   7.075   6.130
 1029TIP3   OH2 3031   4.927   6.841   1.975
 1029TIP3    H1 3032   4.890   6.786   2.044
 1029TIP3    H2 3033   4.856   6.851   1.911
 1030TIP3   OH2 3034   6.353   2.092   5.366
 1030TIP3    H1 3035   6.373   2.151   5.439
 1030TIP3    H2 3036   6.410   2.017   5.380
 1031TIP3   OH2 3037   3.969   4.512   1.115
 1031TIP3    H1 3038   4.057   4.500   1.152
 1031TIP3    H2 3039   3.967   4.456   1.037
 1032TIP3   OH2 3040   3.763   2.718   4.483
 1032TIP3    H1 3041   3.713   2.637   4.471
 1032TIP3    H2 3042   3.721   2.782   4.427
 1033TIP3   OH2 3043   5.812   1.515   0.880
 1033TIP3    H1 3044   5.803   1.423   0.906
 1033TIP3    H2 3045   5.738   1.531   0.822
 1034TIP3   OH2 3046   5.522   3.713   3.936
 1034TIP3    H1 3047   5.603   3.750   3.901
 1034TIP3    H2 3048   5.539   3.620   3.946
 1035TIP3   OH2 3049   1.819   2.826   1.110
 1035TIP3    H1 3050   1.756   2.811   1.181
 1035TIP3    H2 3051   1.862   2.741   1.098
 1036TIP3   OH2 3052   4.816   2.265   1.324
 1036TIP3    H1 3053   4.784   2.249   1.235
 1036TIP3    H2 3054   4.803   2.182   1.370
 1037TIP3   OH2 3055   7.522   5.527   3.161
 1037TIP3    H1 3056   7.614   5.541   3.142
 1037TIP3    H2 3057   7.517   5.438   3.195
 1038TIP3   OH2 3058   2.949   3.861   1.925
 1038TIP3    H1 3059   2.872   3.824   1.882
 1038TIP3    H2 3060   2.955   3.950   1.890
 1039TIP3   OH2 3061   3.137   4.995   4.451
 1039TIP3    H1 3062   3.158   4.962   4.539
 1039TIP3    H2 3063   3.125   5.090   4.464
 1040TIP3   OH2 3064   7.007   5.769   2.037
 1040TIP3    H1 3065   7.004   5.769   1.941
 1040TIP3    H2 3066   7.094   5.737   2.059
 1041TIP3   OH2 3067   7.606   4.534   0.801
 1041TIP3    H1 3068   7.574   4.477   0.870
 1041TIP3    H2 3069   7.564   4.502   0.721
 1042TIP3   OH2 3070   1.900   5.456   0.291
 1042TIP3    H1 3071   1.831   5.466   0.226
 1042TIP3    H2 3072   1.964   5.524   0.269
 1043TIP3   OH2 3073   4.672   3.169   4.414
 1043TIP3    H1 3074   4.694   3.091   4.363
 1043TIP3    H2 3075   4.633   3.229   4.351
 1044TIP3   OH2 3076   1.624   1.904   1.274
 1044TIP3    H1 3077   1.557   1.955   1.228
 1044TIP3    H2 3078   1.638   1.827   1.218
 1045TIP3   OH2 3079   3.636   2.348   2.942
 1045TIP3    H1 3080   3.678   2.297   2.872
 1045TIP3    H2 3081   3.633   2.288   3.016
 1046TIP3   OH2 3082   7.304   1.132   2.949
 1046TIP3    H1 3083   7.353   1.093   2.876
 1046TIP3    H2 3084   7.278   1.057   3.002
 1047TIP3   OH2 3085   5.943   3.318   4.620
 1047TIP3    H1 3086   5.997   3.334   4.543
 1047TIP3    H2 3087   5.866   3.271   4.587
 1048TIP3   OH2 3088   5.372   5.497   6.040
 1048TIP3    H1 3089   5.325   5.528   5.962
 1048TIP3    H2 3090   5.395   5.407   6.020
 1049TIP3   OH2 3091   0.963   7.499   2.940
 1049TIP3    H1 3092   0.933   7.527   2.854
 1049TIP3    H2 3093   0.966   7.403   2.934
 1050TIP3   OH2 3094   6.678   2.442   4.441
 1050TIP3    H1 3095   6.614   2.507   4.409
 1050TIP3    H2 3096   6.624   2.372   4.478
 1051TIP3   OH2 3097   8.300   1.141   1.324
 1051TIP3    H1 3098   8.336   1.127   1.412
 1051TIP3    H2 3099   8.214   1.101   1.327
 1052TIP3   OH2 3100   7.148   2.816   4.131
 1052TIP3    H1 3101   7.232   2.833   4.173
 1052TIP3    H2 3102   7.118   2.733   4.168
 1053TIP3   OH2 3103   3.738   1.188   3.385
 1053TIP3    H1 3104   3.818   1.195   3.333
 1053TIP3    H2 3105   3.693   1.272   3.372
 1054TIP3   OH2 3106   4.803   6.564   0.471
 1054TIP3    H1 3107   4.849   6.557   0.555
 1054TIP3    H2 3108   4.827   6.651   0.439
 1055TIP3   OH2 3109   3.793   2.976   6.261
 1055TIP3    H1 3110   3.851   2.909   6.297
 1055TIP3    H2 3111   3.758   2.937   6.181
 1056TIP3   OH2 3112   5.589   5.485   3.301
 1056TIP3    H1 3113   5.495   5.470   3.299
 1056TIP3    H2 3114   5.627   5.405   3.264
 1057TIP3   OH2 3115   5.755   4.297   2.670
 1057TIP3    H1 3116   5.834   4.260   2.631
 1057TIP3    H2 3117   5.700   4.222   2.690
 1058TIP3   OH2 3118   4.163   2.974   4.476
 1058TIP3    H1 3119   4.113   2.896   4.453
 1058TIP3    H2 3120   4.119   3.046   4.431
 1059TIP3   OH2 3121   1.288   3.960   6.382
 1059TIP3    H1 3122   1.348   3.890   6.411
 1059TIP3    H2 3123   1.274   4.013   6.460
 1060TIP3   OH2 3124   5.281   2.335   3.106
 1060TIP3    H1 3125   5.201   2.338   3.158
 1060TIP3    H2 3126   5.341   2.281   3.158
 1061TIP3   OH2 3127   5.883   7.345   1.849
 1061TIP3    H1 3128   5.828   7.381   1.779
 1061TIP3    H2 3129   5.821   7.322   1.918
 1062TIP3   OH2 3130   5.330   6.116   2.951
 1062TIP3    H1 3131   5.304   6.122   3.043
 1062TIP3    H2 3132   5.290   6.034   2.921
 1063TIP3   OH2 3133   7.550   7.225   5.973
 1063TIP3    H1 3134   7.469   7.186   6.007
 1063TIP3    H2 3135   7.613   7.154   5.974
 1064TIP3   OH2 3136   1.998   2.306   6.588
 1064TIP3    H1 3137   2.049   2.361   6.647
 1064TIP3    H2 3138   2.047   2.309   6.506
 1065TIP3   OH2 3139   5.897   2.748   4.827
 1065TIP3    H1 3140   5.830   2.797   4.779
 1065TIP3    H2 3141   5.851   2.714   4.904
 1066TIP3   OH2 3142   5.555   2.657   0.886
 1066TIP3    H1 3143   5.645   2.646   0.918
 1066TIP3    H2 3144   5.554   2.611   0.802
 1067TIP3   OH2 3145   2.020   5.935   2.683
 1067TIP3    H1 3146   2.013   6.001   2.614
 1067TIP3    H2 3147   2.113   5.911   2.683
 1068TIP3   OH2 3148   7.381   5.945   2.413
 1068TIP3    H1 3149   7.405   6.030   2.376
 1068TIP3    H2 3150   7.436   5.883   2.366
 1069TIP3   OH2 3151   0.252   2.302   6.150
 1069TIP3    H1 3152   0.315   2.293   6.079
 1069TIP3    H2 3153   0.173   2.257   6.119
 1070TIP3   OH2 3154   0.848   6.737   0.700
 1070TIP3    H1 3155   0.876   6.825   0.724
 1070TIP3    H2 3156   0.851   6.688   0.782
 1071TIP3   OH2 3157   5.347   3.106   4.188
 1071TIP3    H1 3158   5.281   3.056   4.235
 1071TIP3    H2 3159   5.409   3.135   4.255
 1072TIP3   OH2 3160   5.667   6.332   5.281
 1072TIP3    H1 3161   5.676   6.376   5.196
 1072TIP3    H2 3162   5.622   6.396   5.336
 1073TIP3   OH2 3163   7.405   0.857   2.527
 1073TIP3    H1 3164   7.444   0.770   2.521
 1073TIP3    H2 3165   7.327   0.852   2.473
 1074TIP3   OH2 3166   8.129   1.690   2.183
 1074TIP3    H1 3167   8.041   1.663   2.209
 1074TIP3    H2 3168   8.162   1.618   2.130
 1075TIP3   OH2 3169   6.282   2.611   1.117
 1075TIP3    H1 3170   6.250   2.669   1.048
 1075TIP3    H2 3171   6.272   2.662   1.198
 1076TIP3   OH2 3172   0.074   6.257   4.952
 1076TIP3    H1 3173  -0.019   6.237   4.964
 1076TIP3    H2 3174   0.094   6.228   4.863
 1077TIP3   OH2 3175   0.668   0.507   1.836
 1077TIP3    H1 3176   0.579   0.473   1.835
 1077TIP3    H2 3177   0.724   0.430   1.834
 1078TIP3   OH2 3178   5.948   5.864   1.427
 1078TIP3    H1 3179   5.991   5.912   1.497
 1078TIP3    H2 3180   5.966   5.772   1.447
 1079TIP3   OH2 3181   5.015   7.367   2.515
 1079TIP3    H1 3182   4.940   7.424   2.499
 1079TIP3    H2 3183   4.999   7.329   2.602
 1080TIP3   OH2 3184   1.345   3.373   6.401
 1080TIP3    H1 3185   1.251   3.389   6.413
 1080TIP3    H2 3186   1.353   3.278   6.399
 1081TIP3   OH2 3187   2.805   4.321   0.795
 1081TIP3    H1 3188   2.835   4.268   0.869
 1081TIP3    H2 3189   2.856   4.288   0.721
 1082TIP3   OH2 3190   3.180   0.974   5.666
 1082TIP3    H1 3191   3.109   1.031   5.635
 1082TIP3    H2 3192   3.187   0.906   5.600
 1083TIP3   OH2 3193   8.020   1.588   4.138
 1083TIP3    H1 3194   7.964   1.659   4.107
 1083TIP3    H2 3195   8.052   1.546   4.057
 1084TIP3   OH2 3196   8.275   4.507   4.517
 1084TIP3    H1 3197   8.318   4.473   4.438
 1084TIP3    H2 3198   8.188   4.533   4.488
 1085TIP3   OH2 3199   7.509   3.480   3.526
 1085TIP3    H1 3200   7.490   3.439   3.610
 1085TIP3    H2 3201   7.602   3.462   3.510
 1086TIP3   OH2 3202   6.850   5.142   1.012
 1086TIP3    H1 3203   6.926   5.186   1.050
 1086TIP3    H2 3204   6.836   5.065   1.067
 1087TIP3   OH2 3205   7.309   0.351   2.969
 1087TIP3    H1 3206   7.301   0.358   2.874
 1087TIP3    H2 3207   7.349   0.265   2.984
 1088TIP3   OH2 3208   0.383   3.177   5.908
 1088TIP3    H1 3209   0.313   3.126   5.948
 1088TIP3    H2 3210   0.456   3.115   5.899
 1089TIP3   OH2 3211   7.133   0.252   5.962
 1089TIP3    H1 3212   7.059   0.310   5.981
 1089TIP3    H2 3213   7.137   0.194   6.038
 1090TIP3   OH2 3214   4.350   3.641   2.998
 1090TIP3    H1 3215   4.372   3.726   2.961
 1090TIP3    H2 3216   4.417   3.582   2.964
 1091TIP3   OH2 3217   4.991   6.339   4.011
 1091TIP3    H1 3218   4.914   6.324   4.065
 1091TIP3    H2 3219   5.026   6.423   4.042
 1092TIP3   OH2 3220   5.629   0.166   6.456
 1092TIP3    H1 3221   5.541   0.132   6.441
 1092TIP3    H2 3222   5.686   0.090   6.445
 1093TIP3   OH2 3223   7.691   6.066   4.707
 1093TIP3    H1 3224   7.754   6.138   4.710
 1093TIP3    H2 3225   7.645   6.077   4.624
 1094TIP3   OH2 3226   6.003   1.846   3.015
 1094TIP3    H1 3227   5.923   1.860   2.964
 1094TIP3    H2 3228   6.067   1.817   2.950
 1095TIP3   OH2 3229   0.134   7.744   4.394
 1095TIP3    H1 3230   0.176   7.695   4.465
 1095TIP3    H2 3231   0.040   7.733   4.410
 1096TIP3   OH2 3232   3.987   6.617   0.405
 1096TIP3    H1 3233   4.023   6.680   0.468
 1096TIP3    H2 3234   4.053   6.547   0.401
 1097TIP3   OH2 3235   4.106   3.627   2.084
 1097TIP3    H1 3236   4.104   3.662   1.995
 1097TIP3    H2 3237   4.135   3.537   2.073
 1098TIP3   OH2 3238   6.251   4.503   4.858
 1098TIP3    H1 3239   6.266   4.570   4.792
 1098TIP3    H2 3240   6.334   4.499   4.907
 1099TIP3   OH2 3241   1.795   4.645   4.868
 1099TIP3    H1 3242   1.771   4.580   4.802
 1099TIP3    H2 3243   1.847   4.596   4.932
 1100TIP3   OH2 3244   4.122   5.897   0.189
 1100TIP3    H1 3245   4.067   5.821   0.173
 1100TIP3    H2 3246   4.110   5.952   0.112
 1101TIP3   OH2 3247   6.391   1.944   2.640
 1101TIP3    H1 3248   6.442   1.868   2.612
 1101TIP3    H2 3249   6.411   1.953   2.733
 1102TIP3   OH2 3250   3.709   0.776   6.389
 1102TIP3    H1 3251   3.647   0.748   6.321
 1102TIP3    H2 3252   3.725   0.869   6.369
 1103TIP3   OH2 3253   3.606   1.830   6.571
 1103TIP3    H1 3254   3.563   1.750   6.541
 1103TIP3    H2 3255   3.535   1.892   6.585
 1104TIP3   OH2 3256   5.921   4.149   1.235
 1104TIP3    H1 3257   5.855   4.187   1.293
 1104TIP3    H2 3258   5.976   4.096   1.293
 1105TIP3   OH2 3259   2.523   5.457   1.344
 1105TIP3    H1 3260   2.509   5.383   1.285
 1105TIP3    H2 3261   2.454   5.450   1.410
 1106TIP3   OH2 3262   7.552   5.435   5.147
 1106TIP3    H1 3263   7.570   5.523   5.115
 1106TIP3    H2 3264   7.457   5.435   5.164
 1107TIP3   OH2 3265   5.013   1.085   0.003
 1107TIP3    H1 3266   5.022   1.136   0.084
 1107TIP3    H2 3267   5.102   1.080  -0.032
 1108TIP3   OH2 3268   4.960   0.475   3.055
 1108TIP3    H1 3269   5.034   0.513   3.101
 1108TIP3    H2 3270   4.886   0.486   3.115
 1109TIP3   OH2 3271   2.238   3.721   0.061
 1109TIP3    H1 3272   2.204   3.632   0.054
 1109TIP3    H2 3273   2.333   3.711   0.067
 1110TIP3   OH2 3274   2.466   2.041   1.770
 1110TIP3    H1 3275   2.519   2.120   1.775
 1110TIP3    H2 3276   2.509   1.988   1.703
 1111TIP3   OH2 3277   5.199   0.877   5.772
 1111TIP3    H1 3278   5.116   0.845   5.736
 1111TIP3    H2 3279   5.181   0.886   5.866
 1112TIP3   OH2 3280   1.589   0.598   5.163
 1112TIP3    H1 3281   1.590   0.693   5.146
 1112TIP3    H2 3282   1.544   0.589   5.247
 1113TIP3   OH2 3283   7.548   4.819   0.873
 1113TIP3    H1 3284   7.532   4.731   0.840
 1113TIP3    H2 3285   7.633   4.813   0.917
 1114TIP3   OH2 3286   1.784   4.502   2.634
 1114TIP3    H1 3287   1.802   4.567   2.702
 1114TIP3    H2 3288   1.774   4.419   2.682
 1115TIP3   OH2 3289   6.988   1.640   0.737
 1115TIP3    H1 3290   6.976   1.710   0.802
 1115TIP3    H2 3291   7.037   1.572   0.784
 1116TIP3   OH2 3292   3.281   4.507   3.411
 1116TIP3    H1 3293   3.370   4.496   3.377
 1116TIP3    H2 3294   3.288   4.486   3.504
 1117TIP3   OH2 3295   3.411   0.731   6.569
 1117TIP3    H1 3296   3.445   0.788   6.500
 1117TIP3    H2 3297   3.365   0.790   6.628
 1118TIP3   OH2 3298   3.119   6.064   6.151
 1118TIP3    H1 3299   3.073   6.147   6.138
 1118TIP3    H2 3300   3.110   6.046   6.245
 1119TIP3   OH2 3301   2.202   4.819   2.954
 1119TIP3    H1 3302   2.203   4.766   3.034
 1119TIP3    H2 3303   2.272   4.783   2.901
 1120TIP3   OH2 3304   6.805   1.341   6.538
 1120TIP3    H1 3305   6.851   1.263   6.570
 1120TIP3    H2 3306   6.770   1.383   6.616
 1121TIP3   OH2 3307   3.324   3.950   2.230
 1121TIP3    H1 3308   3.402   3.917   2.274
 1121TIP3    H2 3309   3.335   3.925   2.138
 1122TIP3   OH2 3310   1.073   5.986   4.235
 1122TIP3    H1 3311   1.063   6.020   4.324
 1122TIP3    H2 3312   1.002   6.027   4.185
 1123TIP3   OH2 3313   7.121   4.117   2.439
 1123TIP3    H1 3314   7.080   4.047   2.490
 1123TIP3    H2 3315   7.194   4.074   2.395
 1124TIP3   OH2 3316   4.514   2.872   4.183
 1124TIP3    H1 3317   4.476   2.927   4.251
 1124TIP3    H2 3318   4.449   2.803   4.169
 1125TIP3   OH2 3319   5.546   4.179   3.923
 1125TIP3    H1 3320   5.494   4.172   4.003
 1125TIP3    H2 3321   5.494   4.235   3.866
 1126TIP3   OH2 3322   2.814   5.026   3.999
 1126TIP3    H1 3323   2.822   5.112   4.039
 1126TIP3    H2 3324   2.870   4.969   4.052
 1127TIP3   OH2 3325   3.907   4.734   4.688
 1127TIP3    H1 3326   3.922   4.808   4.630
 1127TIP3    H2 3327   3.887   4.661   4.629
 1128TIP3   OH2 3328   5.563   6.812   1.705
 1128TIP3    H1 3329   5.530   6.723   1.708
 1128TIP3    H2 3330   5.641   6.811   1.761
 1129TIP3   OH2 3331   2.754   2.295   0.831
 1129TIP3    H1 3332   2.781   2.341   0.910
 1129TIP3    H2 3333   2.659   2.307   0.828
 1130TIP3   OH2 3334   1.021   1.454   2.888
 1130TIP3    H1 3335   0.972   1.446   2.970
 1130TIP3    H2 3336   0.959   1.425   2.821
 1131TIP3   OH2 3337   6.913   6.159   4.899
 1131TIP3    H1 3338   6.962   6.182   4.820
 1131TIP3    H2 3339   6.830   6.124   4.866
 1132TIP3   OH2 3340   7.122   4.203   6.179
 1132TIP3    H1 3341   7.047   4.259   6.161
 1132TIP3    H2 3342   7.152   4.229   6.266
 1133TIP3   OH2 3343   0.265   1.189   1.799
 1133TIP3    H1 3344   0.225   1.251   1.860
 1133TIP3    H2 3345   0.302   1.121   1.856
 1134TIP3   OH2 3346   7.393   0.452   0.412
 1134TIP3    H1 3347   7.390   0.528   0.469
 1134TIP3    H2 3348   7.313   0.457   0.360
 1135TIP3   OH2 3349   6.030   2.071   0.753
 1135TIP3    H1 3350   6.018   2.008   0.682
 1135TIP3    H2 3351   5.976   2.037   0.825
 1136TIP3   OH2 3352   0.401   5.519   0.493
 1136TIP3    H1 3353   0.381   5.427   0.508
 1136TIP3    H2 3354   0.315   5.561   0.487
 1137TIP3   OH2 3355   3.017   7.718   3.201
 1137TIP3    H1 3356   3.038   7.629   3.172
 1137TIP3    H2 3357   3.065   7.775   3.140
 1138TIP3   OH2 3358   5.430   6.548   0.062
 1138TIP3    H1 3359   5.360   6.610   0.042
 1138TIP3    H2 3360   5.454   6.567   0.152
 1139TIP3   OH2 3361   3.029   7.737   2.090
 1139TIP3    H1 3362   3.017   7.692   2.006
 1139TIP3    H2 3363   3.124   7.741   2.101
 1140TIP3   OH2 3364   4.512   5.541   3.724
 1140TIP3    H1 3365   4.480   5.631   3.723
 1140TIP3    H2 3366   4.539   5.524   3.634
 1141TIP3   OH2 3367   0.679   3.621   5.084
 1141TIP3    H1 3368   0.602   3.667   5.118
 1141TIP3    H2 3369   0.647   3.535   5.060
 1142TIP3   OH2 3370   2.202   4.860   5.319
 1142TIP3    H1 3371   2.130   4.916   5.293
 1142TIP3    H2 3372   2.247   4.837   5.237
 1143TIP3   OH2 3373   8.202   6.369   5.597
 1143TIP3    H1 3374   8.262   6.383   5.671
 1143TIP3    H2 3375   8.257   6.381   5.519
 1144TIP3   OH2 3376   4.491   4.569   4.149
 1144TIP3    H1 3377   4.430   4.495   4.157
 1144TIP3    H2 3378   4.518   4.567   4.057
 1145TIP3   OH2 3379   4.614   3.825   6.467
 1145TIP3    H1 3380   4.597   3.868   6.551
 1145TIP3    H2 3381   4.699   3.782   6.480
 1146TIP3   OH2 3382   1.549   4.338   6.258
 1146TIP3    H1 3383   1.515   4.419   6.295
 1146TIP3    H2 3384   1.473   4.279   6.255
 1147TIP3   OH2 3385   1.364   7.783   1.152
 1147TIP3    H1 3386   1.335   7.739   1.071
 1147TIP3    H2 3387   1.283   7.804   1.198
 1148TIP3   OH2 3388   3.095   5.948   3.678
 1148TIP3    H1 3389   3.082   5.918   3.588
 1148TIP3    H2 3390   3.018   5.915   3.726
 1149TIP3   OH2 3391   1.610   1.634   5.848
 1149TIP3    H1 3392   1.605   1.729   5.835
 1149TIP3    H2 3393   1.684   1.607   5.793
 1150TIP3   OH2 3394   1.292   3.869   5.376
 1150TIP3    H1 3395   1.309   3.962   5.364
 1150TIP3    H2 3396   1.255   3.862   5.464
 1151TIP3   OH2 3397   5.484   2.011   6.725
 1151TIP3    H1 3398   5.485   1.996   6.820
 1151TIP3    H2 3399   5.555   1.956   6.691
 1152TIP3   OH2 3400   4.331   2.168   2.359
 1152TIP3    H1 3401   4.257   2.226   2.340
 1152TIP3    H2 3402   4.372   2.152   2.274
 1153TIP3   OH2 3403   5.886   6.449   3.629
 1153TIP3    H1 3404   5.859   6.367   3.589
 1153TIP3    H2 3405   5.940   6.423   3.703
 1154TIP3   OH2 3406   7.391   2.499   5.721
 1154TIP3    H1 3407   7.388   2.446   5.800
 1154TIP3    H2 3408   7.300   2.522   5.703
 1155TIP3   OH2 3409   7.950   6.394   5.463
 1155TIP3    H1 3410   8.042   6.390   5.489
 1155TIP3    H2 3411   7.946   6.466   5.401
 1156TIP3   OH2 3412   0.880   2.412   1.785
 1156TIP3    H1 3413   0.833   2.394   1.866
 1156TIP3    H2 3414   0.858   2.502   1.764
 1157TIP3   OH2 3415   4.467   4.359   1.361
 1157TIP3    H1 3416   4.479   4.327   1.450
 1157TIP3    H2 3417   4.546   4.411   1.343
 1158TIP3   OH2 3418   3.414   1.826   4.968
 1158TIP3    H1 3419   3.471   1.832   4.892
 1158TIP3    H2 3420   3.387   1.916   4.985
 1159TIP3   OH2 3421   8.236   0.286   3.270
 1159TIP3    H1 3422   8.174   0.213   3.265
 1159TIP3    H2 3423   8.181   0.363   3.285
 1160TIP3   OH2 3424   2.126   6.911   1.594
 1160TIP3    H1 3425   2.034   6.892   1.573
 1160TIP3    H2 3426   2.165   6.937   1.511
 1161TIP3   OH2 3427   6.980   1.230   2.234
 1161TIP3    H1 3428   6.927   1.228   2.155
 1161TIP3    H2 3429   7.070   1.230   2.202
 1162TIP3   OH2 3430   5.488   0.515   0.471
 1162TIP3    H1 3431   5.450   0.599   0.496
 1162TIP3    H2 3432   5.545   0.492   0.545
 1163TIP3   OH2 3433   5.483   5.979   5.483
 1163TIP3    H1 3434   5.442   5.962   5.567
 1163TIP3    H2 3435   5.507   5.892   5.450
 1164TIP3   OH2 3436   4.706   7.105   0.037
 1164TIP3    H1 3437   4.716   7.186   0.088
 1164TIP3    H2 3438   4.683   7.136  -0.051
 1165TIP3   OH2 3439   1.724   2.718   4.637
 1165TIP3    H1 3440   1.777   2.798   4.643
 1165TIP3    H2 3441   1.747   2.681   4.552
 1166TIP3   OH2 3442   4.690   2.158   2.633
 1166TIP3    H1 3443   4.603   2.165   2.593
 1166TIP3    H2 3444   4.751   2.188   2.566
 1167TIP3   OH2 3445   0.310   0.853   2.403
 1167TIP3    H1 3446   0.331   0.930   2.349
 1167TIP3    H2 3447   0.214   0.849   2.401
 1168TIP3   OH2 3448   0.055   7.343   2.834
 1168TIP3    H1 3449  -0.003   7.281   2.877
 1168TIP3    H2 3450   0.058   7.314   2.743
 1169TIP3   OH2 3451   6.718   5.369   1.684
 1169TIP3    H1 3452   6.769   5.383   1.764
 1169TIP3    H2 3453   6.628   5.356   1.715
 1170TIP3   OH2 3454   3.650   2.532   5.957
 1170TIP3    H1 3455   3.616   2.595   6.020
 1170TIP3    H2 3456   3.631   2.447   5.995
 1171TIP3   OH2 3457   5.547   5.143   3.279
 1171TIP3    H1 3458   5.555   5.168   3.187
 1171TIP3    H2 3459   5.464   5.182   3.307
 1172TIP3   OH2 3460   4.816   0.346   3.254
 1172TIP3    H1 3461   4.777   0.264   3.222
 1172TIP3    H2 3462   4.870   0.320   3.328
 1173TIP3   OH2 3463   8.063   2.214   6.592
 1173TIP3    H1 3464   8.158   2.203   6.587
 1173TIP3    H2 3465   8.046   2.225   6.686
 1174TIP3   OH2 3466  -0.016   4.665   3.176
 1174TIP3    H1 3467  -0.073   4.685   3.102
 1174TIP3    H2 3468   0.069   4.646   3.137
 1175TIP3   OH2 3469   4.032   7.157   1.506
 1175TIP3    H1 3470   3.945   7.174   1.470
 1175TIP3    H2 3471   4.026   7.068   1.540
 1176TIP3   OH2 3472   6.883   5.712   0.213
 1176TIP3    H1 3473   6.948   5.754   0.156
 1176TIP3    H2 3474   6.869   5.626   0.174
 1177TIP3   OH2 3475   7.828   6.743   4.943
 1177TIP3    H1 3476   7.833   6.704   4.856
 1177TIP3    H2 3477   7.913   6.723   4.983
 1178TIP3   OH2 3478   3.272   2.884   3.513
 1178TIP3    H1 3479   3.297   2.967   3.553
 1178TIP3    H2 3480   3.220   2.839   3.581
 1179TIP3   OH2 3481   0.277   4.942   0.169
 1179TIP3    H1 3482   0.220   4.927   0.093
 1179TIP3    H2 3483   0.365   4.923   0.137
 1180TIP3   OH2 3484   7.542   5.917   1.853
 1180TIP3    H1 3485   7.611   5.901   1.917
 1180TIP3    H2 3486   7.507   5.830   1.833
 1181TIP3   OH2 3487   6.609   4.704   6.345
 1181TIP3    H1 3488   6.570   4.677   6.262
 1181TIP3    H2 3489   6.703   4.700   6.329
 1182TIP3   OH2 3490   5.464   5.081   1.916
 1182TIP3    H1 3491   5.477   5.151   1.852
 1182TIP3    H2 3492   5.489   5.121   2.000
 1183TIP3   OH2 3493   7.161   5.702   0.592
 1183TIP3    H1 3494   7.245   5.684   0.634
 1183TIP3    H2 3495   7.117   5.764   0.651
 1184TIP3   OH2 3496   2.287   5.857   2.667
 1184TIP3    H1 3497   2.358   5.821   2.614
 1184TIP3    H2 3498   2.331   5.919   2.726
 1185TIP3   OH2 3499   5.114   1.601   6.541
 1185TIP3    H1 3500   5.206   1.622   6.555
 1185TIP3    H2 3501   5.083   1.569   6.626
 1186TIP3   OH2 3502   5.417   0.904   5.327
 1186TIP3    H1 3503   5.361   0.826   5.320
 1186TIP3    H2 3504   5.505   0.868   5.343
 1187TIP3   OH2 3505   4.515   3.577   4.384
 1187TIP3    H1 3506   4.572   3.622   4.447
 1187TIP3    H2 3507   4.546   3.487   4.385
 1188TIP3   OH2 3508   3.310   2.700   2.962
 1188TIP3    H1 3509   3.323   2.665   3.051
 1188TIP3    H2 3510   3.291   2.793   2.976
 1189TIP3   OH2 3511   3.825   1.960   4.804
 1189TIP3    H1 3512   3.919   1.978   4.802
 1189TIP3    H2 3513   3.815   1.878   4.756
 1190TIP3   OH2 3514   7.067   5.436   2.261
 1190TIP3    H1 3515   7.157   5.438   2.227
 1190TIP3    H2 3516   7.070   5.487   2.342
 1191TIP3   OH2 3517   6.687   1.450   1.100
 1191TIP3    H1 3518   6.600   1.477   1.071
 1191TIP3    H2 3519   6.727   1.530   1.135
 1192TIP3   OH2 3520   4.870   4.735   4.882
 1192TIP3    H1 3521   4.810   4.771   4.817
 1192TIP3    H2 3522   4.870   4.641   4.864
 1193TIP3   OH2 3523   2.728   4.901   2.893
 1193TIP3    H1 3524   2.802   4.948   2.856
 1193TIP3    H2 3525   2.713   4.942   2.979
 1194TIP3   OH2 3526   1.732   6.551   4.050
 1194TIP3    H1 3527   1.811   6.500   4.065
 1194TIP3    H2 3528   1.745   6.631   4.101
 1195TIP3   OH2 3529   3.160   6.480   2.556
 1195TIP3    H1 3530   3.132   6.542   2.489
 1195TIP3    H2 3531   3.228   6.526   2.604
 1196TIP3   OH2 3532   1.972   0.762   3.382
 1196TIP3    H1 3533   2.052   0.728   3.342
 1196TIP3    H2 3534   1.906   0.757   3.313
 1197TIP3   OH2 3535   1.203   4.093   5.561
 1197TIP3    H1 3536   1.223   4.084   5.654
 1197TIP3    H2 3537   1.131   4.156   5.558
 1198TIP3   OH2 3538   1.952   3.986   1.901
 1198TIP3    H1 3539   1.989   3.903   1.871
 1198TIP3    H2 3540   1.954   4.042   1.824
 1199TIP3   OH2 3541   1.086   3.051   1.975
 1199TIP3    H1 3542   1.130   3.136   1.979
 1199TIP3    H2 3543   0.998   3.072   1.946
 1200TIP3   OH2 3544   0.267   0.427   3.295
 1200TIP3    H1 3545   0.227   0.372   3.228
 1200TIP3    H2 3546   0.352   0.385   3.313
 1201TIP3   OH2 3547   7.805   7.140   0.022
 1201TIP3    H1 3548   7.859   7.137  -0.057
 1201TIP3    H2 3549   7.825   7.224   0.062
 1202TIP3   OH2 3550   4.397   0.123   6.055
 1202TIP3    H1 3551   4.386   0.093   5.965
 1202TIP3    H2 3552   4.487   0.155   6.059
 1203TIP3   OH2 3553   1.190   4.203   1.678
 1203TIP3    H1 3554   1.260   4.205   1.744
 1203TIP3    H2 3555   1.223   4.144   1.610
 1204TIP3   OH2 3556   3.550   5.820   5.674
 1204TIP3    H1 3557   3.524   5.744   5.622
 1204TIP3    H2 3558   3.469   5.867   5.691
 1205TIP3   OH2 3559   1.680   5.952   4.441
 1205TIP3    H1 3560   1.692   5.866   4.482
 1205TIP3    H2 3561   1.594   5.946   4.400
 1206TIP3   OH2 3562   3.480   7.404   3.307
 1206TIP3    H1 3563   3.408   7.464   3.285
 1206TIP3    H2 3564   3.504   7.363   3.224
 1207TIP3   OH2 3565   0.988   4.988  -0.018
 1207TIP3    H1 3566   0.977   4.973   0.076
 1207TIP3    H2 3567   1.082   4.977  -0.034
 1208TIP3   OH2 3568   6.473   2.604   5.414
 1208TIP3    H1 3569   6.473   2.521   5.367
 1208TIP3    H2 3570   6.426   2.586   5.495
 1209TIP3   OH2 3571   0.687   2.092   0.264
 1209TIP3    H1 3572   0.670   2.036   0.339
 1209TIP3    H2 3573   0.692   2.181   0.300
 1210TIP3   OH2 3574   8.008   3.450   1.110
 1210TIP3    H1 3575   7.914   3.461   1.097
 1210TIP3    H2 3576   8.015   3.396   1.189
 1211TIP3   OH2 3577   3.923   4.386   1.629
 1211TIP3    H1 3578   3.917   4.408   1.722
 1211TIP3    H2 3579   3.835   4.360   1.604
 1212TIP3   OH2 3580   0.915   2.480   0.258
 1212TIP3    H1 3581   0.843   2.438   0.305
 1212TIP3    H2 3582   0.963   2.407   0.219
 1213TIP3   OH2 3583   4.566   0.603   0.804
 1213TIP3    H1 3584   4.517   0.585   0.885
 1213TIP3    H2 3585   4.555   0.523   0.752
 1214TIP3   OH2 3586   5.049   1.039   3.730
 1214TIP3    H1 3587   5.008   1.030   3.644
 1214TIP3    H2 3588   5.037   1.132   3.753
 1215TIP3   OH2 3589   6.995   3.841   1.265
 1215TIP3    H1 3590   7.049   3.819   1.341
 1215TIP3    H2 3591   7.037   3.797   1.192
 1216TIP3   OH2 3592   0.598   7.715   4.550
 1216TIP3    H1 3593   0.522   7.772   4.555
 1216TIP3    H2 3594   0.609   7.697   4.457
 1217TIP3   OH2 3595   7.536   3.017   4.307
 1217TIP3    H1 3596   7.538   2.988   4.216
 1217TIP3    H2 3597   7.621   3.061   4.320
 1218TIP3   OH2 3598   1.352   4.056   0.447
 1218TIP3    H1 3599   1.432   4.042   0.397
 1218TIP3    H2 3600   1.349   3.982   0.509
 1219TIP3   OH2 3601   1.817   5.742   2.782
 1219TIP3    H1 3602   1.902   5.768   2.747
 1219TIP3    H2 3603   1.803   5.799   2.858
 1220TIP3   OH2 3604   7.837   4.626   4.079
 1220TIP3    H1 3605   7.745   4.654   4.087
 1220TIP3    H2 3606   7.834   4.531   4.087
 1221TIP3   OH2 3607   1.126   5.757   2.216
 1221TIP3    H1 3608   1.195   5.732   2.154
 1221TIP3    H2 3609   1.138   5.852   2.227
 1222TIP3   OH2 3610   5.007   2.485   6.441
 1222TIP3    H1 3611   5.072   2.493   6.511
 1222TIP3    H2 3612   5.056   2.454   6.365
 1223TIP3   OH2 3613   3.612   5.566   2.687
 1223TIP3    H1 3614   3.545   5.499   2.700
 1223TIP3    H2 3615   3.602   5.625   2.762
 1224TIP3   OH2 3616   2.173   4.070   5.114
 1224TIP3    H1 3617   2.252   4.120   5.093
 1224TIP3    H2 3618   2.201   3.978   5.112
 1225TIP3   OH2 3619   2.525   2.647   1.977
 1225TIP3    H1 3620   2.593   2.581   1.989
 1225TIP3    H2 3621   2.454   2.601   1.932
 1226TIP3   OH2 3622   0.969   1.850   5.569
 1226TIP3    H1 3623   0.971   1.756   5.553
 1226TIP3    H2 3624   1.055   1.881   5.542
 1227TIP3   OH2 3625   3.795   5.786   2.864
 1227TIP3    H1 3626   3.811   5.703   2.910
 1227TIP3    H2 3627   3.707   5.811   2.892
 1228TIP3   OH2 3628   8.045   0.592   2.052
 1228TIP3    H1 3629   8.038   0.512   2.103
 1228TIP3    H2 3630   7.984   0.580   1.979
 1229TIP3   OH2 3631   3.378   7.245   2.667
 1229TIP3    H1 3632   3.433   7.288   2.733
 1229TIP3    H2 3633   3.375   7.154   2.695
 1230TIP3   OH2 3634   0.731   4.863   0.969
 1230TIP3    H1 3635   0.823   4.859   0.944
 1230TIP3    H2 3636   0.717   4.783   1.021
 1231TIP3   OH2 3637   1.752   7.293   2.596
 1231TIP3    H1 3638   1.753   7.297   2.691
 1231TIP3    H2 3639   1.666   7.256   2.575
 1232TIP3   OH2 3640   3.408   4.258   1.349
 1232TIP3    H1 3641   3.345   4.223   1.412
 1232TIP3    H2 3642   3.452   4.181   1.313
 1233TIP3   OH2 3643   4.731   6.348   2.474
 1233TIP3    H1 3644   4.670   6.402   2.424
 1233TIP3    H2 3645   4.676   6.283   2.517
 1234TIP3   OH2 3646   1.453   1.202   2.878
 1234TIP3    H1 3647   1.493   1.284   2.908
 1234TIP3    H2 3648   1.359   1.219   2.883
 1235TIP3   OH2 3649   5.735   7.010   0.417
 1235TIP3    H1 3650   5.812   6.953   0.424
 1235TIP3    H2 3651   5.699   7.012   0.506
 1236TIP3   OH2 3652   2.293   4.380   0.490
 1236TIP3    H1 3653   2.248   4.442   0.547
 1236TIP3    H2 3654   2.382   4.376   0.524
 1237TIP3   OH2 3655   2.458   1.088   2.863
 1237TIP3    H1 3656   2.406   1.065   2.786
 1237TIP3    H2 3657   2.548   1.067   2.838
 1238TIP3   OH2 3658   4.492   4.685   6.106
 1238TIP3    H1 3659   4.494   4.767   6.155
 1238TIP3    H2 3660   4.420   4.636   6.145
 1239TIP3   OH2 3661   7.110   2.462   4.248
 1239TIP3    H1 3662   7.074   2.374   4.261
 1239TIP3    H2 3663   7.201   2.447   4.221
 1240TIP3   OH2 3664   1.406   5.752   2.043
 1240TIP3    H1 3665   1.426   5.702   1.964
 1240TIP3    H2 3666   1.370   5.835   2.011
 1241TIP3   OH2 3667   5.799   6.164   3.371
 1241TIP3    H1 3668   5.756   6.212   3.442
 1241TIP3    H2 3669   5.854   6.099   3.415
 1242TIP3   OH2 3670   6.768   4.732   5.536
 1242TIP3    H1 3671   6.733   4.644   5.550
 1242TIP3    H2 3672   6.862   4.719   5.532
 1243TIP3   OH2 3673   7.257   0.126   1.607
 1243TIP3    H1 3674   7.270   0.151   1.515
 1243TIP3    H2 3675   7.340   0.085   1.632
 1244TIP3   OH2 3676   5.008   6.931   6.259
 1244TIP3    H1 3677   5.038   6.952   6.348
 1244TIP3    H2 3678   5.045   6.845   6.241
 1245TIP3   OH2 3679   3.061   6.458   5.791
 1245TIP3    H1 3680   3.055   6.539   5.740
 1245TIP3    H2 3681   3.155   6.443   5.803
 1246TIP3   OH2 3682   3.669   1.749   1.332
 1246TIP3    H1 3683   3.713   1.797   1.262
 1246TIP3    H2 3684   3.687   1.799   1.411
 1247TIP3   OH2 3685   7.144   1.666   5.632
 1247TIP3    H1 3686   7.222   1.713   5.601
 1247TIP3    H2 3687   7.109   1.721   5.702
 1248TIP3   OH2 3688   4.347   3.783   0.315
 1248TIP3    H1 3689   4.297   3.769   0.395
 1248TIP3    H2 3690   4.373   3.875   0.319
 1249TIP3   OH2 3691   7.253   7.107   4.131
 1249TIP3    H1 3692   7.247   7.077   4.041
 1249TIP3    H2 3693   7.330   7.061   4.166
 1250TIP3   OH2 3694   4.134   1.676   3.889
 1250TIP3    H1 3695   4.090   1.754   3.855
 1250TIP3    H2 3696   4.064   1.612   3.901
 1251TIP3   OH2 3697   2.452   0.486   1.140
 1251TIP3    H1 3698   2.415   0.400   1.156
 1251TIP3    H2 3699   2.504   0.504   1.219
 1252TIP3   OH2 3700   4.361   6.445   4.558
 1252TIP3    H1 3701   4.407   6.398   4.628
 1252TIP3    H2 3702   4.293   6.385   4.528
 1253TIP3   OH2 3703   5.438   5.495   6.302
 1253TIP3    H1 3704   5.431   5.527   6.212
 1253TIP3    H2 3705   5.347   5.475   6.327
 1254TIP3   OH2 3706   4.118   2.539   5.055
 1254TIP3    H1 3707   4.193   2.590   5.023
 1254TIP3    H2 3708   4.127   2.542   5.150
 1255TIP3   OH2 3709   7.943   6.809   0.895
 1255TIP3    H1 3710   8.017   6.826   0.954
 1255TIP3    H2 3711   7.866   6.821   0.950
 1256TIP3   OH2 3712   8.306   7.275   0.947
 1256TIP3    H1 3713   8.254   7.218   1.004
 1256TIP3    H2 3714   8.370   7.315   1.006
 1257TIP3   OH2 3715   7.650   2.241   5.764
 1257TIP3    H1 3716   7.689   2.163   5.802
 1257TIP3    H2 3717   7.575   2.260   5.819
 1258TIP3   OH2 3718   5.578   5.807   5.814
 1258TIP3    H1 3719   5.656   5.762   5.847
 1258TIP3    H2 3720   5.611   5.889   5.778
 1259TIP3   OH2 3721   2.499   0.974   1.794
 1259TIP3    H1 3722   2.581   1.018   1.772
 1259TIP3    H2 3723   2.510   0.885   1.760
 1260TIP3   OH2 3724   8.236   1.467   5.699
 1260TIP3    H1 3725   8.225   1.417   5.618
 1260TIP3    H2 3726   8.329   1.457   5.721
 1261TIP3   OH2 3727   2.319   2.832   2.833
 1261TIP3    H1 3728   2.256   2.890   2.790
 1261TIP3    H2 3729   2.390   2.890   2.860
 1262TIP3   OH2 3730   6.287   7.563   6.695
 1262TIP3    H1 3731   6.243   7.636   6.651
 1262TIP3    H2 3732   6.276   7.489   6.635
 1263TIP3   OH2 3733   4.839   4.943   3.143
 1263TIP3    H1 3734   4.865   4.959   3.234
 1263TIP3    H2 3735   4.888   5.007   3.092
 1264TIP3   OH2 3736   3.184   3.916   0.258
 1264TIP3    H1 3737   3.124   3.988   0.272
 1264TIP3    H2 3738   3.164   3.854   0.328
 1265TIP3   OH2 3739   0.127   7.573   1.114
 1265TIP3    H1 3740   0.075   7.559   1.034
 1265TIP3    H2 3741   0.178   7.493   1.123
 1266TIP3   OH2 3742   1.225   4.916   5.061
 1266TIP3    H1 3743   1.222   4.900   5.155
 1266TIP3    H2 3744   1.140   4.887   5.028
 1267TIP3   OH2 3745   3.930   2.748   0.737
 1267TIP3    H1 3746   4.007   2.723   0.786
 1267TIP3    H2 3747   3.911   2.672   0.681
 1268TIP3   OH2 3748   5.198   4.338   1.927
 1268TIP3    H1 3749   5.194   4.389   2.008
 1268TIP3    H2 3750   5.275   4.283   1.937
 1269TIP3   OH2 3751   4.169   7.004   3.479
 1269TIP3    H1 3752   4.193   6.935   3.541
 1269TIP3    H2 3753   4.085   6.976   3.443
 1270TIP3   OH2 3754   3.484   3.868   3.813
 1270TIP3    H1 3755   3.515   3.952   3.848
 1270TIP3    H2 3756   3.473   3.883   3.719
 1271TIP3   OH2 3757   4.277   2.219   5.766
 1271TIP3    H1 3758   4.256   2.300   5.719
 1271TIP3    H2 3759   4.326   2.167   5.702
 1272TIP3   OH2 3760   2.699   3.185   0.459
 1272TIP3    H1 3761   2.648   3.173   0.379
 1272TIP3    H2 3762   2.638   3.229   0.519
 1273TIP3   OH2 3763   0.135   6.150   2.909
 1273TIP3    H1 3764   0.179   6.208   2.972
 1273TIP3    H2 3765   0.121   6.205   2.832
 1274TIP3   OH2 3766   5.099   5.215   6.561
 1274TIP3    H1 3767   5.005   5.199   6.549
 1274TIP3    H2 3768   5.118   5.179   6.648
 1275TIP3   OH2 3769   2.187   4.647   3.173
 1275TIP3    H1 3770   2.267   4.657   3.224
 1275TIP3    H2 3771   2.164   4.555   3.182
 1276TIP3   OH2 3772   5.326   0.957   3.709
 1276TIP3    H1 3773   5.387   1.022   3.744
 1276TIP3    H2 3774   5.239   0.991   3.733
 1277TIP3   OH2 3775   4.973   0.898   3.219
 1277TIP3    H1 3776   4.888   0.865   3.189
 1277TIP3    H2 3777   5.012   0.938   3.141
 1278TIP3   OH2 3778   6.663   4.135   0.649
 1278TIP3    H1 3779   6.602   4.067   0.622
 1278TIP3    H2 3780   6.737   4.088   0.688
 1279TIP3   OH2 3781   6.365   4.544   2.725
 1279TIP3    H1 3782   6.423   4.501   2.663
 1279TIP3    H2 3783   6.292   4.483   2.737
 1280TIP3   OH2 3784   5.148   5.423   6.319
 1280TIP3    H1 3785   5.157   5.352   6.383
 1280TIP3    H2 3786   5.109   5.382   6.243
 1281TIP3   OH2 3787   1.084   1.285   2.063
 1281TIP3    H1 3788   1.060   1.235   1.985
 1281TIP3    H2 3789   1.154   1.343   2.034
 1282TIP3   OH2 3790   0.175   6.118   4.057
 1282TIP3    H1 3791   0.158   6.045   3.998
 1282TIP3    H2 3792   0.124   6.098   4.136
 1283TIP3   OH2 3793   8.080   7.406   1.173
 1283TIP3    H1 3794   8.089   7.312   1.156
 1283TIP3    H2 3795   8.018   7.437   1.107
 1284TIP3   OH2 3796   1.828   0.336   4.180
 1284TIP3    H1 3797   1.864   0.264   4.231
 1284TIP3    H2 3798   1.851   0.415   4.229
 1285TIP3   OH2 3799   4.852   2.892   1.780
 1285TIP3    H1 3800   4.841   2.856   1.692
 1285TIP3    H2 3801   4.859   2.815   1.837
 1286TIP3   OH2 3802   5.204   7.140   5.735
 1286TIP3    H1 3803   5.161   7.207   5.681
 1286TIP3    H2 3804   5.163   7.149   5.821
 1287TIP3   OH2 3805   5.288   4.551   4.819
 1287TIP3    H1 3806   5.358   4.487   4.835
 1287TIP3    H2 3807   5.214   4.519   4.870
 1288TIP3   OH2 3808   1.813   4.790   1.481
 1288TIP3    H1 3809   1.816   4.834   1.566
 1288TIP3    H2 3810   1.811   4.861   1.417
 1289TIP3   OH2 3811   7.839   3.698   0.469
 1289TIP3    H1 3812   7.756   3.719   0.513
 1289TIP3    H2 3813   7.875   3.783   0.444
 1290TIP3   OH2 3814   8.010   4.496   1.472
 1290TIP3    H1 3815   7.954   4.520   1.398
 1290TIP3    H2 3816   7.971   4.415   1.506
 1291TIP3   OH2 3817   7.084   0.643   4.396
 1291TIP3    H1 3818   7.091   0.618   4.488
 1291TIP3    H2 3819   7.060   0.562   4.350
 1292TIP3   OH2 3820   4.390   6.039   0.829
 1292TIP3    H1 3821   4.316   6.088   0.794
 1292TIP3    H2 3822   4.366   5.947   0.818
 1293TIP3   OH2 3823   5.352   2.616   3.444
 1293TIP3    H1 3824   5.385   2.584   3.527
 1293TIP3    H2 3825   5.288   2.549   3.417
 1294TIP3   OH2 3826   7.788   3.038   4.629
 1294TIP3    H1 3827   7.784   3.077   4.542
 1294TIP3    H2 3828   7.738   2.956   4.622
 1295TIP3   OH2 3829   7.767   0.304   4.919
 1295TIP3    H1 3830   7.763   0.248   4.996
 1295TIP3    H2 3831   7.850   0.282   4.877
 1296TIP3   OH2 3832   0.281   2.258   0.320
 1296TIP3    H1 3833   0.256   2.197   0.389
 1296TIP3    H2 3834   0.280   2.205   0.240
 1297TIP3   OH2 3835   0.443   3.132   2.236
 1297TIP3    H1 3836   0.393   3.132   2.154
 1297TIP3    H2 3837   0.382   3.168   2.301
 1298TIP3   OH2 3838   6.964   4.719   1.348
 1298TIP3    H1 3839   6.933   4.757   1.266
 1298TIP3    H2 3840   7.016   4.788   1.389
 1299TIP3   OH2 3841   6.889   2.398   4.823
 1299TIP3    H1 3842   6.934   2.367   4.902
 1299TIP3    H2 3843   6.856   2.319   4.781
 1300TIP3   OH2 3844   3.548   7.443   0.050
 1300TIP3    H1 3845   3.586   7.529   0.032
 1300TIP3    H2 3846   3.465   7.462   0.095
 1301TIP3   OH2 3847   0.927   0.854   1.693
 1301TIP3    H1 3848   0.867   0.837   1.621
 1301TIP3    H2 3849   1.005   0.802   1.672
 1302TIP3   OH2 3850   3.796   5.917   4.548
 1302TIP3    H1 3851   3.789   5.942   4.456
 1302TIP3    H2 3852   3.808   6.000   4.594
 1303TIP3   OH2 3853   0.646   0.925   1.638
 1303TIP3    H1 3854   0.651   0.864   1.565
 1303TIP3    H2 3855   0.637   1.011   1.597
 1304TIP3   OH2 3856   5.557   7.337   3.120
 1304TIP3    H1 3857   5.533   7.428   3.104
 1304TIP3    H2 3858   5.568   7.299   3.033
 1305TIP3   OH2 3859   6.761   4.339   3.550
 1305TIP3    H1 3860   6.737   4.276   3.617
 1305TIP3    H2 3861   6.749   4.425   3.592
 1306TIP3   OH2 3862   5.539   4.293   6.402
 1306TIP3    H1 3863   5.560   4.224   6.464
 1306TIP3    H2 3864   5.484   4.354   6.452
 1307TIP3   OH2 3865   7.962   4.041   4.048
 1307TIP3    H1 3866   7.869   4.061   4.050
 1307TIP3    H2 3867   7.999   4.102   3.985
 1308TIP3   OH2 3868   3.604   3.963   4.594
 1308TIP3    H1 3869   3.617   3.976   4.687
 1308TIP3    H2 3870   3.650   4.035   4.552
 1309TIP3   OH2 3871   3.715   7.424   5.949
 1309TIP3    H1 3872   3.747   7.502   5.905
 1309TIP3    H2 3873   3.641   7.394   5.895
 1310TIP3   OH2 3874   1.340   2.751   0.531
 1310TIP3    H1 3875   1.261   2.725   0.485
 1310TIP3    H2 3876   1.316   2.747   0.624
 1311TIP3   OH2 3877   0.698   7.551   1.116
 1311TIP3    H1 3878   0.630   7.519   1.057
 1311TIP3    H2 3879   0.658   7.624   1.162
 1312TIP3   OH2 3880   8.165   5.310   1.087
 1312TIP3    H1 3881   8.082   5.262   1.088
 1312TIP3    H2 3882   8.207   5.288   1.171
 1313TIP3   OH2 3883   3.657   3.510   0.157
 1313TIP3    H1 3884   3.752   3.515   0.144
 1313TIP3    H2 3885   3.621   3.538   0.073
 1314TIP3   OH2 3886   0.109   7.456   0.549
 1314TIP3    H1 3887   0.025   7.412   0.535
 1314TIP3    H2 3888   0.143   7.472   0.460
 1315TIP3   OH2 3889   2.197   6.669   1.736
 1315TIP3    H1 3890   2.193   6.751   1.689
 1315TIP3    H2 3891   2.146   6.608   1.683
 1316TIP3   OH2 3892   7.552   0.071   4.777
 1316TIP3    H1 3893   7.483   0.120   4.823
 1316TIP3    H2 3894   7.517   0.058   4.689
 1317TIP3   OH2 3895   6.515   3.959   5.016
 1317TIP3    H1 3896   6.563   3.877   5.004
 1317TIP3    H2 3897   6.545   4.015   4.945
 1318TIP3   OH2 3898   2.702   4.617   3.378
 1318TIP3    H1 3899   2.773   4.555   3.395
 1318TIP3    H2 3900   2.686   4.658   3.464
 1319TIP3   OH2 3901   5.267   5.148   4.527
 1319TIP3    H1 3902   5.210   5.099   4.587
 1319TIP3    H2 3903   5.331   5.084   4.497
 1320TIP3   OH2 3904   5.971   0.435   6.194
 1320TIP3    H1 3905   5.897   0.412   6.250
 1320TIP3    H2 3906   6.036   0.472   6.253
 1321TIP3   OH2 3907   7.729   0.702   6.236
 1321TIP3    H1 3908   7.713   0.611   6.261
 1321TIP3    H2 3909   7.736   0.749   6.318
 1322TIP3   OH2 3910   3.177   7.661   1.615
 1322TIP3    H1 3911   3.089   7.658   1.654
 1322TIP3    H2 3912   3.236   7.648   1.689
 1323TIP3   OH2 3913   0.304   3.809   5.775
 1323TIP3    H1 3914   0.295   3.903   5.787
 1323TIP3    H2 3915   0.293   3.795   5.681
 1324TIP3   OH2 3916   5.704   5.013   1.110
 1324TIP3    H1 3917   5.766   4.990   1.179
 1324TIP3    H2 3918   5.649   4.935   1.100
 1325TIP3   OH2 3919   2.188   3.684   4.546
 1325TIP3    H1 3920   2.139   3.607   4.576
 1325TIP3    H2 3921   2.194   3.673   4.451
 1326TIP3   OH2 3922   6.534   3.137   2.240
 1326TIP3    H1 3923   6.485   3.195   2.298
 1326TIP3    H2 3924   6.564   3.194   2.169
 1327TIP3   OH2 3925   6.465   4.032   6.238
 1327TIP3    H1 3926   6.375   4.050   6.210
 1327TIP3    H2 3927   6.474   3.937   6.230
 1328TIP3   OH2 3928   1.623   1.534   3.990
 1328TIP3    H1 3929   1.631   1.440   4.011
 1328TIP3    H2 3930   1.529   1.551   3.992
 1329TIP3   OH2 3931   2.978   7.749   4.393
 1329TIP3    H1 3932   3.059   7.793   4.365
 1329TIP3    H2 3933   3.008   7.670   4.438
 1330TIP3   OH2 3934   1.275   7.611   3.279
 1330TIP3    H1 3935   1.264   7.600   3.184
 1330TIP3    H2 3936   1.191   7.583   3.316
 1331TIP3   OH2 3937   7.320   0.697   3.295
 1331TIP3    H1 3938   7.341   0.674   3.205
 1331TIP3    H2 3939   7.390   0.657   3.347
 1332TIP3   OH2 3940   3.168   3.436   6.169
 1332TIP3    H1 3941   3.180   3.513   6.114
 1332TIP3    H2 3942   3.105   3.464   6.236
 1333TIP3   OH2 3943   5.137   3.913   4.305
 1333TIP3    H1 3944   5.055   3.943   4.265
 1333TIP3    H2 3945   5.143   3.960   4.387
 1334TIP3   OH2 3946   6.649   1.942   6.214
 1334TIP3    H1 3947   6.645   1.847   6.206
 1334TIP3    H2 3948   6.727   1.958   6.268
 1335TIP3   OH2 3949   2.294   4.722   2.304
 1335TIP3    H1 3950   2.375   4.770   2.322
 1335TIP3    H2 3951   2.320   4.630   2.303
 1336TIP3   OH2 3952   4.400   7.708   3.052
 1336TIP3    H1 3953   4.354   7.624   3.056
 1336TIP3    H2 3954   4.334   7.772   3.078
 1337TIP3   OH2 3955   8.279   4.759   5.993
 1337TIP3    H1 3956   8.186   4.741   5.980
 1337TIP3    H2 3957   8.323   4.678   5.969
 1338TIP3   OH2 3958   0.903   5.190   6.133
 1338TIP3    H1 3959   0.830   5.251   6.129
 1338TIP3    H2 3960   0.863   5.104   6.137
 1339TIP3   OH2 3961   4.756   1.423   0.153
 1339TIP3    H1 3962   4.735   1.463   0.238
 1339TIP3    H2 3963   4.674   1.387   0.122
 1340TIP3   OH2 3964   7.964   2.800   1.041
 1340TIP3    H1 3965   8.006   2.727   0.995
 1340TIP3    H2 3966   7.901   2.758   1.100
 1341TIP3   OH2 3967   5.285   5.497   5.175
 1341TIP3    H1 3968   5.223   5.464   5.240
 1341TIP3    H2 3969   5.270   5.444   5.097
 1342TIP3   OH2 3970   7.086   2.590   6.266
 1342TIP3    H1 3971   7.060   2.600   6.358
 1342TIP3    H2 3972   7.122   2.676   6.242
 1343TIP3   OH2 3973   7.584   5.326   1.072
 1343TIP3    H1 3974   7.497   5.363   1.057
 1343TIP3    H2 3975   7.589   5.313   1.166
 1344TIP3   OH2 3976   4.128   4.220   1.507
 1344TIP3    H1 3977   4.208   4.262   1.537
 1344TIP3    H2 3978   4.060   4.252   1.566
 1345TIP3   OH2 3979   3.384   2.626   6.248
 1345TIP3    H1 3980   3.323   2.649   6.178
 1345TIP3    H2 3981   3.412   2.537   6.226
 1346TIP3   OH2 3982   7.005   4.093   4.045
 1346TIP3    H1 3983   7.099   4.082   4.033
 1346TIP3    H2 3984   6.966   4.022   3.994
 1347TIP3   OH2 3985   3.929   0.339   0.035
 1347TIP3    H1 3986   3.834   0.330   0.029
 1347TIP3    H2 3987   3.961   0.249   0.030
 1348TIP3   OH2 3988   1.608   0.365   1.196
 1348TIP3    H1 3989   1.589   0.458   1.206
 1348TIP3    H2 3990   1.703   0.360   1.189
 1349TIP3   OH2 3991   5.531   0.440   3.689
 1349TIP3    H1 3992   5.458   0.487   3.730
 1349TIP3    H2 3993   5.542   0.362   3.743
 1350TIP3   OH2 3994   0.884   2.216   6.396
 1350TIP3    H1 3995   0.838   2.222   6.480
 1350TIP3    H2 3996   0.913   2.305   6.377
 1351TIP3   OH2 3997   7.339   2.860   1.326
 1351TIP3    H1 3998   7.282   2.874   1.402
 1351TIP3    H2 3999   7.279   2.839   1.254
 1352TIP3   OH2 4000   0.161   3.900   0.987
 1352TIP3    H1 4001   0.068   3.910   0.967
 1352TIP3    H2 4002   0.166   3.906   1.082
 1353TIP3   OH2 4003   7.449   3.215   0.401
 1353TIP3    H1 4004   7.440   3.150   0.331
 1353TIP3    H2 4005   7.364   3.215   0.445
 1354TIP3   OH2 4006   7.448   7.477   3.079
 1354TIP3    H1 4007   7.530   7.428   3.080
 1354TIP3    H2 4008   7.435   7.499   2.987
 1355TIP3   OH2 4009   1.727   0.081   1.878
 1355TIP3    H1 4010   1.693   0.170   1.875
 1355TIP3    H2 4011   1.741   0.064   1.972
 1356TIP3   OH2 4012   2.942   3.403   4.061
 1356TIP3    H1 4013   2.897   3.438   4.138
 1356TIP3    H2 4014   3.010   3.468   4.043
 1357TIP3   OH2 4015   5.304   1.682   5.778
 1357TIP3    H1 4016   5.286   1.609   5.838
 1357TIP3    H2 4017   5.236   1.746   5.797
 1358TIP3   OH2 4018   0.769   1.614   2.812
 1358TIP3    H1 4019   0.756   1.549   2.743
 1358TIP3    H2 4020   0.824   1.681   2.773
 1359TIP3   OH2 4021   4.097   3.714   5.639
 1359TIP3    H1 4022   4.186   3.679   5.634
 1359TIP3    H2 4023   4.108   3.808   5.646
 1360TIP3   OH2 4024   6.869   0.433   0.050
 1360TIP3    H1 4025   6.909   0.519   0.059
 1360TIP3    H2 4026   6.936   0.379   0.007
 1361TIP3   OH2 4027   6.682   3.201   4.472
 1361TIP3    H1 4028   6.587   3.202   4.464
 1361TIP3    H2 4029   6.705   3.108   4.476
 1362TIP3   OH2 4030   5.367   3.989   5.225
 1362TIP3    H1 4031   5.324   4.062   5.181
 1362TIP3    H2 4032   5.298   3.951   5.280
 1363TIP3   OH2 4033   0.292   6.307   3.067
 1363TIP3    H1 4034   0.375   6.356   3.071
 1363TIP3    H2 4035   0.233   6.357   3.123
 1364TIP3   OH2 4036   1.182   4.055   2.097
 1364TIP3    H1 4037   1.123   4.030   2.026
 1364TIP3    H2 4038   1.131   4.040   2.177
 1365TIP3   OH2 4039   5.383   3.281   3.731
 1365TIP3    H1 4040   5.350   3.233   3.806
 1365TIP3    H2 4041   5.363   3.226   3.655
 1366TIP3   OH2 4042   7.591   5.240   3.937
 1366TIP3    H1 4043   7.619   5.216   4.025
 1366TIP3    H2 4044   7.516   5.182   3.919
 1367TIP3   OH2 4045   0.535   0.748   1.865
 1367TIP3    H1 4046   0.589   0.800   1.806
 1367TIP3    H2 4047   0.582   0.664   1.871
 1368TIP3   OH2 4048   5.026   6.192   2.491
 1368TIP3    H1 4049   5.092   6.218   2.554
 1368TIP3    H2 4050   4.993   6.108   2.524
 1369TIP3   OH2 4051   3.357   3.714   5.835
 1369TIP3    H1 4052   3.421   3.643   5.841
 1369TIP3    H2 4053   3.398   3.779   5.779
 1370TIP3   OH2 4054   1.043   5.370   1.764
 1370TIP3    H1 4055   0.963   5.423   1.769
 1370TIP3    H2 4056   1.114   5.433   1.775
 1371TIP3   OH2 4057   1.883   2.591   0.166
 1371TIP3    H1 4058   1.927   2.621   0.086
 1371TIP3    H2 4059   1.954   2.578   0.229
 1372TIP3   OH2 4060   6.838   3.693   2.319
 1372TIP3    H1 4061   6.930   3.697   2.345
 1372TIP3    H2 4062   6.840   3.708   2.224
 1373TIP3   OH2 4063   5.731   2.926   4.683
 1373TIP3    H1 4064   5.672   2.912   4.757
 1373TIP3    H2 4065   5.706   3.010   4.647
 1374TIP3   OH2 4066   0.176   0.053   0.509
 1374TIP3    H1 4067   0.267   0.083   0.520
 1374TIP3    H2 4068   0.139   0.111   0.442
 1375TIP3   OH2 4069   0.622   6.169   0.873
 1375TIP3    H1 4070   0.571   6.100   0.915
 1375TIP3    H2 4071   0.671   6.124   0.804
 1376TIP3   OH2 4072   0.788   0.216   3.076
 1376TIP3    H1 4073   0.813   0.215   2.983
 1376TIP3    H2 4074   0.828   0.296   3.110
 1377TIP3   OH2 4075   8.172   3.119   1.500
 1377TIP3    H1 4076   8.201   3.045   1.446
 1377TIP3    H2 4077   8.086   3.092   1.532
 1378TIP3   OH2 4078   0.834   2.586   0.813
 1378TIP3    H1 4079   0.776   2.531   0.865
 1378TIP3    H2 4080   0.818   2.674   0.845
 1379TIP3   OH2 4081   4.943   6.137   3.664
 1379TIP3    H1 4082   4.866   6.083   3.682
 1379TIP3    H2 4083   5.007   6.110   3.730
 1380TIP3   OH2 4084   2.522   4.801   5.247
 1380TIP3    H1 4085   2.485   4.728   5.197
 1380TIP3    H2 4086   2.617   4.787   5.242
 1381TIP3   OH2 4087   5.097   5.509   5.407
 1381TIP3    H1 4088   5.160   5.576   5.434
 1381TIP3    H2 4089   5.012   5.552   5.413
 1382TIP3   OH2 4090   3.607   7.593   4.693
 1382TIP3    H1 4091   3.609   7.649   4.771
 1382TIP3    H2 4092   3.516   7.564   4.688
 1383TIP3   OH2 4093   3.527   7.148   1.402
 1383TIP3    H1 4094   3.469   7.219   1.376
 1383TIP3    H2 4095   3.481   7.105   1.474
 1384TIP3   OH2 4096   3.882   5.120   1.708
 1384TIP3    H1 4097   3.854   5.190   1.650
 1384TIP3    H2 4098   3.844   5.040   1.670
 1385TIP3   OH2 4099   1.424   3.740   6.572
 1385TIP3    H1 4100   1.489   3.718   6.505
 1385TIP3    H2 4101   1.473   3.737   6.655
 1386TIP3   OH2 4102   7.792   3.449   3.453
 1386TIP3    H1 4103   7.799   3.459   3.358
 1386TIP3    H2 4104   7.869   3.495   3.488
 1387TIP3   OH2 4105   5.385   6.993   1.974
 1387TIP3    H1 4106   5.446   6.922   1.994
 1387TIP3    H2 4107   5.340   7.011   2.056
 1388TIP3   OH2 4108   6.944   3.528   0.078
 1388TIP3    H1 4109   6.973   3.581   0.004
 1388TIP3    H2 4110   7.008   3.546   0.147
 1389TIP3   OH2 4111   5.915   0.911   6.417
 1389TIP3    H1 4112   5.944   0.907   6.326
 1389TIP3    H2 4113   5.937   0.825   6.453
 1390TIP3   OH2 4114   0.719   3.511   0.182
 1390TIP3    H1 4115   0.663   3.434   0.179
 1390TIP3    H2 4116   0.660   3.584   0.199
 1391TIP3   OH2 4117   3.850   6.706   1.472
 1391TIP3    H1 4118   3.876   6.655   1.395
 1391TIP3    H2 4119   3.796   6.647   1.523
 1392TIP3   OH2 4120   0.846   4.407   1.127
 1392TIP3    H1 4121   0.820   4.336   1.068
 1392TIP3    H2 4122   0.797   4.390   1.208
 1393TIP3   OH2 4123   3.875   7.225   6.027
 1393TIP3    H1 4124   3.926   7.224   5.946
 1393TIP3    H2 4125   3.816   7.299   6.018
 1394TIP3   OH2 4126   0.867   3.765   4.817
 1394TIP3    H1 4127   0.900   3.835   4.761
 1394TIP3    H2 4128   0.862   3.804   4.904
 1395TIP3   OH2 4129   1.965   3.356   4.987
 1395TIP3    H1 4130   1.987   3.307   5.066
 1395TIP3    H2 4131   1.907   3.425   5.018
 1396TIP3   OH2 4132   2.182   2.269   1.464
 1396TIP3    H1 4133   2.100   2.250   1.419
 1396TIP3    H2 4134   2.163   2.255   1.557
 1397TIP3   OH2 4135   1.944   7.224   5.775
 1397TIP3    H1 4136   1.878   7.286   5.803
 1397TIP3    H2 4137   1.913   7.139   5.807
 1398TIP3   OH2 4138   3.605   6.872   4.141
 1398TIP3    H1 4139   3.667   6.841   4.207
 1398TIP3    H2 4140   3.522   6.830   4.165
 1399TIP3   OH2 4141   6.353   5.893   5.482
 1399TIP3    H1 4142   6.298   5.969   5.465
 1399TIP3    H2 4143   6.359   5.848   5.398
 1400TIP3   OH2 4144   0.938   6.857   0.218
 1400TIP3    H1 4145   0.970   6.913   0.289
 1400TIP3    H2 4146   0.924   6.772   0.258
 1401TIP3   OH2 4147   5.940   0.549   3.587
 1401TIP3    H1 4148   5.959   0.509   3.672
 1401TIP3    H2 4149   6.024   0.548   3.540
 1402TIP3   OH2 4150   7.420   6.337   2.820
 1402TIP3    H1 4151   7.423   6.389   2.900
 1402TIP3    H2 4152   7.342   6.367   2.774
 1403TIP3   OH2 4153   1.736   1.700   0.136
 1403TIP3    H1 4154   1.697   1.724   0.220
 1403TIP3    H2 4155   1.819   1.748   0.133
 1404TIP3   OH2 4156   1.380   7.370   1.439
 1404TIP3    H1 4157   1.437   7.353   1.515
 1404TIP3    H2 4158   1.421   7.445   1.396
 1405TIP3   OH2 4159   6.286   5.913   1.848
 1405TIP3    H1 4160   6.252   6.002   1.837
 1405TIP3    H2 4161   6.376   5.925   1.878
 1406TIP3   OH2 4162   1.386   5.666   2.595
 1406TIP3    H1 4163   1.399   5.755   2.630
 1406TIP3    H2 4164   1.356   5.679   2.505
 1407TIP3   OH2 4165   8.064   2.346   4.621
 1407TIP3    H1 4166   8.158   2.338   4.603
 1407TIP3    H2 4167   8.055   2.430   4.665
 1408TIP3   OH2 4168   1.367   0.223   4.976
 1408TIP3    H1 4169   1.447   0.272   4.992
 1408TIP3    H2 4170   1.364   0.214   4.880
 1409TIP3   OH2 4171   3.110   2.124   2.729
 1409TIP3    H1 4172   3.032   2.077   2.758
 1409TIP3    H2 4173   3.145   2.070   2.658
 1410TIP3   OH2 4174   4.342   4.689   4.741
 1410TIP3    H1 4175   4.405   4.747   4.785
 1410TIP3    H2 4176   4.374   4.601   4.759
 1411TIP3   OH2 4177   6.220   0.883   4.674
 1411TIP3    H1 4178   6.212   0.790   4.696
 1411TIP3    H2 4179   6.159   0.927   4.732
 1412TIP3   OH2 4180   4.267   6.711   3.949
 1412TIP3    H1 4181   4.271   6.692   4.042
 1412TIP3    H2 4182   4.332   6.653   3.910
 1413TIP3   OH2 4183   4.824   7.553   2.525
 1413TIP3    H1 4184   4.782   7.546   2.611
 1413TIP3    H2 4185   4.770   7.615   2.476
 1414TIP3   OH2 4186   4.144   4.983   1.574
 1414TIP3    H1 4187   4.057   4.999   1.611
 1414TIP3    H2 4188   4.127   4.968   1.481
 1415TIP3   OH2 4189   0.081   1.532   6.753
 1415TIP3    H1 4190   0.081   1.477   6.674
 1415TIP3    H2 4191   0.106   1.472   6.823
 1416TIP3   OH2 4192   3.420   1.195   6.458
 1416TIP3    H1 4193   3.452   1.277   6.422
 1416TIP3    H2 4194   3.460   1.189   6.545
 1417TIP3   OH2 4195   5.573   3.659   1.497
 1417TIP3    H1 4196   5.503   3.676   1.559
 1417TIP3    H2 4197   5.652   3.651   1.551
 1418TIP3   OH2 4198   4.066   3.630   3.099
 1418TIP3    H1 4199   4.126   3.616   3.026
 1418TIP3    H2 4200   4.120   3.615   3.177
 1419TIP3   OH2 4201   7.168   5.821   5.662
 1419TIP3    H1 4202   7.215   5.877   5.723
 1419TIP3    H2 4203   7.083   5.863   5.651
 1420TIP3   OH2 4204   6.004   3.610   6.504
 1420TIP3    H1 4205   5.973   3.524   6.474
 1420TIP3    H2 4206   5.976   3.671   6.436
 1421TIP3   OH2 4207   6.160   2.034   3.176
 1421TIP3    H1 4208   6.135   1.951   3.137
 1421TIP3    H2 4209   6.098   2.048   3.247
 1422TIP3   OH2 4210   6.439   7.020   2.217
 1422TIP3    H1 4211   6.530   7.019   2.189
 1422TIP3    H2 4212   6.443   7.030   2.312
 1423TIP3   OH2 4213   2.769   5.077   2.457
 1423TIP3    H1 4214   2.843   5.022   2.484
 1423TIP3    H2 4215   2.756   5.055   2.364
 1424TIP3   OH2 4216   5.588   2.296   5.975
 1424TIP3    H1 4217   5.646   2.284   6.050
 1424TIP3    H2 4218   5.584   2.210   5.933
 1425TIP3   OH2 4219   5.323   2.847   0.736
 1425TIP3    H1 4220   5.300   2.912   0.803
 1425TIP3    H2 4221   5.365   2.776   0.784
 1426TIP3   OH2 4222   3.839   6.646   6.690
 1426TIP3    H1 4223   3.926   6.684   6.685
 1426TIP3    H2 4224   3.854   6.551   6.694
 1427TIP3   OH2 4225   2.825   3.653   3.331
 1427TIP3    H1 4226   2.758   3.676   3.396
 1427TIP3    H2 4227   2.905   3.694   3.363
 1428TIP3   OH2 4228   3.963   6.896   0.299
 1428TIP3    H1 4229   3.956   6.814   0.348
 1428TIP3    H2 4230   3.966   6.869   0.207
 1429TIP3   OH2 4231   2.986   2.090   1.891
 1429TIP3    H1 4232   2.892   2.087   1.908
 1429TIP3    H2 4233   3.013   2.178   1.919
 1430TIP3   OH2 4234   5.321   2.172   2.335
 1430TIP3    H1 4235   5.265   2.095   2.327
 1430TIP3    H2 4236   5.350   2.190   2.246
 1431TIP3   OH2 4237   1.875   5.238  -0.014
 1431TIP3    H1 4238   1.830   5.310   0.029
 1431TIP3    H2 4239   1.818   5.162   0.000
 1432TIP3   OH2 4240   4.923   2.583   0.283
 1432TIP3    H1 4241   4.975   2.550   0.356
 1432TIP3    H2 4242   4.837   2.599   0.320
 1433TIP3   OH2 4243   7.005   6.624   5.636
 1433TIP3    H1 4244   6.939   6.555   5.639
 1433TIP3    H2 4245   7.086   6.582   5.666
 1434TIP3   OH2 4246   6.788   7.654   0.460
 1434TIP3    H1 4247   6.707   7.606   0.476
 1434TIP3    H2 4248   6.761   7.745   0.452
 1435TIP3   OH2 4249   6.532   7.203   4.002
 1435TIP3    H1 4250   6.532   7.278   4.062
 1435TIP3    H2 4251   6.463   7.146   4.035
 1436TIP3   OH2 4252   7.695   3.613   4.755
 1436TIP3    H1 4253   7.657   3.688   4.800
 1436TIP3    H2 4254   7.620   3.569   4.714
 1437TIP3   OH2 4255   5.621   3.910   3.434
 1437TIP3    H1 4256   5.597   3.980   3.495
 1437TIP3    H2 4257   5.608   3.830   3.485
 1438TIP3   OH2 4258   5.638   1.832   6.297
 1438TIP3    H1 4259   5.616   1.821   6.204
 1438TIP3    H2 4260   5.660   1.743   6.326
 1439TIP3   OH2 4261   7.019   1.035   2.931
 1439TIP3    H1 4262   7.026   0.954   2.981
 1439TIP3    H2 4263   7.008   1.006   2.840
 1440TIP3   OH2 4264   2.324   2.811   5.589
 1440TIP3    H1 4265   2.370   2.820   5.672
 1440TIP3    H2 4266   2.341   2.721   5.561
 1441TIP3   OH2 4267   4.535   2.381   1.730
 1441TIP3    H1 4268   4.560   2.407   1.819
 1441TIP3    H2 4269   4.564   2.454   1.675
 1442TIP3   OH2 4270   3.095   6.032   6.413
 1442TIP3    H1 4271   3.135   6.117   6.431
 1442TIP3    H2 4272   3.129   5.974   6.481
 1443TIP3   OH2 4273   0.333   2.684   0.293
 1443TIP3    H1 4274   0.310   2.777   0.305
 1443TIP3    H2 4275   0.265   2.651   0.234
 1444TIP3   OH2 4276   6.500   1.976   1.594
 1444TIP3    H1 4277   6.453   1.950   1.673
 1444TIP3    H2 4278   6.591   1.949   1.610
 1445TIP3   OH2 4279   3.466   3.776   2.047
 1445TIP3    H1 4280   3.426   3.727   1.975
 1445TIP3    H2 4281   3.437   3.730   2.126
 1446TIP3   OH2 4282   7.741   1.511   5.185
 1446TIP3    H1 4283   7.719   1.423   5.155
 1446TIP3    H2 4284   7.697   1.569   5.124
 1447TIP3   OH2 4285   2.390   4.681   4.639
 1447TIP3    H1 4286   2.335   4.759   4.639
 1447TIP3    H2 4287   2.471   4.708   4.596
 1448TIP3   OH2 4288   8.040   1.955   2.817
 1448TIP3    H1 4289   8.134   1.959   2.801
 1448TIP3    H2 4290   8.032   1.945   2.911
 1449TIP3   OH2 4291   0.515   7.116   0.191
 1449TIP3    H1 4292   0.606   7.110   0.218
 1449TIP3    H2 4293   0.475   7.177   0.252
 1450TIP3   OH2 4294   5.221   2.415   4.223
 1450TIP3    H1 4295   5.149   2.472   4.197
 1450TIP3    H2 4296   5.283   2.474   4.267
 1451TIP3   OH2 4297   4.278   0.522   2.988
 1451TIP3    H1 4298   4.365   0.521   3.028
 1451TIP3    H2 4299   4.249   0.431   2.991
 1452TIP3   OH2 4300   0.731   4.047   6.696
 1452TIP3    H1 4301   0.771   4.089   6.620
 1452TIP3    H2 4302   0.744   4.109   6.767
 1453TIP3   OH2 4303   3.343   1.143   5.910
 1453TIP3    H1 4304   3.297   1.097   5.840
 1453TIP3    H2 4305   3.384   1.218   5.868
 1454TIP3   OH2 4306   5.445   7.798   4.832
 1454TIP3    H1 4307   5.421   7.823   4.743
 1454TIP3    H2 4308   5.540   7.806   4.835
 1455TIP3   OH2 4309   0.849   3.166   1.945
 1455TIP3    H1 4310   0.834   3.232   1.878
 1455TIP3    H2 4311   0.780   3.182   2.010
 1456TIP3   OH2 4312   3.403   3.351   2.889
 1456TIP3    H1 4313   3.343   3.338   2.962
 1456TIP3    H2 4314   3.406   3.267   2.845
 1457TIP3   OH2 4315   8.005   3.250   3.533
 1457TIP3    H1 4316   8.091   3.289   3.552
 1457TIP3    H2 4317   7.991   3.269   3.440
 1458TIP3   OH2 4318   2.904   7.698   2.584
 1458TIP3    H1 4319   2.917   7.603   2.586
 1458TIP3    H2 4320   2.875   7.716   2.494
 1459TIP3   OH2 4321   6.132   7.688   5.836
 1459TIP3    H1 4322   6.062   7.647   5.785
 1459TIP3    H2 4323   6.090   7.714   5.918
 1460TIP3   OH2 4324   3.701   2.080   2.827
 1460TIP3    H1 4325   3.624   2.107   2.778
 1460TIP3    H2 4326   3.756   2.035   2.763
 1461TIP3   OH2 4327   8.269   2.583   2.613
 1461TIP3    H1 4328   8.336   2.519   2.591
 1461TIP3    H2 4329   8.246   2.563   2.704
 1462TIP3   OH2 4330   1.239   3.185   6.108
 1462TIP3    H1 4331   1.221   3.275   6.136
 1462TIP3    H2 4332   1.270   3.141   6.187
 1463TIP3   OH2 4333   3.926   0.210   4.786
 1463TIP3    H1 4334   4.015   0.191   4.817
 1463TIP3    H2 4335   3.913   0.303   4.805
 1464TIP3   OH2 4336   3.829   4.356   0.564
 1464TIP3    H1 4337   3.768   4.316   0.625
 1464TIP3    H2 4338   3.779   4.428   0.525
 1465TIP3   OH2 4339   4.396   4.419   0.253
 1465TIP3    H1 4340   4.403   4.463   0.169
 1465TIP3    H2 4341   4.469   4.453   0.305
 1466TIP3   OH2 4342   3.553   2.933   0.344
 1466TIP3    H1 4343   3.600   3.017   0.343
 1466TIP3    H2 4344   3.614   2.873   0.387
 1467TIP3   OH2 4345   0.480   1.208   0.325
 1467TIP3    H1 4346   0.505   1.183   0.413
 1467TIP3    H2 4347   0.550   1.173   0.269
 1468TIP3   OH2 4348   0.507   4.025   6.348
 1468TIP3    H1 4349   0.500   4.053   6.440
 1468TIP3    H2 4350   0.493   3.931   6.351
 1469TIP3   OH2 4351   3.272   6.263   4.117
 1469TIP3    H1 4352   3.201   6.324   4.094
 1469TIP3    H2 4353   3.296   6.286   4.206
 1470TIP3   OH2 4354   4.248   5.414   4.735
 1470TIP3    H1 4355   4.299   5.495   4.731
 1470TIP3    H2 4356   4.223   5.398   4.644
 1471TIP3   OH2 4357   0.026   2.365   1.175
 1471TIP3    H1 4358  -0.044   2.301   1.163
 1471TIP3    H2 4359  -0.019   2.447   1.194
 1472TIP3   OH2 4360   5.080   1.228   3.158
 1472TIP3    H1 4361   4.997   1.216   3.112
 1472TIP3    H2 4362   5.137   1.272   3.095
 1473TIP3   OH2 4363   3.478   2.656   3.610
 1473TIP3    H1 4364   3.410   2.673   3.676
 1473TIP3    H2 4365   3.523   2.740   3.600
 1474TIP3   OH2 4366   2.336   1.199   0.109
 1474TIP3    H1 4367   2.305   1.109   0.119
 1474TIP3    H2 4368   2.318   1.240   0.193
 1475TIP3   OH2 4369   0.233   1.529   2.804
 1475TIP3    H1 4370   0.149   1.545   2.848
 1475TIP3    H2 4371   0.242   1.433   2.805
 1476TIP3   OH2 4372   5.235   2.722   5.792
 1476TIP3    H1 4373   5.242   2.637   5.835
 1476TIP3    H2 4374   5.192   2.704   5.709
 1477TIP3   OH2 4375   0.650   3.637   0.742
 1477TIP3    H1 4376   0.569   3.611   0.787
 1477TIP3    H2 4377   0.632   3.621   0.649
 1478TIP3   OH2 4378   4.531   6.432   0.240
 1478TIP3    H1 4379   4.482   6.474   0.311
 1478TIP3    H2 4380   4.485   6.349   0.225
 1479TIP3   OH2 4381   0.888   1.469   2.216
 1479TIP3    H1 4382   0.980   1.487   2.197
 1479TIP3    H2 4383   0.889   1.387   2.266
 1480TIP3   OH2 4384   6.078   3.621   3.757
 1480TIP3    H1 4385   5.992   3.664   3.755
 1480TIP3    H2 4386   6.068   3.549   3.818
 1481TIP3   OH2 4387   4.811   4.374   6.228
 1481TIP3    H1 4388   4.842   4.321   6.302
 1481TIP3    H2 4389   4.744   4.320   6.186
 1482TIP3   OH2 4390   4.011   7.388   2.094
 1482TIP3    H1 4391   3.955   7.460   2.064
 1482TIP3    H2 4392   3.953   7.334   2.148
 1483TIP3   OH2 4393   4.773   7.181   3.905
 1483TIP3    H1 4394   4.695   7.139   3.941
 1483TIP3    H2 4395   4.765   7.169   3.811
 1484TIP3   OH2 4396   0.441   3.928   4.053
 1484TIP3    H1 4397   0.406   3.955   3.968
 1484TIP3    H2 4398   0.507   3.994   4.074
 1485TIP3   OH2 4399   5.977   6.105   2.799
 1485TIP3    H1 4400   5.908   6.155   2.757
 1485TIP3    H2 4401   6.026   6.168   2.850
 1486TIP3   OH2 4402   1.437   2.362   5.662
 1486TIP3    H1 4403   1.506   2.361   5.596
 1486TIP3    H2 4404   1.474   2.312   5.735
 1487TIP3   OH2 4405   1.003   7.561   0.338
 1487TIP3    H1 4406   1.019   7.572   0.432
 1487TIP3    H2 4407   1.020   7.647   0.300
 1488TIP3   OH2 4408   6.068   2.491   5.830
 1488TIP3    H1 4409   6.117   2.467   5.751
 1488TIP3    H2 4410   6.111   2.571   5.861
 1489TIP3   OH2 4411   5.994   4.802   1.160
 1489TIP3    H1 4412   5.942   4.843   1.230
 1489TIP3    H2 4413   6.082   4.796   1.196
 1490TIP3   OH2 4414   5.628   2.056   4.971
 1490TIP3    H1 4415   5.594   2.048   4.882
 1490TIP3    H2 4416   5.577   2.127   5.010
 1491TIP3   OH2 4417   5.818   0.992   4.873
 1491TIP3    H1 4418   5.825   1.084   4.845
 1491TIP3    H2 4419   5.758   0.994   4.947
 1492TIP3   OH2 4420   0.665   4.617   1.060
 1492TIP3    H1 4421   0.633   4.623   1.150
 1492TIP3    H2 4422   0.742   4.560   1.066
 1493TIP3   OH2 4423   3.434   0.115   2.935
 1493TIP3    H1 4424   3.436   0.199   2.887
 1493TIP3    H2 4425   3.341   0.093   2.940
 1494TIP3   OH2 4426   6.623   0.759   0.815
 1494TIP3    H1 4427   6.633   0.681   0.761
 1494TIP3    H2 4428   6.671   0.827   0.768
 1495TIP3   OH2 4429   8.221   1.776   6.194
 1495TIP3    H1 4430   8.292   1.721   6.227
 1495TIP3    H2 4431   8.231   1.775   6.099
 1496TIP3   OH2 4432   6.921   2.024   3.060
 1496TIP3    H1 4433   6.979   1.975   3.118
 1496TIP3    H2 4434   6.897   1.962   2.992
 1497TIP3   OH2 4435   0.576   1.334   3.499
 1497TIP3    H1 4436   0.538   1.310   3.414
 1497TIP3    H2 4437   0.667   1.357   3.478
 1498TIP3   OH2 4438   4.760   4.609   1.006
 1498TIP3    H1 4439   4.848   4.572   0.997
 1498TIP3    H2 4440   4.765   4.693   0.960
 1499TIP3   OH2 4441   2.451   3.110   3.087
 1499TIP3    H1 4442   2.485   3.021   3.076
 1499TIP3    H2 4443   2.503   3.146   3.159
 1500TIP3   OH2 4444   3.396   3.354   0.226
 1500TIP3    H1 4445   3.478   3.404   0.229
 1500TIP3    H2 4446   3.402   3.295   0.301
 1501TIP3   OH2 4447   7.174   3.037   5.575
 1501TIP3    H1 4448   7.136   3.057   5.489
 1501TIP3    H2 4449   7.168   2.941   5.583
 1502TIP3   OH2 4450   7.937   1.627   4.408
 1502TIP3    H1 4451   7.974   1.712   4.431
 1502TIP3    H2 4452   7.979   1.604   4.325
 1503TIP3   OH2 4453   6.840   0.095   6.553
 1503TIP3    H1 4454   6.753   0.103   6.514
 1503TIP3    H2 4455   6.838   0.153   6.629
 1504TIP3   OH2 4456   1.945   4.929   5.178
 1504TIP3    H1 4457   1.870   4.871   5.165
 1504TIP3    H2 4458   1.907   5.016   5.185
 1505TIP3   OH2 4459   0.384   1.994   5.298
 1505TIP3    H1 4460   0.300   2.032   5.272
 1505TIP3    H2 4461   0.397   1.920   5.238
 1506TIP3   OH2 4462   2.979   4.451   0.201
 1506TIP3    H1 4463   2.991   4.430   0.108
 1506TIP3    H2 4464   3.015   4.539   0.211
 1507TIP3   OH2 4465   1.042   0.206   5.738
 1507TIP3    H1 4466   1.095   0.226   5.815
 1507TIP3    H2 4467   0.962   0.166   5.773
 1508TIP3   OH2 4468   7.457   5.010   1.248
 1508TIP3    H1 4469   7.545   5.017   1.286
 1508TIP3    H2 4470   7.399   5.052   1.312
 1509TIP3   OH2 4471   6.308   2.889   0.080
 1509TIP3    H1 4472   6.238   2.861   0.021
 1509TIP3    H2 4473   6.310   2.984   0.071
 1510TIP3   OH2 4474   0.458   3.641   1.730
 1510TIP3    H1 4475   0.427   3.696   1.802
 1510TIP3    H2 4476   0.403   3.563   1.734
 1511TIP3   OH2 4477   2.982   0.465   1.404
 1511TIP3    H1 4478   3.065   0.420   1.387
 1511TIP3    H2 4479   3.001   0.520   1.480
 1512TIP3   OH2 4480   4.026   3.245   0.056
 1512TIP3    H1 4481   4.002   3.336   0.038
 1512TIP3    H2 4482   4.107   3.251   0.106
 1513TIP3   OH2 4483   7.056   2.106   1.523
 1513TIP3    H1 4484   7.005   2.132   1.446
 1513TIP3    H2 4485   7.131   2.166   1.523
 1514TIP3   OH2 4486   2.361   0.072   0.261
 1514TIP3    H1 4487   2.313  -0.006   0.232
 1514TIP3    H2 4488   2.418   0.041   0.331
 1515TIP3   OH2 4489   0.276   4.446   1.339
 1515TIP3    H1 4490   0.327   4.408   1.267
 1515TIP3    H2 4491   0.308   4.536   1.347
 1516TIP3   OH2 4492   0.876   1.623   5.811
 1516TIP3    H1 4493   0.862   1.584   5.725
 1516TIP3    H2 4494   0.800   1.680   5.824
 1517TIP3   OH2 4495   6.297   0.092   3.746
 1517TIP3    H1 4496   6.313   0.015   3.691
 1517TIP3    H2 4497   6.350   0.076   3.825
 1518TIP3   OH2 4498   1.407   7.491   5.134
 1518TIP3    H1 4499   1.447   7.559   5.080
 1518TIP3    H2 4500   1.482   7.442   5.170
 1519TIP3   OH2 4501   2.183   3.579   1.728
 1519TIP3    H1 4502   2.140   3.522   1.664
 1519TIP3    H2 4503   2.198   3.522   1.804
 1520TIP3   OH2 4504   2.271   3.177   4.787
 1520TIP3    H1 4505   2.351   3.131   4.760
 1520TIP3    H2 4506   2.288   3.269   4.767
 1521TIP3   OH2 4507   0.589   1.676   5.716
 1521TIP3    H1 4508   0.541   1.740   5.664
 1521TIP3    H2 4509   0.555   1.591   5.688
 1522TIP3   OH2 4510   0.372   6.688   0.769
 1522TIP3    H1 4511   0.277   6.701   0.773
 1522TIP3    H2 4512   0.395   6.712   0.679
 1523TIP3   OH2 4513   3.979   6.550   4.434
 1523TIP3    H1 4514   4.031   6.477   4.400
 1523TIP3    H2 4515   3.906   6.558   4.372
 1524TIP3   OH2 4516   4.679   3.286   6.357
 1524TIP3    H1 4517   4.770   3.275   6.387
 1524TIP3    H2 4518   4.640   3.345   6.421
 1525TIP3   OH2 4519   6.119   2.852   2.660
 1525TIP3    H1 4520   6.170   2.815   2.587
 1525TIP3    H2 4521   6.068   2.921   2.620
 1526TIP3   OH2 4522   4.061   1.503   0.127
 1526TIP3    H1 4523   4.007   1.518   0.205
 1526TIP3    H2 4524   4.039   1.576   0.069
 1527TIP3   OH2 4525   1.088   4.515   5.165
 1527TIP3    H1 4526   1.064   4.542   5.076
 1527TIP3    H2 4527   1.176   4.478   5.155
 1528TIP3   OH2 4528   0.870   1.992   5.792
 1528TIP3    H1 4529   0.871   1.956   5.703
 1528TIP3    H2 4530   0.958   1.974   5.826
 1529TIP3   OH2 4531   5.974   0.395   5.175
 1529TIP3    H1 4532   5.899   0.369   5.121
 1529TIP3    H2 4533   5.939   0.460   5.235
 1530TIP3   OH2 4534   1.926   3.641   0.157
 1530TIP3    H1 4535   2.022   3.636   0.159
 1530TIP3    H2 4536   1.906   3.678   0.071
 1531TIP3   OH2 4537   6.147   1.176   2.368
 1531TIP3    H1 4538   6.117   1.153   2.456
 1531TIP3    H2 4539   6.241   1.192   2.379
 1532TIP3   OH2 4540   3.713   0.548   0.318
 1532TIP3    H1 4541   3.739   0.588   0.402
 1532TIP3    H2 4542   3.730   0.616   0.253
 1533TIP3   OH2 4543   4.081   2.960   5.463
 1533TIP3    H1 4544   4.127   2.891   5.415
 1533TIP3    H2 4545   4.027   2.913   5.527
 1534TIP3   OH2 4546   4.539   6.713   5.350
 1534TIP3    H1 4547   4.482   6.653   5.302
 1534TIP3    H2 4548   4.485   6.791   5.364
 1535TIP3   OH2 4549   4.065   1.683   2.073
 1535TIP3    H1 4550   4.069   1.646   1.985
 1535TIP3    H2 4551   4.135   1.747   2.076
 1536TIP3   OH2 4552   1.963   4.448   4.976
 1536TIP3    H1 4553   2.015   4.408   4.907
 1536TIP3    H2 4554   1.990   4.402   5.056
 1537TIP3   OH2 4555   4.267   5.675   2.616
 1537TIP3    H1 4556   4.259   5.678   2.520
 1537TIP3    H2 4557   4.177   5.681   2.648
 1538TIP3   OH2 4558   2.801   6.840   3.767
 1538TIP3    H1 4559   2.724   6.784   3.755
 1538TIP3    H2 4560   2.784   6.916   3.712
 1539TIP3   OH2 4561   3.256   5.927   6.622
 1539TIP3    H1 4562   3.259   5.912   6.717
 1539TIP3    H2 4563   3.329   5.987   6.605
 1540TIP3   OH2 4564   7.214   1.709   5.957
 1540TIP3    H1 4565   7.185   1.731   6.045
 1540TIP3    H2 4566   7.139   1.665   5.918
 1541TIP3   OH2 4567   0.436   4.080   2.046
 1541TIP3    H1 4568   0.466   4.015   2.110
 1541TIP3    H2 4569   0.495   4.154   2.057
 1542TIP3   OH2 4570   6.543   6.586   3.010
 1542TIP3    H1 4571   6.491   6.512   2.979
 1542TIP3    H2 4572   6.530   6.587   3.104
 1543TIP3   OH2 4573   4.621   6.034   1.257
 1543TIP3    H1 4574   4.659   6.098   1.197
 1543TIP3    H2 4575   4.533   6.067   1.275
 1544TIP3   OH2 4576   7.400   2.816   6.687
 1544TIP3    H1 4577   7.485   2.839   6.725
 1544TIP3    H2 4578   7.352   2.898   6.683
 1545TIP3   OH2 4579   1.160   4.500   1.768
 1545TIP3    H1 4580   1.106   4.435   1.722
 1545TIP3    H2 4581   1.108   4.580   1.766
 1546TIP3   OH2 4582   5.056   1.054   0.381
 1546TIP3    H1 4583   5.123   1.115   0.413
 1546TIP3    H2 4584   5.014   1.100   0.309
 1547TIP3   OH2 4585   7.501   5.580   0.949
 1547TIP3    H1 4586   7.511   5.609   0.858
 1547TIP3    H2 4587   7.442   5.505   0.944
 1548TIP3   OH2 4588   0.710   1.144   6.214
 1548TIP3    H1 4589   0.699   1.091   6.135
 1548TIP3    H2 4590   0.682   1.087   6.286
 1549TIP3   OH2 4591   7.556   5.885   1.347
 1549TIP3    H1 4592   7.606   5.953   1.302
 1549TIP3    H2 4593   7.577   5.898   1.440
 1550TIP3   OH2 4594   3.278   7.683   0.159
 1550TIP3    H1 4595   3.297   7.601   0.204
 1550TIP3    H2 4596   3.309   7.669   0.070
 1551TIP3   OH2 4597   2.296   6.661   3.626
 1551TIP3    H1 4598   2.236   6.599   3.583
 1551TIP3    H2 4599   2.250   6.745   3.624
 1552TIP3   OH2 4600   8.110   3.551   5.397
 1552TIP3    H1 4601   8.142   3.636   5.428
 1552TIP3    H2 4602   8.175   3.524   5.332
 1553TIP3   OH2 4603   0.605   1.824   2.234
 1553TIP3    H1 4604   0.687   1.861   2.267
 1553TIP3    H2 4605   0.623   1.804   2.142
 1554TIP3   OH2 4606   4.586   2.856   5.602
 1554TIP3    H1 4607   4.631   2.779   5.636
 1554TIP3    H2 4608   4.602   2.924   5.667
 1555TIP3   OH2 4609   1.627   0.640   3.835
 1555TIP3    H1 4610   1.576   0.701   3.781
 1555TIP3    H2 4611   1.612   0.554   3.795
 1556TIP3   OH2 4612   7.398   2.985   1.647
 1556TIP3    H1 4613   7.439   3.061   1.606
 1556TIP3    H2 4614   7.318   2.971   1.596
 1557TIP3   OH2 4615   6.304   3.829   3.497
 1557TIP3    H1 4616   6.284   3.808   3.589
 1557TIP3    H2 4617   6.390   3.871   3.501
 1558TIP3   OH2 4618   5.393   6.741   2.529
 1558TIP3    H1 4619   5.426   6.822   2.568
 1558TIP3    H2 4620   5.302   6.762   2.506
 1559TIP3   OH2 4621   0.153   4.533   4.016
 1559TIP3    H1 4622   0.088   4.487   4.070
 1559TIP3    H2 4623   0.164   4.477   3.940
 1560TIP3   OH2 4624   6.107   7.472   3.777
 1560TIP3    H1 4625   6.162   7.393   3.778
 1560TIP3    H2 4626   6.018   7.439   3.765
 1561TIP3   OH2 4627   1.446   0.523   2.715
 1561TIP3    H1 4628   1.457   0.531   2.620
 1561TIP3    H2 4629   1.533   0.502   2.748
 1562TIP3   OH2 4630   7.358   1.394   3.009
 1562TIP3    H1 4631   7.314   1.309   3.014
 1562TIP3    H2 4632   7.303   1.452   3.062
 1563TIP3   OH2 4633   3.143   5.112   0.703
 1563TIP3    H1 4634   3.105   5.103   0.615
 1563TIP3    H2 4635   3.201   5.036   0.711
 1564TIP3   OH2 4636   3.557   5.177   2.541
 1564TIP3    H1 4637   3.545   5.257   2.592
 1564TIP3    H2 4638   3.484   5.121   2.568
 1565TIP3   OH2 4639   6.986   1.251   6.315
 1565TIP3    H1 4640   6.983   1.221   6.406
 1565TIP3    H2 4641   7.038   1.331   6.317
 1566TIP3   OH2 4642   5.640   7.733   4.077
 1566TIP3    H1 4643   5.725   7.775   4.067
 1566TIP3    H2 4644   5.632   7.719   4.172
 1567TIP3   OH2 4645   4.757   6.110   5.404
 1567TIP3    H1 4646   4.798   6.072   5.482
 1567TIP3    H2 4647   4.828   6.117   5.340
 1568TIP3   OH2 4648   7.954   7.041   2.178
 1568TIP3    H1 4649   8.038   7.086   2.184
 1568TIP3    H2 4650   7.960   6.987   2.099
 1569TIP3   OH2 4651   6.768   1.707   4.162
 1569TIP3    H1 4652   6.686   1.676   4.124
 1569TIP3    H2 4653   6.773   1.662   4.246
 1570TIP3   OH2 4654   6.418   6.951   5.620
 1570TIP3    H1 4655   6.324   6.939   5.608
 1570TIP3    H2 4656   6.429   7.045   5.636
 1571TIP3   OH2 4657   0.607   1.765   1.953
 1571TIP3    H1 4658   0.650   1.848   1.931
 1571TIP3    H2 4659   0.625   1.709   1.878
 1572TIP3   OH2 4660   2.319   1.462   2.938
 1572TIP3    H1 4661   2.300   1.391   2.876
 1572TIP3    H2 4662   2.279   1.539   2.899
 1573TIP3   OH2 4663   4.724   0.530   2.586
 1573TIP3    H1 4664   4.775   0.557   2.662
 1573TIP3    H2 4665   4.636   0.565   2.602
 1574TIP3   OH2 4666   3.749   7.051   2.839
 1574TIP3    H1 4667   3.712   6.981   2.785
 1574TIP3    H2 4668   3.735   7.130   2.787
 1575TIP3   OH2 4669   2.582   4.773   0.090
 1575TIP3    H1 4670   2.569   4.868   0.084
 1575TIP3    H2 4671   2.667   4.757   0.049
 1576TIP3   OH2 4672   0.328   7.710   1.554
 1576TIP3    H1 4673   0.384   7.659   1.613
 1576TIP3    H2 4674   0.377   7.791   1.539
 1577TIP3   OH2 4675   0.274   2.693   5.353
 1577TIP3    H1 4676   0.236   2.607   5.339
 1577TIP3    H2 4677   0.318   2.687   5.437
 1578TIP3   OH2 4678   2.607   2.137   2.266
 1578TIP3    H1 4679   2.660   2.197   2.319
 1578TIP3    H2 4680   2.570   2.075   2.330
 1579TIP3   OH2 4681   1.733   5.021   0.113
 1579TIP3    H1 4682   1.647   5.000   0.147
 1579TIP3    H2 4683   1.789   5.029   0.190
 1580TIP3   OH2 4684   0.850   4.066   2.702
 1580TIP3    H1 4685   0.823   4.098   2.615
 1580TIP3    H2 4686   0.776   4.013   2.732
 1581TIP3   OH2 4687   0.858   7.741   4.622
 1581TIP3    H1 4688   0.869   7.836   4.623
 1581TIP3    H2 4689   0.763   7.729   4.620
 1582TIP3   OH2 4690   2.177   1.813   1.707
 1582TIP3    H1 4691   2.219   1.870   1.643
 1582TIP3    H2 4692   2.158   1.870   1.781
 1583TIP3   OH2 4693   6.048   5.862   3.150
 1583TIP3    H1 4694   6.105   5.803   3.103
 1583TIP3    H2 4695   6.062   5.948   3.109
 1584TIP3   OH2 4696   6.261   2.332   5.058
 1584TIP3    H1 4697   6.316   2.305   5.132
 1584TIP3    H2 4698   6.238   2.250   5.014
 1585TIP3   OH2 4699   3.932   6.245   5.960
 1585TIP3    H1 4700   3.966   6.176   6.016
 1585TIP3    H2 4701   3.875   6.200   5.897
 1586TIP3   OH2 4702   3.314   0.679   0.860
 1586TIP3    H1 4703   3.232   0.654   0.901
 1586TIP3    H2 4704   3.322   0.773   0.875
 1587TIP3   OH2 4705   5.047   2.798   6.783
 1587TIP3    H1 4706   5.141   2.787   6.767
 1587TIP3    H2 4707   5.011   2.825   6.699
 1588TIP3   OH2 4708   7.666   1.745   0.692
 1588TIP3    H1 4709   7.672   1.680   0.762
 1588TIP3    H2 4710   7.598   1.806   0.722
 1589TIP3   OH2 4711   6.467   1.582   4.494
 1589TIP3    H1 4712   6.410   1.521   4.446
 1589TIP3    H2 4713   6.477   1.542   4.580
 1590TIP3   OH2 4714   6.531   4.914   1.901
 1590TIP3    H1 4715   6.469   4.848   1.871
 1590TIP3    H2 4716   6.617   4.878   1.877
 1591TIP3   OH2 4717   2.825   7.321   3.071
 1591TIP3    H1 4718   2.734   7.328   3.044
 1591TIP3    H2 4719   2.822   7.325   3.167
 1592TIP3   OH2 4720   5.373   6.715   6.565
 1592TIP3    H1 4721   5.298   6.700   6.507
 1592TIP3    H2 4722   5.397   6.628   6.596
 1593TIP3   OH2 4723   7.168   6.433   4.929
 1593TIP3    H1 4724   7.247   6.380   4.918
 1593TIP3    H2 4725   7.146   6.424   5.022
 1594TIP3   OH2 4726   6.484   1.465   3.840
 1594TIP3    H1 4727   6.486   1.377   3.878
 1594TIP3    H2 4728   6.401   1.468   3.792
 1595TIP3   OH2 4729   7.579   2.705   1.300
 1595TIP3    H1 4730   7.487   2.729   1.290
 1595TIP3    H2 4731   7.612   2.766   1.367
 1596TIP3   OH2 4732   3.380   1.985   6.643
 1596TIP3    H1 4733   3.431   2.066   6.646
 1596TIP3    H2 4734   3.292   2.011   6.670
 1597TIP3   OH2 4735   4.003   5.375   3.344
 1597TIP3    H1 4736   4.085   5.368   3.294
 1597TIP3    H2 4737   3.990   5.469   3.356
 1598TIP3   OH2 4738   6.409   6.486   2.001
 1598TIP3    H1 4739   6.478   6.432   2.040
 1598TIP3    H2 4740   6.393   6.447   1.915
 1599TIP3   OH2 4741   1.485   5.378   4.178
 1599TIP3    H1 4742   1.429   5.364   4.254
 1599TIP3    H2 4743   1.492   5.473   4.170
 1600TIP3   OH2 4744   7.438   1.060   0.677
 1600TIP3    H1 4745   7.515   1.115   0.664
 1600TIP3    H2 4746   7.465   0.995   0.741
 1601TIP3   OH2 4747   7.436   2.039   0.390
 1601TIP3    H1 4748   7.489   1.966   0.359
 1601TIP3    H2 4749   7.373   2.000   0.450
 1602TIP3   OH2 4750   7.017   1.454   3.305
 1602TIP3    H1 4751   7.011   1.485   3.395
 1602TIP3    H2 4752   6.941   1.492   3.261
 1603TIP3   OH2 4753   0.011   2.238   4.095
 1603TIP3    H1 4754   0.039   2.159   4.049
 1603TIP3    H2 4755   0.022   2.308   4.030
 1604TIP3   OH2 4756   7.118   5.390   1.445
 1604TIP3    H1 4757   7.037   5.393   1.497
 1604TIP3    H2 4758   7.153   5.302   1.460
 1605TIP3   OH2 4759   3.917   1.221   1.761
 1605TIP3    H1 4760   4.009   1.194   1.756
 1605TIP3    H2 4761   3.902   1.239   1.854
 1606TIP3   OH2 4762   0.152   0.609   6.472
 1606TIP3    H1 4763   0.169   0.664   6.396
 1606TIP3    H2 4764   0.117   0.527   6.436
 1607TIP3   OH2 4765   2.214   0.267   2.962
 1607TIP3    H1 4766   2.170   0.352   2.960
 1607TIP3    H2 4767   2.144   0.204   2.980
 1608TIP3   OH2 4768   4.332   1.972   2.773
 1608TIP3    H1 4769   4.355   2.008   2.687
 1608TIP3    H2 4770   4.320   2.049   2.829
 1609TIP3   OH2 4771   3.430   2.084   5.509
 1609TIP3    H1 4772   3.447   2.023   5.437
 1609TIP3    H2 4773   3.489   2.159   5.492
 1610TIP3   OH2 4774   0.088   1.851   2.209
 1610TIP3    H1 4775  -0.002   1.820   2.207
 1610TIP3    H2 4776   0.101   1.895   2.125
 1611TIP3   OH2 4777   1.557   4.730   1.337
 1611TIP3    H1 4778   1.652   4.736   1.343
 1611TIP3    H2 4779   1.525   4.804   1.388
 1612TIP3   OH2 4780   6.694   1.225   2.457
 1612TIP3    H1 4781   6.747   1.230   2.536
 1612TIP3    H2 4782   6.748   1.177   2.394
 1613TIP3   OH2 4783   6.664   7.413   2.291
 1613TIP3    H1 4784   6.614   7.377   2.219
 1613TIP3    H2 4785   6.731   7.468   2.249
 1614TIP3   OH2 4786   3.085   6.083   2.300
 1614TIP3    H1 4787   3.017   6.023   2.268
 1614TIP3    H2 4788   3.153   6.079   2.233
 1615TIP3   OH2 4789   3.999   7.654   6.243
 1615TIP3    H1 4790   4.019   7.574   6.193
 1615TIP3    H2 4791   3.937   7.625   6.310
 1616TIP3   OH2 4792   4.388   5.788   5.216
 1616TIP3    H1 4793   4.413   5.826   5.301
 1616TIP3    H2 4794   4.470   5.754   5.180
 1617TIP3   OH2 4795   0.034   6.026   1.793
 1617TIP3    H1 4796   0.030   6.107   1.844
 1617TIP3    H2 4797   0.062   5.960   1.857
 1618TIP3   OH2 4798   4.476   0.731   3.952
 1618TIP3    H1 4799   4.518   0.646   3.940
 1618TIP3    H2 4800   4.417   0.718   4.027
 1619TIP3   OH2 4801   5.741   4.472   1.507
 1619TIP3    H1 4802   5.789   4.471   1.424
 1619TIP3    H2 4803   5.785   4.405   1.560
 1620TIP3   OH2 4804   3.493   1.587   0.895
 1620TIP3    H1 4805   3.460   1.517   0.840
 1620TIP3    H2 4806   3.571   1.619   0.851
 1621TIP3   OH2 4807   6.704   4.843   2.401
 1621TIP3    H1 4808   6.664   4.756   2.395
 1621TIP3    H2 4809   6.646   4.899   2.350
 1622TIP3   OH2 4810   1.292   5.193   0.518
 1622TIP3    H1 4811   1.382   5.222   0.535
 1622TIP3    H2 4812   1.239   5.239   0.584
 1623TIP3   OH2 4813   7.073   7.119   1.470
 1623TIP3    H1 4814   7.140   7.123   1.539
 1623TIP3    H2 4815   6.990   7.114   1.518
 1624TIP3   OH2 4816   7.070   2.351   3.403
 1624TIP3    H1 4817   7.101   2.301   3.327
 1624TIP3    H2 4818   7.121   2.432   3.401
 1625TIP3   OH2 4819   0.657   4.387   4.095
 1625TIP3    H1 4820   0.682   4.306   4.139
 1625TIP3    H2 4821   0.694   4.379   4.007
 1626TIP3   OH2 4822   4.705   2.790   6.432
 1626TIP3    H1 4823   4.738   2.772   6.520
 1626TIP3    H2 4824   4.673   2.880   6.436
 1627TIP3   OH2 4825   7.328   3.120   2.481
 1627TIP3    H1 4826   7.258   3.063   2.448
 1627TIP3    H2 4827   7.290   3.160   2.559
 1628TIP3   OH2 4828   5.694   0.963   3.394
 1628TIP3    H1 4829   5.674   0.876   3.358
 1628TIP3    H2 4830   5.611   0.993   3.431
 1629TIP3   OH2 4831   3.089   1.849   1.024
 1629TIP3    H1 4832   3.174   1.842   0.982
 1629TIP3    H2 4833   3.057   1.935   0.999
 1630TIP3   OH2 4834   5.029   1.453   5.086
 1630TIP3    H1 4835   4.937   1.464   5.108
 1630TIP3    H2 4836   5.076   1.500   5.155
 1631TIP3   OH2 4837   2.177   6.613   2.952
 1631TIP3    H1 4838   2.117   6.593   3.024
 1631TIP3    H2 4839   2.216   6.697   2.974
 1632TIP3   OH2 4840   4.303   1.051   0.158
 1632TIP3    H1 4841   4.331   1.143   0.158
 1632TIP3    H2 4842   4.284   1.031   0.250
 1633TIP3   OH2 4843   0.489   4.584   1.626
 1633TIP3    H1 4844   0.417   4.621   1.574
 1633TIP3    H2 4845   0.538   4.531   1.564
 1634TIP3   OH2 4846   2.252   2.095   0.627
 1634TIP3    H1 4847   2.306   2.171   0.605
 1634TIP3    H2 4848   2.254   2.041   0.548
 1635TIP3   OH2 4849   0.267   7.249   5.584
 1635TIP3    H1 4850   0.194   7.188   5.598
 1635TIP3    H2 4851   0.298   7.270   5.672
 1636TIP3   OH2 4852   0.319   0.217   2.590
 1636TIP3    H1 4853   0.320   0.211   2.685
 1636TIP3    H2 4854   0.311   0.311   2.572
 1637TIP3   OH2 4855   1.567   7.747   0.359
 1637TIP3    H1 4856   1.519   7.697   0.425
 1637TIP3    H2 4857   1.578   7.687   0.286
 1638TIP3   OH2 4858   6.190   4.381   1.876
 1638TIP3    H1 4859   6.141   4.454   1.839
 1638TIP3    H2 4860   6.123   4.314   1.891
 1639TIP3   OH2 4861   1.167   5.107   3.084
 1639TIP3    H1 4862   1.118   5.036   3.124
 1639TIP3    H2 4863   1.183   5.077   2.994
 1640TIP3   OH2 4864   4.227   7.577   4.461
 1640TIP3    H1 4865   4.288   7.640   4.501
 1640TIP3    H2 4866   4.283   7.506   4.430
 1641TIP3   OH2 4867   7.605   5.445   6.600
 1641TIP3    H1 4868   7.647   5.486   6.676
 1641TIP3    H2 4869   7.657   5.366   6.584
 1642TIP3   OH2 4870   5.444   2.524   1.580
 1642TIP3    H1 4871   5.472   2.537   1.671
 1642TIP3    H2 4872   5.402   2.607   1.556
 1643TIP3   OH2 4873   2.028   0.669   6.019
 1643TIP3    H1 4874   1.975   0.748   6.032
 1643TIP3    H2 4875   2.117   0.697   6.039
 1644TIP3   OH2 4876   4.167   6.161   5.661
 1644TIP3    H1 4877   4.226   6.159   5.736
 1644TIP3    H2 4878   4.107   6.088   5.677
 1645TIP3   OH2 4879   2.271   6.077   0.908
 1645TIP3    H1 4880   2.292   6.007   0.847
 1645TIP3    H2 4881   2.282   6.038   0.995
 1646TIP3   OH2 4882   0.321   2.127   4.589
 1646TIP3    H1 4883   0.293   2.156   4.676
 1646TIP3    H2 4884   0.275   2.044   4.576
 1647TIP3   OH2 4885   3.512   0.876   4.591
 1647TIP3    H1 4886   3.509   0.954   4.646
 1647TIP3    H2 4887   3.429   0.877   4.543
 1648TIP3   OH2 4888   4.148   4.919   5.332
 1648TIP3    H1 4889   4.098   4.871   5.266
 1648TIP3    H2 4890   4.088   4.988   5.361
 1649TIP3   OH2 4891   7.078   3.651   5.574
 1649TIP3    H1 4892   7.027   3.672   5.653
 1649TIP3    H2 4893   7.046   3.712   5.508
 1650TIP3   OH2 4894   0.566   5.995   5.449
 1650TIP3    H1 4895   0.528   5.988   5.537
 1650TIP3    H2 4896   0.649   5.947   5.455
 1651TIP3   OH2 4897   4.464   2.035   2.538
 1651TIP3    H1 4898   4.515   1.978   2.481
 1651TIP3    H2 4899   4.390   2.063   2.486
 1652TIP3   OH2 4900   2.024   7.232   5.113
 1652TIP3    H1 4901   2.067   7.187   5.039
 1652TIP3    H2 4902   2.096   7.265   5.166
 1653TIP3   OH2 4903   7.688   1.197   0.611
 1653TIP3    H1 4904   7.711   1.270   0.554
 1653TIP3    H2 4905   7.744   1.208   0.689
 1654TIP3   OH2 4906   2.672   7.186   4.952
 1654TIP3    H1 4907   2.640   7.266   4.995
 1654TIP3    H2 4908   2.767   7.194   4.955
 1655TIP3   OH2 4909   4.754   0.562   4.260
 1655TIP3    H1 4910   4.663   0.589   4.266
 1655TIP3    H2 4911   4.765   0.532   4.170
 1656TIP3   OH2 4912   0.412   1.643   0.664
 1656TIP3    H1 4913   0.391   1.599   0.746
 1656TIP3    H2 4914   0.344   1.711   0.655
 1657TIP3   OH2 4915   3.014   5.949   0.888
 1657TIP3    H1 4916   3.002   5.990   0.974
 1657TIP3    H2 4917   2.929   5.961   0.844
 1658TIP3   OH2 4918   6.508   7.513   3.174
 1658TIP3    H1 4919   6.560   7.593   3.181
 1658TIP3    H2 4920   6.445   7.531   3.104
 1659TIP3   OH2 4921   0.577   1.609   4.712
 1659TIP3    H1 4922   0.505   1.604   4.774
 1659TIP3    H2 4923   0.542   1.658   4.638
 1660TIP3   OH2 4924   7.185   5.814   6.483
 1660TIP3    H1 4925   7.241   5.752   6.529
 1660TIP3    H2 4926   7.130   5.760   6.427
 1661TIP3   OH2 4927   8.136   0.575   3.346
 1661TIP3    H1 4928   8.218   0.588   3.393
 1661TIP3    H2 4929   8.152   0.609   3.259
 1662TIP3   OH2 4930   8.269   3.307   5.775
 1662TIP3    H1 4931   8.207   3.265   5.715
 1662TIP3    H2 4932   8.283   3.394   5.738
 1663TIP3   OH2 4933   5.281   6.704   1.822
 1663TIP3    H1 4934   5.330   6.671   1.897
 1663TIP3    H2 4935   5.255   6.792   1.847
 1664TIP3   OH2 4936   0.768   5.113   5.851
 1664TIP3    H1 4937   0.746   5.180   5.916
 1664TIP3    H2 4938   0.745   5.030   5.893
 1665TIP3   OH2 4939   2.179   7.471   4.843
 1665TIP3    H1 4940   2.187   7.502   4.752
 1665TIP3    H2 4941   2.092   7.501   4.870
 1666TIP3   OH2 4942   6.518   1.422   6.463
 1666TIP3    H1 4943   6.541   1.497   6.518
 1666TIP3    H2 4944   6.583   1.422   6.393
 1667TIP3   OH2 4945   6.267   2.095   6.725
 1667TIP3    H1 4946   6.224   2.099   6.811
 1667TIP3    H2 4947   6.305   2.183   6.714
 1668TIP3   OH2 4948   5.579   7.221   5.077
 1668TIP3    H1 4949   5.662   7.254   5.111
 1668TIP3    H2 4950   5.597   7.130   5.053
 1669TIP3   OH2 4951   0.495   5.524   4.685
 1669TIP3    H1 4952   0.461   5.612   4.669
 1669TIP3    H2 4953   0.417   5.469   4.692
 1670TIP3   OH2 4954   4.237   3.990   4.608
 1670TIP3    H1 4955   4.318   3.994   4.558
 1670TIP3    H2 4956   4.183   3.925   4.563
 1671TIP3   OH2 4957   0.315   3.170   2.519
 1671TIP3    H1 4958   0.234   3.221   2.526
 1671TIP3    H2 4959   0.384   3.234   2.537
 1672TIP3   OH2 4960   3.180   5.480   2.531
 1672TIP3    H1 4961   3.180   5.538   2.455
 1672TIP3    H2 4962   3.095   5.436   2.528
 1673TIP3   OH2 4963   0.531   3.027   3.463
 1673TIP3    H1 4964   0.553   3.120   3.466
 1673TIP3    H2 4965   0.558   2.999   3.375
 1674TIP3   OH2 4966   7.391   4.727   2.674
 1674TIP3    H1 4967   7.476   4.690   2.695
 1674TIP3    H2 4968   7.344   4.656   2.629
 1675TIP3   OH2 4969   1.660   6.303   4.237
 1675TIP3    H1 4970   1.674   6.217   4.200
 1675TIP3    H2 4971   1.721   6.308   4.310
 1676TIP3   OH2 4972   1.786   5.156   5.131
 1676TIP3    H1 4973   1.827   5.226   5.080
 1676TIP3    H2 4974   1.750   5.202   5.207
 1677TIP3   OH2 4975   3.576   3.436   3.102
 1677TIP3    H1 4976   3.552   3.414   3.012
 1677TIP3    H2 4977   3.544   3.362   3.154
 1678TIP3   OH2 4978   0.001   1.502   2.932
 1678TIP3    H1 4979   0.041   1.559   2.998
 1678TIP3    H2 4980  -0.056   1.444   2.982
 1679TIP3   OH2 4981   5.160   1.452   0.316
 1679TIP3    H1 4982   5.244   1.408   0.320
 1679TIP3    H2 4983   5.139   1.474   0.407
 1680TIP3   OH2 4984   7.225   6.631   2.371
 1680TIP3    H1 4985   7.159   6.602   2.434
 1680TIP3    H2 4986   7.177   6.686   2.309
 1681TIP3   OH2 4987   5.436   4.956   4.441
 1681TIP3    H1 4988   5.528   4.934   4.436
 1681TIP3    H2 4989   5.394   4.880   4.480
 1682TIP3   OH2 4990   3.635   6.293   0.686
 1682TIP3    H1 4991   3.589   6.370   0.652
 1682TIP3    H2 4992   3.641   6.234   0.611
 1683TIP3   OH2 4993   7.258   4.182   4.691
 1683TIP3    H1 4994   7.208   4.215   4.617
 1683TIP3    H2 4995   7.200   4.119   4.733
 1684TIP3   OH2 4996   4.291   3.176   2.582
 1684TIP3    H1 4997   4.258   3.096   2.624
 1684TIP3    H2 4998   4.384   3.178   2.605
 1685TIP3   OH2 4999   6.915   1.724   0.260
 1685TIP3    H1 5000   6.979   1.794   0.276
 1685TIP3    H2 5001   6.915   1.673   0.341
 1686TIP3   OH2 5002   6.823   5.774   4.805
 1686TIP3    H1 5003   6.830   5.679   4.813
 1686TIP3    H2 5004   6.910   5.807   4.827
 1687TIP3   OH2 5005   4.750   7.026   6.267
 1687TIP3    H1 5006   4.837   6.987   6.257
 1687TIP3    H2 5007   4.751   7.065   6.354
 1688TIP3   OH2 5008   4.460   3.266   1.542
 1688TIP3    H1 5009   4.418   3.343   1.505
 1688TIP3    H2 5010   4.544   3.297   1.574
 1689TIP3   OH2 5011   6.831   5.129   0.256
 1689TIP3    H1 5012   6.885   5.067   0.207
 1689TIP3    H2 5013   6.741   5.100   0.240
 1690TIP3   OH2 5014   8.009   0.829   3.092
 1690TIP3    H1 5015   8.095   0.862   3.117
 1690TIP3    H2 5016   7.953   0.907   3.093
 1691TIP3   OH2 5017   2.621   5.982   5.656
 1691TIP3    H1 5018   2.712   5.964   5.681
 1691TIP3    H2 5019   2.627   6.059   5.599
 1692TIP3   OH2 5020   6.912   7.157   1.855
 1692TIP3    H1 5021   6.914   7.221   1.785
 1692TIP3    H2 5022   6.886   7.207   1.933
 1693TIP3   OH2 5023   7.535   1.609   2.319
 1693TIP3    H1 5024   7.614   1.655   2.350
 1693TIP3    H2 5025   7.501   1.566   2.397
 1694TIP3   OH2 5026   5.082   1.314   0.955
 1694TIP3    H1 5027   5.156   1.358   0.912
 1694TIP3    H2 5028   5.044   1.381   1.012
 1695TIP3   OH2 5029   0.293   7.276   2.070
 1695TIP3    H1 5030   0.274   7.358   2.025
 1695TIP3    H2 5031   0.371   7.295   2.123
 1696TIP3   OH2 5032   5.031   1.135   2.393
 1696TIP3    H1 5033   4.936   1.124   2.400
 1696TIP3    H2 5034   5.065   1.046   2.392
 1697TIP3   OH2 5035   1.455   3.383   1.079
 1697TIP3    H1 5036   1.539   3.338   1.074
 1697TIP3    H2 5037   1.392   3.320   1.045
 1698TIP3   OH2 5038   7.553   1.812   4.260
 1698TIP3    H1 5039   7.544   1.727   4.218
 1698TIP3    H2 5040   7.537   1.875   4.189
 1699TIP3   OH2 5041   2.336   7.792   5.699
 1699TIP3    H1 5042   2.313   7.729   5.767
 1699TIP3    H2 5043   2.368   7.869   5.747
 1700TIP3   OH2 5044   5.477   7.320   0.310
 1700TIP3    H1 5045   5.553   7.290   0.259
 1700TIP3    H2 5046   5.430   7.240   0.333
 1701TIP3   OH2 5047   0.595   2.827   4.185
 1701TIP3    H1 5048   0.683   2.796   4.163
 1701TIP3    H2 5049   0.540   2.749   4.183
 1702TIP3   OH2 5050   2.765   5.205   5.370
 1702TIP3    H1 5051   2.727   5.126   5.409
 1702TIP3    H2 5052   2.792   5.259   5.444
 1703TIP3   OH2 5053   3.694   4.760   1.647
 1703TIP3    H1 5054   3.740   4.748   1.730
 1703TIP3    H2 5055   3.763   4.765   1.582
 1704TIP3   OH2 5056   7.112   6.617   4.599
 1704TIP3    H1 5057   7.097   6.709   4.578
 1704TIP3    H2 5058   7.206   6.611   4.615
 1705TIP3   OH2 5059   5.598   4.043   5.763
 1705TIP3    H1 5060   5.683   4.070   5.799
 1705TIP3    H2 5061   5.620   3.990   5.687
 1706TIP3   OH2 5062   3.877   7.398   1.625
 1706TIP3    H1 5063   3.928   7.469   1.586
 1706TIP3    H2 5064   3.933   7.320   1.616
 1707TIP3   OH2 5065   5.767   3.072   1.187
 1707TIP3    H1 5066   5.766   3.099   1.279
 1707TIP3    H2 5067   5.740   2.979   1.189
 1708TIP3   OH2 5068   2.938   6.093   1.958
 1708TIP3    H1 5069   3.029   6.068   1.977
 1708TIP3    H2 5070   2.887   6.049   2.027
 1709TIP3   OH2 5071   2.911   5.221   1.727
 1709TIP3    H1 5072   2.822   5.257   1.726
 1709TIP3    H2 5073   2.950   5.254   1.807
 1710TIP3   OH2 5074   4.612   0.464   5.239
 1710TIP3    H1 5075   4.653   0.444   5.323
 1710TIP3    H2 5076   4.681   0.451   5.175
 1711TIP3   OH2 5077   7.187   2.688   3.667
 1711TIP3    H1 5078   7.140   2.769   3.691
 1711TIP3    H2 5079   7.270   2.695   3.715
 1712TIP3   OH2 5080   3.294   3.094   4.224
 1712TIP3    H1 5081   3.304   3.064   4.314
 1712TIP3    H2 5082   3.309   3.016   4.171
 1713TIP3   OH2 5083   3.439   0.508   2.327
 1713TIP3    H1 5084   3.437   0.555   2.244
 1713TIP3    H2 5085   3.373   0.552   2.381
 1714TIP3   OH2 5086   7.919   0.622   4.170
 1714TIP3    H1 5087   7.828   0.593   4.167
 1714TIP3    H2 5088   7.956   0.576   4.245
 1715TIP3   OH2 5089   4.031   7.208   6.797
 1715TIP3    H1 5090   4.090   7.267   6.751
 1715TIP3    H2 5091   4.025   7.131   6.740
 1716TIP3   OH2 5092   7.437   2.019   2.678
 1716TIP3    H1 5093   7.391   2.062   2.605
 1716TIP3    H2 5094   7.394   1.935   2.687
 1717TIP3   OH2 5095   3.073   6.791   3.628
 1717TIP3    H1 5096   3.000   6.821   3.682
 1717TIP3    H2 5097   3.097   6.706   3.665
 1718TIP3   OH2 5098   2.373   5.828   2.275
 1718TIP3    H1 5099   2.326   5.899   2.320
 1718TIP3    H2 5100   2.385   5.761   2.343
 1719TIP3   OH2 5101   4.170   5.268   6.087
 1719TIP3    H1 5102   4.177   5.231   6.175
 1719TIP3    H2 5103   4.252   5.244   6.044
 1720TIP3   OH2 5104   0.598   2.238   4.568
 1720TIP3    H1 5105   0.532   2.184   4.611
 1720TIP3    H2 5106   0.641   2.285   4.639
 1721TIP3   OH2 5107   4.099   5.020   3.207
 1721TIP3    H1 5108   4.177   4.969   3.188
 1721TIP3    H2 5109   4.105   5.040   3.300
 1722TIP3   OH2 5110   2.419   5.961   6.359
 1722TIP3    H1 5111   2.336   5.934   6.319
 1722TIP3    H2 5112   2.445   6.039   6.311
 1723TIP3   OH2 5113   1.960   3.868   3.595
 1723TIP3    H1 5114   1.870   3.886   3.570
 1723TIP3    H2 5115   1.954   3.797   3.658
 1724TIP3   OH2 5116   4.570   6.423   3.600
 1724TIP3    H1 5117   4.549   6.449   3.510
 1724TIP3    H2 5118   4.552   6.329   3.603
 1725TIP3   OH2 5119   0.109   2.895   3.228
 1725TIP3    H1 5120   0.124   2.921   3.319
 1725TIP3    H2 5121   0.171   2.948   3.178
 1726TIP3   OH2 5122   0.192   6.121   5.185
 1726TIP3    H1 5123   0.264   6.100   5.126
 1726TIP3    H2 5124   0.136   6.180   5.134
 1727TIP3   OH2 5125   3.568   2.787   2.434
 1727TIP3    H1 5126   3.638   2.789   2.500
 1727TIP3    H2 5127   3.526   2.702   2.447
 1728TIP3   OH2 5128   4.990   3.624   5.646
 1728TIP3    H1 5129   5.001   3.530   5.634
 1728TIP3    H2 5130   5.064   3.650   5.701
 1729TIP3   OH2 5131   5.526   4.899   0.405
 1729TIP3    H1 5132   5.579   4.978   0.395
 1729TIP3    H2 5133   5.490   4.883   0.317
 1730TIP3   OH2 5134   0.231   4.266   6.375
 1730TIP3    H1 5135   0.205   4.242   6.463
 1730TIP3    H2 5136   0.261   4.184   6.335
 1731TIP3   OH2 5137   6.779   2.697   2.837
 1731TIP3    H1 5138   6.839   2.625   2.854
 1731TIP3    H2 5139   6.826   2.754   2.777
 1732TIP3   OH2 5140   8.200   1.075   5.587
 1732TIP3    H1 5141   8.254   1.031   5.521
 1732TIP3    H2 5142   8.263   1.108   5.651
 1733TIP3   OH2 5143   3.017   5.433   3.475
 1733TIP3    H1 5144   3.021   5.386   3.392
 1733TIP3    H2 5145   2.947   5.498   3.463
 1734TIP3   OH2 5146   1.959   0.839   5.479
 1734TIP3    H1 5147   1.943   0.776   5.549
 1734TIP3    H2 5148   1.903   0.809   5.407
 1735TIP3   OH2 5149   0.384   2.122   4.304
 1735TIP3    H1 5150   0.429   2.050   4.260
 1735TIP3    H2 5151   0.353   2.084   4.387
 1736TIP3   OH2 5152   3.227   4.031   6.113
 1736TIP3    H1 5153   3.293   3.969   6.143
 1736TIP3    H2 5154   3.144   3.996   6.148
 1737TIP3   OH2 5155   6.038   4.457   2.587
 1737TIP3    H1 5156   5.945   4.473   2.569
 1737TIP3    H2 5157   6.083   4.534   2.555
 1738TIP3   OH2 5158   4.813   0.505   0.874
 1738TIP3    H1 5159   4.755   0.571   0.834
 1738TIP3    H2 5160   4.770   0.481   0.956
 1739TIP3   OH2 5161   5.567   7.414   3.510
 1739TIP3    H1 5162   5.634   7.482   3.507
 1739TIP3    H2 5163   5.567   7.385   3.601
 1740TIP3   OH2 5164   6.672   0.690   6.622
 1740TIP3    H1 5165   6.576   0.697   6.622
 1740TIP3    H2 5166   6.700   0.750   6.553
 1741TIP3   OH2 5167   7.367   4.018   0.665
 1741TIP3    H1 5168   7.382   3.986   0.755
 1741TIP3    H2 5169   7.297   4.082   0.673
 1742TIP3   OH2 5170   0.992   4.077   1.417
 1742TIP3    H1 5171   0.933   4.037   1.353
 1742TIP3    H2 5172   0.995   4.015   1.490
 1743TIP3   OH2 5173   5.712   5.126   1.674
 1743TIP3    H1 5174   5.779   5.109   1.608
 1743TIP3    H2 5175   5.737   5.071   1.748
 1744TIP3   OH2 5176   0.189   6.379   0.970
 1744TIP3    H1 5177   0.218   6.357   0.881
 1744TIP3    H2 5178   0.115   6.438   0.957
 1745TIP3   OH2 5179   6.150   7.423   4.542
 1745TIP3    H1 5180   6.144   7.463   4.629
 1745TIP3    H2 5181   6.154   7.329   4.559
 1746TIP3   OH2 5182   1.768   1.855   4.867
 1746TIP3    H1 5183   1.754   1.784   4.928
 1746TIP3    H2 5184   1.726   1.826   4.786
 1747TIP3   OH2 5185   5.050   2.615   4.144
 1747TIP3    H1 5186   4.969   2.659   4.168
 1747TIP3    H2 5187   5.055   2.625   4.049
 1748TIP3   OH2 5188   4.282   6.583   2.796
 1748TIP3    H1 5189   4.240   6.609   2.714
 1748TIP3    H2 5190   4.221   6.610   2.865
 1749TIP3   OH2 5191   6.417   0.610   4.067
 1749TIP3    H1 5192   6.371   0.677   4.017
 1749TIP3    H2 5193   6.370   0.529   4.048
 1750TIP3   OH2 5194   8.275   7.246   5.611
 1750TIP3    H1 5195   8.196   7.195   5.631
 1750TIP3    H2 5196   8.307   7.275   5.697
 1751TIP3   OH2 5197   4.703   5.659   1.627
 1751TIP3    H1 5198   4.793   5.643   1.656
 1751TIP3    H2 5199   4.660   5.574   1.635
 1752TIP3   OH2 5200   0.702   4.250   0.430
 1752TIP3    H1 5201   0.767   4.268   0.361
 1752TIP3    H2 5202   0.637   4.195   0.387
 1753TIP3   OH2 5203   4.975   7.178   1.316
 1753TIP3    H1 5204   4.959   7.271   1.301
 1753TIP3    H2 5205   4.992   7.171   1.410
 1754TIP3   OH2 5206   2.760   1.828   3.379
 1754TIP3    H1 5207   2.813   1.832   3.459
 1754TIP3    H2 5208   2.766   1.737   3.351
 1755TIP3   OH2 5209   1.519   4.764   5.558
 1755TIP3    H1 5210   1.581   4.777   5.486
 1755TIP3    H2 5211   1.475   4.848   5.567
 1756TIP3   OH2 5212   4.225   3.778   0.569
 1756TIP3    H1 5213   4.224   3.797   0.663
 1756TIP3    H2 5214   4.170   3.846   0.530
 1757TIP3   OH2 5215   1.052   1.107   6.288
 1757TIP3    H1 5216   0.979   1.081   6.344
 1757TIP3    H2 5217   1.016   1.176   6.232
 1758TIP3   OH2 5218   3.682   7.599   5.612
 1758TIP3    H1 5219   3.695   7.620   5.704
 1758TIP3    H2 5220   3.749   7.650   5.566
 1759TIP3   OH2 5221   4.476   2.364   5.951
 1759TIP3    H1 5222   4.513   2.408   5.875
 1759TIP3    H2 5223   4.436   2.284   5.916
 1760TIP3   OH2 5224   5.675   0.713   3.284
 1760TIP3    H1 5225   5.674   0.663   3.366
 1760TIP3    H2 5226   5.628   0.658   3.222
 1761TIP3   OH2 5227   2.135   2.754   0.559
 1761TIP3    H1 5228   2.174   2.840   0.548
 1761TIP3    H2 5229   2.089   2.759   0.643
 1762TIP3   OH2 5230   0.612   6.885   3.762
 1762TIP3    H1 5231   0.586   6.977   3.760
 1762TIP3    H2 5232   0.536   6.839   3.798
 1763TIP3   OH2 5233   4.048   7.091   4.304
 1763TIP3    H1 5234   3.972   7.143   4.330
 1763TIP3    H2 5235   4.103   7.089   4.382
 1764TIP3   OH2 5236   1.452   7.503   4.220
 1764TIP3    H1 5237   1.426   7.571   4.283
 1764TIP3    H2 5238   1.375   7.493   4.163
 1765TIP3   OH2 5239   1.845   3.593   5.361
 1765TIP3    H1 5240   1.764   3.551   5.331
 1765TIP3    H2 5241   1.816   3.675   5.401
 1766TIP3   OH2 5242   5.828   2.486   3.925
 1766TIP3    H1 5243   5.826   2.413   3.986
 1766TIP3    H2 5244   5.920   2.492   3.898
 1767TIP3   OH2 5245   5.520   5.450   2.603
 1767TIP3    H1 5246   5.487   5.378   2.549
 1767TIP3    H2 5247   5.596   5.483   2.556
 1768TIP3   OH2 5248   0.457   7.490   3.162
 1768TIP3    H1 5249   0.469   7.461   3.252
 1768TIP3    H2 5250   0.385   7.438   3.128
 1769TIP3   OH2 5251   7.648   7.823   6.471
 1769TIP3    H1 5252   7.601   7.792   6.393
 1769TIP3    H2 5253   7.721   7.763   6.481
 1770TIP3   OH2 5254   0.251   6.722   5.139
 1770TIP3    H1 5255   0.249   6.629   5.115
 1770TIP3    H2 5256   0.331   6.755   5.098
 1771TIP3   OH2 5257   6.483   4.681   0.990
 1771TIP3    H1 5258   6.455   4.642   0.908
 1771TIP3    H2 5259   6.520   4.766   0.966
 1772TIP3   OH2 5260   0.151   7.063   2.184
 1772TIP3    H1 5261   0.165   7.135   2.123
 1772TIP3    H2 5262   0.165   7.101   2.271
 1773TIP3   OH2 5263   1.163   5.135   5.977
 1773TIP3    H1 5264   1.090   5.160   6.033
 1773TIP3    H2 5265   1.128   5.142   5.888
 1774TIP3   OH2 5266   1.094   7.582   1.972
 1774TIP3    H1 5267   1.173   7.528   1.976
 1774TIP3    H2 5268   1.036   7.543   2.038
 1775TIP3   OH2 5269   1.283  -0.002   3.608
 1775TIP3    H1 5270   1.310   0.042   3.689
 1775TIP3    H2 5271   1.352   0.020   3.545
 1776TIP3   OH2 5272   2.826   0.497   2.973
 1776TIP3    H1 5273   2.771   0.538   3.039
 1776TIP3    H2 5274   2.767   0.437   2.927
 1777TIP3   OH2 5275   2.227   5.943   4.652
 1777TIP3    H1 5276   2.147   5.901   4.619
 1777TIP3    H2 5277   2.235   6.023   4.600
 1778TIP3   OH2 5278   8.170   3.386   1.451
 1778TIP3    H1 5279   8.158   3.292   1.459
 1778TIP3    H2 5280   8.232   3.397   1.379
 1779TIP3   OH2 5281   6.377   5.448   6.100
 1779TIP3    H1 5282   6.355   5.388   6.030
 1779TIP3    H2 5283   6.318   5.424   6.172
 1780TIP3   OH2 5284   0.188   5.108   3.015
 1780TIP3    H1 5285   0.106   5.081   3.057
 1780TIP3    H2 5286   0.232   5.025   2.995
 1781TIP3   OH2 5287   3.737   6.353   2.194
 1781TIP3    H1 5288   3.646   6.380   2.208
 1781TIP3    H2 5289   3.737   6.309   2.110
 1782TIP3   OH2 5290   0.320   1.270   6.157
 1782TIP3    H1 5291   0.343   1.186   6.117
 1782TIP3    H2 5292   0.404   1.313   6.174
 1783TIP3   OH2 5293   0.582   0.360   0.510
 1783TIP3    H1 5294   0.649   0.406   0.460
 1783TIP3    H2 5295   0.605   0.377   0.602
 1784TIP3   OH2 5296   6.852   3.014   1.289
 1784TIP3    H1 5297   6.806   2.943   1.244
 1784TIP3    H2 5298   6.820   3.012   1.379
 1785TIP3   OH2 5299   2.440   0.737   1.068
 1785TIP3    H1 5300   2.420   0.747   1.161
 1785TIP3    H2 5301   2.465   0.645   1.058
 1786TIP3   OH2 5302   7.814   2.574   1.224
 1786TIP3    H1 5303   7.787   2.492   1.183
 1786TIP3    H2 5304   7.732   2.621   1.238
 1787TIP3   OH2 5305   6.676   3.360   5.593
 1787TIP3    H1 5306   6.673   3.270   5.562
 1787TIP3    H2 5307   6.748   3.361   5.657
 1788TIP3   OH2 5308   1.511   5.053   3.780
 1788TIP3    H1 5309   1.547   5.010   3.858
 1788TIP3    H2 5310   1.515   5.147   3.801
 1789TIP3   OH2 5311   7.920   3.764   1.962
 1789TIP3    H1 5312   7.867   3.755   1.883
 1789TIP3    H2 5313   7.872   3.717   2.029
 1790TIP3   OH2 5314   3.726   2.853   6.001
 1790TIP3    H1 5315   3.648   2.858   5.946
 1790TIP3    H2 5316   3.780   2.927   5.974
 1791TIP3   OH2 5317   3.406   6.657   1.316
 1791TIP3    H1 5318   3.320   6.665   1.276
 1791TIP3    H2 5319   3.419   6.562   1.325
 1792TIP3   OH2 5320   1.593   1.237   6.271
 1792TIP3    H1 5321   1.507   1.238   6.313
 1792TIP3    H2 5322   1.585   1.299   6.198
 1793TIP3   OH2 5323   4.590   1.633   1.008
 1793TIP3    H1 5324   4.666   1.611   0.954
 1793TIP3    H2 5325   4.521   1.652   0.945
 1794TIP3   OH2 5326   0.472   4.358   3.074
 1794TIP3    H1 5327   0.550   4.413   3.078
 1794TIP3    H2 5328   0.401   4.418   3.051
 1795TIP3   OH2 5329   6.036   2.079   6.529
 1795TIP3    H1 5330   6.100   2.093   6.600
 1795TIP3    H2 5331   6.089   2.048   6.455
 1796TIP3   OH2 5332   2.800   3.518   2.044
 1796TIP3    H1 5333   2.877   3.493   2.095
 1796TIP3    H2 5334   2.771   3.437   2.003
 1797TIP3   OH2 5335   7.716   7.660   2.478
 1797TIP3    H1 5336   7.632   7.658   2.433
 1797TIP3    H2 5337   7.765   7.730   2.433
 1798TIP3   OH2 5338   1.600   1.953   3.808
 1798TIP3    H1 5339   1.646   2.030   3.840
 1798TIP3    H2 5340   1.596   1.894   3.883
 1799TIP3   OH2 5341   2.210   7.784   4.758
 1799TIP3    H1 5342   2.206   7.801   4.852
 1799TIP3    H2 5343   2.295   7.817   4.730
 1800TIP3   OH2 5344   5.105   7.781   1.953
 1800TIP3    H1 5345   5.147   7.696   1.965
 1800TIP3    H2 5346   5.165   7.830   1.898
 1801TIP3   OH2 5347   2.062   3.364   1.875
 1801TIP3    H1 5348   2.001   3.364   1.802
 1801TIP3    H2 5349   2.038   3.441   1.927
 1802TIP3   OH2 5350   5.869   1.529   2.142
 1802TIP3    H1 5351   5.956   1.499   2.167
 1802TIP3    H2 5352   5.822   1.536   2.225
 1803TIP3   OH2 5353   4.548   1.989   0.328
 1803TIP3    H1 5354   4.619   2.051   0.315
 1803TIP3    H2 5355   4.568   1.917   0.269
 1804TIP3   OH2 5356   5.688   3.184   0.123
 1804TIP3    H1 5357   5.769   3.187   0.072
 1804TIP3    H2 5358   5.717   3.166   0.212
 1805TIP3   OH2 5359   1.119   4.791   2.390
 1805TIP3    H1 5360   1.034   4.821   2.422
 1805TIP3    H2 5361   1.163   4.757   2.467
 1806TIP3   OH2 5362   0.397   4.646   0.954
 1806TIP3    H1 5363   0.392   4.647   0.859
 1806TIP3    H2 5364   0.490   4.637   0.974
 1807TIP3   OH2 5365   0.514   5.966   1.733
 1807TIP3    H1 5366   0.572   6.041   1.720
 1807TIP3    H2 5367   0.428   5.997   1.705
 1808TIP3   OH2 5368   5.474   3.121   6.708
 1808TIP3    H1 5369   5.523   3.161   6.636
 1808TIP3    H2 5370   5.491   3.178   6.783
 1809TIP3   OH2 5371   8.110   1.553   1.135
 1809TIP3    H1 5372   8.176   1.539   1.067
 1809TIP3    H2 5373   8.028   1.525   1.095
 1810TIP3   OH2 5374   3.287   7.006   5.700
 1810TIP3    H1 5375   3.312   7.067   5.630
 1810TIP3    H2 5376   3.314   7.049   5.781
 1811TIP3   OH2 5377   4.512   5.240   2.757
 1811TIP3    H1 5378   4.425   5.280   2.757
 1811TIP3    H2 5379   4.570   5.310   2.728
 1812TIP3   OH2 5380   1.927   1.615   3.985
 1812TIP3    H1 5381   1.963   1.661   4.061
 1812TIP3    H2 5382   1.835   1.601   4.007
 1813TIP3   OH2 5383   1.654   3.671   5.650
 1813TIP3    H1 5384   1.722   3.738   5.635
 1813TIP3    H2 5385   1.700   3.588   5.646
 1814TIP3   OH2 5386   6.353   5.251   5.760
 1814TIP3    H1 5387   6.282   5.270   5.822
 1814TIP3    H2 5388   6.375   5.159   5.777
 1815TIP3   OH2 5389   4.732   6.913   4.209
 1815TIP3    H1 5390   4.824   6.895   4.191
 1815TIP3    H2 5391   4.723   6.903   4.303
 1816TIP3   OH2 5392   4.947   0.408   1.554
 1816TIP3    H1 5393   4.954   0.445   1.642
 1816TIP3    H2 5394   4.984   0.475   1.497
 1817TIP3   OH2 5395   0.384   6.543   2.542
 1817TIP3    H1 5396   0.368   6.449   2.540
 1817TIP3    H2 5397   0.469   6.552   2.587
 1818TIP3   OH2 5398   6.343   0.977   0.058
 1818TIP3    H1 5399   6.255   1.015   0.050
 1818TIP3    H2 5400   6.387   1.004  -0.023
 1819TIP3   OH2 5401   0.052   5.630   4.133
 1819TIP3    H1 5402  -0.018   5.566   4.148
 1819TIP3    H2 5403   0.124   5.578   4.098
 1820TIP3   OH2 5404   2.962   4.420   5.502
 1820TIP3    H1 5405   3.056   4.418   5.482
 1820TIP3    H2 5406   2.945   4.336   5.545
 1821TIP3   OH2 5407   7.631   5.762   1.100
 1821TIP3    H1 5408   7.606   5.769   1.192
 1821TIP3    H2 5409   7.567   5.702   1.062
 1822TIP3   OH2 5410   3.735   3.566   1.009
 1822TIP3    H1 5411   3.690   3.594   1.089
 1822TIP3    H2 5412   3.794   3.639   0.989
 1823TIP3   OH2 5413   4.295   0.719   4.463
 1823TIP3    H1 5414   4.340   0.681   4.388
 1823TIP3    H2 5415   4.296   0.814   4.447
 1824TIP3   OH2 5416   5.689   7.735   1.391
 1824TIP3    H1 5417   5.629   7.777   1.328
 1824TIP3    H2 5418   5.632   7.679   1.444
 1825TIP3   OH2 5419   2.663   5.923   4.753
 1825TIP3    H1 5420   2.619   5.930   4.838
 1825TIP3    H2 5421   2.650   6.009   4.712
 1826TIP3   OH2 5422   1.962   3.301   1.247
 1826TIP3    H1 5423   2.026   3.332   1.182
 1826TIP3    H2 5424   1.987   3.211   1.264
 1827TIP3   OH2 5425   2.113   1.813   1.224
 1827TIP3    H1 5426   2.120   1.744   1.290
 1827TIP3    H2 5427   2.203   1.839   1.207
 1828TIP3   OH2 5428   6.210   2.778   5.795
 1828TIP3    H1 5429   6.116   2.789   5.805
 1828TIP3    H2 5430   6.248   2.861   5.823
 1829TIP3   OH2 5431   7.285   3.695   3.233
 1829TIP3    H1 5432   7.300   3.660   3.320
 1829TIP3    H2 5433   7.338   3.640   3.175
 1830TIP3   OH2 5434   2.280   1.055   6.432
 1830TIP3    H1 5435   2.338   0.982   6.414
 1830TIP3    H2 5436   2.192   1.020   6.418
 1831TIP3   OH2 5437   2.221   5.208   1.186
 1831TIP3    H1 5438   2.297   5.150   1.179
 1831TIP3    H2 5439   2.255   5.294   1.160
 1832TIP3   OH2 5440   1.376   4.136   2.455
 1832TIP3    H1 5441   1.448   4.199   2.455
 1832TIP3    H2 5442   1.305   4.181   2.502
 1833TIP3   OH2 5443   1.330   4.369   4.070
 1833TIP3    H1 5444   1.315   4.453   4.113
 1833TIP3    H2 5445   1.425   4.362   4.064
 1834TIP3   OH2 5446   1.585   2.904   1.822
 1834TIP3    H1 5447   1.552   2.994   1.828
 1834TIP3    H2 5448   1.523   2.851   1.871
 1835TIP3   OH2 5449   4.270   5.320   6.357
 1835TIP3    H1 5450   4.297   5.338   6.447
 1835TIP3    H2 5451   4.349   5.282   6.317
 1836TIP3   OH2 5452   6.534   5.823   4.581
 1836TIP3    H1 5453   6.490   5.753   4.532
 1836TIP3    H2 5454   6.619   5.833   4.538
 1837TIP3   OH2 5455   0.350   6.676   5.726
 1837TIP3    H1 5456   0.304   6.688   5.808
 1837TIP3    H2 5457   0.296   6.616   5.675
 1838TIP3   OH2 5458   7.686   0.229   1.272
 1838TIP3    H1 5459   7.623   0.185   1.214
 1838TIP3    H2 5460   7.682   0.181   1.354
 1839TIP3   OH2 5461   1.521  -0.009   2.476
 1839TIP3    H1 5462   1.433  -0.007   2.440
 1839TIP3    H2 5463   1.531   0.076   2.519
 1840TIP3   OH2 5464   7.499   0.049   2.589
 1840TIP3    H1 5465   7.439   0.096   2.531
 1840TIP3    H2 5466   7.449   0.036   2.670
 1841TIP3   OH2 5467   1.797   3.677   2.594
 1841TIP3    H1 5468   1.853   3.735   2.645
 1841TIP3    H2 5469   1.708   3.708   2.613
 1842TIP3   OH2 5470   4.063   5.808   3.667
 1842TIP3    H1 5471   4.089   5.718   3.647
 1842TIP3    H2 5472   4.131   5.862   3.627
 1843TIP3   OH2 5473   8.318   6.160   6.414
 1843TIP3    H1 5474   8.238   6.172   6.467
 1843TIP3    H2 5475   8.368   6.093   6.461
 1844TIP3   OH2 5476   7.226   3.553   1.869
 1844TIP3    H1 5477   7.212   3.471   1.915
 1844TIP3    H2 5478   7.180   3.542   1.786
 1845TIP3   OH2 5479   0.083   1.156   1.571
 1845TIP3    H1 5480   0.130   1.176   1.652
 1845TIP3    H2 5481   0.003   1.112   1.600
 1846TIP3   OH2 5482   6.399   4.248   4.112
 1846TIP3    H1 5483   6.318   4.267   4.064
 1846TIP3    H2 5484   6.374   4.254   4.204
 1847TIP3   OH2 5485   3.182   4.426   2.103
 1847TIP3    H1 5486   3.108   4.447   2.046
 1847TIP3    H2 5487   3.203   4.335   2.083
 1848TIP3   OH2 5488   6.171   3.246   5.060
 1848TIP3    H1 5489   6.234   3.211   5.123
 1848TIP3    H2 5490   6.142   3.329   5.098
 1849TIP3   OH2 5491   5.522   1.196   3.402
 1849TIP3    H1 5492   5.521   1.191   3.497
 1849TIP3    H2 5493   5.613   1.215   3.380
 1850TIP3   OH2 5494   6.554   6.427   6.024
 1850TIP3    H1 5495   6.503   6.457   6.099
 1850TIP3    H2 5496   6.492   6.375   5.972
 1851TIP3   OH2 5497   0.306   4.159   3.420
 1851TIP3    H1 5498   0.280   4.074   3.454
 1851TIP3    H2 5499   0.358   4.140   3.342
 1852TIP3   OH2 5500   4.676   3.786   1.161
 1852TIP3    H1 5501   4.636   3.861   1.205
 1852TIP3    H2 5502   4.612   3.715   1.171
 1853TIP3   OH2 5503   7.999   5.914   2.734
 1853TIP3    H1 5504   8.058   5.948   2.667
 1853TIP3    H2 5505   8.051   5.849   2.781
 1854TIP3   OH2 5506   7.242   5.299   1.861
 1854TIP3    H1 5507   7.255   5.323   1.952
 1854TIP3    H2 5508   7.326   5.261   1.833
 1855TIP3   OH2 5509   5.130   6.036   3.473
 1855TIP3    H1 5510   5.052   6.071   3.517
 1855TIP3    H2 5511   5.201   6.096   3.498
 1856TIP3   OH2 5512   0.893   3.433   0.762
 1856TIP3    H1 5513   0.850   3.360   0.805
 1856TIP3    H2 5514   0.824   3.499   0.754
 1857TIP3   OH2 5515   1.221   0.792   2.004
 1857TIP3    H1 5516   1.196   0.849   2.076
 1857TIP3    H2 5517   1.273   0.847   1.946
 1858TIP3   OH2 5518   3.197   2.613   5.147
 1858TIP3    H1 5519   3.211   2.690   5.202
 1858TIP3    H2 5520   3.278   2.604   5.097
 1859TIP3   OH2 5521   7.811   4.331   0.291
 1859TIP3    H1 5522   7.808   4.274   0.368
 1859TIP3    H2 5523   7.769   4.279   0.222
 1860TIP3   OH2 5524   3.077   7.084   4.959
 1860TIP3    H1 5525   3.160   7.045   4.988
 1860TIP3    H2 5526   3.016   7.011   4.955
 1861TIP3   OH2 5527   3.168   1.877   5.950
 1861TIP3    H1 5528   3.125   1.947   6.000
 1861TIP3    H2 5529   3.175   1.804   6.011
 1862TIP3   OH2 5530   0.205   1.705   1.088
 1862TIP3    H1 5531   0.160   1.740   1.011
 1862TIP3    H2 5532   0.256   1.779   1.122
 1863TIP3   OH2 5533   2.173   1.303   6.601
 1863TIP3    H1 5534   2.219   1.341   6.676
 1863TIP3    H2 5535   2.213   1.218   6.589
 1864TIP3   OH2 5536   6.898   6.480   4.819
 1864TIP3    H1 5537   6.978   6.527   4.795
 1864TIP3    H2 5538   6.927   6.389   4.832
 1865TIP3   OH2 5539   7.720   3.503   6.680
 1865TIP3    H1 5540   7.665   3.581   6.689
 1865TIP3    H2 5541   7.777   3.504   6.756
 1866TIP3   OH2 5542   2.715   5.887   1.056
 1866TIP3    H1 5543   2.794   5.887   1.111
 1866TIP3    H2 5544   2.725   5.963   1.000
 1867TIP3   OH2 5545   6.480   0.490   3.001
 1867TIP3    H1 5546   6.564   0.459   3.034
 1867TIP3    H2 5547   6.485   0.585   3.008
 1868TIP3   OH2 5548   0.617   1.806   2.966
 1868TIP3    H1 5549   0.678   1.808   3.039
 1868TIP3    H2 5550   0.641   1.728   2.916
 1869TIP3   OH2 5551   3.406   1.314   1.339
 1869TIP3    H1 5552   3.408   1.320   1.435
 1869TIP3    H2 5553   3.327   1.361   1.313
 1870TIP3   OH2 5554   5.522   2.309   0.968
 1870TIP3    H1 5555   5.507   2.214   0.976
 1870TIP3    H2 5556   5.574   2.318   0.888
 1871TIP3   OH2 5557   3.804   6.804   1.000
 1871TIP3    H1 5558   3.796   6.892   1.035
 1871TIP3    H2 5559   3.765   6.747   1.067
 1872TIP3   OH2 5560   0.791   6.465   2.461
 1872TIP3    H1 5561   0.732   6.518   2.516
 1872TIP3    H2 5562   0.819   6.394   2.519
 1873TIP3   OH2 5563   7.765   3.599   1.775
 1873TIP3    H1 5564   7.833   3.540   1.742
 1873TIP3    H2 5565   7.698   3.541   1.811
 1874TIP3   OH2 5566   3.631   7.713   0.023
 1874TIP3    H1 5567   3.621   7.757   0.107
 1874TIP3    H2 5568   3.585   7.768  -0.040
 1875TIP3   OH2 5569   7.776   6.400   3.390
 1875TIP3    H1 5570   7.772   6.495   3.401
 1875TIP3    H2 5571   7.685   6.371   3.394
 1876TIP3   OH2 5572   5.470   0.990   6.162
 1876TIP3    H1 5573   5.495   0.913   6.213
 1876TIP3    H2 5574   5.427   1.048   6.224
 1877TIP3   OH2 5575   6.140   2.667   0.779
 1877TIP3    H1 5576   6.173   2.580   0.757
 1877TIP3    H2 5577   6.057   2.651   0.824
 1878TIP3   OH2 5578   7.696   2.002   3.496
 1878TIP3    H1 5579   7.689   1.979   3.589
 1878TIP3    H2 5580   7.778   2.052   3.490
 1879TIP3   OH2 5581   6.171   5.994   6.636
 1879TIP3    H1 5582   6.193   5.986   6.729
 1879TIP3    H2 5583   6.228   5.930   6.593
 1880TIP3   OH2 5584   0.031   2.156   2.535
 1880TIP3    H1 5585  -0.059   2.154   2.505
 1880TIP3    H2 5586   0.083   2.147   2.455
 1881TIP3   OH2 5587   6.485   2.234   4.358
 1881TIP3    H1 5588   6.536   2.257   4.280
 1881TIP3    H2 5589   6.437   2.155   4.333
 1882TIP3   OH2 5590   4.600   2.450   6.173
 1882TIP3    H1 5591   4.607   2.374   6.230
 1882TIP3    H2 5592   4.549   2.420   6.098
 1883TIP3   OH2 5593   2.212   6.784   0.725
 1883TIP3    H1 5594   2.158   6.751   0.654
 1883TIP3    H2 5595   2.152   6.837   0.778
 1884TIP3   OH2 5596   6.599   1.013   2.909
 1884TIP3    H1 5597   6.663   0.969   2.852
 1884TIP3    H2 5598   6.636   1.100   2.922
 1885TIP3   OH2 5599   4.159   0.680   1.965
 1885TIP3    H1 5600   4.220   0.609   1.985
 1885TIP3    H2 5601   4.211   0.760   1.977
 1886TIP3   OH2 5602   5.703   2.976   3.304
 1886TIP3    H1 5603   5.768   3.034   3.342
 1886TIP3    H2 5604   5.717   2.892   3.348
 1887TIP3   OH2 5605   4.327   2.856   2.361
 1887TIP3    H1 5606   4.364   2.938   2.394
 1887TIP3    H2 5607   4.365   2.788   2.418
 1888TIP3   OH2 5608   6.396   3.248   4.107
 1888TIP3    H1 5609   6.484   3.269   4.137
 1888TIP3    H2 5610   6.386   3.296   4.025
 1889TIP3   OH2 5611   0.936   1.465   1.034
 1889TIP3    H1 5612   0.908   1.386   1.080
 1889TIP3    H2 5613   1.031   1.464   1.040
 1890TIP3   OH2 5614   2.267   1.302   0.352
 1890TIP3    H1 5615   2.327   1.251   0.406
 1890TIP3    H2 5616   2.292   1.393   0.367
 1891TIP3   OH2 5617   4.635   5.855   2.411
 1891TIP3    H1 5618   4.545   5.863   2.442
 1891TIP3    H2 5619   4.661   5.767   2.437
 1892TIP3   OH2 5620   5.629   6.504   1.196
 1892TIP3    H1 5621   5.711   6.550   1.178
 1892TIP3    H2 5622   5.653   6.411   1.194
 1893TIP3   OH2 5623   3.603   3.331   0.916
 1893TIP3    H1 5624   3.573   3.306   1.003
 1893TIP3    H2 5625   3.654   3.410   0.930
 1894TIP3   OH2 5626   6.272   4.374   3.207
 1894TIP3    H1 5627   6.327   4.398   3.282
 1894TIP3    H2 5628   6.295   4.438   3.140
 1895TIP3   OH2 5629   0.213   4.161   4.897
 1895TIP3    H1 5630   0.190   4.236   4.842
 1895TIP3    H2 5631   0.261   4.102   4.838
 1896TIP3   OH2 5632   5.267   3.658   4.316
 1896TIP3    H1 5633   5.216   3.739   4.320
 1896TIP3    H2 5634   5.231   3.603   4.386
 1897TIP3   OH2 5635   0.441   4.977   5.940
 1897TIP3    H1 5636   0.345   4.975   5.946
 1897TIP3    H2 5637   0.462   5.069   5.926
 1898TIP3   OH2 5638   3.136   3.986   4.735
 1898TIP3    H1 5639   3.191   4.011   4.661
 1898TIP3    H2 5640   3.171   3.902   4.764
 1899TIP3   OH2 5641   8.023   4.103   4.857
 1899TIP3    H1 5642   8.110   4.119   4.895
 1899TIP3    H2 5643   7.968   4.082   4.933
 1900TIP3   OH2 5644   0.216   1.787   2.447
 1900TIP3    H1 5645   0.190   1.832   2.367
 1900TIP3    H2 5646   0.159   1.710   2.451
 1901TIP3   OH2 5647   2.131   3.828   4.239
 1901TIP3    H1 5648   2.191   3.753   4.243
 1901TIP3    H2 5649   2.053   3.798   4.286
 1902TIP3   OH2 5650   2.097   6.885   0.030
 1902TIP3    H1 5651   2.057   6.971   0.020
 1902TIP3    H2 5652   2.185   6.903   0.062
 1903TIP3   OH2 5653   7.121   0.701   5.713
 1903TIP3    H1 5654   7.169   0.688   5.795
 1903TIP3    H2 5655   7.058   0.770   5.733
 1904TIP3   OH2 5656   2.429   6.224   1.703
 1904TIP3    H1 5657   2.374   6.302   1.714
 1904TIP3    H2 5658   2.514   6.258   1.674
 1905TIP3   OH2 5659   4.760   0.715   6.233
 1905TIP3    H1 5660   4.778   0.655   6.305
 1905TIP3    H2 5661   4.673   0.691   6.203
 1906TIP3   OH2 5662   6.218   0.136   1.833
 1906TIP3    H1 5663   6.303   0.180   1.833
 1906TIP3    H2 5664   6.162   0.191   1.887
 1907TIP3   OH2 5665   3.919   4.864   2.287
 1907TIP3    H1 5666   3.941   4.945   2.334
 1907TIP3    H2 5667   3.880   4.894   2.205
 1908TIP3   OH2 5668   2.690   1.282   5.874
 1908TIP3    H1 5669   2.728   1.210   5.924
 1908TIP3    H2 5670   2.765   1.334   5.846
 1909TIP3   OH2 5671   7.752   1.053   4.660
 1909TIP3    H1 5672   7.679   0.998   4.689
 1909TIP3    H2 5673   7.734   1.069   4.567
 1910TIP3   OH2 5674   6.670   3.826   6.046
 1910TIP3    H1 5675   6.614   3.819   5.968
 1910TIP3    H2 5676   6.651   3.746   6.095
 1911TIP3   OH2 5677   1.849   1.480   2.488
 1911TIP3    H1 5678   1.928   1.462   2.437
 1911TIP3    H2 5679   1.872   1.452   2.577
 1912TIP3   OH2 5680   3.572   1.836   3.286
 1912TIP3    H1 5681   3.490   1.792   3.266
 1912TIP3    H2 5682   3.597   1.880   3.204
 1913TIP3   OH2 5683   5.582   2.375   1.910
 1913TIP3    H1 5684   5.523   2.315   1.956
 1913TIP3    H2 5685   5.619   2.323   1.839
 1914TIP3   OH2 5686   3.398   0.211   5.634
 1914TIP3    H1 5687   3.465   0.165   5.585
 1914TIP3    H2 5688   3.381   0.155   5.710
 1915TIP3   OH2 5689   5.360   6.470   2.573
 1915TIP3    H1 5690   5.264   6.474   2.575
 1915TIP3    H2 5691   5.387   6.561   2.562
 1916TIP3   OH2 5692   1.250   0.214   2.245
 1916TIP3    H1 5693   1.185   0.265   2.197
 1916TIP3    H2 5694   1.198   0.145   2.288
 1917TIP3   OH2 5695   1.606   2.653   6.357
 1917TIP3    H1 5696   1.664   2.591   6.400
 1917TIP3    H2 5697   1.538   2.672   6.422
 1918TIP3   OH2 5698   0.150   7.344   0.037
 1918TIP3    H1 5699   0.157   7.285   0.111
 1918TIP3    H2 5700   0.223   7.405   0.048
 1919TIP3   OH2 5701   2.991   6.356   4.660
 1919TIP3    H1 5702   2.949   6.298   4.596
 1919TIP3    H2 5703   2.941   6.437   4.656
 1920TIP3   OH2 5704   0.733   5.733   6.252
 1920TIP3    H1 5705   0.779   5.663   6.206
 1920TIP3    H2 5706   0.731   5.704   6.344
 1921TIP3   OH2 5707   8.060   7.705   0.442
 1921TIP3    H1 5708   8.091   7.763   0.512
 1921TIP3    H2 5709   8.006   7.640   0.487
 1922TIP3   OH2 5710   3.642   3.829   0.848
 1922TIP3    H1 5711   3.604   3.883   0.778
 1922TIP3    H2 5712   3.641   3.740   0.813
 1923TIP3   OH2 5713   4.500   3.764   3.897
 1923TIP3    H1 5714   4.469   3.674   3.908
 1923TIP3    H2 5715   4.538   3.787   3.982
 1924TIP3   OH2 5716   3.773   6.988   5.243
 1924TIP3    H1 5717   3.855   7.032   5.264
 1924TIP3    H2 5718   3.705   7.048   5.275
 1925TIP3   OH2 5719   5.993   4.994   5.763
 1925TIP3    H1 5720   6.040   5.036   5.834
 1925TIP3    H2 5721   5.914   5.048   5.751
 1926TIP3   OH2 5722   0.183   3.400   5.533
 1926TIP3    H1 5723   0.179   3.319   5.584
 1926TIP3    H2 5724   0.179   3.470   5.598
 1927TIP3   OH2 5725   7.432   7.823   1.311
 1927TIP3    H1 5726   7.490   7.797   1.238
 1927TIP3    H2 5727   7.344   7.801   1.280
 1928TIP3   OH2 5728   4.718   5.705   3.034
 1928TIP3    H1 5729   4.792   5.764   3.045
 1928TIP3    H2 5730   4.757   5.618   3.027
 1929TIP3   OH2 5731   6.503   7.015   6.445
 1929TIP3    H1 5732   6.445   6.946   6.477
 1929TIP3    H2 5733   6.546   6.978   6.368
 1930TIP3   OH2 5734   5.937   5.978   5.832
 1930TIP3    H1 5735   6.029   6.000   5.821
 1930TIP3    H2 5736   5.897   6.059   5.865
 1931TIP3   OH2 5737   0.477   0.726   2.948
 1931TIP3    H1 5738   0.405   0.719   3.010
 1931TIP3    H2 5739   0.523   0.642   2.955
 1932TIP3   OH2 5740   2.280   3.463   2.397
 1932TIP3    H1 5741   2.217   3.526   2.360
 1932TIP3    H2 5742   2.366   3.498   2.373
 1933TIP3   OH2 5743   2.567   3.380   5.929
 1933TIP3    H1 5744   2.525   3.313   5.876
 1933TIP3    H2 5745   2.494   3.430   5.967
 1934TIP3   OH2 5746   3.927   4.623   0.460
 1934TIP3    H1 5747   3.954   4.572   0.383
 1934TIP3    H2 5748   3.888   4.703   0.423
 1935TIP3   OH2 5749   5.588   3.259   6.475
 1935TIP3    H1 5750   5.654   3.327   6.466
 1935TIP3    H2 5751   5.539   3.262   6.393
 1936TIP3   OH2 5752   0.089   2.260   1.460
 1936TIP3    H1 5753   0.100   2.276   1.366
 1936TIP3    H2 5754  -0.001   2.289   1.478
 1937TIP3   OH2 5755   0.292   4.138   2.826
 1937TIP3    H1 5756   0.275   4.222   2.868
 1937TIP3    H2 5757   0.375   4.150   2.779
 1938TIP3   OH2 5758   7.371   4.935   2.048
 1938TIP3    H1 5759   7.383   5.002   1.980
 1938TIP3    H2 5760   7.442   4.951   2.110
 1939TIP3   OH2 5761   2.877   6.743   6.587
 1939TIP3    H1 5762   2.947   6.767   6.647
 1939TIP3    H2 5763   2.867   6.819   6.530
 1940TIP3   OH2 5764   5.670   2.325   5.104
 1940TIP3    H1 5765   5.736   2.289   5.163
 1940TIP3    H2 5766   5.587   2.304   5.146
 1941TIP3   OH2 5767   4.301   3.227   6.631
 1941TIP3    H1 5768   4.274   3.261   6.545
 1941TIP3    H2 5769   4.267   3.137   6.633
 1942TIP3   OH2 5770   6.010   0.917   2.401
 1942TIP3    H1 5771   5.938   0.969   2.363
 1942TIP3    H2 5772   6.035   0.857   2.332
 1943TIP3   OH2 5773   4.317   5.530   0.081
 1943TIP3    H1 5774   4.321   5.586   0.159
 1943TIP3    H2 5775   4.357   5.583   0.012
 1944TIP3   OH2 5776   4.037   2.303   2.504
 1944TIP3    H1 5777   4.089   2.226   2.525
 1944TIP3    H2 5778   3.947   2.271   2.498
 1945TIP3   OH2 5779   2.840   3.383   3.333
 1945TIP3    H1 5780   2.849   3.479   3.327
 1945TIP3    H2 5781   2.746   3.369   3.337
 1946TIP3   OH2 5782   4.327   6.697   2.293
 1946TIP3    H1 5783   4.418   6.719   2.272
 1946TIP3    H2 5784   4.286   6.782   2.310
 1947TIP3   OH2 5785   7.752   4.193   6.433
 1947TIP3    H1 5786   7.832   4.203   6.484
 1947TIP3    H2 5787   7.706   4.277   6.444
 1948TIP3   OH2 5788   5.212   5.780   0.097
 1948TIP3    H1 5789   5.221   5.784   0.192
 1948TIP3    H2 5790   5.194   5.688   0.078
 1949TIP3   OH2 5791   0.438   6.586   3.613
 1949TIP3    H1 5792   0.438   6.491   3.627
 1949TIP3    H2 5793   0.443   6.623   3.701
 1950TIP3   OH2 5794   0.238   2.684   3.543
 1950TIP3    H1 5795   0.312   2.623   3.546
 1950TIP3    H2 5796   0.161   2.628   3.537
 1951TIP3   OH2 5797   3.708   5.270   4.042
 1951TIP3    H1 5798   3.763   5.346   4.061
 1951TIP3    H2 5799   3.628   5.306   4.004
 1952TIP3   OH2 5800   6.228   2.727   2.441
 1952TIP3    H1 5801   6.152   2.733   2.383
 1952TIP3    H2 5802   6.257   2.636   2.434
 1953TIP3   OH2 5803   5.573   5.766   6.118
 1953TIP3    H1 5804   5.646   5.828   6.120
 1953TIP3    H2 5805   5.589   5.712   6.041
 1954TIP3   OH2 5806   4.021   7.164   5.302
 1954TIP3    H1 5807   4.050   7.128   5.219
 1954TIP3    H2 5808   4.004   7.256   5.284
 1955TIP3   OH2 5809   4.928   3.422   4.284
 1955TIP3    H1 5810   4.882   3.351   4.328
 1955TIP3    H2 5811   4.985   3.377   4.221
 1956TIP3   OH2 5812   8.174   3.118   0.378
 1956TIP3    H1 5813   8.183   3.127   0.283
 1956TIP3    H2 5814   8.252   3.160   0.414
 1957TIP3   OH2 5815   5.131   3.014   6.282
 1957TIP3    H1 5816   5.159   2.940   6.229
 1957TIP3    H2 5817   5.039   3.024   6.262
 1958TIP3   OH2 5818   7.901   1.921   3.079
 1958TIP3    H1 5819   7.899   1.829   3.106
 1958TIP3    H2 5820   7.819   1.958   3.112
 1959TIP3   OH2 5821   3.728   3.835   2.695
 1959TIP3    H1 5822   3.813   3.819   2.655
 1959TIP3    H2 5823   3.746   3.845   2.788
 1960TIP3   OH2 5824   4.136   1.079   6.540
 1960TIP3    H1 5825   4.120   0.991   6.506
 1960TIP3    H2 5826   4.212   1.069   6.597
 1961TIP3   OH2 5827   5.716   2.534   2.702
 1961TIP3    H1 5828   5.812   2.540   2.702
 1961TIP3    H2 5829   5.692   2.544   2.794
 1962TIP3   OH2 5830   4.170   1.624   5.417
 1962TIP3    H1 5831   4.202   1.698   5.364
 1962TIP3    H2 5832   4.076   1.637   5.422
 1963TIP3   OH2 5833   3.191   6.220   5.589
 1963TIP3    H1 5834   3.166   6.271   5.666
 1963TIP3    H2 5835   3.109   6.206   5.542
 1964TIP3   OH2 5836   5.168   7.252   0.645
 1964TIP3    H1 5837   5.229   7.202   0.589
 1964TIP3    H2 5838   5.112   7.185   0.684
 1965TIP3   OH2 5839   1.319   2.213   2.287
 1965TIP3    H1 5840   1.349   2.223   2.378
 1965TIP3    H2 5841   1.378   2.268   2.236
 1966TIP3   OH2 5842   5.252   1.974   6.098
 1966TIP3    H1 5843   5.318   1.991   6.165
 1966TIP3    H2 5844   5.281   2.025   6.022
 1967TIP3   OH2 5845   1.869   0.910   4.241
 1967TIP3    H1 5846   1.775   0.924   4.225
 1967TIP3    H2 5847   1.905   0.888   4.156
 1968TIP3   OH2 5848   2.231   7.051   2.199
 1968TIP3    H1 5849   2.179   7.035   2.278
 1968TIP3    H2 5850   2.296   6.980   2.199
 1969TIP3   OH2 5851   8.021   4.698   2.738
 1969TIP3    H1 5852   7.982   4.628   2.685
 1969TIP3    H2 5853   8.014   4.777   2.683
 1970TIP3   OH2 5854   5.735   1.585   2.364
 1970TIP3    H1 5855   5.765   1.531   2.437
 1970TIP3    H2 5856   5.646   1.555   2.347
 1971TIP3   OH2 5857   4.500   1.478   5.199
 1971TIP3    H1 5858   4.485   1.417   5.271
 1971TIP3    H2 5859   4.451   1.440   5.126
 1972TIP3   OH2 5860   4.486   3.524   0.311
 1972TIP3    H1 5861   4.575   3.550   0.286
 1972TIP3    H2 5862   4.434   3.604   0.300
 1973TIP3   OH2 5863   6.551   5.577   3.988
 1973TIP3    H1 5864   6.612   5.504   3.995
 1973TIP3    H2 5865   6.582   5.640   4.053
 1974TIP3   OH2 5866   3.809   1.703   6.417
 1974TIP3    H1 5867   3.735   1.643   6.407
 1974TIP3    H2 5868   3.770   1.784   6.448
 1975TIP3   OH2 5869   0.051   3.519   5.253
 1975TIP3    H1 5870   0.145   3.503   5.266
 1975TIP3    H2 5871   0.042   3.540   5.160
 1976TIP3   OH2 5872   1.494   3.326   4.920
 1976TIP3    H1 5873   1.480   3.406   4.972
 1976TIP3    H2 5874   1.514   3.358   4.832
 1977TIP3   OH2 5875   2.331   3.057   5.031
 1977TIP3    H1 5876   2.327   3.107   4.949
 1977TIP3    H2 5877   2.411   3.006   5.023
 1978TIP3   OH2 5878   0.070   3.188   2.698
 1978TIP3    H1 5879   0.048   3.102   2.735
 1978TIP3    H2 5880   0.142   3.219   2.753
 1979TIP3   OH2 5881   3.843   4.881   0.308
 1979TIP3    H1 5882   3.810   4.971   0.305
 1979TIP3    H2 5883   3.901   4.874   0.232
 1980TIP3   OH2 5884   2.440   4.156   4.217
 1980TIP3    H1 5885   2.480   4.105   4.287
 1980TIP3    H2 5886   2.346   4.141   4.227
 1981TIP3   OH2 5887   2.958   0.141   5.489
 1981TIP3    H1 5888   2.926   0.058   5.525
 1981TIP3    H2 5889   2.879   0.187   5.461
 1982TIP3   OH2 5890   5.161   7.390   1.065
 1982TIP3    H1 5891   5.178   7.406   1.158
 1982TIP3    H2 5892   5.246   7.364   1.029
 1983TIP3   OH2 5893   1.049   4.117   0.228
 1983TIP3    H1 5894   0.994   4.056   0.179
 1983TIP3    H2 5895   0.998   4.139   0.305
 1984TIP3   OH2 5896   4.838   2.033   4.678
 1984TIP3    H1 5897   4.893   2.006   4.751
 1984TIP3    H2 5898   4.844   2.128   4.676
 1985TIP3   OH2 5899   3.177   7.062   2.299
 1985TIP3    H1 5900   3.148   7.093   2.213
 1985TIP3    H2 5901   3.107   7.088   2.359
 1986TIP3   OH2 5902   7.617   7.730   5.044
 1986TIP3    H1 5903   7.699   7.728   5.093
 1986TIP3    H2 5904   7.557   7.779   5.099
 1987TIP3   OH2 5905   5.361   0.687   3.789
 1987TIP3    H1 5906   5.357   0.769   3.740
 1987TIP3    H2 5907   5.387   0.713   3.877
 1988TIP3   OH2 5908   2.510   5.366   4.847
 1988TIP3    H1 5909   2.546   5.334   4.764
 1988TIP3    H2 5910   2.587   5.376   4.903
 1989TIP3   OH2 5911   0.627   0.923   4.193
 1989TIP3    H1 5912   0.589   0.910   4.106
 1989TIP3    H2 5913   0.693   0.855   4.201
 1990TIP3   OH2 5914   3.469   2.923   5.838
 1990TIP3    H1 5915   3.377   2.905   5.819
 1990TIP3    H2 5916   3.499   2.973   5.762
 1991TIP3   OH2 5917   1.780   6.119   5.707
 1991TIP3    H1 5918   1.846   6.071   5.757
 1991TIP3    H2 5919   1.796   6.211   5.729
 1992TIP3   OH2 5920   6.840   0.703   2.943
 1992TIP3    H1 5921   6.824   0.610   2.955
 1992TIP3    H2 5922   6.793   0.746   3.015
 1993TIP3   OH2 5923   0.053   3.468   0.745
 1993TIP3    H1 5924  -0.042   3.476   0.736
 1993TIP3    H2 5925   0.083   3.557   0.764
 1994TIP3   OH2 5926   0.099   1.959   5.522
 1994TIP3    H1 5927   0.128   1.868   5.520
 1994TIP3    H2 5928   0.125   1.994   5.437
 1995TIP3   OH2 5929   5.199   4.542   0.813
 1995TIP3    H1 5930   5.206   4.609   0.745
 1995TIP3    H2 5931   5.185   4.461   0.765
 1996TIP3   OH2 5932   5.357   5.968   2.010
 1996TIP3    H1 5933   5.381   6.021   1.935
 1996TIP3    H2 5934   5.399   6.011   2.085
 1997TIP3   OH2 5935   4.511   6.927   6.146
 1997TIP3    H1 5936   4.594   6.944   6.191
 1997TIP3    H2 5937   4.446   6.978   6.195
 1998TIP3   OH2 5938   4.544   5.921   5.770
 1998TIP3    H1 5939   4.508   6.000   5.811
 1998TIP3    H2 5940   4.467   5.871   5.742
 1999TIP3   OH2 5941   5.827   4.041   2.076
 1999TIP3    H1 5942   5.751   4.036   2.134
 1999TIP3    H2 5943   5.845   3.950   2.052
 2000TIP3   OH2 5944   7.113   6.736   2.741
 2000TIP3    H1 5945   7.168   6.808   2.773
 2000TIP3    H2 5946   7.065   6.774   2.667
 2001TIP3   OH2 5947   6.740   0.192   3.873
 2001TIP3    H1 5948   6.809   0.212   3.936
 2001TIP3    H2 5949   6.783   0.199   3.788
 2002TIP3   OH2 5950   2.133   2.819   1.115
 2002TIP3    H1 5951   2.039   2.822   1.136
 2002TIP3    H2 5952   2.164   2.738   1.156
 2003TIP3   OH2 5953   4.527   6.065   4.439
 2003TIP3    H1 5954   4.617   6.088   4.414
 2003TIP3    H2 5955   4.532   6.053   4.534
 2004TIP3   OH2 5956   6.584   5.087   0.711
 2004TIP3    H1 5957   6.640   5.019   0.672
 2004TIP3    H2 5958   6.513   5.038   0.752
 2005TIP3   OH2 5959   6.138   6.630   5.533
 2005TIP3    H1 5960   6.180   6.713   5.512
 2005TIP3    H2 5961   6.046   6.652   5.547
 2006TIP3   OH2 5962   3.379   3.000   1.075
 2006TIP3    H1 5963   3.288   3.030   1.079
 2006TIP3    H2 5964   3.388   2.963   0.987
 2007TIP3   OH2 5965   8.313   4.269   5.568
 2007TIP3    H1 5966   8.290   4.347   5.617
 2007TIP3    H2 5967   8.408   4.261   5.579
 2008TIP3   OH2 5968   4.218   0.105   0.784
 2008TIP3    H1 5969   4.143   0.164   0.796
 2008TIP3    H2 5970   4.250   0.088   0.872
 2009TIP3   OH2 5971   6.452   5.712   6.196
 2009TIP3    H1 5972   6.429   5.743   6.283
 2009TIP3    H2 5973   6.456   5.617   6.204
 2010TIP3   OH2 5974   7.844   4.848   0.959
 2010TIP3    H1 5975   7.872   4.921   0.905
 2010TIP3    H2 5976   7.834   4.885   1.046
 2011TIP3   OH2 5977   1.434   4.949   4.796
 2011TIP3    H1 5978   1.525   4.942   4.765
 2011TIP3    H2 5979   1.440   5.004   4.874
 2012TIP3   OH2 5980   6.038   3.487   5.147
 2012TIP3    H1 5981   6.112   3.528   5.192
 2012TIP3    H2 5982   5.968   3.486   5.211
 2013TIP3   OH2 5983   1.972   1.290   0.349
 2013TIP3    H1 5984   1.992   1.349   0.276
 2013TIP3    H2 5985   2.041   1.307   0.413
 2014TIP3   OH2 5986   4.603   2.423   4.538
 2014TIP3    H1 5987   4.677   2.362   4.536
 2014TIP3    H2 5988   4.603   2.463   4.451
 2015TIP3   OH2 5989   5.913   0.298   4.743
 2015TIP3    H1 5990   5.941   0.332   4.658
 2015TIP3    H2 5991   5.952   0.211   4.749
 2016TIP3   OH2 5992   1.696   5.703   1.578
 2016TIP3    H1 5993   1.707   5.719   1.484
 2016TIP3    H2 5994   1.642   5.625   1.584
 2017TIP3   OH2 5995   6.213   7.516   2.436
 2017TIP3    H1 5996   6.220   7.451   2.366
 2017TIP3    H2 5997   6.128   7.499   2.477
 2018TIP3   OH2 5998   6.350   6.661   1.309
 2018TIP3    H1 5999   6.311   6.611   1.380
 2018TIP3    H2 6000   6.277   6.685   1.253
 2019TIP3   OH2 6001   3.345   6.619   3.085
 2019TIP3    H1 6002   3.355   6.524   3.080
 2019TIP3    H2 6003   3.434   6.652   3.095
 2020TIP3   OH2 6004   0.269   6.597   2.895
 2020TIP3    H1 6005   0.266   6.654   2.819
 2020TIP3    H2 6006   0.192   6.620   2.947
 2021TIP3   OH2 6007   4.594   1.784   4.347
 2021TIP3    H1 6008   4.561   1.731   4.275
 2021TIP3    H2 6009   4.537   1.764   4.420
 2022TIP3   OH2 6010   6.422   4.883   4.160
 2022TIP3    H1 6011   6.430   4.975   4.184
 2022TIP3    H2 6012   6.505   4.844   4.187
 2023TIP3   OH2 6013   2.021   0.608   0.895
 2023TIP3    H1 6014   2.054   0.527   0.856
 2023TIP3    H2 6015   1.941   0.582   0.941
 2024TIP3   OH2 6016   3.882   1.638   3.581
 2024TIP3    H1 6017   3.953   1.582   3.612
 2024TIP3    H2 6018   3.803   1.586   3.593
 2025TIP3   OH2 6019   7.835   2.984   0.895
 2025TIP3    H1 6020   7.824   2.920   0.825
 2025TIP3    H2 6021   7.866   2.933   0.970
 2026TIP3   OH2 6022   2.595   2.647   5.219
 2026TIP3    H1 6023   2.686   2.655   5.191
 2026TIP3    H2 6024   2.591   2.696   5.302
 2027TIP3   OH2 6025   8.152   0.619   4.963
 2027TIP3    H1 6026   8.230   0.575   4.931
 2027TIP3    H2 6027   8.107   0.648   4.884
 2028TIP3   OH2 6028   3.799   3.636   6.689
 2028TIP3    H1 6029   3.835   3.548   6.683
 2028TIP3    H2 6030   3.811   3.660   6.781
 2029TIP3   OH2 6031   6.628   2.936   6.714
 2029TIP3    H1 6032   6.596   2.962   6.800
 2029TIP3    H2 6033   6.615   2.841   6.710
 2030TIP3   OH2 6034   6.070   2.691   2.143
 2030TIP3    H1 6035   6.076   2.651   2.229
 2030TIP3    H2 6036   6.014   2.631   2.093
 2031TIP3   OH2 6037   2.894   6.169   4.424
 2031TIP3    H1 6038   2.860   6.164   4.335
 2031TIP3    H2 6039   2.864   6.089   4.466
 2032TIP3   OH2 6040   4.491   7.671   5.433
 2032TIP3    H1 6041   4.495   7.722   5.352
 2032TIP3    H2 6042   4.426   7.603   5.415
 2033TIP3   OH2 6043   2.459   2.470   5.085
 2033TIP3    H1 6044   2.484   2.507   5.001
 2033TIP3    H2 6045   2.512   2.518   5.149
 2034TIP3   OH2 6046   7.983   5.845   3.574
 2034TIP3    H1 6047   7.966   5.873   3.664
 2034TIP3    H2 6048   8.064   5.890   3.550
 2035TIP3   OH2 6049   6.917   4.956   3.487
 2035TIP3    H1 6050   6.872   4.892   3.542
 2035TIP3    H2 6051   6.954   4.904   3.415
 2036TIP3   OH2 6052   4.976   3.315   6.384
 2036TIP3    H1 6053   5.055   3.302   6.437
 2036TIP3    H2 6054   4.982   3.407   6.356
 2037TIP3   OH2 6055   3.147   7.372   0.359
 2037TIP3    H1 6056   3.120   7.326   0.279
 2037TIP3    H2 6057   3.073   7.429   0.380
 2038TIP3   OH2 6058   2.379   3.811   0.619
 2038TIP3    H1 6059   2.377   3.906   0.604
 2038TIP3    H2 6060   2.362   3.802   0.712
 2039TIP3   OH2 6061   5.058   1.331   3.764
 2039TIP3    H1 6062   5.034   1.407   3.710
 2039TIP3    H2 6063   5.032   1.356   3.853
 2040TIP3   OH2 6064   6.015   4.426   4.670
 2040TIP3    H1 6065   5.945   4.485   4.697
 2040TIP3    H2 6066   6.095   4.468   4.703
 2041TIP3   OH2 6067   7.283   3.308   0.896
 2041TIP3    H1 6068   7.257   3.397   0.872
 2041TIP3    H2 6069   7.378   3.307   0.886
 2042TIP3   OH2 6070   3.815   2.285   1.222
 2042TIP3    H1 6071   3.851   2.245   1.302
 2042TIP3    H2 6072   3.892   2.301   1.168
 2043TIP3   OH2 6073   4.040   2.558   6.566
 2043TIP3    H1 6074   3.999   2.550   6.652
 2043TIP3    H2 6075   4.075   2.471   6.548
 2044TIP3   OH2 6076   5.497   3.334   2.726
 2044TIP3    H1 6077   5.497   3.297   2.638
 2044TIP3    H2 6078   5.408   3.319   2.759
 2045TIP3   OH2 6079   7.462   2.667   0.498
 2045TIP3    H1 6080   7.466   2.572   0.486
 2045TIP3    H2 6081   7.444   2.679   0.591
 2046TIP3   OH2 6082   6.140   0.466   1.337
 2046TIP3    H1 6083   6.185   0.462   1.253
 2046TIP3    H2 6084   6.050   0.440   1.317
 2047TIP3   OH2 6085   7.820   3.560   4.425
 2047TIP3    H1 6086   7.742   3.507   4.407
 2047TIP3    H2 6087   7.785   3.642   4.461
 2048TIP3   OH2 6088   4.328   0.224   6.460
 2048TIP3    H1 6089   4.375   0.306   6.443
 2048TIP3    H2 6090   4.297   0.234   6.550
 2049TIP3   OH2 6091   1.282   0.134   0.495
 2049TIP3    H1 6092   1.275   0.168   0.584
 2049TIP3    H2 6093   1.376   0.129   0.478
 2050TIP3   OH2 6094   3.200   6.274   6.520
 2050TIP3    H1 6095   3.113   6.300   6.549
 2050TIP3    H2 6096   3.257   6.295   6.594
 2051TIP3   OH2 6097   5.487   0.212   5.382
 2051TIP3    H1 6098   5.542   0.241   5.455
 2051TIP3    H2 6099   5.549   0.173   5.320
 2052TIP3   OH2 6100   7.514   5.178   5.974
 2052TIP3    H1 6101   7.557   5.142   6.052
 2052TIP3    H2 6102   7.503   5.271   5.994
 2053TIP3   OH2 6103   0.555   6.302   5.717
 2053TIP3    H1 6104   0.542   6.295   5.623
 2053TIP3    H2 6105   0.563   6.396   5.733
 2054TIP3   OH2 6106   6.273   1.685   5.395
 2054TIP3    H1 6107   6.301   1.594   5.402
 2054TIP3    H2 6108   6.208   1.696   5.465
 2055TIP3   OH2 6109   4.482   3.579   1.226
 2055TIP3    H1 6110   4.505   3.488   1.244
 2055TIP3    H2 6111   4.397   3.592   1.267
 2056TIP3   OH2 6112   7.119   7.483   3.452
 2056TIP3    H1 6113   7.099   7.481   3.358
 2056TIP3    H2 6114   7.200   7.432   3.461
 2057TIP3   OH2 6115   2.877   6.557   3.123
 2057TIP3    H1 6116   2.891   6.530   3.214
 2057TIP3    H2 6117   2.782   6.551   3.110
 2058TIP3   OH2 6118   6.929   5.251   2.464
 2058TIP3    H1 6119   6.977   5.316   2.412
 2058TIP3    H2 6120   6.837   5.276   2.453
 2059TIP3   OH2 6121   0.581   5.301   5.687
 2059TIP3    H1 6122   0.530   5.290   5.767
 2059TIP3    H2 6123   0.623   5.216   5.673
 2060TIP3   OH2 6124   4.876   6.728   3.546
 2060TIP3    H1 6125   4.893   6.807   3.597
 2060TIP3    H2 6126   4.906   6.749   3.458
 2061TIP3   OH2 6127   7.659   0.116   5.551
 2061TIP3    H1 6128   7.589   0.154   5.604
 2061TIP3    H2 6129   7.737   0.164   5.576
 2062TIP3   OH2 6130   8.186   2.315   3.340
 2062TIP3    H1 6131   8.103   2.345   3.378
 2062TIP3    H2 6132   8.161   2.269   3.260
 2063TIP3   OH2 6133   1.791   2.456   3.632
 2063TIP3    H1 6134   1.802   2.361   3.627
 2063TIP3    H2 6135   1.880   2.490   3.638
 2064TIP3   OH2 6136   3.883   7.302   6.484
 2064TIP3    H1 6137   3.871   7.257   6.400
 2064TIP3    H2 6138   3.797   7.296   6.526
 2065TIP3   OH2 6139   1.507   1.378   1.125
 2065TIP3    H1 6140   1.567   1.307   1.145
 2065TIP3    H2 6141   1.423   1.349   1.161
 2066TIP3   OH2 6142   5.972   6.904   0.397
 2066TIP3    H1 6143   6.024   6.956   0.458
 2066TIP3    H2 6144   6.011   6.921   0.312
 2067TIP3   OH2 6145   5.808   4.045   6.511
 2067TIP3    H1 6146   5.796   4.102   6.435
 2067TIP3    H2 6147   5.721   4.043   6.553
 2068TIP3   OH2 6148   3.239   5.781   0.316
 2068TIP3    H1 6149   3.165   5.720   0.325
 2068TIP3    H2 6150   3.206   5.849   0.257
 2069TIP3   OH2 6151   4.002   7.463   0.298
 2069TIP3    H1 6152   3.956   7.473   0.381
 2069TIP3    H2 6153   3.955   7.392   0.253
 2070TIP3   OH2 6154   2.756   1.173   5.483
 2070TIP3    H1 6155   2.760   1.268   5.473
 2070TIP3    H2 6156   2.841   1.142   5.453
 2071TIP3   OH2 6157   0.087   5.124   3.904
 2071TIP3    H1 6158   0.003   5.168   3.917
 2071TIP3    H2 6159   0.103   5.078   3.986
 2072TIP3   OH2 6160   3.452   1.757   0.043
 2072TIP3    H1 6161   3.528   1.805   0.009
 2072TIP3    H2 6162   3.376   1.804   0.008
 2073TIP3   OH2 6163   5.428   5.333   2.889
 2073TIP3    H1 6164   5.426   5.352   2.795
 2073TIP3    H2 6165   5.347   5.285   2.906
 2074TIP3   OH2 6166   4.220   4.560   2.701
 2074TIP3    H1 6167   4.151   4.494   2.702
 2074TIP3    H2 6168   4.179   4.638   2.664
 2075TIP3   OH2 6169   5.318   2.279   1.230
 2075TIP3    H1 6170   5.245   2.255   1.286
 2075TIP3    H2 6171   5.277   2.306   1.147
 2076TIP3   OH2 6172   1.878   4.918   1.993
 2076TIP3    H1 6173   1.918   4.974   1.926
 2076TIP3    H2 6174   1.858   4.978   2.065
 2077TIP3   OH2 6175   6.441   0.508   4.455
 2077TIP3    H1 6176   6.429   0.462   4.538
 2077TIP3    H2 6177   6.445   0.600   4.480
 2078TIP3   OH2 6178   2.448   6.959   5.770
 2078TIP3    H1 6179   2.365   6.919   5.744
 2078TIP3    H2 6180   2.480   7.000   5.690
 2079TIP3   OH2 6181   7.696   3.882   1.709
 2079TIP3    H1 6182   7.650   3.887   1.793
 2079TIP3    H2 6183   7.728   3.792   1.704
 2080TIP3   OH2 6184   6.340   0.346   0.095
 2080TIP3    H1 6185   6.307   0.435   0.086
 2080TIP3    H2 6186   6.435   0.356   0.098
 2081TIP3   OH2 6187   7.016   1.102   5.289
 2081TIP3    H1 6188   6.968   1.185   5.293
 2081TIP3    H2 6189   6.954   1.041   5.248
 2082TIP3   OH2 6190   7.925   3.744   2.434
 2082TIP3    H1 6191   7.936   3.839   2.431
 2082TIP3    H2 6192   7.910   3.725   2.527
 2083TIP3   OH2 6193   7.583   7.508   4.883
 2083TIP3    H1 6194   7.525   7.542   4.815
 2083TIP3    H2 6195   7.595   7.581   4.943
 2084TIP3   OH2 6196   6.153   5.690   0.120
 2084TIP3    H1 6197   6.112   5.673   0.035
 2084TIP3    H2 6198   6.194   5.776   0.110
 2085TIP3   OH2 6199   1.209   4.491   3.166
 2085TIP3    H1 6200   1.277   4.501   3.099
 2085TIP3    H2 6201   1.212   4.398   3.188
 2086TIP3   OH2 6202   4.111   5.303   3.609
 2086TIP3    H1 6203   4.101   5.338   3.521
 2086TIP3    H2 6204   4.132   5.210   3.596
 2087TIP3   OH2 6205   4.170   0.827   6.382
 2087TIP3    H1 6206   4.212   0.904   6.344
 2087TIP3    H2 6207   4.143   0.775   6.307
 2088TIP3   OH2 6208   3.060   2.242   0.351
 2088TIP3    H1 6209   3.006   2.269   0.425
 2088TIP3    H2 6210   3.025   2.156   0.326
 2089TIP3   OH2 6211   1.347   4.510   1.008
 2089TIP3    H1 6212   1.314   4.449   0.942
 2089TIP3    H2 6213   1.285   4.501   1.081
 2090TIP3   OH2 6214   3.007   4.666   5.334
 2090TIP3    H1 6215   2.995   4.583   5.379
 2090TIP3    H2 6216   3.083   4.706   5.376
 2091TIP3   OH2 6217   5.202   6.638   4.651
 2091TIP3    H1 6218   5.254   6.612   4.574
 2091TIP3    H2 6219   5.178   6.556   4.692
 2092TIP3   OH2 6220   4.744   4.892   2.628
 2092TIP3    H1 6221   4.740   4.894   2.532
 2092TIP3    H2 6222   4.833   4.864   2.648
 2093TIP3   OH2 6223   1.657   0.061   4.469
 2093TIP3    H1 6224   1.691   0.100   4.550
 2093TIP3    H2 6225   1.601  -0.011   4.499
 2094TIP3   OH2 6226   2.660   4.795   4.611
 2094TIP3    H1 6227   2.594   4.864   4.618
 2094TIP3    H2 6228   2.661   4.754   4.697
 2095TIP3   OH2 6229   1.142   1.837   2.069
 2095TIP3    H1 6230   1.137   1.834   1.974
 2095TIP3    H2 6231   1.158   1.746   2.096
 2096TIP3   OH2 6232   0.418   6.397   4.484
 2096TIP3    H1 6233   0.362   6.332   4.440
 2096TIP3    H2 6234   0.392   6.391   4.576
 2097TIP3   OH2 6235   5.520   5.527   5.751
 2097TIP3    H1 6236   5.526   5.621   5.770
 2097TIP3    H2 6237   5.600   5.490   5.788
 2098TIP3   OH2 6238   1.656   4.662   6.077
 2098TIP3    H1 6239   1.661   4.688   5.985
 2098TIP3    H2 6240   1.611   4.735   6.120
 2099TIP3   OH2 6241   1.445   5.304   4.894
 2099TIP3    H1 6242   1.516   5.282   4.834
 2099TIP3    H2 6243   1.470   5.388   4.932
 2100TIP3   OH2 6244   7.605   4.673   6.194
 2100TIP3    H1 6245   7.554   4.748   6.163
 2100TIP3    H2 6246   7.603   4.680   6.290
 2101TIP3   OH2 6247   2.222   7.759   6.518
 2101TIP3    H1 6248   2.208   7.853   6.504
 2101TIP3    H2 6249   2.232   7.751   6.613
 2102TIP3   OH2 6250   5.981   5.541   4.901
 2102TIP3    H1 6251   5.954   5.610   4.841
 2102TIP3    H2 6252   5.946   5.568   4.986
 2103TIP3   OH2 6253   5.786   1.837   2.848
 2103TIP3    H1 6254   5.810   1.823   2.757
 2103TIP3    H2 6255   5.707   1.890   2.845
 2104TIP3   OH2 6256   0.867   7.236   6.066
 2104TIP3    H1 6257   0.920   7.164   6.099
 2104TIP3    H2 6258   0.842   7.286   6.144
 2105TIP3   OH2 6259   3.926   4.552   2.348
 2105TIP3    H1 6260   4.015   4.576   2.322
 2105TIP3    H2 6261   3.934   4.462   2.380
 2106TIP3   OH2 6262   3.787   5.666   3.719
 2106TIP3    H1 6263   3.790   5.578   3.681
 2106TIP3    H2 6264   3.878   5.693   3.725
 2107TIP3   OH2 6265   6.004   2.501   2.732
 2107TIP3    H1 6266   5.993   2.426   2.790
 2107TIP3    H2 6267   6.088   2.539   2.757
 2108TIP3   OH2 6268   0.510   7.296   0.915
 2108TIP3    H1 6269   0.438   7.242   0.949
 2108TIP3    H2 6270   0.579   7.234   0.894
 2109TIP3   OH2 6271   5.180   3.656   2.199
 2109TIP3    H1 6272   5.220   3.663   2.285
 2109TIP3    H2 6273   5.139   3.570   2.198
 2110TIP3   OH2 6274   1.948   4.465   5.708
 2110TIP3    H1 6275   1.938   4.422   5.622
 2110TIP3    H2 6276   1.967   4.393   5.768
 2111TIP3   OH2 6277   5.956   1.604   5.305
 2111TIP3    H1 6278   5.940   1.697   5.290
 2111TIP3    H2 6279   5.891   1.559   5.252
 2112TIP3   OH2 6280   2.899   4.125   4.835
 2112TIP3    H1 6281   2.955   4.073   4.777
 2112TIP3    H2 6282   2.898   4.075   4.917
 2113TIP3   OH2 6283   6.182   2.641   6.062
 2113TIP3    H1 6284   6.239   2.708   6.100
 2113TIP3    H2 6285   6.094   2.665   6.092
 2114TIP3   OH2 6286   0.427   7.728   5.658
 2114TIP3    H1 6287   0.487   7.751   5.729
 2114TIP3    H2 6288   0.354   7.685   5.701
 2115TIP3   OH2 6289   1.188   3.785   5.651
 2115TIP3    H1 6290   1.275   3.786   5.692
 2115TIP3    H2 6291   1.181   3.697   5.613
 2116TIP3   OH2 6292   6.898   5.750   3.937
 2116TIP3    H1 6293   6.955   5.815   3.896
 2116TIP3    H2 6294   6.817   5.797   3.956
 2117TIP3   OH2 6295   3.154   3.593   2.439
 2117TIP3    H1 6296   3.071   3.622   2.475
 2117TIP3    H2 6297   3.207   3.571   2.516
 2118TIP3   OH2 6298   5.051   7.623   3.770
 2118TIP3    H1 6299   5.012   7.570   3.839
 2118TIP3    H2 6300   5.036   7.713   3.797
 2119TIP3   OH2 6301   4.232   5.796   0.839
 2119TIP3    H1 6302   4.182   5.733   0.892
 2119TIP3    H2 6303   4.279   5.742   0.775
 2120TIP3   OH2 6304   6.910   5.227   2.729
 2120TIP3    H1 6305   6.914   5.224   2.633
 2120TIP3    H2 6306   6.932   5.137   2.756
 2121TIP3   OH2 6307   5.202   5.067   3.789
 2121TIP3    H1 6308   5.236   5.154   3.809
 2121TIP3    H2 6309   5.140   5.048   3.859
 2122TIP3   OH2 6310   1.843   6.310   0.493
 2122TIP3    H1 6311   1.906   6.243   0.519
 2122TIP3    H2 6312   1.841   6.371   0.567
 2123TIP3   OH2 6313   4.916   5.777   5.407
 2123TIP3    H1 6314   4.888   5.848   5.465
 2123TIP3    H2 6315   4.881   5.802   5.321
 2124TIP3   OH2 6316   6.176   4.592   6.632
 2124TIP3    H1 6317   6.200   4.684   6.624
 2124TIP3    H2 6318   6.147   4.566   6.545
 2125TIP3   OH2 6319   7.507   0.068   1.129
 2125TIP3    H1 6320   7.448   0.138   1.101
 2125TIP3    H2 6321   7.450  -0.009   1.135
 2126TIP3   OH2 6322   5.681   6.898   4.368
 2126TIP3    H1 6323   5.769   6.869   4.390
 2126TIP3    H2 6324   5.691   6.988   4.337
 2127TIP3   OH2 6325   3.673   1.320   1.343
 2127TIP3    H1 6326   3.579   1.313   1.333
 2127TIP3    H2 6327   3.705   1.230   1.339
 2128TIP3   OH2 6328   4.095   2.254   5.433
 2128TIP3    H1 6329   4.135   2.265   5.346
 2128TIP3    H2 6330   4.152   2.192   5.478
 2129TIP3   OH2 6331   6.437   2.242   1.537
 2129TIP3    H1 6332   6.515   2.297   1.543
 2129TIP3    H2 6333   6.468   2.155   1.559
 2130TIP3   OH2 6334   7.873   0.113   1.611
 2130TIP3    H1 6335   7.887   0.208   1.616
 2130TIP3    H2 6336   7.782   0.104   1.583
 2131TIP3   OH2 6337   5.527   3.104   1.784
 2131TIP3    H1 6338   5.462   3.170   1.808
 2131TIP3    H2 6339   5.610   3.152   1.780
 2132TIP3   OH2 6340   6.067   4.935   3.612
 2132TIP3    H1 6341   6.025   4.863   3.566
 2132TIP3    H2 6342   5.995   4.981   3.656
 2133TIP3   OH2 6343   0.980   5.557   6.735
 2133TIP3    H1 6344   1.044   5.612   6.781
 2133TIP3    H2 6345   0.945   5.613   6.666
 2134TIP3   OH2 6346   5.093   4.603   1.241
 2134TIP3    H1 6347   5.058   4.534   1.185
 2134TIP3    H2 6348   5.082   4.683   1.190
 2135TIP3   OH2 6349   6.443   2.963   3.517
 2135TIP3    H1 6350   6.504   2.923   3.455
 2135TIP3    H2 6351   6.417   3.045   3.476
 2136TIP3   OH2 6352   1.695   4.770   0.869
 2136TIP3    H1 6353   1.760   4.812   0.926
 2136TIP3    H2 6354   1.730   4.682   0.854
 2137TIP3   OH2 6355   6.009   1.568   2.526
 2137TIP3    H1 6356   6.063   1.533   2.456
 2137TIP3    H2 6357   6.064   1.633   2.570
 2138TIP3   OH2 6358   1.819   3.282   4.775
 2138TIP3    H1 6359   1.867   3.310   4.853
 2138TIP3    H2 6360   1.878   3.222   4.730
 2139TIP3   OH2 6361   7.404   0.638   1.032
 2139TIP3    H1 6362   7.458   0.595   0.965
 2139TIP3    H2 6363   7.317   0.643   0.992
 2140TIP3   OH2 6364   4.951   5.537   0.475
 2140TIP3    H1 6365   5.041   5.514   0.497
 2140TIP3    H2 6366   4.958   5.618   0.425
 2141TIP3   OH2 6367   1.984   1.748   0.042
 2141TIP3    H1 6368   1.958   1.679  -0.019
 2141TIP3    H2 6369   2.074   1.726   0.065
 2142TIP3   OH2 6370   6.842   5.461   1.443
 2142TIP3    H1 6371   6.848   5.556   1.434
 2142TIP3    H2 6372   6.805   5.447   1.531
 2143TIP3   OH2 6373   1.914   2.095   5.905
 2143TIP3    H1 6374   1.900   2.020   5.963
 2143TIP3    H2 6375   1.827   2.121   5.877
 2144TIP3   OH2 6376   0.673   4.170   6.149
 2144TIP3    H1 6377   0.740   4.106   6.126
 2144TIP3    H2 6378   0.617   4.124   6.213
 2145TIP3   OH2 6379   2.910   4.818   4.769
 2145TIP3    H1 6380   2.907   4.830   4.864
 2145TIP3    H2 6381   2.882   4.902   4.733
 2146TIP3   OH2 6382   4.773   6.488   4.285
 2146TIP3    H1 6383   4.754   6.395   4.273
 2146TIP3    H2 6384   4.746   6.507   4.375
 2147TIP3   OH2 6385   4.686   0.779   5.841
 2147TIP3    H1 6386   4.671   0.686   5.823
 2147TIP3    H2 6387   4.598   0.817   5.845
 2148TIP3   OH2 6388   3.553   6.033   2.365
 2148TIP3    H1 6389   3.562   5.938   2.370
 2148TIP3    H2 6390   3.489   6.055   2.433
 2149TIP3   OH2 6391   1.997   2.749   3.294
 2149TIP3    H1 6392   1.977   2.772   3.384
 2149TIP3    H2 6393   2.085   2.784   3.279
 2150TIP3   OH2 6394   0.504   2.310   2.181
 2150TIP3    H1 6395   0.473   2.220   2.187
 2150TIP3    H2 6396   0.592   2.309   2.218
 2151TIP3   OH2 6397   5.517   6.139   3.817
 2151TIP3    H1 6398   5.476   6.053   3.806
 2151TIP3    H2 6399   5.446   6.196   3.845
 2152TIP3   OH2 6400   4.863   5.719   1.978
 2152TIP3    H1 6401   4.894   5.808   1.961
 2152TIP3    H2 6402   4.904   5.666   1.910
 2153TIP3   OH2 6403   2.292   5.268   6.176
 2153TIP3    H1 6404   2.254   5.193   6.222
 2153TIP3    H2 6405   2.299   5.239   6.085
 2154TIP3   OH2 6406   4.715   1.094   0.607
 2154TIP3    H1 6407   4.712   1.006   0.568
 2154TIP3    H2 6408   4.652   1.090   0.679
 2155TIP3   OH2 6409   6.440   7.204   6.643
 2155TIP3    H1 6410   6.476   7.282   6.601
 2155TIP3    H2 6411   6.461   7.133   6.582
 2156TIP3   OH2 6412   7.018   1.389   0.219
 2156TIP3    H1 6413   7.088   1.377   0.155
 2156TIP3    H2 6414   7.056   1.446   0.286
 2157TIP3   OH2 6415   3.936   0.968   4.785
 2157TIP3    H1 6416   3.900   1.029   4.850
 2157TIP3    H2 6417   3.860   0.922   4.750
 2158TIP3   OH2 6418   5.165   4.376   6.034
 2158TIP3    H1 6419   5.252   4.341   6.052
 2158TIP3    H2 6420   5.106   4.321   6.086
 2159TIP3   OH2 6421   3.580   7.666   3.610
 2159TIP3    H1 6422   3.539   7.602   3.668
 2159TIP3    H2 6423   3.643   7.615   3.560
 2160TIP3   OH2 6424   5.131   3.140   0.693
 2160TIP3    H1 6425   5.043   3.179   0.684
 2160TIP3    H2 6426   5.177   3.200   0.752
 2161TIP3   OH2 6427   4.394   3.898   2.899
 2161TIP3    H1 6428   4.418   3.930   2.811
 2161TIP3    H2 6429   4.431   3.963   2.959
 2162TIP3   OH2 6430   7.045   1.860   3.276
 2162TIP3    H1 6431   6.998   1.806   3.339
 2162TIP3    H2 6432   7.137   1.837   3.290
 2163TIP3   OH2 6433   4.589   3.281   6.009
 2163TIP3    H1 6434   4.519   3.216   6.011
 2163TIP3    H2 6435   4.550   3.360   6.046
 2164TIP3   OH2 6436   2.924   1.284   2.750
 2164TIP3    H1 6437   3.018   1.267   2.747
 2164TIP3    H2 6438   2.911   1.334   2.831
 2165TIP3   OH2 6439   6.729   3.501   0.239
 2165TIP3    H1 6440   6.800   3.524   0.179
 2165TIP3    H2 6441   6.773   3.473   0.319
 2166TIP3   OH2 6442   4.122   5.096   2.417
 2166TIP3    H1 6443   4.096   5.158   2.485
 2166TIP3    H2 6444   4.080   5.129   2.338
 2167TIP3   OH2 6445   5.009   5.784   3.332
 2167TIP3    H1 6446   4.939   5.836   3.293
 2167TIP3    H2 6447   5.057   5.845   3.388
 2168TIP3   OH2 6448   3.800   2.883   3.262
 2168TIP3    H1 6449   3.888   2.904   3.229
 2168TIP3    H2 6450   3.797   2.924   3.348
 2169TIP3   OH2 6451   3.852   6.976   4.731
 2169TIP3    H1 6452   3.819   6.944   4.815
 2169TIP3    H2 6453   3.852   7.071   4.739
 2170TIP3   OH2 6454   0.262   0.520   2.151
 2170TIP3    H1 6455   0.273   0.536   2.057
 2170TIP3    H2 6456   0.282   0.427   2.162
 2171TIP3   OH2 6457   4.735   1.088   6.000
 2171TIP3    H1 6458   4.643   1.102   5.975
 2171TIP3    H2 6459   4.769   1.029   5.932
 2172TIP3   OH2 6460   6.927   4.846   4.511
 2172TIP3    H1 6461   7.008   4.798   4.521
 2172TIP3    H2 6462   6.952   4.938   4.518
 2173TIP3   OH2 6463   1.527   5.207   0.881
 2173TIP3    H1 6464   1.441   5.220   0.921
 2173TIP3    H2 6465   1.528   5.115   0.855
 2174TIP3   OH2 6466   6.748   6.510   6.556
 2174TIP3    H1 6467   6.793   6.574   6.502
 2174TIP3    H2 6468   6.766   6.536   6.646
 2175TIP3   OH2 6469   4.779   5.997   2.883
 2175TIP3    H1 6470   4.853   6.057   2.873
 2175TIP3    H2 6471   4.805   5.918   2.835
 2176TIP3   OH2 6472   2.889   0.461   4.506
 2176TIP3    H1 6473   2.834   0.539   4.504
 2176TIP3    H2 6474   2.929   0.459   4.419
 2177TIP3   OH2 6475   2.835   4.978   3.694
 2177TIP3    H1 6476   2.834   4.961   3.788
 2177TIP3    H2 6477   2.895   5.052   3.684
 2178TIP3   OH2 6478   2.450   6.467   2.661
 2178TIP3    H1 6479   2.542   6.470   2.686
 2178TIP3    H2 6480   2.432   6.375   2.645
 2179TIP3   OH2 6481   2.683   6.017   5.301
 2179TIP3    H1 6482   2.724   6.017   5.214
 2179TIP3    H2 6483   2.738   5.960   5.354
 2180TIP3   OH2 6484   2.426   0.323   3.437
 2180TIP3    H1 6485   2.372   0.349   3.513
 2180TIP3    H2 6486   2.380   0.248   3.400
 2181TIP3   OH2 6487   1.378   3.207   4.158
 2181TIP3    H1 6488   1.285   3.225   4.146
 2181TIP3    H2 6489   1.412   3.197   4.069
 2182TIP3   OH2 6490   0.734   5.859   2.625
 2182TIP3    H1 6491   0.780   5.841   2.542
 2182TIP3    H2 6492   0.642   5.850   2.603
 2183TIP3   OH2 6493   7.913   7.784   2.646
 2183TIP3    H1 6494   7.852   7.852   2.619
 2183TIP3    H2 6495   7.940   7.743   2.564
 2184TIP3   OH2 6496   1.453   7.507   3.478
 2184TIP3    H1 6497   1.404   7.540   3.403
 2184TIP3    H2 6498   1.387   7.472   3.537
 2185TIP3   OH2 6499   2.571   6.397   6.396
 2185TIP3    H1 6500   2.497   6.455   6.410
 2185TIP3    H2 6501   2.569   6.378   6.302
 2186TIP3   OH2 6502   7.456   1.612   4.108
 2186TIP3    H1 6503   7.407   1.587   4.187
 2186TIP3    H2 6504   7.408   1.571   4.036
 2187TIP3   OH2 6505   1.676   1.301   4.118
 2187TIP3    H1 6506   1.696   1.346   4.200
 2187TIP3    H2 6507   1.632   1.220   4.145
 2188TIP3   OH2 6508   0.478   7.270   2.271
 2188TIP3    H1 6509   0.554   7.215   2.289
 2188TIP3    H2 6510   0.408   7.232   2.324
 2189TIP3   OH2 6511   3.827   7.316   3.361
 2189TIP3    H1 6512   3.785   7.235   3.331
 2189TIP3    H2 6513   3.921   7.295   3.366
 2190TIP3   OH2 6514   1.566   7.708   0.066
 2190TIP3    H1 6515   1.481   7.668   0.082
 2190TIP3    H2 6516   1.551   7.769  -0.006
 2191TIP3   OH2 6517   4.292   1.381   3.137
 2191TIP3    H1 6518   4.359   1.450   3.131
 2191TIP3    H2 6519   4.314   1.333   3.216
 2192TIP3   OH2 6520   3.704   7.687   4.008
 2192TIP3    H1 6521   3.744   7.694   3.922
 2192TIP3    H2 6522   3.737   7.604   4.043
 2193TIP3   OH2 6523   4.465   5.900   6.086
 2193TIP3    H1 6524   4.398   5.959   6.051
 2193TIP3    H2 6525   4.419   5.817   6.100
 2194TIP3   OH2 6526   3.143   6.177   3.836
 2194TIP3    H1 6527   3.125   6.098   3.887
 2194TIP3    H2 6528   3.170   6.144   3.750
 2195TIP3   OH2 6529   0.699   0.747   5.521
 2195TIP3    H1 6530   0.765   0.744   5.589
 2195TIP3    H2 6531   0.671   0.656   5.510
 2196TIP3   OH2 6532   3.632   0.842   3.007
 2196TIP3    H1 6533   3.672   0.755   3.019
 2196TIP3    H2 6534   3.538   0.826   3.010
 2197TIP3   OH2 6535   3.039   5.547   1.390
 2197TIP3    H1 6536   2.966   5.582   1.339
 2197TIP3    H2 6537   2.998   5.499   1.461
 2198TIP3   OH2 6538   6.589   5.694   5.480
 2198TIP3    H1 6539   6.600   5.602   5.503
 2198TIP3    H2 6540   6.499   5.714   5.505
 2199TIP3   OH2 6541   7.940   7.182   5.368
 2199TIP3    H1 6542   8.018   7.190   5.423
 2199TIP3    H2 6543   7.869   7.212   5.424
 2200TIP3   OH2 6544   2.157   4.540   5.347
 2200TIP3    H1 6545   2.129   4.626   5.378
 2200TIP3    H2 6546   2.086   4.481   5.372
 2201TIP3   OH2 6547   2.957   7.645   1.819
 2201TIP3    H1 6548   2.912   7.726   1.793
 2201TIP3    H2 6549   2.896   7.575   1.795
 2202TIP3   OH2 6550   7.182   1.878   6.440
 2202TIP3    H1 6551   7.164   1.956   6.388
 2202TIP3    H2 6552   7.245   1.907   6.506
 2203TIP3   OH2 6553   3.688   6.888   1.636
 2203TIP3    H1 6554   3.606   6.855   1.600
 2203TIP3    H2 6555   3.755   6.860   1.573
 2204TIP3   OH2 6556   5.562   6.265   0.915
 2204TIP3    H1 6557   5.592   6.272   1.005
 2204TIP3    H2 6558   5.532   6.174   0.907
 2205TIP3   OH2 6559   5.498   7.694   0.966
 2205TIP3    H1 6560   5.491   7.611   1.013
 2205TIP3    H2 6561   5.410   7.709   0.930
 2206TIP3   OH2 6562   1.548   7.103   5.061
 2206TIP3    H1 6563   1.618   7.081   5.122
 2206TIP3    H2 6564   1.468   7.099   5.114
 2207TIP3   OH2 6565   2.650   7.349   6.524
 2207TIP3    H1 6566   2.622   7.406   6.596
 2207TIP3    H2 6567   2.574   7.344   6.466
 2208TIP3   OH2 6568   3.175   5.647   6.676
 2208TIP3    H1 6569   3.109   5.583   6.651
 2208TIP3    H2 6570   3.138   5.731   6.650
 2209TIP3   OH2 6571   7.807   5.761   2.569
 2209TIP3    H1 6572   7.855   5.820   2.628
 2209TIP3    H2 6573   7.715   5.778   2.588
 2210TIP3   OH2 6574   4.205   2.035   1.974
 2210TIP3    H1 6575   4.172   2.087   1.901
 2210TIP3    H2 6576   4.145   2.053   2.046
 2211TIP3   OH2 6577   8.110   7.056   3.667
 2211TIP3    H1 6578   8.103   7.010   3.750
 2211TIP3    H2 6579   8.046   7.013   3.610
 2212TIP3   OH2 6580   8.095   6.444   2.089
 2212TIP3    H1 6581   8.073   6.353   2.107
 2212TIP3    H2 6582   8.176   6.459   2.138
 2213TIP3   OH2 6583   2.499   5.766   2.511
 2213TIP3    H1 6584   2.559   5.826   2.467
 2213TIP3    H2 6585   2.549   5.684   2.519
 2214TIP3   OH2 6586   0.907   5.281   3.900
 2214TIP3    H1 6587   0.909   5.259   3.807
 2214TIP3    H2 6588   0.986   5.241   3.936
 2215TIP3   OH2 6589   2.868   6.147   2.716
 2215TIP3    H1 6590   2.902   6.080   2.657
 2215TIP3    H2 6591   2.894   6.230   2.676
 2216TIP3   OH2 6592   5.767   3.765   3.818
 2216TIP3    H1 6593   5.763   3.702   3.746
 2216TIP3    H2 6594   5.812   3.841   3.781
 2217TIP3   OH2 6595   6.384   0.610   3.270
 2217TIP3    H1 6596   6.385   0.605   3.174
 2217TIP3    H2 6597   6.469   0.575   3.297
 2218TIP3   OH2 6598   0.292   0.399   4.937
 2218TIP3    H1 6599   0.244   0.409   4.855
 2218TIP3    H2 6600   0.337   0.482   4.950
 2219TIP3   OH2 6601   4.038   7.149   0.932
 2219TIP3    H1 6602   3.961   7.129   0.985
 2219TIP3    H2 6603   4.026   7.100   0.851
 2220TIP3   OH2 6604   6.412   6.041   3.134
 2220TIP3    H1 6605   6.421   5.951   3.102
 2220TIP3    H2 6606   6.480   6.090   3.087
 2221TIP3   OH2 6607   6.051   6.712   1.725
 2221TIP3    H1 6608   6.136   6.739   1.760
 2221TIP3    H2 6609   6.006   6.672   1.799
 2222TIP3   OH2 6610   1.622   4.946   0.650
 2222TIP3    H1 6611   1.689   5.014   0.659
 2222TIP3    H2 6612   1.643   4.883   0.719
 2223TIP3   OH2 6613   6.458   0.788   6.456
 2223TIP3    H1 6614   6.421   0.876   6.462
 2223TIP3    H2 6615   6.526   0.795   6.389
 2224TIP3   OH2 6616   3.647   4.551   0.134
 2224TIP3    H1 6617   3.637   4.548   0.229
 2224TIP3    H2 6618   3.658   4.460   0.108
 2225TIP3   OH2 6619   1.005   3.891   6.411
 2225TIP3    H1 6620   0.979   3.844   6.332
 2225TIP3    H2 6621   1.098   3.870   6.422
 2226TIP3   OH2 6622   4.390   7.154   2.778
 2226TIP3    H1 6623   4.378   7.170   2.685
 2226TIP3    H2 6624   4.404   7.059   2.785
 2227TIP3   OH2 6625   6.493   6.014   2.237
 2227TIP3    H1 6626   6.573   5.963   2.228
 2227TIP3    H2 6627   6.467   6.034   2.146
 2228TIP3   OH2 6628   2.641   5.824   1.413
 2228TIP3    H1 6629   2.645   5.917   1.392
 2228TIP3    H2 6630   2.550   5.809   1.440
 2229TIP3   OH2 6631   7.149   4.226   0.150
 2229TIP3    H1 6632   7.122   4.318   0.152
 2229TIP3    H2 6633   7.074   4.178   0.183
 2230TIP3   OH2 6634   5.026   0.966   1.671
 2230TIP3    H1 6635   5.118   0.939   1.662
 2230TIP3    H2 6636   5.024   1.016   1.752
 2231TIP3   OH2 6637   1.586   3.603   6.748
 2231TIP3    H1 6638   1.594   3.563   6.661
 2231TIP3    H2 6639   1.515   3.556   6.790
 2232TIP3   OH2 6640   6.397   5.809   5.200
 2232TIP3    H1 6641   6.346   5.853   5.132
 2232TIP3    H2 6642   6.486   5.840   5.187
 2233TIP3   OH2 6643   3.824   5.309   0.650
 2233TIP3    H1 6644   3.755   5.355   0.604
 2233TIP3    H2 6645   3.806   5.325   0.743
 2234TIP3   OH2 6646   6.773   1.677   2.014
 2234TIP3    H1 6647   6.834   1.654   2.084
 2234TIP3    H2 6648   6.694   1.707   2.060
 2235TIP3   OH2 6649   3.113   4.164   4.242
 2235TIP3    H1 6650   3.084   4.077   4.214
 2235TIP3    H2 6651   3.155   4.202   4.165
 2236TIP3   OH2 6652   6.736   2.840   4.802
 2236TIP3    H1 6653   6.665   2.845   4.867
 2236TIP3    H2 6654   6.807   2.796   4.849
 2237TIP3   OH2 6655   6.835   5.186   2.105
 2237TIP3    H1 6656   6.766   5.138   2.150
 2237TIP3    H2 6657   6.916   5.157   2.149
 2238TIP3   OH2 6658   1.855   0.564   5.127
 2238TIP3    H1 6659   1.764   0.547   5.154
 2238TIP3    H2 6660   1.875   0.493   5.066
 2239TIP3   OH2 6661   2.526   2.157   3.595
 2239TIP3    H1 6662   2.559   2.084   3.647
 2239TIP3    H2 6663   2.518   2.121   3.506
 2240TIP3   OH2 6664   0.766   0.722   3.527
 2240TIP3    H1 6665   0.859   0.745   3.527
 2240TIP3    H2 6666   0.760   0.648   3.588
 2241TIP3   OH2 6667   6.177   6.065   1.002
 2241TIP3    H1 6668   6.222   6.099   0.925
 2241TIP3    H2 6669   6.165   5.972   0.985
 2242TIP3   OH2 6670   1.200   3.122   3.093
 2242TIP3    H1 6671   1.106   3.121   3.112
 2242TIP3    H2 6672   1.228   3.031   3.104
 2243TIP3   OH2 6673   7.184   2.611   3.381
 2243TIP3    H1 6674   7.112   2.640   3.325
 2243TIP3    H2 6675   7.163   2.648   3.467
 2244TIP3   OH2 6676   1.753   7.662   4.591
 2244TIP3    H1 6677   1.830   7.702   4.551
 2244TIP3    H2 6678   1.784   7.577   4.623
 2245TIP3   OH2 6679   6.934   3.307   3.589
 2245TIP3    H1 6680   6.897   3.264   3.512
 2245TIP3    H2 6681   6.892   3.392   3.591
 2246TIP3   OH2 6682   1.969   6.177   5.043
 2246TIP3    H1 6683   2.058   6.166   5.009
 2246TIP3    H2 6684   1.924   6.097   5.016
 2247TIP3   OH2 6685   1.160   5.791   3.001
 2247TIP3    H1 6686   1.217   5.866   2.984
 2247TIP3    H2 6687   1.089   5.827   3.054
 2248TIP3   OH2 6688   6.981   2.641   3.133
 2248TIP3    H1 6689   6.972   2.733   3.109
 2248TIP3    H2 6690   6.896   2.615   3.167
 2249TIP3   OH2 6691   2.417   3.815   6.101
 2249TIP3    H1 6692   2.485   3.749   6.093
 2249TIP3    H2 6693   2.347   3.784   6.044
 2250TIP3   OH2 6694   2.692   2.407   1.317
 2250TIP3    H1 6695   2.612   2.366   1.349
 2250TIP3    H2 6696   2.761   2.343   1.335
 2251TIP3   OH2 6697   2.835   5.385   5.598
 2251TIP3    H1 6698   2.784   5.346   5.669
 2251TIP3    H2 6699   2.894   5.446   5.641
 2252TIP3   OH2 6700   4.644  -0.006   6.533
 2252TIP3    H1 6701   4.665  -0.007   6.626
 2252TIP3    H2 6702   4.564   0.045   6.527
 2253TIP3   OH2 6703   8.168   7.211   2.165
 2253TIP3    H1 6704   8.203   7.197   2.077
 2253TIP3    H2 6705   8.205   7.295   2.192
 2254TIP3   OH2 6706   0.958   1.764   1.656
 2254TIP3    H1 6707   1.024   1.763   1.726
 2254TIP3    H2 6708   1.006   1.790   1.578
 2255TIP3   OH2 6709   7.027   2.436   0.295
 2255TIP3    H1 6710   7.099   2.376   0.273
 2255TIP3    H2 6711   6.972   2.387   0.356
 2256TIP3   OH2 6712   4.452   3.985   4.234
 2256TIP3    H1 6713   4.417   3.931   4.305
 2256TIP3    H2 6714   4.498   4.056   4.278
 2257TIP3   OH2 6715   6.797   1.160   1.496
 2257TIP3    H1 6716   6.769   1.250   1.512
 2257TIP3    H2 6717   6.733   1.126   1.434
 2258TIP3   OH2 6718   2.823   1.132   4.048
 2258TIP3    H1 6719   2.830   1.118   4.142
 2258TIP3    H2 6720   2.912   1.155   4.020
 2259TIP3   OH2 6721   2.008   1.803   3.769
 2259TIP3    H1 6722   1.942   1.816   3.702
 2259TIP3    H2 6723   1.972   1.734   3.825
 2260TIP3   OH2 6724   4.733   5.568   0.139
 2260TIP3    H1 6725   4.687   5.502   0.192
 2260TIP3    H2 6726   4.668   5.598   0.076
 2261TIP3   OH2 6727   1.083   3.484   5.887
 2261TIP3    H1 6728   0.996   3.509   5.919
 2261TIP3    H2 6729   1.069   3.401   5.841
 2262TIP3   OH2 6730   5.733   4.600   0.928
 2262TIP3    H1 6731   5.746   4.536   0.999
 2262TIP3    H2 6732   5.725   4.546   0.849
 2263TIP3   OH2 6733   2.140   6.971   3.958
 2263TIP3    H1 6734   2.191   6.904   4.003
 2263TIP3    H2 6735   2.197   7.047   3.954
 2264TIP3   OH2 6736   3.269   2.447   3.134
 2264TIP3    H1 6737   3.186   2.492   3.115
 2264TIP3    H2 6738   3.287   2.396   3.055
 2265TIP3   OH2 6739   0.898   3.508   4.540
 2265TIP3    H1 6740   0.953   3.556   4.602
 2265TIP3    H2 6741   0.917   3.416   4.559
 2266TIP3   OH2 6742   6.150   7.003   1.329
 2266TIP3    H1 6743   6.106   7.077   1.369
 2266TIP3    H2 6744   6.208   7.043   1.263
 2267TIP3   OH2 6745   6.606   0.426   3.862
 2267TIP3    H1 6746   6.607   0.331   3.851
 2267TIP3    H2 6747   6.548   0.441   3.936
 2268TIP3   OH2 6748   5.491   2.591   3.202
 2268TIP3    H1 6749   5.439   2.620   3.277
 2268TIP3    H2 6750   5.562   2.540   3.240
 2269TIP3   OH2 6751   2.974   1.123   6.048
 2269TIP3    H1 6752   2.972   1.087   6.136
 2269TIP3    H2 6753   2.919   1.064   5.996
 2270TIP3   OH2 6754   1.238   6.698   3.293
 2270TIP3    H1 6755   1.289   6.763   3.244
 2270TIP3    H2 6756   1.210   6.745   3.372
 2271TIP3   OH2 6757   6.950   3.713   5.114
 2271TIP3    H1 6758   6.879   3.658   5.147
 2271TIP3    H2 6759   6.965   3.778   5.183
 2272TIP3   OH2 6760   7.086   4.903   1.518
 2272TIP3    H1 6761   7.127   4.881   1.602
 2272TIP3    H2 6762   7.056   4.993   1.528
 2273TIP3   OH2 6763   1.425   6.155   2.314
 2273TIP3    H1 6764   1.364   6.160   2.241
 2273TIP3    H2 6765   1.383   6.206   2.384
 2274TIP3   OH2 6766   7.071  -0.003   5.622
 2274TIP3    H1 6767   7.146  -0.046   5.580
 2274TIP3    H2 6768   7.053   0.073   5.567
 2275TIP3   OH2 6769   4.802   2.919   0.677
 2275TIP3    H1 6770   4.890   2.930   0.641
 2275TIP3    H2 6771   4.772   3.008   0.695
 2276TIP3   OH2 6772   0.080   6.017   5.911
 2276TIP3    H1 6773   0.132   6.089   5.878
 2276TIP3    H2 6774   0.140   5.942   5.913
 2277TIP3   OH2 6775   1.581   6.859   2.586
 2277TIP3    H1 6776   1.514   6.920   2.619
 2277TIP3    H2 6777   1.609   6.811   2.664
 2278TIP3   OH2 6778   5.487   5.890   4.070
 2278TIP3    H1 6779   5.503   5.817   4.010
 2278TIP3    H2 6780   5.392   5.901   4.069
 2279TIP3   OH2 6781   6.098   5.282   1.252
 2279TIP3    H1 6782   6.099   5.283   1.347
 2279TIP3    H2 6783   6.016   5.327   1.228
 2280TIP3   OH2 6784   7.489   5.952   5.088
 2280TIP3    H1 6785   7.509   6.022   5.150
 2280TIP3    H2 6786   7.395   5.936   5.099
 2281TIP3   OH2 6787   5.453   7.256   0.933
 2281TIP3    H1 6788   5.502   7.176   0.952
 2281TIP3    H2 6789   5.463   7.268   0.839
 2282TIP3   OH2 6790   4.639   5.541   3.491
 2282TIP3    H1 6791   4.686   5.622   3.471
 2282TIP3    H2 6792   4.627   5.499   3.405
 2283TIP3   OH2 6793   6.216   6.423   0.378
 2283TIP3    H1 6794   6.155   6.475   0.430
 2283TIP3    H2 6795   6.248   6.356   0.438
 2284TIP3   OH2 6796   6.580   6.675   0.530
 2284TIP3    H1 6797   6.498   6.720   0.510
 2284TIP3    H2 6798   6.553   6.587   0.559
 2285TIP3   OH2 6799   2.175   6.924   3.672
 2285TIP3    H1 6800   2.142   6.926   3.762
 2285TIP3    H2 6801   2.268   6.948   3.680
 2286TIP3   OH2 6802   6.739   0.360   5.331
 2286TIP3    H1 6803   6.758   0.353   5.424
 2286TIP3    H2 6804   6.661   0.415   5.327
 2287TIP3   OH2 6805   5.893   1.692   1.677
 2287TIP3    H1 6806   5.875   1.638   1.754
 2287TIP3    H2 6807   5.813   1.685   1.624
 2288TIP3   OH2 6808   4.569   4.364   5.353
 2288TIP3    H1 6809   4.611   4.287   5.315
 2288TIP3    H2 6810   4.481   4.364   5.315
 2289TIP3   OH2 6811   3.565   6.417   5.580
 2289TIP3    H1 6812   3.492   6.465   5.541
 2289TIP3    H2 6813   3.643   6.460   5.545
 2290TIP3   OH2 6814   5.896   2.546   4.472
 2290TIP3    H1 6815   5.969   2.523   4.414
 2290TIP3    H2 6816   5.851   2.617   4.427
 2291TIP3   OH2 6817   0.772   7.038   3.138
 2291TIP3    H1 6818   0.738   7.062   3.051
 2291TIP3    H2 6819   0.749   6.946   3.147
 2292TIP3   OH2 6820   5.239   2.466   4.564
 2292TIP3    H1 6821   5.334   2.475   4.553
 2292TIP3    H2 6822   5.219   2.380   4.527
 2293TIP3   OH2 6823   1.231   5.096   2.356
 2293TIP3    H1 6824   1.178   5.017   2.366
 2293TIP3    H2 6825   1.274   5.108   2.440
 2294TIP3   OH2 6826   4.807   1.719   3.448
 2294TIP3    H1 6827   4.861   1.794   3.425
 2294TIP3    H2 6828   4.726   1.730   3.398
 2295TIP3   OH2 6829   5.498   4.066   0.116
 2295TIP3    H1 6830   5.485   4.158   0.140
 2295TIP3    H2 6831   5.505   4.066   0.021
 2296TIP3   OH2 6832   2.377   2.339   2.494
 2296TIP3    H1 6833   2.377   2.382   2.579
 2296TIP3    H2 6834   2.286   2.315   2.479
 2297TIP3   OH2 6835   1.005   1.677   4.612
 2297TIP3    H1 6836   1.024   1.585   4.631
 2297TIP3    H2 6837   0.998   1.718   4.698
 2298TIP3   OH2 6838   3.148   0.638   1.245
 2298TIP3    H1 6839   3.073   0.598   1.289
 2298TIP3    H2 6840   3.212   0.652   1.315
 2299TIP3   OH2 6841   4.311   4.190   0.636
 2299TIP3    H1 6842   4.237   4.219   0.582
 2299TIP3    H2 6843   4.291   4.223   0.723
 2300TIP3   OH2 6844   7.155   7.774   0.031
 2300TIP3    H1 6845   7.064   7.800   0.044
 2300TIP3    H2 6846   7.193   7.845  -0.021
 2301TIP3   OH2 6847   1.250   1.099   5.665
 2301TIP3    H1 6848   1.275   1.098   5.572
 2301TIP3    H2 6849   1.221   1.010   5.683
 2302TIP3   OH2 6850   4.040   7.403   5.552
 2302TIP3    H1 6851   3.950   7.377   5.576
 2302TIP3    H2 6852   4.072   7.452   5.629
 2303TIP3   OH2 6853   0.960   1.919   2.948
 2303TIP3    H1 6854   0.977   1.915   3.043
 2303TIP3    H2 6855   0.921   1.834   2.927
 2304TIP3   OH2 6856   2.353   0.790   4.204
 2304TIP3    H1 6857   2.324   0.860   4.263
 2304TIP3    H2 6858   2.430   0.753   4.246
 2305TIP3   OH2 6859   2.409   7.255   5.286
 2305TIP3    H1 6860   2.317   7.250   5.262
 2305TIP3    H2 6861   2.413   7.325   5.351
 2306TIP3   OH2 6862   7.832   5.366   6.016
 2306TIP3    H1 6863   7.783   5.284   6.022
 2306TIP3    H2 6864   7.766   5.434   6.031
 2307TIP3   OH2 6865   5.577   6.672   6.354
 2307TIP3    H1 6866   5.579   6.680   6.259
 2307TIP3    H2 6867   5.488   6.697   6.378
 2308TIP3   OH2 6868   3.307   7.378   1.969
 2308TIP3    H1 6869   3.365   7.343   2.037
 2308TIP3    H2 6870   3.223   7.335   1.985
 2309TIP3   OH2 6871   5.565   4.635   4.207
 2309TIP3    H1 6872   5.556   4.583   4.287
 2309TIP3    H2 6873   5.579   4.570   4.138
 2310TIP3   OH2 6874   0.330   4.397   4.304
 2310TIP3    H1 6875   0.236   4.382   4.302
 2310TIP3    H2 6876   0.357   4.386   4.213
 2311TIP3   OH2 6877   8.175   5.237   2.981
 2311TIP3    H1 6878   8.244   5.271   2.924
 2311TIP3    H2 6879   8.222   5.186   3.047
 2312TIP3   OH2 6880   3.040   4.546   3.289
 2312TIP3    H1 6881   3.067   4.600   3.215
 2312TIP3    H2 6882   3.122   4.516   3.328
 2313TIP3   OH2 6883   7.372   0.240   1.396
 2313TIP3    H1 6884   7.339   0.206   1.313
 2313TIP3    H2 6885   7.385   0.333   1.380
 2314TIP3   OH2 6886   5.522   2.692   4.101
 2314TIP3    H1 6887   5.505   2.658   4.189
 2314TIP3    H2 6888   5.591   2.636   4.066
 2315TIP3   OH2 6889   0.291   0.215   1.269
 2315TIP3    H1 6890   0.223   0.272   1.234
 2315TIP3    H2 6891   0.315   0.159   1.195
 2316TIP3   OH2 6892   3.131   1.386   3.341
 2316TIP3    H1 6893   3.167   1.297   3.338
 2316TIP3    H2 6894   3.136   1.416   3.250
 2317TIP3   OH2 6895   4.086   4.312   6.638
 2317TIP3    H1 6896   4.077   4.399   6.677
 2317TIP3    H2 6897   4.078   4.328   6.544
 2318TIP3   OH2 6898   2.251   7.659   0.394
 2318TIP3    H1 6899   2.184   7.669   0.326
 2318TIP3    H2 6900   2.333   7.681   0.350
 2319TIP3   OH2 6901   2.202   5.178   0.806
 2319TIP3    H1 6902   2.122   5.181   0.859
 2319TIP3    H2 6903   2.268   5.142   0.865
 2320TIP3   OH2 6904   1.925   5.075   4.796
 2320TIP3    H1 6905   1.964   5.085   4.709
 2320TIP3    H2 6906   1.987   5.116   4.855
 2321TIP3   OH2 6907   5.854   6.616   1.172
 2321TIP3    H1 6908   5.888   6.692   1.220
 2321TIP3    H2 6909   5.926   6.552   1.175
 2322TIP3   OH2 6910   0.399   5.264   0.065
 2322TIP3    H1 6911   0.394   5.348   0.112
 2322TIP3    H2 6912   0.314   5.254   0.024
 2323TIP3   OH2 6913   7.437   6.739   0.088
 2323TIP3    H1 6914   7.461   6.825   0.052
 2323TIP3    H2 6915   7.351   6.722   0.051
 2324TIP3   OH2 6916   3.323   1.591   1.095
 2324TIP3    H1 6917   3.394   1.602   1.031
 2324TIP3    H2 6918   3.358   1.629   1.176
 2325TIP3   OH2 6919   3.311   0.399   0.964
 2325TIP3    H1 6920   3.365   0.398   1.043
 2325TIP3    H2 6921   3.235   0.453   0.987
 2326TIP3   OH2 6922   2.290   3.002   3.445
 2326TIP3    H1 6923   2.229   3.006   3.371
 2326TIP3    H2 6924   2.366   2.957   3.410
 2327TIP3   OH2 6925   7.494   3.429   5.140
 2327TIP3    H1 6926   7.557   3.378   5.191
 2327TIP3    H2 6927   7.535   3.439   5.054
 2328TIP3   OH2 6928   1.803   2.614   6.670
 2328TIP3    H1 6929   1.764   2.528   6.656
 2328TIP3    H2 6930   1.740   2.660   6.726
 2329TIP3   OH2 6931   1.823   6.171   4.482
 2329TIP3    H1 6932   1.799   6.194   4.571
 2329TIP3    H2 6933   1.755   6.109   4.454
 2330TIP3   OH2 6934   6.869   1.899   0.586
 2330TIP3    H1 6935   6.886   1.955   0.511
 2330TIP3    H2 6936   6.886   1.810   0.555
 2331TIP3   OH2 6937   7.207   0.035   6.730
 2331TIP3    H1 6938   7.149  -0.041   6.723
 2331TIP3    H2 6939   7.288   0.008   6.686
 2332TIP3   OH2 6940   1.971   7.384   1.342
 2332TIP3    H1 6941   1.952   7.384   1.248
 2332TIP3    H2 6942   2.066   7.369   1.347
 2333TIP3   OH2 6943   4.280   6.714   3.583
 2333TIP3    H1 6944   4.233   6.631   3.591
 2333TIP3    H2 6945   4.249   6.752   3.501
 2334TIP3   OH2 6946   8.185   1.915   3.126
 2334TIP3    H1 6947   8.180   1.821   3.143
 2334TIP3    H2 6948   8.096   1.948   3.141
 2335TIP3   OH2 6949   2.872   5.188   4.877
 2335TIP3    H1 6950   2.804   5.162   4.815
 2335TIP3    H2 6951   2.856   5.136   4.956
 2336TIP3   OH2 6952   2.420   0.413   1.626
 2336TIP3    H1 6953   2.356   0.342   1.625
 2336TIP3    H2 6954   2.463   0.405   1.712
 2337TIP3   OH2 6955   1.709   6.377   6.194
 2337TIP3    H1 6956   1.797   6.369   6.158
 2337TIP3    H2 6957   1.657   6.413   6.122
 2338TIP3   OH2 6958   1.216   5.361   0.005
 2338TIP3    H1 6959   1.228   5.271   0.035
 2338TIP3    H2 6960   1.248   5.415   0.077
 2339TIP3   OH2 6961   1.832   1.048   2.088
 2339TIP3    H1 6962   1.854   1.076   2.177
 2339TIP3    H2 6963   1.908   1.075   2.036
 2340TIP3   OH2 6964   5.772   3.978   0.368
 2340TIP3    H1 6965   5.776   3.916   0.295
 2340TIP3    H2 6966   5.678   3.985   0.387
 2341TIP3   OH2 6967   4.765   4.368   4.127
 2341TIP3    H1 6968   4.745   4.349   4.035
 2341TIP3    H2 6969   4.726   4.454   4.143
 2342TIP3   OH2 6970   6.687   7.146   5.565
 2342TIP3    H1 6971   6.763   7.174   5.514
 2342TIP3    H2 6972   6.675   7.054   5.540
 2343TIP3   OH2 6973   4.598   0.878   5.365
 2343TIP3    H1 6974   4.667   0.816   5.387
 2343TIP3    H2 6975   4.542   0.831   5.303
 2344TIP3   OH2 6976   0.568   1.740   3.817
 2344TIP3    H1 6977   0.499   1.680   3.846
 2344TIP3    H2 6978   0.617   1.760   3.896
 2345TIP3   OH2 6979   2.293   6.412   5.867
 2345TIP3    H1 6980   2.329   6.328   5.840
 2345TIP3    H2 6981   2.360   6.476   5.842
 2346TIP3   OH2 6982   8.318   1.672   4.181
 2346TIP3    H1 6983   8.225   1.648   4.177
 2346TIP3    H2 6984   8.322   1.741   4.247
 2347TIP3   OH2 6985   7.321   1.117   6.276
 2347TIP3    H1 6986   7.308   1.153   6.189
 2347TIP3    H2 6987   7.416   1.114   6.287
 2348TIP3   OH2 6988   2.785   3.042   3.395
 2348TIP3    H1 6989   2.737   2.977   3.344
 2348TIP3    H2 6990   2.722   3.111   3.411
 2349TIP3   OH2 6991   7.053   1.842   2.760
 2349TIP3    H1 6992   7.069   1.935   2.743
 2349TIP3    H2 6993   7.081   1.829   2.850
 2350TIP3   OH2 6994   5.754   0.289   0.575
 2350TIP3    H1 6995   5.770   0.383   0.579
 2350TIP3    H2 6996   5.741   0.271   0.482
 2351TIP3   OH2 6997   0.346   0.101   0.164
 2351TIP3    H1 6998   0.303   0.186   0.154
 2351TIP3    H2 6999   0.432   0.113   0.124
 2352TIP3   OH2 7000   1.544   3.252   5.699
 2352TIP3    H1 7001   1.503   3.327   5.657
 2352TIP3    H2 7002   1.484   3.228   5.769
 2353TIP3   OH2 7003   7.080   6.280   0.557
 2353TIP3    H1 7004   7.126   6.198   0.540
 2353TIP3    H2 7005   6.987   6.259   0.544
 2354TIP3   OH2 7006   1.915   0.595   4.228
 2354TIP3    H1 7007   1.905   0.652   4.304
 2354TIP3    H2 7008   1.958   0.651   4.162
 2355TIP3   OH2 7009   4.858   3.280   5.942
 2355TIP3    H1 7010   4.881   3.221   6.014
 2355TIP3    H2 7011   4.766   3.301   5.957
 2356TIP3   OH2 7012   1.625   7.367   5.286
 2356TIP3    H1 7013   1.676   7.359   5.367
 2356TIP3    H2 7014   1.576   7.286   5.280
 2357TIP3   OH2 7015   5.262   2.510   2.889
 2357TIP3    H1 7016   5.287   2.453   2.962
 2357TIP3    H2 7017   5.167   2.519   2.897
 2358TIP3   OH2 7018   1.695   6.097   2.715
 2358TIP3    H1 7019   1.689   6.180   2.668
 2358TIP3    H2 7020   1.789   6.085   2.731
 2359TIP3   OH2 7021   1.415   4.983   5.726
 2359TIP3    H1 7022   1.457   4.982   5.811
 2359TIP3    H2 7023   1.395   5.076   5.710
 2360TIP3   OH2 7024   1.598   6.493   1.046
 2360TIP3    H1 7025   1.616   6.585   1.027
 2360TIP3    H2 7026   1.645   6.444   0.979
 2361TIP3   OH2 7027   2.477   1.222   3.081
 2361TIP3    H1 7028   2.461   1.179   2.997
 2361TIP3    H2 7029   2.558   1.183   3.113
 2362TIP3   OH2 7030   5.690   6.031   1.733
 2362TIP3    H1 7031   5.726   5.942   1.736
 2362TIP3    H2 7032   5.753   6.081   1.682
 2363TIP3   OH2 7033   0.295   3.937   0.528
 2363TIP3    H1 7034   0.276   3.911   0.438
 2363TIP3    H2 7035   0.220   3.991   0.553
 2364TIP3   OH2 7036   3.476   4.526   1.282
 2364TIP3    H1 7037   3.565   4.541   1.250
 2364TIP3    H2 7038   3.469   4.431   1.287
 2365TIP3   OH2 7039   7.181   1.028   0.989
 2365TIP3    H1 7040   7.128   1.005   1.065
 2365TIP3    H2 7041   7.141   1.108   0.956
 2366TIP3   OH2 7042   2.507   0.189   6.128
 2366TIP3    H1 7043   2.417   0.183   6.097
 2366TIP3    H2 7044   2.560   0.192   6.049
 2367TIP3   OH2 7045   1.587   7.136   6.055
 2367TIP3    H1 7046   1.635   7.085   6.120
 2367TIP3    H2 7047   1.540   7.202   6.106
 2368TIP3   OH2 7048   0.093   5.257   1.810
 2368TIP3    H1 7049   0.086   5.341   1.855
 2368TIP3    H2 7050   0.150   5.273   1.735
 2369TIP3   OH2 7051   3.911   1.202   4.581
 2369TIP3    H1 7052   3.917   1.194   4.486
 2369TIP3    H2 7053   3.975   1.140   4.614
 2370TIP3   OH2 7054   7.606   5.586   1.452
 2370TIP3    H1 7055   7.671   5.650   1.420
 2370TIP3    H2 7056   7.535   5.590   1.388
 2371TIP3   OH2 7057   6.546   0.264   0.798
 2371TIP3    H1 7058   6.486   0.338   0.790
 2371TIP3    H2 7059   6.626   0.301   0.834
 2372TIP3   OH2 7060   1.011   6.382   5.981
 2372TIP3    H1 7061   1.009   6.472   6.012
 2372TIP3    H2 7062   0.976   6.330   6.053
 2373TIP3   OH2 7063   7.133   3.621   0.266
 2373TIP3    H1 7064   7.083   3.630   0.347
 2373TIP3    H2 7065   7.215   3.580   0.293
 2374TIP3   OH2 7066   0.106   2.144   5.290
 2374TIP3    H1 7067   0.074   2.074   5.233
 2374TIP3    H2 7068   0.132   2.214   5.230
 2375TIP3   OH2 7069   4.081   2.021   4.751
 2375TIP3    H1 7070   4.148   2.089   4.749
 2375TIP3    H2 7071   4.096   1.969   4.672
 2376TIP3   OH2 7072   4.782   3.921   3.695
 2376TIP3    H1 7073   4.757   3.830   3.711
 2376TIP3    H2 7074   4.812   3.922   3.604
 2377TIP3   OH2 7075   1.616   0.217   2.745
 2377TIP3    H1 7076   1.672   0.271   2.690
 2377TIP3    H2 7077   1.533   0.211   2.698
 2378TIP3   OH2 7078   2.446   6.937   3.718
 2378TIP3    H1 7079   2.500   6.860   3.738
 2378TIP3    H2 7080   2.504   6.996   3.670
 2379TIP3   OH2 7081   4.318   2.631   4.887
 2379TIP3    H1 7082   4.372   2.635   4.809
 2379TIP3    H2 7083   4.327   2.717   4.927
 2380TIP3   OH2 7084   3.993   1.525   4.592
 2380TIP3    H1 7085   3.922   1.567   4.544
 2380TIP3    H2 7086   3.998   1.437   4.555
 2381TIP3   OH2 7087   7.400   3.797   2.947
 2381TIP3    H1 7088   7.417   3.883   2.910
 2381TIP3    H2 7089   7.368   3.815   3.036
 2382TIP3   OH2 7090   5.125   2.771   0.453
 2382TIP3    H1 7091   5.092   2.787   0.364
 2382TIP3    H2 7092   5.204   2.825   0.459
 2383TIP3   OH2 7093   5.634   3.630   6.491
 2383TIP3    H1 7094   5.616   3.676   6.573
 2383TIP3    H2 7095   5.552   3.584   6.471
 2384TIP3   OH2 7096   1.908   4.661   1.896
 2384TIP3    H1 7097   1.832   4.609   1.922
 2384TIP3    H2 7098   1.893   4.746   1.937
 2385TIP3   OH2 7099   6.869   3.871   6.271
 2385TIP3    H1 7100   6.794   3.854   6.214
 2385TIP3    H2 7101   6.853   3.959   6.306
 2386TIP3   OH2 7102   4.436   3.998   0.471
 2386TIP3    H1 7103   4.411   4.074   0.524
 2386TIP3    H2 7104   4.445   3.927   0.534
 2387TIP3   OH2 7105   4.429   0.337   3.838
 2387TIP3    H1 7106   4.371   0.274   3.794
 2387TIP3    H2 7107   4.382   0.420   3.833
 2388TIP3   OH2 7108   0.942   7.398   5.858
 2388TIP3    H1 7109   0.886   7.346   5.915
 2388TIP3    H2 7110   1.031   7.371   5.880
 2389TIP3   OH2 7111   6.623   3.332   6.316
 2389TIP3    H1 7112   6.630   3.264   6.383
 2389TIP3    H2 7113   6.709   3.375   6.317
 2390TIP3   OH2 7114   2.934   1.437   5.787
 2390TIP3    H1 7115   2.945   1.531   5.768
 2390TIP3    H2 7116   2.958   1.393   5.706
 2391TIP3   OH2 7117   5.169   7.474   1.369
 2391TIP3    H1 7118   5.217   7.399   1.403
 2391TIP3    H2 7119   5.129   7.514   1.446
 2392TIP3   OH2 7120   6.745   3.265   6.036
 2392TIP3    H1 7121   6.734   3.197   5.969
 2392TIP3    H2 7122   6.783   3.219   6.111
 2393TIP3   OH2 7123   0.164   4.163   4.526
 2393TIP3    H1 7124   0.090   4.128   4.476
 2393TIP3    H2 7125   0.183   4.095   4.591
 2394TIP3   OH2 7126   3.671   2.669   5.722
 2394TIP3    H1 7127   3.586   2.672   5.678
 2394TIP3    H2 7128   3.656   2.616   5.800
 2395TIP3   OH2 7129   6.390   4.269   0.922
 2395TIP3    H1 7130   6.341   4.286   0.841
 2395TIP3    H2 7131   6.336   4.308   0.991
 2396TIP3   OH2 7132   1.372   6.409   3.014
 2396TIP3    H1 7133   1.421   6.354   2.953
 2396TIP3    H2 7134   1.286   6.366   3.020
 2397TIP3   OH2 7135   5.379   3.531   6.441
 2397TIP3    H1 7136   5.289   3.523   6.410
 2397TIP3    H2 7137   5.374   3.512   6.534
 2398TIP3   OH2 7138   7.678   1.236   4.048
 2398TIP3    H1 7139   7.669   1.270   3.959
 2398TIP3    H2 7140   7.635   1.302   4.103
 2399TIP3   OH2 7141   7.453   2.130   3.480
 2399TIP3    H1 7142   7.535   2.084   3.494
 2399TIP3    H2 7143   7.441   2.183   3.558
 2400TIP3   OH2 7144   6.786   5.264   4.922
 2400TIP3    H1 7145   6.746   5.235   5.005
 2400TIP3    H2 7146   6.748   5.206   4.856
 2401TIP3   OH2 7147   4.645   1.225   4.467
 2401TIP3    H1 7148   4.615   1.306   4.425
 2401TIP3    H2 7149   4.644   1.160   4.397
 2402TIP3   OH2 7150   5.536   7.282   2.565
 2402TIP3    H1 7151   5.629   7.259   2.576
 2402TIP3    H2 7152   5.523   7.283   2.470
 2403TIP3   OH2 7153   3.577   7.229   0.397
 2403TIP3    H1 7154   3.511   7.196   0.337
 2403TIP3    H2 7155   3.658   7.185   0.372
 2404TIP3   OH2 7156   7.482   3.930   4.443
 2404TIP3    H1 7157   7.411   3.890   4.391
 2404TIP3    H2 7158   7.524   3.991   4.383
 2405TIP3   OH2 7159   4.616   1.521   2.728
 2405TIP3    H1 7160   4.558   1.446   2.712
 2405TIP3    H2 7161   4.666   1.496   2.806
 2406TIP3   OH2 7162   2.964   1.704   5.754
 2406TIP3    H1 7163   2.986   1.754   5.675
 2406TIP3    H2 7164   3.002   1.755   5.825
 2407TIP3   OH2 7165   5.706   2.865   2.858
 2407TIP3    H1 7166   5.637   2.927   2.881
 2407TIP3    H2 7167   5.678   2.782   2.896
 2408TIP3   OH2 7168   0.370   1.203   0.728
 2408TIP3    H1 7169   0.360   1.244   0.814
 2408TIP3    H2 7170   0.307   1.248   0.672
 2409TIP3   OH2 7171   5.393   0.830   0.781
 2409TIP3    H1 7172   5.348   0.814   0.864
 2409TIP3    H2 7173   5.360   0.762   0.722
 2410TIP3   OH2 7174   3.847   2.168   6.711
 2410TIP3    H1 7175   3.910   2.239   6.718
 2410TIP3    H2 7176   3.779   2.189   6.775
 2411TIP3   OH2 7177   1.926   1.469   0.980
 2411TIP3    H1 7178   1.937   1.456   0.886
 2411TIP3    H2 7179   1.983   1.543   1.000
 2412TIP3   OH2 7180   5.079   6.656   6.753
 2412TIP3    H1 7181   4.993   6.628   6.721
 2412TIP3    H2 7182   5.079   6.751   6.741
 2413TIP3   OH2 7183   7.638   5.108   6.207
 2413TIP3    H1 7184   7.732   5.109   6.223
 2413TIP3    H2 7185   7.606   5.192   6.241
 2414TIP3   OH2 7186   1.139   2.017   3.941
 2414TIP3    H1 7187   1.106   2.032   4.030
 2414TIP3    H2 7188   1.071   1.964   3.899
 2415TIP3   OH2 7189   7.056   1.078   1.604
 2415TIP3    H1 7190   6.965   1.088   1.578
 2415TIP3    H2 7191   7.058   0.994   1.652
 2416TIP3   OH2 7192   3.723   5.137   6.210
 2416TIP3    H1 7193   3.788   5.190   6.257
 2416TIP3    H2 7194   3.668   5.201   6.165
 2417TIP3   OH2 7195   4.907   6.964   2.255
 2417TIP3    H1 7196   4.892   6.870   2.268
 2417TIP3    H2 7197   4.929   6.997   2.342
 2418TIP3   OH2 7198   2.600   0.529   0.132
 2418TIP3    H1 7199   2.546   0.453   0.153
 2418TIP3    H2 7200   2.652   0.545   0.210
 2419TIP3   OH2 7201   7.227   1.207   2.161
 2419TIP3    H1 7202   7.279   1.286   2.149
 2419TIP3    H2 7203   7.264   1.143   2.100
 2420TIP3   OH2 7204   4.160   0.476   0.338
 2420TIP3    H1 7205   4.233   0.479   0.400
 2420TIP3    H2 7206   4.157   0.386   0.308
 2421TIP3   OH2 7207   4.937   2.853   5.343
 2421TIP3    H1 7208   4.904   2.772   5.382
 2421TIP3    H2 7209   4.888   2.922   5.386
 2422TIP3   OH2 7210   1.618   6.764   1.617
 2422TIP3    H1 7211   1.699   6.787   1.571
 2422TIP3    H2 7212   1.641   6.686   1.667
 2423TIP3   OH2 7213   4.862   1.331   6.063
 2423TIP3    H1 7214   4.798   1.373   6.120
 2423TIP3    H2 7215   4.815   1.258   6.023
 2424TIP3   OH2 7216   2.327   6.949   0.195
 2424TIP3    H1 7217   2.263   6.942   0.265
 2424TIP3    H2 7218   2.374   7.030   0.213
 2425TIP3   OH2 7219   4.778   0.470   5.000
 2425TIP3    H1 7220   4.856   0.454   4.947
 2425TIP3    H2 7221   4.714   0.408   4.967
 2426TIP3   OH2 7222   1.131   0.697   4.272
 2426TIP3    H1 7223   1.074   0.716   4.347
 2426TIP3    H2 7224   1.193   0.631   4.305
 2427TIP3   OH2 7225   4.931   4.951   4.364
 2427TIP3    H1 7226   4.961   4.887   4.429
 2427TIP3    H2 7227   4.882   5.016   4.415
 2428TIP3   OH2 7228   7.883   1.583   2.148
 2428TIP3    H1 7229   7.829   1.621   2.218
 2428TIP3    H2 7230   7.820   1.539   2.091
 2429TIP3   OH2 7231   7.522   6.866   0.327
 2429TIP3    H1 7232   7.491   6.791   0.376
 2429TIP3    H2 7233   7.477   6.859   0.242
 2430TIP3   OH2 7234   3.001   3.907   5.454
 2430TIP3    H1 7235   2.936   3.956   5.503
 2430TIP3    H2 7236   2.957   3.826   5.428
 2431TIP3   OH2 7237   1.190   2.498   3.522
 2431TIP3    H1 7238   1.224   2.468   3.606
 2431TIP3    H2 7239   1.238   2.448   3.457
 2432TIP3   OH2 7240   4.709   5.715   4.785
 2432TIP3    H1 7241   4.709   5.660   4.706
 2432TIP3    H2 7242   4.797   5.704   4.821
 2433TIP3   OH2 7243   0.473   6.954   5.321
 2433TIP3    H1 7244   0.512   6.916   5.242
 2433TIP3    H2 7245   0.411   7.019   5.288
 2434TIP3   OH2 7246   1.261   0.494   4.397
 2434TIP3    H1 7247   1.175   0.456   4.377
 2434TIP3    H2 7248   1.309   0.423   4.440
 2435TIP3   OH2 7249   3.941   7.376   5.159
 2435TIP3    H1 7250   4.011   7.401   5.098
 2435TIP3    H2 7251   3.884   7.453   5.162
 2436TIP3   OH2 7252   6.480   3.380   6.027
 2436TIP3    H1 7253   6.442   3.384   6.114
 2436TIP3    H2 7254   6.563   3.427   6.035
 2437TIP3   OH2 7255   1.207   5.666   3.629
 2437TIP3    H1 7256   1.167   5.680   3.543
 2437TIP3    H2 7257   1.279   5.729   3.633
 2438TIP3   OH2 7258   5.080   4.147   3.386
 2438TIP3    H1 7259   5.055   4.224   3.336
 2438TIP3    H2 7260   5.099   4.180   3.474
 2439TIP3   OH2 7261   5.950   3.267   3.184
 2439TIP3    H1 7262   5.878   3.204   3.190
 2439TIP3    H2 7263   5.956   3.288   3.091
 2440TIP3   OH2 7264   2.947   7.743   6.311
 2440TIP3    H1 7265   2.936   7.819   6.254
 2440TIP3    H2 7266   2.903   7.671   6.265
 2441TIP3   OH2 7267   2.884   1.693   1.973
 2441TIP3    H1 7268   2.975   1.661   1.975
 2441TIP3    H2 7269   2.842   1.640   1.906
 2442TIP3   OH2 7270   7.866   2.373   4.228
 2442TIP3    H1 7271   7.911   2.457   4.217
 2442TIP3    H2 7272   7.926   2.308   4.191
 2443TIP3   OH2 7273   2.166   2.837   5.085
 2443TIP3    H1 7274   2.221   2.913   5.069
 2443TIP3    H2 7275   2.156   2.832   5.180
 2444TIP3   OH2 7276   0.020   5.145   3.519
 2444TIP3    H1 7277   0.067   5.226   3.539
 2444TIP3    H2 7278  -0.067   5.174   3.493
 2445TIP3   OH2 7279   4.177   4.655   3.956
 2445TIP3    H1 7280   4.119   4.684   3.886
 2445TIP3    H2 7281   4.137   4.574   3.989
 2446TIP3   OH2 7282   2.306   3.065   1.245
 2446TIP3    H1 7283   2.293   3.116   1.165
 2446TIP3    H2 7284   2.295   2.974   1.217
 2447TIP3   OH2 7285   7.097   1.366   0.582
 2447TIP3    H1 7286   7.120   1.441   0.528
 2447TIP3    H2 7287   7.007   1.344   0.556
 2448TIP3   OH2 7288   0.657   7.700   6.594
 2448TIP3    H1 7289   0.651   7.757   6.670
 2448TIP3    H2 7290   0.640   7.612   6.628
 2449TIP3   OH2 7291   0.063   6.413   5.361
 2449TIP3    H1 7292   0.123   6.394   5.289
 2449TIP3    H2 7293   0.116   6.462   5.424
 2450TIP3   OH2 7294   5.293   6.799   5.379
 2450TIP3    H1 7295   5.328   6.846   5.304
 2450TIP3    H2 7296   5.210   6.763   5.348
 2451TIP3   OH2 7297   3.025   0.927   1.498
 2451TIP3    H1 7298   2.974   1.006   1.480
 2451TIP3    H2 7299   3.115   0.950   1.471
 2452TIP3   OH2 7300   0.732   5.721   3.609
 2452TIP3    H1 7301   0.790   5.665   3.661
 2452TIP3    H2 7302   0.679   5.767   3.674
 2453TIP3   OH2 7303   2.694   0.402   6.489
 2453TIP3    H1 7304   2.680   0.312   6.519
 2453TIP3    H2 7305   2.751   0.393   6.413
 2454TIP3   OH2 7306   2.850   0.941   5.859
 2454TIP3    H1 7307   2.900   0.859   5.866
 2454TIP3    H2 7308   2.829   0.948   5.766
 2455TIP3   OH2 7309   5.141   0.193   1.486
 2455TIP3    H1 7310   5.079   0.263   1.506
 2455TIP3    H2 7311   5.086   0.118   1.464
 2456TIP3   OH2 7312   5.506   4.316   5.437
 2456TIP3    H1 7313   5.465   4.338   5.520
 2456TIP3    H2 7314   5.599   4.312   5.456
 2457TIP3   OH2 7315   5.968   3.322   2.896
 2457TIP3    H1 7316   5.958   3.228   2.887
 2457TIP3    H2 7317   5.879   3.356   2.898
 2458TIP3   OH2 7318   3.579   5.818   3.880
 2458TIP3    H1 7319   3.607   5.907   3.900
 2458TIP3    H2 7320   3.661   5.768   3.876
 2459TIP3   OH2 7321   0.194   7.321   1.734
 2459TIP3    H1 7322   0.217   7.367   1.815
 2459TIP3    H2 7323   0.277   7.284   1.704
 2460TIP3   OH2 7324   8.159   5.138   1.764
 2460TIP3    H1 7325   8.113   5.203   1.710
 2460TIP3    H2 7326   8.245   5.176   1.780
 2461TIP3   OH2 7327   2.089   3.875   3.927
 2461TIP3    H1 7328   2.043   3.877   4.012
 2461TIP3    H2 7329   2.136   3.791   3.929
 2462TIP3   OH2 7330   2.456   4.648   3.671
 2462TIP3    H1 7331   2.552   4.646   3.671
 2462TIP3    H2 7332   2.431   4.570   3.721
 2463TIP3   OH2 7333   2.828   3.314   3.825
 2463TIP3    H1 7334   2.858   3.344   3.911
 2463TIP3    H2 7335   2.900   3.261   3.792
 2464TIP3   OH2 7336   6.714   6.346   5.307
 2464TIP3    H1 7337   6.725   6.429   5.353
 2464TIP3    H2 7338   6.683   6.285   5.375
 2465TIP3   OH2 7339   4.783   6.504   1.741
 2465TIP3    H1 7340   4.843   6.431   1.730
 2465TIP3    H2 7341   4.839   6.582   1.734
 2466TIP3   OH2 7342   4.340   0.018   2.518
 2466TIP3    H1 7343   4.400   0.060   2.456
 2466TIP3    H2 7344   4.272   0.084   2.534
 2467TIP3   OH2 7345   0.596   1.847   6.574
 2467TIP3    H1 7346   0.523   1.785   6.565
 2467TIP3    H2 7347   0.634   1.851   6.486
 2468TIP3   OH2 7348   3.501   0.589   2.041
 2468TIP3    H1 7349   3.520   0.659   1.978
 2468TIP3    H2 7350   3.476   0.514   1.987
 2469TIP3   OH2 7351   6.270   7.385   6.164
 2469TIP3    H1 7352   6.186   7.424   6.187
 2469TIP3    H2 7353   6.254   7.341   6.081
 2470TIP3   OH2 7354   4.152   6.192   0.793
 2470TIP3    H1 7355   4.118   6.266   0.844
 2470TIP3    H2 7356   4.083   6.126   0.797
 2471TIP3   OH2 7357   6.798   4.863   0.763
 2471TIP3    H1 7358   6.836   4.821   0.686
 2471TIP3    H2 7359   6.872   4.875   0.822
 2472TIP3   OH2 7360   4.296   1.064   6.261
 2472TIP3    H1 7361   4.336   1.149   6.279
 2472TIP3    H2 7362   4.237   1.079   6.188
 2473TIP3   OH2 7363   7.346   7.200   2.843
 2473TIP3    H1 7364   7.300   7.238   2.918
 2473TIP3    H2 7365   7.359   7.274   2.784
 2474TIP3   OH2 7366   5.661   0.615   4.962
 2474TIP3    H1 7367   5.699   0.527   4.971
 2474TIP3    H2 7368   5.725   0.663   4.909
 2475TIP3   OH2 7369   0.495   3.301   1.536
 2475TIP3    H1 7370   0.431   3.342   1.594
 2475TIP3    H2 7371   0.566   3.273   1.594
 2476TIP3   OH2 7372   3.679   4.940   3.588
 2476TIP3    H1 7373   3.763   4.949   3.542
 2476TIP3    H2 7374   3.614   4.942   3.518
 2477TIP3   OH2 7375   1.715   5.621   4.931
 2477TIP3    H1 7376   1.636   5.587   4.889
 2477TIP3    H2 7377   1.716   5.714   4.908
 2478TIP3   OH2 7378   7.839   0.135   6.454
 2478TIP3    H1 7379   7.787   0.112   6.531
 2478TIP3    H2 7380   7.775   0.158   6.388
 2479TIP3   OH2 7381   5.119   4.762   2.922
 2479TIP3    H1 7382   5.097   4.850   2.893
 2479TIP3    H2 7383   5.208   4.769   2.955
 2480TIP3   OH2 7384   1.155   7.243   0.848
 2480TIP3    H1 7385   1.242   7.206   0.864
 2480TIP3    H2 7386   1.153   7.322   0.901
 2481TIP3   OH2 7387   1.605   2.366   5.363
 2481TIP3    H1 7388   1.561   2.430   5.306
 2481TIP3    H2 7389   1.588   2.282   5.321
 2482TIP3   OH2 7390   1.209   4.652   0.104
 2482TIP3    H1 7391   1.161   4.575   0.135
 2482TIP3    H2 7392   1.202   4.647   0.009
 2483TIP3   OH2 7393   7.002   4.600   2.053
 2483TIP3    H1 7394   7.024   4.542   2.126
 2483TIP3    H2 7395   7.026   4.688   2.084
 2484TIP3   OH2 7396   6.509   1.263   5.256
 2484TIP3    H1 7397   6.525   1.273   5.162
 2484TIP3    H2 7398   6.595   1.272   5.296
 2485TIP3   OH2 7399   4.259   1.999   0.361
 2485TIP3    H1 7400   4.217   1.922   0.322
 2485TIP3    H2 7401   4.351   1.993   0.335
 2486TIP3   OH2 7402   6.371   0.084   0.230
 2486TIP3    H1 7403   6.354   0.160   0.176
 2486TIP3    H2 7404   6.364   0.116   0.320
 2487TIP3   OH2 7405   6.244   2.904   5.108
 2487TIP3    H1 7406   6.163   2.947   5.136
 2487TIP3    H2 7407   6.288   2.882   5.190
 2488TIP3   OH2 7408   7.590   6.537   4.882
 2488TIP3    H1 7409   7.552   6.514   4.797
 2488TIP3    H2 7410   7.514   6.554   4.937
 2489TIP3   OH2 7411   1.598   2.522   6.093
 2489TIP3    H1 7412   1.619   2.542   6.184
 2489TIP3    H2 7413   1.503   2.507   6.093
 2490TIP3   OH2 7414   6.349   1.135   2.809
 2490TIP3    H1 7415   6.433   1.106   2.845
 2490TIP3    H2 7416   6.333   1.078   2.734
 2491TIP3   OH2 7417   4.600   2.281   1.085
 2491TIP3    H1 7418   4.694   2.275   1.067
 2491TIP3    H2 7419   4.564   2.325   1.009
 2492TIP3   OH2 7420   0.311   3.393   0.230
 2492TIP3    H1 7421   0.398   3.360   0.208
 2492TIP3    H2 7422   0.275   3.327   0.289
 2493TIP3   OH2 7423   8.221   0.973   3.831
 2493TIP3    H1 7424   8.211   0.904   3.765
 2493TIP3    H2 7425   8.132   0.990   3.862
 2494TIP3   OH2 7426   6.563   6.895   1.855
 2494TIP3    H1 7427   6.606   6.916   1.772
 2494TIP3    H2 7428   6.623   6.927   1.922
 2495TIP3   OH2 7429   8.210   6.043   2.551
 2495TIP3    H1 7430   8.214   6.136   2.526
 2495TIP3    H2 7431   8.279   6.034   2.617
 2496TIP3   OH2 7432   5.001   3.610   2.777
 2496TIP3    H1 7433   4.967   3.586   2.863
 2496TIP3    H2 7434   5.088   3.646   2.795
 2497TIP3   OH2 7435   2.682   0.036   2.269
 2497TIP3    H1 7436   2.691   0.065   2.178
 2497TIP3    H2 7437   2.649   0.112   2.316
 2498TIP3   OH2 7438   1.835   7.000   1.072
 2498TIP3    H1 7439   1.912   7.048   1.044
 2498TIP3    H2 7440   1.805   7.047   1.150
 2499TIP3   OH2 7441   6.362   7.203   5.684
 2499TIP3    H1 7442   6.283   7.240   5.724
 2499TIP3    H2 7443   6.427   7.204   5.753
 2500TIP3   OH2 7444   1.138   0.505   2.127
 2500TIP3    H1 7445   1.059   0.470   2.167
 2500TIP3    H2 7446   1.114   0.523   2.036
 2501TIP3   OH2 7447   2.458   1.312   3.399
 2501TIP3    H1 7448   2.420   1.364   3.328
 2501TIP3    H2 7449   2.392   1.315   3.469
 2502TIP3   OH2 7450   3.822   4.085   5.827
 2502TIP3    H1 7451   3.910   4.123   5.833
 2502TIP3    H2 7452   3.765   4.152   5.864
 2503TIP3   OH2 7453   7.302   5.423   2.107
 2503TIP3    H1 7454   7.377   5.372   2.139
 2503TIP3    H2 7455   7.296   5.497   2.167
 2504TIP3   OH2 7456   1.790   4.721   4.437
 2504TIP3    H1 7457   1.754   4.669   4.510
 2504TIP3    H2 7458   1.885   4.709   4.445
 2505TIP3   OH2 7459   1.408   3.601   4.404
 2505TIP3    H1 7460   1.401   3.632   4.495
 2505TIP3    H2 7461   1.321   3.569   4.382
 2506TIP3   OH2 7462   5.242   7.531   1.987
 2506TIP3    H1 7463   5.295   7.460   1.952
 2506TIP3    H2 7464   5.196   7.493   2.062
 2507TIP3   OH2 7465   2.593   1.062   2.095
 2507TIP3    H1 7466   2.651   1.061   2.019
 2507TIP3    H2 7467   2.640   1.113   2.161
 2508TIP3   OH2 7468   1.420   6.480   1.803
 2508TIP3    H1 7469   1.505   6.481   1.848
 2508TIP3    H2 7470   1.440   6.452   1.714
 2509TIP3   OH2 7471   5.641   7.375   0.119
 2509TIP3    H1 7472   5.664   7.467   0.107
 2509TIP3    H2 7473   5.568   7.360   0.059
 2510TIP3   OH2 7474   0.477   6.311   5.185
 2510TIP3    H1 7475   0.512   6.252   5.118
 2510TIP3    H2 7476   0.510   6.275   5.267
 2511TIP3   OH2 7477   2.686   0.228   5.468
 2511TIP3    H1 7478   2.643   0.313   5.453
 2511TIP3    H2 7479   2.668   0.178   5.389
 2512TIP3   OH2 7480   3.244   6.216   2.898
 2512TIP3    H1 7481   3.233   6.246   2.988
 2512TIP3    H2 7482   3.210   6.127   2.897
 2513TIP3   OH2 7483   2.315   5.428   1.998
 2513TIP3    H1 7484   2.288   5.488   2.067
 2513TIP3    H2 7485   2.356   5.484   1.932
 2514TIP3   OH2 7486   6.229   4.062   0.578
 2514TIP3    H1 7487   6.195   3.983   0.621
 2514TIP3    H2 7488   6.157   4.091   0.522
 2515TIP3   OH2 7489   7.691   4.936   3.243
 2515TIP3    H1 7490   7.605   4.947   3.284
 2515TIP3    H2 7491   7.732   4.864   3.292
 2516TIP3   OH2 7492   6.511   4.201   5.951
 2516TIP3    H1 7493   6.502   4.129   6.014
 2516TIP3    H2 7494   6.507   4.280   6.005
 2517TIP3   OH2 7495   0.038   5.851   3.339
 2517TIP3    H1 7496   0.015   5.831   3.429
 2517TIP3    H2 7497  -0.042   5.832   3.289
 2518TIP3   OH2 7498   1.756   5.588   0.918
 2518TIP3    H1 7499   1.678   5.609   0.969
 2518TIP3    H2 7500   1.724   5.541   0.841
 2519TIP3   OH2 7501   6.326   4.921   5.983
 2519TIP3    H1 7502   6.366   4.983   6.044
 2519TIP3    H2 7503   6.236   4.952   5.973
 2520TIP3   OH2 7504   5.791   5.218   2.511
 2520TIP3    H1 7505   5.846   5.285   2.552
 2520TIP3    H2 7506   5.765   5.161   2.584
 2521TIP3   OH2 7507   7.856   7.392   6.155
 2521TIP3    H1 7508   7.862   7.300   6.183
 2521TIP3    H2 7509   7.851   7.387   6.060
 2522TIP3   OH2 7510   7.253   2.131   4.357
 2522TIP3    H1 7511   7.315   2.189   4.400
 2522TIP3    H2 7512   7.169   2.176   4.364
 2523TIP3   OH2 7513   7.634   1.985   4.868
 2523TIP3    H1 7514   7.656   2.058   4.811
 2523TIP3    H2 7515   7.619   2.025   4.954
 2524TIP3   OH2 7516   2.316   0.467   5.410
 2524TIP3    H1 7517   2.266   0.531   5.462
 2524TIP3    H2 7518   2.403   0.469   5.449
 2525TIP3   OH2 7519   4.602   7.785   3.465
 2525TIP3    H1 7520   4.548   7.863   3.454
 2525TIP3    H2 7521   4.625   7.784   3.557
 2526TIP3   OH2 7522   1.061   6.636   0.378
 2526TIP3    H1 7523   1.020   6.672   0.456
 2526TIP3    H2 7524   1.142   6.687   0.368
 2527TIP3   OH2 7525   0.529   1.770   5.985
 2527TIP3    H1 7526   0.542   1.712   5.910
 2527TIP3    H2 7527   0.614   1.813   5.997
 2528TIP3   OH2 7528   0.747   2.106   4.376
 2528TIP3    H1 7529   0.772   2.032   4.432
 2528TIP3    H2 7530   0.704   2.167   4.436
 2529TIP3   OH2 7531   7.927   4.188   5.605
 2529TIP3    H1 7532   7.912   4.158   5.695
 2529TIP3    H2 7533   7.945   4.108   5.556
 2530TIP3   OH2 7534   3.081   6.618   2.323
 2530TIP3    H1 7535   3.046   6.532   2.299
 2530TIP3    H2 7536   3.127   6.648   2.245
 2531TIP3   OH2 7537   3.212   7.196   0.551
 2531TIP3    H1 7538   3.201   7.261   0.481
 2531TIP3    H2 7539   3.281   7.232   0.607
 2532TIP3   OH2 7540   3.524   1.345   5.870
 2532TIP3    H1 7541   3.568   1.415   5.822
 2532TIP3    H2 7542   3.557   1.352   5.959
 2533TIP3   OH2 7543   3.324   6.200   1.121
 2533TIP3    H1 7544   3.332   6.194   1.026
 2533TIP3    H2 7545   3.262   6.272   1.135
 2534TIP3   OH2 7546   7.763   5.601   6.316
 2534TIP3    H1 7547   7.841   5.546   6.307
 2534TIP3    H2 7548   7.763   5.626   6.409
 2535TIP3   OH2 7549   0.475   4.174   1.446
 2535TIP3    H1 7550   0.477   4.154   1.540
 2535TIP3    H2 7551   0.403   4.122   1.412
 2536TIP3   OH2 7552   8.078   2.633   3.689
 2536TIP3    H1 7553   8.118   2.618   3.604
 2536TIP3    H2 7554   8.116   2.716   3.719
 2537TIP3   OH2 7555   1.568   4.048   0.195
 2537TIP3    H1 7556   1.559   4.047   0.100
 2537TIP3    H2 7557   1.636   3.983   0.214
 2538TIP3   OH2 7558   1.966   3.229   3.055
 2538TIP3    H1 7559   2.052   3.221   3.014
 2538TIP3    H2 7560   1.915   3.158   3.017
 2539TIP3   OH2 7561   2.418   4.896   1.273
 2539TIP3    H1 7562   2.439   4.802   1.272
 2539TIP3    H2 7563   2.424   4.922   1.181
 2540TIP3   OH2 7564   3.430   6.134   0.108
 2540TIP3    H1 7565   3.343   6.156   0.140
 2540TIP3    H2 7566   3.453   6.054   0.155
 2541TIP3   OH2 7567   0.237   5.422   1.068
 2541TIP3    H1 7568   0.217   5.358   1.000
 2541TIP3    H2 7569   0.194   5.388   1.146
 2542TIP3   OH2 7570   1.345   4.241   1.936
 2542TIP3    H1 7571   1.326   4.213   2.025
 2542TIP3    H2 7572   1.293   4.321   1.924
 2543TIP3   OH2 7573   1.250   7.177   3.001
 2543TIP3    H1 7574   1.281   7.096   3.042
 2543TIP3    H2 7575   1.298   7.247   3.045
 2544TIP3   OH2 7576   7.767   3.259   2.046
 2544TIP3    H1 7577   7.780   3.238   2.138
 2544TIP3    H2 7578   7.855   3.278   2.013
 2545TIP3   OH2 7579   3.626   7.034   2.326
 2545TIP3    H1 7580   3.548   6.992   2.363
 2545TIP3    H2 7581   3.617   7.126   2.349
 2546TIP3   OH2 7582   7.631   3.747   0.684
 2546TIP3    H1 7583   7.573   3.766   0.611
 2546TIP3    H2 7584   7.585   3.679   0.734
 2547TIP3   OH2 7585   6.484   2.801   1.513
 2547TIP3    H1 7586   6.471   2.760   1.598
 2547TIP3    H2 7587   6.517   2.889   1.534
 2548TIP3   OH2 7588   6.211   5.398   6.802
 2548TIP3    H1 7589   6.130   5.347   6.792
 2548TIP3    H2 7590   6.181   5.488   6.815
 2549TIP3   OH2 7591   2.209   6.205   2.917
 2549TIP3    H1 7592   2.262   6.270   2.871
 2549TIP3    H2 7593   2.231   6.217   3.009
 2550TIP3   OH2 7594   0.969   5.132   1.127
 2550TIP3    H1 7595   1.013   5.122   1.043
 2550TIP3    H2 7596   0.942   5.044   1.151
 2551TIP3   OH2 7597   3.494   4.969   3.388
 2551TIP3    H1 7598   3.433   4.911   3.341
 2551TIP3    H2 7599   3.479   5.056   3.350
 2552TIP3   OH2 7600   6.968   2.555   0.780
 2552TIP3    H1 7601   7.010   2.567   0.865
 2552TIP3    H2 7602   6.890   2.611   0.783
 2553TIP3   OH2 7603   6.289   0.600   5.989
 2553TIP3    H1 7604   6.355   0.537   6.019
 2553TIP3    H2 7605   6.282   0.663   6.060
 2554TIP3   OH2 7606   3.601   0.922   4.057
 2554TIP3    H1 7607   3.556   0.840   4.035
 2554TIP3    H2 7608   3.570   0.944   4.144
 2555TIP3   OH2 7609   0.238   0.484   6.019
 2555TIP3    H1 7610   0.169   0.509   5.957
 2555TIP3    H2 7611   0.283   0.566   6.038
 2556TIP3   OH2 7612   2.649   4.234   0.231
 2556TIP3    H1 7613   2.709   4.287   0.284
 2556TIP3    H2 7614   2.633   4.287   0.153
 2557TIP3   OH2 7615   6.886   0.507   2.415
 2557TIP3    H1 7616   6.799   0.497   2.455
 2557TIP3    H2 7617   6.914   0.417   2.398
 2558TIP3   OH2 7618   4.916   7.439   6.590
 2558TIP3    H1 7619   4.952   7.522   6.560
 2558TIP3    H2 7620   4.970   7.414   6.665
 2559TIP3   OH2 7621   7.305   1.084   5.214
 2559TIP3    H1 7622   7.240   1.080   5.144
 2559TIP3    H2 7623   7.276   1.020   5.278
 2560TIP3   OH2 7624   1.141   3.156   1.021
 2560TIP3    H1 7625   1.237   3.154   1.026
 2560TIP3    H2 7626   1.115   3.227   1.078
 2561TIP3   OH2 7627   4.433   4.585   2.853
 2561TIP3    H1 7628   4.464   4.495   2.862
 2561TIP3    H2 7629   4.360   4.579   2.792
 2562TIP3   OH2 7630   3.769   6.217   4.633
 2562TIP3    H1 7631   3.773   6.301   4.679
 2562TIP3    H2 7632   3.695   6.172   4.672
 2563TIP3   OH2 7633   1.887   3.682   6.198
 2563TIP3    H1 7634   1.828   3.708   6.127
 2563TIP3    H2 7635   1.849   3.722   6.276
 2564TIP3   OH2 7636   2.657   3.687   6.534
 2564TIP3    H1 7637   2.586   3.720   6.590
 2564TIP3    H2 7638   2.617   3.616   6.483
 2565TIP3   OH2 7639   3.213   6.249   3.164
 2565TIP3    H1 7640   3.165   6.279   3.241
 2565TIP3    H2 7641   3.259   6.170   3.194
 2566TIP3   OH2 7642   2.912   2.047   0.991
 2566TIP3    H1 7643   2.869   2.117   0.942
 2566TIP3    H2 7644   2.841   1.988   1.015
 2567TIP3   OH2 7645   7.548   6.928   4.051
 2567TIP3    H1 7646   7.566   6.840   4.019
 2567TIP3    H2 7647   7.546   6.982   3.971
 2568TIP3   OH2 7648   7.807   3.210   6.640
 2568TIP3    H1 7649   7.769   3.250   6.718
 2568TIP3    H2 7650   7.852   3.282   6.595
 2569TIP3   OH2 7651   0.597   6.542   6.334
 2569TIP3    H1 7652   0.507   6.529   6.304
 2569TIP3    H2 7653   0.644   6.464   6.304
 2570TIP3   OH2 7654   5.384   0.599   6.267
 2570TIP3    H1 7655   5.319   0.554   6.322
 2570TIP3    H2 7656   5.338   0.677   6.235
 2571TIP3   OH2 7657   0.971   4.331   5.852
 2571TIP3    H1 7658   0.926   4.416   5.844
 2571TIP3    H2 7659   1.037   4.346   5.919
 2572TIP3   OH2 7660   5.422   4.735   5.745
 2572TIP3    H1 7661   5.371   4.796   5.692
 2572TIP3    H2 7662   5.398   4.756   5.835
 2573TIP3   OH2 7663   3.302   5.538   1.257
 2573TIP3    H1 7664   3.225   5.501   1.300
 2573TIP3    H2 7665   3.285   5.525   1.163
 2574TIP3   OH2 7666   4.022   5.610   1.293
 2574TIP3    H1 7667   3.993   5.682   1.349
 2574TIP3    H2 7668   4.107   5.584   1.329
 2575TIP3   OH2 7669   6.960   2.824   0.654
 2575TIP3    H1 7670   6.982   2.778   0.573
 2575TIP3    H2 7671   6.890   2.773   0.694
 2576TIP3   OH2 7672   0.186   1.681   5.545
 2576TIP3    H1 7673   0.168   1.637   5.462
 2576TIP3    H2 7674   0.194   1.609   5.608
 2577TIP3   OH2 7675   0.651   1.562   3.243
 2577TIP3    H1 7676   0.717   1.567   3.313
 2577TIP3    H2 7677   0.569   1.542   3.289
 2578TIP3   OH2 7678   5.946   3.839   6.364
 2578TIP3    H1 7679   6.012   3.895   6.406
 2578TIP3    H2 7680   5.865   3.888   6.371
 2579TIP3   OH2 7681   2.460   6.312   6.129
 2579TIP3    H1 7682   2.403   6.361   6.070
 2579TIP3    H2 7683   2.417   6.227   6.138
 2580TIP3   OH2 7684   4.620   7.039   3.195
 2580TIP3    H1 7685   4.608   6.964   3.137
 2580TIP3    H2 7686   4.571   7.016   3.274
 2581TIP3   OH2 7687   4.300   6.029   1.768
 2581TIP3    H1 7688   4.380   5.978   1.760
 2581TIP3    H2 7689   4.234   5.977   1.721
 2582TIP3   OH2 7690   1.122   5.820   1.544
 2582TIP3    H1 7691   1.092   5.811   1.635
 2582TIP3    H2 7692   1.068   5.759   1.495
 2583TIP3   OH2 7693   4.489   3.842   1.450
 2583TIP3    H1 7694   4.451   3.859   1.364
 2583TIP3    H2 7695   4.554   3.911   1.462
 2584TIP3   OH2 7696   3.677   4.499   4.954
 2584TIP3    H1 7697   3.661   4.583   4.995
 2584TIP3    H2 7698   3.760   4.469   4.991
 2585TIP3   OH2 7699   3.920   0.961   3.191
 2585TIP3    H1 7700   3.934   0.970   3.097
 2585TIP3    H2 7701   3.842   1.013   3.209
 2586TIP3   OH2 7702   3.633   3.143   2.408
 2586TIP3    H1 7703   3.597   3.187   2.485
 2586TIP3    H2 7704   3.719   3.113   2.435
 2587TIP3   OH2 7705   5.187   2.834   6.079
 2587TIP3    H1 7706   5.242   2.826   6.000
 2587TIP3    H2 7707   5.100   2.855   6.045
 2588TIP3   OH2 7708   5.000   6.312   2.088
 2588TIP3    H1 7709   4.969   6.254   2.018
 2588TIP3    H2 7710   5.034   6.389   2.042
 2589TIP3   OH2 7711   8.002   5.836   6.276
 2589TIP3    H1 7712   8.050   5.913   6.245
 2589TIP3    H2 7713   8.013   5.771   6.207
 2590TIP3   OH2 7714   1.067   5.112   3.511
 2590TIP3    H1 7715   1.149   5.159   3.518
 2590TIP3    H2 7716   1.090   5.030   3.468
 2591TIP3   OH2 7717   3.238   3.321   2.325
 2591TIP3    H1 7718   3.233   3.227   2.305
 2591TIP3    H2 7719   3.287   3.358   2.252
 2592TIP3   OH2 7720   5.911   5.206   4.036
 2592TIP3    H1 7721   5.916   5.298   4.064
 2592TIP3    H2 7722   6.002   5.183   4.015
 2593TIP3   OH2 7723   4.156   4.156   3.723
 2593TIP3    H1 7724   4.098   4.232   3.716
 2593TIP3    H2 7725   4.234   4.181   3.674
 2594TIP3   OH2 7726   2.174   1.416   2.070
 2594TIP3    H1 7727   2.247   1.354   2.067
 2594TIP3    H2 7728   2.131   1.407   1.986
 2595TIP3   OH2 7729   4.708   0.510   4.000
 2595TIP3    H1 7730   4.700   0.444   3.931
 2595TIP3    H2 7731   4.773   0.572   3.968
 2596TIP3   OH2 7732   5.939   4.056   6.071
 2596TIP3    H1 7733   5.872   3.991   6.094
 2596TIP3    H2 7734   5.933   4.063   5.975
 2597TIP3   OH2 7735   0.787   0.703   1.478
 2597TIP3    H1 7736   0.803   0.609   1.470
 2597TIP3    H2 7737   0.863   0.744   1.436
 2598TIP3   OH2 7738   0.338   3.734   3.782
 2598TIP3    H1 7739   0.391   3.759   3.858
 2598TIP3    H2 7740   0.296   3.652   3.809
 2599TIP3   OH2 7741   4.109   0.484   5.443
 2599TIP3    H1 7742   4.061   0.407   5.415
 2599TIP3    H2 7743   4.076   0.502   5.531
 2600TIP3   OH2 7744   0.055   5.891   4.934
 2600TIP3    H1 7745   0.040   5.983   4.956
 2600TIP3    H2 7746   0.150   5.879   4.942
 2601TIP3   OH2 7747   4.984   1.921   4.914
 2601TIP3    H1 7748   4.910   1.861   4.910
 2601TIP3    H2 7749   4.992   1.943   5.006
 2602TIP3   OH2 7750   7.935   2.087   5.125
 2602TIP3    H1 7751   7.865   2.037   5.166
 2602TIP3    H2 7752   7.998   2.102   5.195
 2603TIP3   OH2 7753   3.488   6.948   3.086
 2603TIP3    H1 7754   3.446   6.971   3.003
 2603TIP3    H2 7755   3.544   6.873   3.064
 2604TIP3   OH2 7756   0.759   7.577   4.935
 2604TIP3    H1 7757   0.777   7.484   4.940
 2604TIP3    H2 7758   0.833   7.619   4.978
 2605TIP3   OH2 7759   6.348   7.063   6.044
 2605TIP3    H1 7760   6.339   6.973   6.078
 2605TIP3    H2 7761   6.261   7.084   6.011
 2606TIP3   OH2 7762   3.313   3.441   4.228
 2606TIP3    H1 7763   3.336   3.350   4.206
 2606TIP3    H2 7764   3.393   3.490   4.213
 2607TIP3   OH2 7765   0.212   2.672   2.090
 2607TIP3    H1 7766   0.242   2.613   2.159
 2607TIP3    H2 7767   0.291   2.711   2.055
 2608TIP3   OH2 7768   6.021   2.200   5.841
 2608TIP3    H1 7769   6.004   2.181   5.933
 2608TIP3    H2 7770   6.029   2.296   5.838
 2609TIP3   OH2 7771   6.080   1.343   0.723
 2609TIP3    H1 7772   6.153   1.330   0.662
 2609TIP3    H2 7773   6.062   1.437   0.719
 2610TIP3   OH2 7774   3.672   6.111   0.447
 2610TIP3    H1 7775   3.636   6.027   0.476
 2610TIP3    H2 7776   3.752   6.087   0.399
 2611TIP3   OH2 7777   0.198   3.303   6.547
 2611TIP3    H1 7778   0.264   3.237   6.530
 2611TIP3    H2 7779   0.116   3.255   6.553
 2612TIP3   OH2 7780   8.082   5.766   1.086
 2612TIP3    H1 7781   8.092   5.688   1.031
 2612TIP3    H2 7782   8.171   5.801   1.093
 2613TIP3   OH2 7783   1.455   4.405   2.683
 2613TIP3    H1 7784   1.520   4.335   2.680
 2613TIP3    H2 7785   1.436   4.423   2.591
 2614TIP3   OH2 7786   7.799   0.873   5.845
 2614TIP3    H1 7787   7.833   0.867   5.756
 2614TIP3    H2 7788   7.835   0.796   5.889
 2615TIP3   OH2 7789   1.809   4.676   5.357
 2615TIP3    H1 7790   1.776   4.765   5.347
 2615TIP3    H2 7791   1.899   4.688   5.388
 2616TIP3   OH2 7792   3.415   6.584   3.940
 2616TIP3    H1 7793   3.454   6.646   3.879
 2616TIP3    H2 7794   3.425   6.625   4.026
 2617TIP3   OH2 7795   2.641   6.091   1.363
 2617TIP3    H1 7796   2.642   6.157   1.432
 2617TIP3    H2 7797   2.719   6.109   1.311
 2618TIP3   OH2 7798   0.222   1.365   0.556
 2618TIP3    H1 7799   0.278   1.404   0.489
 2618TIP3    H2 7800   0.178   1.440   0.597
 2619TIP3   OH2 7801   0.541   5.786   1.436
 2619TIP3    H1 7802   0.487   5.861   1.460
 2619TIP3    H2 7803   0.563   5.801   1.344
 2620TIP3   OH2 7804   5.783   0.028   4.934
 2620TIP3    H1 7805   5.688   0.038   4.943
 2620TIP3    H2 7806   5.797  -0.067   4.929
 2621TIP3   OH2 7807   6.230   6.884   4.824
 2621TIP3    H1 7808   6.294   6.920   4.761
 2621TIP3    H2 7809   6.262   6.912   4.909
 2622TIP3   OH2 7810   6.953   4.138   0.486
 2622TIP3    H1 7811   6.903   4.076   0.434
 2622TIP3    H2 7812   7.007   4.083   0.544
 2623TIP3   OH2 7813   6.980   0.259   0.383
 2623TIP3    H1 7814   7.002   0.272   0.475
 2623TIP3    H2 7815   7.043   0.314   0.336
 2624TIP3   OH2 7816   0.223   5.614   6.277
 2624TIP3    H1 7817   0.163   5.674   6.232
 2624TIP3    H2 7818   0.310   5.642   6.250
 2625TIP3   OH2 7819  -0.024   5.013   2.412
 2625TIP3    H1 7820  -0.086   4.982   2.346
 2625TIP3    H2 7821   0.030   5.077   2.365
 2626TIP3   OH2 7822   0.310   5.068   5.600
 2626TIP3    H1 7823   0.245   5.052   5.532
 2626TIP3    H2 7824   0.302   4.994   5.659
 2627TIP3   OH2 7825   3.397   5.377   2.702
 2627TIP3    H1 7826   3.336   5.337   2.763
 2627TIP3    H2 7827   3.344   5.401   2.626
 2628TIP3   OH2 7828   5.158   4.591   3.485
 2628TIP3    H1 7829   5.187   4.649   3.556
 2628TIP3    H2 7830   5.208   4.511   3.499
 2629TIP3   OH2 7831   3.353   0.562   5.933
 2629TIP3    H1 7832   3.296   0.577   5.857
 2629TIP3    H2 7833   3.293   0.555   6.007
 2630TIP3   OH2 7834   1.135   6.228   3.068
 2630TIP3    H1 7835   1.074   6.212   2.996
 2630TIP3    H2 7836   1.093   6.186   3.144
 2631TIP3   OH2 7837   7.707   3.930   2.606
 2631TIP3    H1 7838   7.623   3.975   2.613
 2631TIP3    H2 7839   7.771   4.000   2.592
 2632TIP3   OH2 7840   7.027   2.739   5.876
 2632TIP3    H1 7841   6.945   2.782   5.904
 2632TIP3    H2 7842   7.090   2.811   5.870
 2633TIP3   OH2 7843   6.542   7.134   5.217
 2633TIP3    H1 7844   6.619   7.119   5.162
 2633TIP3    H2 7845   6.556   7.080   5.295
 2634TIP3   OH2 7846   3.561   1.152   0.546
 2634TIP3    H1 7847   3.517   1.120   0.625
 2634TIP3    H2 7848   3.492   1.159   0.481
 2635TIP3   OH2 7849   2.805   7.417   1.749
 2635TIP3    H1 7850   2.737   7.455   1.804
 2635TIP3    H2 7851   2.772   7.426   1.660
 2636TIP3   OH2 7852   8.211   2.125   4.982
 2636TIP3    H1 7853   8.149   2.195   4.965
 2636TIP3    H2 7854   8.177   2.081   5.060
 2637TIP3   OH2 7855   1.439   1.667   2.156
 2637TIP3    H1 7856   1.485   1.590   2.189
 2637TIP3    H2 7857   1.482   1.689   2.074
 2638TIP3   OH2 7858   3.618   1.027   4.321
 2638TIP3    H1 7859   3.556   1.100   4.316
 2638TIP3    H2 7860   3.700   1.067   4.350
 2639TIP3   OH2 7861   6.141   0.924   0.678
 2639TIP3    H1 7862   6.233   0.935   0.654
 2639TIP3    H2 7863   6.142   0.892   0.768
 2640TIP3   OH2 7864   0.297   6.247   5.871
 2640TIP3    H1 7865   0.374   6.265   5.816
 2640TIP3    H2 7866   0.334   6.233   5.958
 2641TIP3   OH2 7867   1.923   0.178   1.499
 2641TIP3    H1 7868   1.917   0.127   1.418
 2641TIP3    H2 7869   1.900   0.117   1.568
 2642TIP3   OH2 7870   2.266   0.534   6.741
 2642TIP3    H1 7871   2.297   0.491   6.661
 2642TIP3    H2 7872   2.346   0.550   6.792
 2643TIP3   OH2 7873   1.573   5.971   1.598
 2643TIP3    H1 7874   1.518   5.905   1.556
 2643TIP3    H2 7875   1.610   5.926   1.675
 2644TIP3   OH2 7876   2.979   7.068   4.082
 2644TIP3    H1 7877   2.909   7.132   4.098
 2644TIP3    H2 7878   2.950   6.989   4.129
 2645TIP3   OH2 7879   7.015   1.371   5.213
 2645TIP3    H1 7880   7.049   1.449   5.259
 2645TIP3    H2 7881   7.057   1.374   5.127
 2646TIP3   OH2 7882   4.354   4.161   1.182
 2646TIP3    H1 7883   4.271   4.189   1.142
 2646TIP3    H2 7884   4.373   4.229   1.247
 2647TIP3   OH2 7885   7.166   6.647   3.719
 2647TIP3    H1 7886   7.118   6.629   3.638
 2647TIP3    H2 7887   7.247   6.597   3.710
 2648TIP3   OH2 7888   6.959   3.078   0.528
 2648TIP3    H1 7889   6.930   2.997   0.570
 2648TIP3    H2 7890   6.973   3.139   0.600
 2649TIP3   OH2 7891   6.414   2.478   0.237
 2649TIP3    H1 7892   6.487   2.489   0.176
 2649TIP3    H2 7893   6.381   2.567   0.250
 2650TIP3   OH2 7894   7.561   2.218   0.208
 2650TIP3    H1 7895   7.642   2.193   0.163
 2650TIP3    H2 7896   7.521   2.135   0.233
 2651TIP3   OH2 7897   2.322   2.383   3.063
 2651TIP3    H1 7898   2.369   2.418   3.139
 2651TIP3    H2 7899   2.290   2.461   3.017
 2652TIP3   OH2 7900   4.751   0.230   5.794
 2652TIP3    H1 7901   4.703   0.254   5.714
 2652TIP3    H2 7902   4.766   0.136   5.786
 2653TIP3   OH2 7903   1.145   4.639   6.247
 2653TIP3    H1 7904   1.081   4.619   6.316
 2653TIP3    H2 7905   1.099   4.701   6.190
 2654TIP3   OH2 7906   3.838   4.538   4.527
 2654TIP3    H1 7907   3.906   4.491   4.479
 2654TIP3    H2 7908   3.793   4.470   4.578
 2655TIP3   OH2 7909   2.356   7.573   5.025
 2655TIP3    H1 7910   2.289   7.566   5.092
 2655TIP3    H2 7911   2.312   7.549   4.944
 2656TIP3   OH2 7912   1.697   6.542   3.534
 2656TIP3    H1 7913   1.607   6.573   3.536
 2656TIP3    H2 7914   1.731   6.563   3.621
 2657TIP3   OH2 7915   4.860   0.312   0.625
 2657TIP3    H1 7916   4.854   0.406   0.642
 2657TIP3    H2 7917   4.856   0.273   0.712
 2658TIP3   OH2 7918   1.391   5.697   4.267
 2658TIP3    H1 7919   1.425   5.786   4.260
 2658TIP3    H2 7920   1.303   5.702   4.230
 2659TIP3   OH2 7921   6.373   6.275   2.285
 2659TIP3    H1 7922   6.395   6.220   2.209
 2659TIP3    H2 7923   6.457   6.304   2.319
 2660TIP3   OH2 7924   2.117   5.738   1.874
 2660TIP3    H1 7925   2.075   5.819   1.847
 2660TIP3    H2 7926   2.071   5.669   1.825
 2661TIP3   OH2 7927   5.270   5.352   3.728
 2661TIP3    H1 7928   5.268   5.384   3.819
 2661TIP3    H2 7929   5.289   5.430   3.676
 2662TIP3   OH2 7930   2.063   0.019   1.070
 2662TIP3    H1 7931   1.999  -0.045   1.037
 2662TIP3    H2 7932   2.034   0.103   1.034
 2663TIP3   OH2 7933   2.374   3.175   0.976
 2663TIP3    H1 7934   2.313   3.240   1.012
 2663TIP3    H2 7935   2.447   3.226   0.941
 2664TIP3   OH2 7936   7.165   5.301   5.760
 2664TIP3    H1 7937   7.177   5.210   5.786
 2664TIP3    H2 7938   7.253   5.333   5.740
 2665TIP3   OH2 7939   4.582   1.669   4.097
 2665TIP3    H1 7940   4.634   1.685   4.019
 2665TIP3    H2 7941   4.491   1.680   4.068
 2666TIP3   OH2 7942   6.156   2.386   1.862
 2666TIP3    H1 7943   6.136   2.316   1.800
 2666TIP3    H2 7944   6.246   2.370   1.889
 2667TIP3   OH2 7945   3.678   0.572   6.608
 2667TIP3    H1 7946   3.617   0.522   6.553
 2667TIP3    H2 7947   3.678   0.660   6.570
 2668TIP3   OH2 7948   4.238   2.056   5.055
 2668TIP3    H1 7949   4.328   2.029   5.037
 2668TIP3    H2 7950   4.184   1.984   5.024
 2669TIP3   OH2 7951   5.997   4.214   3.664
 2669TIP3    H1 7952   5.920   4.271   3.661
 2669TIP3    H2 7953   6.070   4.272   3.641
 2670TIP3   OH2 7954   5.426   0.330   2.865
 2670TIP3    H1 7955   5.453   0.243   2.835
 2670TIP3    H2 7956   5.364   0.314   2.936
 2671TIP3   OH2 7957   7.392   7.603   1.980
 2671TIP3    H1 7958   7.447   7.525   1.984
 2671TIP3    H2 7959   7.438   7.662   1.919
 2672TIP3   OH2 7960   5.189   7.568   5.519
 2672TIP3    H1 7961   5.265   7.621   5.543
 2672TIP3    H2 7962   5.168   7.594   5.429
 2673TIP3   OH2 7963   1.148   7.248   0.547
 2673TIP3    H1 7964   1.122   7.233   0.638
 2673TIP3    H2 7965   1.232   7.294   0.553
 2674TIP3   OH2 7966   7.843   4.094   2.014
 2674TIP3    H1 7967   7.786   4.029   1.973
 2674TIP3    H2 7968   7.788   4.134   2.082
 2675TIP3   OH2 7969   4.066   1.659   5.722
 2675TIP3    H1 7970   4.008   1.713   5.668
 2675TIP3    H2 7971   4.154   1.686   5.696
 2676TIP3   OH2 7972   5.830   0.425   1.948
 2676TIP3    H1 7973   5.916   0.457   1.976
 2676TIP3    H2 7974   5.775   0.504   1.945
 2677TIP3   OH2 7975   4.020   7.747   3.441
 2677TIP3    H1 7976   4.109   7.711   3.445
 2677TIP3    H2 7977   4.029   7.837   3.471
 2678TIP3   OH2 7978   4.003   3.452   1.024
 2678TIP3    H1 7979   4.003   3.406   0.940
 2678TIP3    H2 7980   3.918   3.496   1.027
 2679TIP3   OH2 7981   1.586   1.041   0.394
 2679TIP3    H1 7982   1.559   1.127   0.427
 2679TIP3    H2 7983   1.681   1.047   0.388
 2680TIP3   OH2 7984   4.829   7.740   4.407
 2680TIP3    H1 7985   4.771   7.767   4.335
 2680TIP3    H2 7986   4.815   7.646   4.414
 2681TIP3   OH2 7987   2.262   1.777   6.241
 2681TIP3    H1 7988   2.351   1.788   6.207
 2681TIP3    H2 7989   2.254   1.843   6.310
 2682TIP3   OH2 7990   3.159   7.192   1.184
 2682TIP3    H1 7991   3.206   7.251   1.243
 2682TIP3    H2 7992   3.071   7.230   1.178
 2683TIP3   OH2 7993   1.415   7.432   0.982
 2683TIP3    H1 7994   1.346   7.397   1.038
 2683TIP3    H2 7995   1.492   7.381   1.004
 2684TIP3   OH2 7996   3.102   0.137   0.348
 2684TIP3    H1 7997   3.058   0.222   0.339
 2684TIP3    H2 7998   3.091   0.114   0.440
 2685TIP3   OH2 7999   5.838   5.817   2.838
 2685TIP3    H1 8000   5.884   5.899   2.820
 2685TIP3    H2 8001   5.855   5.762   2.762
 2686TIP3   OH2 8002   2.843   5.528   0.739
 2686TIP3    H1 8003   2.844   5.436   0.764
 2686TIP3    H2 8004   2.754   5.544   0.708
 2687TIP3   OH2 8005   3.087   3.302   4.384
 2687TIP3    H1 8006   3.162   3.263   4.339
 2687TIP3    H2 8007   3.056   3.232   4.442
 2688TIP3   OH2 8008   5.479   0.063   2.820
 2688TIP3    H1 8009   5.472   0.051   2.725
 2688TIP3    H2 8010   5.405   0.012   2.855
 2689TIP3   OH2 8011   2.320   6.338   4.458
 2689TIP3    H1 8012   2.226   6.318   4.454
 2689TIP3    H2 8013   2.352   6.321   4.370
 2690TIP3   OH2 8014   5.646   0.549   0.931
 2690TIP3    H1 8015   5.651   0.513   1.020
 2690TIP3    H2 8016   5.565   0.514   0.895
 2691TIP3   OH2 8017   5.141   1.743   3.584
 2691TIP3    H1 8018   5.090   1.662   3.579
 2691TIP3    H2 8019   5.103   1.790   3.658
 2692TIP3   OH2 8020   1.788   5.195   3.958
 2692TIP3    H1 8021   1.698   5.212   3.929
 2692TIP3    H2 8022   1.790   5.223   4.049
 2693TIP3   OH2 8023   8.139   5.864   5.892
 2693TIP3    H1 8024   8.212   5.926   5.895
 2693TIP3    H2 8025   8.159   5.808   5.817
 2694TIP3   OH2 8026   3.704   2.230   6.066
 2694TIP3    H1 8027   3.683   2.207   5.975
 2694TIP3    H2 8028   3.795   2.260   6.061
 2695TIP3   OH2 8029   3.068   7.433   5.537
 2695TIP3    H1 8030   3.152   7.387   5.541
 2695TIP3    H2 8031   3.068   7.490   5.613
 2696TIP3   OH2 8032   6.666   2.081   5.700
 2696TIP3    H1 8033   6.593   2.034   5.740
 2696TIP3    H2 8034   6.670   2.164   5.748
 2697TIP3   OH2 8035   5.911   6.301   0.586
 2697TIP3    H1 8036   5.816   6.287   0.587
 2697TIP3    H2 8037   5.922   6.386   0.543
 2698TIP3   OH2 8038   2.317   6.075   6.121
 2698TIP3    H1 8039   2.301   6.013   6.049
 2698TIP3    H2 8040   2.231   6.087   6.161
 2699TIP3   OH2 8041   1.079   6.626   6.066
 2699TIP3    H1 8042   1.155   6.684   6.063
 2699TIP3    H2 8043   1.005   6.685   6.078
 2700TIP3   OH2 8044   0.339   3.217   0.776
 2700TIP3    H1 8045   0.332   3.286   0.842
 2700TIP3    H2 8046   0.402   3.155   0.813
 2701TIP3   OH2 8047   2.711   2.377   5.870
 2701TIP3    H1 8048   2.737   2.425   5.949
 2701TIP3    H2 8049   2.787   2.382   5.812
 2702TIP3   OH2 8050   3.797   4.855   5.276
 2702TIP3    H1 8051   3.766   4.829   5.363
 2702TIP3    H2 8052   3.837   4.941   5.290
 2703TIP3   OH2 8053   3.781   3.836   1.858
 2703TIP3    H1 8054   3.806   3.771   1.924
 2703TIP3    H2 8055   3.745   3.784   1.786
 2704TIP3   OH2 8056   2.572   1.915   3.734
 2704TIP3    H1 8057   2.661   1.890   3.710
 2704TIP3    H2 8058   2.519   1.837   3.714
 2705TIP3   OH2 8059   3.200   0.304   1.418
 2705TIP3    H1 8060   3.259   0.277   1.347
 2705TIP3    H2 8061   3.221   0.244   1.490
 2706TIP3   OH2 8062   0.602   3.890   5.459
 2706TIP3    H1 8063   0.639   3.912   5.374
 2706TIP3    H2 8064   0.640   3.805   5.481
 2707TIP3   OH2 8065   2.418   5.044   0.599
 2707TIP3    H1 8066   2.498   5.017   0.644
 2707TIP3    H2 8067   2.365   5.085   0.667
 2708TIP3   OH2 8068   6.315   3.482   3.645
 2708TIP3    H1 8069   6.233   3.530   3.656
 2708TIP3    H2 8070   6.317   3.421   3.718
 2709TIP3   OH2 8071   5.894   6.715   5.334
 2709TIP3    H1 8072   5.804   6.708   5.301
 2709TIP3    H2 8073   5.885   6.760   5.418
 2710TIP3   OH2 8074   1.419   3.238   4.501
 2710TIP3    H1 8075   1.362   3.195   4.564
 2710TIP3    H2 8076   1.360   3.285   4.443
 2711TIP3   OH2 8077   1.914   2.127   2.135
 2711TIP3    H1 8078   1.841   2.118   2.074
 2711TIP3    H2 8079   1.875   2.126   2.222
 2712TIP3   OH2 8080   4.125   3.098   4.190
 2712TIP3    H1 8081   4.046   3.051   4.217
 2712TIP3    H2 8082   4.154   3.054   4.110
 2713TIP3   OH2 8083   4.787   2.535   4.936
 2713TIP3    H1 8084   4.753   2.601   4.997
 2713TIP3    H2 8085   4.747   2.453   4.965
 2714TIP3   OH2 8086   1.812   2.225   5.610
 2714TIP3    H1 8087   1.755   2.225   5.688
 2714TIP3    H2 8088   1.894   2.263   5.641
 2715TIP3   OH2 8089   3.469   3.889   5.623
 2715TIP3    H1 8090   3.413   3.915   5.550
 2715TIP3    H2 8091   3.460   3.959   5.687
 2716TIP3   OH2 8092   1.045   2.243   0.136
 2716TIP3    H1 8093   1.132   2.212   0.110
 2716TIP3    H2 8094   0.988   2.167   0.129
 2717TIP3   OH2 8095   4.317   7.267   2.535
 2717TIP3    H1 8096   4.390   7.328   2.538
 2717TIP3    H2 8097   4.250   7.308   2.591
 2718TIP3   OH2 8098   7.813   0.781   0.295
 2718TIP3    H1 8099   7.819   0.815   0.206
 2718TIP3    H2 8100   7.777   0.853   0.346
 2719TIP3   OH2 8101   2.754   3.614   4.150
 2719TIP3    H1 8102   2.699   3.545   4.113
 2719TIP3    H2 8103   2.742   3.688   4.090
 2720TIP3   OH2 8104   7.384   4.643   3.904
 2720TIP3    H1 8105   7.327   4.677   3.973
 2720TIP3    H2 8106   7.471   4.642   3.944
 2721TIP3   OH2 8107   8.250   2.949   5.761
 2721TIP3    H1 8108   8.206   2.949   5.676
 2721TIP3    H2 8109   8.273   2.857   5.776
 2722TIP3   OH2 8110   7.650   4.202   0.627
 2722TIP3    H1 8111   7.633   4.154   0.708
 2722TIP3    H2 8112   7.574   4.260   0.616
 2723TIP3   OH2 8113   2.642   6.893   4.598
 2723TIP3    H1 8114   2.587   6.831   4.550
 2723TIP3    H2 8115   2.662   6.848   4.680
 2724TIP3   OH2 8116   3.865   5.434   2.739
 2724TIP3    H1 8117   3.846   5.379   2.816
 2724TIP3    H2 8118   3.787   5.488   2.729
 2725TIP3   OH2 8119   4.152   2.601   3.742
 2725TIP3    H1 8120   4.080   2.540   3.728
 2725TIP3    H2 8121   4.168   2.640   3.657
 2726TIP3   OH2 8122   4.683   6.093   1.670
 2726TIP3    H1 8123   4.746   6.132   1.731
 2726TIP3    H2 8124   4.717   6.114   1.583
 2727TIP3   OH2 8125   4.651   5.140   5.562
 2727TIP3    H1 8126   4.735   5.154   5.518
 2727TIP3    H2 8127   4.586   5.155   5.493
 2728TIP3   OH2 8128   1.940   3.731   2.836
 2728TIP3    H1 8129   1.954   3.826   2.836
 2728TIP3    H2 8130   1.860   3.719   2.887
 2729TIP3   OH2 8131   5.031   2.862   4.408
 2729TIP3    H1 8132   4.981   2.827   4.481
 2729TIP3    H2 8133   5.039   2.789   4.347
 2730TIP3   OH2 8134   1.080   7.196   3.473
 2730TIP3    H1 8135   1.009   7.209   3.411
 2730TIP3    H2 8136   1.156   7.237   3.432
 2731TIP3   OH2 8137   4.691   7.617   6.625
 2731TIP3    H1 8138   4.621   7.607   6.561
 2731TIP3    H2 8139   4.748   7.541   6.611
 2732TIP3   OH2 8140   2.038   4.096   4.527
 2732TIP3    H1 8141   2.120   4.064   4.565
 2732TIP3    H2 8142   1.974   4.028   4.547
 2733TIP3   OH2 8143   4.042   2.583   2.095
 2733TIP3    H1 8144   4.052   2.589   2.000
 2733TIP3    H2 8145   4.125   2.617   2.130
 2734TIP3   OH2 8146   6.930   1.460   0.961
 2734TIP3    H1 8147   6.848   1.416   0.984
 2734TIP3    H2 8148   6.965   1.490   1.045
 2735TIP3   OH2 8149   5.579   0.269   2.552
 2735TIP3    H1 8150   5.614   0.216   2.624
 2735TIP3    H2 8151   5.562   0.205   2.482
 2736TIP3   OH2 8152   3.822   6.562   4.647
 2736TIP3    H1 8153   3.866   6.503   4.708
 2736TIP3    H2 8154   3.886   6.576   4.577
 2737TIP3   OH2 8155   6.176   3.910   5.822
 2737TIP3    H1 8156   6.207   3.857   5.748
 2737TIP3    H2 8157   6.227   3.879   5.897
 2738TIP3   OH2 8158   1.781   1.492   1.704
 2738TIP3    H1 8159   1.764   1.424   1.639
 2738TIP3    H2 8160   1.841   1.553   1.660
 2739TIP3   OH2 8161   7.181   1.670   4.750
 2739TIP3    H1 8162   7.090   1.658   4.774
 2739TIP3    H2 8163   7.223   1.587   4.773
 2740TIP3   OH2 8164   4.878   1.417   3.341
 2740TIP3    H1 8165   4.926   1.367   3.275
 2740TIP3    H2 8166   4.851   1.497   3.296
 2741TIP3   OH2 8167   4.022   0.193   6.044
 2741TIP3    H1 8168   4.065   0.234   5.968
 2741TIP3    H2 8169   4.078   0.215   6.118
 2742TIP3   OH2 8170   6.776   3.637   1.416
 2742TIP3    H1 8171   6.690   3.662   1.451
 2742TIP3    H2 8172   6.769   3.543   1.399
 2743TIP3   OH2 8173   7.073   0.023   1.791
 2743TIP3    H1 8174   7.142   0.057   1.848
 2743TIP3    H2 8175   7.093   0.061   1.705
 2744TIP3   OH2 8176   2.137   2.318   3.850
 2744TIP3    H1 8177   2.081   2.243   3.831
 2744TIP3    H2 8178   2.173   2.300   3.936
 2745TIP3   OH2 8179   7.589   7.040   2.927
 2745TIP3    H1 8180   7.533   7.106   2.886
 2745TIP3    H2 8181   7.574   6.961   2.876
 2746TIP3   OH2 8182   6.961   6.255   5.160
 2746TIP3    H1 8183   6.883   6.267   5.214
 2746TIP3    H2 8184   6.928   6.246   5.071
 2747TIP3   OH2 8185   6.833   2.322   0.466
 2747TIP3    H1 8186   6.902   2.327   0.533
 2747TIP3    H2 8187   6.855   2.243   0.416
 2748TIP3   OH2 8188   1.406   1.836   0.914
 2748TIP3    H1 8189   1.445   1.814   0.829
 2748TIP3    H2 8190   1.331   1.777   0.922
 2749TIP3   OH2 8191   6.082   7.246   6.715
 2749TIP3    H1 8192   6.151   7.277   6.656
 2749TIP3    H2 8193   6.111   7.276   6.802
 2750TIP3   OH2 8194   4.438   6.999   1.785
 2750TIP3    H1 8195   4.440   6.992   1.689
 2750TIP3    H2 8196   4.428   7.093   1.801
 2751TIP3   OH2 8197   1.123   1.081   1.563
 2751TIP3    H1 8198   1.032   1.108   1.577
 2751TIP3    H2 8199   1.121   1.028   1.484
 2752TIP3   OH2 8200   5.553   1.156   1.557
 2752TIP3    H1 8201   5.599   1.208   1.623
 2752TIP3    H2 8202   5.579   1.194   1.474
 2753TIP3   OH2 8203   8.033   2.906   1.995
 2753TIP3    H1 8204   7.953   2.958   1.992
 2753TIP3    H2 8205   8.021   2.848   2.070
 2754TIP3   OH2 8206   1.618   0.117   5.984
 2754TIP3    H1 8207   1.532   0.090   5.951
 2754TIP3    H2 8208   1.630   0.066   6.064
 2755TIP3   OH2 8209   2.391   6.516   4.089
 2755TIP3    H1 8210   2.357   6.436   4.129
 2755TIP3    H2 8211   2.339   6.527   4.009
 2756TIP3   OH2 8212   2.412   2.590   6.354
 2756TIP3    H1 8213   2.368   2.658   6.405
 2756TIP3    H2 8214   2.440   2.634   6.274
 2757TIP3   OH2 8215   4.473   1.251   1.878
 2757TIP3    H1 8216   4.564   1.278   1.862
 2757TIP3    H2 8217   4.421   1.305   1.817
 2758TIP3   OH2 8218   7.954   5.683   2.227
 2758TIP3    H1 8219   7.984   5.761   2.274
 2758TIP3    H2 8220   7.981   5.698   2.136
 2759TIP3   OH2 8221   6.220   6.771   2.375
 2759TIP3    H1 8222   6.152   6.821   2.419
 2759TIP3    H2 8223   6.231   6.693   2.430
 2760TIP3   OH2 8224   5.339   3.713   1.296
 2760TIP3    H1 8225   5.418   3.679   1.337
 2760TIP3    H2 8226   5.319   3.793   1.345
 2761TIP3   OH2 8227   5.115   0.594   1.739
 2761TIP3    H1 8228   5.058   0.670   1.749
 2761TIP3    H2 8229   5.200   0.631   1.716
 2762TIP3   OH2 8230   2.631   3.634   6.068
 2762TIP3    H1 8231   2.704   3.687   6.100
 2762TIP3    H2 8232   2.672   3.556   6.032
 2763TIP3   OH2 8233   2.118   3.619   1.087
 2763TIP3    H1 8234   2.023   3.618   1.092
 2763TIP3    H2 8235   2.147   3.650   1.173
 2764TIP3   OH2 8236   1.446   3.139   1.910
 2764TIP3    H1 8237   1.435   3.197   1.835
 2764TIP3    H2 8238   1.372   3.161   1.968
 2765TIP3   OH2 8239   7.655   6.329   0.213
 2765TIP3    H1 8240   7.730   6.281   0.177
 2765TIP3    H2 8241   7.690   6.414   0.239
 2766TIP3   OH2 8242   4.138   3.276   1.149
 2766TIP3    H1 8243   4.180   3.251   1.067
 2766TIP3    H2 8244   4.080   3.348   1.125
 2767TIP3   OH2 8245   4.867   1.771   5.376
 2767TIP3    H1 8246   4.938   1.731   5.327
 2767TIP3    H2 8247   4.790   1.719   5.353
 2768TIP3   OH2 8248   7.493   7.261   3.663
 2768TIP3    H1 8249   7.576   7.290   3.624
 2768TIP3    H2 8250   7.517   7.189   3.721
 2769TIP3   OH2 8251   2.379   3.035   6.132
 2769TIP3    H1 8252   2.337   3.042   6.046
 2769TIP3    H2 8253   2.471   3.057   6.115
 2770TIP3   OH2 8254   3.412   4.663   1.048
 2770TIP3    H1 8255   3.380   4.748   1.079
 2770TIP3    H2 8256   3.442   4.619   1.128
 2771TIP3   OH2 8257   0.127   2.917   2.560
 2771TIP3    H1 8258   0.160   2.922   2.650
 2771TIP3    H2 8259   0.178   2.981   2.511
 2772TIP3   OH2 8260   1.613   6.402   1.983
 2772TIP3    H1 8261   1.697   6.449   1.986
 2772TIP3    H2 8262   1.596   6.377   2.074
 2773TIP3   OH2 8263   5.547   3.800   6.743
 2773TIP3    H1 8264   5.508   3.740   6.807
 2773TIP3    H2 8265   5.620   3.840   6.790
 2774TIP3   OH2 8266   1.679   4.139   4.169
 2774TIP3    H1 8267   1.737   4.063   4.160
 2774TIP3    H2 8268   1.603   4.118   4.115
 2775TIP3   OH2 8269   6.413   5.350   1.402
 2775TIP3    H1 8270   6.389   5.371   1.311
 2775TIP3    H2 8271   6.507   5.338   1.399
 2776TIP3   OH2 8272   8.310   6.486   4.705
 2776TIP3    H1 8273   8.258   6.416   4.666
 2776TIP3    H2 8274   8.255   6.521   4.775
 2777TIP3   OH2 8275   5.752   5.480   4.598
 2777TIP3    H1 8276   5.706   5.561   4.624
 2777TIP3    H2 8277   5.682   5.421   4.572
 2778TIP3   OH2 8278   0.907   4.976   3.032
 2778TIP3    H1 8279   0.901   4.997   3.126
 2778TIP3    H2 8280   0.839   4.910   3.018
 2779TIP3   OH2 8281   0.297   4.699   3.223
 2779TIP3    H1 8282   0.271   4.615   3.262
 2779TIP3    H2 8283   0.344   4.744   3.293
 2780TIP3   OH2 8284   6.739   1.276   0.479
 2780TIP3    H1 8285   6.738   1.372   0.479
 2780TIP3    H2 8286   6.689   1.252   0.401
 2781TIP3   OH2 8287   4.606   4.244   6.090
 2781TIP3    H1 8288   4.570   4.162   6.124
 2781TIP3    H2 8289   4.529   4.294   6.064
 2782TIP3   OH2 8290   1.523   7.680   5.602
 2782TIP3    H1 8291   1.545   7.743   5.533
 2782TIP3    H2 8292   1.472   7.613   5.558
 2783TIP3   OH2 8293   3.639   5.877   1.728
 2783TIP3    H1 8294   3.591   5.958   1.712
 2783TIP3    H2 8295   3.641   5.869   1.824
 2784TIP3   OH2 8296   0.665   7.811   2.317
 2784TIP3    H1 8297   0.586   7.834   2.268
 2784TIP3    H2 8298   0.728   7.879   2.293
 2785TIP3   OH2 8299   1.570   6.720   2.846
 2785TIP3    H1 8300   1.510   6.739   2.918
 2785TIP3    H2 8301   1.595   6.629   2.859
 2786TIP3   OH2 8302   3.383   0.272   4.586
 2786TIP3    H1 8303   3.341   0.329   4.522
 2786TIP3    H2 8304   3.310   0.228   4.630
 2787TIP3   OH2 8305   5.143   4.056   0.364
 2787TIP3    H1 8306   5.211   4.091   0.422
 2787TIP3    H2 8307   5.079   4.016   0.424
 2788TIP3   OH2 8308   5.019   2.964   6.558
 2788TIP3    H1 8309   5.016   3.005   6.471
 2788TIP3    H2 8310   5.111   2.938   6.568
 2789TIP3   OH2 8311   3.716   4.362   5.333
 2789TIP3    H1 8312   3.789   4.337   5.389
 2789TIP3    H2 8313   3.639   4.324   5.376
 2790TIP3   OH2 8314   3.394   0.486   3.384
 2790TIP3    H1 8315   3.487   0.469   3.395
 2790TIP3    H2 8316   3.390   0.574   3.344
 2791TIP3   OH2 8317   4.852   1.947   5.621
 2791TIP3    H1 8318   4.912   1.996   5.678
 2791TIP3    H2 8319   4.908   1.887   5.572
 2792TIP3   OH2 8320   2.476   1.786   1.898
 2792TIP3    H1 8321   2.398   1.742   1.931
 2792TIP3    H2 8322   2.443   1.865   1.856
 2793TIP3   OH2 8323   4.312   4.339   4.215
 2793TIP3    H1 8324   4.230   4.363   4.172
 2793TIP3    H2 8325   4.284   4.291   4.293
 2794TIP3   OH2 8326   1.713   4.554  -0.013
 2794TIP3    H1 8327   1.788   4.585   0.038
 2794TIP3    H2 8328   1.702   4.463   0.013
 2795TIP3   OH2 8329   4.160   4.808   4.315
 2795TIP3    H1 8330   4.194   4.897   4.328
 2795TIP3    H2 8331   4.216   4.771   4.247
 2796TIP3   OH2 8332   3.708   5.953   0.029
 2796TIP3    H1 8333   3.666   5.980   0.110
 2796TIP3    H2 8334   3.660   5.875   0.002
 2797TIP3   OH2 8335   0.531   4.781   5.434
 2797TIP3    H1 8336   0.514   4.812   5.345
 2797TIP3    H2 8337   0.444   4.771   5.473
 2798TIP3   OH2 8338   4.447   2.283   0.429
 2798TIP3    H1 8339   4.472   2.219   0.363
 2798TIP3    H2 8340   4.460   2.238   0.512
 2799TIP3   OH2 8341   8.283   3.027   1.990
 2799TIP3    H1 8342   8.204   2.975   1.977
 2799TIP3    H2 8343   8.326   2.986   2.066
 2800TIP3   OH2 8344   6.379   2.280   2.880
 2800TIP3    H1 8345   6.463   2.237   2.866
 2800TIP3    H2 8346   6.349   2.304   2.792
 2801TIP3   OH2 8347   3.718   1.922   1.584
 2801TIP3    H1 8348   3.626   1.948   1.585
 2801TIP3    H2 8349   3.746   1.931   1.675
 2802TIP3   OH2 8350   2.005   2.456   3.346
 2802TIP3    H1 8351   1.989   2.548   3.325
 2802TIP3    H2 8352   2.030   2.457   3.438
 2803TIP3   OH2 8353   3.015   3.545   4.333
 2803TIP3    H1 8354   3.003   3.558   4.239
 2803TIP3    H2 8355   3.069   3.466   4.340
 2804TIP3   OH2 8356   0.906   3.298   5.485
 2804TIP3    H1 8357   0.902   3.319   5.391
 2804TIP3    H2 8358   0.819   3.264   5.505
 2805TIP3   OH2 8359   1.644   0.002   0.773
 2805TIP3    H1 8360   1.569  -0.016   0.716
 2805TIP3    H2 8361   1.692   0.071   0.727
 2806TIP3   OH2 8362   6.516   1.715   5.611
 2806TIP3    H1 8363   6.563   1.662   5.546
 2806TIP3    H2 8364   6.550   1.686   5.695
 2807TIP3   OH2 8365   2.995   5.396   5.006
 2807TIP3    H1 8366   3.088   5.403   5.026
 2807TIP3    H2 8367   2.987   5.313   4.958
 2808TIP3   OH2 8368   0.043   2.231   5.974
 2808TIP3    H1 8369  -0.005   2.149   5.984
 2808TIP3    H2 8370   0.076   2.229   5.885
 2809TIP3   OH2 8371   7.584   3.189   4.961
 2809TIP3    H1 8372   7.652   3.193   5.029
 2809TIP3    H2 8373   7.582   3.097   4.935
 2810TIP3   OH2 8374   6.417   1.803   5.195
 2810TIP3    H1 8375   6.455   1.887   5.219
 2810TIP3    H2 8376   6.353   1.784   5.264
 2811TIP3   OH2 8377   2.535   2.184   4.286
 2811TIP3    H1 8378   2.586   2.117   4.331
 2811TIP3    H2 8379   2.536   2.260   4.345
 2812TIP3   OH2 8380   7.080   4.302   2.644
 2812TIP3    H1 8381   6.986   4.313   2.655
 2812TIP3    H2 8382   7.089   4.221   2.594
 2813TIP3   OH2 8383   2.385   5.834   1.567
 2813TIP3    H1 8384   2.446   5.865   1.633
 2813TIP3    H2 8385   2.317   5.900   1.564
 2814TIP3   OH2 8386   0.679   7.499   6.046
 2814TIP3    H1 8387   0.682   7.506   6.142
 2814TIP3    H2 8388   0.637   7.415   6.029
 2815TIP3   OH2 8389   6.795   0.761   5.558
 2815TIP3    H1 8390   6.814   0.695   5.491
 2815TIP3    H2 8391   6.868   0.823   5.552
 2816TIP3   OH2 8392   8.258   5.631   4.924
 2816TIP3    H1 8393   8.300   5.713   4.947
 2816TIP3    H2 8394   8.164   5.649   4.932
 2817TIP3   OH2 8395   2.938   5.346   2.550
 2817TIP3    H1 8396   2.863   5.289   2.534
 2817TIP3    H2 8397   3.006   5.287   2.583
 2818TIP3   OH2 8398   2.119   4.345   6.616
 2818TIP3    H1 8399   2.196   4.365   6.563
 2818TIP3    H2 8400   2.148   4.356   6.706
 2819TIP3   OH2 8401   0.914   4.499   1.931
 2819TIP3    H1 8402   0.974   4.515   2.004
 2819TIP3    H2 8403   0.857   4.575   1.930
 2820TIP3   OH2 8404   4.067   4.578   1.518
 2820TIP3    H1 8405   4.126   4.605   1.588
 2820TIP3    H2 8406   4.024   4.500   1.552
 2821TIP3   OH2 8407   6.819   4.982   2.593
 2821TIP3    H1 8408   6.874   4.906   2.610
 2821TIP3    H2 8409   6.758   4.953   2.525
 2822TIP3   OH2 8410   7.575   0.895   0.060
 2822TIP3    H1 8411   7.522   0.906  -0.019
 2822TIP3    H2 8412   7.538   0.819   0.104
 2823TIP3   OH2 8413   5.614   1.328   4.954
 2823TIP3    H1 8414   5.555   1.403   4.955
 2823TIP3    H2 8415   5.564   1.258   4.911
 2824TIP3   OH2 8416   0.149   7.368   6.246
 2824TIP3    H1 8417   0.057   7.392   6.237
 2824TIP3    H2 8418   0.152   7.314   6.326
 2825TIP3   OH2 8419   6.865   7.422   5.106
 2825TIP3    H1 8420   6.900   7.360   5.041
 2825TIP3    H2 8421   6.849   7.368   5.183
 2826TIP3   OH2 8422   1.483   2.865   6.265
 2826TIP3    H1 8423   1.529   2.916   6.199
 2826TIP3    H2 8424   1.515   2.776   6.253
 2827TIP3   OH2 8425   7.727   3.802   4.526
 2827TIP3    H1 8426   7.646   3.844   4.496
 2827TIP3    H2 8427   7.766   3.865   4.586
 2828TIP3   OH2 8428   0.879   0.943   3.272
 2828TIP3    H1 8429   0.888   0.849   3.261
 2828TIP3    H2 8430   0.937   0.965   3.345
 2829TIP3   OH2 8431   3.224   4.233   3.567
 2829TIP3    H1 8432   3.245   4.284   3.645
 2829TIP3    H2 8433   3.280   4.156   3.574
 2830TIP3   OH2 8434   3.182   3.029   2.655
 2830TIP3    H1 8435   3.117   3.099   2.663
 2830TIP3    H2 8436   3.132   2.948   2.663
 2831TIP3   OH2 8437   0.698   5.826   5.899
 2831TIP3    H1 8438   0.766   5.859   5.840
 2831TIP3    H2 8439   0.625   5.887   5.888
 2832TIP3   OH2 8440   2.673   3.914   5.079
 2832TIP3    H1 8441   2.644   3.833   5.122
 2832TIP3    H2 8442   2.768   3.907   5.075
 2833TIP3   OH2 8443   2.450   3.195   2.787
 2833TIP3    H1 8444   2.480   3.284   2.767
 2833TIP3    H2 8445   2.530   3.148   2.811
 2834TIP3   OH2 8446   5.301   4.349   2.381
 2834TIP3    H1 8447   5.316   4.425   2.436
 2834TIP3    H2 8448   5.243   4.293   2.432
 2835TIP3   OH2 8449   5.841   1.316   2.429
 2835TIP3    H1 8450   5.882   1.264   2.498
 2835TIP3    H2 8451   5.875   1.278   2.348
 2836TIP3   OH2 8452   2.685   0.873   4.694
 2836TIP3    H1 8453   2.735   0.806   4.647
 2836TIP3    H2 8454   2.743   0.950   4.695
 2837TIP3   OH2 8455   2.407   1.584   5.903
 2837TIP3    H1 8456   2.419   1.493   5.928
 2837TIP3    H2 8457   2.313   1.597   5.903
 2838TIP3   OH2 8458   6.555   5.998   0.904
 2838TIP3    H1 8459   6.509   5.961   0.829
 2838TIP3    H2 8460   6.516   6.085   0.916
 2839TIP3   OH2 8461   0.757   1.382   0.463
 2839TIP3    H1 8462   0.790   1.293   0.473
 2839TIP3    H2 8463   0.682   1.387   0.521
 2840TIP3   OH2 8464   5.996   6.547   4.052
 2840TIP3    H1 8465   5.988   6.470   4.108
 2840TIP3    H2 8466   6.073   6.531   3.998
 2841TIP3   OH2 8467   4.049   1.587   6.055
 2841TIP3    H1 8468   4.103   1.663   6.075
 2841TIP3    H2 8469   4.057   1.576   5.960
 2842TIP3   OH2 8470   7.707   4.385   5.453
 2842TIP3    H1 8471   7.797   4.362   5.433
 2842TIP3    H2 8472   7.698   4.368   5.547
 2843TIP3   OH2 8473   7.361   6.450   0.899
 2843TIP3    H1 8474   7.453   6.471   0.910
 2843TIP3    H2 8475   7.314   6.532   0.916
 2844TIP3   OH2 8476   0.888   5.955   0.217
 2844TIP3    H1 8477   0.852   5.884   0.270
 2844TIP3    H2 8478   0.822   6.024   0.220
 2845TIP3   OH2 8479   0.369   2.483   6.554
 2845TIP3    H1 8480   0.317   2.561   6.574
 2845TIP3    H2 8481   0.397   2.496   6.464
 2846TIP3   OH2 8482   4.396   5.658   4.728
 2846TIP3    H1 8483   4.365   5.743   4.697
 2846TIP3    H2 8484   4.491   5.661   4.717
 2847TIP3   OH2 8485   7.177   5.126   5.230
 2847TIP3    H1 8486   7.149   5.215   5.252
 2847TIP3    H2 8487   7.102   5.072   5.254
 2848TIP3   OH2 8488   3.118   2.347   1.875
 2848TIP3    H1 8489   3.130   2.438   1.850
 2848TIP3    H2 8490   3.152   2.296   1.802
 2849TIP3   OH2 8491   1.535   3.219   3.908
 2849TIP3    H1 8492   1.532   3.232   3.813
 2849TIP3    H2 8493   1.629   3.214   3.928
 2850TIP3   OH2 8494   0.798   5.371   1.624
 2850TIP3    H1 8495   0.740   5.425   1.678
 2850TIP3    H2 8496   0.789   5.283   1.660
 2851TIP3   OH2 8497   5.024   5.329   1.931
 2851TIP3    H1 8498   4.929   5.330   1.944
 2851TIP3    H2 8499   5.037   5.272   1.856
 2852TIP3   OH2 8500   7.677   1.088   4.392
 2852TIP3    H1 8501   7.651   1.179   4.402
 2852TIP3    H2 8502   7.651   1.065   4.302
 2853TIP3   OH2 8503   2.260   1.770   4.336
 2853TIP3    H1 8504   2.264   1.813   4.422
 2853TIP3    H2 8505   2.344   1.792   4.295
 2854TIP3   OH2 8506   6.692   2.563   5.206
 2854TIP3    H1 8507   6.632   2.592   5.274
 2854TIP3    H2 8508   6.689   2.631   5.139
 2855TIP3   OH2 8509   2.554   1.625   1.527
 2855TIP3    H1 8510   2.550   1.535   1.496
 2855TIP3    H2 8511   2.471   1.664   1.499
 2856TIP3   OH2 8512   7.838   7.148   3.478
 2856TIP3    H1 8513   7.775   7.185   3.539
 2856TIP3    H2 8514   7.916   7.203   3.486
 2857TIP3   OH2 8515   3.622   6.699   3.109
 2857TIP3    H1 8516   3.638   6.645   3.187
 2857TIP3    H2 8517   3.696   6.680   3.052
 2858TIP3   OH2 8518   1.542   7.702   5.020
 2858TIP3    H1 8519   1.474   7.761   5.052
 2858TIP3    H2 8520   1.593   7.755   4.959
 2859TIP3   OH2 8521   2.361   4.090   6.118
 2859TIP3    H1 8522   2.454   4.113   6.130
 2859TIP3    H2 8523   2.359   3.995   6.122
 2860TIP3   OH2 8524   0.667   3.154   6.496
 2860TIP3    H1 8525   0.733   3.086   6.502
 2860TIP3    H2 8526   0.638   3.152   6.405
 2861TIP3   OH2 8527   2.463   2.496   2.703
 2861TIP3    H1 8528   2.534   2.513   2.641
 2861TIP3    H2 8529   2.494   2.533   2.786
 2862TIP3   OH2 8530   3.044   4.859   3.994
 2862TIP3    H1 8531   3.105   4.805   3.944
 2862TIP3    H2 8532   3.064   4.949   3.968
 2863TIP3   OH2 8533   1.061   6.632   5.051
 2863TIP3    H1 8534   0.976   6.588   5.062
 2863TIP3    H2 8535   1.086   6.614   4.960
 2864TIP3   OH2 8536   5.303   5.560   3.223
 2864TIP3    H1 8537   5.246   5.627   3.260
 2864TIP3    H2 8538   5.323   5.591   3.134
 2865TIP3   OH2 8539   0.364   4.254   0.328
 2865TIP3    H1 8540   0.420   4.177   0.324
 2865TIP3    H2 8541   0.347   4.267   0.421
 2866TIP3   OH2 8542   3.899   5.642   0.565
 2866TIP3    H1 8543   3.962   5.586   0.519
 2866TIP3    H2 8544   3.951   5.714   0.599
 2867TIP3   OH2 8545   6.552   4.881   3.655
 2867TIP3    H1 8546   6.556   4.976   3.653
 2867TIP3    H2 8547   6.459   4.860   3.663
 2868TIP3   OH2 8548   7.557   7.550   4.137
 2868TIP3    H1 8549   7.529   7.565   4.047
 2868TIP3    H2 8550   7.512   7.618   4.187
 2869TIP3   OH2 8551   4.861   4.795   2.380
 2869TIP3    H1 8552   4.914   4.723   2.413
 2869TIP3    H2 8553   4.775   4.756   2.365
 2870TIP3   OH2 8554   3.891   2.792   1.605
 2870TIP3    H1 8555   3.904   2.844   1.525
 2870TIP3    H2 8556   3.880   2.702   1.573
 2871TIP3   OH2 8557   1.454   4.753   1.067
 2871TIP3    H1 8558   1.465   4.749   1.162
 2871TIP3    H2 8559   1.422   4.666   1.044
 2872TIP3   OH2 8560   6.876   1.775   1.789
 2872TIP3    H1 8561   6.856   1.722   1.711
 2872TIP3    H2 8562   6.843   1.722   1.862
 2873TIP3   OH2 8563   1.463   0.440   0.123
 2873TIP3    H1 8564   1.390   0.445   0.184
 2873TIP3    H2 8565   1.428   0.393   0.047
 2874TIP3   OH2 8566   2.561   6.789   2.932
 2874TIP3    H1 8567   2.586   6.881   2.935
 2874TIP3    H2 8568   2.630   6.746   2.882
 2875TIP3   OH2 8569   6.156   6.607   1.493
 2875TIP3    H1 8570   6.189   6.620   1.582
 2875TIP3    H2 8571   6.090   6.676   1.482
 2876TIP3   OH2 8572   7.309   7.524   3.959
 2876TIP3    H1 8573   7.301   7.468   4.036
 2876TIP3    H2 8574   7.265   7.606   3.984
 2877TIP3   OH2 8575   6.280   3.605   5.916
 2877TIP3    H1 8576   6.201   3.607   5.969
 2877TIP3    H2 8577   6.315   3.516   5.928
 2878TIP3   OH2 8578   5.803   7.000   6.087
 2878TIP3    H1 8579   5.711   6.988   6.066
 2878TIP3    H2 8580   5.847   7.007   6.002
 2879TIP3   OH2 8581   3.904   3.107   1.868
 2879TIP3    H1 8582   3.856   3.184   1.900
 2879TIP3    H2 8583   3.950   3.074   1.945
 2880TIP3   OH2 8584   0.402   0.025   1.463
 2880TIP3    H1 8585   0.382   0.092   1.397
 2880TIP3    H2 8586   0.326  -0.033   1.460
 2881TIP3   OH2 8587   5.492   4.915   3.427
 2881TIP3    H1 8588   5.528   4.998   3.397
 2881TIP3    H2 8589   5.444   4.880   3.353
 2882TIP3   OH2 8590   7.837   5.194   3.793
 2882TIP3    H1 8591   7.890   5.129   3.839
 2882TIP3    H2 8592   7.760   5.206   3.849
 2883TIP3   OH2 8593   4.902   7.372   4.786
 2883TIP3    H1 8594   4.983   7.322   4.793
 2883TIP3    H2 8595   4.912   7.423   4.706
 2884TIP3   OH2 8596   6.084   5.350   2.185
 2884TIP3    H1 8597   6.092   5.355   2.090
 2884TIP3    H2 8598   6.173   5.335   2.216
 2885TIP3   OH2 8599   2.326   3.824   2.657
 2885TIP3    H1 8600   2.382   3.901   2.649
 2885TIP3    H2 8601   2.275   3.841   2.736
 2886TIP3   OH2 8602   3.877   3.315   2.241
 2886TIP3    H1 8603   3.870   3.400   2.285
 2886TIP3    H2 8604   3.858   3.251   2.310
 2887TIP3   OH2 8605   6.596   5.890   6.066
 2887TIP3    H1 8606   6.646   5.891   6.148
 2887TIP3    H2 8607   6.526   5.825   6.081
 2888TIP3   OH2 8608   2.351   0.972   2.271
 2888TIP3    H1 8609   2.303   0.917   2.209
 2888TIP3    H2 8610   2.418   1.014   2.218
 2889TIP3   OH2 8611   4.944   4.785   5.914
 2889TIP3    H1 8612   4.876   4.718   5.904
 2889TIP3    H2 8613   4.920   4.854   5.853
 2890TIP3   OH2 8614   5.100   1.704   4.432
 2890TIP3    H1 8615   5.015   1.746   4.445
 2890TIP3    H2 8616   5.150   1.767   4.379
 2891TIP3   OH2 8617   4.136   3.545   6.632
 2891TIP3    H1 8618   4.160   3.546   6.724
 2891TIP3    H2 8619   4.179   3.622   6.595
 2892TIP3   OH2 8620   2.983   1.282   1.955
 2892TIP3    H1 8621   3.062   1.315   1.914
 2892TIP3    H2 8622   2.967   1.342   2.029
 2893TIP3   OH2 8623   3.014   2.778   3.962
 2893TIP3    H1 8624   3.065   2.708   4.003
 2893TIP3    H2 8625   2.999   2.841   4.033
 2894TIP3   OH2 8626   5.915   3.952   0.625
 2894TIP3    H1 8627   5.913   3.870   0.675
 2894TIP3    H2 8628   5.861   3.934   0.548
 2895TIP3   OH2 8629   2.358   2.224   6.538
 2895TIP3    H1 8630   2.452   2.231   6.555
 2895TIP3    H2 8631   2.322   2.307   6.570
 2896TIP3   OH2 8632   0.452   5.307   5.152
 2896TIP3    H1 8633   0.367   5.307   5.108
 2896TIP3    H2 8634   0.467   5.399   5.177
 2897TIP3   OH2 8635   8.280   6.986   5.826
 2897TIP3    H1 8636   8.338   6.997   5.902
 2897TIP3    H2 8637   8.333   6.937   5.763
 2898TIP3   OH2 8638   6.356   1.290   1.039
 2898TIP3    H1 8639   6.300   1.365   1.058
 2898TIP3    H2 8640   6.438   1.328   1.007
 2899TIP3   OH2 8641   2.451   0.478   2.683
 2899TIP3    H1 8642   2.529   0.437   2.722
 2899TIP3    H2 8643   2.479   0.505   2.596
 2900TIP3   OH2 8644   1.931   6.470   6.034
 2900TIP3    H1 8645   1.915   6.562   6.056
 2900TIP3    H2 8646   2.004   6.472   5.974
 2901TIP3   OH2 8647   4.169   0.751   1.101
 2901TIP3    H1 8648   4.137   0.809   1.031
 2901TIP3    H2 8649   4.142   0.794   1.182
 2902TIP3   OH2 8650   7.370   2.128   4.019
 2902TIP3    H1 8651   7.338   2.207   4.064
 2902TIP3    H2 8652   7.337   2.056   4.072
 2903TIP3   OH2 8653   5.263   5.021   6.161
 2903TIP3    H1 8654   5.276   5.074   6.240
 2903TIP3    H2 8655   5.198   5.070   6.110
 2904TIP3   OH2 8656   2.206   6.348   2.363
 2904TIP3    H1 8657   2.192   6.295   2.442
 2904TIP3    H2 8658   2.298   6.373   2.367
 2905TIP3   OH2 8659   0.142   2.011   3.988
 2905TIP3    H1 8660   0.215   1.971   4.036
 2905TIP3    H2 8661   0.184   2.066   3.922
 2906TIP3   OH2 8662   5.179   6.208   2.714
 2906TIP3    H1 8663   5.194   6.114   2.729
 2906TIP3    H2 8664   5.264   6.241   2.684
 2907TIP3   OH2 8665   0.693   2.343   0.405
 2907TIP3    H1 8666   0.608   2.385   0.416
 2907TIP3    H2 8667   0.744   2.372   0.481
 2908TIP3   OH2 8668   2.553   3.421   1.680
 2908TIP3    H1 8669   2.531   3.332   1.708
 2908TIP3    H2 8670   2.646   3.417   1.658
 2909TIP3   OH2 8671   3.153   0.738   5.145
 2909TIP3    H1 8672   3.184   0.651   5.120
 2909TIP3    H2 8673   3.144   0.784   5.061
 2910TIP3   OH2 8674   4.888   5.733   3.627
 2910TIP3    H1 8675   4.917   5.684   3.550
 2910TIP3    H2 8676   4.962   5.790   3.649
 2911TIP3   OH2 8677   3.810   3.252   5.917
 2911TIP3    H1 8678   3.724   3.231   5.881
 2911TIP3    H2 8679   3.870   3.244   5.842
 2912TIP3   OH2 8680   7.938   5.541   4.286
 2912TIP3    H1 8681   7.910   5.633   4.286
 2912TIP3    H2 8682   7.862   5.493   4.318
 2913TIP3   OH2 8683   2.971   0.392   2.678
 2913TIP3    H1 8684   2.956   0.318   2.620
 2913TIP3    H2 8685   2.991   0.353   2.763
 2914TIP3   OH2 8686   6.532   2.586   2.565
 2914TIP3    H1 8687   6.501   2.676   2.558
 2914TIP3    H2 8688   6.477   2.537   2.504
 2915TIP3   OH2 8689   0.919   5.677   1.397
 2915TIP3    H1 8690   0.850   5.619   1.365
 2915TIP3    H2 8691   0.881   5.718   1.475
 2916TIP3   OH2 8692   0.435   4.684   1.905
 2916TIP3    H1 8693   0.346   4.684   1.868
 2916TIP3    H2 8694   0.492   4.697   1.830
 2917TIP3   OH2 8695   2.904   4.204   5.651
 2917TIP3    H1 8696   2.925   4.137   5.716
 2917TIP3    H2 8697   2.809   4.201   5.641
 2918TIP3   OH2 8698   3.820   5.746   4.116
 2918TIP3    H1 8699   3.755   5.795   4.167
 2918TIP3    H2 8700   3.863   5.812   4.062
 2919TIP3   OH2 8701   3.455   0.335   6.227
 2919TIP3    H1 8702   3.429   0.354   6.317
 2919TIP3    H2 8703   3.384   0.372   6.174
 2920TIP3   OH2 8704   8.136   5.054   0.413
 2920TIP3    H1 8705   8.157   5.031   0.322
 2920TIP3    H2 8706   8.096   4.976   0.449
 2921TIP3   OH2 8707   5.178   3.075   4.450
 2921TIP3    H1 8708   5.133   2.991   4.439
 2921TIP3    H2 8709   5.120   3.126   4.507
 2922TIP3   OH2 8710   0.974   2.747   6.014
 2922TIP3    H1 8711   1.025   2.762   5.935
 2922TIP3    H2 8712   0.996   2.821   6.071
 2923TIP3   OH2 8713   2.894   6.886   5.826
 2923TIP3    H1 8714   2.817   6.836   5.853
 2923TIP3    H2 8715   2.869   6.926   5.743
 2924TIP3   OH2 8716   0.561   2.865   6.445
 2924TIP3    H1 8717   0.577   2.773   6.469
 2924TIP3    H2 8718   0.583   2.914   6.524
 2925TIP3   OH2 8719   0.139   5.206   6.137
 2925TIP3    H1 8720   0.120   5.212   6.231
 2925TIP3    H2 8721   0.168   5.293   6.112
 2926TIP3   OH2 8722   2.659   1.150   3.528
 2926TIP3    H1 8723   2.587   1.193   3.481
 2926TIP3    H2 8724   2.623   1.133   3.615
 2927TIP3   OH2 8725   5.734   0.672   1.873
 2927TIP3    H1 8726   5.764   0.761   1.856
 2927TIP3    H2 8727   5.644   0.671   1.838
 2928TIP3   OH2 8728   2.102   5.205   5.214
 2928TIP3    H1 8729   2.130   5.293   5.240
 2928TIP3    H2 8730   2.122   5.200   5.120
 2929TIP3   OH2 8731   8.242   2.408   2.292
 2929TIP3    H1 8732   8.227   2.322   2.330
 2929TIP3    H2 8733   8.335   2.427   2.309
 2930TIP3   OH2 8734   2.799   1.215   0.088
 2930TIP3    H1 8735   2.876   1.160   0.101
 2930TIP3    H2 8736   2.804   1.242  -0.003
 2931TIP3   OH2 8737   5.466   7.229   5.824
 2931TIP3    H1 8738   5.530   7.164   5.795
 2931TIP3    H2 8739   5.387   7.209   5.774
 2932TIP3   OH2 8740   7.210   2.212   0.299
 2932TIP3    H1 8741   7.127   2.168   0.315
 2932TIP3    H2 8742   7.274   2.160   0.348
 2933TIP3   OH2 8743   3.978   0.904   6.733
 2933TIP3    H1 8744   4.016   0.923   6.819
 2933TIP3    H2 8745   3.962   0.991   6.695
 2934TIP3   OH2 8746   0.404   3.981   2.525
 2934TIP3    H1 8747   0.328   3.929   2.552
 2934TIP3    H2 8748   0.479   3.926   2.548
 2935TIP3   OH2 8749   1.622   6.779   4.593
 2935TIP3    H1 8750   1.646   6.741   4.677
 2935TIP3    H2 8751   1.668   6.863   4.590
 2936TIP3   OH2 8752   3.522   6.028   6.604
 2936TIP3    H1 8753   3.495   6.110   6.644
 2936TIP3    H2 8754   3.542   6.051   6.513
 2937TIP3   OH2 8755   8.126   2.176   1.123
 2937TIP3    H1 8756   8.058   2.121   1.162
 2937TIP3    H2 8757   8.087   2.208   1.041
 2938TIP3   OH2 8758   1.314   0.113   3.848
 2938TIP3    H1 8759   1.384   0.120   3.913
 2938TIP3    H2 8760   1.254   0.048   3.883
 2939TIP3   OH2 8761   7.868   4.634   5.033
 2939TIP3    H1 8762   7.864   4.642   5.128
 2939TIP3    H2 8763   7.925   4.706   5.005
 2940TIP3   OH2 8764   6.865   7.454   5.647
 2940TIP3    H1 8765   6.907   7.444   5.732
 2940TIP3    H2 8766   6.772   7.438   5.664
 2941TIP3   OH2 8767   3.615   6.603   2.794
 2941TIP3    H1 8768   3.678   6.604   2.866
 2941TIP3    H2 8769   3.563   6.524   2.810
 2942TIP3   OH2 8770   1.780   3.740   1.287
 2942TIP3    H1 8771   1.758   3.822   1.243
 2942TIP3    H2 8772   1.769   3.759   1.380
 2943TIP3   OH2 8773   6.225   5.320   1.941
 2943TIP3    H1 8774   6.145   5.304   1.890
 2943TIP3    H2 8775   6.258   5.233   1.961
 2944TIP3   OH2 8776   3.190   6.326   2.116
 2944TIP3    H1 8777   3.272   6.344   2.163
 2944TIP3    H2 8778   3.189   6.389   2.044
 2945TIP3   OH2 8779   5.648   2.505   2.250
 2945TIP3    H1 8780   5.561   2.529   2.221
 2945TIP3    H2 8781   5.633   2.444   2.323
 2946TIP3   OH2 8782   1.832   3.019   5.135
 2946TIP3    H1 8783   1.902   3.076   5.168
 2946TIP3    H2 8784   1.761   3.079   5.112
 2947TIP3   OH2 8785   2.543   3.730   3.208
 2947TIP3    H1 8786   2.463   3.774   3.180
 2947TIP3    H2 8787   2.578   3.785   3.278
 2948TIP3   OH2 8788   3.151   1.450   1.263
 2948TIP3    H1 8789   3.186   1.513   1.201
 2948TIP3    H2 8790   3.152   1.495   1.348
 2949TIP3   OH2 8791   5.155   6.010   4.456
 2949TIP3    H1 8792   5.096   6.057   4.396
 2949TIP3    H2 8793   5.171   5.927   4.412
 2950TIP3   OH2 8794   3.351   5.123   4.176
 2950TIP3    H1 8795   3.372   5.034   4.204
 2950TIP3    H2 8796   3.405   5.179   4.232
 2951TIP3   OH2 8797   6.326   4.818   0.038
 2951TIP3    H1 8798   6.288   4.841   0.123
 2951TIP3    H2 8799   6.326   4.723   0.036
 2952TIP3   OH2 8800   2.206   6.751   5.740
 2952TIP3    H1 8801   2.116   6.779   5.759
 2952TIP3    H2 8802   2.246   6.740   5.826
 2953TIP3   OH2 8803   2.921   6.608   0.678
 2953TIP3    H1 8804   2.908   6.532   0.621
 2953TIP3    H2 8805   3.015   6.624   0.675
 2954TIP3   OH2 8806   3.317   1.191   2.733
 2954TIP3    H1 8807   3.249   1.123   2.724
 2954TIP3    H2 8808   3.279   1.267   2.689
 2955TIP3   OH2 8809   4.052   1.055   2.396
 2955TIP3    H1 8810   4.000   1.134   2.412
 2955TIP3    H2 8811   3.987   0.985   2.388
 2956TIP3   OH2 8812   6.781   2.043   1.560
 2956TIP3    H1 8813   6.847   2.097   1.516
 2956TIP3    H2 8814   6.810   1.953   1.543
 2957TIP3   OH2 8815   0.154   3.890   0.292
 2957TIP3    H1 8816   0.157   3.971   0.240
 2957TIP3    H2 8817   0.061   3.874   0.306
 2958TIP3   OH2 8818   7.921   3.230   1.299
 2958TIP3    H1 8819   7.976   3.155   1.278
 2958TIP3    H2 8820   7.841   3.215   1.248
 2959TIP3   OH2 8821   4.051   1.699   4.286
 2959TIP3    H1 8822   4.050   1.625   4.225
 2959TIP3    H2 8823   4.099   1.768   4.239
 2960TIP3   OH2 8824   3.246   3.978   1.224
 2960TIP3    H1 8825   3.250   3.929   1.306
 2960TIP3    H2 8826   3.337   3.984   1.195
 2961TIP3   OH2 8827   2.121   5.478   3.283
 2961TIP3    H1 8828   2.098   5.394   3.324
 2961TIP3    H2 8829   2.180   5.519   3.346
 2962TIP3   OH2 8830   7.002   1.463   3.597
 2962TIP3    H1 8831   6.923   1.509   3.625
 2962TIP3    H2 8832   6.991   1.374   3.632
 2963TIP3   OH2 8833   4.563   6.993   3.998
 2963TIP3    H1 8834   4.487   6.975   4.053
 2963TIP3    H2 8835   4.637   6.952   4.044
 2964TIP3   OH2 8836   7.753   6.920   5.179
 2964TIP3    H1 8837   7.744   6.840   5.126
 2964TIP3    H2 8838   7.762   6.888   5.269
 2965TIP3   OH2 8839   5.775   5.132   0.359
 2965TIP3    H1 8840   5.853   5.089   0.394
 2965TIP3    H2 8841   5.748   5.192   0.429
 2966TIP3   OH2 8842   4.891   7.653   5.163
 2966TIP3    H1 8843   4.927   7.721   5.106
 2966TIP3    H2 8844   4.845   7.702   5.232
 2967TIP3   OH2 8845   7.794   6.865   3.777
 2967TIP3    H1 8846   7.871   6.892   3.828
 2967TIP3    H2 8847   7.827   6.851   3.689
 2968TIP3   OH2 8848   1.485   4.989   1.401
 2968TIP3    H1 8849   1.480   5.067   1.456
 2968TIP3    H2 8850   1.546   5.012   1.331
 2969TIP3   OH2 8851   6.206   1.105   6.070
 2969TIP3    H1 8852   6.261   1.171   6.112
 2969TIP3    H2 8853   6.267   1.050   6.021
 2970TIP3   OH2 8854   2.779   7.462   4.789
 2970TIP3    H1 8855   2.735   7.429   4.711
 2970TIP3    H2 8856   2.776   7.390   4.852
 2971TIP3   OH2 8857   3.290   0.957   0.794
 2971TIP3    H1 8858   3.198   0.981   0.799
 2971TIP3    H2 8859   3.337   1.039   0.812
 2972TIP3   OH2 8860   7.494   2.819   1.991
 2972TIP3    H1 8861   7.584   2.823   2.022
 2972TIP3    H2 8862   7.501   2.800   1.897
 2973TIP3   OH2 8863   5.464   7.531   0.504
 2973TIP3    H1 8864   5.438   7.474   0.432
 2973TIP3    H2 8865   5.420   7.615   0.484
 2974TIP3   OH2 8866   1.183   4.171   4.137
 2974TIP3    H1 8867   1.243   4.243   4.118
 2974TIP3    H2 8868   1.234   4.110   4.190
 2975TIP3   OH2 8869   3.271   0.975   2.059
 2975TIP3    H1 8870   3.288   0.912   1.989
 2975TIP3    H2 8871   3.320   1.053   2.034
 2976TIP3   OH2 8872   4.873   5.345   5.852
 2976TIP3    H1 8873   4.893   5.377   5.940
 2976TIP3    H2 8874   4.946   5.375   5.798
 2977TIP3   OH2 8875   6.373   6.365   3.261
 2977TIP3    H1 8876   6.433   6.297   3.229
 2977TIP3    H2 8877   6.293   6.318   3.283
 2978TIP3   OH2 8878   5.057   7.719   3.048
 2978TIP3    H1 8879   5.084   7.688   2.962
 2978TIP3    H2 8880   5.008   7.799   3.032
 2979TIP3   OH2 8881   6.135   6.460   3.772
 2979TIP3    H1 8882   6.124   6.554   3.788
 2979TIP3    H2 8883   6.213   6.454   3.717
 2980TIP3   OH2 8884   6.159   1.173   4.102
 2980TIP3    H1 8885   6.132   1.081   4.111
 2980TIP3    H2 8886   6.081   1.218   4.069
 2981TIP3   OH2 8887   1.260   0.448   5.629
 2981TIP3    H1 8888   1.267   0.382   5.561
 2981TIP3    H2 8889   1.187   0.417   5.684
 2982TIP3   OH2 8890   5.347   2.957   3.704
 2982TIP3    H1 8891   5.438   2.926   3.704
 2982TIP3    H2 8892   5.340   3.012   3.782
 2983TIP3   OH2 8893   6.024   3.113   2.534
 2983TIP3    H1 8894   5.956   3.160   2.582
 2983TIP3    H2 8895   6.015   3.145   2.444
 2984TIP3   OH2 8896   7.588   4.563   2.799
 2984TIP3    H1 8897   7.613   4.475   2.772
 2984TIP3    H2 8898   7.671   4.606   2.820
 2985TIP3   OH2 8899   0.621   2.939   4.667
 2985TIP3    H1 8900   0.550   2.941   4.602
 2985TIP3    H2 8901   0.683   2.875   4.634
 2986TIP3   OH2 8902   0.159   5.188   4.589
 2986TIP3    H1 8903   0.070   5.183   4.553
 2986TIP3    H2 8904   0.150   5.157   4.678
 2987TIP3   OH2 8905   1.863   3.316   6.574
 2987TIP3    H1 8906   1.901   3.286   6.491
 2987TIP3    H2 8907   1.788   3.370   6.547
 2988TIP3   OH2 8908   6.966   4.928   0.138
 2988TIP3    H1 8909   7.001   4.907   0.052
 2988TIP3    H2 8910   6.978   4.848   0.189
 2989TIP3   OH2 8911   5.041   5.741   2.585
 2989TIP3    H1 8912   5.063   5.816   2.530
 2989TIP3    H2 8913   5.030   5.668   2.524
 2990TIP3   OH2 8914   5.024   3.040   2.168
 2990TIP3    H1 8915   4.955   3.057   2.104
 2990TIP3    H2 8916   5.095   3.001   2.118
 2991TIP3   OH2 8917   6.513   7.494   2.496
 2991TIP3    H1 8918   6.527   7.423   2.433
 2991TIP3    H2 8919   6.441   7.544   2.458
 2992TIP3   OH2 8920   3.303   3.311   1.552
 2992TIP3    H1 8921   3.349   3.233   1.584
 2992TIP3    H2 8922   3.225   3.316   1.607
 2993TIP3   OH2 8923   3.934   1.825   0.271
 2993TIP3    H1 8924   4.013   1.790   0.313
 2993TIP3    H2 8925   3.904   1.755   0.214
 2994TIP3   OH2 8926   1.929   0.787   0.316
 2994TIP3    H1 8927   1.865   0.724   0.286
 2994TIP3    H2 8928   2.008   0.767   0.266
 2995TIP3   OH2 8929   3.324   7.678   1.944
 2995TIP3    H1 8930   3.368   7.686   1.860
 2995TIP3    H2 8931   3.300   7.585   1.950
 2996TIP3   OH2 8932   4.708   6.612   6.674
 2996TIP3    H1 8933   4.614   6.610   6.695
 2996TIP3    H2 8934   4.715   6.680   6.607
 2997TIP3   OH2 8935   0.810   7.223   5.672
 2997TIP3    H1 8936   0.866   7.268   5.609
 2997TIP3    H2 8937   0.842   7.253   5.757
 2998TIP3   OH2 8938   2.461   1.244   1.584
 2998TIP3    H1 8939   2.544   1.204   1.610
 2998TIP3    H2 8940   2.398   1.172   1.587
 2999TIP3   OH2 8941   7.747   5.372   4.376
 2999TIP3    H1 8942   7.771   5.349   4.466
 2999TIP3    H2 8943   7.651   5.375   4.377
 3000TIP3   OH2 8944   6.833   6.385   6.282
 3000TIP3    H1 8945   6.828   6.360   6.189
 3000TIP3    H2 8946   6.762   6.449   6.293
 3001TIP3   OH2 8947   0.862   1.869   4.503
 3001TIP3    H1 8948   0.935   1.820   4.541
 3001TIP3    H2 8949   0.800   1.801   4.476
 3002TIP3   OH2 8950   2.457   4.364   1.358
 3002TIP3    H1 8951   2.485   4.277   1.330
 3002TIP3    H2 8952   2.458   4.359   1.454
 3003TIP3   OH2 8953   2.165   5.993   2.343
 3003TIP3    H1 8954   2.075   5.975   2.315
 3003TIP3    H2 8955   2.156   6.060   2.410
 3004TIP3   OH2 8956   5.538   4.333   5.901
 3004TIP3    H1 8957   5.457   4.365   5.860
 3004TIP3    H2 8958   5.540   4.240   5.879
 3005TIP3   OH2 8959   4.187   6.793   6.102
 3005TIP3    H1 8960   4.094   6.777   6.113
 3005TIP3    H2 8961   4.211   6.745   6.023
 3006TIP3   OH2 8962   5.781   7.050   2.880
 3006TIP3    H1 8963   5.735   7.009   2.953
 3006TIP3    H2 8964   5.719   7.114   2.845
 3007TIP3   OH2 8965   7.836   1.766   1.132
 3007TIP3    H1 8966   7.915   1.755   1.079
 3007TIP3    H2 8967   7.821   1.680   1.170
 3008TIP3   OH2 8968   1.568   5.020   2.687
 3008TIP3    H1 8969   1.628   5.021   2.761
 3008TIP3    H2 8970   1.618   5.055   2.614
 3009TIP3   OH2 8971   7.515   2.739   0.981
 3009TIP3    H1 8972   7.575   2.725   1.054
 3009TIP3    H2 8973   7.461   2.813   1.008
 3010TIP3   OH2 8974   8.034   3.390   6.571
 3010TIP3    H1 8975   7.991   3.429   6.494
 3010TIP3    H2 8976   8.093   3.458   6.603
 3011TIP3   OH2 8977   0.509   0.542   4.172
 3011TIP3    H1 8978   0.471   0.566   4.087
 3011TIP3    H2 8979   0.518   0.447   4.168
 3012TIP3   OH2 8980   1.329   2.141   0.114
 3012TIP3    H1 8981   1.409   2.095   0.142
 3012TIP3    H2 8982   1.355   2.189   0.035
 3013TIP3   OH2 8983   7.959   5.117   1.958
 3013TIP3    H1 8984   8.021   5.111   1.885
 3013TIP3    H2 8985   7.943   5.211   1.968
 3014TIP3   OH2 8986   0.586   0.485   2.971
 3014TIP3    H1 8987   0.629   0.418   2.917
 3014TIP3    H2 8988   0.612   0.463   3.061
 3015TIP3   OH2 8989   5.225   1.580   3.137
 3015TIP3    H1 8990   5.214   1.569   3.043
 3015TIP3    H2 8991   5.283   1.508   3.163
 3016TIP3   OH2 8992   5.886   1.850   5.242
 3016TIP3    H1 8993   5.872   1.933   5.286
 3016TIP3    H2 8994   5.850   1.864   5.154
 3017TIP3   OH2 8995   1.918   5.122   4.392
 3017TIP3    H1 8996   1.979   5.054   4.362
 3017TIP3    H2 8997   1.960   5.159   4.469
 3018TIP3   OH2 8998   5.265   4.707   3.265
 3018TIP3    H1 8999   5.332   4.665   3.210
 3018TIP3    H2 9000   5.245   4.642   3.332
 3019TIP3   OH2 9001   2.221   0.866   5.367
 3019TIP3    H1 9002   2.136   0.862   5.411
 3019TIP3    H2 9003   2.277   0.808   5.418
 3020TIP3   OH2 9004   7.332   7.099   6.027
 3020TIP3    H1 9005   7.306   7.048   6.104
 3020TIP3    H2 9006   7.271   7.072   5.958
 3021TIP3   OH2 9007   5.682   6.502   5.058
 3021TIP3    H1 9008   5.776   6.501   5.070
 3021TIP3    H2 9009   5.668   6.557   4.980
 3022TIP3   OH2 9010   6.095   7.262   3.080
 3022TIP3    H1 9011   6.075   7.315   3.003
 3022TIP3    H2 9012   6.105   7.173   3.045
 3023TIP3   OH2 9013   4.930   2.890   6.107
 3023TIP3    H1 9014   4.892   2.936   6.182
 3023TIP3    H2 9015   4.899   2.800   6.115
 3024TIP3   OH2 9016   7.501   1.514   3.315
 3024TIP3    H1 9017   7.549   1.589   3.282
 3024TIP3    H2 9018   7.419   1.514   3.265
 3025TIP3   OH2 9019   2.196   4.985   3.720
 3025TIP3    H1 9020   2.232   5.069   3.748
 3025TIP3    H2 9021   2.161   4.946   3.800
 3026TIP3   OH2 9022   7.349   4.962   0.963
 3026TIP3    H1 9023   7.418   4.897   0.949
 3026TIP3    H2 9024   7.381   5.017   1.034
 3027TIP3   OH2 9025   7.322   3.600   0.506
 3027TIP3    H1 9026   7.243   3.561   0.543
 3027TIP3    H2 9027   7.393   3.543   0.536
 3028TIP3   OH2 9028   5.687   7.620   0.621
 3028TIP3    H1 9029   5.690   7.709   0.586
 3028TIP3    H2 9030   5.609   7.581   0.582
 3029TIP3   OH2 9031   0.778   4.479   0.747
 3029TIP3    H1 9032   0.692   4.508   0.717
 3029TIP3    H2 9033   0.761   4.403   0.803
 3030TIP3   OH2 9034   6.935   4.147   1.847
 3030TIP3    H1 9035   6.882   4.219   1.815
 3030TIP3    H2 9036   6.981   4.182   1.923
 3031TIP3   OH2 9037   4.675   4.492   2.707
 3031TIP3    H1 9038   4.617   4.439   2.762
 3031TIP3    H2 9039   4.616   4.539   2.648
 3032TIP3   OH2 9040   7.328   3.769   4.637
 3032TIP3    H1 9041   7.403   3.817   4.604
 3032TIP3    H2 9042   7.254   3.829   4.627
 3033TIP3   OH2 9043   7.801   3.351   5.648
 3033TIP3    H1 9044   7.816   3.373   5.556
 3033TIP3    H2 9045   7.705   3.346   5.656
 3034TIP3   OH2 9046   3.500   5.747   6.658
 3034TIP3    H1 9047   3.580   5.720   6.612
 3034TIP3    H2 9048   3.509   5.842   6.668
 3035TIP3   OH2 9049   3.598   3.469   5.270
 3035TIP3    H1 9050   3.674   3.411   5.273
 3035TIP3    H2 9051   3.616   3.530   5.199
 3036TIP3   OH2 9052   0.613   2.216   4.077
 3036TIP3    H1 9053   0.545   2.269   4.036
 3036TIP3    H2 9054   0.567   2.140   4.113
 3037TIP3   OH2 9055   1.056   0.690   1.011
 3037TIP3    H1 9056   1.151   0.684   1.020
 3037TIP3    H2 9057   1.027   0.727   1.095
 3038TIP3   OH2 9058   3.310   1.564   0.565
 3038TIP3    H1 9059   3.373   1.506   0.606
 3038TIP3    H2 9060   3.351   1.590   0.482
 3039TIP3   OH2 9061   6.243   7.468   2.020
 3039TIP3    H1 9062   6.156   7.504   2.036
 3039TIP3    H2 9063   6.300   7.544   2.010
 3040TIP3   OH2 9064   5.220   6.126   5.309
 3040TIP3    H1 9065   5.302   6.083   5.286
 3040TIP3    H2 9066   5.159   6.099   5.240
 3041TIP3   OH2 9067   6.872   6.671   6.380
 3041TIP3    H1 9068   6.948   6.629   6.340
 3041TIP3    H2 9069   6.906   6.752   6.418
 3042TIP3   OH2 9070   4.659   6.959   5.571
 3042TIP3    H1 9071   4.728   6.995   5.626
 3042TIP3    H2 9072   4.582   7.011   5.591
 3043TIP3   OH2 9073   5.801   2.659   6.507
 3043TIP3    H1 9074   5.758   2.620   6.431
 3043TIP3    H2 9075   5.892   2.668   6.481
 3044TIP3   OH2 9076   2.553   5.054   3.946
 3044TIP3    H1 9077   2.646   5.060   3.967
 3044TIP3    H2 9078   2.544   5.098   3.862
 3045TIP3   OH2 9079   7.888   6.107   0.303
 3045TIP3    H1 9080   7.930   6.190   0.279
 3045TIP3    H2 9081   7.929   6.042   0.245
 3046TIP3   OH2 9082   1.074   3.031   1.662
 3046TIP3    H1 9083   1.138   2.968   1.696
 3046TIP3    H2 9084   1.089   3.110   1.714
 3047TIP3   OH2 9085   6.594   2.324   5.780
 3047TIP3    H1 9086   6.503   2.352   5.792
 3047TIP3    H2 9087   6.643   2.371   5.848
 3048TIP3   OH2 9088   2.090   3.818   1.760
 3048TIP3    H1 9089   2.120   3.728   1.746
 3048TIP3    H2 9090   2.011   3.826   1.706
 3049TIP3   OH2 9091   2.816   0.946   4.347
 3049TIP3    H1 9092   2.863   0.930   4.429
 3049TIP3    H2 9093   2.745   1.004   4.371
 3050TIP3   OH2 9094   1.144   4.424   6.072
 3050TIP3    H1 9095   1.237   4.436   6.055
 3050TIP3    H2 9096   1.122   4.494   6.133
 3051TIP3   OH2 9097   4.111   4.385   4.019
 3051TIP3    H1 9098   4.157   4.309   3.982
 3051TIP3    H2 9099   4.018   4.366   4.004
 3052TIP3   OH2 9100   1.631   3.870   3.975
 3052TIP3    H1 9101   1.684   3.858   4.054
 3052TIP3    H2 9102   1.565   3.800   3.980
 3053TIP3   OH2 9103   7.053   1.044   4.089
 3053TIP3    H1 9104   6.964   1.019   4.064
 3053TIP3    H2 9105   7.069   0.995   4.170
 3054TIP3   OH2 9106   6.903   6.459   3.474
 3054TIP3    H1 9107   6.967   6.387   3.478
 3054TIP3    H2 9108   6.860   6.457   3.560
 3055TIP3   OH2 9109   4.689   4.857   3.894
 3055TIP3    H1 9110   4.596   4.880   3.888
 3055TIP3    H2 9111   4.700   4.787   3.831
 3056TIP3   OH2 9112   6.694   5.499   5.050
 3056TIP3    H1 9113   6.742   5.577   5.023
 3056TIP3    H2 9114   6.734   5.427   5.001
 3057TIP3   OH2 9115   6.185   3.623   2.418
 3057TIP3    H1 9116   6.213   3.604   2.508
 3057TIP3    H2 9117   6.111   3.563   2.404
 3058TIP3   OH2 9118   1.033   6.065   2.241
 3058TIP3    H1 9119   1.062   6.155   2.230
 3058TIP3    H2 9120   0.996   6.062   2.330
 3059TIP3   OH2 9121   4.959   4.532   4.414
 3059TIP3    H1 9122   5.028   4.480   4.455
 3059TIP3    H2 9123   4.988   4.545   4.324
 3060TIP3   OH2 9124   3.207   3.831   3.879
 3060TIP3    H1 9125   3.136   3.856   3.819
 3060TIP3    H2 9126   3.239   3.914   3.915
 3061TIP3   OH2 9127   2.420   6.976   0.706
 3061TIP3    H1 9128   2.334   6.938   0.721
 3061TIP3    H2 9129   2.464   6.915   0.647
 3062TIP3   OH2 9130   6.803   0.454   4.783
 3062TIP3    H1 9131   6.841   0.438   4.870
 3062TIP3    H2 9132   6.721   0.405   4.782
 3063TIP3   OH2 9133   0.769   3.259   4.859
 3063TIP3    H1 9134   0.808   3.329   4.911
 3063TIP3    H2 9135   0.803   3.178   4.897
 3064TIP3   OH2 9136   1.527   0.042   2.061
 3064TIP3    H1 9137   1.483   0.109   2.113
 3064TIP3    H2 9138   1.486   0.047   1.975
 3065TIP3   OH2 9139   2.841   2.251   6.249
 3065TIP3    H1 9140   2.922   2.286   6.287
 3065TIP3    H2 9141   2.818   2.314   6.180
 3066TIP3   OH2 9142   7.731   3.265   5.211
 3066TIP3    H1 9143   7.777   3.181   5.222
 3066TIP3    H2 9144   7.790   3.329   5.251
 3067TIP3   OH2 9145   2.484   2.205   0.109
 3067TIP3    H1 9146   2.522   2.139   0.167
 3067TIP3    H2 9147   2.466   2.158   0.028
 3068TIP3   OH2 9148   3.840   5.907   5.481
 3068TIP3    H1 9149   3.874   5.823   5.450
 3068TIP3    H2 9150   3.751   5.888   5.511
 3069TIP3   OH2 9151   5.764   1.509   0.309
 3069TIP3    H1 9152   5.853   1.546   0.312
 3069TIP3    H2 9153   5.742   1.508   0.216
 3070TIP3   OH2 9154   4.688   0.392   3.743
 3070TIP3    H1 9155   4.750   0.326   3.774
 3070TIP3    H2 9156   4.602   0.356   3.764
 3071TIP3   OH2 9157   0.745   0.886   3.001
 3071TIP3    H1 9158   0.774   0.901   3.091
 3071TIP3    H2 9159   0.700   0.801   3.005
 3072TIP3   OH2 9160   3.025   4.327   1.697
 3072TIP3    H1 9161   3.033   4.372   1.780
 3072TIP3    H2 9162   2.963   4.380   1.646
 3073TIP3   OH2 9163   0.689   5.550   6.003
 3073TIP3    H1 9164   0.681   5.642   5.978
 3073TIP3    H2 9165   0.782   5.532   5.998
 3074TIP3   OH2 9166   6.683   2.059   6.554
 3074TIP3    H1 9167   6.671   2.153   6.541
 3074TIP3    H2 9168   6.595   2.025   6.568
 3075TIP3   OH2 9169   5.664   4.418   6.179
 3075TIP3    H1 9170   5.620   4.384   6.257
 3075TIP3    H2 9171   5.626   4.368   6.107
 3076TIP3   OH2 9172   4.040   0.707   1.730
 3076TIP3    H1 9173   3.954   0.672   1.754
 3076TIP3    H2 9174   4.095   0.693   1.807
 3077TIP3   OH2 9175   7.202   2.562   1.665
 3077TIP3    H1 9176   7.137   2.611   1.615
 3077TIP3    H2 9177   7.181   2.580   1.757
 3078TIP3   OH2 9178   2.501   1.857   4.249
 3078TIP3    H1 9179   2.542   1.903   4.176
 3078TIP3    H2 9180   2.512   1.915   4.324
 3079TIP3   OH2 9181   3.155   0.689   3.869
 3079TIP3    H1 9182   3.082   0.724   3.819
 3079TIP3    H2 9183   3.208   0.641   3.805
 3080TIP3   OH2 9184   3.066   1.251   6.468
 3080TIP3    H1 9185   3.126   1.301   6.523
 3080TIP3    H2 9186   3.047   1.309   6.394
 3081TIP3   OH2 9187   5.653   3.875   5.566
 3081TIP3    H1 9188   5.679   3.924   5.488
 3081TIP3    H2 9189   5.585   3.816   5.536
 3082TIP3   OH2 9190   0.677   7.418   3.873
 3082TIP3    H1 9191   0.766   7.439   3.899
 3082TIP3    H2 9192   0.622   7.471   3.930
 3083TIP3   OH2 9193   6.930   1.657   2.578
 3083TIP3    H1 9194   6.938   1.696   2.491
 3083TIP3    H2 9195   6.959   1.726   2.638
 3084TIP3   OH2 9196   0.925   6.783   1.212
 3084TIP3    H1 9197   0.870   6.705   1.223
 3084TIP3    H2 9198   0.937   6.815   1.302
 3085TIP3   OH2 9199   3.807   1.495   3.225
 3085TIP3    H1 9200   3.729   1.500   3.280
 3085TIP3    H2 9201   3.858   1.424   3.264
 3086TIP3   OH2 9202   1.874   1.913   6.417
 3086TIP3    H1 9203   1.791   1.896   6.463
 3086TIP3    H2 9204   1.847   1.939   6.329
 3087TIP3   OH2 9205   2.226   1.006   3.461
 3087TIP3    H1 9206   2.189   1.090   3.436
 3087TIP3    H2 9207   2.174   0.978   3.537
 3088TIP3   OH2 9208   7.919   4.936   1.218
 3088TIP3    H1 9209   7.938   4.857   1.268
 3088TIP3    H2 9210   8.003   4.982   1.213
 3089TIP3   OH2 9211   0.613   4.393   2.401
 3089TIP3    H1 9212   0.519   4.406   2.413
 3089TIP3    H2 9213   0.638   4.456   2.334
 3090TIP3   OH2 9214   4.249   7.338   0.161
 3090TIP3    H1 9215   4.176   7.311   0.106
 3090TIP3    H2 9216   4.208   7.371   0.241
 3091TIP3   OH2 9217   2.191   6.115   5.784
 3091TIP3    H1 9218   2.123   6.120   5.851
 3091TIP3    H2 9219   2.250   6.046   5.815
 3092TIP3   OH2 9220   5.038   2.378   1.752
 3092TIP3    H1 9221   5.047   2.294   1.706
 3092TIP3    H2 9222   5.093   2.438   1.703
 3093TIP3   OH2 9223   4.040   2.092   2.216
 3093TIP3    H1 9224   4.076   2.181   2.210
 3093TIP3    H2 9225   3.947   2.103   2.198
 3094TIP3   OH2 9226   6.260   2.021   4.293
 3094TIP3    H1 9227   6.198   1.980   4.353
 3094TIP3    H2 9228   6.319   1.951   4.268
 3095TIP3   OH2 9229   2.904   3.335   1.179
 3095TIP3    H1 9230   2.841   3.306   1.114
 3095TIP3    H2 9231   2.851   3.364   1.253
 3096TIP3   OH2 9232   0.797   0.632   2.263
 3096TIP3    H1 9233   0.704   0.648   2.251
 3096TIP3    H2 9234   0.837   0.654   2.179
 3097TIP3   OH2 9235   6.669   3.075   5.017
 3097TIP3    H1 9236   6.744   3.125   4.984
 3097TIP3    H2 9237   6.595   3.102   4.963
 3098TIP3   OH2 9238   2.595   7.496   1.026
 3098TIP3    H1 9239   2.637   7.565   1.078
 3098TIP3    H2 9240   2.515   7.537   0.993
 3099TIP3   OH2 9241   2.372   4.065   0.473
 3099TIP3    H1 9242   2.463   4.037   0.463
 3099TIP3    H2 9243   2.355   4.118   0.394
 3100TIP3   OH2 9244   1.903   1.018   3.300
 3100TIP3    H1 9245   1.943   1.098   3.334
 3100TIP3    H2 9246   1.942   0.948   3.352
 3101TIP3   OH2 9247   4.025   0.702   0.777
 3101TIP3    H1 9248   3.977   0.679   0.856
 3101TIP3    H2 9249   3.978   0.657   0.707
 3102TIP3   OH2 9250   5.329   7.669   2.458
 3102TIP3    H1 9251   5.329   7.574   2.471
 3102TIP3    H2 9252   5.242   7.689   2.425
 3103TIP3   OH2 9253   0.703   1.762   6.328
 3103TIP3    H1 9254   0.653   1.701   6.275
 3103TIP3    H2 9255   0.794   1.750   6.301
 3104TIP3   OH2 9256   6.510   2.761   4.465
 3104TIP3    H1 9257   6.492   2.738   4.556
 3104TIP3    H2 9258   6.483   2.684   4.415
 3105TIP3   OH2 9259   5.457   2.128   0.050
 3105TIP3    H1 9260   5.545   2.122   0.087
 3105TIP3    H2 9261   5.460   2.070  -0.027
 3106TIP3   OH2 9262   6.920   1.828   0.953
 3106TIP3    H1 9263   6.934   1.921   0.931
 3106TIP3    H2 9264   6.932   1.824   1.048
 3107TIP3   OH2 9265   5.801   1.281   0.670
 3107TIP3    H1 9266   5.802   1.238   0.584
 3107TIP3    H2 9267   5.893   1.286   0.696
 3108TIP3   OH2 9268   6.856   0.708   0.984
 3108TIP3    H1 9269   6.875   0.777   1.047
 3108TIP3    H2 9270   6.790   0.746   0.926
 3109TIP3   OH2 9271   2.504   0.294   0.176
 3109TIP3    H1 9272   2.455   0.235   0.232
 3109TIP3    H2 9273   2.524   0.242   0.098
 3110TIP3   OH2 9274   5.187   4.793   2.033
 3110TIP3    H1 9275   5.128   4.830   1.968
 3110TIP3    H2 9276   5.197   4.701   2.008
 3111TIP3   OH2 9277   2.243   1.949   3.712
 3111TIP3    H1 9278   2.328   1.949   3.756
 3111TIP3    H2 9279   2.263   1.920   3.623
 3112TIP3   OH2 9280   6.975   2.719   1.608
 3112TIP3    H1 9281   6.966   2.736   1.702
 3112TIP3    H2 9282   6.885   2.703   1.578
 3113TIP3   OH2 9283   6.304   0.938   5.187
 3113TIP3    H1 9284   6.212   0.953   5.165
 3113TIP3    H2 9285   6.312   0.967   5.278
 3114TIP3   OH2 9286   3.635   1.685   5.074
 3114TIP3    H1 9287   3.681   1.766   5.093
 3114TIP3    H2 9288   3.553   1.712   5.033
 3115TIP3   OH2 9289   5.883   7.299   1.300
 3115TIP3    H1 9290   5.875   7.391   1.274
 3115TIP3    H2 9291   5.969   7.272   1.268
 3116TIP3   OH2 9292   8.319   4.059   5.121
 3116TIP3    H1 9293   8.259   4.126   5.088
 3116TIP3    H2 9294   8.384   4.048   5.051
 3117TIP3   OH2 9295   0.262   2.254   6.787
 3117TIP3    H1 9296   0.173   2.252   6.752
 3117TIP3    H2 9297   0.317   2.279   6.712
 3118TIP3   OH2 9298   3.352   0.988   0.100
 3118TIP3    H1 9299   3.400   0.945   0.028
 3118TIP3    H2 9300   3.373   1.080   0.091
 3119TIP3   OH2 9301   0.191   6.227   4.707
 3119TIP3    H1 9302   0.134   6.281   4.653
 3119TIP3    H2 9303   0.206   6.148   4.655
 3120TIP3   OH2 9304   5.648   3.546   1.734
 3120TIP3    H1 9305   5.690   3.487   1.672
 3120TIP3    H2 9306   5.664   3.507   1.819
 3121TIP3   OH2 9307   6.727   4.983   1.332
 3121TIP3    H1 9308   6.750   5.056   1.389
 3121TIP3    H2 9309   6.713   4.909   1.393
 3122TIP3   OH2 9310   7.695   5.940   1.605
 3122TIP3    H1 9311   7.614   5.969   1.647
 3122TIP3    H2 9312   7.712   5.853   1.641
 3123TIP3   OH2 9313   1.848   0.639   1.757
 3123TIP3    H1 9314   1.841   0.694   1.834
 3123TIP3    H2 9315   1.770   0.583   1.760
 3124TIP3   OH2 9316   1.228   0.465   5.061
 3124TIP3    H1 9317   1.185   0.465   4.975
 3124TIP3    H2 9318   1.266   0.377   5.068
 3125TIP3   OH2 9319   2.818   4.019   2.597
 3125TIP3    H1 9320   2.854   3.934   2.573
 3125TIP3    H2 9321   2.736   3.998   2.642
 3126TIP3   OH2 9322   6.111   1.985   5.628
 3126TIP3    H1 9323   6.124   2.065   5.679
 3126TIP3    H2 9324   6.042   1.938   5.673
 3127TIP3   OH2 9325   4.104   7.410   3.661
 3127TIP3    H1 9326   4.146   7.372   3.584
 3127TIP3    H2 9327   4.151   7.493   3.675
 3128TIP3   OH2 9328   7.964   2.107   4.505
 3128TIP3    H1 9329   7.892   2.164   4.532
 3128TIP3    H2 9330   8.043   2.160   4.517
 3129TIP3   OH2 9331   8.224   6.271   4.584
 3129TIP3    H1 9332   8.209   6.178   4.600
 3129TIP3    H2 9333   8.183   6.288   4.499
 3130TIP3   OH2 9334   7.414   2.544   5.334
 3130TIP3    H1 9335   7.419   2.470   5.394
 3130TIP3    H2 9336   7.411   2.504   5.247
 3131TIP3   OH2 9337   0.755   2.127   5.226
 3131TIP3    H1 9338   0.817   2.184   5.180
 3131TIP3    H2 9339   0.697   2.094   5.157
 3132TIP3   OH2 9340   0.544   6.449   0.370
 3132TIP3    H1 9341   0.605   6.474   0.301
 3132TIP3    H2 9342   0.537   6.527   0.426
 3133TIP3   OH2 9343   0.577   4.782   2.632
 3133TIP3    H1 9344   0.490   4.821   2.641
 3133TIP3    H2 9345   0.562   4.688   2.634
 3134TIP3   OH2 9346   3.026   6.915   3.391
 3134TIP3    H1 9347   3.039   6.912   3.486
 3134TIP3    H2 9348   3.052   6.828   3.361
 3135TIP3   OH2 9349   6.470   5.168   1.120
 3135TIP3    H1 9350   6.487   5.074   1.122
 3135TIP3    H2 9351   6.527   5.204   1.187
 3136TIP3   OH2 9352   2.385   7.476   2.684
 3136TIP3    H1 9353   2.384   7.572   2.682
 3136TIP3    H2 9354   2.440   7.451   2.609
 3137TIP3   OH2 9355   2.815   2.352   5.018
 3137TIP3    H1 9356   2.803   2.321   5.107
 3137TIP3    H2 9357   2.733   2.329   4.973
 3138TIP3   OH2 9358   2.621   1.032   1.361
 3138TIP3    H1 9359   2.598   1.055   1.271
 3138TIP3    H2 9360   2.614   1.114   1.409
 3139TIP3   OH2 9361   5.495   0.546   1.672
 3139TIP3    H1 9362   5.433   0.487   1.629
 3139TIP3    H2 9363   5.475   0.538   1.765
 3140TIP3   OH2 9364   5.507   4.024   6.141
 3140TIP3    H1 9365   5.594   3.989   6.160
 3140TIP3    H2 9366   5.455   3.948   6.117
 3141TIP3   OH2 9367   2.266   0.449   3.611
 3141TIP3    H1 9368   2.291   0.535   3.647
 3141TIP3    H2 9369   2.172   0.442   3.630
 3142TIP3   OH2 9370   3.131   6.230   3.443
 3142TIP3    H1 9371   3.150   6.316   3.482
 3142TIP3    H2 9372   3.053   6.200   3.489
 3143TIP3   OH2 9373   5.598   1.380   0.483
 3143TIP3    H1 9374   5.652   1.365   0.561
 3143TIP3    H2 9375   5.658   1.418   0.419
 3144TIP3   OH2 9376   2.555   6.937   2.412
 3144TIP3    H1 9377   2.493   6.884   2.361
 3144TIP3    H2 9378   2.596   6.995   2.347
 3145TIP3   OH2 9379   5.296   5.639   4.114
 3145TIP3    H1 9380   5.260   5.574   4.175
 3145TIP3    H2 9381   5.355   5.589   4.058
 3146TIP3   OH2 9382   6.218   2.068   0.227
 3146TIP3    H1 9383   6.278   1.999   0.200
 3146TIP3    H2 9384   6.274   2.138   0.261
 3147TIP3   OH2 9385   4.503   6.985   3.446
 3147TIP3    H1 9386   4.408   6.988   3.434
 3147TIP3    H2 9387   4.525   7.069   3.487
 3148TIP3   OH2 9388   6.502   7.392   5.133
 3148TIP3    H1 9389   6.560   7.446   5.185
 3148TIP3    H2 9390   6.505   7.306   5.175
 3149TIP3   OH2 9391   1.364   5.977   4.301
 3149TIP3    H1 9392   1.311   6.002   4.377
 3149TIP3    H2 9393   1.306   5.990   4.226
 3150TIP3   OH2 9394   6.425   5.061   4.583
 3150TIP3    H1 9395   6.394   5.152   4.580
 3150TIP3    H2 9396   6.345   5.008   4.576
 3151TIP3   OH2 9397   7.471   0.554   0.786
 3151TIP3    H1 9398   7.542   0.505   0.744
 3151TIP3    H2 9399   7.416   0.584   0.714
 3152TIP3   OH2 9400   2.466   5.093   4.926
 3152TIP3    H1 9401   2.467   5.189   4.935
 3152TIP3    H2 9402   2.424   5.062   5.006
 3153TIP3   OH2 9403   6.308   6.513   4.970
 3153TIP3    H1 9404   6.356   6.550   5.044
 3153TIP3    H2 9405   6.257   6.441   5.008
 3154TIP3   OH2 9406   2.954   3.478   6.387
 3154TIP3    H1 9407   2.998   3.417   6.447
 3154TIP3    H2 9408   2.955   3.562   6.433
 3155TIP3   OH2 9409   6.517   3.843   0.393
 3155TIP3    H1 9410   6.603   3.822   0.429
 3155TIP3    H2 9411   6.502   3.935   0.417
 3156TIP3   OH2 9412   6.468   6.449   6.487
 3156TIP3    H1 9413   6.550   6.459   6.536
 3156TIP3    H2 9414   6.452   6.536   6.451
 3157TIP3   OH2 9415   7.576   4.558   3.090
 3157TIP3    H1 9416   7.541   4.619   3.025
 3157TIP3    H2 9417   7.517   4.482   3.086
 3158TIP3   OH2 9418   1.425   1.415   3.120
 3158TIP3    H1 9419   1.424   1.482   3.052
 3158TIP3    H2 9420   1.495   1.442   3.180
 3159TIP3   OH2 9421   3.460   6.827   1.875
 3159TIP3    H1 9422   3.508   6.744   1.873
 3159TIP3    H2 9423   3.378   6.808   1.830
 3160TIP3   OH2 9424   3.412   5.526   2.230
 3160TIP3    H1 9425   3.370   5.594   2.177
 3160TIP3    H2 9426   3.505   5.537   2.212
 3161TIP3   OH2 9427   7.443   4.387   0.530
 3161TIP3    H1 9428   7.406   4.463   0.485
 3161TIP3    H2 9429   7.377   4.318   0.521
 3162TIP3   OH2 9430   7.345   3.936   3.651
 3162TIP3    H1 9431   7.350   4.018   3.602
 3162TIP3    H2 9432   7.435   3.908   3.660
 3163TIP3   OH2 9433   6.019   7.094   2.177
 3163TIP3    H1 9434   5.937   7.050   2.156
 3163TIP3    H2 9435   6.085   7.048   2.125
 3164TIP3   OH2 9436   6.951   7.168   2.699
 3164TIP3    H1 9437   6.938   7.150   2.606
 3164TIP3    H2 9438   7.005   7.247   2.701
 3165TIP3   OH2 9439   1.986   3.002   5.983
 3165TIP3    H1 9440   2.052   2.953   5.934
 3165TIP3    H2 9441   2.035   3.061   6.039
 3166TIP3   OH2 9442   7.446   5.494   3.476
 3166TIP3    H1 9443   7.443   5.565   3.412
 3166TIP3    H2 9444   7.532   5.454   3.463
 3167TIP3   OH2 9445   6.464   4.845   0.544
 3167TIP3    H1 9446   6.481   4.764   0.591
 3167TIP3    H2 9447   6.396   4.889   0.595
 3168TIP3   OH2 9448   7.890   6.713   1.802
 3168TIP3    H1 9449   7.936   6.629   1.806
 3168TIP3    H2 9450   7.805   6.695   1.843
 3169TIP3   OH2 9451   2.614   2.849   0.085
 3169TIP3    H1 9452   2.601   2.861  -0.009
 3169TIP3    H2 9453   2.594   2.756   0.100
 3170TIP3   OH2 9454   6.420   1.577   2.028
 3170TIP3    H1 9455   6.345   1.608   2.078
 3170TIP3    H2 9456   6.469   1.522   2.090
 3171TIP3   OH2 9457   7.720   4.301   2.766
 3171TIP3    H1 9458   7.730   4.244   2.842
 3171TIP3    H2 9459   7.781   4.265   2.701
 3172TIP3   OH2 9460   2.344   6.813   0.958
 3172TIP3    H1 9461   2.275   6.799   0.893
 3172TIP3    H2 9462   2.423   6.778   0.918
 3173TIP3   OH2 9463   7.260   0.448   2.280
 3173TIP3    H1 9464   7.245   0.386   2.209
 3173TIP3    H2 9465   7.305   0.521   2.238
 3174TIP3   OH2 9466   4.474   6.609   6.399
 3174TIP3    H1 9467   4.560   6.649   6.387
 3174TIP3    H2 9468   4.438   6.653   6.476
 3175TIP3   OH2 9469   1.718   7.470   1.661
 3175TIP3    H1 9470   1.704   7.401   1.726
 3175TIP3    H2 9471   1.711   7.424   1.577
 3176TIP3   OH2 9472   1.409   0.667   1.657
 3176TIP3    H1 9473   1.479   0.717   1.698
 3176TIP3    H2 9474   1.432   0.575   1.673
 3177TIP3   OH2 9475   3.498   2.934   6.290
 3177TIP3    H1 9476   3.585   2.972   6.286
 3177TIP3    H2 9477   3.439   3.009   6.277
 3178TIP3   OH2 9478   3.306   7.096   1.817
 3178TIP3    H1 9479   3.400   7.116   1.822
 3178TIP3    H2 9480   3.283   7.070   1.906
 3179TIP3   OH2 9481   4.660   6.273   3.935
 3179TIP3    H1 9482   4.699   6.360   3.922
 3179TIP3    H2 9483   4.694   6.221   3.861
 3180TIP3   OH2 9484   5.664   3.584   3.328
 3180TIP3    H1 9485   5.717   3.617   3.401
 3180TIP3    H2 9486   5.725   3.580   3.254
 3181TIP3   OH2 9487   3.608   7.416   1.560
 3181TIP3    H1 9488   3.702   7.437   1.563
 3181TIP3    H2 9489   3.603   7.332   1.514
 3182TIP3   OH2 9490   7.401   4.971   6.550
 3182TIP3    H1 9491   7.350   5.035   6.501
 3182TIP3    H2 9492   7.342   4.897   6.562
 3183TIP3   OH2 9493   6.082   6.748   3.630
 3183TIP3    H1 9494   6.161   6.726   3.579
 3183TIP3    H2 9495   6.017   6.772   3.565
 3184TIP3   OH2 9496   7.771   2.937   1.823
 3184TIP3    H1 9497   7.715   2.873   1.779
 3184TIP3    H2 9498   7.795   2.896   1.906
 3185TIP3   OH2 9499   5.870   3.081   2.911
 3185TIP3    H1 9500   5.923   3.058   2.988
 3185TIP3    H2 9501   5.861   3.000   2.862
 3186TIP3   OH2 9502   7.627   1.007   6.035
 3186TIP3    H1 9503   7.549   1.048   6.000
 3186TIP3    H2 9504   7.672   0.971   5.959
 3187TIP3   OH2 9505   7.814   5.713   1.294
 3187TIP3    H1 9506   7.851   5.637   1.249
 3187TIP3    H2 9507   7.769   5.761   1.225
 3188TIP3   OH2 9508   6.587   0.072   1.545
 3188TIP3    H1 9509   6.605   0.121   1.624
 3188TIP3    H2 9510   6.495   0.090   1.526
 3189TIP3   OH2 9511   4.994   2.801   2.345
 3189TIP3    H1 9512   4.913   2.851   2.339
 3189TIP3    H2 9513   5.039   2.817   2.262
 3190TIP3   OH2 9514   2.878   1.114   3.280
 3190TIP3    H1 9515   2.957   1.123   3.227
 3190TIP3    H2 9516   2.809   1.095   3.216
 3191TIP3   OH2 9517   4.768   3.973   4.935
 3191TIP3    H1 9518   4.860   3.976   4.910
 3191TIP3    H2 9519   4.721   3.961   4.853
 3192TIP3   OH2 9520   0.226   0.846   0.750
 3192TIP3    H1 9521   0.267   0.889   0.826
 3192TIP3    H2 9522   0.157   0.792   0.788
 3193TIP3   OH2 9523   5.050   3.374   0.145
 3193TIP3    H1 9524   5.132   3.423   0.136
 3193TIP3    H2 9525   5.077   3.286   0.171
 3194TIP3   OH2 9526   6.029   1.711   4.685
 3194TIP3    H1 9527   5.977   1.685   4.762
 3194TIP3    H2 9528   6.119   1.702   4.714
 3195TIP3   OH2 9529   2.509   5.310   6.518
 3195TIP3    H1 9530   2.523   5.404   6.532
 3195TIP3    H2 9531   2.574   5.286   6.452
 3196TIP3   OH2 9532   7.625   5.942   0.842
 3196TIP3    H1 9533   7.544   5.891   0.837
 3196TIP3    H2 9534   7.660   5.941   0.753
 3197TIP3   OH2 9535   1.020   5.906   6.711
 3197TIP3    H1 9536   1.060   5.928   6.627
 3197TIP3    H2 9537   0.987   5.990   6.744
 3198TIP3   OH2 9538   6.910   6.844   0.467
 3198TIP3    H1 9539   6.945   6.779   0.406
 3198TIP3    H2 9540   6.919   6.928   0.421
 3199TIP3   OH2 9541   2.708   3.985   1.105
 3199TIP3    H1 9542   2.754   4.064   1.076
 3199TIP3    H2 9543   2.771   3.940   1.161
 3200TIP3   OH2 9544   0.476   4.101   6.604
 3200TIP3    H1 9545   0.411   4.151   6.654
 3200TIP3    H2 9546   0.546   4.083   6.667
 3201TIP3   OH2 9547   4.442   4.558   2.506
 3201TIP3    H1 9548   4.417   4.467   2.493
 3201TIP3    H2 9549   4.367   4.598   2.549
 3202TIP3   OH2 9550   0.551   3.204   4.471
 3202TIP3    H1 9551   0.641   3.172   4.463
 3202TIP3    H2 9552   0.499   3.126   4.487
 3203TIP3   OH2 9553   7.948   1.654   3.638
 3203TIP3    H1 9554   8.010   1.596   3.593
 3203TIP3    H2 9555   8.004   1.722   3.677
 3204TIP3   OH2 9556   0.880   2.996   5.151
 3204TIP3    H1 9557   0.892   3.089   5.169
 3204TIP3    H2 9558   0.786   2.983   5.153
 3205TIP3   OH2 9559   4.534   7.532   5.985
 3205TIP3    H1 9560   4.496   7.483   5.912
 3205TIP3    H2 9561   4.460   7.550   6.043
 3206TIP3   OH2 9562   3.503   6.583   0.649
 3206TIP3    H1 9563   3.462   6.614   0.569
 3206TIP3    H2 9564   3.444   6.514   0.681
 3207TIP3   OH2 9565   5.233   1.164   1.791
 3207TIP3    H1 9566   5.204   1.253   1.812
 3207TIP3    H2 9567   5.191   1.109   1.857
 3208TIP3   OH2 9568   1.513   2.388   1.720
 3208TIP3    H1 9569   1.436   2.373   1.665
 3208TIP3    H2 9570   1.579   2.328   1.685
 3209TIP3   OH2 9571   1.146   3.530   5.579
 3209TIP3    H1 9572   1.078   3.500   5.520
 3209TIP3    H2 9573   1.116   3.505   5.666
 3210TIP3   OH2 9574   3.466   7.780   4.138
 3210TIP3    H1 9575   3.537   7.753   4.079
 3210TIP3    H2 9576   3.480   7.728   4.217
 3211TIP3   OH2 9577   5.424   2.190   2.085
 3211TIP3    H1 9578   5.512   2.153   2.083
 3211TIP3    H2 9579   5.372   2.130   2.032
 3212TIP3   OH2 9580   5.570   0.144   2.309
 3212TIP3    H1 9581   5.475   0.146   2.303
 3212TIP3    H2 9582   5.592   0.051   2.315
 3213TIP3   OH2 9583   1.050   3.298   1.501
 3213TIP3    H1 9584   1.074   3.211   1.533
 3213TIP3    H2 9585   1.060   3.355   1.577
 3214TIP3   OH2 9586   1.019   5.840   1.192
 3214TIP3    H1 9587   0.937   5.818   1.148
 3214TIP3    H2 9588   1.001   5.826   1.285
 3215TIP3   OH2 9589   7.856   6.905   2.423
 3215TIP3    H1 9590   7.873   6.937   2.334
 3215TIP3    H2 9591   7.942   6.879   2.456
 3216TIP3   OH2 9592   4.298   6.409   0.620
 3216TIP3    H1 9593   4.256   6.357   0.688
 3216TIP3    H2 9594   4.392   6.402   0.639
 3217TIP3   OH2 9595   8.085   6.638   0.197
 3217TIP3    H1 9596   8.154   6.571   0.199
 3217TIP3    H2 9597   8.131   6.720   0.218
 3218TIP3   OH2 9598   6.961   4.847   0.546
 3218TIP3    H1 9599   6.888   4.867   0.488
 3218TIP3    H2 9600   7.021   4.921   0.535
 3219TIP3   OH2 9601   3.683   0.462   2.745
 3219TIP3    H1 9602   3.659   0.531   2.682
 3219TIP3    H2 9603   3.599   0.424   2.771
 3220TIP3   OH2 9604   5.853   2.112   3.515
 3220TIP3    H1 9605   5.854   2.048   3.444
 3220TIP3    H2 9606   5.918   2.178   3.489
 3221TIP3   OH2 9607   6.254   4.297   2.303
 3221TIP3    H1 9608   6.231   4.292   2.396
 3221TIP3    H2 9609   6.178   4.262   2.257
 3222TIP3   OH2 9610   7.485   6.431   4.657
 3222TIP3    H1 9611   7.426   6.410   4.584
 3222TIP3    H2 9612   7.571   6.439   4.616
 3223TIP3   OH2 9613   0.584   0.426   4.631
 3223TIP3    H1 9614   0.561   0.518   4.640
 3223TIP3    H2 9615   0.566   0.406   4.539
 3224TIP3   OH2 9616   5.932   3.065   0.653
 3224TIP3    H1 9617   5.919   3.013   0.574
 3224TIP3    H2 9618   5.972   3.146   0.622
 3225TIP3   OH2 9619   2.943   3.095   4.059
 3225TIP3    H1 9620   2.953   3.189   4.073
 3225TIP3    H2 9621   2.905   3.063   4.141
 3226TIP3   OH2 9622   4.414   6.291   4.035
 3226TIP3    H1 9623   4.501   6.256   4.013
 3226TIP3    H2 9624   4.356   6.215   4.030
 3227TIP3   OH2 9625   6.098   2.245   4.774
 3227TIP3    H1 9626   6.110   2.322   4.718
 3227TIP3    H2 9627   6.078   2.281   4.860
 3228TIP3   OH2 9628   0.668   3.913   2.828
 3228TIP3    H1 9629   0.656   3.876   2.741
 3228TIP3    H2 9630   0.585   3.898   2.873
 3229TIP3   OH2 9631   3.744   6.250   0.942
 3229TIP3    H1 9632   3.662   6.214   0.976
 3229TIP3    H2 9633   3.718   6.302   0.865
 3230TIP3   OH2 9634   3.957   1.268   3.270
 3230TIP3    H1 9635   4.031   1.322   3.298
 3230TIP3    H2 9636   3.997   1.200   3.215
 3231TIP3   OH2 9637   1.856   6.353   5.235
 3231TIP3    H1 9638   1.872   6.284   5.171
 3231TIP3    H2 9639   1.869   6.310   5.320
 3232TIP3   OH2 9640   3.629   5.500   4.237
 3232TIP3    H1 9641   3.725   5.506   4.236
 3232TIP3    H2 9642   3.601   5.588   4.264
 3233TIP3   OH2 9643   7.721   6.451   4.516
 3233TIP3    H1 9644   7.796   6.396   4.534
 3233TIP3    H2 9645   7.752   6.514   4.450
 3234TIP3   OH2 9646   5.294   3.628   0.471
 3234TIP3    H1 9647   5.255   3.667   0.394
 3234TIP3    H2 9648   5.223   3.627   0.536
 3235TIP3   OH2 9649   2.051   3.468   4.635
 3235TIP3    H1 9650   2.119   3.461   4.701
 3235TIP3    H2 9651   1.973   3.430   4.676
 3236TIP3   OH2 9652   0.977   2.609   4.721
 3236TIP3    H1 9653   0.948   2.543   4.783
 3236TIP3    H2 9654   1.070   2.622   4.742
 3237TIP3   OH2 9655   5.436   4.446   6.632
 3237TIP3    H1 9656   5.486   4.519   6.596
 3237TIP3    H2 9657   5.438   4.459   6.727
 3238TIP3   OH2 9658   2.207   0.533   0.448
 3238TIP3    H1 9659   2.225   0.597   0.517
 3238TIP3    H2 9660   2.246   0.571   0.369
 3239TIP3   OH2 9661   6.797   1.647   1.247
 3239TIP3    H1 9662   6.724   1.700   1.279
 3239TIP3    H2 9663   6.866   1.710   1.227
 3240TIP3   OH2 9664   2.956   5.435   5.355
 3240TIP3    H1 9665   2.916   5.427   5.441
 3240TIP3    H2 9666   2.893   5.395   5.295
 3241TIP3   OH2 9667   3.131   5.168   2.614
 3241TIP3    H1 9668   3.217   5.130   2.632
 3241TIP3    H2 9669   3.132   5.188   2.520
 3242TIP3   OH2 9670   2.417   1.989   2.107
 3242TIP3    H1 9671   2.503   2.012   2.141
 3242TIP3    H2 9672   2.435   1.935   2.030
 3243TIP3   OH2 9673   2.657   5.270   5.804
 3243TIP3    H1 9674   2.569   5.233   5.802
 3243TIP3    H2 9675   2.673   5.291   5.896
 3244TIP3   OH2 9676   0.186   0.762   3.774
 3244TIP3    H1 9677   0.240   0.758   3.695
 3244TIP3    H2 9678   0.100   0.731   3.746
 3245TIP3   OH2 9679   5.605   0.429   4.133
 3245TIP3    H1 9680   5.546   0.374   4.184
 3245TIP3    H2 9681   5.691   0.414   4.172
 3246TIP3   OH2 9682   1.072   2.598   4.083
 3246TIP3    H1 9683   1.140   2.548   4.128
 3246TIP3    H2 9684   1.102   2.604   3.992
 3247TIP3   OH2 9685   6.795   3.581   3.559
 3247TIP3    H1 9686   6.768   3.607   3.470
 3247TIP3    H2 9687   6.884   3.616   3.568
 3248TIP3   OH2 9688   2.384   5.487   2.732
 3248TIP3    H1 9689   2.294   5.492   2.763
 3248TIP3    H2 9690   2.403   5.394   2.727
 3249TIP3   OH2 9691   4.652   6.580   5.034
 3249TIP3    H1 9692   4.645   6.559   4.940
 3249TIP3    H2 9693   4.596   6.656   5.046
 3250TIP3   OH2 9694   0.614   1.961   2.733
 3250TIP3    H1 9695   0.605   1.946   2.828
 3250TIP3    H2 9696   0.676   1.895   2.704
 3251TIP3   OH2 9697   8.273   6.888   3.422
 3251TIP3    H1 9698   8.187   6.847   3.421
 3251TIP3    H2 9699   8.332   6.818   3.451
 3252TIP3   OH2 9700   5.153   7.048   6.498
 3252TIP3    H1 9701   5.129   7.066   6.589
 3252TIP3    H2 9702   5.243   7.015   6.503
 3253TIP3   OH2 9703   5.552   2.187   0.399
 3253TIP3    H1 9704   5.608   2.262   0.420
 3253TIP3    H2 9705   5.595   2.146   0.324
 3254TIP3   OH2 9706   4.482   2.897   0.848
 3254TIP3    H1 9707   4.490   2.873   0.755
 3254TIP3    H2 9708   4.499   2.815   0.895
 3255TIP3   OH2 9709   6.021   5.601   5.614
 3255TIP3    H1 9710   6.067   5.549   5.549
 3255TIP3    H2 9711   5.980   5.537   5.672
 3256TIP3   OH2 9712   5.237   7.738   0.858
 3256TIP3    H1 9713   5.141   7.734   0.859
 3256TIP3    H2 9714   5.256   7.820   0.811
 3257TIP3   OH2 9715   7.018   4.747   3.318
 3257TIP3    H1 9716   7.108   4.765   3.293
 3257TIP3    H2 9717   7.006   4.654   3.299
 3258TIP3   OH2 9718   4.732   3.423   5.724
 3258TIP3    H1 9719   4.779   3.380   5.795
 3258TIP3    H2 9720   4.671   3.482   5.767
 3259TIP3   OH2 9721   1.689   7.286   4.242
 3259TIP3    H1 9722   1.705   7.260   4.332
 3259TIP3    H2 9723   1.602   7.326   4.243
 3260TIP3   OH2 9724   1.098   5.315   2.592
 3260TIP3    H1 9725   1.111   5.406   2.620
 3260TIP3    H2 9726   1.181   5.272   2.610
 3261TIP3   OH2 9727   6.587   4.661   0.281
 3261TIP3    H1 9728   6.566   4.750   0.251
 3261TIP3    H2 9729   6.590   4.609   0.200
 3262TIP3   OH2 9730   7.963   6.597   0.471
 3262TIP3    H1 9731   7.870   6.609   0.490
 3262TIP3    H2 9732   7.973   6.624   0.379
 3263TIP3   OH2 9733   0.493   2.750   2.820
 3263TIP3    H1 9734   0.501   2.762   2.915
 3263TIP3    H2 9735   0.432   2.818   2.793
 3264TIP3   OH2 9736   3.752   5.590   5.737
 3264TIP3    H1 9737   3.721   5.518   5.792
 3264TIP3    H2 9738   3.698   5.665   5.763
 3265TIP3   OH2 9739   5.230   5.804   5.029
 3265TIP3    H1 9740   5.207   5.825   5.120
 3265TIP3    H2 9741   5.253   5.888   4.990
 3266TIP3   OH2 9742   7.272   5.071   5.858
 3266TIP3    H1 9743   7.257   4.992   5.909
 3266TIP3    H2 9744   7.360   5.099   5.882
 3267TIP3   OH2 9745   4.697   2.716   5.827
 3267TIP3    H1 9746   4.612   2.752   5.853
 3267TIP3    H2 9747   4.723   2.662   5.901
 3268TIP3   OH2 9748   5.161   2.159   4.196
 3268TIP3    H1 9749   5.196   2.116   4.118
 3268TIP3    H2 9750   5.197   2.248   4.192
 3269TIP3   OH2 9751   7.124   6.946   3.591
 3269TIP3    H1 9752   7.073   6.871   3.560
 3269TIP3    H2 9753   7.114   7.011   3.521
 3270TIP3   OH2 9754   2.644   4.218   5.548
 3270TIP3    H1 9755   2.637   4.273   5.470
 3270TIP3    H2 9756   2.641   4.129   5.515
 3271TIP3   OH2 9757   0.227   6.376   3.988
 3271TIP3    H1 9758   0.247   6.286   4.014
 3271TIP3    H2 9759   0.289   6.430   4.037
 3272TIP3   OH2 9760   0.454   2.376   5.479
 3272TIP3    H1 9761   0.506   2.296   5.469
 3272TIP3    H2 9762   0.512   2.446   5.450
 3273TIP3   OH2 9763   6.209   3.647   5.289
 3273TIP3    H1 9764   6.231   3.733   5.254
 3273TIP3    H2 9765   6.283   3.591   5.265
 3274TIP3   OH2 9766   0.507   5.778   0.557
 3274TIP3    H1 9767   0.448   5.827   0.500
 3274TIP3    H2 9768   0.491   5.686   0.535
 3275TIP3   OH2 9769   0.838   4.798   1.457
 3275TIP3    H1 9770   0.819   4.852   1.380
 3275TIP3    H2 9771   0.931   4.815   1.475
 3276TIP3   OH2 9772   2.938   2.691   5.511
 3276TIP3    H1 9773   2.971   2.775   5.543
 3276TIP3    H2 9774   2.931   2.703   5.416
 3277TIP3   OH2 9775   3.807   1.171   4.014
 3277TIP3    H1 9776   3.743   1.103   3.996
 3277TIP3    H2 9777   3.878   1.154   3.952
 3278TIP3   OH2 9778   2.742   7.430   1.444
 3278TIP3    H1 9779   2.697   7.507   1.411
 3278TIP3    H2 9780   2.834   7.444   1.420
 3279TIP3   OH2 9781   5.325   3.557   3.745
 3279TIP3    H1 9782   5.292   3.553   3.835
 3279TIP3    H2 9783   5.362   3.471   3.729
 3280TIP3   OH2 9784   7.027   0.677   0.670
 3280TIP3    H1 9785   6.935   0.654   0.657
 3280TIP3    H2 9786   7.029   0.772   0.657
 3281TIP3   OH2 9787   4.737   2.888   4.875
 3281TIP3    H1 9788   4.703   2.832   4.945
 3281TIP3    H2 9789   4.674   2.879   4.804
 3282TIP3   OH2 9790   3.982   1.919   6.714
 3282TIP3    H1 9791   3.992   2.009   6.746
 3282TIP3    H2 9792   4.061   1.905   6.661
 3283TIP3   OH2 9793   3.500   5.023   2.918
 3283TIP3    H1 9794   3.479   4.945   2.970
 3283TIP3    H2 9795   3.595   5.022   2.911
 3284TIP3   OH2 9796   0.686   1.003   3.558
 3284TIP3    H1 9797   0.748   1.051   3.613
 3284TIP3    H2 9798   0.705   0.911   3.575
 3285TIP3   OH2 9799   6.324   3.627   1.197
 3285TIP3    H1 9800   6.406   3.631   1.148
 3285TIP3    H2 9801   6.311   3.534   1.215
 3286TIP3   OH2 9802   3.362   4.373   5.194
 3286TIP3    H1 9803   3.339   4.302   5.135
 3286TIP3    H2 9804   3.443   4.344   5.236
 3287TIP3   OH2 9805   4.018   5.496   0.142
 3287TIP3    H1 9806   4.075   5.521   0.070
 3287TIP3    H2 9807   4.049   5.547   0.217
 3288TIP3   OH2 9808   3.568   7.497   6.444
 3288TIP3    H1 9809   3.618   7.496   6.525
 3288TIP3    H2 9810   3.632   7.478   6.376
 3289TIP3   OH2 9811   0.166   0.326   5.250
 3289TIP3    H1 9812   0.255   0.349   5.275
 3289TIP3    H2 9813   0.116   0.407   5.259
 3290TIP3   OH2 9814   1.265   5.539   1.821
 3290TIP3    H1 9815   1.198   5.607   1.817
 3290TIP3    H2 9816   1.348   5.588   1.823
 3291TIP3   OH2 9817   1.615   2.095   4.208
 3291TIP3    H1 9818   1.567   2.151   4.269
 3291TIP3    H2 9819   1.587   2.124   4.121
 3292TIP3   OH2 9820   5.909   3.849   1.797
 3292TIP3    H1 9821   5.962   3.801   1.862
 3292TIP3    H2 9822   5.966   3.856   1.721
 3293TIP3   OH2 9823   5.295   5.265   4.050
 3293TIP3    H1 9824   5.371   5.321   4.037
 3293TIP3    H2 9825   5.331   5.186   4.092
 3294TIP3   OH2 9826   0.453   4.349   5.986
 3294TIP3    H1 9827   0.512   4.325   6.057
 3294TIP3    H2 9828   0.472   4.286   5.917
 3295TIP3   OH2 9829   7.041   6.087   2.067
 3295TIP3    H1 9830   7.044   6.133   1.983
 3295TIP3    H2 9831   7.130   6.055   2.079
 3296TIP3   OH2 9832   3.364   6.788   4.736
 3296TIP3    H1 9833   3.385   6.880   4.725
 3296TIP3    H2 9834   3.449   6.745   4.747
 3297TIP3   OH2 9835   7.364   5.839   0.841
 3297TIP3    H1 9836   7.363   5.841   0.937
 3297TIP3    H2 9837   7.362   5.747   0.818
 3298TIP3   OH2 9838   2.110   7.350   6.134
 3298TIP3    H1 9839   2.184   7.363   6.194
 3298TIP3    H2 9840   2.054   7.287   6.179
 3299TIP3   OH2 9841   4.177   4.598   2.317
 3299TIP3    H1 9842   4.219   4.525   2.363
 3299TIP3    H2 9843   4.240   4.623   2.250
 3300TIP3   OH2 9844   3.657   7.682   3.014
 3300TIP3    H1 9845   3.651   7.628   3.093
 3300TIP3    H2 9846   3.674   7.621   2.943
 3301TIP3   OH2 9847   3.729   2.300   3.777
 3301TIP3    H1 9848   3.783   2.339   3.846
 3301TIP3    H2 9849   3.719   2.370   3.713
 3302TIP3   OH2 9850   7.844   0.947   0.075
 3302TIP3    H1 9851   7.881   0.966  -0.011
 3302TIP3    H2 9852   7.749   0.945   0.061
 3303TIP3   OH2 9853   2.447   7.427   6.696
 3303TIP3    H1 9854   2.354   7.422   6.677
 3303TIP3    H2 9855   2.461   7.367   6.769
 3304TIP3   OH2 9856   3.393   7.650   0.978
 3304TIP3    H1 9857   3.387   7.557   0.959
 3304TIP3    H2 9858   3.450   7.685   0.910
 3305TIP3   OH2 9859   6.777   5.409   0.313
 3305TIP3    H1 9860   6.782   5.316   0.335
 3305TIP3    H2 9861   6.765   5.411   0.218
 3306TIP3   OH2 9862   4.906   2.577   2.468
 3306TIP3    H1 9863   4.966   2.624   2.410
 3306TIP3    H2 9864   4.937   2.597   2.556
 3307TIP3   OH2 9865   4.698   4.732   3.088
 3307TIP3    H1 9866   4.656   4.763   3.008
 3307TIP3    H2 9867   4.754   4.804   3.116
 3308TIP3   OH2 9868   5.672   6.945   3.426
 3308TIP3    H1 9869   5.615   6.870   3.408
 3308TIP3    H2 9870   5.621   7.021   3.399
 3309TIP3   OH2 9871   6.524   2.550   3.311
 3309TIP3    H1 9872   6.570   2.505   3.241
 3309TIP3    H2 9873   6.468   2.614   3.266
 3310TIP3   OH2 9874   4.322   4.891   3.294
 3310TIP3    H1 9875   4.356   4.836   3.222
 3310TIP3    H2 9876   4.330   4.836   3.372
 3311TIP3   OH2 9877   6.826   6.468   0.878
 3311TIP3    H1 9878   6.821   6.491   0.785
 3311TIP3    H2 9879   6.735   6.460   0.906
 3312TIP3   OH2 9880   1.688   5.070   4.213
 3312TIP3    H1 9881   1.635   5.126   4.269
 3312TIP3    H2 9882   1.774   5.066   4.257
 3313TIP3   OH2 9883   7.279   5.284   0.835
 3313TIP3    H1 9884   7.269   5.193   0.807
 3313TIP3    H2 9885   7.261   5.336   0.757
 3314TIP3   OH2 9886   4.040   4.349   6.363
 3314TIP3    H1 9887   4.055   4.342   6.269
 3314TIP3    H2 9888   3.975   4.419   6.372
 3315TIP3   OH2 9889   7.395   7.495   1.205
 3315TIP3    H1 9890   7.364   7.540   1.126
 3315TIP3    H2 9891   7.393   7.402   1.182
 3316TIP3   OH2 9892   1.752   2.331   4.662
 3316TIP3    H1 9893   1.716   2.378   4.587
 3316TIP3    H2 9894   1.787   2.399   4.719
 3317TIP3   OH2 9895   6.424   4.572   1.256
 3317TIP3    H1 9896   6.430   4.616   1.172
 3317TIP3    H2 9897   6.496   4.608   1.308
 3318TIP3   OH2 9898   0.526   0.995   5.119
 3318TIP3    H1 9899   0.532   1.007   5.024
 3318TIP3    H2 9900   0.611   0.958   5.143
 3319TIP3   OH2 9901   4.074   2.068   3.989
 3319TIP3    H1 9902   4.148   2.073   3.929
 3319TIP3    H2 9903   4.002   2.036   3.936
 3320TIP3   OH2 9904   1.771   0.958   5.710
 3320TIP3    H1 9905   1.857   0.956   5.668
 3320TIP3    H2 9906   1.709   0.948   5.638
 3321TIP3   OH2 9907   6.178   7.391   4.149
 3321TIP3    H1 9908   6.120   7.463   4.175
 3321TIP3    H2 9909   6.256   7.435   4.115
 3322TIP3   OH2 9910   7.077   0.816   3.114
 3322TIP3    H1 9911   7.097   0.730   3.075
 3322TIP3    H2 9912   7.002   0.799   3.171
 3323TIP3   OH2 9913   5.858   3.338   3.587
 3323TIP3    H1 9914   5.819   3.256   3.617
 3323TIP3    H2 9915   5.822   3.404   3.646
 3324TIP3   OH2 9916   1.914   4.149   1.705
 3324TIP3    H1 9917   1.957   4.194   1.632
 3324TIP3    H2 9918   1.822   4.172   1.697
 3325TIP3   OH2 9919   3.358   2.939   0.133
 3325TIP3    H1 9920   3.436   2.940   0.188
 3325TIP3    H2 9921   3.290   2.979   0.187
 3326TIP3   OH2 9922   5.257   3.706   2.807
 3326TIP3    H1 9923   5.346   3.672   2.799
 3326TIP3    H2 9924   5.260   3.763   2.885
 3327TIP3   OH2 9925   7.957   6.432   2.810
 3327TIP3    H1 9926   7.883   6.375   2.828
 3327TIP3    H2 9927   7.947   6.457   2.718
 3328TIP3   OH2 9928   0.024   0.672   0.828
 3328TIP3    H1 9929   0.055   0.594   0.873
 3328TIP3    H2 9930   0.031   0.650   0.735
 3329TIP3   OH2 9931   3.805   1.016   5.213
 3329TIP3    H1 9932   3.807   0.958   5.289
 3329TIP3    H2 9933   3.754   0.970   5.147
 3330TIP3   OH2 9934   7.009   3.505   3.170
 3330TIP3    H1 9935   6.988   3.501   3.077
 3330TIP3    H2 9936   7.029   3.598   3.186
 3331TIP3   OH2 9937   0.922   4.938   2.519
 3331TIP3    H1 9938   0.828   4.922   2.528
 3331TIP3    H2 9939   0.954   4.940   2.609
 3332TIP3   OH2 9940   2.128   1.555   6.088
 3332TIP3    H1 9941   2.150   1.468   6.123
 3332TIP3    H2 9942   2.147   1.615   6.160
 3333TIP3   OH2 9943   5.529   2.498   6.646
 3333TIP3    H1 9944   5.615   2.458   6.640
 3333TIP3    H2 9945   5.479   2.460   6.574
 3334TIP3   OH2 9946   4.208   4.188   2.862
 3334TIP3    H1 9947   4.253   4.208   2.944
 3334TIP3    H2 9948   4.157   4.110   2.881
 3335TIP3   OH2 9949   8.122   6.273   1.054
 3335TIP3    H1 9950   8.204   6.249   1.012
 3335TIP3    H2 9951   8.057   6.267   0.984
 3336TIP3   OH2 9952   3.135   6.409   1.164
 3336TIP3    H1 9953   3.144   6.415   1.260
 3336TIP3    H2 9954   3.107   6.496   1.137
 3337TIP3   OH2 9955   4.317   0.862   5.076
 3337TIP3    H1 9956   4.361   0.918   5.013
 3337TIP3    H2 9957   4.246   0.821   5.026
 3338TIP3   OH2 9958   4.709   3.383   3.131
 3338TIP3    H1 9959   4.729   3.461   3.182
 3338TIP3    H2 9960   4.794   3.352   3.100
 3339TIP3   OH2 9961   5.436   1.532   4.983
 3339TIP3    H1 9962   5.406   1.614   4.943
 3339TIP3    H2 9963   5.453   1.555   5.074
 3340TIP3   OH2 9964   2.894   6.238   3.589
 3340TIP3    H1 9965   2.836   6.202   3.522
 3340TIP3    H2 9966   2.888   6.176   3.662
 3341TIP3   OH2 9967   3.937   2.365   6.154
 3341TIP3    H1 9968   4.018   2.314   6.151
 3341TIP3    H2 9969   3.958   2.444   6.104
 3342TIP3   OH2 9970   1.972   5.291   1.573
 3342TIP3    H1 9971   1.948   5.277   1.481
 3342TIP3    H2 9972   2.049   5.237   1.586
 3343TIP3   OH2 9973   5.781   5.538   6.730
 3343TIP3    H1 9974   5.780   5.539   6.826
 3343TIP3    H2 9975   5.867   5.504   6.707
 3344TIP3   OH2 9976   3.172   7.409   2.664
 3344TIP3    H1 9977   3.168   7.447   2.576
 3344TIP3    H2 9978   3.232   7.335   2.654
 3345TIP3   OH2 9979   7.500   3.858   0.099
 3345TIP3    H1 9980   7.422   3.899   0.062
 3345TIP3    H2 9981   7.474   3.832   0.187
 3346TIP3   OH2 9982   4.409   6.297   4.787
 3346TIP3    H1 9983   4.349   6.343   4.846
 3346TIP3    H2 9984   4.381   6.205   4.792
 3347TIP3   OH2 9985   3.473   6.747   1.558
 3347TIP3    H1 9986   3.457   6.721   1.468
 3347TIP3    H2 9987   3.438   6.675   1.611
 3348TIP3   OH2 9988   5.292   3.846   4.044
 3348TIP3    H1 9989   5.371   3.813   4.001
 3348TIP3    H2 9990   5.302   3.819   4.135
 3349TIP3   OH2 9991   3.212   5.094   1.400
 3349TIP3    H1 9992   3.177   5.075   1.487
 3349TIP3    H2 9993   3.159   5.167   1.369
 3350TIP3   OH2 9994   6.759   6.813   3.260
 3350TIP3    H1 9995   6.695   6.864   3.211
 3350TIP3    H2 9996   6.832   6.801   3.200
 3351TIP3   OH2 9997   2.982   0.430   5.534
 3351TIP3    H1 9998   2.987   0.484   5.455
 3351TIP3    H2 9999   3.020   0.346   5.508
 3352TIP3   OH210000   6.381   2.964   4.072
 3352TIP3    H110001   6.389   3.058   4.054
 3352TIP3    H210002   6.416   2.954   4.160
 3353TIP3   OH210003   6.135   4.168   4.719
 3353TIP3    H110004   6.115   4.261   4.718
 3353TIP3    H210005   6.062   4.128   4.767
 3354TIP3   OH210006   6.467   7.273   0.429
 3354TIP3    H110007   6.383   7.297   0.467
 3354TIP3    H210008   6.471   7.178   0.438
 3355TIP3   OH210009   3.924   4.087   6.350
 3355TIP3    H110010   3.839   4.090   6.394
 3355TIP3    H210011   3.966   4.170   6.373
 3356TIP3   OH210012   1.797   1.799   6.776
 3356TIP3    H110013   1.795   1.888   6.810
 3356TIP3    H210014   1.754   1.804   6.691
 3357TIP3   OH210015   6.850   1.557   2.251
 3357TIP3    H110016   6.880   1.640   2.288
 3357TIP3    H210017   6.923   1.496   2.264
 3358TIP3   OH210018   7.273   5.737   2.087
 3358TIP3    H110019   7.291   5.830   2.078
 3358TIP3    H210020   7.303   5.699   2.004
 3359TIP3   OH210021   3.086   6.585   5.542
 3359TIP3    H110022   2.993   6.608   5.547
 3359TIP3    H210023   3.130   6.660   5.581
 3360TIP3   OH210024   6.141   5.633   3.372
 3360TIP3    H110025   6.051   5.605   3.362
 3360TIP3    H210026   6.192   5.572   3.318
 3361TIP3   OH210027   2.802   1.458   1.839
 3361TIP3    H110028   2.833   1.452   1.749
 3361TIP3    H210029   2.867   1.409   1.890
 3362TIP3   OH210030   8.083   2.830   3.140
 3362TIP3    H110031   8.031   2.843   3.220
 3362TIP3    H210032   8.158   2.777   3.168
 3363TIP3   OH210033   4.606   3.586   2.619
 3363TIP3    H110034   4.515   3.561   2.629
 3363TIP3    H210035   4.656   3.513   2.656
 3364TIP3   OH210036   7.903   4.933   5.228
 3364TIP3    H110037   7.895   4.931   5.132
 3364TIP3    H210038   7.985   4.887   5.247
 3365TIP3   OH210039   0.334   7.495   6.091
 3365TIP3    H110040   0.268   7.437   6.129
 3365TIP3    H210041   0.403   7.436   6.062
 3366TIP3   OH210042   5.194   7.445   6.433
 3366TIP3    H110043   5.242   7.407   6.507
 3366TIP3    H210044   5.133   7.506   6.473
 3367TIP3   OH210045   2.428   5.451   2.457
 3367TIP3    H110046   2.502   5.394   2.478
 3367TIP3    H210047   2.413   5.500   2.538
 3368TIP3   OH210048   5.988   0.649   3.919
 3368TIP3    H110049   5.906   0.681   3.955
 3368TIP3    H210050   6.009   0.572   3.972
 3369TIP3   OH210051   6.799   5.236   4.399
 3369TIP3    H110052   6.742   5.313   4.400
 3369TIP3    H210053   6.878   5.265   4.354
 3370TIP3   OH210054   2.270   6.475   5.152
 3370TIP3    H110055   2.183   6.509   5.131
 3370TIP3    H210056   2.290   6.415   5.080
 3371TIP3   OH210057   4.370   4.722   3.096
 3371TIP3    H110058   4.420   4.669   3.035
 3371TIP3    H210059   4.323   4.784   3.040
 3372TIP3   OH210060   4.161   6.598   5.509
 3372TIP3    H110061   4.251   6.584   5.539
 3372TIP3    H210062   4.121   6.512   5.511
 3373TIP3   OH210063   6.086   3.217   0.464
 3373TIP3    H110064   6.068   3.309   0.445
 3373TIP3    H210065   6.180   3.214   0.483
 3374TIP3   OH210066   8.321   5.457   5.486
 3374TIP3    H110067   8.227   5.459   5.470
 3374TIP3    H210068   8.358   5.514   5.418
 3375TIP3   OH210069   6.503   3.450   5.023
 3375TIP3    H110070   6.452   3.528   5.002
 3375TIP3    H210071   6.564   3.441   4.950
 3376TIP3   OH210072   6.940   2.178   2.592
 3376TIP3    H110073   6.879   2.133   2.651
 3376TIP3    H210074   7.003   2.220   2.650
 3377TIP3   OH210075   2.385   0.497   3.906
 3377TIP3    H110076   2.420   0.437   3.840
 3377TIP3    H210077   2.300   0.460   3.930
 3378TIP3   OH210078   6.603   7.056   1.422
 3378TIP3    H110079   6.562   6.975   1.450
 3378TIP3    H210080   6.549   7.087   1.349
 3379TIP3   OH210081   1.676   0.244   6.426
 3379TIP3    H110082   1.736   0.306   6.468
 3379TIP3    H210083   1.697   0.160   6.466
 3380TIP3   OH210084   3.700   4.580   2.215
 3380TIP3    H110085   3.794   4.590   2.226
 3380TIP3    H210086   3.661   4.640   2.279
 3381TIP3   OH210087   2.870   5.676   2.391
 3381TIP3    H110088   2.962   5.655   2.372
 3381TIP3    H210089   2.858   5.764   2.356
 3382TIP3   OH210090   3.274   2.063   3.284
 3382TIP3    H110091   3.279   2.011   3.364
 3382TIP3    H210092   3.349   2.121   3.287
 3383TIP3   OH210093   1.061   3.917   0.506
 3383TIP3    H110094   1.097   3.999   0.472
 3383TIP3    H210095   1.137   3.868   0.537
 3384TIP3   OH210096   3.847   2.121   4.215
 3384TIP3    H110097   3.928   2.105   4.168
 3384TIP3    H210098   3.870   2.184   4.283
 3385TIP3   OH210099   3.010   7.472   3.601
 3385TIP3    H110100   2.941   7.409   3.622
 3385TIP3    H210101   3.028   7.517   3.683
 3386TIP3   OH210102   5.169   2.865   0.194
 3386TIP3    H110103   5.215   2.791   0.156
 3386TIP3    H210104   5.185   2.938   0.134
 3387TIP3   OH210105   7.452   7.554   0.255
 3387TIP3    H110106   7.391   7.521   0.188
 3387TIP3    H210107   7.441   7.495   0.329
 3388TIP3   OH210108   1.091   4.714   4.432
 3388TIP3    H110109   1.011   4.686   4.477
 3388TIP3    H210110   1.162   4.682   4.487
 3389TIP3   OH210111   2.758   5.317   3.722
 3389TIP3    H110112   2.840   5.268   3.726
 3389TIP3    H210113   2.721   5.295   3.636
 3390TIP3   OH210114   2.747   6.910   0.958
 3390TIP3    H110115   2.679   6.973   0.981
 3390TIP3    H210116   2.743   6.904   0.862
 3391TIP3   OH210117   0.662   4.757   6.327
 3391TIP3    H110118   0.610   4.718   6.256
 3391TIP3    H210119   0.682   4.684   6.385
 3392TIP3   OH210120   0.497   1.516   5.301
 3392TIP3    H110121   0.466   1.456   5.233
 3392TIP3    H210122   0.570   1.563   5.261
 3393TIP3   OH210123   4.612   5.961   0.113
 3393TIP3    H110124   4.569   6.046   0.102
 3393TIP3    H210125   4.667   5.952   0.035
 3394TIP3   OH210126   0.197   5.258   2.232
 3394TIP3    H110127   0.136   5.196   2.193
 3394TIP3    H210128   0.266   5.269   2.166
 3395TIP3   OH210129   3.104   5.606   2.290
 3395TIP3    H110130   3.068   5.631   2.204
 3395TIP3    H210131   3.197   5.592   2.273
 3396TIP3   OH210132   1.469   1.179   4.441
 3396TIP3    H110133   1.465   1.104   4.382
 3396TIP3    H210134   1.525   1.150   4.513
 3397TIP3   OH210135   0.336   6.573   1.321
 3397TIP3    H110136   0.255   6.544   1.278
 3397TIP3    H210137   0.376   6.492   1.354
 3398TIP3   OH210138   4.502   3.117   3.953
 3398TIP3    H110139   4.408   3.108   3.943
 3398TIP3    H210140   4.518   3.103   4.046
 3399TIP3   OH210141   1.686   6.216   1.648
 3399TIP3    H110142   1.648   6.130   1.628
 3399TIP3    H210143   1.735   6.204   1.729
 3400TIP3   OH210144   5.424   5.028   4.160
 3400TIP3    H110145   5.418   5.021   4.255
 3400TIP3    H210146   5.472   4.949   4.133
 3401TIP3   OH210147   3.797   1.447   1.693
 3401TIP3    H110148   3.835   1.360   1.706
 3401TIP3    H210149   3.819   1.469   1.602
 3402TIP3   OH210150   3.611   0.218   4.721
 3402TIP3    H110151   3.670   0.288   4.694
 3402TIP3    H210152   3.536   0.226   4.663
 3403TIP3   OH210153   3.864   1.430   6.210
 3403TIP3    H110154   3.932   1.462   6.149
 3403TIP3    H210155   3.911   1.370   6.268
 3404TIP3   OH210156   7.981   2.380   3.483
 3404TIP3    H110157   7.957   2.439   3.411
 3404TIP3    H210158   7.908   2.386   3.544
 3405TIP3   OH210159   8.122   4.392   2.655
 3405TIP3    H110160   8.041   4.353   2.622
 3405TIP3    H210161   8.124   4.368   2.748
 3406TIP3   OH210162   1.894   2.562   1.084
 3406TIP3    H110163   1.849   2.532   1.163
 3406TIP3    H210164   1.856   2.510   1.013
 3407TIP3   OH210165   7.319   1.420   1.061
 3407TIP3    H110166   7.308   1.364   0.985
 3407TIP3    H210167   7.251   1.487   1.052
 3408TIP3   OH210168   1.983   3.852   0.664
 3408TIP3    H110169   2.042   3.808   0.603
 3408TIP3    H210170   1.938   3.917   0.611
 3409TIP3   OH210171   5.255   1.324   5.357
 3409TIP3    H110172   5.256   1.383   5.433
 3409TIP3    H210173   5.319   1.362   5.297
 3410TIP3   OH210174   3.218   1.274   5.101
 3410TIP3    H110175   3.129   1.274   5.135
 3410TIP3    H210176   3.220   1.205   5.036
 3411TIP3   OH210177   6.379   6.507   2.605
 3411TIP3    H110178   6.365   6.587   2.655
 3411TIP3    H210179   6.318   6.444   2.643
 3412TIP3   OH210180   6.861   3.335   0.434
 3412TIP3    H110181   6.922   3.399   0.470
 3412TIP3    H210182   6.910   3.252   0.435
 3413TIP3   OH210183   4.746   6.376   6.340
 3413TIP3    H110184   4.803   6.305   6.311
 3413TIP3    H210185   4.667   6.366   6.286
 3414TIP3   OH210186   6.272   5.418   0.716
 3414TIP3    H110187   6.255   5.507   0.747
 3414TIP3    H210188   6.341   5.385   0.773
 3415TIP3   OH210189   8.186   4.970   1.121
 3415TIP3    H110190   8.257   4.924   1.166
 3415TIP3    H210191   8.169   5.047   1.175
 3416TIP3   OH210192   8.166   1.744   3.436
 3416TIP3    H110193   8.176   1.802   3.511
 3416TIP3    H210194   8.084   1.771   3.395
 3417TIP3   OH210195   3.249   5.424   5.108
 3417TIP3    H110196   3.235   5.395   5.198
 3417TIP3    H210197   3.340   5.401   5.090
 3418TIP3   OH210198   7.744   3.275   3.049
 3418TIP3    H110199   7.649   3.265   3.042
 3418TIP3    H210200   7.757   3.364   3.081
 3419TIP3   OH210201   5.380   6.982   5.604
 3419TIP3    H110202   5.324   7.046   5.647
 3419TIP3    H210203   5.328   6.949   5.531
 3420TIP3   OH210204   7.557   0.757   0.531
 3420TIP3    H110205   7.617   0.831   0.522
 3420TIP3    H210206   7.531   0.758   0.623
 3421TIP3   OH210207   5.475   7.609   1.515
 3421TIP3    H110208   5.503   7.534   1.462
 3421TIP3    H210209   5.380   7.602   1.519
 3422TIP3   OH210210   6.150   0.198   4.182
 3422TIP3    H110211   6.176   0.115   4.142
 3422TIP3    H210212   6.212   0.212   4.253
 3423TIP3   OH210213   4.591   6.928   1.171
 3423TIP3    H110214   4.541   6.879   1.105
 3423TIP3    H210215   4.526   6.983   1.215
 3424TIP3   OH210216   2.202   5.675   0.612
 3424TIP3    H110217   2.217   5.690   0.519
 3424TIP3    H210218   2.185   5.581   0.620
 3425TIP3   OH210219   1.835   3.578   1.076
 3425TIP3    H110220   1.792   3.620   1.001
 3425TIP3    H210221   1.799   3.622   1.152
 3426TIP3   OH210222   5.861   2.647   0.963
 3426TIP3    H110223   5.897   2.668   1.049
 3426TIP3    H210224   5.864   2.730   0.915
 3427TIP3   OH210225   5.679   0.903   2.116
 3427TIP3    H110226   5.722   0.976   2.160
 3427TIP3    H210227   5.749   0.840   2.101
 3428TIP3   OH210228   5.936   0.772   2.097
 3428TIP3    H110229   5.890   0.711   2.039
 3428TIP3    H210230   5.985   0.829   2.038
 3429TIP3   OH210231   0.766   6.468   4.958
 3429TIP3    H110232   0.734   6.531   4.894
 3429TIP3    H210233   0.698   6.465   5.025
 3430TIP3   OH210234   1.859   2.530   4.813
 3430TIP3    H110235   1.883   2.554   4.902
 3430TIP3    H210236   1.842   2.614   4.769
 3431TIP3   OH210237   3.586   6.572   1.929
 3431TIP3    H110238   3.545   6.551   1.845
 3431TIP3    H210239   3.548   6.510   1.991
 3432TIP3   OH210240   1.148   3.700   5.212
 3432TIP3    H110241   1.203   3.767   5.253
 3432TIP3    H210242   1.127   3.737   5.126
 3433TIP3   OH210243   2.229   6.926   6.452
 3433TIP3    H110244   2.145   6.903   6.492
 3433TIP3    H210245   2.239   6.862   6.381
 3434TIP3   OH210246   0.111   5.313   5.206
 3434TIP3    H110247   0.025   5.345   5.234
 3434TIP3    H210248   0.171   5.342   5.274
 3435TIP3   OH210249   3.792   3.538   4.637
 3435TIP3    H110250   3.817   3.627   4.659
 3435TIP3    H210251   3.866   3.484   4.664
 3436TIP3   OH210252   3.790   2.804   0.471
 3436TIP3    H110253   3.877   2.843   0.474
 3436TIP3    H210254   3.805   2.710   0.480
 3437TIP3   OH210255   6.059   4.635   5.137
 3437TIP3    H110256   6.064   4.684   5.219
 3437TIP3    H210257   6.141   4.654   5.092
 3438TIP3   OH210258   0.509   0.429   5.755
 3438TIP3    H110259   0.462   0.368   5.811
 3438TIP3    H210260   0.445   0.498   5.736
 3439TIP3   OH210261   4.393   7.275   6.507
 3439TIP3    H110262   4.363   7.196   6.463
 3439TIP3    H210263   4.318   7.335   6.502
 3440TIP3   OH210264   8.021   4.922   6.701
 3440TIP3    H110265   8.100   4.965   6.668
 3440TIP3    H210266   8.030   4.831   6.673
 3441TIP3   OH210267   3.885   1.458   6.772
 3441TIP3    H110268   3.810   1.512   6.794
 3441TIP3    H210269   3.954   1.520   6.747
 3442TIP3   OH210270   3.928   0.042   1.307
 3442TIP3    H110271   3.846   0.006   1.273
 3442TIP3    H210272   3.904   0.128   1.340
 3443TIP3   OH210273   2.747   0.822   1.212
 3443TIP3    H110274   2.741   0.745   1.268
 3443TIP3    H210275   2.734   0.896   1.271
 3444TIP3   OH210276   6.259   6.699   0.825
 3444TIP3    H110277   6.272   6.666   0.736
 3444TIP3    H210278   6.348   6.713   0.858
 3445TIP3   OH210279   2.311   5.116   5.493
 3445TIP3    H110280   2.261   5.041   5.524
 3445TIP3    H210281   2.266   5.144   5.414
 3446TIP3   OH210282   7.248   4.424   1.813
 3446TIP3    H110283   7.252   4.510   1.855
 3446TIP3    H210284   7.158   4.395   1.826
 3447TIP3   OH210285   6.762   5.917   4.435
 3447TIP3    H110286   6.853   5.889   4.431
 3447TIP3    H210287   6.765   6.008   4.464
 3448TIP3   OH210288   6.423   3.157   4.927
 3448TIP3    H110289   6.336   3.146   4.966
 3448TIP3    H210290   6.421   3.244   4.888
 3449TIP3   OH210291   3.744   6.789   2.016
 3449TIP3    H110292   3.691   6.794   2.096
 3449TIP3    H210293   3.692   6.734   1.957
 3450TIP3   OH210294   3.755   0.337   6.796
 3450TIP3    H110295   3.789   0.424   6.777
 3450TIP3    H210296   3.708   0.311   6.717
 3451TIP3   OH210297   3.031   1.062   2.223
 3451TIP3    H110298   3.112   1.034   2.179
 3451TIP3    H210299   2.996   1.131   2.167
 3452TIP3   OH210300   5.280   2.861   2.870
 3452TIP3    H110301   5.191   2.850   2.837
 3452TIP3    H210302   5.273   2.846   2.965
 3453TIP3   OH210303   5.844   7.362   6.683
 3453TIP3    H110304   5.809   7.339   6.769
 3453TIP3    H210305   5.918   7.303   6.671
 3454TIP3   OH210306   6.686   7.640   5.426
 3454TIP3    H110307   6.745   7.628   5.352
 3454TIP3    H210308   6.640   7.557   5.434
 3455TIP3   OH210309   7.360   6.263   0.224
 3455TIP3    H110310   7.449   6.292   0.243
 3455TIP3    H210311   7.356   6.174   0.260
 3456TIP3   OH210312   1.764   4.251   5.273
 3456TIP3    H110313   1.733   4.262   5.183
 3456TIP3    H210314   1.701   4.301   5.326
 3457TIP3   OH210315   1.149   5.923   5.655
 3457TIP3    H110316   1.201   5.956   5.582
 3457TIP3    H210317   1.213   5.883   5.714
 3458TIP3   OH210318   4.718   4.456   1.277
 3458TIP3    H110319   4.759   4.370   1.280
 3458TIP3    H210320   4.756   4.497   1.199
 3459TIP3   OH210321   6.668   6.916   0.601
 3459TIP3    H110322   6.755   6.943   0.631
 3459TIP3    H210323   6.669   6.821   0.607
 3460TIP3   OH210324   2.662   7.324   5.895
 3460TIP3    H110325   2.589   7.289   5.947
 3460TIP3    H210326   2.731   7.341   5.959
 3461TIP3   OH210327   7.085   4.895   1.057
 3461TIP3    H110328   7.069   4.801   1.046
 3461TIP3    H210329   7.168   4.911   1.013
 3462TIP3   OH210330   6.317   7.128   4.702
 3462TIP3    H110331   6.399   7.080   4.713
 3462TIP3    H210332   6.344   7.217   4.679
 3463TIP3   OH210333   8.183   0.877   6.488
 3463TIP3    H110334   8.200   0.968   6.465
 3463TIP3    H210335   8.243   0.859   6.560
 3464TIP3   OH210336   3.199   1.960   3.592
 3464TIP3    H110337   3.194   2.055   3.606
 3464TIP3    H210338   3.272   1.932   3.647
 3465TIP3   OH210339   3.051   1.715   3.194
 3465TIP3    H110340   3.057   1.705   3.289
 3465TIP3    H210341   3.129   1.766   3.171
 3466TIP3   OH210342   2.222   5.181   1.643
 3466TIP3    H110343   2.237   5.266   1.685
 3466TIP3    H210344   2.293   5.173   1.579
 3467TIP3   OH210345   7.265   2.674   2.133
 3467TIP3    H110346   7.236   2.599   2.185
 3467TIP3    H210347   7.359   2.680   2.150
 3468TIP3   OH210348   0.878   5.612   5.522
 3468TIP3    H110349   0.940   5.558   5.572
 3468TIP3    H210350   0.817   5.549   5.483
 3469TIP3   OH210351   0.252   1.959   2.788
 3469TIP3    H110352   0.277   2.038   2.838
 3469TIP3    H210353   0.336   1.922   2.760
 3470TIP3   OH210354   6.498   6.378   4.706
 3470TIP3    H110355   6.477   6.387   4.799
 3470TIP3    H210356   6.461   6.293   4.682
 3471TIP3   OH210357   5.519   6.223   4.413
 3471TIP3    H110358   5.544   6.140   4.371
 3471TIP3    H210359   5.510   6.201   4.505
 3472TIP3   OH210360   6.533   0.734   0.482
 3472TIP3    H110361   6.485   0.652   0.465
 3472TIP3    H210362   6.506   0.792   0.411
 3473TIP3   OH210363   7.673   4.572   5.748
 3473TIP3    H110364   7.607   4.600   5.683
 3473TIP3    H210365   7.639   4.605   5.831
 3474TIP3   OH210366   3.951   6.592   3.271
 3474TIP3    H110367   3.968   6.580   3.177
 3474TIP3    H210368   3.857   6.580   3.280
 3475TIP3   OH210369   3.053   7.253   2.011
 3475TIP3    H110370   2.965   7.289   2.008
 3475TIP3    H210371   3.040   7.158   2.019
 3476TIP3   OH210372   7.845   3.989   4.693
 3476TIP3    H110373   7.808   3.950   4.772
 3476TIP3    H210374   7.923   4.035   4.724
 3477TIP3   OH210375   7.862   7.781   1.059
 3477TIP3    H110376   7.767   7.787   1.050
 3477TIP3    H210377   7.896   7.829   0.983
 3478TIP3   OH210378   0.136   1.756   1.508
 3478TIP3    H110379   0.194   1.772   1.582
 3478TIP3    H210380   0.134   1.661   1.500
 3479TIP3   OH210381   2.801   5.137   1.362
 3479TIP3    H110382   2.823   5.219   1.404
 3479TIP3    H210383   2.853   5.136   1.281
 3480TIP3   OH210384   1.567   2.456   3.451
 3480TIP3    H110385   1.566   2.362   3.472
 3480TIP3    H210386   1.552   2.459   3.356
 3481TIP3   OH210387   0.930   1.943   2.274
 3481TIP3    H110388   0.943   1.901   2.189
 3481TIP3    H210389   0.938   1.871   2.337
 3482TIP3   OH210390   6.774   0.174   5.058
 3482TIP3    H110391   6.730   0.230   4.994
 3482TIP3    H210392   6.808   0.236   5.123
 3483TIP3   OH210393   0.724   4.295   1.347
 3483TIP3    H110394   0.635   4.270   1.372
 3483TIP3    H210395   0.774   4.213   1.351
 3484TIP3   OH210396   3.757   6.225   2.446
 3484TIP3    H110397   3.686   6.162   2.434
 3484TIP3    H210398   3.764   6.271   2.362
 3485TIP3   OH210399   6.016   1.064   5.761
 3485TIP3    H110400   6.035   0.981   5.718
 3485TIP3    H210401   5.940   1.045   5.816
 3486TIP3   OH210402   6.190   6.206   5.152
 3486TIP3    H110403   6.189   6.200   5.057
 3486TIP3    H210404   6.280   6.184   5.177
 3487TIP3   OH210405   2.725   2.341   3.246
 3487TIP3    H110406   2.749   2.286   3.321
 3487TIP3    H210407   2.761   2.295   3.170
 3488TIP3   OH210408   1.364   7.027   5.885
 3488TIP3    H110409   1.351   6.934   5.904
 3488TIP3    H210410   1.433   7.055   5.946
 3489TIP3   OH210411   4.082   0.560   5.698
 3489TIP3    H110412   4.005   0.579   5.752
 3489TIP3    H210413   4.134   0.500   5.751
 3490TIP3   OH210414   7.758   5.471   0.004
 3490TIP3    H110415   7.677   5.431   0.034
 3490TIP3    H210416   7.823   5.446   0.069
 3491TIP3   OH210417   6.574   4.857   3.377
 3491TIP3    H110418   6.492   4.813   3.354
 3491TIP3    H210419   6.572   4.863   3.473
 3492TIP3   OH210420   0.837   6.559   3.845
 3492TIP3    H110421   0.777   6.487   3.823
 3492TIP3    H210422   0.895   6.523   3.912
 3493TIP3   OH210423   1.981   4.752   2.633
 3493TIP3    H110424   2.042   4.688   2.596
 3493TIP3    H210425   2.034   4.802   2.695
 3494TIP3   OH210426   1.409   7.360   3.118
 3494TIP3    H110427   1.401   7.453   3.094
 3494TIP3    H210428   1.501   7.339   3.103
 3495TIP3   OH210429   6.858   5.495   3.457
 3495TIP3    H110430   6.931   5.476   3.399
 3495TIP3    H210431   6.894   5.555   3.522
 3496TIP3   OH210432   7.716   1.157   2.682
 3496TIP3    H110433   7.807   1.183   2.693
 3496TIP3    H210434   7.665   1.232   2.712
 3497TIP3   OH210435   5.692   0.157   1.965
 3497TIP3    H110436   5.749   0.093   2.008
 3497TIP3    H210437   5.734   0.242   1.983
 3498TIP3   OH210438   4.674   5.559   2.400
 3498TIP3    H110439   4.763   5.531   2.379
 3498TIP3    H210440   4.657   5.519   2.485
 3499TIP3   OH210441   2.386   2.636   0.382
 3499TIP3    H110442   2.463   2.642   0.438
 3499TIP3    H210443   2.414   2.673   0.298
 3500TIP3   OH210444   0.162   5.850   1.960
 3500TIP3    H110445   0.179   5.762   1.926
 3500TIP3    H210446   0.249   5.885   1.979
 3501TIP3   OH210447   6.123   2.702   1.608
 3501TIP3    H110448   6.033   2.706   1.641
 3501TIP3    H210449   6.165   2.635   1.662
 3502TIP3   OH210450   7.513   2.424   1.083
 3502TIP3    H110451   7.418   2.439   1.086
 3502TIP3    H210452   7.530   2.404   0.991
 3503TIP3   OH210453   2.982   7.531   0.982
 3503TIP3    H110454   3.013   7.619   0.963
 3503TIP3    H210455   2.947   7.500   0.898
 3504TIP3   OH210456   4.686   6.407   1.389
 3504TIP3    H110457   4.726   6.339   1.442
 3504TIP3    H210458   4.597   6.376   1.372
 3505TIP3   OH210459   5.057   6.671   2.769
 3505TIP3    H110460   5.054   6.596   2.828
 3505TIP3    H210461   4.967   6.705   2.769
 3506TIP3   OH210462   8.286   3.195   1.079
 3506TIP3    H110463   8.338   3.134   1.132
 3506TIP3    H210464   8.197   3.187   1.114
 3507TIP3   OH210465   7.132   6.896   4.366
 3507TIP3    H110466   7.128   6.984   4.328
 3507TIP3    H210467   7.087   6.905   4.451
 3508TIP3   OH210468   3.146   6.218   1.395
 3508TIP3    H110469   3.200   6.230   1.318
 3508TIP3    H210470   3.207   6.187   1.462
 3509TIP3   OH210471   1.001   6.597   3.146
 3509TIP3    H110472   0.944   6.614   3.221
 3509TIP3    H210473   1.088   6.588   3.184
 3510TIP3   OH210474   3.064   4.998   3.316
 3510TIP3    H110475   3.047   4.921   3.371
 3510TIP3    H210476   3.035   5.072   3.368
 3511TIP3   OH210477   4.692   3.476   6.582
 3511TIP3    H110478   4.726   3.564   6.564
 3511TIP3    H210479   4.755   3.438   6.643
 3512TIP3   OH210480   8.096   4.633   3.975
 3512TIP3    H110481   8.114   4.713   4.024
 3512TIP3    H210482   8.002   4.620   3.983
 3513TIP3   OH210483   8.231   6.174   3.781
 3513TIP3    H110484   8.315   6.214   3.758
 3513TIP3    H210485   8.232   6.173   3.877
 3514TIP3   OH210486   8.049   3.038   3.887
 3514TIP3    H110487   8.031   3.130   3.870
 3514TIP3    H210488   7.980   3.010   3.947
 3515TIP3   OH210489   5.454   2.855   5.674
 3515TIP3    H110490   5.482   2.778   5.724
 3515TIP3    H210491   5.359   2.853   5.679
 3516TIP3   OH210492   3.879   6.049   0.297
 3516TIP3    H110493   3.958   5.997   0.283
 3516TIP3    H210494   3.868   6.098   0.216
 3517TIP3   OH210495   5.100   4.896   1.276
 3517TIP3    H110496   5.024   4.941   1.237
 3517TIP3    H210497   5.175   4.934   1.232
 3518TIP3   OH210498   6.040   1.379   5.451
 3518TIP3    H110499   5.999   1.450   5.402
 3518TIP3    H210500   6.132   1.382   5.423
 3519TIP3   OH210501   1.272   0.256   6.193
 3519TIP3    H110502   1.343   0.191   6.196
 3519TIP3    H210503   1.208   0.224   6.257
 3520TIP3   OH210504   2.348   7.677   3.586
 3520TIP3    H110505   2.443   7.679   3.572
 3520TIP3    H210506   2.311   7.685   3.498
 3521TIP3   OH210507   3.820   7.539   1.991
 3521TIP3    H110508   3.768   7.479   1.937
 3521TIP3    H210509   3.843   7.610   1.931
 3522TIP3   OH210510   1.274   0.928   3.860
 3522TIP3    H110511   1.329   0.886   3.795
 3522TIP3    H210512   1.304   0.893   3.944
 3523TIP3   OH210513   3.709   6.752   5.402
 3523TIP3    H110514   3.757   6.673   5.379
 3523TIP3    H210515   3.705   6.802   5.321
 3524TIP3   OH210516   3.223   5.348   5.357
 3524TIP3    H110517   3.269   5.401   5.422
 3524TIP3    H210518   3.131   5.375   5.365
 3525TIP3   OH210519   1.448   1.753   0.649
 3525TIP3    H110520   1.385   1.728   0.581
 3525TIP3    H210521   1.426   1.844   0.669
 3526TIP3   OH210522   3.301   0.570   2.809
 3526TIP3    H110523   3.358   0.646   2.825
 3526TIP3    H210524   3.215   0.599   2.840
 3527TIP3   OH210525   5.809   0.486   2.837
 3527TIP3    H110526   5.792   0.476   2.743
 3527TIP3    H210527   5.792   0.578   2.856
 3528TIP3   OH210528   1.878   2.497   1.969
 3528TIP3    H110529   1.873   2.530   2.059
 3528TIP3    H210530   1.962   2.451   1.966
 3529TIP3   OH210531   3.144   0.452   5.115
 3529TIP3    H110532   3.057   0.475   5.082
 3529TIP3    H210533   3.139   0.357   5.130
 3530TIP3   OH210534   3.306   4.148   4.970
 3530TIP3    H110535   3.384   4.124   5.020
 3530TIP3    H210536   3.284   4.068   4.921
 3531TIP3   OH210537   6.129   0.145   1.565
 3531TIP3    H110538   6.079   0.224   1.581
 3531TIP3    H210539   6.154   0.114   1.652
 3532TIP3   OH210540   5.792   6.361   2.708
 3532TIP3    H110541   5.743   6.326   2.634
 3532TIP3    H210542   5.812   6.451   2.682
 3533TIP3   OH210543   5.949   6.511   2.500
 3533TIP3    H110544   5.904   6.429   2.481
 3533TIP3    H210545   6.034   6.503   2.456
 3534TIP3   OH210546   0.635   2.684   0.182
 3534TIP3    H110547   0.635   2.759   0.241
 3534TIP3    H210548   0.553   2.638   0.204
 3535TIP3   OH210549   1.129   1.706   0.898
 3535TIP3    H110550   1.138   1.615   0.925
 3535TIP3    H210551   1.130   1.703   0.802
 3536TIP3   OH210552   6.016   7.512   6.242
 3536TIP3    H110553   6.047   7.553   6.322
 3536TIP3    H210554   5.998   7.585   6.183
 3537TIP3   OH210555   0.024   3.327   3.011
 3537TIP3    H110556  -0.007   3.253   3.064
 3537TIP3    H210557   0.063   3.387   3.075
 3538TIP3   OH210558   6.469   7.577   3.698
 3538TIP3    H110559   6.473   7.623   3.782
 3538TIP3    H210560   6.508   7.637   3.636
 3539TIP3   OH210561   5.961   6.059   2.367
 3539TIP3    H110562   5.895   6.126   2.384
 3539TIP3    H210563   6.025   6.102   2.310
 3540TIP3   OH210564   2.916   4.956   1.104
 3540TIP3    H110565   2.909   5.050   1.091
 3540TIP3    H210566   2.835   4.920   1.068
 3541TIP3   OH210567   5.700   0.412   4.580
 3541TIP3    H110568   5.752   0.407   4.661
 3541TIP3    H210569   5.688   0.320   4.554
 3542TIP3   OH210570   8.150   2.150   2.330
 3542TIP3    H110571   8.142   2.089   2.257
 3542TIP3    H210572   8.072   2.205   2.325
 3543TIP3   OH210573   2.995   0.670   1.599
 3543TIP3    H110574   2.995   0.760   1.566
 3543TIP3    H210575   3.047   0.674   1.679
 3544TIP3   OH210576   6.199   4.505   3.899
 3544TIP3    H110577   6.292   4.505   3.922
 3544TIP3    H210578   6.192   4.565   3.825
 3545TIP3   OH210579   0.260   3.830   6.614
 3545TIP3    H110580   0.286   3.841   6.523
 3545TIP3    H210581   0.260   3.735   6.627
 3546TIP3   OH210582   3.617   4.321   1.099
 3546TIP3    H110583   3.674   4.248   1.076
 3546TIP3    H210584   3.530   4.282   1.108
 3547TIP3   OH210585   6.223   6.188   3.757
 3547TIP3    H110586   6.192   6.146   3.837
 3547TIP3    H210587   6.152   6.248   3.733
 3548TIP3   OH210588   8.175   2.299   3.666
 3548TIP3    H110589   8.110   2.334   3.605
 3548TIP3    H210590   8.245   2.265   3.611
 3549TIP3   OH210591   6.566   7.126   2.861
 3549TIP3    H110592   6.536   7.204   2.815
 3549TIP3    H210593   6.661   7.136   2.867
 3550TIP3   OH210594   0.441   0.583   1.063
 3550TIP3    H110595   0.493   0.650   1.107
 3550TIP3    H210596   0.439   0.610   0.971
 3551TIP3   OH210597   6.325   0.555   5.547
 3551TIP3    H110598   6.381   0.609   5.602
 3551TIP3    H210599   6.291   0.488   5.606
 3552TIP3   OH210600   4.437   0.646   2.191
 3552TIP3    H110601   4.522   0.683   2.167
 3552TIP3    H210602   4.397   0.621   2.107
 3553TIP3   OH210603   7.658   6.057   1.111
 3553TIP3    H110604   7.620   5.984   1.062
 3553TIP3    H210605   7.751   6.034   1.120
 3554TIP3   OH210606   5.188   6.057   3.840
 3554TIP3    H110607   5.216   6.002   3.914
 3554TIP3    H210608   5.209   6.146   3.867
 3555TIP3   OH210609   7.614   7.606   0.549
 3555TIP3    H110610   7.591   7.601   0.642
 3555TIP3    H210611   7.555   7.544   0.506
 3556TIP3   OH210612   7.841   1.063   3.384
 3556TIP3    H110613   7.802   1.150   3.376
 3556TIP3    H210614   7.849   1.032   3.294
 3557TIP3   OH210615   3.548   4.786   0.427
 3557TIP3    H110616   3.492   4.755   0.356
 3557TIP3    H210617   3.624   4.825   0.383
 3558TIP3   OH210618   1.335   7.711   5.306
 3558TIP3    H110619   1.388   7.655   5.249
 3558TIP3    H210620   1.268   7.652   5.341
 3559TIP3   OH210621   6.287   5.760   5.944
 3559TIP3    H110622   6.353   5.714   5.994
 3559TIP3    H210623   6.300   5.730   5.854
 3560TIP3   OH210624   6.838   7.257   4.345
 3560TIP3    H110625   6.811   7.168   4.321
 3560TIP3    H210626   6.916   7.244   4.400
 3561TIP3   OH210627   7.901   1.093   4.138
 3561TIP3    H110628   7.813   1.130   4.129
 3561TIP3    H210629   7.929   1.075   4.049
 3562TIP3   OH210630   0.358   2.963   6.692
 3562TIP3    H110631   0.263   2.973   6.687
 3562TIP3    H210632   0.372   2.914   6.773
 3563TIP3   OH210633   0.840   6.004   2.054
 3563TIP3    H110634   0.917   6.031   2.105
 3563TIP3    H210635   0.872   6.000   1.964
 3564TIP3   OH210636   4.852   4.476   2.113
 3564TIP3    H110637   4.909   4.493   2.039
 3564TIP3    H210638   4.809   4.393   2.092
 3565TIP3   OH210639   2.341   5.123   4.140
 3565TIP3    H110640   2.425   5.103   4.100
 3565TIP3    H210641   2.277   5.107   4.070
 3566TIP3   OH210642   6.216   4.624   4.526
 3566TIP3    H110643   6.173   4.579   4.453
 3566TIP3    H210644   6.309   4.616   4.507
 3567TIP3   OH210645   6.894   6.852   5.792
 3567TIP3    H110646   6.926   6.776   5.744
 3567TIP3    H210647   6.811   6.873   5.751
 3568TIP3   OH210648   0.381   1.689   2.637
 3568TIP3    H110649   0.311   1.648   2.688
 3568TIP3    H210650   0.336   1.740   2.570
 3569TIP3   OH210651   3.641   5.895   4.276
 3569TIP3    H110652   3.706   5.962   4.258
 3569TIP3    H210653   3.559   5.931   4.242
 3570TIP3   OH210654   7.071   3.462   4.037
 3570TIP3    H110655   6.988   3.428   4.005
 3570TIP3    H210656   7.120   3.384   4.064
 3571TIP3   OH210657   0.194   0.474   4.196
 3571TIP3    H110658   0.122   0.530   4.169
 3571TIP3    H210659   0.237   0.448   4.114
 3572TIP3   OH210660   2.775   6.035   0.792
 3572TIP3    H110661   2.701   6.010   0.736
 3572TIP3    H210662   2.786   6.129   0.776
 3573TIP3   OH210663   1.587   6.726   5.210
 3573TIP3    H110664   1.633   6.810   5.203
 3573TIP3    H210665   1.514   6.733   5.148
 3574TIP3   OH210666   3.263   3.755   4.788
 3574TIP3    H110667   3.255   3.672   4.835
 3574TIP3    H210668   3.259   3.732   4.696
 3575TIP3   OH210669   4.052   1.285   6.363
 3575TIP3    H110670   4.099   1.358   6.401
 3575TIP3    H210671   4.078   1.209   6.416
 3576TIP3   OH210672   5.655   0.484   5.358
 3576TIP3    H110673   5.697   0.554   5.307
 3576TIP3    H210674   5.726   0.446   5.409
 3577TIP3   OH210675   6.588   4.216   6.402
 3577TIP3    H110676   6.549   4.163   6.332
 3577TIP3    H210677   6.682   4.200   6.396
 3578TIP3   OH210678   2.121   7.570   2.576
 3578TIP3    H110679   2.144   7.491   2.527
 3578TIP3    H210680   2.201   7.591   2.625
 3579TIP3   OH210681   6.286   7.252   3.764
 3579TIP3    H110682   6.346   7.265   3.837
 3579TIP3    H210683   6.246   7.167   3.780
 3580TIP3   OH210684   0.384   5.819   6.693
 3580TIP3    H110685   0.412   5.872   6.767
 3580TIP3    H210686   0.462   5.814   6.637
 3581TIP3   OH210687   6.475   2.358   5.277
 3581TIP3    H110688   6.529   2.396   5.207
 3581TIP3    H210689   6.499   2.265   5.278
 3582TIP3   OH210690   0.065   2.870   2.198
 3582TIP3    H110691   0.118   2.838   2.271
 3582TIP3    H210692   0.097   2.822   2.122
 3583TIP3   OH210693   4.718   7.634   3.036
 3583TIP3    H110694   4.650   7.691   3.001
 3583TIP3    H210695   4.734   7.668   3.124
 3584TIP3   OH210696   4.373   6.200   3.580
 3584TIP3    H110697   4.298   6.182   3.636
 3584TIP3    H210698   4.389   6.118   3.533
 3585TIP3   OH210699   6.604   2.047   4.873
 3585TIP3    H110700   6.682   2.089   4.837
 3585TIP3    H210701   6.573   2.107   4.940
 3586TIP3   OH210702   2.845   5.218   3.284
 3586TIP3    H110703   2.871   5.307   3.261
 3586TIP3    H210704   2.851   5.169   3.203
 3587TIP3   OH210705   1.768   4.528   3.812
 3587TIP3    H110706   1.679   4.551   3.787
 3587TIP3    H210707   1.824   4.571   3.747
 3588TIP3   OH210708   2.555   4.783   6.406
 3588TIP3    H110709   2.609   4.723   6.457
 3588TIP3    H210710   2.533   4.734   6.327
 3589TIP3   OH210711   5.601   6.956   3.105
 3589TIP3    H110712   5.527   6.933   3.160
 3589TIP3    H210713   5.599   7.052   3.100
 3590TIP3   OH210714   1.497   4.955   3.056
 3590TIP3    H110715   1.515   5.047   3.078
 3590TIP3    H210716   1.425   4.960   2.993
 3591TIP3   OH210717   6.983   6.435   3.798
 3591TIP3    H110718   7.040   6.509   3.777
 3591TIP3    H210719   6.916   6.472   3.855
 3592TIP3   OH210720   1.877   3.884   4.641
 3592TIP3    H110721   1.823   3.806   4.648
 3592TIP3    H210722   1.931   3.884   4.720
 3593TIP3   OH210723   6.896   4.186   3.379
 3593TIP3    H110724   6.873   4.261   3.433
 3593TIP3    H210725   6.897   4.112   3.440
 3594TIP3   OH210726   5.109   6.721   5.031
 3594TIP3    H110727   5.068   6.634   5.034
 3594TIP3    H210728   5.070   6.768   5.105
 3595TIP3   OH210729   5.557   0.366   2.152
 3595TIP3    H110730   5.563   0.273   2.174
 3595TIP3    H210731   5.647   0.398   2.159
 3596TIP3   OH210732   0.353   6.233   0.442
 3596TIP3    H110733   0.290   6.273   0.380
 3596TIP3    H210734   0.430   6.290   0.437
 3597TIP3   OH210735   5.526   4.239   1.045
 3597TIP3    H110736   5.612   4.257   1.082
 3597TIP3    H210737   5.464   4.266   1.113
 3598TIP3   OH210738   5.324   4.983   5.330
 3598TIP3    H110739   5.348   5.067   5.370
 3598TIP3    H210740   5.382   4.975   5.254
 3599TIP3   OH210741   3.230   0.112   2.136
 3599TIP3    H110742   3.147   0.089   2.178
 3599TIP3    H210743   3.234   0.056   2.058
 3600TIP3   OH210744   8.067   0.766   6.272
 3600TIP3    H110745   7.997   0.711   6.307
 3600TIP3    H210746   8.126   0.779   6.346
 3601TIP3   OH210747   7.994   0.349   0.026
 3601TIP3    H110748   7.961   0.344  -0.064
 3601TIP3    H210749   8.076   0.397   0.018
 3602TIP3   OH210750   4.532   7.096   5.050
 3602TIP3    H110751   4.610   7.040   5.058
 3602TIP3    H210752   4.550   7.149   4.972
 3603TIP3   OH210753   5.499   2.787   5.281
 3603TIP3    H110754   5.570   2.837   5.322
 3603TIP3    H210755   5.427   2.850   5.272
 3604TIP3   OH210756   0.530   5.194   6.268
 3604TIP3    H110757   0.458   5.130   6.272
 3604TIP3    H210758   0.587   5.170   6.341
 3605TIP3   OH210759   5.929   5.773   4.724
 3605TIP3    H110760   5.834   5.778   4.719
 3605TIP3    H210761   5.959   5.854   4.682
 3606TIP3   OH210762   7.144   4.833   4.774
 3606TIP3    H110763   7.063   4.844   4.824
 3606TIP3    H210764   7.123   4.766   4.709
 3607TIP3   OH210765   1.842   2.765   2.724
 3607TIP3    H110766   1.887   2.754   2.808
 3607TIP3    H210767   1.879   2.845   2.687
 3608TIP3   OH210768   4.490   4.972   6.125
 3608TIP3    H110769   4.581   4.946   6.128
 3608TIP3    H210770   4.492   5.068   6.134
 3609TIP3   OH210771   7.517   6.808   0.759
 3609TIP3    H110772   7.459   6.769   0.693
 3609TIP3    H210773   7.518   6.745   0.831
 3610TIP3   OH210774   7.718   0.715   2.696
 3610TIP3    H110775   7.795   0.666   2.670
 3610TIP3    H210776   7.674   0.738   2.614
 3611TIP3   OH210777   0.712   3.625   5.561
 3611TIP3    H110778   0.740   3.663   5.644
 3611TIP3    H210779   0.791   3.626   5.507
 3612TIP3   OH210780   4.690   2.363   5.150
 3612TIP3    H110781   4.709   2.431   5.215
 3612TIP3    H210782   4.594   2.360   5.146
 3613TIP3   OH210783   3.228   4.328   3.845
 3613TIP3    H110784   3.134   4.327   3.865
 3613TIP3    H210785   3.265   4.393   3.905
 3614TIP3   OH210786   3.132   6.701   3.245
 3614TIP3    H110787   3.220   6.689   3.210
 3614TIP3    H210788   3.075   6.648   3.189
 3615TIP3   OH210789   4.724   2.014   0.055
 3615TIP3    H110790   4.746   1.995  -0.037
 3615TIP3    H210791   4.755   2.103   0.070
 3616TIP3   OH210792   0.811   2.900   5.454
 3616TIP3    H110793   0.877   2.945   5.507
 3616TIP3    H210794   0.735   2.892   5.511
 3617TIP3   OH210795   1.031   3.861   1.592
 3617TIP3    H110796   0.951   3.821   1.625
 3617TIP3    H210797   1.100   3.828   1.650
 3618TIP3   OH210798   2.923   2.425   5.710
 3618TIP3    H110799   2.918   2.489   5.639
 3618TIP3    H210800   2.999   2.451   5.762
 3619TIP3   OH210801   0.369   1.570   6.444
 3619TIP3    H110802   0.428   1.582   6.369
 3619TIP3    H210803   0.324   1.488   6.426
 3620TIP3   OH210804   6.131   5.037   6.454
 3620TIP3    H110805   6.087   4.957   6.425
 3620TIP3    H210806   6.129   5.094   6.377
 3621TIP3   OH210807   3.388   7.444   4.753
 3621TIP3    H110808   3.310   7.412   4.707
 3621TIP3    H210809   3.354   7.493   4.828
 3622TIP3   OH210810   6.457   2.909   6.455
 3622TIP3    H110811   6.548   2.937   6.460
 3622TIP3    H210812   6.428   2.902   6.546
 3623TIP3   OH210813   1.538   3.109   1.226
 3623TIP3    H110814   1.603   3.157   1.173
 3623TIP3    H210815   1.588   3.077   1.301
 3624TIP3   OH210816   4.835   3.094   5.532
 3624TIP3    H110817   4.876   3.181   5.528
 3624TIP3    H210818   4.868   3.055   5.613
 3625TIP3   OH210819   2.331   5.730   4.335
 3625TIP3    H110820   2.336   5.825   4.320
 3625TIP3    H210821   2.282   5.696   4.260
 3626TIP3   OH210822   7.786   7.166   4.578
 3626TIP3    H110823   7.705   7.168   4.528
 3626TIP3    H210824   7.767   7.215   4.658
 3627TIP3   OH210825   2.926   3.570   0.823
 3627TIP3    H110826   3.000   3.569   0.884
 3627TIP3    H210827   2.862   3.627   0.865
 3628TIP3   OH210828   4.393   2.621   1.183
 3628TIP3    H110829   4.452   2.696   1.176
 3628TIP3    H210830   4.433   2.565   1.249
 3629TIP3   OH210831   2.006   6.807   2.655
 3629TIP3    H110832   1.982   6.814   2.748
 3629TIP3    H210833   1.922   6.805   2.609
 3630TIP3   OH210834   0.369   5.243   5.870
 3630TIP3    H110835   0.314   5.227   5.793
 3630TIP3    H210836   0.311   5.290   5.931
 3631TIP3   OH210837   7.219   6.439   3.331
 3631TIP3    H110838   7.242   6.462   3.421
 3631TIP3    H210839   7.302   6.440   3.283
 3632TIP3   OH210840   5.736   6.259   1.153
 3632TIP3    H110841   5.791   6.235   1.227
 3632TIP3    H210842   5.757   6.194   1.085
 3633TIP3   OH210843   4.623   2.902   3.827
 3633TIP3    H110844   4.547   2.847   3.847
 3633TIP3    H210845   4.599   2.988   3.860
 3634TIP3   OH210846   5.537   7.784   2.072
 3634TIP3    H110847   5.580   7.868   2.055
 3634TIP3    H210848   5.501   7.758   1.987
 3635TIP3   OH210849   0.950   0.161   6.660
 3635TIP3    H110850   1.013   0.125   6.597
 3635TIP3    H210851   0.919   0.085   6.709
 3636TIP3   OH210852   2.671   1.460   4.994
 3636TIP3    H110853   2.638   1.528   4.936
 3636TIP3    H210854   2.644   1.377   4.953
 3637TIP3   OH210855   3.020   6.176   0.471
 3637TIP3    H110856   3.092   6.172   0.408
 3637TIP3    H210857   2.954   6.116   0.436
 3638TIP3   OH210858   0.376   5.952   5.654
 3638TIP3    H110859   0.308   5.893   5.689
 3638TIP3    H210860   0.327   6.029   5.625
 3639TIP3   OH210861   3.248   5.363   0.771
 3639TIP3    H110862   3.243   5.271   0.744
 3639TIP3    H210863   3.197   5.410   0.706
 3640TIP3   OH210864   8.209   4.099   4.388
 3640TIP3    H110865   8.245   4.037   4.326
 3640TIP3    H210866   8.120   4.067   4.406
 3641TIP3   OH210867   4.819   6.021   4.387
 3641TIP3    H110868   4.777   6.019   4.301
 3641TIP3    H210869   4.830   5.928   4.410
 3642TIP3   OH210870   3.292   6.024   3.359
 3642TIP3    H110871   3.338   6.018   3.443
 3642TIP3    H210872   3.211   6.070   3.378
 3643TIP3   OH210873   5.903   3.413   0.097
 3643TIP3    H110874   5.815   3.401   0.059
 3643TIP3    H210875   5.954   3.339   0.063
 3644TIP3   OH210876   1.655   1.223   6.576
 3644TIP3    H110877   1.660   1.227   6.480
 3644TIP3    H210878   1.606   1.302   6.600
 3645TIP3   OH210879   5.121   5.592   3.897
 3645TIP3    H110880   5.166   5.672   3.926
 3645TIP3    H210881   5.116   5.538   3.976
 3646TIP3   OH210882   2.275   0.351   6.018
 3646TIP3    H110883   2.241   0.332   6.106
 3646TIP3    H210884   2.361   0.389   6.034
 3647TIP3   OH210885   6.223   5.172   1.484
 3647TIP3    H110886   6.274   5.240   1.440
 3647TIP3    H210887   6.289   5.115   1.524
 3648TIP3   OH210888   3.106   7.588   6.017
 3648TIP3    H110889   3.016   7.576   6.049
 3648TIP3    H210890   3.153   7.628   6.090
 3649TIP3   OH210891   8.225   3.371   6.317
 3649TIP3    H110892   8.163   3.381   6.389
 3649TIP3    H210893   8.268   3.456   6.311
 3650TIP3   OH210894   1.983   2.259   2.760
 3650TIP3    H110895   1.945   2.236   2.845
 3650TIP3    H210896   1.925   2.216   2.696
 3651TIP3   OH210897   4.244   7.507   0.885
 3651TIP3    H110898   4.249   7.415   0.908
 3651TIP3    H210899   4.320   7.522   0.828
 3652TIP3   OH210900   4.192   6.080   3.285
 3652TIP3    H110901   4.190   6.176   3.286
 3652TIP3    H210902   4.115   6.053   3.334
 3653TIP3   OH210903   7.410   5.057   3.039
 3653TIP3    H110904   7.317   5.060   3.016
 3653TIP3    H210905   7.455   5.095   2.964
 3654TIP3   OH210906   6.315   6.903   5.079
 3654TIP3    H110907   6.290   6.990   5.111
 3654TIP3    H210908   6.239   6.848   5.096
 3655TIP3   OH210909   7.610   7.388   2.077
 3655TIP3    H110910   7.658   7.443   2.139
 3655TIP3    H210911   7.619   7.299   2.112
 3656TIP3   OH210912   4.783   2.741   0.904
 3656TIP3    H110913   4.780   2.794   0.824
 3656TIP3    H210914   4.709   2.771   0.956
 3657TIP3   OH210915   2.952   2.800   3.385
 3657TIP3    H110916   2.872   2.852   3.377
 3657TIP3    H210917   2.923   2.709   3.385
 3658TIP3   OH210918   7.810   2.122   3.780
 3658TIP3    H110919   7.778   2.205   3.744
 3658TIP3    H210920   7.731   2.069   3.792
 3659TIP3   OH210921   2.114   6.056   0.540
 3659TIP3    H110922   2.068   6.025   0.462
 3659TIP3    H210923   2.146   6.143   0.517
 3660TIP3   OH210924   1.211   5.457   4.827
 3660TIP3    H110925   1.248   5.372   4.805
 3660TIP3    H210926   1.286   5.512   4.848
 3661TIP3   OH210927   2.668   4.152   6.070
 3661TIP3    H110928   2.729   4.118   6.135
 3661TIP3    H210929   2.679   4.095   5.994
 3662TIP3   OH210930   5.673   0.862   0.873
 3662TIP3    H110931   5.662   0.881   0.780
 3662TIP3    H210932   5.625   0.781   0.887
 3663TIP3   OH210933   2.040   4.299   5.177
 3663TIP3    H110934   2.104   4.229   5.188
 3663TIP3    H210935   2.008   4.316   5.266
 3664TIP3   OH210936   6.737   0.127   2.224
 3664TIP3    H110937   6.790   0.089   2.155
 3664TIP3    H210938   6.647   0.099   2.205
 3665TIP3   OH210939   5.967   0.087   5.392
 3665TIP3    H110940   6.049   0.046   5.419
 3665TIP3    H210941   5.920   0.019   5.343
 3666TIP3   OH210942   3.708   2.543   0.378
 3666TIP3    H110943   3.680   2.549   0.286
 3666TIP3    H210944   3.641   2.589   0.427
 3667TIP3   OH210945   1.135   3.028   2.628
 3667TIP3    H110946   1.090   3.017   2.711
 3667TIP3    H210947   1.171   2.942   2.608
 3668TIP3   OH210948   7.660   7.515   1.041
 3668TIP3    H110949   7.636   7.424   1.060
 3668TIP3    H210950   7.748   7.525   1.079
 3669TIP3   OH210951   6.652   6.529   4.940
 3669TIP3    H110952   6.731   6.548   4.891
 3669TIP3    H210953   6.673   6.554   5.030
 3670TIP3   OH210954   5.559   6.028   3.477
 3670TIP3    H110955   5.550   6.026   3.382
 3670TIP3    H210956   5.564   5.936   3.502
 3671TIP3   OH210957   7.418   1.475   0.709
 3671TIP3    H110958   7.348   1.421   0.745
 3671TIP3    H210959   7.423   1.450   0.617
 3672TIP3   OH210960   1.525   0.771   0.393
 3672TIP3    H110961   1.565   0.856   0.413
 3672TIP3    H210962   1.434   0.792   0.372
 3673TIP3   OH210963   3.035   6.078   5.395
 3673TIP3    H110964   2.998   6.128   5.323
 3673TIP3    H210965   2.960   6.035   5.436
 3674TIP3   OH210966   4.466   4.685   5.474
 3674TIP3    H110967   4.406   4.619   5.440
 3674TIP3    H210968   4.533   4.635   5.521
 3675TIP3   OH210969   2.215   1.098   5.615
 3675TIP3    H110970   2.265   1.019   5.633
 3675TIP3    H210971   2.174   1.120   5.698
 3676TIP3   OH210972   6.132   0.540   0.852
 3676TIP3    H110973   6.091   0.523   0.767
 3676TIP3    H210974   6.061   0.578   0.905
 3677TIP3   OH210975   6.266   0.826   6.741
 3677TIP3    H110976   6.197   0.851   6.802
 3677TIP3    H210977   6.321   0.904   6.735
 3678TIP3   OH210978   3.813   0.357   5.986
 3678TIP3    H110979   3.745   0.308   6.033
 3678TIP3    H210980   3.894   0.310   6.004
 3679TIP3   OH210981   6.300   5.862   2.343
 3679TIP3    H110982   6.379   5.886   2.293
 3679TIP3    H210983   6.285   5.936   2.401
 3680TIP3   OH210984   0.434   1.359   5.068
 3680TIP3    H110985   0.419   1.416   4.992
 3680TIP3    H210986   0.348   1.319   5.084
 3681TIP3   OH210987   0.977   1.446   4.401
 3681TIP3    H110988   0.979   1.542   4.406
 3681TIP3    H210989   0.890   1.422   4.432
 3682TIP3   OH210990   6.552   3.858   4.043
 3682TIP3    H110991   6.458   3.845   4.031
 3682TIP3    H210992   6.559   3.918   4.117
 3683TIP3   OH210993   5.777   2.135   5.339
 3683TIP3    H110994   5.774   2.152   5.433
 3683TIP3    H210995   5.870   2.141   5.317
 3684TIP3   OH210996   5.505   5.463   5.306
 3684TIP3    H110997   5.435   5.461   5.241
 3684TIP3    H210998   5.486   5.539   5.360
 3685TIP3   OH210999   2.919   6.997   3.131
 3685TIP3    H111000   2.937   6.971   3.221
 3685TIP3    H211001   2.934   7.092   3.130
 3686TIP3   OH211002   6.711   1.561   0.733
 3686TIP3    H111003   6.660   1.607   0.800
 3686TIP3    H211004   6.802   1.570   0.762
 3687TIP3   OH211005   1.782   3.160   1.653
 3687TIP3    H111006   1.813   3.098   1.719
 3687TIP3    H211007   1.761   3.240   1.703
 3688TIP3   OH211008   3.416   4.782   1.632
 3688TIP3    H111009   3.507   4.754   1.645
 3688TIP3    H211010   3.399   4.842   1.705
 3689TIP3   OH211011   4.834   5.477   5.539
 3689TIP3    H111012   4.740   5.467   5.554
 3689TIP3    H211013   4.854   5.564   5.574
 3690TIP3   OH211014   3.885   6.697   5.706
 3690TIP3    H111015   3.814   6.663   5.762
 3690TIP3    H211016   3.901   6.628   5.642
 3691TIP3   OH211017   3.367   0.837   2.334
 3691TIP3    H111018   3.279   0.825   2.297
 3691TIP3    H211019   3.354   0.833   2.428
 3692TIP3   OH211020   3.955   0.298   4.500
 3692TIP3    H111021   4.033   0.325   4.549
 3692TIP3    H211022   3.917   0.227   4.552
 3693TIP3   OH211023   0.579   6.025   3.257
 3693TIP3    H111024   0.581   6.052   3.166
 3693TIP3    H211025   0.489   5.994   3.271
 3694TIP3   OH211026   8.091   5.313   4.633
 3694TIP3    H111027   8.163   5.305   4.696
 3694TIP3    H211028   8.068   5.406   4.635
 3695TIP3   OH211029   5.963   2.688   3.190
 3695TIP3    H111030   5.983   2.700   3.097
 3695TIP3    H211031   5.920   2.602   3.194
 3696TIP3   OH211032   4.397   2.102   6.105
 3696TIP3    H111033   4.486   2.123   6.134
 3696TIP3    H211034   4.409   2.032   6.041
 3697TIP3   OH211035   6.251   1.422   6.434
 3697TIP3    H111036   6.345   1.434   6.451
 3697TIP3    H211037   6.219   1.375   6.511
 3698TIP3   OH211038   4.216   7.670   3.732
 3698TIP3    H111039   4.284   7.733   3.756
 3698TIP3    H211040   4.196   7.690   3.640
 3699TIP3   OH211041   7.905   4.668   2.250
 3699TIP3    H111042   7.892   4.593   2.308
 3699TIP3    H211043   7.979   4.643   2.195
 3700TIP3   OH211044   1.746   0.715   6.256
 3700TIP3    H111045   1.771   0.752   6.171
 3700TIP3    H211046   1.762   0.785   6.319
 3701TIP3   OH211047   5.111   1.394   1.862
 3701TIP3    H111048   5.036   1.452   1.863
 3701TIP3    H211049   5.180   1.442   1.908
 3702TIP3   OH211050   7.689  -0.001   2.788
 3702TIP3    H111051   7.623   0.022   2.722
 3702TIP3    H211052   7.656   0.038   2.869
 3703TIP3   OH211053   7.653   1.589   4.465
 3703TIP3    H111054   7.619   1.624   4.547
 3703TIP3    H211055   7.747   1.606   4.469
 3704TIP3   OH211056   2.536   1.362   1.359
 3704TIP3    H111057   2.461   1.390   1.308
 3704TIP3    H211058   2.498   1.321   1.437
 3705TIP3   OH211059   3.576   2.473   0.146
 3705TIP3    H111060   3.566   2.406   0.078
 3705TIP3    H211061   3.539   2.552   0.107
 3706TIP3   OH211062   7.511   0.013   6.454
 3706TIP3    H111063   7.560   0.048   6.529
 3706TIP3    H211064   7.492  -0.077   6.477
 3707TIP3   OH211065   1.563   6.924   0.092
 3707TIP3    H111066   1.625   6.964   0.032
 3707TIP3    H211067   1.498   6.882   0.034
 3708TIP3   OH211068   1.297   3.061   6.393
 3708TIP3    H111069   1.351   3.007   6.335
 3708TIP3    H211070   1.269   3.001   6.463
 3709TIP3   OH211071   4.870   7.409  -0.038
 3709TIP3    H111072   4.914   7.463   0.028
 3709TIP3    H211073   4.782   7.446  -0.045
 3710TIP3   OH211074   3.221   3.308   3.879
 3710TIP3    H111075   3.205   3.214   3.864
 3710TIP3    H211076   3.257   3.312   3.968
 3711TIP3   OH211077   8.260   0.406   0.025
 3711TIP3    H111078   8.337   0.352   0.043
 3711TIP3    H211079   8.271   0.483   0.081
 3712TIP3   OH211080   6.479   4.683   6.059
 3712TIP3    H111081   6.555   4.739   6.044
 3712TIP3    H211082   6.416   4.709   5.992
 3713TIP3   OH211083   4.791   0.727   5.074
 3713TIP3    H111084   4.698   0.743   5.089
 3713TIP3    H211085   4.795   0.641   5.033
 3714TIP3   OH211086   2.816   4.354   0.392
 3714TIP3    H111087   2.872   4.297   0.445
 3714TIP3    H211088   2.877   4.406   0.340
 3715TIP3   OH211089   3.536   7.580   2.379
 3715TIP3    H111090   3.485   7.659   2.361
 3715TIP3    H211091   3.593   7.571   2.302
 3716TIP3   OH211092   4.012   3.707   5.368
 3716TIP3    H111093   3.991   3.694   5.461
 3716TIP3    H211094   4.079   3.774   5.368
 3717TIP3   OH211095   3.642   0.751   2.334
 3717TIP3    H111096   3.674   0.758   2.244
 3717TIP3    H211097   3.552   0.784   2.330
 3718TIP3   OH211098   7.269   2.578   4.492
 3718TIP3    H111099   7.187   2.560   4.446
 3718TIP3    H211100   7.287   2.670   4.472
 3719TIP3   OH211101   6.509   2.829   4.978
 3719TIP3    H111102   6.491   2.895   4.911
 3719TIP3    H211103   6.451   2.852   5.051
 3720TIP3   OH211104   7.621   5.628   2.808
 3720TIP3    H111105   7.680   5.567   2.853
 3720TIP3    H211106   7.671   5.710   2.803
 3721TIP3   OH211107   4.521   3.119   2.861
 3721TIP3    H111108   4.526   3.025   2.843
 3721TIP3    H211109   4.486   3.126   2.950
 3722TIP3   OH211110   5.006   4.582   2.543
 3722TIP3    H111111   4.958   4.538   2.473
 3722TIP3    H211112   4.968   4.546   2.623
 3723TIP3   OH211113   0.434   3.047   1.271
 3723TIP3    H111114   0.435   3.141   1.283
 3723TIP3    H211115   0.506   3.014   1.324
 3724TIP3   OH211116   5.287   6.793   5.973
 3724TIP3    H111117   5.331   6.719   5.932
 3724TIP3    H211118   5.223   6.822   5.908
 3725TIP3   OH211119   6.929   3.681   4.122
 3725TIP3    H111120   7.007   3.628   4.106
 3725TIP3    H211121   6.881   3.678   4.039
 3726TIP3   OH211122   1.006   7.295   2.436
 3726TIP3    H111123   0.984   7.262   2.523
 3726TIP3    H211124   1.077   7.238   2.405
 3727TIP3   OH211125   5.972   5.519   6.083
 3727TIP3    H111126   6.006   5.434   6.111
 3727TIP3    H211127   5.942   5.561   6.164
 3728TIP3   OH211128   3.681   5.899   3.412
 3728TIP3    H111129   3.611   5.853   3.457
 3728TIP3    H211130   3.643   5.925   3.328
 3729TIP3   OH211131   1.644   2.101   4.996
 3729TIP3    H111132   1.699   2.024   4.986
 3729TIP3    H211133   1.608   2.094   5.084
 3730TIP3   OH211134   6.182   6.381   0.775
 3730TIP3    H111135   6.201   6.373   0.868
 3730TIP3    H211136   6.088   6.398   0.770
 3731TIP3   OH211137   6.731   1.166   3.314
 3731TIP3    H111138   6.658   1.124   3.359
 3731TIP3    H211139   6.804   1.104   3.324
 3732TIP3   OH211140   5.065   2.599   0.742
 3732TIP3    H111141   5.065   2.677   0.687
 3732TIP3    H211142   5.127   2.539   0.699
 3733TIP3   OH211143   5.426   2.125   3.250
 3733TIP3    H111144   5.432   2.077   3.332
 3733TIP3    H211145   5.364   2.076   3.197
 3734TIP3   OH211146   0.243   4.879   4.717
 3734TIP3    H111147   0.285   4.954   4.759
 3734TIP3    H211148   0.316   4.831   4.676
 3735TIP3   OH211149   6.505   2.437   4.075
 3735TIP3    H111150   6.419   2.452   4.035
 3735TIP3    H211151   6.567   2.481   4.017
 3736TIP3   OH211152   5.460   0.631   5.161
 3736TIP3    H111153   5.519   0.650   5.088
 3736TIP3    H211154   5.469   0.537   5.176
 3737TIP3   OH211155   8.290   3.155   4.799
 3737TIP3    H111156   8.201   3.144   4.767
 3737TIP3    H211157   8.280   3.179   4.891
 3738TIP3   OH211158   1.010   1.334   6.142
 3738TIP3    H111159   0.931   1.387   6.128
 3738TIP3    H211160   1.072   1.366   6.077
 3739TIP3   OH211161   1.536   1.170   2.595
 3739TIP3    H111162   1.529   1.209   2.683
 3739TIP3    H211163   1.601   1.101   2.605
 3740TIP3   OH211164   7.082   5.469   1.745
 3740TIP3    H111165   7.168   5.432   1.768
 3740TIP3    H211166   7.027   5.450   1.820
 3741TIP3   OH211167   1.181   2.323   5.226
 3741TIP3    H111168   1.185   2.350   5.318
 3741TIP3    H211169   1.088   2.323   5.205
 3742TIP3   OH211170   0.630   0.738   6.427
 3742TIP3    H111171   0.632   0.698   6.513
 3742TIP3    H211172   0.721   0.734   6.397
 3743TIP3   OH211173   4.431   0.628   1.052
 3743TIP3    H111174   4.347   0.672   1.038
 3743TIP3    H211175   4.438   0.618   1.147
 3744TIP3   OH211176   4.702   7.214   1.134
 3744TIP3    H111177   4.765   7.276   1.098
 3744TIP3    H211178   4.633   7.210   1.068
 3745TIP3   OH211179   4.560   5.868   1.732
 3745TIP3    H111180   4.588   5.956   1.706
 3745TIP3    H211181   4.619   5.809   1.686
 3746TIP3   OH211182   7.426   2.327   4.518
 3746TIP3    H111183   7.374   2.406   4.532
 3746TIP3    H211184   7.467   2.339   4.433
 3747TIP3   OH211185   1.959   7.793   5.827
 3747TIP3    H111186   1.961   7.744   5.909
 3747TIP3    H211187   1.998   7.733   5.763
 3748TIP3   OH211188   7.985   1.201   2.423
 3748TIP3    H111189   8.052   1.213   2.490
 3748TIP3    H211190   7.962   1.109   2.428
 3749TIP3   OH211191   2.694   4.092   3.227
 3749TIP3    H111192   2.658   4.043   3.301
 3749TIP3    H211193   2.788   4.076   3.231
 3750TIP3   OH211194   8.078   6.823   4.573
 3750TIP3    H111195   8.167   6.857   4.558
 3750TIP3    H211196   8.021   6.885   4.529
 3751TIP3   OH211197   5.829   2.146   4.654
 3751TIP3    H111198   5.806   2.238   4.646
 3751TIP3    H211199   5.925   2.145   4.662
 3752TIP3   OH211200   7.883   6.910   0.214
 3752TIP3    H111201   7.866   6.982   0.153
 3752TIP3    H211202   7.835   6.836   0.177
 3753TIP3   OH211203   4.020   4.564   6.711
 3753TIP3    H111204   3.982   4.544   6.796
 3753TIP3    H211205   4.000   4.656   6.697
 3754TIP3   OH211206   4.926   7.568   0.792
 3754TIP3    H111207   4.994   7.568   0.724
 3754TIP3    H211208   4.921   7.660   0.820
 3755TIP3   OH211209   6.275   0.625   0.043
 3755TIP3    H111210   6.344   0.690   0.058
 3755TIP3    H211211   6.259   0.628  -0.051
 3756TIP3   OH211212   5.954   1.769   0.314
 3756TIP3    H111213   5.938   1.843   0.372
 3756TIP3    H211214   6.041   1.736   0.340
 3757TIP3   OH211215   6.020   0.505   4.899
 3757TIP3    H111216   5.969   0.445   4.844
 3757TIP3    H211217   5.985   0.493   4.987
 3758TIP3   OH211218   4.407   5.942   3.424
 3758TIP3    H111219   4.444   5.882   3.359
 3758TIP3    H211220   4.344   5.995   3.374
 3759TIP3   OH211221   5.866   2.691   4.249
 3759TIP3    H111222   5.912   2.775   4.247
 3759TIP3    H211223   5.904   2.641   4.177
 3760TIP3   OH211224   0.115   7.681   2.469
 3760TIP3    H111225   0.209   7.689   2.479
 3760TIP3    H211226   0.078   7.748   2.527
 3761TIP3   OH211227   3.241   0.237   3.796
 3761TIP3    H111228   3.304   0.170   3.825
 3761TIP3    H211229   3.160   0.188   3.781
 3762TIP3   OH211230   5.313   0.854   2.570
 3762TIP3    H111231   5.343   0.765   2.590
 3762TIP3    H211232   5.248   0.842   2.500
 3763TIP3   OH211233   0.878   3.782   3.826
 3763TIP3    H111234   0.868   3.772   3.921
 3763TIP3    H211235   0.933   3.708   3.800
 3764TIP3   OH211236   0.888   0.485   4.586
 3764TIP3    H111237   0.797   0.463   4.569
 3764TIP3    H211238   0.899   0.574   4.554
 3765TIP3   OH211239   4.776   3.833   1.699
 3765TIP3    H111240   4.808   3.853   1.787
 3765TIP3    H211241   4.752   3.918   1.662
 3766TIP3   OH211242   1.905   7.688   2.290
 3766TIP3    H111243   1.916   7.713   2.381
 3766TIP3    H211244   1.865   7.601   2.293
 3767TIP3   OH211245   8.156   0.823   4.215
 3767TIP3    H111246   8.095   0.750   4.222
 3767TIP3    H211247   8.131   0.882   4.285
 3768TIP3   OH211248   1.287   1.517   3.679
 3768TIP3    H111249   1.332   1.447   3.726
 3768TIP3    H211250   1.271   1.584   3.746
 3769TIP3   OH211251   4.629   6.762   3.373
 3769TIP3    H111252   4.567   6.834   3.376
 3769TIP3    H211253   4.698   6.788   3.435
 3770TIP3   OH211254   0.047   0.403   0.919
 3770TIP3    H111255   0.085   0.320   0.892
 3770TIP3    H211256  -0.019   0.380   0.984
 3771TIP3   OH211257   5.966   4.682   0.794
 3771TIP3    H111258   5.884   4.692   0.841
 3771TIP3    H211259   6.024   4.748   0.832
 3772TIP3   OH211260   5.621   7.744   2.816
 3772TIP3    H111261   5.694   7.685   2.798
 3772TIP3    H211262   5.579   7.756   2.731
 3773TIP3   OH211263   8.066   5.360   1.993
 3773TIP3    H111264   8.096   5.326   2.077
 3773TIP3    H211265   8.146   5.370   1.941
 3774TIP3   OH211266   5.772   6.719   6.549
 3774TIP3    H111267   5.754   6.777   6.622
 3774TIP3    H211268   5.692   6.723   6.495
 3775TIP3   OH211269   2.085   6.691   6.625
 3775TIP3    H111270   2.002   6.734   6.647
 3775TIP3    H211271   2.058   6.605   6.592
 3776TIP3   OH211272   4.810   0.931   6.523
 3776TIP3    H111273   4.716   0.920   6.537
 3776TIP3    H211274   4.818   0.937   6.428
 3777TIP3   OH211275   2.693   4.786   5.765
 3777TIP3    H111276   2.754   4.860   5.764
 3777TIP3    H211277   2.707   4.743   5.680
 3778TIP3   OH211278   5.160   5.913   2.866
 3778TIP3    H111279   5.121   5.865   2.792
 3778TIP3    H211280   5.187   5.844   2.927
 3779TIP3   OH211281   5.001   1.180   6.505
 3779TIP3    H111282   5.000   1.099   6.557
 3779TIP3    H211283   5.083   1.223   6.529
 3780TIP3   OH211284   6.637   5.222   6.037
 3780TIP3    H111285   6.701   5.161   6.074
 3780TIP3    H211286   6.553   5.195   6.074
 3781TIP3   OH211287   2.481   2.311   0.787
 3781TIP3    H111288   2.412   2.284   0.847
 3781TIP3    H211289   2.436   2.370   0.726
 3782TIP3   OH211290   2.231   3.235   3.006
 3782TIP3    H111291   2.318   3.203   3.029
 3782TIP3    H211292   2.242   3.329   2.994
 3783TIP3   OH211293   3.618   2.220   5.767
 3783TIP3    H111294   3.683   2.241   5.700
 3783TIP3    H211295   3.587   2.133   5.743
 3784TIP3   OH211296   2.549   2.180   2.864
 3784TIP3    H111297   2.502   2.263   2.860
 3784TIP3    H211298   2.497   2.119   2.811
 3785TIP3   OH211299   2.863   2.342   0.170
 3785TIP3    H111300   2.849   2.253   0.202
 3785TIP3    H211301   2.946   2.370   0.209
 3786TIP3   OH211302   5.425   0.891   3.455
 3786TIP3    H111303   5.355   0.938   3.409
 3786TIP3    H211304   5.429   0.934   3.541
 3787TIP3   OH211305   6.577   3.905   2.939
 3787TIP3    H111306   6.657   3.854   2.954
 3787TIP3    H211307   6.555   3.941   3.024
 3788TIP3   OH211308   5.451   0.535   1.942
 3788TIP3    H111309   5.394   0.611   1.958
 3788TIP3    H211310   5.465   0.497   2.028
 3789TIP3   OH211311   3.604   1.078   4.835
 3789TIP3    H111312   3.692   1.116   4.835
 3789TIP3    H211313   3.598   1.032   4.919
 3790TIP3   OH211314   5.684   6.218   1.518
 3790TIP3    H111315   5.764   6.271   1.518
 3790TIP3    H211316   5.629   6.260   1.584
 3791TIP3   OH211317   7.589   6.032   0.190
 3791TIP3    H111318   7.649   5.961   0.170
 3791TIP3    H211319   7.642   6.097   0.237
 3792TIP3   OH211320   3.607   5.393   0.500
 3792TIP3    H111321   3.564   5.478   0.492
 3792TIP3    H211322   3.664   5.388   0.423
 3793TIP3   OH211323   0.999   5.254   5.434
 3793TIP3    H111324   1.047   5.319   5.485
 3793TIP3    H211325   0.927   5.303   5.394
 3794TIP3   OH211326   5.885   4.205   2.459
 3794TIP3    H111327   5.964   4.235   2.414
 3794TIP3    H211328   5.889   4.109   2.452
 3795TIP3   OH211329   1.535   7.598   2.785
 3795TIP3    H111330   1.442   7.602   2.807
 3795TIP3    H211331   1.537   7.587   2.690
 3796TIP3   OH211332   0.669   4.774   1.678
 3796TIP3    H111333   0.603   4.705   1.678
 3796TIP3    H211334   0.732   4.747   1.612
 3797TIP3   OH211335   6.742   7.501   2.664
 3797TIP3    H111336   6.708   7.484   2.752
 3797TIP3    H211337   6.663   7.509   2.610
 3798TIP3   OH211338   6.707   7.762   5.657
 3798TIP3    H111339   6.702   7.853   5.630
 3798TIP3    H211340   6.688   7.713   5.577
 3799TIP3   OH211341   0.309   4.792   3.558
 3799TIP3    H111342   0.241   4.858   3.574
 3799TIP3    H211343   0.266   4.709   3.576
 3800TIP3   OH211344   4.622   3.628   1.565
 3800TIP3    H111345   4.664   3.693   1.621
 3800TIP3    H211346   4.555   3.678   1.518
 3801TIP3   OH211347   3.143   0.510   2.113
 3801TIP3    H111348   3.053   0.535   2.135
 3801TIP3    H211349   3.162   0.559   2.033
 3802TIP3   OH211350   4.024   6.863   4.511
 3802TIP3    H111351   3.974   6.911   4.577
 3802TIP3    H211352   4.115   6.867   4.542
 3803TIP3   OH211353   0.660   5.420   4.496
 3803TIP3    H111354   0.603   5.472   4.553
 3803TIP3    H211355   0.720   5.375   4.555
 3804TIP3   OH211356   2.022   3.026   2.397
 3804TIP3    H111357   2.061   3.114   2.392
 3804TIP3    H211358   2.092   2.967   2.371
 3805TIP3   OH211359   0.292   6.828   2.715
 3805TIP3    H111360   0.228   6.829   2.644
 3805TIP3    H211361   0.376   6.838   2.671
 3806TIP3   OH211362   1.133   4.127   2.667
 3806TIP3    H111363   1.056   4.132   2.610
 3806TIP3    H211364   1.134   4.211   2.713
 3807TIP3   OH211365   4.750   5.034   0.229
 3807TIP3    H111366   4.696   5.092   0.284
 3807TIP3    H211367   4.735   5.064   0.140
 3808TIP3   OH211368   7.712   3.398   6.433
 3808TIP3    H111369   7.746   3.451   6.504
 3808TIP3    H211370   7.623   3.431   6.419
 3809TIP3   OH211371   1.560   6.012   5.862
 3809TIP3    H111372   1.605   6.024   5.946
 3809TIP3    H211373   1.618   6.052   5.797
 3810TIP3   OH211374   3.042   3.411   2.136
 3810TIP3    H111375   2.999   3.355   2.200
 3810TIP3    H211376   3.136   3.398   2.152
 3811TIP3   OH211377   3.727   0.140   3.576
 3811TIP3    H111378   3.644   0.174   3.610
 3811TIP3    H211379   3.717   0.142   3.481
 3812TIP3   OH211380   0.069   4.455   0.957
 3812TIP3    H111381   0.092   4.503   0.878
 3812TIP3    H211382   0.140   4.476   1.018
 3813TIP3   OH211383   5.403   3.688   4.885
 3813TIP3    H111384   5.402   3.592   4.885
 3813TIP3    H211385   5.312   3.713   4.868
 3814TIP3   OH211386   1.535   2.708   4.353
 3814TIP3    H111387   1.605   2.649   4.378
 3814TIP3    H211388   1.512   2.754   4.434
 3815TIP3   OH211389   4.375   7.648   2.692
 3815TIP3    H111390   4.378   7.575   2.754
 3815TIP3    H211391   4.377   7.606   2.606
 3816TIP3   OH211392   4.146   2.764   3.516
 3816TIP3    H111393   4.227   2.746   3.468
 3816TIP3    H211394   4.099   2.827   3.461
 3817TIP3   OH211395   8.073   7.310   3.407
 3817TIP3    H111396   8.144   7.246   3.416
 3817TIP3    H211397   8.050   7.306   3.314
 3818TIP3   OH211398   7.423   2.058   5.588
 3818TIP3    H111399   7.404   2.145   5.552
 3818TIP3    H211400   7.499   2.072   5.645
 3819TIP3   OH211401   4.655   0.801   2.455
 3819TIP3    H111402   4.704   0.743   2.397
 3819TIP3    H211403   4.619   0.743   2.522
 3820TIP3   OH211404   7.730   3.463   0.713
 3820TIP3    H111405   7.678   3.453   0.634
 3820TIP3    H211406   7.768   3.551   0.707
 3821TIP3   OH211407   6.247   0.570   6.597
 3821TIP3    H111408   6.230   0.600   6.686
 3821TIP3    H211409   6.310   0.634   6.562
 3822TIP3   OH211410   5.830   2.912   0.448
 3822TIP3    H111411   5.836   2.888   0.356
 3822TIP3    H211412   5.754   2.865   0.481
 3823TIP3   OH211413   1.448   3.168   0.603
 3823TIP3    H111414   1.456   3.195   0.511
 3823TIP3    H211415   1.519   3.105   0.615
 3824TIP3   OH211416   3.066   0.714   2.703
 3824TIP3    H111417   3.009   0.762   2.763
 3824TIP3    H211418   3.024   0.723   2.617
 3825TIP3   OH211419   4.535   3.007   1.942
 3825TIP3    H111420   4.578   3.011   1.857
 3825TIP3    H211421   4.572   2.929   1.984
 3826TIP3   OH211422   2.486   4.397   3.797
 3826TIP3    H111423   2.505   4.304   3.801
 3826TIP3    H211424   2.450   4.418   3.883
 3827TIP3   OH211425   7.655   5.636   5.746
 3827TIP3    H111426   7.668   5.728   5.721
 3827TIP3    H211427   7.704   5.626   5.827
 3828TIP3   OH211428   4.380   0.526   4.745
 3828TIP3    H111429   4.435   0.595   4.707
 3828TIP3    H211430   4.438   0.478   4.803
 3829TIP3   OH211431   6.840   6.428   6.010
 3829TIP3    H111432   6.745   6.421   6.022
 3829TIP3    H211433   6.857   6.390   5.924
 3830TIP3   OH211434   2.614   6.915   4.985
 3830TIP3    H111435   2.706   6.911   5.012
 3830TIP3    H211436   2.595   7.008   4.978
 3831TIP3   OH211437   5.844   1.843   4.304
 3831TIP3    H111438   5.784   1.769   4.308
 3831TIP3    H211439   5.845   1.868   4.211
 3832TIP3   OH211440   5.126   3.909   5.382
 3832TIP3    H111441   5.091   3.824   5.407
 3832TIP3    H211442   5.101   3.919   5.290
 3833TIP3   OH211443   5.962   0.064   3.088
 3833TIP3    H111444   6.009   0.069   3.005
 3833TIP3    H211445   6.023   0.101   3.152
 3834TIP3   OH211446   6.312   7.275   2.301
 3834TIP3    H111447   6.237   7.223   2.271
 3834TIP3    H211448   6.378   7.265   2.232
 3835TIP3   OH211449   5.681   7.275   1.491
 3835TIP3    H111450   5.690   7.230   1.575
 3835TIP3    H211451   5.745   7.231   1.434
 3836TIP3   OH211452   5.616   2.462   3.477
 3836TIP3    H111453   5.528   2.425   3.470
 3836TIP3    H211454   5.664   2.425   3.403
 3837TIP3   OH211455   2.170   6.372   0.557
 3837TIP3    H111456   2.175   6.411   0.644
 3837TIP3    H211457   2.228   6.426   0.503
 3838TIP3   OH211458   4.485   7.572   0.723
 3838TIP3    H111459   4.521   7.650   0.766
 3838TIP3    H211460   4.516   7.578   0.633
 3839TIP3   OH211461   7.856   5.084   0.790
 3839TIP3    H111462   7.761   5.086   0.774
 3839TIP3    H211463   7.895   5.117   0.709
 3840TIP3   OH211464   7.777   7.496   3.820
 3840TIP3    H111465   7.731   7.567   3.865
 3840TIP3    H211466   7.792   7.431   3.888
 3841TIP3   OH211467   0.478   7.392   0.642
 3841TIP3    H111468   0.480   7.379   0.737
 3841TIP3    H211469   0.562   7.358   0.611
 3842TIP3   OH211470   7.658   4.538   0.359
 3842TIP3    H111471   7.657   4.548   0.264
 3842TIP3    H211472   7.707   4.457   0.374
 3843TIP3   OH211473   7.505   4.495   1.536
 3843TIP3    H111474   7.491   4.567   1.475
 3843TIP3    H211475   7.538   4.537   1.615
 3844TIP3   OH211476   5.626   5.300   3.078
 3844TIP3    H111477   5.705   5.320   3.029
 3844TIP3    H211478   5.554   5.327   3.021
 3845TIP3   OH211479   0.329   5.315   0.794
 3845TIP3    H111480   0.317   5.291   0.702
 3845TIP3    H211481   0.241   5.334   0.825
 3846TIP3   OH211482   3.233   4.458   0.592
 3846TIP3    H111483   3.320   4.430   0.564
 3846TIP3    H211484   3.248   4.505   0.674
 3847TIP3   OH211485   3.271   5.240   4.647
 3847TIP3    H111486   3.227   5.156   4.661
 3847TIP3    H211487   3.356   5.216   4.611
 3848TIP3   OH211488   1.954   6.819   5.794
 3848TIP3    H111489   1.902   6.895   5.819
 3848TIP3    H211490   1.951   6.761   5.870
 3849TIP3   OH211491   5.047   2.242   6.726
 3849TIP3    H111492   5.010   2.217   6.641
 3849TIP3    H211493   5.094   2.164   6.755
 3850TIP3   OH211494   1.647   2.921   3.756
 3850TIP3    H111495   1.621   2.834   3.725
 3850TIP3    H211496   1.596   2.982   3.703
 3851TIP3   OH211497   3.179   7.165   5.225
 3851TIP3    H111498   3.180   7.106   5.301
 3851TIP3    H211499   3.218   7.114   5.154
 3852TIP3   OH211500   4.622   6.322   3.332
 3852TIP3    H111501   4.585   6.409   3.315
 3852TIP3    H211502   4.624   6.280   3.246
 3853TIP3   OH211503   0.507   3.492   2.038
 3853TIP3    H111504   0.444   3.481   2.110
 3853TIP3    H211505   0.569   3.557   2.071
 3854TIP3   OH211506   3.437   1.273   4.754
 3854TIP3    H111507   3.511   1.236   4.803
 3854TIP3    H211508   3.447   1.367   4.763
 3855TIP3   OH211509   5.668   0.545   3.476
 3855TIP3    H111510   5.761   0.533   3.491
 3855TIP3    H211511   5.626   0.499   3.549
 3856TIP3   OH211512   1.102   3.664   1.229
 3856TIP3    H111513   1.108   3.690   1.137
 3856TIP3    H211514   1.139   3.739   1.277
 3857TIP3   OH211515   7.763   3.181   4.394
 3857TIP3    H111516   7.828   3.223   4.339
 3857TIP3    H211517   7.702   3.251   4.418
 3858TIP3   OH211518   1.700   0.626   6.797
 3858TIP3    H111519   1.795   0.622   6.802
 3858TIP3    H211520   1.680   0.717   6.777
 3859TIP3   OH211521   4.232   3.811   4.842
 3859TIP3    H111522   4.306   3.870   4.855
 3859TIP3    H211523   4.222   3.766   4.926
 3860TIP3   OH211524   6.574   0.287   3.392
 3860TIP3    H111525   6.557   0.196   3.365
 3860TIP3    H211526   6.646   0.280   3.455
 3861TIP3   OH211527   8.292   7.576   3.294
 3861TIP3    H111528   8.339   7.654   3.264
 3861TIP3    H211529   8.259   7.600   3.381
 3862TIP3   OH211530   3.415   7.425   6.227
 3862TIP3    H111531   3.463   7.454   6.150
 3862TIP3    H211532   3.475   7.440   6.300
 3863TIP3   OH211533   7.514   5.023   2.743
 3863TIP3    H111534   7.562   5.078   2.682
 3863TIP3    H211535   7.422   5.048   2.730
 3864TIP3   OH211536   6.890   4.012   0.781
 3864TIP3    H111537   6.963   3.966   0.740
 3864TIP3    H211538   6.878   3.968   0.866
 3865TIP3   OH211539   3.169   3.386   3.098
 3865TIP3    H111540   3.159   3.454   3.165
 3865TIP3    H211541   3.081   3.370   3.066
 3866TIP3   OH211542   7.933   5.048   3.988
 3866TIP3    H111543   7.876   5.090   4.052
 3866TIP3    H211544   7.996   4.998   4.041
 3867TIP3   OH211545   8.144   0.138   6.125
 3867TIP3    H111546   8.140   0.215   6.069
 3867TIP3    H211547   8.225   0.094   6.101
 3868TIP3   OH211548   0.601   7.008   4.080
 3868TIP3    H111549   0.612   7.047   4.166
 3868TIP3    H211550   0.602   6.913   4.096
 3869TIP3   OH211551   5.133   3.331   2.208
 3869TIP3    H111552   5.094   3.244   2.199
 3869TIP3    H211553   5.070   3.380   2.261
 3870TIP3   OH211554   0.891   5.843   2.363
 3870TIP3    H111555   0.826   5.781   2.329
 3870TIP3    H211556   0.972   5.821   2.316
 3871TIP3   OH211557   0.579   3.446   5.417
 3871TIP3    H111558   0.596   3.511   5.485
 3871TIP3    H211559   0.607   3.363   5.455
 3872TIP3   OH211560   7.246   2.803   2.763
 3872TIP3    H111561   7.309   2.762   2.703
 3872TIP3    H211562   7.189   2.855   2.707
 3873TIP3   OH211563   1.967   3.101   0.875
 3873TIP3    H111564   1.950   3.191   0.900
 3873TIP3    H211565   1.897   3.050   0.915
 3874TIP3   OH211566   5.339   4.996   1.174
 3874TIP3    H111567   5.365   4.986   1.082
 3874TIP3    H211568   5.312   5.087   1.181
 3875TIP3   OH211569   4.992   7.441   1.714
 3875TIP3    H111570   4.978   7.404   1.627
 3875TIP3    H211571   4.980   7.367   1.774
 3876TIP3   OH211572   1.147   2.884   3.391
 3876TIP3    H111573   1.133   2.959   3.449
 3876TIP3    H211574   1.106   2.810   3.436
 3877TIP3   OH211575   7.636   5.017   4.867
 3877TIP3    H111576   7.574   4.976   4.926
 3877TIP3    H211577   7.596   5.010   4.781
 3878TIP3   OH211578   6.971   7.514   5.896
 3878TIP3    H111579   6.901   7.495   5.958
 3878TIP3    H211580   6.953   7.602   5.865
 3879TIP3   OH211581   2.851   3.370   2.953
 3879TIP3    H111582   2.784   3.413   3.006
 3879TIP3    H211583   2.880   3.295   3.006
 3880TIP3   OH211584   5.615   3.513   0.073
 3880TIP3    H111585   5.599   3.590   0.127
 3880TIP3    H211586   5.564   3.443   0.114
 3881TIP3   OH211587   4.603   3.549   4.766
 3881TIP3    H111588   4.661   3.615   4.726
 3881TIP3    H211589   4.626   3.467   4.722
 3882TIP3   OH211590   6.654   2.052   0.240
 3882TIP3    H111591   6.669   2.099   0.158
 3882TIP3    H211592   6.739   2.055   0.285
 3883TIP3   OH211593   2.935   4.760   0.921
 3883TIP3    H111594   2.961   4.823   0.987
 3883TIP3    H211595   2.967   4.676   0.954
 3884TIP3   OH211596   7.325   6.060   2.070
 3884TIP3    H111597   7.386   6.080   1.999
 3884TIP3    H211598   7.366   6.098   2.148
 3885TIP3   OH211599   6.858   0.972   2.190
 3885TIP3    H111600   6.926   0.957   2.124
 3885TIP3    H211601   6.783   1.005   2.140
 3886TIP3   OH211602   0.249   3.666   1.442
 3886TIP3    H111603   0.334   3.649   1.400
 3886TIP3    H211604   0.189   3.602   1.404
 3887TIP3   OH211605   4.466   1.733   2.812
 3887TIP3    H111606   4.502   1.713   2.726
 3887TIP3    H211607   4.412   1.810   2.798
 3888TIP3   OH211608   0.237   3.183   0.431
 3888TIP3    H111609   0.151   3.160   0.467
 3888TIP3    H211610   0.260   3.265   0.475
 3889TIP3   OH211611   6.365   2.383   6.020
 3889TIP3    H111612   6.430   2.383   6.090
 3889TIP3    H211613   6.300   2.447   6.047
 3890TIP3   OH211614   6.619   4.411   6.582
 3890TIP3    H111615   6.598   4.365   6.663
 3890TIP3    H211616   6.578   4.359   6.513
 3891TIP3   OH211617   7.823   7.372   5.878
 3891TIP3    H111618   7.814   7.386   5.784
 3891TIP3    H211619   7.768   7.295   5.895
 3892TIP3   OH211620   2.715   4.465   6.308
 3892TIP3    H111621   2.639   4.499   6.260
 3892TIP3    H211622   2.678   4.403   6.371
 3893TIP3   OH211623   3.932   2.521   0.592
 3893TIP3    H111624   3.862   2.500   0.530
 3893TIP3    H211625   4.009   2.477   0.557
 3894TIP3   OH211626   6.499   6.989   0.397
 3894TIP3    H111627   6.554   6.948   0.463
 3894TIP3    H211628   6.417   6.941   0.400
 3895TIP3   OH211629   3.536   1.046   5.347
 3895TIP3    H111630   3.593   1.088   5.411
 3895TIP3    H211631   3.447   1.067   5.375
 3896TIP3   OH211632   0.115   7.674   5.544
 3896TIP3    H111633   0.133   7.591   5.501
 3896TIP3    H211634   0.110   7.653   5.637
 3897TIP3   OH211635   6.847   7.017   0.783
 3897TIP3    H111636   6.850   7.091   0.844
 3897TIP3    H211637   6.924   7.030   0.727
 3898TIP3   OH211638   7.724   4.252   4.783
 3898TIP3    H111639   7.781   4.186   4.744
 3898TIP3    H211640   7.651   4.260   4.721
 3899TIP3   OH211641   4.295   3.362   5.897
 3899TIP3    H111642   4.371   3.420   5.894
 3899TIP3    H211643   4.221   3.421   5.911
 3900TIP3   OH211644   6.570   5.394   3.097
 3900TIP3    H111645   6.614   5.378   3.181
 3900TIP3    H211646   6.544   5.308   3.067
 3901TIP3   OH211647   7.443   0.498   3.442
 3901TIP3    H111648   7.458   0.450   3.360
 3901TIP3    H211649   7.348   0.497   3.454
 3902TIP3   OH211650   2.057   1.228   5.813
 3902TIP3    H111651   1.998   1.224   5.888
 3902TIP3    H211652   2.030   1.307   5.765
 3903TIP3   OH211653   5.368   4.564   2.539
 3903TIP3    H111654   5.309   4.533   2.609
 3903TIP3    H211655   5.444   4.599   2.586
 3904TIP3   OH211656   4.443   6.710   1.985
 3904TIP3    H111657   4.473   6.667   1.905
 3904TIP3    H211658   4.356   6.674   2.000
 3905TIP3   OH211659   3.287   3.652   5.258
 3905TIP3    H111660   3.361   3.598   5.286
 3905TIP3    H211661   3.254   3.607   5.179
 3906TIP3   OH211662   5.017   5.242   4.367
 3906TIP3    H111663   5.031   5.159   4.414
 3906TIP3    H211664   4.927   5.266   4.388
 3907TIP3   OH211665   1.092   0.652   5.218
 3907TIP3    H111666   1.106   0.715   5.148
 3907TIP3    H211667   1.153   0.581   5.200
 3908TIP3   OH211668   2.668   0.305   3.247
 3908TIP3    H111669   2.667   0.217   3.209
 3908TIP3    H211670   2.591   0.307   3.304
 3909TIP3   OH211671   6.177   6.996   3.709
 3909TIP3    H111672   6.107   6.931   3.700
 3909TIP3    H211673   6.257   6.945   3.705
 3910TIP3   OH211674   6.992   2.824  -0.014
 3910TIP3    H111675   7.016   2.867  -0.097
 3910TIP3    H211676   7.020   2.886   0.054
 3911TIP3   OH211677   5.166   0.160   5.336
 3911TIP3    H111678   5.236   0.224   5.320
 3911TIP3    H211679   5.209   0.075   5.324
 3912TIP3   OH211680   1.741   2.970   2.410
 3912TIP3    H111681   1.721   2.933   2.324
 3912TIP3    H211682   1.833   2.996   2.404
 3913TIP3   OH211683   5.993   7.542   6.517
 3913TIP3    H111684   5.926   7.479   6.544
 3913TIP3    H211685   6.069   7.489   6.496
 3914TIP3   OH211686   0.690   1.592   1.073
 3914TIP3    H111687   0.701   1.632   1.159
 3914TIP3    H211688   0.775   1.552   1.053
 3915TIP3   OH211689   6.771   7.674   3.188
 3915TIP3    H111690   6.818   7.735   3.131
 3915TIP3    H211691   6.830   7.600   3.198
 3916TIP3   OH211692   0.672   6.973   2.199
 3916TIP3    H111693   0.730   7.015   2.263
 3916TIP3    H211694   0.650   6.889   2.239
 3917TIP3   OH211695   2.878   7.338   3.959
 3917TIP3    H111696   2.928   7.419   3.972
 3917TIP3    H211697   2.944   7.273   3.936
 3918TIP3   OH211698   0.897   7.597   2.690
 3918TIP3    H111699   0.949   7.605   2.611
 3918TIP3    H211700   0.806   7.604   2.660
 3919TIP3   OH211701   7.707   6.324   1.093
 3919TIP3    H111702   7.669   6.237   1.098
 3919TIP3    H211703   7.690   6.363   1.178
 3920TIP3   OH211704   5.103   7.017   0.460
 3920TIP3    H111705   5.083   6.955   0.531
 3920TIP3    H211706   5.028   7.011   0.402
 3921TIP3   OH211707   7.453   2.723   3.776
 3921TIP3    H111708   7.470   2.754   3.687
 3921TIP3    H211709   7.528   2.754   3.826
 3922TIP3   OH211710   6.381   3.653   3.927
 3922TIP3    H111711   6.448   3.603   3.881
 3922TIP3    H211712   6.335   3.701   3.858
 3923TIP3   OH211713   7.965   5.946   0.572
 3923TIP3    H111714   7.943   5.971   0.483
 3923TIP3    H211715   7.944   5.853   0.577
 3924TIP3   OH211716   3.938   2.345   4.375
 3924TIP3    H111717   3.910   2.428   4.336
 3924TIP3    H211718   3.951   2.365   4.468
 3925TIP3   OH211719   4.778   1.548   3.108
 3925TIP3    H111720   4.731   1.619   3.066
 3925TIP3    H211721   4.833   1.511   3.039
 3926TIP3   OH211722   1.833   2.189   0.567
 3926TIP3    H111723   1.863   2.238   0.490
 3926TIP3    H211724   1.900   2.205   0.634
 3927TIP3   OH211725   1.674   2.880   2.156
 3927TIP3    H111726   1.597   2.833   2.126
 3927TIP3    H211727   1.659   2.971   2.129
 3928TIP3   OH211728   6.256   1.565   0.137
 3928TIP3    H111729   6.303   1.601   0.061
 3928TIP3    H211730   6.324   1.521   0.188
 3929TIP3   OH211731   7.591   2.326   4.298
 3929TIP3    H111732   7.625   2.239   4.319
 3929TIP3    H211733   7.667   2.374   4.266
 3930TIP3   OH211734   7.201   1.500   0.369
 3930TIP3    H111735   7.228   1.556   0.296
 3930TIP3    H211736   7.282   1.476   0.413
 3931TIP3   OH211737   2.224   3.554   3.041
 3931TIP3    H111738   2.225   3.644   3.008
 3931TIP3    H211739   2.168   3.558   3.119
 3932TIP3   OH211740   0.102   5.698   3.733
 3932TIP3    H111741   0.134   5.723   3.646
 3932TIP3    H211742   0.174   5.647   3.770
 3933TIP3   OH211743   4.828   3.964   3.426
 3933TIP3    H111744   4.785   3.960   3.341
 3933TIP3    H211745   4.875   4.048   3.425
 3934TIP3   OH211746   2.691   0.887   4.077
 3934TIP3    H111747   2.632   0.961   4.065
 3934TIP3    H211748   2.770   0.912   4.029
 3935TIP3   OH211749   2.014   7.012   2.042
 3935TIP3    H111750   1.976   6.947   2.100
 3935TIP3    H211751   2.095   7.039   2.085
 3936TIP3   OH211752   5.723   1.348   6.668
 3936TIP3    H111753   5.751   1.361   6.578
 3936TIP3    H211754   5.722   1.253   6.679
 3937TIP3   OH211755   7.145   0.039   3.871
 3937TIP3    H111756   7.162   0.121   3.824
 3937TIP3    H211757   7.063   0.055   3.917
 3938TIP3   OH211758   6.774   7.579   1.679
 3938TIP3    H111759   6.852   7.561   1.730
 3938TIP3    H211760   6.704   7.529   1.721
 3939TIP3   OH211761   1.225   6.054   4.925
 3939TIP3    H111762   1.183   5.968   4.929
 3939TIP3    H211763   1.305   6.044   4.977
 3940TIP3   OH211764   1.640   6.796   3.271
 3940TIP3    H111765   1.588   6.766   3.345
 3940TIP3    H211766   1.665   6.885   3.294
 3941TIP3   OH211767   3.806   2.574   2.988
 3941TIP3    H111768   3.752   2.494   2.987
 3941TIP3    H211769   3.759   2.635   2.931
 3942TIP3   OH211770   2.415   2.665   0.785
 3942TIP3    H111771   2.387   2.755   0.806
 3942TIP3    H211772   2.504   2.675   0.750
 3943TIP3   OH211773   8.037   7.246   3.149
 3943TIP3    H111774   8.043   7.158   3.112
 3943TIP3    H211775   8.098   7.299   3.097
 3944TIP3   OH211776   0.768   4.943   4.844
 3944TIP3    H111777   0.801   5.030   4.867
 3944TIP3    H211778   0.757   4.947   4.749
 3945TIP3   OH211779   0.546   3.196   3.204
 3945TIP3    H111780   0.462   3.228   3.169
 3945TIP3    H211781   0.547   3.103   3.181
 3946TIP3   OH211782   1.555   2.903   5.425
 3946TIP3    H111783   1.553   2.912   5.330
 3946TIP3    H211784   1.463   2.914   5.452
 3947TIP3   OH211785   2.838   1.548   2.876
 3947TIP3    H111786   2.786   1.532   2.955
 3947TIP3    H211787   2.902   1.614   2.903
 3948TIP3   OH211788   3.841   5.427   5.195
 3948TIP3    H111789   3.794   5.481   5.132
 3948TIP3    H211790   3.852   5.343   5.151
 3949TIP3   OH211791   8.236   6.678   1.734
 3949TIP3    H111792   8.318   6.630   1.749
 3949TIP3    H211793   8.167   6.617   1.759
 3950TIP3   OH211794   6.888   6.791   0.946
 3950TIP3    H111795   6.926   6.878   0.935
 3950TIP3    H211796   6.807   6.794   0.894
 3951TIP3   OH211797   7.412   5.622   5.423
 3951TIP3    H111798   7.476   5.573   5.474
 3951TIP3    H211799   7.398   5.569   5.344
 3952TIP3   OH211800   1.241   5.326   3.502
 3952TIP3    H111801   1.336   5.331   3.508
 3952TIP3    H211802   1.221   5.344   3.410
 3953TIP3   OH211803   2.919   0.737   4.119
 3953TIP3    H111804   2.945   0.774   4.036
 3953TIP3    H211805   2.970   0.656   4.127
 3954TIP3   OH211806   8.007   0.888   5.669
 3954TIP3    H111807   8.069   0.958   5.648
 3954TIP3    H211808   8.054   0.835   5.733
 3955TIP3   OH211809   7.987   5.099   2.802
 3955TIP3    H111810   7.942   5.048   2.869
 3955TIP3    H211811   8.059   5.141   2.849
 3956TIP3   OH211812   0.310   0.084   6.240
 3956TIP3    H111813   0.337   0.069   6.330
 3956TIP3    H211814   0.293   0.178   6.235
 3957TIP3   OH211815   0.277   6.350   3.445
 3957TIP3    H111816   0.346   6.315   3.502
 3957TIP3    H211817   0.222   6.274   3.425
 3958TIP3   OH211818   6.432   4.969   5.742
 3958TIP3    H111819   6.404   4.923   5.821
 3958TIP3    H211820   6.525   4.948   5.734
 3959TIP3   OH211821   0.906   4.603   3.636
 3959TIP3    H111822   0.948   4.683   3.669
 3959TIP3    H211823   0.938   4.594   3.546
 3960TIP3   OH211824   2.738   2.828   5.913
 3960TIP3    H111825   2.762   2.759   5.851
 3960TIP3    H211826   2.813   2.833   5.973
 3961TIP3   OH211827   8.219   4.129   2.193
 3961TIP3    H111828   8.263   4.213   2.205
 3961TIP3    H211829   8.205   4.122   2.099
 3962TIP3   OH211830   3.346   4.688   4.232
 3962TIP3    H111831   3.365   4.781   4.242
 3962TIP3    H211832   3.263   4.674   4.278
 3963TIP3   OH211833   1.798   7.659   0.889
 3963TIP3    H111834   1.842   7.657   0.804
 3963TIP3    H211835   1.705   7.648   0.867
 3964TIP3   OH211836   3.543   1.678   2.844
 3964TIP3    H111837   3.584   1.760   2.871
 3964TIP3    H211838   3.599   1.610   2.882
 3965TIP3   OH211839   1.461   2.271   4.402
 3965TIP3    H111840   1.465   2.348   4.344
 3965TIP3    H211841   1.463   2.308   4.490
 3966TIP3   OH211842   4.086   5.848   0.606
 3966TIP3    H111843   4.135   5.859   0.688
 3966TIP3    H211844   4.031   5.926   0.601
 3967TIP3   OH211845   5.969   4.188   1.880
 3967TIP3    H111846   5.947   4.096   1.897
 3967TIP3    H211847   5.903   4.217   1.817
 3968TIP3   OH211848   2.539   3.451   0.956
 3968TIP3    H111849   2.619   3.404   0.933
 3968TIP3    H211850   2.519   3.504   0.879
 3969TIP3   OH211851   1.997   7.356   4.471
 3969TIP3    H111852   2.024   7.446   4.487
 3969TIP3    H211853   2.078   7.305   4.474
 3970TIP3   OH211854   0.760   2.605   2.379
 3970TIP3    H111855   0.666   2.622   2.388
 3970TIP3    H211856   0.802   2.685   2.411
 3971TIP3   OH211857   7.611   7.576   1.354
 3971TIP3    H111858   7.543   7.540   1.296
 3971TIP3    H211859   7.584   7.666   1.370
 3972TIP3   OH211860   4.196   2.160   6.600
 3972TIP3    H111861   4.184   2.069   6.574
 3972TIP3    H211862   4.228   2.203   6.521
 3973TIP3   OH211863   1.301   7.849   4.100
 3973TIP3    H111864   1.321   7.787   4.030
 3973TIP3    H211865   1.224   7.897   4.070
 3974TIP3   OH211866   5.249   2.401   2.117
 3974TIP3    H111867   5.289   2.317   2.093
 3974TIP3    H211868   5.313   2.442   2.175
 3975TIP3   OH211869   7.239   2.845   0.400
 3975TIP3    H111870   7.226   2.905   0.474
 3975TIP3    H211871   7.304   2.782   0.431
 3976TIP3   OH211872   6.539   3.969   3.249
 3976TIP3    H111873   6.468   4.003   3.195
 3976TIP3    H211874   6.525   4.008   3.335
 3977TIP3   OH211875   1.922   4.232   3.554
 3977TIP3    H111876   1.848   4.182   3.590
 3977TIP3    H211877   1.881   4.305   3.508
 3978TIP3   OH211878   7.758   2.816   2.087
 3978TIP3    H111879   7.831   2.755   2.104
 3978TIP3    H211880   7.760   2.876   2.162
 3979TIP3   OH211881   7.017   3.426   5.393
 3979TIP3    H111882   7.029   3.490   5.463
 3979TIP3    H211883   7.084   3.450   5.328
 3980TIP3   OH211884   5.024   6.321   3.472
 3980TIP3    H111885   4.999   6.242   3.520
 3980TIP3    H211886   4.951   6.381   3.487
 3981TIP3   OH211887   4.996   5.022   3.386
 3981TIP3    H111888   5.074   5.015   3.331
 3981TIP3    H211889   5.014   5.097   3.443
 3982TIP3   OH211890   4.792   3.390   1.170
 3982TIP3    H111891   4.700   3.385   1.193
 3982TIP3    H211892   4.796   3.358   1.079
 3983TIP3   OH211893   0.508   3.004   0.153
 3983TIP3    H111894   0.532   2.975   0.241
 3983TIP3    H211895   0.585   2.985   0.099
 3984TIP3   OH211896   1.952   0.752   4.457
 3984TIP3    H111897   1.911   0.819   4.402
 3984TIP3    H211898   2.044   0.776   4.460
 3985TIP3   OH211899   2.875   6.766   1.922
 3985TIP3    H111900   2.785   6.747   1.897
 3985TIP3    H211901   2.908   6.685   1.960
 3986TIP3   OH211902   3.179   1.499   0.220
 3986TIP3    H111903   3.156   1.425   0.276
 3986TIP3    H211904   3.184   1.462   0.132
 3987TIP3   OH211905   6.146   4.760   1.512
 3987TIP3    H111906   6.223   4.799   1.472
 3987TIP3    H211907   6.072   4.795   1.462
 3988TIP3   OH211908   0.258   6.511   5.515
 3988TIP3    H111909   0.231   6.598   5.485
 3988TIP3    H211910   0.322   6.483   5.449
 3989TIP3   OH211911   4.868   3.116   2.797
 3989TIP3    H111912   4.907   3.170   2.865
 3989TIP3    H211913   4.868   3.027   2.834
 3990TIP3   OH211914   1.650   3.490   3.354
 3990TIP3    H111915   1.729   3.441   3.330
 3990TIP3    H211916   1.670   3.581   3.330
 3991TIP3   OH211917   6.783   0.930   0.686
 3991TIP3    H111918   6.761   1.022   0.703
 3991TIP3    H211919   6.839   0.934   0.608
 3992TIP3   OH211920   2.865   3.663   3.709
 3992TIP3    H111921   2.815   3.680   3.629
 3992TIP3    H211922   2.808   3.607   3.761
 3993TIP3   OH211923   4.468   3.942   5.181
 3993TIP3    H111924   4.541   3.881   5.195
 3993TIP3    H211925   4.469   3.999   5.258
 3994TIP3   OH211926   1.333   4.799   3.185
 3994TIP3    H111927   1.404   4.859   3.160
 3994TIP3    H211928   1.324   4.740   3.110
 3995TIP3   OH211929   5.562   3.568   6.095
 3995TIP3    H111930   5.596   3.485   6.060
 3995TIP3    H211931   5.631   3.601   6.151
 3996TIP3   OH211932   3.086   4.486   1.026
 3996TIP3    H111933   3.129   4.400   1.018
 3996TIP3    H211934   3.015   4.472   1.088
 3997TIP3   OH211935   6.144   0.858   0.937
 3997TIP3    H111936   6.200   0.832   1.010
 3997TIP3    H211937   6.065   0.806   0.948
 3998TIP3   OH211938   7.511   7.507   5.656
 3998TIP3    H111939   7.436   7.527   5.600
 3998TIP3    H211940   7.483   7.430   5.706
 3999TIP3   OH211941   1.321   6.782   4.673
 3999TIP3    H111942   1.381   6.711   4.649
 3999TIP3    H211943   1.375   6.861   4.668
 4000TIP3   OH211944   1.217   2.805   2.050
 4000TIP3    H111945   1.133   2.763   2.068
 4000TIP3    H211946   1.194   2.884   2.001
 4001TIP3   OH211947   0.633   7.608   0.833
 4001TIP3    H111948   0.621   7.596   0.739
 4001TIP3    H211949   0.551   7.646   0.864
 4002TIP3   OH211950   4.818   3.979   2.828
 4002TIP3    H111951   4.849   4.067   2.806
 4002TIP3    H211952   4.812   3.934   2.744
 4003TIP3   OH211953   1.267   1.483   1.344
 4003TIP3    H111954   1.295   1.530   1.422
 4003TIP3    H211955   1.274   1.390   1.368
 4004TIP3   OH211956   7.456   3.123   3.802
 4004TIP3    H111957   7.447   3.084   3.715
 4004TIP3    H211958   7.392   3.076   3.855
 4005TIP3   OH211959   3.504   1.394   0.678
 4005TIP3    H111960   3.472   1.344   0.753
 4005TIP3    H211961   3.526   1.327   0.613
 4006TIP3   OH211962   4.011   3.367   0.754
 4006TIP3    H111963   3.941   3.350   0.691
 4006TIP3    H211964   4.084   3.312   0.724
 4007TIP3   OH211965   2.307   5.234   4.402
 4007TIP3    H111966   2.347   5.318   4.381
 4007TIP3    H211967   2.316   5.183   4.321
 4008TIP3   OH211968   5.102   7.313   5.552
 4008TIP3    H111969   5.047   7.315   5.473
 4008TIP3    H211970   5.156   7.391   5.545
 4009TIP3   OH211971   6.725   7.656   4.203
 4009TIP3    H111972   6.697   7.685   4.116
 4009TIP3    H211973   6.682   7.572   4.216
 4010TIP3   OH211974   8.085   4.003   3.752
 4010TIP3    H111975   8.102   4.037   3.664
 4010TIP3    H211976   8.036   3.922   3.737
 4011TIP3   OH211977   4.883   3.843   0.035
 4011TIP3    H111978   4.915   3.796  -0.042
 4011TIP3    H211979   4.961   3.886   0.071
 4012TIP3   OH211980   7.157   0.467   6.496
 4012TIP3    H111981   7.216   0.425   6.433
 4012TIP3    H211982   7.182   0.429   6.581
 4013TIP3   OH211983   2.238   7.636   5.916
 4013TIP3    H111984   2.146   7.608   5.906
 4013TIP3    H211985   2.288   7.555   5.908
 4014TIP3   OH211986   6.408   0.977   5.899
 4014TIP3    H111987   6.438   1.007   5.813
 4014TIP3    H211988   6.484   0.987   5.956
 4015TIP3   OH211989   4.297   2.071   1.516
 4015TIP3    H111990   4.329   1.983   1.495
 4015TIP3    H211991   4.329   2.126   1.445
 4016TIP3   OH211992   0.623   2.917   5.130
 4016TIP3    H111993   0.573   2.935   5.209
 4016TIP3    H211994   0.573   2.849   5.085
 4017TIP3   OH211995   0.767   4.110   1.654
 4017TIP3    H111996   0.700   4.065   1.706
 4017TIP3    H211997   0.763   4.068   1.568
 4018TIP3   OH211998   5.672   5.678   4.350
 4018TIP3    H111999   5.585   5.640   4.360
 4018TIP3    H212000   5.708   5.680   4.438
 4019TIP3   OH212001   6.628   4.371   0.809
 4019TIP3    H112002   6.550   4.332   0.849
 4019TIP3    H212003   6.645   4.316   0.733
 4020TIP3   OH212004   4.157   5.890   4.618
 4020TIP3    H112005   4.083   5.847   4.573
 4020TIP3    H212006   4.123   5.910   4.705
 4021TIP3   OH212007   2.254   2.569   1.902
 4021TIP3    H112008   2.187   2.629   1.935
 4021TIP3    H212009   2.228   2.483   1.936
 4022TIP3   OH212010   0.285   6.831   2.261
 4022TIP3    H112011   0.269   6.885   2.184
 4022TIP3    H212012   0.305   6.744   2.226
 4023TIP3   OH212013   6.224   6.178   5.444
 4023TIP3    H112014   6.178   6.245   5.494
 4023TIP3    H212015   6.208   6.201   5.352
 4024TIP3   OH212016   5.164   2.079   3.503
 4024TIP3    H112017   5.180   2.131   3.582
 4024TIP3    H212018   5.251   2.047   3.478
 4025TIP3   OH212019   1.908   2.647   1.737
 4025TIP3    H112020   1.920   2.561   1.696
 4025TIP3    H212021   1.904   2.629   1.831
 4026TIP3   OH212022   0.784   0.084   0.785
 4026TIP3    H112023   0.743   0.142   0.849
 4026TIP3    H212024   0.799   0.002   0.833
 4027TIP3   OH212025   5.546   7.009   2.338
 4027TIP3    H112026   5.531   7.101   2.316
 4027TIP3    H212027   5.496   6.995   2.418
 4028TIP3   OH212028   4.138   5.670   3.056
 4028TIP3    H112029   4.206   5.682   2.990
 4028TIP3    H212030   4.184   5.632   3.131
 4029TIP3   OH212031   5.072   1.501   0.560
 4029TIP3    H112032   5.102   1.559   0.630
 4029TIP3    H212033   5.032   1.427   0.606
 4030TIP3   OH212034   7.604   1.912   3.770
 4030TIP3    H112035   7.620   1.819   3.753
 4030TIP3    H212036   7.517   1.915   3.808
 4031TIP3   OH212037   0.513   3.099   4.863
 4031TIP3    H112038   0.572   3.174   4.861
 4031TIP3    H212039   0.555   3.034   4.806
 4032TIP3   OH212040   2.256   0.891   5.796
 4032TIP3    H112041   2.169   0.895   5.836
 4032TIP3    H212042   2.312   0.855   5.864
 4033TIP3   OH212043   4.218   1.760   1.174
 4033TIP3    H112044   4.215   1.842   1.223
 4033TIP3    H212045   4.297   1.767   1.121
 4034TIP3   OH212046   7.615   0.750   5.534
 4034TIP3    H112047   7.523   0.777   5.525
 4034TIP3    H212048   7.622   0.719   5.625
 4035TIP3   OH212049   1.082   2.517   0.883
 4035TIP3    H112050   1.087   2.432   0.838
 4035TIP3    H212051   0.991   2.544   0.871
 4036TIP3   OH212052   2.265   3.208   5.275
 4036TIP3    H112053   2.304   3.172   5.195
 4036TIP3    H212054   2.319   3.174   5.346
 4037TIP3   OH212055   5.166   5.559   2.021
 4037TIP3    H112056   5.109   5.501   1.970
 4037TIP3    H212057   5.222   5.500   2.070
 4038TIP3   OH212058   0.191   4.093   0.103
 4038TIP3    H112059   0.248   4.162   0.136
 4038TIP3    H212060   0.116   4.139   0.065
 4039TIP3   OH212061   1.331   7.408   3.972
 4039TIP3    H112062   1.302   7.319   3.991
 4039TIP3    H212063   1.259   7.464   4.002
 4040TIP3   OH212064   4.809   4.534   5.935
 4040TIP3    H112065   4.868   4.498   5.869
 4040TIP3    H212066   4.786   4.459   5.990
 4041TIP3   OH212067   8.044   0.629   0.346
 4041TIP3    H112068   8.028   0.564   0.414
 4041TIP3    H212069   7.966   0.685   0.348
 4042TIP3   OH212070   4.246   7.270   1.057
 4042TIP3    H112071   4.195   7.291   1.136
 4042TIP3    H212072   4.191   7.209   1.009
 4043TIP3   OH212073   6.956   6.837   2.491
 4043TIP3    H112074   6.864   6.831   2.466
 4043TIP3    H212075   6.985   6.746   2.495
 4044TIP3   OH212076   3.298   3.430   3.568
 4044TIP3    H112077   3.231   3.447   3.635
 4044TIP3    H212078   3.252   3.444   3.485
 4045TIP3   OH212079   4.053   2.120   2.951
 4045TIP3    H112080   4.027   2.086   3.037
 4045TIP3    H212081   4.063   2.041   2.897
 4046TIP3   OH212082   3.793   2.580   6.406
 4046TIP3    H112083   3.877   2.595   6.450
 4046TIP3    H212084   3.791   2.486   6.389
 4047TIP3   OH212085   5.984   3.998   4.057
 4047TIP3    H112086   5.918   4.064   4.076
 4047TIP3    H212087   5.942   3.915   4.080
 4048TIP3   OH212088   5.511   7.251   2.251
 4048TIP3    H112089   5.586   7.261   2.192
 4048TIP3    H212090   5.436   7.236   2.192
 4049TIP3   OH212091   6.975   1.022   3.399
 4049TIP3    H112092   6.999   0.933   3.425
 4049TIP3    H212093   7.056   1.072   3.410
 4050TIP3   OH212094   3.472   5.701   2.921
 4050TIP3    H112095   3.453   5.758   2.995
 4050TIP3    H212096   3.386   5.679   2.885
 4051TIP3   OH212097   1.385   6.948   6.251
 4051TIP3    H112098   1.481   6.947   6.248
 4051TIP3    H212099   1.363   6.902   6.332
 4052TIP3   OH212100   1.847   3.902   4.138
 4052TIP3    H112101   1.894   3.982   4.114
 4052TIP3    H212102   1.876   3.883   4.227
 4053TIP3   OH212103   7.639   7.260   6.588
 4053TIP3    H112104   7.722   7.225   6.621
 4053TIP3    H212105   7.615   7.328   6.651
 4054TIP3   OH212106   6.238   1.014   1.674
 4054TIP3    H112107   6.316   0.984   1.627
 4054TIP3    H212108   6.184   1.057   1.608
 4055TIP3   OH212109   6.302   5.361   0.210
 4055TIP3    H112110   6.256   5.400   0.284
 4055TIP3    H212111   6.363   5.428   0.181
 4056TIP3   OH212112   0.882   7.090   1.017
 4056TIP3    H112113   0.924   7.005   1.005
 4056TIP3    H212114   0.918   7.144   0.946
 4057TIP3   OH212115   6.172   3.716   0.220
 4057TIP3    H112116   6.126   3.674   0.293
 4057TIP3    H212117   6.137   3.805   0.217
 4058TIP3   OH212118   3.961   3.256   4.481
 4058TIP3    H112119   3.915   3.315   4.421
 4058TIP3    H212120   3.904   3.179   4.487
 4059TIP3   OH212121   2.100   2.468   0.815
 4059TIP3    H112122   2.060   2.381   0.811
 4059TIP3    H212123   2.149   2.476   0.733
 4060TIP3   OH212124   0.240   2.345   4.200
 4060TIP3    H112125   0.291   2.278   4.247
 4060TIP3    H212126   0.165   2.297   4.165
 4061TIP3   OH212127   6.022   5.532   0.300
 4061TIP3    H112128   5.950   5.482   0.260
 4061TIP3    H212129   6.055   5.586   0.228
 4062TIP3   OH212130   1.552   2.056   6.389
 4062TIP3    H112131   1.481   2.057   6.324
 4062TIP3    H212132   1.630   2.037   6.338
 4063TIP3   OH212133   2.556   5.220   3.107
 4063TIP3    H112134   2.510   5.236   3.190
 4063TIP3    H212135   2.627   5.284   3.107
 4064TIP3   OH212136   0.931   3.963   4.554
 4064TIP3    H112137   1.019   3.997   4.573
 4064TIP3    H212138   0.877   3.997   4.625
 4065TIP3   OH212139   4.277   1.385   1.379
 4065TIP3    H112140   4.209   1.450   1.358
 4065TIP3    H212141   4.241   1.303   1.346
 4066TIP3   OH212142   7.708   1.680   5.428
 4066TIP3    H112143   7.720   1.611   5.362
 4066TIP3    H212144   7.733   1.638   5.511
 4067TIP3   OH212145   0.430   1.776   5.106
 4067TIP3    H112146   0.526   1.771   5.101
 4067TIP3    H212147   0.400   1.720   5.034
 4068TIP3   OH212148   4.609   1.711   5.298
 4068TIP3    H112149   4.554   1.771   5.248
 4068TIP3    H212150   4.589   1.625   5.261
 4069TIP3   OH212151   8.178   2.037   1.606
 4069TIP3    H112152   8.254   2.079   1.565
 4069TIP3    H212153   8.102   2.075   1.561
 4070TIP3   OH212154   7.501   1.650   5.159
 4070TIP3    H112155   7.475   1.728   5.111
 4070TIP3    H212156   7.493   1.675   5.251
 4071TIP3   OH212157   6.126   7.186   6.353
 4071TIP3    H112158   6.074   7.106   6.353
 4071TIP3    H212159   6.158   7.193   6.263
 4072TIP3   OH212160   0.768   6.755   2.808
 4072TIP3    H112161   0.842   6.749   2.747
 4072TIP3    H212162   0.775   6.843   2.845
 4073TIP3   OH212163   3.554   6.652   3.547
 4073TIP3    H112164   3.600   6.698   3.618
 4073TIP3    H212165   3.522   6.722   3.490
 4074TIP3   OH212166   6.973   6.928   6.736
 4074TIP3    H112167   6.965   7.019   6.708
 4074TIP3    H212168   6.892   6.910   6.784
 4075TIP3   OH212169   0.413   1.148   4.182
 4075TIP3    H112170   0.476   1.079   4.201
 4075TIP3    H212171   0.444   1.186   4.099
 4076TIP3   OH212172   4.887   7.447   4.371
 4076TIP3    H112173   4.824   7.393   4.323
 4076TIP3    H212174   4.960   7.458   4.310
 4077TIP3   OH212175   1.647   0.436   5.400
 4077TIP3    H112176   1.590   0.399   5.333
 4077TIP3    H212177   1.604   0.518   5.425
 4078TIP3   OH212178   1.671   2.185   2.970
 4078TIP3    H112179   1.616   2.238   2.912
 4078TIP3    H212180   1.700   2.247   3.038
 4079TIP3   OH212181   0.162   2.289   2.054
 4079TIP3    H112182   0.194   2.334   2.132
 4079TIP3    H212183   0.162   2.197   2.078
 4080TIP3   OH212184   0.469   2.432   5.750
 4080TIP3    H112185   0.558   2.399   5.767
 4080TIP3    H212186   0.452   2.407   5.659
 4081TIP3   OH212187   2.762   5.815   6.785
 4081TIP3    H112188   2.793   5.749   6.847
 4081TIP3    H212189   2.813   5.798   6.705
 4082TIP3   OH212190   4.125   0.620   4.637
 4082TIP3    H112191   4.191   0.576   4.691
 4082TIP3    H212192   4.176   0.671   4.574
 4083TIP3   OH212193   2.661   3.999   0.383
 4083TIP3    H112194   2.661   4.080   0.331
 4083TIP3    H212195   2.671   3.929   0.319
 4084TIP3   OH212196   3.286   2.701   3.820
 4084TIP3    H112197   3.209   2.732   3.773
 4084TIP3    H212198   3.257   2.693   3.911
 4085TIP3   OH212199   0.618   6.767   1.476
 4085TIP3    H112200   0.653   6.773   1.388
 4085TIP3    H212201   0.608   6.673   1.492
 4086TIP3   OH212202   3.200   5.902   2.701
 4086TIP3    H112203   3.192   5.822   2.751
 4086TIP3    H212204   3.145   5.965   2.747
 4087TIP3   OH212205   7.204   0.901   0.718
 4087TIP3    H112206   7.279   0.951   0.688
 4087TIP3    H212207   7.154   0.962   0.773
 4088TIP3   OH212208   4.118   3.985   2.087
 4088TIP3    H112209   4.031   4.002   2.123
 4088TIP3    H212210   4.103   3.963   1.996
 4089TIP3   OH212211   5.001   5.015   0.920
 4089TIP3    H112212   4.940   4.991   0.850
 4089TIP3    H212213   4.991   5.110   0.929
 4090TIP3   OH212214   8.105   0.822   0.867
 4090TIP3    H112215   8.032   0.769   0.898
 4090TIP3    H212216   8.181   0.764   0.872
 4091TIP3   OH212217   8.254   3.468   0.133
 4091TIP3    H112218   8.164   3.434   0.140
 4091TIP3    H212219   8.296   3.442   0.215
 4092TIP3   OH212220   5.312   3.284   1.805
 4092TIP3    H112221   5.285   3.347   1.871
 4092TIP3    H212222   5.300   3.329   1.722
 4093TIP3   OH212223   6.364   6.000   4.063
 4093TIP3    H112224   6.358   5.917   4.016
 4093TIP3    H212225   6.436   5.988   4.124
 4094TIP3   OH212226   3.106   5.059   1.948
 4094TIP3    H112227   3.100   5.142   1.996
 4094TIP3    H212228   3.035   5.006   1.983
 4095TIP3   OH212229   0.524   7.703   4.942
 4095TIP3    H112230   0.616   7.684   4.927
 4095TIP3    H212231   0.498   7.644   5.013
 4096TIP3   OH212232   5.083   2.106   3.249
 4096TIP3    H112233   5.101   2.058   3.330
 4096TIP3    H212234   5.070   2.037   3.184
 4097TIP3   OH212235   4.944   5.747   4.146
 4097TIP3    H112236   4.906   5.711   4.226
 4097TIP3    H212237   4.940   5.675   4.083
 4098TIP3   OH212238   5.923   3.508   2.560
 4098TIP3    H112239   5.860   3.481   2.494
 4098TIP3    H212240   5.875   3.570   2.615
 4099TIP3   OH212241   0.130   3.563   6.687
 4099TIP3    H112242   0.034   3.562   6.687
 4099TIP3    H212243   0.155   3.475   6.660
 4100TIP3   OH212244   2.651   5.486   4.461
 4100TIP3    H112245   2.626   5.412   4.516
 4100TIP3    H212246   2.746   5.491   4.470
 4101TIP3   OH212247   5.700   2.499   0.054
 4101TIP3    H112248   5.722   2.495  -0.039
 4101TIP3    H212249   5.778   2.463   0.098
 4102TIP3   OH212250   7.212   4.783   6.559
 4102TIP3    H112251   7.205   4.701   6.510
 4102TIP3    H212252   7.177   4.762   6.645
 4103TIP3   OH212253   4.254   4.161   3.984
 4103TIP3    H112254   4.218   4.118   3.906
 4103TIP3    H212255   4.240   4.098   4.054
 4104TIP3   OH212256   4.314   2.380   4.328
 4104TIP3    H112257   4.387   2.324   4.303
 4104TIP3    H212258   4.241   2.350   4.274
 4105TIP3   OH212259   4.455   1.227   4.982
 4105TIP3    H112260   4.485   1.241   4.892
 4105TIP3    H212261   4.523   1.172   5.021
 4106TIP3   OH212262   7.671   2.787   4.582
 4106TIP3    H112263   7.601   2.724   4.565
 4106TIP3    H212264   7.726   2.782   4.504
 4107TIP3   OH212265   5.058   2.706   1.073
 4107TIP3    H112266   5.014   2.693   0.989
 4107TIP3    H212267   5.151   2.702   1.053
 4108TIP3   OH212268   1.407   5.144   2.160
 4108TIP3    H112269   1.383   5.236   2.149
 4108TIP3    H212270   1.355   5.115   2.235
 4109TIP3   OH212271   7.181   4.184   0.751
 4109TIP3    H112272   7.187   4.280   0.757
 4109TIP3    H212273   7.170   4.155   0.841
 4110TIP3   OH212274   0.232   1.079   5.554
 4110TIP3    H112275   0.209   1.156   5.502
 4110TIP3    H212276   0.233   1.007   5.490
 4111TIP3   OH212277   3.057   3.953   6.365
 4111TIP3    H112278   3.054   3.969   6.459
 4111TIP3    H212279   2.983   4.001   6.329
 4112TIP3   OH212280   1.340   7.502   6.058
 4112TIP3    H112281   1.415   7.526   6.003
 4112TIP3    H212282   1.304   7.586   6.085
 4113TIP3   OH212283   4.259   5.997   3.002
 4113TIP3    H112284   4.181   6.045   2.974
 4113TIP3    H212285   4.236   5.961   3.088
 4114TIP3   OH212286   7.448   3.662   5.315
 4114TIP3    H112287   7.384   3.732   5.302
 4114TIP3    H212288   7.400   3.581   5.296
 4115TIP3   OH212289   5.118   3.957   0.122
 4115TIP3    H112290   5.124   3.981   0.214
 4115TIP3    H212291   5.175   4.019   0.076
 4116TIP3   OH212292   7.912   1.888   0.166
 4116TIP3    H112293   7.968   1.949   0.214
 4116TIP3    H212294   7.963   1.867   0.088
 4117TIP3   OH212295   0.085   3.336   3.457
 4117TIP3    H112296   0.068   3.428   3.477
 4117TIP3    H212297   0.053   3.288   3.534
 4118TIP3   OH212298   4.119   1.379   0.970
 4118TIP3    H112299   4.052   1.317   0.943
 4118TIP3    H212300   4.073   1.441   1.027
 4119TIP3   OH212301   4.434   3.801   3.340
 4119TIP3    H112302   4.344   3.785   3.311
 4119TIP3    H212303   4.445   3.743   3.415
 4120TIP3   OH212304   1.255   4.110   0.046
 4120TIP3    H112305   1.185   4.105   0.111
 4120TIP3    H212306   1.252   4.201   0.015
 4121TIP3   OH212307   4.717   4.169   0.565
 4121TIP3    H112308   4.685   4.088   0.605
 4121TIP3    H212309   4.791   4.196   0.620
 4122TIP3   OH212310   2.378   7.379   1.594
 4122TIP3    H112311   2.351   7.357   1.682
 4122TIP3    H212312   2.405   7.471   1.599
 4123TIP3   OH212313   1.771   0.148   0.590
 4123TIP3    H112314   1.863   0.127   0.605
 4123TIP3    H212315   1.772   0.238   0.556
 4124TIP3   OH212316   2.000   1.344   3.181
 4124TIP3    H112317   2.080   1.292   3.175
 4124TIP3    H212318   2.026   1.421   3.232
 4125TIP3   OH212319   6.507   5.380   6.628
 4125TIP3    H112320   6.467   5.382   6.714
 4125TIP3    H212321   6.434   5.385   6.567
 4126TIP3   OH212322   2.045   0.745   1.418
 4126TIP3    H112323   2.007   0.658   1.427
 4126TIP3    H212324   2.084   0.745   1.330
 4127TIP3   OH212325   6.987   4.428   5.333
 4127TIP3    H112326   7.032   4.351   5.299
 4127TIP3    H212327   7.052   4.470   5.389
 4128TIP3   OH212328   5.923   5.901   0.820
 4128TIP3    H112329   5.870   5.837   0.773
 4128TIP3    H212330   5.960   5.957   0.752
 4129TIP3   OH212331   6.375   3.165   4.452
 4129TIP3    H112332   6.298   3.153   4.508
 4129TIP3    H212333   6.378   3.259   4.434
 4130TIP3   OH212334   7.728   7.673   3.273
 4130TIP3    H112335   7.734   7.582   3.244
 4130TIP3    H212336   7.680   7.668   3.356
 4131TIP3   OH212337   1.140   2.400   1.676
 4131TIP3    H112338   1.130   2.453   1.597
 4131TIP3    H212339   1.065   2.424   1.731
 4132TIP3   OH212340   1.217   2.849   0.235
 4132TIP3    H112341   1.154   2.883   0.171
 4132TIP3    H212342   1.169   2.781   0.282
 4133TIP3   OH212343   4.868   2.592   5.562
 4133TIP3    H112344   4.821   2.551   5.489
 4133TIP3    H212345   4.814   2.573   5.639
 4134TIP3   OH212346   6.366   0.319   2.197
 4134TIP3    H112347   6.445   0.345   2.244
 4134TIP3    H212348   6.371   0.367   2.114
 4135TIP3   OH212349   3.644   0.760   3.758
 4135TIP3    H112350   3.583   0.745   3.831
 4135TIP3    H212351   3.731   0.753   3.798
 4136TIP3   OH212352   1.462   4.463   1.283
 4136TIP3    H112353   1.533   4.438   1.223
 4136TIP3    H212354   1.477   4.555   1.302
 4137TIP3   OH212355   1.757   7.621   6.174
 4137TIP3    H112356   1.663   7.610   6.159
 4137TIP3    H212357   1.763   7.700   6.229
 4138TIP3   OH212358   6.645   2.212   1.770
 4138TIP3    H112359   6.672   2.148   1.836
 4138TIP3    H212360   6.696   2.189   1.693
 4139TIP3   OH212361   4.542   5.792   3.622
 4139TIP3    H112362   4.475   5.789   3.554
 4139TIP3    H212363   4.602   5.860   3.594
 4140TIP3   OH212364   4.432   4.962   1.070
 4140TIP3    H112365   4.408   4.961   0.977
 4140TIP3    H212366   4.349   4.971   1.116
 4141TIP3   OH212367   2.267   7.348   0.167
 4141TIP3    H112368   2.311   7.267   0.194
 4141TIP3    H212369   2.331   7.417   0.184
 4142TIP3   OH212370   7.588   1.549   3.044
 4142TIP3    H112371   7.503   1.514   3.017
 4142TIP3    H212372   7.650   1.479   3.023
 4143TIP3   OH212373   5.958   7.524   2.070
 4143TIP3    H112374   5.914   7.609   2.073
 4143TIP3    H212375   5.897   7.467   2.023
 4144TIP3   OH212376   0.931   7.794   6.628
 4144TIP3    H112377   0.856   7.741   6.600
 4144TIP3    H212378   0.938   7.778   6.722
 4145TIP3   OH212379   2.863   0.164   4.932
 4145TIP3    H112380   2.957   0.167   4.911
 4145TIP3    H212381   2.820   0.204   4.856
 4146TIP3   OH212382   4.303   0.418   1.428
 4146TIP3    H112383   4.357   0.473   1.371
 4146TIP3    H212384   4.302   0.332   1.384
 4147TIP3   OH212385   5.636   6.280   6.648
 4147TIP3    H112386   5.643   6.262   6.742
 4147TIP3    H212387   5.572   6.216   6.617
 4148TIP3   OH212388   7.391   1.802   1.641
 4148TIP3    H112389   7.387   1.768   1.731
 4148TIP3    H212390   7.444   1.737   1.594
 4149TIP3   OH212391   4.036   2.409   1.669
 4149TIP3    H112392   3.974   2.386   1.600
 4149TIP3    H212393   3.982   2.443   1.740
 4150TIP3   OH212394   8.056   6.181   0.676
 4150TIP3    H112395   8.012   6.109   0.632
 4150TIP3    H212396   7.998   6.203   0.749
 4151TIP3   OH212397   6.819   4.402   1.388
 4151TIP3    H112398   6.793   4.362   1.305
 4151TIP3    H212399   6.761   4.362   1.453
 4152TIP3   OH212400   4.340   2.258   1.252
 4152TIP3    H112401   4.359   2.324   1.319
 4152TIP3    H212402   4.399   2.279   1.180
 4153TIP3   OH212403   8.035   3.766   5.735
 4153TIP3    H112404   7.960   3.725   5.693
 4153TIP3    H212405   8.092   3.791   5.663
 4154TIP3   OH212406   7.604   3.592   0.263
 4154TIP3    H112407   7.565   3.530   0.201
 4154TIP3    H212408   7.531   3.641   0.299
 4155TIP3   OH212409   7.138   1.846   1.556
 4155TIP3    H112410   7.115   1.938   1.543
 4155TIP3    H212411   7.232   1.847   1.574
 4156TIP3   OH212412   7.357   2.705   5.960
 4156TIP3    H112413   7.448   2.687   5.936
 4156TIP3    H212414   7.325   2.764   5.892
 4157TIP3   OH212415   1.008   6.114   2.811
 4157TIP3    H112416   1.040   6.090   2.724
 4157TIP3    H212417   0.953   6.191   2.796
 4158TIP3   OH212418   1.137   0.710   1.609
 4158TIP3    H112419   1.229   0.692   1.630
 4158TIP3    H212420   1.119   0.653   1.534
 4159TIP3   OH212421   1.098   6.085   0.593
 4159TIP3    H112422   1.090   6.174   0.559
 4159TIP3    H212423   1.113   6.031   0.515
 4160TIP3   OH212424   7.159   3.176   4.354
 4160TIP3    H112425   7.135   3.083   4.352
 4160TIP3    H212426   7.232   3.181   4.415
 4161TIP3   OH212427   6.332   2.033   0.988
 4161TIP3    H112428   6.284   1.954   1.012
 4161TIP3    H212429   6.280   2.072   0.918
 4162TIP3   OH212430   1.228   6.528   4.833
 4162TIP3    H112431   1.241   6.449   4.885
 4162TIP3    H212432   1.311   6.540   4.787
 4163TIP3   OH212433   3.832   3.319   5.260
 4163TIP3    H112434   3.908   3.368   5.292
 4163TIP3    H212435   3.820   3.249   5.324
 4164TIP3   OH212436   7.877   2.674   0.399
 4164TIP3    H112437   7.875   2.683   0.494
 4164TIP3    H212438   7.950   2.730   0.371
 4165TIP3   OH212439   2.948   1.808   2.939
 4165TIP3    H112440   2.993   1.827   3.021
 4165TIP3    H212441   2.930   1.894   2.901
 4166TIP3   OH212442   7.719   4.161   1.752
 4166TIP3    H112443   7.627   4.142   1.769
 4166TIP3    H212444   7.761   4.075   1.746
 4167TIP3   OH212445   4.021   6.848   3.895
 4167TIP3    H112446   4.087   6.904   3.938
 4167TIP3    H212447   4.037   6.761   3.931
 4168TIP3   OH212448   3.192   3.190   1.948
 4168TIP3    H112449   3.254   3.222   2.013
 4168TIP3    H212450   3.228   3.106   1.920
 4169TIP3   OH212451   6.649   2.667   6.651
 4169TIP3    H112452   6.659   2.592   6.592
 4169TIP3    H212453   6.733   2.674   6.696
 4170TIP3   OH212454   1.813   4.238   0.768
 4170TIP3    H112455   1.775   4.320   0.737
 4170TIP3    H212456   1.810   4.179   0.693
 4171TIP3   OH212457   0.857   5.187   5.000
 4171TIP3    H112458   0.906   5.146   5.071
 4171TIP3    H212459   0.921   5.244   4.957
 4172TIP3   OH212460   3.389   3.092   2.791
 4172TIP3    H112461   3.457   3.062   2.731
 4172TIP3    H212462   3.307   3.075   2.745
 4173TIP3   OH212463   1.155   4.937   3.995
 4173TIP3    H112464   1.234   4.883   3.990
 4173TIP3    H212465   1.188   5.027   4.001
 4174TIP3   OH212466   5.350   3.135   5.932
 4174TIP3    H112467   5.415   3.076   5.970
 4174TIP3    H212468   5.400   3.190   5.872
 4175TIP3   OH212469   4.179   2.712   1.429
 4175TIP3    H112470   4.152   2.654   1.357
 4175TIP3    H212471   4.229   2.656   1.488
 4176TIP3   OH212472   0.379   1.572   3.930
 4176TIP3    H112473   0.394   1.508   3.860
 4176TIP3    H212474   0.285   1.591   3.925
 4177TIP3   OH212475   7.003   1.191   3.653
 4177TIP3    H112476   7.055   1.146   3.720
 4177TIP3    H212477   6.966   1.120   3.600
 4178TIP3   OH212478   0.162   3.715   0.766
 4178TIP3    H112479   0.166   3.788   0.705
 4178TIP3    H212480   0.115   3.750   0.842
 4179TIP3   OH212481   4.413   3.097   4.715
 4179TIP3    H112482   4.432   3.028   4.652
 4179TIP3    H212483   4.348   3.059   4.773
 4180TIP3   OH212484   5.097   6.520   3.001
 4180TIP3    H112485   5.169   6.459   3.015
 4180TIP3    H212486   5.057   6.531   3.088
 4181TIP3   OH212487   3.837   4.753   1.880
 4181TIP3    H112488   3.928   4.763   1.909
 4181TIP3    H212489   3.822   4.658   1.881
 4182TIP3   OH212490   1.873   1.597   6.352
 4182TIP3    H112491   1.871   1.684   6.393
 4182TIP3    H212492   1.963   1.589   6.319
 4183TIP3   OH212493   1.392   3.686   3.677
 4183TIP3    H112494   1.352   3.756   3.728
 4183TIP3    H212495   1.337   3.609   3.693
 4184TIP3   OH212496   4.944   0.352   5.191
 4184TIP3    H112497   4.885   0.394   5.128
 4184TIP3    H212498   5.019   0.411   5.196
 4185TIP3   OH212499   2.253   1.510   2.496
 4185TIP3    H112500   2.221   1.591   2.536
 4185TIP3    H212501   2.241   1.443   2.563
 4186TIP3   OH212502   3.151   2.831   5.938
 4186TIP3    H112503   3.185   2.859   5.853
 4186TIP3    H212504   3.203   2.754   5.961
 4187TIP3   OH212505   1.463   2.839   4.625
 4187TIP3    H112506   1.367   2.839   4.625
 4187TIP3    H212507   1.487   2.790   4.704
 4188TIP3   OH212508   3.515   4.131   5.169
 4188TIP3    H112509   3.524   4.119   5.264
 4188TIP3    H212510   3.603   4.113   5.134
 4189TIP3   OH212511   1.398   7.349   0.584
 4189TIP3    H112512   1.428   7.341   0.493
 4189TIP3    H212513   1.468   7.308   0.636
 4190TIP3   OH212514   6.949   3.293   4.927
 4190TIP3    H112515   6.933   3.278   5.020
 4190TIP3    H212516   6.863   3.281   4.886
 4191TIP3   OH212517   4.181   3.730   3.328
 4191TIP3    H112518   4.185   3.691   3.415
 4191TIP3    H212519   4.110   3.794   3.332
 4192TIP3   OH212520   5.894   1.772   0.625
 4192TIP3    H112521   5.837   1.848   0.613
 4192TIP3    H212522   5.834   1.698   0.633
 4193TIP3   OH212523   8.150   5.756   6.785
 4193TIP3    H112524   8.129   5.753   6.692
 4193TIP3    H212525   8.245   5.748   6.788
 4194TIP3   OH212526   5.829   6.769   1.568
 4194TIP3    H112527   5.881   6.748   1.646
 4194TIP3    H212528   5.759   6.704   1.566
 4195TIP3   OH212529   3.828   7.053   1.105
 4195TIP3    H112530   3.752   7.100   1.070
 4195TIP3    H212531   3.851   7.100   1.185
 4196TIP3   OH212532   7.285   1.154   0.250
 4196TIP3    H112533   7.376   1.164   0.279
 4196TIP3    H212534   7.261   1.239   0.215
 4197TIP3   OH212535   2.472   7.823   3.842
 4197TIP3    H112536   2.535   7.757   3.814
 4197TIP3    H212537   2.448   7.870   3.762
 4198TIP3   OH212538   4.510   7.290   1.743
 4198TIP3    H112539   4.417   7.310   1.730
 4198TIP3    H212540   4.534   7.237   1.666
 4199TIP3   OH212541   7.036   3.586   1.567
 4199TIP3    H112542   7.080   3.668   1.586
 4199TIP3    H212543   6.945   3.612   1.547
 4200TIP3   OH212544   7.463   6.699   6.036
 4200TIP3    H112545   7.426   6.626   6.086
 4200TIP3    H212546   7.503   6.658   5.959
 4201TIP3   OH212547   5.371   3.395   4.957
 4201TIP3    H112548   5.418   3.315   4.982
 4201TIP3    H212549   5.308   3.409   5.028
 4202TIP3   OH212550   4.803   4.743   4.106
 4202TIP3    H112551   4.895   4.769   4.098
 4202TIP3    H212552   4.760   4.783   4.030
 4203TIP3   OH212553   3.166   3.379   5.561
 4203TIP3    H112554   3.239   3.361   5.503
 4203TIP3    H212555   3.170   3.473   5.577
 4204TIP3   OH212556   1.622   3.249   3.013
 4204TIP3    H112557   1.692   3.188   2.992
 4204TIP3    H212558   1.561   3.242   2.940
 4205TIP3   OH212559   4.509   4.931   4.441
 4205TIP3    H112560   4.441   4.982   4.397
 4205TIP3    H212561   4.519   4.853   4.387
 4206TIP3   OH212562   7.836   3.687   5.579
 4206TIP3    H112563   7.786   3.613   5.613
 4206TIP3    H212564   7.801   3.700   5.491
 4207TIP3   OH212565   6.676   6.317   1.336
 4207TIP3    H112566   6.626   6.277   1.406
 4207TIP3    H212567   6.768   6.298   1.358
 4208TIP3   OH212568   4.427   7.601   5.111
 4208TIP3    H112569   4.354   7.654   5.144
 4208TIP3    H212570   4.496   7.665   5.091
 4209TIP3   OH212571   1.075   5.724   5.317
 4209TIP3    H112572   1.025   5.720   5.399
 4209TIP3    H212573   1.059   5.813   5.284
 4210TIP3   OH212574   4.480   4.511   1.897
 4210TIP3    H112575   4.465   4.455   1.974
 4210TIP3    H212576   4.545   4.574   1.927
 4211TIP3   OH212577   4.211   5.449   2.214
 4211TIP3    H112578   4.172   5.444   2.127
 4211TIP3    H212579   4.303   5.471   2.198
 4212TIP3   OH212580   5.857   0.211   0.838
 4212TIP3    H112581   5.828   0.258   0.760
 4212TIP3    H212582   5.891   0.278   0.896
 4213TIP3   OH212583   4.523   6.242   5.674
 4213TIP3    H112584   4.559   6.162   5.634
 4213TIP3    H212585   4.477   6.211   5.752
 4214TIP3   OH212586   3.043   2.923   5.184
 4214TIP3    H112587   3.112   2.871   5.226
 4214TIP3    H212588   3.065   3.013   5.205
 4215TIP3   OH212589   2.050   0.762   4.759
 4215TIP3    H112590   2.039   0.754   4.664
 4215TIP3    H212591   2.056   0.671   4.790
 4216TIP3   OH212592   3.490   1.143   0.820
 4216TIP3    H112593   3.576   1.101   0.810
 4216TIP3    H212594   3.505   1.210   0.887
 4217TIP3   OH212595   3.431   5.071   6.354
 4217TIP3    H112596   3.466   5.077   6.265
 4217TIP3    H212597   3.354   5.014   6.346
 4218TIP3   OH212598   0.254   1.309   3.490
 4218TIP3    H112599   0.199   1.242   3.529
 4218TIP3    H212600   0.267   1.281   3.399
 4219TIP3   OH212601   2.037   1.034   5.170
 4219TIP3    H112602   2.076   0.962   5.218
 4219TIP3    H212603   2.037   1.107   5.232
 4220TIP3   OH212604   0.165   4.527   0.000
 4220TIP3    H112605   0.143   4.445  -0.044
 4220TIP3    H212606   0.203   4.501   0.084
 4221TIP3   OH212607   7.786   5.424   5.642
 4221TIP3    H112608   7.854   5.427   5.709
 4221TIP3    H212609   7.727   5.496   5.665
 4222TIP3   OH212610   1.876   1.392   5.455
 4222TIP3    H112611   1.810   1.393   5.386
 4222TIP3    H212612   1.943   1.331   5.423
 4223TIP3   OH212613   1.452   2.834   0.971
 4223TIP3    H112614   1.419   2.812   1.058
 4223TIP3    H212615   1.389   2.795   0.910
 4224TIP3   OH212616   4.073   7.795   6.001
 4224TIP3    H112617   4.144   7.854   6.026
 4224TIP3    H212618   4.033   7.770   6.084
 4225TIP3   OH212619   2.066   0.865   0.008
 4225TIP3    H112620   2.117   0.791   0.039
 4225TIP3    H212621   2.085   0.870  -0.085
 4226TIP3   OH212622   6.433   4.757   5.478
 4226TIP3    H112623   6.442   4.771   5.572
 4226TIP3    H212624   6.430   4.662   5.468
 4227TIP3   OH212625   6.291   6.546   4.579
 4227TIP3    H112626   6.335   6.587   4.504
 4227TIP3    H212627   6.344   6.469   4.598
 4228TIP3   OH212628   3.237   6.874   4.492
 4228TIP3    H112629   3.168   6.920   4.539
 4228TIP3    H212630   3.277   6.817   4.559
 4229TIP3   OH212631   7.352   1.427   1.486
 4229TIP3    H112632   7.312   1.368   1.549
 4229TIP3    H212633   7.279   1.464   1.437
 4230TIP3   OH212634   3.034   5.895   4.274
 4230TIP3    H112635   3.056   5.958   4.343
 4230TIP3    H212636   3.089   5.819   4.291
 4231TIP3   OH212637   0.793   5.463   0.861
 4231TIP3    H112638   0.719   5.403   0.866
 4231TIP3    H212639   0.827   5.468   0.951
 4232TIP3   OH212640   4.607   1.855   5.524
 4232TIP3    H112641   4.624   1.809   5.441
 4232TIP3    H212642   4.693   1.861   5.565
 4233TIP3   OH212643   2.638   0.346   1.821
 4233TIP3    H112644   2.642   0.260   1.863
 4233TIP3    H212645   2.710   0.345   1.757
 4234TIP3   OH212646   0.892   7.726   1.177
 4234TIP3    H112647   0.874   7.700   1.267
 4234TIP3    H212648   0.835   7.670   1.124
 4235TIP3   OH212649   0.322   4.832   6.556
 4235TIP3    H112650   0.344   4.739   6.564
 4235TIP3    H212651   0.405   4.878   6.571
 4236TIP3   OH212652   1.497   3.464   4.185
 4236TIP3    H112653   1.459   3.378   4.201
 4236TIP3    H212654   1.467   3.518   4.259
 4237TIP3   OH212655   5.466   2.973   6.373
 4237TIP3    H112656   5.435   3.051   6.327
 4237TIP3    H212657   5.420   2.974   6.456
 4238TIP3   OH212658   7.344   0.163   5.469
 4238TIP3    H112659   7.383   0.249   5.488
 4238TIP3    H212660   7.312   0.132   5.554
 4239TIP3   OH212661   4.160   3.705   5.078
 4239TIP3    H112662   4.174   3.729   5.170
 4239TIP3    H212663   4.111   3.622   5.082
 4240TIP3   OH212664   5.804   5.633   2.217
 4240TIP3    H112665   5.803   5.598   2.128
 4240TIP3    H212666   5.828   5.725   2.207
 4241TIP3   OH212667   3.892   2.600   1.290
 4241TIP3    H112668   3.841   2.523   1.265
 4241TIP3    H212669   3.982   2.577   1.267
 4242TIP3   OH212670   3.678   4.615   3.598
 4242TIP3    H112671   3.727   4.662   3.665
 4242TIP3    H212672   3.658   4.681   3.532
 4243TIP3   OH212673   7.271   3.380   3.394
 4243TIP3    H112674   7.232   3.414   3.474
 4243TIP3    H212675   7.354   3.427   3.386
 4244TIP3   OH212676   5.676   6.542   1.486
 4244TIP3    H112677   5.595   6.548   1.538
 4244TIP3    H212678   5.652   6.579   1.401
 4245TIP3   OH212679   4.608   5.266   3.631
 4245TIP3    H112680   4.663   5.344   3.628
 4245TIP3    H212681   4.669   5.195   3.652
 4246TIP3   OH212682   1.590   2.751   2.525
 4246TIP3    H112683   1.634   2.787   2.602
 4246TIP3    H212684   1.623   2.803   2.452
 4247TIP3   OH212685   0.215   0.433   1.154
 4247TIP3    H112686   0.155   0.442   1.081
 4247TIP3    H212687   0.296   0.476   1.124
 4248TIP3   OH212688   4.938   2.175   5.454
 4248TIP3    H112689   4.974   2.209   5.537
 4248TIP3    H212690   4.895   2.093   5.479
 4249TIP3   OH212691   1.135   1.436   5.053
 4249TIP3    H112692   1.109   1.519   5.094
 4249TIP3    H212693   1.121   1.370   5.120
 4250TIP3   OH212694   1.530   6.193   6.294
 4250TIP3    H112695   1.460   6.199   6.229
 4250TIP3    H212696   1.583   6.271   6.280
 4251TIP3   OH212697   6.650   1.753   2.584
 4251TIP3    H112698   6.745   1.762   2.584
 4251TIP3    H212699   6.633   1.666   2.548
 4252TIP3   OH212700   5.966   5.602   1.499
 4252TIP3    H112701   5.949   5.587   1.592
 4252TIP3    H212702   6.056   5.574   1.486
 4253TIP3   OH212703   6.292   4.997   3.198
 4253TIP3    H112704   6.208   5.042   3.207
 4253TIP3    H212705   6.332   5.036   3.121
 4254TIP3   OH212706   1.216   2.460   5.486
 4254TIP3    H112707   1.156   2.535   5.483
 4254TIP3    H212708   1.290   2.490   5.537
 4255TIP3   OH212709   4.632   6.377   6.594
 4255TIP3    H112710   4.657   6.357   6.503
 4255TIP3    H212711   4.662   6.467   6.608
 4256TIP3   OH212712   6.118   4.259   0.351
 4256TIP3    H112713   6.194   4.305   0.315
 4256TIP3    H212714   6.068   4.327   0.397
 4257TIP3   OH212715   3.758   1.912   5.110
 4257TIP3    H112716   3.673   1.932   5.148
 4257TIP3    H212717   3.803   1.997   5.105
 4258TIP3   OH212718   6.862   3.117   6.232
 4258TIP3    H112719   6.841   3.067   6.311
 4258TIP3    H212720   6.953   3.146   6.245
 4259TIP3   OH212721   8.155   5.268   3.963
 4259TIP3    H112722   8.083   5.205   3.967
 4259TIP3    H212723   8.143   5.323   4.040
 4260TIP3   OH212724   0.593   2.588   1.476
 4260TIP3    H112725   0.625   2.498   1.472
 4260TIP3    H212726   0.594   2.617   1.385
 4261TIP3   OH212727   6.155   6.107   3.071
 4261TIP3    H112728   6.250   6.093   3.075
 4261TIP3    H212729   6.138   6.174   3.137
 4262TIP3   OH212730   2.194   4.335   3.637
 4262TIP3    H112731   2.141   4.259   3.659
 4262TIP3    H212732   2.234   4.362   3.720
 4263TIP3   OH212733   3.361   0.730   3.619
 4263TIP3    H112734   3.443   0.708   3.575
 4263TIP3    H212735   3.318   0.646   3.633
 4264TIP3   OH212736   4.908   1.158   1.490
 4264TIP3    H112737   4.992   1.139   1.532
 4264TIP3    H212738   4.914   1.117   1.404
 4265TIP3   OH212739   1.426   7.719   0.624
 4265TIP3    H112740   1.454   7.784   0.689
 4265TIP3    H212741   1.361   7.764   0.572
 4266TIP3   OH212742   6.841   5.472   5.292
 4266TIP3    H112743   6.898   5.548   5.307
 4266TIP3    H212744   6.782   5.500   5.222
 4267TIP3   OH212745   5.778   1.331   3.688
 4267TIP3    H112746   5.854   1.328   3.630
 4267TIP3    H212747   5.768   1.424   3.709
 4268TIP3   OH212748   2.977   3.917   3.707
 4268TIP3    H112749   2.950   3.993   3.758
 4268TIP3    H212750   2.915   3.848   3.731
 4269TIP3   OH212751   1.719   5.806   6.418
 4269TIP3    H112752   1.812   5.821   6.402
 4269TIP3    H212753   1.716   5.747   6.493
 4270TIP3   OH212754   2.554   1.959   5.268
 4270TIP3    H112755   2.471   1.916   5.287
 4270TIP3    H212756   2.603   1.895   5.216
 4271TIP3   OH212757   0.972   0.990   4.369
 4271TIP3    H112758   1.034   1.059   4.394
 4271TIP3    H212759   0.898   1.002   4.429
 4272TIP3   OH212760   4.026   2.799   1.079
 4272TIP3    H112761   4.090   2.786   1.009
 4272TIP3    H212762   4.046   2.730   1.143
 4273TIP3   OH212763   5.066   0.756   0.918
 4273TIP3    H112764   5.066   0.835   0.865
 4273TIP3    H212765   4.973   0.730   0.923
 4274TIP3   OH212766   2.141   4.926   0.138
 4274TIP3    H112767   2.208   4.942   0.205
 4274TIP3    H212768   2.060   4.916   0.188
 4275TIP3   OH212769   2.421   3.506   5.255
 4275TIP3    H112770   2.328   3.512   5.233
 4275TIP3    H212771   2.429   3.423   5.303
 4276TIP3   OH212772   0.413   0.647   0.714
 4276TIP3    H112773   0.377   0.736   0.713
 4276TIP3    H212774   0.337   0.590   0.721
 4277TIP3   OH212775   2.332   0.630   5.183
 4277TIP3    H112776   2.237   0.637   5.175
 4277TIP3    H212777   2.346   0.571   5.256
 4278TIP3   OH212778   2.591   0.856   3.681
 4278TIP3    H112779   2.666   0.843   3.739
 4278TIP3    H212780   2.558   0.944   3.704
 4279TIP3   OH212781   3.839   6.317   4.387
 4279TIP3    H112782   3.812   6.289   4.474
 4279TIP3    H212783   3.935   6.321   4.391
 4280TIP3   OH212784   1.402   3.996   5.043
 4280TIP3    H112785   1.398   4.051   4.965
 4280TIP3    H212786   1.317   3.951   5.045
 4281TIP3   OH212787   5.246   1.199   0.546
 4281TIP3    H112788   5.315   1.180   0.610
 4281TIP3    H212789   5.181   1.249   0.596
 4282TIP3   OH212790   5.384   0.247   1.608
 4282TIP3    H112791   5.306   0.200   1.579
 4282TIP3    H212792   5.408   0.206   1.691
 4283TIP3   OH212793   2.484   3.757   1.817
 4283TIP3    H112794   2.443   3.821   1.875
 4283TIP3    H212795   2.462   3.786   1.729
 4284TIP3   OH212796   1.823   5.370   6.508
 4284TIP3    H112797   1.841   5.363   6.415
 4284TIP3    H212798   1.744   5.318   6.522
 4285TIP3   OH212799   7.917   1.415   0.206
 4285TIP3    H112800   8.003   1.447   0.176
 4285TIP3    H212801   7.856   1.448   0.141
 4286TIP3   OH212802   4.234   0.830   3.809
 4286TIP3    H112803   4.307   0.891   3.814
 4286TIP3    H212804   4.274   0.743   3.815
 4287TIP3   OH212805   3.084   5.698   5.360
 4287TIP3    H112806   3.034   5.617   5.353
 4287TIP3    H212807   3.135   5.703   5.279
 4288TIP3   OH212808   7.597   5.652   4.556
 4288TIP3    H112809   7.674   5.671   4.609
 4288TIP3    H212810   7.619   5.685   4.469
 4289TIP3   OH212811   6.003   4.590   6.395
 4289TIP3    H112812   6.066   4.656   6.365
 4289TIP3    H212813   5.933   4.594   6.330
 4290TIP3   OH212814   4.007   5.451   3.859
 4290TIP3    H112815   4.064   5.455   3.782
 4290TIP3    H212816   3.947   5.378   3.840
 4291TIP3   OH212817   5.531   6.705   4.233
 4291TIP3    H112818   5.583   6.640   4.185
 4291TIP3    H212819   5.594   6.751   4.288
 4292TIP3   OH212820   4.410   5.250   5.938
 4292TIP3    H112821   4.383   5.324   5.884
 4292TIP3    H212822   4.418   5.177   5.876
 4293TIP3   OH212823   6.452   2.519   4.336
 4293TIP3    H112824   6.412   2.439   4.369
 4293TIP3    H212825   6.477   2.499   4.246
 4294TIP3   OH212826   4.530   5.057   4.761
 4294TIP3    H112827   4.451   5.061   4.707
 4294TIP3    H212828   4.532   4.967   4.795
 4295TIP3   OH212829   6.912   2.024   3.790
 4295TIP3    H112830   6.994   2.069   3.772
 4295TIP3    H212831   6.855   2.091   3.828
 4296TIP3   OH212832   7.300   4.145   2.876
 4296TIP3    H112833   7.291   4.211   2.807
 4296TIP3    H212834   7.248   4.178   2.948
 4297TIP3   OH212835   4.047   3.278   2.639
 4297TIP3    H112836   4.081   3.351   2.691
 4297TIP3    H212837   4.125   3.242   2.596
 4298TIP3   OH212838   5.665   7.533   2.500
 4298TIP3    H112839   5.671   7.511   2.593
 4298TIP3    H212840   5.571   7.531   2.482
 4299TIP3   OH212841   2.047   5.675   0.223
 4299TIP3    H112842   2.091   5.702   0.143
 4299TIP3    H212843   2.115   5.676   0.290
 4300TIP3   OH212844   3.545   5.571   6.106
 4300TIP3    H112845   3.616   5.518   6.141
 4300TIP3    H212846   3.587   5.649   6.072
 4301TIP3   OH212847   4.041   3.067   1.632
 4301TIP3    H112848   4.085   2.982   1.639
 4301TIP3    H212849   3.993   3.075   1.714
 4302TIP3   OH212850   4.271   5.703   2.329
 4302TIP3    H112851   4.292   5.749   2.248
 4302TIP3    H212852   4.276   5.611   2.307
 4303TIP3   OH212853   5.425   3.927   4.374
 4303TIP3    H112854   5.338   3.915   4.337
 4303TIP3    H212855   5.416   3.898   4.465
 4304TIP3   OH212856   4.280   1.979   5.888
 4304TIP3    H112857   4.286   2.072   5.869
 4304TIP3    H212858   4.280   1.936   5.803
 4305TIP3   OH212859   4.917   4.072   0.784
 4305TIP3    H112860   4.888   4.002   0.842
 4305TIP3    H212861   4.964   4.026   0.714
 4306TIP3   OH212862   5.392   5.395   0.688
 4306TIP3    H112863   5.394   5.344   0.769
 4306TIP3    H212864   5.427   5.481   0.713
 4307TIP3   OH212865   7.056   5.586   1.133
 4307TIP3    H112866   7.075   5.493   1.142
 4307TIP3    H212867   6.963   5.594   1.154
 4308TIP3   OH212868   3.532   5.755   3.597
 4308TIP3    H112869   3.523   5.781   3.689
 4308TIP3    H212870   3.613   5.704   3.594
 4309TIP3   OH212871   4.284   6.087   4.338
 4309TIP3    H112872   4.372   6.084   4.375
 4309TIP3    H212873   4.262   5.995   4.323
 4310TIP3   OH212874   2.719   2.656   5.669
 4310TIP3    H112875   2.791   2.676   5.609
 4310TIP3    H212876   2.680   2.576   5.633
 4311TIP3   OH212877   1.128   0.173   5.311
 4311TIP3    H112878   1.178   0.174   5.393
 4311TIP3    H212879   1.174   0.110   5.255
 4312TIP3   OH212880   5.390   3.757   4.603
 4312TIP3    H112881   5.304   3.717   4.614
 4312TIP3    H212882   5.452   3.689   4.630
 4313TIP3   OH212883   1.327   2.532   6.122
 4313TIP3    H112884   1.294   2.609   6.169
 4313TIP3    H212885   1.288   2.458   6.168
 4314TIP3   OH212886   7.949   7.131   5.063
 4314TIP3    H112887   7.892   7.071   5.112
 4314TIP3    H212888   7.918   7.219   5.087
 4315TIP3   OH212889   2.712   0.149   6.626
 4315TIP3    H112890   2.795   0.165   6.580
 4315TIP3    H212891   2.656   0.109   6.559
 4316TIP3   OH212892   0.794   6.155   2.440
 4316TIP3    H112893   0.791   6.059   2.436
 4316TIP3    H212894   0.771   6.184   2.352
 4317TIP3   OH212895   4.494   7.696   4.068
 4317TIP3    H112896   4.489   7.758   3.996
 4317TIP3    H212897   4.411   7.706   4.114
 4318TIP3   OH212898   4.735   1.292   6.617
 4318TIP3    H112899   4.817   1.286   6.568
 4318TIP3    H212900   4.679   1.224   6.580
 4319TIP3   OH212901   2.232   2.670   2.623
 4319TIP3    H112902   2.303   2.607   2.612
 4319TIP3    H212903   2.263   2.728   2.692
 4320TIP3   OH212904   3.869   7.047   4.093
 4320TIP3    H112905   3.921   7.059   4.172
 4320TIP3    H212906   3.811   6.973   4.113
 4321TIP3   OH212907   5.323   6.137   0.272
 4321TIP3    H112908   5.228   6.152   0.274
 4321TIP3    H212909   5.354   6.187   0.197
 4322TIP3   OH212910   2.836   0.143   2.880
 4322TIP3    H112911   2.837   0.074   2.946
 4322TIP3    H212912   2.906   0.203   2.906
 4323TIP3   OH212913   7.903   5.747   0.362
 4323TIP3    H112914   7.997   5.728   0.367
 4323TIP3    H212915   7.866   5.702   0.439
 4324TIP3   OH212916   4.321   2.824   5.103
 4324TIP3    H112917   4.277   2.800   5.184
 4324TIP3    H212918   4.386   2.889   5.129
 4325TIP3   OH212919   3.765   5.709   6.622
 4325TIP3    H112920   3.855   5.684   6.642
 4325TIP3    H212921   3.740   5.767   6.694
 4326TIP3   OH212922   1.490   3.316   5.979
 4326TIP3    H112923   1.430   3.390   5.980
 4326TIP3    H212924   1.572   3.351   6.013
 4327TIP3   OH212925   0.344   5.832   2.345
 4327TIP3    H112926   0.410   5.871   2.287
 4327TIP3    H212927   0.392   5.768   2.398
 4328TIP3   OH212928   4.175   5.146   5.633
 4328TIP3    H112929   4.252   5.098   5.605
 4328TIP3    H212930   4.190   5.165   5.726
 4329TIP3   OH212931   4.093   5.766   1.843
 4329TIP3    H112932   4.008   5.734   1.815
 4329TIP3    H212933   4.074   5.850   1.886
 4330TIP3   OH212934   7.176   0.193   4.294
 4330TIP3    H112935   7.265   0.226   4.281
 4330TIP3    H212936   7.182   0.100   4.274
 4331TIP3   OH212937   3.090   6.200   0.739
 4331TIP3    H112938   3.046   6.126   0.779
 4331TIP3    H212939   3.074   6.190   0.645
 4332TIP3   OH212940   0.924   1.324   3.727
 4332TIP3    H112941   0.983   1.306   3.801
 4332TIP3    H212942   0.914   1.419   3.726
 4333TIP3   OH212943   2.819   5.197   2.992
 4333TIP3    H112944   2.866   5.150   2.923
 4333TIP3    H212945   2.844   5.288   2.979
 4334TIP3   OH212946   1.483   7.623   6.333
 4334TIP3    H112947   1.402   7.646   6.286
 4334TIP3    H212948   1.533   7.704   6.336
 4335TIP3   OH212949   1.781   2.970   0.262
 4335TIP3    H112950   1.728   3.047   0.238
 4335TIP3    H212951   1.747   2.944   0.348
 4336TIP3   OH212952   0.308   3.781   6.086
 4336TIP3    H112953   0.294   3.775   5.992
 4336TIP3    H212954   0.223   3.810   6.121
 4337TIP3   OH212955   4.947   1.607   4.837
 4337TIP3    H112956   4.953   1.536   4.901
 4337TIP3    H212957   4.862   1.594   4.794
 4338TIP3   OH212958   1.789   5.178   3.244
 4338TIP3    H112959   1.775   5.151   3.335
 4338TIP3    H212960   1.701   5.194   3.209
 4339TIP3   OH212961   1.468   4.638   3.692
 4339TIP3    H112962   1.468   4.543   3.699
 4339TIP3    H212963   1.415   4.657   3.615
 4340TIP3   OH212964   2.163   6.675   4.969
 4340TIP3    H112965   2.228   6.740   4.943
 4340TIP3    H212966   2.138   6.632   4.887
 4341TIP3   OH212967   3.433   3.890   4.978
 4341TIP3    H112968   3.397   3.853   4.898
 4341TIP3    H212969   3.410   3.827   5.046
 4342TIP3   OH212970   2.602   2.133   5.076
 4342TIP3    H112971   2.544   2.130   5.152
 4342TIP3    H212972   2.670   2.069   5.095
 4343TIP3   OH212973   0.049   6.081   4.361
 4343TIP3    H112974  -0.013   6.033   4.307
 4343TIP3    H212975   0.079   6.016   4.425
 4344TIP3   OH212976   5.628   1.670   4.258
 4344TIP3    H112977   5.663   1.655   4.170
 4344TIP3    H212978   5.574   1.594   4.276
 4345TIP3   OH212979   0.130   6.963   0.486
 4345TIP3    H112980   0.152   7.050   0.520
 4345TIP3    H212981   0.202   6.941   0.427
 4346TIP3   OH212982   0.357   0.270   2.137
 4346TIP3    H112983   0.431   0.226   2.177
 4346TIP3    H212984   0.379   0.274   2.044
 4347TIP3   OH212985   3.167   6.638   0.519
 4347TIP3    H112986   3.208   6.724   0.508
 4347TIP3    H212987   3.204   6.604   0.600
 4348TIP3   OH212988   3.620   2.763   6.467
 4348TIP3    H112989   3.667   2.687   6.430
 4348TIP3    H212990   3.682   2.801   6.529
 4349TIP3   OH212991   4.540   3.019   6.534
 4349TIP3    H112992   4.607   3.056   6.591
 4349TIP3    H212993   4.476   3.089   6.523
 4350TIP3   OH212994   4.016   6.399   1.688
 4350TIP3    H112995   4.005   6.403   1.783
 4350TIP3    H212996   4.092   6.454   1.670
 4351TIP3   OH212997   2.092   5.511   1.035
 4351TIP3    H112998   2.181   5.478   1.032
 4351TIP3    H212999   2.046   5.465   0.965
 4352TIP3   OH213000   4.328   1.661   4.848
 4352TIP3    H113001   4.348   1.699   4.934
 4352TIP3    H213002   4.237   1.635   4.853
 4353TIP3   OH213003   6.775   5.818   5.135
 4353TIP3    H113004   6.858   5.855   5.106
 4353TIP3    H213005   6.711   5.851   5.072
 4354TIP3   OH213006   5.810   2.000   3.742
 4354TIP3    H113007   5.852   1.937   3.683
 4354TIP3    H213008   5.806   2.081   3.691
 4355TIP3   OH213009   4.792   3.389   0.279
 4355TIP3    H113010   4.782   3.306   0.324
 4355TIP3    H213011   4.874   3.381   0.232
 4356TIP3   OH213012   4.553   1.387   5.755
 4356TIP3    H113013   4.473   1.379   5.703
 4356TIP3    H213014   4.601   1.307   5.737
 4357TIP3   OH213015   5.852   6.116   0.207
 4357TIP3    H113016   5.786   6.172   0.247
 4357TIP3    H213017   5.930   6.170   0.202
 4358TIP3   OH213018   7.848   5.445   2.218
 4358TIP3    H113019   7.917   5.383   2.193
 4358TIP3    H213020   7.890   5.531   2.215
 4359TIP3   OH213021   5.978   6.212   1.352
 4359TIP3    H113022   5.960   6.175   1.439
 4359TIP3    H213023   6.063   6.176   1.328
 4360TIP3   OH213024   6.410   3.996   0.976
 4360TIP3    H113025   6.389   4.088   0.958
 4360TIP3    H213026   6.346   3.969   1.042
 4361TIP3   OH213027   2.071   6.435   4.157
 4361TIP3    H113028   2.061   6.343   4.135
 4361TIP3    H213029   2.062   6.481   4.073
 4362TIP3   OH213030   1.908   6.782   5.086
 4362TIP3    H113031   1.971   6.787   5.014
 4362TIP3    H213032   1.955   6.736   5.155
 4363TIP3   OH213033   3.147   1.393   1.744
 4363TIP3    H113034   3.224   1.338   1.731
 4363TIP3    H213035   3.153   1.460   1.676
 4364TIP3   OH213036   7.313   5.820   1.158
 4364TIP3    H113037   7.334   5.841   1.249
 4364TIP3    H213038   7.223   5.851   1.146
 4365TIP3   OH213039   3.341   6.575   1.727
 4365TIP3    H113040   3.320   6.491   1.686
 4365TIP3    H213041   3.255   6.615   1.743
 4366TIP3   OH213042   7.375   4.023   6.558
 4366TIP3    H113043   7.359   3.928   6.559
 4366TIP3    H213044   7.389   4.044   6.466
 4367TIP3   OH213045   5.177   4.990   1.811
 4367TIP3    H113046   5.266   5.022   1.824
 4367TIP3    H213047   5.162   5.001   1.717
 4368TIP3   OH213048   2.980   3.017   2.936
 4368TIP3    H113049   2.993   3.088   2.998
 4368TIP3    H213050   3.068   2.979   2.925
 4369TIP3   OH213051   7.931   7.522   5.562
 4369TIP3    H113052   7.864   7.458   5.585
 4369TIP3    H213053   8.009   7.492   5.608
 4370TIP3   OH213054   7.284   5.024   3.938
 4370TIP3    H113055   7.348   4.965   3.897
 4370TIP3    H213056   7.214   5.031   3.874
 4371TIP3   OH213057   0.132   1.986   1.991
 4371TIP3    H113058   0.151   1.928   1.917
 4371TIP3    H213059   0.068   2.048   1.956
 4372TIP3   OH213060   1.085   7.630   4.440
 4372TIP3    H113061   1.015   7.571   4.469
 4372TIP3    H213062   1.040   7.697   4.389
 4373TIP3   OH213063   8.247   1.345   4.390
 4373TIP3    H113064   8.159   1.329   4.355
 4373TIP3    H213065   8.299   1.366   4.313
 4374TIP3   OH213066   5.811   0.962   1.141
 4374TIP3    H113067   5.775   0.885   1.185
 4374TIP3    H213068   5.783   0.953   1.050
 4375TIP3   OH213069   1.084   5.806   6.363
 4375TIP3    H113070   1.104   5.873   6.429
 4375TIP3    H213071   0.989   5.812   6.351
 4376TIP3   OH213072   3.570   2.258   3.238
 4376TIP3    H113073   3.497   2.309   3.274
 4376TIP3    H213074   3.638   2.262   3.306
 4377TIP3   OH213075   4.503   1.335   0.832
 4377TIP3    H113076   4.446   1.407   0.804
 4377TIP3    H213077   4.577   1.338   0.772
 4378TIP3   OH213078   0.968   7.714   2.232
 4378TIP3    H113079   0.959   7.664   2.313
 4378TIP3    H213080   1.062   7.717   2.215
 4379TIP3   OH213081   5.547   6.360   2.146
 4379TIP3    H113082   5.613   6.367   2.215
 4379TIP3    H213083   5.496   6.282   2.169
 4380TIP3   OH213084   0.514   2.065   1.291
 4380TIP3    H113085   0.475   2.088   1.375
 4380TIP3    H213086   0.499   1.971   1.282
 4381TIP3   OH213087   0.374   1.589   2.000
 4381TIP3    H113088   0.358   1.565   2.091
 4381TIP3    H213089   0.449   1.649   2.004
 4382TIP3   OH213090   1.353   0.220   4.267
 4382TIP3    H113091   1.409   0.221   4.190
 4382TIP3    H213092   1.376   0.140   4.314
 4383TIP3   OH213093   4.269   6.852   4.667
 4383TIP3    H113094   4.208   6.879   4.735
 4383TIP3    H213095   4.323   6.930   4.651
 4384TIP3   OH213096   6.947   2.267   5.807
 4384TIP3    H113097   7.013   2.249   5.740
 4384TIP3    H213098   6.903   2.184   5.821
 4385TIP3   OH213099   2.860   7.753   3.763
 4385TIP3    H113100   2.825   7.689   3.826
 4385TIP3    H213101   2.947   7.721   3.742
 4386TIP3   OH213102   7.390   5.400   1.564
 4386TIP3    H113103   7.464   5.456   1.540
 4386TIP3    H213104   7.315   5.439   1.520
 4387TIP3   OH213105   1.917   0.642   3.825
 4387TIP3    H113106   1.837   0.642   3.877
 4387TIP3    H213107   1.891   0.603   3.741
 4388TIP3   OH213108   5.337   2.577   2.313
 4388TIP3    H113109   5.286   2.539   2.384
 4388TIP3    H213110   5.335   2.672   2.331
 4389TIP3   OH213111   4.515   3.992   3.717
 4389TIP3    H113112   4.519   3.918   3.777
 4389TIP3    H213113   4.602   3.994   3.676
 4390TIP3   OH213114   7.177   0.872   6.579
 4390TIP3    H113115   7.219   0.880   6.493
 4390TIP3    H213116   7.201   0.784   6.609
 4391TIP3   OH213117   1.144   4.567   5.718
 4391TIP3    H113118   1.174   4.657   5.733
 4391TIP3    H213119   1.071   4.556   5.779
 4392TIP3   OH213120   4.690   1.157   3.803
 4392TIP3    H113121   4.738   1.191   3.878
 4392TIP3    H213122   4.705   1.221   3.734
 4393TIP3   OH213123   5.711   3.396   2.420
 4393TIP3    H113124   5.749   3.309   2.421
 4393TIP3    H213125   5.617   3.382   2.424
 4394TIP3   OH213126   7.806   4.939   2.937
 4394TIP3    H113127   7.764   4.932   3.023
 4394TIP3    H213128   7.754   4.880   2.881
 4395TIP3   OH213129   1.912   4.768   6.591
 4395TIP3    H113130   1.958   4.838   6.545
 4395TIP3    H213131   1.872   4.715   6.522
 4396TIP3   OH213132   4.934   4.996   4.939
 4396TIP3    H113133   4.937   4.902   4.920
 4396TIP3    H213134   4.948   5.002   5.033
 4397TIP3   OH213135   7.132   6.111   6.174
 4397TIP3    H113136   7.195   6.156   6.119
 4397TIP3    H213137   7.172   6.025   6.190
 4398TIP3   OH213138   4.116   7.265   3.332
 4398TIP3    H113139   4.121   7.199   3.401
 4398TIP3    H213140   4.207   7.287   3.313
 4399TIP3   OH213141   1.751   1.704   3.177
 4399TIP3    H113142   1.698   1.761   3.121
 4399TIP3    H213143   1.807   1.763   3.226
 4400TIP3   OH213144   3.417   7.822   2.889
 4400TIP3    H113145   3.443   7.734   2.862
 4400TIP3    H213146   3.492   7.855   2.938
 4401TIP3   OH213147   6.149   4.290   5.374
 4401TIP3    H113148   6.088   4.226   5.412
 4401TIP3    H213149   6.111   4.375   5.396
 4402TIP3   OH213150   4.700   2.730   5.136
 4402TIP3    H113151   4.664   2.795   5.197
 4402TIP3    H213152   4.723   2.656   5.191
 4403TIP3   OH213153   4.769   1.355   1.091
 4403TIP3    H113154   4.715   1.312   1.157
 4403TIP3    H213155   4.711   1.363   1.015
 4404TIP3   OH213156   4.462   7.219   3.668
 4404TIP3    H113157   4.409   7.223   3.747
 4404TIP3    H213158   4.528   7.152   3.687
 4405TIP3   OH213159   7.502   6.828   2.755
 4405TIP3    H113160   7.471   6.809   2.667
 4405TIP3    H213161   7.585   6.780   2.763
 4406TIP3   OH213162   3.634   0.173   1.960
 4406TIP3    H113163   3.726   0.161   1.982
 4406TIP3    H213164   3.594   0.207   2.040
 4407TIP3   OH213165   5.752   4.381   1.132
 4407TIP3    H113166   5.758   4.449   1.200
 4407TIP3    H213167   5.818   4.316   1.157
 4408TIP3   OH213168   2.991   2.825   2.700
 4408TIP3    H113169   2.946   2.742   2.714
 4408TIP3    H213170   2.955   2.883   2.766
 4409TIP3   OH213171   1.303   0.946   4.564
 4409TIP3    H113172   1.227   0.907   4.607
 4409TIP3    H213173   1.279   1.038   4.552
 4410TIP3   OH213174   8.066   4.631   4.420
 4410TIP3    H113175   8.068   4.725   4.403
 4410TIP3    H213176   7.973   4.609   4.422
 4411TIP3   OH213177   2.502   3.514   6.379
 4411TIP3    H113178   2.465   3.519   6.291
 4411TIP3    H213179   2.436   3.555   6.435
 4412TIP3   OH213180   5.066   7.608   5.811
 4412TIP3    H113181   5.099   7.671   5.876
 4412TIP3    H213182   5.125   7.534   5.817
 4413TIP3   OH213183   1.327   4.324   5.785
 4413TIP3    H113184   1.398   4.356   5.840
 4413TIP3    H213185   1.283   4.403   5.754
 4414TIP3   OH213186   0.331   5.927   4.766
 4414TIP3    H113187   0.373   5.975   4.838
 4414TIP3    H213188   0.319   5.838   4.801
 4415TIP3   OH213189   4.390   4.741   2.186
 4415TIP3    H113190   4.386   4.827   2.229
 4415TIP3    H213191   4.388   4.762   2.092
 4416TIP3   OH213192   6.127   6.245   3.296
 4416TIP3    H113193   6.081   6.170   3.333
 4416TIP3    H213194   6.103   6.319   3.353
 4417TIP3   OH213195   6.987   7.182   5.039
 4417TIP3    H113196   7.043   7.173   5.116
 4417TIP3    H213197   6.913   7.123   5.056
 4418TIP3   OH213198   3.907   0.557   5.061
 4418TIP3    H113199   3.909   0.476   5.112
 4418TIP3    H213200   3.923   0.529   4.971
 4419TIP3   OH213201   3.265   1.154   3.384
 4419TIP3    H113202   3.223   1.097   3.449
 4419TIP3    H213203   3.337   1.102   3.349
 4420TIP3   OH213204   3.545   1.677   2.566
 4420TIP3    H113205   3.516   1.659   2.655
 4420TIP3    H213206   3.631   1.719   2.577
 4421TIP3   OH213207   3.688   4.339   1.493
 4421TIP3    H113208   3.632   4.404   1.536
 4421TIP3    H213209   3.626   4.280   1.449
 4422TIP3   OH213210   3.462   3.355   6.521
 4422TIP3    H113211   3.475   3.304   6.442
 4422TIP3    H213212   3.464   3.446   6.492
 4423TIP3   OH213213   5.322   3.809   0.713
 4423TIP3    H113214   5.286   3.753   0.643
 4423TIP3    H213215   5.290   3.769   0.794
 4424TIP3   OH213216   0.760   0.327   4.840
 4424TIP3    H113217   0.850   0.359   4.840
 4424TIP3    H213218   0.713   0.386   4.781
 4425TIP3   OH213219   7.908   2.479   3.225
 4425TIP3    H113220   7.963   2.476   3.147
 4425TIP3    H213221   7.833   2.422   3.204
 4426TIP3   OH213222   4.631   5.760   6.339
 4426TIP3    H113223   4.552   5.709   6.326
 4426TIP3    H213224   4.700   5.709   6.297
 4427TIP3   OH213225   0.883   2.419   5.244
 4427TIP3    H113226   0.814   2.365   5.283
 4427TIP3    H213227   0.847   2.508   5.243
 4428TIP3   OH213228   7.252   7.380   2.445
 4428TIP3    H113229   7.160   7.385   2.474
 4428TIP3    H213230   7.269   7.286   2.437
 4429TIP3   OH213231   1.778   1.486   6.589
 4429TIP3    H113232   1.825   1.514   6.511
 4429TIP3    H213233   1.685   1.497   6.568
 4430TIP3   OH213234   7.227   7.651   0.978
 4430TIP3    H113235   7.192   7.710   0.911
 4430TIP3    H213236   7.208   7.695   1.061
 4431TIP3   OH213237   6.136   4.052   6.442
 4431TIP3    H113238   6.106   4.138   6.470
 4431TIP3    H213239   6.176   4.067   6.356
 4432TIP3   OH213240   2.055   6.894   3.410
 4432TIP3    H113241   2.113   6.934   3.474
 4432TIP3    H213242   2.038   6.806   3.445
 4433TIP3   OH213243   5.347   6.634   5.613
 4433TIP3    H113244   5.296   6.554   5.626
 4433TIP3    H213245   5.304   6.677   5.539
 4434TIP3   OH213246   2.131   3.235   3.635
 4434TIP3    H113247   2.096   3.198   3.554
 4434TIP3    H213248   2.053   3.249   3.690
 4435TIP3   OH213249   3.515   0.078   0.961
 4435TIP3    H113250   3.548   0.037   1.041
 4435TIP3    H213251   3.420   0.061   0.963
 4436TIP3   OH213252   7.453   1.433   0.439
 4436TIP3    H113253   7.515   1.363   0.421
 4436TIP3    H213254   7.507   1.513   0.441
 4437TIP3   OH213255   6.496   1.182   3.908
 4437TIP3    H113256   6.471   1.100   3.865
 4437TIP3    H213257   6.591   1.189   3.894
 4438TIP3   OH213258   3.573   6.047   5.383
 4438TIP3    H113259   3.488   6.089   5.367
 4438TIP3    H213260   3.601   6.018   5.296
 4439TIP3   OH213261   3.240   5.611   2.802
 4439TIP3    H113262   3.224   5.526   2.843
 4439TIP3    H213263   3.251   5.591   2.709
 4440TIP3   OH213264   1.077   7.238   5.298
 4440TIP3    H113265   1.025   7.266   5.373
 4440TIP3    H213266   1.078   7.142   5.304
 4441TIP3   OH213267   6.281   1.471   4.342
 4441TIP3    H113268   6.193   1.509   4.342
 4441TIP3    H213269   6.292   1.434   4.255
 4442TIP3   OH213270   3.418   0.727   3.266
 4442TIP3    H113271   3.334   0.727   3.221
 4442TIP3    H213272   3.451   0.816   3.256
 4443TIP3   OH213273   7.827   1.272   6.181
 4443TIP3    H113274   7.829   1.187   6.226
 4443TIP3    H213275   7.864   1.254   6.094
 4444TIP3   OH213276   4.120   1.291   3.929
 4444TIP3    H113277   4.085   1.213   3.885
 4444TIP3    H213278   4.204   1.263   3.963
 4445TIP3   OH213279   3.254   4.955   6.623
 4445TIP3    H113280   3.193   4.931   6.693
 4445TIP3    H213281   3.209   4.929   6.543
 4446TIP3   OH213282   6.664   7.398   6.495
 4446TIP3    H113283   6.624   7.380   6.410
 4446TIP3    H213284   6.721   7.323   6.511
 4447TIP3   OH213285   5.277   5.268   1.231
 4447TIP3    H113286   5.259   5.361   1.213
 4447TIP3    H213287   5.309   5.268   1.322
 4448TIP3   OH213288   3.135   5.002   3.019
 4448TIP3    H113289   3.204   5.068   3.011
 4448TIP3    H213290   3.094   5.020   3.103
 4449TIP3   OH213291   3.777   6.588   3.774
 4449TIP3    H113292   3.822   6.614   3.694
 4449TIP3    H213293   3.844   6.593   3.842
 4450TIP3   OH213294   6.515   1.992   2.908
 4450TIP3    H113295   6.467   2.003   2.990
 4450TIP3    H213296   6.549   1.903   2.912
 4451TIP3   OH213297   4.958   7.201   2.108
 4451TIP3    H113298   4.916   7.206   2.022
 4451TIP3    H213299   4.930   7.116   2.143
 4452TIP3   OH213300   7.442   1.007   4.108
 4452TIP3    H113301   7.516   0.947   4.119
 4452TIP3    H213302   7.472   1.070   4.042
 4453TIP3   OH213303   0.139   5.035   1.395
 4453TIP3    H113304   0.125   4.985   1.314
 4453TIP3    H213305   0.077   4.997   1.457
 4454TIP3   OH213306   7.749   7.297   4.819
 4454TIP3    H113307   7.727   7.221   4.873
 4454TIP3    H213308   7.704   7.370   4.861
 4455TIP3   OH213309   8.072   6.363   4.356
 4455TIP3    H113310   8.164   6.354   4.332
 4455TIP3    H213311   8.054   6.456   4.346
 4456TIP3   OH213312   4.286   6.126   2.735
 4456TIP3    H113313   4.336   6.078   2.801
 4456TIP3    H213314   4.267   6.060   2.668
 4457TIP3   OH213315   5.358   6.952   1.180
 4457TIP3    H113316   5.428   6.988   1.235
 4457TIP3    H213317   5.403   6.899   1.114
 4458TIP3   OH213318   2.810   1.598   3.246
 4458TIP3    H113319   2.761   1.573   3.167
 4458TIP3    H213320   2.878   1.656   3.214
 4459TIP3   OH213321   7.907   7.560   4.795
 4459TIP3    H113322   7.990   7.515   4.804
 4459TIP3    H213323   7.843   7.491   4.776
 4460TIP3   OH213324   1.224   6.848   2.823
 4460TIP3    H113325   1.252   6.777   2.881
 4460TIP3    H213326   1.140   6.875   2.859
 4461TIP3   OH213327   1.752   6.544   3.278
 4461TIP3    H113328   1.716   6.633   3.280
 4461TIP3    H213329   1.731   6.509   3.364
 4462TIP3   OH213330   0.410   0.669   4.936
 4462TIP3    H113331   0.386   0.712   4.854
 4462TIP3    H213332   0.496   0.632   4.920
 4463TIP3   OH213333   7.925   1.521   3.339
 4463TIP3    H113334   7.929   1.607   3.297
 4463TIP3    H213335   7.885   1.465   3.272
 4464TIP3   OH213336   0.844   4.846   2.246
 4464TIP3    H113337   0.781   4.859   2.317
 4464TIP3    H213338   0.854   4.932   2.206
 4465TIP3   OH213339   0.949   3.337   3.851
 4465TIP3    H113340   0.898   3.279   3.908
 4465TIP3    H213341   0.897   3.343   3.770
 4466TIP3   OH213342   4.258   7.087   4.489
 4466TIP3    H113343   4.295   7.112   4.574
 4466TIP3    H213344   4.328   7.039   4.446
 4467TIP3   OH213345   4.385   6.741   1.159
 4467TIP3    H113346   4.322   6.812   1.172
 4467TIP3    H213347   4.335   6.670   1.120
 4468TIP3   OH213348   3.808   4.116   4.448
 4468TIP3    H113349   3.824   4.036   4.399
 4468TIP3    H213350   3.795   4.183   4.381
 4469TIP3   OH213351   3.838   3.727   1.615
 4469TIP3    H113352   3.899   3.785   1.570
 4469TIP3    H213353   3.753   3.744   1.574
 4470TIP3   OH213354   0.683   0.436   4.360
 4470TIP3    H113355   0.594   0.457   4.330
 4470TIP3    H213356   0.740   0.475   4.294
 4471TIP3   OH213357   1.017   5.111   0.860
 4471TIP3    H113358   0.926   5.116   0.830
 4471TIP3    H213359   1.063   5.178   0.808
 4472TIP3   OH213360   6.301   1.883   0.007
 4472TIP3    H113361   6.301   1.812   0.072
 4472TIP3    H213362   6.393   1.904  -0.005
 4473TIP3   OH213363   4.732   4.699   5.145
 4473TIP3    H113364   4.680   4.630   5.104
 4473TIP3    H213365   4.803   4.714   5.083
 4474TIP3   OH213366   0.670   3.277   2.136
 4474TIP3    H113367   0.589   3.230   2.158
 4474TIP3    H213368   0.642   3.353   2.085
 4475TIP3   OH213369   0.115   6.823   3.164
 4475TIP3    H113370   0.080   6.849   3.249
 4475TIP3    H213371   0.089   6.732   3.154
 4476TIP3   OH213372   0.810   4.454   5.477
 4476TIP3    H113373   0.830   4.362   5.497
 4476TIP3    H213374   0.895   4.498   5.482
 4477TIP3   OH213375   4.868   3.675   6.202
 4477TIP3    H113376   4.866   3.769   6.221
 4477TIP3    H213377   4.856   3.670   6.107
 4478TIP3   OH213378   8.109   4.666   6.589
 4478TIP3    H113379   8.017   4.655   6.562
 4478TIP3    H213380   8.154   4.591   6.552
 4479TIP3   OH213381   6.124   2.514   6.387
 4479TIP3    H113382   6.217   2.538   6.381
 4479TIP3    H213383   6.082   2.591   6.424
 4480TIP3   OH213384   7.788   1.695   2.385
 4480TIP3    H113385   7.797   1.653   2.471
 4480TIP3    H213386   7.844   1.772   2.391
 4481TIP3   OH213387   2.930   7.034   1.491
 4481TIP3    H113388   2.866   7.061   1.425
 4481TIP3    H213389   2.933   7.107   1.553
 4482TIP3   OH213390   7.274   7.747   2.788
 4482TIP3    H113391   7.180   7.761   2.796
 4482TIP3    H213392   7.294   7.769   2.697
 4483TIP3   OH213393   8.171   5.428   4.198
 4483TIP3    H113394   8.185   5.349   4.250
 4483TIP3    H213395   8.080   5.452   4.215
 4484TIP3   OH213396   6.710   4.911   5.734
 4484TIP3    H113397   6.754   4.836   5.694
 4484TIP3    H213398   6.782   4.964   5.769
 4485TIP3   OH213399   5.779   6.206   3.869
 4485TIP3    H113400   5.690   6.176   3.848
 4485TIP3    H213401   5.765   6.284   3.922
 4486TIP3   OH213402   3.836   6.017   6.173
 4486TIP3    H113403   3.927   6.040   6.192
 4486TIP3    H213404   3.801   5.987   6.256
 4487TIP3   OH213405   3.545   1.231   5.118
 4487TIP3    H113406   3.574   1.153   5.165
 4487TIP3    H213407   3.505   1.286   5.185
 4488TIP3   OH213408   3.115   3.051   1.113
 4488TIP3    H113409   3.118   3.111   1.188
 4488TIP3    H213410   3.043   2.991   1.133
 4489TIP3   OH213411   0.576   3.561   0.476
 4489TIP3    H113412   0.549   3.640   0.431
 4489TIP3    H213413   0.496   3.508   0.481
 4490TIP3   OH213414   4.007   2.326   3.180
 4490TIP3    H113415   3.964   2.308   3.097
 4490TIP3    H213416   4.083   2.268   3.181
 4491TIP3   OH213417   2.809   4.035   6.288
 4491TIP3    H113418   2.784   3.943   6.279
 4491TIP3    H213419   2.810   4.051   6.383
 4492TIP3   OH213420   6.955   7.666   0.674
 4492TIP3    H113421   6.885   7.663   0.609
 4492TIP3    H213422   7.033   7.639   0.627
 4493TIP3   OH213423   3.560   5.281   6.015
 4493TIP3    H113424   3.647   5.286   5.976
 4493TIP3    H213425   3.527   5.371   6.013
 4494TIP3   OH213426   5.107   4.576   4.166
 4494TIP3    H113427   5.140   4.652   4.118
 4494TIP3    H213428   5.158   4.502   4.134
 4495TIP3   OH213429   2.956   7.117   0.573
 4495TIP3    H113430   3.046   7.137   0.549
 4495TIP3    H213431   2.903   7.173   0.517
 4496TIP3   OH213432   1.143   3.873   4.956
 4496TIP3    H113433   1.050   3.856   4.966
 4496TIP3    H213434   1.172   3.812   4.888
 4497TIP3   OH213435   4.419   0.019   6.306
 4497TIP3    H113436   4.391   0.043   6.218
 4497TIP3    H213437   4.385   0.089   6.362
 4498TIP3   OH213438   4.465   6.180   6.697
 4498TIP3    H113439   4.507   6.255   6.656
 4498TIP3    H213440   4.392   6.159   6.638
 4499TIP3   OH213441   7.709   7.137   1.626
 4499TIP3    H113442   7.652   7.062   1.612
 4499TIP3    H213443   7.783   7.103   1.676
 4500TIP3   OH213444   7.469   4.211   1.482
 4500TIP3    H113445   7.474   4.305   1.463
 4500TIP3    H213446   7.460   4.207   1.577
 4501TIP3   OH213447   7.092   2.876   4.480
 4501TIP3    H113448   7.028   2.808   4.461
 4501TIP3    H213449   7.046   2.937   4.538
 4502TIP3   OH213450   6.292   0.140   1.168
 4502TIP3    H113451   6.320   0.190   1.091
 4502TIP3    H213452   6.326   0.190   1.242
 4503TIP3   OH213453   3.282   4.085   3.971
 4503TIP3    H113454   3.354   4.128   4.016
 4503TIP3    H213455   3.252   4.150   3.907
 4504TIP3   OH213456   3.978   2.126   5.142
 4504TIP3    H113457   4.065   2.087   5.145
 4504TIP3    H213458   3.986   2.199   5.080
 4505TIP3   OH213459   0.928   5.563   6.166
 4505TIP3    H113460   1.013   5.518   6.171
 4505TIP3    H213461   0.948   5.646   6.122
 4506TIP3   OH213462   5.153   7.286   4.795
 4506TIP3    H113463   5.117   7.197   4.793
 4506TIP3    H213464   5.247   7.273   4.809
 4507TIP3   OH213465   8.177   3.653   1.138
 4507TIP3    H113466   8.124   3.577   1.117
 4507TIP3    H213467   8.265   3.617   1.151
 4508TIP3   OH213468   4.528   6.825   3.023
 4508TIP3    H113469   4.488   6.855   2.941
 4508TIP3    H213470   4.488   6.739   3.039
 4509TIP3   OH213471   1.201   3.006   0.614
 4509TIP3    H113472   1.155   3.025   0.532
 4509TIP3    H213473   1.289   3.041   0.602
 4510TIP3   OH213474   6.700   4.669   2.848
 4510TIP3    H113475   6.724   4.583   2.884
 4510TIP3    H213476   6.711   4.729   2.922
 4511TIP3   OH213477   0.237   3.053   3.047
 4511TIP3    H113478   0.293   3.113   2.999
 4511TIP3    H213479   0.164   3.036   2.987
 4512TIP3   OH213480   6.076   7.185   6.052
 4512TIP3    H113481   6.061   7.100   6.010
 4512TIP3    H213482   6.013   7.244   6.010
 4513TIP3   OH213483   6.172   5.268   0.473
 4513TIP3    H113484   6.100   5.328   0.495
 4513TIP3    H213485   6.243   5.294   0.531
 4514TIP3   OH213486   4.490   5.239   4.979
 4514TIP3    H113487   4.479   5.188   4.898
 4514TIP3    H213488   4.507   5.173   5.046
 4515TIP3   OH213489   4.053   4.657   3.667
 4515TIP3    H113490   4.039   4.625   3.578
 4515TIP3    H213491   3.993   4.604   3.720
 4516TIP3   OH213492   1.684   2.990   6.447
 4516TIP3    H113493   1.620   2.965   6.380
 4516TIP3    H213494   1.747   3.045   6.401
 4517TIP3   OH213495   7.695   6.199   1.434
 4517TIP3    H113496   7.750   6.266   1.474
 4517TIP3    H213497   7.724   6.117   1.474
 4518TIP3   OH213498   3.926   7.230   4.826
 4518TIP3    H113499   3.983   7.304   4.808
 4518TIP3    H213500   3.844   7.269   4.856
 4519TIP3   OH213501   6.027   3.355   1.055
 4519TIP3    H113502   5.974   3.400   1.120
 4519TIP3    H213503   5.979   3.364   0.973
 4520TIP3   OH213504   6.141   2.203   4.137
 4520TIP3    H113505   6.136   2.148   4.059
 4520TIP3    H213506   6.197   2.155   4.197
 4521TIP3   OH213507   0.379   3.775   6.359
 4521TIP3    H113508   0.357   3.777   6.266
 4521TIP3    H213509   0.414   3.687   6.374
 4522TIP3   OH213510   1.717   2.145   1.882
 4522TIP3    H113511   1.716   2.239   1.865
 4522TIP3    H213512   1.624   2.121   1.888
 4523TIP3   OH213513   2.313   3.651   4.293
 4523TIP3    H113514   2.366   3.600   4.354
 4523TIP3    H213515   2.354   3.637   4.208
 4524TIP3   OH213516   5.801   7.220   2.524
 4524TIP3    H113517   5.821   7.260   2.440
 4524TIP3    H213518   5.859   7.144   2.529
 4525TIP3   OH213519   7.274   2.487   6.118
 4525TIP3    H113520   7.278   2.566   6.063
 4525TIP3    H213521   7.188   2.493   6.161
 4526TIP3   OH213522   1.242   7.229   2.720
 4526TIP3    H113523   1.180   7.172   2.675
 4526TIP3    H213524   1.258   7.187   2.804
 4527TIP3   OH213525   4.532   3.556   6.150
 4527TIP3    H113526   4.614   3.579   6.194
 4527TIP3    H213527   4.469   3.547   6.221
 4528TIP3   OH213528   5.329   2.460   4.898
 4528TIP3    H113529   5.239   2.492   4.902
 4528TIP3    H213530   5.324   2.377   4.851
 4529TIP3   OH213531   1.501   4.895   5.991
 4529TIP3    H113532   1.435   4.900   6.060
 4529TIP3    H213533   1.562   4.966   6.011
 4530TIP3   OH213534   3.419   7.064   4.718
 4530TIP3    H113535   3.339   7.115   4.711
 4530TIP3    H213536   3.460   7.095   4.798
 4531TIP3   OH213537   7.933   6.973   4.410
 4531TIP3    H113538   7.934   7.062   4.444
 4531TIP3    H213539   7.842   6.957   4.386
 4532TIP3   OH213540   6.585   3.335   3.012
 4532TIP3    H113541   6.516   3.369   3.070
 4532TIP3    H213542   6.602   3.407   2.951
 4533TIP3   OH213543   3.645   1.879   0.480
 4533TIP3    H113544   3.696   1.949   0.441
 4533TIP3    H213545   3.555   1.898   0.456
 4534TIP3   OH213546   8.116   5.140   1.328
 4534TIP3    H113547   8.067   5.079   1.383
 4534TIP3    H213548   8.159   5.199   1.390
 4535TIP3   OH213549   7.891   7.371   4.383
 4535TIP3    H113550   7.828   7.346   4.450
 4535TIP3    H213551   7.908   7.464   4.400
 4536TIP3   OH213552   4.371   6.628   0.377
 4536TIP3    H113553   4.362   6.659   0.467
 4536TIP3    H213554   4.333   6.697   0.323
 4537TIP3   OH213555   4.210   2.283   0.875
 4537TIP3    H113556   4.201   2.361   0.821
 4537TIP3    H213557   4.190   2.210   0.815
 4538TIP3   OH213558   4.543   4.568   0.834
 4538TIP3    H113559   4.467   4.531   0.879
 4538TIP3    H213560   4.605   4.589   0.904
 4539TIP3   OH213561   7.089   3.687   6.208
 4539TIP3    H113562   7.071   3.594   6.196
 4539TIP3    H213563   7.012   3.732   6.172
 4540TIP3   OH213564   6.605   6.844   2.558
 4540TIP3    H113565   6.643   6.769   2.602
 4540TIP3    H213566   6.647   6.845   2.472
 4541TIP3   OH213567   4.917   7.658   5.534
 4541TIP3    H113568   4.981   7.648   5.604
 4541TIP3    H213569   4.882   7.746   5.546
 4542TIP3   OH213570   6.663   7.520   1.108
 4542TIP3    H113571   6.645   7.528   1.202
 4542TIP3    H213572   6.726   7.448   1.102
 4543TIP3   OH213573   7.957   1.330   4.272
 4543TIP3    H113574   7.967   1.409   4.219
 4543TIP3    H213575   7.913   1.267   4.214
 4544TIP3   OH213576   3.002   1.240   1.200
 4544TIP3    H113577   3.031   1.332   1.200
 4544TIP3    H213578   3.082   1.190   1.193
 4545TIP3   OH213579   2.486   5.455  -0.001
 4545TIP3    H113580   2.412   5.461   0.060
 4545TIP3    H213581   2.564   5.462   0.055
 4546TIP3   OH213582   0.185   0.513   2.853
 4546TIP3    H113583   0.260   0.455   2.843
 4546TIP3    H213584   0.140   0.507   2.768
 4547TIP3   OH213585   3.948   5.666   4.486
 4547TIP3    H113586   3.876   5.722   4.513
 4547TIP3    H213587   3.989   5.638   4.568
 4548TIP3   OH213588   7.135   0.468   1.548
 4548TIP3    H113589   7.189   0.521   1.489
 4548TIP3    H213590   7.066   0.433   1.492
 4549TIP3   OH213591   7.156   7.029   5.829
 4549TIP3    H113592   7.217   6.960   5.803
 4549TIP3    H213593   7.069   6.988   5.824
 4550TIP3   OH213594   1.238   2.835   3.715
 4550TIP3    H113595   1.165   2.775   3.700
 4550TIP3    H213596   1.310   2.778   3.741
 4551TIP3   OH213597   5.430   4.331   0.791
 4551TIP3    H113598   5.492   4.321   0.863
 4551TIP3    H213599   5.365   4.261   0.805
 4552TIP3   OH213600   5.213   1.934   6.684
 4552TIP3    H113601   5.211   1.909   6.592
 4552TIP3    H213602   5.306   1.945   6.704
 4553TIP3   OH213603   1.543   0.512   3.457
 4553TIP3    H113604   1.456   0.491   3.423
 4553TIP3    H213605   1.557   0.448   3.527
 4554TIP3   OH213606   5.424   6.572   5.851
 4554TIP3    H113607   5.509   6.547   5.815
 4554TIP3    H213608   5.384   6.626   5.782
 4555TIP3   OH213609   1.952   0.476   0.593
 4555TIP3    H113610   1.893   0.437   0.528
 4555TIP3    H213611   2.038   0.475   0.551
 4556TIP3   OH213612   3.416   4.581   5.051
 4556TIP3    H113613   3.485   4.521   5.023
 4556TIP3    H213614   3.358   4.527   5.104
 4557TIP3   OH213615   3.820   4.078   5.558
 4557TIP3    H113616   3.890   4.014   5.545
 4557TIP3    H213617   3.799   4.073   5.651
 4558TIP3   OH213618   2.950   2.353   5.270
 4558TIP3    H113619   2.897   2.282   5.306
 4558TIP3    H213620   3.040   2.327   5.287
 4559TIP3   OH213621   2.888   0.870   0.635
 4559TIP3    H113622   2.860   0.951   0.679
 4559TIP3    H213623   2.848   0.875   0.548
 4560TIP3   OH213624   4.063   4.261   1.219
 4560TIP3    H113625   3.981   4.310   1.214
 4560TIP3    H213626   4.072   4.239   1.311
 4561TIP3   OH213627   3.347   5.955   0.623
 4561TIP3    H113628   3.299   5.872   0.613
 4561TIP3    H213629   3.438   5.933   0.605
 4562TIP3   OH213630   3.836   2.579   2.407
 4562TIP3    H113631   3.803   2.593   2.318
 4562TIP3    H213632   3.931   2.574   2.398
 4563TIP3   OH213633   0.296   7.540   5.170
 4563TIP3    H113634   0.245   7.589   5.105
 4563TIP3    H213635   0.372   7.595   5.187
 4564TIP3   OH213636   5.049   0.934   3.973
 4564TIP3    H113637   5.051   0.939   3.877
 4564TIP3    H213638   4.961   0.965   3.996
 4565TIP3   OH213639   3.901   4.581   6.451
 4565TIP3    H113640   3.837   4.530   6.501
 4565TIP3    H213641   3.927   4.651   6.511
 4566TIP3   OH213642   3.435   0.333   2.768
 4566TIP3    H113643   3.384   0.406   2.802
 4566TIP3    H213644   3.391   0.308   2.687
 4567TIP3   OH213645   1.097   6.933   5.545
 4567TIP3    H113646   1.056   6.855   5.583
 4567TIP3    H213647   1.179   6.941   5.593
 4568TIP3   OH213648   1.697   3.871   6.338
 4568TIP3    H113649   1.623   3.809   6.342
 4568TIP3    H213650   1.696   3.913   6.424
 4569TIP3   OH213651   5.467   6.100   6.512
 4569TIP3    H113652   5.373   6.085   6.502
 4569TIP3    H213653   5.508   6.039   6.450
 4570TIP3   OH213654   2.777   7.266   0.161
 4570TIP3    H113655   2.714   7.216   0.108
 4570TIP3    H213656   2.786   7.215   0.242
 4571TIP3   OH213657   4.762   1.814   0.557
 4571TIP3    H113658   4.667   1.813   0.553
 4571TIP3    H213659   4.789   1.873   0.487
 4572TIP3   OH213660   4.490   2.220   0.141
 4572TIP3    H113661   4.541   2.143   0.117
 4572TIP3    H213662   4.401   2.187   0.152
 4573TIP3   OH213663   0.749   2.004   0.772
 4573TIP3    H113664   0.790   1.986   0.857
 4573TIP3    H213665   0.729   1.918   0.736
 4574TIP3   OH213666   0.362   5.108   2.775
 4574TIP3    H113667   0.454   5.081   2.784
 4574TIP3    H213668   0.335   5.133   2.863
 4575TIP3   OH213669   5.514   3.242   5.364
 4575TIP3    H113670   5.514   3.183   5.439
 4575TIP3    H213671   5.546   3.325   5.399
 4576TIP3   OH213672   4.821   4.440   2.397
 4576TIP3    H113673   4.750   4.502   2.413
 4576TIP3    H213674   4.819   4.426   2.302
 4577TIP3   OH213675   3.853   1.943   4.464
 4577TIP3    H113676   3.940   1.981   4.452
 4577TIP3    H213677   3.809   2.002   4.524
 4578TIP3   OH213678   6.551   4.406   6.113
 4578TIP3    H113679   6.645   4.421   6.124
 4578TIP3    H213680   6.520   4.483   6.066
 4579TIP3   OH213681   5.240   1.764   1.833
 4579TIP3    H113682   5.275   1.789   1.748
 4579TIP3    H213683   5.149   1.741   1.816
 4580TIP3   OH213684   8.017   6.431   6.364
 4580TIP3    H113685   8.009   6.349   6.412
 4580TIP3    H213686   7.945   6.485   6.396
 4581TIP3   OH213687   7.410   0.416   4.384
 4581TIP3    H113688   7.355   0.463   4.321
 4581TIP3    H213689   7.391   0.457   4.468
 4582TIP3   OH213690   0.829   1.351   1.411
 4582TIP3    H113691   0.896   1.419   1.423
 4582TIP3    H213692   0.870   1.272   1.446
 4583TIP3   OH213693   3.501   2.943   5.333
 4583TIP3    H113694   3.474   2.983   5.250
 4583TIP3    H213695   3.583   2.899   5.313
 4584TIP3   OH213696   2.706   3.021   2.869
 4584TIP3    H113697   2.738   3.084   2.805
 4584TIP3    H213698   2.782   3.001   2.924
 4585TIP3   OH213699   5.234   2.823   4.976
 4585TIP3    H113700   5.140   2.839   4.970
 4585TIP3    H213701   5.259   2.791   4.889
 4586TIP3   OH213702   1.283   7.189   4.114
 4586TIP3    H113703   1.227   7.255   4.155
 4586TIP3    H213704   1.251   7.106   4.149
 4587TIP3   OH213705   8.225   7.593   3.556
 4587TIP3    H113706   8.282   7.547   3.618
 4587TIP3    H213707   8.137   7.586   3.593
 4588TIP3   OH213708   0.744   1.390   4.746
 4588TIP3    H113709   0.733   1.344   4.663
 4588TIP3    H213710   0.693   1.471   4.736
 4589TIP3   OH213711   4.256   5.322   3.177
 4589TIP3    H113712   4.280   5.280   3.260
 4589TIP3    H213713   4.259   5.251   3.113
 4590TIP3   OH213714   4.771   1.415   1.400
 4590TIP3    H113715   4.842   1.379   1.347
 4590TIP3    H213716   4.699   1.354   1.390
 4591TIP3   OH213717   6.095   3.122   2.207
 4591TIP3    H113718   6.168   3.122   2.145
 4591TIP3    H213719   6.097   3.034   2.246
 4592TIP3   OH213720   1.038   6.197   1.333
 4592TIP3    H113721   1.001   6.254   1.400
 4592TIP3    H213722   0.968   6.189   1.268
 4593TIP3   OH213723   0.213   0.803   6.309
 4593TIP3    H113724   0.257   0.786   6.225
 4593TIP3    H213725   0.174   0.890   6.298
 4594TIP3   OH213726   0.403   4.130   3.161
 4594TIP3    H113727   0.447   4.212   3.141
 4594TIP3    H213728   0.411   4.078   3.081
 4595TIP3   OH213729   6.382   6.417   5.250
 4595TIP3    H113730   6.438   6.368   5.190
 4595TIP3    H213731   6.410   6.389   5.338
 4596TIP3   OH213732   4.684   0.583   1.497
 4596TIP3    H113733   4.759   0.641   1.492
 4596TIP3    H213734   4.644   0.602   1.582
 4597TIP3   OH213735   6.941   4.170   5.739
 4597TIP3    H113736   6.876   4.122   5.791
 4597TIP3    H213737   7.004   4.103   5.711
 4598TIP3   OH213738   2.112   5.714   1.221
 4598TIP3    H113739   2.118   5.686   1.312
 4598TIP3    H213740   2.124   5.634   1.169
 4599TIP3   OH213741   7.704   3.945   0.881
 4599TIP3    H113742   7.688   3.878   0.815
 4599TIP3    H213743   7.621   3.955   0.927
 4600TIP3   OH213744   7.151   3.114   3.452
 4600TIP3    H113745   7.156   3.210   3.451
 4600TIP3    H213746   7.068   3.093   3.408
 4601TIP3   OH213747   0.948   1.502   0.030
 4601TIP3    H113748   0.973   1.418  -0.007
 4601TIP3    H213749   1.028   1.535   0.072
 4602TIP3   OH213750   2.193   7.054   1.384
 4602TIP3    H113751   2.233   7.140   1.387
 4602TIP3    H213752   2.245   7.004   1.322
 4603TIP3   OH213753   6.481   6.826   6.776
 4603TIP3    H113754   6.488   6.917   6.805
 4603TIP3    H213755   6.423   6.829   6.700
 4604TIP3   OH213756   3.238   7.208   4.229
 4604TIP3    H113757   3.194   7.129   4.196
 4604TIP3    H213758   3.230   7.271   4.157
 4605TIP3   OH213759   4.158   2.981   6.615
 4605TIP3    H113760   4.079   3.013   6.571
 4605TIP3    H213761   4.177   2.898   6.572
 4606TIP3   OH213762   0.645   6.558   2.669
 4606TIP3    H113763   0.603   6.525   2.748
 4606TIP3    H213764   0.691   6.637   2.697
 4607TIP3   OH213765   5.311   7.442   2.859
 4607TIP3    H113766   5.257   7.517   2.834
 4607TIP3    H213767   5.376   7.480   2.919
 4608TIP3   OH213768   4.681   2.462   3.512
 4608TIP3    H113769   4.633   2.501   3.439
 4608TIP3    H213770   4.683   2.529   3.579
 4609TIP3   OH213771   1.209   3.655   2.001
 4609TIP3    H113772   1.212   3.698   1.916
 4609TIP3    H213773   1.149   3.581   1.989
 4610TIP3   OH213774   2.356   1.869   1.146
 4610TIP3    H113775   2.401   1.949   1.117
 4610TIP3    H213776   2.401   1.798   1.101
 4611TIP3   OH213777   4.764   5.607   3.838
 4611TIP3    H113778   4.683   5.634   3.794
 4611TIP3    H213779   4.833   5.623   3.773
 4612TIP3   OH213780   7.789   2.933   2.563
 4612TIP3    H113781   7.828   2.890   2.487
 4612TIP3    H213782   7.776   3.024   2.536
 4613TIP3   OH213783   0.307   7.779   6.679
 4613TIP3    H113784   0.345   7.846   6.623
 4613TIP3    H213785   0.244   7.733   6.624
 4614TIP3   OH213786   0.434   5.629   6.102
 4614TIP3    H113787   0.403   5.543   6.072
 4614TIP3    H213788   0.527   5.616   6.118
 4615TIP3   OH213789   7.628   0.431   6.285
 4615TIP3    H113790   7.539   0.438   6.250
 4615TIP3    H213791   7.655   0.342   6.263
 4616TIP3   OH213792   0.747   0.736   3.942
 4616TIP3    H113793   0.833   0.776   3.958
 4616TIP3    H213794   0.767   0.646   3.915
 4617TIP3   OH213795   3.885   1.747   5.511
 4617TIP3    H113796   3.912   1.753   5.420
 4617TIP3    H213797   3.885   1.838   5.542
 4618TIP3   OH213798   7.073   4.272   2.050
 4618TIP3    H113799   7.157   4.257   2.092
 4618TIP3    H213800   7.009   4.271   2.122
 4619TIP3   OH213801   2.414   3.020   0.641
 4619TIP3    H113802   2.481   3.055   0.700
 4619TIP3    H213803   2.461   2.957   0.586
 4620TIP3   OH213804   2.633   0.151   5.869
 4620TIP3    H113805   2.631   0.078   5.808
 4620TIP3    H213806   2.690   0.216   5.828
 4621TIP3   OH213807   1.398   7.376   4.734
 4621TIP3    H113808   1.404   7.471   4.727
 4621TIP3    H213809   1.463   7.352   4.800
 4622TIP3   OH213810   2.041   6.006   1.797
 4622TIP3    H113811   2.101   6.027   1.869
 4622TIP3    H213812   2.073   6.056   1.722
 4623TIP3   OH213813   1.395   4.214   3.489
 4623TIP3    H113814   1.381   4.120   3.495
 4623TIP3    H213815   1.462   4.224   3.422
 4624TIP3   OH213816   7.884   2.568   4.500
 4624TIP3    H113817   7.977   2.552   4.518
 4624TIP3    H213818   7.838   2.510   4.560
 4625TIP3   OH213819   7.866   0.355   5.604
 4625TIP3    H113820   7.820   0.398   5.677
 4625TIP3    H213821   7.919   0.425   5.565
 4626TIP3   OH213822   0.536   3.892   0.650
 4626TIP3    H113823   0.447   3.904   0.618
 4626TIP3    H213824   0.546   3.797   0.660
 4627TIP3   OH213825   0.542   6.108   4.708
 4627TIP3    H113826   0.562   6.024   4.749
 4627TIP3    H213827   0.628   6.148   4.692
 4628TIP3   OH213828   4.883   1.811   4.152
 4628TIP3    H113829   4.891   1.778   4.242
 4628TIP3    H213830   4.900   1.735   4.097
 4629TIP3   OH213831   3.749   7.736   1.064
 4629TIP3    H113832   3.768   7.646   1.037
 4629TIP3    H213833   3.681   7.727   1.130
 4630TIP3   OH213834   8.040   6.664   6.566
 4630TIP3    H113835   8.075   6.612   6.639
 4630TIP3    H213836   7.970   6.716   6.604
 4631TIP3   OH213837   7.873   3.477   0.283
 4631TIP3    H113838   7.806   3.517   0.228
 4631TIP3    H213839   7.879   3.534   0.359
 4632TIP3   OH213840   3.897   4.741   3.238
 4632TIP3    H113841   3.877   4.834   3.225
 4632TIP3    H213842   3.947   4.717   3.161
 4633TIP3   OH213843   4.951   6.437   2.350
 4633TIP3    H113844   4.976   6.398   2.267
 4633TIP3    H213845   4.908   6.366   2.398
 4634TIP3   OH213846   5.835   6.823   0.929
 4634TIP3    H113847   5.860   6.904   0.973
 4634TIP3    H213848   5.761   6.790   0.978
 4635TIP3   OH213849   5.353   6.316   1.156
 4635TIP3    H113850   5.334   6.261   1.232
 4635TIP3    H213851   5.349   6.256   1.081
 4636TIP3   OH213852   6.383   1.093   1.920
 4636TIP3    H113853   6.344   1.073   1.835
 4636TIP3    H213854   6.310   1.086   1.982
 4637TIP3   OH213855   0.795   5.827   5.176
 4637TIP3    H113856   0.841   5.745   5.194
 4637TIP3    H213857   0.866   5.890   5.160
 4638TIP3   OH213858   1.766   5.805   0.277
 4638TIP3    H113859   1.795   5.723   0.237
 4638TIP3    H213860   1.751   5.782   0.369
 4639TIP3   OH213861   4.191   6.722   6.379
 4639TIP3    H113862   4.197   6.744   6.286
 4639TIP3    H213863   4.276   6.683   6.399
 4640TIP3   OH213864   1.635   4.575   5.162
 4640TIP3    H113865   1.602   4.649   5.110
 4640TIP3    H213866   1.675   4.616   5.239
 4641TIP3   OH213867   6.871   6.005   3.616
 4641TIP3    H113868   6.783   6.001   3.654
 4641TIP3    H213869   6.924   5.952   3.675
 4642TIP3   OH213870   0.053   6.757   0.780
 4642TIP3    H113871   0.003   6.779   0.702
 4642TIP3    H213872   0.001   6.689   0.824
 4643TIP3   OH213873   5.579   0.321   6.694
 4643TIP3    H113874   5.596   0.246   6.636
 4643TIP3    H213875   5.498   0.359   6.662
 4644TIP3   OH213876   2.704   1.840   5.066
 4644TIP3    H113877   2.714   1.848   4.972
 4644TIP3    H213878   2.741   1.755   5.088
 4645TIP3   OH213879   5.949   6.644   1.983
 4645TIP3    H113880   6.040   6.655   2.010
 4645TIP3    H213881   5.900   6.642   2.065
 4646TIP3   OH213882   6.432   0.946   0.641
 4646TIP3    H113883   6.483   0.896   0.705
 4646TIP3    H213884   6.476   0.929   0.558
 4647TIP3   OH213885   2.072   1.076   1.038
 4647TIP3    H113886   2.090   1.066   0.945
 4647TIP3    H213887   1.994   1.131   1.042
 4648TIP3   OH213888   7.402   7.273   5.739
 4648TIP3    H113889   7.315   7.297   5.772
 4648TIP3    H213890   7.451   7.249   5.818
 4649TIP3   OH213891   6.076   7.138   3.501
 4649TIP3    H113892   6.129   7.080   3.446
 4649TIP3    H213893   6.108   7.121   3.590
 4650TIP3   OH213894   7.498   2.988   3.246
 4650TIP3    H113895   7.415   2.963   3.206
 4650TIP3    H213896   7.528   2.909   3.290
 4651TIP3   OH213897   3.442   6.728   5.084
 4651TIP3    H113898   3.419   6.739   5.176
 4651TIP3    H213899   3.397   6.648   5.057
 4652TIP3   OH213900   5.310   5.657   2.681
 4652TIP3    H113901   5.215   5.669   2.681
 4652TIP3    H213902   5.336   5.676   2.590
 4653TIP3   OH213903   5.976   3.552   6.034
 4653TIP3    H113904   5.960   3.467   6.075
 4653TIP3    H213905   5.897   3.603   6.053
 4654TIP3   OH213906   0.035   0.540   2.340
 4654TIP3    H113907   0.097   0.479   2.301
 4654TIP3    H213908  -0.051   0.505   2.315
 4655TIP3   OH213909   4.317   2.430   4.612
 4655TIP3    H113910   4.289   2.431   4.520
 4655TIP3    H213911   4.410   2.451   4.609
 4656TIP3   OH213912   7.011   1.100   6.611
 4656TIP3    H113913   7.063   1.167   6.656
 4656TIP3    H213914   7.058   1.018   6.628
 4657TIP3   OH213915   4.122   4.475   0.321
 4657TIP3    H113916   4.108   4.489   0.227
 4657TIP3    H213917   4.218   4.472   0.330
 4658TIP3   OH213918   2.067   4.497   3.416
 4658TIP3    H113919   2.149   4.541   3.394
 4658TIP3    H213920   2.084   4.456   3.501
 4659TIP3   OH213921   3.297   5.539   5.531
 4659TIP3    H113922   3.360   5.597   5.488
 4659TIP3    H213923   3.253   5.596   5.594
 4660TIP3   OH213924   7.252   4.570   4.335
 4660TIP3    H113925   7.338   4.572   4.294
 4660TIP3    H213926   7.197   4.519   4.276
 4661TIP3   OH213927   5.529   7.554   5.050
 4661TIP3    H113928   5.514   7.624   5.114
 4661TIP3    H213929   5.609   7.580   5.005
 4662TIP3   OH213930   5.991   7.014   2.486
 4662TIP3    H113931   5.941   6.933   2.490
 4662TIP3    H213932   6.027   7.017   2.398
 4663TIP3   OH213933   3.156   5.926   0.114
 4663TIP3    H113934   3.156   5.891   0.024
 4663TIP3    H213935   3.089   5.994   0.113
 4664TIP3   OH213936   0.267   0.745   5.167
 4664TIP3    H113937   0.224   0.829   5.156
 4664TIP3    H213938   0.326   0.738   5.092
 4665TIP3   OH213939   5.571   4.944   6.506
 4665TIP3    H113940   5.609   5.006   6.569
 4665TIP3    H213941   5.495   4.990   6.471
 4666TIP3   OH213942   3.755   3.200   5.027
 4666TIP3    H113943   3.809   3.227   5.102
 4666TIP3    H213944   3.681   3.261   5.027
 4667TIP3   OH213945   4.117   5.845   5.238
 4667TIP3    H113946   4.141   5.909   5.305
 4667TIP3    H213947   4.195   5.792   5.226
 4668TIP3   OH213948   7.957   1.084   3.883
 4668TIP3    H113949   7.911   1.016   3.834
 4668TIP3    H213950   7.960   1.159   3.823
 4669TIP3   OH213951   5.867   7.038   1.083
 4669TIP3    H113952   5.879   7.032   1.178
 4669TIP3    H213953   5.819   7.119   1.070
 4670TIP3   OH213954   3.764   0.290   0.359
 4670TIP3    H113955   3.727   0.375   0.336
 4670TIP3    H213956   3.827   0.309   0.429
 4671TIP3   OH213957   5.672   4.810   4.413
 4671TIP3    H113958   5.659   4.743   4.346
 4671TIP3    H213959   5.733   4.872   4.373
 4672TIP3   OH213960   4.390   7.559   4.764
 4672TIP3    H113961   4.333   7.622   4.808
 4672TIP3    H213962   4.466   7.610   4.737
 4673TIP3   OH213963   0.217   4.408   2.956
 4673TIP3    H113964   0.171   4.421   3.039
 4673TIP3    H213965   0.210   4.493   2.912
 4674TIP3   OH213966   4.148   7.669   1.086
 4674TIP3    H113967   4.086   7.715   1.029
 4674TIP3    H213968   4.189   7.603   1.029
 4675TIP3   OH213969   0.671   7.344   2.671
 4675TIP3    H113970   0.634   7.368   2.756
 4675TIP3    H213971   0.632   7.406   2.610
 4676TIP3   OH213972   2.105   1.129   2.048
 4676TIP3    H113973   2.167   1.198   2.071
 4676TIP3    H213974   2.159   1.059   2.010
 4677TIP3   OH213975   2.462   4.305   1.623
 4677TIP3    H113976   2.392   4.272   1.679
 4677TIP3    H213977   2.536   4.317   1.682
 4678TIP3   OH213978   2.996   0.755   4.683
 4678TIP3    H113979   2.963   0.704   4.609
 4678TIP3    H213980   2.984   0.846   4.656
 4679TIP3   OH213981   3.113   3.636   4.063
 4679TIP3    H113982   3.199   3.634   4.105
 4679TIP3    H213983   3.129   3.675   3.977
 4680TIP3   OH213984   6.372   0.196   5.676
 4680TIP3    H113985   6.363   0.262   5.744
 4680TIP3    H213986   6.282   0.173   5.653
 4681TIP3   OH213987   7.779   5.692   1.714
 4681TIP3    H113988   7.694   5.648   1.713
 4681TIP3    H213989   7.823   5.658   1.792
 4682TIP3   OH213990   1.084   3.432   4.759
 4682TIP3    H113991   1.083   3.375   4.682
 4682TIP3    H213992   1.136   3.384   4.824
 4683TIP3   OH213993   5.503   6.763   2.873
 4683TIP3    H113994   5.512   6.751   2.967
 4683TIP3    H213995   5.528   6.678   2.835
 4684TIP3   OH213996   4.506   0.211   4.553
 4684TIP3    H113997   4.487   0.140   4.492
 4684TIP3    H213998   4.600   0.228   4.542
 4685TIP3   OH213999   0.402   3.920   1.196
 4685TIP3    H114000   0.439   3.971   1.124
 4685TIP3    H214001   0.326   3.970   1.224
 4686TIP3   OH214002   2.687   6.643   5.063
 4686TIP3    H114003   2.619   6.693   5.109
 4686TIP3    H214004   2.755   6.706   5.043
 4687TIP3   OH214005   7.591   3.428   0.496
 4687TIP3    H114006   7.566   3.340   0.468
 4687TIP3    H214007   7.621   3.471   0.416
 4688TIP3   OH214008   6.316   6.771   0.442
 4688TIP3    H114009   6.247   6.720   0.486
 4688TIP3    H214010   6.300   6.758   0.349
 4689TIP3   OH214011   0.298   3.271   2.806
 4689TIP3    H114012   0.373   3.271   2.746
 4689TIP3    H214013   0.315   3.345   2.864
 4690TIP3   OH214014   8.041   1.013   4.398
 4690TIP3    H114015   8.110   1.046   4.454
 4690TIP3    H214016   7.994   1.091   4.367
 4691TIP3   OH214017   2.564   2.441   4.387
 4691TIP3    H114018   2.497   2.500   4.421
 4691TIP3    H214019   2.597   2.485   4.309
 4692TIP3   OH214020   6.634   1.009   6.093
 4692TIP3    H114021   6.729   1.015   6.084
 4692TIP3    H214022   6.613   1.063   6.169
 4693TIP3   OH214023   7.972   5.407   3.117
 4693TIP3    H114024   8.039   5.361   3.066
 4693TIP3    H214025   7.925   5.337   3.163
 4694TIP3   OH214026   7.579   5.892   0.581
 4694TIP3    H114027   7.604   5.975   0.541
 4694TIP3    H214028   7.564   5.834   0.507
 4695TIP3   OH214029   2.692   1.230   2.302
 4695TIP3    H114030   2.763   1.262   2.358
 4695TIP3    H214031   2.628   1.301   2.301
 4696TIP3   OH214032   6.296   5.701   5.664
 4696TIP3    H114033   6.293   5.769   5.596
 4696TIP3    H214034   6.208   5.663   5.663
 4697TIP3   OH214035   5.237   0.341   4.398
 4697TIP3    H114036   5.164   0.400   4.383
 4697TIP3    H214037   5.305   0.396   4.436
 4698TIP3   OH214038   2.597   1.095   0.217
 4698TIP3    H114039   2.670   1.147   0.183
 4698TIP3    H214040   2.525   1.112   0.156
 4699TIP3   OH214041   6.029   4.327   6.689
 4699TIP3    H114042   5.959   4.347   6.627
 4699TIP3    H214043   6.096   4.393   6.671
 4700TIP3   OH214044   0.214   5.464   4.671
 4700TIP3    H114045   0.193   5.370   4.674
 4700TIP3    H214046   0.194   5.490   4.581
 4701TIP3   OH214047   5.221   6.137   5.587
 4701TIP3    H114048   5.244   6.046   5.602
 4701TIP3    H214049   5.197   6.141   5.495
 4702TIP3   OH214050   0.196   6.785   1.218
 4702TIP3    H114051   0.263   6.745   1.273
 4702TIP3    H214052   0.120   6.727   1.227
 4703TIP3   OH214053   3.071   3.856   3.104
 4703TIP3    H114054   3.130   3.791   3.141
 4703TIP3    H214055   3.128   3.914   3.053
 4704TIP3   OH214056   4.872   1.659   6.446
 4704TIP3    H114057   4.851   1.750   6.465
 4704TIP3    H214058   4.957   1.644   6.487
 4705TIP3   OH214059   3.495   3.610   5.467
 4705TIP3    H114060   3.556   3.618   5.540
 4705TIP3    H214061   3.543   3.563   5.399
 4706TIP3   OH214062   7.088   3.955   4.842
 4706TIP3    H114063   7.083   3.859   4.841
 4706TIP3    H214064   7.011   3.983   4.793
 4707TIP3   OH214065   5.102   7.255   4.511
 4707TIP3    H114066   5.127   7.312   4.583
 4707TIP3    H214067   5.027   7.299   4.469
 4708TIP3   OH214068   7.348   4.399   3.798
 4708TIP3    H114069   7.388   4.392   3.711
 4708TIP3    H214070   7.372   4.485   3.830
 4709TIP3   OH214071   0.131   7.464   3.733
 4709TIP3    H114072   0.135   7.417   3.816
 4709TIP3    H214073   0.170   7.404   3.669
 4710TIP3   OH214074   4.054   4.141   5.158
 4710TIP3    H114075   4.126   4.159   5.097
 4710TIP3    H214076   4.084   4.064   5.206
 4711TIP3   OH214077   6.602   5.447   6.261
 4711TIP3    H114078   6.529   5.408   6.214
 4711TIP3    H214079   6.672   5.454   6.196
 4712TIP3   OH214080   3.523   4.737   2.358
 4712TIP3    H114081   3.558   4.825   2.344
 4712TIP3    H214082   3.429   4.746   2.345
 4713TIP3   OH214083   7.962   3.911   0.743
 4713TIP3    H114084   7.889   3.968   0.769
 4713TIP3    H214085   7.928   3.822   0.756
 4714TIP3   OH214086   1.651   5.375   5.256
 4714TIP3    H114087   1.735   5.421   5.263
 4714TIP3    H214088   1.606   5.397   5.338
 4715TIP3   OH214089   1.073   0.339   3.196
 4715TIP3    H114090   1.082   0.357   3.102
 4715TIP3    H214091   1.008   0.403   3.227
 4716TIP3   OH214092   6.841   1.452   3.929
 4716TIP3    H114093   6.801   1.502   4.000
 4716TIP3    H214094   6.934   1.478   3.931
 4717TIP3   OH214095   2.525   2.867   3.451
 4717TIP3    H114096   2.579   2.850   3.528
 4717TIP3    H214097   2.569   2.818   3.381
 4718TIP3   OH214098   8.153   5.127   5.001
 4718TIP3    H114099   8.100   5.192   5.049
 4718TIP3    H214100   8.092   5.055   4.984
 4719TIP3   OH214101   1.205   3.232   4.948
 4719TIP3    H114102   1.225   3.264   5.036
 4719TIP3    H214103   1.290   3.205   4.913
 4720TIP3   OH214104   6.682   1.935   4.283
 4720TIP3    H114105   6.733   1.878   4.226
 4720TIP3    H214106   6.644   2.001   4.225
 4721TIP3   OH214107   1.269   4.676   2.597
 4721TIP3    H114108   1.297   4.594   2.557
 4721TIP3    H214109   1.350   4.714   2.631
 4722TIP3   OH214110   3.865   5.609   2.026
 4722TIP3    H114111   3.842   5.640   1.938
 4722TIP3    H214112   3.940   5.551   2.013
 4723TIP3   OH214113   3.450   2.380   4.699
 4723TIP3    H114114   3.408   2.305   4.742
 4723TIP3    H214115   3.534   2.389   4.743
 4724TIP3   OH214116   0.938   6.563   3.573
 4724TIP3    H114117   0.907   6.612   3.649
 4724TIP3    H214118   1.019   6.607   3.547
 4725TIP3   OH214119   1.903   1.913   0.356
 4725TIP3    H114120   1.903   1.990   0.299
 4725TIP3    H214121   1.812   1.903   0.383
 4726TIP3   OH214122   2.926   5.446   3.181
 4726TIP3    H114123   2.984   5.510   3.141
 4726TIP3    H214124   2.843   5.457   3.134
 4727TIP3   OH214125   4.615   1.575   3.576
 4727TIP3    H114126   4.696   1.621   3.553
 4727TIP3    H214127   4.607   1.586   3.670
 4728TIP3   OH214128   0.533   7.370   2.914
 4728TIP3    H114129   0.564   7.420   2.990
 4728TIP3    H214130   0.477   7.302   2.952
 4729TIP3   OH214131   5.593   0.861   6.401
 4729TIP3    H114132   5.620   0.772   6.379
 4729TIP3    H214133   5.509   0.850   6.445
 4730TIP3   OH214134   3.820   1.663   4.428
 4730TIP3    H114135   3.817   1.734   4.492
 4730TIP3    H214136   3.891   1.687   4.369
 4731TIP3   OH214137   6.340   0.267   6.732
 4731TIP3    H114138   6.286   0.267   6.653
 4731TIP3    H214139   6.334   0.177   6.765
 4732TIP3   OH214140   3.232   3.401   2.607
 4732TIP3    H114141   3.146   3.365   2.629
 4732TIP3    H214142   3.243   3.381   2.514
 4733TIP3   OH214143   5.968   6.961   6.318
 4733TIP3    H114144   5.920   6.971   6.236
 4733TIP3    H214145   5.983   6.867   6.325
 4734TIP3   OH214146   4.078   4.745   2.004
 4734TIP3    H114147   4.114   4.832   1.989
 4734TIP3    H214148   4.043   4.748   2.093
 4735TIP3   OH214149   4.220   1.165   5.855
 4735TIP3    H114150   4.183   1.133   5.937
 4735TIP3    H214151   4.147   1.164   5.793
 4736TIP3   OH214152   6.553   5.773   1.903
 4736TIP3    H114153   6.495   5.726   1.963
 4736TIP3    H214154   6.636   5.778   1.950
 4737TIP3   OH214155   3.590   0.051   4.010
 4737TIP3    H114156   3.600   0.146   4.023
 4737TIP3    H214157   3.535   0.043   3.932
 4738TIP3   OH214158   3.190   7.460   3.416
 4738TIP3    H114159   3.223   7.550   3.427
 4738TIP3    H214160   3.142   7.443   3.497
 4739TIP3   OH214161   0.376   1.032   2.174
 4739TIP3    H114162   0.385   0.985   2.091
 4739TIP3    H214163   0.459   1.079   2.185
 4740TIP3   OH214164   0.400   5.306   1.734
 4740TIP3    H114165   0.478   5.350   1.769
 4740TIP3    H214166   0.432   5.221   1.705
 4741TIP3   OH214167   1.045   2.673   5.565
 4741TIP3    H114168   1.062   2.740   5.499
 4741TIP3    H214169   1.090   2.704   5.643
 4742TIP3   OH214170   7.182   2.730   2.502
 4742TIP3    H114171   7.200   2.672   2.428
 4742TIP3    H214172   7.151   2.811   2.462
 4743TIP3   OH214173   5.723   1.651   3.755
 4743TIP3    H114174   5.669   1.713   3.805
 4743TIP3    H214175   5.778   1.708   3.700
 4744TIP3   OH214176   4.574   5.740   2.005
 4744TIP3    H114177   4.670   5.732   2.009
 4744TIP3    H214178   4.558   5.794   1.928
 4745TIP3   OH214179   3.214   7.822   0.480
 4745TIP3    H114180   3.171   7.792   0.560
 4745TIP3    H214181   3.142   7.849   0.423
 4746TIP3   OH214182   7.598   2.285   6.565
 4746TIP3    H114183   7.640   2.202   6.587
 4746TIP3    H214184   7.618   2.297   6.472
 4747TIP3   OH214185   6.908   2.243   6.420
 4747TIP3    H114186   6.974   2.266   6.485
 4747TIP3    H214187   6.825   2.274   6.458
 4748TIP3   OH214188   2.970   5.909   1.174
 4748TIP3    H114189   3.061   5.882   1.175
 4748TIP3    H214190   2.968   5.989   1.226
 4749TIP3   OH214191   3.199   7.557   1.230
 4749TIP3    H114192   3.208   7.549   1.135
 4749TIP3    H214193   3.212   7.650   1.247
 4750TIP3   OH214194   4.808   7.329   6.211
 4750TIP3    H114195   4.878   7.290   6.263
 4750TIP3    H214196   4.750   7.256   6.189
 4751TIP3   OH214197   4.653   4.184   4.298
 4751TIP3    H114198   4.676   4.272   4.268
 4751TIP3    H214199   4.644   4.193   4.393
 4752TIP3   OH214200   0.214   4.306   1.577
 4752TIP3    H114201   0.255   4.349   1.502
 4752TIP3    H214202   0.143   4.366   1.604
 4753TIP3   OH214203   4.551   5.854   0.364
 4753TIP3    H114204   4.573   5.885   0.276
 4753TIP3    H214205   4.484   5.916   0.395
 4754TIP3   OH214206   1.203   2.193   5.644
 4754TIP3    H114207   1.286   2.236   5.623
 4754TIP3    H214208   1.189   2.129   5.574
 4755TIP3   OH214209   4.836   2.938   3.099
 4755TIP3    H114210   4.840   2.862   3.157
 4755TIP3    H214211   4.874   3.010   3.151
 4756TIP3   OH214212   6.713   3.771   5.487
 4756TIP3    H114213   6.672   3.689   5.459
 4756TIP3    H214214   6.640   3.833   5.492
 4757TIP3   OH214215   4.252   1.446   5.884
 4757TIP3    H114216   4.287   1.360   5.908
 4757TIP3    H214217   4.242   1.442   5.789
 4758TIP3   OH214218   3.492   5.102   4.516
 4758TIP3    H114219   3.578   5.093   4.556
 4758TIP3    H214220   3.503   5.172   4.451
 4759TIP3   OH214221   3.983   6.579   1.255
 4759TIP3    H114222   4.018   6.495   1.224
 4759TIP3    H214223   4.006   6.641   1.186
 4760TIP3   OH214224   1.237   6.311   5.020
 4760TIP3    H114225   1.285   6.314   5.103
 4760TIP3    H214226   1.260   6.225   4.983
 4761TIP3   OH214227   5.442   0.258   4.258
 4761TIP3    H114228   5.412   0.219   4.175
 4761TIP3    H214229   5.364   0.299   4.295
 4762TIP3   OH214230   6.672   6.282   1.069
 4762TIP3    H114231   6.638   6.294   1.157
 4762TIP3    H214232   6.619   6.340   1.014
 4763TIP3   OH214233   7.520   3.675   6.722
 4763TIP3    H114234   7.473   3.736   6.666
 4763TIP3    H214235   7.455   3.609   6.745
 4764TIP3   OH214236   4.615   3.423   3.937
 4764TIP3    H114237   4.545   3.469   3.983
 4764TIP3    H214238   4.687   3.485   3.935
 4765TIP3   OH214239   4.747   0.768  -0.003
 4765TIP3    H114240   4.691   0.698  -0.034
 4765TIP3    H214241   4.686   0.834   0.031
 4766TIP3   OH214242   8.047   4.691   1.087
 4766TIP3    H114243   8.104   4.638   1.031
 4766TIP3    H214244   8.029   4.770   1.037
 4767TIP3   OH214245   0.912   0.889   0.855
 4767TIP3    H114246   0.980   0.842   0.902
 4767TIP3    H214247   0.865   0.820   0.806
 4768TIP3   OH214248   6.743   4.747   3.130
 4768TIP3    H114249   6.691   4.806   3.185
 4768TIP3    H214250   6.813   4.717   3.187
 4769TIP3   OH214251   1.595   7.555   2.495
 4769TIP3    H114252   1.588   7.650   2.487
 4769TIP3    H214253   1.685   7.540   2.522
 4770TIP3   OH214254   1.030   1.678   5.128
 4770TIP3    H114255   0.966   1.745   5.152
 4770TIP3    H214256   1.087   1.671   5.204
 4771TIP3   OH214257   4.789   3.784   0.500
 4771TIP3    H114258   4.696   3.779   0.523
 4771TIP3    H214259   4.821   3.694   0.510
 4772TIP3   OH214260   7.044   1.365   2.868
 4772TIP3    H114261   7.111   1.433   2.868
 4772TIP3    H214262   6.963   1.413   2.849
 4773TIP3   OH214263   6.078   7.230   0.292
 4773TIP3    H114264   6.105   7.295   0.227
 4773TIP3    H214265   5.995   7.196   0.259
 4774TIP3   OH214266   3.334   5.189   3.056
 4774TIP3    H114267   3.397   5.138   3.005
 4774TIP3    H214268   3.368   5.187   3.145
 4775TIP3   OH214269   2.846   6.813   4.108
 4775TIP3    H114270   2.793   6.736   4.087
 4775TIP3    H214271   2.891   6.833   4.026
 4776TIP3   OH214272   3.315   4.629   6.558
 4776TIP3    H114273   3.380   4.660   6.495
 4776TIP3    H214274   3.253   4.578   6.506
 4777TIP3   OH214275   1.822   4.274   3.841
 4777TIP3    H114276   1.790   4.361   3.820
 4777TIP3    H214277   1.904   4.266   3.791
 4778TIP3   OH214278   5.828   0.133   3.989
 4778TIP3    H114279   5.892   0.140   3.918
 4778TIP3    H214280   5.744   0.122   3.944
 4779TIP3   OH214281   1.088   7.556   2.447
 4779TIP3    H114282   1.181   7.550   2.425
 4779TIP3    H214283   1.053   7.468   2.431
 4780TIP3   OH214284   6.628   0.619   5.711
 4780TIP3    H114285   6.671   0.684   5.655
 4780TIP3    H214286   6.551   0.665   5.745
 4781TIP3   OH214287   1.119   5.775   1.852
 4781TIP3    H114288   1.079   5.862   1.841
 4781TIP3    H214289   1.066   5.733   1.920
 4782TIP3   OH214290   0.811   5.204   0.027
 4782TIP3    H114291   0.855   5.287   0.008
 4782TIP3    H214292   0.879   5.138   0.014
 4783TIP3   OH214293   3.456   2.567   5.024
 4783TIP3    H114294   3.536   2.519   5.042
 4783TIP3    H214295   3.478   2.658   5.045
 4784TIP3   OH214296   3.701   6.641   5.103
 4784TIP3    H114297   3.610   6.671   5.099
 4784TIP3    H214298   3.695   6.546   5.090
 4785TIP3   OH214299   7.709   3.684   6.223
 4785TIP3    H114300   7.703   3.648   6.134
 4785TIP3    H214301   7.693   3.777   6.212
 4786TIP3   OH214302   6.133   0.068   6.311
 4786TIP3    H114303   6.111   0.047   6.402
 4786TIP3    H214304   6.210   0.014   6.292
 4787TIP3   OH214305   1.255   6.390   1.998
 4787TIP3    H114306   1.210   6.343   1.928
 4787TIP3    H214307   1.325   6.437   1.953
 4788TIP3   OH214308   6.564   3.561   5.412
 4788TIP3    H114309   6.594   3.512   5.488
 4788TIP3    H214310   6.490   3.511   5.378
 4789TIP3   OH214311   6.137   1.764   1.526
 4789TIP3    H114312   6.076   1.756   1.599
 4789TIP3    H214313   6.223   1.772   1.567
 4790TIP3   OH214314   6.325   7.250   2.592
 4790TIP3    H114315   6.385   7.179   2.569
 4790TIP3    H214316   6.329   7.310   2.517
 4791TIP3   OH214317   6.467   7.208   1.205
 4791TIP3    H114318   6.448   7.296   1.173
 4791TIP3    H214319   6.412   7.151   1.152
 4792TIP3   OH214320   4.289   4.603   6.271
 4792TIP3    H114321   4.307   4.635   6.359
 4792TIP3    H214322   4.331   4.516   6.268
 4793TIP3   OH214323   5.479   7.352   1.340
 4793TIP3    H114324   5.538   7.299   1.393
 4793TIP3    H214325   5.394   7.307   1.346
 4794TIP3   OH214326   7.653   0.419   0.625
 4794TIP3    H114327   7.673   0.332   0.661
 4794TIP3    H214328   7.734   0.444   0.580
 4795TIP3   OH214329   1.784   6.790   4.182
 4795TIP3    H114330   1.753   6.873   4.144
 4795TIP3    H214331   1.874   6.807   4.207
 4796TIP3   OH214332   2.284   6.238   4.995
 4796TIP3    H114333   2.310   6.270   4.909
 4796TIP3    H214334   2.232   6.159   4.977
 4797TIP3   OH214335   6.613   4.310   1.567
 4797TIP3    H114336   6.530   4.320   1.613
 4797TIP3    H214337   6.641   4.221   1.587
 4798TIP3   OH214338   2.604   3.832   2.373
 4798TIP3    H114339   2.629   3.820   2.464
 4798TIP3    H214340   2.686   3.837   2.325
 4799TIP3   OH214341   4.007   4.783   0.082
 4799TIP3    H114342   4.014   4.828  -0.002
 4799TIP3    H214343   4.089   4.734   0.090
 4800TIP3   OH214344   3.621   0.353   0.590
 4800TIP3    H114345   3.626   0.292   0.516
 4800TIP3    H214346   3.535   0.338   0.628
 4801TIP3   OH214347   4.465   4.863   1.935
 4801TIP3    H114348   4.542   4.813   1.962
 4801TIP3    H214349   4.469   4.862   1.839
 4802TIP3   OH214350   3.506   3.746   1.154
 4802TIP3    H114351   3.432   3.688   1.134
 4802TIP3    H214352   3.495   3.820   1.094
 4803TIP3   OH214353   5.073   5.480   6.646
 4803TIP3    H114354   4.993   5.501   6.597
 4803TIP3    H214355   5.092   5.389   6.622
 4804TIP3   OH214356   5.852   2.445   1.239
 4804TIP3    H114357   5.760   2.452   1.264
 4804TIP3    H214358   5.885   2.535   1.243
 4805TIP3   OH214359   3.030   4.147   0.274
 4805TIP3    H114360   3.101   4.205   0.300
 4805TIP3    H214361   2.963   4.205   0.237
 4806TIP3   OH214362   1.059   6.343   0.480
 4806TIP3    H114363   1.005   6.422   0.488
 4806TIP3    H214364   1.139   6.374   0.437
 4807TIP3   OH214365   8.044   7.103   5.678
 4807TIP3    H114366   8.124   7.052   5.695
 4807TIP3    H214367   7.992   7.094   5.758
 4808TIP3   OH214368   4.191   5.036   6.517
 4808TIP3    H114369   4.220   5.126   6.532
 4808TIP3    H214370   4.238   4.984   6.582
 4809TIP3   OH214371   1.342   0.968   1.061
 4809TIP3    H114372   1.271   1.031   1.071
 4809TIP3    H214373   1.330   0.907   1.134
 4810TIP3   OH214374   0.778   7.083   0.272
 4810TIP3    H114375   0.804   7.157   0.327
 4810TIP3    H214376   0.824   7.008   0.309
 4811TIP3   OH214377   5.246   1.301   2.949
 4811TIP3    H114378   5.236   1.395   2.934
 4811TIP3    H214379   5.338   1.290   2.972
 4812TIP3   OH214380   0.378   7.227   3.926
 4812TIP3    H114381   0.345   7.289   3.991
 4812TIP3    H214382   0.467   7.207   3.955
 4813TIP3   OH214383   5.651   1.791   5.029
 4813TIP3    H114384   5.667   1.885   5.026
 4813TIP3    H214385   5.591   1.775   4.957
 4814TIP3   OH214386   2.154   2.185   1.738
 4814TIP3    H114387   2.119   2.111   1.787
 4814TIP3    H214388   2.210   2.231   1.800
 4815TIP3   OH214389   2.971   5.193   0.104
 4815TIP3    H114390   2.964   5.098   0.117
 4815TIP3    H214391   3.050   5.204   0.051
 4816TIP3   OH214392   4.546   0.245   2.344
 4816TIP3    H114393   4.490   0.323   2.356
 4816TIP3    H214394   4.527   0.215   2.255
 4817TIP3   OH214395   2.604   0.226   2.428
 4817TIP3    H114396   2.516   0.261   2.439
 4817TIP3    H214397   2.660   0.303   2.421
 4818TIP3   OH214398   2.549   6.703   4.420
 4818TIP3    H114399   2.600   6.622   4.426
 4818TIP3    H214400   2.568   6.736   4.332
 4819TIP3   OH214401   0.556   2.651   1.746
 4819TIP3    H114402   0.603   2.582   1.794
 4819TIP3    H214403   0.571   2.630   1.654
 4820TIP3   OH214404   5.227   3.364   0.805
 4820TIP3    H114405   5.202   3.412   0.884
 4820TIP3    H214406   5.313   3.397   0.783
 4821TIP3   OH214407   2.896   3.023   4.767
 4821TIP3    H114408   2.820   3.064   4.725
 4821TIP3    H214409   2.878   2.930   4.766
 4822TIP3   OH214410   5.105   0.453   5.576
 4822TIP3    H114411   5.044   0.399   5.526
 4822TIP3    H214412   5.140   0.515   5.512
 4823TIP3   OH214413   6.430   3.240   3.795
 4823TIP3    H114414   6.490   3.166   3.798
 4823TIP3    H214415   6.348   3.203   3.761
 4824TIP3   OH214416   2.277   4.099   1.112
 4824TIP3    H114417   2.232   4.175   1.148
 4824TIP3    H214418   2.224   4.073   1.037
 4825TIP3   OH214419   3.726   3.025   4.819
 4825TIP3    H114420   3.646   3.044   4.769
 4825TIP3    H214421   3.729   3.094   4.885
 4826TIP3   OH214422   7.806   0.233   2.730
 4826TIP3    H114423   7.789   0.139   2.725
 4826TIP3    H214424   7.816   0.251   2.823
 4827TIP3   OH214425   4.636   7.182   1.392
 4827TIP3    H114426   4.644   7.202   1.299
 4827TIP3    H214427   4.712   7.223   1.433
 4828TIP3   OH214428   6.956   0.981   5.530
 4828TIP3    H114429   6.981   1.014   5.443
 4828TIP3    H214430   7.036   0.988   5.582
 4829TIP3   OH214431   1.387   4.731   6.549
 4829TIP3    H114432   1.382   4.740   6.454
 4829TIP3    H214433   1.428   4.645   6.562
 4830TIP3   OH214434   5.221   0.625   2.368
 4830TIP3    H114435   5.263   0.575   2.438
 4830TIP3    H214436   5.139   0.578   2.351
 4831TIP3   OH214437   3.157   5.943   4.012
 4831TIP3    H114438   3.220   5.872   4.001
 4831TIP3    H214439   3.151   5.956   4.106
 4832TIP3   OH214440   7.655   0.229   4.392
 4832TIP3    H114441   7.605   0.148   4.385
 4832TIP3    H214442   7.591   0.299   4.375
 4833TIP3   OH214443   2.533   3.712   5.781
 4833TIP3    H114444   2.541   3.689   5.689
 4833TIP3    H214445   2.556   3.632   5.828
 4834TIP3   OH214446   1.926   1.699   2.321
 4834TIP3    H114447   1.904   1.606   2.319
 4834TIP3    H214448   1.860   1.738   2.377
 4835TIP3   OH214449   0.075   2.619   1.604
 4835TIP3    H114450   0.086   2.547   1.666
 4835TIP3    H214451   0.022   2.683   1.651
 4836TIP3   OH214452   0.025   2.152   4.422
 4836TIP3    H114453   0.067   2.238   4.425
 4836TIP3    H214454   0.005   2.131   4.513
 4837TIP3   OH214455   3.266   1.024   1.433
 4837TIP3    H114456   3.290   1.116   1.424
 4837TIP3    H214457   3.349   0.977   1.439
 4838TIP3   OH214458   3.848   3.828   4.635
 4838TIP3    H114459   3.852   3.855   4.726
 4838TIP3    H214460   3.794   3.895   4.592
 4839TIP3   OH214461   6.174   0.746   3.039
 4839TIP3    H114462   6.106   0.733   3.105
 4839TIP3    H214463   6.159   0.677   2.975
 4840TIP3   OH214464   3.003   1.016   6.300
 4840TIP3    H114465   2.973   0.942   6.353
 4840TIP3    H214466   3.044   1.075   6.363
 4841TIP3   OH214467   1.500   3.758   1.112
 4841TIP3    H114468   1.410   3.779   1.137
 4841TIP3    H214469   1.502   3.772   1.017
 4842TIP3   OH214470   2.679   3.046   1.490
 4842TIP3    H114471   2.748   2.997   1.533
 4842TIP3    H214472   2.721   3.084   1.412
 4843TIP3   OH214473   0.890   5.561   3.989
 4843TIP3    H114474   0.911   5.470   4.009
 4843TIP3    H214475   0.917   5.573   3.898
 4844TIP3   OH214476   6.355   4.464   6.327
 4844TIP3    H114477   6.389   4.453   6.415
 4844TIP3    H214478   6.430   4.451   6.270
 4845TIP3   OH214479   0.083   0.184   3.510
 4845TIP3    H114480   0.048   0.266   3.475
 4845TIP3    H214481   0.005   0.130   3.526
 4846TIP3   OH214482   6.938   4.363   1.691
 4846TIP3    H114483   7.019   4.315   1.675
 4846TIP3    H214484   6.918   4.405   1.607
 4847TIP3   OH214485   7.122   5.744   0.067
 4847TIP3    H114486   7.172   5.823   0.045
 4847TIP3    H214487   7.122   5.692  -0.014
 4848TIP3   OH214488   2.524   1.371   5.644
 4848TIP3    H114489   2.611   1.372   5.684
 4848TIP3    H214490   2.469   1.322   5.706
 4849TIP3   OH214491   6.798   5.752   0.820
 4849TIP3    H114492   6.842   5.683   0.768
 4849TIP3    H214493   6.710   5.757   0.782
 4850TIP3   OH214494   6.848   1.105   4.358
 4850TIP3    H114495   6.821   1.019   4.327
 4850TIP3    H214496   6.895   1.087   4.439
 4851TIP3   OH214497   4.132   5.169   1.836
 4851TIP3    H114498   4.165   5.099   1.893
 4851TIP3    H214499   4.058   5.130   1.791
 4852TIP3   OH214500   5.785   1.269   0.973
 4852TIP3    H114501   5.837   1.287   1.051
 4852TIP3    H214502   5.835   1.203   0.925
 4853TIP3   OH214503   3.517   6.603   0.374
 4853TIP3    H114504   3.611   6.589   0.370
 4853TIP3    H214505   3.478   6.519   0.347
 4854TIP3   OH214506   2.872   5.907   1.746
 4854TIP3    H114507   2.876   5.965   1.821
 4854TIP3    H214508   2.915   5.956   1.676
 4855TIP3   OH214509   5.524   2.314   4.359
 4855TIP3    H114510   5.586   2.242   4.357
 4855TIP3    H214511   5.443   2.275   4.393
 4856TIP3   OH214512   7.685   2.054   3.210
 4856TIP3    H114513   7.678   2.015   3.297
 4856TIP3    H214514   7.601   2.097   3.197
 4857TIP3   OH214515   1.991   2.707   4.378
 4857TIP3    H114516   1.923   2.775   4.383
 4857TIP3    H214517   2.046   2.722   4.455
 4858TIP3   OH214518   5.318   7.521   4.569
 4858TIP3    H114519   5.398   7.520   4.515
 4858TIP3    H214520   5.342   7.574   4.645
 4859TIP3   OH214521   5.781   4.461   4.070
 4859TIP3    H114522   5.826   4.514   4.135
 4859TIP3    H214523   5.780   4.515   3.991
 4860TIP3   OH214524   3.084   5.732   3.301
 4860TIP3    H114525   3.127   5.710   3.219
 4860TIP3    H214526   3.145   5.701   3.369
 4861TIP3   OH214527   4.548   0.378   0.629
 4861TIP3    H114528   4.494   0.300   0.618
 4861TIP3    H214529   4.636   0.350   0.604
 4862TIP3   OH214530   8.239   5.520   2.696
 4862TIP3    H114531   8.267   5.429   2.711
 4862TIP3    H214532   8.234   5.528   2.601
 4863TIP3   OH214533   3.237   0.712   0.107
 4863TIP3    H114534   3.255   0.805   0.092
 4863TIP3    H214535   3.299   0.686   0.175
 4864TIP3   OH214536   3.570   1.529   4.503
 4864TIP3    H114537   3.636   1.596   4.484
 4864TIP3    H214538   3.603   1.485   4.581
 4865TIP3   OH214539   4.654   0.859   3.783
 4865TIP3    H114540   4.585   0.832   3.844
 4865TIP3    H214541   4.624   0.943   3.750
 4866TIP3   OH214542   4.440   6.525   3.383
 4866TIP3    H114543   4.433   6.618   3.406
 4866TIP3    H214544   4.356   6.488   3.407
 4867TIP3   OH214545   5.723   0.225   0.319
 4867TIP3    H114546   5.702   0.159   0.253
 4867TIP3    H214547   5.741   0.304   0.268
 4868TIP3   OH214548   3.006   4.347   6.627
 4868TIP3    H114549   2.958   4.285   6.572
 4868TIP3    H214550   3.096   4.344   6.592
 4869TIP3   OH214551   3.917   2.348   4.969
 4869TIP3    H114552   4.003   2.388   4.978
 4869TIP3    H214553   3.913   2.321   4.877
 4870TIP3   OH214554   4.796   3.083   5.166
 4870TIP3    H114555   4.705   3.087   5.138
 4870TIP3    H214556   4.847   3.104   5.088
 4871TIP3   OH214557   0.713   1.143   3.798
 4871TIP3    H114558   0.761   1.226   3.793
 4871TIP3    H214559   0.744   1.102   3.879
 4872TIP3   OH214560   5.779   4.668   1.709
 4872TIP3    H114561   5.746   4.645   1.622
 4872TIP3    H214562   5.732   4.610   1.768
 4873TIP3   OH214563   5.106   6.432   5.134
 4873TIP3    H114564   5.080   6.441   5.226
 4873TIP3    H214565   5.201   6.443   5.135
 4874TIP3   OH214566   5.556   4.098   6.601
 4874TIP3    H114567   5.578   4.131   6.688
 4874TIP3    H214568   5.463   4.074   6.606
 4875TIP3   OH214569   0.605   6.118   0.209
 4875TIP3    H114570   0.663   6.158   0.273
 4875TIP3    H214571   0.536   6.077   0.261
 4876TIP3   OH214572  -0.015   4.581   5.199
 4876TIP3    H114573   0.031   4.565   5.281
 4876TIP3    H214574   0.018   4.513   5.140
 4877TIP3   OH214575   8.062   1.871   4.420
 4877TIP3    H114576   8.027   1.957   4.445
 4877TIP3    H214577   8.126   1.890   4.352
 4878TIP3   OH214578   6.469   1.010   4.607
 4878TIP3    H114579   6.395   0.967   4.650
 4878TIP3    H214580   6.429   1.075   4.549
 4879TIP3   OH214581   1.067   5.418   4.167
 4879TIP3    H114582   1.119   5.497   4.178
 4879TIP3    H214583   1.125   5.357   4.121
 4880TIP3   OH214584   2.486   1.297   6.102
 4880TIP3    H114585   2.433   1.224   6.070
 4880TIP3    H214586   2.466   1.302   6.195
 4881TIP3   OH214587   7.083   7.412   2.922
 4881TIP3    H114588   7.161   7.430   2.870
 4881TIP3    H214589   7.107   7.438   3.011
 4882TIP3   OH214590   2.043   3.242   0.281
 4882TIP3    H114591   2.075   3.168   0.333
 4882TIP3    H214592   2.027   3.311   0.345
 4883TIP3   OH214593   3.210   3.263   5.198
 4883TIP3    H114594   3.216   3.305   5.112
 4883TIP3    H214595   3.116   3.263   5.218
 4884TIP3   OH214596   1.375   1.691   1.236
 4884TIP3    H114597   1.446   1.653   1.184
 4884TIP3    H214598   1.318   1.617   1.258
 4885TIP3   OH214599   6.408   3.830   0.111
 4885TIP3    H114600   6.428   3.872   0.195
 4885TIP3    H214601   6.358   3.752   0.135
 4886TIP3   OH214602   0.841   5.386   5.751
 4886TIP3    H114603   0.746   5.397   5.745
 4886TIP3    H214604   0.854   5.321   5.819
 4887TIP3   OH214605   6.736   4.509   0.450
 4887TIP3    H114606   6.663   4.570   0.438
 4887TIP3    H214607   6.695   4.423   0.456
 4888TIP3   OH214608   3.816   5.217   3.763
 4888TIP3    H114609   3.864   5.138   3.787
 4888TIP3    H214610   3.739   5.217   3.820
 4889TIP3   OH214611   1.241   7.781   5.639
 4889TIP3    H114612   1.224   7.783   5.733
 4889TIP3    H214613   1.324   7.735   5.631
 4890TIP3   OH214614   6.598   5.973   5.014
 4890TIP3    H114615   6.623   5.977   4.921
 4890TIP3    H214616   6.562   6.060   5.032
 4891TIP3   OH214617   4.525   4.235   4.006
 4891TIP3    H114618   4.430   4.223   4.008
 4891TIP3    H214619   4.555   4.196   4.088
 4892TIP3   OH214620   4.563   7.796   2.806
 4892TIP3    H114621   4.507   7.864   2.845
 4892TIP3    H214622   4.504   7.723   2.789
 4893TIP3   OH214623   2.139   0.825   2.709
 4893TIP3    H114624   2.120   0.821   2.615
 4893TIP3    H214625   2.054   0.810   2.751
 4894TIP3   OH214626   5.254   7.776   1.299
 4894TIP3    H114627   5.164   7.797   1.273
 4894TIP3    H214628   5.252   7.683   1.319
 4895TIP3   OH214629   6.294   3.422   6.239
 4895TIP3    H114630   6.288   3.331   6.268
 4895TIP3    H214631   6.283   3.473   6.319
 4896TIP3   OH214632   7.190   0.170   3.382
 4896TIP3    H114633   7.096   0.186   3.372
 4896TIP3    H214634   7.222   0.247   3.429
 4897TIP3   OH214635   2.627   7.739   3.607
 4897TIP3    H114636   2.706   7.746   3.660
 4897TIP3    H214637   2.606   7.830   3.584
 4898TIP3   OH214638   2.411   7.652   1.627
 4898TIP3    H114639   2.365   7.702   1.560
 4898TIP3    H214640   2.361   7.667   1.708
 4899TIP3   OH214641   6.902   2.006   5.372
 4899TIP3    H114642   6.875   1.915   5.383
 4899TIP3    H214643   6.861   2.034   5.290
 4900TIP3   OH214644   1.032   0.715   4.010
 4900TIP3    H114645   1.082   0.674   3.940
 4900TIP3    H214646   1.087   0.705   4.088
 4901TIP3   OH214647   6.179   4.742   2.977
 4901TIP3    H114648   6.150   4.669   2.921
 4901TIP3    H214649   6.155   4.821   2.928
 4902TIP3   OH214650   0.883   4.077   5.805
 4902TIP3    H114651   0.890   4.172   5.815
 4902TIP3    H214652   0.973   4.045   5.804
 4903TIP3   OH214653   4.868   1.441   2.883
 4903TIP3    H114654   4.891   1.365   2.829
 4903TIP3    H214655   4.903   1.516   2.835
 4904TIP3   OH214656   7.317   5.377   1.098
 4904TIP3    H114657   7.302   5.296   1.146
 4904TIP3    H214658   7.292   5.356   1.008
 4905TIP3   OH214659   7.291   5.858   4.569
 4905TIP3    H114660   7.231   5.844   4.643
 4905TIP3    H214661   7.375   5.826   4.600
 4906TIP3   OH214662   1.872   7.273   3.430
 4906TIP3    H114663   1.926   7.326   3.370
 4906TIP3    H214664   1.902   7.299   3.517
 4907TIP3   OH214665   7.918   7.402   6.492
 4907TIP3    H114666   7.988   7.340   6.512
 4907TIP3    H214667   7.885   7.373   6.407
 4908TIP3   OH214668   1.740   1.309   3.116
 4908TIP3    H114669   1.735   1.219   3.083
 4908TIP3    H214670   1.827   1.316   3.154
 4909TIP3   OH214671   5.678   7.464   5.287
 4909TIP3    H114672   5.659   7.539   5.344
 4909TIP3    H214673   5.653   7.493   5.199
 4910TIP3   OH214674   2.021   3.397   1.549
 4910TIP3    H114675   2.094   3.360   1.500
 4910TIP3    H214676   1.949   3.336   1.534
 4911TIP3   OH214677   0.349   0.057   1.075
 4911TIP3    H114678   0.439   0.022   1.070
 4911TIP3    H214679   0.297  -0.004   1.022
 4912TIP3   OH214680   4.182   0.201   4.870
 4912TIP3    H114681   4.214   0.131   4.812
 4912TIP3    H214682   4.177   0.160   4.956
 4913TIP3   OH214683   1.152   0.533   6.323
 4913TIP3    H114684   1.121   0.448   6.354
 4913TIP3    H214685   1.160   0.587   6.402
 4914TIP3   OH214686   5.098   5.255   0.292
 4914TIP3    H114687   5.070   5.193   0.359
 4914TIP3    H214688   5.113   5.336   0.339
 4915TIP3   OH214689   7.501   3.023   5.949
 4915TIP3    H114690   7.556   2.962   5.899
 4915TIP3    H214691   7.558   3.096   5.970
 4916TIP3   OH214692   4.638   5.066   2.096
 4916TIP3    H114693   4.566   5.074   2.158
 4916TIP3    H214694   4.598   5.030   2.016
 4917TIP3   OH214695   0.678   3.989   5.214
 4917TIP3    H114696   0.595   3.956   5.180
 4917TIP3    H214697   0.697   4.065   5.161
 4918TIP3   OH214698   4.492   4.390   0.549
 4918TIP3    H114699   4.566   4.345   0.590
 4918TIP3    H214700   4.415   4.348   0.585
 4919TIP3   OH214701   3.671   5.592   0.693
 4919TIP3    H114702   3.737   5.627   0.633
 4919TIP3    H214703   3.720   5.542   0.758
 4920TIP3   OH214704   0.008   5.365   3.278
 4920TIP3    H114705  -0.043   5.291   3.311
 4920TIP3    H214706   0.087   5.325   3.243
 4921TIP3   OH214707   3.884   4.630   0.738
 4921TIP3    H114708   3.892   4.630   0.643
 4921TIP3    H214709   3.790   4.635   0.755
 4922TIP3   OH214710   6.401   3.841   5.232
 4922TIP3    H114711   6.441   3.881   5.309
 4922TIP3    H214712   6.437   3.890   5.158
 4923TIP3   OH214713   5.718   0.967   5.596
 4923TIP3    H114714   5.748   0.880   5.622
 4923TIP3    H214715   5.791   1.004   5.547
 4924TIP3   OH214716   3.570   6.736   2.239
 4924TIP3    H114717   3.526   6.652   2.222
 4924TIP3    H214718   3.499   6.795   2.265
 4925TIP3   OH214719   4.488   4.091   4.529
 4925TIP3    H114720   4.445   4.175   4.549
 4925TIP3    H214721   4.560   4.085   4.592
 4926TIP3   OH214722   8.091   0.471   6.366
 4926TIP3    H114723   8.123   0.382   6.382
 4926TIP3    H214724   8.093   0.513   6.452
 4927TIP3   OH214725   0.781   2.684   5.266
 4927TIP3    H114726   0.788   2.702   5.173
 4927TIP3    H214727   0.799   2.767   5.309
 4928TIP3   OH214728   2.377   7.261   2.084
 4928TIP3    H114729   2.449   7.214   2.042
 4928TIP3    H214730   2.329   7.193   2.131
 4929TIP3   OH214731   5.286   2.778   4.713
 4929TIP3    H114732   5.325   2.857   4.676
 4929TIP3    H214733   5.314   2.708   4.654
 4930TIP3   OH214734   3.069   5.658   4.454
 4930TIP3    H114735   3.132   5.603   4.501
 4930TIP3    H214736   3.057   5.734   4.511
 4931TIP3   OH214737   1.646   3.156   6.677
 4931TIP3    H114738   1.699   3.097   6.622
 4931TIP3    H214739   1.660   3.242   6.639
 4932TIP3   OH214740   5.031   0.283   3.636
 4932TIP3    H114741   4.970   0.246   3.572
 4932TIP3    H214742   4.980   0.288   3.717
 4933TIP3   OH214743   3.621   5.175   6.509
 4933TIP3    H114744   3.538   5.141   6.476
 4933TIP3    H214745   3.609   5.270   6.511
 4934TIP3   OH214746   2.392   2.805   6.696
 4934TIP3    H114747   2.329   2.877   6.695
 4934TIP3    H214748   2.459   2.831   6.633
 4935TIP3   OH214749   5.598   6.721   6.049
 4935TIP3    H114750   5.681   6.713   6.001
 4935TIP3    H214751   5.533   6.684   5.989
 4936TIP3   OH214752   0.822   3.652   2.200
 4936TIP3    H114753   0.908   3.688   2.181
 4936TIP3    H214754   0.837   3.558   2.209
 4937TIP3   OH214755   7.572   7.261   4.439
 4937TIP3    H114756   7.546   7.272   4.348
 4937TIP3    H214757   7.587   7.350   4.471
 4938TIP3   OH214758   7.015   0.079   6.234
 4938TIP3    H114759   7.009   0.170   6.264
 4938TIP3    H214760   6.933   0.040   6.264
 4939TIP3   OH214761   2.514   2.770   6.209
 4939TIP3    H114762   2.469   2.853   6.189
 4939TIP3    H214763   2.579   2.794   6.275
 4940TIP3   OH214764   7.813   2.283   4.922
 4940TIP3    H114765   7.872   2.358   4.928
 4940TIP3    H214766   7.863   2.210   4.959
 4941TIP3   OH214767   4.983   4.361   3.204
 4941TIP3    H114768   4.967   4.403   3.288
 4941TIP3    H214769   4.950   4.423   3.139
 4942TIP3   OH214770   0.980   6.607   1.924
 4942TIP3    H114771   1.057   6.640   1.879
 4942TIP3    H214772   0.958   6.674   1.988
 4943TIP3   OH214773   2.590   0.568   3.108
 4943TIP3    H114774   2.540   0.489   3.086
 4943TIP3    H214775   2.566   0.585   3.199
 4944TIP3   OH214776   5.815   3.156   6.250
 4944TIP3    H114777   5.879   3.134   6.183
 4944TIP3    H214778   5.805   3.076   6.302
 4945TIP3   OH214779   5.265   0.747   1.131
 4945TIP3    H114780   5.334   0.811   1.115
 4945TIP3    H214781   5.198   0.767   1.065
 4946TIP3   OH214782   7.533   2.820   6.278
 4946TIP3    H114783   7.582   2.840   6.358
 4946TIP3    H214784   7.502   2.905   6.247
 4947TIP3   OH214785   2.753   7.168   0.786
 4947TIP3    H114786   2.795   7.254   0.782
 4947TIP3    H214787   2.814   7.109   0.742
 4948TIP3   OH214788   4.050   5.853   1.106
 4948TIP3    H114789   3.993   5.847   1.183
 4948TIP3    H214790   3.996   5.821   1.033
 4949TIP3   OH214791   1.244   4.445   4.422
 4949TIP3    H114792   1.234   4.509   4.351
 4949TIP3    H214793   1.169   4.386   4.413
 4950TIP3   OH214794   3.150   0.857   3.489
 4950TIP3    H114795   3.239   0.846   3.523
 4950TIP3    H214796   3.148   0.805   3.409
 4951TIP3   OH214797   1.931   5.828   1.588
 4951TIP3    H114798   1.847   5.782   1.589
 4951TIP3    H214799   1.934   5.875   1.672
 4952TIP3   OH214800   7.230   7.656   5.989
 4952TIP3    H114801   7.234   7.712   5.912
 4952TIP3    H214802   7.138   7.630   5.996
 4953TIP3   OH214803   3.122   7.659   5.332
 4953TIP3    H114804   3.174   7.581   5.312
 4953TIP3    H214805   3.040   7.624   5.367
 4954TIP3   OH214806   6.234   0.634   4.799
 4954TIP3    H114807   6.267   0.593   4.720
 4954TIP3    H214808   6.152   0.589   4.817
 4955TIP3   OH214809   2.358   0.650   2.072
 4955TIP3    H114810   2.332   0.632   1.981
 4955TIP3    H214811   2.360   0.564   2.114
 4956TIP3   OH214812   4.229   6.102   5.162
 4956TIP3    H114813   4.242   6.072   5.252
 4956TIP3    H214814   4.134   6.098   5.149
 4957TIP3   OH214815   1.422   5.203   5.533
 4957TIP3    H114816   1.339   5.241   5.561
 4957TIP3    H214817   1.408   5.179   5.442
 4958TIP3   OH214818   5.238   3.327   1.542
 4958TIP3    H114819   5.169   3.269   1.510
 4958TIP3    H214820   5.231   3.405   1.487
 4959TIP3   OH214821   4.366   4.889   0.754
 4959TIP3    H114822   4.442   4.916   0.702
 4959TIP3    H214823   4.356   4.796   0.734
 4960TIP3   OH214824   0.515   0.667   2.266
 4960TIP3    H114825   0.472   0.707   2.341
 4960TIP3    H214826   0.444   0.640   2.208
 4961TIP3   OH214827   5.653   5.734   3.868
 4961TIP3    H114828   5.714   5.727   3.941
 4961TIP3    H214829   5.649   5.646   3.831
 4962TIP3   OH214830   3.091   4.902   5.002
 4962TIP3    H114831   3.081   4.809   5.021
 4962TIP3    H214832   3.177   4.924   5.037
 4963TIP3   OH214833   6.226   6.350   1.060
 4963TIP3    H114834   6.296   6.378   1.119
 4963TIP3    H214835   6.145   6.376   1.104
 4964TIP3   OH214836   2.497   6.382   0.043
 4964TIP3    H114837   2.549   6.372  -0.037
 4964TIP3    H214838   2.563   6.400   0.111
 4965TIP3   OH214839   7.122   3.870   1.521
 4965TIP3    H114840   7.217   3.858   1.513
 4965TIP3    H214841   7.112   3.962   1.548
 4966TIP3   OH214842   5.913   0.673   4.264
 4966TIP3    H114843   5.976   0.608   4.231
 4966TIP3    H214844   5.846   0.678   4.195
 4967TIP3   OH214845   5.547   1.662   2.619
 4967TIP3    H114846   5.599   1.658   2.700
 4967TIP3    H214847   5.502   1.578   2.616
 4968TIP3   OH214848   2.298   2.485   0.636
 4968TIP3    H114849   2.248   2.539   0.574
 4968TIP3    H214850   2.342   2.549   0.692
 4969TIP3   OH214851   7.094   0.279   3.691
 4969TIP3    H114852   7.140   0.354   3.654
 4969TIP3    H214853   7.021   0.263   3.631
 4970TIP3   OH214854   3.446   5.146   5.691
 4970TIP3    H114855   3.523   5.099   5.724
 4970TIP3    H214856   3.478   5.234   5.672
 4971TIP3   OH214857   7.141   7.160   5.544
 4971TIP3    H114858   7.171   7.190   5.629
 4971TIP3    H214859   7.169   7.069   5.539
 4972TIP3   OH214860   4.983   6.187   1.208
 4972TIP3    H114861   5.007   6.280   1.211
 4972TIP3    H214862   4.924   6.181   1.132
 4973TIP3   OH214863   0.776   6.619   0.274
 4973TIP3    H114864   0.830   6.574   0.339
 4973TIP3    H214865   0.741   6.695   0.321
 4974TIP3   OH214866   1.012   1.263   0.579
 4974TIP3    H114867   1.042   1.255   0.669
 4974TIP3    H214868   0.961   1.344   0.578
 4975TIP3   OH214869   2.053   5.554   5.203
 4975TIP3    H114870   2.079   5.645   5.185
 4975TIP3    H214871   2.135   5.506   5.208
 4976TIP3   OH214872   7.851   7.635   4.075
 4976TIP3    H114873   7.820   7.724   4.058
 4976TIP3    H214874   7.782   7.595   4.127
 4977TIP3   OH214875   4.450   1.629   5.937
 4977TIP3    H114876   4.390   1.555   5.925
 4977TIP3    H214877   4.537   1.589   5.943
 4978TIP3   OH214878   7.131   6.430   0.204
 4978TIP3    H114879   7.211   6.380   0.185
 4978TIP3    H214880   7.079   6.423   0.124
 4979TIP3   OH214881   5.725   1.944   5.695
 4979TIP3    H114882   5.664   1.989   5.637
 4979TIP3    H214883   5.706   1.980   5.782
 4980TIP3   OH214884   6.012   7.225   1.543
 4980TIP3    H114885   6.047   7.292   1.601
 4980TIP3    H214886   5.966   7.275   1.475
 4981TIP3   OH214887   2.526   5.938   6.709
 4981TIP3    H114888   2.548   6.019   6.754
 4981TIP3    H214889   2.607   5.887   6.709
 4982TIP3   OH214890   3.388   0.259   0.381
 4982TIP3    H114891   3.360   0.263   0.472
 4982TIP3    H214892   3.327   0.198   0.340
 4983TIP3   OH214893   6.788   0.425   0.848
 4983TIP3    H114894   6.756   0.463   0.766
 4983TIP3    H214895   6.814   0.501   0.900
 4984TIP3   OH214896   5.852   0.336   5.479
 4984TIP3    H114897   5.896   0.347   5.564
 4984TIP3    H214898   5.906   0.273   5.432
 4985TIP3   OH214899   1.032   5.087   5.700
 4985TIP3    H114900   1.023   5.123   5.612
 4985TIP3    H214901   0.943   5.087   5.736
 4986TIP3   OH214902   0.215   2.637   3.830
 4986TIP3    H114903   0.246   2.709   3.885
 4986TIP3    H214904   0.222   2.669   3.740
 4987TIP3   OH214905   2.209   0.682   0.672
 4987TIP3    H114906   2.290   0.725   0.698
 4987TIP3    H214907   2.160   0.670   0.754
 4988TIP3   OH214908   0.200   3.381   0.993
 4988TIP3    H114909   0.131   3.315   0.982
 4988TIP3    H214910   0.184   3.445   0.923
 4989TIP3   OH214911   1.183   7.552   1.445
 4989TIP3    H114912   1.242   7.480   1.466
 4989TIP3    H214913   1.134   7.522   1.369
 4990TIP3   OH214914   0.043   2.209   6.605
 4990TIP3    H114915   0.107   2.167   6.547
 4990TIP3    H214916   0.029   2.295   6.566
 4991TIP3   OH214917   3.046   1.115   5.475
 4991TIP3    H114918   3.067   1.208   5.477
 4991TIP3    H214919   3.049   1.091   5.382
 4992TIP3   OH214920   6.542   6.589   3.856
 4992TIP3    H114921   6.474   6.526   3.880
 4992TIP3    H214922   6.522   6.667   3.908
 4993TIP3   OH214923   5.192   0.623   4.109
 4993TIP3    H114924   5.188   0.706   4.157
 4993TIP3    H214925   5.272   0.629   4.058
 4994TIP3   OH214926   1.245   1.484   4.778
 4994TIP3    H114927   1.292   1.481   4.694
 4994TIP3    H214928   1.253   1.575   4.806
 4995TIP3   OH214929   0.478   1.429   5.881
 4995TIP3    H114930   0.524   1.414   5.963
 4995TIP3    H214931   0.501   1.355   5.826
 4996TIP3   OH214932   6.477   1.170   0.807
 4996TIP3    H114933   6.420   1.200   0.878
 4996TIP3    H214934   6.425   1.103   0.762
 4997TIP3   OH214935   3.295   1.970   1.300
 4997TIP3    H114936   3.209   1.953   1.260
 4997TIP3    H214937   3.353   1.984   1.225
 4998TIP3   OH214938   1.207   1.462   1.041
 4998TIP3    H114939   1.277   1.484   0.979
 4998TIP3    H214940   1.244   1.481   1.127
 4999TIP3   OH214941   6.841   2.124   4.732
 4999TIP3    H114942   6.899   2.048   4.734
 4999TIP3    H214943   6.826   2.141   4.639
 5000TIP3   OH214944   2.768   6.491   4.469
 5000TIP3    H114945   2.837   6.467   4.408
 5000TIP3    H214946   2.702   6.421   4.459
 5001TIP3   OH214947   7.479   6.926   4.897
 5001TIP3    H114948   7.543   6.973   4.844
 5001TIP3    H214949   7.502   6.834   4.888
 5002TIP3   OH214950   8.285   1.410   1.347
 5002TIP3    H114951   8.297   1.315   1.352
 5002TIP3    H214952   8.190   1.422   1.336
 5003TIP3   OH214953   0.908   0.374   1.046
 5003TIP3    H114954   0.832   0.368   0.989
 5003TIP3    H214955   0.946   0.460   1.027
 5004TIP3   OH214956   7.640   3.157   1.741
 5004TIP3    H114957   7.704   3.094   1.776
 5004TIP3    H214958   7.686   3.198   1.668
 5005TIP3   OH214959   1.722   2.043   2.331
 5005TIP3    H114960   1.722   1.954   2.366
 5005TIP3    H214961   1.650   2.043   2.267
 5006TIP3   OH214962   4.167   1.432   0.537
 5006TIP3    H114963   4.079   1.404   0.509
 5006TIP3    H214964   4.204   1.354   0.578
 5007TIP3   OH214965   7.829   5.949   5.389
 5007TIP3    H114966   7.774   6.027   5.394
 5007TIP3    H214967   7.918   5.983   5.400
 5008TIP3   OH214968   3.779   3.080   3.468
 5008TIP3    H114969   3.770   3.116   3.557
 5008TIP3    H214970   3.843   3.137   3.425
 5009TIP3   OH214971   2.860   2.346   2.969
 5009TIP3    H114972   2.932   2.388   3.018
 5009TIP3    H214973   2.798   2.417   2.953
 5010TIP3   OH214974   6.791   6.386   4.395
 5010TIP3    H114975   6.832   6.444   4.331
 5010TIP3    H214976   6.741   6.445   4.451
 5011TIP3   OH214977   4.924   3.392   3.417
 5011TIP3    H114978   5.002   3.392   3.472
 5011TIP3    H214979   4.893   3.482   3.420
 5012TIP3   OH214980   7.152   0.706   0.266
 5012TIP3    H114981   7.219   0.739   0.326
 5012TIP3    H214982   7.179   0.738   0.180
 5013TIP3   OH214983   4.172   3.360   1.986
 5013TIP3    H114984   4.167   3.346   1.891
 5013TIP3    H214985   4.105   3.303   2.022
 5014TIP3   OH214986   2.752   4.430   5.136
 5014TIP3    H114987   2.756   4.424   5.040
 5014TIP3    H214988   2.836   4.395   5.166
 5015TIP3   OH214989   1.908   5.877   6.129
 5015TIP3    H114990   1.852   5.802   6.109
 5015TIP3    H214991   1.938   5.862   6.218
 5016TIP3   OH214992   7.931   7.136   6.281
 5016TIP3    H114993   8.013   7.128   6.233
 5016TIP3    H214994   7.955   7.123   6.373
 5017TIP3   OH214995   6.412   6.116   1.991
 5017TIP3    H114996   6.485   6.176   1.972
 5017TIP3    H214997   6.344   6.141   1.929
 5018TIP3   OH214998   6.295   4.307   5.775
 5018TIP3    H114999   6.271   4.335   5.864
 5018TIP3    H215000   6.371   4.251   5.787
 5019TIP3   OH215001   7.083   4.970   3.743
 5019TIP3    H115002   7.129   4.887   3.733
 5019TIP3    H215003   7.053   4.992   3.655
 5020TIP3   OH215004   0.464   5.894   2.642
 5020TIP3    H115005   0.409   5.961   2.602
 5020TIP3    H215006   0.446   5.901   2.736
 5021TIP3   OH215007   6.044   3.858   2.183
 5021TIP3    H115008   6.087   3.798   2.122
 5021TIP3    H215009   6.091   3.941   2.172
 5022TIP3   OH215010   4.824   1.544   4.437
 5022TIP3    H115011   4.760   1.511   4.500
 5022TIP3    H215012   4.824   1.639   4.451
 5023TIP3   OH215013   0.411   5.937   2.001
 5023TIP3    H115014   0.486   5.931   2.061
 5023TIP3    H215015   0.450   5.934   1.914
 5024TIP3   OH215016   3.719   7.786   2.698
 5024TIP3    H115017   3.635   7.788   2.653
 5024TIP3    H215018   3.731   7.695   2.724
 5025TIP3   OH215019   1.439   2.029   0.680
 5025TIP3    H115020   1.387   2.080   0.617
 5025TIP3    H215021   1.517   2.083   0.695
 5026TIP3   OH215022   7.992   2.934   3.386
 5026TIP3    H115023   8.079   2.923   3.425
 5026TIP3    H215024   7.932   2.929   3.460
 5027TIP3   OH215025   2.746   5.052   6.515
 5027TIP3    H115026   2.699   5.027   6.435
 5027TIP3    H215027   2.791   4.972   6.542
 5028TIP3   OH215028   3.487   3.804   2.536
 5028TIP3    H115029   3.556   3.806   2.603
 5028TIP3    H215030   3.419   3.749   2.573
 5029TIP3   OH215031   3.300   2.989   1.747
 5029TIP3    H115032   3.232   3.016   1.686
 5029TIP3    H215033   3.324   2.900   1.720
 5030TIP3   OH215034   5.767   5.790   3.540
 5030TIP3    H115035   5.830   5.844   3.492
 5030TIP3    H215036   5.795   5.797   3.632
 5031TIP3   OH215037   7.166   1.075   3.836
 5031TIP3    H115038   7.126   1.071   3.923
 5031TIP3    H215039   7.247   1.124   3.850
 5032TIP3   OH215040   2.596   7.363   2.510
 5032TIP3    H115041   2.686   7.379   2.540
 5032TIP3    H215042   2.579   7.272   2.534
 5033TIP3   OH215043   1.558   3.929   0.655
 5033TIP3    H115044   1.615   4.002   0.630
 5033TIP3    H215045   1.493   3.968   0.713
 5034TIP3   OH215046   1.932   2.233   1.135
 5034TIP3    H115047   1.979   2.202   1.058
 5034TIP3    H215048   1.856   2.279   1.099
 5035TIP3   OH215049   0.258   5.268   3.218
 5035TIP3    H115050   0.225   5.217   3.144
 5035TIP3    H215051   0.268   5.205   3.289
 5036TIP3   OH215052   0.887   2.718   6.345
 5036TIP3    H115053   0.796   2.705   6.320
 5036TIP3    H215054   0.893   2.810   6.370
 5037TIP3   OH215055   3.913   2.967   4.298
 5037TIP3    H115056   3.854   2.947   4.226
 5037TIP3    H215057   3.863   2.946   4.377
 5038TIP3   OH215058   5.704   0.559   0.650
 5038TIP3    H115059   5.687   0.651   0.627
 5038TIP3    H215060   5.694   0.556   0.745
 5039TIP3   OH215061   4.177   7.488   6.724
 5039TIP3    H115062   4.141   7.475   6.812
 5039TIP3    H215063   4.178   7.583   6.713
 5040TIP3   OH215064   1.897   4.063   5.084
 5040TIP3    H115065   1.883   4.150   5.122
 5040TIP3    H215066   1.992   4.051   5.087
 5041TIP3   OH215067   1.259   1.884   3.379
 5041TIP3    H115068   1.274   1.795   3.411
 5041TIP3    H215069   1.276   1.879   3.285
 5042TIP3   OH215070   3.818   3.729   6.432
 5042TIP3    H115071   3.765   3.665   6.385
 5042TIP3    H215072   3.838   3.687   6.516
 5043TIP3   OH215073   6.017   7.020   1.869
 5043TIP3    H115074   6.018   7.113   1.847
 5043TIP3    H215075   6.107   7.000   1.894
 5044TIP3   OH215076   6.951   1.380   1.790
 5044TIP3    H115077   6.914   1.293   1.802
 5044TIP3    H215078   7.000   1.397   1.871
 5045TIP3   OH215079   5.439   2.112   3.811
 5045TIP3    H115080   5.453   2.179   3.878
 5045TIP3    H215081   5.487   2.143   3.735
 5046TIP3   OH215082   7.177   6.552   1.831
 5046TIP3    H115083   7.091   6.559   1.790
 5046TIP3    H215084   7.179   6.625   1.894
 5047TIP3   OH215085   5.357   2.730   6.264
 5047TIP3    H115086   5.303   2.775   6.199
 5047TIP3    H215087   5.404   2.799   6.310
 5048TIP3   OH215088   2.625   3.582   3.792
 5048TIP3    H115089   2.598   3.671   3.768
 5048TIP3    H215090   2.577   3.563   3.872
 5049TIP3   OH215091   5.948   0.731   3.259
 5049TIP3    H115092   5.853   0.736   3.260
 5049TIP3    H215093   5.969   0.656   3.314
 5050TIP3   OH215094   1.765   4.689   2.827
 5050TIP3    H115095   1.814   4.769   2.807
 5050TIP3    H215096   1.825   4.638   2.881
 5051TIP3   OH215097   6.463   5.830   0.663
 5051TIP3    H115098   6.499   5.900   0.608
 5051TIP3    H215099   6.452   5.756   0.603
 5052TIP3   OH215100   2.520   7.107   0.933
 5052TIP3    H115101   2.463   7.071   0.865
 5052TIP3    H215102   2.597   7.138   0.886
 5053TIP3   OH215103   0.175   2.134   0.040
 5053TIP3    H115104   0.132   2.181  -0.032
 5053TIP3    H215105   0.125   2.053   0.049
 5054TIP3   OH215106   3.101   0.772   5.873
 5054TIP3    H115107   3.123   0.844   5.813
 5054TIP3    H215108   3.101   0.694   5.817
 5055TIP3   OH215109   7.178   6.746   3.214
 5055TIP3    H115110   7.110   6.793   3.165
 5055TIP3    H215111   7.171   6.656   3.184
 5056TIP3   OH215112   0.786   1.302   2.887
 5056TIP3    H115113   0.727   1.371   2.854
 5056TIP3    H215114   0.740   1.221   2.867
 5057TIP3   OH215115   3.258   0.503   5.382
 5057TIP3    H115116   3.213   0.473   5.303
 5057TIP3    H215117   3.350   0.477   5.369
 5058TIP3   OH215118   4.302   7.244   5.425
 5058TIP3    H115119   4.392   7.220   5.446
 5058TIP3    H215120   4.304   7.339   5.418
 5059TIP3   OH215121   6.371   1.399   5.662
 5059TIP3    H115122   6.373   1.367   5.752
 5059TIP3    H215123   6.340   1.489   5.668
 5060TIP3   OH215124   8.026   2.147   4.146
 5060TIP3    H115125   8.030   2.061   4.104
 5060TIP3    H215126   8.110   2.187   4.126
 5061TIP3   OH215127   4.838   4.465   4.826
 5061TIP3    H115128   4.759   4.419   4.855
 5061TIP3    H215129   4.861   4.423   4.743
 5062TIP3   OH215130   5.808   4.740   5.928
 5062TIP3    H115131   5.844   4.787   5.853
 5062TIP3    H215132   5.743   4.681   5.890
 5063TIP3   OH215133   6.565   7.600   1.382
 5063TIP3    H115134   6.536   7.663   1.448
 5063TIP3    H215135   6.550   7.514   1.423
 5064TIP3   OH215136   2.189   4.343   1.252
 5064TIP3    H115137   2.165   4.436   1.244
 5064TIP3    H215138   2.280   4.344   1.283
 5065TIP3   OH215139   1.509   5.053   6.264
 5065TIP3    H115140   1.487   5.134   6.218
 5065TIP3    H215141   1.601   5.062   6.287
 5066TIP3   OH215142   6.580   5.552   2.203
 5066TIP3    H115143   6.659   5.520   2.158
 5066TIP3    H215144   6.596   5.645   2.216
 5067TIP3   OH215145   8.006   2.851   4.880
 5067TIP3    H115146   7.940   2.911   4.915
 5067TIP3    H215147   8.089   2.886   4.912
 5068TIP3   OH215148   6.439   5.582   4.911
 5068TIP3    H115149   6.424   5.515   4.845
 5068TIP3    H215150   6.513   5.550   4.962
 5069TIP3   OH215151   1.142   2.557   1.442
 5069TIP3    H115152   1.206   2.595   1.382
 5069TIP3    H215153   1.059   2.598   1.418
 5070TIP3   OH215154   7.248   7.143   0.521
 5070TIP3    H115155   7.337   7.110   0.536
 5070TIP3    H215156   7.196   7.102   0.590
 5071TIP3   OH215157   2.354   1.437   5.103
 5071TIP3    H115158   2.354   1.477   5.190
 5071TIP3    H215159   2.422   1.484   5.055
 5072TIP3   OH215160   5.715   4.429   1.846
 5072TIP3    H115161   5.675   4.360   1.793
 5072TIP3    H215162   5.645   4.458   1.905
 5073TIP3   OH215163   2.092   5.248   2.062
 5073TIP3    H115164   2.143   5.302   2.001
 5073TIP3    H215165   2.066   5.172   2.010
 5074TIP3   OH215166   2.775   5.704   5.112
 5074TIP3    H115167   2.772   5.745   5.026
 5074TIP3    H215168   2.815   5.770   5.169
 5075TIP3   OH215169   0.539   6.875   5.056
 5075TIP3    H115170   0.528   6.787   5.020
 5075TIP3    H215171   0.518   6.933   4.983
 5076TIP3   OH215172   7.580   7.367   0.046
 5076TIP3    H115173   7.616   7.292   0.094
 5076TIP3    H215174   7.548   7.426   0.114
 5077TIP3   OH215175   7.998   7.688   1.270
 5077TIP3    H115176   8.028   7.628   1.202
 5077TIP3    H215177   7.957   7.760   1.222
 5078TIP3   OH215178   5.846   6.959   4.710
 5078TIP3    H115179   5.869   7.037   4.660
 5078TIP3    H215180   5.907   6.892   4.680
 5079TIP3   OH215181   1.558   2.696   0.182
 5079TIP3    H115182   1.562   2.770   0.243
 5079TIP3    H215183   1.565   2.619   0.238
 5080TIP3   OH215184   0.996   6.760   4.282
 5080TIP3    H115185   0.924   6.697   4.273
 5080TIP3    H215186   1.041   6.734   4.362
 5081TIP3   OH215187   2.720   3.768   0.578
 5081TIP3    H115188   2.723   3.813   0.662
 5081TIP3    H215189   2.690   3.835   0.516
 5082TIP3   OH215190   2.229   7.851   6.093
 5082TIP3    H115191   2.220   7.786   6.023
 5082TIP3    H215192   2.160   7.829   6.156
 5083TIP3   OH215193   5.589   6.062   5.765
 5083TIP3    H115194   5.517   6.095   5.818
 5083TIP3    H215195   5.585   6.114   5.685
 5084TIP3   OH215196   5.003   2.249   5.057
 5084TIP3    H115197   4.920   2.245   5.105
 5084TIP3    H215198   5.069   2.259   5.125
 5085TIP3   OH215199   0.846   5.062   2.110
 5085TIP3    H115200   0.920   5.119   2.090
 5085TIP3    H215201   0.769   5.120   2.103
 5086TIP3   OH215202   1.786   0.045   5.758
 5086TIP3    H115203   1.757   0.072   5.845
 5086TIP3    H215204   1.875   0.080   5.750
 5087TIP3   OH215205   1.207   4.907   5.362
 5087TIP3    H115206   1.206   4.916   5.457
 5087TIP3    H215207   1.149   4.833   5.345
 5088TIP3   OH215208   7.583   4.958   2.226
 5088TIP3    H115209   7.673   4.985   2.243
 5088TIP3    H215210   7.549   4.932   2.312
 5089TIP3   OH215211   6.398   0.203   2.916
 5089TIP3    H115212   6.453   0.281   2.927
 5089TIP3    H215213   6.454   0.130   2.941
 5090TIP3   OH215214   0.728   3.910   2.260
 5090TIP3    H115215   0.770   3.824   2.259
 5090TIP3    H215216   0.635   3.892   2.272
 5091TIP3   OH215217   1.094   7.706   1.711
 5091TIP3    H115218   1.114   7.638   1.647
 5091TIP3    H215219   1.093   7.661   1.795
 5092TIP3   OH215220   0.047   7.195   1.479
 5092TIP3    H115221   0.018   7.269   1.425
 5092TIP3    H215222   0.115   7.152   1.427
 5093TIP3   OH215223   2.719   4.867   1.794
 5093TIP3    H115224   2.700   4.946   1.844
 5093TIP3    H215225   2.699   4.890   1.704
 5094TIP3   OH215226   5.930   1.529   3.019
 5094TIP3    H115227   5.957   1.467   2.952
 5094TIP3    H215228   5.998   1.597   3.018
 5095TIP3   OH215229   7.386   6.140   6.054
 5095TIP3    H115230   7.426   6.212   6.007
 5095TIP3    H215231   7.388   6.067   5.992
 5096TIP3   OH215232   0.541   5.405   3.203
 5096TIP3    H115233   0.453   5.373   3.222
 5096TIP3    H215234   0.527   5.490   3.161
 5097TIP3   OH215235   1.329   7.483   5.547
 5097TIP3    H115236   1.289   7.485   5.461
 5097TIP3    H215237   1.306   7.397   5.583
 5098TIP3   OH215238   3.906   5.646   5.360
 5098TIP3    H115239   3.879   5.573   5.304
 5098TIP3    H215240   3.955   5.704   5.302
 5099TIP3   OH215241   1.230   2.842   3.135
 5099TIP3    H115242   1.172   2.773   3.102
 5099TIP3    H215243   1.190   2.870   3.217
 5100TIP3   OH215244   2.576   6.884   4.212
 5100TIP3    H115245   2.502   6.889   4.151
 5100TIP3    H215246   2.653   6.873   4.155
 5101TIP3   OH215247   3.054   5.270   1.242
 5101TIP3    H115248   3.036   5.325   1.166
 5101TIP3    H215249   3.036   5.327   1.317
 5102TIP3   OH215250   3.829   3.261   3.663
 5102TIP3    H115251   3.753   3.317   3.650
 5102TIP3    H215252   3.895   3.296   3.604
 5103TIP3   OH215253   6.392   2.356   6.703
 5103TIP3    H115254   6.373   2.449   6.689
 5103TIP3    H215255   6.461   2.336   6.640
 5104TIP3   OH215256   7.960   7.815   6.621
 5104TIP3    H115257   7.942   7.805   6.527
 5104TIP3    H215258   7.883   7.861   6.655
 5105TIP3   OH215259   2.934   4.006   0.488
 5105TIP3    H115260   2.967   4.036   0.404
 5105TIP3    H215261   2.854   3.957   0.467
 5106TIP3   OH215262   0.261   4.218   2.475
 5106TIP3    H115263   0.308   4.135   2.470
 5106TIP3    H215264   0.172   4.194   2.499
 5107TIP3   OH215265   2.855   5.872   5.799
 5107TIP3    H115266   2.917   5.925   5.749
 5107TIP3    H215267   2.906   5.836   5.871
 5108TIP3   OH215268   2.256   5.205   2.496
 5108TIP3    H115269   2.221   5.127   2.454
 5108TIP3    H215270   2.256   5.185   2.590
 5109TIP3   OH215271   2.631   5.290   3.469
 5109TIP3    H115272   2.558   5.247   3.425
 5109TIP3    H215273   2.709   5.253   3.429
 5110TIP3   OH215274   7.779   3.638   2.186
 5110TIP3    H115275   7.690   3.671   2.181
 5110TIP3    H215276   7.827   3.705   2.235
 5111TIP3   OH215277   3.483   4.491   1.612
 5111TIP3    H115278   3.462   4.584   1.607
 5111TIP3    H215279   3.409   4.451   1.657
 5112TIP3   OH215280   5.011   1.583   5.967
 5112TIP3    H115281   4.970   1.509   5.922
 5112TIP3    H215282   5.017   1.556   6.058
 5113TIP3   OH215283   4.998   2.992   3.773
 5113TIP3    H115284   5.037   3.068   3.730
 5113TIP3    H215285   4.930   3.028   3.830
 5114TIP3   OH215286   5.910   1.740   1.109
 5114TIP3    H115287   5.944   1.773   1.192
 5114TIP3    H215288   5.833   1.689   1.134
 5115TIP3   OH215289   4.366   6.902   4.161
 5115TIP3    H115290   4.373   6.808   4.144
 5115TIP3    H215291   4.279   6.913   4.200
 5116TIP3   OH215292   5.913   0.965   0.524
 5116TIP3    H115293   5.915   1.049   0.477
 5116TIP3    H215294   5.983   0.973   0.589
 5117TIP3   OH215295   0.153   3.681   2.895
 5117TIP3    H115296   0.240   3.678   2.857
 5117TIP3    H215297   0.122   3.590   2.889
 5118TIP3   OH215298   8.023   3.851   2.911
 5118TIP3    H115299   8.079   3.861   2.987
 5118TIP3    H215300   8.077   3.881   2.837
 5119TIP3   OH215301   0.754   5.112   6.435
 5119TIP3    H115302   0.838   5.070   6.455
 5119TIP3    H215303   0.769   5.205   6.449
 5120TIP3   OH215304   7.396   6.745   3.411
 5120TIP3    H115305   7.374   6.777   3.498
 5120TIP3    H215306   7.314   6.748   3.362
 5121TIP3   OH215307   5.718   7.200   2.067
 5121TIP3    H115308   5.753   7.118   2.103
 5121TIP3    H215309   5.665   7.172   1.992
 5122TIP3   OH215310   6.187   1.390   3.379
 5122TIP3    H115311   6.115   1.332   3.404
 5122TIP3    H215312   6.250   1.333   3.336
 5123TIP3   OH215313   3.047   7.557   4.961
 5123TIP3    H115314   3.127   7.526   5.004
 5123TIP3    H215315   2.985   7.485   4.969
 5124TIP3   OH215316   6.105   0.415   2.450
 5124TIP3    H115317   6.013   0.395   2.468
 5124TIP3    H215318   6.151   0.391   2.530
 5125TIP3   OH215319   3.887   4.135   6.740
 5125TIP3    H115320   3.974   4.170   6.720
 5125TIP3    H215321   3.832   4.168   6.669
 5126TIP3   OH215322   0.661   7.703   3.148
 5126TIP3    H115323   0.713   7.783   3.137
 5126TIP3    H215324   0.583   7.718   3.095
 5127TIP3   OH215325   0.566   1.852   0.120
 5127TIP3    H115326   0.490   1.841   0.177
 5127TIP3    H215327   0.611   1.929   0.154
 5128TIP3   OH215328   0.146   7.664   6.495
 5128TIP3    H115329   0.055   7.677   6.470
 5128TIP3    H215330   0.197   7.688   6.417
 5129TIP3   OH215331   5.827   0.792   3.692
 5129TIP3    H115332   5.890   0.775   3.762
 5129TIP3    H215333   5.813   0.707   3.651
 5130TIP3   OH215334   0.686   6.707   2.298
 5130TIP3    H115335   0.733   6.639   2.346
 5130TIP3    H215336   0.655   6.664   2.219
 5131TIP3   OH215337   5.401   0.964   2.268
 5131TIP3    H115338   5.358   0.921   2.342
 5131TIP3    H215339   5.480   1.002   2.306
 5132TIP3   OH215340   3.754   1.963   1.206
 5132TIP3    H115341   3.765   1.998   1.295
 5132TIP3    H215342   3.704   2.030   1.160
 5133TIP3   OH215343   4.538   3.323   1.262
 5133TIP3    H115344   4.589   3.267   1.321
 5133TIP3    H215345   4.459   3.272   1.243
 5134TIP3   OH215346   5.716   4.127   0.719
 5134TIP3    H115347   5.785   4.071   0.684
 5134TIP3    H215348   5.658   4.143   0.644
 5135TIP3   OH215349   4.971   2.880   5.013
 5135TIP3    H115350   4.891   2.896   4.963
 5135TIP3    H215351   4.941   2.849   5.099
 5136TIP3   OH215352   6.819   1.228   1.191
 5136TIP3    H115353   6.766   1.298   1.153
 5136TIP3    H215354   6.889   1.273   1.238
 5137TIP3   OH215355   1.075   7.873   3.039
 5137TIP3    H115356   1.002   7.843   2.986
 5137TIP3    H215357   1.153   7.847   2.990
 5138TIP3   OH215358   6.446   5.098   4.923
 5138TIP3    H115359   6.491   5.088   5.007
 5138TIP3    H215360   6.472   5.021   4.872
 5139TIP3   OH215361   7.383   2.394   5.098
 5139TIP3    H115362   7.420   2.469   5.054
 5139TIP3    H215363   7.439   2.320   5.072
 5140TIP3   OH215364   1.666   6.869   5.711
 5140TIP3    H115365   1.640   6.830   5.627
 5140TIP3    H215366   1.646   6.962   5.702
 5141TIP3   OH215367   7.923   0.842   4.756
 5141TIP3    H115368   7.937   0.855   4.849
 5141TIP3    H215369   7.861   0.910   4.730
 5142TIP3   OH215370   2.063   1.692   0.337
 5142TIP3    H115371   2.035   1.614   0.289
 5142TIP3    H215372   1.984   1.745   0.344
 5143TIP3   OH215373   1.377   3.057   4.781
 5143TIP3    H115374   1.403   2.993   4.714
 5143TIP3    H215375   1.283   3.042   4.794
 5144TIP3   OH215376   2.153   4.977   3.277
 5144TIP3    H115377   2.180   4.903   3.333
 5144TIP3    H215378   2.231   4.998   3.227
 5145TIP3   OH215379   7.394   6.787   3.011
 5145TIP3    H115380   7.317   6.843   2.996
 5145TIP3    H215381   7.431   6.773   2.924
 5146TIP3   OH215382   0.300   6.848   1.815
 5146TIP3    H115383   0.252   6.924   1.781
 5146TIP3    H215384   0.350   6.882   1.889
 5147TIP3   OH215385   3.678   2.478   3.574
 5147TIP3    H115386   3.603   2.534   3.595
 5147TIP3    H215387   3.750   2.539   3.560
 5148TIP3   OH215388   0.960   4.178   1.830
 5148TIP3    H115389   0.901   4.168   1.755
 5148TIP3    H215390   1.046   4.192   1.791
 5149TIP3   OH215391   3.612   5.660   1.556
 5149TIP3    H115392   3.626   5.744   1.598
 5149TIP3    H215393   3.615   5.596   1.627
 5150TIP3   OH215394   2.471   5.028   3.362
 5150TIP3    H115395   2.428   4.967   3.423
 5150TIP3    H215396   2.440   5.000   3.276
 5151TIP3   OH215397   2.966   3.761   6.097
 5151TIP3    H115398   3.060   3.750   6.113
 5151TIP3    H215399   2.959   3.775   6.003
 5152TIP3   OH215400   6.268   2.825   5.513
 5152TIP3    H115401   6.357   2.861   5.507
 5152TIP3    H215402   6.238   2.852   5.600
 5153TIP3   OH215403   1.577   5.471   1.294
 5153TIP3    H115404   1.563   5.511   1.380
 5153TIP3    H215405   1.672   5.475   1.281
 5154TIP3   OH215406   2.403   4.201   3.527
 5154TIP3    H115407   2.338   4.260   3.565
 5154TIP3    H215408   2.452   4.257   3.465
 5155TIP3   OH215409   3.348   2.209   3.559
 5155TIP3    H115410   3.378   2.287   3.514
 5155TIP3    H215411   3.383   2.218   3.648
 5156TIP3   OH215412   4.995   6.154   2.935
 5156TIP3    H115413   5.060   6.091   2.966
 5156TIP3    H215414   5.042   6.209   2.873
 5157TIP3   OH215415   4.468   1.168   5.992
 5157TIP3    H115416   4.450   1.217   6.073
 5157TIP3    H215417   4.389   1.177   5.940
 5158TIP3   OH215418   0.866   7.297   4.935
 5158TIP3    H115419   0.844   7.223   4.990
 5158TIP3    H215420   0.962   7.304   4.940
 5159TIP3   OH215421   2.024   3.375   0.509
 5159TIP3    H115422   2.053   3.466   0.503
 5159TIP3    H215423   2.089   3.332   0.566
 5160TIP3   OH215424   0.214   2.430   5.369
 5160TIP3    H115425   0.239   2.393   5.285
 5160TIP3    H215426   0.277   2.394   5.431
 5161TIP3   OH215427   1.079   7.235   1.447
 5161TIP3    H115428   1.120   7.276   1.523
 5161TIP3    H215429   1.076   7.304   1.380
 5162TIP3   OH215430   2.642   6.755   5.793
 5162TIP3    H115431   2.583   6.688   5.758
 5162TIP3    H215432   2.588   6.834   5.796
 5163TIP3   OH215433   2.067   5.065   1.850
 5163TIP3    H115434   2.083   5.086   1.759
 5163TIP3    H215435   2.134   5.000   1.873
 5164TIP3   OH215436   5.668   1.259   5.343
 5164TIP3    H115437   5.600   1.290   5.403
 5164TIP3    H215438   5.688   1.335   5.288
 5165TIP3   OH215439   4.954   5.398   4.900
 5165TIP3    H115440   4.871   5.359   4.872
 5165TIP3    H215441   4.941   5.492   4.891
 5166TIP3   OH215442   5.465   2.557   5.153
 5166TIP3    H115443   5.437   2.492   5.217
 5166TIP3    H215444   5.461   2.641   5.200
 5167TIP3   OH215445   8.218   4.967   0.826
 5167TIP3    H115446   8.182   4.881   0.807
 5167TIP3    H215447   8.223   4.971   0.921
 5168TIP3   OH215448   0.214   5.195   6.401
 5168TIP3    H115449   0.290   5.251   6.416
 5168TIP3    H215450   0.251   5.109   6.380
 5169TIP3   OH215451   1.717   2.480   5.824
 5169TIP3    H115452   1.687   2.390   5.816
 5169TIP3    H215453   1.694   2.505   5.914
 5170TIP3   OH215454   3.265   0.931   4.527
 5170TIP3    H115455   3.202   0.890   4.468
 5170TIP3    H215456   3.215   0.999   4.572
 5171TIP3   OH215457   6.610   3.147   0.790
 5171TIP3    H115458   6.544   3.078   0.785
 5171TIP3    H215459   6.588   3.206   0.717
 5172TIP3   OH215460   6.196   6.463   2.395
 5172TIP3    H115461   6.249   6.430   2.323
 5172TIP3    H215462   6.201   6.395   2.462
 5173TIP3   OH215463   4.696   1.916   2.098
 5173TIP3    H115464   4.615   1.966   2.084
 5173TIP3    H215465   4.670   1.824   2.086
 5174TIP3   OH215466   2.590   5.622   6.233
 5174TIP3    H115467   2.591   5.685   6.305
 5174TIP3    H215468   2.511   5.570   6.249
 5175TIP3   OH215469   3.841   0.862   2.435
 5175TIP3    H115470   3.802   0.949   2.442
 5175TIP3    H215471   3.771   0.807   2.399
 5176TIP3   OH215472   2.697   2.471   0.383
 5176TIP3    H115473   2.606   2.443   0.376
 5176TIP3    H215474   2.735   2.453   0.297
 5177TIP3   OH215475   1.620   0.935   5.073
 5177TIP3    H115476   1.698   0.963   5.025
 5177TIP3    H215477   1.609   1.000   5.141
 5178TIP3   OH215478   7.884   5.191   6.334
 5178TIP3    H115479   7.920   5.104   6.351
 5178TIP3    H215480   7.843   5.217   6.416
 5179TIP3   OH215481   0.682   4.581   2.209
 5179TIP3    H115482   0.760   4.636   2.208
 5179TIP3    H215483   0.613   4.636   2.172
 5180TIP3   OH215484   0.552   5.731   5.048
 5180TIP3    H115485   0.631   5.754   5.097
 5180TIP3    H215486   0.505   5.671   5.106
 5181TIP3   OH215487   0.269   1.015   2.690
 5181TIP3    H115488   0.223   1.096   2.667
 5181TIP3    H215489   0.334   1.004   2.620
 5182TIP3   OH215490   4.646   6.943   1.532
 5182TIP3    H115491   4.599   7.003   1.474
 5182TIP3    H215492   4.649   6.860   1.484
 5183TIP3   OH215493   3.481   2.660   0.755
 5183TIP3    H115494   3.420   2.717   0.802
 5183TIP3    H215495   3.532   2.719   0.700
 5184TIP3   OH215496   4.517   5.331   4.403
 5184TIP3    H115497   4.461   5.409   4.400
 5184TIP3    H215498   4.457   5.260   4.424
 5185TIP3   OH215499   2.884   4.483   2.983
 5185TIP3    H115500   2.917   4.525   3.063
 5185TIP3    H215501   2.806   4.533   2.960
 5186TIP3   OH215502   4.376   2.594   1.867
 5186TIP3    H115503   4.336   2.681   1.858
 5186TIP3    H215504   4.469   2.610   1.853
 5187TIP3   OH215505   6.270   2.322   1.104
 5187TIP3    H115506   6.267   2.410   1.142
 5187TIP3    H215507   6.178   2.300   1.088
 5188TIP3   OH215508   4.287   2.485   0.317
 5188TIP3    H115509   4.366   2.440   0.346
 5188TIP3    H215510   4.308   2.514   0.228
 5189TIP3   OH215511   3.442   6.352   1.356
 5189TIP3    H115512   3.418   6.338   1.448
 5189TIP3    H215513   3.461   6.265   1.323
 5190TIP3   OH215514   7.498   3.398   0.094
 5190TIP3    H115515   7.458   3.426   0.012
 5190TIP3    H215516   7.447   3.322   0.121
 5191TIP3   OH215517   2.753   7.787   1.009
 5191TIP3    H115518   2.838   7.830   0.999
 5191TIP3    H215519   2.689   7.859   1.011
 5192TIP3   OH215520   0.625   1.084   2.859
 5192TIP3    H115521   0.687   1.012   2.875
 5192TIP3    H215522   0.555   1.069   2.922
 5193TIP3   OH215523   6.748   1.819   5.940
 5193TIP3    H115524   6.719   1.897   5.987
 5193TIP3    H215525   6.803   1.853   5.869
 5194TIP3   OH215526   5.644   5.311   0.557
 5194TIP3    H115527   5.567   5.351   0.598
 5194TIP3    H215528   5.706   5.298   0.628
 5195TIP3   OH215529   5.960   2.234   2.023
 5195TIP3    H115530   5.951   2.289   2.101
 5195TIP3    H215531   5.872   2.232   1.986
 5196TIP3   OH215532   2.365   5.000   2.113
 5196TIP3    H115533   2.417   4.935   2.160
 5196TIP3    H215534   2.284   4.955   2.091
 5197TIP3   OH215535   7.047   5.939   3.832
 5197TIP3    H115536   7.141   5.921   3.837
 5197TIP3    H215537   7.039   6.032   3.853
 5198TIP3   OH215538   2.359   4.305   0.068
 5198TIP3    H115539   2.383   4.389   0.105
 5198TIP3    H215540   2.428   4.286   0.005
 5199TIP3   OH215541   4.379   3.465   6.777
 5199TIP3    H115542   4.335   3.386   6.745
 5199TIP3    H215543   4.470   3.438   6.789
 5200TIP3   OH215544   8.117   6.148   1.582
 5200TIP3    H115545   8.170   6.137   1.503
 5200TIP3    H215546   8.167   6.103   1.651
 5201TIP3   OH215547   0.605   6.492   4.724
 5201TIP3    H115548   0.625   6.467   4.634
 5201TIP3    H215549   0.537   6.431   4.752
 5202TIP3   OH215550   0.622   0.993   1.305
 5202TIP3    H115551   0.663   0.997   1.218
 5202TIP3    H215552   0.530   0.975   1.286
 5203TIP3   OH215553   0.993   0.756   4.527
 5203TIP3    H115554   0.912   0.805   4.514
 5203TIP3    H215555   1.050   0.816   4.576
 5204TIP3   OH215556   3.680   0.195   2.451
 5204TIP3    H115557   3.651   0.152   2.532
 5204TIP3    H215558   3.771   0.167   2.442
 5205TIP3   OH215559   6.116   1.368   5.078
 5205TIP3    H115560   6.198   1.365   5.029
 5205TIP3    H215561   6.125   1.444   5.136
 5206TIP3   OH215562   6.445   4.366   1.773
 5206TIP3    H115563   6.487   4.450   1.793
 5206TIP3    H215564   6.368   4.363   1.830
 5207TIP3   OH215565   2.135   5.428   4.060
 5207TIP3    H115566   2.207   5.478   4.022
 5207TIP3    H215567   2.177   5.365   4.119
 5208TIP3   OH215568   5.554   6.350   1.731
 5208TIP3    H115569   5.636   6.392   1.755
 5208TIP3    H215570   5.490   6.421   1.730
 5209TIP3   OH215571   0.249   4.541   6.514
 5209TIP3    H115572   0.261   4.460   6.562
 5209TIP3    H215573   0.289   4.525   6.429
 5210TIP3   OH215574   1.214   2.073   0.838
 5210TIP3    H115575   1.304   2.057   0.810
 5210TIP3    H215576   1.192   1.996   0.890
 5211TIP3   OH215577   6.387   6.743   2.714
 5211TIP3    H115578   6.451   6.794   2.665
 5211TIP3    H215579   6.324   6.808   2.746
 5212TIP3   OH215580   6.646   6.592   3.596
 5212TIP3    H115581   6.664   6.685   3.587
 5212TIP3    H215582   6.595   6.584   3.677
 5213TIP3   OH215583   2.111   2.585   0.367
 5213TIP3    H115584   2.112   2.633   0.449
 5213TIP3    H215585   2.200   2.591   0.333
 5214TIP3   OH215586   7.080   0.520   3.123
 5214TIP3    H115587   7.141   0.460   3.080
 5214TIP3    H215588   6.993   0.491   3.093
 5215TIP3   OH215589   2.715   5.578   1.620
 5215TIP3    H115590   2.719   5.646   1.552
 5215TIP3    H215591   2.630   5.537   1.607
 5216TIP3   OH215592   4.166   1.622   6.673
 5216TIP3    H115593   4.121   1.615   6.589
 5216TIP3    H215594   4.179   1.531   6.700
 5217TIP3   OH215595   3.863   5.198   5.068
 5217TIP3    H115596   3.776   5.185   5.029
 5217TIP3    H215597   3.924   5.167   5.001
 5218TIP3   OH215598   8.217   3.856   4.854
 5218TIP3    H115599   8.227   3.846   4.759
 5218TIP3    H215600   8.134   3.901   4.865
 5219TIP3   OH215601   7.291   0.293   2.710
 5219TIP3    H115602   7.261   0.373   2.668
 5219TIP3    H215603   7.233   0.225   2.678
 5220TIP3   OH215604   0.148   6.923   6.415
 5220TIP3    H115605   0.098   7.004   6.424
 5220TIP3    H215606   0.239   6.952   6.403
 5221TIP3   OH215607   1.795   7.395   0.612
 5221TIP3    H115608   1.708   7.411   0.648
 5221TIP3    H215609   1.843   7.477   0.629
 5222TIP3   OH215610   7.647   3.021   0.221
 5222TIP3    H115611   7.706   3.060   0.285
 5222TIP3    H215612   7.667   2.928   0.223
 5223TIP3   OH215613   2.049   2.110   5.221
 5223TIP3    H115614   2.105   2.166   5.166
 5223TIP3    H215615   2.002   2.055   5.159
 5224TIP3   OH215616   3.416   6.079   2.639
 5224TIP3    H115617   3.345   6.014   2.642
 5224TIP3    H215618   3.374   6.158   2.607
 5225TIP3   OH215619   2.358  -0.003   2.341
 5225TIP3    H115620   2.344   0.065   2.275
 5225TIP3    H215621   2.453  -0.016   2.343
 5226TIP3   OH215622   5.593   7.138   1.829
 5226TIP3    H115623   5.649   7.093   1.765
 5226TIP3    H215624   5.511   7.089   1.827
 5227TIP3   OH215625   4.136   6.674   5.848
 5227TIP3    H115626   4.149   6.582   5.869
 5227TIP3    H215627   4.050   6.678   5.808
 5228TIP3   OH215628   3.311   2.863   2.459
 5228TIP3    H115629   3.406   2.859   2.470
 5228TIP3    H215630   3.286   2.949   2.493
 5229TIP3   OH215631   5.486   2.292   4.048
 5229TIP3    H115632   5.488   2.335   4.134
 5229TIP3    H215633   5.499   2.363   3.986
 5230TIP3   OH215634   6.894   4.439   6.529
 5230TIP3    H115635   6.804   4.435   6.562
 5230TIP3    H215636   6.942   4.376   6.583
 5231TIP3   OH215637   7.713   0.401   3.268
 5231TIP3    H115638   7.644   0.438   3.213
 5231TIP3    H215639   7.794   0.425   3.224
 5232TIP3   OH215640   1.505   6.181   4.993
 5232TIP3    H115641   1.587   6.163   5.038
 5232TIP3    H215642   1.508   6.275   4.974
 5233TIP3   OH215643   1.480   2.716   2.006
 5233TIP3    H115644   1.388   2.718   2.031
 5233TIP3    H215645   1.505   2.624   2.011
 5234TIP3   OH215646   3.326   4.009   4.498
 5234TIP3    H115647   3.281   3.934   4.462
 5234TIP3    H215648   3.413   3.976   4.522
 5235TIP3   OH215649   1.098   1.145   3.956
 5235TIP3    H115650   1.150   1.095   3.894
 5235TIP3    H215651   1.162   1.200   4.002
 5236TIP3   OH215652   6.461   5.364   0.903
 5236TIP3    H115653   6.473   5.309   0.980
 5236TIP3    H215654   6.541   5.415   0.896
 5237TIP3   OH215655   1.685   1.377   6.063
 5237TIP3    H115656   1.629   1.360   5.987
 5237TIP3    H215657   1.734   1.456   6.040
 5238TIP3   OH215658   2.624   1.635   5.743
 5238TIP3    H115659   2.547   1.612   5.795
 5238TIP3    H215660   2.699   1.609   5.798
 5239TIP3   OH215661   3.130   3.161   6.146
 5239TIP3    H115662   3.074   3.122   6.214
 5239TIP3    H215663   3.149   3.249   6.179
 5240TIP3   OH215664   4.420   5.278   1.239
 5240TIP3    H115665   4.339   5.246   1.200
 5240TIP3    H215666   4.470   5.312   1.165
 5241TIP3   OH215667   5.862   5.862   2.545
 5241TIP3    H115668   5.903   5.906   2.471
 5241TIP3    H215669   5.801   5.926   2.581
 5242TIP3   OH215670   2.720   3.919   0.814
 5242TIP3    H115671   2.648   3.981   0.820
 5242TIP3    H215672   2.730   3.885   0.902
 5243TIP3   OH215673   1.114   6.863   1.014
 5243TIP3    H115674   1.133   6.785   0.962
 5243TIP3    H215675   1.040   6.838   1.068
 5244TIP3   OH215676   0.667   4.587   1.354
 5244TIP3    H115677   0.718   4.667   1.370
 5244TIP3    H215678   0.731   4.517   1.365
 5245TIP3   OH215679   7.662   1.290   3.346
 5245TIP3    H115680   7.581   1.339   3.341
 5245TIP3    H215681   7.716   1.325   3.275
 5246TIP3   OH215682   3.489   3.614   3.288
 5246TIP3    H115683   3.515   3.590   3.377
 5246TIP3    H215684   3.528   3.546   3.232
 5247TIP3   OH215685   3.961   1.185   0.882
 5247TIP3    H115686   4.030   1.140   0.833
 5247TIP3    H215687   3.880   1.146   0.850
 5248TIP3   OH215688   0.786   0.469   3.201
 5248TIP3    H115689   0.842   0.545   3.184
 5248TIP3    H215690   0.714   0.504   3.254
 5249TIP3   OH215691   0.066   7.423   4.481
 5249TIP3    H115692   0.043   7.408   4.389
 5249TIP3    H215693   0.157   7.451   4.479
 5250TIP3   OH215694   6.158   5.364   5.915
 5250TIP3    H115695   6.160   5.434   5.980
 5250TIP3    H215696   6.079   5.381   5.864
 5251TIP3   OH215697   5.406   3.513   6.714
 5251TIP3    H115698   5.497   3.485   6.727
 5251TIP3    H215699   5.384   3.563   6.793
 5252TIP3   OH215700   6.868   6.092   2.977
 5252TIP3    H115701   6.807   6.150   2.931
 5252TIP3    H215702   6.838   6.004   2.955
 5253TIP3   OH215703   7.826   1.312   1.500
 5253TIP3    H115704   7.770   1.389   1.511
 5253TIP3    H215705   7.878   1.308   1.580
 5254TIP3   OH215706   2.927   0.348   3.281
 5254TIP3    H115707   2.834   0.353   3.260
 5254TIP3    H215708   2.953   0.261   3.251
 5255TIP3   OH215709   4.855   3.842   0.952
 5255TIP3    H115710   4.863   3.768   0.891
 5255TIP3    H215711   4.800   3.809   1.023
 5256TIP3   OH215712   2.093   4.176   2.283
 5256TIP3    H115713   2.119   4.241   2.348
 5256TIP3    H215714   2.117   4.215   2.199
 5257TIP3   OH215715   3.482   3.183   4.458
 5257TIP3    H115716   3.499   3.096   4.495
 5257TIP3    H215717   3.524   3.182   4.372
 5258TIP3   OH215718   4.978   4.949   0.406
 5258TIP3    H115719   4.887   4.965   0.380
 5258TIP3    H215720   4.992   5.007   0.480
 5259TIP3   OH215721   0.216   1.437   2.372
 5259TIP3    H115722   0.311   1.451   2.369
 5259TIP3    H215723   0.205   1.345   2.346
 5260TIP3   OH215724   7.867   3.039   5.794
 5260TIP3    H115725   7.825   3.106   5.847
 5260TIP3    H215726   7.899   3.085   5.717
 5261TIP3   OH215727   3.806   7.107   0.311
 5261TIP3    H115728   3.854   7.136   0.389
 5261TIP3    H215729   3.852   7.028   0.283
 5262TIP3   OH215730   3.459   5.010   5.265
 5262TIP3    H115731   3.498   5.085   5.309
 5262TIP3    H215732   3.469   4.938   5.327
 5263TIP3   OH215733   0.456   5.565   0.983
 5263TIP3    H115734   0.381   5.506   0.982
 5263TIP3    H215735   0.441   5.625   0.909
 5264TIP3   OH215736   4.084   0.851   5.656
 5264TIP3    H115737   4.023   0.835   5.728
 5264TIP3    H215738   4.090   0.767   5.611
 5265TIP3   OH215739   0.155   4.985   1.747
 5265TIP3    H115740   0.141   5.073   1.782
 5265TIP3    H215741   0.097   4.980   1.671
 5266TIP3   OH215742   5.417   5.607   0.330
 5266TIP3    H115743   5.422   5.702   0.317
 5266TIP3    H215744   5.508   5.578   0.338
 5267TIP3   OH215745   3.660   5.507   5.431
 5267TIP3    H115746   3.752   5.518   5.455
 5267TIP3    H215747   3.623   5.595   5.439
 5268TIP3   OH215748   7.510   4.202   4.535
 5268TIP3    H115749   7.501   4.107   4.535
 5268TIP3    H215750   7.421   4.235   4.522
 5269TIP3   OH215751   1.311   0.962   2.642
 5269TIP3    H115752   1.375   1.023   2.605
 5269TIP3    H215753   1.341   0.946   2.731
 5270TIP3   OH215754   1.677   5.100   5.531
 5270TIP3    H115755   1.582   5.111   5.533
 5270TIP3    H215756   1.710   5.173   5.583
 5271TIP3   OH215757   8.143   3.611   3.149
 5271TIP3    H115758   8.144   3.704   3.126
 5271TIP3    H215759   8.234   3.590   3.168
 5272TIP3   OH215760   7.717   4.169   2.298
 5272TIP3    H115761   7.670   4.243   2.336
 5272TIP3    H215762   7.786   4.149   2.361
 5273TIP3   OH215763   7.239   6.985   0.126
 5273TIP3    H115764   7.166   6.958   0.181
 5273TIP3    H215765   7.248   6.915   0.062
 5274TIP3   OH215766   6.312   4.936   3.457
 5274TIP3    H115767   6.219   4.936   3.480
 5274TIP3    H215768   6.314   4.959   3.364
 5275TIP3   OH215769   2.674   1.991   1.355
 5275TIP3    H115770   2.698   2.081   1.377
 5275TIP3    H215771   2.657   1.949   1.440
 5276TIP3   OH215772   3.720   5.829   1.143
 5276TIP3    H115773   3.772   5.856   1.218
 5276TIP3    H215774   3.664   5.758   1.177
 5277TIP3   OH215775   5.618   1.771   6.052
 5277TIP3    H115776   5.710   1.746   6.038
 5277TIP3    H215777   5.572   1.688   6.060
 5278TIP3   OH215778   3.977   0.313   2.127
 5278TIP3    H115779   3.984   0.296   2.033
 5278TIP3    H215780   3.892   0.357   2.137
 5279TIP3   OH215781   6.295   4.541   0.054
 5279TIP3    H115782   6.200   4.538   0.067
 5279TIP3    H215783   6.308   4.514  -0.037
 5280TIP3   OH215784   4.760   7.128   2.975
 5280TIP3    H115785   4.700   7.096   3.042
 5280TIP3    H215786   4.779   7.219   3.001
 5281TIP3   OH215787   5.160   3.510   1.274
 5281TIP3    H115788   5.239   3.565   1.274
 5281TIP3    H215789   5.108   3.544   1.346
 5282TIP3   OH215790   8.073   6.619   2.394
 5282TIP3    H115791   8.036   6.656   2.314
 5282TIP3    H215792   8.162   6.593   2.370
 5283TIP3   OH215793   8.291   1.851   5.135
 5283TIP3    H115794   8.330   1.790   5.197
 5283TIP3    H215795   8.199   1.827   5.131
 5284TIP3   OH215796   0.969   2.996   2.868
 5284TIP3    H115797   0.951   3.040   2.951
 5284TIP3    H215798   0.884   2.988   2.826
 5285TIP3   OH215799   4.721   7.484   0.523
 5285TIP3    H115800   4.715   7.578   0.509
 5285TIP3    H215801   4.782   7.453   0.456
 5286TIP3   OH215802   5.871   6.731   6.013
 5286TIP3    H115803   5.914   6.802   5.967
 5286TIP3    H215804   5.941   6.688   6.061
 5287TIP3   OH215805   7.042   4.706   2.936
 5287TIP3    H115806   7.134   4.687   2.956
 5287TIP3    H215807   6.993   4.643   2.988
 5288TIP3   OH215808   0.290   4.095   4.274
 5288TIP3    H115809   0.240   4.162   4.321
 5288TIP3    H215810   0.323   4.140   4.197
 5289TIP3   OH215811   7.749   1.488   1.904
 5289TIP3    H115812   7.684   1.518   1.841
 5289TIP3    H215813   7.812   1.437   1.852
 5290TIP3   OH215814   4.312   2.357   1.971
 5290TIP3    H115815   4.258   2.292   1.925
 5290TIP3    H215816   4.339   2.418   1.902
 5291TIP3   OH215817   8.120   4.118   3.519
 5291TIP3    H115818   8.106   4.151   3.430
 5291TIP3    H215819   8.206   4.153   3.544
 5292TIP3   OH215820   2.988   2.275   6.591
 5292TIP3    H115821   2.976   2.222   6.669
 5292TIP3    H215822   2.900   2.290   6.558
 5293TIP3   OH215823   3.969   0.919   0.210
 5293TIP3    H115824   3.986   0.846   0.151
 5293TIP3    H215825   3.917   0.980   0.159
 5294TIP3   OH215826   3.551   2.136   6.352
 5294TIP3    H115827   3.640   2.170   6.366
 5294TIP3    H215828   3.554   2.097   6.264
 5295TIP3   OH215829   5.530   1.178   3.689
 5295TIP3    H115830   5.604   1.237   3.706
 5295TIP3    H215831   5.460   1.210   3.746
 5296TIP3   OH215832   2.368   5.353   5.624
 5296TIP3    H115833   2.456   5.370   5.659
 5296TIP3    H215834   2.380   5.279   5.564
 5297TIP3   OH215835   2.053   7.610   4.216
 5297TIP3    H115836   2.065   7.700   4.246
 5297TIP3    H215837   1.958   7.596   4.219
 5298TIP3   OH215838   4.467   2.277   0.806
 5298TIP3    H115839   4.383   2.275   0.851
 5298TIP3    H215840   4.458   2.215   0.734
 5299TIP3   OH215841   4.536   2.878   5.335
 5299TIP3    H115842   4.556   2.874   5.429
 5299TIP3    H215843   4.459   2.934   5.329
 5300TIP3   OH215844   6.883   5.902   5.649
 5300TIP3    H115845   6.831   5.891   5.570
 5300TIP3    H215846   6.836   5.853   5.716
 5301TIP3   OH215847   4.419   2.436   5.066
 5301TIP3    H115848   4.442   2.393   4.983
 5301TIP3    H215849   4.384   2.521   5.040
 5302TIP3   OH215850   2.033   0.889   1.666
 5302TIP3    H115851   2.014   0.878   1.573
 5302TIP3    H215852   2.091   0.816   1.688
 5303TIP3   OH215853   6.695   3.811   3.406
 5303TIP3    H115854   6.650   3.859   3.476
 5303TIP3    H215855   6.667   3.855   3.325
 5304TIP3   OH215856   1.492   5.243   0.213
 5304TIP3    H115857   1.519   5.255   0.122
 5304TIP3    H215858   1.479   5.148   0.221
 5305TIP3   OH215859   4.906   1.577   3.996
 5305TIP3    H115860   4.943   1.640   3.934
 5305TIP3    H215861   4.881   1.502   3.943
 5306TIP3   OH215862   4.624   4.901   1.474
 5306TIP3    H115863   4.633   4.885   1.380
 5306TIP3    H215864   4.554   4.966   1.481
 5307TIP3   OH215865   0.741   3.785   6.332
 5307TIP3    H115866   0.686   3.720   6.375
 5307TIP3    H215867   0.809   3.806   6.396
 5308TIP3   OH215868   1.997   2.033   4.942
 5308TIP3    H115869   2.018   2.110   4.889
 5308TIP3    H215870   1.923   1.992   4.896
 5309TIP3   OH215871   5.316   1.235   3.828
 5309TIP3    H115872   5.232   1.269   3.797
 5309TIP3    H215873   5.319   1.260   3.920
 5310TIP3   OH215874   1.748   5.866   3.203
 5310TIP3    H115875   1.740   5.771   3.196
 5310TIP3    H215876   1.708   5.899   3.123
 5311TIP3   OH215877   5.618   6.281   0.649
 5311TIP3    H115878   5.611   6.246   0.738
 5311TIP3    H215879   5.576   6.367   0.654
 5312TIP3   OH215880   5.043   0.354   0.159
 5312TIP3    H115881   5.097   0.358   0.079
 5312TIP3    H215882   4.985   0.430   0.152
 5313TIP3   OH215883   4.237   0.314   4.578
 5313TIP3    H115884   4.328   0.295   4.556
 5313TIP3    H215885   4.242   0.370   4.656
 5314TIP3   OH215886   0.520   7.469   2.466
 5314TIP3    H115887   0.484   7.428   2.387
 5314TIP3    H215888   0.606   7.501   2.438
 5315TIP3   OH215889   7.386   3.250   1.822
 5315TIP3    H115890   7.339   3.274   1.742
 5315TIP3    H215891   7.468   3.213   1.790
 5316TIP3   OH215892   5.745   4.850   5.419
 5316TIP3    H115893   5.794   4.808   5.490
 5316TIP3    H215894   5.684   4.783   5.389
 5317TIP3   OH215895   4.798   0.015   3.590
 5317TIP3    H115896   4.847  -0.067   3.599
 5317TIP3    H215897   4.708  -0.012   3.573
 5318TIP3   OH215898   1.397   1.972   2.185
 5318TIP3    H115899   1.359   2.033   2.248
 5318TIP3    H215900   1.324   1.915   2.161
 5319TIP3   OH215901   5.611   3.523   0.967
 5319TIP3    H115902   5.645   3.608   0.996
 5319TIP3    H215903   5.626   3.465   1.042
 5320TIP3   OH215904   3.626   3.752   1.408
 5320TIP3    H115905   3.686   3.800   1.351
 5320TIP3    H215906   3.579   3.692   1.349
 5321TIP3   OH215907   6.969   0.332   2.027
 5321TIP3    H115908   6.935   0.420   2.044
 5321TIP3    H215909   7.039   0.321   2.092
 5322TIP3   OH215910   6.984   3.029   0.248
 5322TIP3    H115911   6.979   3.060   0.338
 5322TIP3    H215912   6.956   3.103   0.194
 5323TIP3   OH215913   3.286   6.412   0.661
 5323TIP3    H115914   3.319   6.353   0.593
 5323TIP3    H215915   3.208   6.369   0.694
 5324TIP3   OH215916   3.338   1.607   3.574
 5324TIP3    H115917   3.249   1.642   3.561
 5324TIP3    H215918   3.381   1.673   3.628
 5325TIP3   OH215919   0.222   5.453   2.998
 5325TIP3    H115920   0.236   5.391   3.069
 5325TIP3    H215921   0.290   5.519   3.010
 5326TIP3   OH215922   7.493   0.864   2.006
 5326TIP3    H115923   7.463   0.945   1.965
 5326TIP3    H215924   7.513   0.888   2.096
 5327TIP3   OH215925   3.193   1.145   4.832
 5327TIP3    H115926   3.274   1.185   4.801
 5327TIP3    H215927   3.142   1.131   4.752
 5328TIP3   OH215928   7.657   6.695   2.266
 5328TIP3    H115929   7.563   6.704   2.250
 5328TIP3    H215930   7.678   6.767   2.326
 5329TIP3   OH215931   0.416   5.769   0.816
 5329TIP3    H115932   0.444   5.756   0.725
 5329TIP3    H215933   0.330   5.809   0.809
 5330TIP3   OH215934   3.838   3.663   0.610
 5330TIP3    H115935   3.794   3.726   0.552
 5330TIP3    H215936   3.792   3.580   0.594
 5331TIP3   OH215937   2.651   4.316   1.809
 5331TIP3    H115938   2.647   4.373   1.886
 5331TIP3    H215939   2.636   4.228   1.843
 5332TIP3   OH215940   2.398   7.412   3.242
 5332TIP3    H115941   2.409   7.495   3.288
 5332TIP3    H215942   2.339   7.432   3.169
 5333TIP3   OH215943   0.268   4.170   1.058
 5333TIP3    H115944   0.256   4.219   1.139
 5333TIP3    H215945   0.190   4.116   1.050
 5334TIP3   OH215946   1.239   2.203   3.733
 5334TIP3    H115947   1.228   2.176   3.642
 5334TIP3    H215948   1.214   2.127   3.785
 5335TIP3   OH215949   6.559   0.170   6.052
 5335TIP3    H115950   6.526   0.198   6.137
 5335TIP3    H215951   6.502   0.097   6.027
 5336TIP3   OH215952   1.717   1.220   5.717
 5336TIP3    H115953   1.748   1.255   5.634
 5336TIP3    H215954   1.734   1.126   5.711
 5337TIP3   OH215955   2.704   7.675   4.474
 5337TIP3    H115956   2.751   7.606   4.521
 5337TIP3    H215957   2.771   7.715   4.419
 5338TIP3   OH215958   5.601   4.970   4.796
 5338TIP3    H115959   5.685   4.960   4.752
 5338TIP3    H215960   5.606   5.056   4.837
 5339TIP3   OH215961   7.705   0.370   2.020
 5339TIP3    H115962   7.791   0.331   2.037
 5339TIP3    H215963   7.669   0.389   2.107
 5340TIP3   OH215964   5.526   4.727   4.910
 5340TIP3    H115965   5.431   4.729   4.908
 5340TIP3    H215966   5.553   4.813   4.878
 5341TIP3   OH215967   4.343   7.370   3.908
 5341TIP3    H115968   4.286   7.438   3.946
 5341TIP3    H215969   4.369   7.316   3.983
 5342TIP3   OH215970   5.993   5.269   1.802
 5342TIP3    H115971   5.907   5.232   1.822
 5342TIP3    H215972   6.040   5.197   1.758
 5343TIP3   OH215973   7.112   4.644   4.550
 5343TIP3    H115974   7.040   4.582   4.556
 5343TIP3    H215975   7.168   4.609   4.481
 5344TIP3   OH215976   7.031   6.255   1.813
 5344TIP3    H115977   7.048   6.165   1.783
 5344TIP3    H215978   7.057   6.310   1.739
 5345TIP3   OH215979   7.578   7.533   4.488
 5345TIP3    H115980   7.616   7.617   4.515
 5345TIP3    H215981   7.511   7.557   4.423
 5346TIP3   OH215982   2.811   0.783   6.382
 5346TIP3    H115983   2.734   0.746   6.425
 5346TIP3    H215984   2.879   0.715   6.391
 5347TIP3   OH215985   2.614   3.486   4.675
 5347TIP3    H115986   2.595   3.394   4.695
 5347TIP3    H215987   2.675   3.513   4.743
 5348TIP3   OH215988   0.889   4.283   2.909
 5348TIP3    H115989   0.871   4.227   2.833
 5348TIP3    H215990   0.904   4.223   2.981
 5349TIP3   OH215991   6.745   3.767   2.689
 5349TIP3    H115992   6.805   3.739   2.621
 5349TIP3    H215993   6.793   3.833   2.738
 5350TIP3   OH215994   0.637   5.249   2.084
 5350TIP3    H115995   0.604   5.249   2.174
 5350TIP3    H215996   0.558   5.236   2.030
 5351TIP3   OH215997   1.480   2.336   1.342
 5351TIP3    H115998   1.417   2.275   1.380
 5351TIP3    H215999   1.479   2.412   1.400
 5352TIP3   OH216000   3.457   7.693   3.229
 5352TIP3    H116001   3.496   7.777   3.203
 5352TIP3    H216002   3.433   7.651   3.146
 5353TIP3   OH216003   7.415   7.056   6.605
 5353TIP3    H116004   7.371   6.980   6.566
 5353TIP3    H216005   7.422   7.034   6.698
 5354TIP3   OH216006   0.492   5.091   5.384
 5354TIP3    H116007   0.463   5.015   5.333
 5354TIP3    H216008   0.445   5.084   5.467
 5355TIP3   OH216009   8.003   1.461   2.359
 5355TIP3    H116010   7.980   1.479   2.267
 5355TIP3    H216011   7.988   1.367   2.369
 5356TIP3   OH216012   2.839   5.275   0.322
 5356TIP3    H116013   2.889   5.208   0.369
 5356TIP3    H216014   2.878   5.277   0.235
 5357TIP3   OH216015   2.202   5.659   2.130
 5357TIP3    H116016   2.235   5.735   2.179
 5357TIP3    H216017   2.194   5.690   2.040
 5358TIP3   OH216018   7.581   1.350   2.831
 5358TIP3    H116019   7.657   1.327   2.883
 5358TIP3    H216020   7.507   1.343   2.892
 5359TIP3   OH216021   2.118   1.511   3.837
 5359TIP3    H116022   2.209   1.509   3.869
 5359TIP3    H216023   2.066   1.532   3.914
 5360TIP3   OH216024   5.987   5.921   3.849
 5360TIP3    H116025   6.054   5.955   3.907
 5360TIP3    H216026   5.908   5.970   3.872
 5361TIP3   OH216027   0.719   0.330   2.777
 5361TIP3    H116028   0.747   0.257   2.722
 5361TIP3    H216029   0.773   0.404   2.748
 5362TIP3   OH216030   7.831   1.575   6.029
 5362TIP3    H116031   7.753   1.587   6.083
 5362TIP3    H216032   7.882   1.655   6.042
 5363TIP3   OH216033   8.254   4.343   6.197
 5363TIP3    H116034   8.272   4.263   6.147
 5363TIP3    H216035   8.331   4.397   6.182
 5364TIP3   OH216036   0.676   0.650   5.916
 5364TIP3    H116037   0.639   0.561   5.921
 5364TIP3    H216038   0.610   0.705   5.959
 5365TIP3   OH216039   3.132   2.235   1.416
 5365TIP3    H116040   3.157   2.152   1.376
 5365TIP3    H216041   3.171   2.233   1.503
 5366TIP3   OH216042   0.384   2.918   0.662
 5366TIP3    H116043   0.310   2.978   0.671
 5366TIP3    H216044   0.456   2.972   0.630
 5367TIP3   OH216045   2.811   6.531   6.361
 5367TIP3    H116046   2.723   6.496   6.374
 5367TIP3    H216047   2.825   6.588   6.437
 5368TIP3   OH216048   5.360   5.250   5.892
 5368TIP3    H116049   5.403   5.167   5.871
 5368TIP3    H216050   5.334   5.286   5.807
 5369TIP3   OH216051   5.783   5.332   3.562
 5369TIP3    H116052   5.697   5.360   3.531
 5369TIP3    H216053   5.779   5.236   3.561
 5370TIP3   OH216054   6.767   7.542   3.805
 5370TIP3    H116055   6.710   7.602   3.853
 5370TIP3    H216056   6.788   7.474   3.868
 5371TIP3   OH216057   5.747   2.891   6.357
 5371TIP3    H116058   5.753   2.830   6.431
 5371TIP3    H216059   5.666   2.939   6.372
 5372TIP3   OH216060   4.398   4.894   6.592
 5372TIP3    H116061   4.433   4.823   6.539
 5372TIP3    H216062   4.408   4.865   6.682
 5373TIP3   OH216063   4.047   5.203   4.359
 5373TIP3    H116064   4.003   5.184   4.276
 5373TIP3    H216065   4.066   5.297   4.354
 5374TIP3   OH216066   1.656   0.960   0.091
 5374TIP3    H116067   1.618   1.040   0.128
 5374TIP3    H216068   1.744   0.957   0.129
 5375TIP3   OH216069   3.754   2.846   2.002
 5375TIP3    H116070   3.843   2.880   1.998
 5375TIP3    H216071   3.721   2.877   2.087
 5376TIP3   OH216072   1.145   4.764   1.470
 5376TIP3    H116073   1.107   4.689   1.426
 5376TIP3    H216074   1.133   4.746   1.563
 5377TIP3   OH216075   1.642   1.972   0.424
 5377TIP3    H116076   1.572   1.952   0.486
 5377TIP3    H216077   1.648   2.067   0.423
 5378TIP3   OH216078   3.012   7.011   4.578
 5378TIP3    H116079   3.000   6.927   4.622
 5378TIP3    H216080   2.970   7.000   4.493
 5379TIP3   OH216081   1.180   3.442   4.301
 5379TIP3    H116082   1.087   3.420   4.295
 5379TIP3    H216083   1.209   3.449   4.210
 5380TIP3   OH216084   4.167   2.893   6.127
 5380TIP3    H116085   4.251   2.924   6.161
 5380TIP3    H216086   4.173   2.797   6.133
 5381TIP3   OH216087   1.932   2.343   0.377
 5381TIP3    H116088   1.998   2.300   0.322
 5381TIP3    H216089   1.957   2.435   0.378
 5382TIP3   OH216090   1.875   4.053   0.258
 5382TIP3    H116091   1.832   3.969   0.274
 5382TIP3    H216092   1.968   4.033   0.255
 5383TIP3   OH216093   3.334   6.199   5.340
 5383TIP3    H116094   3.289   6.226   5.420
 5383TIP3    H216095   3.265   6.157   5.288
 5384TIP3   OH216096   3.044   2.508   4.923
 5384TIP3    H116097   3.047   2.567   4.998
 5384TIP3    H216098   2.965   2.456   4.936
 5385TIP3   OH216099   0.137   0.998   0.532
 5385TIP3    H116100   0.173   0.963   0.613
 5385TIP3    H216101   0.091   1.078   0.558
 5386TIP3   OH216102   5.533   3.561   0.523
 5386TIP3    H116103   5.574   3.647   0.535
 5386TIP3    H216104   5.440   3.581   0.511
 5387TIP3   OH216105   0.887   4.418   1.636
 5387TIP3    H116106   0.870   4.442   1.727
 5387TIP3    H216107   0.833   4.342   1.620
 5388TIP3   OH216108   6.169   4.281   1.130
 5388TIP3    H116109   6.093   4.225   1.144
 5388TIP3    H216110   6.131   4.366   1.107
 5389TIP3   OH216111   4.108   2.092   4.429
 5389TIP3    H116112   4.062   2.176   4.429
 5389TIP3    H216113   4.187   2.108   4.480
 5390TIP3   OH216114   7.282   3.675   2.629
 5390TIP3    H116115   7.230   3.749   2.661
 5390TIP3    H216116   7.339   3.652   2.703
 5391TIP3   OH216117   6.612   1.293   2.884
 5391TIP3    H116118   6.541   1.324   2.829
 5391TIP3    H216119   6.671   1.368   2.893
 5392TIP3   OH216120   4.560   1.270   1.353
 5392TIP3    H116121   4.522   1.185   1.374
 5392TIP3    H216122   4.514   1.300   1.275
 5393TIP3   OH216123   2.064   6.548   2.215
 5393TIP3    H116124   2.121   6.473   2.231
 5393TIP3    H216125   2.104   6.620   2.263
 5394TIP3   OH216126   3.360  -0.003   5.855
 5394TIP3    H116127   3.326   0.043   5.932
 5394TIP3    H216128   3.456   0.003   5.864
 5395TIP3   OH216129   5.039   2.440   5.710
 5395TIP3    H116130   4.987   2.491   5.648
 5395TIP3    H216131   5.113   2.407   5.659
 5396TIP3   OH216132   0.171   4.498   5.420
 5396TIP3    H116133   0.229   4.443   5.368
 5396TIP3    H216134   0.216   4.582   5.426
 5397TIP3   OH216135   6.742   7.246   2.480
 5397TIP3    H116136   6.736   7.312   2.549
 5397TIP3    H216137   6.738   7.296   2.399
 5398TIP3   OH216138   6.262   2.703   0.290
 5398TIP3    H116139   6.245   2.730   0.380
 5398TIP3    H216140   6.288   2.783   0.245
 5399TIP3   OH216141   0.741   2.150   6.183
 5399TIP3    H116142   0.776   2.146   6.272
 5399TIP3    H216143   0.800   2.210   6.136
 5400TIP3   OH216144   2.469   3.411   1.208
 5400TIP3    H116145   2.531   3.341   1.223
 5400TIP3    H216146   2.482   3.436   1.116
 5401TIP3   OH216147   7.671   6.611   0.472
 5401TIP3    H116148   7.651   6.605   0.379
 5401TIP3    H216149   7.659   6.522   0.505
 5402TIP3   OH216150   1.211   4.343   2.230
 5402TIP3    H116151   1.234   4.401   2.156
 5402TIP3    H216152   1.126   4.307   2.207
 5403TIP3   OH216153   1.315   5.774   1.239
 5403TIP3    H116154   1.334   5.843   1.303
 5403TIP3    H216155   1.311   5.694   1.290
 5404TIP3   OH216156   7.480   2.534   1.625
 5404TIP3    H116157   7.488   2.449   1.581
 5404TIP3    H216158   7.386   2.552   1.623
 5405TIP3   OH216159   2.129   0.362   0.824
 5405TIP3    H116160   2.118   0.343   0.731
 5405TIP3    H216161   2.129   0.276   0.866
 5406TIP3   OH216162   1.821   3.333   6.055
 5406TIP3    H116163   1.870   3.290   5.985
 5406TIP3    H216164   1.785   3.412   6.014
 5407TIP3   OH216165   1.772   0.561   0.257
 5407TIP3    H116166   1.710   0.513   0.312
 5407TIP3    H216167   1.723   0.580   0.177
 5408TIP3   OH216168   0.199   5.345   2.505
 5408TIP3    H116169   0.178   5.296   2.427
 5408TIP3    H216170   0.119   5.393   2.527
 5409TIP3   OH216171   0.771   7.132   1.587
 5409TIP3    H116172   0.818   7.101   1.510
 5409TIP3    H216173   0.684   7.092   1.581
 5410TIP3   OH216174   5.829   7.166   0.738
 5410TIP3    H116175   5.839   7.240   0.798
 5410TIP3    H216176   5.829   7.205   0.651
 5411TIP3   OH216177   2.115   0.175   2.074
 5411TIP3    H116178   2.085   0.196   1.986
 5411TIP3    H216179   2.159   0.090   2.064
 5412TIP3   OH216180   6.800   2.272   3.868
 5412TIP3    H116181   6.846   2.335   3.812
 5412TIP3    H216182   6.752   2.327   3.931
 5413TIP3   OH216183   2.851   0.044   1.592
 5413TIP3    H116184   2.917  -0.021   1.568
 5413TIP3    H216185   2.767  -0.001   1.577
 5414TIP3   OH216186   1.599   5.685   3.960
 5414TIP3    H116187   1.511   5.707   3.993
 5414TIP3    H216188   1.658   5.709   4.031
 5415TIP3   OH216189   7.273   5.029   2.318
 5415TIP3    H116190   7.327   5.104   2.344
 5415TIP3    H216191   7.327   4.953   2.337
 5416TIP3   OH216192   3.413   0.720   3.947
 5416TIP3    H116193   3.319   0.736   3.941
 5416TIP3    H216194   3.422   0.625   3.932
 5417TIP3   OH216195   2.302   5.925   5.253
 5417TIP3    H116196   2.373   5.910   5.191
 5417TIP3    H216197   2.226   5.882   5.213
 5418TIP3   OH216198   6.283   5.659   1.738
 5418TIP3    H116199   6.323   5.744   1.723
 5418TIP3    H216200   6.333   5.621   1.810
 5419TIP3   OH216201   5.542   6.697   3.393
 5419TIP3    H116202   5.590   6.666   3.317
 5419TIP3    H216203   5.547   6.625   3.456
 5420TIP3   OH216204   3.180   4.768   5.910
 5420TIP3    H116205   3.229   4.750   5.830
 5420TIP3    H216206   3.088   4.771   5.882
 5421TIP3   OH216207   1.820   1.587   4.339
 5421TIP3    H116208   1.899   1.619   4.295
 5421TIP3    H216209   1.767   1.665   4.353
 5422TIP3   OH216210   2.217   0.277   5.242
 5422TIP3    H116211   2.244   0.338   5.311
 5422TIP3    H216212   2.149   0.223   5.283
 5423TIP3   OH216213   2.804   1.967   3.160
 5423TIP3    H116214   2.743   1.948   3.089
 5423TIP3    H216215   2.780   1.905   3.229
 5424TIP3   OH216216   5.913   4.863   1.418
 5424TIP3    H116217   5.934   4.943   1.466
 5424TIP3    H216218   5.848   4.818   1.472
 5425TIP3   OH216219   6.089   3.397   1.979
 5425TIP3    H116220   6.011   3.370   2.027
 5425TIP3    H216221   6.092   3.338   1.903
 5426TIP3   OH216222   1.988   5.581   3.576
 5426TIP3    H116223   2.068   5.623   3.544
 5426TIP3    H216224   1.995   5.585   3.671
 5427TIP3   OH216225   0.038   2.635   6.765
 5427TIP3    H116226   0.103   2.642   6.696
 5427TIP3    H216227  -0.046   2.646   6.720
 5428TIP3   OH216228   3.433   6.043   4.214
 5428TIP3    H116229   3.419   6.097   4.292
 5428TIP3    H216230   3.390   6.091   4.144
 5429TIP3   OH216231   6.878   0.356   6.328
 5429TIP3    H116232   6.840   0.318   6.407
 5429TIP3    H216233   6.889   0.449   6.349
 5430TIP3   OH216234   2.774   2.758   1.836
 5430TIP3    H116235   2.740   2.669   1.845
 5430TIP3    H216236   2.784   2.789   1.926
 5431TIP3   OH216237   6.468   6.448   0.271
 5431TIP3    H116238   6.422   6.505   0.209
 5431TIP3    H216239   6.402   6.425   0.336
 5432TIP3   OH216240   0.344   7.212   0.463
 5432TIP3    H116241   0.344   7.129   0.511
 5432TIP3    H216242   0.389   7.274   0.521
 5433TIP3   OH216243   5.318   7.572   3.713
 5433TIP3    H116244   5.362   7.637   3.768
 5433TIP3    H216245   5.225   7.584   3.729
 5434TIP3   OH216246   0.840   1.330   5.917
 5434TIP3    H116247   0.841   1.246   5.872
 5434TIP3    H216248   0.898   1.386   5.865
 5435TIP3   OH216249   0.688   0.373   0.110
 5435TIP3    H116250   0.762   0.321   0.142
 5435TIP3    H216251   0.729   0.448   0.066
 5436TIP3   OH216252   2.449   4.902   4.328
 5436TIP3    H116253   2.413   4.981   4.287
 5436TIP3    H216254   2.382   4.835   4.315
 5437TIP3   OH216255   6.725   7.736   6.122
 5437TIP3    H116256   6.630   7.742   6.132
 5437TIP3    H216257   6.752   7.670   6.186
 5438TIP3   OH216258   4.312   0.129   2.889
 5438TIP3    H116259   4.283   0.157   2.976
 5438TIP3    H216260   4.375   0.059   2.905
 5439TIP3   OH216261   7.666   2.766   5.866
 5439TIP3    H116262   7.694   2.768   5.775
 5439TIP3    H216263   7.744   2.738   5.915
 5440TIP3   OH216264   2.522   7.362   1.274
 5440TIP3    H116265   2.605   7.355   1.321
 5440TIP3    H216266   2.543   7.410   1.194
 5441TIP3   OH216267   6.147   1.653   6.542
 5441TIP3    H116268   6.165   1.613   6.627
 5441TIP3    H216269   6.203   1.604   6.481
 5442TIP3   OH216270   1.722   1.342   4.371
 5442TIP3    H116271   1.784   1.405   4.408
 5442TIP3    H216272   1.651   1.337   4.435
 5443TIP3   OH216273   5.566   7.000   4.712
 5443TIP3    H116274   5.539   7.019   4.802
 5443TIP3    H216275   5.661   6.987   4.718
 5444TIP3   OH216276   7.260   5.018   0.722
 5444TIP3    H116277   7.287   4.981   0.806
 5444TIP3    H216278   7.251   4.943   0.664
 5445TIP3   OH216279   5.612   1.230   4.647
 5445TIP3    H116280   5.577   1.308   4.689
 5445TIP3    H216281   5.622   1.255   4.555
 5446TIP3   OH216282   7.776   6.808   6.239
 5446TIP3    H116283   7.850   6.789   6.181
 5446TIP3    H216284   7.745   6.894   6.210
 5447TIP3   OH216285   1.423   2.142   3.143
 5447TIP3    H116286   1.372   2.123   3.065
 5447TIP3    H216287   1.508   2.101   3.127
 5448TIP3   OH216288   4.869   3.949   6.143
 5448TIP3    H116289   4.833   3.983   6.061
 5448TIP3    H216290   4.964   3.949   6.129
 5449TIP3   OH216291   7.716   7.733   2.052
 5449TIP3    H116292   7.739   7.677   2.126
 5449TIP3    H216293   7.726   7.676   1.975
 5450TIP3   OH216294   5.313   1.155   6.317
 5450TIP3    H116295   5.350   1.231   6.363
 5450TIP3    H216296   5.227   1.185   6.288
 5451TIP3   OH216297   0.635   5.325   2.357
 5451TIP3    H116298   0.720   5.287   2.380
 5451TIP3    H216299   0.583   5.314   2.436
 5452TIP3   OH216300   7.662   6.196   6.079
 5452TIP3    H116301   7.711   6.135   6.024
 5452TIP3    H216302   7.573   6.159   6.082
 5453TIP3   OH216303   1.209   6.978   2.582
 5453TIP3    H116304   1.263   6.934   2.516
 5453TIP3    H216305   1.192   6.910   2.648
 5454TIP3   OH216306   3.144   6.557   1.394
 5454TIP3    H116307   3.173   6.539   1.483
 5454TIP3    H216308   3.071   6.618   1.403
 5455TIP3   OH216309   1.479   6.856   4.009
 5455TIP3    H116310   1.385   6.855   4.025
 5455TIP3    H216311   1.517   6.806   4.081
 5456TIP3   OH216312   7.315   3.749   6.506
 5456TIP3    H116313   7.281   3.814   6.445
 5456TIP3    H216314   7.251   3.678   6.504
 5457TIP3   OH216315   0.480   1.167   6.447
 5457TIP3    H116316   0.401   1.207   6.413
 5457TIP3    H216317   0.486   1.082   6.403
 5458TIP3   OH216318   7.053   7.567   3.712
 5458TIP3    H116319   6.960   7.589   3.706
 5458TIP3    H216320   7.077   7.543   3.623
 5459TIP3   OH216321   5.348   0.166   4.020
 5459TIP3    H116322   5.263   0.206   4.038
 5459TIP3    H216323   5.329   0.097   3.957
 5460TIP3   OH216324   1.395   3.541   1.301
 5460TIP3    H116325   1.405   3.495   1.217
 5460TIP3    H216326   1.450   3.619   1.292
 5461TIP3   OH216327   3.796   2.309   0.777
 5461TIP3    H116328   3.852   2.379   0.809
 5461TIP3    H216329   3.762   2.342   0.694
 5462TIP3   OH216330   5.613   3.952   2.261
 5462TIP3    H116331   5.561   4.003   2.324
 5462TIP3    H216332   5.548   3.914   2.202
 5463TIP3   OH216333   0.896   6.505   5.295
 5463TIP3    H116334   0.869   6.585   5.340
 5463TIP3    H216335   0.992   6.504   5.304
 5464TIP3   OH216336   1.928   5.736   4.408
 5464TIP3    H116337   1.964   5.648   4.412
 5464TIP3    H216338   1.922   5.763   4.499
 5465TIP3   OH216339   1.403   5.460   0.550
 5465TIP3    H116340   1.455   5.537   0.527
 5465TIP3    H216341   1.373   5.478   0.639
 5466TIP3   OH216342   7.793   3.517   5.035
 5466TIP3    H116343   7.755   3.560   4.958
 5466TIP3    H216344   7.825   3.433   5.002
 5467TIP3   OH216345   0.060   4.790   2.595
 5467TIP3    H116346   0.023   4.852   2.532
 5467TIP3    H216347   0.150   4.820   2.609
 5468TIP3   OH216348   0.012   7.692   2.884
 5468TIP3    H116349   0.010   7.757   2.814
 5468TIP3    H216350  -0.043   7.620   2.852
 5469TIP3   OH216351   2.448   6.248   3.361
 5469TIP3    H116352   2.371   6.193   3.347
 5469TIP3    H216353   2.494   6.206   3.433
 5470TIP3   OH216354   6.073   3.280   1.716
 5470TIP3    H116355   6.104   3.191   1.698
 5470TIP3    H216356   6.120   3.336   1.654
 5471TIP3   OH216357   7.793   3.939   1.448
 5471TIP3    H116358   7.749   3.937   1.533
 5471TIP3    H216359   7.862   4.005   1.459
 5472TIP3   OH216360   0.804   5.669   1.887
 5472TIP3    H116361   0.727   5.651   1.942
 5472TIP3    H216362   0.876   5.626   1.933
 5473TIP3   OH216363   2.444   3.475   3.232
 5473TIP3    H116364   2.354   3.483   3.199
 5473TIP3    H216365   2.474   3.565   3.242
 5474TIP3   OH216366   1.776   2.361   0.924
 5474TIP3    H116367   1.778   2.432   0.861
 5474TIP3    H216368   1.692   2.317   0.908
 5475TIP3   OH216369   0.874   3.838   5.068
 5475TIP3    H116370   0.823   3.759   5.083
 5475TIP3    H216371   0.828   3.906   5.117
 5476TIP3   OH216372   8.214   4.042   1.515
 5476TIP3    H116373   8.284   3.987   1.550
 5476TIP3    H216374   8.169   3.985   1.452
 5477TIP3   OH216375   4.784   6.471   1.127
 5477TIP3    H116376   4.862   6.523   1.145
 5477TIP3    H216377   4.756   6.439   1.213
 5478TIP3   OH216378   1.524   6.058   0.906
 5478TIP3    H116379   1.484   6.045   0.820
 5478TIP3    H216380   1.618   6.050   0.890
 5479TIP3   OH216381   5.513   5.769   1.669
 5479TIP3    H116382   5.582   5.732   1.724
 5479TIP3    H216383   5.439   5.781   1.729
 5480TIP3   OH216384   0.373   5.929   2.921
 5480TIP3    H116385   0.388   5.837   2.941
 5480TIP3    H216386   0.304   5.956   2.982
 5481TIP3   OH216387   1.804   3.155   4.019
 5481TIP3    H116388   1.814   3.064   3.991
 5481TIP3    H216389   1.835   3.156   4.110
 5482TIP3   OH216390   6.393   6.304   5.833
 5482TIP3    H116391   6.301   6.321   5.852
 5482TIP3    H216392   6.406   6.212   5.857
 5483TIP3   OH216393   0.829   7.512   1.426
 5483TIP3    H116394   0.842   7.472   1.512
 5483TIP3    H216395   0.861   7.602   1.436
 5484TIP3   OH216396   5.025   0.746   2.084
 5484TIP3    H116397   5.040   0.652   2.093
 5484TIP3    H216398   4.949   0.764   2.139
 5485TIP3   OH216399   5.751   5.614   5.937
 5485TIP3    H116400   5.717   5.525   5.946
 5485TIP3    H216401   5.842   5.609   5.968
 5486TIP3   OH216402   5.315   4.748   1.457
 5486TIP3    H116403   5.289   4.660   1.430
 5486TIP3    H216404   5.281   4.806   1.388
 5487TIP3   OH216405   2.804   0.259   3.728
 5487TIP3    H116406   2.821   0.213   3.810
 5487TIP3    H216407   2.872   0.226   3.668
 5488TIP3   OH216408   5.212   7.006   3.466
 5488TIP3    H116409   5.223   6.913   3.487
 5488TIP3    H216410   5.263   7.052   3.533
 5489TIP3   OH216411   3.349   5.842   4.597
 5489TIP3    H116412   3.328   5.881   4.682
 5489TIP3    H216413   3.299   5.893   4.533
 5490TIP3   OH216414   1.490   4.913   1.728
 5490TIP3    H116415   1.459   4.830   1.692
 5490TIP3    H216416   1.425   4.977   1.700
 5491TIP3   OH216417   4.019   6.946   2.872
 5491TIP3    H116418   4.070   7.025   2.860
 5491TIP3    H216419   3.930   6.977   2.888
 5492TIP3   OH216420   6.976   0.897   0.430
 5492TIP3    H116421   7.027   0.824   0.395
 5492TIP3    H216422   7.038   0.969   0.436
 5493TIP3   OH216423   3.319   3.616   0.946
 5493TIP3    H116424   3.232   3.577   0.959
 5493TIP3    H216425   3.303   3.693   0.892
 5494TIP3   OH216426   7.739   2.449   2.784
 5494TIP3    H116427   7.722   2.506   2.859
 5494TIP3    H216428   7.673   2.380   2.792
 5495TIP3   OH216429   6.196   3.299   6.016
 5495TIP3    H116430   6.218   3.339   6.100
 5495TIP3    H216431   6.280   3.289   5.972
 5496TIP3   OH216432   6.590   6.261   5.071
 5496TIP3    H116433   6.600   6.325   5.000
 5496TIP3    H216434   6.660   6.283   5.132
 5497TIP3   OH216435   2.664   5.330   1.761
 5497TIP3    H116436   2.624   5.398   1.816
 5497TIP3    H216437   2.598   5.260   1.759
 5498TIP3   OH216438   4.826   0.731   5.365
 5498TIP3    H116439   4.819   0.724   5.270
 5498TIP3    H216440   4.909   0.776   5.380
 5499TIP3   OH216441   1.480   3.691   5.420
 5499TIP3    H116442   1.427   3.766   5.393
 5499TIP3    H216443   1.524   3.721   5.500
 5500TIP3   OH216444   4.450   0.268   5.147
 5500TIP3    H116445   4.505   0.329   5.195
 5500TIP3    H216446   4.362   0.307   5.150
 5501TIP3   OH216447   3.786   7.695   1.376
 5501TIP3    H116448   3.805   7.775   1.427
 5501TIP3    H216449   3.697   7.672   1.400
 5502TIP3   OH216450   4.964   5.075   2.900
 5502TIP3    H116451   4.869   5.070   2.885
 5502TIP3    H216452   4.993   5.144   2.840
 5503TIP3   OH216453   6.160   1.559   6.191
 5503TIP3    H116454   6.150   1.482   6.135
 5503TIP3    H216455   6.207   1.527   6.268
 5504TIP3   OH216456   7.353   5.610   2.842
 5504TIP3    H116457   7.436   5.595   2.796
 5504TIP3    H216458   7.286   5.589   2.778
 5505TIP3   OH216459   7.474   3.963   3.982
 5505TIP3    H116460   7.524   3.885   3.957
 5505TIP3    H216461   7.385   3.930   3.996
 5506TIP3   OH216462   2.178   4.096   4.290
 5506TIP3    H116463   2.121   4.100   4.367
 5506TIP3    H216464   2.166   4.008   4.256
 5507TIP3   OH216465   3.970   3.006   0.703
 5507TIP3    H116466   4.046   2.993   0.648
 5507TIP3    H216467   3.937   2.918   0.720
 5508TIP3   OH216468   0.619   2.297   5.012
 5508TIP3    H116469   0.640   2.205   4.995
 5508TIP3    H216470   0.618   2.337   4.925
 5509TIP3   OH216471   0.910   5.034   4.324
 5509TIP3    H116472   1.004   5.036   4.344
 5509TIP3    H216473   0.892   5.119   4.284
 5510TIP3   OH216474   7.847   2.797   4.342
 5510TIP3    H116475   7.861   2.704   4.357
 5510TIP3    H216476   7.933   2.838   4.354
 5511TIP3   OH216477   2.476   7.646   6.515
 5511TIP3    H116478   2.492   7.569   6.570
 5511TIP3    H216479   2.381   7.657   6.516
 5512TIP3   OH216480   7.530   4.407   6.124
 5512TIP3    H116481   7.548   4.501   6.125
 5512TIP3    H216482   7.617   4.366   6.125
 5513TIP3   OH216483   4.239   3.852   3.745
 5513TIP3    H116484   4.162   3.903   3.720
 5513TIP3    H216485   4.306   3.917   3.764
 5514TIP3   OH216486   0.510   0.078   5.065
 5514TIP3    H116487   0.559   0.110   5.140
 5514TIP3    H216488   0.418   0.093   5.087
 5515TIP3   OH216489   0.558   5.743   0.181
 5515TIP3    H116490   0.635   5.705   0.140
 5515TIP3    H216491   0.593   5.803   0.247
 5516TIP3   OH216492   2.037   2.430   2.220
 5516TIP3    H116493   1.994   2.505   2.261
 5516TIP3    H216494   2.056   2.371   2.293
 5517TIP3   OH216495   8.225   2.569   2.067
 5517TIP3    H116496   8.300   2.627   2.079
 5517TIP3    H216497   8.244   2.492   2.122
 5518TIP3   OH216498   1.131   6.283   5.549
 5518TIP3    H116499   1.036   6.275   5.559
 5518TIP3    H216500   1.160   6.328   5.629
 5519TIP3   OH216501   4.083   1.570   4.868
 5519TIP3    H116502   4.016   1.525   4.920
 5519TIP3    H216503   4.057   1.553   4.777
 5520TIP3   OH216504   5.823   5.814   5.579
 5520TIP3    H116505   5.837   5.877   5.650
 5520TIP3    H216506   5.889   5.746   5.594
 5521TIP3   OH216507   4.220   2.738   5.359
 5521TIP3    H116508   4.141   2.691   5.332
 5521TIP3    H216509   4.277   2.670   5.395
 5522TIP3   OH216510   7.354   0.969   3.170
 5522TIP3    H116511   7.435   0.977   3.220
 5522TIP3    H216512   7.310   0.893   3.207
 5523TIP3   OH216513   6.426   3.089   1.605
 5523TIP3    H116514   6.452   3.175   1.639
 5523TIP3    H216515   6.431   3.097   1.510
 5524TIP3   OH216516   6.578   1.446   2.219
 5524TIP3    H116517   6.596   1.354   2.201
 5524TIP3    H216518   6.664   1.486   2.227
 5525TIP3   OH216519   8.105   2.292   1.489
 5525TIP3    H116520   8.080   2.336   1.570
 5525TIP3    H216521   8.032   2.308   1.429
 5526TIP3   OH216522   6.154   6.913   5.529
 5526TIP3    H116523   6.121   6.929   5.618
 5526TIP3    H216524   6.106   6.975   5.474
 5527TIP3   OH216525   8.236   6.101   1.340
 5527TIP3    H116526   8.325   6.129   1.317
 5527TIP3    H216527   8.180   6.169   1.302
 5528TIP3   OH216528   2.442   7.705   4.394
 5528TIP3    H116529   2.529   7.723   4.430
 5528TIP3    H216530   2.417   7.787   4.349
 5529TIP3   OH216531   3.732   5.239   2.270
 5529TIP3    H116532   3.741   5.251   2.365
 5529TIP3    H216533   3.806   5.184   2.246
 5530TIP3   OH216534   3.960   2.446   0.154
 5530TIP3    H116535   3.865   2.436   0.152
 5530TIP3    H216536   3.976   2.512   0.221
 5531TIP3   OH216537   5.112   1.863   0.412
 5531TIP3    H116538   5.084   1.789   0.359
 5531TIP3    H216539   5.163   1.917   0.352
 5532TIP3   OH216540   6.642   7.230   0.937
 5532TIP3    H116541   6.629   7.169   1.010
 5532TIP3    H216542   6.736   7.244   0.933
 5533TIP3   OH216543   7.727   5.075   5.817
 5533TIP3    H116544   7.709   4.989   5.779
 5533TIP3    H216545   7.643   5.104   5.851
 5534TIP3   OH216546   7.774   5.850   3.408
 5534TIP3    H116547   7.766   5.936   3.368
 5534TIP3    H216548   7.847   5.858   3.469
 5535TIP3   OH216549   2.558   6.925   3.258
 5535TIP3    H116550   2.537   7.000   3.312
 5535TIP3    H216551   2.506   6.853   3.294
 5536TIP3   OH216552   2.745   1.939   1.938
 5536TIP3    H116553   2.689   1.887   1.879
 5536TIP3    H216554   2.810   1.876   1.970
 5537TIP3   OH216555   0.378   7.115   1.158
 5537TIP3    H116556   0.463   7.086   1.191
 5537TIP3    H216557   0.317   7.094   1.228
 5538TIP3   OH216558   7.987   0.905   0.620
 5538TIP3    H116559   8.072   0.893   0.663
 5538TIP3    H216560   8.006   0.964   0.546
 5539TIP3   OH216561   5.943   4.339   4.426
 5539TIP3    H116562   5.968   4.358   4.516
 5539TIP3    H216563   5.976   4.414   4.376
 5540TIP3   OH216564   3.157   6.813   3.956
 5540TIP3    H116565   3.175   6.808   4.050
 5540TIP3    H216566   3.238   6.843   3.917
 5541TIP3   OH216567   3.333   7.721   3.471
 5541TIP3    H116568   3.406   7.701   3.530
 5541TIP3    H216569   3.375   7.737   3.386
 5542TIP3   OH216570   7.872   0.272   4.207
 5542TIP3    H116571   7.802   0.241   4.265
 5542TIP3    H216572   7.907   0.349   4.251
 5543TIP3   OH216573   3.305   4.602   1.856
 5543TIP3    H116574   3.384   4.639   1.897
 5543TIP3    H216575   3.279   4.668   1.792
 5544TIP3   OH216576   5.731   1.539   3.188
 5544TIP3    H116577   5.804   1.530   3.127
 5544TIP3    H216578   5.722   1.633   3.202
 5545TIP3   OH216579   7.191   4.557   1.381
 5545TIP3    H116580   7.237   4.629   1.424
 5545TIP3    H216581   7.101   4.589   1.370
 5546TIP3   OH216582   5.736   3.112   4.291
 5546TIP3    H116583   5.682   3.191   4.286
 5546TIP3    H216584   5.745   3.083   4.201
 5547TIP3   OH216585   5.432   7.013   6.552
 5547TIP3    H116586   5.447   6.918   6.549
 5547TIP3    H216587   5.496   7.049   6.491
 5548TIP3   OH216588   6.311   3.284   2.056
 5548TIP3    H116589   6.386   3.343   2.061
 5548TIP3    H216590   6.235   3.343   2.049
 5549TIP3   OH216591   0.422   1.902   6.329
 5549TIP3    H116592   0.474   1.847   6.270
 5549TIP3    H216593   0.425   1.989   6.289
 5550TIP3   OH216594   2.548   5.844   5.007
 5550TIP3    H116595   2.591   5.821   5.090
 5550TIP3    H216596   2.506   5.763   4.979
 5551TIP3   OH216597   7.221   6.487   2.733
 5551TIP3    H116598   7.211   6.581   2.721
 5551TIP3    H216599   7.133   6.452   2.718
 5552TIP3   OH216600   0.834   2.985   4.870
 5552TIP3    H116601   0.838   2.931   4.949
 5552TIP3    H216602   0.749   2.965   4.831
 5553TIP3   OH216603   7.977   5.995   5.077
 5553TIP3    H116604   7.949   5.904   5.069
 5553TIP3    H216605   7.917   6.034   5.140
 5554TIP3   OH216606   3.317   5.278   2.157
 5554TIP3    H116607   3.334   5.358   2.206
 5554TIP3    H216608   3.273   5.308   2.077
 5555TIP3   OH216609   0.359   0.937   1.000
 5555TIP3    H116610   0.346   0.899   1.087
 5555TIP3    H216611   0.432   0.998   1.012
 5556TIP3   OH216612   5.974   7.009   6.624
 5556TIP3    H116613   5.969   7.012   6.529
 5556TIP3    H216614   6.020   7.089   6.649
 5557TIP3   OH216615   2.774   2.710   1.304
 5557TIP3    H116616   2.835   2.682   1.237
 5557TIP3    H216617   2.710   2.639   1.310
 5558TIP3   OH216618   5.861   7.304   5.924
 5558TIP3    H116619   5.798   7.323   5.855
 5558TIP3    H216620   5.808   7.296   6.004
 5559TIP3   OH216621   3.705   5.830   6.041
 5559TIP3    H116622   3.735   5.901   6.098
 5559TIP3    H216623   3.651   5.873   5.975
 5560TIP3   OH216624   8.054   7.808   3.382
 5560TIP3    H116625   8.125   7.854   3.427
 5560TIP3    H216626   8.090   7.786   3.296
 5561TIP3   OH216627   4.048   2.725   4.470
 5561TIP3    H116628   4.064   2.685   4.556
 5561TIP3    H216629   3.954   2.712   4.455
 5562TIP3   OH216630   4.149   4.765   0.580
 5562TIP3    H116631   4.109   4.685   0.545
 5562TIP3    H216632   4.238   4.765   0.544
 5563TIP3   OH216633   7.972   1.274   6.688
 5563TIP3    H116634   7.968   1.368   6.705
 5563TIP3    H216635   8.043   1.242   6.743
 5564TIP3   OH216636   7.372   0.702   3.804
 5564TIP3    H116637   7.397   0.776   3.859
 5564TIP3    H216638   7.414   0.626   3.845
 5565TIP3   OH216639   7.998   2.110   0.288
 5565TIP3    H116640   8.051   2.119   0.368
 5565TIP3    H216641   8.034   2.176   0.228
 5566TIP3   OH216642   8.036   3.283   1.979
 5566TIP3    H116643   8.056   3.270   2.072
 5566TIP3    H216644   8.121   3.282   1.936
 5567TIP3   OH216645   0.810   2.811   3.160
 5567TIP3    H116646   0.799   2.790   3.067
 5567TIP3    H216647   0.837   2.729   3.201
 5568TIP3   OH216648   2.004   3.196   2.140
 5568TIP3    H116649   2.012   3.222   2.232
 5568TIP3    H216650   1.922   3.146   2.136
 5569TIP3   OH216651   5.904   1.361   1.218
 5569TIP3    H116652   5.984   1.390   1.175
 5569TIP3    H216653   5.879   1.434   1.274
 5570TIP3   OH216654   5.530   0.881   1.630
 5570TIP3    H116655   5.608   0.891   1.684
 5570TIP3    H216656   5.527   0.960   1.576
 5571TIP3   OH216657   0.713   5.370   3.427
 5571TIP3    H116658   0.663   5.295   3.457
 5571TIP3    H216659   0.669   5.398   3.346
 5572TIP3   OH216660   4.747   2.640   3.702
 5572TIP3    H116661   4.712   2.712   3.756
 5572TIP3    H216662   4.795   2.585   3.764
 5573TIP3   OH216663   5.283   7.244   2.667
 5573TIP3    H116664   5.336   7.282   2.597
 5573TIP3    H216665   5.274   7.314   2.732
 5574TIP3   OH216666   7.690   7.064   2.219
 5574TIP3    H116667   7.696   7.144   2.272
 5574TIP3    H216668   7.781   7.043   2.197
 5575TIP3   OH216669   4.636   3.366   4.227
 5575TIP3    H116670   4.581   3.339   4.153
 5575TIP3    H216671   4.676   3.448   4.199
 5576TIP3   OH216672   1.513   3.693   2.028
 5576TIP3    H116673   1.496   3.770   2.081
 5576TIP3    H216674   1.433   3.641   2.036
 5577TIP3   OH216675   0.416   0.646   4.625
 5577TIP3    H116676   0.415   0.730   4.671
 5577TIP3    H216677   0.379   0.667   4.539
 5578TIP3   OH216678   3.568   3.522   2.353
 5578TIP3    H116679   3.629   3.592   2.375
 5578TIP3    H216680   3.557   3.472   2.434
 5579TIP3   OH216681   0.157   5.847   0.808
 5579TIP3    H116682   0.095   5.846   0.881
 5579TIP3    H216683   0.112   5.896   0.739
 5580TIP3   OH216684   5.841   5.904   1.174
 5580TIP3    H116685   5.893   5.893   1.253
 5580TIP3    H216686   5.861   5.993   1.145
 5581TIP3   OH216687   5.033   6.736   3.303
 5581TIP3    H116688   5.103   6.714   3.364
 5581TIP3    H216689   5.078   6.763   3.223
 5582TIP3   OH216690   6.654   7.185   4.870
 5582TIP3    H116691   6.670   7.153   4.781
 5582TIP3    H216692   6.619   7.273   4.858
 5583TIP3   OH216693   3.591   3.079   1.201
 5583TIP3    H116694   3.517   3.063   1.143
 5583TIP3    H216695   3.564   3.154   1.254
 5584TIP3   OH216696   5.817   7.646   0.130
 5584TIP3    H116697   5.744   7.656   0.070
 5584TIP3    H216698   5.851   7.734   0.142
 5585TIP3   OH216699   4.672   2.831   4.471
 5585TIP3    H116700   4.588   2.876   4.480
 5585TIP3    H216701   4.670   2.763   4.539
 5586TIP3   OH216702   4.562   5.072   3.268
 5586TIP3    H116703   4.610   5.074   3.184
 5586TIP3    H216704   4.511   4.991   3.264
 5587TIP3   OH216705   8.223   6.503   3.590
 5587TIP3    H116706   8.296   6.456   3.550
 5587TIP3    H216707   8.248   6.511   3.683
 5588TIP3   OH216708   6.423   3.100   6.095
 5588TIP3    H116709   6.502   3.155   6.096
 5588TIP3    H216710   6.426   3.056   6.010
 5589TIP3   OH216711   6.877   1.756   4.934
 5589TIP3    H116712   6.923   1.677   4.961
 5589TIP3    H216713   6.791   1.749   4.976
 5590TIP3   OH216714   1.494   5.472   3.513
 5590TIP3    H116715   1.582   5.447   3.485
 5590TIP3    H216716   1.508   5.539   3.580
 5591TIP3   OH216717   3.873  -0.030   0.249
 5591TIP3    H116718   3.801   0.032   0.243
 5591TIP3    H216719   3.922  -0.004   0.327
 5592TIP3   OH216720   7.315   7.133   1.140
 5592TIP3    H116721   7.244   7.197   1.145
 5592TIP3    H216722   7.348   7.139   1.051
 5593TIP3   OH216723   4.074   0.958   0.694
 5593TIP3    H116724   4.063   0.882   0.751
 5593TIP3    H216725   4.024   0.935   0.615
 5594TIP3   OH216726   7.312   2.178   1.808
 5594TIP3    H116727   7.376   2.153   1.874
 5594TIP3    H216728   7.235   2.123   1.827
 5595TIP3   OH216729   6.141   0.720   5.432
 5595TIP3    H116730   6.202   0.647   5.445
 5595TIP3    H216731   6.196   0.795   5.411
 5596TIP3   OH216732   3.258   0.234   4.265
 5596TIP3    H116733   3.254   0.195   4.352
 5596TIP3    H216734   3.328   0.300   4.270
 5597TIP3   OH216735   3.771   5.364   4.700
 5597TIP3    H116736   3.761   5.348   4.794
 5597TIP3    H216737   3.846   5.422   4.694
 5598TIP3   OH216738   4.451   3.342   3.210
 5598TIP3    H116739   4.524   3.393   3.176
 5598TIP3    H216740   4.416   3.394   3.283
 5599TIP3   OH216741   6.334   3.838   2.811
 5599TIP3    H116742   6.423   3.853   2.843
 5599TIP3    H216743   6.319   3.744   2.827
 5600TIP3   OH216744   1.612   0.764   4.792
 5600TIP3    H116745   1.554   0.692   4.769
 5600TIP3    H216746   1.699   0.733   4.768
 5601TIP3   OH216747   2.318   3.626   6.538
 5601TIP3    H116748   2.241   3.575   6.564
 5601TIP3    H216749   2.285   3.715   6.529
 5602TIP3   OH216750   2.151   6.192   2.567
 5602TIP3    H116751   2.242   6.178   2.593
 5602TIP3    H216752   2.119   6.259   2.627
 5603TIP3   OH216753   1.561   4.698   0.194
 5603TIP3    H116754   1.470   4.667   0.189
 5603TIP3    H216755   1.601   4.669   0.113
 5604TIP3   OH216756   7.908   6.238   4.624
 5604TIP3    H116757   7.909   6.292   4.703
 5604TIP3    H216758   7.985   6.182   4.633
 5605TIP3   OH216759   7.544   5.324   0.076
 5605TIP3    H116760   7.513   5.298  -0.011
 5605TIP3    H216761   7.503   5.409   0.092
 5606TIP3   OH216762   7.066   0.920   5.908
 5606TIP3    H116763   6.993   0.902   5.967
 5606TIP3    H216764   7.074   1.015   5.908
 5607TIP3   OH216765   7.374   1.791   5.605
 5607TIP3    H116766   7.381   1.885   5.585
 5607TIP3    H216767   7.459   1.755   5.581
 5608TIP3   OH216768   2.401   0.347   3.120
 5608TIP3    H116769   2.325   0.325   3.067
 5608TIP3    H216770   2.400   0.284   3.192
 5609TIP3   OH216771   1.949   1.368   4.628
 5609TIP3    H116772   1.931   1.322   4.546
 5609TIP3    H216773   2.044   1.359   4.639
 5610TIP3   OH216774   6.808   6.537   0.620
 5610TIP3    H116775   6.809   6.452   0.575
 5610TIP3    H216776   6.748   6.591   0.568
 5611TIP3   OH216777   0.516   3.717   4.263
 5611TIP3    H116778   0.557   3.777   4.201
 5611TIP3    H216779   0.499   3.771   4.340
 5612TIP3   OH216780   3.853   7.512   3.538
 5612TIP3    H116781   3.884   7.587   3.488
 5612TIP3    H216782   3.850   7.441   3.474
 5613TIP3   OH216783   6.078   1.187   1.409
 5613TIP3    H116784   6.037   1.272   1.389
 5613TIP3    H216785   6.084   1.144   1.324
 5614TIP3   OH216786   3.415   6.507   6.683
 5614TIP3    H116787   3.423   6.530   6.776
 5614TIP3    H216788   3.383   6.587   6.641
 5615TIP3   OH216789   4.975   1.575   0.137
 5615TIP3    H116790   5.037   1.526   0.191
 5615TIP3    H216791   4.905   1.513   0.119
 5616TIP3   OH216792   6.052   0.509   0.572
 5616TIP3    H116793   6.080   0.450   0.502
 5616TIP3    H216794   5.987   0.566   0.531
 5617TIP3   OH216795   7.506   7.616   0.809
 5617TIP3    H116796   7.561   7.591   0.883
 5617TIP3    H216797   7.422   7.573   0.826
 5618TIP3   OH216798   2.221   0.359   6.287
 5618TIP3    H116799   2.150   0.296   6.283
 5618TIP3    H216800   2.178   0.444   6.280
 5619TIP3   OH216801   7.296   6.015   5.795
 5619TIP3    H116802   7.354   6.060   5.734
 5619TIP3    H216803   7.246   6.086   5.837
 5620TIP3   OH216804   5.764   4.381   5.449
 5620TIP3    H116805   5.799   4.366   5.362
 5620TIP3    H216806   5.836   4.424   5.496
 5621TIP3   OH216807   2.202   2.625   2.989
 5621TIP3    H116808   2.241   2.673   2.916
 5621TIP3    H216809   2.113   2.658   2.995
 5622TIP3   OH216810   5.554   2.823   3.744
 5622TIP3    H116811   5.624   2.832   3.808
 5622TIP3    H216812   5.598   2.808   3.661
 5623TIP3   OH216813   0.063   0.298   0.363
 5623TIP3    H116814   0.119   0.363   0.406
 5623TIP3    H216815   0.087   0.301   0.271
 5624TIP3   OH216816   2.844   3.045   5.801
 5624TIP3    H116817   2.782   2.985   5.843
 5624TIP3    H216818   2.846   3.121   5.860
 5625TIP3   OH216819   3.193   6.699   0.809
 5625TIP3    H116820   3.287   6.692   0.819
 5625TIP3    H216821   3.179   6.781   0.760
 5626TIP3   OH216822   1.475   2.609   5.291
 5626TIP3    H116823   1.503   2.693   5.253
 5626TIP3    H216824   1.460   2.629   5.383
 5627TIP3   OH216825   4.480   3.723   1.976
 5627TIP3    H116826   4.545   3.702   2.043
 5627TIP3    H216827   4.418   3.782   2.021
 5628TIP3   OH216828   6.309   7.336   0.854
 5628TIP3    H116829   6.216   7.335   0.876
 5628TIP3    H216830   6.321   7.257   0.800
 5629TIP3   OH216831   6.658   2.797   1.863
 5629TIP3    H116832   6.659   2.725   1.801
 5629TIP3    H216833   6.713   2.768   1.935
 5630TIP3   OH216834   0.549   7.046   4.838
 5630TIP3    H116835   0.642   7.034   4.818
 5630TIP3    H216836   0.544   7.132   4.879
 5631TIP3   OH216837   8.224   4.490   3.377
 5631TIP3    H116838   8.280   4.505   3.454
 5631TIP3    H216839   8.247   4.561   3.317
 5632TIP3   OH216840   4.424   3.535   4.085
 5632TIP3    H116841   4.424   3.573   4.173
 5632TIP3    H216842   4.336   3.553   4.051
 5633TIP3   OH216843   4.708   0.245   4.201
 5633TIP3    H116844   4.743   0.300   4.131
 5633TIP3    H216845   4.615   0.235   4.180
 5634TIP3   OH216846   5.475   4.192   3.528
 5634TIP3    H116847   5.558   4.231   3.501
 5634TIP3    H216848   5.497   4.140   3.605
 5635TIP3   OH216849   3.587   3.236   6.741
 5635TIP3    H116850   3.615   3.320   6.776
 5635TIP3    H216851   3.545   3.257   6.658
 5636TIP3   OH216852   2.512   4.882   2.321
 5636TIP3    H116853   2.591   4.924   2.287
 5636TIP3    H216854   2.536   4.855   2.410
 5637TIP3   OH216855   2.902   3.515   1.421
 5637TIP3    H116856   2.816   3.548   1.394
 5637TIP3    H216857   2.888   3.480   1.509
 5638TIP3   OH216858   4.550   3.183   5.733
 5638TIP3    H116859   4.532   3.247   5.802
 5638TIP3    H216860   4.630   3.140   5.761
 5639TIP3   OH216861   6.191   1.147   0.457
 5639TIP3    H116862   6.118   1.207   0.445
 5639TIP3    H216863   6.252   1.194   0.513
 5640TIP3   OH216864   7.213   1.301   5.402
 5640TIP3    H116865   7.276   1.341   5.342
 5640TIP3    H216866   7.168   1.235   5.350
 5641TIP3   OH216867   6.590   1.760   3.587
 5641TIP3    H116868   6.666   1.806   3.552
 5641TIP3    H216869   6.626   1.678   3.622
 5642TIP3   OH216870   4.479   7.129   5.759
 5642TIP3    H116871   4.423   7.207   5.754
 5642TIP3    H216872   4.419   7.057   5.779
 5643TIP3   OH216873   5.096   5.316   0.813
 5643TIP3    H116874   5.066   5.306   0.904
 5643TIP3    H216875   5.191   5.305   0.819
 5644TIP3   OH216876   7.603   3.431   1.908
 5644TIP3    H116877   7.529   3.381   1.873
 5644TIP3    H216878   7.653   3.367   1.959
 5645TIP3   OH216879   6.428   5.762   2.773
 5645TIP3    H116880   6.464   5.687   2.820
 5645TIP3    H216881   6.440   5.741   2.680
 5646TIP3   OH216882   5.812   1.523   1.876
 5646TIP3    H116883   5.824   1.521   1.971
 5646TIP3    H216884   5.718   1.523   1.864
 5647TIP3   OH216885   0.694   4.001   3.781
 5647TIP3    H116886   0.628   4.014   3.849
 5647TIP3    H216887   0.735   3.918   3.802
 5648TIP3   OH216888   1.712   1.814   2.481
 5648TIP3    H116889   1.745   1.793   2.568
 5648TIP3    H216890   1.620   1.790   2.484
 5649TIP3   OH216891   1.133   1.922   1.059
 5649TIP3    H116892   1.129   1.843   1.005
 5649TIP3    H216893   1.075   1.904   1.133
 5650TIP3   OH216894   0.636   2.581   5.480
 5650TIP3    H116895   0.709   2.557   5.537
 5650TIP3    H216896   0.677   2.616   5.401
 5651TIP3   OH216897   4.844   3.074   6.318
 5651TIP3    H116898   4.749   3.084   6.326
 5651TIP3    H216899   4.879   3.160   6.340
 5652TIP3   OH216900   4.303   2.076   0.030
 5652TIP3    H116901   4.211   2.066   0.007
 5652TIP3    H216902   4.348   2.090  -0.054
 5653TIP3   OH216903   1.306   7.430   3.688
 5653TIP3    H116904   1.215   7.420   3.659
 5653TIP3    H216905   1.304   7.409   3.781
 5654TIP3   OH216906   4.906   5.002   2.214
 5654TIP3    H116907   4.832   4.992   2.154
 5654TIP3    H216908   4.886   4.943   2.287
 5655TIP3   OH216909   4.732   2.412   6.484
 5655TIP3    H116910   4.817   2.443   6.453
 5655TIP3    H216911   4.740   2.410   6.579
 5656TIP3   OH216912   7.436   6.509   1.741
 5656TIP3    H116913   7.441   6.511   1.645
 5656TIP3    H216914   7.343   6.496   1.760
 5657TIP3   OH216915   2.952   4.038   3.249
 5657TIP3    H116916   3.030   4.054   3.302
 5657TIP3    H216917   2.980   3.976   3.182
 5658TIP3   OH216918   0.698   4.506   3.288
 5658TIP3    H116919   0.724   4.546   3.205
 5658TIP3    H216920   0.633   4.567   3.324
 5659TIP3   OH216921   5.695   2.084   3.122
 5659TIP3    H116922   5.609   2.101   3.158
 5659TIP3    H216923   5.678   2.045   3.036
 5660TIP3   OH216924   1.597   7.640   5.342
 5660TIP3    H116925   1.653   7.710   5.310
 5660TIP3    H216926   1.627   7.562   5.295
 5661TIP3   OH216927   6.796   7.829   4.404
 5661TIP3    H116928   6.724   7.791   4.354
 5661TIP3    H216929   6.871   7.773   4.386
 5662TIP3   OH216930   7.699   2.762   2.764
 5662TIP3    H116931   7.785   2.726   2.784
 5662TIP3    H216932   7.715   2.826   2.694
 5663TIP3   OH216933   6.372   5.665   4.430
 5663TIP3    H116934   6.340   5.672   4.340
 5663TIP3    H216935   6.294   5.676   4.484
 5664TIP3   OH216936   4.242   4.899   1.323
 5664TIP3    H116937   4.182   4.875   1.252
 5664TIP3    H216938   4.315   4.838   1.315
 5665TIP3   OH216939   4.753   0.658   2.246
 5665TIP3    H116940   4.715   0.679   2.161
 5665TIP3    H216941   4.756   0.563   2.248
 5666TIP3   OH216942   6.159   7.557   3.177
 5666TIP3    H116943   6.227   7.619   3.151
 5666TIP3    H216944   6.082   7.583   3.127
 5667TIP3   OH216945   2.687   4.514   2.347
 5667TIP3    H116946   2.681   4.546   2.256
 5667TIP3    H216947   2.742   4.436   2.341
 5668TIP3   OH216948   5.185   5.234   5.379
 5668TIP3    H116949   5.254   5.259   5.440
 5668TIP3    H216950   5.127   5.310   5.375
 5669TIP3   OH216951   8.212   2.837   1.406
 5669TIP3    H116952   8.248   2.853   1.493
 5669TIP3    H216953   8.136   2.782   1.421
 5670TIP3   OH216954   5.428   2.957   2.148
 5670TIP3    H116955   5.386   2.939   2.232
 5670TIP3    H216956   5.359   2.942   2.083
 5671TIP3   OH216957   0.801   6.749   5.390
 5671TIP3    H116958   0.715   6.748   5.346
 5671TIP3    H216959   0.811   6.840   5.420
 5672TIP3   OH216960   3.084   7.162   3.847
 5672TIP3    H116961   3.155   7.120   3.800
 5672TIP3    H216962   3.058   7.098   3.913
 5673TIP3   OH216963   8.159   4.975   4.379
 5673TIP3    H116964   8.252   4.953   4.386
 5673TIP3    H216965   8.125   4.962   4.467
 5674TIP3   OH216966   5.917   2.024   2.374
 5674TIP3    H116967   5.974   1.998   2.447
 5674TIP3    H216968   5.897   1.942   2.329
 5675TIP3   OH216969   5.346   1.463   2.052
 5675TIP3    H116970   5.321   1.371   2.062
 5675TIP3    H216971   5.326   1.503   2.136
 5676TIP3   OH216972   3.972   0.330   3.683
 5676TIP3    H116973   3.876   0.330   3.681
 5676TIP3    H216974   3.994   0.314   3.774
 5677TIP3   OH216975   7.992   2.416   3.880
 5677TIP3    H116976   7.950   2.352   3.822
 5677TIP3    H216977   8.080   2.426   3.844
 5678TIP3   OH216978   6.605   3.997   2.024
 5678TIP3    H116979   6.570   4.039   2.102
 5678TIP3    H216980   6.690   3.962   2.051
 5679TIP3   OH216981   4.738   1.003   4.308
 5679TIP3    H116982   4.740   0.971   4.217
 5679TIP3    H216983   4.749   0.924   4.361
 5680TIP3   OH216984   6.239   3.856   1.873
 5680TIP3    H116985   6.219   3.778   1.925
 5680TIP3    H216986   6.216   3.831   1.783
 5681TIP3   OH216987   4.898   7.189   1.841
 5681TIP3    H116988   4.815   7.142   1.848
 5681TIP3    H216989   4.964   7.120   1.835
 5682TIP3   OH216990   5.369   6.561   1.229
 5682TIP3    H116991   5.457   6.527   1.217
 5682TIP3    H216992   5.312   6.486   1.216
 5683TIP3   OH216993   2.608   3.398   4.021
 5683TIP3    H116994   2.582   3.316   4.064
 5683TIP3    H216995   2.642   3.370   3.936
 5684TIP3   OH216996   6.826   3.762   3.004
 5684TIP3    H116997   6.899   3.750   3.065
 5684TIP3    H216998   6.784   3.676   3.000
 5685TIP3   OH216999   0.095   0.269   2.255
 5685TIP3    H117000   0.078   0.215   2.332
 5685TIP3    H217001   0.178   0.237   2.221
 5686TIP3   OH217002   2.824   4.462   1.599
 5686TIP3    H117003   2.802   4.401   1.529
 5686TIP3    H217004   2.751   4.453   1.661
 5687TIP3   OH217005   7.348   1.869   6.194
 5687TIP3    H117006   7.307   1.857   6.280
 5687TIP3    H217007   7.398   1.950   6.201
 5688TIP3   OH217008   5.819   3.630   5.634
 5688TIP3    H117009   5.906   3.621   5.595
 5688TIP3    H217010   5.789   3.717   5.606
 5689TIP3   OH217011   0.663   4.831   3.023
 5689TIP3    H117012   0.570   4.822   3.043
 5689TIP3    H217013   0.695   4.741   3.015
 5690TIP3   OH217014   4.522   0.714   5.140
 5690TIP3    H117015   4.437   0.729   5.099
 5690TIP3    H217016   4.510   0.636   5.194
 5691TIP3   OH217017   5.154   2.430   5.956
 5691TIP3    H117018   5.101   2.360   5.995
 5691TIP3    H217019   5.110   2.450   5.873
 5692TIP3   OH217020   3.689   1.890   4.244
 5692TIP3    H117021   3.725   1.976   4.222
 5692TIP3    H217022   3.732   1.867   4.327
 5693TIP3   OH217023   6.087   6.664   3.191
 5693TIP3    H117024   6.159   6.718   3.157
 5693TIP3    H217025   6.008   6.705   3.156
 5694TIP3   OH217026   6.142   0.871   0.350
 5694TIP3    H117027   6.108   0.916   0.428
 5694TIP3    H217028   6.237   0.875   0.360
 5695TIP3   OH217029   0.322   7.177   4.622
 5695TIP3    H117030   0.380   7.121   4.570
 5695TIP3    H217031   0.380   7.243   4.659
 5696TIP3   OH217032   5.833   6.403   3.239
 5696TIP3    H117033   5.835   6.314   3.276
 5696TIP3    H217034   5.922   6.436   3.249
 5697TIP3   OH217035   5.879   5.056   4.886
 5697TIP3    H117036   5.967   5.073   4.918
 5697TIP3    H217037   5.859   5.129   4.828
 5698TIP3   OH217038   1.925   6.499   2.578
 5698TIP3    H117039   2.000   6.504   2.636
 5698TIP3    H217040   1.961   6.521   2.491
 5699TIP3   OH217041   7.407   5.192   4.381
 5699TIP3    H117042   7.336   5.199   4.444
 5699TIP3    H217043   7.420   5.282   4.349
 5700TIP3   OH217044   6.474   3.510   1.431
 5700TIP3    H117045   6.487   3.443   1.364
 5700TIP3    H217046   6.441   3.586   1.383
 5701TIP3   OH217047   7.551   1.683   0.445
 5701TIP3    H117048   7.572   1.769   0.410
 5701TIP3    H217049   7.568   1.690   0.539
 5702TIP3   OH217050   5.248   3.536   1.955
 5702TIP3    H117051   5.280   3.603   2.015
 5702TIP3    H217052   5.153   3.533   1.970
 5703TIP3   OH217053   6.837   6.546   2.174
 5703TIP3    H117054   6.789   6.476   2.218
 5703TIP3    H217055   6.914   6.503   2.137
 5704TIP3   OH217056   1.377   6.691   1.463
 5704TIP3    H117057   1.453   6.711   1.517
 5704TIP3    H217058   1.409   6.697   1.373
 5705TIP3   OH217059   3.005   4.729   1.223
 5705TIP3    H117060   2.911   4.711   1.224
 5705TIP3    H217061   3.011   4.821   1.196
 5706TIP3   OH217062   5.312   4.181   3.032
 5706TIP3    H117063   5.253   4.238   2.982
 5706TIP3    H217064   5.261   4.156   3.109
 5707TIP3   OH217065   0.807   6.180   4.277
 5707TIP3    H117066   0.784   6.090   4.254
 5707TIP3    H217067   0.733   6.233   4.245
 5708TIP3   OH217068   2.762   7.671   3.226
 5708TIP3    H117069   2.851   7.692   3.199
 5708TIP3    H217070   2.773   7.598   3.287
 5709TIP3   OH217071   6.729   4.602   1.105
 5709TIP3    H117072   6.726   4.512   1.138
 5709TIP3    H217073   6.643   4.616   1.067
 5710TIP3   OH217074   1.522   4.464   4.762
 5710TIP3    H117075   1.503   4.475   4.855
 5710TIP3    H217076   1.436   4.463   4.720
 5711TIP3   OH217077   5.621   3.468   5.519
 5711TIP3    H117078   5.537   3.512   5.533
 5711TIP3    H217079   5.687   3.531   5.548
 5712TIP3   OH217080   7.536   0.666   5.787
 5712TIP3    H117081   7.471   0.736   5.781
 5712TIP3    H217082   7.525   0.631   5.876
 5713TIP3   OH217083   4.051   6.095   4.857
 5713TIP3    H117084   4.146   6.094   4.851
 5713TIP3    H217085   4.025   6.176   4.812
 5714TIP3   OH217086   2.004   2.878   0.138
 5714TIP3    H117087   1.983   2.910   0.050
 5714TIP3    H217088   1.929   2.902   0.192
 5715TIP3   OH217089   8.044   6.727   5.746
 5715TIP3    H117090   8.069   6.740   5.655
 5715TIP3    H217091   7.993   6.646   5.745
 5716TIP3   OH217092   4.496   7.415   3.114
 5716TIP3    H117093   4.495   7.454   3.202
 5716TIP3    H217094   4.587   7.420   3.087
 5717TIP3   OH217095   1.117   3.749   5.917
 5717TIP3    H117096   1.132   3.655   5.904
 5717TIP3    H217097   1.135   3.788   5.831
 5718TIP3   OH217098   4.116   6.812   4.260
 5718TIP3    H117099   4.123   6.777   4.349
 5718TIP3    H217100   4.063   6.891   4.269
 5719TIP3   OH217101   2.216   1.092   1.358
 5719TIP3    H117102   2.176   1.113   1.274
 5719TIP3    H217103   2.163   1.139   1.423
 5720TIP3   OH217104   1.521   1.564   1.635
 5720TIP3    H117105   1.557   1.480   1.666
 5720TIP3    H217106   1.598   1.621   1.626
 5721TIP3   OH217107   3.577   6.476   4.526
 5721TIP3    H117108   3.648   6.521   4.571
 5721TIP3    H217109   3.510   6.465   4.593
 5722TIP3   OH217110   1.090   7.138   0.096
 5722TIP3    H117111   1.108   7.208   0.158
 5722TIP3    H217112   0.998   7.150   0.072
 5723TIP3   OH217113   5.077   1.346   4.099
 5723TIP3    H117114   5.079   1.441   4.088
 5723TIP3    H217115   5.089   1.332   4.193
 5724TIP3   OH217116   7.079   7.496   0.279
 5724TIP3    H117117   7.004   7.547   0.249
 5724TIP3    H217118   7.095   7.433   0.208
 5725TIP3   OH217119   5.533   1.187   1.831
 5725TIP3    H117120   5.449   1.158   1.795
 5725TIP3    H217121   5.510   1.225   1.916
 5726TIP3   OH217122   1.005   1.945   3.480
 5726TIP3    H117123   1.091   1.922   3.514
 5726TIP3    H217124   0.946   1.938   3.556
 5727TIP3   OH217125   2.817   5.721   4.158
 5727TIP3    H117126   2.879   5.792   4.176
 5727TIP3    H217127   2.845   5.650   4.216
 5728TIP3   OH217128   5.027   1.423   2.655
 5728TIP3    H117129   4.977   1.488   2.607
 5728TIP3    H217130   4.994   1.339   2.623
 5729TIP3   OH217131   4.160   1.817   0.054
 5729TIP3    H117132   4.188   1.792  -0.034
 5729TIP3    H217133   4.066   1.835   0.045
 5730TIP3   OH217134   0.496   5.785   4.591
 5730TIP3    H117135   0.579   5.828   4.570
 5730TIP3    H217136   0.446   5.851   4.638
 5731TIP3   OH217137   3.736   4.317   2.162
 5731TIP3    H117138   3.688   4.305   2.079
 5731TIP3    H217139   3.723   4.409   2.184
 5732TIP3   OH217140   5.444   7.692   1.799
 5732TIP3    H117141   5.436   7.640   1.719
 5732TIP3    H217142   5.379   7.654   1.858
 5733TIP3   OH217143   0.333   4.869   1.086
 5733TIP3    H117144   0.381   4.947   1.057
 5733TIP3    H217145   0.345   4.806   1.015
 5734TIP3   OH217146   7.398   1.392   5.219
 5734TIP3    H117147   7.418   1.480   5.186
 5734TIP3    H217148   7.472   1.338   5.192
 5735TIP3   OH217149   3.912   7.511   3.848
 5735TIP3    H117150   3.973   7.448   3.811
 5735TIP3    H217151   3.875   7.556   3.772
 5736TIP3   OH217152   3.866   2.100   3.638
 5736TIP3    H117153   3.800   2.066   3.577
 5736TIP3    H217154   3.818   2.162   3.693
 5737TIP3   OH217155   1.231   3.919   3.244
 5737TIP3    H117156   1.268   3.916   3.156
 5737TIP3    H217157   1.164   3.850   3.244
 5738TIP3   OH217158   1.510   7.554   1.268
 5738TIP3    H117159   1.451   7.626   1.247
 5738TIP3    H217160   1.539   7.521   1.183
 5739TIP3   OH217161   4.551   6.606   0.592
 5739TIP3    H117162   4.619   6.576   0.531
 5739TIP3    H217163   4.577   6.571   0.677
 5740TIP3   OH217164   0.811   2.980   1.659
 5740TIP3    H117165   0.905   2.972   1.647
 5740TIP3    H217166   0.794   2.942   1.745
 5741TIP3   OH217167   0.027   1.502   0.966
 5741TIP3    H117168   0.049   1.423   1.015
 5741TIP3    H217169   0.078   1.572   1.007
 5742TIP3   OH217170   6.004   2.941   4.260
 5742TIP3    H117171   6.007   3.029   4.222
 5742TIP3    H217172   6.096   2.917   4.270
 5743TIP3   OH217173   2.662   5.511   1.979
 5743TIP3    H117174   2.720   5.482   2.050
 5743TIP3    H217175   2.624   5.592   2.011
 5744TIP3   OH217176   2.761   3.843   0.165
 5744TIP3    H117177   2.813   3.852   0.085
 5744TIP3    H217178   2.802   3.770   0.212
 5745TIP3   OH217179   6.054   1.908   2.013
 5745TIP3    H117180   6.016   1.993   2.031
 5745TIP3    H217181   6.085   1.914   1.922
 5746TIP3   OH217182   5.088   5.581   2.366
 5746TIP3    H117183   5.159   5.616   2.311
 5746TIP3    H217184   5.014   5.573   2.307
 5747TIP3   OH217185   2.353   0.390   2.114
 5747TIP3    H117186   2.356   0.299   2.082
 5747TIP3    H217187   2.377   0.384   2.206
 5748TIP3   OH217188   1.590   3.413   4.662
 5748TIP3    H117189   1.545   3.363   4.594
 5748TIP3    H217190   1.661   3.356   4.690
 5749TIP3   OH217191   5.481   2.538   0.646
 5749TIP3    H117192   5.559   2.490   0.618
 5749TIP3    H217193   5.418   2.524   0.575
 5750TIP3   OH217194   1.104   6.513   6.540
 5750TIP3    H117195   1.184   6.543   6.584
 5750TIP3    H217196   1.033   6.541   6.597
 5751TIP3   OH217197   3.849   3.462   1.401
 5751TIP3    H117198   3.920   3.500   1.453
 5751TIP3    H217199   3.771   3.475   1.455
 5752TIP3   OH217200   7.027   5.121   3.107
 5752TIP3    H117201   7.038   5.047   3.047
 5752TIP3    H217202   7.093   5.107   3.175
 5753TIP3   OH217203   4.139   1.216   5.446
 5753TIP3    H117204   4.201   1.165   5.393
 5753TIP3    H217205   4.098   1.276   5.384
 5754TIP3   OH217206   7.336   3.929   1.180
 5754TIP3    H117207   7.258   3.879   1.155
 5754TIP3    H217208   7.304   4.000   1.235
 5755TIP3   OH217209   3.282   0.842   2.599
 5755TIP3    H117210   3.249   0.928   2.626
 5755TIP3    H217211   3.206   0.784   2.604
 5756TIP3   OH217212   0.225   5.727   1.141
 5756TIP3    H117213   0.303   5.740   1.087
 5756TIP3    H217214   0.223   5.633   1.159
 5757TIP3   OH217215   4.622   4.533   6.652
 5757TIP3    H117216   4.559   4.549   6.722
 5757TIP3    H217217   4.676   4.460   6.684
 5758TIP3   OH217218   6.409   7.131   1.864
 5758TIP3    H117219   6.353   7.137   1.786
 5758TIP3    H217220   6.461   7.052   1.850
 5759TIP3   OH217221   0.879   0.636   6.374
 5759TIP3    H117222   0.965   0.672   6.392
 5759TIP3    H217223   0.891   0.541   6.379
 5760TIP3   OH217224   5.055   7.060   3.969
 5760TIP3    H117225   5.048   6.987   4.030
 5760TIP3    H217226   5.143   7.095   3.983
 5761TIP3   OH217227   2.481   1.155   0.496
 5761TIP3    H117228   2.521   1.197   0.572
 5761TIP3    H217229   2.546   1.091   0.466
 5762TIP3   OH217230   4.233   6.709   4.929
 5762TIP3    H117231   4.140   6.704   4.953
 5762TIP3    H217232   4.252   6.625   4.886
 5763TIP3   OH217233   1.694   3.680   4.658
 5763TIP3    H117234   1.613   3.731   4.648
 5763TIP3    H217235   1.665   3.597   4.698
 5764TIP3   OH217236   6.674   7.758   4.739
 5764TIP3    H117237   6.713   7.685   4.787
 5764TIP3    H217238   6.639   7.719   4.659
 5765TIP3   OH217239   2.395   1.177   5.220
 5765TIP3    H117240   2.356   1.116   5.157
 5765TIP3    H217241   2.381   1.263   5.183
 5766TIP3   OH217242   6.768   1.343   5.413
 5766TIP3    H117243   6.854   1.368   5.445
 5766TIP3    H217244   6.722   1.426   5.400
 5767TIP3   OH217245   1.096   2.426   2.707
 5767TIP3    H117246   1.110   2.520   2.701
 5767TIP3    H217247   1.009   2.413   2.670
 5768TIP3   OH217248   0.761   1.606   5.195
 5768TIP3    H117249   0.857   1.603   5.197
 5768TIP3    H217250   0.738   1.669   5.264
 5769TIP3   OH217251   5.958   7.325   5.357
 5769TIP3    H117252   5.906   7.266   5.301
 5769TIP3    H217253   5.958   7.282   5.442
 5770TIP3   OH217254   7.399   7.626   4.707
 5770TIP3    H117255   7.387   7.716   4.676
 5770TIP3    H217256   7.428   7.578   4.629
 5771TIP3   OH217257   3.115   3.231   1.322
 5771TIP3    H117258   3.044   3.268   1.269
 5771TIP3    H217259   3.180   3.301   1.327
 5772TIP3   OH217260   1.877   4.905   5.705
 5772TIP3    H117261   1.884   4.962   5.781
 5772TIP3    H217262   1.842   4.961   5.636
 5773TIP3   OH217263   7.074   7.126   3.381
 5773TIP3    H117264   6.993   7.176   3.395
 5773TIP3    H217265   7.144   7.188   3.401
 5774TIP3   OH217266   4.531   3.586   5.379
 5774TIP3    H117267   4.596   3.517   5.391
 5774TIP3    H217268   4.467   3.572   5.448
 5775TIP3   OH217269   1.100   7.780   3.733
 5775TIP3    H117270   1.056   7.695   3.731
 5775TIP3    H217271   1.048   7.836   3.675
 5776TIP3   OH217272   7.586   3.886   2.292
 5776TIP3    H117273   7.622   3.835   2.365
 5776TIP3    H217274   7.631   3.970   2.297
 5777TIP3   OH217275   2.462   1.545   0.699
 5777TIP3    H117276   2.482   1.591   0.618
 5777TIP3    H217277   2.534   1.483   0.710
 5778TIP3   OH217278   4.384   4.119   5.405
 5778TIP3    H117279   4.404   4.081   5.491
 5778TIP3    H217280   4.324   4.191   5.424
 5779TIP3   OH217281   1.013   5.601   5.821
 5779TIP3    H117282   0.932   5.650   5.833
 5779TIP3    H217283   0.985   5.517   5.785
 5780TIP3   OH217284   5.685   6.052   2.590
 5780TIP3    H117285   5.690   6.137   2.546
 5780TIP3    H217286   5.649   6.072   2.676
 5781TIP3   OH217287   4.368   3.389   3.465
 5781TIP3    H117288   4.438   3.342   3.511
 5781TIP3    H217289   4.385   3.481   3.485
 5782TIP3   OH217290   7.008   1.916   4.728
 5782TIP3    H117291   7.084   1.940   4.781
 5782TIP3    H217292   6.959   1.854   4.783
 5783TIP3   OH217293   2.321   3.263   2.024
 5783TIP3    H117294   2.361   3.240   2.108
 5783TIP3    H217295   2.362   3.347   2.001
 5784TIP3   OH217296   1.924   0.238   0.977
 5784TIP3    H117297   1.976   0.299   1.029
 5784TIP3    H217298   1.883   0.293   0.910
 5785TIP3   OH217299   3.880   6.600   2.179
 5785TIP3    H117300   3.841   6.683   2.208
 5785TIP3    H217301   3.812   6.535   2.193
 5786TIP3   OH217302   1.255   6.065   5.454
 5786TIP3    H117303   1.206   6.138   5.492
 5786TIP3    H217304   1.347   6.085   5.474
 5787TIP3   OH217305   6.208   5.078   1.763
 5787TIP3    H117306   6.295   5.091   1.725
 5787TIP3    H217307   6.199   4.983   1.771
 5788TIP3   OH217308   5.708   4.318   4.309
 5788TIP3    H117309   5.741   4.380   4.244
 5788TIP3    H217310   5.778   4.310   4.373
 5789TIP3   OH217311   3.453   2.420   0.886
 5789TIP3    H117312   3.362   2.446   0.892
 5789TIP3    H217313   3.494   2.486   0.830
 5790TIP3   OH217314   0.715   4.976   4.571
 5790TIP3    H117315   0.646   5.042   4.566
 5790TIP3    H217316   0.769   4.992   4.493
 5791TIP3   OH217317   3.250   3.681   6.110
 5791TIP3    H117318   3.329   3.704   6.061
 5791TIP3    H217319   3.268   3.711   6.200
 5792TIP3   OH217320   2.396   4.614   3.333
 5792TIP3    H117321   2.382   4.690   3.388
 5792TIP3    H217322   2.484   4.583   3.356
 5793TIP3   OH217323   7.161   0.895   4.789
 5793TIP3    H117324   7.220   0.918   4.718
 5793TIP3    H217325   7.122   0.812   4.764
 5794TIP3   OH217326   7.630   2.309   1.296
 5794TIP3    H117327   7.679   2.261   1.230
 5794TIP3    H217328   7.585   2.378   1.246
 5795TIP3   OH217329   3.400   0.540   0.328
 5795TIP3    H117330   3.402   0.445   0.340
 5795TIP3    H217331   3.475   0.560   0.272
 5796TIP3   OH217332   3.088   1.213   0.311
 5796TIP3    H117333   2.994   1.223   0.323
 5796TIP3    H217334   3.097   1.154   0.236
 5797TIP3   OH217335   2.704   7.170   5.367
 5797TIP3    H117336   2.781   7.194   5.316
 5797TIP3    H217337   2.703   7.233   5.439
 5798TIP3   OH217338   0.118   4.790   2.119
 5798TIP3    H117339   0.186   4.767   2.182
 5798TIP3    H217340   0.153   4.759   2.035
 5799TIP3   OH217341   1.081   2.639   3.063
 5799TIP3    H117342   1.057   2.547   3.050
 5799TIP3    H217343   1.032   2.686   2.996
 5800TIP3   OH217344   4.035   3.437   4.752
 5800TIP3    H117345   4.124   3.471   4.759
 5800TIP3    H217346   4.042   3.364   4.691
 5801TIP3   OH217347   8.122   5.586   4.672
 5801TIP3    H117348   8.121   5.680   4.689
 5801TIP3    H217349   8.190   5.552   4.731
 5802TIP3   OH217350   4.868   7.454   1.464
 5802TIP3    H117351   4.908   7.526   1.415
 5802TIP3    H217352   4.780   7.485   1.485
 5803TIP3   OH217353   0.642   0.632   6.665
 5803TIP3    H117354   0.711   0.654   6.728
 5803TIP3    H217355   0.663   0.543   6.637
 5804TIP3   OH217356   3.664   3.986   3.149
 5804TIP3    H117357   3.722   3.943   3.211
 5804TIP3    H217358   3.704   3.970   3.063
 5805TIP3   OH217359   1.902   1.599   2.989
 5805TIP3    H117360   1.906   1.516   3.038
 5805TIP3    H217361   1.843   1.654   3.041
 5806TIP3   OH217362   3.743   3.488   1.714
 5806TIP3    H117363   3.765   3.573   1.675
 5806TIP3    H217364   3.825   3.458   1.753
 5807TIP3   OH217365   5.033   1.685   1.679
 5807TIP3    H117366   4.987   1.603   1.665
 5807TIP3    H217367   5.084   1.698   1.598
 5808TIP3   OH217368   2.041   6.558   3.198
 5808TIP3    H117369   2.005   6.479   3.237
 5808TIP3    H217370   1.967   6.619   3.194
 5809TIP3   OH217371   1.010   1.558   4.030
 5809TIP3    H117372   0.987   1.484   4.087
 5809TIP3    H217373   0.940   1.622   4.043
 5810TIP3   OH217374   5.433   6.225   2.488
 5810TIP3    H117375   5.423   6.320   2.497
 5810TIP3    H217376   5.510   6.214   2.432
 5811TIP3   OH217377   1.073   0.982   0.591
 5811TIP3    H117378   1.167   0.985   0.606
 5811TIP3    H217379   1.046   1.074   0.593
 5812TIP3   OH217380   0.964   1.771   2.714
 5812TIP3    H117381   1.047   1.726   2.733
 5812TIP3    H217382   0.984   1.827   2.639
 5813TIP3   OH217383   2.657   2.374   4.644
 5813TIP3    H117384   2.744   2.401   4.672
 5813TIP3    H217385   2.650   2.406   4.554
 5814TIP3   OH217386   2.051   7.013   0.764
 5814TIP3    H117387   2.083   7.097   0.731
 5814TIP3    H217388   2.055   7.022   0.859
 5815TIP3   OH217389   5.837   4.840   4.683
 5815TIP3    H117390   5.907   4.814   4.623
 5815TIP3    H217391   5.876   4.906   4.739
 5816TIP3   OH217392   0.907   5.927   5.774
 5816TIP3    H117393   0.983   5.887   5.732
 5816TIP3    H217394   0.939   6.010   5.808
 5817TIP3   OH217395   6.481   1.553   6.782
 5817TIP3    H117396   6.553   1.492   6.798
 5817TIP3    H217397   6.519   1.621   6.726
 5818TIP3   OH217398   6.275   1.750   5.752
 5818TIP3    H117399   6.195   1.731   5.703
 5818TIP3    H217400   6.335   1.789   5.688
 5819TIP3   OH217401   5.079   6.825   0.644
 5819TIP3    H117402   4.986   6.806   0.653
 5819TIP3    H217403   5.096   6.891   0.712
 5820TIP3   OH217404   0.011   7.161   3.384
 5820TIP3    H117405   0.003   7.083   3.439
 5820TIP3    H217406   0.032   7.127   3.297
 5821TIP3   OH217407   3.165   3.232   0.662
 5821TIP3    H117408   3.197   3.299   0.722
 5821TIP3    H217409   3.244   3.182   0.638
 5822TIP3   OH217410   6.631   5.871   6.543
 5822TIP3    H117411   6.637   5.958   6.503
 5822TIP3    H217412   6.722   5.843   6.553
 5823TIP3   OH217413   2.838   1.591   6.058
 5823TIP3    H117414   2.775   1.526   6.089
 5823TIP3    H217415   2.900   1.541   6.005
 5824TIP3   OH217416   5.330   4.635   1.064
 5824TIP3    H117417   5.303   4.579   0.991
 5824TIP3    H217418   5.263   4.703   1.068
 5825TIP3   OH217419   3.798   1.852   1.893
 5825TIP3    H117420   3.870   1.807   1.848
 5825TIP3    H217421   3.794   1.809   1.979
 5826TIP3   OH217422   2.960   4.177   3.536
 5826TIP3    H117423   2.950   4.084   3.519
 5826TIP3    H217424   3.042   4.185   3.584
 5827TIP3   OH217425   8.224   4.628   2.234
 5827TIP3    H117426   8.244   4.628   2.328
 5827TIP3    H217427   8.291   4.684   2.195
 5828TIP3   OH217428   1.685   1.811   1.578
 5828TIP3    H117429   1.636   1.825   1.497
 5828TIP3    H217430   1.732   1.894   1.592
 5829TIP3   OH217431   2.724   6.323   0.784
 5829TIP3    H117432   2.745   6.357   0.697
 5829TIP3    H217433   2.633   6.293   0.777
 5830TIP3   OH217434   1.096   0.492   0.462
 5830TIP3    H117435   1.125   0.549   0.533
 5830TIP3    H217436   1.055   0.417   0.505
 5831TIP3   OH217437   1.011   2.246   2.442
 5831TIP3    H117438   1.075   2.316   2.442
 5831TIP3    H217439   0.956   2.264   2.518
 5832TIP3   OH217440   3.498   6.076   1.344
 5832TIP3    H117441   3.443   5.998   1.348
 5832TIP3    H217442   3.509   6.093   1.250
 5833TIP3   OH217443   2.269   1.126   4.965
 5833TIP3    H117444   2.174   1.137   4.974
 5833TIP3    H217445   2.281   1.033   4.947
 5834TIP3   OH217446   7.198   4.778   4.058
 5834TIP3    H117447   7.135   4.764   4.128
 5834TIP3    H217448   7.227   4.869   4.069
 5835TIP3   OH217449   3.211   2.808   4.819
 5835TIP3    H117450   3.286   2.756   4.788
 5835TIP3    H217451   3.250   2.889   4.851
 5836TIP3   OH217452   5.889   1.211   5.163
 5836TIP3    H117453   5.840   1.255   5.232
 5836TIP3    H217454   5.955   1.275   5.136
 5837TIP3   OH217455   4.904   3.566   4.901
 5837TIP3    H117456   4.836   3.499   4.896
 5837TIP3    H217457   4.857   3.646   4.923
 5838TIP3   OH217458   5.249   1.611   1.144
 5838TIP3    H117459   5.233   1.669   1.219
 5838TIP3    H217460   5.167   1.564   1.132
 5839TIP3   OH217461   5.992   7.626   4.999
 5839TIP3    H117462   6.045   7.565   5.051
 5839TIP3    H217463   6.004   7.711   5.042
 5840TIP3   OH217464   6.115   5.210   5.304
 5840TIP3    H117465   6.047   5.157   5.345
 5840TIP3    H217466   6.073   5.249   5.228
 5841TIP3   OH217467   3.828   3.349   1.973
 5841TIP3    H117468   3.873   3.346   2.057
 5841TIP3    H217469   3.747   3.397   1.990
 5842TIP3   OH217470   6.762   5.191   6.410
 5842TIP3    H117471   6.823   5.262   6.430
 5842TIP3    H217472   6.676   5.234   6.406
 5843TIP3   OH217473   5.757   5.073   4.235
 5843TIP3    H117474   5.703   5.031   4.168
 5843TIP3    H217475   5.814   5.132   4.187
 5844TIP3   OH217476   0.889   0.773   5.741
 5844TIP3    H117477   0.861   0.766   5.833
 5844TIP3    H217478   0.904   0.683   5.713
 5845TIP3   OH217479   0.091   5.302   2.787
 5845TIP3    H117480   0.150   5.251   2.731
 5845TIP3    H217481   0.150   5.356   2.839
 5846TIP3   OH217482   4.458   4.440   4.755
 5846TIP3    H117483   4.382   4.385   4.739
 5846TIP3    H217484   4.505   4.440   4.671
 5847TIP3   OH217485   6.405   6.381   1.241
 5847TIP3    H117486   6.412   6.476   1.232
 5847TIP3    H217487   6.404   6.366   1.335
 5848TIP3   OH217488   4.119   0.537   2.226
 5848TIP3    H117489   4.052   0.559   2.291
 5848TIP3    H217490   4.074   0.477   2.166
 5849TIP3   OH217491   6.052   0.451   4.133
 5849TIP3    H117492   6.112   0.457   4.206
 5849TIP3    H217493   6.026   0.359   4.131
 5850TIP3   OH217494   2.465   5.681   3.174
 5850TIP3    H117495   2.372   5.690   3.196
 5850TIP3    H217496   2.498   5.771   3.171
 5851TIP3   OH217497   7.004   4.190   5.156
 5851TIP3    H117498   7.069   4.153   5.096
 5851TIP3    H217499   6.921   4.152   5.128
 5852TIP3   OH217500   6.905   5.294   5.990
 5852TIP3    H117501   6.810   5.283   5.998
 5852TIP3    H217502   6.915   5.373   5.936
 5853TIP3   OH217503   3.599   4.763   2.736
 5853TIP3    H117504   3.628   4.826   2.802
 5853TIP3    H217505   3.678   4.743   2.686
 5854TIP3   OH217506   5.716   5.412   0.296
 5854TIP3    H117507   5.699   5.378   0.384
 5854TIP3    H217508   5.679   5.346   0.238
 5855TIP3   OH217509   4.320   3.297   6.367
 5855TIP3    H117510   4.351   3.270   6.280
 5855TIP3    H217511   4.354   3.385   6.379
 5856TIP3   OH217512   2.171   3.266   6.222
 5856TIP3    H117513   2.148   3.316   6.300
 5856TIP3    H217514   2.226   3.195   6.254
 5857TIP3   OH217515   2.976   5.968   2.549
 5857TIP3    H117516   3.010   6.010   2.470
 5857TIP3    H217517   3.046   5.909   2.577
 5858TIP3   OH217518   3.415   4.055   1.697
 5858TIP3    H117519   3.473   4.036   1.771
 5858TIP3    H217520   3.370   4.136   1.722
 5859TIP3   OH217521   3.542   6.895   5.903
 5859TIP3    H117522   3.516   6.831   5.837
 5859TIP3    H217523   3.564   6.973   5.853
 5860TIP3   OH217524   1.510   6.115   0.378
 5860TIP3    H117525   1.525   6.023   0.354
 5860TIP3    H217526   1.513   6.162   0.295
 5861TIP3   OH217527   5.878   5.567   3.395
 5861TIP3    H117528   5.842   5.625   3.461
 5861TIP3    H217529   5.810   5.564   3.326
 5862TIP3   OH217530   7.218   1.299   0.803
 5862TIP3    H117531   7.148   1.243   0.837
 5862TIP3    H217532   7.189   1.321   0.714
 5863TIP3   OH217533   1.943   5.528   3.840
 5863TIP3    H117534   1.902   5.568   3.916
 5863TIP3    H217535   1.981   5.447   3.873
 5864TIP3   OH217536   2.455   7.174   0.252
 5864TIP3    H117537   2.492   7.259   0.227
 5864TIP3    H217538   2.471   7.168   0.346
 5865TIP3   OH217539   3.832   2.869   6.594
 5865TIP3    H117540   3.822   2.964   6.597
 5865TIP3    H217541   3.901   2.854   6.530
 5866TIP3   OH217542   6.567   7.327   1.502
 5866TIP3    H117543   6.558   7.246   1.452
 5866TIP3    H217544   6.487   7.333   1.554
 5867TIP3   OH217545  -0.017   1.389   5.413
 5867TIP3    H117546  -0.024   1.341   5.330
 5867TIP3    H217547   0.071   1.369   5.445
 5868TIP3   OH217548   4.134   1.435   3.405
 5868TIP3    H117549   4.151   1.519   3.362
 5868TIP3    H217550   4.215   1.417   3.454
 5869TIP3   OH217551   3.046   4.794   3.468
 5869TIP3    H117552   3.028   4.706   3.435
 5869TIP3    H217553   3.037   4.786   3.563
 5870TIP3   OH217554   0.343   2.966   5.582
 5870TIP3    H117555   0.275   3.011   5.632
 5870TIP3    H217556   0.333   2.874   5.606
 5871TIP3   OH217557   5.375   0.483   3.417
 5871TIP3    H117558   5.385   0.388   3.420
 5871TIP3    H217559   5.464   0.516   3.429
 5872TIP3   OH217560   2.835   6.468   3.490
 5872TIP3    H117561   2.793   6.427   3.415
 5872TIP3    H217562   2.874   6.396   3.538
 5873TIP3   OH217563   3.020   3.133   3.708
 5873TIP3    H117564   3.060   3.047   3.718
 5873TIP3    H217565   3.014   3.145   3.613
 5874TIP3   OH217566   7.797   0.354   1.654
 5874TIP3    H117567   7.756   0.395   1.577
 5874TIP3    H217568   7.724   0.334   1.713
 5875TIP3   OH217569   1.077   7.835   5.425
 5875TIP3    H117570   1.119   7.820   5.510
 5875TIP3    H217571   1.068   7.748   5.387
 5876TIP3   OH217572   2.389   5.242   2.225
 5876TIP3    H117573   2.452   5.269   2.159
 5876TIP3    H217574   2.356   5.157   2.193
 5877TIP3   OH217575   6.300   1.955   4.972
 5877TIP3    H117576   6.207   1.942   4.994
 5877TIP3    H217577   6.345   1.884   5.018
 5878TIP3   OH217578   6.975   2.705   0.401
 5878TIP3    H117579   6.987   2.611   0.384
 5878TIP3    H217580   7.053   2.746   0.364
 5879TIP3   OH217581   6.391   6.593   6.221
 5879TIP3    H117582   6.326   6.653   6.186
 5879TIP3    H217583   6.456   6.649   6.263
 5880TIP3   OH217584   0.718   0.126   1.515
 5880TIP3    H117585   0.720   0.221   1.517
 5880TIP3    H217586   0.631   0.103   1.550
 5881TIP3   OH217587   3.324   2.864   0.836
 5881TIP3    H117588   3.331   2.876   0.741
 5881TIP3    H217589   3.235   2.832   0.850
 5882TIP3   OH217590   0.786   2.875   3.825
 5882TIP3    H117591   0.701   2.830   3.832
 5882TIP3    H217592   0.789   2.906   3.735
 5883TIP3   OH217593   4.417   5.875   2.180
 5883TIP3    H117594   4.479   5.839   2.116
 5883TIP3    H217595   4.427   5.970   2.172
 5884TIP3   OH217596   4.947   3.810   2.387
 5884TIP3    H117597   5.038   3.781   2.395
 5884TIP3    H217598   4.951   3.887   2.330
 5885TIP3   OH217599   7.652   0.538   4.151
 5885TIP3    H117600   7.570   0.546   4.103
 5885TIP3    H217601   7.629   0.560   4.242
 5886TIP3   OH217602   7.970   1.537   6.314
 5886TIP3    H117603   7.923   1.460   6.282
 5886TIP3    H217604   8.063   1.514   6.304
 5887TIP3   OH217605   7.230   2.564   2.974
 5887TIP3    H117606   7.240   2.649   2.931
 5887TIP3    H217607   7.149   2.572   3.024
 5888TIP3   OH217608   6.208   2.381   5.587
 5888TIP3    H117609   6.268   2.307   5.594
 5888TIP3    H217610   6.262   2.458   5.603
 5889TIP3   OH217611   2.333   3.942   3.250
 5889TIP3    H117612   2.287   3.886   3.313
 5889TIP3    H217613   2.270   4.011   3.229
 5890TIP3   OH217614   5.406   0.375   5.187
 5890TIP3    H117615   5.428   0.312   5.118
 5890TIP3    H217616   5.441   0.336   5.267
 5891TIP3   OH217617   1.540   4.444   5.899
 5891TIP3    H117618   1.612   4.485   5.850
 5891TIP3    H217619   1.567   4.452   5.991
 5892TIP3   OH217620   8.080   1.764   0.356
 5892TIP3    H117621   8.105   1.679   0.321
 5892TIP3    H217622   8.014   1.798   0.295
 5893TIP3   OH217623   0.735   2.636   1.213
 5893TIP3    H117624   0.720   2.587   1.132
 5893TIP3    H217625   0.744   2.727   1.185
 5894TIP3   OH217626   6.363   7.756   0.538
 5894TIP3    H117627   6.426   7.684   0.540
 5894TIP3    H217628   6.349   7.778   0.629
 5895TIP3   OH217629   1.559   7.220   0.744
 5895TIP3    H117630   1.592   7.279   0.811
 5895TIP3    H217631   1.484   7.177   0.785
 5896TIP3   OH217632   6.835   6.304   5.738
 5896TIP3    H117633   6.776   6.369   5.700
 5896TIP3    H217634   6.851   6.241   5.668
 5897TIP3   OH217635   8.213   5.853   1.453
 5897TIP3    H117636   8.232   5.937   1.411
 5897TIP3    H217637   8.118   5.849   1.456
 5898TIP3   OH217638   0.453   2.691   4.789
 5898TIP3    H117639   0.431   2.709   4.880
 5898TIP3    H217640   0.415   2.764   4.740
 5899TIP3   OH217641   1.649   5.433   6.144
 5899TIP3    H117642   1.607   5.507   6.188
 5899TIP3    H217643   1.576   5.382   6.108
 5900TIP3   OH217644   6.859   3.248   0.091
 5900TIP3    H117645   6.885   3.253  -0.001
 5900TIP3    H217646   6.847   3.339   0.117
 5901TIP3   OH217647   1.553   0.078   0.473
 5901TIP3    H117648   1.635   0.091   0.520
 5901TIP3    H217649   1.570   0.003   0.416
 5902TIP3   OH217650   7.521   2.850   3.536
 5902TIP3    H117651   7.465   2.927   3.538
 5902TIP3    H217652   7.482   2.793   3.470
 5903TIP3   OH217653   6.852   4.569   6.069
 5903TIP3    H117654   6.871   4.657   6.034
 5903TIP3    H217655   6.888   4.510   6.003
 5904TIP3   OH217656   7.425   2.879   2.965
 5904TIP3    H117657   7.376   2.853   2.887
 5904TIP3    H217658   7.387   2.963   2.990
 5905TIP3   OH217659   0.323   1.123   5.232
 5905TIP3    H117660   0.254   1.080   5.180
 5905TIP3    H217661   0.404   1.080   5.204
 5906TIP3   OH217662   3.406   2.082   1.076
 5906TIP3    H117663   3.362   2.045   1.000
 5906TIP3    H217664   3.492   2.108   1.045
 5907TIP3   OH217665   2.670   0.809   3.422
 5907TIP3    H117666   2.631   0.722   3.429
 5907TIP3    H217667   2.650   0.850   3.506
 5908TIP3   OH217668   4.173   1.917   4.196
 5908TIP3    H117669   4.174   1.958   4.283
 5908TIP3    H217670   4.149   1.988   4.136
 5909TIP3   OH217671   4.811   1.522   2.527
 5909TIP3    H117672   4.750   1.558   2.462
 5909TIP3    H217673   4.759   1.512   2.606
 5910TIP3   OH217674   3.251   2.980   2.995
 5910TIP3    H117675   3.272   3.009   3.084
 5910TIP3    H217676   3.313   3.028   2.940
 5911TIP3   OH217677   8.200   4.419   4.086
 5911TIP3    H117678   8.174   4.358   4.018
 5911TIP3    H217679   8.161   4.503   4.059
 5912TIP3   OH217680   6.169   4.383   3.560
 5912TIP3    H117681   6.261   4.357   3.548
 5912TIP3    H217682   6.168   4.477   3.541
 5913TIP3   OH217683   5.809   5.977   4.960
 5913TIP3    H117684   5.816   6.067   4.928
 5913TIP3    H217685   5.873   5.970   5.030
 5914TIP3   OH217686   6.711   4.319   1.164
 5914TIP3    H117687   6.747   4.254   1.105
 5914TIP3    H217688   6.617   4.300   1.166
 5915TIP3   OH217689   2.252   6.833   5.491
 5915TIP3    H117690   2.236   6.786   5.574
 5915TIP3    H217691   2.326   6.787   5.452
 5916TIP3   OH217692   2.007   6.652   3.532
 5916TIP3    H117693   1.914   6.633   3.537
 5916TIP3    H217694   2.048   6.567   3.519
 5917TIP3   OH217695   1.319   3.455   3.198
 5917TIP3    H117696   1.281   3.379   3.241
 5917TIP3    H217697   1.378   3.493   3.263
 5918TIP3   OH217698   7.639   3.051   1.292
 5918TIP3    H117699   7.676   3.106   1.222
 5918TIP3    H217700   7.555   3.022   1.257
 5919TIP3   OH217701   3.838   0.536   6.200
 5919TIP3    H117702   3.784   0.603   6.157
 5919TIP3    H217703   3.827   0.458   6.147
 5920TIP3   OH217704   5.866   3.614   1.521
 5920TIP3    H117705   5.865   3.521   1.544
 5920TIP3    H217706   5.877   3.615   1.426
 5921TIP3   OH217707   6.214   5.999   3.522
 5921TIP3    H117708   6.281   6.021   3.458
 5921TIP3    H217709   6.229   6.058   3.595
 5922TIP3   OH217710   2.229   1.721   2.020
 5922TIP3    H117711   2.223   1.744   2.113
 5922TIP3    H217712   2.218   1.626   2.019
 5923TIP3   OH217713   7.328   3.336   3.714
 5923TIP3    H117714   7.248   3.291   3.742
 5923TIP3    H217715   7.398   3.278   3.742
 5924TIP3   OH217716   0.028   2.424   4.603
 5924TIP3    H117717   0.106   2.423   4.549
 5924TIP3    H217718   0.051   2.478   4.679
 5925TIP3   OH217719   4.457   0.169   4.108
 5925TIP3    H117720   4.372   0.135   4.136
 5925TIP3    H217721   4.498   0.096   4.062
 5926TIP3   OH217722   0.456   1.946   0.576
 5926TIP3    H117723   0.492   1.957   0.664
 5926TIP3    H217724   0.531   1.956   0.518
 5927TIP3   OH217725   4.538   2.332   4.827
 5927TIP3    H117726   4.541   2.350   4.733
 5927TIP3    H217727   4.562   2.240   4.835
 5928TIP3   OH217728   2.840   0.004   0.386
 5928TIP3    H117729   2.797  -0.026   0.466
 5928TIP3    H217730   2.813   0.095   0.378
 5929TIP3   OH217731   2.955   1.605   5.433
 5929TIP3    H117732   2.934   1.572   5.346
 5929TIP3    H217733   2.908   1.688   5.440
 5930TIP3   OH217734   4.686   6.502   5.463
 5930TIP3    H117735   4.643   6.585   5.445
 5930TIP3    H217736   4.670   6.449   5.384
 5931TIP3   OH217737   4.249   2.229   3.148
 5931TIP3    H117738   4.338   2.264   3.147
 5931TIP3    H217739   4.239   2.188   3.062
 5932TIP3   OH217740   4.348   7.186   3.046
 5932TIP3    H117741   4.390   7.179   2.960
 5932TIP3    H217742   4.401   7.251   3.094
 5933TIP3   OH217743   8.249   3.149   3.234
 5933TIP3    H117744   8.240   3.057   3.262
 5933TIP3    H217745   8.209   3.199   3.305
 5934TIP3   OH217746   2.547   1.797   6.226
 5934TIP3    H117747   2.594   1.715   6.240
 5934TIP3    H217748   2.530   1.831   6.314
 5935TIP3   OH217749   4.399   0.459   1.682
 5935TIP3    H117750   4.353   0.452   1.598
 5935TIP3    H217751   4.471   0.520   1.665
 5936TIP3   OH217752   2.609   1.483   3.054
 5936TIP3    H117753   2.589   1.390   3.068
 5936TIP3    H217754   2.549   1.511   2.986
 5937TIP3   OH217755   1.819   4.824   6.289
 5937TIP3    H117756   1.845   4.748   6.340
 5937TIP3    H217757   1.835   4.798   6.198
 5938TIP3   OH217758   0.977   4.858   1.174
 5938TIP3    H117759   0.981   4.798   1.101
 5938TIP3    H217760   1.069   4.881   1.191
 5939TIP3   OH217761   5.539   4.604   2.315
 5939TIP3    H117762   5.456   4.593   2.362
 5939TIP3    H217763   5.583   4.519   2.324
 5940TIP3   OH217764   2.022   4.303   3.006
 5940TIP3    H117765   2.085   4.324   3.075
 5940TIP3    H217766   1.946   4.358   3.026
 5941TIP3   OH217767   1.290   7.716   0.889
 5941TIP3    H117768   1.317   7.660   0.817
 5941TIP3    H217769   1.250   7.792   0.847
 5942TIP3   OH217770   5.776   0.227   1.267
 5942TIP3    H117771   5.699   0.225   1.324
 5942TIP3    H217772   5.808   0.137   1.266
 5943TIP3   OH217773   2.693   3.093   5.457
 5943TIP3    H117774   2.708   3.114   5.365
 5943TIP3    H217775   2.693   3.177   5.502
 5944TIP3   OH217776   0.094   4.819   1.205
 5944TIP3    H117777   0.105   4.736   1.252
 5944TIP3    H217778   0.180   4.836   1.167
 5945TIP3   OH217779   7.264   6.132   1.313
 5945TIP3    H117780   7.343   6.078   1.318
 5945TIP3    H217781   7.279   6.203   1.375
 5946TIP3   OH217782   3.228   5.050   5.962
 5946TIP3    H117783   3.212   4.963   5.926
 5946TIP3    H217784   3.210   5.110   5.890
 5947TIP3   OH217785   5.055   4.851   4.138
 5947TIP3    H117786   5.006   4.865   4.219
 5947TIP3    H217787   5.054   4.936   4.094
 5948TIP3   OH217788   8.027   0.032   3.298
 5948TIP3    H117789   8.020   0.039   3.394
 5948TIP3    H217790   7.939   0.054   3.266
 5949TIP3   OH217791   4.123   6.294   4.340
 5949TIP3    H117792   4.149   6.340   4.260
 5949TIP3    H217793   4.177   6.215   4.340
 5950TIP3   OH217794   6.818   3.666   3.876
 5950TIP3    H117795   6.819   3.651   3.781
 5950TIP3    H217796   6.777   3.587   3.912
 5951TIP3   OH217797   6.615   4.010   0.115
 5951TIP3    H117798   6.581   3.957   0.043
 5951TIP3    H217799   6.581   4.098   0.098
 5952TIP3   OH217800   1.150   0.006   2.844
 5952TIP3    H117801   1.214   0.055   2.895
 5952TIP3    H217802   1.080  -0.014   2.905
 5953TIP3   OH217803   6.358   2.483   2.355
 5953TIP3    H117804   6.386   2.508   2.267
 5953TIP3    H217805   6.391   2.393   2.365
 5954TIP3   OH217806   4.772   3.350   2.722
 5954TIP3    H117807   4.777   3.262   2.759
 5954TIP3    H217808   4.846   3.356   2.662
 5955TIP3   OH217809   6.602   0.467   1.181
 5955TIP3    H117810   6.588   0.372   1.191
 5955TIP3    H217811   6.696   0.478   1.193
 5956TIP3   OH217812   2.044   2.716   6.231
 5956TIP3    H117813   2.072   2.626   6.212
 5956TIP3    H217814   1.956   2.721   6.196
 5957TIP3   OH217815   7.133   3.995   5.558
 5957TIP3    H117816   7.216   3.961   5.594
 5957TIP3    H217817   7.157   4.077   5.515
 5958TIP3   OH217818   7.673   7.756   1.556
 5958TIP3    H117819   7.751   7.734   1.607
 5958TIP3    H217820   7.603   7.765   1.622
 5959TIP3   OH217821   1.626   3.803   5.088
 5959TIP3    H117822   1.668   3.836   5.167
 5959TIP3    H217823   1.572   3.875   5.057
 5960TIP3   OH217824   5.044   0.994   1.939
 5960TIP3    H117825   5.014   1.064   1.997
 5960TIP3    H217826   5.044   0.916   1.994
 5961TIP3   OH217827   3.277   5.541   3.734
 5961TIP3    H117828   3.182   5.527   3.723
 5961TIP3    H217829   3.283   5.611   3.799
 5962TIP3   OH217830   5.591   1.800   3.197
 5962TIP3    H117831   5.517   1.762   3.244
 5962TIP3    H217832   5.557   1.818   3.109
 5963TIP3   OH217833   5.693   7.412   4.102
 5963TIP3    H117834   5.776   7.372   4.077
 5963TIP3    H217835   5.703   7.504   4.078
 5964TIP3   OH217836   8.184   7.650   6.447
 5964TIP3    H117837   8.123   7.718   6.420
 5964TIP3    H217838   8.138   7.605   6.519
 5965TIP3   OH217839   1.366   5.648   5.601
 5965TIP3    H117840   1.418   5.709   5.549
 5965TIP3    H217841   1.370   5.682   5.690
 5966TIP3   OH217842   7.834   4.606   1.828
 5966TIP3    H117843   7.849   4.516   1.857
 5966TIP3    H217844   7.878   4.660   1.894
 5967TIP3   OH217845   2.551   4.313   5.806
 5967TIP3    H117846   2.489   4.241   5.818
 5967TIP3    H217847   2.597   4.292   5.725
 5968TIP3   OH217848   4.622   4.650   2.325
 5968TIP3    H117849   4.560   4.619   2.391
 5968TIP3    H217850   4.568   4.681   2.253
 5969TIP3   OH217851   3.857   4.570   3.884
 5969TIP3    H117852   3.863   4.665   3.897
 5969TIP3    H217853   3.867   4.533   3.971
 5970TIP3   OH217854   5.885   1.983   0.968
 5970TIP3    H117855   5.799   1.982   0.926
 5970TIP3    H217856   5.901   1.893   0.994
 5971TIP3   OH217857   3.897   7.513   2.382
 5971TIP3    H117858   3.882   7.419   2.391
 5971TIP3    H217859   3.957   7.534   2.454
 5972TIP3   OH217860   5.896   6.873   1.335
 5972TIP3    H117861   5.988   6.886   1.314
 5972TIP3    H217862   5.896   6.847   1.428
 5973TIP3   OH217863   0.406   0.894   0.465
 5973TIP3    H117864   0.386   0.845   0.385
 5973TIP3    H217865   0.322   0.901   0.510
 5974TIP3   OH217866   0.197   5.627   3.464
 5974TIP3    H117867   0.162   5.667   3.384
 5974TIP3    H217868   0.292   5.636   3.455
 5975TIP3   OH217869   6.295   2.658   3.223
 5975TIP3    H117870   6.322   2.694   3.138
 5975TIP3    H217871   6.226   2.717   3.253
 5976TIP3   OH217872   0.644   4.303   6.487
 5976TIP3    H117873   0.728   4.255   6.485
 5976TIP3    H217874   0.582   4.240   6.524
 5977TIP3   OH217875   0.353   3.269   3.510
 5977TIP3    H117876   0.291   3.332   3.547
 5977TIP3    H217877   0.321   3.254   3.421
 5978TIP3   OH217878   4.766   1.201   5.691
 5978TIP3    H117879   4.762   1.272   5.627
 5978TIP3    H217880   4.722   1.127   5.648
 5979TIP3   OH217881   4.901   7.241   4.188
 5979TIP3    H117882   4.993   7.218   4.179
 5979TIP3    H217883   4.861   7.216   4.105
 5980TIP3   OH217884   5.881   7.385   4.367
 5980TIP3    H117885   5.973   7.404   4.380
 5980TIP3    H217886   5.874   7.362   4.274
 5981TIP3   OH217887   0.802   6.188   1.170
 5981TIP3    H117888   0.736   6.257   1.168
 5981TIP3    H217889   0.862   6.211   1.099
 5982TIP3   OH217890   3.086   0.800   6.154
 5982TIP3    H117891   3.136   0.805   6.073
 5982TIP3    H217892   3.065   0.891   6.175
 5983TIP3   OH217893   0.017   2.610   0.689
 5983TIP3    H117894   0.092   2.642   0.639
 5983TIP3    H217895   0.052   2.537   0.741
 5984TIP3   OH217896   3.733   1.353   4.724
 5984TIP3    H117897   3.774   1.297   4.658
 5984TIP3    H217898   3.783   1.335   4.804
 5985TIP3   OH217899   0.449   2.929   5.349
 5985TIP3    H117900   0.421   2.953   5.437
 5985TIP3    H217901   0.413   2.841   5.336
 5986TIP3   OH217902   8.320   0.481   1.970
 5986TIP3    H117903   8.383   0.552   1.981
 5986TIP3    H217904   8.250   0.500   2.033
 5987TIP3   OH217905   6.115   5.180   0.778
 5987TIP3    H117906   6.168   5.257   0.757
 5987TIP3    H217907   6.110   5.179   0.873
 5988TIP3   OH217908   8.169   7.400   1.889
 5988TIP3    H117909   8.117   7.359   1.820
 5988TIP3    H217910   8.247   7.344   1.896
 5989TIP3   OH217911   3.110   3.061   4.554
 5989TIP3    H117912   3.048   3.045   4.625
 5989TIP3    H217913   3.192   3.084   4.598
 5990TIP3   OH217914   3.892   6.156   1.597
 5990TIP3    H117915   3.949   6.227   1.627
 5990TIP3    H217916   3.915   6.144   1.505
 5991TIP3   OH217917   0.724   0.502   3.675
 5991TIP3    H117918   0.754   0.480   3.763
 5991TIP3    H217919   0.790   0.465   3.617
 5992TIP3   OH217920   2.811   6.388   4.911
 5992TIP3    H117921   2.730   6.344   4.939
 5992TIP3    H217922   2.879   6.351   4.967
 5993TIP3   OH217923   0.749   1.842   3.202
 5993TIP3    H117924   0.705   1.757   3.209
 5993TIP3    H217925   0.842   1.821   3.193
 5994TIP3   OH217926   8.108   0.202   6.383
 5994TIP3    H117927   8.019   0.186   6.413
 5994TIP3    H217928   8.111   0.166   6.294
 5995TIP3   OH217929   7.524   7.709   2.250
 5995TIP3    H117930   7.569   7.712   2.166
 5995TIP3    H217931   7.441   7.755   2.234
 5996TIP3   OH217932   6.610   3.301   0.547
 5996TIP3    H117933   6.646   3.361   0.612
 5996TIP3    H217934   6.687   3.265   0.502
 5997TIP3   OH217935   7.757   6.195   5.169
 5997TIP3    H117936   7.667   6.209   5.139
 5997TIP3    H217937   7.754   6.207   5.263
 5998TIP3   OH217938   2.563   5.958   0.652
 5998TIP3    H117939   2.584   5.952   0.559
 5998TIP3    H217940   2.470   5.937   0.657
 5999TIP3   OH217941   8.022   7.429   2.545
 5999TIP3    H117942   8.031   7.500   2.482
 5999TIP3    H217943   8.037   7.471   2.630
 6000TIP3   OH217944   3.917   0.987   0.472
 6000TIP3    H117945   3.926   0.962   0.380
 6000TIP3    H217946   3.833   0.950   0.499
 6001TIP3   OH217947   6.105   4.295   4.067
 6001TIP3    H117948   6.074   4.216   4.023
 6001TIP3    H217949   6.104   4.363   3.999
 6002TIP3   OH217950   5.365   1.438   2.598
 6002TIP3    H117951   5.275   1.433   2.629
 6002TIP3    H217952   5.402   1.352   2.617
 6003TIP3   OH217953   0.751   7.149   1.271
 6003TIP3    H117954   0.758   7.099   1.189
 6003TIP3    H217955   0.828   7.121   1.322
 6004TIP3   OH217956   7.948   5.481   0.206
 6004TIP3    H117957   8.002   5.429   0.267
 6004TIP3    H217958   8.004   5.554   0.182
 6005TIP3   OH217959   7.688   5.597   6.054
 6005TIP3    H117960   7.765   5.650   6.031
 6005TIP3    H217961   7.685   5.600   6.150
 6006TIP3   OH217962   3.386   1.906   6.330
 6006TIP3    H117963   3.298   1.927   6.298
 6006TIP3    H217964   3.410   1.980   6.385
 6007TIP3   OH217965   1.093   6.984   1.875
 6007TIP3    H117966   1.108   6.946   1.962
 6007TIP3    H217967   1.055   6.912   1.824
 6008TIP3   OH217968   1.286   5.428   0.308
 6008TIP3    H117969   1.321   5.416   0.396
 6008TIP3    H217970   1.350   5.384   0.251
 6009TIP3   OH217971   6.771   3.863   4.950
 6009TIP3    H117972   6.842   3.807   4.982
 6009TIP3    H217973   6.762   3.930   5.017
 6010TIP3   OH217974   3.561   4.565   4.696
 6010TIP3    H117975   3.562   4.658   4.715
 6010TIP3    H217976   3.593   4.523   4.776
 6011TIP3   OH217977   0.925   0.069   1.829
 6011TIP3    H117978   1.018   0.079   1.809
 6011TIP3    H217979   0.886   0.153   1.803
 6012TIP3   OH217980   5.905   5.918   4.307
 6012TIP3    H117981   5.981   5.974   4.323
 6012TIP3    H217982   5.907   5.854   4.378
 6013TIP3   OH217983   4.010   6.792   1.945
 6013TIP3    H117984   4.044   6.706   1.921
 6013TIP3    H217985   3.917   6.778   1.962
 6014TIP3   OH217986   7.225   5.362   2.570
 6014TIP3    H117987   7.184   5.437   2.527
 6014TIP3    H217988   7.200   5.370   2.662
 6015TIP3   OH217989   2.171   3.675   1.338
 6015TIP3    H117990   2.218   3.757   1.350
 6015TIP3    H217991   2.204   3.619   1.409
 6016TIP3   OH217992   3.430   0.068   1.783
 6016TIP3    H117993   3.461   0.154   1.753
 6016TIP3    H217994   3.428   0.076   1.879
 6017TIP3   OH217995   0.595   6.521   1.613
 6017TIP3    H117996   0.624   6.440   1.655
 6017TIP3    H217997   0.614   6.589   1.677
 6018TIP3   OH217998   0.896   2.450   6.577
 6018TIP3    H117999   0.868   2.513   6.511
 6018TIP3    H218000   0.817   2.433   6.628
 6019TIP3   OH218001   0.477   6.004   4.224
 6019TIP3    H118002   0.420   5.952   4.280
 6019TIP3    H218003   0.566   5.976   4.247
 6020TIP3   OH218004   0.285   1.610   5.980
 6020TIP3    H118005   0.371   1.577   5.954
 6020TIP3    H218006   0.264   1.561   6.059
 6021TIP3   OH218007   6.243   0.427   5.779
 6021TIP3    H118008   6.229   0.483   5.855
 6021TIP3    H218009   6.183   0.354   5.792
 6022TIP3   OH218010   0.522   0.881   3.939
 6022TIP3    H118011   0.590   0.814   3.945
 6022TIP3    H218012   0.543   0.930   3.860
 6023TIP3   OH218013   5.540   6.024   4.981
 6023TIP3    H118014   5.532   6.066   5.067
 6023TIP3    H218015   5.631   5.994   4.978
 6024TIP3   OH218016   4.295   6.683   4.458
 6024TIP3    H118017   4.325   6.598   4.489
 6024TIP3    H218018   4.292   6.738   4.536
 6025TIP3   OH218019   6.252   0.687   1.468
 6025TIP3    H118020   6.288   0.740   1.397
 6025TIP3    H218021   6.243   0.600   1.430
 6026TIP3   OH218022   5.221   5.429   4.257
 6026TIP3    H118023   5.225   5.371   4.181
 6026TIP3    H218024   5.153   5.391   4.313
 6027TIP3   OH218025   0.592   2.331   6.438
 6027TIP3    H118026   0.617   2.282   6.516
 6027TIP3    H218027   0.561   2.265   6.376
 6028TIP3   OH218028   7.631   5.465   4.054
 6028TIP3    H118029   7.685   5.514   3.992
 6028TIP3    H218030   7.590   5.397   4.001
 6029TIP3   OH218031   3.237   4.812   1.422
 6029TIP3    H118032   3.286   4.791   1.501
 6029TIP3    H218033   3.232   4.908   1.421
 6030TIP3   OH218034   2.968   5.251   4.541
 6030TIP3    H118035   2.932   5.337   4.563
 6030TIP3    H218036   3.000   5.260   4.451
 6031TIP3   OH218037   5.599   4.889   0.795
 6031TIP3    H118038   5.637   4.839   0.867
 6031TIP3    H218039   5.665   4.955   0.774
 6032TIP3   OH218040   3.145   0.065   4.487
 6032TIP3    H118041   3.089   0.023   4.422
 6032TIP3    H218042   3.087   0.126   4.532
 6033TIP3   OH218043   3.335   4.989   2.686
 6033TIP3    H118044   3.307   4.899   2.696
 6033TIP3    H218045   3.377   5.010   2.770
 6034TIP3   OH218046   3.002   3.346   4.645
 6034TIP3    H118047   3.020   3.410   4.576
 6034TIP3    H218048   3.086   3.303   4.660
 6035TIP3   OH218049   5.355   4.676   4.563
 6035TIP3    H118050   5.345   4.671   4.658
 6035TIP3    H218051   5.433   4.623   4.545
 6036TIP3   OH218052   5.829   2.704   5.095
 6036TIP3    H118053   5.876   2.767   5.149
 6036TIP3    H218054   5.798   2.638   5.156
 6037TIP3   OH218055   7.971   6.945   1.911
 6037TIP3    H118056   7.958   6.995   1.831
 6037TIP3    H218057   7.924   6.863   1.896
 6038TIP3   OH218058   4.939   6.130   5.222
 6038TIP3    H118059   4.940   6.077   5.142
 6038TIP3    H218060   4.923   6.219   5.193
 6039TIP3   OH218061   2.157   4.644   3.764
 6039TIP3    H118062   2.192   4.614   3.680
 6039TIP3    H218063   2.068   4.671   3.746
 6040TIP3   OH218064   3.489   5.843   6.314
 6040TIP3    H118065   3.585   5.840   6.318
 6040TIP3    H218066   3.469   5.924   6.267
 6041TIP3   OH218067   4.112   5.997   2.564
 6041TIP3    H118068   4.032   6.049   2.572
 6041TIP3    H218069   4.084   5.916   2.522
 6042TIP3   OH218070   6.326   1.674   1.303
 6042TIP3    H118071   6.382   1.599   1.283
 6042TIP3    H218072   6.265   1.641   1.369
 6043TIP3   OH218073   5.621   3.144   2.181
 6043TIP3    H118074   5.564   3.214   2.213
 6043TIP3    H218075   5.561   3.071   2.163
 6044TIP3   OH218076   5.178   7.688   2.804
 6044TIP3    H118077   5.087   7.711   2.785
 6044TIP3    H218078   5.230   7.746   2.748
 6045TIP3   OH218079   7.348   4.905   5.167
 6045TIP3    H118080   7.435   4.934   5.192
 6045TIP3    H218081   7.293   4.983   5.173
 6046TIP3   OH218082   3.081   6.677   1.724
 6046TIP3    H118083   3.027   6.685   1.802
 6046TIP3    H218084   3.043   6.740   1.662
 6047TIP3   OH218085   2.111   6.156   6.294
 6047TIP3    H118086   2.016   6.156   6.305
 6047TIP3    H218087   2.142   6.219   6.360
 6048TIP3   OH218088   2.362   0.838   3.306
 6048TIP3    H118089   2.431   0.782   3.340
 6048TIP3    H218090   2.314   0.868   3.383
 6049TIP3   OH218091   7.484   4.519   4.190
 6049TIP3    H118092   7.534   4.595   4.161
 6049TIP3    H218093   7.526   4.492   4.272
 6050TIP3   OH218094   0.899   4.050   3.449
 6050TIP3    H118095   0.950   4.120   3.490
 6050TIP3    H218096   0.812   4.087   3.437
 6051TIP3   OH218097   3.029   2.839   0.379
 6051TIP3    H118098   3.066   2.924   0.355
 6051TIP3    H218099   3.013   2.795   0.295
 6052TIP3   OH218100   0.486   6.950   4.562
 6052TIP3    H118101   0.511   6.994   4.643
 6052TIP3    H218102   0.529   6.864   4.567
 6053TIP3   OH218103   1.225   2.570   5.113
 6053TIP3    H118104   1.301   2.528   5.154
 6053TIP3    H218105   1.149   2.523   5.148
 6054TIP3   OH218106   1.628   1.916   5.738
 6054TIP3    H118107   1.712   1.916   5.692
 6054TIP3    H218108   1.613   2.009   5.759
 6055TIP3   OH218109   3.226   3.131   3.211
 6055TIP3    H118110   3.197   3.205   3.159
 6055TIP3    H218111   3.162   3.125   3.282
 6056TIP3   OH218112   4.263   7.111   0.707
 6056TIP3    H118113   4.333   7.084   0.766
 6056TIP3    H218114   4.270   7.050   0.633
 6057TIP3   OH218115   6.528   6.930   4.666
 6057TIP3    H118116   6.513   6.840   4.692
 6057TIP3    H218117   6.504   6.934   4.573
 6058TIP3   OH218118   5.112   1.832   5.906
 6058TIP3    H118119   5.081   1.749   5.944
 6058TIP3    H218120   5.132   1.887   5.981
 6059TIP3   OH218121   6.558   7.514   0.529
 6059TIP3    H118122   6.516   7.434   0.496
 6059TIP3    H218123   6.564   7.501   0.623
 6060TIP3   OH218124   7.175   3.031   6.350
 6060TIP3    H118125   7.157   2.977   6.273
 6060TIP3    H218126   7.198   2.969   6.419
 6061TIP3   OH218127   6.051   5.883   1.677
 6061TIP3    H118128   6.024   5.800   1.716
 6061TIP3    H218129   6.045   5.946   1.748
 6062TIP3   OH218130   7.161   2.123   3.789
 6062TIP3    H118131   7.139   2.214   3.771
 6062TIP3    H218132   7.229   2.128   3.856
 6063TIP3   OH218133   0.520   4.629   4.145
 6063TIP3    H118134   0.577   4.559   4.114
 6063TIP3    H218135   0.562   4.709   4.114
 6064TIP3   OH218136   1.127   0.166   4.591
 6064TIP3    H118137   1.168   0.156   4.506
 6064TIP3    H218138   1.142   0.083   4.636
 6065TIP3   OH218139   2.737   6.971   1.794
 6065TIP3    H118140   2.792   6.919   1.852
 6065TIP3    H218141   2.797   7.032   1.751
 6066TIP3   OH218142   2.666   3.573   1.322
 6066TIP3    H118143   2.581   3.528   1.317
 6066TIP3    H218144   2.663   3.622   1.404
 6067TIP3   OH218145   8.203   4.466   1.833
 6067TIP3    H118146   8.176   4.381   1.797
 6067TIP3    H218147   8.177   4.462   1.925
 6068TIP3   OH218148   7.723   6.216   5.459
 6068TIP3    H118149   7.754   6.197   5.548
 6068TIP3    H218150   7.770   6.295   5.434
 6069TIP3   OH218151   7.058   5.124   6.623
 6069TIP3    H118152   7.054   5.131   6.718
 6069TIP3    H218153   7.016   5.041   6.603
 6070TIP3   OH218154   6.496   6.803   0.893
 6070TIP3    H118155   6.560   6.825   0.960
 6070TIP3    H218156   6.448   6.884   0.878
 6071TIP3   OH218157   3.306   5.642   3.474
 6071TIP3    H118158   3.373   5.693   3.520
 6071TIP3    H218159   3.288   5.569   3.533
 6072TIP3   OH218160   2.368   6.735   6.638
 6072TIP3    H118161   2.274   6.722   6.651
 6072TIP3    H218162   2.375   6.795   6.564
 6073TIP3   OH218163   3.009   1.990   1.277
 6073TIP3    H118164   2.925   2.020   1.313
 6073TIP3    H218165   2.993   1.982   1.183
 6074TIP3   OH218166   0.682   1.482   3.870
 6074TIP3    H118167   0.727   1.490   3.786
 6074TIP3    H218168   0.709   1.559   3.919
 6075TIP3   OH218169   5.062   0.230   2.549
 6075TIP3    H118170   4.995   0.251   2.615
 6075TIP3    H218171   5.134   0.290   2.570
 6076TIP3   OH218172   4.158   2.713  -0.011
 6076TIP3    H118173   4.210   2.643   0.028
 6076TIP3    H218174   4.216   2.751  -0.077
 6077TIP3   OH218175   2.987   0.226   4.622
 6077TIP3    H118176   2.949   0.287   4.559
 6077TIP3    H218177   3.053   0.278   4.668
 6078TIP3   OH218178   1.038   4.307   5.571
 6078TIP3    H118179   1.112   4.368   5.566
 6078TIP3    H218180   1.005   4.317   5.660
 6079TIP3   OH218181   4.915   7.091   0.275
 6079TIP3    H118182   4.845   7.155   0.264
 6079TIP3    H218183   4.959   7.089   0.190
 6080TIP3   OH218184   2.313   4.826   5.620
 6080TIP3    H118185   2.351   4.766   5.557
 6080TIP3    H218186   2.219   4.807   5.617
 6081TIP3   OH218187   7.718   7.381   3.567
 6081TIP3    H118188   7.784   7.430   3.519
 6081TIP3    H218189   7.723   7.414   3.657
 6082TIP3   OH218190   1.407   7.319   0.315
 6082TIP3    H118191   1.415   7.226   0.295
 6082TIP3    H218192   1.317   7.342   0.294
 6083TIP3   OH218193   3.415   1.692   1.360
 6083TIP3    H118194   3.508   1.707   1.345
 6083TIP3    H218195   3.378   1.779   1.375
 6084TIP3   OH218196   8.155   7.674   1.830
 6084TIP3    H118197   8.169   7.680   1.736
 6084TIP3    H218198   8.149   7.580   1.848
 6085TIP3   OH218199   0.176   0.339   5.549
 6085TIP3    H118200   0.230   0.263   5.569
 6085TIP3    H218201   0.226   0.388   5.484
 6086TIP3   OH218202   2.566   3.266   3.331
 6086TIP3    H118203   2.540   3.353   3.301
 6086TIP3    H218204   2.548   3.266   3.425
 6087TIP3   OH218205   6.569   0.872   5.110
 6087TIP3    H118206   6.558   0.831   5.024
 6087TIP3    H218207   6.480   0.885   5.142
 6088TIP3   OH218208   1.867   4.526   3.070
 6088TIP3    H118209   1.843   4.610   3.111
 6088TIP3    H218210   1.787   4.475   3.071
 6089TIP3   OH218211   2.742   6.136   6.179
 6089TIP3    H118212   2.673   6.190   6.139
 6089TIP3    H218213   2.738   6.054   6.131
 6090TIP3   OH218214   0.470   7.268   1.647
 6090TIP3    H118215   0.508   7.319   1.575
 6090TIP3    H218216   0.469   7.178   1.615
 6091TIP3   OH218217   0.059   4.729   0.229
 6091TIP3    H118218   0.120   4.655   0.224
 6091TIP3    H218219  -0.001   4.705   0.300
 6092TIP3   OH218220   1.613   4.583   2.394
 6092TIP3    H118221   1.647   4.500   2.361
 6092TIP3    H218222   1.653   4.593   2.480
 6093TIP3   OH218223   2.221   1.754   5.603
 6093TIP3    H118224   2.188   1.724   5.687
 6093TIP3    H218225   2.316   1.752   5.613
 6094TIP3   OH218226   2.652   6.186   4.730
 6094TIP3    H118227   2.560   6.200   4.749
 6094TIP3    H218228   2.698   6.248   4.785
 6095TIP3   OH218229   4.938   1.867   6.629
 6095TIP3    H118230   5.008   1.906   6.578
 6095TIP3    H218231   4.983   1.807   6.689
 6096TIP3   OH218232   1.909   5.883   1.176
 6096TIP3    H118233   1.994   5.838   1.170
 6096TIP3    H218234   1.893   5.915   1.087
 6097TIP3   OH218235   4.423   7.011   2.537
 6097TIP3    H118236   4.369   7.089   2.524
 6097TIP3    H218237   4.483   7.010   2.462
 6098TIP3   OH218238   0.895   3.982   0.744
 6098TIP3    H118239   0.819   4.028   0.711
 6098TIP3    H218240   0.962   3.993   0.676
 6099TIP3   OH218241   5.263   3.302   3.120
 6099TIP3    H118242   5.292   3.387   3.153
 6099TIP3    H218243   5.234   3.254   3.197
 6100TIP3   OH218244   3.948   1.483   3.791
 6100TIP3    H118245   4.010   1.425   3.836
 6100TIP3    H218246   3.873   1.488   3.850
 6101TIP3   OH218247   2.185   7.619   3.377
 6101TIP3    H118248   2.209   7.588   3.290
 6101TIP3    H218249   2.092   7.597   3.385
 6102TIP3   OH218250   4.413   7.411   2.837
 6102TIP3    H118251   4.443   7.420   2.928
 6102TIP3    H218252   4.449   7.328   2.808
 6103TIP3   OH218253   4.232   5.471   1.391
 6103TIP3    H118254   4.237   5.422   1.473
 6103TIP3    H218255   4.224   5.405   1.323
 6104TIP3   OH218256   6.361   6.395   3.918
 6104TIP3    H118257   6.284   6.356   3.877
 6104TIP3    H218258   6.429   6.327   3.909
 6105TIP3   OH218259   6.647   3.619   3.172
 6105TIP3    H118260   6.551   3.620   3.173
 6105TIP3    H218261   6.673   3.689   3.232
 6106TIP3   OH218262   4.987   2.855   2.843
 6106TIP3    H118263   4.953   2.877   2.930
 6106TIP3    H218264   4.967   2.762   2.832
 6107TIP3   OH218265   6.320   2.271   3.514
 6107TIP3    H118266   6.277   2.250   3.431
 6107TIP3    H218267   6.294   2.202   3.574
 6108TIP3   OH218268   5.919   7.153   5.590
 6108TIP3    H118269   5.853   7.201   5.640
 6108TIP3    H218270   5.948   7.083   5.649
 6109TIP3   OH218271   0.008   3.235   5.060
 6109TIP3    H118272   0.096   3.218   5.095
 6109TIP3    H218273   0.011   3.326   5.033
 6110TIP3   OH218274   6.097   6.997   5.272
 6110TIP3    H118275   6.073   6.920   5.221
 6110TIP3    H218276   6.094   7.069   5.210
 6111TIP3   OH218277   7.563   5.077   0.209
 6111TIP3    H118278   7.571   5.169   0.183
 6111TIP3    H218279   7.620   5.030   0.149
 6112TIP3   OH218280   1.041   6.958   0.726
 6112TIP3    H118281   1.044   7.002   0.810
 6112TIP3    H218282   1.130   6.923   0.715
 6113TIP3   OH218283   7.686   0.538   0.369
 6113TIP3    H118284   7.750   0.608   0.385
 6113TIP3    H218285   7.611   0.562   0.424
 6114TIP3   OH218286   4.721   6.833   4.483
 6114TIP3    H118287   4.682   6.746   4.488
 6114TIP3    H218288   4.795   6.831   4.543
 6115TIP3   OH218289   1.324   0.824   5.479
 6115TIP3    H118290   1.284   0.862   5.401
 6115TIP3    H218291   1.254   0.825   5.544
 6116TIP3   OH218292   5.163   3.785   3.467
 6116TIP3    H118293   5.149   3.827   3.552
 6116TIP3    H218294   5.223   3.844   3.421
 6117TIP3   OH218295   7.944   1.773   6.168
 6117TIP3    H118296   8.029   1.818   6.173
 6117TIP3    H218297   7.943   1.717   6.245
 6118TIP3   OH218298   4.082   4.628   5.149
 6118TIP3    H118299   4.010   4.571   5.174
 6118TIP3    H218300   4.091   4.617   5.055
 6119TIP3   OH218301   4.703   4.609   4.364
 6119TIP3    H118302   4.693   4.638   4.274
 6119TIP3    H218303   4.770   4.540   4.360
 6120TIP3   OH218304   3.241   1.443   6.577
 6120TIP3    H118305   3.265   1.535   6.567
 6120TIP3    H218306   3.294   1.413   6.651
 6121TIP3   OH218307   3.226   1.899   0.004
 6121TIP3    H118308   3.266   1.958  -0.061
 6121TIP3    H218309   3.134   1.894  -0.023
 6122TIP3   OH218310   0.719   2.425   1.010
 6122TIP3    H118311   0.719   2.330   1.002
 6122TIP3    H218312   0.627   2.449   1.020
 6123TIP3   OH218313   7.001   0.421   4.270
 6123TIP3    H118314   7.013   0.327   4.288
 6123TIP3    H218315   6.946   0.423   4.192
 6124TIP3   OH218316   0.234   2.709   0.593
 6124TIP3    H118317   0.286   2.785   0.622
 6124TIP3    H218318   0.287   2.669   0.524
 6125TIP3   OH218319   3.710   6.374   4.884
 6125TIP3    H118320   3.621   6.401   4.861
 6125TIP3    H218321   3.699   6.321   4.963
 6126TIP3   OH218322   2.451   2.344   5.743
 6126TIP3    H118323   2.432   2.256   5.709
 6126TIP3    H218324   2.532   2.333   5.793
 6127TIP3   OH218325   1.402   3.116   0.319
 6127TIP3    H118326   1.312   3.092   0.295
 6127TIP3    H218327   1.445   3.033   0.338
 6128TIP3   OH218328   6.323   3.297   0.849
 6128TIP3    H118329   6.315   3.256   0.762
 6128TIP3    H218330   6.233   3.315   0.875
 6129TIP3   OH218331   3.216   6.759   2.898
 6129TIP3    H118332   3.273   6.723   2.966
 6129TIP3    H218333   3.128   6.754   2.936
 6130TIP3   OH218334   4.343   3.566   5.648
 6130TIP3    H118335   4.416   3.560   5.710
 6130TIP3    H218336   4.326   3.476   5.622
 6131TIP3   OH218337   2.231   7.268   1.830
 6131TIP3    H118338   2.294   7.287   1.900
 6131TIP3    H218339   2.240   7.174   1.815
 6132TIP3   OH218340   4.158   5.691   5.477
 6132TIP3    H118341   4.216   5.623   5.443
 6132TIP3    H218342   4.085   5.694   5.415
 6133TIP3   OH218343   0.254   4.725   0.440
 6133TIP3    H118344   0.211   4.647   0.408
 6133TIP3    H218345   0.227   4.794   0.380
 6134TIP3   OH218346   2.867   4.425   1.194
 6134TIP3    H118347   2.802   4.491   1.218
 6134TIP3    H218348   2.885   4.377   1.275
 6135TIP3   OH218349   7.855   1.156   5.926
 6135TIP3    H118350   7.944   1.138   5.894
 6135TIP3    H218351   7.816   1.070   5.939
 6136TIP3   OH218352   7.147   5.309   2.818
 6136TIP3    H118353   7.156   5.327   2.912
 6136TIP3    H218354   7.054   5.291   2.806
 6137TIP3   OH218355   7.735   4.830   2.673
 6137TIP3    H118356   7.673   4.903   2.669
 6137TIP3    H218357   7.812   4.861   2.624
 6138TIP3   OH218358   1.050   4.214   3.629
 6138TIP3    H118359   1.038   4.287   3.689
 6138TIP3    H218360   1.031   4.136   3.681
 6139TIP3   OH218361   4.562   5.800   6.655
 6139TIP3    H118362   4.615   5.830   6.730
 6139TIP3    H218363   4.625   5.755   6.599
 6140TIP3   OH218364   6.671   2.278   4.999
 6140TIP3    H118365   6.739   2.331   5.042
 6140TIP3    H218366   6.642   2.331   4.926
 6141TIP3   OH218367   2.163   1.282   6.171
 6141TIP3    H118368   2.183   1.189   6.156
 6141TIP3    H218369   2.071   1.282   6.197
 6142TIP3   OH218370   6.456   4.646   4.418
 6142TIP3    H118371   6.543   4.671   4.449
 6142TIP3    H218372   6.470   4.621   4.326
 6143TIP3   OH218373   6.862   0.900   5.224
 6143TIP3    H118374   6.813   0.921   5.145
 6143TIP3    H218375   6.848   0.806   5.237
 6144TIP3   OH218376   7.159   5.617   0.869
 6144TIP3    H118377   7.139   5.710   0.860
 6144TIP3    H218378   7.154   5.601   0.963
 6145TIP3   OH218379   4.453   0.457   0.231
 6145TIP3    H118380   4.403   0.376   0.224
 6145TIP3    H218381   4.536   0.431   0.269
 6146TIP3   OH218382   0.630   7.152   6.469
 6146TIP3    H118383   0.579   7.229   6.495
 6146TIP3    H218384   0.704   7.187   6.420
 6147TIP3   OH218385   2.015   3.257   5.517
 6147TIP3    H118386   1.950   3.318   5.552
 6147TIP3    H218387   1.998   3.175   5.564
 6148TIP3   OH218388   1.174   4.952   1.942
 6148TIP3    H118389   1.155   5.041   1.972
 6148TIP3    H218390   1.227   4.914   2.012
 6149TIP3   OH218391   2.163   3.259   5.954
 6149TIP3    H118392   2.157   3.246   6.048
 6149TIP3    H218393   2.228   3.194   5.925
 6150TIP3   OH218394   4.718   1.357   0.669
 6150TIP3    H118395   4.713   1.265   0.642
 6150TIP3    H218396   4.729   1.405   0.587
 6151TIP3   OH218397   4.617   7.551   1.469
 6151TIP3    H118398   4.586   7.550   1.378
 6151TIP3    H218399   4.539   7.531   1.521
 6152TIP3   OH218400   7.086   6.354   0.818
 6152TIP3    H118401   7.082   6.336   0.724
 6152TIP3    H218402   6.997   6.383   0.840
 6153TIP3   OH218403   6.496   4.896   5.157
 6153TIP3    H118404   6.431   4.915   5.225
 6153TIP3    H218405   6.579   4.886   5.205
 6154TIP3   OH218406   4.994   3.179   0.971
 6154TIP3    H118407   5.077   3.137   0.951
 6154TIP3    H218408   4.961   3.210   0.887
 6155TIP3   OH218409   1.144   6.646   4.030
 6155TIP3    H118410   1.185   6.622   3.947
 6155TIP3    H218411   1.095   6.568   4.055
 6156TIP3   OH218412   7.749   7.523   2.919
 6156TIP3    H118413   7.725   7.608   2.955
 6156TIP3    H218414   7.687   7.509   2.847
 6157TIP3   OH218415   1.377   6.850   2.385
 6157TIP3    H118416   1.433   6.786   2.430
 6157TIP3    H218417   1.382   6.826   2.293
 6158TIP3   OH218418   4.662   4.539   0.283
 6158TIP3    H118419   4.685   4.613   0.340
 6158TIP3    H218420   4.714   4.552   0.204
 6159TIP3   OH218421   0.816   2.235   2.021
 6159TIP3    H118422   0.775   2.275   2.097
 6159TIP3    H218423   0.907   2.219   2.048
 6160TIP3   OH218424   5.824   7.174   0.207
 6160TIP3    H118425   5.763   7.126   0.264
 6160TIP3    H218426   5.772   7.245   0.170
 6161TIP3   OH218427   6.888   4.492   4.545
 6161TIP3    H118428   6.806   4.500   4.594
 6161TIP3    H218429   6.916   4.402   4.559
 6162TIP3   OH218430   7.402   3.095   3.534
 6162TIP3    H118431   7.445   3.160   3.478
 6162TIP3    H218432   7.309   3.101   3.511
 6163TIP3   OH218433   1.092   2.889   4.205
 6163TIP3    H118434   1.149   2.812   4.210
 6163TIP3    H218435   1.097   2.916   4.113
 6164TIP3   OH218436   1.051   5.968   5.209
 6164TIP3    H118437   1.054   6.045   5.153
 6164TIP3    H218438   1.092   5.996   5.291
 6165TIP3   OH218439   4.618   2.657   1.779
 6165TIP3    H118440   4.628   2.676   1.686
 6165TIP3    H218441   4.693   2.697   1.821
 6166TIP3   OH218442   0.920   2.187   1.648
 6166TIP3    H118443   0.914   2.274   1.688
 6166TIP3    H218444   0.959   2.132   1.716
 6167TIP3   OH218445   8.263   2.426   6.450
 6167TIP3    H118446   8.204   2.497   6.478
 6167TIP3    H218447   8.291   2.452   6.362
 6168TIP3   OH218448   6.834   0.109   5.365
 6168TIP3    H118449   6.804   0.190   5.325
 6168TIP3    H218450   6.882   0.138   5.443
 6169TIP3   OH218451   7.912   0.908   2.087
 6169TIP3    H118452   7.923   0.834   2.027
 6169TIP3    H218453   7.983   0.897   2.151
 6170TIP3   OH218454   5.127   5.452   1.497
 6170TIP3    H118455   5.045   5.432   1.450
 6170TIP3    H218456   5.135   5.547   1.491
 6171TIP3   OH218457   0.352   5.262   4.035
 6171TIP3    H118458   0.293   5.297   4.102
 6171TIP3    H218459   0.303   5.270   3.953
 6172TIP3   OH218460   7.399   6.710   4.606
 6172TIP3    H118461   7.413   6.682   4.696
 6172TIP3    H218462   7.473   6.767   4.586
 6173TIP3   OH218463   2.328   0.096   5.587
 6173TIP3    H118464   2.368   0.179   5.612
 6173TIP3    H218465   2.235   0.116   5.575
 6174TIP3   OH218466   0.865   7.523   3.180
 6174TIP3    H118467   0.787   7.576   3.165
 6174TIP3    H218468   0.910   7.523   3.096
 6175TIP3   OH218469   6.036   0.132   0.173
 6175TIP3    H118470   6.035   0.038   0.189
 6175TIP3    H218471   5.945   0.156   0.159
 6176TIP3   OH218472   2.685   5.931   3.351
 6176TIP3    H118473   2.766   5.954   3.306
 6176TIP3    H218474   2.713   5.882   3.428
 6177TIP3   OH218475   2.490   3.184   4.118
 6177TIP3    H118476   2.519   3.145   4.200
 6177TIP3    H218477   2.464   3.110   4.064
 6178TIP3   OH218478   4.644   0.013   1.116
 6178TIP3    H118479   4.624  -0.045   1.042
 6178TIP3    H218480   4.567   0.007   1.173
 6179TIP3   OH218481   7.086   5.011   5.637
 6179TIP3    H118482   7.145   5.023   5.711
 6179TIP3    H218483   6.999   5.030   5.672
 6180TIP3   OH218484   4.510   3.513   0.974
 6180TIP3    H118485   4.503   3.423   1.008
 6180TIP3    H218486   4.493   3.568   1.050
 6181TIP3   OH218487   6.144   5.941   0.438
 6181TIP3    H118488   6.180   5.939   0.349
 6181TIP3    H218489   6.158   5.852   0.471
 6182TIP3   OH218490   3.013   6.998   2.045
 6182TIP3    H118491   3.065   6.930   2.088
 6182TIP3    H218492   2.950   6.950   1.992
 6183TIP3   OH218493   0.812   2.646   4.193
 6183TIP3    H118494   0.789   2.576   4.254
 6183TIP3    H218495   0.901   2.626   4.165
 6184TIP3   OH218496   0.700   4.000   1.357
 6184TIP3    H118497   0.674   3.933   1.420
 6184TIP3    H218498   0.619   4.023   1.312
 6185TIP3   OH218499   6.761   6.427   2.476
 6185TIP3    H118500   6.778   6.333   2.476
 6185TIP3    H218501   6.681   6.436   2.424
 6186TIP3   OH218502   8.072   6.045   5.460
 6186TIP3    H118503   8.105   6.088   5.381
 6186TIP3    H218504   8.134   5.973   5.475
 6187TIP3   OH218505   4.069   1.164   6.081
 6187TIP3    H118506   4.063   1.203   6.168
 6187TIP3    H218507   3.979   1.139   6.059
 6188TIP3   OH218508   7.436   4.924   3.389
 6188TIP3    H118509   7.393   5.002   3.353
 6188TIP3    H218510   7.394   4.911   3.474
 6189TIP3   OH218511   5.162   5.716   1.589
 6189TIP3    H118512   5.176   5.759   1.673
 6189TIP3    H218513   5.116   5.781   1.535
 6190TIP3   OH218514   2.704   4.598   6.568
 6190TIP3    H118515   2.705   4.583   6.662
 6190TIP3    H218516   2.739   4.517   6.530
 6191TIP3   OH218517   2.377   6.751   1.927
 6191TIP3    H118518   2.296   6.725   1.882
 6191TIP3    H218519   2.432   6.673   1.924
 6192TIP3   OH218520   1.037   6.573   2.329
 6192TIP3    H118521   1.003   6.639   2.269
 6192TIP3    H218522   0.959   6.527   2.361
 6193TIP3   OH218523   3.846   0.765   4.160
 6193TIP3    H118524   3.921   0.771   4.219
 6193TIP3    H218525   3.816   0.855   4.150
 6194TIP3   OH218526   0.600   6.556   5.617
 6194TIP3    H118527   0.588   6.551   5.522
 6194TIP3    H218528   0.528   6.610   5.648
 6195TIP3   OH218529   6.631   0.506   3.246
 6195TIP3    H118530   6.724   0.499   3.269
 6195TIP3    H218531   6.596   0.418   3.261
 6196TIP3   OH218532   6.434   3.302   5.750
 6196TIP3    H118533   6.510   3.331   5.700
 6196TIP3    H218534   6.454   3.329   5.840
 6197TIP3   OH218535   0.669   0.050   2.704
 6197TIP3    H118536   0.639   0.048   2.795
 6197TIP3    H218537   0.720  -0.030   2.693
 6198TIP3   OH218538   6.040   6.324   0.156
 6198TIP3    H118539   6.085   6.336   0.073
 6198TIP3    H218540   6.108   6.335   0.222
 6199TIP3   OH218541   7.904  -0.016   6.015
 6199TIP3    H118542   7.817   0.022   6.023
 6199TIP3    H218543   7.964   0.057   6.032
 6200TIP3   OH218544   8.201   3.858   0.934
 6200TIP3    H118545   8.179   3.776   0.977
 6200TIP3    H218546   8.128   3.876   0.876
 6201TIP3   OH218547   2.743   0.547   2.608
 6201TIP3    H118548   2.753   0.526   2.515
 6201TIP3    H218549   2.814   0.499   2.651
 6202TIP3   OH218550   2.376   5.586   3.970
 6202TIP3    H118551   2.428   5.659   4.004
 6202TIP3    H218552   2.441   5.525   3.935
 6203TIP3   OH218553   0.091   1.564   0.678
 6203TIP3    H118554   0.116   1.656   0.682
 6203TIP3    H218555   0.076   1.539   0.770
 6204TIP3   OH218556   4.366   5.471   5.502
 6204TIP3    H118557   4.299   5.406   5.524
 6204TIP3    H218558   4.407   5.493   5.585
 6205TIP3   OH218559   8.178   4.349   3.814
 6205TIP3    H118560   8.149   4.347   3.723
 6205TIP3    H218561   8.273   4.363   3.809
 6206TIP3   OH218562   7.143   0.621   0.923
 6206TIP3    H118563   7.119   0.636   0.831
 6206TIP3    H218564   7.071   0.658   0.973
 6207TIP3   OH218565   3.769   6.479   5.387
 6207TIP3    H118566   3.763   6.437   5.301
 6207TIP3    H218567   3.856   6.457   5.418
 6208TIP3   OH218568   4.165   6.403   0.139
 6208TIP3    H118569   4.085   6.356   0.117
 6208TIP3    H218570   4.160   6.417   0.233
 6209TIP3   OH218571   7.526   2.359   0.812
 6209TIP3    H118572   7.544   2.289   0.750
 6209TIP3    H218573   7.573   2.435   0.778
 6210TIP3   OH218574   0.722   7.772   6.113
 6210TIP3    H118575   0.719   7.683   6.078
 6210TIP3    H218576   0.631   7.792   6.136
 6211TIP3   OH218577   7.814   3.169   3.955
 6211TIP3    H118578   7.852   3.237   4.011
 6211TIP3    H218579   7.779   3.216   3.880
 6212TIP3   OH218580   7.768   7.369   3.156
 6212TIP3    H118581   7.848   7.316   3.154
 6212TIP3    H218582   7.786   7.443   3.098
 6213TIP3   OH218583   2.698   3.141   5.165
 6213TIP3    H118584   2.735   3.064   5.122
 6213TIP3    H218585   2.684   3.204   5.094
 6214TIP3   OH218586   0.885   2.181   2.938
 6214TIP3    H118587   0.796   2.194   2.904
 6214TIP3    H218588   0.895   2.086   2.944
 6215TIP3   OH218589   6.131   2.023   6.291
 6215TIP3    H118590   6.188   2.097   6.311
 6215TIP3    H218591   6.176   1.977   6.220
 6216TIP3   OH218592   7.808   0.681   3.223
 6216TIP3    H118593   7.736   0.689   3.161
 6216TIP3    H218594   7.881   0.725   3.180
 6217TIP3   OH218595   7.187   6.792   1.960
 6217TIP3    H118596   7.138   6.758   2.035
 6217TIP3    H218597   7.130   6.860   1.923
 6218TIP3   OH218598   7.383   0.595   4.924
 6218TIP3    H118599   7.388   0.685   4.956
 6218TIP3    H218600   7.438   0.545   4.985
 6219TIP3   OH218601   2.750   7.140   1.322
 6219TIP3    H118602   2.745   7.222   1.372
 6219TIP3    H218603   2.670   7.093   1.346
 6220TIP3   OH218604   0.884   0.768   2.486
 6220TIP3    H118605   0.964   0.722   2.513
 6220TIP3    H218606   0.855   0.721   2.408
 6221TIP3   OH218607   4.986   4.202   1.857
 6221TIP3    H118608   5.055   4.267   1.868
 6221TIP3    H218609   4.987   4.182   1.764
 6222TIP3   OH218610   4.783   1.069   2.484
 6222TIP3    H118611   4.732   1.135   2.436
 6222TIP3    H218612   4.733   0.988   2.473
 6223TIP3   OH218613   1.519   4.313   0.229
 6223TIP3    H118614   1.505   4.218   0.230
 6223TIP3    H218615   1.610   4.324   0.203
 6224TIP3   OH218616   3.853   3.094   5.415
 6224TIP3    H118617   3.933   3.043   5.408
 6224TIP3    H218618   3.786   3.030   5.438
 6225TIP3   OH218619   1.608   3.176   3.519
 6225TIP3    H118620   1.571   3.183   3.431
 6225TIP3    H218621   1.533   3.161   3.576
 6226TIP3   OH218622   6.164   4.082   3.834
 6226TIP3    H118623   6.118   4.121   3.759
 6226TIP3    H218624   6.098   4.027   3.877
 6227TIP3   OH218625   2.425   3.465   4.456
 6227TIP3    H118626   2.439   3.439   4.547
 6227TIP3    H218627   2.501   3.430   4.409
 6228TIP3   OH218628   8.096   0.033   2.672
 6228TIP3    H118629   8.134   0.119   2.653
 6228TIP3    H218630   8.132  -0.025   2.605
 6229TIP3   OH218631   7.484   4.926   5.646
 6229TIP3    H118632   7.426   4.981   5.593
 6229TIP3    H218633   7.546   4.889   5.584
 6230TIP3   OH218634   0.383   0.719   0.208
 6230TIP3    H118635   0.298   0.684   0.180
 6230TIP3    H218636   0.438   0.642   0.218
 6231TIP3   OH218637   7.788   0.610   4.677
 6231TIP3    H118638   7.824   0.689   4.715
 6231TIP3    H218639   7.843   0.539   4.711
 6232TIP3   OH218640   4.870   5.535   2.211
 6232TIP3    H118641   4.872   5.611   2.154
 6232TIP3    H218642   4.836   5.464   2.156
 6233TIP3   OH218643   2.552   7.189   0.548
 6233TIP3    H118644   2.546   7.261   0.611
 6233TIP3    H218645   2.532   7.111   0.599
 6234TIP3   OH218646   2.584   7.453   1.904
 6234TIP3    H118647   2.532   7.528   1.933
 6234TIP3    H218648   2.524   7.379   1.907
 6235TIP3   OH218649   3.220   2.596   1.949
 6235TIP3    H118650   3.197   2.672   2.003
 6235TIP3    H218651   3.299   2.624   1.902
 6236TIP3   OH218652   0.157   2.939   4.778
 6236TIP3    H118653   0.115   3.025   4.775
 6236TIP3    H218654   0.160   2.911   4.687
 6237TIP3   OH218655   2.531   0.206   0.578
 6237TIP3    H118656   2.606   0.157   0.612
 6237TIP3    H218657   2.568   0.262   0.510
 6238TIP3   OH218658   5.404   1.961   5.156
 6238TIP3    H118659   5.438   1.924   5.238
 6238TIP3    H218660   5.470   1.938   5.091
 6239TIP3   OH218661   5.170   3.875   2.026
 6239TIP3    H118662   5.220   3.949   2.061
 6239TIP3    H218663   5.181   3.806   2.091
 6240TIP3   OH218664   5.330   2.724   3.895
 6240TIP3    H118665   5.357   2.802   3.846
 6240TIP3    H218666   5.397   2.714   3.962
 6241TIP3   OH218667   8.311   1.593   2.424
 6241TIP3    H118668   8.266   1.590   2.339
 6241TIP3    H218669   8.380   1.527   2.416
 6242TIP3   OH218670   5.232   3.324   2.840
 6242TIP3    H118671   5.140   3.331   2.816
 6242TIP3    H218672   5.233   3.329   2.936
 6243TIP3   OH218673   5.227   5.505   0.518
 6243TIP3    H118674   5.285   5.451   0.572
 6243TIP3    H218675   5.270   5.508   0.432
 6244TIP3   OH218676   3.880   4.136   3.407
 6244TIP3    H118677   3.836   4.051   3.411
 6244TIP3    H218678   3.931   4.133   3.326
 6245TIP3   OH218679   2.112   3.525   3.580
 6245TIP3    H118680   2.149   3.441   3.604
 6245TIP3    H218681   2.027   3.527   3.625
 6246TIP3   OH218682   8.077   2.963   0.578
 6246TIP3    H118683   8.143   2.902   0.547
 6246TIP3    H218684   8.102   3.047   0.540
 6247TIP3   OH218685   5.920   4.604   4.243
 6247TIP3    H118686   5.943   4.676   4.302
 6247TIP3    H218687   5.999   4.587   4.193
 6248TIP3   OH218688   7.369   4.068   0.389
 6248TIP3    H118689   7.310   4.140   0.411
 6248TIP3    H218690   7.410   4.044   0.472
 6249TIP3   OH218691   7.547   0.887   4.700
 6249TIP3    H118692   7.468   0.898   4.646
 6249TIP3    H218693   7.520   0.826   4.769
 6250TIP3   OH218694   2.950   7.799   0.602
 6250TIP3    H118695   2.855   7.790   0.608
 6250TIP3    H218696   2.964   7.894   0.593
 6251TIP3   OH218697   3.548   3.743   1.666
 6251TIP3    H118698   3.565   3.754   1.573
 6251TIP3    H218699   3.498   3.821   1.690
 6252TIP3   OH218700   7.782   4.486   3.667
 6252TIP3    H118701   7.849   4.473   3.600
 6252TIP3    H218702   7.795   4.576   3.696
 6253TIP3   OH218703   4.539   5.890   5.444
 6253TIP3    H118704   4.572   5.861   5.529
 6253TIP3    H218705   4.608   5.949   5.411
 6254TIP3   OH218706   6.389   3.649   0.821
 6254TIP3    H118707   6.402   3.577   0.883
 6254TIP3    H218708   6.383   3.606   0.736
 6255TIP3   OH218709   0.819   4.364   2.588
 6255TIP3    H118710   0.911   4.357   2.562
 6255TIP3    H218711   0.772   4.377   2.506
 6256TIP3   OH218712   5.157   4.173   2.528
 6256TIP3    H118713   5.191   4.158   2.617
 6256TIP3    H218714   5.065   4.196   2.542
 6257TIP3   OH218715   3.743   0.677   3.385
 6257TIP3    H118716   3.748   0.768   3.415
 6257TIP3    H218717   3.756   0.681   3.291
 6258TIP3   OH218718   3.519   6.918   6.177
 6258TIP3    H118719   3.534   6.908   6.083
 6258TIP3    H218720   3.458   6.848   6.200
 6259TIP3   OH218721   0.857   3.648   1.725
 6259TIP3    H118722   0.816   3.578   1.776
 6259TIP3    H218723   0.801   3.724   1.740
 6260TIP3   OH218724   3.191   2.522   0.906
 6260TIP3    H118725   3.202   2.527   1.001
 6260TIP3    H218726   3.139   2.599   0.883
 6261TIP3   OH218727   0.464   3.464   4.430
 6261TIP3    H118728   0.512   3.495   4.353
 6261TIP3    H218729   0.468   3.368   4.423
 6262TIP3   OH218730   7.225   7.540   6.346
 6262TIP3    H118731   7.146   7.512   6.394
 6262TIP3    H218732   7.223   7.490   6.265
 6263TIP3   OH218733   0.596   6.164   2.682
 6263TIP3    H118734   0.646   6.176   2.601
 6263TIP3    H218735   0.506   6.152   2.652
 6264TIP3   OH218736   2.782   0.137   5.184
 6264TIP3    H118737   2.714   0.167   5.124
 6264TIP3    H218738   2.864   0.152   5.136
 6265TIP3   OH218739   2.303   1.044   2.616
 6265TIP3    H118740   2.314   1.030   2.522
 6265TIP3    H218741   2.272   0.960   2.650
 6266TIP3   OH218742   5.586   0.973   2.845
 6266TIP3    H118743   5.501   1.000   2.810
 6266TIP3    H218744   5.576   0.981   2.940
 6267TIP3   OH218745   1.925   1.383   2.764
 6267TIP3    H118746   1.972   1.306   2.797
 6267TIP3    H218747   1.982   1.457   2.787
 6268TIP3   OH218748   0.620   2.495   3.871
 6268TIP3    H118749   0.536   2.449   3.882
 6268TIP3    H218750   0.676   2.433   3.824
 6269TIP3   OH218751   0.727   1.656   1.709
 6269TIP3    H118752   0.807   1.703   1.683
 6269TIP3    H218753   0.759   1.576   1.751
 6270TIP3   OH218754   3.759   6.887   4.983
 6270TIP3    H118755   3.726   6.810   5.028
 6270TIP3    H218756   3.794   6.943   5.053
 6271TIP3   OH218757   1.675   3.023   5.666
 6271TIP3    H118758   1.631   3.108   5.658
 6271TIP3    H218759   1.635   2.969   5.599
 6272TIP3   OH218760   2.949   6.740   1.484
 6272TIP3    H118761   2.964   6.835   1.488
 6272TIP3    H218762   2.856   6.730   1.500
 6273TIP3   OH218763   4.784   0.258   4.481
 6273TIP3    H118764   4.768   0.261   4.386
 6273TIP3    H218765   4.879   0.266   4.489
 6274TIP3   OH218766   2.201   3.419   4.862
 6274TIP3    H118767   2.140   3.396   4.932
 6274TIP3    H218768   2.281   3.446   4.908
 6275TIP3   OH218769   1.040   7.426   1.247
 6275TIP3    H118770   0.954   7.444   1.285
 6275TIP3    H218771   1.038   7.468   1.161
 6276TIP3   OH218772   0.397   4.681   0.663
 6276TIP3    H118773   0.455   4.605   0.655
 6276TIP3    H218774   0.356   4.689   0.576
 6277TIP3   OH218775   6.645   3.367   4.204
 6277TIP3    H118776   6.729   3.349   4.247
 6277TIP3    H218777   6.612   3.445   4.249
 6278TIP3   OH218778   0.592   2.119   5.436
 6278TIP3    H118779   0.521   2.090   5.379
 6278TIP3    H218780   0.671   2.112   5.382
 6279TIP3   OH218781   6.850   7.222   2.967
 6279TIP3    H118782   6.926   7.184   3.012
 6279TIP3    H218783   6.853   7.185   2.879
 6280TIP3   OH218784   5.638   1.786   0.351
 6280TIP3    H118785   5.701   1.714   0.349
 6280TIP3    H218786   5.553   1.744   0.357
 6281TIP3   OH218787   3.321   1.905   5.727
 6281TIP3    H118788   3.261   1.961   5.678
 6281TIP3    H218789   3.267   1.870   5.799
 6282TIP3   OH218790   6.119   4.673   6.013
 6282TIP3    H118791   6.178   4.739   6.051
 6282TIP3    H218792   6.124   4.689   5.918
 6283TIP3   OH218793   0.555   0.267   4.128
 6283TIP3    H118794   0.531   0.177   4.106
 6283TIP3    H218795   0.650   0.270   4.114
 6284TIP3   OH218796   4.968   6.841   4.620
 6284TIP3    H118797   5.034   6.884   4.566
 6284TIP3    H218798   5.005   6.755   4.639
 6285TIP3   OH218799   1.218   0.383   4.740
 6285TIP3    H118800   1.141   0.428   4.775
 6285TIP3    H218801   1.182   0.304   4.699
 6286TIP3   OH218802   3.493   3.170   1.713
 6286TIP3    H118803   3.435   3.120   1.769
 6286TIP3    H218804   3.556   3.106   1.679
 6287TIP3   OH218805   3.346   6.779   0.189
 6287TIP3    H118806   3.359   6.707   0.251
 6287TIP3    H218807   3.287   6.839   0.235
 6288TIP3   OH218808   1.328   0.843   0.785
 6288TIP3    H118809   1.413   0.850   0.743
 6288TIP3    H218810   1.343   0.869   0.876
 6289TIP3   OH218811   1.350   5.833   3.963
 6289TIP3    H118812   1.406   5.888   3.908
 6289TIP3    H218813   1.274   5.887   3.983
 6290TIP3   OH218814   5.660   7.484   6.302
 6290TIP3    H118815   5.732   7.421   6.302
 6290TIP3    H218816   5.581   7.430   6.300
 6291TIP3   OH218817   0.454   2.678   3.154
 6291TIP3    H118818   0.520   2.608   3.157
 6291TIP3    H218819   0.377   2.639   3.196
 6292TIP3   OH218820   3.906   0.704   2.121
 6292TIP3    H118821   3.993   0.687   2.085
 6292TIP3    H218822   3.872   0.617   2.144
 6293TIP3   OH218823   5.408   4.307   2.096
 6293TIP3    H118824   5.428   4.387   2.048
 6293TIP3    H218825   5.427   4.328   2.187
 6294TIP3   OH218826   3.032   0.417   4.269
 6294TIP3    H118827   2.995   0.382   4.188
 6294TIP3    H218828   3.120   0.379   4.273
 6295TIP3   OH218829   2.944   7.312   5.003
 6295TIP3    H118830   3.001   7.243   4.971
 6295TIP3    H218831   2.948   7.305   5.098
 6296TIP3   OH218832   2.145   0.269   6.608
 6296TIP3    H118833   2.139   0.186   6.560
 6296TIP3    H218834   2.227   0.308   6.578
 6297TIP3   OH218835   6.915   2.087   0.820
 6297TIP3    H118836   6.860   2.058   0.747
 6297TIP3    H218837   6.945   2.174   0.793
 6298TIP3   OH218838   0.180   0.079   4.768
 6298TIP3    H118839   0.142   0.165   4.783
 6298TIP3    H218840   0.273   0.090   4.786
 6299TIP3   OH218841   3.948   4.899   3.533
 6299TIP3    H118842   3.984   4.832   3.592
 6299TIP3    H218843   4.023   4.955   3.512
 6300TIP3   OH218844   7.201   5.942   3.143
 6300TIP3    H118845   7.285   5.898   3.134
 6300TIP3    H218846   7.136   5.874   3.121
 6301TIP3   OH218847   2.625   4.437   5.371
 6301TIP3    H118848   2.539   4.406   5.344
 6301TIP3    H218849   2.676   4.439   5.291
 6302TIP3   OH218850   3.845   1.177   4.287
 6302TIP3    H118851   3.833   1.186   4.192
 6302TIP3    H218852   3.925   1.125   4.296
 6303TIP3   OH218853   3.558   3.664   6.545
 6303TIP3    H118854   3.630   3.659   6.608
 6303TIP3    H218855   3.601   3.659   6.460
 6304TIP3   OH218856   3.030   2.797   2.384
 6304TIP3    H118857   2.997   2.884   2.406
 6304TIP3    H218858   3.118   2.795   2.423
 6305TIP3   OH218859   0.942   1.029   2.564
 6305TIP3    H118860   0.903   0.945   2.541
 6305TIP3    H218861   0.955   1.024   2.659
 6306TIP3   OH218862   7.780   5.682   3.178
 6306TIP3    H118863   7.775   5.732   3.097
 6306TIP3    H218864   7.792   5.749   3.246
 6307TIP3   OH218865   4.897   2.096   4.190
 6307TIP3    H118866   4.986   2.118   4.215
 6307TIP3    H218867   4.899   2.002   4.171
 6308TIP3   OH218868   6.015   4.767   0.527
 6308TIP3    H118869   6.011   4.734   0.617
 6308TIP3    H218870   5.998   4.861   0.535
 6309TIP3   OH218871   5.966   3.049   5.351
 6309TIP3    H118872   5.960   3.091   5.436
 6309TIP3    H218873   5.938   3.117   5.289
 6310TIP3   OH218874   0.494   3.667   4.728
 6310TIP3    H118875   0.521   3.576   4.741
 6310TIP3    H218876   0.517   3.686   4.637
 6311TIP3   OH218877   7.453   7.002   3.191
 6311TIP3    H118878   7.500   6.991   3.108
 6311TIP3    H218879   7.415   6.916   3.208
 6312TIP3   OH218880   4.938   2.088   3.834
 6312TIP3    H118881   4.963   2.172   3.797
 6312TIP3    H218882   4.933   2.104   3.928
 6313TIP3   OH218883   8.161   2.970   2.354
 6313TIP3    H118884   8.226   2.936   2.293
 6313TIP3    H218885   8.127   2.892   2.399
 6314TIP3   OH218886   5.551   2.917   6.049
 6314TIP3    H118887   5.573   2.905   6.141
 6314TIP3    H218888   5.588   2.841   6.005
 6315TIP3   OH218889   0.212   7.688   3.077
 6315TIP3    H118890   0.216   7.597   3.106
 6315TIP3    H218891   0.142   7.689   3.011
 6316TIP3   OH218892   4.911   1.076   1.202
 6316TIP3    H118893   5.005   1.061   1.213
 6316TIP3    H218894   4.871   0.991   1.220
 6317TIP3   OH218895   6.936   2.064   6.743
 6317TIP3    H118896   6.843   2.046   6.735
 6317TIP3    H218897   6.970   1.992   6.797
 6318TIP3   OH218898   0.118   0.193   1.964
 6318TIP3    H118899   0.098   0.284   1.985
 6318TIP3    H218900   0.123   0.191   1.869
 6319TIP3   OH218901   0.336   4.352   5.277
 6319TIP3    H118902   0.362   4.264   5.252
 6319TIP3    H218903   0.314   4.396   5.195
 6320TIP3   OH218904   5.865   6.059   6.582
 6320TIP3    H118905   5.841   6.137   6.532
 6320TIP3    H218906   5.959   6.069   6.599
 6321TIP3   OH218907   0.851   3.584   1.417
 6321TIP3    H118908   0.797   3.640   1.361
 6321TIP3    H218909   0.814   3.595   1.505
 6322TIP3   OH218910   1.278   3.335   6.778
 6322TIP3    H118911   1.281   3.239   6.784
 6322TIP3    H218912   1.187   3.357   6.797
 6323TIP3   OH218913   5.426   3.497   4.688
 6323TIP3    H118914   5.350   3.465   4.638
 6323TIP3    H218915   5.440   3.429   4.754
 6324TIP3   OH218916   4.500   2.622   6.399
 6324TIP3    H118917   4.530   2.550   6.343
 6324TIP3    H218918   4.580   2.655   6.440
 6325TIP3   OH218919   2.970   7.323   5.317
 6325TIP3    H118920   2.999   7.371   5.395
 6325TIP3    H218921   3.050   7.284   5.283
 6326TIP3   OH218922   5.299   4.945   5.602
 6326TIP3    H118923   5.284   4.959   5.509
 6326TIP3    H218924   5.212   4.953   5.642
 6327TIP3   OH218925   6.305   6.990   2.772
 6327TIP3    H118926   6.389   7.022   2.805
 6327TIP3    H218927   6.272   7.061   2.717
 6328TIP3   OH218928   4.119   1.467   1.635
 6328TIP3    H118929   4.102   1.504   1.548
 6328TIP3    H218930   4.207   1.429   1.628
 6329TIP3   OH218931   5.655   6.943   0.695
 6329TIP3    H118932   5.591   6.923   0.764
 6329TIP3    H218933   5.725   6.989   0.741
 6330TIP3   OH218934   5.539   2.654   0.190
 6330TIP3    H118935   5.609   2.617   0.135
 6330TIP3    H218936   5.583   2.677   0.272
 6331TIP3   OH218937   6.392   5.121   6.171
 6331TIP3    H118938   6.427   5.098   6.257
 6331TIP3    H218939   6.306   5.160   6.190
 6332TIP3   OH218940   7.616   0.233   2.347
 6332TIP3    H118941   7.548   0.169   2.370
 6332TIP3    H218942   7.592   0.312   2.395
 6333TIP3   OH218943   8.023   4.437   0.710
 6333TIP3    H118944   8.049   4.405   0.623
 6333TIP3    H218945   7.947   4.493   0.694
 6334TIP3   OH218946   3.611   3.204   0.384
 6334TIP3    H118947   3.663   3.218   0.305
 6334TIP3    H218948   3.674   3.210   0.456
 6335TIP3   OH218949   7.422   3.197   1.144
 6335TIP3    H118950   7.512   3.226   1.126
 6335TIP3    H218951   7.373   3.222   1.067
 6336TIP3   OH218952   6.733   7.551   4.912
 6336TIP3    H118953   6.779   7.510   4.985
 6336TIP3    H218954   6.643   7.522   4.921
 6337TIP3   OH218955   5.913   5.389   5.797
 6337TIP3    H118956   5.868   5.389   5.881
 6337TIP3    H218957   5.859   5.333   5.741
 6338TIP3   OH218958   7.085   1.229   3.156
 6338TIP3    H118959   7.074   1.267   3.243
 6338TIP3    H218960   7.156   1.166   3.165
 6339TIP3   OH218961   2.918   5.492   4.670
 6339TIP3    H118962   2.961   5.466   4.751
 6339TIP3    H218963   2.849   5.552   4.697
 6340TIP3   OH218964   6.809   4.048   3.160
 6340TIP3    H118965   6.756   3.996   3.220
 6340TIP3    H218966   6.852   4.113   3.216
 6341TIP3   OH218967   1.159   1.077   2.426
 6341TIP3    H118968   1.232   1.055   2.484
 6341TIP3    H218969   1.081   1.063   2.480
 6342TIP3   OH218970   5.475   4.654   0.578
 6342TIP3    H118971   5.468   4.672   0.672
 6342TIP3    H218972   5.478   4.741   0.538
 6343TIP3   OH218973   6.098   3.722   1.651
 6343TIP3    H118974   6.156   3.750   1.580
 6343TIP3    H218975   6.017   3.695   1.608
 6344TIP3   OH218976   3.785   5.465   1.218
 6344TIP3    H118977   3.704   5.508   1.244
 6344TIP3    H218978   3.854   5.524   1.249
 6345TIP3   OH218979   5.986   2.273   1.060
 6345TIP3    H118980   5.939   2.341   1.109
 6345TIP3    H218981   5.932   2.195   1.069
 6346TIP3   OH218982   5.090   6.691   3.807
 6346TIP3    H118983   4.996   6.702   3.797
 6346TIP3    H218984   5.128   6.765   3.758
 6347TIP3   OH218985   7.256   7.455   5.167
 6347TIP3    H118986   7.224   7.485   5.082
 6347TIP3    H218987   7.316   7.524   5.196
 6348TIP3   OH218988   7.407   3.176   4.464
 6348TIP3    H118989   7.472   3.247   4.472
 6348TIP3    H218990   7.449   3.111   4.409
 6349TIP3   OH218991   0.294   3.405   1.683
 6349TIP3    H118992   0.235   3.474   1.713
 6349TIP3    H218993   0.238   3.328   1.673
 6350TIP3   OH218994   8.000   7.088   1.646
 6350TIP3    H118995   8.010   7.181   1.622
 6350TIP3    H218996   8.088   7.052   1.637
 6351TIP3   OH218997   1.825   0.328   3.906
 6351TIP3    H118998   1.851   0.236   3.900
 6351TIP3    H218999   1.828   0.347   4.000
 6352TIP3   OH219000   1.641   4.171   3.335
 6352TIP3    H119001   1.731   4.139   3.325
 6352TIP3    H219002   1.638   4.250   3.282
 6353TIP3   OH219003   3.129   6.342   4.349
 6353TIP3    H119004   3.090   6.260   4.378
 6353TIP3    H219005   3.060   6.386   4.300
 6354TIP3   OH219006   4.431   1.806   6.374
 6354TIP3    H119007   4.497   1.839   6.435
 6354TIP3    H219008   4.481   1.765   6.304
 6355TIP3   OH219009   0.100   3.875   1.265
 6355TIP3    H119010   0.146   3.794   1.287
 6355TIP3    H219011   0.007   3.854   1.276
 6356TIP3   OH219012   1.632   7.071   0.491
 6356TIP3    H119013   1.667   7.153   0.456
 6356TIP3    H219014   1.640   7.080   0.586
 6357TIP3   OH219015   4.326   1.807   1.872
 6357TIP3    H119016   4.386   1.854   1.814
 6357TIP3    H219017   4.284   1.876   1.925
 6358TIP3   OH219018   6.434   0.716   1.840
 6358TIP3    H119019   6.476   0.645   1.888
 6358TIP3    H219020   6.426   0.787   1.905
 6359TIP3   OH219021   2.128   7.383   2.150
 6359TIP3    H119022   2.158   7.395   2.240
 6359TIP3    H219023   2.197   7.332   2.108
 6360TIP3   OH219024   0.525   2.347   1.676
 6360TIP3    H119025   0.553   2.367   1.587
 6360TIP3    H219026   0.442   2.300   1.665
 6361TIP3   OH219027   5.080   0.531   6.194
 6361TIP3    H119028   5.022   0.462   6.226
 6361TIP3    H219029   5.044   0.554   6.108
 6362TIP3   OH219030   8.143   5.366   3.688
 6362TIP3    H119031   8.082   5.329   3.624
 6362TIP3    H219032   8.123   5.322   3.770
 6363TIP3   OH219033   4.835   1.685   1.400
 6363TIP3    H119034   4.746   1.658   1.424
 6363TIP3    H219035   4.890   1.609   1.422
 6364TIP3   OH219036   7.970   4.723   3.276
 6364TIP3    H119037   8.028   4.796   3.253
 6364TIP3    H219038   8.008   4.647   3.234
 6365TIP3   OH219039   3.072   1.876   5.521
 6365TIP3    H119040   3.032   1.825   5.450
 6365TIP3    H219041   3.011   1.948   5.536
 6366TIP3   OH219042   4.568   7.366   5.169
 6366TIP3    H119043   4.547   7.460   5.170
 6366TIP3    H219044   4.582   7.345   5.077
 6367TIP3   OH219045   0.595   2.457   4.777
 6367TIP3    H119046   0.656   2.486   4.709
 6367TIP3    H219047   0.525   2.522   4.777
 6368TIP3   OH219048   0.643   7.656   4.285
 6368TIP3    H119049   0.690   7.597   4.226
 6368TIP3    H219050   0.591   7.712   4.228
 6369TIP3   OH219051   2.386   0.223   5.022
 6369TIP3    H119052   2.465   0.273   5.041
 6369TIP3    H219053   2.330   0.236   5.098
 6370TIP3   OH219054   0.080   7.300   4.709
 6370TIP3    H119055   0.038   7.323   4.626
 6370TIP3    H219056   0.153   7.243   4.683
 6371TIP3   OH219057   6.542   1.826   2.069
 6371TIP3    H119058   6.496   1.885   2.128
 6371TIP3    H219059   6.479   1.756   2.051
 6372TIP3   OH219060   6.165   4.687   2.492
 6372TIP3    H119061   6.095   4.739   2.453
 6372TIP3    H219062   6.242   4.706   2.437
 6373TIP3   OH219063   7.295   2.936   5.203
 6373TIP3    H119064   7.319   3.028   5.189
 6373TIP3    H219065   7.360   2.903   5.264
 6374TIP3   OH219066   4.709   5.761   1.325
 6374TIP3    H119067   4.706   5.745   1.419
 6374TIP3    H219068   4.676   5.851   1.315
 6375TIP3   OH219069   4.428   2.895   6.274
 6375TIP3    H119070   4.419   2.908   6.368
 6375TIP3    H219071   4.462   2.807   6.265
 6376TIP3   OH219072   3.001   7.366   6.708
 6376TIP3    H119073   2.924   7.423   6.703
 6376TIP3    H219074   3.019   7.359   6.802
 6377TIP3   OH219075   5.134   2.236   5.292
 6377TIP3    H119076   5.049   2.237   5.335
 6377TIP3    H219077   5.197   2.246   5.363
 6378TIP3   OH219078   2.039   7.184   0.033
 6378TIP3    H119079   2.069   7.254   0.091
 6378TIP3    H219080   1.996   7.229  -0.039
 6379TIP3   OH219081   6.460   5.402   5.292
 6379TIP3    H119082   6.513   5.452   5.355
 6379TIP3    H219083   6.406   5.345   5.347
 6380TIP3   OH219084   4.103   7.418   4.762
 6380TIP3    H119085   4.194   7.394   4.742
 6380TIP3    H219086   4.109   7.474   4.839
 6381TIP3   OH219087   0.948   4.475   0.534
 6381TIP3    H119088   0.978   4.566   0.536
 6381TIP3    H219089   0.893   4.466   0.611
 6382TIP3   OH219090   6.326   5.390   4.377
 6382TIP3    H119091   6.250   5.422   4.424
 6382TIP3    H219092   6.392   5.458   4.389
 6383TIP3   OH219093   1.235   4.543   2.033
 6383TIP3    H119094   1.212   4.523   1.942
 6383TIP3    H219095   1.303   4.610   2.026
 6384TIP3   OH219096   1.175   6.022   2.615
 6384TIP3    H119097   1.175   6.089   2.547
 6384TIP3    H219098   1.268   6.007   2.634
 6385TIP3   OH219099   6.885   7.501   0.950
 6385TIP3    H119100   6.793   7.528   0.958
 6385TIP3    H219101   6.912   7.533   0.864
 6386TIP3   OH219102   1.912   5.704   2.217
 6386TIP3    H119103   2.007   5.697   2.215
 6386TIP3    H219104   1.882   5.613   2.225
 6387TIP3   OH219105   1.937   4.805   2.292
 6387TIP3    H119106   1.842   4.805   2.283
 6387TIP3    H219107   1.953   4.751   2.369
 6388TIP3   OH219108   7.677   4.414   6.599
 6388TIP3    H119109   7.761   4.427   6.643
 6388TIP3    H219110   7.653   4.500   6.567
 6389TIP3   OH219111   4.698   5.981   3.783
 6389TIP3    H119112   4.737   5.898   3.757
 6389TIP3    H219113   4.618   5.957   3.830
 6390TIP3   OH219114   3.423   2.673   4.679
 6390TIP3    H119115   3.452   2.676   4.588
 6390TIP3    H219116   3.438   2.583   4.707
 6391TIP3   OH219117   0.895   0.355   1.857
 6391TIP3    H119118   0.949   0.433   1.851
 6391TIP3    H219119   0.889   0.336   1.950
 6392TIP3   OH219120   6.186   6.407   5.983
 6392TIP3    H119121   6.219   6.354   6.054
 6392TIP3    H219122   6.111   6.359   5.949
 6393TIP3   OH219123   0.115   1.152   3.989
 6393TIP3    H119124   0.043   1.102   4.028
 6393TIP3    H219125   0.194   1.113   4.027
 6394TIP3   OH219126   3.286   0.938   6.690
 6394TIP3    H119127   3.276   1.017   6.636
 6394TIP3    H219128   3.293   0.971   6.779
 6395TIP3   OH219129   6.226   7.205   4.358
 6395TIP3    H119130   6.260   7.271   4.298
 6395TIP3    H219131   6.155   7.163   4.310
 6396TIP3   OH219132   5.295   6.540   0.939
 6396TIP3    H119133   5.226   6.595   0.976
 6396TIP3    H219134   5.308   6.471   1.004
 6397TIP3   OH219135   7.506   6.500   4.283
 6397TIP3    H119136   7.502   6.591   4.254
 6397TIP3    H219137   7.594   6.491   4.319
 6398TIP3   OH219138   6.025   5.938   5.155
 6398TIP3    H119139   6.050   6.022   5.193
 6398TIP3    H219140   6.107   5.900   5.125
 6399TIP3   OH219141   1.523   6.755   3.515
 6399TIP3    H119142   1.493   6.755   3.606
 6399TIP3    H219143   1.543   6.847   3.496
 6400TIP3   OH219144   0.222   2.729   6.581
 6400TIP3    H119145   0.185   2.741   6.493
 6400TIP3    H219146   0.273   2.808   6.597
 6401TIP3   OH219147   0.378   5.123   1.509
 6401TIP3    H119148   0.402   5.034   1.534
 6401TIP3    H219149   0.294   5.114   1.465
 6402TIP3   OH219150   4.998   3.295   3.022
 6402TIP3    H119151   5.077   3.263   3.065
 6402TIP3    H219152   4.997   3.389   3.041
 6403TIP3   OH219153   2.283   6.208   3.753
 6403TIP3    H119154   2.208   6.169   3.708
 6403TIP3    H219155   2.300   6.149   3.827
 6404TIP3   OH219156   2.560   1.563   3.422
 6404TIP3    H119157   2.511   1.586   3.343
 6404TIP3    H219158   2.552   1.467   3.428
 6405TIP3   OH219159   8.005   1.107   0.242
 6405TIP3    H119160   7.975   1.197   0.254
 6405TIP3    H219161   7.934   1.064   0.194
 6406TIP3   OH219162   1.696   0.547   2.826
 6406TIP3    H119163   1.787   0.557   2.852
 6406TIP3    H219164   1.691   0.588   2.739
 6407TIP3   OH219165   4.166   6.274   2.464
 6407TIP3    H119166   4.163   6.254   2.370
 6407TIP3    H219167   4.187   6.190   2.506
 6408TIP3   OH219168   7.501   7.620   6.030
 6408TIP3    H119169   7.546   7.652   5.952
 6408TIP3    H219170   7.421   7.579   5.996
 6409TIP3   OH219171   7.528   4.976   4.244
 6409TIP3    H119172   7.602   4.968   4.304
 6409TIP3    H219173   7.472   5.043   4.284
 6410TIP3   OH219174  -0.013   4.744   4.695
 6410TIP3    H119175   0.071   4.787   4.710
 6410TIP3    H219176   0.001   4.692   4.615
 6411TIP3   OH219177   3.947   0.198   2.378
 6411TIP3    H119178   4.033   0.213   2.418
 6411TIP3    H219179   3.961   0.214   2.285
 6412TIP3   OH219180   1.169   2.206   1.116
 6412TIP3    H119181   1.168   2.215   1.021
 6412TIP3    H219182   1.163   2.112   1.131
 6413TIP3   OH219183   5.443   6.576   2.007
 6413TIP3    H119184   5.458   6.656   2.057
 6413TIP3    H219185   5.499   6.511   2.047
 6414TIP3   OH219186   5.717   4.244   4.948
 6414TIP3    H119187   5.777   4.183   4.905
 6414TIP3    H219188   5.723   4.221   5.041
 6415TIP3   OH219189   6.283   3.247   2.634
 6415TIP3    H119190   6.213   3.185   2.613
 6415TIP3    H219191   6.238   3.325   2.665
 6416TIP3   OH219192   1.927   4.325   1.922
 6416TIP3    H119193   1.928   4.256   1.855
 6416TIP3    H219194   1.975   4.397   1.884
 6417TIP3   OH219195   0.061   7.797   0.940
 6417TIP3    H119196   0.073   7.709   0.906
 6417TIP3    H219197   0.147   7.839   0.929
 6418TIP3   OH219198   2.399   4.460   5.980
 6418TIP3    H119199   2.456   4.396   5.938
 6418TIP3    H219200   2.422   4.543   5.939
 6419TIP3   OH219201   1.897   3.132   6.323
 6419TIP3    H119202   1.891   3.163   6.233
 6419TIP3    H219203   1.980   3.086   6.327
 6420TIP3   OH219204   6.336   1.944   1.824
 6420TIP3    H119205   6.379   1.977   1.903
 6420TIP3    H219206   6.247   1.977   1.829
 6421TIP3   OH219207   2.575   7.508   3.483
 6421TIP3    H119208   2.537   7.450   3.549
 6421TIP3    H219209   2.611   7.581   3.533
 6422TIP3   OH219210   3.022   0.249   6.073
 6422TIP3    H119211   3.062   0.214   5.994
 6422TIP3    H219212   3.010   0.342   6.055
 6423TIP3   OH219213   0.499   5.635   3.421
 6423TIP3    H119214   0.587   5.672   3.428
 6423TIP3    H219215   0.480   5.637   3.328
 6424TIP3   OH219216   3.379   6.932   3.867
 6424TIP3    H119217   3.471   6.906   3.874
 6424TIP3    H219218   3.380   7.007   3.808
 6425TIP3   OH219219   3.111   4.697   0.057
 6425TIP3    H119220   3.176   4.755   0.099
 6425TIP3    H219221   3.139   4.693  -0.034
 6426TIP3   OH219222   4.820   5.993   2.557
 6426TIP3    H119223   4.752   5.935   2.522
 6426TIP3    H219224   4.773   6.050   2.618
 6427TIP3   OH219225   6.216   5.373   4.927
 6427TIP3    H119226   6.255   5.458   4.947
 6427TIP3    H219227   6.136   5.395   4.878
 6428TIP3   OH219228   1.157   2.309   4.259
 6428TIP3    H119229   1.069   2.282   4.233
 6428TIP3    H219230   1.215   2.261   4.200
 6429TIP3   OH219231   6.853   6.741   4.943
 6429TIP3    H119232   6.868   6.746   5.037
 6429TIP3    H219233   6.881   6.653   4.919
 6430TIP3   OH219234   0.618   1.459   2.148
 6430TIP3    H119235   0.593   1.519   2.218
 6430TIP3    H219236   0.707   1.432   2.171
 6431TIP3   OH219237   2.516   1.470   2.343
 6431TIP3    H119238   2.437   1.499   2.389
 6431TIP3    H219239   2.540   1.543   2.287
 6432TIP3   OH219240   5.555   7.244   2.832
 6432TIP3    H119241   5.478   7.195   2.863
 6432TIP3    H219242   5.537   7.260   2.740
 6433TIP3   OH219243   7.174   7.366   4.186
 6433TIP3    H119244   7.204   7.282   4.152
 6433TIP3    H219245   7.184   7.358   4.281
 6434TIP3   OH219246   6.561   6.161   3.638
 6434TIP3    H119247   6.641   6.189   3.595
 6434TIP3    H219248   6.507   6.124   3.568
 6435TIP3   OH219249   3.594   4.764   6.682
 6435TIP3    H119250   3.562   4.776   6.592
 6435TIP3    H219251   3.560   4.841   6.729
 6436TIP3   OH219252   5.231   0.891   3.051
 6436TIP3    H119253   5.206   0.884   2.959
 6436TIP3    H219254   5.247   0.801   3.079
 6437TIP3   OH219255   3.782   7.431   1.231
 6437TIP3    H119256   3.737   7.512   1.256
 6437TIP3    H219257   3.763   7.422   1.137
 6438TIP3   OH219258   7.590   1.788   3.195
 6438TIP3    H119259   7.587   1.723   3.124
 6438TIP3    H219260   7.646   1.858   3.161
 6439TIP3   OH219261   5.085   1.015   4.435
 6439TIP3    H119262   4.994   1.026   4.463
 6439TIP3    H219263   5.136   1.017   4.515
 6440TIP3   OH219264   3.805   1.477   0.756
 6440TIP3    H119265   3.739   1.544   0.745
 6440TIP3    H219266   3.848   1.471   0.671
 6441TIP3   OH219267   2.256   6.915   2.684
 6441TIP3    H119268   2.163   6.908   2.704
 6441TIP3    H219269   2.299   6.906   2.769
 6442TIP3   OH219270   1.211   3.291   3.407
 6442TIP3    H119271   1.254   3.348   3.471
 6442TIP3    H219272   1.126   3.331   3.393
 6443TIP3   OH219273   3.466   5.320   4.343
 6443TIP3    H119274   3.541   5.341   4.287
 6443TIP3    H219275   3.458   5.396   4.402
 6444TIP3   OH219276   5.971   5.550   1.755
 6444TIP3    H119277   6.030   5.590   1.819
 6444TIP3    H219278   5.974   5.457   1.774
 6445TIP3   OH219279   2.618   0.444   0.456
 6445TIP3    H119280   2.554   0.482   0.515
 6445TIP3    H219281   2.681   0.515   0.441
 6446TIP3   OH219282   0.774   4.821   4.001
 6446TIP3    H119283   0.751   4.738   3.960
 6446TIP3    H219284   0.869   4.825   3.994
 6447TIP3   OH219285   3.327   4.620   0.291
 6447TIP3    H119286   3.318   4.581   0.204
 6447TIP3    H219287   3.389   4.563   0.336
 6448TIP3   OH219288   1.042   4.546   4.896
 6448TIP3    H119289   1.127   4.503   4.898
 6448TIP3    H219290   1.062   4.640   4.895
 6449TIP3   OH219291   5.847   5.359   1.454
 6449TIP3    H119292   5.859   5.454   1.451
 6449TIP3    H219293   5.764   5.343   1.410
 6450TIP3   OH219294   2.638   0.753   2.097
 6450TIP3    H119295   2.553   0.708   2.101
 6450TIP3    H219296   2.618   0.839   2.058
 6451TIP3   OH219297   0.677   4.459   6.182
 6451TIP3    H119298   0.671   4.364   6.183
 6451TIP3    H219299   0.756   4.479   6.232
 6452TIP3   OH219300   2.079   1.454   0.155
 6452TIP3    H119301   2.169   1.419   0.155
 6452TIP3    H219302   2.053   1.451   0.063
 6453TIP3   OH219303   5.426   6.454   6.663
 6453TIP3    H119304   5.413   6.432   6.755
 6453TIP3    H219305   5.509   6.413   6.640
 6454TIP3   OH219306   1.628   5.670   0.535
 6454TIP3    H119307   1.720   5.667   0.561
 6454TIP3    H219308   1.582   5.701   0.613
 6455TIP3   OH219309   0.932   1.761   6.221
 6455TIP3    H119310   1.023   1.773   6.193
 6455TIP3    H219311   0.880   1.800   6.151
 6456TIP3   OH219312   8.203   2.151   1.877
 6456TIP3    H119313   8.212   2.241   1.845
 6456TIP3    H219314   8.171   2.102   1.801
 6457TIP3   OH219315   1.601   0.888   0.781
 6457TIP3    H119316   1.650   0.874   0.700
 6457TIP3    H219317   1.667   0.888   0.850
 6458TIP3   OH219318   4.169   3.569   3.580
 6458TIP3    H119319   4.176   3.475   3.565
 6458TIP3    H219320   4.257   3.597   3.604
 6459TIP3   OH219321   2.848   6.932   4.370
 6459TIP3    H119322   2.772   6.930   4.428
 6459TIP3    H219323   2.815   6.901   4.286
 6460TIP3   OH219324   4.804   6.152   1.429
 6460TIP3    H119325   4.880   6.164   1.372
 6460TIP3    H219326   4.743   6.100   1.377
 6461TIP3   OH219327   1.265   6.441   4.420
 6461TIP3    H119328   1.334   6.441   4.353
 6461TIP3    H219329   1.188   6.406   4.375
 6462TIP3   OH219330   1.772   0.402   0.798
 6462TIP3    H119331   1.688   0.376   0.761
 6462TIP3    H219332   1.817   0.445   0.725
 6463TIP3   OH219333   2.125   5.544   4.452
 6463TIP3    H119334   2.197   5.603   4.430
 6463TIP3    H219335   2.166   5.457   4.457
 6464TIP3   OH219336   0.620   5.250   6.027
 6464TIP3    H119337   0.587   5.227   6.114
 6464TIP3    H219338   0.552   5.306   5.990
 6465TIP3   OH219339   1.936   7.473   4.973
 6465TIP3    H119340   1.864   7.502   5.029
 6465TIP3    H219341   1.971   7.396   5.017
 6466TIP3   OH219342   7.665   0.096   2.064
 6466TIP3    H119343   7.743   0.045   2.044
 6466TIP3    H219344   7.698   0.180   2.095
 6467TIP3   OH219345   1.479   7.600   6.643
 6467TIP3    H119346   1.425   7.668   6.602
 6467TIP3    H219347   1.538   7.572   6.573
 6468TIP3   OH219348   5.993   2.341   6.587
 6468TIP3    H119349   6.037   2.380   6.510
 6468TIP3    H219350   5.984   2.249   6.564
 6469TIP3   OH219351   6.114   6.406   4.781
 6469TIP3    H119352   6.163   6.472   4.830
 6469TIP3    H219353   6.057   6.457   4.723
 6470TIP3   OH219354   6.193   6.299   2.667
 6470TIP3    H119355   6.224   6.215   2.633
 6470TIP3    H219356   6.116   6.277   2.720
 6471TIP3   OH219357   4.039   2.206   5.937
 6471TIP3    H119358   4.122   2.236   5.900
 6471TIP3    H219359   4.060   2.121   5.976
 6472TIP3   OH219360   3.574   2.277   4.396
 6472TIP3    H119361   3.571   2.257   4.302
 6472TIP3    H219362   3.514   2.215   4.436
 6473TIP3   OH219363   5.800   4.928   1.836
 6473TIP3    H119364   5.748   4.872   1.779
 6473TIP3    H219365   5.872   4.872   1.865
 6474TIP3   OH219366   4.226   4.989   2.016
 6474TIP3    H119367   4.253   5.058   2.075
 6474TIP3    H219368   4.308   4.952   1.982
 6475TIP3   OH219369   3.134   4.757   0.435
 6475TIP3    H119370   3.190   4.781   0.509
 6475TIP3    H219371   3.183   4.690   0.388
 6476TIP3   OH219372   6.027   3.373   2.308
 6476TIP3    H119373   5.968   3.388   2.234
 6476TIP3    H219374   6.068   3.289   2.288
 6477TIP3   OH219375   1.290   7.280   1.193
 6477TIP3    H119376   1.197   7.296   1.210
 6477TIP3    H219377   1.333   7.298   1.276
 6478TIP3   OH219378   5.075   5.274   2.393
 6478TIP3    H119379   5.108   5.318   2.314
 6478TIP3    H219380   5.129   5.308   2.464
 6479TIP3   OH219381   3.736   4.873   6.084
 6479TIP3    H119382   3.701   4.939   6.142
 6479TIP3    H219383   3.821   4.850   6.122
 6480TIP3   OH219384   2.801   3.117   1.783
 6480TIP3    H119385   2.733   3.130   1.716
 6480TIP3    H219386   2.758   3.138   1.866
 6481TIP3   OH219387   5.317   1.942   1.157
 6481TIP3    H119388   5.367   2.023   1.165
 6481TIP3    H219389   5.239   1.966   1.107
 6482TIP3   OH219390   6.620   1.809   4.515
 6482TIP3    H119391   6.564   1.732   4.507
 6482TIP3    H219392   6.616   1.851   4.429
 6483TIP3   OH219393   3.580   6.117   6.032
 6483TIP3    H119394   3.670   6.116   6.064
 6483TIP3    H219395   3.571   6.202   5.989
 6484TIP3   OH219396   7.359   3.931   5.719
 6484TIP3    H119397   7.454   3.940   5.725
 6484TIP3    H219398   7.328   3.934   5.810
 6485TIP3   OH219399   0.929   5.834   3.129
 6485TIP3    H119400   0.875   5.879   3.065
 6485TIP3    H219401   0.885   5.849   3.213
 6486TIP3   OH219402   6.098   6.349   4.219
 6486TIP3    H119403   6.173   6.409   4.216
 6486TIP3    H219404   6.089   6.326   4.311
 6487TIP3   OH219405   2.354   0.396   5.711
 6487TIP3    H119406   2.290   0.467   5.705
 6487TIP3    H219407   2.340   0.359   5.798
 6488TIP3   OH219408   5.570   0.336   5.634
 6488TIP3    H119409   5.662   0.329   5.608
 6488TIP3    H219410   5.573   0.361   5.726
 6489TIP3   OH219411   3.966   3.563   4.181
 6489TIP3    H119412   4.032   3.493   4.185
 6489TIP3    H219413   4.009   3.633   4.131
 6490TIP3   OH219414   2.390   5.708   5.450
 6490TIP3    H119415   2.327   5.778   5.432
 6490TIP3    H219416   2.428   5.687   5.365
 6491TIP3   OH219417   3.623   3.201   4.220
 6491TIP3    H119418   3.647   3.174   4.132
 6491TIP3    H219419   3.694   3.259   4.247
 6492TIP3   OH219420   4.589   3.907   6.168
 6492TIP3    H119421   4.552   3.836   6.220
 6492TIP3    H219422   4.671   3.929   6.212
 6493TIP3   OH219423   0.166   6.665   5.947
 6493TIP3    H119424   0.072   6.645   5.945
 6493TIP3    H219425   0.182   6.694   6.037
 6494TIP3   OH219426   7.722   3.957   6.223
 6494TIP3    H119427   7.774   4.032   6.195
 6494TIP3    H219428   7.641   3.995   6.257
 6495TIP3   OH219429   7.334   5.890   3.871
 6495TIP3    H119430   7.400   5.906   3.802
 6495TIP3    H219431   7.356   5.953   3.939
 6496TIP3   OH219432   6.234   1.140   5.613
 6496TIP3    H119433   6.151   1.113   5.652
 6496TIP3    H219434   6.224   1.234   5.599
 6497TIP3   OH219435   2.761   5.946   4.505
 6497TIP3    H119436   2.697   5.963   4.436
 6497TIP3    H219437   2.716   5.887   4.566
 6498TIP3   OH219438   0.659   3.415   5.743
 6498TIP3    H119439   0.676   3.487   5.682
 6498TIP3    H219440   0.614   3.456   5.817
 6499TIP3   OH219441   4.667   0.204   0.915
 6499TIP3    H119442   4.638   0.135   0.975
 6499TIP3    H219443   4.674   0.282   0.971
 6500TIP3   OH219444   5.714   5.419   5.071
 6500TIP3    H119445   5.685   5.488   5.010
 6500TIP3    H219446   5.656   5.428   5.146
 6501TIP3   OH219447   4.859   2.883   3.528
 6501TIP3    H119448   4.893   2.938   3.600
 6501TIP3    H219449   4.901   2.918   3.450
 6502TIP3   OH219450   1.811   0.872   2.386
 6502TIP3    H119451   1.754   0.835   2.319
 6502TIP3    H219452   1.818   0.965   2.364
 6503TIP3   OH219453   3.788   1.063   1.366
 6503TIP3    H119454   3.873   1.107   1.361
 6503TIP3    H219455   3.797   1.000   1.437
 6504TIP3   OH219456   1.333   4.632   2.947
 6504TIP3    H119457   1.249   4.651   2.905
 6504TIP3    H219458   1.398   4.676   2.892
 6505TIP3   OH219459   5.011   3.912   0.572
 6505TIP3    H119460   4.917   3.897   0.559
 6505TIP3    H219461   5.049   3.825   0.579
 6506TIP3   OH219462   7.061   7.087   2.415
 6506TIP3    H119463   7.047   6.994   2.434
 6506TIP3    H219464   7.146   7.106   2.454
 6507TIP3   OH219465   4.747   4.795   6.520
 6507TIP3    H119466   4.723   4.727   6.584
 6507TIP3    H219467   4.769   4.746   6.441
 6508TIP3   OH219468   3.529   3.194   2.166
 6508TIP3    H119469   3.548   3.145   2.246
 6508TIP3    H219470   3.597   3.261   2.164
 6509TIP3   OH219471   7.491   6.291   5.850
 6509TIP3    H119472   7.564   6.236   5.823
 6509TIP3    H219473   7.471   6.345   5.773
 6510TIP3   OH219474   5.388   0.414   6.052
 6510TIP3    H119475   5.401   0.500   6.091
 6510TIP3    H219476   5.302   0.386   6.084
 6511TIP3   OH219477   3.361   1.339   3.590
 6511TIP3    H119478   3.299   1.305   3.527
 6511TIP3    H219479   3.358   1.434   3.579
 6512TIP3   OH219480   4.365   3.163   4.283
 6512TIP3    H119481   4.343   3.217   4.360
 6512TIP3    H219482   4.289   3.170   4.226
 6513TIP3   OH219483   4.503   5.632   0.927
 6513TIP3    H119484   4.436   5.669   0.985
 6513TIP3    H219485   4.575   5.694   0.931
 6514TIP3   OH219486   0.957   0.691   3.211
 6514TIP3    H119487   0.976   0.652   3.296
 6514TIP3    H219488   1.037   0.678   3.160
 6515TIP3   OH219489   3.780   4.953   2.058
 6515TIP3    H119490   3.686   4.968   2.052
 6515TIP3    H219491   3.797   4.882   1.995
 6516TIP3   OH219492   3.988   2.384   3.681
 6516TIP3    H119493   4.029   2.314   3.631
 6516TIP3    H219494   3.950   2.442   3.615
 6517TIP3   OH219495   3.927   1.343   2.499
 6517TIP3    H119496   3.860   1.366   2.563
 6517TIP3    H219497   4.010   1.363   2.543
 6518TIP3   OH219498   1.020   0.904   3.780
 6518TIP3    H119499   0.942   0.908   3.835
 6518TIP3    H219500   1.093   0.925   3.839
 6519TIP3   OH219501   0.116   7.633   2.151
 6519TIP3    H119502   0.088   7.557   2.203
 6519TIP3    H219503   0.117   7.706   2.213
 6520TIP3   OH219504   1.211   2.371   6.333
 6520TIP3    H119505   1.119   2.397   6.333
 6520TIP3    H219506   1.209   2.278   6.355
 6521TIP3   OH219507   4.812   1.574   0.852
 6521TIP3    H119508   4.809   1.505   0.786
 6521TIP3    H219509   4.895   1.560   0.898
 6522TIP3   OH219510   6.454   6.763   5.382
 6522TIP3    H119511   6.509   6.827   5.427
 6522TIP3    H219512   6.373   6.810   5.361
 6523TIP3   OH219513   3.154   4.180   1.019
 6523TIP3    H119514   3.172   4.116   1.088
 6523TIP3    H219515   3.207   4.150   0.945
 6524TIP3   OH219516   6.835   4.040   1.377
 6524TIP3    H119517   6.891   3.965   1.356
 6524TIP3    H219518   6.816   4.029   1.470
 6525TIP3   OH219519   2.366   5.319   3.319
 6525TIP3    H119520   2.327   5.240   3.355
 6525TIP3    H219521   2.297   5.357   3.264
 6526TIP3   OH219522   6.481   3.073   2.696
 6526TIP3    H119523   6.494   3.013   2.623
 6526TIP3    H219524   6.428   3.144   2.659
 6527TIP3   OH219525   0.727   4.273   3.450
 6527TIP3    H119526   0.647   4.284   3.502
 6527TIP3    H219527   0.734   4.354   3.401
 6528TIP3   OH219528   1.766   0.156   4.688
 6528TIP3    H119529   1.855   0.132   4.712
 6528TIP3    H219530   1.751   0.241   4.728
 6529TIP3   OH219531   5.068   3.468   1.010
 6529TIP3    H119532   5.010   3.396   1.032
 6529TIP3    H219533   5.076   3.519   1.091
 6530TIP3   OH219534   3.671   1.745   0.747
 6530TIP3    H119535   3.720   1.787   0.818
 6530TIP3    H219536   3.680   1.805   0.673
 6531TIP3   OH219537   3.829   5.685   1.761
 6531TIP3    H119538   3.794   5.767   1.726
 6531TIP3    H219539   3.897   5.660   1.700
 6532TIP3   OH219540   7.607   7.726   3.871
 6532TIP3    H119541   7.610   7.815   3.835
 6532TIP3    H219542   7.617   7.669   3.795
 6533TIP3   OH219543   2.789   5.963   0.080
 6533TIP3    H119544   2.770   5.875   0.048
 6533TIP3    H219545   2.805   6.015   0.001
 6534TIP3   OH219546   7.630   2.012   4.079
 6534TIP3    H119547   7.554   2.063   4.050
 6534TIP3    H219548   7.662   2.059   4.156
 6535TIP3   OH219549   1.006   1.579   0.650
 6535TIP3    H119550   0.940   1.536   0.705
 6535TIP3    H219551   0.960   1.654   0.613
 6536TIP3   OH219552   5.035   6.172   0.307
 6536TIP3    H119553   4.945   6.202   0.317
 6536TIP3    H219554   5.036   6.122   0.225
 6537TIP3   OH219555   2.075   2.075   0.239
 6537TIP3    H119556   2.116   1.990   0.255
 6537TIP3    H219557   2.125   2.112   0.166
 6538TIP3   OH219558   2.577   1.683   6.560
 6538TIP3    H119559   2.575   1.632   6.478
 6538TIP3    H219560   2.486   1.707   6.576
 6539TIP3   OH219561   0.709   1.940   0.483
 6539TIP3    H119562   0.715   1.848   0.458
 6539TIP3    H219563   0.772   1.949   0.555
 6540TIP3   OH219564   6.084   3.937   2.838
 6540TIP3    H119565   6.168   3.899   2.815
 6540TIP3    H219566   6.103   4.029   2.857
 6541TIP3   OH219567   0.340   5.604   1.378
 6541TIP3    H119568   0.420   5.652   1.358
 6541TIP3    H219569   0.282   5.670   1.415
 6542TIP3   OH219570   0.647   1.620   2.538
 6542TIP3    H119571   0.639   1.541   2.591
 6542TIP3    H219572   0.565   1.667   2.552
 6543TIP3   OH219573   8.084   7.570   2.780
 6543TIP3    H119574   8.015   7.637   2.774
 6543TIP3    H219575   8.045   7.500   2.833
 6544TIP3   OH219576   0.059   5.777   2.392
 6544TIP3    H119577   0.034   5.867   2.372
 6544TIP3    H219578   0.155   5.778   2.385
 6545TIP3   OH219579   1.025   7.002   6.654
 6545TIP3    H119580   1.001   7.094   6.663
 6545TIP3    H219581   1.030   6.969   6.744
 6546TIP3   OH219582   6.689   1.799   0.082
 6546TIP3    H119583   6.751   1.815   0.154
 6546TIP3    H219584   6.667   1.886   0.049
 6547TIP3   OH219585   5.481   3.413   0.746
 6547TIP3    H119586   5.528   3.457   0.675
 6547TIP3    H219587   5.525   3.442   0.826
 6548TIP3   OH219588   5.304   0.374   2.605
 6548TIP3    H119589   5.276   0.398   2.693
 6548TIP3    H219590   5.398   0.357   2.614
 6549TIP3   OH219591   4.000   5.826   4.878
 6549TIP3    H119592   4.081   5.788   4.914
 6549TIP3    H219593   3.997   5.914   4.915
 6550TIP3   OH219594   4.206   6.976   3.142
 6550TIP3    H119595   4.274   7.038   3.117
 6550TIP3    H219596   4.127   7.029   3.150
 6551TIP3   OH219597   6.247   7.596   0.826
 6551TIP3    H119598   6.181   7.579   0.758
 6551TIP3    H219599   6.319   7.537   0.804
 6552TIP3   OH219600   0.292   7.178   5.892
 6552TIP3    H119601   0.375   7.213   5.862
 6552TIP3    H219602   0.315   7.098   5.940
 6553TIP3   OH219603   1.613   5.997   4.717
 6553TIP3    H119604   1.666   5.970   4.792
 6553TIP3    H219605   1.670   5.982   4.641
 6554TIP3   OH219606   1.493   4.982   6.639
 6554TIP3    H119607   1.456   4.903   6.600
 6554TIP3    H219608   1.533   4.953   6.721
 6555TIP3   OH219609   7.272   7.084   2.576
 6555TIP3    H119610   7.301   7.072   2.667
 6555TIP3    H219611   7.323   7.020   2.526
 6556TIP3   OH219612   3.402   7.556   2.699
 6556TIP3    H119613   3.335   7.490   2.685
 6556TIP3    H219614   3.420   7.591   2.612
 6557TIP3   OH219615   5.446   5.606   1.220
 6557TIP3    H119616   5.460   5.630   1.312
 6557TIP3    H219617   5.352   5.619   1.206
 6558TIP3   OH219618   5.721   1.018   4.512
 6558TIP3    H119619   5.702   1.089   4.573
 6558TIP3    H219620   5.770   1.059   4.442
 6559TIP3   OH219621   4.137   4.788   2.624
 6559TIP3    H119622   4.052   4.814   2.661
 6559TIP3    H219623   4.130   4.808   2.531
 6560TIP3   OH219624   3.407   3.684   2.962
 6560TIP3    H119625   3.396   3.765   3.012
 6560TIP3    H219626   3.437   3.620   3.026
 6561TIP3   OH219627   5.477   2.589   4.356
 6561TIP3    H119628   5.503   2.498   4.368
 6561TIP3    H219629   5.487   2.628   4.443
 6562TIP3   OH219630   4.260   4.345   2.408
 6562TIP3    H119631   4.207   4.300   2.342
 6562TIP3    H219632   4.264   4.284   2.481
 6563TIP3   OH219633   5.964   1.029   3.245
 6563TIP3    H119634   5.877   1.036   3.283
 6563TIP3    H219635   5.954   0.970   3.170
 6564TIP3   OH219636   5.513   3.172   3.454
 6564TIP3    H119637   5.564   3.154   3.375
 6564TIP3    H219638   5.562   3.132   3.525
 6565TIP3   OH219639   3.909   2.800   2.586
 6565TIP3    H119640   3.956   2.850   2.520
 6565TIP3    H219641   3.866   2.730   2.537
 6566TIP3   OH219642   7.795   2.060   6.598
 6566TIP3    H119643   7.886   2.084   6.579
 6566TIP3    H219644   7.766   2.014   6.519
 6567TIP3   OH219645   3.155   2.706   4.529
 6567TIP3    H119646   3.143   2.617   4.560
 6567TIP3    H219647   3.145   2.760   4.608
 6568TIP3   OH219648   1.376   5.691   6.449
 6568TIP3    H119649   1.462   5.650   6.460
 6568TIP3    H219650   1.323   5.658   6.521
 6569TIP3   OH219651   1.340   6.175   5.865
 6569TIP3    H119652   1.413   6.114   5.855
 6569TIP3    H219653   1.329   6.184   5.960
 6570TIP3   OH219654   3.280   0.681   1.495
 6570TIP3    H119655   3.324   0.766   1.501
 6570TIP3    H219656   3.227   0.676   1.574
 6571TIP3   OH219657   4.241   6.068   4.034
 6571TIP3    H119658   4.181   6.013   3.983
 6571TIP3    H219659   4.196   6.080   4.118
 6572TIP3   OH219660   3.710   1.106   2.409
 6572TIP3    H119661   3.742   1.191   2.378
 6572TIP3    H219662   3.666   1.126   2.492
 6573TIP3   OH219663   5.150   3.511   6.245
 6573TIP3    H119664   5.122   3.447   6.180
 6573TIP3    H219665   5.083   3.579   6.243
 6574TIP3   OH219666   0.816   3.739   4.103
 6574TIP3    H119667   0.793   3.774   4.189
 6574TIP3    H219668   0.845   3.650   4.121
 6575TIP3   OH219669   3.010   7.053   6.028
 6575TIP3    H119670   2.955   6.992   5.979
 6575TIP3    H219671   3.037   7.118   5.963
 6576TIP3   OH219672   3.006   4.494   1.907
 6576TIP3    H119673   2.924   4.535   1.934
 6576TIP3    H219674   3.057   4.566   1.869
 6577TIP3   OH219675   5.183   1.488   1.482
 6577TIP3    H119676   5.176   1.429   1.407
 6577TIP3    H219677   5.262   1.539   1.465
 6578TIP3   OH219678   3.260   1.376   0.926
 6578TIP3    H119679   3.275   1.443   0.992
 6578TIP3    H219680   3.197   1.415   0.865
 6579TIP3   OH219681   5.095   5.089   0.026
 6579TIP3    H119682   5.090   5.134   0.110
 6579TIP3    H219683   5.184   5.104  -0.004
 6580TIP3   OH219684   4.380   3.114   1.222
 6580TIP3    H119685   4.355   3.096   1.131
 6580TIP3    H219686   4.316   3.066   1.274
 6581TIP3   OH219687   6.625   7.648   3.480
 6581TIP3    H119688   6.663   7.668   3.395
 6581TIP3    H219689   6.685   7.688   3.544
 6582TIP3   OH219690   0.340   5.953   6.384
 6582TIP3    H119691   0.400   5.940   6.311
 6582TIP3    H219692   0.382   5.911   6.458
 6583TIP3   OH219693   3.969   7.784   0.876
 6583TIP3    H119694   3.877   7.775   0.900
 6583TIP3    H219695   3.986   7.711   0.816
 6584TIP3   OH219696   0.268   7.564   4.130
 6584TIP3    H119697   0.223   7.568   4.215
 6584TIP3    H219698   0.204   7.596   4.067
 6585TIP3   OH219699   3.776   2.178   4.581
 6585TIP3    H119700   3.738   2.241   4.520
 6585TIP3    H219701   3.799   2.230   4.658
 6586TIP3   OH219702   5.642   5.617   6.492
 6586TIP3    H119703   5.568   5.561   6.468
 6586TIP3    H219704   5.657   5.598   6.585
 6587TIP3   OH219705   4.746   4.375   0.827
 6587TIP3    H119706   4.713   4.288   0.848
 6587TIP3    H219707   4.668   4.431   0.824
 6588TIP3   OH219708   2.502   1.774   0.537
 6588TIP3    H119709   2.466   1.847   0.589
 6588TIP3    H219710   2.431   1.751   0.477
 6589TIP3   OH219711   0.973   7.243   4.093
 6589TIP3    H119712   0.982   7.175   4.160
 6589TIP3    H219713   0.967   7.195   4.010
 6590TIP3   OH219714   1.000   3.271   5.729
 6590TIP3    H119715   1.073   3.213   5.708
 6590TIP3    H219716   0.958   3.288   5.645
 6591TIP3   OH219717   7.974   2.620   0.060
 6591TIP3    H119718   7.933   2.661  -0.016
 6591TIP3    H219719   7.904   2.569   0.101
 6592TIP3   OH219720   6.156   2.236   1.636
 6592TIP3    H119721   6.120   2.255   1.550
 6592TIP3    H219722   6.246   2.209   1.619
 6593TIP3   OH219723   3.507   3.201   3.203
 6593TIP3    H119724   3.550   3.171   3.284
 6593TIP3    H219725   3.424   3.152   3.201
 6594TIP3   OH219726   0.401   1.271  -0.006
 6594TIP3    H119727   0.490   1.292   0.021
 6594TIP3    H219728   0.411   1.210  -0.079
 6595TIP3   OH219729   7.355   5.305   6.712
 6595TIP3    H119730   7.431   5.361   6.695
 6595TIP3    H219731   7.392   5.218   6.729
 6596TIP3   OH219732   1.285   3.840   0.629
 6596TIP3    H119733   1.289   3.897   0.705
 6596TIP3    H219734   1.324   3.757   0.659
 6597TIP3   OH219735   2.962   6.770   4.708
 6597TIP3    H119736   2.887   6.717   4.734
 6597TIP3    H219737   3.018   6.772   4.786
 6598TIP3   OH219738   0.505   1.251   3.947
 6598TIP3    H119739   0.527   1.180   3.886
 6598TIP3    H219740   0.527   1.331   3.900
 6599TIP3   OH219741   2.883   2.639   5.210
 6599TIP3    H119742   2.940   2.565   5.188
 6599TIP3    H219743   2.920   2.714   5.163
 6600TIP3   OH219744   2.581   6.552   0.548
 6600TIP3    H119745   2.667   6.513   0.537
 6600TIP3    H219746   2.522   6.492   0.502
 6601TIP3   OH219747   6.149   3.754   3.144
 6601TIP3    H119748   6.087   3.752   3.216
 6601TIP3    H219749   6.159   3.847   3.123
 6602TIP3   OH219750   3.237   2.016   3.888
 6602TIP3    H119751   3.319   2.064   3.878
 6602TIP3    H219752   3.171   2.070   3.844
 6603TIP3   OH219753   1.961   1.845   3.320
 6603TIP3    H119754   1.998   1.931   3.302
 6603TIP3    H219755   1.930   1.850   3.411
 6604TIP3   OH219756   7.170   2.004   6.048
 6604TIP3    H119757   7.216   1.925   6.076
 6604TIP3    H219758   7.172   2.000   5.952
 6605TIP3   OH219759   5.859   3.111   1.807
 6605TIP3    H119760   5.871   3.033   1.860
 6605TIP3    H219761   5.943   3.158   1.813
 6606TIP3   OH219762   1.420   3.258   1.664
 6606TIP3    H119763   1.481   3.225   1.598
 6606TIP3    H219764   1.405   3.349   1.640
 6607TIP3   OH219765   6.248   0.472   6.343
 6607TIP3    H119766   6.220   0.493   6.432
 6607TIP3    H219767   6.281   0.555   6.308
 6608TIP3   OH219768   2.802   0.346   2.094
 6608TIP3    H119769   2.734   0.329   2.029
 6608TIP3    H219770   2.864   0.405   2.050
 6609TIP3   OH219771   7.796   4.744   6.001
 6609TIP3    H119772   7.708   4.766   5.973
 6609TIP3    H219773   7.784   4.700   6.086
 6610TIP3   OH219774   7.831   7.064   0.458
 6610TIP3    H119775   7.820   6.989   0.399
 6610TIP3    H219776   7.807   7.031   0.544
 6611TIP3   OH219777   2.616   5.027   6.275
 6611TIP3    H119778   2.653   4.967   6.210
 6611TIP3    H219779   2.561   4.972   6.330
 6612TIP3   OH219780   7.938   6.001   1.177
 6612TIP3    H119781   8.003   5.956   1.124
 6612TIP3    H219782   7.986   6.027   1.256
 6613TIP3   OH219783   3.396   2.090   4.989
 6613TIP3    H119784   3.471   2.099   4.931
 6613TIP3    H219785   3.349   2.173   4.981
 6614TIP3   OH219786   0.397   1.568   3.403
 6614TIP3    H119787   0.366   1.481   3.428
 6614TIP3    H219788   0.357   1.585   3.318
 6615TIP3   OH219789   6.509   7.094   2.503
 6615TIP3    H119790   6.527   7.012   2.549
 6615TIP3    H219791   6.595   7.122   2.470
 6616TIP3   OH219792   0.980   5.662   0.801
 6616TIP3    H119793   0.941   5.694   0.720
 6616TIP3    H219794   0.926   5.587   0.826
 6617TIP3   OH219795   3.882   4.844   4.238
 6617TIP3    H119796   3.872   4.892   4.156
 6617TIP3    H219797   3.974   4.817   4.239
 6618TIP3   OH219798   2.470   7.806   5.096
 6618TIP3    H119799   2.448   7.722   5.056
 6618TIP3    H219800   2.527   7.783   5.169
 6619TIP3   OH219801   7.168   1.107   0.482
 6619TIP3    H119802   7.209   1.129   0.398
 6619TIP3    H219803   7.147   1.192   0.521
 6620TIP3   OH219804   5.578   4.230   1.704
 6620TIP3    H119805   5.559   4.151   1.755
 6620TIP3    H219806   5.508   4.291   1.727
 6621TIP3   OH219807   7.186   6.016   0.560
 6621TIP3    H119808   7.249   6.024   0.488
 6621TIP3    H219809   7.173   5.922   0.570
 6622TIP3   OH219810   0.392   7.014   6.138
 6622TIP3    H119811   0.462   6.961   6.099
 6622TIP3    H219812   0.397   6.995   6.231
 6623TIP3   OH219813   5.428   4.835   6.009
 6623TIP3    H119814   5.446   4.764   6.071
 6623TIP3    H219815   5.394   4.906   6.064
 6624TIP3   OH219816   3.868   3.882   2.944
 6624TIP3    H119817   3.852   3.789   2.963
 6624TIP3    H219818   3.962   3.893   2.958
 6625TIP3   OH219819   1.358   6.461   6.067
 6625TIP3    H119820   1.293   6.502   6.010
 6625TIP3    H219821   1.439   6.462   6.017
 6626TIP3   OH219822   5.036   3.969   3.170
 6626TIP3    H119823   5.098   3.907   3.132
 6626TIP3    H219824   5.090   4.028   3.223
 6627TIP3   OH219825   3.704   1.200   0.280
 6627TIP3    H119826   3.659   1.208   0.365
 6627TIP3    H219827   3.781   1.257   0.289
 6628TIP3   OH219828   5.936   2.884   1.967
 6628TIP3    H119829   5.882   2.823   2.017
 6628TIP3    H219830   6.016   2.893   2.020
 6629TIP3   OH219831   3.355   1.115   2.301
 6629TIP3    H119832   3.388   1.039   2.349
 6629TIP3    H219833   3.287   1.079   2.244
 6630TIP3   OH219834   7.676   0.275   0.895
 6630TIP3    H119835   7.605   0.338   0.884
 6630TIP3    H219836   7.718   0.301   0.977
 6631TIP3   OH219837   4.794   6.310   0.338
 6631TIP3    H119838   4.811   6.380   0.401
 6631TIP3    H219839   4.722   6.343   0.284
 6632TIP3   OH219840   7.282   7.433   1.792
 6632TIP3    H119841   7.362   7.430   1.740
 6632TIP3    H219842   7.302   7.495   1.862
 6633TIP3   OH219843   2.575   7.691   5.487
 6633TIP3    H119844   2.599   7.755   5.554
 6633TIP3    H219845   2.553   7.612   5.537
 6634TIP3   OH219846   5.426   2.484   5.839
 6634TIP3    H119847   5.469   2.438   5.911
 6634TIP3    H219848   5.360   2.422   5.806
 6635TIP3   OH219849   1.019   1.489   1.526
 6635TIP3    H119850   1.099   1.499   1.475
 6635TIP3    H219851   1.007   1.574   1.569
 6636TIP3   OH219852   7.335   5.902   0.031
 6636TIP3    H119853   7.427   5.907   0.056
 6636TIP3    H219854   7.327   5.962  -0.043
 6637TIP3   OH219855   1.600   3.146   2.587
 6637TIP3    H119856   1.659   3.221   2.599
 6637TIP3    H219857   1.648   3.087   2.529
 6638TIP3   OH219858   4.826   1.794   0.253
 6638TIP3    H119859   4.749   1.809   0.197
 6638TIP3    H219860   4.873   1.723   0.211
 6639TIP3   OH219861   0.692   2.129   6.627
 6639TIP3    H119862   0.704   2.138   6.721
 6639TIP3    H219863   0.627   2.059   6.618
 6640TIP3   OH219864   3.938   0.593   2.404
 6640TIP3    H119865   3.861   0.544   2.432
 6640TIP3    H219866   3.912   0.685   2.414
 6641TIP3   OH219867   2.348   5.490   6.336
 6641TIP3    H119868   2.329   5.412   6.284
 6641TIP3    H219869   2.376   5.455   6.421
 6642TIP3   OH219870   5.342   0.079   2.591
 6642TIP3    H119871   5.282   0.008   2.612
 6642TIP3    H219872   5.297   0.130   2.524
 6643TIP3   OH219873   3.103   3.338   6.582
 6643TIP3    H119874   3.142   3.399   6.645
 6643TIP3    H219875   3.177   3.284   6.554
 6644TIP3   OH219876   5.154   1.826   3.280
 6644TIP3    H119877   5.163   1.795   3.371
 6644TIP3    H219878   5.214   1.771   3.230
 6645TIP3   OH219879   8.172   7.814   3.083
 6645TIP3    H119880   8.108   7.867   3.035
 6645TIP3    H219881   8.187   7.738   3.028
 6646TIP3   OH219882   4.906   7.451   5.356
 6646TIP3    H119883   4.905   7.538   5.397
 6646TIP3    H219884   4.825   7.449   5.304
 6647TIP3   OH219885   4.557   1.978   3.138
 6647TIP3    H119886   4.560   2.063   3.182
 6647TIP3    H219887   4.571   1.999   3.045
 6648TIP3   OH219888   3.282   5.428   0.125
 6648TIP3    H119889   3.280   5.477   0.207
 6648TIP3    H219890   3.216   5.471   0.070
 6649TIP3   OH219891   5.048   5.894   1.423
 6649TIP3    H119892   5.002   5.879   1.340
 6649TIP3    H219893   5.068   5.987   1.422
 6650TIP3   OH219894   0.391   5.824   5.341
 6650TIP3    H119895   0.414   5.744   5.388
 6650TIP3    H219896   0.449   5.891   5.377
 6651TIP3   OH219897   2.945   7.461   4.475
 6651TIP3    H119898   2.937   7.370   4.504
 6651TIP3    H219899   2.936   7.457   4.380
 6652TIP3   OH219900   5.948   2.423   0.801
 6652TIP3    H119901   5.919   2.507   0.838
 6652TIP3    H219902   5.992   2.379   0.873
 6653TIP3   OH219903   7.943   2.323   1.967
 6653TIP3    H119904   7.881   2.393   1.947
 6653TIP3    H219905   8.012   2.333   1.901
 6654TIP3   OH219906   2.182   4.612   1.462
 6654TIP3    H119907   2.167   4.704   1.441
 6654TIP3    H219908   2.095   4.571   1.452
 6655TIP3   OH219909   3.871   5.740   0.905
 6655TIP3    H119910   3.792   5.757   0.958
 6655TIP3    H219911   3.870   5.645   0.891
 6656TIP3   OH219912   3.165   4.935   6.350
 6656TIP3    H119913   3.070   4.932   6.338
 6656TIP3    H219914   3.196   4.851   6.315
 6657TIP3   OH219915   2.876   2.363   1.692
 6657TIP3    H119916   2.949   2.418   1.719
 6657TIP3    H219917   2.894   2.342   1.600
 6658TIP3   OH219918   0.307   6.953   0.238
 6658TIP3    H119919   0.349   6.867   0.245
 6658TIP3    H219920   0.379   7.014   0.226
 6659TIP3   OH219921   1.363   0.277   6.497
 6659TIP3    H119922   1.406   0.253   6.415
 6659TIP3    H219923   1.382   0.370   6.507
 6660TIP3   OH219924   2.492   7.737   0.267
 6660TIP3    H119925   2.569   7.774   0.310
 6660TIP3    H219926   2.450   7.812   0.224
 6661TIP3   OH219927   5.384   7.642   6.098
 6661TIP3    H119928   5.315   7.707   6.108
 6661TIP3    H219929   5.463   7.687   6.129
 6662TIP3   OH219930   3.427   5.595   0.423
 6662TIP3    H119931   3.360   5.659   0.400
 6662TIP3    H219932   3.384   5.536   0.485
 6663TIP3   OH219933   4.618   5.354   5.700
 6663TIP3    H119934   4.698   5.355   5.753
 6663TIP3    H219935   4.617   5.267   5.659
 6664TIP3   OH219936   6.500   7.708   5.805
 6664TIP3    H119937   6.575   7.709   5.747
 6664TIP3    H219938   6.433   7.759   5.760
 6665TIP3   OH219939   0.189   4.789   4.967
 6665TIP3    H119940   0.109   4.830   5.000
 6665TIP3    H219941   0.196   4.819   4.876
 6666TIP3   OH219942   0.645   0.367   6.628
 6666TIP3    H119943   0.723   0.331   6.671
 6666TIP3    H219944   0.588   0.291   6.617
 6667TIP3   OH219945   8.108   5.766   1.778
 6667TIP3    H119946   8.168   5.834   1.749
 6667TIP3    H219947   8.111   5.700   1.709
 6668TIP3   OH219948   0.145   0.188   1.674
 6668TIP3    H119949   0.081   0.212   1.608
 6668TIP3    H219950   0.208   0.261   1.673
 6669TIP3   OH219951   1.850   1.112   4.975
 6669TIP3    H119952   1.884   1.117   4.886
 6669TIP3    H219953   1.897   1.038   5.014
 6670TIP3   OH219954   3.706   0.682   5.191
 6670TIP3    H119955   3.773   0.649   5.131
 6670TIP3    H219956   3.752   0.698   5.273
 6671TIP3   OH219957   0.451   6.194   6.634
 6671TIP3    H119958   0.394   6.119   6.649
 6671TIP3    H219959   0.393   6.264   6.604
 6672TIP3   OH219960   1.034   4.517   0.836
 6672TIP3    H119961   0.947   4.517   0.795
 6672TIP3    H219962   1.031   4.443   0.897
 6673TIP3   OH219963   4.155   4.481   5.788
 6673TIP3    H119964   4.145   4.508   5.697
 6673TIP3    H219965   4.166   4.562   5.837
 6674TIP3   OH219966   2.924   6.372   1.598
 6674TIP3    H119967   2.961   6.359   1.686
 6674TIP3    H219968   2.996   6.351   1.538
 6675TIP3   OH219969   3.059   5.656   3.017
 6675TIP3    H119970   3.001   5.606   2.961
 6675TIP3    H219971   3.132   5.681   2.960
 6676TIP3   OH219972   1.123   7.329   1.703
 6676TIP3    H119973   1.098   7.305   1.792
 6676TIP3    H219974   1.042   7.362   1.663
 6677TIP3   OH219975   3.491   2.059   0.110
 6677TIP3    H119976   3.435   2.093   0.180
 6677TIP3    H219977   3.564   2.016   0.156
 6678TIP3   OH219978   5.490   5.716   5.062
 6678TIP3    H119979   5.410   5.687   5.105
 6678TIP3    H219980   5.479   5.811   5.052
 6679TIP3   OH219981   5.180   4.056   3.901
 6679TIP3    H119982   5.223   3.988   3.953
 6679TIP3    H219983   5.132   4.108   3.966
 6680TIP3   OH219984   5.880   2.678   6.772
 6680TIP3    H119985   5.846   2.682   6.683
 6680TIP3    H219986   5.948   2.611   6.768
 6681TIP3   OH219987   5.885   3.172   3.889
 6681TIP3    H119988   5.851   3.084   3.874
 6681TIP3    H219989   5.980   3.162   3.887
 6682TIP3   OH219990   8.307   3.182   4.337
 6682TIP3    H119991   8.236   3.180   4.401
 6682TIP3    H219992   8.297   3.266   4.292
 6683TIP3   OH219993   0.092   3.534   3.184
 6683TIP3    H119994   0.115   3.513   3.274
 6683TIP3    H219995   0.161   3.593   3.154
 6684TIP3   OH219996   1.066   2.278   0.731
 6684TIP3    H119997   1.066   2.243   0.642
 6684TIP3    H219998   1.129   2.223   0.778
 6685TIP3   OH219999   2.994   3.254   0.425
 6685TIP3    H120000   3.018   3.292   0.510
 6685TIP3    H220001   2.899   3.247   0.429
 6686TIP3   OH220002   0.511   6.475   2.905
 6686TIP3    H120003   0.548   6.501   2.990
 6686TIP3    H220004   0.418   6.496   2.912
 6687TIP3   OH220005   7.315   4.395   2.759
 6687TIP3    H120006   7.376   4.445   2.705
 6687TIP3    H220007   7.246   4.367   2.699
 6688TIP3   OH220008   2.607   2.047   0.324
 6688TIP3    H120009   2.696   2.014   0.331
 6688TIP3    H220010   2.584   2.075   0.412
 6689TIP3   OH220011   2.063   4.746   0.611
 6689TIP3    H120012   2.058   4.812   0.680
 6689TIP3    H220013   2.122   4.679   0.646
 6690TIP3   OH220014   6.466   6.836   1.515
 6690TIP3    H120015   6.386   6.871   1.554
 6690TIP3    H220016   6.435   6.775   1.448
 6691TIP3   OH220017   0.353   4.458   2.267
 6691TIP3    H120018   0.398   4.437   2.185
 6691TIP3    H220019   0.342   4.373   2.310
 6692TIP3   OH220020   1.922   6.327   3.364
 6692TIP3    H120021   1.868   6.250   3.346
 6692TIP3    H220022   1.859   6.399   3.370
 6693TIP3   OH220023   6.317   5.035   5.323
 6693TIP3    H120024   6.268   5.109   5.288
 6693TIP3    H220025   6.281   5.022   5.411
 6694TIP3   OH220026   4.272   6.940   6.672
 6694TIP3    H120027   4.176   6.936   6.672
 6694TIP3    H220028   4.294   7.012   6.731
 6695TIP3   OH220029   2.689   2.208   2.006
 6695TIP3    H120030   2.650   2.197   2.093
 6695TIP3    H220031   2.701   2.119   1.974
 6696TIP3   OH220032   4.064   7.401   6.127
 6696TIP3    H120033   4.009   7.323   6.121
 6696TIP3    H220034   4.147   7.369   6.162
 6697TIP3   OH220035   2.126   0.534   3.052
 6697TIP3    H120036   2.119   0.514   3.145
 6697TIP3    H220037   2.214   0.571   3.042
 6698TIP3   OH220038   7.411   2.058   1.082
 6698TIP3    H120039   7.402   2.118   1.155
 6698TIP3    H220040   7.321   2.037   1.056
 6699TIP3   OH220041   1.466   5.416   5.834
 6699TIP3    H120042   1.476   5.508   5.808
 6699TIP3    H220043   1.377   5.411   5.871
 6700TIP3   OH220044   3.344   7.599   4.990
 6700TIP3    H120045   3.402   7.595   5.066
 6700TIP3    H220046   3.337   7.692   4.970
 6701TIP3   OH220047   1.591   1.463   5.421
 6701TIP3    H120048   1.540   1.468   5.502
 6701TIP3    H220049   1.623   1.552   5.408
 6702TIP3   OH220050   7.511   4.570   4.701
 6702TIP3    H120051   7.481   4.660   4.685
 6702TIP3    H220052   7.459   4.540   4.775
 6703TIP3   OH220053   7.941   0.210   0.971
 6703TIP3    H120054   7.891   0.142   1.016
 6703TIP3    H220055   8.021   0.220   1.022
 6704TIP3   OH220056   2.658   1.848   2.935
 6704TIP3    H120057   2.713   1.830   2.859
 6704TIP3    H220058   2.608   1.768   2.947
 6705TIP3   OH220059   6.081   6.154   4.415
 6705TIP3    H120060   6.172   6.154   4.444
 6705TIP3    H220061   6.030   6.132   4.493
 6706TIP3   OH220062   1.309   2.219   1.576
 6706TIP3    H120063   1.239   2.192   1.516
 6706TIP3    H220064   1.267   2.278   1.638
 6707TIP3   OH220065   5.083   5.169   5.960
 6707TIP3    H120066   5.120   5.244   5.913
 6707TIP3    H220067   5.076   5.100   5.895
 6708TIP3   OH220068   2.095   0.103   5.427
 6708TIP3    H120069   2.109   0.008   5.433
 6708TIP3    H220070   2.051   0.126   5.509
 6709TIP3   OH220071   1.887   1.115   4.516
 6709TIP3    H120072   1.797   1.130   4.545
 6709TIP3    H220073   1.880   1.110   4.420
 6710TIP3   OH220074   3.313   7.726   2.211
 6710TIP3    H120075   3.361   7.807   2.230
 6710TIP3    H220076   3.317   7.717   2.116
 6711TIP3   OH220077   4.790   0.899   2.881
 6711TIP3    H120078   4.700   0.878   2.856
 6711TIP3    H220079   4.844   0.851   2.818
 6712TIP3   OH220080   3.597   1.905   3.939
 6712TIP3    H120081   3.529   1.924   4.003
 6712TIP3    H220082   3.678   1.900   3.991
 6713TIP3   OH220083   5.189   2.353   0.994
 6713TIP3    H120084   5.245   2.330   0.920
 6713TIP3    H220085   5.159   2.442   0.974
 6714TIP3   OH220086   3.320   6.383   5.836
 6714TIP3    H120087   3.386   6.411   5.899
 6714TIP3    H220088   3.356   6.304   5.796
 6715TIP3   OH220089   7.750   5.662   0.599
 6715TIP3    H120090   7.707   5.746   0.611
 6715TIP3    H220091   7.697   5.600   0.649
 6716TIP3   OH220092   6.439   3.401   3.404
 6716TIP3    H120093   6.533   3.418   3.399
 6716TIP3    H220094   6.416   3.420   3.495
 6717TIP3   OH220095   7.354   1.154   4.329
 6717TIP3    H120096   7.393   1.100   4.260
 6717TIP3    H220097   7.425   1.211   4.358
 6718TIP3   OH220098   0.667   2.230   5.808
 6718TIP3    H120099   0.712   2.229   5.893
 6718TIP3    H220100   0.715   2.166   5.755
 6719TIP3   OH220101   7.572   1.285   1.999
 6719TIP3    H120102   7.639   1.346   1.967
 6719TIP3    H220103   7.622   1.218   2.047
 6720TIP3   OH220104   2.452   6.064   0.075
 6720TIP3    H120105   2.359   6.041   0.066
 6720TIP3    H220106   2.452   6.141   0.131
 6721TIP3   OH220107   2.543   0.251   4.778
 6721TIP3    H120108   2.615   0.195   4.749
 6721TIP3    H220109   2.579   0.340   4.776
 6722TIP3   OH220110   3.946   3.485   4.997
 6722TIP3    H120111   3.964   3.465   4.905
 6722TIP3    H220112   3.945   3.400   5.041
 6723TIP3   OH220113   3.766   4.955   2.899
 6723TIP3    H120114   3.805   4.957   2.986
 6723TIP3    H220115   3.835   4.986   2.841
 6724TIP3   OH220116   1.155   7.602   6.620
 6724TIP3    H120117   1.231   7.661   6.621
 6724TIP3    H220118   1.120   7.610   6.532
 6725TIP3   OH220119   2.378   5.622   1.818
 6725TIP3    H120120   2.317   5.694   1.835
 6725TIP3    H220121   2.461   5.665   1.795
 6726TIP3   OH220122   7.768   7.051   5.978
 6726TIP3    H120123   7.863   7.065   5.976
 6726TIP3    H220124   7.753   6.982   5.913
 6727TIP3   OH220125   3.342   1.509   5.051
 6727TIP3    H120126   3.396   1.500   5.130
 6727TIP3    H220127   3.282   1.435   5.054
 6728TIP3   OH220128   7.349   0.877   5.803
 6728TIP3    H120129   7.341   0.901   5.895
 6728TIP3    H220130   7.272   0.916   5.762
 6729TIP3   OH220131   6.945   4.674   2.423
 6729TIP3    H120132   6.936   4.694   2.516
 6729TIP3    H220133   6.884   4.733   2.379
 6730TIP3   OH220134   4.829   5.930   5.624
 6730TIP3    H120135   4.837   5.983   5.704
 6730TIP3    H220136   4.818   5.840   5.656
 6731TIP3   OH220137   0.089   5.628   0.252
 6731TIP3    H120138   0.145   5.673   0.189
 6731TIP3    H220139   0.128   5.646   0.337
 6732TIP3   OH220140   5.711   2.920   6.733
 6732TIP3    H120141   5.751   2.848   6.781
 6732TIP3    H220142   5.622   2.927   6.769
 6733TIP3   OH220143   3.799   7.723   2.220
 6733TIP3    H120144   3.794   7.660   2.148
 6733TIP3    H220145   3.819   7.670   2.297
 6734TIP3   OH220146   4.718   2.357   1.947
 6734TIP3    H120147   4.809   2.355   1.974
 6734TIP3    H220148   4.701   2.270   1.912
 6735TIP3   OH220149   5.781   3.629   3.090
 6735TIP3    H120150   5.816   3.690   3.025
 6735TIP3    H220151   5.835   3.551   3.082
 6736TIP3   OH220152   1.975   3.635   5.814
 6736TIP3    H120153   2.015   3.658   5.898
 6736TIP3    H220154   2.031   3.676   5.749
 6737TIP3   OH220155   1.335   3.988   4.327
 6737TIP3    H120156   1.265   3.923   4.314
 6737TIP3    H220157   1.407   3.956   4.273
 6738TIP3   OH220158   5.615   5.733   4.670
 6738TIP3    H120159   5.632   5.751   4.762
 6738TIP3    H220160   5.520   5.732   4.662
 6739TIP3   OH220161   2.406   2.433   1.710
 6739TIP3    H120162   2.384   2.502   1.647
 6739TIP3    H220163   2.355   2.455   1.788
 6740TIP3   OH220164   3.926   3.827   4.911
 6740TIP3    H120165   4.006   3.776   4.894
 6740TIP3    H220166   3.952   3.918   4.892
 6741TIP3   OH220167   0.442   3.419   3.009
 6741TIP3    H120168   0.427   3.501   2.962
 6741TIP3    H220169   0.463   3.447   3.098
 6742TIP3   OH220170   3.537   1.004   3.337
 6742TIP3    H120171   3.598   1.078   3.340
 6742TIP3    H220172   3.582   0.933   3.383
 6743TIP3   OH220173   0.932   0.522   5.655
 6743TIP3    H120174   0.893   0.447   5.700
 6743TIP3    H220175   0.992   0.483   5.591
 6744TIP3   OH220176   1.840   1.916   0.685
 6744TIP3    H120177   1.862   1.993   0.633
 6744TIP3    H220178   1.915   1.858   0.677
 6745TIP3   OH220179   2.449   5.480   0.493
 6745TIP3    H120180   2.424   5.401   0.541
 6745TIP3    H220181   2.504   5.529   0.555
 6746TIP3   OH220182   2.389   0.874   1.319
 6746TIP3    H120183   2.314   0.929   1.343
 6746TIP3    H220184   2.465   0.929   1.334
 6747TIP3   OH220185   4.263   6.014   5.420
 6747TIP3    H120186   4.337   5.960   5.448
 6747TIP3    H220187   4.224   6.046   5.502
 6748TIP3   OH220188   7.444   1.377   5.541
 6748TIP3    H120189   7.516   1.314   5.543
 6748TIP3    H220190   7.367   1.325   5.520
 6749TIP3   OH220191   5.432   3.222   4.432
 6749TIP3    H120192   5.353   3.218   4.486
 6749TIP3    H220193   5.425   3.306   4.386
 6750TIP3   OH220194   7.246   2.020   4.783
 6750TIP3    H120195   7.293   1.994   4.704
 6750TIP3    H220196   7.237   2.115   4.775
 6751TIP3   OH220197   4.701   7.584   1.181
 6751TIP3    H120198   4.612   7.555   1.161
 6751TIP3    H220199   4.757   7.532   1.122
 6752TIP3   OH220200   3.708   0.791   0.864
 6752TIP3    H120201   3.673   0.702   0.857
 6752TIP3    H220202   3.785   0.782   0.920
 6753TIP3   OH220203   5.392   6.242   5.878
 6753TIP3    H120204   5.334   6.304   5.923
 6753TIP3    H220205   5.431   6.293   5.807
 6754TIP3   OH220206   3.093   4.774   5.634
 6754TIP3    H120207   3.172   4.827   5.623
 6754TIP3    H220208   3.023   4.837   5.648
 6755TIP3   OH220209   2.402   4.247   5.045
 6755TIP3    H120210   2.430   4.254   5.136
 6755TIP3    H220211   2.443   4.322   5.002
 6756TIP3   OH220212   7.028   3.419   2.913
 6756TIP3    H120213   7.032   3.409   2.818
 6756TIP3    H220214   7.114   3.454   2.936
 6757TIP3   OH220215   7.190   6.718   0.846
 6757TIP3    H120216   7.095   6.719   0.861
 6757TIP3    H220217   7.200   6.668   0.765
 6758TIP3   OH220218   3.154   0.360   3.421
 6758TIP3    H120219   3.242   0.392   3.398
 6758TIP3    H220220   3.102   0.372   3.342
 6759TIP3   OH220221   2.891   4.825   6.539
 6759TIP3    H120222   2.856   4.817   6.450
 6759TIP3    H220223   2.884   4.737   6.576
 6760TIP3   OH220224   3.351   3.639   2.706
 6760TIP3    H120225   3.319   3.549   2.710
 6760TIP3    H220226   3.372   3.661   2.797
 6761TIP3   OH220227   2.713   4.203   3.657
 6761TIP3    H120228   2.796   4.190   3.612
 6761TIP3    H220229   2.716   4.293   3.689
 6762TIP3   OH220230   4.923   6.897   6.671
 6762TIP3    H120231   4.921   6.936   6.758
 6762TIP3    H220232   4.924   6.972   6.611
 6763TIP3   OH220233   3.843   1.277   5.861
 6763TIP3    H120234   3.829   1.371   5.848
 6763TIP3    H220235   3.890   1.249   5.782
 6764TIP3   OH220236   2.933   0.713   3.666
 6764TIP3    H120237   2.907   0.621   3.655
 6764TIP3    H220238   2.999   0.727   3.598
 6765TIP3   OH220239   0.424   3.008   2.709
 6765TIP3    H120240   0.352   3.063   2.740
 6765TIP3    H220241   0.420   3.015   2.613
 6766TIP3   OH220242   0.770   0.972   1.075
 6766TIP3    H120243   0.792   0.984   0.983
 6766TIP3    H220244   0.838   0.914   1.109
 6767TIP3   OH220245   6.708   5.431   0.999
 6767TIP3    H120246   6.760   5.495   0.951
 6767TIP3    H220247   6.759   5.351   0.996
 6768TIP3   OH220248   4.386   7.001   6.425
 6768TIP3    H120249   4.470   6.972   6.459
 6768TIP3    H220250   4.321   6.957   6.480
 6769TIP3   OH220251   3.941   3.146   6.526
 6769TIP3    H120252   3.993   3.147   6.445
 6769TIP3    H220253   3.895   3.230   6.526
 6770TIP3   OH220254   0.185   3.860   2.195
 6770TIP3    H120255   0.175   3.915   2.117
 6770TIP3    H220256   0.113   3.797   2.188
 6771TIP3   OH220257   6.085   4.422   0.885
 6771TIP3    H120258   6.141   4.400   0.811
 6771TIP3    H220259   6.046   4.506   0.861
 6772TIP3   OH220260   4.033   1.615   1.036
 6772TIP3    H120261   3.961   1.675   1.017
 6772TIP3    H220262   4.105   1.672   1.064
 6773TIP3   OH220263   3.793   3.867   3.359
 6773TIP3    H120264   3.720   3.808   3.340
 6773TIP3    H220265   3.849   3.817   3.418
 6774TIP3   OH220266   2.434   3.044   2.494
 6774TIP3    H120267   2.438   3.057   2.589
 6774TIP3    H220268   2.472   2.958   2.480
 6775TIP3   OH220269   3.675   4.288   4.242
 6775TIP3    H120270   3.594   4.236   4.247
 6775TIP3    H220271   3.665   4.354   4.310
 6776TIP3   OH220272   2.190   3.189   0.732
 6776TIP3    H120273   2.122   3.138   0.776
 6776TIP3    H220274   2.262   3.127   0.718
 6777TIP3   OH220275   7.623   5.028   5.202
 6777TIP3    H120276   7.713   4.997   5.193
 6777TIP3    H220277   7.627   5.094   5.271
 6778TIP3   OH220278   6.993   6.416   3.198
 6778TIP3    H120279   6.981   6.322   3.208
 6778TIP3    H220280   7.059   6.439   3.263
 6779TIP3   OH220281   1.586   1.055   1.090
 6779TIP3    H120282   1.640   0.989   1.046
 6779TIP3    H220283   1.496   1.024   1.078
 6780TIP3   OH220284   1.192   1.041   2.893
 6780TIP3    H120285   1.207   1.102   2.821
 6780TIP3    H220286   1.107   1.068   2.929
 6781TIP3   OH220287   4.529   6.467   2.717
 6781TIP3    H120288   4.513   6.457   2.623
 6781TIP3    H220289   4.449   6.507   2.751
 6782TIP3   OH220290   8.034   0.341   2.615
 6782TIP3    H120291   8.044   0.316   2.523
 6782TIP3    H220292   7.946   0.311   2.638
 6783TIP3   OH220293   3.868   3.100   2.570
 6783TIP3    H120294   3.924   3.159   2.621
 6783TIP3    H220295   3.927   3.059   2.507
 6784TIP3   OH220296   7.210   5.747   3.591
 6784TIP3    H120297   7.260   5.820   3.555
 6784TIP3    H220298   7.269   5.706   3.655
 6785TIP3   OH220299   6.388   3.078   2.955
 6785TIP3    H120300   6.422   3.163   2.981
 6785TIP3    H220301   6.424   3.063   2.867
 6786TIP3   OH220302   2.644   3.740   3.527
 6786TIP3    H120303   2.560   3.695   3.531
 6786TIP3    H220304   2.623   3.830   3.502
 6787TIP3   OH220305   8.122   3.823   4.110
 6787TIP3    H120306   8.082   3.901   4.073
 6787TIP3    H220307   8.202   3.854   4.152
 6788TIP3   OH220308   6.733   5.997   3.245
 6788TIP3    H120309   6.828   6.007   3.245
 6788TIP3    H220310   6.719   5.904   3.226
 6789TIP3   OH220311   3.919   4.929   0.700
 6789TIP3    H120312   3.983   4.974   0.645
 6789TIP3    H220313   3.936   4.836   0.686
 6790TIP3   OH220314   0.032   4.146   5.984
 6790TIP3    H120315   0.083   4.150   5.904
 6790TIP3    H220316  -0.057   4.172   5.958
 6791TIP3   OH220317   6.224   4.391   6.028
 6791TIP3    H120318   6.129   4.402   6.033
 6791TIP3    H220319   6.260   4.475   6.057
 6792TIP3   OH220320   1.343   1.107   5.408
 6792TIP3    H120321   1.437   1.115   5.391
 6792TIP3    H220322   1.304   1.178   5.357
 6793TIP3   OH220323   2.273   2.819   1.767
 6793TIP3    H120324   2.260   2.735   1.812
 6793TIP3    H220325   2.368   2.828   1.760
 6794TIP3   OH220326   5.115   0.370   0.437
 6794TIP3    H120327   5.045   0.324   0.483
 6794TIP3    H220328   5.078   0.392   0.351
 6795TIP3   OH220329   0.434   3.011   1.740
 6795TIP3    H120330   0.355   2.984   1.693
 6795TIP3    H220331   0.502   3.014   1.672
 6796TIP3   OH220332   5.335   0.434   6.677
 6796TIP3    H120333   5.306   0.412   6.588
 6796TIP3    H220334   5.279   0.383   6.735
 6797TIP3   OH220335   1.804   2.299   6.111
 6797TIP3    H120336   1.835   2.374   6.161
 6797TIP3    H220337   1.726   2.330   6.066
 6798TIP3   OH220338   2.076   1.255   1.528
 6798TIP3    H120339   2.129   1.334   1.523
 6798TIP3    H220340   2.122   1.200   1.591
 6799TIP3   OH220341   5.177   5.746   6.157
 6799TIP3    H120342   5.270   5.735   6.138
 6799TIP3    H220343   5.160   5.839   6.139
 6800TIP3   OH220344   1.267   0.788   5.924
 6800TIP3    H120345   1.218   0.715   5.963
 6800TIP3    H220346   1.240   0.865   5.973
 6801TIP3   OH220347   3.548   7.277   2.435
 6801TIP3    H120348   3.516   7.363   2.408
 6801TIP3    H220349   3.477   7.241   2.487
 6802TIP3   OH220350   2.900   5.091   5.130
 6802TIP3    H120351   2.968   5.030   5.159
 6802TIP3    H220352   2.874   5.138   5.210
 6803TIP3   OH220353   1.223   5.952   0.379
 6803TIP3    H120354   1.295   5.901   0.343
 6803TIP3    H220355   1.190   6.002   0.305
 6804TIP3   OH220356  -0.043   6.930   4.935
 6804TIP3    H120357  -0.036   7.006   4.993
 6804TIP3    H220358   0.037   6.932   4.882
 6805TIP3   OH220359   1.044   0.437   5.420
 6805TIP3    H120360   1.095   0.362   5.390
 6805TIP3    H220361   1.026   0.488   5.341
 6806TIP3   OH220362   3.252   0.369   6.710
 6806TIP3    H120363   3.229   0.324   6.791
 6806TIP3    H220364   3.208   0.454   6.717
 6807TIP3   OH220365   1.672   4.660   5.776
 6807TIP3    H120366   1.634   4.695   5.695
 6807TIP3    H220367   1.760   4.697   5.779
 6808TIP3   OH220368   2.815   6.000   5.045
 6808TIP3    H120369   2.764   6.046   4.978
 6808TIP3    H220370   2.863   6.070   5.090
 6809TIP3   OH220371   2.667   5.230   6.788
 6809TIP3    H120372   2.632   5.319   6.787
 6809TIP3    H220373   2.650   5.197   6.699
 6810TIP3   OH220374   1.619   1.817   4.037
 6810TIP3    H120375   1.545   1.773   4.080
 6810TIP3    H220376   1.696   1.787   4.085
 6811TIP3   OH220377   1.427   7.051   0.291
 6811TIP3    H120378   1.463   7.019   0.208
 6811TIP3    H220379   1.494   7.028   0.356
 6812TIP3   OH220380   7.623   2.351   3.401
 6812TIP3    H120381   7.577   2.432   3.425
 6812TIP3    H220382   7.634   2.357   3.306
 6813TIP3   OH220383   7.146   5.379   6.550
 6813TIP3    H120384   7.092   5.302   6.566
 6813TIP3    H220385   7.220   5.370   6.611
 6814TIP3   OH220386   0.596   1.090   0.555
 6814TIP3    H120387   0.544   1.133   0.623
 6814TIP3    H220388   0.551   1.007   0.540
 6815TIP3   OH220389   0.262   2.036   1.099
 6815TIP3    H120390   0.238   1.991   1.181
 6815TIP3    H220391   0.299   2.120   1.128
 6816TIP3   OH220392   1.364   4.445   2.430
 6816TIP3    H120393   1.310   4.410   2.358
 6816TIP3    H220394   1.446   4.471   2.388
 6817TIP3   OH220395   7.608   4.295   3.596
 6817TIP3    H120396   7.659   4.356   3.649
 6817TIP3    H220397   7.638   4.310   3.506
 6818TIP3   OH220398   7.099   5.666   1.418
 6818TIP3    H120399   7.112   5.576   1.446
 6818TIP3    H220400   7.062   5.658   1.329
 6819TIP3   OH220401   5.903   4.538   1.305
 6819TIP3    H120402   5.991   4.519   1.336
 6819TIP3    H220403   5.913   4.617   1.252
 6820TIP3   OH220404   0.033   6.457   0.633
 6820TIP3    H120405   0.010   6.400   0.560
 6820TIP3    H220406   0.068   6.536   0.592
 6821TIP3   OH220407   5.603   2.889   0.012
 6821TIP3    H120408   5.596   2.843  -0.071
 6821TIP3    H220409   5.571   2.827   0.078
 6822TIP3   OH220410   3.979   5.301   1.460
 6822TIP3    H120411   3.985   5.232   1.393
 6822TIP3    H220412   3.891   5.338   1.448
 6823TIP3   OH220413   4.045   5.871   3.951
 6823TIP3    H120414   4.064   5.814   3.876
 6823TIP3    H220415   3.964   5.917   3.927
 6824TIP3   OH220416   3.990   6.743   5.334
 6824TIP3    H120417   3.948   6.790   5.407
 6824TIP3    H220418   4.050   6.682   5.375
 6825TIP3   OH220419   6.174   0.184   5.906
 6825TIP3    H120420   6.103   0.179   5.970
 6825TIP3    H220421   6.250   0.146   5.950
 6826TIP3   OH220422   0.130   1.711   0.414
 6826TIP3    H120423   0.085   1.630   0.440
 6826TIP3    H220424   0.071   1.781   0.442
 6827TIP3   OH220425   7.189   4.819   1.758
 6827TIP3    H120426   7.210   4.865   1.839
 6827TIP3    H220427   7.219   4.730   1.772
 6828TIP3   OH220428   7.079   2.336   6.617
 6828TIP3    H120429   7.068   2.279   6.693
 6828TIP3    H220430   7.174   2.341   6.605
 6829TIP3   OH220431   7.766   2.730   3.223
 6829TIP3    H120432   7.833   2.663   3.238
 6829TIP3    H220433   7.794   2.805   3.275
 6830TIP3   OH220434   5.621   7.755   3.772
 6830TIP3    H120435   5.626   7.765   3.867
 6830TIP3    H220436   5.585   7.838   3.740
 6831TIP3   OH220437   2.595   4.308   4.473
 6831TIP3    H120438   2.505   4.342   4.471
 6831TIP3    H220439   2.591   4.235   4.535
 6832TIP3   OH220440   4.406   6.251   3.091
 6832TIP3    H120441   4.327   6.274   3.042
 6832TIP3    H220442   4.375   6.206   3.169
 6833TIP3   OH220443   5.917   4.309   1.642
 6833TIP3    H120444   5.924   4.219   1.609
 6833TIP3    H220445   6.007   4.342   1.642
 6834TIP3   OH220446   2.670   1.497   0.136
 6834TIP3    H120447   2.750   1.445   0.145
 6834TIP3    H220448   2.628   1.490   0.222
 6835TIP3   OH220449   4.797   1.802   5.074
 6835TIP3    H120450   4.703   1.820   5.080
 6835TIP3    H220451   4.838   1.864   5.133
 6836TIP3   OH220452   2.152   5.436   2.263
 6836TIP3    H120453   2.116   5.380   2.194
 6836TIP3    H220454   2.177   5.517   2.218
 6837TIP3   OH220455   0.939   6.871   1.672
 6837TIP3    H120456   0.996   6.860   1.595
 6837TIP3    H220457   0.861   6.914   1.639
 6838TIP3   OH220458   0.361   4.707   1.317
 6838TIP3    H120459   0.357   4.741   1.228
 6838TIP3    H220460   0.438   4.750   1.355
 6839TIP3   OH220461   0.584   2.359   3.028
 6839TIP3    H120462   0.657   2.421   3.017
 6839TIP3    H220463   0.592   2.299   2.954
 6840TIP3   OH220464   4.970   1.254   0.643
 6840TIP3    H120465   4.985   1.217   0.730
 6840TIP3    H220466   4.893   1.207   0.610
 6841TIP3   OH220467   0.963   5.033   3.775
 6841TIP3    H120468   0.996   5.007   3.690
 6841TIP3    H220469   1.032   5.009   3.836
 6842TIP3   OH220470   4.739   7.461   2.765
 6842TIP3    H120471   4.826   7.422   2.778
 6842TIP3    H220472   4.739   7.539   2.820
 6843TIP3   OH220473   1.558   5.077   3.486
 6843TIP3    H120474   1.508   5.094   3.566
 6843TIP3    H220475   1.492   5.059   3.419
 6844TIP3   OH220476   7.436   7.451   6.522
 6844TIP3    H120477   7.426   7.530   6.575
 6844TIP3    H220478   7.365   7.457   6.457
 6845TIP3   OH220479   1.204   3.582   6.579
 6845TIP3    H120480   1.241   3.510   6.630
 6845TIP3    H220481   1.280   3.633   6.551
 6846TIP3   OH220482   7.262   0.151   5.742
 6846TIP3    H120483   7.225   0.217   5.802
 6846TIP3    H220484   7.185   0.106   5.706
 6847TIP3   OH220485   2.187   7.334   3.915
 6847TIP3    H120486   2.151   7.288   3.991
 6847TIP3    H220487   2.242   7.402   3.953
 6848TIP3   OH220488   3.290   2.539   1.164
 6848TIP3    H120489   3.339   2.605   1.213
 6848TIP3    H220490   3.335   2.457   1.183
 6849TIP3   OH220491   2.089   5.762   6.729
 6849TIP3    H120492   2.161   5.776   6.667
 6849TIP3    H220493   2.025   5.829   6.707
 6850TIP3   OH220494   7.918   7.211   4.175
 6850TIP3    H120495   7.917   7.271   4.250
 6850TIP3    H220496   7.849   7.243   4.117
 6851TIP3   OH220497   4.435   5.234   3.420
 6851TIP3    H120498   4.491   5.171   3.376
 6851TIP3    H220499   4.466   5.234   3.511
 6852TIP3   OH220500   5.206   3.293   6.550
 6852TIP3    H120501   5.261   3.325   6.621
 6852TIP3    H220502   5.268   3.268   6.481
 6853TIP3   OH220503   4.153   1.089   2.666
 6853TIP3    H120504   4.076   1.114   2.717
 6853TIP3    H220505   4.119   1.077   2.577
 6854TIP3   OH220506   0.046   7.097   3.115
 6854TIP3    H120507  -0.028   7.137   3.070
 6854TIP3    H220508   0.055   7.011   3.074
 6855TIP3   OH220509   1.593   3.170   0.112
 6855TIP3    H120510   1.525   3.189   0.176
 6855TIP3    H220511   1.635   3.254   0.096
 6856TIP3   OH220512   0.423   5.925   3.585
 6856TIP3    H120513   0.357   5.979   3.628
 6856TIP3    H220514   0.389   5.912   3.496
 6857TIP3   OH220515   2.515   2.975   2.008
 6857TIP3    H120516   2.584   2.950   2.070
 6857TIP3    H220517   2.532   2.922   1.930
 6858TIP3   OH220518   7.135   7.240   5.283
 6858TIP3    H120519   7.178   7.219   5.366
 6858TIP3    H220520   7.168   7.327   5.260
 6859TIP3   OH220521   0.185   1.312   4.222
 6859TIP3    H120522   0.272   1.272   4.220
 6859TIP3    H220523   0.137   1.270   4.150
 6860TIP3   OH220524   1.784   2.145   2.565
 6860TIP3    H120525   1.755   2.102   2.484
 6860TIP3    H220526   1.735   2.227   2.567
 6861TIP3   OH220527   0.781   3.825   0.935
 6861TIP3    H120528   0.827   3.865   0.862
 6861TIP3    H220529   0.757   3.738   0.904
 6862TIP3   OH220530   2.606   7.504   0.497
 6862TIP3    H120531   2.674   7.571   0.506
 6862TIP3    H220532   2.579   7.485   0.587
 6863TIP3   OH220533   5.622   2.595   6.292
 6863TIP3    H120534   5.527   2.586   6.283
 6863TIP3    H220535   5.652   2.622   6.206
 6864TIP3   OH220536   0.781   6.595   4.282
 6864TIP3    H120537   0.720   6.553   4.222
 6864TIP3    H220538   0.785   6.537   4.358
 6865TIP3   OH220539   6.188   1.244   3.027
 6865TIP3    H120540   6.210   1.203   3.111
 6865TIP3    H220541   6.221   1.183   2.961
 6866TIP3   OH220542   8.089   5.371   5.281
 6866TIP3    H120543   8.034   5.378   5.202
 6866TIP3    H220544   8.029   5.345   5.350
 6867TIP3   OH220545   3.937   6.027   0.818
 6867TIP3    H120546   3.933   5.937   0.850
 6867TIP3    H220547   3.855   6.067   0.848
 6868TIP3   OH220548   8.060   3.049   4.671
 6868TIP3    H120549   8.072   2.957   4.695
 6868TIP3    H220550   7.966   3.064   4.677
 6869TIP3   OH220551   2.396   6.814   2.200
 6869TIP3    H120552   2.377   6.721   2.213
 6869TIP3    H220553   2.403   6.823   2.105
 6870TIP3   OH220554   6.911   2.441   5.304
 6870TIP3    H120555   6.816   2.440   5.296
 6870TIP3    H220556   6.932   2.532   5.328
 6871TIP3   OH220557   3.421   2.395   1.491
 6871TIP3    H120558   3.391   2.357   1.408
 6871TIP3    H220559   3.459   2.479   1.466
 6872TIP3   OH220560   1.685   6.747   0.724
 6872TIP3    H120561   1.601   6.747   0.679
 6872TIP3    H220562   1.723   6.833   0.703
 6873TIP3   OH220563   3.946   3.327   3.085
 6873TIP3    H120564   3.906   3.243   3.062
 6873TIP3    H220565   4.035   3.322   3.050
 6874TIP3   OH220566   2.210   2.442   6.690
 6874TIP3    H120567   2.178   2.518   6.641
 6874TIP3    H220568   2.246   2.479   6.770
 6875TIP3   OH220569   3.260   0.132   6.548
 6875TIP3    H120570   3.257   0.220   6.585
 6875TIP3    H220571   3.322   0.084   6.602
 6876TIP3   OH220572   0.311   5.096   4.374
 6876TIP3    H120573   0.253   5.124   4.445
 6876TIP3    H220574   0.398   5.098   4.412
 6877TIP3   OH220575   6.267   5.796   1.292
 6877TIP3    H120576   6.255   5.716   1.342
 6877TIP3    H220577   6.208   5.786   1.217
 6878TIP3   OH220578   3.902   0.163   2.671
 6878TIP3    H120579   3.813   0.137   2.695
 6878TIP3    H220580   3.902   0.162   2.576
 6879TIP3   OH220581   6.490   0.065   0.617
 6879TIP3    H120582   6.404   0.101   0.593
 6879TIP3    H220583   6.530   0.134   0.670
 6880TIP3   OH220584   7.599   3.103   6.485
 6880TIP3    H120585   7.642   3.018   6.498
 6880TIP3    H220586   7.660   3.166   6.523
 6881TIP3   OH220587   5.011   6.907   4.207
 6881TIP3    H120588   5.069   6.833   4.224
 6881TIP3    H220589   5.035   6.972   4.273
 6882TIP3   OH220590   4.437   0.894   5.913
 6882TIP3    H120591   4.346   0.877   5.938
 6882TIP3    H220592   4.453   0.984   5.942
 6883TIP3   OH220593   4.999   4.106   1.597
 6883TIP3    H120594   4.993   4.033   1.535
 6883TIP3    H220595   5.009   4.184   1.543
 6884TIP3   OH220596   2.477   1.790   2.644
 6884TIP3    H120597   2.385   1.790   2.619
 6884TIP3    H220598   2.501   1.883   2.646
 6885TIP3   OH220599   7.104   6.670   0.325
 6885TIP3    H120600   7.120   6.580   0.298
 6885TIP3    H220601   7.069   6.712   0.246
 6886TIP3   OH220602   2.083   1.967   1.928
 6886TIP3    H120603   2.018   2.016   1.978
 6886TIP3    H220604   2.094   1.886   1.978
 6887TIP3   OH220605   4.442   4.067   3.339
 6887TIP3    H120606   4.434   3.972   3.346
 6887TIP3    H220607   4.533   4.081   3.313
 6888TIP3   OH220608   4.188   4.882   6.048
 6888TIP3    H120609   4.160   4.864   5.958
 6888TIP3    H220610   4.282   4.900   6.040
 6889TIP3   OH220611   2.818   0.339   1.622
 6889TIP3    H120612   2.774   0.264   1.582
 6889TIP3    H220613   2.880   0.369   1.556
 6890TIP3   OH220614   6.545   0.939   3.763
 6890TIP3    H120615   6.565   0.850   3.792
 6890TIP3    H220616   6.580   0.943   3.673
 6891TIP3   OH220617   5.842   7.334   3.741
 6891TIP3    H120618   5.825   7.249   3.699
 6891TIP3    H220619   5.755   7.365   3.767
 6892TIP3   OH220620   5.390   3.734   6.184
 6892TIP3    H120621   5.371   3.682   6.262
 6892TIP3    H220622   5.459   3.685   6.139
 6893TIP3   OH220623   6.804   0.806   1.312
 6893TIP3    H120624   6.799   0.724   1.362
 6893TIP3    H220625   6.719   0.847   1.326
 6894TIP3   OH220626   5.898   1.970   3.287
 6894TIP3    H120627   5.825   2.002   3.234
 6894TIP3    H220628   5.942   1.907   3.230
 6895TIP3   OH220629   7.278   5.599   4.968
 6895TIP3    H120630   7.226   5.529   4.928
 6895TIP3    H220631   7.362   5.595   4.923
 6896TIP3   OH220632   4.459   7.349   6.749
 6896TIP3    H120633   4.441   7.316   6.661
 6896TIP3    H220634   4.418   7.435   6.752
 6897TIP3   OH220635   0.191   2.912   1.571
 6897TIP3    H120636   0.179   3.004   1.549
 6897TIP3    H220637   0.264   2.883   1.517
 6898TIP3   OH220638   6.010   1.923   4.931
 6898TIP3    H120639   5.991   1.834   4.958
 6898TIP3    H220640   6.055   1.913   4.847
 6899TIP3   OH220641   3.247   4.297   0.064
 6899TIP3    H120642   3.320   4.317   0.005
 6899TIP3    H220643   3.172   4.290   0.006
 6900TIP3   OH220644   7.130   3.034   4.906
 6900TIP3    H120645   7.225   3.046   4.908
 6900TIP3    H220646   7.098   3.086   4.980
 6901TIP3   OH220647   1.900   1.578   5.953
 6901TIP3    H120648   1.908   1.550   5.862
 6901TIP3    H220649   1.990   1.581   5.985
 6902TIP3   OH220650   1.103   6.781   3.543
 6902TIP3    H120651   1.161   6.842   3.587
 6902TIP3    H220652   1.022   6.831   3.527
 6903TIP3   OH220653   2.909   2.530   4.672
 6903TIP3    H120654   2.970   2.497   4.738
 6903TIP3    H220655   2.920   2.470   4.598
 6904TIP3   OH220656   3.704   5.926   1.995
 6904TIP3    H120657   3.763   5.872   2.048
 6904TIP3    H220658   3.682   6.000   2.052
 6905TIP3   OH220659   8.222   0.742   5.786
 6905TIP3    H120660   8.208   0.655   5.748
 6905TIP3    H220661   8.307   0.769   5.754
 6906TIP3   OH220662   5.621   7.064   6.351
 6906TIP3    H120663   5.607   7.030   6.263
 6906TIP3    H220664   5.706   7.107   6.348
 6907TIP3   OH220665   7.512   5.579   2.555
 6907TIP3    H120666   7.570   5.507   2.532
 6907TIP3    H220667   7.549   5.614   2.636
 6908TIP3   OH220668   6.886   0.085   0.711
 6908TIP3    H120669   6.818   0.044   0.765
 6908TIP3    H220670   6.965   0.080   0.764
 6909TIP3   OH220671   4.739   1.312   3.567
 6909TIP3    H120672   4.685   1.391   3.574
 6909TIP3    H220673   4.778   1.317   3.480
 6910TIP3   OH220674   2.562   7.384   5.082
 6910TIP3    H120675   2.511   7.457   5.047
 6910TIP3    H220676   2.500   7.334   5.135
 6911TIP3   OH220677   0.434   3.960   0.110
 6911TIP3    H120678   0.449   3.909   0.030
 6911TIP3    H220679   0.340   3.953   0.126
 6912TIP3   OH220680   5.625   3.296   1.119
 6912TIP3    H120681   5.669   3.221   1.157
 6912TIP3    H220682   5.560   3.258   1.059
 6913TIP3   OH220683   3.755   5.396   0.254
 6913TIP3    H120684   3.688   5.412   0.187
 6913TIP3    H220685   3.835   5.432   0.216
 6914TIP3   OH220686   6.925   3.356   4.384
 6914TIP3    H120687   6.850   3.317   4.429
 6914TIP3    H220688   6.982   3.282   4.365
 6915TIP3   OH220689   5.965   2.045   0.138
 6915TIP3    H120690   6.046   2.019   0.183
 6915TIP3    H220691   5.965   2.141   0.141
 6916TIP3   OH220692   2.083   4.261   1.528
 6916TIP3    H120693   2.041   4.226   1.450
 6916TIP3    H220694   2.159   4.309   1.496
 6917TIP3   OH220695   2.602   2.116   4.710
 6917TIP3    H120696   2.518   2.103   4.753
 6917TIP3    H220697   2.614   2.211   4.708
 6918TIP3   OH220698   6.234   2.394   3.276
 6918TIP3    H120699   6.304   2.339   3.241
 6918TIP3    H220700   6.264   2.483   3.261
 6919TIP3   OH220701   2.267   5.481   0.157
 6919TIP3    H120702   2.270   5.410   0.221
 6919TIP3    H220703   2.251   5.560   0.210
 6920TIP3   OH220704   7.646   7.077   0.976
 6920TIP3    H120705   7.680   7.000   1.021
 6920TIP3    H220706   7.622   7.045   0.889
 6921TIP3   OH220707   0.166   0.640   0.042
 6921TIP3    H120708   0.206   0.600  -0.035
 6921TIP3    H220709   0.166   0.734   0.022
 6922TIP3   OH220710   7.049   4.722   5.525
 6922TIP3    H120711   7.047   4.708   5.430
 6922TIP3    H220712   7.089   4.808   5.535
 6923TIP3   OH220713   4.724   1.680   1.865
 6923TIP3    H120714   4.658   1.642   1.807
 6923TIP3    H220715   4.681   1.684   1.951
 6924TIP3   OH220716   8.171   1.162   4.855
 6924TIP3    H120717   8.166   1.214   4.774
 6924TIP3    H220718   8.080   1.146   4.879
 6925TIP3   OH220719   6.305   6.240   6.668
 6925TIP3    H120720   6.241   6.174   6.641
 6925TIP3    H220721   6.346   6.269   6.586
 6926TIP3   OH220722   6.521   3.752   2.548
 6926TIP3    H120723   6.604   3.745   2.596
 6926TIP3    H220724   6.461   3.695   2.596
 6927TIP3   OH220725   3.040   3.034   1.636
 6927TIP3    H120726   2.971   3.080   1.685
 6927TIP3    H220727   2.997   2.954   1.605
 6928TIP3   OH220728   0.760   2.343   3.715
 6928TIP3    H120729   0.747   2.253   3.743
 6928TIP3    H220730   0.843   2.342   3.667
 6929TIP3   OH220731   3.806   7.469   0.943
 6929TIP3    H120732   3.869   7.486   0.873
 6929TIP3    H220733   3.755   7.394   0.912
 6930TIP3   OH220734   0.265   0.633   1.622
 6930TIP3    H120735   0.237   0.724   1.610
 6930TIP3    H220736   0.214   0.584   1.558
 6931TIP3   OH220737   8.278   4.482   6.464
 6931TIP3    H120738   8.293   4.431   6.385
 6931TIP3    H220739   8.363   4.525   6.480
 6932TIP3   OH220740   7.989   4.317   0.971
 6932TIP3    H120741   7.914   4.355   1.017
 6932TIP3    H220742   7.997   4.368   0.891
 6933TIP3   OH220743   8.054   2.438   4.968
 6933TIP3    H120744   8.067   2.485   4.886
 6933TIP3    H220745   8.074   2.502   5.036
 6934TIP3   OH220746   0.974   6.542   4.711
 6934TIP3    H120747   1.054   6.495   4.737
 6934TIP3    H220748   1.003   6.603   4.643
 6935TIP3   OH220749   2.690   4.960   0.545
 6935TIP3    H120750   2.699   4.899   0.618
 6935TIP3    H220751   2.730   4.914   0.471
 6936TIP3   OH220752   2.340   3.295   3.884
 6936TIP3    H120753   2.358   3.278   3.976
 6936TIP3    H220754   2.266   3.355   3.884
 6937TIP3   OH220755   3.380   7.368   1.313
 6937TIP3    H120756   3.336   7.415   1.243
 6937TIP3    H220757   3.430   7.435   1.360
 6938TIP3   OH220758   5.727   1.097   4.213
 6938TIP3    H120759   5.649   1.042   4.219
 6938TIP3    H220760   5.695   1.186   4.231
 6939TIP3   OH220761   4.210   6.530   0.947
 6939TIP3    H120762   4.118   6.529   0.922
 6939TIP3    H220763   4.252   6.588   0.883
 6940TIP3   OH220764   0.326   6.539   4.235
 6940TIP3    H120765   0.373   6.529   4.318
 6940TIP3    H220766   0.236   6.515   4.255
 6941TIP3   OH220767   3.932   4.056   2.732
 6941TIP3    H120768   3.857   4.114   2.722
 6941TIP3    H220769   3.909   3.999   2.804
 6942TIP3   OH220770   8.057   3.985   1.862
 6942TIP3    H120771   8.004   4.032   1.926
 6942TIP3    H220772   8.046   3.893   1.885
 6943TIP3   OH220773   2.453   5.591   5.201
 6943TIP3    H120774   2.499   5.511   5.225
 6943TIP3    H220775   2.452   5.590   5.105
 6944TIP3   OH220776   0.832   6.521   2.958
 6944TIP3    H120777   0.765   6.586   2.937
 6944TIP3    H220778   0.885   6.562   3.027
 6945TIP3   OH220779   0.905   4.801   5.611
 6945TIP3    H120780   0.970   4.795   5.542
 6945TIP3    H220781   0.821   4.789   5.566
 6946TIP3   OH220782   0.134   0.989   5.100
 6946TIP3    H120783   0.070   0.919   5.086
 6946TIP3    H220784   0.125   1.045   5.023
 6947TIP3   OH220785   3.566   6.320   0.283
 6947TIP3    H120786   3.536   6.267   0.209
 6947TIP3    H220787   3.583   6.256   0.353
 6948TIP3   OH220788   0.897   3.500   4.227
 6948TIP3    H120789   0.827   3.444   4.194
 6948TIP3    H220790   0.893   3.491   4.322
 6949TIP3   OH220791   3.821   0.639   1.872
 6949TIP3    H120792   3.838   0.692   1.949
 6949TIP3    H220793   3.802   0.552   1.907
 6950TIP3   OH220794   3.835   3.234   0.559
 6950TIP3    H120795   3.867   3.159   0.610
 6950TIP3    H220796   3.899   3.243   0.489
 6951TIP3   OH220797   5.976   5.829   2.224
 6951TIP3    H120798   6.068   5.802   2.216
 6951TIP3    H220799   5.981   5.919   2.257
 6952TIP3   OH220800   5.077   4.199   2.838
 6952TIP3    H120801   5.066   4.130   2.773
 6952TIP3    H220802   4.994   4.246   2.838
 6953TIP3   OH220803   2.063   4.682   4.487
 6953TIP3    H120804   2.062   4.713   4.578
 6953TIP3    H220805   2.052   4.587   4.494
 6954TIP3   OH220806   0.608   6.354   4.187
 6954TIP3    H120807   0.538   6.362   4.252
 6954TIP3    H220808   0.562   6.332   4.106
 6955TIP3   OH220809   3.915   2.237  -0.028
 6955TIP3    H120810   3.870   2.175   0.029
 6955TIP3    H220811   3.937   2.311   0.029
 6956TIP3   OH220812   8.184   3.596   3.908
 6956TIP3    H120813   8.150   3.655   3.975
 6956TIP3    H220814   8.277   3.590   3.927
 6957TIP3   OH220815   4.189   1.819   6.111
 6957TIP3    H120816   4.224   1.862   6.033
 6957TIP3    H220817   4.266   1.801   6.164
 6958TIP3   OH220818   4.242   7.527   5.404
 6958TIP3    H120819   4.159   7.494   5.439
 6958TIP3    H220820   4.216   7.595   5.342
 6959TIP3   OH220821   4.670   4.752   0.463
 6959TIP3    H120822   4.738   4.704   0.511
 6959TIP3    H220823   4.665   4.837   0.508
 6960TIP3   OH220824   6.901   4.507   3.223
 6960TIP3    H120825   6.908   4.500   3.128
 6960TIP3    H220826   6.899   4.417   3.254
 6961TIP3   OH220827   1.368   5.704   5.254
 6961TIP3    H120828   1.277   5.679   5.274
 6961TIP3    H220829   1.406   5.725   5.340
 6962TIP3   OH220830   1.789   7.618   5.600
 6962TIP3    H120831   1.805   7.711   5.588
 6962TIP3    H220832   1.695   7.608   5.589
 6963TIP3   OH220833   5.342   1.228   2.180
 6963TIP3    H120834   5.341   1.138   2.211
 6963TIP3    H220835   5.256   1.263   2.203
 6964TIP3   OH220836   7.985   6.187   1.932
 6964TIP3    H120837   7.932   6.213   2.008
 6964TIP3    H220838   8.011   6.097   1.951
 6965TIP3   OH220839   4.262   5.786   5.725
 6965TIP3    H120840   4.226   5.734   5.653
 6965TIP3    H220841   4.189   5.840   5.754
 6966TIP3   OH220842   7.680   0.884   4.160
 6966TIP3    H120843   7.692   0.811   4.220
 6966TIP3    H220844   7.768   0.900   4.125
 6967TIP3   OH220845   0.736   5.919   4.310
 6967TIP3    H120846   0.788   5.855   4.261
 6967TIP3    H220847   0.712   5.874   4.391
 6968TIP3   OH220848   2.690   2.502   1.009
 6968TIP3    H120849   2.758   2.517   1.075
 6968TIP3    H220850   2.636   2.432   1.045
 6969TIP3   OH220851   4.272   1.350   0.097
 6969TIP3    H120852   4.211   1.422   0.114
 6969TIP3    H220853   4.359   1.389   0.106
 6970TIP3   OH220854   6.530   6.431   1.700
 6970TIP3    H120855   6.549   6.519   1.668
 6970TIP3    H220856   6.615   6.395   1.724
 6971TIP3   OH220857   5.466   7.587   3.016
 6971TIP3    H120858   5.473   7.631   3.101
 6971TIP3    H220859   5.511   7.646   2.956
 6972TIP3   OH220860   1.985   3.905   3.305
 6972TIP3    H120861   1.989   3.903   3.400
 6972TIP3    H220862   2.012   3.994   3.281
 6973TIP3   OH220863   3.279   2.567   2.292
 6973TIP3    H120864   3.208   2.520   2.248
 6973TIP3    H220865   3.276   2.655   2.255
 6974TIP3   OH220866   6.621   3.550   2.824
 6974TIP3    H120867   6.528   3.566   2.840
 6974TIP3    H220868   6.660   3.638   2.821
 6975TIP3   OH220869   7.892   4.278   3.848
 6975TIP3    H120870   7.986   4.291   3.838
 6975TIP3    H220871   7.853   4.354   3.804
 6976TIP3   OH220872   1.321   1.254   1.670
 6976TIP3    H120873   1.398   1.240   1.615
 6976TIP3    H220874   1.254   1.197   1.632
 6977TIP3   OH220875   3.162   1.903   0.291
 6977TIP3    H120876   3.177   1.893   0.197
 6977TIP3    H220877   3.245   1.937   0.325
 6978TIP3   OH220878   5.342   6.176   3.574
 6978TIP3    H120879   5.364   6.201   3.664
 6978TIP3    H220880   5.411   6.115   3.549
 6979TIP3   OH220881   0.741   1.120   0.797
 6979TIP3    H120882   0.822   1.070   0.797
 6979TIP3    H220883   0.700   1.101   0.712
 6980TIP3   OH220884   3.935   5.125   4.136
 6980TIP3    H120885   3.842   5.137   4.118
 6980TIP3    H220886   3.979   5.177   4.068
 6981TIP3   OH220887   5.632   2.352   3.219
 6981TIP3    H120888   5.559   2.360   3.157
 6981TIP3    H220889   5.678   2.272   3.192
 6982TIP3   OH220890   4.836   2.480   3.914
 6982TIP3    H120891   4.931   2.483   3.930
 6982TIP3    H220892   4.798   2.466   4.001
 6983TIP3   OH220893   5.178   6.106   1.036
 6983TIP3    H120894   5.105   6.077   0.983
 6983TIP3    H220895   5.144   6.108   1.126
 6984TIP3   OH220896   4.626   7.785   5.928
 6984TIP3    H120897   4.597   7.696   5.950
 6984TIP3    H220898   4.589   7.801   5.841
 6985TIP3   OH220899   3.673   1.606   4.202
 6985TIP3    H120900   3.715   1.583   4.285
 6985TIP3    H220901   3.659   1.700   4.208
 6986TIP3   OH220902   0.850   7.384   1.682
 6986TIP3    H120903   0.834   7.290   1.690
 6986TIP3    H220904   0.772   7.424   1.722
 6987TIP3   OH220905   4.295   6.980   1.293
 6987TIP3    H120906   4.324   7.001   1.382
 6987TIP3    H220907   4.201   6.963   1.302
 6988TIP3   OH220908   1.932   7.576   3.439
 6988TIP3    H120909   1.928   7.526   3.358
 6988TIP3    H220910   1.842   7.606   3.454
 6989TIP3   OH220911   4.396   1.060   1.383
 6989TIP3    H120912   4.325   1.066   1.447
 6989TIP3    H220913   4.353   1.031   1.302
 6990TIP3   OH220914   7.264   4.038   1.931
 6990TIP3    H120915   7.194   3.980   1.900
 6990TIP3    H220916   7.221   4.097   1.993
 6991TIP3   OH220917   3.309   5.687   1.655
 6991TIP3    H120918   3.249   5.761   1.646
 6991TIP3    H220919   3.385   5.712   1.601
 6992TIP3   OH220920   2.791   5.053   4.634
 6992TIP3    H120921   2.754   5.042   4.546
 6992TIP3    H220922   2.868   5.108   4.621
 6993TIP3   OH220923   3.148   1.321   3.983
 6993TIP3    H120924   3.221   1.379   3.962
 6993TIP3    H220925   3.171   1.284   4.068
 6994TIP3   OH220926   4.135   0.067   5.113
 6994TIP3    H120927   4.165   0.152   5.146
 6994TIP3    H220928   4.092   0.026   5.188
 6995TIP3   OH220929   0.549   4.291   4.770
 6995TIP3    H120930   0.500   4.372   4.751
 6995TIP3    H220931   0.502   4.223   4.722
 6996TIP3   OH220932   0.557   1.054   4.854
 6996TIP3    H120933   0.591   1.068   4.765
 6996TIP3    H220934   0.477   1.003   4.842
 6997TIP3   OH220935   7.436   3.524   4.563
 6997TIP3    H120936   7.414   3.614   4.587
 6997TIP3    H220937   7.352   3.482   4.545
 6998TIP3   OH220938   2.684   5.641   5.489
 6998TIP3    H120939   2.595   5.660   5.458
 6998TIP3    H220940   2.686   5.546   5.500
 6999TIP3   OH220941   2.276   3.802   5.012
 6999TIP3    H120942   2.192   3.819   4.968
 6999TIP3    H220943   2.340   3.853   4.963
 7000TIP3   OH220944   3.682   5.517   2.245
 7000TIP3    H120945   3.717   5.527   2.157
 7000TIP3    H220946   3.668   5.423   2.255
 7001TIP3   OH220947   4.930   5.469   4.070
 7001TIP3    H120948   4.890   5.477   3.983
 7001TIP3    H220949   4.860   5.433   4.125
 7002TIP3   OH220950   1.976   0.218   6.293
 7002TIP3    H120951   1.934   0.276   6.356
 7002TIP3    H220952   1.933   0.133   6.306
 7003TIP3   OH220953   1.744   5.415   3.451
 7003TIP3    H120954   1.797   5.482   3.495
 7003TIP3    H220955   1.769   5.333   3.492
 7004TIP3   OH220956   0.866   6.272   6.449
 7004TIP3    H120957   0.915   6.323   6.514
 7004TIP3    H220958   0.918   6.279   6.369
 7005TIP3   OH220959   8.067   5.904   2.362
 7005TIP3    H120960   8.125   5.923   2.436
 7005TIP3    H220961   8.002   5.974   2.364
 7006TIP3   OH220962   0.299   6.082   2.570
 7006TIP3    H120963   0.283   6.171   2.601
 7006TIP3    H220964   0.229   6.030   2.610
 7007TIP3   OH220965   0.767   0.338   5.812
 7007TIP3    H120966   0.766   0.253   5.769
 7007TIP3    H220967   0.683   0.378   5.791
 7008TIP3   OH220968   1.869   5.154   0.968
 7008TIP3    H120969   1.871   5.058   0.972
 7008TIP3    H220970   1.810   5.179   1.040
 7009TIP3   OH220971   0.386   6.928   3.236
 7009TIP3    H120972   0.417   6.881   3.158
 7009TIP3    H220973   0.310   6.878   3.266
 7010TIP3   OH220974   3.214   3.892   1.954
 7010TIP3    H120975   3.246   3.909   1.865
 7010TIP3    H220976   3.130   3.848   1.941
 7011TIP3   OH220977   2.851   7.603   5.426
 7011TIP3    H120978   2.847   7.536   5.494
 7011TIP3    H220979   2.781   7.665   5.448
 7012TIP3   OH220980   2.546   2.874   1.733
 7012TIP3    H120981   2.610   2.821   1.781
 7012TIP3    H220982   2.577   2.874   1.643
 7013TIP3   OH220983   7.465   7.240   6.302
 7013TIP3    H120984   7.423   7.264   6.219
 7013TIP3    H220985   7.538   7.184   6.277
 7014TIP3   OH220986   0.838   1.074   5.814
 7014TIP3    H120987   0.906   1.034   5.868
 7014TIP3    H220988   0.842   1.025   5.731
 7015TIP3   OH220989   4.231   3.352   0.233
 7015TIP3    H120990   4.323   3.367   0.255
 7015TIP3    H220991   4.184   3.419   0.282
 7016TIP3   OH220992   6.942   1.041   6.153
 7016TIP3    H120993   6.939   0.967   6.213
 7016TIP3    H220994   6.957   1.117   6.209
 7017TIP3   OH220995   5.678   2.751   3.485
 7017TIP3    H120996   5.622   2.673   3.485
 7017TIP3    H220997   5.767   2.715   3.487
 7018TIP3   OH220998   2.249   1.318   2.712
 7018TIP3    H120999   2.340   1.309   2.683
 7018TIP3    H221000   2.211   1.231   2.699
 7019TIP3   OH221001   7.801   3.673   2.668
 7019TIP3    H121002   7.798   3.650   2.762
 7019TIP3    H221003   7.759   3.758   2.663
 7020TIP3   OH221004   7.713   0.709   1.913
 7020TIP3    H121005   7.641   0.755   1.869
 7020TIP3    H221006   7.694   0.719   2.006
 7021TIP3   OH221007   7.454   0.302   5.993
 7021TIP3    H121008   7.418   0.249   6.064
 7021TIP3    H221009   7.431   0.392   6.018
 7022TIP3   OH221010   2.921   5.630   1.787
 7022TIP3    H121011   2.933   5.723   1.766
 7022TIP3    H221012   2.845   5.604   1.736
 7023TIP3   OH221013   5.082   1.446   4.378
 7023TIP3    H121014   5.010   1.412   4.430
 7023TIP3    H221015   5.085   1.539   4.397
 7024TIP3   OH221016   7.773   3.776   0.037
 7024TIP3    H121017   7.773   3.688   0.000
 7024TIP3    H221018   7.684   3.789   0.069
 7025TIP3   OH221019   1.316   1.980   4.220
 7025TIP3    H121020   1.269   2.011   4.298
 7025TIP3    H221021   1.339   2.060   4.173
 7026TIP3   OH221022   5.671   2.084   1.991
 7026TIP3    H121023   5.705   2.122   2.072
 7026TIP3    H221024   5.678   1.990   2.004
 7027TIP3   OH221025   1.598   7.705   1.946
 7027TIP3    H121026   1.692   7.703   1.926
 7027TIP3    H221027   1.561   7.634   1.893
 7028TIP3   OH221028   4.212   2.592   2.705
 7028TIP3    H121029   4.157   2.580   2.783
 7028TIP3    H221030   4.154   2.568   2.632
 7029TIP3   OH221031   2.582   5.838   1.789
 7029TIP3    H121032   2.592   5.806   1.879
 7029TIP3    H221033   2.672   5.849   1.758
 7030TIP3   OH221034   5.137   6.164   1.447
 7030TIP3    H121035   5.113   6.199   1.361
 7030TIP3    H221036   5.233   6.161   1.446
 7031TIP3   OH221037   4.713   2.489   1.507
 7031TIP3    H121038   4.769   2.558   1.542
 7031TIP3    H221039   4.767   2.446   1.441
 7032TIP3   OH221040   5.413   4.373   0.134
 7032TIP3    H121041   5.460   4.435   0.079
 7032TIP3    H221042   5.389   4.423   0.212
 7033TIP3   OH221043   3.248   6.063   2.077
 7033TIP3    H121044   3.210   6.150   2.090
 7033TIP3    H221045   3.343   6.079   2.073
 7034TIP3   OH221046   5.560   6.897   0.240
 7034TIP3    H121047   5.528   6.815   0.278
 7034TIP3    H221048   5.606   6.940   0.312
 7035TIP3   OH221049   3.795   3.400   4.307
 7035TIP3    H121050   3.839   3.460   4.247
 7035TIP3    H221051   3.755   3.457   4.373
 7036TIP3   OH221052   3.476   0.178   3.184
 7036TIP3    H121053   3.460   0.139   3.098
 7036TIP3    H221054   3.472   0.273   3.169
 7037TIP3   OH221055   1.781   7.787   2.721
 7037TIP3    H121056   1.808   7.697   2.702
 7037TIP3    H221057   1.700   7.799   2.671
 7038TIP3   OH221058   6.856   5.647   3.140
 7038TIP3    H121059   6.888   5.558   3.151
 7038TIP3    H221060   6.921   5.702   3.184
 7039TIP3   OH221061   2.559   7.767   4.694
 7039TIP3    H121062   2.610   7.733   4.621
 7039TIP3    H221063   2.616   7.755   4.771
 7040TIP3   OH221064   4.718   3.384   1.621
 7040TIP3    H121065   4.811   3.378   1.599
 7040TIP3    H221066   4.694   3.473   1.597
 7041TIP3   OH221067   5.636   2.445   4.861
 7041TIP3    H121068   5.667   2.375   4.920
 7041TIP3    H221069   5.665   2.418   4.774
 7042TIP3   OH221070   3.793   2.126   0.429
 7042TIP3    H121071   3.865   2.182   0.399
 7042TIP3    H221072   3.736   2.185   0.479
 7043TIP3   OH221073   0.343   7.441   1.373
 7043TIP3    H121074   0.433   7.411   1.366
 7043TIP3    H221075   0.347   7.515   1.433
 7044TIP3   OH221076   5.498   7.453   1.095
 7044TIP3    H121077   5.481   7.376   1.040
 7044TIP3    H221078   5.492   7.419   1.184
 7045TIP3   OH221079   2.988   7.228   3.369
 7045TIP3    H121080   3.044   7.156   3.400
 7045TIP3    H221081   3.026   7.306   3.408
 7046TIP3   OH221082   7.254   4.149   3.944
 7046TIP3    H121083   7.331   4.097   3.920
 7046TIP3    H221084   7.269   4.235   3.904
 7047TIP3   OH221085   0.293   2.314   1.196
 7047TIP3    H121086   0.341   2.337   1.117
 7047TIP3    H221087   0.203   2.338   1.177
 7048TIP3   OH221088   6.189   7.693   0.350
 7048TIP3    H121089   6.113   7.664   0.401
 7048TIP3    H221090   6.255   7.716   0.416
 7049TIP3   OH221091   4.719   0.140   0.191
 7049TIP3    H121092   4.773   0.151   0.113
 7049TIP3    H221093   4.736   0.218   0.244
 7050TIP3   OH221094   7.951   7.315   2.844
 7050TIP3    H121095   7.873   7.357   2.880
 7050TIP3    H221096   7.918   7.259   2.774
 7051TIP3   OH221097   4.638   4.193   5.724
 7051TIP3    H121098   4.618   4.284   5.705
 7051TIP3    H221099   4.719   4.176   5.675
 7052TIP3   OH221100   6.413   2.642   1.733
 7052TIP3    H121101   6.391   2.666   1.823
 7052TIP3    H221102   6.408   2.547   1.731
 7053TIP3   OH221103   7.786   0.495   5.819
 7053TIP3    H121104   7.696   0.525   5.833
 7053TIP3    H221105   7.838   0.544   5.883
 7054TIP3   OH221106   7.310   3.670   3.491
 7054TIP3    H121107   7.312   3.744   3.552
 7054TIP3    H221108   7.363   3.603   3.533
 7055TIP3   OH221109   7.343   0.826   1.463
 7055TIP3    H121110   7.302   0.790   1.542
 7055TIP3    H221111   7.434   0.841   1.488
 7056TIP3   OH221112   1.040   2.141   0.482
 7056TIP3    H121113   1.132   2.119   0.464
 7056TIP3    H221114   0.994   2.119   0.402
 7057TIP3   OH221115   5.548   2.649   2.947
 7057TIP3    H121116   5.511   2.631   3.033
 7057TIP3    H221117   5.481   2.621   2.885
 7058TIP3   OH221118   1.435   6.237   2.764
 7058TIP3    H121119   1.457   6.152   2.726
 7058TIP3    H221120   1.513   6.291   2.750
 7059TIP3   OH221121   1.577   4.960   2.011
 7059TIP3    H121122   1.530   4.961   1.927
 7059TIP3    H221123   1.542   5.035   2.059
 7060TIP3   OH221124   3.349   3.554   0.514
 7060TIP3    H121125   3.442   3.561   0.493
 7060TIP3    H221126   3.345   3.486   0.581
 7061TIP3   OH221127   0.021   5.767   6.152
 7061TIP3    H121128  -0.060   5.736   6.112
 7061TIP3    H221129   0.074   5.799   6.079
 7062TIP3   OH221130   5.242   0.669   2.823
 7062TIP3    H121131   5.213   0.583   2.852
 7062TIP3    H221132   5.335   0.659   2.805
 7063TIP3   OH221133   6.534   7.389   5.448
 7063TIP3    H121134   6.571   7.301   5.448
 7063TIP3    H221135   6.443   7.377   5.419
 7064TIP3   OH221136   7.796   0.795   1.047
 7064TIP3    H121137   7.832   0.749   0.970
 7064TIP3    H221138   7.782   0.884   1.016
 7065TIP3   OH221139   6.227   7.391   6.478
 7065TIP3    H121140   6.194   7.325   6.418
 7065TIP3    H221141   6.311   7.417   6.440
 7066TIP3   OH221142   3.722   3.203   0.131
 7066TIP3    H121143   3.690   3.224   0.044
 7066TIP3    H221144   3.816   3.219   0.128
 7067TIP3   OH221145   6.690   4.531   3.817
 7067TIP3    H121146   6.740   4.466   3.866
 7067TIP3    H221147   6.686   4.607   3.874
 7068TIP3   OH221148   2.015   5.324   5.966
 7068TIP3    H121149   2.048   5.235   5.979
 7068TIP3    H221150   2.092   5.380   5.969
 7069TIP3   OH221151   2.757   2.884   2.095
 7069TIP3    H121152   2.788   2.807   2.142
 7069TIP3    H221153   2.836   2.935   2.078
 7070TIP3   OH221154   7.241   5.854   6.171
 7070TIP3    H121155   7.304   5.809   6.228
 7070TIP3    H221156   7.263   5.824   6.083
 7071TIP3   OH221157   7.512   2.566   0.036
 7071TIP3    H121158   7.569   2.608   0.100
 7071TIP3    H221159   7.428   2.558   0.081
 7072TIP3   OH221160   6.883   4.252   0.929
 7072TIP3    H121161   6.810   4.298   0.889
 7072TIP3    H221162   6.897   4.175   0.874
 7073TIP3   OH221163   0.111   5.535   6.513
 7073TIP3    H121164   0.051   5.462   6.501
 7073TIP3    H221165   0.155   5.544   6.428
 7074TIP3   OH221166   3.797   1.072   0.019
 7074TIP3    H121167   3.837   1.148  -0.024
 7074TIP3    H221168   3.753   1.109   0.097
 7075TIP3   OH221169   2.868   0.252   0.900
 7075TIP3    H121170   2.884   0.244   0.994
 7075TIP3    H221171   2.776   0.276   0.893
 7076TIP3   OH221172   0.756   4.252   0.908
 7076TIP3    H121173   0.703   4.214   0.839
 7076TIP3    H221174   0.840   4.205   0.902
 7077TIP3   OH221175   4.437   4.657   1.522
 7077TIP3    H121176   4.519   4.707   1.517
 7077TIP3    H221177   4.465   4.568   1.543
 7078TIP3   OH221178   0.993   6.170   0.981
 7078TIP3    H121179   1.035   6.253   1.003
 7078TIP3    H221180   1.062   6.118   0.940
 7079TIP3   OH221181   2.662   2.140   6.029
 7079TIP3    H121182   2.713   2.059   6.033
 7079TIP3    H221183   2.645   2.153   5.935
 7080TIP3   OH221184   3.198   4.010   5.618
 7080TIP3    H121185   3.165   3.968   5.697
 7080TIP3    H221186   3.165   3.956   5.546
 7081TIP3   OH221187   4.239   5.139   0.835
 7081TIP3    H121188   4.320   5.190   0.833
 7081TIP3    H221189   4.268   5.048   0.822
 7082TIP3   OH221190   1.714   1.005   3.104
 7082TIP3    H121191   1.718   0.915   3.071
 7082TIP3    H221192   1.771   1.005   3.181
 7083TIP3   OH221193   3.833   3.605   2.967
 7083TIP3    H121194   3.751   3.576   3.007
 7083TIP3    H221195   3.899   3.594   3.035
 7084TIP3   OH221196   4.611   6.296   5.279
 7084TIP3    H121197   4.680   6.328   5.221
 7084TIP3    H221198   4.651   6.226   5.329
 7085TIP3   OH221199   3.092   5.541   0.627
 7085TIP3    H121200   3.001   5.540   0.656
 7085TIP3    H221201   3.126   5.625   0.660
 7086TIP3   OH221202   7.427   3.790   0.377
 7086TIP3    H121203   7.385   3.875   0.388
 7086TIP3    H221204   7.370   3.728   0.422
 7087TIP3   OH221205   8.174   1.440   4.956
 7087TIP3    H121206   8.173   1.422   4.862
 7087TIP3    H221207   8.108   1.508   4.969
 7088TIP3   OH221208   4.852   2.913   1.135
 7088TIP3    H121209   4.897   2.851   1.192
 7088TIP3    H221210   4.920   2.944   1.075
 7089TIP3   OH221211   0.640   4.807   6.039
 7089TIP3    H121212   0.564   4.858   6.014
 7089TIP3    H221213   0.637   4.729   5.983
 7090TIP3   OH221214   4.795   5.987   3.280
 7090TIP3    H121215   4.802   6.068   3.230
 7090TIP3    H221216   4.746   6.010   3.359
 7091TIP3   OH221217   4.907   4.157   0.138
 7091TIP3    H121218   4.991   4.136   0.180
 7091TIP3    H221219   4.928   4.168   0.046
 7092TIP3   OH221220   7.921   5.498   1.169
 7092TIP3    H121221   7.934   5.404   1.181
 7092TIP3    H221222   7.934   5.512   1.076
 7093TIP3   OH221223   1.444   1.557   6.420
 7093TIP3    H121224   1.398   1.639   6.404
 7093TIP3    H221225   1.388   1.510   6.483
 7094TIP3   OH221226   0.097   1.609   3.729
 7094TIP3    H121227   0.160   1.660   3.678
 7094TIP3    H221228   0.071   1.667   3.801
 7095TIP3   OH221229   1.039   6.165   4.767
 7095TIP3    H121230   1.100   6.223   4.721
 7095TIP3    H221231   1.092   6.127   4.837
 7096TIP3   OH221232   6.076   5.745   0.999
 7096TIP3    H121233   6.128   5.711   0.926
 7096TIP3    H221234   5.999   5.783   0.957
 7097TIP3   OH221235   2.459   4.056   2.392
 7097TIP3    H121236   2.384   4.025   2.342
 7097TIP3    H221237   2.516   3.979   2.399
 7098TIP3   OH221238   6.490   4.551   4.174
 7098TIP3    H121239   6.461   4.594   4.094
 7098TIP3    H221240   6.576   4.515   4.152
 7099TIP3   OH221241   2.936   2.969   5.571
 7099TIP3    H121242   2.899   3.001   5.654
 7099TIP3    H221243   2.900   3.027   5.505
 7100TIP3   OH221244   8.244   2.918   3.501
 7100TIP3    H121245   8.335   2.948   3.494
 7100TIP3    H221246   8.239   2.878   3.588
 7101TIP3   OH221247   6.631   2.875   3.010
 7101TIP3    H121248   6.676   2.804   2.964
 7101TIP3    H221249   6.677   2.954   2.982
 7102TIP3   OH221250   2.469   7.122   2.575
 7102TIP3    H121251   2.495   7.047   2.520
 7102TIP3    H221252   2.377   7.105   2.596
 7103TIP3   OH221253   0.443   1.690   4.492
 7103TIP3    H121254   0.381   1.753   4.529
 7103TIP3    H221255   0.388   1.626   4.446
 7104TIP3   OH221256   6.451   1.562   0.978
 7104TIP3    H121257   6.368   1.602   0.955
 7104TIP3    H221258   6.513   1.635   0.984
 7105TIP3   OH221259   0.428   0.214   3.647
 7105TIP3    H121260   0.519   0.184   3.650
 7105TIP3    H221261   0.393   0.175   3.567
 7106TIP3   OH221262   0.725   2.011   1.867
 7106TIP3    H121263   0.715   2.040   1.776
 7106TIP3    H221264   0.716   2.090   1.919
 7107TIP3   OH221265   5.495   3.213   0.555
 7107TIP3    H121266   5.421   3.239   0.500
 7107TIP3    H221267   5.464   3.231   0.644
 7108TIP3   OH221268   0.046   0.917   4.806
 7108TIP3    H121269  -0.012   0.855   4.762
 7108TIP3    H221270  -0.011   0.987   4.835
 7109TIP3   OH221271   3.413   6.245   6.742
 7109TIP3    H121272   3.336   6.240   6.798
 7109TIP3    H221273   3.428   6.339   6.730
 7110TIP3   OH221274   0.992   4.993   2.766
 7110TIP3    H121275   0.935   5.067   2.745
 7110TIP3    H221276   0.982   4.982   2.861
 7111TIP3   OH221277   0.907   2.459   4.936
 7111TIP3    H121278   0.885   2.420   5.021
 7111TIP3    H221279   0.857   2.408   4.872
 7112TIP3   OH221280   5.265   3.610   5.230
 7112TIP3    H121281   5.187   3.652   5.266
 7112TIP3    H221282   5.231   3.546   5.167
 7113TIP3   OH221283   1.132   0.625   6.081
 7113TIP3    H121284   1.057   0.574   6.051
 7113TIP3    H221285   1.161   0.580   6.160
 7114TIP3   OH221286   7.123   5.240   0.099
 7114TIP3    H121287   7.196   5.286   0.140
 7114TIP3    H221288   7.072   5.205   0.172
 7115TIP3   OH221289   0.201   7.451   5.422
 7115TIP3    H121290   0.261   7.477   5.353
 7115TIP3    H221291   0.242   7.375   5.463
 7116TIP3   OH221292   0.218   1.829   4.616
 7116TIP3    H121293   0.241   1.772   4.689
 7116TIP3    H221294   0.124   1.846   4.628
 7117TIP3   OH221295   1.892   7.172   4.756
 7117TIP3    H121296   1.984   7.186   4.731
 7117TIP3    H221297   1.880   7.077   4.751
 7118TIP3   OH221298   2.738   6.731   1.252
 7118TIP3    H121299   2.670   6.794   1.276
 7118TIP3    H221300   2.783   6.772   1.178
 7119TIP3   OH221301   7.124   2.109   6.297
 7119TIP3    H121302   7.112   2.079   6.207
 7119TIP3    H221303   7.050   2.167   6.313
 7120TIP3   OH221304   4.661   6.238   5.999
 7120TIP3    H121305   4.618   6.166   6.044
 7120TIP3    H221306   4.618   6.317   6.032
 7121TIP3   OH221307   6.348   3.563   3.177
 7121TIP3    H121308   6.272   3.622   3.185
 7121TIP3    H221309   6.343   3.507   3.254
 7122TIP3   OH221310   0.528   7.266   6.038
 7122TIP3    H121311   0.481   7.189   6.070
 7122TIP3    H221312   0.550   7.245   5.947
 7123TIP3   OH221313   7.127   0.459   5.373
 7123TIP3    H121314   7.154   0.489   5.286
 7123TIP3    H221315   7.201   0.480   5.430
 7124TIP3   OH221316   4.834   2.965   5.783
 7124TIP3    H121317   4.797   2.880   5.807
 7124TIP3    H221318   4.907   2.977   5.844
 7125TIP3   OH221319   8.137   7.604   0.160
 7125TIP3    H121320   8.120   7.679   0.217
 7125TIP3    H221321   8.185   7.542   0.214
 7126TIP3   OH221322   6.182   3.973   0.002
 7126TIP3    H121323   6.125   3.999   0.075
 7126TIP3    H221324   6.262   3.941   0.044
 7127TIP3   OH221325   1.191   4.393   3.452
 7127TIP3    H121326   1.139   4.331   3.503
 7127TIP3    H221327   1.276   4.351   3.444
 7128TIP3   OH221328   1.063   4.401   2.490
 7128TIP3    H121329   1.126   4.372   2.424
 7128TIP3    H221330   1.107   4.471   2.536
 7129TIP3   OH221331   6.914   2.598   1.309
 7129TIP3    H121332   6.893   2.676   1.258
 7129TIP3    H221333   6.924   2.630   1.398
 7130TIP3   OH221334   2.805   2.896   5.071
 7130TIP3    H121335   2.883   2.893   5.126
 7130TIP3    H221336   2.833   2.858   4.988
 7131TIP3   OH221337   2.500   1.343   2.616
 7131TIP3    H121338   2.543   1.371   2.535
 7131TIP3    H221339   2.561   1.280   2.655
 7132TIP3   OH221340   3.983   0.309   0.527
 7132TIP3    H121341   4.042   0.367   0.479
 7132TIP3    H221342   3.999   0.329   0.619
 7133TIP3   OH221343   0.968   2.696   2.125
 7133TIP3    H121344   0.877   2.669   2.116
 7133TIP3    H221345   1.019   2.619   2.099
 7134TIP3   OH221346   5.132   0.127   4.274
 7134TIP3    H121347   5.110   0.163   4.188
 7134TIP3    H221348   5.135   0.204   4.332
 7135TIP3   OH221349   5.942   2.701   1.222
 7135TIP3    H121350   5.879   2.752   1.273
 7135TIP3    H221351   6.027   2.736   1.247
 7136TIP3   OH221352   1.874   5.103   2.187
 7136TIP3    H121353   1.896   5.196   2.181
 7136TIP3    H221354   1.948   5.065   2.233
 7137TIP3   OH221355   1.710   4.065   3.614
 7137TIP3    H121356   1.672   4.096   3.532
 7137TIP3    H221357   1.658   4.107   3.682
 7138TIP3   OH221358   5.087   3.195   5.272
 7138TIP3    H121359   5.000   3.171   5.302
 7138TIP3    H221360   5.147   3.142   5.325
 7139TIP3   OH221361   0.317   7.490   4.497
 7139TIP3    H121362   0.326   7.512   4.590
 7139TIP3    H221363   0.392   7.433   4.478
 7140TIP3   OH221364   1.463   2.488   0.643
 7140TIP3    H121365   1.513   2.528   0.571
 7140TIP3    H221366   1.374   2.524   0.633
 7141TIP3   OH221367   5.504   2.936   2.587
 7141TIP3    H121368   5.479   3.025   2.564
 7141TIP3    H221369   5.448   2.913   2.661
 7142TIP3   OH221370   1.421   1.449   5.219
 7142TIP3    H121371   1.491   1.446   5.285
 7142TIP3    H221372   1.359   1.513   5.253
 7143TIP3   OH221373   6.368   2.042   6.140
 7143TIP3    H121374   6.446   1.990   6.123
 7143TIP3    H221375   6.301   2.006   6.082
 7144TIP3   OH221376   4.383   2.721   3.882
 7144TIP3    H121377   4.316   2.683   3.825
 7144TIP3    H221378   4.377   2.671   3.963
 7145TIP3   OH221379   4.622   3.004   0.062
 7145TIP3    H121380   4.708   2.985   0.101
 7145TIP3    H221381   4.587   2.919   0.038
 7146TIP3   OH221382   3.121   5.145   4.025
 7146TIP3    H121383   3.047   5.195   4.060
 7146TIP3    H221384   3.193   5.163   4.085
 7147TIP3   OH221385   3.614   0.915   2.093
 7147TIP3    H121386   3.533   0.959   2.117
 7147TIP3    H221387   3.585   0.846   2.033
 7148TIP3   OH221388   7.872   4.802   4.279
 7148TIP3    H121389   7.841   4.745   4.349
 7148TIP3    H221390   7.863   4.750   4.199
 7149TIP3   OH221391   1.378   7.059   4.690
 7149TIP3    H121392   1.453   7.107   4.724
 7149TIP3    H221393   1.321   7.047   4.766
 7150TIP3   OH221394   0.891   1.208   3.297
 7150TIP3    H121395   0.863   1.116   3.302
 7150TIP3    H221396   0.859   1.247   3.379
 7151TIP3   OH221397   5.371   0.293   0.056
 7151TIP3    H121398   5.439   0.359   0.040
 7151TIP3    H221399   5.360   0.293   0.151
 7152TIP3   OH221400   0.098   2.473   1.842
 7152TIP3    H121401   0.111   2.400   1.902
 7152TIP3    H221402   0.091   2.550   1.899
 7153TIP3   OH221403   2.948   3.141   0.810
 7153TIP3    H121404   3.003   3.090   0.869
 7153TIP3    H221405   3.008   3.174   0.743
 7154TIP3   OH221406   1.895   3.359   0.914
 7154TIP3    H121407   1.921   3.426   0.851
 7154TIP3    H221408   1.851   3.408   0.985
 7155TIP3   OH221409   1.798   7.010   3.446
 7155TIP3    H121410   1.884   6.967   3.450
 7155TIP3    H221411   1.818   7.104   3.441
 7156TIP3   OH221412   2.528   5.544   3.424
 7156TIP3    H121413   2.527   5.454   3.456
 7156TIP3    H221414   2.504   5.537   3.331
 7157TIP3   OH221415   0.983   6.951   5.283
 7157TIP3    H121416   1.040   6.950   5.360
 7157TIP3    H221417   0.949   6.862   5.277
 7158TIP3   OH221418   1.332   7.628   0.140
 7158TIP3    H121419   1.243   7.598   0.120
 7158TIP3    H221420   1.321   7.718   0.171
 7159TIP3   OH221421   1.147   6.002   0.118
 7159TIP3    H121422   1.150   6.090   0.079
 7159TIP3    H221423   1.057   5.992   0.147
 7160TIP3   OH221424   0.744   1.025   1.878
 7160TIP3    H121425   0.662   1.074   1.873
 7160TIP3    H221426   0.751   0.980   1.794
 7161TIP3   OH221427   2.958   5.319   1.999
 7161TIP3    H121428   3.000   5.404   1.985
 7161TIP3    H221429   2.899   5.333   2.072
 7162TIP3   OH221430   6.020   5.290   3.405
 7162TIP3    H121431   5.955   5.354   3.433
 7162TIP3    H221432   6.035   5.309   3.313
 7163TIP3   OH221433   5.957   6.793   4.423
 7163TIP3    H121434   5.947   6.827   4.334
 7163TIP3    H221435   5.992   6.867   4.473
 7164TIP3   OH221436   6.309   3.634   6.449
 7164TIP3    H121437   6.227   3.628   6.498
 7164TIP3    H221438   6.371   3.581   6.500
 7165TIP3   OH221439   0.652   4.518   3.715
 7165TIP3    H121440   0.743   4.548   3.717
 7165TIP3    H221441   0.654   4.433   3.759
 7166TIP3   OH221442   3.455   4.863   0.036
 7166TIP3    H121443   3.373   4.889   0.077
 7166TIP3    H221444   3.435   4.858  -0.057
 7167TIP3   OH221445   6.025   0.109   1.109
 7167TIP3    H121446   6.000   0.091   1.199
 7167TIP3    H221447   6.121   0.104   1.109
 7168TIP3   OH221448   6.168   4.239   2.708
 7168TIP3    H121449   6.113   4.311   2.675
 7168TIP3    H221450   6.135   4.221   2.795
 7169TIP3   OH221451   4.041   5.304   5.483
 7169TIP3    H121452   4.013   5.374   5.542
 7169TIP3    H221453   4.087   5.242   5.539
 7170TIP3   OH221454   4.726   5.111   1.796
 7170TIP3    H121455   4.773   5.104   1.879
 7170TIP3    H221456   4.753   5.034   1.746
 7171TIP3   OH221457   1.492   5.640   0.047
 7171TIP3    H121458   1.403   5.676   0.046
 7171TIP3    H221459   1.503   5.600  -0.039
 7172TIP3   OH221460   2.664   4.270   2.923
 7172TIP3    H121461   2.629   4.185   2.898
 7172TIP3    H221462   2.740   4.250   2.977
 7173TIP3   OH221463   2.140   2.650   6.512
 7173TIP3    H121464   2.141   2.742   6.538
 7173TIP3    H221465   2.101   2.650   6.424
 7174TIP3   OH221466   4.000   4.907   5.067
 7174TIP3    H121467   3.947   4.964   5.011
 7174TIP3    H221468   3.938   4.843   5.100
 7175TIP3   OH221469   5.619   4.608   5.489
 7175TIP3    H121470   5.660   4.645   5.568
 7175TIP3    H221471   5.651   4.517   5.486
 7176TIP3   OH221472   4.342   1.524   6.364
 7176TIP3    H121473   4.382   1.449   6.408
 7176TIP3    H221474   4.333   1.590   6.433
 7177TIP3   OH221475   1.370   1.542   0.841
 7177TIP3    H121476   1.454   1.508   0.873
 7177TIP3    H221477   1.393   1.592   0.762
 7178TIP3   OH221478   3.782   1.652   4.749
 7178TIP3    H121479   3.800   1.558   4.743
 7178TIP3    H221480   3.701   1.658   4.800
 7179TIP3   OH221481   1.392   5.396   2.610
 7179TIP3    H121482   1.458   5.408   2.678
 7179TIP3    H221483   1.343   5.478   2.611
 7180TIP3   OH221484   6.741   0.810   3.557
 7180TIP3    H121485   6.813   0.827   3.618
 7180TIP3    H221486   6.706   0.725   3.584
 7181TIP3   OH221487   6.443   7.001   4.400
 7181TIP3    H121488   6.375   7.069   4.396
 7181TIP3    H221489   6.516   7.036   4.349
 7182TIP3   OH221490   0.912   0.292   3.516
 7182TIP3    H121491   0.968   0.236   3.569
 7182TIP3    H221492   0.834   0.239   3.498
 7183TIP3   OH221493   2.716   7.131   2.751
 7183TIP3    H121494   2.705   7.083   2.833
 7183TIP3    H221495   2.645   7.194   2.750
 7184TIP3   OH221496   2.757   1.162   1.099
 7184TIP3    H121497   2.845   1.161   1.136
 7184TIP3    H221498   2.728   1.253   1.107
 7185TIP3   OH221499   4.193   0.987   4.707
 7185TIP3    H121500   4.199   1.002   4.613
 7185TIP3    H221501   4.101   0.965   4.722
 7186TIP3   OH221502   2.986   1.073   3.570
 7186TIP3    H121503   3.016   0.986   3.545
 7186TIP3    H221504   3.040   1.096   3.646
 7187TIP3   OH221505   5.811   3.459   1.206
 7187TIP3    H121506   5.732   3.405   1.209
 7187TIP3    H221507   5.780   3.549   1.213
 7188TIP3   OH221508   0.237   3.758   4.743
 7188TIP3    H121509   0.211   3.770   4.834
 7188TIP3    H221510   0.319   3.709   4.748
 7189TIP3   OH221511   7.083   3.432   2.289
 7189TIP3    H121512   6.995   3.394   2.279
 7189TIP3    H221513   7.142   3.363   2.259
 7190TIP3   OH221514   3.367   2.845   3.248
 7190TIP3    H121515   3.452   2.803   3.255
 7190TIP3    H221516   3.343   2.864   3.339
 7191TIP3   OH221517   5.752   6.669   3.643
 7191TIP3    H121518   5.774   6.729   3.571
 7191TIP3    H221519   5.813   6.596   3.633
 7192TIP3   OH221520   1.731   1.642   3.720
 7192TIP3    H121521   1.655   1.655   3.663
 7192TIP3    H221522   1.694   1.637   3.808
 7193TIP3   OH221523   3.584   7.121   4.921
 7193TIP3    H121524   3.654   7.056   4.914
 7193TIP3    H221525   3.609   7.176   4.995
 7194TIP3   OH221526   1.979   5.424   2.508
 7194TIP3    H121527   1.995   5.516   2.532
 7194TIP3    H221528   2.011   5.418   2.418
 7195TIP3   OH221529   2.993   2.380   3.338
 7195TIP3    H121530   3.073   2.425   3.314
 7195TIP3    H221531   2.981   2.313   3.271
 7196TIP3   OH221532   3.429   3.023   2.005
 7196TIP3    H121533   3.475   3.080   2.066
 7196TIP3    H221534   3.498   2.986   1.949
 7197TIP3   OH221535   5.732   6.017   6.074
 7197TIP3    H121536   5.711   6.001   5.981
 7197TIP3    H221537   5.661   6.074   6.104
 7198TIP3   OH221538   5.648   3.809   1.827
 7198TIP3    H121539   5.656   3.725   1.783
 7198TIP3    H221540   5.736   3.847   1.824
 7199TIP3   OH221541   3.589   4.388   3.414
 7199TIP3    H121542   3.629   4.474   3.405
 7199TIP3    H221543   3.596   4.367   3.507
 7200TIP3   OH221544   0.224   5.776   5.949
 7200TIP3    H121545   0.301   5.740   5.994
 7200TIP3    H221546   0.226   5.735   5.863
 7201TIP3   OH221547   0.015   4.037   3.893
 7201TIP3    H121548  -0.079   4.037   3.873
 7201TIP3    H221549   0.039   4.129   3.895
 7202TIP3   OH221550   2.022   2.067   1.337
 7202TIP3    H121551   2.026   1.973   1.322
 7202TIP3    H221552   2.000   2.105   1.252
 7203TIP3   OH221553   7.055   0.323   0.676
 7203TIP3    H121554   7.069   0.395   0.738
 7203TIP3    H221555   6.985   0.271   0.715
 7204TIP3   OH221556   4.446   2.611   0.902
 7204TIP3    H121557   4.425   2.590   0.994
 7204TIP3    H221558   4.528   2.565   0.886
 7205TIP3   OH221559   1.852   6.906   0.430
 7205TIP3    H121560   1.879   6.956   0.353
 7205TIP3    H221561   1.775   6.953   0.464
 7206TIP3   OH221562   1.488   2.913   5.175
 7206TIP3    H121563   1.537   2.958   5.105
 7206TIP3    H221564   1.399   2.905   5.140
 7207TIP3   OH221565   7.291   4.332   5.234
 7207TIP3    H121566   7.256   4.265   5.175
 7207TIP3    H221567   7.386   4.331   5.219
 7208TIP3   OH221568   4.392   5.652   2.947
 7208TIP3    H121569   4.435   5.677   2.865
 7208TIP3    H221570   4.460   5.660   3.014
 7209TIP3   OH221571   6.670   6.563   0.096
 7209TIP3    H121572   6.692   6.656   0.101
 7209TIP3    H221573   6.613   6.548   0.171
 7210TIP3   OH221574   3.252   4.064   0.563
 7210TIP3    H121575   3.237   4.133   0.499
 7210TIP3    H221576   3.206   3.988   0.528
 7211TIP3   OH221577   8.282   1.936   4.250
 7211TIP3    H121578   8.339   1.958   4.176
 7211TIP3    H221579   8.295   2.008   4.312
 7212TIP3   OH221580   4.180   2.047   1.140
 7212TIP3    H121581   4.165   2.066   1.047
 7212TIP3    H221582   4.253   2.104   1.165
 7213TIP3   OH221583   5.584   7.257   5.410
 7213TIP3    H121584   5.503   7.234   5.365
 7213TIP3    H221585   5.616   7.335   5.364
 7214TIP3   OH221586   6.124   6.353   1.965
 7214TIP3    H121587   6.156   6.434   2.005
 7214TIP3    H221588   6.053   6.325   2.022
 7215TIP3   OH221589   7.316   4.951   0.211
 7215TIP3    H121590   7.256   5.015   0.251
 7215TIP3    H221591   7.390   5.003   0.180
 7216TIP3   OH221592   4.130   7.514   5.040
 7216TIP3    H121593   4.119   7.606   5.014
 7216TIP3    H221594   4.185   7.518   5.118
 7217TIP3   OH221595   1.957   0.948   6.327
 7217TIP3    H121596   1.887   1.000   6.365
 7217TIP3    H221597   1.995   0.901   6.401
 7218TIP3   OH221598   0.713   2.112   3.844
 7218TIP3    H121599   0.688   2.124   3.936
 7218TIP3    H221600   0.787   2.052   3.847
 7219TIP3   OH221601   8.263   5.947   0.641
 7219TIP3    H121602   8.181   5.912   0.677
 7219TIP3    H221603   8.237   5.989   0.559
 7220TIP3   OH221604   6.758   0.071   0.465
 7220TIP3    H121605   6.673   0.085   0.507
 7220TIP3    H221606   6.817   0.048   0.536
 7221TIP3   OH221607   1.796   3.694   2.333
 7221TIP3    H121608   1.838   3.712   2.417
 7221TIP3    H221609   1.864   3.712   2.268
 7222TIP3   OH221610   0.854   6.191   5.628
 7222TIP3    H121611   0.800   6.116   5.653
 7222TIP3    H221612   0.839   6.202   5.534
 7223TIP3   OH221613   5.367   1.424   3.375
 7223TIP3    H121614   5.418   1.343   3.382
 7223TIP3    H221615   5.281   1.402   3.410
 7224TIP3   OH221616   0.373   4.230   4.064
 7224TIP3    H121617   0.326   4.252   3.983
 7224TIP3    H221618   0.466   4.238   4.040
 7225TIP3   OH221619   6.836   0.262   6.084
 7225TIP3    H121620   6.844   0.280   6.177
 7225TIP3    H221621   6.748   0.227   6.073
 7226TIP3   OH221622   4.463   7.004   5.301
 7226TIP3    H121623   4.522   7.065   5.345
 7226TIP3    H221624   4.487   7.011   5.208
 7227TIP3   OH221625   4.776   6.656   6.309
 7227TIP3    H121626   4.772   6.568   6.271
 7227TIP3    H221627   4.827   6.707   6.246
 7228TIP3   OH221628   5.224   1.971   5.549
 7228TIP3    H121629   5.250   2.061   5.530
 7228TIP3    H221630   5.175   1.977   5.630
 7229TIP3   OH221631   2.789   0.622   0.730
 7229TIP3    H121632   2.800   0.710   0.693
 7229TIP3    H221633   2.823   0.630   0.819
 7230TIP3   OH221634   2.944   5.037   2.799
 7230TIP3    H121635   3.004   5.024   2.873
 7230TIP3    H221636   3.002   5.057   2.726
 7231TIP3   OH221637   3.647   7.187   6.329
 7231TIP3    H121638   3.599   7.160   6.407
 7231TIP3    H221639   3.649   7.109   6.273
 7232TIP3   OH221640   7.176   0.381   3.981
 7232TIP3    H121641   7.110   0.355   4.047
 7232TIP3    H221642   7.128   0.383   3.899
 7233TIP3   OH221643   8.006   0.468   4.757
 7233TIP3    H121644   8.093   0.504   4.739
 7233TIP3    H221645   8.022   0.379   4.786
 7234TIP3   OH221646   6.630   5.463   4.575
 7234TIP3    H121647   6.666   5.551   4.577
 7234TIP3    H221648   6.544   5.470   4.617
 7235TIP3   OH221649   7.440   5.158   3.697
 7235TIP3    H121650   7.455   5.242   3.739
 7235TIP3    H221651   7.347   5.159   3.674
 7236TIP3   OH221652   6.728   5.137   1.548
 7236TIP3    H121653   6.771   5.089   1.619
 7236TIP3    H221654   6.739   5.229   1.571
 7237TIP3   OH221655   3.269   5.791   1.364
 7237TIP3    H121656   3.304   5.838   1.288
 7237TIP3    H221657   3.248   5.704   1.330
 7238TIP3   OH221658   1.023   6.636   5.539
 7238TIP3    H121659   0.963   6.689   5.487
 7238TIP3    H221660   0.967   6.582   5.594
 7239TIP3   OH221661   2.287   4.698   4.286
 7239TIP3    H121662   2.263   4.696   4.194
 7239TIP3    H221663   2.214   4.657   4.331
 7240TIP3   OH221664   0.112   4.530   5.906
 7240TIP3    H121665   0.186   4.524   5.846
 7240TIP3    H221666   0.141   4.483   5.984
 7241TIP3   OH221667   4.135   6.406   5.881
 7241TIP3    H121668   4.049   6.365   5.890
 7241TIP3    H221669   4.198   6.337   5.904
 7242TIP3   OH221670   6.861   5.429   1.917
 7242TIP3    H121671   6.846   5.506   1.972
 7242TIP3    H221672   6.880   5.358   1.979
 7243TIP3   OH221673   4.712   3.353   5.426
 7243TIP3    H121674   4.668   3.273   5.452
 7243TIP3    H221675   4.774   3.371   5.496
 7244TIP3   OH221676   1.670   7.682   3.537
 7244TIP3    H121677   1.645   7.691   3.630
 7244TIP3    H221678   1.614   7.611   3.505
 7245TIP3   OH221679   5.865   4.296   0.162
 7245TIP3    H121680   5.836   4.206   0.148
 7245TIP3    H221681   5.861   4.308   0.257
 7246TIP3   OH221682   7.797   0.396   3.959
 7246TIP3    H121683   7.776   0.325   4.019
 7246TIP3    H221684   7.772   0.475   4.005
 7247TIP3   OH221685   1.362   7.039   3.215
 7247TIP3    H121686   1.271   7.011   3.225
 7247TIP3    H221687   1.406   7.006   3.292
 7248TIP3   OH221688   8.189   6.226   3.405
 7248TIP3    H121689   8.279   6.197   3.388
 7248TIP3    H221690   8.138   6.191   3.332
 7249TIP3   OH221691   2.602   1.457   0.441
 7249TIP3    H121692   2.623   1.541   0.481
 7249TIP3    H221693   2.513   1.468   0.408
 7250TIP3   OH221694   7.349   4.443   5.928
 7250TIP3    H121695   7.407   4.402   5.992
 7250TIP3    H221696   7.398   4.441   5.846
 7251TIP3   OH221697   4.553   4.526   5.012
 7251TIP3    H121698   4.513   4.522   4.925
 7251TIP3    H221699   4.512   4.454   5.060
 7252TIP3   OH221700   5.037   7.269   3.357
 7252TIP3    H121701   5.038   7.226   3.271
 7252TIP3    H221702   5.010   7.201   3.418
 7253TIP3   OH221703   0.706   1.413   1.872
 7253TIP3    H121704   0.654   1.334   1.859
 7253TIP3    H221705   0.671   1.451   1.953
 7254TIP3   OH221706   0.533   0.095   2.249
 7254TIP3    H121707   0.558   0.134   2.332
 7254TIP3    H221708   0.456   0.041   2.270
 7255TIP3   OH221709   7.944   2.726   2.902
 7255TIP3    H121710   8.004   2.781   2.853
 7255TIP3    H221711   7.950   2.759   2.992
 7256TIP3   OH221712   6.570   6.156   0.384
 7256TIP3    H121713   6.612   6.078   0.421
 7256TIP3    H221714   6.480   6.153   0.416
 7257TIP3   OH221715   6.956   4.403   0.555
 7257TIP3    H121716   6.881   4.449   0.517
 7257TIP3    H221717   6.942   4.311   0.532
 7258TIP3   OH221718   7.990   0.564   0.968
 7258TIP3    H121719   8.039   0.606   1.038
 7258TIP3    H221720   7.943   0.492   1.010
 7259TIP3   OH221721   0.439   5.633   2.522
 7259TIP3    H121722   0.423   5.552   2.570
 7259TIP3    H221723   0.420   5.703   2.584
 7260TIP3   OH221724   0.619   5.468   5.478
 7260TIP3    H121725   0.638   5.413   5.402
 7260TIP3    H221726   0.611   5.406   5.550
 7261TIP3   OH221727   7.623   6.041   5.807
 7261TIP3    H121728   7.641   5.988   5.729
 7261TIP3    H221729   7.578   5.980   5.867
 7262TIP3   OH221730   2.405   4.563   4.895
 7262TIP3    H121731   2.402   4.611   4.812
 7262TIP3    H221732   2.491   4.585   4.932
 7263TIP3   OH221733   6.864   3.294   5.169
 7263TIP3    H121734   6.798   3.363   5.158
 7263TIP3    H221735   6.919   3.325   5.240
 7264TIP3   OH221736   2.277   1.376   3.610
 7264TIP3    H121737   2.265   1.330   3.693
 7264TIP3    H221738   2.227   1.457   3.620
 7265TIP3   OH221739   2.066   2.755   5.662
 7265TIP3    H121740   2.155   2.769   5.629
 7265TIP3    H221741   2.076   2.688   5.730
 7266TIP3   OH221742   7.094   4.314   1.451
 7266TIP3    H121743   7.123   4.397   1.413
 7266TIP3    H221744   6.998   4.316   1.441
 7267TIP3   OH221745   7.843   6.091   6.321
 7267TIP3    H121746   7.856   6.149   6.246
 7267TIP3    H221747   7.874   6.006   6.291
 7268TIP3   OH221748   1.265   3.824   1.783
 7268TIP3    H121749   1.196   3.885   1.807
 7268TIP3    H221750   1.327   3.875   1.732
 7269TIP3   OH221751   2.747   4.348   4.851
 7269TIP3    H121752   2.674   4.293   4.825
 7269TIP3    H221753   2.823   4.289   4.851
 7270TIP3   OH221754   6.125   7.093   0.837
 7270TIP3    H121755   6.083   7.026   0.782
 7270TIP3    H221756   6.062   7.165   0.839
 7271TIP3   OH221757   0.433   5.525   2.790
 7271TIP3    H121758   0.444   5.440   2.833
 7271TIP3    H221759   0.442   5.588   2.861
 7272TIP3   OH221760   5.674   7.732   6.695
 7272TIP3    H121761   5.725   7.772   6.624
 7272TIP3    H221762   5.657   7.643   6.665
 7273TIP3   OH221763   1.047   6.309   4.263
 7273TIP3    H121764   0.971   6.256   4.288
 7273TIP3    H221765   1.033   6.327   4.170
 7274TIP3   OH221766   3.237   0.047   6.130
 7274TIP3    H121767   3.264   0.119   6.187
 7274TIP3    H221768   3.159   0.011   6.172
 7275TIP3   OH221769   7.855   2.399   1.614
 7275TIP3    H121770   7.765   2.411   1.582
 7275TIP3    H221771   7.851   2.318   1.666
 7276TIP3   OH221772   1.593   7.115   2.980
 7276TIP3    H121773   1.544   7.077   2.907
 7276TIP3    H221774   1.532   7.117   3.053
 7277TIP3   OH221775   7.719   5.104   2.581
 7277TIP3    H121776   7.778   5.106   2.505
 7277TIP3    H221777   7.754   5.170   2.640
 7278TIP3   OH221778   0.424   1.628   2.287
 7278TIP3    H121779   0.401   1.636   2.379
 7278TIP3    H221780   0.497   1.689   2.275
 7279TIP3   OH221781   0.837   6.364   1.955
 7279TIP3    H121782   0.912   6.422   1.945
 7279TIP3    H221783   0.816   6.336   1.866
 7280TIP3   OH221784   6.917   4.445   2.961
 7280TIP3    H121785   6.984   4.439   2.892
 7280TIP3    H221786   6.877   4.358   2.962
 7281TIP3   OH221787   6.125   3.645   3.418
 7281TIP3    H121788   6.173   3.721   3.449
 7281TIP3    H221789   6.181   3.570   3.440
 7282TIP3   OH221790   2.732   1.649   2.659
 7282TIP3    H121791   2.759   1.617   2.745
 7282TIP3    H221792   2.637   1.656   2.665
 7283TIP3   OH221793   8.275   0.936   3.172
 7283TIP3    H121794   8.301   1.026   3.156
 7283TIP3    H221795   8.303   0.918   3.262
 7284TIP3   OH221796   8.003   0.885   2.362
 7284TIP3    H121797   7.953   0.803   2.367
 7284TIP3    H221798   8.014   0.911   2.453
 7285TIP3   OH221799   1.586   0.650   1.882
 7285TIP3    H121800   1.522   0.595   1.926
 7285TIP3    H221801   1.595   0.727   1.938
 7286TIP3   OH221802   3.492   5.651   4.901
 7286TIP3    H121803   3.512   5.597   4.978
 7286TIP3    H221804   3.517   5.597   4.826
 7287TIP3   OH221805   3.835   1.836   0.957
 7287TIP3    H121806   3.864   1.921   0.925
 7287TIP3    H221807   3.790   1.855   1.039
 7288TIP3   OH221808   4.627   4.403   4.550
 7288TIP3    H121809   4.619   4.489   4.508
 7288TIP3    H221810   4.721   4.384   4.548
 7289TIP3   OH221811   2.103   5.204   4.572
 7289TIP3    H121812   2.137   5.257   4.644
 7289TIP3    H221813   2.173   5.204   4.506
 7290TIP3   OH221814   1.520   5.099   5.044
 7290TIP3    H121815   1.612   5.111   5.066
 7290TIP3    H221816   1.498   5.176   4.991
 7291TIP3   OH221817   0.895   4.177   3.152
 7291TIP3    H121818   0.832   4.228   3.204
 7291TIP3    H221819   0.892   4.089   3.190
 7292TIP3   OH221820   6.003   6.042   1.926
 7292TIP3    H121821   5.998   5.948   1.944
 7292TIP3    H221822   5.958   6.083   1.999
 7293TIP3   OH221823   8.306   7.413   1.347
 7293TIP3    H121824   8.381   7.466   1.321
 7293TIP3    H221825   8.241   7.427   1.279
 7294TIP3   OH221826   1.009   3.872   2.778
 7294TIP3    H121827   0.948   3.946   2.765
 7294TIP3    H221828   1.093   3.905   2.748
 7295TIP3   OH221829   1.771   5.028   1.327
 7295TIP3    H121830   1.852   5.078   1.334
 7295TIP3    H221831   1.707   5.091   1.293
 7296TIP3   OH221832   6.935   6.185   1.432
 7296TIP3    H121833   6.948   6.105   1.482
 7296TIP3    H221834   6.989   6.250   1.476
 7297TIP3   OH221835   0.697   5.467   1.256
 7297TIP3    H121836   0.660   5.554   1.270
 7297TIP3    H221837   0.631   5.407   1.290
 7298TIP3   OH221838   6.376   6.270   6.270
 7298TIP3    H121839   6.396   6.341   6.331
 7298TIP3    H221840   6.286   6.246   6.291
 7299TIP3   OH221841   6.975   6.054   4.227
 7299TIP3    H121842   6.920   6.132   4.239
 7299TIP3    H221843   7.060   6.089   4.200
 7300TIP3   OH221844   2.443   1.418   5.390
 7300TIP3    H121845   2.455   1.329   5.359
 7300TIP3    H221846   2.456   1.413   5.485
 7301TIP3   OH221847   0.301   3.773   1.917
 7301TIP3    H121848   0.316   3.775   2.012
 7301TIP3    H221849   0.238   3.844   1.902
 7302TIP3   OH221850   1.524   6.037   3.901
 7302TIP3    H121851   1.588   6.033   3.830
 7302TIP3    H221852   1.574   6.014   3.979
 7303TIP3   OH221853   0.713   5.473   2.755
 7303TIP3    H121854   0.740   5.489   2.845
 7303TIP3    H221855   0.622   5.502   2.752
 7304TIP3   OH221856   0.586   3.220   6.237
 7304TIP3    H121857   0.491   3.231   6.237
 7304TIP3    H221858   0.603   3.152   6.172
 7305TIP3   OH221859   0.578   5.311   0.900
 7305TIP3    H121860   0.492   5.318   0.857
 7305TIP3    H221861   0.570   5.366   0.978
 7306TIP3   OH221862   4.954   6.177   4.727
 7306TIP3    H121863   4.980   6.208   4.640
 7306TIP3    H221864   4.859   6.190   4.730
 7307TIP3   OH221865   5.681   3.454   4.962
 7307TIP3    H121866   5.769   3.418   4.973
 7307TIP3    H221867   5.657   3.487   5.049
 7308TIP3   OH221868   5.290   0.262   6.438
 7308TIP3    H121869   5.338   0.186   6.471
 7308TIP3    H221870   5.276   0.242   6.345
 7309TIP3   OH221871   1.147   0.554   1.367
 7309TIP3    H121872   1.118   0.632   1.319
 7309TIP3    H221873   1.066   0.513   1.396
 7310TIP3   OH221874   5.735   6.383   6.196
 7310TIP3    H121875   5.696   6.466   6.225
 7310TIP3    H221876   5.662   6.321   6.195
 7311TIP3   OH221877   6.462   4.404   3.721
 7311TIP3    H121878   6.550   4.440   3.725
 7311TIP3    H221879   6.467   4.322   3.769
 7312TIP3   OH221880   5.827   3.128   6.604
 7312TIP3    H121881   5.754   3.159   6.550
 7312TIP3    H221882   5.792   3.054   6.652
 7313TIP3   OH221883   1.774   0.033   2.189
 7313TIP3    H121884   1.762   0.121   2.225
 7313TIP3    H221885   1.686   0.007   2.162
 7314TIP3   OH221886   3.090   5.241   5.707
 7314TIP3    H121887   3.155   5.283   5.763
 7314TIP3    H221888   3.086   5.297   5.629
 7315TIP3   OH221889   6.609   4.081   4.183
 7315TIP3    H121890   6.563   4.155   4.142
 7315TIP3    H221891   6.667   4.121   4.247
 7316TIP3   OH221892   2.682   5.102   0.095
 7316TIP3    H121893   2.720   5.182   0.130
 7316TIP3    H221894   2.757   5.053   0.059
 7317TIP3   OH221895   6.049   0.991   5.271
 7317TIP3    H121896   6.002   1.025   5.195
 7317TIP3    H221897   6.009   1.035   5.346
 7318TIP3   OH221898   2.834   6.959   5.573
 7318TIP3    H121899   2.740   6.950   5.562
 7318TIP3    H221900   2.850   7.054   5.569
 7319TIP3   OH221901   5.681   5.974   4.511
 7319TIP3    H121902   5.658   5.979   4.418
 7319TIP3    H221903   5.653   5.886   4.538
 7320TIP3   OH221904   6.671   3.047   0.121
 7320TIP3    H121905   6.712   3.130   0.147
 7320TIP3    H221906   6.705   2.983   0.184
 7321TIP3   OH221907   3.028   7.390   1.391
 7321TIP3    H121908   3.108   7.431   1.357
 7321TIP3    H221909   3.056   7.345   1.470
 7322TIP3   OH221910   7.526   4.786   5.894
 7322TIP3    H121911   7.499   4.825   5.977
 7322TIP3    H221912   7.510   4.854   5.829
 7323TIP3   OH221913   2.698   5.447   5.054
 7323TIP3    H121914   2.705   5.541   5.066
 7323TIP3    H221915   2.785   5.420   5.024
 7324TIP3   OH221916   4.494   5.291   6.211
 7324TIP3    H121917   4.477   5.302   6.117
 7324TIP3    H221918   4.559   5.357   6.232
 7325TIP3   OH221919   0.734   6.398   6.109
 7325TIP3    H121920   0.661   6.371   6.053
 7325TIP3    H221921   0.760   6.484   6.075
 7326TIP3   OH221922   0.525   0.071   5.550
 7326TIP3    H121923   0.518  -0.014   5.506
 7326TIP3    H221924   0.436   0.092   5.577
 7327TIP3   OH221925   0.793   1.497   0.793
 7327TIP3    H121926   0.839   1.478   0.875
 7327TIP3    H221927   0.726   1.428   0.787
 7328TIP3   OH221928   7.251   2.916   5.835
 7328TIP3    H121929   7.192   2.963   5.776
 7328TIP3    H221930   7.299   2.985   5.881
 7329TIP3   OH221931   0.562   4.565   0.188
 7329TIP3    H121932   0.602   4.592   0.271
 7329TIP3    H221933   0.538   4.647   0.145
 7330TIP3   OH221934   6.954   3.750   6.486
 7330TIP3    H121935   6.867   3.710   6.488
 7330TIP3    H221936   6.967   3.773   6.394
 7331TIP3   OH221937   6.360   0.871   3.309
 7331TIP3    H121938   6.293   0.854   3.375
 7331TIP3    H221939   6.363   0.792   3.256
 7332TIP3   OH221940   4.478   2.877   2.789
 7332TIP3    H121941   4.398   2.888   2.737
 7332TIP3    H221942   4.538   2.831   2.731
 7333TIP3   OH221943   6.611   4.130   5.632
 7333TIP3    H121944   6.594   4.164   5.720
 7333TIP3    H221945   6.684   4.182   5.600
 7334TIP3   OH221946   3.090   1.406   5.556
 7334TIP3    H121947   3.050   1.476   5.504
 7334TIP3    H221948   3.172   1.444   5.587
 7335TIP3   OH221949   5.192   7.195   4.251
 7335TIP3    H121950   5.268   7.254   4.245
 7335TIP3    H221951   5.166   7.198   4.343
 7336TIP3   OH221952   0.136   3.567   5.764
 7336TIP3    H121953   0.137   3.521   5.848
 7336TIP3    H221954   0.203   3.635   5.773
 7337TIP3   OH221955   0.335   3.485   5.309
 7337TIP3    H121956   0.293   3.468   5.393
 7337TIP3    H221957   0.428   3.472   5.325
 7338TIP3   OH221958   6.510   4.853   6.550
 7338TIP3    H121959   6.542   4.803   6.474
 7338TIP3    H221960   6.589   4.894   6.586
 7339TIP3   OH221961   2.521   3.575   0.678
 7339TIP3    H121962   2.614   3.594   0.666
 7339TIP3    H221963   2.477   3.657   0.659
 7340TIP3   OH221964   5.502   4.673   6.256
 7340TIP3    H121965   5.568   4.705   6.317
 7340TIP3    H221966   5.490   4.581   6.279
 7341TIP3   OH221967   4.570   6.671   5.990
 7341TIP3    H121968   4.571   6.761   6.022
 7341TIP3    H221969   4.569   6.680   5.894
 7342TIP3   OH221970   7.624   5.813   4.344
 7342TIP3    H121971   7.607   5.901   4.377
 7342TIP3    H221972   7.698   5.824   4.284
 7343TIP3   OH221973   6.401   6.226   0.883
 7343TIP3    H121974   6.362   6.210   0.969
 7343TIP3    H221975   6.432   6.316   0.887
 7344TIP3   OH221976   2.246   1.020   0.597
 7344TIP3    H121977   2.252   0.985   0.686
 7344TIP3    H221978   2.333   1.053   0.578
 7345TIP3   OH221979   1.202   5.388   5.554
 7345TIP3    H121980   1.230   5.464   5.605
 7345TIP3    H221981   1.225   5.410   5.464
 7346TIP3   OH221982   2.693   5.686   3.778
 7346TIP3    H121983   2.622   5.733   3.821
 7346TIP3    H221984   2.726   5.625   3.844
 7347TIP3   OH221985   2.835   6.534   0.942
 7347TIP3    H121986   2.790   6.451   0.924
 7347TIP3    H221987   2.849   6.573   0.856
 7348TIP3   OH221988   3.634   6.732   4.769
 7348TIP3    H121989   3.692   6.758   4.841
 7348TIP3    H221990   3.681   6.661   4.725
 7349TIP3   OH221991   7.900   3.413   4.058
 7349TIP3    H121992   7.937   3.492   4.098
 7349TIP3    H221993   7.847   3.445   3.985
 7350TIP3   OH221994   3.998   3.985   1.826
 7350TIP3    H121995   3.906   3.956   1.827
 7350TIP3    H221996   4.046   3.909   1.794
 7351TIP3   OH221997   7.041   3.297   0.721
 7351TIP3    H121998   7.129   3.299   0.759
 7351TIP3    H221999   7.032   3.381   0.677
 7352TIP3   OH222000   7.208   1.286   1.695
 7352TIP3    H122001   7.150   1.212   1.672
 7352TIP3    H222002   7.148   1.360   1.707
 7353TIP3   OH222003   5.892   0.906   3.001
 7353TIP3    H122004   5.847   0.824   3.019
 7353TIP3    H222005   5.946   0.888   2.924
 7354TIP3   OH222006   1.364   3.049   6.697
 7354TIP3    H122007   1.453   3.075   6.673
 7354TIP3    H222008   1.364   2.954   6.688
 7355TIP3   OH222009   5.745   6.642   4.829
 7355TIP3    H122010   5.821   6.599   4.790
 7355TIP3    H222011   5.715   6.703   4.762
 7356TIP3   OH222012   2.437   2.069   5.792
 7356TIP3    H122013   2.506   2.002   5.797
 7356TIP3    H222014   2.368   2.036   5.850
 7357TIP3   OH222015   5.926   7.677   2.822
 7357TIP3    H122016   5.990   7.747   2.833
 7357TIP3    H222017   5.926   7.630   2.905
 7358TIP3   OH222018   5.993   1.125   2.603
 7358TIP3    H122019   5.916   1.121   2.660
 7358TIP3    H222020   6.026   1.035   2.602
 7359TIP3   OH222021   2.528   4.128   1.985
 7359TIP3    H122022   2.502   4.036   1.990
 7359TIP3    H222023   2.447   4.177   1.994
 7360TIP3   OH222024   3.551   5.518   4.668
 7360TIP3    H122025   3.561   5.582   4.597
 7360TIP3    H222026   3.635   5.474   4.673
 7361TIP3   OH222027   7.220   3.246   4.099
 7361TIP3    H122028   7.192   3.204   4.181
 7361TIP3    H222029   7.171   3.201   4.031
 7362TIP3   OH222030   7.735   0.824   6.485
 7362TIP3    H122031   7.646   0.801   6.509
 7362TIP3    H222032   7.789   0.789   6.556
 7363TIP3   OH222033   4.295   7.225   4.190
 7363TIP3    H122034   4.322   7.166   4.261
 7363TIP3    H222035   4.203   7.202   4.175
 7364TIP3   OH222036   5.840   3.658   2.139
 7364TIP3    H122037   5.808   3.636   2.227
 7364TIP3    H222038   5.910   3.721   2.155
 7365TIP3   OH222039   2.817   4.201   4.329
 7365TIP3    H122040   2.782   4.169   4.246
 7365TIP3    H222041   2.747   4.256   4.364
 7366TIP3   OH222042   5.628   7.031   0.962
 7366TIP3    H122043   5.658   6.988   1.042
 7366TIP3    H222044   5.708   7.064   0.922
 7367TIP3   OH222045   3.324   4.276   4.439
 7367TIP3    H122046   3.303   4.184   4.458
 7367TIP3    H222047   3.280   4.325   4.508
 7368TIP3   OH222048   6.705   2.126   4.500
 7368TIP3    H122049   6.705   2.048   4.444
 7368TIP3    H222050   6.622   2.169   4.483
 7369TIP3   OH222051   0.946   3.312   0.115
 7369TIP3    H122052   0.909   3.361   0.189
 7369TIP3    H222053   1.039   3.304   0.136
 7370TIP3   OH222054   5.217   3.153   0.264
 7370TIP3    H122055   5.238   3.217   0.332
 7370TIP3    H222056   5.195   3.074   0.313
 7371TIP3   OH222057   4.070   0.361   0.805
 7371TIP3    H122058   3.989   0.361   0.857
 7371TIP3    H222059   4.132   0.412   0.857
 7372TIP3   OH222060   3.563   0.375   4.961
 7372TIP3    H122061   3.575   0.324   4.881
 7372TIP3    H222062   3.518   0.454   4.932
 7373TIP3   OH222063   1.165   4.839   0.312
 7373TIP3    H122064   1.248   4.886   0.322
 7373TIP3    H222065   1.183   4.772   0.245
 7374TIP3   OH222066   5.929   2.806   5.848
 7374TIP3    H122067   5.895   2.886   5.809
 7374TIP3    H222068   5.906   2.737   5.786
 7375TIP3   OH222069   5.511   0.902   4.299
 7375TIP3    H122070   5.420   0.888   4.273
 7375TIP3    H222071   5.521   0.852   4.380
 7376TIP3   OH222072   1.542   7.728   3.184
 7376TIP3    H122073   1.447   7.731   3.191
 7376TIP3    H222074   1.574   7.782   3.256
 7377TIP3   OH222075   2.055   4.109   3.768
 7377TIP3    H122076   2.081   4.038   3.826
 7377TIP3    H222077   1.993   4.070   3.707
 7378TIP3   OH222078   2.142   6.218   1.163
 7378TIP3    H122079   2.196   6.181   1.093
 7378TIP3    H222080   2.190   6.198   1.243
 7379TIP3   OH222081   2.300   4.670   4.018
 7379TIP3    H122082   2.240   4.672   3.943
 7379TIP3    H222083   2.382   4.703   3.983
 7380TIP3   OH222084   6.632   5.691   3.320
 7380TIP3    H122085   6.647   5.673   3.413
 7380TIP3    H222086   6.718   5.682   3.280
 7381TIP3   OH222087   5.456   5.395   0.024
 7381TIP3    H122088   5.375   5.424  -0.018
 7381TIP3    H222089   5.522   5.457  -0.006
 7382TIP3   OH222090   1.727   7.004   4.438
 7382TIP3    H122091   1.803   6.997   4.379
 7382TIP3    H222092   1.738   7.088   4.482
 7383TIP3   OH222093   6.082   0.847   1.838
 7383TIP3    H122094   6.131   0.910   1.785
 7383TIP3    H222095   6.060   0.776   1.777
 7384TIP3   OH222096   0.449   3.892   2.257
 7384TIP3    H122097   0.365   3.862   2.224
 7384TIP3    H222098   0.430   3.927   2.344
 7385TIP3   OH222099   0.525   5.470   3.687
 7385TIP3    H122100   0.550   5.387   3.647
 7385TIP3    H222101   0.534   5.534   3.617
 7386TIP3   OH222102   7.398   3.348   6.610
 7386TIP3    H122103   7.314   3.391   6.622
 7386TIP3    H222104   7.411   3.343   6.516
 7387TIP3   OH222105   1.804   1.150   2.337
 7387TIP3    H122106   1.796   1.241   2.308
 7387TIP3    H222107   1.843   1.155   2.424
 7388TIP3   OH222108   7.013   0.674   0.019
 7388TIP3    H122109   6.983   0.738   0.084
 7388TIP3    H222110   7.105   0.695   0.006
 7389TIP3   OH222111   6.932   5.874   6.566
 7389TIP3    H122112   6.978   5.790   6.572
 7389TIP3    H222113   6.997   5.934   6.529
 7390TIP3   OH222114   3.398   0.939   6.333
 7390TIP3    H122115   3.423   1.015   6.386
 7390TIP3    H222116   3.308   0.919   6.359
 7391TIP3   OH222117   6.029   2.307   1.390
 7391TIP3    H122118   6.112   2.350   1.368
 7391TIP3    H222119   5.963   2.359   1.345
 7392TIP3   OH222120   1.399   2.783   3.435
 7392TIP3    H122121   1.378   2.754   3.524
 7392TIP3    H222122   1.322   2.833   3.407
 7393TIP3   OH222123   1.552   5.673   4.504
 7393TIP3    H122124   1.495   5.650   4.430
 7393TIP3    H222125   1.492   5.692   4.576
 7394TIP3   OH222126   7.999   4.899   5.913
 7394TIP3    H122127   7.935   4.831   5.937
 7394TIP3    H222128   7.976   4.923   5.823
 7395TIP3   OH222129   6.795   3.632   1.136
 7395TIP3    H122130   6.830   3.644   1.224
 7395TIP3    H222131   6.711   3.588   1.150
 7396TIP3   OH222132   0.063   4.277   1.985
 7396TIP3    H122133   0.074   4.328   2.065
 7396TIP3    H222134   0.042   4.342   1.917
 7397TIP3   OH222135   1.547   3.788   4.252
 7397TIP3    H122136   1.619   3.835   4.295
 7397TIP3    H222137   1.515   3.727   4.317
 7398TIP3   OH222138   0.857   6.835   6.494
 7398TIP3    H122139   0.843   6.764   6.557
 7398TIP3    H222140   0.919   6.894   6.537
 7399TIP3   OH222141   5.508   1.732   1.217
 7399TIP3    H122142   5.515   1.796   1.147
 7399TIP3    H222143   5.428   1.682   1.197
 7400TIP3   OH222144   6.789   1.964   3.552
 7400TIP3    H122145   6.841   1.986   3.629
 7400TIP3    H222146   6.821   2.024   3.484
 7401TIP3   OH222147   0.336   1.970   5.967
 7401TIP3    H122148   0.349   2.004   5.878
 7401TIP3    H222149   0.393   1.894   5.972
 7402TIP3   OH222150   8.227   0.597   3.080
 7402TIP3    H122151   8.229   0.529   3.013
 7402TIP3    H222152   8.167   0.663   3.047
 7403TIP3   OH222153   0.585   5.165   4.935
 7403TIP3    H122154   0.672   5.184   4.971
 7403TIP3    H222155   0.525   5.186   5.007
 7404TIP3   OH222156   5.938   0.683   0.973
 7404TIP3    H122157   5.935   0.645   1.061
 7404TIP3    H222158   5.857   0.655   0.932
 7405TIP3   OH222159   6.303   0.252   4.396
 7405TIP3    H122160   6.361   0.327   4.394
 7405TIP3    H222161   6.344   0.191   4.457
 7406TIP3   OH222162   1.558   2.343   2.211
 7406TIP3    H122163   1.584   2.391   2.132
 7406TIP3    H222164   1.574   2.404   2.283
 7407TIP3   OH222165   6.499   1.626   0.541
 7407TIP3    H122166   6.571   1.620   0.605
 7407TIP3    H222167   6.465   1.715   0.553
 7408TIP3   OH222168   7.885   7.554   0.585
 7408TIP3    H122169   7.801   7.600   0.581
 7408TIP3    H222170   7.863   7.463   0.565
 7409TIP3   OH222171   7.495   1.154   1.231
 7409TIP3    H122172   7.408   1.183   1.256
 7409TIP3    H222173   7.481   1.068   1.190
 7410TIP3   OH222174   1.098   0.122   3.358
 7410TIP3    H122175   1.118   0.204   3.314
 7410TIP3    H222176   1.042   0.147   3.432
 7411TIP3   OH222177   1.248   1.910   5.037
 7411TIP3    H122178   1.244   1.999   5.003
 7411TIP3    H222179   1.163   1.897   5.080
 7412TIP3   OH222180   5.723   0.977   1.789
 7412TIP3    H122181   5.662   1.044   1.819
 7412TIP3    H222182   5.783   1.023   1.730
 7413TIP3   OH222183   1.854   0.820   2.832
 7413TIP3    H122184   1.901   0.856   2.907
 7413TIP3    H222185   1.876   0.726   2.833
 7414TIP3   OH222186   0.116   0.959   3.426
 7414TIP3    H122187   0.115   1.012   3.505
 7414TIP3    H222188   0.192   0.990   3.377
 7415TIP3   OH222189   5.615   6.913   1.300
 7415TIP3    H122190   5.588   6.848   1.236
 7415TIP3    H222191   5.708   6.895   1.316
 7416TIP3   OH222192   1.624   3.978   4.482
 7416TIP3    H122193   1.565   4.041   4.524
 7416TIP3    H222194   1.711   4.013   4.498
 7417TIP3   OH222195   1.898   3.256   3.784
 7417TIP3    H122196   1.827   3.205   3.744
 7417TIP3    H222197   1.899   3.227   3.875
 7418TIP3   OH222198   5.148   3.689   0.260
 7418TIP3    H122199   5.081   3.733   0.208
 7418TIP3    H222200   5.183   3.622   0.202
 7419TIP3   OH222201   6.460   4.362   3.422
 7419TIP3    H122202   6.521   4.434   3.406
 7419TIP3    H222203   6.465   4.347   3.517
 7420TIP3   OH222204   7.340   7.477   2.826
 7420TIP3    H122205   7.405   7.455   2.760
 7420TIP3    H222206   7.322   7.571   2.812
 7421TIP3   OH222207   2.237   7.390   1.369
 7421TIP3    H122208   2.284   7.385   1.453
 7421TIP3    H222209   2.304   7.378   1.303
 7422TIP3   OH222210   3.573   7.543   5.347
 7422TIP3    H122211   3.579   7.494   5.429
 7422TIP3    H222212   3.488   7.520   5.311
 7423TIP3   OH222213   5.707   4.621   5.079
 7423TIP3    H122214   5.773   4.689   5.092
 7423TIP3    H222215   5.642   4.661   5.022
 7424TIP3   OH222216   1.037   6.903   4.953
 7424TIP3    H122217   0.970   6.921   4.886
 7424TIP3    H222218   1.019   6.813   4.980
 7425TIP3   OH222219   0.323   0.149   5.704
 7425TIP3    H122220   0.348   0.201   5.780
 7425TIP3    H222221   0.300   0.064   5.739
 7426TIP3   OH222222   3.988   3.932   1.481
 7426TIP3    H122223   3.914   3.957   1.425
 7426TIP3    H222224   4.038   4.013   1.491
 7427TIP3   OH222225   6.304   4.980   0.747
 7427TIP3    H122226   6.248   4.941   0.814
 7427TIP3    H222227   6.248   5.043   0.702
 7428TIP3   OH222228   5.990   5.592   2.450
 7428TIP3    H122229   5.971   5.588   2.357
 7428TIP3    H222230   5.967   5.681   2.476
 7429TIP3   OH222231   5.082   6.712   0.953
 7429TIP3    H122232   5.091   6.798   0.993
 7429TIP3    H222233   5.052   6.730   0.864
 7430TIP3   OH222234   4.828   3.216   3.608
 7430TIP3    H122235   4.818   3.283   3.540
 7430TIP3    H222236   4.919   3.223   3.635
 7431TIP3   OH222237   7.117   1.953   0.091
 7431TIP3    H122238   7.070   2.000   0.160
 7431TIP3    H222239   7.197   2.004   0.077
 7432TIP3   OH222240   1.591   5.210   1.207
 7432TIP3    H122241   1.535   5.203   1.130
 7432TIP3    H222242   1.577   5.299   1.239
 7433TIP3   OH222243   7.781   2.870   3.556
 7433TIP3    H122244   7.810   2.794   3.607
 7433TIP3    H222245   7.686   2.860   3.550
 7434TIP3   OH222246   7.794   5.644   3.859
 7434TIP3    H122247   7.835   5.612   3.778
 7434TIP3    H222248   7.856   5.620   3.928
 7435TIP3   OH222249   1.358   3.860   3.004
 7435TIP3    H122250   1.346   3.906   2.922
 7435TIP3    H222251   1.307   3.780   2.995
 7436TIP3   OH222252   2.696   0.504   5.416
 7436TIP3    H122253   2.694   0.577   5.478
 7436TIP3    H222254   2.773   0.521   5.362
 7437TIP3   OH222255   5.163   4.356   6.678
 7437TIP3    H122256   5.186   4.362   6.585
 7437TIP3    H222257   5.233   4.404   6.723
 7438TIP3   OH222258   0.345   2.535   6.276
 7438TIP3    H122259   0.429   2.539   6.231
 7438TIP3    H222260   0.297   2.465   6.231
 7439TIP3   OH222261   5.979   3.595   6.790
 7439TIP3    H122262   5.977   3.659   6.719
 7439TIP3    H222263   5.999   3.512   6.747
 7440TIP3   OH222264   3.039   5.709   4.873
 7440TIP3    H122265   3.012   5.629   4.916
 7440TIP3    H222266   3.122   5.734   4.915
 7441TIP3   OH222267   4.938   4.440   2.774
 7441TIP3    H122268   4.938   4.473   2.864
 7441TIP3    H222269   4.853   4.467   2.739
 7442TIP3   OH222270   3.954   2.919   2.819
 7442TIP3    H122271   3.950   2.882   2.730
 7442TIP3    H222272   3.911   3.004   2.811
 7443TIP3   OH222273   1.643   4.206   1.908
 7443TIP3    H122274   1.552   4.221   1.933
 7443TIP3    H222275   1.641   4.203   1.812
 7444TIP3   OH222276   5.021   2.651   4.619
 7444TIP3    H122277   5.081   2.709   4.664
 7444TIP3    H222278   5.073   2.572   4.601
 7445TIP3   OH222279   3.439   2.247   2.377
 7445TIP3    H122280   3.489   2.289   2.308
 7445TIP3    H222281   3.348   2.259   2.352
 7446TIP3   OH222282   8.226   0.575   4.026
 7446TIP3    H122283   8.175   0.495   4.021
 7446TIP3    H222284   8.163   0.645   4.011
 7447TIP3   OH222285   3.214   4.163   2.015
 7447TIP3    H122286   3.253   4.076   2.022
 7447TIP3    H222287   3.123   4.146   1.989
 7448TIP3   OH222288   7.450   4.191   4.931
 7448TIP3    H122289   7.406   4.242   4.863
 7448TIP3    H222290   7.543   4.208   4.917
 7449TIP3   OH222291   2.633  -0.025   5.628
 7449TIP3    H122292   2.595   0.030   5.560
 7449TIP3    H222293   2.718  -0.051   5.593
 7450TIP3   OH222294   4.635   2.731   3.460
 7450TIP3    H122295   4.689   2.737   3.539
 7450TIP3    H222296   4.643   2.817   3.419
 7451TIP3   OH222297   6.727   6.313   0.061
 7451TIP3    H122298   6.773   6.290   0.141
 7451TIP3    H222299   6.671   6.387   0.085
 7452TIP3   OH222300   0.120   6.719   6.223
 7452TIP3    H122301   0.137   6.799   6.272
 7452TIP3    H222302   0.030   6.696   6.244
 7453TIP3   OH222303   2.460   5.979   3.167
 7453TIP3    H122304   2.383   5.996   3.220
 7453TIP3    H222305   2.531   5.966   3.230
 7454TIP3   OH222306   4.345   3.529   2.618
 7454TIP3    H122307   4.276   3.535   2.684
 7454TIP3    H222308   4.308   3.473   2.550
 7455TIP3   OH222309   8.122   0.407   2.240
 7455TIP3    H122310   8.199   0.351   2.234
 7455TIP3    H222311   8.051   0.348   2.266
 7456TIP3   OH222312   7.712   0.026   4.989
 7456TIP3    H122313   7.678   0.039   4.900
 7456TIP3    H222314   7.803   0.057   4.984
 7457TIP3   OH222315   4.791   5.283   6.375
 7457TIP3    H122316   4.856   5.226   6.334
 7457TIP3    H222317   4.722   5.224   6.405
 7458TIP3   OH222318   3.670   2.932   2.242
 7458TIP3    H122319   3.627   2.860   2.288
 7458TIP3    H222320   3.643   3.010   2.290
 7459TIP3   OH222321   6.979   2.912   1.858
 7459TIP3    H122322   6.904   2.968   1.878
 7459TIP3    H222323   7.054   2.971   1.862
 7460TIP3   OH222324   4.907   4.457   1.617
 7460TIP3    H122325   4.888   4.532   1.561
 7460TIP3    H222326   4.985   4.417   1.578
 7461TIP3   OH222327   3.384   2.863   4.089
 7461TIP3    H122328   3.464   2.853   4.038
 7461TIP3    H222329   3.367   2.776   4.124
 7462TIP3   OH222330   0.082   1.656   0.117
 7462TIP3    H122331   0.128   1.604   0.051
 7462TIP3    H222332   0.111   1.618   0.200
 7463TIP3   OH222333   6.053   1.090   1.160
 7463TIP3    H122334   5.974   1.042   1.183
 7463TIP3    H222335   6.038   1.122   1.072
 7464TIP3   OH222336   2.481   7.124   5.983
 7464TIP3    H122337   2.386   7.133   5.988
 7464TIP3    H222338   2.495   7.057   5.916
 7465TIP3   OH222339   0.557   1.393   0.631
 7465TIP3    H122340   0.505   1.472   0.615
 7465TIP3    H222341   0.493   1.327   0.657
 7466TIP3   OH222342   2.170   3.231   2.474
 7466TIP3    H122343   2.097   3.292   2.484
 7466TIP3    H222344   2.239   3.282   2.431
 7467TIP3   OH222345   5.802   1.478   4.737
 7467TIP3    H122346   5.840   1.436   4.659
 7467TIP3    H222347   5.708   1.463   4.729
 7468TIP3   OH222348   2.902   0.242   1.192
 7468TIP3    H122349   2.939   0.300   1.258
 7468TIP3    H222350   2.810   0.232   1.218
 7469TIP3   OH222351   6.833   3.376   1.321
 7469TIP3    H122352   6.910   3.412   1.277
 7469TIP3    H222353   6.770   3.361   1.251
 7470TIP3   OH222354   2.924   6.492   1.998
 7470TIP3    H122355   2.974   6.441   1.935
 7470TIP3    H222356   2.833   6.479   1.972
 7471TIP3   OH222357   0.654   5.887   4.841
 7471TIP3    H122358   0.736   5.911   4.885
 7471TIP3    H222359   0.600   5.848   4.910
 7472TIP3   OH222360   0.786   3.051   4.396
 7472TIP3    H122361   0.856   3.055   4.332
 7472TIP3    H222362   0.770   2.957   4.409
 7473TIP3   OH222363   1.604   2.400   2.802
 7473TIP3    H122364   1.669   2.433   2.864
 7473TIP3    H222365   1.650   2.398   2.718
 7474TIP3   OH222366   0.245   6.780   5.418
 7474TIP3    H122367   0.326   6.829   5.430
 7474TIP3    H222368   0.240   6.765   5.324
 7475TIP3   OH222369   3.694   4.716   4.405
 7475TIP3    H122370   3.748   4.651   4.449
 7475TIP3    H222371   3.757   4.775   4.363
 7476TIP3   OH222372   1.387   5.939   5.114
 7476TIP3    H122373   1.471   5.985   5.117
 7476TIP3    H222374   1.402   5.857   5.161
 7477TIP3   OH222375   6.557   2.600   1.160
 7477TIP3    H122376   6.535   2.650   1.239
 7477TIP3    H222377   6.484   2.539   1.149
 7478TIP3   OH222378   5.128   2.981   5.810
 7478TIP3    H122379   5.193   3.033   5.857
 7478TIP3    H222380   5.156   2.891   5.821
 7479TIP3   OH222381   7.089   2.328   5.489
 7479TIP3    H122382   7.032   2.350   5.415
 7479TIP3    H222383   7.076   2.234   5.502
 7480TIP3   OH222384   1.420   6.141   3.226
 7480TIP3    H122385   1.453   6.209   3.285
 7480TIP3    H222386   1.335   6.118   3.262
 7481TIP3   OH222387   1.323   6.331   0.388
 7481TIP3    H122388   1.386   6.366   0.451
 7481TIP3    H222389   1.348   6.239   0.377
 7482TIP3   OH222390   3.873   3.956   3.698
 7482TIP3    H122391   3.779   3.968   3.684
 7482TIP3    H222392   3.904   4.042   3.727
 7483TIP3   OH222393   5.615   5.778   2.060
 7483TIP3    H122394   5.576   5.864   2.070
 7483TIP3    H222395   5.554   5.719   2.104
 7484TIP3   OH222396   0.684   2.854   6.713
 7484TIP3    H122397   0.636   2.877   6.792
 7484TIP3    H222398   0.648   2.769   6.688
 7485TIP3   OH222399   0.057   5.513  -0.013
 7485TIP3    H122400   0.101   5.429  -0.020
 7485TIP3    H222401   0.077   5.543   0.076
 7486TIP3   OH222402   2.450   6.700   3.392
 7486TIP3    H122403   2.453   6.713   3.487
 7486TIP3    H222404   2.456   6.605   3.382
 7487TIP3   OH222405   1.247   6.454   1.524
 7487TIP3    H122406   1.311   6.524   1.533
 7487TIP3    H222407   1.296   6.374   1.545
 7488TIP3   OH222408   2.194   4.552   2.636
 7488TIP3    H122409   2.151   4.476   2.676
 7488TIP3    H222410   2.287   4.538   2.653
 7489TIP3   OH222411   2.027   6.168   4.119
 7489TIP3    H122412   2.090   6.111   4.076
 7489TIP3    H222413   1.989   6.114   4.188
 7490TIP3   OH222414   3.510   4.356   0.706
 7490TIP3    H122415   3.545   4.435   0.748
 7490TIP3    H222416   3.542   4.360   0.616
 7491TIP3   OH222417   7.638   3.601   5.943
 7491TIP3    H122418   7.567   3.604   6.006
 7491TIP3    H222419   7.627   3.518   5.897
 7492TIP3   OH222420   6.607   6.749   6.276
 7492TIP3    H122421   6.698   6.727   6.292
 7492TIP3    H222422   6.610   6.824   6.217
 7493TIP3   OH222423   6.534   6.505   2.351
 7493TIP3    H122424   6.510   6.584   2.302
 7493TIP3    H222425   6.489   6.515   2.436
 7494TIP3   OH222426   4.811   0.548   2.827
 7494TIP3    H122427   4.732   0.530   2.878
 7494TIP3    H222428   4.883   0.539   2.890
 7495TIP3   OH222429   0.249   2.247   1.697
 7495TIP3    H122430   0.248   2.328   1.748
 7495TIP3    H222431   0.193   2.266   1.622
 7496TIP3   OH222432   4.336   2.604   4.144
 7496TIP3    H122433   4.334   2.515   4.179
 7496TIP3    H222434   4.245   2.633   4.148
 7497TIP3   OH222435   2.826   2.007   6.672
 7497TIP3    H122436   2.836   1.988   6.579
 7497TIP3    H222437   2.733   2.026   6.683
 7498TIP3   OH222438   5.199   6.383   5.681
 7498TIP3    H122439   5.207   6.302   5.631
 7498TIP3    H222440   5.115   6.376   5.726
 7499TIP3   OH222441   0.170   5.535   2.158
 7499TIP3    H122442   0.194   5.455   2.206
 7499TIP3    H222443   0.246   5.592   2.165
 7500TIP3   OH222444   1.824   5.809   3.606
 7500TIP3    H122445   1.863   5.848   3.528
 7500TIP3    H222446   1.872   5.727   3.617
 7501TIP3   OH222447   1.334   3.930   3.811
 7501TIP3    H122448   1.330   3.898   3.901
 7501TIP3    H222449   1.394   4.005   3.816
 7502TIP3   OH222450   4.349   3.916   0.035
 7502TIP3    H122451   4.315   3.842   0.085
 7502TIP3    H222452   4.323   3.993   0.086
 7503TIP3   OH222453   2.680   6.153   2.321
 7503TIP3    H122454   2.732   6.104   2.258
 7503TIP3    H222455   2.673   6.096   2.397
 7504TIP3   OH222456   5.206   6.368   6.032
 7504TIP3    H122457   5.112   6.352   6.042
 7504TIP3    H222458   5.211   6.435   5.964
 7505TIP3   OH222459   2.228   7.736   1.805
 7505TIP3    H122460   2.183   7.820   1.793
 7505TIP3    H222461   2.176   7.674   1.754
 7506TIP3   OH222462   0.368   3.560   4.074
 7506TIP3    H122463   0.409   3.612   4.143
 7506TIP3    H222464   0.307   3.502   4.120
 7507TIP3   OH222465   0.572   7.523   6.327
 7507TIP3    H122466   0.499   7.475   6.365
 7507TIP3    H222467   0.581   7.601   6.382
 7508TIP3   OH222468   0.781   3.687   3.204
 7508TIP3    H122469   0.822   3.738   3.274
 7508TIP3    H222470   0.786   3.744   3.127
 7509TIP3   OH222471   6.517   3.445   0.964
 7509TIP3    H122472   6.578   3.471   0.894
 7509TIP3    H222473   6.460   3.380   0.923
 7510TIP3   OH222474   5.005   3.576   3.095
 7510TIP3    H122475   4.963   3.659   3.072
 7510TIP3    H222476   5.052   3.596   3.176
 7511TIP3   OH222477   1.527   5.806   3.441
 7511TIP3    H122478   1.613   5.777   3.412
 7511TIP3    H222479   1.536   5.900   3.453
 7512TIP3   OH222480   6.905   2.666   4.370
 7512TIP3    H122481   6.982   2.608   4.375
 7512TIP3    H222482   6.831   2.608   4.386
 7513TIP3   OH222483   3.282   3.742   6.358
 7513TIP3    H122484   3.328   3.749   6.442
 7513TIP3    H222485   3.195   3.780   6.375
 7514TIP3   OH222486   5.065   0.882   0.627
 7514TIP3    H122487   5.057   0.964   0.579
 7514TIP3    H222488   4.991   0.882   0.687
 7515TIP3   OH222489   6.131   6.238   6.355
 7515TIP3    H122490   6.060   6.176   6.340
 7515TIP3    H222491   6.106   6.285   6.435
 7516TIP3   OH222492   6.412   7.500   4.047
 7516TIP3    H122493   6.443   7.572   3.991
 7516TIP3    H222494   6.485   7.484   4.107
 7517TIP3   OH222495   4.864   2.502   5.297
 7517TIP3    H122496   4.901   2.416   5.314
 7517TIP3    H222497   4.939   2.555   5.269
 7518TIP3   OH222498   5.451   1.087   0.661
 7518TIP3    H122499   5.533   1.060   0.621
 7518TIP3    H222500   5.418   1.009   0.706
 7519TIP3   OH222501   2.857   4.397   3.449
 7519TIP3    H122502   2.890   4.320   3.495
 7519TIP3    H222503   2.932   4.429   3.399
 7520TIP3   OH222504   0.709   5.257   5.327
 7520TIP3    H122505   0.640   5.264   5.261
 7520TIP3    H222506   0.682   5.182   5.381
 7521TIP3   OH222507   2.872   3.172   6.636
 7521TIP3    H122508   2.897   3.080   6.645
 7521TIP3    H222509   2.955   3.219   6.626
 7522TIP3   OH222510   3.998   5.197   2.192
 7522TIP3    H122511   4.023   5.150   2.113
 7522TIP3    H222512   3.966   5.281   2.161
 7523TIP3   OH222513   2.678   3.045   0.767
 7523TIP3    H122514   2.755   3.102   0.757
 7523TIP3    H222515   2.705   2.980   0.831
 7524TIP3   OH222516   7.252   5.145   3.299
 7524TIP3    H122517   7.261   5.194   3.380
 7524TIP3    H222518   7.280   5.205   3.230
 7525TIP3   OH222519   2.310   7.015   1.827
 7525TIP3    H122520   2.349   6.934   1.862
 7525TIP3    H222521   2.281   6.991   1.739
 7526TIP3   OH222522   7.030   7.390   1.693
 7526TIP3    H122523   7.124   7.405   1.686
 7526TIP3    H222524   7.003   7.440   1.770
 7527TIP3   OH222525   1.954   3.378   2.406
 7527TIP3    H122526   1.960   3.468   2.373
 7527TIP3    H222527   1.885   3.381   2.472
 7528TIP3   OH222528   0.932   0.460   6.001
 7528TIP3    H122529   0.924   0.380   6.053
 7528TIP3    H222530   0.878   0.444   5.924
 7529TIP3   OH222531   2.141   2.940   6.545
 7529TIP3    H122532   2.151   2.952   6.450
 7529TIP3    H222533   2.054   2.902   6.555
 7530TIP3   OH222534   0.878   5.281   3.034
 7530TIP3    H122535   0.907   5.211   2.975
 7530TIP3    H222536   0.860   5.237   3.117
 7531TIP3   OH222537   0.521   5.197   3.621
 7531TIP3    H122538   0.559   5.123   3.668
 7531TIP3    H222539   0.437   5.211   3.664
 7532TIP3   OH222540   3.854   2.565   4.215
 7532TIP3    H122541   3.767   2.527   4.229
 7532TIP3    H222542   3.839   2.638   4.154
 7533TIP3   OH222543   8.181   1.206   0.635
 7533TIP3    H122544   8.231   1.206   0.554
 7533TIP3    H222545   8.129   1.286   0.631
 7534TIP3   OH222546   4.527   6.453   6.149
 7534TIP3    H122547   4.483   6.472   6.066
 7534TIP3    H222548   4.545   6.539   6.187
 7535TIP3   OH222549   4.575   0.032   5.189
 7535TIP3    H122550   4.518   0.110   5.191
 7535TIP3    H222551   4.605   0.027   5.099
 7536TIP3   OH222552   0.049   5.136   5.704
 7536TIP3    H122553   0.080   5.226   5.712
 7536TIP3    H222554   0.123   5.089   5.664
 7537TIP3   OH222555   7.889   5.094   4.638
 7537TIP3    H122556   7.944   5.017   4.642
 7537TIP3    H222557   7.950   5.168   4.633
 7538TIP3   OH222558   7.125   6.759   1.591
 7538TIP3    H122559   7.141   6.808   1.511
 7538TIP3    H222560   7.103   6.826   1.656
 7539TIP3   OH222561   8.217   0.196   3.813
 7539TIP3    H122562   8.302   0.238   3.828
 7539TIP3    H222563   8.160   0.232   3.882
 7540TIP3   OH222564   7.717   0.905   2.450
 7540TIP3    H122565   7.784   0.885   2.515
 7540TIP3    H222566   7.678   0.987   2.481
 7541TIP3   OH222567   1.468   1.275   0.525
 7541TIP3    H122568   1.383   1.294   0.484
 7541TIP3    H222569   1.446   1.248   0.614
 7542TIP3   OH222570   5.406   2.130   1.595
 7542TIP3    H122571   5.423   2.223   1.587
 7542TIP3    H222572   5.487   2.088   1.566
 7543TIP3   OH222573   5.301   4.060   6.701
 7543TIP3    H122574   5.318   3.975   6.660
 7543TIP3    H222575   5.254   4.110   6.634
 7544TIP3   OH222576   1.527   2.651   4.837
 7544TIP3    H122577   1.599   2.657   4.774
 7544TIP3    H222578   1.570   2.658   4.922
 7545TIP3   OH222579   6.394   4.118   2.796
 7545TIP3    H122580   6.316   4.170   2.775
 7545TIP3    H222581   6.361   4.049   2.854
 7546TIP3   OH222582   5.263   1.999   4.652
 7546TIP3    H122583   5.213   1.945   4.712
 7546TIP3    H222584   5.289   1.940   4.581
 7547TIP3   OH222585   2.095   7.288   0.402
 7547TIP3    H122586   2.158   7.331   0.459
 7547TIP3    H222587   2.058   7.358   0.348
 7548TIP3   OH222588   2.987   1.619   3.719
 7548TIP3    H122589   3.027   1.600   3.804
 7548TIP3    H222590   2.901   1.576   3.723
 7549TIP3   OH222591   8.146   1.864   3.727
 7549TIP3    H122592   8.097   1.932   3.773
 7549TIP3    H222593   8.215   1.838   3.789
 7550TIP3   OH222594   3.905   5.161   0.000
 7550TIP3    H122595   3.993   5.128   0.019
 7550TIP3    H222596   3.850   5.123   0.068
 7551TIP3   OH222597   6.339   6.967   1.111
 7551TIP3    H122598   6.286   6.888   1.119
 7551TIP3    H222599   6.318   7.002   1.024
 7552TIP3   OH222600   0.411   1.951   3.192
 7552TIP3    H122601   0.477   1.960   3.261
 7552TIP3    H222602   0.402   2.039   3.155
 7553TIP3   OH222603   5.520   1.401   3.017
 7553TIP3    H122604   5.551   1.478   3.066
 7553TIP3    H222605   5.589   1.385   2.952
 7554TIP3   OH222606   1.001   7.335   3.686
 7554TIP3    H122607   0.908   7.326   3.709
 7554TIP3    H222608   1.010   7.286   3.605
 7555TIP3   OH222609   4.512   1.330   4.200
 7555TIP3    H122610   4.605   1.353   4.194
 7555TIP3    H222611   4.471   1.408   4.237
 7556TIP3   OH222612   7.860   1.008   6.289
 7556TIP3    H122613   7.912   0.939   6.249
 7556TIP3    H222614   7.831   0.972   6.373
 7557TIP3   OH222615   0.247   7.171   2.420
 7557TIP3    H122616   0.201   7.186   2.502
 7557TIP3    H222617   0.294   7.089   2.434
 7558TIP3   OH222618   0.872   7.608   3.971
 7558TIP3    H122619   0.849   7.693   4.008
 7558TIP3    H222620   0.858   7.618   3.877
 7559TIP3   OH222621   7.801   1.389   0.451
 7559TIP3    H122622   7.821   1.388   0.357
 7559TIP3    H222623   7.862   1.452   0.488
 7560TIP3   OH222624   7.326   7.170   0.866
 7560TIP3    H122625   7.347   7.262   0.849
 7560TIP3    H222626   7.328   7.128   0.780
 7561TIP3   OH222627   4.286   5.430   2.727
 7561TIP3    H122628   4.310   5.506   2.675
 7561TIP3    H222629   4.287   5.462   2.818
 7562TIP3   OH222630   1.542   2.217   0.349
 7562TIP3    H122631   1.488   2.280   0.396
 7562TIP3    H222632   1.606   2.270   0.302
 7563TIP3   OH222633   0.179   7.179   0.247
 7563TIP3    H122634   0.198   7.085   0.238
 7563TIP3    H222635   0.239   7.209   0.315
 7564TIP3   OH222636   0.186   5.784   1.512
 7564TIP3    H122637   0.091   5.777   1.524
 7564TIP3    H222638   0.208   5.869   1.548
 7565TIP3   OH222639   5.265   7.707   5.013
 7565TIP3    H122640   5.354   7.723   4.980
 7565TIP3    H222641   5.208   7.735   4.942
 7566TIP3   OH222642   2.627   2.026   4.032
 7566TIP3    H122643   2.628   2.121   4.021
 7566TIP3    H222644   2.649   1.991   3.946
 7567TIP3   OH222645   6.933   6.874   4.572
 7567TIP3    H122646   6.862   6.870   4.507
 7567TIP3    H222647   6.889   6.897   4.654
 7568TIP3   OH222648   5.710   1.560   2.826
 7568TIP3    H122649   5.776   1.492   2.842
 7568TIP3    H222650   5.746   1.639   2.867
 7569TIP3   OH222651   4.637   1.469   4.605
 7569TIP3    H122652   4.611   1.384   4.641
 7569TIP3    H222653   4.642   1.527   4.681
 7570TIP3   OH222654   1.392   5.862   4.682
 7570TIP3    H122655   1.324   5.929   4.683
 7570TIP3    H222656   1.474   5.909   4.698
 7571TIP3   OH222657   0.278   3.477   3.819
 7571TIP3    H122658   0.293   3.385   3.800
 7571TIP3    H222659   0.309   3.488   3.909
 7572TIP3   OH222660   7.737   1.118   2.132
 7572TIP3    H122661   7.728   1.170   2.212
 7572TIP3    H222662   7.816   1.065   2.147
 7573TIP3   OH222663   5.683   1.113   6.372
 7573TIP3    H122664   5.648   1.024   6.369
 7573TIP3    H222665   5.778   1.101   6.372
 7574TIP3   OH222666   3.484   3.092   5.583
 7574TIP3    H122667   3.414   3.088   5.517
 7574TIP3    H222668   3.563   3.068   5.535
 7575TIP3   OH222669   6.780   0.217   4.248
 7575TIP3    H122670   6.698   0.168   4.254
 7575TIP3    H222671   6.781   0.272   4.326
 7576TIP3   OH222672   1.850   4.542   0.710
 7576TIP3    H122673   1.851   4.606   0.639
 7576TIP3    H222674   1.759   4.512   0.713
 7577TIP3   OH222675   7.758   2.067   2.108
 7577TIP3    H122676   7.773   1.989   2.054
 7577TIP3    H222677   7.846   2.093   2.137
 7578TIP3   OH222678   7.483   6.403   5.403
 7578TIP3    H122679   7.440   6.418   5.488
 7578TIP3    H222680   7.427   6.448   5.340
 7579TIP3   OH222681   4.701   6.511   2.988
 7579TIP3    H122682   4.620   6.517   3.038
 7579TIP3    H222683   4.757   6.581   3.024
 7580TIP3   OH222684   4.043   0.571   0.111
 7580TIP3    H122685   3.981   0.499   0.098
 7580TIP3    H222686   4.086   0.550   0.194
 7581TIP3   OH222687   8.200   6.639   5.953
 7581TIP3    H122688   8.136   6.586   6.000
 7581TIP3    H222689   8.157   6.663   5.872
 7582TIP3   OH222690   0.512   7.587   3.996
 7582TIP3    H122691   0.421   7.569   4.019
 7582TIP3    H222692   0.529   7.674   4.031
 7583TIP3   OH222693   1.676   4.807   3.524
 7583TIP3    H122694   1.615   4.766   3.586
 7583TIP3    H222695   1.659   4.901   3.534
 7584TIP3   OH222696   5.520   4.137   2.500
 7584TIP3    H122697   5.429   4.110   2.515
 7584TIP3    H222698   5.555   4.154   2.587
 7585TIP3   OH222699   4.015   4.159   3.170
 7585TIP3    H122700   3.993   4.085   3.113
 7585TIP3    H222701   4.111   4.162   3.168
 7586TIP3   OH222702   8.055   6.757   5.092
 7586TIP3    H122703   8.079   6.824   5.156
 7586TIP3    H222704   8.113   6.775   5.017
 7587TIP3   OH222705   0.953   0.183   6.098
 7587TIP3    H122706   0.865   0.145   6.091
 7587TIP3    H222707   0.958   0.214   6.188
 7588TIP3   OH222708   1.385   0.746   4.031
 7588TIP3    H122709   1.468   0.739   4.077
 7588TIP3    H222710   1.346   0.659   4.040
 7589TIP3   OH222711   7.080   5.063   1.258
 7589TIP3    H122712   7.149   5.022   1.309
 7589TIP3    H222713   7.074   5.010   1.178
 7590TIP3   OH222714   5.191   2.906   3.148
 7590TIP3    H122715   5.278   2.868   3.162
 7590TIP3    H222716   5.161   2.931   3.236
 7591TIP3   OH222717   0.026   5.874   1.053
 7591TIP3    H122718   0.037   5.957   1.099
 7591TIP3    H222719   0.106   5.825   1.070
 7592TIP3   OH222720   1.401   5.760   1.517
 7592TIP3    H122721   1.421   5.667   1.527
 7592TIP3    H222722   1.308   5.767   1.542
 7593TIP3   OH222723   2.661   7.553   3.856
 7593TIP3    H122724   2.609   7.476   3.830
 7593TIP3    H222725   2.663   7.549   3.952
 7594TIP3   OH222726   6.061   2.044   2.651
 7594TIP3    H122727   6.080   2.120   2.597
 7594TIP3    H222728   6.098   2.065   2.737
 7595TIP3   OH222729   2.305   7.207   4.149
 7595TIP3    H122730   2.333   7.299   4.146
 7595TIP3    H222731   2.232   7.206   4.211
 7596TIP3   OH222732   6.222   0.928   4.410
 7596TIP3    H122733   6.268   1.003   4.372
 7596TIP3    H222734   6.209   0.951   4.502
 7597TIP3   OH222735   6.658   3.500   4.776
 7597TIP3    H122736   6.599   3.462   4.711
 7597TIP3    H222737   6.744   3.466   4.755
 7598TIP3   OH222738   3.481   2.518   2.774
 7598TIP3    H122739   3.446   2.581   2.837
 7598TIP3    H222740   3.547   2.469   2.822
 7599TIP3   OH222741   4.786   7.131   3.551
 7599TIP3    H122742   4.795   7.057   3.610
 7599TIP3    H222743   4.812   7.098   3.465
 7600TIP3   OH222744   7.732   2.345   3.656
 7600TIP3    H122745   7.760   2.437   3.659
 7600TIP3    H222746   7.684   2.337   3.574
 7601TIP3   OH222747   3.237   3.681   3.243
 7601TIP3    H122748   3.328   3.660   3.262
 7601TIP3    H222749   3.186   3.620   3.297
 7602TIP3   OH222750   6.179   4.506   4.255
 7602TIP3    H122751   6.273   4.510   4.235
 7602TIP3    H222752   6.146   4.433   4.202
 7603TIP3   OH222753   4.723   7.332   4.576
 7603TIP3    H122754   4.769   7.309   4.495
 7603TIP3    H222755   4.739   7.258   4.635
 7604TIP3   OH222756   0.451   7.737   1.890
 7604TIP3    H122757   0.541   7.711   1.874
 7604TIP3    H222758   0.418   7.766   1.805
 7605TIP3   OH222759   6.715   5.916   2.617
 7605TIP3    H122760   6.725   5.835   2.568
 7605TIP3    H222761   6.641   5.961   2.574
 7606TIP3   OH222762   7.199   0.533   2.636
 7606TIP3    H122763   7.160   0.562   2.553
 7606TIP3    H222764   7.218   0.614   2.683
 7607TIP3   OH222765   6.678   2.549   0.534
 7607TIP3    H122766   6.681   2.595   0.450
 7607TIP3    H222767   6.712   2.461   0.515
 7608TIP3   OH222768   7.085   0.030   0.189
 7608TIP3    H122769   7.174  -0.004   0.204
 7608TIP3    H222770   7.098   0.110   0.138
 7609TIP3   OH222771   2.079   4.460   6.305
 7609TIP3    H122772   2.122   4.383   6.341
 7609TIP3    H222773   2.090   4.527   6.372
 7610TIP3   OH222774   5.859   4.503   2.083
 7610TIP3    H122775   5.809   4.456   2.149
 7610TIP3    H222776   5.830   4.466   1.999
 7611TIP3   OH222777   4.722   3.651   3.681
 7611TIP3    H122778   4.752   3.656   3.590
 7611TIP3    H222779   4.777   3.583   3.721
 7612TIP3   OH222780   6.028   0.149   3.784
 7612TIP3    H122781   6.110   0.103   3.799
 7612TIP3    H222782   6.054   0.239   3.764
 7613TIP3   OH222783   0.603   0.629   3.306
 7613TIP3    H122784   0.512   0.651   3.327
 7613TIP3    H222785   0.651   0.643   3.388
 7614TIP3   OH222786   0.108   7.165   4.990
 7614TIP3    H122787   0.081   7.193   4.902
 7614TIP3    H222788   0.069   7.230   5.049
 7615TIP3   OH222789   4.675   7.735   1.994
 7615TIP3    H122790   4.664   7.653   1.945
 7615TIP3    H222791   4.769   7.751   1.993
 7616TIP3   OH222792   1.306   6.972   1.195
 7616TIP3    H122793   1.239   6.912   1.162
 7616TIP3    H222794   1.287   7.055   1.152
 7617TIP3   OH222795   4.780   2.026   6.089
 7617TIP3    H122796   4.713   1.980   6.038
 7617TIP3    H222797   4.829   1.957   6.133
 7618TIP3   OH222798   1.731   4.286   1.370
 7618TIP3    H122799   1.805   4.236   1.335
 7618TIP3    H222800   1.675   4.302   1.294
 7619TIP3   OH222801   4.441   3.299   5.194
 7619TIP3    H122802   4.517   3.271   5.246
 7619TIP3    H222803   4.473   3.376   5.146
 7620TIP3   OH222804   3.054   2.683   1.453
 7620TIP3    H122805   3.081   2.769   1.420
 7620TIP3    H222806   2.984   2.656   1.394
 7621TIP3   OH222807   6.355   1.785   4.156
 7621TIP3    H122808   6.278   1.731   4.177
 7621TIP3    H222809   6.423   1.721   4.134
 7622TIP3   OH222810   1.077   5.195   2.017
 7622TIP3    H122811   1.057   5.240   1.935
 7622TIP3    H222812   1.139   5.253   2.062
 7623TIP3   OH222813   3.920   5.118   5.325
 7623TIP3    H122814   3.958   5.189   5.378
 7623TIP3    H222815   3.912   5.155   5.237
 7624TIP3   OH222816   6.718   3.956   6.749
 7624TIP3    H122817   6.675   3.915   6.824
 7624TIP3    H222818   6.658   3.942   6.676
 7625TIP3   OH222819   5.093   4.231   3.651
 7625TIP3    H122820   5.124   4.241   3.742
 7625TIP3    H222821   4.998   4.222   3.659
 7626TIP3   OH222822   2.255   0.083   4.118
 7626TIP3    H122823   2.277   0.173   4.093
 7626TIP3    H222824   2.320   0.060   4.184
 7627TIP3   OH222825   8.281   4.559   2.488
 7627TIP3    H122826   8.283   4.637   2.543
 7627TIP3    H222827   8.229   4.495   2.538
 7628TIP3   OH222828   7.241   7.741   0.277
 7628TIP3    H122829   7.232   7.774   0.187
 7628TIP3    H222830   7.215   7.649   0.272
 7629TIP3   OH222831   7.026   4.061   4.398
 7629TIP3    H122832   6.983   4.051   4.313
 7629TIP3    H222833   6.982   3.997   4.455
 7630TIP3   OH222834   3.104   6.736   4.967
 7630TIP3    H122835   3.088   6.663   5.026
 7630TIP3    H222836   3.197   6.729   4.945
 7631TIP3   OH222837   1.535   6.715   2.127
 7631TIP3    H122838   1.606   6.773   2.099
 7631TIP3    H222839   1.578   6.632   2.146
 7632TIP3   OH222840   7.922   0.274   2.369
 7632TIP3    H122841   7.964   0.190   2.350
 7632TIP3    H222842   7.830   0.252   2.384
 7633TIP3   OH222843   5.594   0.633   1.436
 7633TIP3    H122844   5.575   0.617   1.529
 7633TIP3    H222845   5.529   0.582   1.389
 7634TIP3   OH222846   5.166   1.062   2.797
 7634TIP3    H122847   5.186   1.142   2.845
 7634TIP3    H222848   5.230   1.060   2.726
 7635TIP3   OH222849   4.468   1.380   2.118
 7635TIP3    H122850   4.484   1.341   2.033
 7635TIP3    H222851   4.377   1.361   2.137
 7636TIP3   OH222852   5.321   1.856   1.570
 7636TIP3    H122853   5.354   1.945   1.560
 7636TIP3    H222854   5.262   1.844   1.496
 7637TIP3   OH222855   7.309   1.459   5.783
 7637TIP3    H122856   7.355   1.448   5.699
 7637TIP3    H222857   7.238   1.520   5.764
 7638TIP3   OH222858   5.354   6.603   4.413
 7638TIP3    H122859   5.296   6.540   4.370
 7638TIP3    H222860   5.412   6.634   4.343
 7639TIP3   OH222861   6.441   2.681   4.712
 7639TIP3    H122862   6.434   2.774   4.733
 7639TIP3    H222863   6.385   2.638   4.776
 7640TIP3   OH222864   0.554   6.999   0.646
 7640TIP3    H122865   0.583   7.005   0.737
 7640TIP3    H222866   0.576   7.084   0.608
 7641TIP3   OH222867   4.972   7.307   2.800
 7641TIP3    H122868   4.986   7.212   2.795
 7641TIP3    H222869   4.999   7.330   2.889
 7642TIP3   OH222870   0.992   3.467   1.959
 7642TIP3    H122871   0.987   3.431   2.048
 7642TIP3    H222872   0.903   3.460   1.925
 7643TIP3   OH222873   7.472   2.454   3.898
 7643TIP3    H122874   7.564   2.425   3.900
 7643TIP3    H222875   7.478   2.547   3.876
 7644TIP3   OH222876   6.882   2.662   4.957
 7644TIP3    H122877   6.896   2.584   4.903
 7644TIP3    H222878   6.936   2.648   5.034
 7645TIP3   OH222879   5.522   4.556   3.094
 7645TIP3    H122880   5.581   4.596   3.030
 7645TIP3    H222881   5.445   4.530   3.044
 7646TIP3   OH222882   1.793   2.164   3.543
 7646TIP3    H122883   1.859   2.146   3.476
 7646TIP3    H222884   1.710   2.161   3.495
 7647TIP3   OH222885   7.931   6.587   1.116
 7647TIP3    H122886   7.952   6.665   1.168
 7647TIP3    H222887   7.852   6.552   1.157
 7648TIP3   OH222888   2.344   5.102   2.773
 7648TIP3    H122889   2.250   5.087   2.783
 7648TIP3    H222890   2.381   5.015   2.761
 7649TIP3   OH222891   2.656   6.615   4.095
 7649TIP3    H122892   2.562   6.600   4.095
 7649TIP3    H222893   2.693   6.533   4.128
 7650TIP3   OH222894   0.046   5.598   5.228
 7650TIP3    H122895   0.018   5.689   5.221
 7650TIP3    H222896  -0.003   5.553   5.159
 7651TIP3   OH222897   0.284   1.518   4.375
 7651TIP3    H122898   0.225   1.445   4.359
 7651TIP3    H222899   0.311   1.547   4.288
 7652TIP3   OH222900   4.852   0.653   6.497
 7652TIP3    H122901   4.869   0.747   6.496
 7652TIP3    H222902   4.788   0.641   6.567
 7653TIP3   OH222903   5.799   5.077   3.733
 7653TIP3    H122904   5.868   5.040   3.788
 7653TIP3    H222905   5.729   5.099   3.795
 7654TIP3   OH222906   7.435   1.220   3.798
 7654TIP3    H122907   7.479   1.212   3.714
 7654TIP3    H222908   7.421   1.314   3.808
 7655TIP3   OH222909   1.093   6.990   4.202
 7655TIP3    H122910   1.142   6.957   4.127
 7655TIP3    H222911   1.045   6.915   4.235
 7656TIP3   OH222912   4.029   7.066   5.042
 7656TIP3    H122913   4.107   7.121   5.036
 7656TIP3    H222914   3.970   7.100   4.975
 7657TIP3   OH222915   3.139   7.674   5.700
 7657TIP3    H122916   3.227   7.665   5.663
 7657TIP3    H222917   3.148   7.647   5.791
 7658TIP3   OH222918   0.119   2.471   0.893
 7658TIP3    H122919   0.191   2.525   0.924
 7658TIP3    H222920   0.081   2.433   0.973
 7659TIP3   OH222921   4.901   3.658   3.451
 7659TIP3    H122922   4.837   3.690   3.388
 7659TIP3    H222923   4.973   3.722   3.447
 7660TIP3   OH222924   5.586   3.011   4.945
 7660TIP3    H122925   5.519   3.067   4.984
 7660TIP3    H222926   5.668   3.039   4.986
 7661TIP3   OH222927   7.664   0.100   6.684
 7661TIP3    H122928   7.637   0.183   6.724
 7661TIP3    H222929   7.729   0.064   6.745
 7662TIP3   OH222930   4.280   7.664   3.449
 7662TIP3    H122931   4.340   7.739   3.451
 7662TIP3    H222932   4.294   7.625   3.363
 7663TIP3   OH222933   1.868   0.646   3.127
 7663TIP3    H122934   1.843   0.558   3.152
 7663TIP3    H222935   1.933   0.634   3.058
 7664TIP3   OH222936   1.923   1.936   4.417
 7664TIP3    H122937   1.996   1.890   4.458
 7664TIP3    H222938   1.871   1.970   4.490
 7665TIP3   OH222939   5.205   3.026   1.051
 7665TIP3    H122940   5.230   2.936   1.074
 7665TIP3    H222941   5.211   3.075   1.133
 7666TIP3   OH222942   6.502   5.749   0.316
 7666TIP3    H122943   6.479   5.761   0.224
 7666TIP3    H222944   6.454   5.670   0.342
 7667TIP3   OH222945   6.897   2.132   3.372
 7667TIP3    H122946   6.958   2.111   3.301
 7667TIP3    H222947   6.924   2.219   3.402
 7668TIP3   OH222948   2.909   0.162   1.831
 7668TIP3    H122949   2.916   0.104   1.755
 7668TIP3    H222950   2.902   0.250   1.794
 7669TIP3   OH222951   0.766   6.858   4.437
 7669TIP3    H122952   0.847   6.824   4.398
 7669TIP3    H222953   0.703   6.786   4.429
 7670TIP3   OH222954   2.209   7.230   3.322
 7670TIP3    H122955   2.220   7.220   3.417
 7670TIP3    H222956   2.292   7.266   3.292
 7671TIP3   OH222957   3.060   7.693   6.696
 7671TIP3    H122958   3.005   7.639   6.753
 7671TIP3    H222959   3.001   7.725   6.628
 7672TIP3   OH222960   5.127   3.350   6.048
 7672TIP3    H122961   5.042   3.331   6.008
 7672TIP3    H222962   5.188   3.296   5.999
 7673TIP3   OH222963   1.588   0.373   4.975
 7673TIP3    H122964   1.678   0.368   4.941
 7673TIP3    H222965   1.586   0.454   5.026
 7674TIP3   OH222966   0.629   7.521   0.239
 7674TIP3    H122967   0.585   7.603   0.263
 7674TIP3    H222968   0.571   7.480   0.176
 7675TIP3   OH222969   0.334   3.498   6.370
 7675TIP3    H122970   0.284   3.469   6.446
 7675TIP3    H222971   0.324   3.427   6.307
 7676TIP3   OH222972   1.570   0.570   6.439
 7676TIP3    H122973   1.646   0.614   6.402
 7676TIP3    H222974   1.516   0.547   6.363
 7677TIP3   OH222975   7.905   5.254   5.474
 7677TIP3    H122976   7.864   5.294   5.551
 7677TIP3    H222977   7.917   5.162   5.499
 7678TIP3   OH222978   3.393   0.445   3.918
 7678TIP3    H122979   3.336   0.386   3.869
 7678TIP3    H222980   3.452   0.388   3.966
 7679TIP3   OH222981   2.848   6.040   0.330
 7679TIP3    H122982   2.757   6.056   0.354
 7679TIP3    H222983   2.846   6.026   0.235
 7680TIP3   OH222984   1.643   6.714   4.904
 7680TIP3    H122985   1.684   6.765   4.974
 7680TIP3    H222986   1.552   6.741   4.906
 7681TIP3   OH222987   8.002   0.208   4.815
 7681TIP3    H122988   8.032   0.171   4.732
 7681TIP3    H222989   8.048   0.158   4.882
 7682TIP3   OH222990   2.318   0.670   1.789
 7682TIP3    H122991   2.353   0.709   1.709
 7682TIP3    H222992   2.250   0.610   1.759
 7683TIP3   OH222993   2.068   6.739   4.311
 7683TIP3    H122994   2.121   6.733   4.390
 7683TIP3    H222995   2.011   6.662   4.314
 7684TIP3   OH222996   3.606   3.945   2.346
 7684TIP3    H122997   3.558   3.919   2.425
 7684TIP3    H222998   3.579   4.036   2.331
 7685TIP3   OH222999   4.411   7.135   1.530
 7685TIP3    H123000   4.486   7.156   1.473
 7685TIP3    H223001   4.342   7.193   1.499
 7686TIP3   OH223002   2.170   6.446   3.514
 7686TIP3    H123003   2.202   6.367   3.557
 7686TIP3    H223004   2.140   6.415   3.428
 7687TIP3   OH223005   5.120   3.392   5.465
 7687TIP3    H123006   5.194   3.380   5.525
 7687TIP3    H223007   5.141   3.339   5.389
 7688TIP3   OH223008   7.085   5.362   5.362
 7688TIP3    H123009   6.995   5.356   5.328
 7688TIP3    H223010   7.077   5.419   5.438
 7689TIP3   OH223011   7.724   6.088   4.009
 7689TIP3    H123012   7.671   6.012   3.985
 7689TIP3    H223013   7.704   6.103   4.102
 7690TIP3   OH223014   0.091   5.912   3.901
 7690TIP3    H123015  -0.001   5.895   3.919
 7690TIP3    H223016   0.122   5.833   3.857
 7691TIP3   OH223017   6.560   5.062   2.777
 7691TIP3    H123018   6.546   5.115   2.699
 7691TIP3    H223019   6.550   4.972   2.747
 7692TIP3   OH223020   5.954   6.872   2.777
 7692TIP3    H123021   5.964   6.894   2.684
 7692TIP3    H223022   5.899   6.943   2.812
 7693TIP3   OH223023   0.421   2.793   1.963
 7693TIP3    H123024   0.458   2.724   1.908
 7693TIP3    H223025   0.454   2.875   1.926
 7694TIP3   OH223026   3.458   3.984   0.183
 7694TIP3    H123027   3.370   3.955   0.206
 7694TIP3    H223028   3.475   4.057   0.242
 7695TIP3   OH223029   0.165   1.216   0.149
 7695TIP3    H123030   0.097   1.268   0.106
 7695TIP3    H223031   0.245   1.240   0.102
 7696TIP3   OH223032   3.740   7.593   5.155
 7696TIP3    H123033   3.725   7.679   5.115
 7696TIP3    H223034   3.681   7.590   5.230
 7697TIP3   OH223035   0.684   0.717   4.443
 7697TIP3    H123036   0.746   0.736   4.372
 7697TIP3    H223037   0.653   0.628   4.424
 7698TIP3   OH223038   5.309   4.384   3.443
 7698TIP3    H123039   5.386   4.378   3.386
 7698TIP3    H223040   5.324   4.319   3.511
 7699TIP3   OH223041   7.324   1.838   3.757
 7699TIP3    H123042   7.348   1.797   3.674
 7699TIP3    H223043   7.239   1.878   3.740
 7700TIP3   OH223044   0.483   7.265   5.042
 7700TIP3    H123045   0.549   7.273   5.111
 7700TIP3    H223046   0.407   7.228   5.087
 7701TIP3   OH223047   5.041   7.690   6.503
 7701TIP3    H123048   5.074   7.766   6.551
 7701TIP3    H223049   4.996   7.726   6.427
 7702TIP3   OH223050   7.898   1.276   1.242
 7702TIP3    H123051   7.990   1.252   1.228
 7702TIP3    H223052   7.877   1.243   1.329
 7703TIP3   OH223053   3.494   1.950   2.248
 7703TIP3    H123054   3.434   2.024   2.245
 7703TIP3    H223055   3.458   1.887   2.185
 7704TIP3   OH223056   7.633   0.153   6.265
 7704TIP3    H123057   7.574   0.095   6.313
 7704TIP3    H223058   7.608   0.141   6.173
 7705TIP3   OH223059   4.119   0.268   4.186
 7705TIP3    H123060   4.131   0.235   4.275
 7705TIP3    H223061   4.127   0.190   4.131
 7706TIP3   OH223062   1.622   0.371   0.479
 7706TIP3    H123063   1.551   0.427   0.511
 7706TIP3    H223064   1.579   0.287   0.460
 7707TIP3   OH223065   3.842   6.644   2.961
 7707TIP3    H123066   3.878   6.558   2.981
 7707TIP3    H223067   3.917   6.697   2.935
 7708TIP3   OH223068   1.217   1.665   3.902
 7708TIP3    H123069   1.143   1.614   3.937
 7708TIP3    H223070   1.262   1.697   3.980
 7709TIP3   OH223071   6.802   2.803   2.266
 7709TIP3    H123072   6.807   2.711   2.241
 7709TIP3    H223073   6.737   2.840   2.206
 7710TIP3   OH223074   6.073   3.385   4.384
 7710TIP3    H123075   6.159   3.426   4.370
 7710TIP3    H223076   6.010   3.446   4.345
 7711TIP3   OH223077   7.602   1.717   4.739
 7711TIP3    H123078   7.614   1.798   4.787
 7711TIP3    H223079   7.659   1.654   4.784
 7712TIP3   OH223080   0.156   1.295   4.926
 7712TIP3    H123081   0.115   1.297   4.839
 7712TIP3    H223082   0.214   1.372   4.926
 7713TIP3   OH223083   2.232   4.366   3.934
 7713TIP3    H123084   2.157   4.424   3.946
 7713TIP3    H223085   2.298   4.398   3.996
 7714TIP3   OH223086   1.724   4.532   4.613
 7714TIP3    H123087   1.726   4.455   4.555
 7714TIP3    H223088   1.637   4.528   4.653
 7715TIP3   OH223089   1.975   1.509   3.597
 7715TIP3    H123090   1.880   1.514   3.594
 7715TIP3    H223091   1.998   1.530   3.688
 7716TIP3   OH223092   4.174   3.954   4.128
 7716TIP3    H123093   4.140   3.867   4.110
 7716TIP3    H223094   4.268   3.941   4.145
 7717TIP3   OH223095   3.068   3.072   4.955
 7717TIP3    H123096   3.002   3.059   4.887
 7717TIP3    H223097   3.044   3.011   5.024
 7718TIP3   OH223098   2.269   3.102   5.638
 7718TIP3    H123099   2.317   3.083   5.557
 7718TIP3    H223100   2.197   3.160   5.610
 7719TIP3   OH223101   6.307   4.288   4.418
 7719TIP3    H123102   6.259   4.206   4.429
 7719TIP3    H223103   6.246   4.356   4.446
 7720TIP3   OH223104   0.047   2.948   2.842
 7720TIP3    H123105  -0.048   2.958   2.840
 7720TIP3    H223106   0.062   2.854   2.844
 7721TIP3   OH223107   1.162   1.701   1.830
 7721TIP3    H123108   1.174   1.607   1.844
 7721TIP3    H223109   1.226   1.725   1.763
 7722TIP3   OH223110   1.762   0.641   2.566
 7722TIP3    H123111   1.810   0.595   2.497
 7722TIP3    H223112   1.773   0.734   2.544
 7723TIP3   OH223113   6.442   1.394   5.938
 7723TIP3    H123114   6.415   1.373   6.027
 7723TIP3    H223115   6.454   1.489   5.938
 7724TIP3   OH223116   0.097   3.511   2.003
 7724TIP3    H123117   0.067   3.483   2.090
 7724TIP3    H223118   0.043   3.587   1.982
 7725TIP3   OH223119   3.657   0.934   2.716
 7725TIP3    H123120   3.750   0.955   2.730
 7725TIP3    H223121   3.613   1.019   2.718
 7726TIP3   OH223122   3.564   2.906   3.648
 7726TIP3    H123123   3.618   2.948   3.580
 7726TIP3    H223124   3.491   2.966   3.661
 7727TIP3   OH223125   1.039   6.918   5.904
 7727TIP3    H123126   0.980   6.888   5.834
 7727TIP3    H223127   1.113   6.956   5.857
 7728TIP3   OH223128   2.735   4.999   2.199
 7728TIP3    H123129   2.821   4.958   2.202
 7728TIP3    H223130   2.719   5.014   2.106
 7729TIP3   OH223131   3.176   5.180   6.198
 7729TIP3    H123132   3.177   5.103   6.254
 7729TIP3    H223133   3.199   5.148   6.111
 7730TIP3   OH223134   4.236   5.281   0.524
 7730TIP3    H123135   4.154   5.240   0.495
 7730TIP3    H223136   4.228   5.284   0.620
 7731TIP3   OH223137   6.331   5.149   4.213
 7731TIP3    H123138   6.336   5.173   4.121
 7731TIP3    H223139   6.343   5.231   4.261
 7732TIP3   OH223140   5.687   3.467   3.742
 7732TIP3    H123141   5.647   3.424   3.817
 7732TIP3    H223142   5.617   3.473   3.677
 7733TIP3   OH223143   7.217   1.994   0.814
 7733TIP3    H123144   7.196   2.086   0.831
 7733TIP3    H223145   7.179   1.976   0.728
 7734TIP3   OH223146   6.606   4.932   4.724
 7734TIP3    H123147   6.692   4.972   4.716
 7734TIP3    H223148   6.549   4.988   4.670
 7735TIP3   OH223149   4.034   2.891   0.385
 7735TIP3    H123150   4.049   2.983   0.405
 7735TIP3    H223151   4.014   2.889   0.291
 7736TIP3   OH223152   5.667   6.459   4.417
 7736TIP3    H123153   5.613   6.380   4.421
 7736TIP3    H223154   5.725   6.444   4.342
 7737TIP3   OH223155   0.805   0.214   3.958
 7737TIP3    H123156   0.900   0.215   3.971
 7737TIP3    H223157   0.779   0.124   3.978
 7738TIP3   OH223158   5.135   0.373   2.846
 7738TIP3    H123159   5.083   0.306   2.801
 7738TIP3    H223160   5.078   0.407   2.914
 7739TIP3   OH223161   4.922   5.273   1.016
 7739TIP3    H123162   4.922   5.312   1.104
 7739TIP3    H223163   4.837   5.228   1.011
 7740TIP3   OH223164   1.457   0.065   4.720
 7740TIP3    H123165   1.528   0.124   4.692
 7740TIP3    H223166   1.490   0.025   4.800
 7741TIP3   OH223167   6.267   2.439   1.385
 7741TIP3    H123168   6.313   2.387   1.451
 7741TIP3    H223169   6.252   2.524   1.428
 7742TIP3   OH223170   3.972   5.276   6.342
 7742TIP3    H123171   4.053   5.317   6.373
 7742TIP3    H223172   4.000   5.192   6.307
 7743TIP3   OH223173   6.279   5.563   5.197
 7743TIP3    H123174   6.351   5.502   5.203
 7743TIP3    H223175   6.320   5.649   5.188
 7744TIP3   OH223176   6.592   3.544   2.369
 7744TIP3    H123177   6.551   3.598   2.302
 7744TIP3    H223178   6.663   3.598   2.404
 7745TIP3   OH223179   2.600   4.008   3.470
 7745TIP3    H123180   2.638   4.090   3.502
 7745TIP3    H223181   2.506   4.025   3.467
 7746TIP3   OH223182   2.923   1.494   0.542
 7746TIP3    H123183   2.914   1.436   0.465
 7746TIP3    H223184   2.942   1.580   0.505
 7747TIP3   OH223185   0.330   0.896   4.758
 7747TIP3    H123186   0.338   0.953   4.682
 7747TIP3    H223187   0.236   0.889   4.773
 7748TIP3   OH223188   8.345   4.483   4.825
 7748TIP3    H123189   8.312   4.497   4.736
 7748TIP3    H223190   8.277   4.431   4.867
 7749TIP3   OH223191   5.134   1.956   2.253
 7749TIP3    H123192   5.070   1.991   2.191
 7749TIP3    H223193   5.175   1.883   2.207
 7750TIP3   OH223194   7.238   6.548   5.351
 7750TIP3    H123195   7.161   6.604   5.356
 7750TIP3    H223196   7.279   6.557   5.437
 7751TIP3   OH223197   6.309   6.979   3.403
 7751TIP3    H123198   6.356   6.989   3.320
 7751TIP3    H223199   6.343   7.049   3.459
 7752TIP3   OH223200   4.461   1.562   1.318
 7752TIP3    H123201   4.405   1.485   1.330
 7752TIP3    H223202   4.511   1.544   1.238
 7753TIP3   OH223203   7.306   0.664   1.712
 7753TIP3    H123204   7.380   0.633   1.766
 7753TIP3    H223205   7.268   0.584   1.676
 7754TIP3   OH223206   3.621   6.994   0.132
 7754TIP3    H123207   3.703   7.037   0.105
 7754TIP3    H223208   3.611   6.922   0.069
 7755TIP3   OH223209   3.084   4.368   5.971
 7755TIP3    H123210   3.045   4.280   5.970
 7755TIP3    H223211   3.039   4.414   5.900
 7756TIP3   OH223212   1.842   5.452   1.164
 7756TIP3    H123213   1.923   5.490   1.132
 7756TIP3    H223214   1.781   5.456   1.090
 7757TIP3   OH223215   1.563   7.535   0.769
 7757TIP3    H123216   1.510   7.507   0.844
 7757TIP3    H223217   1.502   7.585   0.715
 7758TIP3   OH223218   6.897   7.288   5.433
 7758TIP3    H123219   6.988   7.260   5.429
 7758TIP3    H223220   6.891   7.343   5.511
 7759TIP3   OH223221   6.126   0.153   0.761
 7759TIP3    H123222   6.134   0.113   0.675
 7759TIP3    H223223   6.040   0.127   0.792
 7760TIP3   OH223224   6.658   7.759   0.091
 7760TIP3    H123225   6.640   7.841   0.046
 7760TIP3    H223226   6.634   7.777   0.182
 7761TIP3   OH223227   0.078   3.946   4.182
 7761TIP3    H123228   0.104   3.946   4.090
 7761TIP3    H223229   0.157   3.973   4.229
 7762TIP3   OH223230   5.573   7.050   3.940
 7762TIP3    H123231   5.505   7.002   3.988
 7762TIP3    H223232   5.637   6.982   3.915
 7763TIP3   OH223233   5.227   1.987   1.971
 7763TIP3    H123234   5.133   1.972   1.959
 7763TIP3    H223235   5.269   1.924   1.913
 7764TIP3   OH223236   1.761   3.264   0.444
 7764TIP3    H123237   1.777   3.348   0.401
 7764TIP3    H223238   1.846   3.239   0.481
 7765TIP3   OH223239   2.750   2.935   1.151
 7765TIP3    H123240   2.698   2.899   1.079
 7765TIP3    H223241   2.762   2.860   1.210
 7766TIP3   OH223242   0.906   2.977   6.403
 7766TIP3    H123243   0.975   2.972   6.469
 7766TIP3    H223244   0.952   3.002   6.323
 7767TIP3   OH223245   8.210   7.622   4.602
 7767TIP3    H123246   8.247   7.604   4.688
 7767TIP3    H223247   8.235   7.547   4.548
 7768TIP3   OH223248   4.522   1.176   4.706
 7768TIP3    H123249   4.533   1.085   4.734
 7768TIP3    H223250   4.571   1.181   4.624
 7769TIP3   OH223251   3.499   4.784   3.052
 7769TIP3    H123252   3.553   4.706   3.042
 7769TIP3    H223253   3.444   4.766   3.128
 7770TIP3   OH223254   1.188   3.897   1.000
 7770TIP3    H123255   1.136   3.818   0.984
 7770TIP3    H223256   1.143   3.942   1.071
 7771TIP3   OH223257   5.526   5.304   4.619
 7771TIP3    H123258   5.465   5.322   4.690
 7771TIP3    H223259   5.471   5.275   4.546
 7772TIP3   OH223260   2.088   5.331   3.605
 7772TIP3    H123261   2.083   5.270   3.532
 7772TIP3    H223262   2.063   5.416   3.567
 7773TIP3   OH223263   7.887   1.642   0.556
 7773TIP3    H123264   7.826   1.698   0.604
 7773TIP3    H223265   7.932   1.702   0.497
 7774TIP3   OH223266   2.093   1.523   1.834
 7774TIP3    H123267   2.182   1.495   1.814
 7774TIP3    H223268   2.088   1.611   1.796
 7775TIP3   OH223269   6.269   2.586   2.755
 7775TIP3    H123270   6.258   2.681   2.756
 7775TIP3    H223271   6.315   2.566   2.837
 7776TIP3   OH223272   7.335   5.755   1.538
 7776TIP3    H123273   7.254   5.720   1.501
 7776TIP3    H223274   7.403   5.693   1.509
 7777TIP3   OH223275   2.882   6.671   6.117
 7777TIP3    H123276   2.873   6.637   6.206
 7777TIP3    H223277   2.840   6.606   6.062
 7778TIP3   OH223278   4.884   3.002   0.169
 7778TIP3    H123279   4.873   2.941   0.242
 7778TIP3    H223280   4.943   2.957   0.109
 7779TIP3   OH223281   4.444   2.544   2.894
 7779TIP3    H123282   4.384   2.544   2.969
 7779TIP3    H223283   4.391   2.574   2.820
 7780TIP3   OH223284   5.429   3.162   5.098
 7780TIP3    H123285   5.469   3.201   5.176
 7780TIP3    H223286   5.359   3.107   5.132
 7781TIP3   OH223287   6.990   0.079   3.131
 7781TIP3    H123288   6.994   0.146   3.199
 7781TIP3    H223289   6.980   0.127   3.049
 7782TIP3   OH223290   0.677   3.525   2.864
 7782TIP3    H123291   0.618   3.566   2.800
 7782TIP3    H223292   0.619   3.479   2.924
 7783TIP3   OH223293   7.341   6.001   0.336
 7783TIP3    H123294   7.305   5.913   0.325
 7783TIP3    H223295   7.430   5.995   0.300
 7784TIP3   OH223296   5.923   6.229   5.673
 7784TIP3    H123297   5.893   6.252   5.761
 7784TIP3    H223298   6.018   6.245   5.675
 7785TIP3   OH223299   7.382   2.165   1.354
 7785TIP3    H123300   7.337   2.226   1.412
 7785TIP3    H223301   7.465   2.207   1.333
 7786TIP3   OH223302   3.977   7.511   4.536
 7786TIP3    H123303   4.053   7.550   4.492
 7786TIP3    H223304   4.014   7.462   4.609
 7787TIP3   OH223305   4.130   5.792   6.312
 7787TIP3    H123306   4.191   5.773   6.383
 7787TIP3    H223307   4.130   5.714   6.258
 7788TIP3   OH223308   7.744   3.152   3.531
 7788TIP3    H123309   7.762   3.059   3.545
 7788TIP3    H223310   7.830   3.192   3.521
 7789TIP3   OH223311   2.986   6.220   1.013
 7789TIP3    H123312   2.965   6.268   0.933
 7789TIP3    H223313   3.053   6.272   1.055
 7790TIP3   OH223314   5.063   6.637   6.211
 7790TIP3    H123315   5.030   6.549   6.228
 7790TIP3    H223316   5.065   6.644   6.116
 7791TIP3   OH223317   3.802   4.055   4.018
 7791TIP3    H123318   3.792   4.145   3.988
 7791TIP3    H223319   3.823   4.006   3.938
 7792TIP3   OH223320   4.961   5.386   0.068
 7792TIP3    H123321   5.002   5.355   0.149
 7792TIP3    H223322   4.895   5.449   0.097
 7793TIP3   OH223323   3.626   6.378   1.686
 7793TIP3    H123324   3.682   6.402   1.612
 7793TIP3    H223325   3.687   6.347   1.753
 7794TIP3   OH223326   4.218   6.761   3.321
 7794TIP3    H123327   4.232   6.833   3.260
 7794TIP3    H223328   4.124   6.762   3.338
 7795TIP3   OH223329   3.493   6.088   1.833
 7795TIP3    H123330   3.583   6.116   1.815
 7795TIP3    H223331   3.484   6.100   1.928
 7796TIP3   OH223332   3.968   3.051   1.144
 7796TIP3    H123333   4.011   2.968   1.125
 7796TIP3    H223334   4.040   3.112   1.161
 7797TIP3   OH223335   8.032   7.077   4.822
 7797TIP3    H123336   8.096   7.008   4.840
 7797TIP3    H223337   7.990   7.094   4.906
 7798TIP3   OH223338   4.080   6.828   1.166
 7798TIP3    H123339   4.043   6.910   1.198
 7798TIP3    H223340   4.070   6.831   1.071
 7799TIP3   OH223341   7.908   2.337   0.632
 7799TIP3    H123342   7.855   2.405   0.674
 7799TIP3    H223343   7.993   2.341   0.678
 7800TIP3   OH223344   2.098   6.593   0.309
 7800TIP3    H123345   2.122   6.507   0.343
 7800TIP3    H223346   2.043   6.575   0.233
 7801TIP3   OH223347   5.875   7.651   2.354
 7801TIP3    H123348   5.889   7.579   2.293
 7801TIP3    H223349   5.828   7.612   2.427
 7802TIP3   OH223350   3.535   1.473   1.758
 7802TIP3    H123351   3.560   1.455   1.849
 7802TIP3    H223352   3.618   1.472   1.710
 7803TIP3   OH223353   4.643   7.384   2.272
 7803TIP3    H123354   4.598   7.302   2.253
 7803TIP3    H223355   4.596   7.450   2.221
 7804TIP3   OH223356   0.817   6.272   3.907
 7804TIP3    H123357   0.849   6.184   3.928
 7804TIP3    H223358   0.764   6.260   3.828
 7805TIP3   OH223359   7.318   0.686   5.512
 7805TIP3    H123360   7.249   0.711   5.574
 7805TIP3    H223361   7.305   0.745   5.438
 7806TIP3   OH223362   0.441   0.174   4.752
 7806TIP3    H123363   0.531   0.194   4.728
 7806TIP3    H223364   0.425   0.226   4.831
 7807TIP3   OH223365   4.056   7.020   1.804
 7807TIP3    H123366   4.038   6.944   1.859
 7807TIP3    H223367   4.073   6.984   1.717
 7808TIP3   OH223368   6.113   2.584   5.149
 7808TIP3    H123369   6.104   2.652   5.216
 7808TIP3    H223370   6.067   2.508   5.184
 7809TIP3   OH223371   0.154   5.665   0.553
 7809TIP3    H123372   0.149   5.721   0.630
 7809TIP3    H223373   0.124   5.580   0.583
 7810TIP3   OH223374   4.617   4.988   0.606
 7810TIP3    H123375   4.560   5.033   0.543
 7810TIP3    H223376   4.656   5.059   0.657
 7811TIP3   OH223377   2.709   7.629   0.759
 7811TIP3    H123378   2.741   7.661   0.843
 7811TIP3    H223379   2.689   7.708   0.709
 7812TIP3   OH223380   5.068   3.269   3.737
 7812TIP3    H123381   5.114   3.334   3.683
 7812TIP3    H223382   5.127   3.254   3.811
 7813TIP3   OH223383   5.279   4.662   1.729
 7813TIP3    H123384   5.332   4.715   1.789
 7813TIP3    H223385   5.278   4.711   1.648
 7814TIP3   OH223386   5.411   3.316   2.243
 7814TIP3    H123387   5.416   3.409   2.219
 7814TIP3    H223388   5.318   3.295   2.241
 7815TIP3   OH223389   4.353   4.285   6.543
 7815TIP3    H123390   4.377   4.372   6.576
 7815TIP3    H223391   4.270   4.265   6.585
 7816TIP3   OH223392   4.667   3.661   3.226
 7816TIP3    H123393   4.708   3.713   3.157
 7816TIP3    H223394   4.584   3.705   3.243
 7817TIP3   OH223395   6.280   1.487   2.321
 7817TIP3    H123396   6.260   1.569   2.275
 7817TIP3    H223397   6.333   1.437   2.258
 7818TIP3   OH223398   6.892   1.626   0.500
 7818TIP3    H123399   6.811   1.592   0.537
 7818TIP3    H223400   6.950   1.637   0.576
 7819TIP3   OH223401   7.054   7.439   4.695
 7819TIP3    H123402   6.999   7.360   4.702
 7819TIP3    H223403   7.102   7.442   4.778
 7820TIP3   OH223404   0.509   6.567   5.334
 7820TIP3    H123405   0.486   6.641   5.277
 7820TIP3    H223406   0.538   6.499   5.274
 7821TIP3   OH223407   0.790   1.328   5.235
 7821TIP3    H123408   0.753   1.417   5.238
 7821TIP3    H223409   0.771   1.298   5.146
 7822TIP3   OH223410   4.551   2.642   0.282
 7822TIP3    H123411   4.575   2.552   0.258
 7822TIP3    H223412   4.526   2.636   0.374
 7823TIP3   OH223413   0.733   3.094   0.783
 7823TIP3    H123414   0.826   3.090   0.762
 7823TIP3    H223415   0.725   3.171   0.840
 7824TIP3   OH223416   3.991   6.012   3.468
 7824TIP3    H123417   3.914   6.061   3.442
 7824TIP3    H223418   3.958   5.945   3.527
 7825TIP3   OH223419   5.875   5.596   6.336
 7825TIP3    H123420   5.883   5.689   6.316
 7825TIP3    H223421   5.786   5.586   6.369
 7826TIP3   OH223422   3.896   6.336   6.708
 7826TIP3    H123423   3.841   6.279   6.763
 7826TIP3    H223424   3.975   6.352   6.761
 7827TIP3   OH223425   8.246   5.589   3.067
 7827TIP3    H123426   8.335   5.611   3.041
 7827TIP3    H223427   8.250   5.498   3.094
 7828TIP3   OH223428   2.850   3.517   5.174
 7828TIP3    H123429   2.905   3.442   5.197
 7828TIP3    H223430   2.845   3.514   5.078
 7829TIP3   OH223431   7.803   5.187   3.294
 7829TIP3    H123432   7.730   5.246   3.312
 7829TIP3    H223433   7.769   5.100   3.312
 7830TIP3   OH223434   0.867   7.802   0.736
 7830TIP3    H123435   0.857   7.852   0.817
 7830TIP3    H223436   0.783   7.758   0.723
 7831TIP3   OH223437   4.676   6.036   0.810
 7831TIP3    H123438   4.713   6.008   0.726
 7831TIP3    H223439   4.581   6.037   0.795
 7832TIP3   OH223440   2.170   4.685   6.449
 7832TIP3    H123441   2.146   4.776   6.461
 7832TIP3    H223442   2.241   4.670   6.511
 7833TIP3   OH223443   5.605   2.703   5.899
 7833TIP3    H123444   5.543   2.632   5.881
 7833TIP3    H223445   5.691   2.666   5.879
 7834TIP3   OH223446   3.510   7.104   6.543
 7834TIP3    H123447   3.492   7.138   6.631
 7834TIP3    H223448   3.424   7.079   6.510
 7835TIP3   OH223449   5.759   2.158   4.367
 7835TIP3    H123450   5.807   2.164   4.449
 7835TIP3    H223451   5.741   2.065   4.356
 7836TIP3   OH223452   4.418   5.815   4.396
 7836TIP3    H123453   4.411   5.805   4.491
 7836TIP3    H223454   4.470   5.894   4.384
 7837TIP3   OH223455   1.610   3.101   4.320
 7837TIP3    H123456   1.565   3.095   4.404
 7837TIP3    H223457   1.540   3.115   4.256
 7838TIP3   OH223458   3.273   5.412   5.823
 7838TIP3    H123459   3.362   5.406   5.788
 7838TIP3    H223460   3.266   5.503   5.851
 7839TIP3   OH223461   0.828   0.469   3.913
 7839TIP3    H123462   0.885   0.489   3.988
 7839TIP3    H223463   0.801   0.379   3.927
 7840TIP3   OH223464   0.589   6.283   5.442
 7840TIP3    H123465   0.677   6.291   5.406
 7840TIP3    H223466   0.574   6.188   5.449
 7841TIP3   OH223467   1.276   2.074   4.472
 7841TIP3    H123468   1.352   2.128   4.448
 7841TIP3    H223469   1.202   2.134   4.467
 7842TIP3   OH223470   2.807   7.289   5.585
 7842TIP3    H123471   2.727   7.338   5.605
 7842TIP3    H223472   2.875   7.333   5.636
 7843TIP3   OH223473   6.018   2.967   3.157
 7843TIP3    H123474   6.000   2.885   3.112
 7843TIP3    H223475   6.113   2.968   3.169
 7844TIP3   OH223476   5.635   5.359   4.223
 7844TIP3    H123477   5.583   5.408   4.286
 7844TIP3    H223478   5.725   5.365   4.256
 7845TIP3   OH223479   5.667   1.798   0.908
 7845TIP3    H123480   5.739   1.750   0.948
 7845TIP3    H223481   5.638   1.742   0.836
 7846TIP3   OH223482   2.319   7.161   2.984
 7846TIP3    H123483   2.271   7.204   2.913
 7846TIP3    H223484   2.275   7.077   2.996
 7847TIP3   OH223485   3.796   2.653   5.022
 7847TIP3    H123486   3.773   2.659   4.929
 7847TIP3    H223487   3.887   2.623   5.022
 7848TIP3   OH223488   1.417   7.018   1.437
 7848TIP3    H123489   1.373   6.998   1.354
 7848TIP3    H223490   1.345   7.043   1.496
 7849TIP3   OH223491   2.244   1.901   2.839
 7849TIP3    H123492   2.279   1.933   2.923
 7849TIP3    H223493   2.259   1.973   2.778
 7850TIP3   OH223494   5.085   5.043   1.535
 7850TIP3    H123495   4.990   5.055   1.539
 7850TIP3    H223496   5.100   4.996   1.453
 7851TIP3   OH223497   2.784   3.357   0.929
 7851TIP3    H123498   2.831   3.281   0.894
 7851TIP3    H223499   2.824   3.432   0.884
 7852TIP3   OH223500   0.856   4.135   6.482
 7852TIP3    H123501   0.905   4.182   6.414
 7852TIP3    H223502   0.890   4.046   6.479
 7853TIP3   OH223503   2.078   3.053   1.844
 7853TIP3    H123504   1.985   3.032   1.850
 7853TIP3    H223505   2.112   2.995   1.776
 7854TIP3   OH223506   1.606   2.011   0.987
 7854TIP3    H123507   1.551   1.937   0.963
 7854TIP3    H223508   1.591   2.076   0.918
 7855TIP3   OH223509   1.819   0.397   4.849
 7855TIP3    H123510   1.825   0.443   4.765
 7855TIP3    H223511   1.897   0.425   4.897
 7856TIP3   OH223512   2.430   3.547   4.968
 7856TIP3    H123513   2.414   3.598   5.048
 7856TIP3    H223514   2.399   3.604   4.897
 7857TIP3   OH223515   2.318   1.483   3.213
 7857TIP3    H123516   2.332   1.452   3.124
 7857TIP3    H223517   2.243   1.542   3.207
 7858TIP3   OH223518   1.827   5.123   5.891
 7858TIP3    H123519   1.874   5.205   5.875
 7858TIP3    H223520   1.736   5.150   5.901
 7859TIP3   OH223521   7.062   3.183   1.217
 7859TIP3    H123522   7.045   3.209   1.126
 7859TIP3    H223523   6.986   3.131   1.242
 7860TIP3   OH223524   3.736   2.753   1.000
 7860TIP3    H123525   3.703   2.837   0.967
 7860TIP3    H223526   3.831   2.762   0.997
 7861TIP3   OH223527   2.826   6.479   5.947
 7861TIP3    H123528   2.746   6.469   5.895
 7861TIP3    H223529   2.896   6.445   5.890
 7862TIP3   OH223530   0.664   6.975   6.072
 7862TIP3    H123531   0.685   7.051   6.017
 7862TIP3    H223532   0.748   6.942   6.102
 7863TIP3   OH223533   4.894   5.464   1.345
 7863TIP3    H123534   4.818   5.419   1.383
 7863TIP3    H223535   4.858   5.517   1.275
 7864TIP3   OH223536   2.841   1.368   3.430
 7864TIP3    H123537   2.927   1.397   3.400
 7864TIP3    H223538   2.787   1.447   3.428
 7865TIP3   OH223539   6.255   0.968   2.585
 7865TIP3    H123540   6.332   0.991   2.533
 7865TIP3    H223541   6.191   0.935   2.521
 7866TIP3   OH223542   7.368   2.433   4.146
 7866TIP3    H123543   7.449   2.433   4.197
 7866TIP3    H223544   7.397   2.445   4.056
 7867TIP3   OH223545   1.946   4.633   0.123
 7867TIP3    H123546   2.011   4.563   0.127
 7867TIP3    H223547   1.952   4.677   0.208
 7868TIP3   OH223548   3.970   4.838   5.538
 7868TIP3    H123549   4.027   4.840   5.461
 7868TIP3    H223550   3.890   4.883   5.510
 7869TIP3   OH223551   4.847   0.604   0.184
 7869TIP3    H123552   4.886   0.671   0.240
 7869TIP3    H223553   4.799   0.653   0.117
 7870TIP3   OH223554   3.242   3.840   0.783
 7870TIP3    H123555   3.159   3.889   0.782
 7870TIP3    H223556   3.243   3.794   0.698
 7871TIP3   OH223557   8.187   5.240   4.397
 7871TIP3    H123558   8.164   5.148   4.389
 7871TIP3    H223559   8.142   5.270   4.475
 7872TIP3   OH223560   4.334   0.109   1.014
 7872TIP3    H123561   4.311   0.202   1.025
 7872TIP3    H223562   4.290   0.065   1.087
 7873TIP3   OH223563   4.940   4.522   3.914
 7873TIP3    H123564   5.032   4.495   3.906
 7873TIP3    H223565   4.931   4.550   4.005
 7874TIP3   OH223566   7.724   7.322   0.505
 7874TIP3    H123567   7.759   7.233   0.518
 7874TIP3    H223568   7.633   7.308   0.480
 7875TIP3   OH223569   3.394   3.408   0.770
 7875TIP3    H123570   3.378   3.480   0.831
 7875TIP3    H223571   3.469   3.362   0.807
 7876TIP3   OH223572   3.322   0.152   4.926
 7876TIP3    H123573   3.301   0.058   4.924
 7876TIP3    H223574   3.415   0.155   4.945
 7877TIP3   OH223575   2.123   1.998   4.003
 7877TIP3    H123576   2.052   1.991   4.068
 7877TIP3    H223577   2.194   2.040   4.051
 7878TIP3   OH223578   7.587   3.346   0.937
 7878TIP3    H123579   7.576   3.407   1.010
 7878TIP3    H223580   7.640   3.395   0.874
 7879TIP3   OH223581   5.810   0.393   2.267
 7879TIP3    H123582   5.890   0.393   2.214
 7879TIP3    H223583   5.821   0.320   2.327
 7880TIP3   OH223584   4.310   5.504   4.406
 7880TIP3    H123585   4.344   5.585   4.369
 7880TIP3    H223586   4.231   5.485   4.355
 7881TIP3   OH223587   1.400   0.072   3.045
 7881TIP3    H123588   1.439   0.025   2.971
 7881TIP3    H223589   1.457   0.148   3.059
 7882TIP3   OH223590   1.131   7.775   5.925
 7882TIP3    H123591   1.090   7.721   5.992
 7882TIP3    H223592   1.141   7.861   5.966
 7883TIP3   OH223593   1.431   2.167   6.143
 7883TIP3    H123594   1.363   2.225   6.177
 7883TIP3    H223595   1.453   2.204   6.057
 7884TIP3   OH223596   2.392   3.766   5.508
 7884TIP3    H123597   2.392   3.702   5.437
 7884TIP3    H223598   2.299   3.789   5.520
 7885TIP3   OH223599   2.046   1.125   3.746
 7885TIP3    H123600   2.024   1.036   3.773
 7885TIP3    H223601   1.992   1.181   3.801
 7886TIP3   OH223602   7.993   3.237   4.230
 7886TIP3    H123603   7.981   3.307   4.165
 7886TIP3    H223604   8.035   3.281   4.305
 7887TIP3   OH223605   6.627   6.659   5.209
 7887TIP3    H123606   6.605   6.722   5.140
 7887TIP3    H223607   6.568   6.683   5.281
 7888TIP3   OH223608   5.928   7.515   5.683
 7888TIP3    H123609   5.840   7.477   5.681
 7888TIP3    H223610   5.939   7.554   5.596
 7889TIP3   OH223611   5.224   4.997   3.249
 7889TIP3    H123612   5.243   5.013   3.156
 7889TIP3    H223613   5.217   4.901   3.255
 7890TIP3   OH223614   3.265   5.699   5.747
 7890TIP3    H123615   3.273   5.700   5.843
 7890TIP3    H223616   3.260   5.792   5.723
 7891TIP3   OH223617   6.032   0.912   6.175
 7891TIP3    H123618   6.094   0.976   6.141
 7891TIP3    H223619   6.019   0.851   6.103
 7892TIP3   OH223620   1.494   7.218   2.325
 7892TIP3    H123621   1.404   7.187   2.324
 7892TIP3    H223622   1.508   7.247   2.414
 7893TIP3   OH223623   0.614   7.039   0.927
 7893TIP3    H123624   0.576   6.955   0.952
 7893TIP3    H223625   0.700   7.041   0.970
 7894TIP3   OH223626   0.600   0.159   4.416
 7894TIP3    H123627   0.624   0.221   4.347
 7894TIP3    H223628   0.684   0.124   4.447
 7895TIP3   OH223629   7.242   4.736   0.064
 7895TIP3    H123630   7.337   4.730   0.068
 7895TIP3    H223631   7.218   4.801   0.129
 7896TIP3   OH223632   7.003   3.103   4.642
 7896TIP3    H123633   6.991   3.041   4.714
 7896TIP3    H223634   7.094   3.130   4.649
 7897TIP3   OH223635   5.208   1.558   0.830
 7897TIP3    H123636   5.241   1.584   0.916
 7897TIP3    H223637   5.179   1.639   0.789
 7898TIP3   OH223638   5.180   4.002   5.633
 7898TIP3    H123639   5.161   3.969   5.545
 7898TIP3    H223640   5.190   4.097   5.621
 7899TIP3   OH223641   1.960   2.329   5.338
 7899TIP3    H123642   2.049   2.352   5.312
 7899TIP3    H223643   1.964   2.235   5.356
 7900TIP3   OH223644   7.696   4.957   0.012
 7900TIP3    H123645   7.772   4.902  -0.006
 7900TIP3    H223646   7.644   4.954  -0.069
 7901TIP3   OH223647   0.460   0.994   3.074
 7901TIP3    H123648   0.469   0.914   3.021
 7901TIP3    H223649   0.514   0.977   3.151
 7902TIP3   OH223650   3.340   0.250   2.510
 7902TIP3    H123651   3.278   0.294   2.452
 7902TIP3    H223652   3.398   0.202   2.452
 7903TIP3   OH223653   2.896   3.651   5.408
 7903TIP3    H123654   2.913   3.623   5.318
 7903TIP3    H223655   2.837   3.585   5.443
 7904TIP3   OH223656   0.198   0.282   3.894
 7904TIP3    H123657   0.146   0.359   3.873
 7904TIP3    H223658   0.288   0.307   3.875
 7905TIP3   OH223659   5.313   2.730   1.450
 7905TIP3    H123660   5.291   2.796   1.385
 7905TIP3    H223661   5.325   2.779   1.531
 7906TIP3   OH223662   4.577   1.802   0.100
 7906TIP3    H123663   4.609   1.884   0.062
 7906TIP3    H223664   4.559   1.746   0.025
 7907TIP3   OH223665   8.214   0.602   1.511
 7907TIP3    H123666   8.192   0.555   1.592
 7907TIP3    H223667   8.132   0.644   1.485
 7908TIP3   OH223668   4.767   0.570   1.869
 7908TIP3    H123669   4.826   0.553   1.942
 7908TIP3    H223670   4.780   0.662   1.848
 7909TIP3   OH223671   2.263   5.125   5.941
 7909TIP3    H123672   2.351   5.115   5.905
 7909TIP3    H223673   2.228   5.036   5.944
 7910TIP3   OH223674   0.456   4.335   0.096
 7910TIP3    H123675   0.426   4.310   0.183
 7910TIP3    H223676   0.524   4.401   0.111
 7911TIP3   OH223677   4.603   7.191   6.024
 7911TIP3    H123678   4.677   7.182   5.964
 7911TIP3    H223679   4.591   7.104   6.061
 7912TIP3   OH223680   2.551   6.699   3.769
 7912TIP3    H123681   2.612   6.629   3.792
 7912TIP3    H223682   2.476   6.653   3.730
 7913TIP3   OH223683   6.346   3.566   2.882
 7913TIP3    H123684   6.340   3.553   2.976
 7913TIP3    H223685   6.264   3.531   2.847
 7914TIP3   OH223686   4.684   7.710   2.298
 7914TIP3    H123687   4.663   7.679   2.210
 7914TIP3    H223688   4.712   7.801   2.285
 7915TIP3   OH223689   0.397   1.260   6.699
 7915TIP3    H123690   0.455   1.326   6.660
 7915TIP3    H223691   0.362   1.211   6.624
 7916TIP3   OH223692   4.404   4.003   2.084
 7916TIP3    H123693   4.420   4.027   2.176
 7916TIP3    H223694   4.309   4.011   2.074
 7917TIP3   OH223695   4.087   4.303   2.173
 7917TIP3    H123696   4.026   4.344   2.234
 7917TIP3    H223697   4.032   4.263   2.106
 7918TIP3   OH223698   5.867   7.302   6.317
 7918TIP3    H123699   5.910   7.225   6.281
 7918TIP3    H223700   5.921   7.376   6.287
 7919TIP3   OH223701   2.785   3.879   4.604
 7919TIP3    H123702   2.823   3.840   4.683
 7919TIP3    H223703   2.760   3.804   4.550
 7920TIP3   OH223704   2.599   0.330   2.865
 7920TIP3    H123705   2.667   0.265   2.884
 7920TIP3    H223706   2.517   0.287   2.888
 7921TIP3   OH223707   3.988   6.356   4.831
 7921TIP3    H123708   3.902   6.342   4.872
 7921TIP3    H223709   4.043   6.386   4.903
 7922TIP3   OH223710   5.000   1.224   2.053
 7922TIP3    H123711   5.031   1.287   1.987
 7922TIP3    H223712   4.979   1.279   2.129
 7923TIP3   OH223713   5.094   7.719   2.329
 7923TIP3    H123714   5.061   7.648   2.274
 7923TIP3    H223715   5.016   7.757   2.369
 7924TIP3   OH223716   2.322   7.107   6.256
 7924TIP3    H123717   2.294   7.069   6.173
 7924TIP3    H223718   2.287   7.047   6.322
 7925TIP3   OH223719   7.912   0.559   1.816
 7925TIP3    H123720   7.837   0.609   1.847
 7925TIP3    H223721   7.875   0.492   1.758
 7926TIP3   OH223722   8.000   4.391   5.422
 7926TIP3    H123723   8.011   4.354   5.510
 7926TIP3    H223724   8.070   4.352   5.370
 7927TIP3   OH223725   1.843   7.328   2.147
 7927TIP3    H123726   1.924   7.362   2.110
 7927TIP3    H223727   1.870   7.286   2.229
 7928TIP3   OH223728   3.659   0.336   0.024
 7928TIP3    H123729   3.574   0.295   0.013
 7928TIP3    H223730   3.640   0.423   0.059
 7929TIP3   OH223731   0.940   7.231   2.685
 7929TIP3    H123732   0.952   7.237   2.779
 7929TIP3    H223733   0.864   7.286   2.666
 7930TIP3   OH223734   1.044   0.235   6.343
 7930TIP3    H123735   0.990   0.282   6.407
 7930TIP3    H223736   1.051   0.146   6.378
 7931TIP3   OH223737   7.852   6.311   3.860
 7931TIP3    H123738   7.856   6.236   3.919
 7931TIP3    H223739   7.918   6.291   3.793
 7932TIP3   OH223740   5.994   5.850   6.446
 7932TIP3    H123741   6.021   5.868   6.356
 7932TIP3    H223742   5.941   5.926   6.470
 7933TIP3   OH223743   5.705   7.130   4.214
 7933TIP3    H123744   5.662   7.119   4.129
 7933TIP3    H223745   5.684   7.220   4.240
 7934TIP3   OH223746   2.485   6.477   1.051
 7934TIP3    H123747   2.395   6.502   1.069
 7934TIP3    H223748   2.514   6.537   0.982
 7935TIP3   OH223749   1.489   3.619   3.964
 7935TIP3    H123750   1.453   3.568   3.892
 7935TIP3    H223751   1.506   3.555   4.033
 7936TIP3   OH223752   6.220   6.015   5.875
 7936TIP3    H123753   6.282   6.055   5.936
 7936TIP3    H223754   6.229   5.921   5.890
 7937TIP3   OH223755   7.838   6.519   5.783
 7937TIP3    H123756   7.796   6.530   5.698
 7937TIP3    H223757   7.825   6.426   5.804
 7938TIP3   OH223758   2.444  -0.011   6.347
 7938TIP3    H123759   2.387  -0.059   6.288
 7938TIP3    H223760   2.491   0.050   6.291
 7939TIP3   OH223761   7.650   0.401   2.916
 7939TIP3    H123762   7.606   0.417   2.832
 7939TIP3    H223763   7.730   0.453   2.911
 7940TIP3   OH223764   4.673   1.883   6.550
 7940TIP3    H123765   4.647   1.976   6.552
 7940TIP3    H223766   4.761   1.882   6.588
 7941TIP3   OH223767   0.443   6.624   3.232
 7941TIP3    H123768   0.350   6.604   3.230
 7941TIP3    H223769   0.467   6.619   3.325
 7942TIP3   OH223770   1.432   1.089   2.025
 7942TIP3    H123771   1.363   1.124   1.968
 7942TIP3    H223772   1.513   1.125   1.989
 7943TIP3   OH223773   7.049   5.099   4.747
 7943TIP3    H123774   7.091   5.071   4.665
 7943TIP3    H223775   7.122   5.124   4.804
 7944TIP3   OH223776   6.721   4.399   4.156
 7944TIP3    H123777   6.757   4.372   4.072
 7944TIP3    H223778   6.791   4.450   4.198
 7945TIP3   OH223779   5.033   5.971   0.839
 7945TIP3    H123780   5.062   6.033   0.772
 7945TIP3    H223781   5.019   5.889   0.792
 7946TIP3   OH223782   6.528   2.943   3.842
 7946TIP3    H123783   6.492   2.915   3.926
 7946TIP3    H223784   6.457   2.928   3.779
 7947TIP3   OH223785   1.911   5.531   4.716
 7947TIP3    H123786   1.859   5.463   4.674
 7947TIP3    H223787   1.868   5.545   4.801
 7948TIP3   OH223788   1.712   5.492   1.798
 7948TIP3    H123789   1.787   5.537   1.758
 7948TIP3    H223790   1.752   5.423   1.852
 7949TIP3   OH223791   1.040   6.393   3.987
 7949TIP3    H123792   1.091   6.355   3.916
 7949TIP3    H223793   0.950   6.366   3.969
 7950TIP3   OH223794   1.534   5.299   3.895
 7950TIP3    H123795   1.486   5.308   3.977
 7950TIP3    H223796   1.560   5.388   3.872
 7951TIP3   OH223797   0.777   2.544   6.074
 7951TIP3    H123798   0.696   2.587   6.044
 7951TIP3    H223799   0.845   2.609   6.060
 7952TIP3   OH223800   8.194   5.658   5.721
 7952TIP3    H123801   8.241   5.713   5.658
 7952TIP3    H223802   8.136   5.605   5.666
 7953TIP3   OH223803   6.654   5.594   0.568
 7953TIP3    H123804   6.664   5.603   0.473
 7953TIP3    H223805   6.742   5.577   0.600
 7954TIP3   OH223806   4.190   1.211   4.867
 7954TIP3    H123807   4.218   1.140   4.808
 7954TIP3    H223808   4.272   1.243   4.905
 7955TIP3   OH223809   6.713   0.985   4.739
 7955TIP3    H123810   6.638   1.023   4.692
 7955TIP3    H223811   6.705   0.891   4.725
 7956TIP3   OH223812   2.863   3.366   1.654
 7956TIP3    H123813   2.958   3.372   1.666
 7956TIP3    H223814   2.838   3.288   1.703
 7957TIP3   OH223815   3.502   4.525   6.768
 7957TIP3    H123816   3.545   4.609   6.753
 7957TIP3    H223817   3.423   4.529   6.714
 7958TIP3   OH223818   0.588   6.219   6.370
 7958TIP3    H123819   0.548   6.222   6.457
 7958TIP3    H223820   0.672   6.176   6.384
 7959TIP3   OH223821   7.741   2.114   4.350
 7959TIP3    H123822   7.764   2.066   4.430
 7959TIP3    H223823   7.822   2.157   4.323
 7960TIP3   OH223824   2.260   6.506   3.853
 7960TIP3    H123825   2.278   6.562   3.777
 7960TIP3    H223826   2.311   6.427   3.837
 7961TIP3   OH223827   1.411   5.052   4.133
 7961TIP3    H123828   1.499   5.089   4.126
 7961TIP3    H223829   1.422   4.971   4.183
 7962TIP3   OH223830   5.292   0.695   6.696
 7962TIP3    H123831   5.296   0.603   6.722
 7962TIP3    H223832   5.298   0.694   6.601
 7963TIP3   OH223833   0.293   4.316   0.589
 7963TIP3    H123834   0.200   4.334   0.604
 7963TIP3    H223835   0.324   4.282   0.673
 7964TIP3   OH223836   2.665   6.404   1.939
 7964TIP3    H123837   2.663   6.316   1.979
 7964TIP3    H223838   2.574   6.426   1.924
 7965TIP3   OH223839   5.300   4.008   3.372
 7965TIP3    H123840   5.220   4.061   3.374
 7965TIP3    H223841   5.361   4.057   3.427
 7966TIP3   OH223842   4.583   0.568   6.647
 7966TIP3    H123843   4.559   0.476   6.651
 7966TIP3    H223844   4.501   0.613   6.628
 7967TIP3   OH223845   4.369   7.295   6.127
 7967TIP3    H123846   4.302   7.227   6.136
 7967TIP3    H223847   4.441   7.253   6.082
 7968TIP3   OH223848   0.673   2.030   4.974
 7968TIP3    H123849   0.655   1.936   4.982
 7968TIP3    H223850   0.713   2.039   4.888
 7969TIP3   OH223851   5.468   6.123   6.106
 7969TIP3    H123852   5.445   6.166   6.188
 7969TIP3    H223853   5.450   6.189   6.039
 7970TIP3   OH223854   4.765   1.429   4.208
 7970TIP3    H123855   4.749   1.469   4.294
 7970TIP3    H223856   4.787   1.502   4.151
 7971TIP3   OH223857   4.532   0.921   0.084
 7971TIP3    H123858   4.530   0.842   0.138
 7971TIP3    H223859   4.444   0.958   0.091
 7972TIP3   OH223860   1.935   5.812   0.883
 7972TIP3    H123861   2.016   5.801   0.932
 7972TIP3    H223862   1.892   5.726   0.887
 7973TIP3   OH223863   3.325   7.011   1.541
 7973TIP3    H123864   3.288   7.036   1.626
 7973TIP3    H223865   3.386   6.940   1.560
 7974TIP3   OH223866   0.691   7.332   5.276
 7974TIP3    H123867   0.760   7.375   5.327
 7974TIP3    H223868   0.617   7.328   5.335
 7975TIP3   OH223869   8.194   0.982   6.174
 7975TIP3    H123870   8.261   0.942   6.118
 7975TIP3    H223871   8.156   0.909   6.222
 7976TIP3   OH223872   4.225   2.615   5.859
 7976TIP3    H123873   4.215   2.560   5.937
 7976TIP3    H223874   4.199   2.558   5.786
 7977TIP3   OH223875   7.559   5.253   3.193
 7977TIP3    H123876   7.639   5.230   3.145
 7977TIP3    H223877   7.494   5.190   3.161
 7978TIP3   OH223878   5.958   1.578   3.924
 7978TIP3    H123879   5.871   1.610   3.898
 7978TIP3    H223880   6.010   1.584   3.844
 7979TIP3   OH223881   6.743   2.426   2.634
 7979TIP3    H123882   6.677   2.493   2.617
 7979TIP3    H223883   6.822   2.475   2.659
 7980TIP3   OH223884   7.415   3.112   0.144
 7980TIP3    H123885   7.359   3.042   0.112
 7980TIP3    H223886   7.496   3.068   0.171
 7981TIP3   OH223887   6.542   2.575   2.876
 7981TIP3    H123888   6.630   2.613   2.867
 7981TIP3    H223889   6.522   2.539   2.790
 7982TIP3   OH223890   8.013   1.877   4.882
 7982TIP3    H123891   8.003   1.924   4.964
 7982TIP3    H223892   8.000   1.944   4.814
 7983TIP3   OH223893   7.290   5.421   5.186
 7983TIP3    H123894   7.253   5.483   5.123
 7983TIP3    H223895   7.221   5.411   5.253
 7984TIP3   OH223896   5.936   6.503   4.502
 7984TIP3    H123897   5.841   6.492   4.509
 7984TIP3    H223898   5.948   6.597   4.490
 7985TIP3   OH223899   2.814   0.037   3.365
 7985TIP3    H123900   2.879   0.060   3.298
 7985TIP3    H223901   2.855   0.063   3.448
 7986TIP3   OH223902   0.738   3.800   1.948
 7986TIP3    H123903   0.663   3.860   1.944
 7986TIP3    H223904   0.751   3.784   2.041
 7987TIP3   OH223905   6.101   2.007   0.456
 7987TIP3    H123906   6.063   2.092   0.436
 7987TIP3    H223907   6.182   2.005   0.404
 7988TIP3   OH223908   3.834   2.334   5.259
 7988TIP3    H123909   3.771   2.354   5.190
 7988TIP3    H223910   3.893   2.269   5.220
 7989TIP3   OH223911   7.764   3.841   4.069
 7989TIP3    H123912   7.740   3.817   3.980
 7989TIP3    H223913   7.848   3.886   4.060
 7990TIP3   OH223914   2.779   2.768   0.879
 7990TIP3    H123915   2.739   2.698   0.930
 7990TIP3    H223916   2.734   2.766   0.795
 7991TIP3   OH223917   7.807   6.232   5.720
 7991TIP3    H123918   7.902   6.223   5.728
 7991TIP3    H223919   7.773   6.148   5.753
 7992TIP3   OH223920   2.467   3.149   5.828
 7992TIP3    H123921   2.524   3.077   5.800
 7992TIP3    H223922   2.388   3.139   5.776
 7993TIP3   OH223923   2.380   4.256   2.818
 7993TIP3    H123924   2.423   4.274   2.734
 7993TIP3    H223925   2.419   4.319   2.878
 7994TIP3   OH223926   2.747   0.062   0.661
 7994TIP3    H123927   2.818   0.125   0.651
 7994TIP3    H223928   2.734   0.056   0.756
 7995TIP3   OH223929   0.009   4.563   1.288
 7995TIP3    H123930  -0.052   4.497   1.256
 7995TIP3    H223931   0.092   4.516   1.299
 7996TIP3   OH223932   4.224   3.367   3.009
 7996TIP3    H123933   4.226   3.274   2.985
 7996TIP3    H223934   4.282   3.373   3.085
 7997TIP3   OH223935   1.470   3.015   2.814
 7997TIP3    H123936   1.519   3.026   2.733
 7997TIP3    H223937   1.435   3.102   2.834
 7998TIP3   OH223938   1.967   1.687   4.606
 7998TIP3    H123939   1.880   1.714   4.635
 7998TIP3    H223940   1.953   1.604   4.562
 7999TIP3   OH223941   4.954   3.521   2.293
 7999TIP3    H123942   4.928   3.612   2.306
 7999TIP3    H223943   4.925   3.501   2.204
 8000TIP3   OH223944   2.694   7.023   3.601
 8000TIP3    H123945   2.691   7.118   3.611
 8000TIP3    H223946   2.687   7.009   3.506
 8001TIP3   OH223947   1.048   2.691   2.664
 8001TIP3    H123948   0.979   2.721   2.606
 8001TIP3    H223949   1.129   2.725   2.626
 8002TIP3   OH223950   4.756   4.127   2.352
 8002TIP3    H123951   4.690   4.196   2.347
 8002TIP3    H223952   4.715   4.050   2.313
 8003TIP3   OH223953   2.489   1.012   1.054
 8003TIP3    H123954   2.512   0.919   1.058
 8003TIP3    H223955   2.569   1.056   1.025
 8004TIP3   OH223956   8.299   3.423   0.396
 8004TIP3    H123957   8.306   3.361   0.468
 8004TIP3    H223958   8.252   3.498   0.434
 8005TIP3   OH223959   4.471   1.149   3.525
 8005TIP3    H123960   4.435   1.238   3.533
 8005TIP3    H223961   4.565   1.161   3.536
 8006TIP3   OH223962   0.238   7.124   2.856
 8006TIP3    H123963   0.153   7.164   2.876
 8006TIP3    H223964   0.233   7.104   2.762
 8007TIP3   OH223965   7.225   7.420   4.460
 8007TIP3    H123966   7.165   7.460   4.522
 8007TIP3    H223967   7.256   7.341   4.504
 8008TIP3   OH223968   5.705   2.311   0.703
 8008TIP3    H123969   5.763   2.315   0.779
 8008TIP3    H223970   5.758   2.344   0.631
 8009TIP3   OH223971   3.197   7.821   1.365
 8009TIP3    H123972   3.253   7.878   1.418
 8009TIP3    H223973   3.165   7.755   1.427
 8010TIP3   OH223974   3.981   7.338   3.076
 8010TIP3    H123975   4.027   7.308   3.155
 8010TIP3    H223976   3.889   7.324   3.096
 8011TIP3   OH223977   6.448   4.447   5.330
 8011TIP3    H123978   6.492   4.515   5.280
 8011TIP3    H223979   6.461   4.367   5.278
 8012TIP3   OH223980   1.669   7.122   1.246
 8012TIP3    H123981   1.596   7.060   1.252
 8012TIP3    H223982   1.705   7.125   1.335
 8013TIP3   OH223983   0.548   6.639   2.030
 8013TIP3    H123984   0.612   6.638   1.959
 8013TIP3    H223985   0.467   6.607   1.991
 8014TIP3   OH223986   6.542   6.166   3.909
 8014TIP3    H123987   6.468   6.111   3.935
 8014TIP3    H223988   6.540   6.166   3.814
 8015TIP3   OH223989   8.114   2.688   0.825
 8015TIP3    H123990   8.154   2.756   0.878
 8015TIP3    H223991   8.180   2.666   0.760
 8016TIP3   OH223992   4.280   3.049   0.980
 8016TIP3    H123993   4.352   2.991   0.958
 8016TIP3    H223994   4.203   2.992   0.981
 8017TIP3   OH223995   5.555   6.764   1.096
 8017TIP3    H123996   5.592   6.682   1.128
 8017TIP3    H223997   5.531   6.746   1.005
 8018TIP3   OH223998   6.449   5.035   1.587
 8018TIP3    H123999   6.468   4.942   1.579
 8018TIP3    H224000   6.534   5.078   1.584
 8019TIP3   OH224001   0.733   5.533   4.921
 8019TIP3    H124002   0.792   5.556   4.993
 8019TIP3    H224003   0.651   5.578   4.942
 8020TIP3   OH224004   3.355   3.815   6.645
 8020TIP3    H124005   3.393   3.858   6.722
 8020TIP3    H224006   3.393   3.728   6.646
 8021TIP3   OH224007   2.208   1.827   4.617
 8021TIP3    H124008   2.119   1.793   4.622
 8021TIP3    H224009   2.199   1.921   4.627
 8022TIP3   OH224010   3.498   1.922   5.232
 8022TIP3    H124011   3.482   1.846   5.289
 8022TIP3    H224012   3.472   1.893   5.145
 8023TIP3   OH224013   6.426   5.645   2.522
 8023TIP3    H124014   6.363   5.577   2.543
 8023TIP3    H224015   6.391   5.688   2.444
 8024TIP3   OH224016   3.215   6.249   0.234
 8024TIP3    H124017   3.154   6.207   0.173
 8024TIP3    H224018   3.172   6.332   0.257
 8025TIP3   OH224019   1.654   0.454   6.125
 8025TIP3    H124020   1.583   0.426   6.182
 8025TIP3    H224021   1.685   0.536   6.164
 8026TIP3   OH224022   2.511   4.503   2.023
 8026TIP3    H124023   2.476   4.457   2.099
 8026TIP3    H224024   2.434   4.541   1.980
 8027TIP3   OH224025   7.493   4.825   4.620
 8027TIP3    H124026   7.480   4.839   4.714
 8027TIP3    H224027   7.492   4.913   4.583
 8028TIP3   OH224028   2.391   6.824   4.871
 8028TIP3    H124029   2.350   6.896   4.823
 8028TIP3    H224030   2.470   6.863   4.908
 8029TIP3   OH224031   6.050   6.085   0.654
 8029TIP3    H124032   6.069   6.040   0.572
 8029TIP3    H224033   6.008   6.167   0.627
 8030TIP3   OH224034   7.082   1.499   4.972
 8030TIP3    H124035   7.089   1.446   4.893
 8030TIP3    H224036   7.163   1.550   4.975
 8031TIP3   OH224037   4.389   5.631   0.324
 8031TIP3    H124038   4.462   5.569   0.322
 8031TIP3    H224039   4.430   5.717   0.333
 8032TIP3   OH224040   2.281   5.682   0.349
 8032TIP3    H124041   2.332   5.749   0.303
 8032TIP3    H224042   2.340   5.607   0.356
 8033TIP3   OH224043   1.812   0.033   4.004
 8033TIP3    H124044   1.745   0.023   4.072
 8033TIP3    H224045   1.763   0.051   3.924
 8034TIP3   OH224046   1.806   6.624   5.629
 8034TIP3    H124047   1.866   6.691   5.660
 8034TIP3    H224048   1.720   6.666   5.629
 8035TIP3   OH224049   4.547   0.928   6.597
 8035TIP3    H124050   4.505   0.889   6.521
 8035TIP3    H224051   4.508   0.883   6.672
 8036TIP3   OH224052   4.409   3.540   6.413
 8036TIP3    H124053   4.373   3.614   6.461
 8036TIP3    H224054   4.489   3.517   6.461
 8037TIP3   OH224055   4.429   0.731   5.550
 8037TIP3    H124056   4.355   0.685   5.590
 8037TIP3    H224057   4.415   0.823   5.570
 8038TIP3   OH224058   2.945   3.323   2.375
 8038TIP3    H124059   2.882   3.388   2.407
 8038TIP3    H224060   3.029   3.368   2.377
 8039TIP3   OH224061   7.455   1.653   3.560
 8039TIP3    H124062   7.467   1.598   3.482
 8039TIP3    H224063   7.536   1.642   3.610
 8040TIP3   OH224064   5.316   0.761   1.996
 8040TIP3    H124065   5.226   0.773   2.027
 8040TIP3    H224066   5.371   0.784   2.071
 8041TIP3   OH224067   8.238   2.936   4.999
 8041TIP3    H124068   8.314   2.935   4.941
 8041TIP3    H224069   8.274   2.920   5.086
 8042TIP3   OH224070   1.324   0.354   2.869
 8042TIP3    H124071   1.377   0.424   2.831
 8042TIP3    H224072   1.372   0.326   2.946
 8043TIP3   OH224073   6.479   7.663   5.087
 8043TIP3    H124074   6.456   7.573   5.064
 8043TIP3    H224075   6.424   7.683   5.162
 8044TIP3   OH224076   3.417   2.682   0.057
 8044TIP3    H124077   3.425   2.778   0.061
 8044TIP3    H224078   3.322   2.667   0.052
 8045TIP3   OH224079   0.165   4.702   1.812
 8045TIP3    H124080   0.148   4.746   1.729
 8045TIP3    H224081   0.115   4.621   1.808
 8046TIP3   OH224082   0.735   5.319   4.745
 8046TIP3    H124083   0.658   5.265   4.766
 8046TIP3    H224084   0.730   5.392   4.806
 8047TIP3   OH224085   6.313   2.281   4.567
 8047TIP3    H124086   6.382   2.263   4.502
 8047TIP3    H224087   6.312   2.204   4.623
 8048TIP3   OH224088   7.803   2.189   1.115
 8048TIP3    H124089   7.833   2.117   1.171
 8048TIP3    H224090   7.800   2.151   1.027
 8049TIP3   OH224091   2.223   7.747   2.360
 8049TIP3    H124092   2.185   7.755   2.273
 8049TIP3    H224093   2.153   7.709   2.413
 8050TIP3   OH224094   8.203   4.466   5.727
 8050TIP3    H124095   8.240   4.493   5.812
 8050TIP3    H224096   8.112   4.495   5.731
 8051TIP3   OH224097   4.437   2.464   1.420
 8051TIP3    H124098   4.395   2.494   1.501
 8051TIP3    H224099   4.531   2.474   1.437
 8052TIP3   OH224100   2.605   2.905   0.487
 8052TIP3    H124101   2.566   2.934   0.404
 8052TIP3    H224102   2.672   2.971   0.506
 8053TIP3   OH224103   3.497   6.500   6.058
 8053TIP3    H124104   3.525   6.428   6.114
 8053TIP3    H224105   3.446   6.557   6.116
 8054TIP3   OH224106   4.674   6.088   3.515
 8054TIP3    H124107   4.669   6.178   3.481
 8054TIP3    H224108   4.659   6.097   3.609
 8055TIP3   OH224109   1.032   6.848   3.017
 8055TIP3    H124110   1.063   6.897   3.093
 8055TIP3    H224111   1.025   6.758   3.048
 8056TIP3   OH224112   4.529   0.075   5.516
 8056TIP3    H124113   4.436   0.091   5.500
 8056TIP3    H224114   4.574   0.141   5.462
 8057TIP3   OH224115   6.188   3.645   2.035
 8057TIP3    H124116   6.256   3.624   2.099
 8057TIP3    H224117   6.153   3.561   2.008
 8058TIP3   OH224118   2.790   0.961   0.368
 8058TIP3    H124119   2.720   1.010   0.324
 8058TIP3    H224120   2.833   0.913   0.297
 8059TIP3   OH224121   7.687   6.165   4.275
 8059TIP3    H124122   7.770   6.149   4.318
 8059TIP3    H224123   7.622   6.164   4.345
 8060TIP3   OH224124   4.841   4.401   5.138
 8060TIP3    H124125   4.770   4.461   5.160
 8060TIP3    H224126   4.796   4.318   5.117
 8061TIP3   OH224127   4.489   5.969   2.832
 8061TIP3    H124128   4.573   5.970   2.878
 8061TIP3    H224129   4.423   5.976   2.901
 8062TIP3   OH224130   4.995   3.665   1.680
 8062TIP3    H124131   5.078   3.712   1.688
 8062TIP3    H224132   4.928   3.733   1.690
 8063TIP3   OH224133   5.478   3.114   5.592
 8063TIP3    H124134   5.511   3.165   5.666
 8063TIP3    H224135   5.471   3.025   5.627
 8064TIP3   OH224136   5.881   0.250   2.489
 8064TIP3    H124137   5.898   0.156   2.479
 8064TIP3    H224138   5.806   0.254   2.548
 8065TIP3   OH224139   1.289   6.214   6.142
 8065TIP3    H124140   1.323   6.303   6.131
 8065TIP3    H224141   1.240   6.217   6.224
 8066TIP3   OH224142   6.438   6.446   0.656
 8066TIP3    H124143   6.347   6.428   0.679
 8066TIP3    H224144   6.468   6.365   0.613
 8067TIP3   OH224145   2.397   3.595   4.058
 8067TIP3    H124146   2.465   3.527   4.059
 8067TIP3    H224147   2.328   3.559   4.002
 8068TIP3   OH224148   7.642   1.977   6.380
 8068TIP3    H124149   7.549   1.999   6.385
 8068TIP3    H224150   7.679   2.044   6.322
 8069TIP3   OH224151   3.834   7.782   3.773
 8069TIP3    H124152   3.909   7.842   3.773
 8069TIP3    H224153   3.818   7.764   3.681
 8070TIP3   OH224154   2.559   2.530   3.549
 8070TIP3    H124155   2.547   2.492   3.636
 8070TIP3    H224156   2.610   2.609   3.564
 8071TIP3   OH224157   1.499   6.319   3.420
 8071TIP3    H124158   1.475   6.384   3.354
 8071TIP3    H224159   1.484   6.361   3.504
 8072TIP3   OH224160   1.935   3.529   3.790
 8072TIP3    H124161   1.861   3.590   3.781
 8072TIP3    H224162   1.898   3.443   3.772
 8073TIP3   OH224163   1.063   6.516   2.774
 8073TIP3    H124164   1.112   6.514   2.856
 8073TIP3    H224165   0.972   6.510   2.801
 8074TIP3   OH224166   7.911   2.616   4.060
 8074TIP3    H124167   7.965   2.575   3.993
 8074TIP3    H224168   7.957   2.697   4.081
 8075TIP3   OH224169   5.505   0.981   5.897
 8075TIP3    H124170   5.497   0.996   5.991
 8075TIP3    H224171   5.420   0.945   5.871
 8076TIP3   OH224172   4.103   1.404   4.170
 8076TIP3    H124173   4.038   1.351   4.216
 8076TIP3    H224174   4.105   1.369   4.081
 8077TIP3   OH224175   6.150   4.762   5.374
 8077TIP3    H124176   6.234   4.720   5.361
 8077TIP3    H224177   6.169   4.838   5.430
 8078TIP3   OH224178   6.623   4.460   4.617
 8078TIP3    H124179   6.600   4.552   4.602
 8078TIP3    H224180   6.597   4.415   4.537
 8079TIP3   OH224181   4.759   2.638   4.674
 8079TIP3    H124182   4.847   2.641   4.635
 8079TIP3    H224183   4.771   2.591   4.756
 8080TIP3   OH224184   2.435   4.776   0.775
 8080TIP3    H124185   2.428   4.837   0.848
 8080TIP3    H224186   2.514   4.802   0.728
 8081TIP3   OH224187   1.766   5.346   5.665
 8081TIP3    H124188   1.811   5.415   5.713
 8081TIP3    H224189   1.729   5.390   5.589
 8082TIP3   OH224190   0.608   2.867   0.380
 8082TIP3    H124191   0.605   2.951   0.427
 8082TIP3    H224192   0.598   2.801   0.449
 8083TIP3   OH224193   6.677   5.618   6.796
 8083TIP3    H124194   6.588   5.586   6.809
 8083TIP3    H224195   6.697   5.598   6.705
 8084TIP3   OH224196   1.923   5.424   6.224
 8084TIP3    H124197   1.971   5.382   6.153
 8084TIP3    H224198   1.832   5.401   6.208
 8085TIP3   OH224199   0.021   0.579   5.257
 8085TIP3    H124200  -0.025   0.659   5.232
 8085TIP3    H224201   0.112   0.596   5.232
 8086TIP3   OH224202   2.049   3.061   1.370
 8086TIP3    H124203   2.143   3.069   1.354
 8086TIP3    H224204   2.040   2.985   1.426
 8087TIP3   OH224205   3.662   3.024   2.736
 8087TIP3    H124206   3.685   3.053   2.825
 8087TIP3    H224207   3.726   3.067   2.680
 8088TIP3   OH224208   6.724   2.217   3.027
 8088TIP3    H124209   6.762   2.148   3.081
 8088TIP3    H224210   6.776   2.216   2.946
 8089TIP3   OH224211   3.272   0.990   1.713
 8089TIP3    H124212   3.214   1.047   1.663
 8089TIP3    H224213   3.214   0.934   1.764
 8090TIP3   OH224214   6.270   7.686   1.741
 8090TIP3    H124215   6.315   7.764   1.773
 8090TIP3    H224216   6.177   7.706   1.754
 8091TIP3   OH224217   7.738   7.607   6.605
 8091TIP3    H124218   7.662   7.588   6.550
 8091TIP3    H224219   7.806   7.548   6.573
 8092TIP3   OH224220   5.900   6.398   0.894
 8092TIP3    H124221   5.856   6.362   0.817
 8092TIP3    H224222   5.910   6.323   0.953
 8093TIP3   OH224223   1.822   6.231   4.794
 8093TIP3    H124224   1.819   6.297   4.863
 8093TIP3    H224225   1.855   6.152   4.839
 8094TIP3   OH224226   1.361   5.119   5.281
 8094TIP3    H124227   1.304   5.044   5.295
 8094TIP3    H224228   1.401   5.103   5.195
 8095TIP3   OH224229   4.171   2.391   0.557
 8095TIP3    H124230   4.145   2.315   0.506
 8095TIP3    H224231   4.224   2.443   0.497
 8096TIP3   OH224232   2.349   1.880   0.148
 8096TIP3    H124233   2.381   1.791   0.136
 8096TIP3    H224234   2.374   1.926   0.067
 8097TIP3   OH224235   4.697   1.864   2.393
 8097TIP3    H124236   4.703   1.856   2.298
 8097TIP3    H224237   4.786   1.852   2.425
 8098TIP3   OH224238   3.917   2.429   3.944
 8098TIP3    H124239   3.952   2.456   3.859
 8098TIP3    H224240   3.870   2.506   3.977
 8099TIP3   OH224241   4.820   1.890   1.709
 8099TIP3    H124242   4.791   1.934   1.789
 8099TIP3    H224243   4.873   1.816   1.740
 8100TIP3   OH224244   3.044   6.321   1.842
 8100TIP3    H124245   3.118   6.274   1.805
 8100TIP3    H224246   2.995   6.255   1.891
 8101TIP3   OH224247   5.272   0.222   1.223
 8101TIP3    H124248   5.213   0.239   1.297
 8101TIP3    H224249   5.330   0.153   1.255
 8102TIP3   OH224250   2.228   1.878   4.990
 8102TIP3    H124251   2.150   1.926   4.962
 8102TIP3    H224252   2.199   1.787   4.995
 8103TIP3   OH224253   6.254   6.815   6.112
 8103TIP3    H124254   6.267   6.779   6.024
 8103TIP3    H224255   6.177   6.770   6.145
 8104TIP3   OH224256   5.613   4.662   3.349
 8104TIP3    H124257   5.590   4.622   3.266
 8104TIP3    H224258   5.580   4.751   3.343
 8105TIP3   OH224259   4.354   6.757   1.517
 8105TIP3    H124260   4.349   6.769   1.422
 8105TIP3    H224261   4.447   6.745   1.535
 8106TIP3   OH224262   3.310   6.504   5.062
 8106TIP3    H124263   3.371   6.472   5.128
 8106TIP3    H224264   3.224   6.498   5.103
 8107TIP3   OH224265   7.757   7.006   4.824
 8107TIP3    H124266   7.837   7.052   4.800
 8107TIP3    H224267   7.787   6.926   4.866
 8108TIP3   OH224268   0.420   7.447   3.428
 8108TIP3    H124269   0.443   7.402   3.510
 8108TIP3    H224270   0.327   7.430   3.416
 8109TIP3   OH224271   7.683   0.819   2.197
 8109TIP3    H124272   7.713   0.831   2.288
 8109TIP3    H224273   7.749   0.866   2.145
 8110TIP3   OH224274   8.178   4.719   0.434
 8110TIP3    H124275   8.085   4.732   0.456
 8110TIP3    H224276   8.224   4.737   0.516
 8111TIP3   OH224277   7.641   0.032   6.030
 8111TIP3    H124278   7.671   0.096   5.966
 8111TIP3    H224279   7.570  -0.014   5.987
 8112TIP3   OH224280   7.993   0.190   5.362
 8112TIP3    H124281   7.912   0.224   5.399
 8112TIP3    H224282   8.061   0.251   5.391
 8113TIP3   OH224283   3.804   6.142   3.067
 8113TIP3    H124284   3.759   6.178   2.990
 8113TIP3    H224285   3.859   6.072   3.033
 8114TIP3   OH224286   1.981   0.081   4.203
 8114TIP3    H124287   1.938   0.043   4.126
 8114TIP3    H224288   2.073   0.060   4.192
 8115TIP3   OH224289   2.734   5.419   6.333
 8115TIP3    H124290   2.713   5.511   6.318
 8115TIP3    H224291   2.806   5.401   6.273
 8116TIP3   OH224292   1.088   0.907   4.736
 8116TIP3    H124293   1.016   0.970   4.746
 8116TIP3    H224294   1.122   0.894   4.824
 8117TIP3   OH224295   6.730   0.759   3.182
 8117TIP3    H124296   6.749   0.817   3.256
 8117TIP3    H224297   6.687   0.684   3.221
 8118TIP3   OH224298   6.281   2.171   5.869
 8118TIP3    H124299   6.294   2.238   5.937
 8118TIP3    H224300   6.186   2.161   5.864
 8119TIP3   OH224301   0.480   3.625   3.566
 8119TIP3    H124302   0.432   3.644   3.647
 8119TIP3    H224303   0.545   3.694   3.560
 8120TIP3   OH224304   2.580   5.947   0.377
 8120TIP3    H124305   2.543   6.029   0.345
 8120TIP3    H224306   2.568   5.885   0.305
 8121TIP3   OH224307   3.067   2.732   0.614
 8121TIP3    H124308   3.013   2.654   0.627
 8121TIP3    H224309   3.036   2.770   0.532
 8122TIP3   OH224310   7.059   4.880   2.079
 8122TIP3    H124311   7.145   4.914   2.055
 8122TIP3    H224312   7.043   4.915   2.167
 8123TIP3   OH224313   0.960   4.843   5.021
 8123TIP3    H124314   0.941   4.915   5.080
 8123TIP3    H224315   0.898   4.853   4.949
 8124TIP3   OH224316   6.104   3.785   6.115
 8124TIP3    H124317   6.056   3.835   6.181
 8124TIP3    H224318   6.048   3.709   6.098
 8125TIP3   OH224319   0.831   6.507   0.535
 8125TIP3    H124320   0.800   6.433   0.587
 8125TIP3    H224321   0.817   6.584   0.590
 8126TIP3   OH224322   2.207   7.808   3.937
 8126TIP3    H124323   2.286   7.852   3.905
 8126TIP3    H224324   2.183   7.748   3.867
 8127TIP3   OH224325   4.390   3.425   0.576
 8127TIP3    H124326   4.411   3.468   0.493
 8127TIP3    H224327   4.433   3.479   0.642
 8128TIP3   OH224328   5.395   7.359   1.809
 8128TIP3    H124329   5.478   7.320   1.840
 8128TIP3    H224330   5.373   7.308   1.731
 8129TIP3   OH224331   2.191   2.119   4.636
 8129TIP3    H124332   2.270   2.172   4.632
 8129TIP3    H224333   2.124   2.177   4.672
 8130TIP3   OH224334   4.339   4.498   3.256
 8130TIP3    H124335   4.337   4.582   3.211
 8130TIP3    H224336   4.362   4.519   3.346
 8131TIP3   OH224337   3.799   6.977   3.769
 8131TIP3    H124338   3.717   6.929   3.753
 8131TIP3    H224339   3.867   6.910   3.768
 8132TIP3   OH224340   5.212   1.044   1.225
 8132TIP3    H124341   5.244   1.093   1.301
 8132TIP3    H224342   5.291   1.024   1.175
 8133TIP3   OH224343   7.056   6.703   3.458
 8133TIP3    H124344   7.096   6.716   3.372
 8133TIP3    H224345   6.999   6.627   3.447
 8134TIP3   OH224346   5.013   0.116   5.036
 8134TIP3    H124347   5.013   0.202   5.077
 8134TIP3    H224348   5.100   0.080   5.054
 8135TIP3   OH224349   7.626   7.704   2.727
 8135TIP3    H124350   7.651   7.687   2.636
 8135TIP3    H224351   7.699   7.752   2.765
 8136TIP3   OH224352   4.956   4.429   1.034
 8136TIP3    H124353   4.994   4.352   1.077
 8136TIP3    H224354   4.898   4.392   0.967
 8137TIP3   OH224355   2.214   2.277   5.078
 8137TIP3    H124356   2.241   2.365   5.105
 8137TIP3    H224357   2.276   2.253   5.010
 8138TIP3   OH224358   7.092   1.777   2.007
 8138TIP3    H124359   7.042   1.834   1.948
 8138TIP3    H224360   7.061   1.800   2.094
 8139TIP3   OH224361   4.860   7.653   4.088
 8139TIP3    H124362   4.809   7.588   4.040
 8139TIP3    H224363   4.924   7.602   4.137
 8140TIP3   OH224364   2.435   7.344   6.342
 8140TIP3    H124365   2.426   7.263   6.292
 8140TIP3    H224366   2.347   7.363   6.373
 8141TIP3   OH224367   1.115   3.241   4.507
 8141TIP3    H124368   1.031   3.227   4.551
 8141TIP3    H224369   1.101   3.212   4.417
 8142TIP3   OH224370   6.325   7.761   2.307
 8142TIP3    H124371   6.255   7.818   2.276
 8142TIP3    H224372   6.280   7.686   2.347
 8143TIP3   OH224373   4.594   6.686   1.402
 8143TIP3    H124374   4.630   6.598   1.411
 8143TIP3    H224375   4.582   6.697   1.307
 8144TIP3   OH224376   5.801   6.443   5.900
 8144TIP3    H124377   5.784   6.480   5.813
 8144TIP3    H224378   5.806   6.519   5.958
 8145TIP3   OH224379   1.318   3.146   1.398
 8145TIP3    H124380   1.348   3.221   1.449
 8145TIP3    H224381   1.382   3.137   1.328
 8146TIP3   OH224382   6.843   0.450   4.028
 8146TIP3    H124383   6.789   0.434   3.951
 8146TIP3    H224384   6.780   0.471   4.097
 8147TIP3   OH224385   2.430   6.602   5.704
 8147TIP3    H124386   2.436   6.561   5.618
 8147TIP3    H224387   2.352   6.657   5.700
 8148TIP3   OH224388   7.644   4.300   3.305
 8148TIP3    H124389   7.568   4.297   3.247
 8148TIP3    H224390   7.719   4.308   3.245
 8149TIP3   OH224391   0.082   6.425   5.801
 8149TIP3    H124392   0.109   6.515   5.817
 8149TIP3    H224393   0.152   6.372   5.838
 8150TIP3   OH224394   6.220   3.346   5.554
 8150TIP3    H124395   6.248   3.434   5.526
 8150TIP3    H224396   6.290   3.316   5.612
 8151TIP3   OH224397   0.687   1.615   0.098
 8151TIP3    H124398   0.679   1.614   0.193
 8151TIP3    H224399   0.773   1.577   0.080
 8152TIP3   OH224400   2.817   7.230   4.571
 8152TIP3    H124401   2.743   7.179   4.541
 8152TIP3    H224402   2.889   7.167   4.577
 8153TIP3   OH224403   2.407   0.762   2.704
 8153TIP3    H124404   2.408   0.667   2.701
 8153TIP3    H224405   2.318   0.784   2.731
 8154TIP3   OH224406   7.034   4.409   5.867
 8154TIP3    H124407   7.128   4.392   5.866
 8154TIP3    H224408   6.995   4.330   5.829
 8155TIP3   OH224409   5.160   7.250   5.982
 8155TIP3    H124410   5.183   7.340   5.960
 8155TIP3    H224411   5.226   7.224   6.047
 8156TIP3   OH224412   7.828   1.776   2.772
 8156TIP3    H124413   7.916   1.811   2.788
 8156TIP3    H224414   7.839   1.717   2.698
 8157TIP3   OH224415   2.097   1.276   0.714
 8157TIP3    H124416   2.131   1.365   0.713
 8157TIP3    H224417   2.161   1.226   0.763
 8158TIP3   OH224418   6.110   4.965   2.853
 8158TIP3    H124419   6.187   4.977   2.797
 8158TIP3    H224420   6.086   5.053   2.880
 8159TIP3   OH224421   4.372   1.529   3.811
 8159TIP3    H124422   4.283   1.555   3.836
 8159TIP3    H224423   4.424   1.609   3.822
 8160TIP3   OH224424   0.641   0.155   6.103
 8160TIP3    H124425   0.567   0.177   6.047
 8160TIP3    H224426   0.622   0.197   6.187
 8161TIP3   OH224427   2.113   2.748   2.070
 8161TIP3    H124428   2.167   2.823   2.096
 8161TIP3    H224429   2.062   2.727   2.148
 8162TIP3   OH224430   4.954   5.705   4.863
 8162TIP3    H124431   4.971   5.785   4.813
 8162TIP3    H224432   5.004   5.717   4.944
 8163TIP3   OH224433   0.868   3.800   3.428
 8163TIP3    H124434   0.920   3.880   3.421
 8163TIP3    H224435   0.789   3.826   3.475
 8164TIP3   OH224436   6.214   1.318   4.627
 8164TIP3    H124437   6.238   1.385   4.691
 8164TIP3    H224438   6.126   1.342   4.599
 8165TIP3   OH224439   5.475   5.471   3.988
 8165TIP3    H124440   5.541   5.431   4.044
 8165TIP3    H224441   5.520   5.486   3.905
 8166TIP3   OH224442   7.892   5.807   4.238
 8166TIP3    H124443   7.925   5.872   4.176
 8166TIP3    H224444   7.964   5.793   4.299
 8167TIP3   OH224445   7.882   1.514   0.919
 8167TIP3    H124446   7.788   1.525   0.938
 8167TIP3    H224447   7.892   1.421   0.901
 8168TIP3   OH224448   7.497   6.499   2.104
 8168TIP3    H124449   7.494   6.421   2.050
 8168TIP3    H224450   7.588   6.507   2.132
 8169TIP3   OH224451   1.722   7.857   2.139
 8169TIP3    H124452   1.784   7.809   2.193
 8169TIP3    H224453   1.660   7.790   2.109
 8170TIP3   OH224454   2.314   1.523   1.269
 8170TIP3    H124455   2.274   1.450   1.221
 8170TIP3    H224456   2.264   1.529   1.350
 8171TIP3   OH224457   3.753   1.975   2.298
 8171TIP3    H124458   3.658   1.962   2.289
 8171TIP3    H224459   3.791   1.933   2.221
 8172TIP3   OH224460   4.269   0.404   1.021
 8172TIP3    H124461   4.213   0.419   1.098
 8172TIP3    H224462   4.346   0.458   1.037
 8173TIP3   OH224463   1.691   5.197   1.696
 8173TIP3    H124464   1.738   5.115   1.683
 8173TIP3    H224465   1.752   5.264   1.664
 8174TIP3   OH224466   0.933   3.461   4.973
 8174TIP3    H124467   0.907   3.551   4.989
 8174TIP3    H224468   0.988   3.464   4.895
 8175TIP3   OH224469   3.524   2.219   5.249
 8175TIP3    H124470   3.561   2.261   5.171
 8175TIP3    H224471   3.491   2.135   5.217
 8176TIP3   OH224472   5.485   4.484   5.157
 8176TIP3    H124473   5.435   4.547   5.209
 8176TIP3    H224474   5.569   4.526   5.141
 8177TIP3   OH224475   0.228   6.661   4.712
 8177TIP3    H124476   0.156   6.600   4.725
 8177TIP3    H224477   0.191   6.747   4.732
 8178TIP3   OH224478   5.448   0.186   4.691
 8178TIP3    H124479   5.408   0.106   4.656
 8178TIP3    H224480   5.518   0.207   4.629
 8179TIP3   OH224481   5.017   7.250   6.359
 8179TIP3    H124482   5.070   7.318   6.401
 8179TIP3    H224483   5.050   7.168   6.396
 8180TIP3   OH224484   7.557   7.570   3.457
 8180TIP3    H124485   7.621   7.499   3.459
 8180TIP3    H224486   7.504   7.558   3.536
 8181TIP3   OH224487   1.513   3.676   2.656
 8181TIP3    H124488   1.484   3.758   2.697
 8181TIP3    H224489   1.508   3.611   2.726
 8182TIP3   OH224490   3.561   7.579   4.303
 8182TIP3    H124491   3.648   7.567   4.266
 8182TIP3    H224492   3.537   7.492   4.336
 8183TIP3   OH224493   1.105   1.589   5.947
 8183TIP3    H124494   1.019   1.609   5.910
 8183TIP3    H224495   1.146   1.532   5.882
 8184TIP3   OH224496   3.621   4.356   6.235
 8184TIP3    H124497   3.636   4.448   6.259
 8184TIP3    H224498   3.679   4.341   6.160
 8185TIP3   OH224499   5.389   0.284   0.319
 8185TIP3    H124500   5.430   0.361   0.357
 8185TIP3    H224501   5.296   0.296   0.336
 8186TIP3   OH224502   6.660   1.157   0.018
 8186TIP3    H124503   6.672   1.068  -0.015
 8186TIP3    H224504   6.742   1.177   0.064
 8187TIP3   OH224505   4.886   0.249   3.869
 8187TIP3    H124506   4.899   0.156   3.888
 8187TIP3    H224507   4.911   0.293   3.950
 8188TIP3   OH224508   3.435   0.500   1.203
 8188TIP3    H124509   3.365   0.555   1.241
 8188TIP3    H224510   3.506   0.561   1.185
 8189TIP3   OH224511   5.592   1.447   5.604
 8189TIP3    H124512   5.658   1.479   5.664
 8189TIP3    H224513   5.567   1.524   5.552
 8190TIP3   OH224514   5.020   1.884   0.061
 8190TIP3    H124515   5.092   1.823   0.080
 8190TIP3    H224516   4.960   1.872   0.135
 8191TIP3   OH224517   4.854   4.026   4.229
 8191TIP3    H124518   4.783   4.087   4.249
 8191TIP3    H224519   4.814   3.961   4.172
 8192TIP3   OH224520   7.323   3.408   5.671
 8192TIP3    H124521   7.309   3.501   5.652
 8192TIP3    H224522   7.246   3.382   5.721
 8193TIP3   OH224523   4.138   3.489   2.783
 8193TIP3    H124524   4.062   3.541   2.811
 8193TIP3    H224525   4.165   3.441   2.861
 8194TIP3   OH224526   4.683   7.610   6.221
 8194TIP3    H124527   4.600   7.565   6.212
 8194TIP3    H224528   4.669   7.674   6.291
 8195TIP3   OH224529   1.636   1.662   1.117
 8195TIP3    H124530   1.651   1.697   1.029
 8195TIP3    H224531   1.603   1.573   1.102
 8196TIP3   OH224532   0.604   7.358   1.394
 8196TIP3    H124533   0.669   7.427   1.404
 8196TIP3    H224534   0.655   7.281   1.368
 8197TIP3   OH224535   0.771   7.348   6.332
 8197TIP3    H124536   0.825   7.403   6.388
 8197TIP3    H224537   0.686   7.391   6.330
 8198TIP3   OH224538   0.574   1.190   2.222
 8198TIP3    H124539   0.669   1.180   2.228
 8198TIP3    H224540   0.562   1.270   2.171
 8199TIP3   OH224541   2.516   5.035   0.303
 8199TIP3    H124542   2.591   5.047   0.245
 8199TIP3    H224543   2.554   5.027   0.390
 8200TIP3   OH224544   0.051   3.154   6.198
 8200TIP3    H124545   0.010   3.195   6.274
 8200TIP3    H224546  -0.022   3.135   6.139
 8201TIP3   OH224547   4.858   5.447   0.724
 8201TIP3    H124548   4.933   5.397   0.756
 8201TIP3    H224549   4.892   5.495   0.649
 8202TIP3   OH224550   2.498   2.585   5.876
 8202TIP3    H124551   2.581   2.564   5.918
 8202TIP3    H224552   2.490   2.521   5.805
 8203TIP3   OH224553   6.289   0.787   1.186
 8203TIP3    H124554   6.372   0.798   1.139
 8203TIP3    H224555   6.265   0.695   1.172
 8204TIP3   OH224556   3.800   4.142   0.150
 8204TIP3    H124557   3.804   4.134   0.054
 8204TIP3    H224558   3.890   4.164   0.176
 8205TIP3   OH224559   1.896   6.522   0.716
 8205TIP3    H124560   1.806   6.555   0.717
 8205TIP3    H224561   1.948   6.594   0.679
 8206TIP3   OH224562   0.912   5.324   3.606
 8206TIP3    H124563   0.947   5.239   3.577
 8206TIP3    H224564   0.847   5.348   3.540
 8207TIP3   OH224565   1.789   6.912   2.899
 8207TIP3    H124566   1.717   6.974   2.905
 8207TIP3    H224567   1.749   6.831   2.868
 8208TIP3   OH224568   0.941   3.989   1.136
 8208TIP3    H124569   0.993   4.069   1.127
 8208TIP3    H224570   0.885   3.988   1.059
 8209TIP3   OH224571   0.702   1.788   5.410
 8209TIP3    H124572   0.622   1.798   5.461
 8209TIP3    H224573   0.768   1.837   5.460
 8210TIP3   OH224574   5.998   0.167   2.784
 8210TIP3    H124575   6.065   0.099   2.784
 8210TIP3    H224576   6.035   0.237   2.729
 8211TIP3   OH224577   5.360   4.415   1.717
 8211TIP3    H124578   5.342   4.509   1.710
 8211TIP3    H224579   5.294   4.382   1.778
 8212TIP3   OH224580   3.799   7.706   4.538
 8212TIP3    H124581   3.850   7.626   4.525
 8212TIP3    H224582   3.722   7.677   4.587
 8213TIP3   OH224583   5.020   5.967   6.106
 8213TIP3    H124584   5.065   6.026   6.046
 8213TIP3    H224585   4.971   5.908   6.049
 8214TIP3   OH224586   0.725   6.538  -0.006
 8214TIP3    H124587   0.762   6.581   0.071
 8214TIP3    H224588   0.651   6.488   0.028
 8215TIP3   OH224589   5.928   7.307   4.056
 8215TIP3    H124590   6.012   7.347   4.032
 8215TIP3    H224591   5.929   7.221   4.014
 8216TIP3   OH224592   2.360   1.558   0.370
 8216TIP3    H124593   2.377   1.584   0.280
 8216TIP3    H224594   2.298   1.624   0.403
 8217TIP3   OH224595   3.337   3.578   4.495
 8217TIP3    H124596   3.391   3.522   4.551
 8217TIP3    H224597   3.339   3.535   4.409
 8218TIP3   OH224598   1.935   5.753   0.611
 8218TIP3    H124599   2.023   5.764   0.577
 8218TIP3    H224600   1.941   5.780   0.703
 8219TIP3   OH224601   7.596   4.906   6.388
 8219TIP3    H124602   7.532   4.945   6.448
 8219TIP3    H224603   7.607   4.971   6.319
 8220TIP3   OH224604   8.113   4.102   2.801
 8220TIP3    H124605   8.165   4.022   2.815
 8220TIP3    H224606   8.088   4.098   2.709
 8221TIP3   OH224607   1.835   5.633   6.057
 8221TIP3    H124608   1.867   5.570   6.121
 8221TIP3    H224609   1.747   5.655   6.087
 8222TIP3   OH224610   7.954   5.376   5.035
 8222TIP3    H124611   7.950   5.471   5.032
 8222TIP3    H224612   7.877   5.348   4.984
 8223TIP3   OH224613   5.652   6.515   4.105
 8223TIP3    H124614   5.708   6.440   4.124
 8223TIP3    H224615   5.677   6.543   4.017
 8224TIP3   OH224616   0.852   5.280   4.272
 8224TIP3    H124617   0.885   5.300   4.360
 8224TIP3    H224618   0.911   5.326   4.213
 8225TIP3   OH224619   6.127   3.367   6.526
 8225TIP3    H124620   6.218   3.382   6.549
 8225TIP3    H224621   6.080   3.373   6.609
 8226TIP3   OH224622   6.729   6.633   2.685
 8226TIP3    H124623   6.731   6.546   2.646
 8226TIP3    H224624   6.722   6.618   2.779
 8227TIP3   OH224625   5.925   6.362   5.151
 8227TIP3    H124626   5.881   6.317   5.224
 8227TIP3    H224627   5.991   6.416   5.193
 8228TIP3   OH224628   3.558   2.531   2.500
 8228TIP3    H124629   3.646   2.498   2.482
 8228TIP3    H224630   3.545   2.513   2.593
 8229TIP3   OH224631   0.880   2.613   3.832
 8229TIP3    H124632   0.856   2.699   3.868
 8229TIP3    H224633   0.797   2.569   3.819
 8230TIP3   OH224634   6.408   1.668   6.423
 8230TIP3    H124635   6.444   1.696   6.339
 8230TIP3    H224636   6.393   1.750   6.470
 8231TIP3   OH224637   2.818   1.450   1.575
 8231TIP3    H124638   2.739   1.396   1.565
 8231TIP3    H224639   2.829   1.492   1.490
 8232TIP3   OH224640   3.470   6.208   4.440
 8232TIP3    H124641   3.532   6.280   4.444
 8232TIP3    H224642   3.401   6.232   4.502
 8233TIP3   OH224643   0.991   5.632   4.422
 8233TIP3    H124644   1.047   5.648   4.347
 8233TIP3    H224645   0.904   5.617   4.385
 8234TIP3   OH224646   1.262   1.766   2.682
 8234TIP3    H124647   1.211   1.810   2.614
 8234TIP3    H224648   1.345   1.745   2.639
 8235TIP3   OH224649   8.063   5.912   2.003
 8235TIP3    H124650   8.056   5.849   1.932
 8235TIP3    H224651   8.133   5.878   2.059
 8236TIP3   OH224652   0.353   0.963   0.081
 8236TIP3    H124653   0.379   0.872   0.099
 8236TIP3    H224654   0.329   0.998   0.166
 8237TIP3   OH224655   0.521   7.023   1.535
 8237TIP3    H124656   0.565   6.938   1.524
 8237TIP3    H224657   0.439   7.013   1.486
 8238TIP3   OH224658   3.641   0.664   1.205
 8238TIP3    H124659   3.653   0.697   1.115
 8238TIP3    H224660   3.695   0.585   1.208
 8239TIP3   OH224661   6.586   0.206   6.523
 8239TIP3    H124662   6.571   0.257   6.603
 8239TIP3    H224663   6.559   0.265   6.452
 8240TIP3   OH224664   7.469   0.836   4.376
 8240TIP3    H124665   7.558   0.863   4.356
 8240TIP3    H224666   7.480   0.764   4.439
 8241TIP3   OH224667   0.464   0.356   0.763
 8241TIP3    H124668   0.545   0.354   0.814
 8241TIP3    H224669   0.448   0.449   0.748
 8242TIP3   OH224670   7.333   3.081   6.726
 8242TIP3    H124671   7.370   3.161   6.690
 8242TIP3    H224672   7.349   3.088   6.821
 8243TIP3   OH224673   6.308   0.837   3.949
 8243TIP3    H124674   6.358   0.905   3.905
 8243TIP3    H224675   6.269   0.786   3.878
 8244TIP3   OH224676   7.152   0.614   3.675
 8244TIP3    H124677   7.075   0.644   3.722
 8244TIP3    H224678   7.226   0.638   3.732
 8245TIP3   OH224679   1.614   3.490   2.351
 8245TIP3    H124680   1.645   3.437   2.425
 8245TIP3    H224681   1.672   3.566   2.351
 8246TIP3   OH224682   5.415   6.568   1.603
 8246TIP3    H124683   5.351   6.526   1.546
 8246TIP3    H224684   5.362   6.627   1.657
 8247TIP3   OH224685   6.645   7.418   2.914
 8247TIP3    H124686   6.713   7.383   2.970
 8247TIP3    H224687   6.581   7.456   2.974
 8248TIP3   OH224688   7.709   5.458   3.365
 8248TIP3    H124689   7.784   5.484   3.418
 8248TIP3    H224690   7.721   5.504   3.282
 8249TIP3   OH224691   5.751   0.744   2.813
 8249TIP3    H124692   5.781   0.761   2.724
 8249TIP3    H224693   5.696   0.819   2.834
 8250TIP3   OH224694   1.820   0.853   0.961
 8250TIP3    H124695   1.806   0.764   0.994
 8250TIP3    H224696   1.907   0.852   0.923
 8251TIP3   OH224697   0.403   5.505   0.207
 8251TIP3    H124698   0.439   5.494   0.296
 8251TIP3    H224699   0.425   5.595   0.183
 8252TIP3   OH224700   8.013   7.357   1.614
 8252TIP3    H124701   8.087   7.418   1.621
 8252TIP3    H224702   7.948   7.405   1.562
 8253TIP3   OH224703   0.120   6.413   1.251
 8253TIP3    H124704   0.143   6.330   1.294
 8253TIP3    H224705   0.126   6.394   1.158
 8254TIP3   OH224706   3.753   2.963   4.067
 8254TIP3    H124707   3.761   3.043   4.014
 8254TIP3    H224708   3.691   2.908   4.018
 8255TIP3   OH224709   4.863   5.109   6.668
 8255TIP3    H124710   4.820   5.076   6.589
 8255TIP3    H224711   4.805   5.083   6.739
 8256TIP3   OH224712   3.426   0.474   6.507
 8256TIP3    H124713   3.375   0.431   6.575
 8256TIP3    H224714   3.423   0.567   6.528
 8257TIP3   OH224715   3.740   0.088   4.949
 8257TIP3    H124716   3.660   0.098   4.897
 8257TIP3    H224717   3.809   0.124   4.894
 8258TIP3   OH224718   7.668   1.643   3.722
 8258TIP3    H124719   7.656   1.571   3.784
 8258TIP3    H224720   7.760   1.638   3.696
 8259TIP3   OH224721   2.804   5.676   1.257
 8259TIP3    H124722   2.852   5.741   1.206
 8259TIP3    H224723   2.746   5.729   1.313
 8260TIP3   OH224724   7.593   1.142   6.301
 8260TIP3    H124725   7.649   1.120   6.227
 8260TIP3    H224726   7.612   1.075   6.366
 8261TIP3   OH224727   2.783   3.655   4.431
 8261TIP3    H124728   2.851   3.603   4.388
 8261TIP3    H224729   2.707   3.596   4.435
 8262TIP3   OH224730   2.734   1.536   3.746
 8262TIP3    H124731   2.652   1.545   3.698
 8262TIP3    H224732   2.715   1.471   3.814
 8263TIP3   OH224733   1.098   2.958   3.915
 8263TIP3    H124734   1.007   2.945   3.890
 8263TIP3    H224735   1.148   2.936   3.837
 8264TIP3   OH224736   3.923   1.833   3.384
 8264TIP3    H124737   3.999   1.794   3.341
 8264TIP3    H224738   3.883   1.761   3.432
 8265TIP3   OH224739   4.784   7.129   6.524
 8265TIP3    H124740   4.842   7.203   6.505
 8265TIP3    H224741   4.747   7.149   6.610
 8266TIP3   OH224742   3.755   3.660   5.069
 8266TIP3    H124743   3.809   3.590   5.032
 8266TIP3    H224744   3.792   3.740   5.031
 8267TIP3   OH224745   4.978   3.932   1.378
 8267TIP3    H124746   4.998   3.952   1.286
 8267TIP3    H224747   4.945   3.842   1.375
 8268TIP3   OH224748   0.325   4.902   2.600
 8268TIP3    H124749   0.322   4.970   2.668
 8268TIP3    H224750   0.354   4.949   2.521
 8269TIP3   OH224751   2.138   6.957   4.892
 8269TIP3    H124752   2.169   6.953   4.802
 8269TIP3    H224753   2.043   6.965   4.884
 8270TIP3   OH224754   7.845   4.535   2.600
 8270TIP3    H124755   7.826   4.442   2.608
 8270TIP3    H224756   7.760   4.576   2.582
 8271TIP3   OH224757   5.192   1.720   2.101
 8271TIP3    H124758   5.099   1.696   2.093
 8271TIP3    H224759   5.223   1.725   2.011
 8272TIP3   OH224760   1.225   3.681   2.865
 8272TIP3    H124761   1.186   3.717   2.785
 8272TIP3    H224762   1.154   3.634   2.908
 8273TIP3   OH224763   2.475   2.823   3.077
 8273TIP3    H124764   2.393   2.808   3.125
 8273TIP3    H224765   2.493   2.739   3.034
 8274TIP3   OH224766   5.738   4.013   5.152
 8274TIP3    H124767   5.676   3.974   5.090
 8274TIP3    H224768   5.683   4.055   5.218
 8275TIP3   OH224769   3.632   4.289   5.900
 8275TIP3    H124770   3.700   4.349   5.929
 8275TIP3    H224771   3.558   4.346   5.876
 8276TIP3   OH224772   4.791   2.493   5.992
 8276TIP3    H124773   4.749   2.512   6.076
 8276TIP3    H224774   4.881   2.471   6.015
 8277TIP3   OH224775   4.518   4.806   0.064
 8277TIP3    H124776   4.601   4.799   0.111
 8277TIP3    H224777   4.487   4.895   0.083
 8278TIP3   OH224778   0.493   2.608   6.019
 8278TIP3    H124779   0.410   2.610   5.972
 8278TIP3    H224780   0.496   2.692   6.066
 8279TIP3   OH224781   1.569   6.503   0.451
 8279TIP3    H124782   1.599   6.572   0.392
 8279TIP3    H224783   1.641   6.439   0.450
 8280TIP3   OH224784   7.569   3.700   5.038
 8280TIP3    H124785   7.527   3.643   4.974
 8280TIP3    H224786   7.527   3.677   5.121
 8281TIP3   OH224787   7.164   2.098   2.451
 8281TIP3    H124788   7.225   2.172   2.461
 8281TIP3    H224789   7.087   2.124   2.502
 8282TIP3   OH224790   7.695   7.491   1.830
 8282TIP3    H124791   7.700   7.406   1.872
 8282TIP3    H224792   7.638   7.478   1.755
 8283TIP3   OH224793   1.411   0.618   5.761
 8283TIP3    H124794   1.342   0.587   5.703
 8283TIP3    H224795   1.365   0.661   5.833
 8284TIP3   OH224796   4.930   7.535   0.259
 8284TIP3    H124797   4.972   7.460   0.302
 8284TIP3    H224798   4.979   7.611   0.290
 8285TIP3   OH224799   0.194   5.388   1.525
 8285TIP3    H124800   0.218   5.453   1.459
 8285TIP3    H224801   0.275   5.371   1.573
 8286TIP3   OH224802   0.038   0.887   5.396
 8286TIP3    H124803   0.022   0.902   5.303
 8286TIP3    H224804   0.025   0.793   5.408
 8287TIP3   OH224805   5.230   0.911   4.186
 8287TIP3    H124806   5.166   0.935   4.254
 8287TIP3    H224807   5.189   0.941   4.104
 8288TIP3   OH224808   1.286   5.393   5.289
 8288TIP3    H124809   1.342   5.451   5.237
 8288TIP3    H224810   1.322   5.306   5.273
 8289TIP3   OH224811   3.250   2.352   5.278
 8289TIP3    H124812   3.338   2.334   5.313
 8289TIP3    H224813   3.259   2.337   5.184
 8290TIP3   OH224814   1.026   4.748   1.748
 8290TIP3    H124815   1.083   4.815   1.785
 8290TIP3    H224816   0.946   4.752   1.802
 8291TIP3   OH224817   7.577   4.735   0.537
 8291TIP3    H124818   7.654   4.729   0.593
 8291TIP3    H224819   7.604   4.693   0.455
 8292TIP3   OH224820   6.883   0.568   3.386
 8292TIP3    H124821   6.944   0.639   3.406
 8292TIP3    H224822   6.819   0.570   3.457
 8293TIP3   OH224823   0.104   1.486   6.163
 8293TIP3    H124824   0.137   1.396   6.152
 8293TIP3    H224825   0.036   1.494   6.096
 8294TIP3   OH224826   1.035   7.199   6.370
 8294TIP3    H124827   0.989   7.126   6.328
 8294TIP3    H224828   0.966   7.249   6.414
 8295TIP3   OH224829   6.785   1.278   2.058
 8295TIP3    H124830   6.711   1.272   1.997
 8295TIP3    H224831   6.824   1.364   2.041
 8296TIP3   OH224832   4.642   4.497   1.668
 8296TIP3    H124833   4.737   4.494   1.675
 8296TIP3    H224834   4.610   4.469   1.754
 8297TIP3   OH224835   4.653   3.840   5.383
 8297TIP3    H124836   4.634   3.750   5.409
 8297TIP3    H224837   4.691   3.880   5.461
 8298TIP3   OH224838   2.076   4.752   5.634
 8298TIP3    H124839   2.058   4.666   5.673
 8298TIP3    H224840   2.006   4.808   5.665
 8299TIP3   OH224841   0.529   4.817   4.969
 8299TIP3    H124842   0.492   4.752   4.909
 8299TIP3    H224843   0.597   4.861   4.919
 8300TIP3   OH224844   7.787   5.833   0.121
 8300TIP3    H124845   7.842   5.843   0.043
 8300TIP3    H224846   7.836   5.774   0.178
 8301TIP3   OH224847   4.925   0.813   5.724
 8301TIP3    H124848   4.852   0.788   5.781
 8301TIP3    H224849   4.900   0.900   5.691
 8302TIP3   OH224850   5.552   2.539   5.585
 8302TIP3    H124851   5.499   2.495   5.651
 8302TIP3    H224852   5.632   2.564   5.632
 8303TIP3   OH224853   6.773   6.121   6.502
 8303TIP3    H124854   6.748   6.203   6.461
 8303TIP3    H224855   6.728   6.120   6.586
 8304TIP3   OH224856   7.332   2.179   0.055
 8304TIP3    H124857   7.268   2.218   0.115
 8304TIP3    H224858   7.412   2.229   0.070
 8305TIP3   OH224859   1.880   6.244   6.401
 8305TIP3    H124860   1.911   6.332   6.420
 8305TIP3    H224861   1.791   6.257   6.367
 8306TIP3   OH224862   5.125   3.633   4.575
 8306TIP3    H124863   5.032   3.655   4.570
 8306TIP3    H224864   5.126   3.540   4.598
 8307TIP3   OH224865   6.028   0.955   3.887
 8307TIP3    H124866   6.047   0.959   3.981
 8307TIP3    H224867   6.113   0.945   3.846
 8308TIP3   OH224868   6.506   5.300   0.547
 8308TIP3    H124869   6.577   5.361   0.566
 8308TIP3    H224870   6.524   5.224   0.602
 8309TIP3   OH224871   0.067   0.850   6.030
 8309TIP3    H124872   0.161   0.833   6.022
 8309TIP3    H224873   0.030   0.818   5.948
 8310TIP3   OH224874   4.243   7.030   3.917
 8310TIP3    H124875   4.302   7.008   3.989
 8310TIP3    H224876   4.256   6.960   3.853
 8311TIP3   OH224877   7.784   4.761   3.453
 8311TIP3    H124878   7.856   4.756   3.390
 8311TIP3    H224879   7.726   4.689   3.431
 8312TIP3   OH224880   7.565   5.774   2.310
 8312TIP3    H124881   7.585   5.684   2.337
 8312TIP3    H224882   7.614   5.785   2.228
 8313TIP3   OH224883   2.989   4.264   0.584
 8313TIP3    H124884   3.002   4.170   0.567
 8313TIP3    H224885   3.078   4.299   0.593
 8314TIP3   OH224886   6.788   1.688   3.346
 8314TIP3    H124887   6.740   1.613   3.379
 8314TIP3    H224888   6.738   1.764   3.375
 8315TIP3   OH224889   0.422   3.440   5.940
 8315TIP3    H124890   0.462   3.354   5.922
 8315TIP3    H224891   0.347   3.420   5.995
 8316TIP3   OH224892   6.049   7.387   0.871
 8316TIP3    H124893   6.043   7.418   0.780
 8316TIP3    H224894   6.003   7.454   0.922
 8317TIP3   OH224895   3.016   0.554   0.550
 8317TIP3    H124896   2.954   0.580   0.618
 8317TIP3    H224897   3.089   0.615   0.560
 8318TIP3   OH224898   1.448   1.845   5.214
 8318TIP3    H124899   1.388   1.799   5.272
 8318TIP3    H224900   1.391   1.891   5.152
 8319TIP3   OH224901   5.878   5.407   3.036
 8319TIP3    H124902   5.877   5.503   3.039
 8319TIP3    H224903   5.952   5.382   3.091
 8320TIP3   OH224904   4.815   4.081   5.905
 8320TIP3    H124905   4.867   4.160   5.889
 8320TIP3    H224906   4.725   4.109   5.887
 8321TIP3   OH224907   0.486   0.320   3.370
 8321TIP3    H124908   0.576   0.289   3.362
 8321TIP3    H224909   0.434   0.240   3.378
 8322TIP3   OH224910   1.842   3.616   5.072
 8322TIP3    H124911   1.873   3.615   5.162
 8322TIP3    H224912   1.768   3.677   5.072
 8323TIP3   OH224913   2.503   1.980   6.430
 8323TIP3    H124914   2.507   2.017   6.518
 8323TIP3    H224915   2.532   2.051   6.373
 8324TIP3   OH224916   8.138   3.175   6.732
 8324TIP3    H124917   8.065   3.113   6.733
 8324TIP3    H224918   8.111   3.243   6.671
 8325TIP3   OH224919   0.174   6.926   4.761
 8325TIP3    H124920   0.250   6.984   4.772
 8325TIP3    H224921   0.123   6.967   4.691
 8326TIP3   OH224922   0.438   1.230   2.464
 8326TIP3    H124923   0.488   1.246   2.384
 8326TIP3    H224924   0.471   1.147   2.498
 8327TIP3   OH224925   6.385   3.389   6.580
 8327TIP3    H124926   6.450   3.330   6.544
 8327TIP3    H224927   6.392   3.379   6.675
 8328TIP3   OH224928   3.064   7.337   2.274
 8328TIP3    H124929   3.043   7.351   2.182
 8328TIP3    H224930   2.995   7.279   2.306
 8329TIP3   OH224931   6.270   1.812   0.601
 8329TIP3    H124932   6.231   1.872   0.538
 8329TIP3    H224933   6.333   1.865   0.650
 8330TIP3   OH224934   3.121   6.524   3.463
 8330TIP3    H124935   3.035   6.545   3.500
 8330TIP3    H224936   3.153   6.606   3.427
 8331TIP3   OH224937   1.869   1.560   1.986
 8331TIP3    H124938   1.960   1.551   1.957
 8331TIP3    H224939   1.865   1.649   2.022
 8332TIP3   OH224940   1.490   2.572   1.498
 8332TIP3    H124941   1.499   2.555   1.592
 8332TIP3    H224942   1.530   2.658   1.484
 8333TIP3   OH224943   3.967   4.352   3.559
 8333TIP3    H124944   3.998   4.424   3.505
 8333TIP3    H224945   3.926   4.291   3.498
 8334TIP3   OH224946   0.438   0.688   2.667
 8334TIP3    H124947   0.528   0.720   2.675
 8334TIP3    H224948   0.400   0.700   2.754
 8335TIP3   OH224949   7.425   6.753   5.157
 8335TIP3    H124950   7.407   6.833   5.108
 8335TIP3    H224951   7.340   6.723   5.186
 8336TIP3   OH224952   7.675   4.122   0.084
 8336TIP3    H124953   7.593   4.173   0.089
 8336TIP3    H224954   7.647   4.035   0.054
 8337TIP3   OH224955   3.230   4.309   5.516
 8337TIP3    H124956   3.217   4.255   5.438
 8337TIP3    H224957   3.181   4.263   5.585
 8338TIP3   OH224958   3.621   2.332   2.174
 8338TIP3    H124959   3.538   2.329   2.126
 8338TIP3    H224960   3.656   2.419   2.157
 8339TIP3   OH224961   8.153   3.614   6.679
 8339TIP3    H124962   8.157   3.655   6.593
 8339TIP3    H224963   8.091   3.667   6.728
 8340TIP3   OH224964   5.094   4.515   5.025
 8340TIP3    H124965   5.003   4.506   4.998
 8340TIP3    H224966   5.093   4.503   5.120
 8341TIP3   OH224967   7.864   3.027   5.233
 8341TIP3    H124968   7.937   3.068   5.187
 8341TIP3    H224969   7.863   2.937   5.201
 8342TIP3   OH224970   4.667   3.828   4.135
 8342TIP3    H124971   4.597   3.878   4.177
 8342TIP3    H224972   4.705   3.776   4.206
 8343TIP3   OH224973   3.065   5.670   6.363
 8343TIP3    H124974   3.157   5.655   6.345
 8343TIP3    H224975   3.019   5.631   6.289
 8344TIP3   OH224976   7.259   1.845   4.552
 8344TIP3    H124977   7.354   1.842   4.543
 8344TIP3    H224978   7.242   1.810   4.639
 8345TIP3   OH224979   1.173   5.692   0.990
 8345TIP3    H124980   1.196   5.600   1.004
 8345TIP3    H224981   1.114   5.691   0.915
 8346TIP3   OH224982   4.494   6.965   4.408
 8346TIP3    H124983   4.561   6.914   4.453
 8346TIP3    H224984   4.491   6.929   4.320
 8347TIP3   OH224985   1.219   0.583   0.235
 8347TIP3    H124986   1.200   0.676   0.244
 8347TIP3    H224987   1.163   0.540   0.299
 8348TIP3   OH224988   5.565   3.209   3.146
 8348TIP3    H124989   5.475   3.186   3.127
 8348TIP3    H224990   5.607   3.126   3.170
 8349TIP3   OH224991   4.477   5.209   0.743
 8349TIP3    H124992   4.532   5.285   0.724
 8349TIP3    H224993   4.415   5.205   0.670
 8350TIP3   OH224994   6.807   7.163   1.545
 8350TIP3    H124995   6.782   7.253   1.526
 8350TIP3    H224996   6.746   7.110   1.494
 8351TIP3   OH224997   5.504   5.574   2.190
 8351TIP3    H124998   5.483   5.535   2.105
 8351TIP3    H224999   5.588   5.536   2.214
 8352TIP3   OH225000   6.125   6.913   4.023
 8352TIP3    H125001   6.091   6.960   3.947
 8352TIP3    H225002   6.058   6.848   4.043
 8353TIP3   OH225003   2.144   7.397   5.741
 8353TIP3    H125004   2.061   7.354   5.761
 8353TIP3    H225005   2.119   7.487   5.720
 8354TIP3   OH225006   8.087   5.754   0.736
 8354TIP3    H125007   8.116   5.696   0.807
 8354TIP3    H225008   7.992   5.763   0.751
 8355TIP3   OH225009   3.580   7.817   6.017
 8355TIP3    H125010   3.554   7.792   6.106
 8355TIP3    H225011   3.546   7.747   5.962
 8356TIP3   OH225012   2.473   4.273   2.533
 8356TIP3    H125013   2.569   4.276   2.534
 8356TIP3    H225014   2.451   4.203   2.472
 8357TIP3   OH225015   4.632   6.571   0.869
 8357TIP3    H125016   4.623   6.477   0.886
 8357TIP3    H225017   4.672   6.606   0.949
 8358TIP3   OH225018   5.999   7.353   2.318
 8358TIP3    H125019   5.991   7.267   2.276
 8358TIP3    H225020   6.018   7.413   2.246
 8359TIP3   OH225021   0.794   6.251   4.714
 8359TIP3    H125022   0.875   6.206   4.689
 8359TIP3    H225023   0.824   6.332   4.755
 8360TIP3   OH225024   7.928   4.178   1.442
 8360TIP3    H125025   7.999   4.182   1.506
 8360TIP3    H225026   7.859   4.233   1.478
 8361TIP3   OH225027   7.179   4.673   5.246
 8361TIP3    H125028   7.188   4.591   5.197
 8361TIP3    H225029   7.236   4.735   5.200
 8362TIP3   OH225030   1.632   1.859   6.567
 8362TIP3    H125031   1.558   1.815   6.611
 8362TIP3    H225032   1.592   1.907   6.495
 8363TIP3   OH225033   5.530   3.695   3.585
 8363TIP3    H125034   5.501   3.672   3.673
 8363TIP3    H225035   5.496   3.624   3.530
 8364TIP3   OH225036   7.056   3.332   1.864
 8364TIP3    H125037   7.055   3.300   1.773
 8364TIP3    H225038   7.081   3.256   1.916
 8365TIP3   OH225039   4.848   3.956   1.962
 8365TIP3    H125040   4.879   4.045   1.947
 8365TIP3    H225041   4.767   3.966   2.013
 8366TIP3   OH225042   2.510   2.061   0.962
 8366TIP3    H125043   2.587   2.010   0.989
 8366TIP3    H225044   2.530   2.150   0.990
 8367TIP3   OH225045   7.875   7.523   1.432
 8367TIP3    H125046   7.789   7.555   1.405
 8367TIP3    H225047   7.937   7.583   1.392
 8368TIP3   OH225048   6.602   1.548   5.331
 8368TIP3    H125049   6.516   1.589   5.325
 8368TIP3    H225050   6.651   1.582   5.256
 8369TIP3   OH225051   7.538   7.215   1.825
 8369TIP3    H125052   7.581   7.223   1.740
 8369TIP3    H225053   7.588   7.147   1.871
 8370TIP3   OH225054   3.007   2.153   3.190
 8370TIP3    H125055   3.093   2.121   3.218
 8370TIP3    H225056   2.960   2.074   3.161
 8371TIP3   OH225057   3.268   4.496   4.690
 8371TIP3    H125058   3.246   4.586   4.669
 8371TIP3    H225059   3.360   4.500   4.716
 8372TIP3   OH225060   3.297   4.558   5.358
 8372TIP3    H125061   3.266   4.512   5.436
 8372TIP3    H225062   3.329   4.490   5.299
 8373TIP3   OH225063   3.757   0.594   0.606
 8373TIP3    H125064   3.727   0.504   0.599
 8373TIP3    H225065   3.850   0.591   0.582
 8374TIP3   OH225066   2.032   2.590   5.898
 8374TIP3    H125067   2.076   2.532   5.960
 8374TIP3    H225068   1.951   2.616   5.942
 8375TIP3   OH225069   7.143   5.822   4.837
 8375TIP3    H125070   7.155   5.736   4.877
 8375TIP3    H225071   7.200   5.880   4.888
 8376TIP3   OH225072   0.585   2.665   0.552
 8376TIP3    H125073   0.563   2.585   0.504
 8376TIP3    H225074   0.526   2.666   0.627
 8377TIP3   OH225075   3.784   1.063   6.291
 8377TIP3    H125076   3.795   1.076   6.197
 8377TIP3    H225077   3.748   1.145   6.323
 8378TIP3   OH225078   2.946   1.060   2.476
 8378TIP3    H125079   2.970   1.053   2.384
 8378TIP3    H225080   2.914   1.150   2.486
 8379TIP3   OH225081   5.482   3.488   4.384
 8379TIP3    H125082   5.474   3.474   4.478
 8379TIP3    H225083   5.423   3.562   4.366
 8380TIP3   OH225084   7.933   4.827  -0.020
 8380TIP3    H125085   7.970   4.749  -0.063
 8380TIP3    H225086   8.005   4.862   0.032
 8381TIP3   OH225087   4.575   2.222   3.256
 8381TIP3    H125088   4.600   2.274   3.179
 8381TIP3    H225089   4.642   2.243   3.321
 8382TIP3   OH225090   5.353   5.260   1.487
 8382TIP3    H125091   5.302   5.182   1.510
 8382TIP3    H225092   5.297   5.334   1.511
 8383TIP3   OH225093   5.928   2.423   2.223
 8383TIP3    H125094   5.961   2.432   2.312
 8383TIP3    H225095   5.833   2.428   2.232
 8384TIP3   OH225096   0.861   4.528   2.783
 8384TIP3    H125097   0.832   4.484   2.703
 8384TIP3    H225098   0.877   4.457   2.845
 8385TIP3   OH225099   1.033   2.773   4.446
 8385TIP3    H125100   1.013   2.819   4.364
 8385TIP3    H225101   1.068   2.689   4.417
 8386TIP3   OH225102   1.318   5.255   4.371
 8386TIP3    H125103   1.271   5.316   4.428
 8386TIP3    H225104   1.262   5.177   4.368
 8387TIP3   OH225105   4.015   5.788   6.750
 8387TIP3    H125106   4.026   5.874   6.791
 8387TIP3    H225107   4.103   5.761   6.727
 8388TIP3   OH225108   4.253   6.444   6.592
 8388TIP3    H125109   4.336   6.419   6.551
 8388TIP3    H225110   4.248   6.539   6.580
 8389TIP3   OH225111   6.780   2.591   2.075
 8389TIP3    H125112   6.797   2.556   1.988
 8389TIP3    H225113   6.847   2.549   2.130
 8390TIP3   OH225114   0.342   6.554   6.177
 8390TIP3    H125115   0.305   6.467   6.160
 8390TIP3    H225116   0.266   6.611   6.185
 8391TIP3   OH225117   3.415   5.158   0.176
 8391TIP3    H125118   3.352   5.229   0.167
 8391TIP3    H225119   3.385   5.109   0.253
 8392TIP3   OH225120   4.346   7.085   0.168
 8392TIP3    H125121   4.307   7.172   0.157
 8392TIP3    H225122   4.381   7.064   0.081
 8393TIP3   OH225123   2.385   2.244   1.951
 8393TIP3    H125124   2.474   2.272   1.929
 8393TIP3    H225125   2.393   2.150   1.967
 8394TIP3   OH225126   2.023   7.788   5.391
 8394TIP3    H125127   2.068   7.865   5.427
 8394TIP3    H225128   1.967   7.823   5.322
 8395TIP3   OH225129   3.979   4.921   4.499
 8395TIP3    H125130   4.014   4.886   4.417
 8395TIP3    H225131   3.898   4.965   4.473
 8396TIP3   OH225132   5.623   7.777   4.361
 8396TIP3    H125133   5.691   7.827   4.407
 8396TIP3    H225134   5.629   7.689   4.399
 8397TIP3   OH225135   2.179   7.343   2.807
 8397TIP3    H125136   2.133   7.283   2.747
 8397TIP3    H225137   2.249   7.381   2.753
 8398TIP3   OH225138   3.637   0.427   1.819
 8398TIP3    H125139   3.628   0.340   1.858
 8398TIP3    H225140   3.550   0.447   1.785
 8399TIP3   OH225141   2.695   3.299   2.253
 8399TIP3    H125142   2.780   3.303   2.296
 8399TIP3    H225143   2.676   3.390   2.229
 8400TIP3   OH225144   4.461   5.071   3.804
 8400TIP3    H125145   4.460   5.069   3.900
 8400TIP3    H225146   4.423   5.155   3.780
 8401TIP3   OH225147   3.719   3.852   5.968
 8401TIP3    H125148   3.789   3.813   6.019
 8401TIP3    H225149   3.757   3.933   5.933
 8402TIP3   OH225150   1.827   6.823   6.649
 8402TIP3    H125151   1.774   6.817   6.728
 8402TIP3    H225152   1.765   6.805   6.578
 8403TIP3   OH225153   3.172   3.659   5.537
 8403TIP3    H125154   3.104   3.695   5.480
 8403TIP3    H225155   3.254   3.686   5.497
 8404TIP3   OH225156   3.476   1.232   2.954
 8404TIP3    H125157   3.429   1.237   2.871
 8404TIP3    H225158   3.415   1.188   3.013
 8405TIP3   OH225159   2.142   3.495   5.205
 8405TIP3    H125160   2.065   3.552   5.204
 8405TIP3    H225161   2.109   3.411   5.235
 8406TIP3   OH225162   0.267   2.738   4.454
 8406TIP3    H125163   0.191   2.792   4.473
 8406TIP3    H225164   0.248   2.697   4.370
 8407TIP3   OH225165   5.454   6.476   3.528
 8407TIP3    H125166   5.494   6.393   3.553
 8407TIP3    H225167   5.414   6.459   3.443
 8408TIP3   OH225168   1.599   5.710   6.180
 8408TIP3    H125169   1.610   5.771   6.254
 8408TIP3    H225170   1.559   5.763   6.111
 8409TIP3   OH225171   4.126   4.414   6.114
 8409TIP3    H125172   4.185   4.379   6.048
 8409TIP3    H225173   4.177   4.480   6.160
 8410TIP3   OH225174   5.813   3.350   1.583
 8410TIP3    H125175   5.785   3.267   1.544
 8410TIP3    H225176   5.863   3.325   1.660
 8411TIP3   OH225177   6.806   5.230   0.756
 8411TIP3    H125178   6.721   5.186   0.752
 8411TIP3    H225179   6.855   5.182   0.823
 8412TIP3   OH225180   6.280   5.525   3.904
 8412TIP3    H125181   6.372   5.507   3.922
 8412TIP3    H225182   6.235   5.497   3.984
 8413TIP3   OH225183   7.775   6.960   0.736
 8413TIP3    H125184   7.852   6.920   0.778
 8413TIP3    H225185   7.703   6.902   0.758
 8414TIP3   OH225186   6.007   4.402   4.985
 8414TIP3    H125187   6.073   4.420   4.919
 8414TIP3    H225188   6.006   4.479   5.041
 8415TIP3   OH225189   4.325   3.753   4.344
 8415TIP3    H125190   4.391   3.685   4.358
 8415TIP3    H225191   4.249   3.724   4.393
 8416TIP3   OH225192   7.042   5.859   4.391
 8416TIP3    H125193   7.014   5.918   4.321
 8416TIP3    H225194   7.117   5.903   4.431
 8417TIP3   OH225195   7.313   0.646   0.597
 8417TIP3    H125196   7.222   0.651   0.625
 8417TIP3    H225197   7.320   0.712   0.528
 8418TIP3   OH225198   2.387   6.712   2.539
 8418TIP3    H125199   2.443   6.655   2.593
 8418TIP3    H225200   2.376   6.791   2.592
 8419TIP3   OH225201   2.614   1.119   4.341
 8419TIP3    H125202   2.526   1.083   4.331
 8419TIP3    H225203   2.605   1.210   4.314
 8420TIP3   OH225204   2.297   1.912   5.250
 8420TIP3    H125205   2.217   1.958   5.277
 8420TIP3    H225206   2.271   1.865   5.170
 8421TIP3   OH225207   5.473   5.492   4.411
 8421TIP3    H125208   5.384   5.470   4.384
 8421TIP3    H225209   5.462   5.544   4.491
 8422TIP3   OH225210   5.318   7.144   3.680
 8422TIP3    H125211   5.239   7.192   3.702
 8422TIP3    H225212   5.389   7.208   3.686
 8423TIP3   OH225213   0.409   2.869   5.907
 8423TIP3    H125214   0.453   2.860   5.992
 8423TIP3    H225215   0.329   2.917   5.927
 8424TIP3   OH225216   6.231   4.877   1.258
 8424TIP3    H125217   6.317   4.843   1.234
 8424TIP3    H225218   6.234   4.970   1.234
 8425TIP3   OH225219   7.345   7.197   4.594
 8425TIP3    H125220   7.424   7.222   4.545
 8425TIP3    H225221   7.366   7.219   4.685
 8426TIP3   OH225222   0.859   5.608   0.517
 8426TIP3    H125223   0.842   5.514   0.523
 8426TIP3    H225224   0.940   5.615   0.466
 8427TIP3   OH225225   1.003   4.601   3.378
 8427TIP3    H125226   0.960   4.584   3.294
 8427TIP3    H225227   1.062   4.527   3.391
 8428TIP3   OH225228   8.241   3.714   1.839
 8428TIP3    H125229   8.190   3.657   1.782
 8428TIP3    H225230   8.249   3.796   1.789
 8429TIP3   OH225231   5.237   1.741   0.178
 8429TIP3    H125232   5.265   1.650   0.183
 8429TIP3    H225233   5.305   1.785   0.127
 8430TIP3   OH225234   2.697   0.618   1.834
 8430TIP3    H125235   2.644   0.539   1.846
 8430TIP3    H225236   2.664   0.680   1.899
 8431TIP3   OH225237   6.260   3.735   1.449
 8431TIP3    H125238   6.342   3.780   1.469
 8431TIP3    H225239   6.271   3.706   1.358
 8432TIP3   OH225240   4.057   7.746   4.947
 8432TIP3    H125241   4.025   7.819   4.999
 8432TIP3    H225242   4.032   7.769   4.857
 8433TIP3   OH225243   7.868   7.666   1.721
 8433TIP3    H125244   7.961   7.643   1.726
 8433TIP3    H225245   7.824   7.603   1.778
 8434TIP3   OH225246   3.715   7.552   3.268
 8434TIP3    H125247   3.631   7.534   3.310
 8434TIP3    H225248   3.764   7.470   3.276
 8435TIP3   OH225249   4.433   2.962   4.447
 8435TIP3    H125250   4.339   2.950   4.460
 8435TIP3    H225251   4.441   3.048   4.407
 8436TIP3   OH225252   4.290   1.703   4.121
 8436TIP3    H125253   4.230   1.685   4.049
 8436TIP3    H225254   4.276   1.796   4.141
 8437TIP3   OH225255   2.846   6.384   0.518
 8437TIP3    H125256   2.822   6.374   0.426
 8437TIP3    H225257   2.916   6.321   0.532
 8438TIP3   OH225258   7.573   2.790   1.713
 8438TIP3    H125259   7.561   2.719   1.650
 8438TIP3    H225260   7.522   2.863   1.677
 8439TIP3   OH225261   5.020   3.348   4.769
 8439TIP3    H125262   4.994   3.427   4.817
 8439TIP3    H225263   5.051   3.288   4.836
 8440TIP3   OH225264   7.637   0.521   5.309
 8440TIP3    H125265   7.721   0.475   5.315
 8440TIP3    H225266   7.650   0.601   5.360
 8441TIP3   OH225267   5.139   0.626   6.456
 8441TIP3    H125268   5.104   0.571   6.526
 8441TIP3    H225269   5.097   0.592   6.376
 8442TIP3   OH225270   2.579   0.980   5.608
 8442TIP3    H125271   2.586   1.073   5.586
 8442TIP3    H225272   2.651   0.939   5.560
 8443TIP3   OH225273   4.416   7.409   0.473
 8443TIP3    H125274   4.442   7.467   0.401
 8443TIP3    H225275   4.476   7.335   0.466
 8444TIP3   OH225276   3.260   7.367   2.911
 8444TIP3    H125277   3.191   7.374   2.978
 8444TIP3    H225278   3.213   7.361   2.828
 8445TIP3   OH225279   5.484   2.865   3.226
 8445TIP3    H125280   5.510   2.774   3.210
 8445TIP3    H225281   5.567   2.911   3.239
 8446TIP3   OH225282   0.679   1.038   0.288
 8446TIP3    H125283   0.634   1.024   0.371
 8446TIP3    H225284   0.700   0.949   0.257
 8447TIP3   OH225285   3.062   3.077   2.335
 8447TIP3    H125286   3.048   3.050   2.244
 8447TIP3    H225287   3.025   3.165   2.340
 8448TIP3   OH225288   5.374   5.655   4.610
 8448TIP3    H125289   5.343   5.633   4.698
 8448TIP3    H225290   5.296   5.685   4.564
 8449TIP3   OH225291   7.675   1.214   2.383
 8449TIP3    H125292   7.767   1.222   2.409
 8449TIP3    H225293   7.634   1.293   2.417
 8450TIP3   OH225294   0.768   1.936   1.434
 8450TIP3    H125295   0.690   1.980   1.401
 8450TIP3    H225296   0.821   2.006   1.472
 8451TIP3   OH225297   6.707   5.310   4.026
 8451TIP3    H125298   6.760   5.302   4.106
 8451TIP3    H225299   6.771   5.309   3.955
 8452TIP3   OH225300   2.457   2.879   1.447
 8452TIP3    H125301   2.542   2.923   1.450
 8452TIP3    H225302   2.395   2.948   1.425
 8453TIP3   OH225303   7.028   3.709   3.599
 8453TIP3    H125304   7.109   3.710   3.548
 8453TIP3    H225305   7.052   3.750   3.682
 8454TIP3   OH225306   3.529   3.333   2.590
 8454TIP3    H125307   3.584   3.375   2.656
 8454TIP3    H225308   3.442   3.330   2.628
 8455TIP3   OH225309   1.826   2.084   0.118
 8455TIP3    H125310   1.917   2.099   0.143
 8455TIP3    H225311   1.808   2.152   0.053
 8456TIP3   OH225312   0.489   2.161   6.256
 8456TIP3    H125313   0.567   2.147   6.203
 8456TIP3    H225314   0.431   2.215   6.202
 8457TIP3   OH225315   0.875   6.934   3.441
 8457TIP3    H125316   0.802   6.878   3.413
 8457TIP3    H225317   0.833   7.013   3.474
 8458TIP3   OH225318   3.659   3.681   4.440
 8458TIP3    H125319   3.715   3.628   4.497
 8458TIP3    H225320   3.627   3.750   4.497
 8459TIP3   OH225321   3.446   7.001   4.374
 8459TIP3    H125322   3.379   6.936   4.393
 8459TIP3    H225323   3.508   6.994   4.447
 8460TIP3   OH225324   7.692   3.204   5.966
 8460TIP3    H125325   7.722   3.222   6.055
 8460TIP3    H225326   7.711   3.285   5.918
 8461TIP3   OH225327   8.113   3.289   4.523
 8461TIP3    H125328   8.087   3.213   4.575
 8461TIP3    H225329   8.156   3.347   4.586
 8462TIP3   OH225330   7.431   3.526   6.111
 8462TIP3    H125331   7.391   3.439   6.102
 8462TIP3    H225332   7.457   3.531   6.202
 8463TIP3   OH225333   4.019   2.659   1.824
 8463TIP3    H125334   4.100   2.710   1.812
 8463TIP3    H225335   3.963   2.687   1.752
 8464TIP3   OH225336   5.161   1.331   1.266
 8464TIP3    H125337   5.243   1.350   1.220
 8464TIP3    H225338   5.115   1.271   1.207
 8465TIP3   OH225339   3.513   0.454   5.628
 8465TIP3    H125340   3.473   0.367   5.619
 8465TIP3    H225341   3.516   0.489   5.539
 8466TIP3   OH225342   3.654   2.367   5.030
 8466TIP3    H125343   3.749   2.376   5.020
 8466TIP3    H225344   3.632   2.288   4.981
 8467TIP3   OH225345   5.996   3.092   1.048
 8467TIP3    H125346   6.028   3.175   1.083
 8467TIP3    H225347   5.919   3.071   1.100
 8468TIP3   OH225348   8.084   2.594   4.760
 8468TIP3    H125349   8.047   2.682   4.767
 8468TIP3    H225350   8.175   2.604   4.785
 8469TIP3   OH225351   6.593   0.613   5.203
 8469TIP3    H125352   6.577   0.706   5.189
 8469TIP3    H225353   6.529   0.587   5.270
 8470TIP3   OH225354   7.027   6.751   2.213
 8470TIP3    H125355   6.973   6.829   2.227
 8470TIP3    H225356   6.966   6.678   2.214
 8471TIP3   OH225357   4.349   4.803   4.115
 8471TIP3    H125358   4.405   4.726   4.127
 8471TIP3    H225359   4.272   4.770   4.069
 8472TIP3   OH225360   5.717   0.774   5.197
 8472TIP3    H125361   5.709   0.844   5.133
 8472TIP3    H225362   5.646   0.714   5.176
 8473TIP3   OH225363   0.155   3.011   1.203
 8473TIP3    H125364   0.250   3.020   1.210
 8473TIP3    H225365   0.135   2.929   1.247
 8474TIP3   OH225366   7.820   4.671   0.717
 8474TIP3    H125367   7.835   4.711   0.803
 8474TIP3    H225368   7.751   4.607   0.733
 8475TIP3   OH225369   4.424   3.674   3.610
 8475TIP3    H125370   4.392   3.732   3.679
 8475TIP3    H225371   4.516   3.661   3.630
 8476TIP3   OH225372   4.219   6.079   1.080
 8476TIP3    H125373   4.149   6.014   1.074
 8476TIP3    H225374   4.273   6.064   1.002
 8477TIP3   OH225375   3.585   6.066   1.087
 8477TIP3    H125376   3.643   5.996   1.116
 8477TIP3    H225377   3.514   6.021   1.041
 8478TIP3   OH225378   4.454   2.099   3.873
 8478TIP3    H125379   4.508   2.173   3.845
 8478TIP3    H225380   4.491   2.073   3.957
 8479TIP3   OH225381   4.617   2.016   2.864
 8479TIP3    H125382   4.671   2.079   2.817
 8479TIP3    H225383   4.576   1.964   2.794
 8480TIP3   OH225384   2.270   7.009   4.647
 8480TIP3    H125385   2.323   7.086   4.668
 8480TIP3    H225386   2.234   7.028   4.560
 8481TIP3   OH225387   3.664   7.316   4.724
 8481TIP3    H125388   3.672   7.412   4.720
 8481TIP3    H225389   3.627   7.299   4.810
 8482TIP3   OH225390   6.071   6.486   3.427
 8482TIP3    H125391   6.037   6.512   3.513
 8482TIP3    H225392   6.053   6.562   3.371
 8483TIP3   OH225393   7.159   1.626   4.378
 8483TIP3    H125394   7.187   1.544   4.419
 8483TIP3    H225395   7.167   1.610   4.284
 8484TIP3   OH225396   4.279   1.253   2.890
 8484TIP3    H125397   4.190   1.242   2.857
 8484TIP3    H225398   4.268   1.299   2.974
 8485TIP3   OH225399   2.663   4.963   3.147
 8485TIP3    H125400   2.668   4.933   3.237
 8485TIP3    H225401   2.666   5.059   3.153
 8486TIP3   OH225402   3.200   2.428   4.610
 8486TIP3    H125403   3.295   2.423   4.617
 8486TIP3    H225404   3.175   2.349   4.562
 8487TIP3   OH225405   5.075   3.853   6.522
 8487TIP3    H125406   5.087   3.934   6.473
 8487TIP3    H225407   5.163   3.825   6.545
 8488TIP3   OH225408   0.534   3.724   0.238
 8488TIP3    H125409   0.451   3.692   0.275
 8488TIP3    H225410   0.511   3.806   0.195
 8489TIP3   OH225411   0.205   1.452   5.742
 8489TIP3    H125412   0.255   1.371   5.752
 8489TIP3    H225413   0.237   1.509   5.812
 8490TIP3   OH225414   1.137   5.286   6.304
 8490TIP3    H125415   1.158   5.205   6.352
 8490TIP3    H225416   1.064   5.263   6.247
 8491TIP3   OH225417   7.399   5.753   3.081
 8491TIP3    H125418   7.400   5.739   2.986
 8491TIP3    H225419   7.443   5.677   3.118
 8492TIP3   OH225420   2.514   7.467   0.236
 8492TIP3    H125421   2.538   7.547   0.189
 8492TIP3    H225422   2.534   7.487   0.328
 8493TIP3   OH225423   2.435   6.317   3.100
 8493TIP3    H125424   2.462   6.291   3.188
 8493TIP3    H225425   2.461   6.408   3.092
 8494TIP3   OH225426   0.976   7.158   4.644
 8494TIP3    H125427   0.901   7.112   4.683
 8494TIP3    H225428   1.003   7.221   4.710
 8495TIP3   OH225429   4.836   0.826   1.793
 8495TIP3    H125430   4.906   0.864   1.739
 8495TIP3    H225431   4.811   0.897   1.853
 8496TIP3   OH225432   0.068   5.284   1.290
 8496TIP3    H125433   0.109   5.204   1.323
 8496TIP3    H225434   0.043   5.332   1.369
 8497TIP3   OH225435   6.590   0.690   4.914
 8497TIP3    H125436   6.513   0.686   4.972
 8497TIP3    H225437   6.631   0.604   4.923
 8498TIP3   OH225438   3.585   5.020   0.993
 8498TIP3    H125439   3.514   4.961   1.018
 8498TIP3    H225440   3.595   5.078   1.069
 8499TIP3   OH225441   3.371   6.673   6.242
 8499TIP3    H125442   3.339   6.669   6.332
 8499TIP3    H225443   3.297   6.646   6.188
 8500TIP3   OH225444   5.165   3.911   1.755
 8500TIP3    H125445   5.165   3.919   1.850
 8500TIP3    H225446   5.129   3.995   1.724
 8501TIP3   OH225447   3.237   4.241   3.268
 8501TIP3    H125448   3.331   4.247   3.249
 8501TIP3    H225449   3.225   4.298   3.344
 8502TIP3   OH225450   2.170   0.652   1.150
 8502TIP3    H125451   2.265   0.662   1.141
 8502TIP3    H225452   2.140   0.631   1.061
 8503TIP3   OH225453   7.225   5.765   0.324
 8503TIP3    H125454   7.172   5.755   0.244
 8503TIP3    H225455   7.182   5.707   0.388
 8504TIP3   OH225456   0.819   3.332   5.202
 8504TIP3    H125457   0.732   3.366   5.220
 8504TIP3    H225458   0.853   3.388   5.132
 8505TIP3   OH225459   1.738   0.295   1.695
 8505TIP3    H125460   1.793   0.274   1.619
 8505TIP3    H225461   1.671   0.354   1.661
 8506TIP3   OH225462   1.323   5.183   1.060
 8506TIP3    H125463   1.287   5.203   1.147
 8506TIP3    H225464   1.313   5.089   1.051
 8507TIP3   OH225465   8.273   0.163   2.906
 8507TIP3    H125466   8.288   0.197   2.818
 8507TIP3    H225467   8.272   0.067   2.895
 8508TIP3   OH225468   2.731   6.622   4.738
 8508TIP3    H125469   2.738   6.547   4.797
 8508TIP3    H225470   2.745   6.585   4.651
 8509TIP3   OH225471   2.064   6.135   3.556
 8509TIP3    H125472   2.005   6.091   3.495
 8509TIP3    H225473   2.006   6.180   3.618
 8510TIP3   OH225474   0.057   0.800   4.504
 8510TIP3    H125475   0.039   0.894   4.506
 8510TIP3    H225476   0.098   0.785   4.419
 8511TIP3   OH225477   1.017   5.713   3.398
 8511TIP3    H125478   0.977   5.633   3.364
 8511TIP3    H225479   0.946   5.778   3.396
 8512TIP3   OH225480   4.379   5.936   2.482
 8512TIP3    H125481   4.388   5.907   2.391
 8512TIP3    H225482   4.284   5.939   2.497
 8513TIP3   OH225483   1.039   6.453   0.142
 8513TIP3    H125484   1.046   6.516   0.213
 8513TIP3    H225485   1.035   6.506   0.062
 8514TIP3   OH225486   1.726   2.256   1.632
 8514TIP3    H125487   1.789   2.318   1.596
 8514TIP3    H225488   1.777   2.178   1.654
 8515TIP3   OH225489   7.734   3.527   1.158
 8515TIP3    H125490   7.709   3.514   1.249
 8515TIP3    H225491   7.763   3.618   1.153
 8516TIP3   OH225492   6.022   0.379   1.645
 8516TIP3    H125493   5.986   0.434   1.576
 8516TIP3    H225494   6.108   0.418   1.664
 8517TIP3   OH225495   6.456   2.568   5.009
 8517TIP3    H125496   6.507   2.519   4.944
 8517TIP3    H225497   6.490   2.657   5.004
 8518TIP3   OH225498   2.317   0.105   0.853
 8518TIP3    H125499   2.362   0.146   0.779
 8518TIP3    H225500   2.230   0.083   0.820
 8519TIP3   OH225501   1.963   5.378   0.826
 8519TIP3    H125502   1.923   5.309   0.878
 8519TIP3    H225503   1.947   5.351   0.735
 8520TIP3   OH225504   8.152   1.743   1.333
 8520TIP3    H125505   8.204   1.812   1.293
 8520TIP3    H225506   8.182   1.663   1.291
 8521TIP3   OH225507   8.230   6.932   1.827
 8521TIP3    H125508   8.145   6.939   1.870
 8521TIP3    H225509   8.233   6.842   1.794
 8522TIP3   OH225510   7.267   1.642   0.143
 8522TIP3    H125511   7.218   1.693   0.079
 8522TIP3    H225512   7.357   1.672   0.133
 8523TIP3   OH225513   6.437   7.624   6.071
 8523TIP3    H125514   6.460   7.649   5.981
 8523TIP3    H225515   6.410   7.532   6.064
 8524TIP3   OH225516   1.375   7.062   0.878
 8524TIP3    H125517   1.404   7.023   0.961
 8524TIP3    H225518   1.346   6.987   0.826
 8525TIP3   OH225519   3.805   1.734   2.154
 8525TIP3    H125520   3.749   1.657   2.161
 8525TIP3    H225521   3.886   1.701   2.114
 8526TIP3   OH225522   3.676   2.267   1.545
 8526TIP3    H125523   3.593   2.239   1.506
 8526TIP3    H225524   3.678   2.224   1.631
 8527TIP3   OH225525   0.096   1.557   5.067
 8527TIP3    H125526   0.026   1.494   5.047
 8527TIP3    H225527   0.140   1.570   4.983
 8528TIP3   OH225528   0.362   4.441   3.349
 8528TIP3    H125529   0.394   4.400   3.430
 8528TIP3    H225530   0.419   4.405   3.281
 8529TIP3   OH225531   1.695   4.686   4.172
 8529TIP3    H125532   1.722   4.596   4.154
 8529TIP3    H225533   1.731   4.704   4.259
 8530TIP3   OH225534   2.855   1.326   2.473
 8530TIP3    H125535   2.872   1.420   2.459
 8530TIP3    H225536   2.827   1.321   2.565
 8531TIP3   OH225537   4.763   5.771   0.907
 8531TIP3    H125538   4.711   5.826   0.849
 8531TIP3    H225539   4.837   5.743   0.852
 8532TIP3   OH225540   6.380   3.756   6.212
 8532TIP3    H125541   6.346   3.693   6.276
 8532TIP3    H225542   6.307   3.771   6.152
 8533TIP3   OH225543   7.501   7.223   1.464
 8533TIP3    H125544   7.576   7.164   1.474
 8533TIP3    H225545   7.505   7.251   1.372
 8534TIP3   OH225546   4.410   5.211   2.147
 8534TIP3    H125547   4.452   5.297   2.150
 8534TIP3    H225548   4.347   5.213   2.219
 8535TIP3   OH225549   5.861   3.812   2.892
 8535TIP3    H125550   5.792   3.855   2.841
 8535TIP3    H225551   5.943   3.850   2.859
 8536TIP3   OH225552   7.965   3.225   0.753
 8536TIP3    H125553   7.955   3.149   0.809
 8536TIP3    H225554   7.875   3.253   0.733
 8537TIP3   OH225555   6.873   1.758   5.509
 8537TIP3    H125556   6.962   1.750   5.542
 8537TIP3    H225557   6.821   1.700   5.564
 8538TIP3   OH225558   3.567   4.399   4.458
 8538TIP3    H125559   3.479   4.361   4.457
 8538TIP3    H225560   3.571   4.446   4.542
 8539TIP3   OH225561   1.575   0.982   4.214
 8539TIP3    H125562   1.562   0.969   4.120
 8539TIP3    H225563   1.535   0.905   4.254
 8540TIP3   OH225564   0.414   6.330   4.807
 8540TIP3    H125565   0.325   6.308   4.779
 8540TIP3    H225566   0.465   6.251   4.788
 8541TIP3   OH225567   0.018   0.527   2.611
 8541TIP3    H125568   0.050   0.512   2.522
 8541TIP3    H225569   0.014   0.622   2.620
 8542TIP3   OH225570   3.310   1.836   0.879
 8542TIP3    H125571   3.321   1.744   0.903
 8542TIP3    H225572   3.389   1.856   0.828
 8543TIP3   OH225573   2.684   4.939   4.997
 8543TIP3    H125574   2.746   4.984   5.054
 8543TIP3    H225575   2.614   5.003   4.983
 8544TIP3   OH225576   0.003   7.167   5.350
 8544TIP3    H125577   0.015   7.203   5.438
 8544TIP3    H225578   0.021   7.241   5.291
 8545TIP3   OH225579   8.060   6.004   3.227
 8545TIP3    H125580   8.122   6.020   3.156
 8545TIP3    H225581   8.047   5.910   3.227
 8546TIP3   OH225582   2.242   7.570   3.090
 8546TIP3    H125583   2.273   7.632   3.025
 8546TIP3    H225584   2.151   7.554   3.067
 8547TIP3   OH225585   5.917   1.203   3.007
 8547TIP3    H125586   6.001   1.243   3.031
 8547TIP3    H225587   5.929   1.110   3.025
 8548TIP3   OH225588   7.299   0.974   4.575
 8548TIP3    H125589   7.269   1.065   4.580
 8548TIP3    H225590   7.324   0.962   4.484
 8549TIP3   OH225591   4.922   4.580   3.012
 8549TIP3    H125592   4.849   4.638   3.033
 8549TIP3    H225593   4.995   4.639   2.992
 8550TIP3   OH225594   6.528   0.151   5.445
 8550TIP3    H125595   6.585   0.079   5.470
 8550TIP3    H225596   6.461   0.155   5.514
 8551TIP3   OH225597   2.597   0.064   1.018
 8551TIP3    H125598   2.620   0.123   1.090
 8551TIP3    H225599   2.680   0.022   0.994
 8552TIP3   OH225600   0.894   0.331   2.141
 8552TIP3    H125601   0.808   0.344   2.181
 8552TIP3    H225602   0.935   0.263   2.194
 8553TIP3   OH225603   4.710   0.453   1.112
 8553TIP3    H125604   4.699   0.375   1.166
 8553TIP3    H225605   4.788   0.496   1.147
 8554TIP3   OH225606   4.969   2.462   3.511
 8554TIP3    H125607   4.998   2.536   3.565
 8554TIP3    H225608   4.874   2.472   3.506
 8555TIP3   OH225609   7.588   7.278   1.189
 8555TIP3    H125610   7.663   7.270   1.247
 8555TIP3    H225611   7.603   7.212   1.121
 8556TIP3   OH225612   5.873   5.372   4.353
 8556TIP3    H125613   5.855   5.444   4.413
 8556TIP3    H225614   5.861   5.293   4.406
 8557TIP3   OH225615   4.934   7.685   1.335
 8557TIP3    H125616   4.862   7.648   1.284
 8557TIP3    H225617   4.894   7.757   1.384
 8558TIP3   OH225618   1.935   3.260   5.814
 8558TIP3    H125619   2.024   3.268   5.848
 8558TIP3    H225620   1.930   3.171   5.780
 8559TIP3   OH225621   5.949   4.986   0.134
 8559TIP3    H125622   6.029   5.001   0.183
 8559TIP3    H225623   5.889   5.055   0.164
 8560TIP3   OH225624   0.926   3.685   5.356
 8560TIP3    H125625   0.909   3.778   5.346
 8560TIP3    H225626   1.010   3.670   5.312
 8561TIP3   OH225627   7.930   6.416   2.501
 8561TIP3    H125628   7.844   6.402   2.461
 8561TIP3    H225629   7.977   6.472   2.439
 8562TIP3   OH225630   4.329   3.409   2.255
 8562TIP3    H125631   4.407   3.450   2.292
 8562TIP3    H225632   4.341   3.418   2.160
 8563TIP3   OH225633   1.417   3.080   3.678
 8563TIP3    H125634   1.340   3.135   3.661
 8563TIP3    H225635   1.381   2.999   3.715
 8564TIP3   OH225636   7.462   6.351   3.125
 8564TIP3    H125637   7.379   6.396   3.113
 8564TIP3    H225638   7.527   6.410   3.087
 8565TIP3   OH225639   0.642   0.374   1.251
 8565TIP3    H125640   0.650   0.459   1.208
 8565TIP3    H225641   0.549   0.367   1.273
 8566TIP3   OH225642   6.592   6.074   4.251
 8566TIP3    H125643   6.663   6.104   4.196
 8566TIP3    H225644   6.634   6.018   4.317
 8567TIP3   OH225645   6.009   4.053   5.452
 8567TIP3    H125646   6.023   4.113   5.525
 8567TIP3    H225647   5.917   4.026   5.461
 8568TIP3   OH225648   2.723   3.495   5.558
 8568TIP3    H125649   2.714   3.450   5.642
 8568TIP3    H225650   2.636   3.492   5.519
 8569TIP3   OH225651   4.555   4.357   2.925
 8569TIP3    H125652   4.531   4.359   3.017
 8569TIP3    H225653   4.605   4.275   2.915
 8570TIP3   OH225654   7.659   6.362   1.810
 8570TIP3    H125655   7.693   6.358   1.721
 8570TIP3    H225656   7.578   6.414   1.802
 8571TIP3   OH225657   0.543   0.539   6.232
 8571TIP3    H125658   0.480   0.579   6.173
 8571TIP3    H225659   0.581   0.613   6.280
 8572TIP3   OH225660   1.744   6.273   0.914
 8572TIP3    H125661   1.769   6.270   1.006
 8572TIP3    H225662   1.825   6.249   0.867
 8573TIP3   OH225663   7.330   2.317   2.461
 8573TIP3    H125664   7.391   2.293   2.392
 8573TIP3    H225665   7.373   2.391   2.506
 8574TIP3   OH225666   4.958   2.233   6.006
 8574TIP3    H125667   4.922   2.152   6.040
 8574TIP3    H225668   4.890   2.267   5.948
 8575TIP3   OH225669   7.086   4.102   1.020
 8575TIP3    H125670   7.040   4.031   1.065
 8575TIP3    H225671   7.020   4.169   1.006
 8576TIP3   OH225672   8.140   2.415   1.762
 8576TIP3    H125673   8.065   2.474   1.758
 8576TIP3    H225674   8.216   2.473   1.768
 8577TIP3   OH225675   1.086   2.844   5.319
 8577TIP3    H125676   1.146   2.843   5.245
 8577TIP3    H225677   1.013   2.899   5.291
 8578TIP3   OH225678   4.433   5.071   5.755
 8578TIP3    H125679   4.518   5.078   5.711
 8578TIP3    H225680   4.407   4.980   5.741
 8579TIP3   OH225681   4.402   1.039   3.771
 8579TIP3    H125682   4.397   1.066   3.680
 8579TIP3    H225683   4.434   1.116   3.818
 8580TIP3   OH225684   5.735   1.588   1.261
 8580TIP3    H125685   5.646   1.621   1.248
 8580TIP3    H225686   5.748   1.590   1.356
 8581TIP3   OH225687   2.921   0.774   2.472
 8581TIP3    H125688   2.917   0.870   2.477
 8581TIP3    H225689   2.832   0.746   2.494
 8582TIP3   OH225690   0.388   5.247   1.999
 8582TIP3    H125691   0.354   5.161   1.973
 8582TIP3    H225692   0.394   5.296   1.917
 8583TIP3   OH225693   5.132   7.231   0.094
 8583TIP3    H125694   5.050   7.197   0.057
 8583TIP3    H225695   5.169   7.157   0.141
 8584TIP3   OH225696   6.920   1.643   3.094
 8584TIP3    H125697   6.997   1.693   3.067
 8584TIP3    H225698   6.897   1.679   3.180
 8585TIP3   OH225699   5.242   4.486   3.045
 8585TIP3    H125700   5.264   4.419   3.111
 8585TIP3    H225701   5.162   4.526   3.077
 8586TIP3   OH225702   6.567   1.484   2.496
 8586TIP3    H125703   6.509   1.494   2.421
 8586TIP3    H225704   6.628   1.414   2.470
 8587TIP3   OH225705   3.820   6.209   3.364
 8587TIP3    H125706   3.832   6.241   3.275
 8587TIP3    H225707   3.725   6.202   3.374
 8588TIP3   OH225708   1.381   0.848   6.241
 8588TIP3    H125709   1.358   0.892   6.159
 8588TIP3    H225710   1.300   0.845   6.291
 8589TIP3   OH225711   4.057   4.342   4.738
 8589TIP3    H125712   3.963   4.351   4.727
 8589TIP3    H225713   4.082   4.415   4.795
 8590TIP3   OH225714   0.061   6.689   0.196
 8590TIP3    H125715   0.083   6.667   0.287
 8590TIP3    H225716   0.014   6.772   0.203
 8591TIP3   OH225717   6.577   5.146   3.720
 8591TIP3    H125718   6.633   5.215   3.686
 8591TIP3    H225719   6.628   5.105   3.790
 8592TIP3   OH225720   6.799   3.928   0.330
 8592TIP3    H125721   6.729   3.940   0.267
 8592TIP3    H225722   6.769   3.857   0.387
 8593TIP3   OH225723   1.760   5.264   1.962
 8593TIP3    H125724   1.753   5.188   2.020
 8593TIP3    H225725   1.743   5.229   1.875
 8594TIP3   OH225726   3.481   5.394   3.876
 8594TIP3    H125727   3.453   5.479   3.843
 8594TIP3    H225728   3.400   5.343   3.885
 8595TIP3   OH225729   1.976   1.699   5.207
 8595TIP3    H125730   2.021   1.639   5.147
 8595TIP3    H225731   1.883   1.689   5.186
 8596TIP3   OH225732   1.890   1.015   1.264
 8596TIP3    H125733   1.956   1.078   1.235
 8596TIP3    H225734   1.889   0.948   1.195
 8597TIP3   OH225735   6.555   6.666   5.903
 8597TIP3    H125736   6.581   6.582   5.942
 8597TIP3    H225737   6.459   6.663   5.901
 8598TIP3   OH225738   2.408   6.153   2.645
 8598TIP3    H125739   2.426   6.075   2.593
 8598TIP3    H225740   2.475   6.152   2.713
 8599TIP3   OH225741   8.020   1.014   3.608
 8599TIP3    H125742   7.971   1.031   3.528
 8599TIP3    H225743   7.964   0.954   3.658
 8600TIP3   OH225744   7.350   0.559   1.363
 8600TIP3    H125745   7.377   0.650   1.379
 8600TIP3    H225746   7.355   0.549   1.268
 8601TIP3   OH225747   0.428   3.321   1.205
 8601TIP3    H125748   0.384   3.344   1.124
 8601TIP3    H225749   0.510   3.370   1.203
 8602TIP3   OH225750   4.488   3.088   2.356
 8602TIP3    H125751   4.539   3.123   2.284
 8602TIP3    H225752   4.532   3.121   2.435
 8603TIP3   OH225753   1.859   7.337   3.682
 8603TIP3    H125754   1.811   7.311   3.761
 8603TIP3    H225755   1.876   7.430   3.694
 8604TIP3   OH225756   4.590   4.793   1.220
 8604TIP3    H125757   4.533   4.839   1.159
 8604TIP3    H225758   4.603   4.706   1.181
 8605TIP3   OH225759   5.468   4.871   0.110
 8605TIP3    H125760   5.536   4.908   0.054
 8605TIP3    H225761   5.387   4.914   0.081
 8606TIP3   OH225762   1.429   1.332   3.828
 8606TIP3    H125763   1.413   1.323   3.922
 8606TIP3    H225764   1.461   1.245   3.802
 8607TIP3   OH225765   1.910   1.381   6.811
 8607TIP3    H125766   2.002   1.409   6.806
 8607TIP3    H225767   1.873   1.406   6.726
 8608TIP3   OH225768   0.018   2.860   0.474
 8608TIP3    H125769   0.079   2.841   0.545
 8608TIP3    H225770   0.074   2.878   0.398
 8609TIP3   OH225771   4.755   5.845   5.934
 8609TIP3    H125772   4.721   5.848   6.023
 8609TIP3    H225773   4.693   5.896   5.882
 8610TIP3   OH225774   2.066   1.418   2.311
 8610TIP3    H125775   2.088   1.432   2.219
 8610TIP3    H225776   2.139   1.457   2.359
 8611TIP3   OH225777   3.496   6.892   6.776
 8611TIP3    H125778   3.547   6.816   6.806
 8611TIP3    H225779   3.544   6.924   6.699
 8612TIP3   OH225780   5.704   0.051   0.120
 8612TIP3    H125781   5.621   0.047   0.073
 8612TIP3    H225782   5.766   0.005   0.063
 8613TIP3   OH225783   6.817   6.929   1.737
 8613TIP3    H125784   6.896   6.899   1.692
 8613TIP3    H225785   6.845   7.006   1.786
 8614TIP3   OH225786   6.408   1.922   3.159
 8614TIP3    H125787   6.332   1.960   3.205
 8614TIP3    H225788   6.483   1.966   3.198
 8615TIP3   OH225789   2.193   3.995   5.917
 8615TIP3    H125790   2.238   4.021   5.998
 8615TIP3    H225791   2.204   4.070   5.858
 8616TIP3   OH225792   3.034   3.725   5.041
 8616TIP3    H125793   2.994   3.674   5.110
 8616TIP3    H225794   3.116   3.679   5.021
 8617TIP3   OH225795   5.579   7.484   6.591
 8617TIP3    H125796   5.659   7.436   6.610
 8617TIP3    H225797   5.587   7.509   6.498
 8618TIP3   OH225798   1.209   6.604   2.546
 8618TIP3    H125799   1.156   6.586   2.624
 8618TIP3    H225800   1.145   6.612   2.475
 8619TIP3   OH225801   3.411   1.387   2.275
 8619TIP3    H125802   3.489   1.414   2.323
 8619TIP3    H225803   3.401   1.294   2.295
 8620TIP3   OH225804   5.740   6.819   1.928
 8620TIP3    H125805   5.722   6.875   2.003
 8620TIP3    H225806   5.829   6.787   1.942
 8621TIP3   OH225807   5.153   7.619   5.244
 8621TIP3    H125808   5.076   7.587   5.198
 8621TIP3    H225809   5.211   7.650   5.175
 8622TIP3   OH225810   2.428   1.727   3.621
 8622TIP3    H125811   2.484   1.715   3.544
 8622TIP3    H225812   2.341   1.699   3.592
 8623TIP3   OH225813   7.689   5.297   4.943
 8623TIP3    H125814   7.626   5.344   4.998
 8623TIP3    H225815   7.675   5.204   4.964
 8624TIP3   OH225816   0.434   6.350   1.454
 8624TIP3    H125817   0.496   6.280   1.434
 8624TIP3    H225818   0.477   6.402   1.521
 8625TIP3   OH225819   4.337   2.488   5.412
 8625TIP3    H125820   4.430   2.492   5.393
 8625TIP3    H225821   4.302   2.424   5.349
 8626TIP3   OH225822   2.805   3.050   4.288
 8626TIP3    H125823   2.720   3.024   4.324
 8626TIP3    H225824   2.846   3.102   4.357
 8627TIP3   OH225825   4.605   2.397   5.465
 8627TIP3    H125826   4.625   2.316   5.418
 8627TIP3    H225827   4.622   2.376   5.557
 8628TIP3   OH225828   3.557   4.374   3.993
 8628TIP3    H125829   3.490   4.326   4.042
 8628TIP3    H225830   3.601   4.428   4.059
 8629TIP3   OH225831   1.519   0.336   3.127
 8629TIP3    H125832   1.614   0.327   3.129
 8629TIP3    H225833   1.503   0.429   3.141
 8630TIP3   OH225834   8.265   6.403   4.078
 8630TIP3    H125835   8.238   6.312   4.078
 8630TIP3    H225836   8.358   6.401   4.055
 8631TIP3   OH225837   5.828   0.535   6.539
 8631TIP3    H125838   5.738   0.542   6.506
 8631TIP3    H225839   5.830   0.595   6.614
 8632TIP3   OH225840   5.591   4.062   2.754
 8632TIP3    H125841   5.589   4.060   2.849
 8632TIP3    H225842   5.638   3.982   2.729
 8633TIP3   OH225843   4.099   6.137   3.734
 8633TIP3    H125844   4.030   6.146   3.669
 8633TIP3    H225845   4.062   6.176   3.814
 8634TIP3   OH225846   5.328   2.851   2.393
 8634TIP3    H125847   5.260   2.833   2.457
 8634TIP3    H225848   5.403   2.879   2.444
 8635TIP3   OH225849   7.943   3.797   6.707
 8635TIP3    H125850   7.884   3.766   6.776
 8635TIP3    H225851   7.886   3.849   6.649
 8636TIP3   OH225852   7.247   4.443   0.788
 8636TIP3    H125853   7.164   4.487   0.769
 8636TIP3    H225854   7.276   4.481   0.871
 8637TIP3   OH225855   6.804   6.169   2.219
 8637TIP3    H125856   6.887   6.137   2.183
 8637TIP3    H225857   6.819   6.176   2.313
 8638TIP3   OH225858   4.936   1.840   6.218
 8638TIP3    H125859   5.014   1.858   6.270
 8638TIP3    H225860   4.910   1.752   6.243
 8639TIP3   OH225861   4.546   1.673   2.119
 8639TIP3    H125862   4.521   1.581   2.124
 8639TIP3    H225863   4.473   1.720   2.160
 8640TIP3   OH225864   1.986   5.812   4.667
 8640TIP3    H125865   1.942   5.865   4.733
 8640TIP3    H225866   1.966   5.721   4.691
 8641TIP3   OH225867   0.219   5.035   0.813
 8641TIP3    H125868   0.141   4.982   0.798
 8641TIP3    H225869   0.185   5.121   0.841
 8642TIP3   OH225870   5.017   7.357   0.425
 8642TIP3    H125871   5.048   7.396   0.506
 8642TIP3    H225872   5.002   7.265   0.446
 8643TIP3   OH225873   0.693   7.134   2.417
 8643TIP3    H125874   0.781   7.102   2.434
 8643TIP3    H225875   0.658   7.154   2.504
 8644TIP3   OH225876   6.363   6.634   0.101
 8644TIP3    H125877   6.434   6.642   0.038
 8644TIP3    H225878   6.347   6.724   0.131
 8645TIP3   OH225879   3.393   4.993   1.824
 8645TIP3    H125880   3.442   5.000   1.906
 8645TIP3    H225881   3.303   5.011   1.849
 8646TIP3   OH225882   6.184   4.996   5.577
 8646TIP3    H125883   6.107   4.995   5.634
 8646TIP3    H225884   6.257   5.013   5.636
 8647TIP3   OH225885   4.649   7.445   4.093
 8647TIP3    H125886   4.597   7.524   4.107
 8647TIP3    H225887   4.610   7.380   4.151
 8648TIP3   OH225888   7.213   5.578   3.310
 8648TIP3    H125889   7.226   5.517   3.383
 8648TIP3    H225890   7.188   5.660   3.351
 8649TIP3   OH225891   4.140   5.097   0.104
 8649TIP3    H125892   4.174   5.159   0.167
 8649TIP3    H225893   4.215   5.041   0.083
 8650TIP3   OH225894   6.949   7.166   4.749
 8650TIP3    H125895   6.874   7.106   4.750
 8650TIP3    H225896   6.982   7.166   4.839
 8651TIP3   OH225897   7.452   2.400   0.421
 8651TIP3    H125898   7.424   2.371   0.334
 8651TIP3    H225899   7.509   2.330   0.453
 8652TIP3   OH225900   0.650   4.911   2.408
 8652TIP3    H125901   0.577   4.972   2.420
 8652TIP3    H225902   0.633   4.840   2.469
 8653TIP3   OH225903   3.599   4.178   6.604
 8653TIP3    H125904   3.624   4.120   6.531
 8653TIP3    H225905   3.589   4.119   6.679
 8654TIP3   OH225906   1.255   0.674   2.307
 8654TIP3    H125907   1.192   0.746   2.301
 8654TIP3    H225908   1.216   0.604   2.255
 8655TIP3   OH225909   5.038   6.589   5.876
 8655TIP3    H125910   5.081   6.674   5.864
 8655TIP3    H225911   5.020   6.558   5.788
 8656TIP3   OH225912   5.916   3.302   4.915
 8656TIP3    H125913   6.002   3.263   4.925
 8656TIP3    H225914   5.893   3.287   4.823
 8657TIP3   OH225915   1.254   6.271   1.146
 8657TIP3    H125916   1.287   6.341   1.202
 8657TIP3    H225917   1.187   6.227   1.199
 8658TIP3   OH225918   0.302   4.726   2.332
 8658TIP3    H125919   0.300   4.631   2.315
 8658TIP3    H225920   0.326   4.733   2.425
 8659TIP3   OH225921   5.051   5.541   2.990
 8659TIP3    H125922   4.982   5.504   3.045
 8659TIP3    H225923   5.094   5.606   3.045
 8660TIP3   OH225924   4.027   2.725   2.999
 8660TIP3    H125925   3.948   2.672   3.011
 8660TIP3    H225926   4.002   2.790   2.934
 8661TIP3   OH225927   3.793   5.991   3.912
 8661TIP3    H125928   3.789   6.023   3.823
 8661TIP3    H225929   3.820   6.066   3.965
 8662TIP3   OH225930   2.570   5.238   2.819
 8662TIP3    H125931   2.591   5.216   2.910
 8662TIP3    H225932   2.487   5.193   2.803
 8663TIP3   OH225933   6.958   0.877   2.718
 8663TIP3    H125934   6.945   0.880   2.623
 8663TIP3    H225935   6.936   0.787   2.742
 8664TIP3   OH225936   5.924   3.397   6.359
 8664TIP3    H125937   5.893   3.310   6.336
 8664TIP3    H225938   6.010   3.383   6.399
 8665TIP3   OH225939   8.149   5.553   0.938
 8665TIP3    H125940   8.078   5.499   0.901
 8665TIP3    H225941   8.204   5.490   0.985
 8666TIP3   OH225942   5.273   7.403   2.413
 8666TIP3    H125943   5.243   7.399   2.322
 8666TIP3    H225944   5.192   7.408   2.464
 8667TIP3   OH225945   2.073   7.163   1.015
 8667TIP3    H125946   2.074   7.258   1.006
 8667TIP3    H225947   2.145   7.143   1.074
 8668TIP3   OH225948   6.378   0.642   2.406
 8668TIP3    H125949   6.295   0.642   2.358
 8668TIP3    H225950   6.354   0.618   2.495
 8669TIP3   OH225951   7.608   3.548   5.561
 8669TIP3    H125952   7.575   3.524   5.475
 8669TIP3    H225953   7.532   3.584   5.606
 8670TIP3   OH225954   6.964   6.343   6.586
 8670TIP3    H125955   6.956   6.259   6.541
 8670TIP3    H225956   6.878   6.384   6.575
 8671TIP3   OH225957   1.890   6.661   4.581
 8671TIP3    H125958   1.814   6.603   4.577
 8671TIP3    H225959   1.958   6.608   4.622
 8672TIP3   OH225960   2.691   1.138   2.731
 8672TIP3    H125961   2.770   1.190   2.750
 8672TIP3    H225962   2.724   1.055   2.698
 8673TIP3   OH225963   3.804   1.054   6.001
 8673TIP3    H125964   3.791   1.125   5.938
 8673TIP3    H225965   3.718   1.015   6.013
 8674TIP3   OH225966   1.826   5.125   3.524
 8674TIP3    H125967   1.732   5.109   3.534
 8674TIP3    H225968   1.861   5.115   3.612
 8675TIP3   OH225969   1.524   5.258   3.166
 8675TIP3    H125970   1.473   5.248   3.247
 8675TIP3    H225971   1.498   5.344   3.133
 8676TIP3   OH225972   4.793   0.785   4.438
 8676TIP3    H125973   4.868   0.784   4.496
 8676TIP3    H225974   4.809   0.713   4.376
 8677TIP3   OH225975   0.952   2.445   6.269
 8677TIP3    H125976   0.940   2.534   6.301
 8677TIP3    H225977   0.894   2.438   6.194
 8678TIP3   OH225978   4.999   6.002   4.962
 8678TIP3    H125979   4.971   6.044   4.880
 8678TIP3    H225980   5.094   5.993   4.954
 8679TIP3   OH225981   5.459   4.024   1.834
 8679TIP3    H125982   5.396   3.983   1.774
 8679TIP3    H225983   5.525   3.956   1.849
 8680TIP3   OH225984   1.475   6.658   1.220
 8680TIP3    H125985   1.506   6.732   1.168
 8680TIP3    H225986   1.515   6.582   1.179
 8681TIP3   OH225987   6.436   2.076   2.081
 8681TIP3    H125988   6.515   2.132   2.080
 8681TIP3    H225989   6.385   2.110   2.154
 8682TIP3   OH225990   5.592   6.826  -0.015
 8682TIP3    H125991   5.628   6.738  -0.026
 8682TIP3    H225992   5.612   6.848   0.076
 8683TIP3   OH225993   3.234   3.024   3.903
 8683TIP3    H125994   3.167   3.046   3.967
 8683TIP3    H225995   3.304   2.983   3.953
 8684TIP3   OH225996   1.398   1.548   5.607
 8684TIP3    H125997   1.403   1.624   5.665
 8684TIP3    H225998   1.325   1.568   5.549
 8685TIP3   OH225999   0.332   5.817   4.345
 8685TIP3    H126000   0.388   5.792   4.419
 8685TIP3    H226001   0.269   5.745   4.337
 8686TIP3   OH226002   4.717   1.365   1.849
 8686TIP3    H126003   4.788   1.395   1.792
 8686TIP3    H226004   4.720   1.425   1.924
 8687TIP3   OH226005   8.067   1.058   1.197
 8687TIP3    H126006   8.017   0.995   1.248
 8687TIP3    H226007   8.085   1.014   1.114
 8688TIP3   OH226008   5.464   7.792   5.246
 8688TIP3    H126009   5.452   7.854   5.174
 8688TIP3    H226010   5.398   7.817   5.311
 8689TIP3   OH226011   7.157   6.231   5.573
 8689TIP3    H126012   7.191   6.315   5.606
 8689TIP3    H226013   7.234   6.186   5.539
 8690TIP3   OH226014   1.244   2.744   0.828
 8690TIP3    H126015   1.193   2.663   0.835
 8690TIP3    H226016   1.178   2.811   0.809
 8691TIP3   OH226017   7.891   7.700   5.781
 8691TIP3    H126018   7.905   7.775   5.723
 8691TIP3    H226019   7.960   7.639   5.758
 8692TIP3   OH226020   5.203   2.453   2.559
 8692TIP3    H126021   5.229   2.481   2.646
 8692TIP3    H226022   5.212   2.358   2.560
 8693TIP3   OH226023   4.549   3.968   2.658
 8693TIP3    H126024   4.498   3.931   2.586
 8693TIP3    H226025   4.636   3.929   2.648
 8694TIP3   OH226026   4.172   0.225   0.253
 8694TIP3    H126027   4.265   0.210   0.270
 8694TIP3    H226028   4.144   0.147   0.205
 8695TIP3   OH226029   6.326   6.481   4.177
 8695TIP3    H126030   6.339   6.440   4.091
 8695TIP3    H226031   6.408   6.526   4.195
 8696TIP3   OH226032   4.519   4.603   5.861
 8696TIP3    H126033   4.520   4.615   5.956
 8696TIP3    H226034   4.609   4.578   5.839
 8697TIP3   OH226035   2.112   5.347   6.521
 8697TIP3    H126036   2.132   5.394   6.440
 8697TIP3    H226037   2.017   5.355   6.531
 8698TIP3   OH226038   4.233   1.304   4.543
 8698TIP3    H126039   4.291   1.337   4.474
 8698TIP3    H226040   4.265   1.344   4.624
 8699TIP3   OH226041   1.719   0.491   1.469
 8699TIP3    H126042   1.724   0.579   1.431
 8699TIP3    H226043   1.809   0.470   1.494
 8700TIP3   OH226044   3.139   1.725   2.370
 8700TIP3    H126045   3.206   1.681   2.318
 8700TIP3    H226046   3.064   1.666   2.367
 8701TIP3   OH226047   2.193   2.424   6.333
 8701TIP3    H126048   2.274   2.452   6.374
 8701TIP3    H226049   2.220   2.383   6.251
 8702TIP3   OH226050   1.852   7.558   2.611
 8702TIP3    H126051   1.945   7.579   2.620
 8702TIP3    H226052   1.847   7.463   2.627
 8703TIP3   OH226053   6.781   3.229   4.733
 8703TIP3    H126054   6.861   3.188   4.701
 8703TIP3    H226055   6.715   3.209   4.667
 8704TIP3   OH226056   4.556   3.502   5.035
 8704TIP3    H126057   4.576   3.505   4.942
 8704TIP3    H226058   4.579   3.589   5.067
 8705TIP3   OH226059   6.634   2.272   2.099
 8705TIP3    H126060   6.653   2.307   2.186
 8705TIP3    H226061   6.716   2.229   2.072
 8706TIP3   OH226062   4.261   6.318   1.467
 8706TIP3    H126063   4.279   6.295   1.558
 8706TIP3    H226064   4.196   6.388   1.473
 8707TIP3   OH226065   0.123   3.764   5.022
 8707TIP3    H126066   0.039   3.804   4.998
 8707TIP3    H226067   0.115   3.673   4.993
 8708TIP3   OH226068   2.612   1.233   6.795
 8708TIP3    H126069   2.660   1.309   6.829
 8708TIP3    H226070   2.633   1.231   6.701
 8709TIP3   OH226071   1.290   0.971   1.795
 8709TIP3    H126072   1.273   0.971   1.700
 8709TIP3    H226073   1.214   1.015   1.832
 8710TIP3   OH226074   6.480   2.241   2.355
 8710TIP3    H126075   6.463   2.158   2.400
 8710TIP3    H226076   6.574   2.241   2.340
 8711TIP3   OH226077   6.848   3.882   1.020
 8711TIP3    H126078   6.848   3.805   1.077
 8711TIP3    H226079   6.808   3.951   1.072
 8712TIP3   OH226080   2.831   0.076   6.086
 8712TIP3    H126081   2.792   0.110   6.006
 8712TIP3    H226082   2.913   0.125   6.096
 8713TIP3   OH226083   4.955   6.260   4.480
 8713TIP3    H126084   4.900   6.193   4.439
 8713TIP3    H226085   5.020   6.282   4.413
 8714TIP3   OH226086   0.266   0.870   4.017
 8714TIP3    H126087   0.233   0.855   3.929
 8714TIP3    H226088   0.361   0.874   4.007
 8715TIP3   OH226089   5.764   5.781   0.565
 8715TIP3    H126090   5.688   5.822   0.606
 8715TIP3    H226091   5.766   5.817   0.476
 8716TIP3   OH226092   4.239   3.148   2.271
 8716TIP3    H126093   4.322   3.117   2.307
 8716TIP3    H226094   4.237   3.241   2.292
 8717TIP3   OH226095   5.355   4.399   1.206
 8717TIP3    H126096   5.387   4.416   1.294
 8717TIP3    H226097   5.347   4.486   1.166
 8718TIP3   OH226098   2.580   4.029   6.592
 8718TIP3    H126099   2.517   3.993   6.529
 8718TIP3    H226100   2.572   3.972   6.669
 8719TIP3   OH226101   5.669   5.573   0.996
 8719TIP3    H126102   5.695   5.490   1.034
 8719TIP3    H226103   5.599   5.605   1.053
 8720TIP3   OH226104   8.254   2.601   5.289
 8720TIP3    H126105   8.281   2.539   5.221
 8720TIP3    H226106   8.299   2.683   5.265
 8721TIP3   OH226107   1.379   1.650   4.397
 8721TIP3    H126108   1.380   1.711   4.470
 8721TIP3    H226109   1.334   1.572   4.430
 8722TIP3   OH226110   3.184   5.365   2.892
 8722TIP3    H126111   3.217   5.319   2.969
 8722TIP3    H226112   3.095   5.333   2.880
 8723TIP3   OH226113   4.631   2.152   6.583
 8723TIP3    H126114   4.584   2.235   6.595
 8723TIP3    H226115   4.723   2.176   6.590
 8724TIP3   OH226116   3.558   1.406   6.338
 8724TIP3    H126117   3.495   1.421   6.267
 8724TIP3    H226118   3.641   1.439   6.303
 8725TIP3   OH226119   3.363   2.371   2.088
 8725TIP3    H126120   3.320   2.298   2.045
 8725TIP3    H226121   3.305   2.445   2.074
 8726TIP3   OH226122   2.303   7.490   4.267
 8726TIP3    H126123   2.369   7.552   4.297
 8726TIP3    H226124   2.227   7.544   4.244
 8727TIP3   OH226125   3.451   2.005   6.013
 8727TIP3    H126126   3.532   1.956   6.000
 8727TIP3    H226127   3.385   1.953   5.968
 8728TIP3   OH226128   4.535   1.906   1.694
 8728TIP3    H126129   4.490   1.911   1.609
 8728TIP3    H226130   4.620   1.868   1.673
 8729TIP3   OH226131   1.181   1.880   3.667
 8729TIP3    H126132   1.189   1.834   3.751
 8729TIP3    H226133   1.271   1.901   3.643
 8730TIP3   OH226134   2.270   6.746   4.507
 8730TIP3    H126135   2.347   6.724   4.455
 8730TIP3    H226136   2.302   6.811   4.570
 8731TIP3   OH226137   1.822   4.066   0.542
 8731TIP3    H126138   1.914   4.091   0.549
 8731TIP3    H226139   1.810   4.045   0.449
 8732TIP3   OH226140   6.514   3.719   5.805
 8732TIP3    H126141   6.450   3.676   5.862
 8732TIP3    H226142   6.492   3.690   5.717
 8733TIP3   OH226143   2.615   3.956   5.879
 8733TIP3    H126144   2.620   3.861   5.872
 8733TIP3    H226145   2.677   3.988   5.814
 8734TIP3   OH226146   6.976   0.158   4.080
 8734TIP3    H126147   7.026   0.098   4.136
 8734TIP3    H226148   6.891   0.166   4.122
 8735TIP3   OH226149   2.079   6.548   1.520
 8735TIP3    H126150   2.049   6.460   1.496
 8735TIP3    H226151   2.060   6.602   1.444
 8736TIP3   OH226152   1.971   7.756   0.378
 8736TIP3    H126153   1.955   7.674   0.332
 8736TIP3    H226154   1.964   7.824   0.310
 8737TIP3   OH226155   4.598   6.988   3.731
 8737TIP3    H126156   4.593   6.966   3.823
 8737TIP3    H226157   4.574   6.908   3.685
 8738TIP3   OH226158   2.568   6.965   5.525
 8738TIP3    H126159   2.576   7.031   5.457
 8738TIP3    H226160   2.548   6.884   5.478
 8739TIP3   OH226161   7.375   2.700   4.215
 8739TIP3    H126162   7.470   2.704   4.207
 8739TIP3    H226163   7.352   2.612   4.182
 8740TIP3   OH226164   5.842   5.147   2.024
 8740TIP3    H126165   5.829   5.156   2.118
 8740TIP3    H226166   5.830   5.054   2.006
 8741TIP3   OH226167   3.212   7.309   6.111
 8741TIP3    H126168   3.176   7.383   6.063
 8741TIP3    H226169   3.268   7.349   6.178
 8742TIP3   OH226170   6.357   1.395   4.900
 8742TIP3    H126171   6.423   1.402   4.832
 8742TIP3    H226172   6.370   1.308   4.938
 8743TIP3   OH226173   4.659   6.592   4.066
 8743TIP3    H126174   4.709   6.557   4.139
 8743TIP3    H226175   4.570   6.602   4.100
 8744TIP3   OH226176   6.725   4.760   3.956
 8744TIP3    H126177   6.784   4.836   3.949
 8744TIP3    H226178   6.696   4.761   4.047
 8745TIP3   OH226179   2.919   5.498   4.320
 8745TIP3    H126180   2.951   5.557   4.388
 8745TIP3    H226181   2.990   5.435   4.308
 8746TIP3   OH226182   2.739   7.720   4.921
 8746TIP3    H126183   2.759   7.678   5.004
 8746TIP3    H226184   2.739   7.649   4.857
 8747TIP3   OH226185   5.900   3.680   0.633
 8747TIP3    H126186   5.855   3.653   0.552
 8747TIP3    H226187   5.904   3.600   0.685
 8748TIP3   OH226188   7.019   6.603   6.108
 8748TIP3    H126189   7.091   6.549   6.075
 8748TIP3    H226190   6.940   6.556   6.081
 8749TIP3   OH226191   6.714   6.215   3.421
 8749TIP3    H126192   6.670   6.273   3.359
 8749TIP3    H226193   6.749   6.144   3.367
 8750TIP3   OH226194   3.253   5.718   5.099
 8750TIP3    H126195   3.264   5.624   5.084
 8750TIP3    H226196   3.337   5.756   5.074
 8751TIP3   OH226197   6.555   6.498   0.889
 8751TIP3    H126198   6.499   6.507   0.812
 8751TIP3    H226199   6.583   6.587   0.910
 8752TIP3   OH226200   6.370   3.189   0.372
 8752TIP3    H126201   6.439   3.223   0.430
 8752TIP3    H226202   6.392   3.097   0.361
 8753TIP3   OH226203   7.977   2.688   1.421
 8753TIP3    H126204   7.937   2.748   1.484
 8753TIP3    H226205   7.902   2.651   1.373
 8754TIP3   OH226206   1.094   2.185   1.406
 8754TIP3    H126207   1.060   2.192   1.317
 8754TIP3    H226208   1.028   2.226   1.462
 8755TIP3   OH226209   0.409   2.185   3.498
 8755TIP3    H126210   0.464   2.173   3.420
 8755TIP3    H226211   0.463   2.153   3.570
 8756TIP3   OH226212   8.307   5.882   5.221
 8756TIP3    H126213   8.256   5.962   5.232
 8756TIP3    H226214   8.319   5.873   5.127
 8757TIP3   OH226215   5.576   7.315   3.820
 8757TIP3    H126216   5.580   7.224   3.849
 8757TIP3    H226217   5.509   7.355   3.875
 8758TIP3   OH226218   0.047   2.440   5.068
 8758TIP3    H126219   0.134   2.466   5.036
 8758TIP3    H226220   0.017   2.375   5.005
 8759TIP3   OH226221   1.598   3.449   6.521
 8759TIP3    H126222   1.638   3.445   6.434
 8759TIP3    H226223   1.510   3.483   6.506
 8760TIP3   OH226224   6.937   7.792   5.930
 8760TIP3    H126225   6.865   7.778   5.991
 8760TIP3    H226226   6.896   7.831   5.853
 8761TIP3   OH226227   4.760   4.257   1.507
 8761TIP3    H126228   4.805   4.330   1.548
 8761TIP3    H226229   4.807   4.242   1.425
 8762TIP3   OH226230   2.532   0.836   0.532
 8762TIP3    H126231   2.585   0.802   0.459
 8762TIP3    H226232   2.510   0.758   0.583
 8763TIP3   OH226233   6.988   2.591   5.551
 8763TIP3    H126234   7.025   2.503   5.549
 8763TIP3    H226235   7.063   2.649   5.554
 8764TIP3   OH226236   5.887   7.547   1.212
 8764TIP3    H126237   5.846   7.625   1.250
 8764TIP3    H226238   5.939   7.580   1.139
 8765TIP3   OH226239   2.183   7.415   5.269
 8765TIP3    H126240   2.101   7.457   5.244
 8765TIP3    H226241   2.211   7.462   5.348
 8766TIP3   OH226242   1.198   1.732   6.170
 8766TIP3    H126243   1.234   1.812   6.131
 8766TIP3    H226244   1.171   1.680   6.095
 8767TIP3   OH226245   6.372   0.825   2.091
 8767TIP3    H126246   6.288   0.867   2.070
 8767TIP3    H226247   6.349   0.735   2.115
 8768TIP3   OH226248   1.655   4.148   5.753
 8768TIP3    H126249   1.590   4.112   5.813
 8768TIP3    H226250   1.720   4.189   5.810
 8769TIP3   OH226251   5.309   2.498   3.719
 8769TIP3    H126252   5.269   2.568   3.771
 8769TIP3    H226253   5.389   2.476   3.767
 8770TIP3   OH226254   5.627   2.020   5.941
 8770TIP3    H126255   5.690   2.041   6.010
 8770TIP3    H226256   5.593   1.934   5.966
 8771TIP3   OH226257   2.193   2.239   4.347
 8771TIP3    H126258   2.263   2.304   4.354
 8771TIP3    H226259   2.186   2.202   4.435
 8772TIP3   OH226260   3.546   0.671   5.780
 8772TIP3    H126261   3.521   0.598   5.723
 8772TIP3    H226262   3.479   0.672   5.849
 8773TIP3   OH226263   1.678   0.104   2.978
 8773TIP3    H126264   1.683   0.017   2.940
 8773TIP3    H226265   1.658   0.162   2.904
 8774TIP3   OH226266   4.348   0.799   4.159
 8774TIP3    H126267   4.426   0.771   4.207
 8774TIP3    H226268   4.377   0.876   4.110
 8775TIP3   OH226269   5.439   6.489   0.365
 8775TIP3    H126270   5.350   6.453   0.371
 8775TIP3    H226271   5.443   6.553   0.435
 8776TIP3   OH226272   6.174   1.030   2.137
 8776TIP3    H126273   6.100   1.073   2.093
 8776TIP3    H226274   6.167   1.060   2.228
 8777TIP3   OH226275   4.012   2.850   6.370
 8777TIP3    H126276   4.064   2.771   6.355
 8777TIP3    H226277   4.044   2.912   6.305
 8778TIP3   OH226278   7.338   3.705   4.259
 8778TIP3    H126279   7.301   3.621   4.286
 8778TIP3    H226280   7.430   3.685   4.239
 8779TIP3   OH226281   4.473   0.432   6.372
 8779TIP3    H126282   4.450   0.522   6.396
 8779TIP3    H226283   4.535   0.442   6.299
 8780TIP3   OH226284   2.572   6.184   2.885
 8780TIP3    H126285   2.648   6.241   2.874
 8780TIP3    H226286   2.530   6.215   2.965
 8781TIP3   OH226287   7.369   0.556   4.061
 8781TIP3    H126288   7.300   0.495   4.037
 8781TIP3    H226289   7.323   0.636   4.086
 8782TIP3   OH226290   4.150   5.532   6.222
 8782TIP3    H126291   4.184   5.455   6.267
 8782TIP3    H226292   4.102   5.498   6.147
 8783TIP3   OH226293   0.700   2.648   2.068
 8783TIP3    H126294   0.683   2.575   2.009
 8783TIP3    H226295   0.653   2.626   2.148
 8784TIP3   OH226296   2.004   0.566   6.293
 8784TIP3    H126297   1.962   0.523   6.367
 8784TIP3    H226298   1.933   0.614   6.250
 8785TIP3   OH226299   4.492   7.527   2.112
 8785TIP3    H126300   4.538   7.543   2.029
 8785TIP3    H226301   4.417   7.473   2.087
 8786TIP3   OH226302   2.292   6.873   2.957
 8786TIP3    H126303   2.384   6.864   2.979
 8786TIP3    H226304   2.246   6.877   3.041
 8787TIP3   OH226305   8.248   1.423   6.405
 8787TIP3    H126306   8.223   1.497   6.461
 8787TIP3    H226307   8.296   1.463   6.332
 8788TIP3   OH226308   2.828   0.832   5.146
 8788TIP3    H126309   2.762   0.849   5.079
 8788TIP3    H226310   2.908   0.814   5.097
 8789TIP3   OH226311   1.261   7.349   6.517
 8789TIP3    H126312   1.214   7.426   6.549
 8789TIP3    H226313   1.206   7.316   6.445
 8790TIP3   OH226314   7.130   3.793   1.034
 8790TIP3    H126315   7.070   3.828   0.968
 8790TIP3    H226316   7.201   3.753   0.983
 8791TIP3   OH226317   7.972   6.363   5.110
 8791TIP3    H126318   7.894   6.311   5.128
 8791TIP3    H226319   7.977   6.424   5.184
 8792TIP3   OH226320   5.967   5.255   6.776
 8792TIP3    H126321   5.911   5.184   6.806
 8792TIP3    H226322   5.935   5.275   6.688
 8793TIP3   OH226323   3.909   6.399   5.106
 8793TIP3    H126324   3.995   6.442   5.114
 8793TIP3    H226325   3.929   6.305   5.107
 8794TIP3   OH226326   7.563   5.826   5.971
 8794TIP3    H126327   7.593   5.766   6.039
 8794TIP3    H226328   7.527   5.770   5.903
 8795TIP3   OH226329   0.235   0.352   0.133
 8795TIP3    H126330   0.283   0.408   0.194
 8795TIP3    H226331   0.237   0.400   0.050
 8796TIP3   OH226332   6.585   1.773   6.657
 8796TIP3    H126333   6.513   1.831   6.635
 8796TIP3    H226334   6.639   1.770   6.578
 8797TIP3   OH226335   5.243   1.582   4.089
 8797TIP3    H126336   5.267   1.615   4.176
 8797TIP3    H226337   5.320   1.533   4.060
 8798TIP3   OH226338   0.128   5.387   3.593
 8798TIP3    H126339   0.077   5.435   3.658
 8798TIP3    H226340   0.158   5.454   3.532
 8799TIP3   OH226341   4.399   1.372   1.646
 8799TIP3    H126342   4.377   1.333   1.562
 8799TIP3    H226343   4.456   1.446   1.624
 8800TIP3   OH226344   6.121   0.592   0.275
 8800TIP3    H126345   6.158   0.612   0.189
 8800TIP3    H226346   6.111   0.678   0.317
 8801TIP3   OH226347   4.944   6.991   3.352
 8801TIP3    H126348   5.012   6.965   3.415
 8801TIP3    H226349   4.966   6.943   3.272
 8802TIP3   OH226350   4.154   3.375   4.245
 8802TIP3    H126351   4.144   3.287   4.208
 8802TIP3    H226352   4.123   3.367   4.335
 8803TIP3   OH226353   3.160   5.906   1.576
 8803TIP3    H126354   3.189   5.861   1.497
 8803TIP3    H226355   3.086   5.960   1.548
 8804TIP3   OH226356   7.964   0.831   1.747
 8804TIP3    H126357   7.975   0.741   1.779
 8804TIP3    H226358   7.882   0.830   1.699
 8805TIP3   OH226359   4.458   2.081   2.110
 8805TIP3    H126360   4.484   2.151   2.050
 8805TIP3    H226361   4.378   2.045   2.071
 8806TIP3   OH226362   0.187   3.812   2.608
 8806TIP3    H126363   0.229   3.746   2.662
 8806TIP3    H226364   0.128   3.763   2.551
 8807TIP3   OH226365   5.693   3.838   2.679
 8807TIP3    H126366   5.659   3.753   2.706
 8807TIP3    H226367   5.706   3.830   2.584
 8808TIP3   OH226368   5.415   7.360   4.899
 8808TIP3    H126369   5.431   7.448   4.933
 8808TIP3    H226370   5.456   7.302   4.963
 8809TIP3   OH226371   6.990   6.132   3.217
 8809TIP3    H126372   6.958   6.117   3.128
 8809TIP3    H226373   7.068   6.078   3.224
 8810TIP3   OH226374   7.021   5.366   5.027
 8810TIP3    H126375   7.088   5.367   4.959
 8810TIP3    H226376   6.990   5.275   5.028
 8811TIP3   OH226377   3.137   2.055   6.742
 8811TIP3    H126378   3.044   2.029   6.738
 8811TIP3    H226379   3.143   2.110   6.820
 8812TIP3   OH226380   6.899   0.305   1.519
 8812TIP3    H126381   6.938   0.309   1.606
 8812TIP3    H226382   6.829   0.240   1.527
 8813TIP3   OH226383   4.256   6.818   0.201
 8813TIP3    H126384   4.266   6.912   0.187
 8813TIP3    H226385   4.167   6.808   0.232
 8814TIP3   OH226386   6.081   2.565   3.882
 8814TIP3    H126387   6.069   2.636   3.819
 8814TIP3    H226388   6.108   2.609   3.963
 8815TIP3   OH226389   7.838   5.553   3.586
 8815TIP3    H126390   7.851   5.644   3.556
 8815TIP3    H226391   7.919   5.508   3.560
 8816TIP3   OH226392   3.838   5.013   3.155
 8816TIP3    H126393   3.922   5.053   3.175
 8816TIP3    H226394   3.786   5.025   3.234
 8817TIP3   OH226395   5.422   6.602   4.843
 8817TIP3    H126396   5.501   6.595   4.789
 8817TIP3    H226397   5.358   6.646   4.787
 8818TIP3   OH226398   0.621   6.085   3.786
 8818TIP3    H126399   0.566   6.049   3.717
 8818TIP3    H226400   0.625   6.016   3.852
 8819TIP3   OH226401   1.106   1.065   1.137
 8819TIP3    H126402   1.079   0.975   1.155
 8819TIP3    H226403   1.026   1.116   1.146
 8820TIP3   OH226404   5.718   2.891   5.572
 8820TIP3    H126405   5.635   2.851   5.600
 8820TIP3    H226406   5.707   2.903   5.477
 8821TIP3   OH226407   0.112   0.524   5.766
 8821TIP3    H126408   0.132   0.456   5.701
 8821TIP3    H226409   0.120   0.606   5.718
 8822TIP3   OH226410   4.922   4.902   0.044
 8822TIP3    H126411   4.869   4.934   0.117
 8822TIP3    H226412   4.999   4.959   0.044
 8823TIP3   OH226413   3.081   3.858   2.283
 8823TIP3    H126414   3.114   3.777   2.323
 8823TIP3    H226415   3.158   3.900   2.246
 8824TIP3   OH226416   6.132   3.699   4.316
 8824TIP3    H126417   6.103   3.704   4.408
 8824TIP3    H226418   6.208   3.758   4.312
 8825TIP3   OH226419   6.525   2.394   0.806
 8825TIP3    H126420   6.467   2.326   0.840
 8825TIP3    H226421   6.561   2.357   0.725
 8826TIP3   OH226422   6.334   1.425   5.397
 8826TIP3    H126423   6.377   1.409   5.481
 8826TIP3    H226424   6.363   1.353   5.341
 8827TIP3   OH226425   6.982   5.889   6.020
 8827TIP3    H126426   6.918   5.837   5.970
 8827TIP3    H226427   7.038   5.824   6.061
 8828TIP3   OH226428   0.274   1.728   1.773
 8828TIP3    H126429   0.181   1.749   1.775
 8828TIP3    H226430   0.287   1.667   1.846
 8829TIP3   OH226431   2.252   3.921   3.576
 8829TIP3    H126432   2.252   4.017   3.577
 8829TIP3    H226433   2.160   3.897   3.592
 8830TIP3   OH226434   6.469   1.066   2.434
 8830TIP3    H126435   6.475   1.053   2.340
 8830TIP3    H226436   6.551   1.108   2.459
 8831TIP3   OH226437   1.962   6.019   0.309
 8831TIP3    H126438   1.899   5.949   0.292
 8831TIP3    H226439   1.951   6.079   0.235
 8832TIP3   OH226440   1.498   5.655   1.798
 8832TIP3    H126441   1.532   5.744   1.785
 8832TIP3    H226442   1.575   5.600   1.807
 8833TIP3   OH226443   5.219   5.293   2.137
 8833TIP3    H126444   5.168   5.272   2.058
 8833TIP3    H226445   5.226   5.209   2.183
 8834TIP3   OH226446   6.948   0.290   3.315
 8834TIP3    H126447   6.886   0.272   3.386
 8834TIP3    H226448   6.996   0.368   3.343
 8835TIP3   OH226449   0.356   2.469   2.757
 8835TIP3    H126450   0.423   2.452   2.823
 8835TIP3    H226451   0.357   2.564   2.746
 8836TIP3   OH226452   0.315   0.490   2.523
 8836TIP3    H126453   0.359   0.539   2.593
 8836TIP3    H226454   0.305   0.554   2.452
 8837TIP3   OH226455   7.563   0.444   5.064
 8837TIP3    H126456   7.650   0.439   5.026
 8837TIP3    H226457   7.577   0.439   5.159
 8838TIP3   OH226458   4.987   6.415   4.861
 8838TIP3    H126459   5.041   6.406   4.940
 8838TIP3    H226460   4.988   6.329   4.821
 8839TIP3   OH226461   5.695   5.644   2.496
 8839TIP3    H126462   5.744   5.726   2.508
 8839TIP3    H226463   5.696   5.630   2.401
 8840TIP3   OH226464   7.905   0.665   5.998
 8840TIP3    H126465   7.846   0.698   6.066
 8840TIP3    H226466   7.977   0.625   6.046
 8841TIP3   OH226467   4.892   7.065   5.684
 8841TIP3    H126468   4.927   7.140   5.635
 8841TIP3    H226469   4.864   7.101   5.768
 8842TIP3   OH226470   5.299   0.176   1.872
 8842TIP3    H126471   5.317   0.238   1.943
 8842TIP3    H226472   5.217   0.206   1.834
 8843TIP3   OH226473   2.280   1.232   3.829
 8843TIP3    H126474   2.200   1.183   3.810
 8843TIP3    H226475   2.327   1.178   3.893
 8844TIP3   OH226476   0.385   6.708   3.878
 8844TIP3    H126477   0.430   6.735   3.959
 8844TIP3    H226478   0.295   6.739   3.889
 8845TIP3   OH226479   7.196   3.565   5.179
 8845TIP3    H126480   7.188   3.653   5.141
 8845TIP3    H226481   7.218   3.509   5.105
 8846TIP3   OH226482   4.354   1.127   6.707
 8846TIP3    H126483   4.330   1.190   6.774
 8846TIP3    H226484   4.446   1.107   6.724
 8847TIP3   OH226485   7.496   6.328   4.063
 8847TIP3    H126486   7.470   6.397   4.124
 8847TIP3    H226487   7.581   6.298   4.095
 8848TIP3   OH226488   3.792   4.423   2.948
 8848TIP3    H126489   3.845   4.406   2.871
 8848TIP3    H226490   3.844   4.482   3.002
 8849TIP3   OH226491   4.564   3.495   2.897
 8849TIP3    H126492   4.602   3.547   2.825
 8849TIP3    H226493   4.621   3.419   2.904
 8850TIP3   OH226494   2.891   0.835   3.235
 8850TIP3    H126495   2.815   0.826   3.293
 8850TIP3    H226496   2.924   0.923   3.252
 8851TIP3   OH226497   0.691   0.789   2.703
 8851TIP3    H126498   0.760   0.791   2.636
 8851TIP3    H226499   0.735   0.818   2.783
 8852TIP3   OH226500   3.430   0.086   3.435
 8852TIP3    H126501   3.454   0.126   3.351
 8852TIP3    H226502   3.378   0.010   3.412
 8853TIP3   OH226503   8.093   4.606   2.987
 8853TIP3    H126504   8.086   4.626   2.893
 8853TIP3    H226505   8.088   4.510   2.992
 8854TIP3   OH226506   2.495   7.307   3.646
 8854TIP3    H126507   2.504   7.280   3.737
 8854TIP3    H226508   2.401   7.303   3.630
 8855TIP3   OH226509   2.352   2.544   5.519
 8855TIP3    H126510   2.394   2.494   5.449
 8855TIP3    H226511   2.364   2.491   5.597
 8856TIP3   OH226512   5.956   3.944   2.442
 8856TIP3    H126513   6.032   3.975   2.492
 8856TIP3    H226514   5.994   3.906   2.363
 8857TIP3   OH226515   1.788   3.899   5.278
 8857TIP3    H126516   1.821   3.969   5.222
 8857TIP3    H226517   1.751   3.944   5.354
 8858TIP3   OH226518   1.637   1.483   3.300
 8858TIP3    H126519   1.658   1.567   3.258
 8858TIP3    H226520   1.662   1.417   3.235
 8859TIP3   OH226521   3.508   6.153   5.646
 8859TIP3    H126522   3.515   6.242   5.612
 8859TIP3    H226523   3.532   6.098   5.572
 8860TIP3   OH226524   0.813   3.479   3.641
 8860TIP3    H126525   0.773   3.466   3.726
 8860TIP3    H226526   0.741   3.470   3.579
 8861TIP3   OH226527   3.685   7.428   6.699
 8861TIP3    H126528   3.755   7.375   6.736
 8861TIP3    H226529   3.604   7.388   6.732
 8862TIP3   OH226530   7.777   6.826   5.835
 8862TIP3    H126531   7.864   6.786   5.825
 8862TIP3    H226532   7.716   6.753   5.828
 8863TIP3   OH226533   7.095   6.854   1.339
 8863TIP3    H126534   7.114   6.835   1.247
 8863TIP3    H226535   7.080   6.948   1.342
 8864TIP3   OH226536   3.171   7.285   1.652
 8864TIP3    H126537   3.190   7.370   1.693
 8864TIP3    H226538   3.247   7.231   1.673
 8865TIP3   OH226539   7.484   1.731   6.006
 8865TIP3    H126540   7.443   1.794   6.065
 8865TIP3    H226541   7.413   1.700   5.951
 8866TIP3   OH226542   4.345   4.065   6.160
 8866TIP3    H126543   4.270   4.013   6.187
 8866TIP3    H226544   4.415   4.001   6.147
 8867TIP3   OH226545   1.044   3.300   2.671
 8867TIP3    H126546   1.083   3.367   2.615
 8867TIP3    H226547   1.079   3.217   2.637
 8868TIP3   OH226548   2.005   6.214   0.794
 8868TIP3    H126549   2.030   6.267   0.719
 8868TIP3    H226550   2.074   6.148   0.801
 8869TIP3   OH226551   0.752   4.303   4.549
 8869TIP3    H126552   0.755   4.360   4.626
 8869TIP3    H226553   0.662   4.313   4.516
 8870TIP3   OH226554   3.699   7.001   0.607
 8870TIP3    H126555   3.685   6.969   0.518
 8870TIP3    H226556   3.715   7.095   0.596
 8871TIP3   OH226557   3.044   1.056   0.072
 8871TIP3    H126558   3.111   1.011   0.021
 8871TIP3    H226559   2.988   0.986   0.105
 8872TIP3   OH226560   0.223   1.570   3.179
 8872TIP3    H126561   0.139   1.592   3.219
 8872TIP3    H226562   0.232   1.633   3.108
 8873TIP3   OH226563   4.253   0.475   0.588
 8873TIP3    H126564   4.337   0.429   0.588
 8873TIP3    H226565   4.192   0.414   0.631
 8874TIP3   OH226566   7.468   3.067   2.107
 8874TIP3    H126567   7.484   2.993   2.048
 8874TIP3    H226568   7.459   3.143   2.048
 8875TIP3   OH226569   4.258   5.005   4.663
 8875TIP3    H126570   4.210   5.056   4.729
 8875TIP3    H226571   4.196   4.937   4.636
 8876TIP3   OH226572   0.056   1.244   1.080
 8876TIP3    H126573  -0.017   1.213   1.026
 8876TIP3    H226574   0.047   1.198   1.163
 8877TIP3   OH226575   5.701   1.732   4.593
 8877TIP3    H126576   5.703   1.811   4.647
 8877TIP3    H226577   5.721   1.661   4.654
 8878TIP3   OH226578   1.456   6.515   4.668
 8878TIP3    H126579   1.517   6.543   4.600
 8878TIP3    H226580   1.489   6.430   4.696
 8879TIP3   OH226581   3.448   1.940   2.522
 8879TIP3    H126582   3.487   1.961   2.437
 8879TIP3    H226583   3.469   1.848   2.536
 8880TIP3   OH226584   7.527   5.086   4.610
 8880TIP3    H126585   7.501   5.114   4.522
 8880TIP3    H226586   7.590   5.152   4.637
 8881TIP3   OH226587   4.022   7.597   1.503
 8881TIP3    H126588   4.098   7.643   1.469
 8881TIP3    H226589   3.954   7.612   1.437
 8882TIP3   OH226590   0.295   1.777   3.558
 8882TIP3    H126591   0.230   1.803   3.493
 8882TIP3    H226592   0.344   1.706   3.518
 8883TIP3   OH226593   4.637   4.118   1.176
 8883TIP3    H126594   4.545   4.141   1.192
 8883TIP3    H226595   4.647   4.123   1.081
 8884TIP3   OH226596   6.211   2.845   0.559
 8884TIP3    H126597   6.143   2.908   0.584
 8884TIP3    H226598   6.211   2.781   0.630
 8885TIP3   OH226599   3.341  -0.043   1.179
 8885TIP3    H126600   3.255  -0.007   1.159
 8885TIP3    H226601   3.390   0.030   1.216
 8886TIP3   OH226602   2.998   4.781   1.771
 8886TIP3    H126603   3.037   4.868   1.777
 8886TIP3    H226604   2.904   4.795   1.780
 8887TIP3   OH226605   2.722   5.167   4.357
 8887TIP3    H126606   2.631   5.194   4.372
 8887TIP3    H226607   2.716   5.072   4.345
 8888TIP3   OH226608   0.957   7.611   6.080
 8888TIP3    H126609   0.888   7.673   6.103
 8888TIP3    H226610   0.924   7.567   6.002
 8889TIP3   OH226611   7.067   2.798   4.778
 8889TIP3    H126612   7.015   2.731   4.821
 8889TIP3    H226613   7.080   2.865   4.845
 8890TIP3   OH226614   7.970   0.318   3.485
 8890TIP3    H126615   7.913   0.327   3.561
 8890TIP3    H226616   7.953   0.396   3.432
 8891TIP3   OH226617   0.511   7.585   3.687
 8891TIP3    H126618   0.534   7.539   3.768
 8891TIP3    H226619   0.554   7.536   3.618
 8892TIP3   OH226620   8.254   3.735   5.928
 8892TIP3    H126621   8.191   3.786   5.878
 8892TIP3    H226622   8.287   3.670   5.865
 8893TIP3   OH226623   6.239   4.848   6.634
 8893TIP3    H126624   6.203   4.927   6.593
 8893TIP3    H226625   6.323   4.834   6.590
 8894TIP3   OH226626   4.977   3.236   4.103
 8894TIP3    H126627   5.024   3.157   4.131
 8894TIP3    H226628   4.906   3.203   4.047
 8895TIP3   OH226629   7.929   0.167   0.700
 8895TIP3    H126630   7.944   0.201   0.789
 8895TIP3    H226631   7.995   0.211   0.646
 8896TIP3   OH226632   0.001   3.923   6.108
 8896TIP3    H126633  -0.003   3.845   6.053
 8896TIP3    H226634   0.034   3.992   6.049
 8897TIP3   OH226635   3.174   2.554   6.070
 8897TIP3    H126636   3.105   2.560   6.004
 8897TIP3    H226637   3.151   2.477   6.122
 8898TIP3   OH226638   2.136   3.665   0.521
 8898TIP3    H126639   2.169   3.632   0.605
 8898TIP3    H226640   2.209   3.715   0.485
 8899TIP3   OH226641   7.717   2.245   6.266
 8899TIP3    H126642   7.747   2.304   6.197
 8899TIP3    H226643   7.785   2.251   6.334
 8900TIP3   OH226644   4.921   2.603   2.802
 8900TIP3    H126645   4.841   2.567   2.765
 8900TIP3    H226646   4.959   2.530   2.852
 8901TIP3   OH226647   5.475   0.975   4.655
 8901TIP3    H126648   5.550   0.944   4.604
 8901TIP3    H226649   5.494   1.067   4.672
 8902TIP3   OH226650   3.124   0.177   5.134
 8902TIP3    H126651   3.189   0.136   5.191
 8902TIP3    H226652   3.161   0.169   5.046
 8903TIP3   OH226653   1.237   4.621   4.209
 8903TIP3    H126654   1.301   4.689   4.190
 8903TIP3    H226655   1.177   4.661   4.271
 8904TIP3   OH226656   2.694   1.124   1.662
 8904TIP3    H126657   2.746   1.125   1.742
 8904TIP3    H226658   2.759   1.113   1.592
 8905TIP3   OH226659   3.358   5.236   3.365
 8905TIP3    H126660   3.387   5.317   3.323
 8905TIP3    H226661   3.340   5.261   3.455
 8906TIP3   OH226662   2.637   5.809   6.442
 8906TIP3    H126663   2.558   5.862   6.430
 8906TIP3    H226664   2.708   5.866   6.414
 8907TIP3   OH226665   7.455   5.605   0.667
 8907TIP3    H126666   7.498   5.627   0.584
 8907TIP3    H226667   7.425   5.514   0.654
 8908TIP3   OH226668   1.498   0.319   2.186
 8908TIP3    H126669   1.547   0.302   2.266
 8908TIP3    H226670   1.408   0.298   2.208
 8909TIP3   OH226671   0.969   2.971   2.237
 8909TIP3    H126672   0.934   2.885   2.217
 8909TIP3    H226673   0.986   3.011   2.152
 8910TIP3   OH226674   2.453   6.161   0.343
 8910TIP3    H126675   2.467   6.249   0.379
 8910TIP3    H226676   2.377   6.171   0.286
 8911TIP3   OH226677   3.072   2.406   3.587
 8911TIP3    H126678   3.024   2.388   3.506
 8911TIP3    H226679   3.156   2.440   3.558
 8912TIP3   OH226680   3.230   0.577   6.227
 8912TIP3    H126681   3.216   0.537   6.312
 8912TIP3    H226682   3.179   0.659   6.230
 8913TIP3   OH226683   3.609   2.933   4.342
 8913TIP3    H126684   3.623   2.980   4.260
 8913TIP3    H226685   3.517   2.906   4.339
 8914TIP3   OH226686   0.877   6.255   0.285
 8914TIP3    H126687   0.908   6.281   0.372
 8914TIP3    H226688   0.940   6.295   0.225
 8915TIP3   OH226689   7.710   1.246   5.563
 8915TIP3    H126690   7.758   1.289   5.634
 8915TIP3    H226691   7.777   1.225   5.498
 8916TIP3   OH226692   2.985   1.416   6.283
 8916TIP3    H126693   3.024   1.439   6.199
 8916TIP3    H226694   2.900   1.379   6.261
 8917TIP3   OH226695   1.445   2.113   1.932
 8917TIP3    H126696   1.392   2.064   1.869
 8917TIP3    H226697   1.430   2.068   2.015
 8918TIP3   OH226698   6.189   2.234   2.185
 8918TIP3    H126699   6.200   2.329   2.177
 8918TIP3    H226700   6.115   2.214   2.127
 8919TIP3   OH226701   3.488   4.762   5.390
 8919TIP3    H126702   3.546   4.738   5.461
 8919TIP3    H226703   3.449   4.680   5.361
 8920TIP3   OH226704   0.819   4.941   6.169
 8920TIP3    H126705   0.759   4.884   6.121
 8920TIP3    H226706   0.781   4.948   6.257
 8921TIP3   OH226707   5.790   5.757   4.099
 8921TIP3    H126708   5.739   5.754   4.180
 8921TIP3    H226709   5.876   5.791   4.126
 8922TIP3   OH226710   4.601   1.760   3.299
 8922TIP3    H126711   4.550   1.701   3.243
 8922TIP3    H226712   4.602   1.843   3.252
 8923TIP3   OH226713   2.134   1.493   6.384
 8923TIP3    H126714   2.204   1.540   6.428
 8923TIP3    H226715   2.110   1.422   6.444
 8924TIP3   OH226716   2.997   4.785   2.061
 8924TIP3    H126717   3.066   4.729   2.025
 8924TIP3    H226718   2.916   4.738   2.043
 8925TIP3   OH226719   5.412   1.614   5.271
 8925TIP3    H126720   5.337   1.670   5.290
 8925TIP3    H226721   5.462   1.612   5.352
 8926TIP3   OH226722   0.110   3.774   4.503
 8926TIP3    H126723   0.018   3.783   4.528
 8926TIP3    H226724   0.158   3.775   4.586
 8927TIP3   OH226725   6.211   3.897   4.966
 8927TIP3    H126726   6.126   3.933   4.993
 8927TIP3    H226727   6.269   3.972   4.959
 8928TIP3   OH226728   4.653   3.639   2.220
 8928TIP3    H126729   4.727   3.598   2.176
 8928TIP3    H226730   4.627   3.577   2.288
 8929TIP3   OH226731   2.778   4.264   1.407
 8929TIP3    H126732   2.701   4.215   1.379
 8929TIP3    H226733   2.852   4.206   1.389
 8930TIP3   OH226734   7.453   6.147   5.537
 8930TIP3    H126735   7.448   6.052   5.527
 8930TIP3    H226736   7.517   6.175   5.472
 8931TIP3   OH226737   2.277   6.778   1.242
 8931TIP3    H126738   2.342   6.828   1.292
 8931TIP3    H226739   2.316   6.769   1.155
 8932TIP3   OH226740   4.747   0.278   5.382
 8932TIP3    H126741   4.811   0.307   5.317
 8932TIP3    H226742   4.797   0.221   5.441
 8933TIP3   OH226743   4.317   4.181   2.602
 8933TIP3    H126744   4.303   4.167   2.696
 8933TIP3    H226745   4.407   4.153   2.588
 8934TIP3   OH226746   5.822   6.604   2.225
 8934TIP3    H126747   5.841   6.525   2.276
 8934TIP3    H226748   5.739   6.636   2.260
 8935TIP3   OH226749   5.286   2.189   4.452
 8935TIP3    H126750   5.212   2.175   4.393
 8935TIP3    H226751   5.272   2.127   4.523
 8936TIP3   OH226752   5.404   2.214   2.609
 8936TIP3    H126753   5.376   2.215   2.517
 8936TIP3    H226754   5.469   2.144   2.614
 8937TIP3   OH226755   5.361   5.682   2.401
 8937TIP3    H126756   5.398   5.620   2.338
 8937TIP3    H226757   5.437   5.727   2.437
 8938TIP3   OH226758   6.769   6.229   4.110
 8938TIP3    H126759   6.780   6.319   4.141
 8938TIP3    H226760   6.710   6.237   4.034
 8939TIP3   OH226761   2.864   4.786   6.221
 8939TIP3    H126762   2.900   4.701   6.248
 8939TIP3    H226763   2.779   4.766   6.183
 8940TIP3   OH226764   1.971   4.654   5.921
 8940TIP3    H126765   2.026   4.592   5.969
 8940TIP3    H226766   1.922   4.601   5.859
 8941TIP3   OH226767   4.243   1.161   0.611
 8941TIP3    H126768   4.166   1.115   0.645
 8941TIP3    H226769   4.267   1.113   0.532
 8942TIP3   OH226770   6.952   1.884   1.219
 8942TIP3    H126771   6.927   1.863   1.308
 8942TIP3    H226772   7.029   1.941   1.228
 8943TIP3   OH226773   5.606   4.776   1.442
 8943TIP3    H126774   5.567   4.832   1.375
 8943TIP3    H226775   5.549   4.700   1.447
 8944TIP3   OH226776   6.528   2.847   3.262
 8944TIP3    H126777   6.443   2.889   3.253
 8944TIP3    H226778   6.568   2.854   3.175
 8945TIP3   OH226779   0.756   3.138   3.938
 8945TIP3    H126780   0.689   3.134   4.006
 8945TIP3    H226781   0.776   3.046   3.919
 8946TIP3   OH226782   5.183   4.062   6.381
 8946TIP3    H126783   5.235   4.134   6.346
 8946TIP3    H226784   5.187   3.994   6.314
 8947TIP3   OH226785   1.507   2.227   4.782
 8947TIP3    H126786   1.576   2.272   4.734
 8947TIP3    H226787   1.549   2.148   4.816
 8948TIP3   OH226788   7.408   6.287   1.488
 8948TIP3    H126789   7.400   6.241   1.572
 8948TIP3    H226790   7.501   6.278   1.465
 8949TIP3   OH226791   1.195   5.421   3.780
 8949TIP3    H126792   1.194   5.369   3.699
 8949TIP3    H226793   1.205   5.511   3.751
 8950TIP3   OH226794   5.796   4.388   6.532
 8950TIP3    H126795   5.804   4.346   6.446
 8950TIP3    H226796   5.715   4.438   6.527
 8951TIP3   OH226797   0.214   6.210   1.405
 8951TIP3    H126798   0.272   6.163   1.344
 8951TIP3    H226799   0.268   6.281   1.439
 8952TIP3   OH226800   3.168   2.944   1.407
 8952TIP3    H126801   3.152   2.962   1.500
 8952TIP3    H226802   3.168   3.031   1.366
 8953TIP3   OH226803   3.447   2.082   1.810
 8953TIP3    H126804   3.540   2.104   1.821
 8953TIP3    H226805   3.445   1.986   1.807
 8954TIP3   OH226806   7.435   4.892   2.458
 8954TIP3    H126807   7.472   4.955   2.520
 8954TIP3    H226808   7.399   4.822   2.514
 8955TIP3   OH226809   1.433   5.423   2.307
 8955TIP3    H126810   1.527   5.439   2.319
 8955TIP3    H226811   1.398   5.416   2.396
 8956TIP3   OH226812   5.959   1.264   3.477
 8956TIP3    H126813   5.975   1.172   3.499
 8956TIP3    H226814   5.906   1.261   3.398
 8957TIP3   OH226815   4.437   6.175   0.205
 8957TIP3    H126816   4.362   6.218   0.163
 8957TIP3    H226817   4.398   6.112   0.266
 8958TIP3   OH226818   5.826   2.265   4.119
 8958TIP3    H126819   5.847   2.174   4.096
 8958TIP3    H226820   5.769   2.257   4.196
 8959TIP3   OH226821   8.117   0.310   0.567
 8959TIP3    H126822   8.171   0.253   0.513
 8959TIP3    H226823   8.173   0.386   0.585
 8960TIP3   OH226824   4.220   3.016   4.903
 8960TIP3    H126825   4.143   2.964   4.879
 8960TIP3    H226826   4.241   2.987   4.992
 8961TIP3   OH226827   1.864   2.812   5.358
 8961TIP3    H126828   1.837   2.879   5.296
 8961TIP3    H226829   1.787   2.798   5.413
 8962TIP3   OH226830   1.313   2.358   3.287
 8962TIP3    H126831   1.353   2.293   3.229
 8962TIP3    H226832   1.345   2.442   3.253
 8963TIP3   OH226833   6.482   5.344   4.784
 8963TIP3    H126834   6.558   5.309   4.737
 8963TIP3    H226835   6.439   5.267   4.821
 8964TIP3   OH226836   4.930   2.357   0.746
 8964TIP3    H126837   4.974   2.317   0.670
 8964TIP3    H226838   4.978   2.438   0.762
 8965TIP3   OH226839   5.272   5.605   3.618
 8965TIP3    H126840   5.231   5.682   3.656
 8965TIP3    H226841   5.347   5.639   3.569
 8966TIP3   OH226842   2.263   4.879   1.820
 8966TIP3    H126843   2.269   4.845   1.909
 8966TIP3    H226844   2.299   4.808   1.765
 8967TIP3   OH226845   6.338   2.205   6.365
 8967TIP3    H126846   6.385   2.281   6.400
 8967TIP3    H226847   6.390   2.178   6.289
 8968TIP3   OH226848   7.464   3.292   5.466
 8968TIP3    H126849   7.514   3.221   5.506
 8968TIP3    H226850   7.411   3.327   5.538
 8969TIP3   OH226851   2.037   4.096   6.537
 8969TIP3    H126852   2.034   4.091   6.442
 8969TIP3    H226853   2.071   4.184   6.556
 8970TIP3   OH226854   3.217   4.132   3.007
 8970TIP3    H126855   3.192   4.170   3.091
 8970TIP3    H226856   3.209   4.205   2.945
 8971TIP3   OH226857   7.063   3.136   5.338
 8971TIP3    H126858   7.032   3.221   5.370
 8971TIP3    H226859   7.137   3.158   5.282
 8972TIP3   OH226860   0.915   7.585   3.705
 8972TIP3    H126861   0.833   7.571   3.658
 8972TIP3    H226862   0.956   7.498   3.708
 8973TIP3   OH226863   1.354   7.123   0.016
 8973TIP3    H126864   1.271   7.134   0.062
 8973TIP3    H226865   1.368   7.029   0.012
 8974TIP3   OH226866   0.956  -0.010   1.542
 8974TIP3    H126867   0.881   0.049   1.550
 8974TIP3    H226868   0.941  -0.076   1.609
 8975TIP3   OH226869   5.498   4.985   3.828
 8975TIP3    H126870   5.445   5.013   3.753
 8975TIP3    H226871   5.514   5.066   3.877
 8976TIP3   OH226872   4.365   5.741   4.130
 8976TIP3    H126873   4.399   5.769   4.215
 8976TIP3    H226874   4.273   5.768   4.130
 8977TIP3   OH226875   0.866   0.986   2.123
 8977TIP3    H126876   0.892   0.894   2.130
 8977TIP3    H226877   0.832   0.995   2.034
 8978TIP3   OH226878   6.899   4.681   5.202
 8978TIP3    H126879   6.923   4.599   5.246
 8978TIP3    H226880   6.969   4.696   5.139
 8979TIP3   OH226881   2.388   4.401   6.517
 8979TIP3    H126882   2.478   4.405   6.485
 8979TIP3    H226883   2.385   4.465   6.588
 8980TIP3   OH226884   4.066   5.033   6.267
 8980TIP3    H126885   4.092   4.973   6.197
 8980TIP3    H226886   4.123   5.011   6.340
 8981TIP3   OH226887   0.377   4.038   4.708
 8981TIP3    H126888   0.438   3.982   4.756
 8981TIP3    H226889   0.375   4.001   4.620
 8982TIP3   OH226890   7.539   0.040   5.313
 8982TIP3    H126891   7.605   0.025   5.381
 8982TIP3    H226892   7.467   0.082   5.359
 8983TIP3   OH226893   0.217   6.087   0.164
 8983TIP3    H126894   0.174   6.097   0.079
 8983TIP3    H226895   0.227   6.176   0.197
 8984TIP3   OH226896   3.398   2.447   0.445
 8984TIP3    H126897   3.401   2.537   0.412
 8984TIP3    H226898   3.320   2.443   0.500
 8985TIP3   OH226899   5.140   7.761   4.753
 8985TIP3    H126900   5.087   7.686   4.726
 8985TIP3    H226901   5.104   7.835   4.704
 8986TIP3   OH226902   1.074   6.412   6.285
 8986TIP3    H126903   1.089   6.454   6.370
 8986TIP3    H226904   1.096   6.479   6.220
 8987TIP3   OH226905   0.399   3.658   1.127
 8987TIP3    H126906   0.482   3.608   1.127
 8987TIP3    H226907   0.424   3.745   1.157
 8988TIP3   OH226908   6.784   5.902   1.038
 8988TIP3    H126909   6.710   5.951   1.005
 8988TIP3    H226910   6.816   5.852   0.963
 8989TIP3   OH226911   5.468   1.782   4.841
 8989TIP3    H126912   5.378   1.760   4.815
 8989TIP3    H226913   5.484   1.869   4.805
 8990TIP3   OH226914   6.848   1.160   0.215
 8990TIP3    H126915   6.911   1.233   0.215
 8990TIP3    H226916   6.816   1.155   0.305
 8991TIP3   OH226917   7.448   5.701   6.315
 8991TIP3    H126918   7.420   5.612   6.337
 8991TIP3    H226919   7.543   5.697   6.316
 8992TIP3   OH226920   0.625   2.986   1.471
 8992TIP3    H126921   0.691   2.994   1.541
 8992TIP3    H226922   0.674   2.949   1.397
 8993TIP3   OH226923   6.384   4.016   2.282
 8993TIP3    H126924   6.345   4.029   2.369
 8993TIP3    H226925   6.315   4.040   2.221
 8994TIP3   OH226926   1.352   6.717   4.226
 8994TIP3    H126927   1.396   6.633   4.237
 8994TIP3    H226928   1.280   6.700   4.165
 8995TIP3   OH226929   1.175   6.623   0.899
 8995TIP3    H126930   1.228   6.544   0.893
 8995TIP3    H226931   1.092   6.594   0.936
 8996TIP3   OH226932   7.092   3.774   1.973
 8996TIP3    H126933   7.173   3.725   1.959
 8996TIP3    H226934   7.027   3.708   1.997
 8997TIP3   OH226935   6.446   4.156   3.871
 8997TIP3    H126936   6.373   4.097   3.856
 8997TIP3    H226937   6.443   4.174   3.965
 8998TIP3   OH226938   3.177   5.961   2.956
 8998TIP3    H126939   3.083   5.943   2.953
 8998TIP3    H226940   3.212   5.900   3.021
 8999TIP3   OH226941   0.546   3.102   4.162
 8999TIP3    H126942   0.477   3.094   4.227
 8999TIP3    H226943   0.595   3.020   4.169
 9000TIP3   OH226944   3.455   2.178   0.779
 9000TIP3    H126945   3.467   2.264   0.820
 9000TIP3    H226946   3.362   2.177   0.754
 9001TIP3   OH226947   1.099   4.160   5.031
 9001TIP3    H126948   1.041   4.187   5.102
 9001TIP3    H226949   1.104   4.065   5.039
 9002TIP3   OH226950   5.306   6.523   3.874
 9002TIP3    H126951   5.267   6.460   3.814
 9002TIP3    H226952   5.256   6.604   3.861
 9003TIP3   OH226953   3.051   7.610   4.684
 9003TIP3    H126954   2.997   7.570   4.616
 9003TIP3    H226955   3.013   7.578   4.766
 9004TIP3   OH226956   6.801   2.860   3.406
 9004TIP3    H126957   6.860   2.814   3.466
 9004TIP3    H226958   6.730   2.798   3.389
 9005TIP3   OH226959   6.766   7.826   2.431
 9005TIP3    H126960   6.684   7.815   2.480
 9005TIP3    H226961   6.771   7.747   2.377
 9006TIP3   OH226962   4.948   3.702   2.005
 9006TIP3    H126963   4.885   3.771   1.986
 9006TIP3    H226964   5.033   3.746   2.004
 9007TIP3   OH226965   7.682   5.396   2.445
 9007TIP3    H126966   7.727   5.412   2.362
 9007TIP3    H226967   7.753   5.387   2.509
 9008TIP3   OH226968   2.768   5.559   5.907
 9008TIP3    H126969   2.796   5.635   5.855
 9008TIP3    H226970   2.844   5.538   5.961
 9009TIP3   OH226971   6.346   5.431   1.147
 9009TIP3    H126972   6.362   5.413   1.054
 9009TIP3    H226973   6.255   5.404   1.161
 9010TIP3   OH226974   5.358   1.790   0.565
 9010TIP3    H126975   5.264   1.800   0.558
 9010TIP3    H226976   5.379   1.716   0.508
 9011TIP3   OH226977   2.215   1.340   4.719
 9011TIP3    H126978   2.233   1.296   4.803
 9011TIP3    H226979   2.265   1.421   4.723
 9012TIP3   OH226980   5.757   5.062   2.744
 9012TIP3    H126981   5.812   5.120   2.797
 9012TIP3    H226982   5.785   4.974   2.768
 9013TIP3   OH226983   4.418   6.476   2.424
 9013TIP3    H126984   4.362   6.398   2.427
 9013TIP3    H226985   4.359   6.546   2.394
 9014TIP3   OH226986   7.854   2.620   2.516
 9014TIP3    H126987   7.781   2.644   2.459
 9014TIP3    H226988   7.821   2.546   2.568
 9015TIP3   OH226989   2.299   3.398   1.419
 9015TIP3    H126990   2.350   3.397   1.500
 9015TIP3    H226991   2.364   3.411   1.350
 9016TIP3   OH226992   1.434   6.596   0.687
 9016TIP3    H126993   1.388   6.535   0.744
 9016TIP3    H226994   1.482   6.539   0.626
 9017TIP3   OH226995   6.767   1.561   5.672
 9017TIP3    H126996   6.829   1.512   5.617
 9017TIP3    H226997   6.727   1.495   5.729
 9018TIP3   OH226998   7.800   2.155   2.936
 9018TIP3    H126999   7.808   2.177   2.843
 9018TIP3    H227000   7.753   2.072   2.937
 9019TIP3   OH227001   4.423   2.419   3.664
 9019TIP3    H127002   4.342   2.382   3.700
 9019TIP3    H227003   4.421   2.396   3.571
 9020TIP3   OH227004   5.776   1.264   3.277
 9020TIP3    H127005   5.812   1.230   3.194
 9020TIP3    H227006   5.736   1.347   3.253
 9021TIP3   OH227007   5.808   4.692   0.188
 9021TIP3    H127008   5.799   4.669   0.280
 9021TIP3    H227009   5.785   4.785   0.184
 9022TIP3   OH227010   4.772   2.849   0.379
 9022TIP3    H127011   4.837   2.794   0.423
 9022TIP3    H227012   4.701   2.789   0.356
 9023TIP3   OH227013   0.536   6.040   5.861
 9023TIP3    H127014   0.472   6.022   5.793
 9023TIP3    H227015   0.549   6.135   5.857
 9024TIP3   OH227016   2.487   2.050   3.086
 9024TIP3    H127017   2.506   2.039   2.993
 9024TIP3    H227018   2.507   2.142   3.104
 9025TIP3   OH227019   4.332   6.046   4.891
 9025TIP3    H127020   4.327   5.950   4.888
 9025TIP3    H227021   4.310   6.069   4.981
 9026TIP3   OH227022   4.307   5.627   0.618
 9026TIP3    H127023   4.316   5.592   0.530
 9026TIP3    H227024   4.279   5.553   0.671
 9027TIP3   OH227025   6.199   4.780   4.061
 9027TIP3    H127026   6.256   4.737   3.997
 9027TIP3    H227027   6.259   4.808   4.131
 9028TIP3   OH227028   1.755   3.455   0.260
 9028TIP3    H127029   1.663   3.449   0.236
 9028TIP3    H227030   1.795   3.508   0.191
 9029TIP3   OH227031   5.675   2.989   5.305
 9029TIP3    H127032   5.646   3.078   5.329
 9029TIP3    H227033   5.765   3.001   5.275
 9030TIP3   OH227034   2.973   2.238   2.332
 9030TIP3    H127035   2.912   2.164   2.329
 9030TIP3    H227036   2.962   2.274   2.420
 9031TIP3   OH227037   5.381   7.047   2.911
 9031TIP3    H127038   5.436   6.968   2.906
 9031TIP3    H227039   5.292   7.015   2.897
 9032TIP3   OH227040   0.344   4.962   6.309
 9032TIP3    H127041   0.327   4.902   6.381
 9032TIP3    H227042   0.396   4.911   6.247
 9033TIP3   OH227043   1.635   7.254   4.833
 9033TIP3    H127044   1.631   7.219   4.922
 9033TIP3    H227045   1.727   7.279   4.821
 9034TIP3   OH227046   0.923   0.107   1.120
 9034TIP3    H127047   1.011   0.092   1.153
 9034TIP3    H227048   0.917   0.202   1.110
 9035TIP3   OH227049   0.503   4.785   4.579
 9035TIP3    H127050   0.567   4.854   4.590
 9035TIP3    H227051   0.523   4.748   4.493
 9036TIP3   OH227052   0.406   4.553   6.262
 9036TIP3    H127053   0.336   4.537   6.199
 9036TIP3    H227054   0.486   4.550   6.209
 9037TIP3   OH227055   1.368   1.885   6.018
 9037TIP3    H127056   1.353   1.979   6.010
 9037TIP3    H227057   1.441   1.878   6.080
 9038TIP3   OH227058   1.881   1.141   2.604
 9038TIP3    H127059   1.823   1.075   2.642
 9038TIP3    H227060   1.907   1.196   2.679
 9039TIP3   OH227061   1.692   3.989   5.540
 9039TIP3    H127062   1.676   4.050   5.612
 9039TIP3    H227063   1.614   3.996   5.485
 9040TIP3   OH227064   0.534   4.055   0.331
 9040TIP3    H127065   0.611   4.005   0.355
 9040TIP3    H227066   0.497   4.009   0.256
 9041TIP3   OH227067   2.585   5.401   0.272
 9041TIP3    H127068   2.536   5.413   0.353
 9041TIP3    H227069   2.667   5.361   0.299
 9042TIP3   OH227070   0.572   0.202   2.490
 9042TIP3    H127071   0.592   0.130   2.549
 9042TIP3    H227072   0.481   0.225   2.510
 9043TIP3   OH227073   4.236   7.720   6.537
 9043TIP3    H127074   4.191   7.793   6.578
 9043TIP3    H227075   4.172   7.685   6.474
 9044TIP3   OH227076   7.992   3.741   5.080
 9044TIP3    H127077   7.969   3.649   5.091
 9044TIP3    H227078   7.935   3.771   5.009
 9045TIP3   OH227079   3.562   5.627   1.288
 9045TIP3    H127080   3.550   5.646   1.381
 9045TIP3    H227081   3.477   5.594   1.259
 9046TIP3   OH227082   7.748   4.989   1.856
 9046TIP3    H127083   7.829   5.019   1.898
 9046TIP3    H227084   7.733   4.901   1.892
 9047TIP3   OH227085   0.833   6.132   6.154
 9047TIP3    H127086   0.806   6.080   6.078
 9047TIP3    H227087   0.760   6.191   6.170
 9048TIP3   OH227088   0.531   6.361   0.057
 9048TIP3    H127089   0.517   6.314  -0.025
 9048TIP3    H227090   0.577   6.298   0.113
 9049TIP3   OH227091   2.674   3.238   0.015
 9049TIP3    H127092   2.767   3.234   0.038
 9049TIP3    H227093   2.666   3.183  -0.063
 9050TIP3   OH227094   7.995   2.310   6.347
 9050TIP3    H127095   8.025   2.258   6.422
 9050TIP3    H227096   8.073   2.356   6.318
 9051TIP3   OH227097   6.303   2.771   3.670
 9051TIP3    H127098   6.277   2.701   3.611
 9051TIP3    H227099   6.352   2.832   3.615
 9052TIP3   OH227100   3.732   6.737   2.458
 9052TIP3    H127101   3.670   6.721   2.386
 9052TIP3    H227102   3.799   6.793   2.419
 9053TIP3   OH227103   3.468   6.369   2.797
 9053TIP3    H127104   3.465   6.330   2.710
 9053TIP3    H227105   3.388   6.340   2.840
 9054TIP3   OH227106   1.366   6.585  -0.020
 9054TIP3    H127107   1.362   6.569   0.074
 9054TIP3    H227108   1.439   6.531  -0.051
 9055TIP3   OH227109   1.680   1.735   6.212
 9055TIP3    H127110   1.730   1.662   6.250
 9055TIP3    H227111   1.605   1.692   6.170
 9056TIP3   OH227112   2.745   2.578   3.818
 9056TIP3    H127113   2.820   2.526   3.848
 9056TIP3    H227114   2.685   2.578   3.892
 9057TIP3   OH227115   5.982   3.942   6.727
 9057TIP3    H127116   5.892   3.939   6.759
 9057TIP3    H227117   5.976   3.991   6.645
 9058TIP3   OH227118   8.210   2.492   0.177
 9058TIP3    H127119   8.244   2.488   0.266
 9058TIP3    H227120   8.160   2.574   0.174
 9059TIP3   OH227121   7.509   6.703   1.203
 9059TIP3    H127122   7.460   6.783   1.221
 9059TIP3    H227123   7.442   6.637   1.185
 9060TIP3   OH227124   2.207   1.434   5.575
 9060TIP3    H127125   2.262   1.460   5.501
 9060TIP3    H227126   2.264   1.377   5.628
 9061TIP3   OH227127   2.164   7.822   2.848
 9061TIP3    H127128   2.098   7.889   2.826
 9061TIP3    H227129   2.113   7.747   2.879
 9062TIP3   OH227130   4.091   4.487   0.044
 9062TIP3    H127131   4.014   4.527   0.004
 9062TIP3    H227132   4.159   4.495  -0.024
 9063TIP3   OH227133   6.985   3.610   4.413
 9063TIP3    H127134   6.989   3.516   4.398
 9063TIP3    H227135   6.976   3.648   4.326
 9064TIP3   OH227136   3.716   6.018   5.787
 9064TIP3    H127137   3.648   6.085   5.778
 9064TIP3    H227138   3.669   5.935   5.780
 9065TIP3   OH227139   2.969   3.793   2.643
 9065TIP3    H127140   2.916   3.753   2.712
 9065TIP3    H227141   3.041   3.835   2.689
 9066TIP3   OH227142   3.980   1.282   1.375
 9066TIP3    H127143   4.028   1.240   1.304
 9066TIP3    H227144   3.924   1.347   1.332
 9067TIP3   OH227145   7.160   0.567   5.117
 9067TIP3    H127146   7.236   0.553   5.061
 9067TIP3    H227147   7.118   0.645   5.081
 9068TIP3   OH227148   3.409   7.167   3.431
 9068TIP3    H127149   3.348   7.137   3.363
 9068TIP3    H227150   3.442   7.250   3.398
 9069TIP3   OH227151   4.133   7.495   5.815
 9069TIP3    H127152   4.097   7.454   5.894
 9069TIP3    H227153   4.135   7.588   5.834
 9070TIP3   OH227154   0.677   5.013   3.737
 9070TIP3    H127155   0.766   5.022   3.771
 9070TIP3    H227156   0.656   4.920   3.749
 9071TIP3   OH227157   6.114   0.902   4.137
 9071TIP3    H127158   6.179   0.863   4.079
 9071TIP3    H227159   6.137   0.870   4.225
 9072TIP3   OH227160   7.344   0.307   6.371
 9072TIP3    H127161   7.358   0.280   6.462
 9072TIP3    H227162   7.311   0.228   6.328
 9073TIP3   OH227163   2.337   5.475   1.556
 9073TIP3    H127164   2.266   5.535   1.532
 9073TIP3    H227165   2.362   5.502   1.644
 9074TIP3   OH227166   6.354   4.564   0.775
 9074TIP3    H127167   6.306   4.497   0.728
 9074TIP3    H227168   6.442   4.563   0.737
 9075TIP3   OH227169   3.843   4.404   6.070
 9075TIP3    H127170   3.847   4.499   6.056
 9075TIP3    H227171   3.935   4.378   6.079
 9076TIP3   OH227172   1.733   3.818   5.974
 9076TIP3    H127173   1.707   3.885   6.037
 9076TIP3    H227174   1.795   3.862   5.916
 9077TIP3   OH227175   6.370   4.585   0.491
 9077TIP3    H127176   6.432   4.594   0.419
 9077TIP3    H227177   6.284   4.598   0.451
 9078TIP3   OH227178   6.393   0.726   5.762
 9078TIP3    H127179   6.369   0.813   5.797
 9078TIP3    H227180   6.367   0.665   5.831
 9079TIP3   OH227181   7.340   5.955   3.455
 9079TIP3    H127182   7.360   6.024   3.393
 9079TIP3    H227183   7.390   5.879   3.424
 9080TIP3   OH227184   7.326   6.130   0.839
 9080TIP3    H127185   7.285   6.051   0.805
 9080TIP3    H227186   7.419   6.119   0.821
 9081TIP3   OH227187   6.498   4.893   1.201
 9081TIP3    H127188   6.577   4.906   1.253
 9081TIP3    H227189   6.530   4.863   1.116
 9082TIP3   OH227190   4.721   2.706   6.172
 9082TIP3    H127191   4.672   2.625   6.183
 9082TIP3    H227192   4.710   2.752   6.256
 9083TIP3   OH227193   6.615   0.758   6.233
 9083TIP3    H127194   6.636   0.681   6.180
 9083TIP3    H227195   6.608   0.829   6.170
 9084TIP3   OH227196   3.445   2.300   1.233
 9084TIP3    H127197   3.518   2.323   1.176
 9084TIP3    H227198   3.416   2.214   1.202
 9085TIP3   OH227199   7.923   1.346   2.768
 9085TIP3    H127200   7.903   1.430   2.727
 9085TIP3    H227201   7.914   1.362   2.861
 9086TIP3   OH227202   4.249   5.776   4.970
 9086TIP3    H127203   4.290   5.697   4.936
 9086TIP3    H227204   4.285   5.786   5.059
 9087TIP3   OH227205   4.295   0.992   5.585
 9087TIP3    H127206   4.277   0.936   5.661
 9087TIP3    H227207   4.212   1.037   5.569
 9088TIP3   OH227208   2.681   7.020   2.993
 9088TIP3    H127209   2.773   7.008   3.014
 9088TIP3    H227210   2.645   7.064   3.070
 9089TIP3   OH227211   7.881   6.085   6.743
 9089TIP3    H127212   7.822   6.019   6.780
 9089TIP3    H227213   7.864   6.164   6.795
 9090TIP3   OH227214   3.810   6.875   4.328
 9090TIP3    H127215   3.891   6.867   4.379
 9090TIP3    H227216   3.742   6.891   4.393
 9091TIP3   OH227217   8.147   2.368   0.759
 9091TIP3    H127218   8.158   2.453   0.801
 9091TIP3    H227219   8.233   2.327   0.764
 9092TIP3   OH227220   5.469   1.203   5.704
 9092TIP3    H127221   5.378   1.222   5.726
 9092TIP3    H227222   5.512   1.289   5.708
 9093TIP3   OH227223   4.118   5.221   2.791
 9093TIP3    H127224   4.057   5.260   2.853
 9093TIP3    H227225   4.154   5.295   2.743
 9094TIP3   OH227226   6.289   4.964   2.664
 9094TIP3    H127227   6.355   4.896   2.668
 9094TIP3    H227228   6.274   4.977   2.570
 9095TIP3   OH227229   7.204   0.073   5.246
 9095TIP3    H127230   7.249   0.121   5.316
 9095TIP3    H227231   7.172   0.141   5.187
 9096TIP3   OH227232   0.728   6.373   3.615
 9096TIP3    H127233   0.750   6.466   3.610
 9096TIP3    H227234   0.750   6.338   3.529
 9097TIP3   OH227235   7.959   4.826   5.632
 9097TIP3    H127236   7.895   4.822   5.561
 9097TIP3    H227237   8.018   4.897   5.607
 9098TIP3   OH227238   5.235   1.505   4.650
 9098TIP3    H127239   5.170   1.443   4.619
 9098TIP3    H227240   5.213   1.587   4.604
 9099TIP3   OH227241   5.668   2.028   0.193
 9099TIP3    H127242   5.641   1.939   0.217
 9099TIP3    H227243   5.764   2.022   0.186
 9100TIP3   OH227244   5.042   2.518   4.969
 9100TIP3    H127245   4.972   2.544   4.909
 9100TIP3    H227246   4.999   2.502   5.052
 9101TIP3   OH227247   0.836   4.585   4.522
 9101TIP3    H127248   0.749   4.572   4.486
 9101TIP3    H227249   0.832   4.548   4.610
 9102TIP3   OH227250   0.989   6.596   1.571
 9102TIP3    H127251   1.005   6.622   1.662
 9102TIP3    H227252   1.060   6.535   1.551
 9103TIP3   OH227253   7.001   1.433   5.567
 9103TIP3    H127254   7.055   1.364   5.529
 9103TIP3    H227255   7.062   1.502   5.589
 9104TIP3   OH227256   4.222   7.724   4.226
 9104TIP3    H127257   4.168   7.691   4.154
 9104TIP3    H227258   4.176   7.695   4.305
 9105TIP3   OH227259   3.636   2.734   1.781
 9105TIP3    H127260   3.665   2.778   1.701
 9105TIP3    H227261   3.673   2.787   1.852
 9106TIP3   OH227262   1.090   3.054   4.786
 9106TIP3    H127263   1.114   3.125   4.846
 9106TIP3    H227264   0.999   3.034   4.808
 9107TIP3   OH227265   1.797   4.581   6.425
 9107TIP3    H127266   1.819   4.509   6.365
 9107TIP3    H227267   1.732   4.543   6.485
 9108TIP3   OH227268   7.624   4.669   2.470
 9108TIP3    H127269   7.665   4.733   2.528
 9108TIP3    H227270   7.542   4.709   2.443
 9109TIP3   OH227271   0.215   6.081   2.305
 9109TIP3    H127272   0.240   6.085   2.398
 9109TIP3    H227273   0.239   5.992   2.278
 9110TIP3   OH227274   0.489   1.469   2.976
 9110TIP3    H127275   0.424   1.529   2.940
 9110TIP3    H227276   0.547   1.524   3.028
 9111TIP3   OH227277   5.456   6.786   2.211
 9111TIP3    H127278   5.417   6.734   2.281
 9111TIP3    H227279   5.487   6.865   2.255
 9112TIP3   OH227280   7.030   1.192   2.499
 9112TIP3    H127281   6.990   1.215   2.415
 9112TIP3    H227282   6.995   1.105   2.519
 9113TIP3   OH227283   5.678   1.903   6.582
 9113TIP3    H127284   5.751   1.845   6.607
 9113TIP3    H227285   5.682   1.905   6.486
 9114TIP3   OH227286   5.346   3.508   5.933
 9114TIP3    H127287   5.273   3.480   5.988
 9114TIP3    H227288   5.415   3.533   5.994
 9115TIP3   OH227289   4.059   5.480   4.301
 9115TIP3    H127290   4.002   5.468   4.226
 9115TIP3    H227291   4.009   5.536   4.360
 9116TIP3   OH227292   6.647   4.622   1.420
 9116TIP3    H127293   6.712   4.638   1.488
 9116TIP3    H227294   6.693   4.568   1.355
 9117TIP3   OH227295   4.322   1.121   5.236
 9117TIP3    H127296   4.280   1.177   5.171
 9117TIP3    H227297   4.338   1.039   5.190
 9118TIP3   OH227298   5.974   4.829   4.434
 9118TIP3    H127299   5.925   4.910   4.418
 9118TIP3    H227300   6.066   4.855   4.429
 9119TIP3   OH227301   0.146   6.030   5.455
 9119TIP3    H127302   0.183   6.009   5.369
 9119TIP3    H227303   0.194   6.107   5.484
 9120TIP3   OH227304   2.743   1.867   6.030
 9120TIP3    H127305   2.679   1.845   6.098
 9120TIP3    H227306   2.801   1.791   6.028
 9121TIP3   OH227307   5.609   1.280   2.193
 9121TIP3    H127308   5.583   1.365   2.228
 9121TIP3    H227309   5.528   1.242   2.160
 9122TIP3   OH227310   4.110   0.638   6.190
 9122TIP3    H127311   4.174   0.574   6.158
 9122TIP3    H227312   4.032   0.586   6.209
 9123TIP3   OH227313   5.056   0.092   3.173
 9123TIP3    H127314   5.132   0.034   3.187
 9123TIP3    H227315   5.053   0.104   3.078
 9124TIP3   OH227316   3.917   1.229   4.902
 9124TIP3    H127317   3.909   1.223   4.997
 9124TIP3    H227318   4.011   1.221   4.885
 9125TIP3   OH227319   2.297   5.240   3.752
 9125TIP3    H127320   2.358   5.302   3.791
 9125TIP3    H227321   2.232   5.295   3.708
 9126TIP3   OH227322   0.353   5.600   4.129
 9126TIP3    H127323   0.352   5.667   4.198
 9126TIP3    H227324   0.426   5.543   4.153
 9127TIP3   OH227325   1.129   0.870   5.705
 9127TIP3    H127326   1.051   0.820   5.731
 9127TIP3    H227327   1.193   0.852   5.774
 9128TIP3   OH227328   0.701   4.191   5.013
 9128TIP3    H127329   0.721   4.244   5.090
 9128TIP3    H227330   0.636   4.241   4.964
 9129TIP3   OH227331   3.970   0.663   6.491
 9129TIP3    H127332   3.880   0.690   6.473
 9129TIP3    H227333   4.024   0.737   6.462
 9130TIP3   OH227334   0.643   0.479   5.491
 9130TIP3    H127335   0.728   0.437   5.480
 9130TIP3    H227336   0.604   0.436   5.566
 9131TIP3   OH227337   1.505   3.669   6.300
 9131TIP3    H127338   1.534   3.581   6.278
 9131TIP3    H227339   1.417   3.676   6.265
 9132TIP3   OH227340   6.599   4.362   3.099
 9132TIP3    H127341   6.534   4.431   3.109
 9132TIP3    H227342   6.586   4.306   3.175
 9133TIP3   OH227343   0.386   4.856   5.214
 9133TIP3    H127344   0.292   4.850   5.194
 9133TIP3    H227345   0.429   4.838   5.130
 9134TIP3   OH227346   6.381   0.421   4.987
 9134TIP3    H127347   6.371   0.385   5.075
 9134TIP3    H227348   6.341   0.507   4.991
 9135TIP3   OH227349   4.229   3.312   1.705
 9135TIP3    H127350   4.153   3.317   1.647
 9135TIP3    H227351   4.304   3.336   1.651
 9136TIP3   OH227352   0.936   4.245   5.299
 9136TIP3    H127353   0.977   4.302   5.363
 9136TIP3    H227354   0.871   4.300   5.255
 9137TIP3   OH227355   6.824   2.892   2.544
 9137TIP3    H127356   6.840   2.861   2.455
 9137TIP3    H227357   6.770   2.970   2.532
 9138TIP3   OH227358   0.767   2.490   4.576
 9138TIP3    H127359   0.830   2.533   4.633
 9138TIP3    H227360   0.817   2.470   4.496
 9139TIP3   OH227361   1.931   7.663   0.641
 9139TIP3    H127362   1.996   7.728   0.669
 9139TIP3    H227363   1.931   7.669   0.546
 9140TIP3   OH227364   2.111   0.444   3.915
 9140TIP3    H127365   2.066   0.360   3.921
 9140TIP3    H227366   2.040   0.508   3.902
 9141TIP3   OH227367   7.135   4.495   0.205
 9141TIP3    H127368   7.063   4.548   0.238
 9141TIP3    H227369   7.177   4.551   0.139
 9142TIP3   OH227370   6.792   2.013   2.772
 9142TIP3    H127371   6.793   1.923   2.738
 9142TIP3    H227372   6.699   2.034   2.780
 9143TIP3   OH227373   6.876   2.497   2.330
 9143TIP3    H127374   6.831   2.415   2.353
 9143TIP3    H227375   6.885   2.543   2.414
 9144TIP3   OH227376   5.882   3.971   3.623
 9144TIP3    H127377   5.937   4.049   3.621
 9144TIP3    H227378   5.798   4.000   3.586
 9145TIP3   OH227379   6.002   7.505   4.765
 9145TIP3    H127380   5.994   7.561   4.842
 9145TIP3    H227381   5.956   7.425   4.788
 9146TIP3   OH227382   4.089   7.053   2.230
 9146TIP3    H127383   4.077   7.146   2.214
 9146TIP3    H227384   4.170   7.031   2.184
 9147TIP3   OH227385   2.304   7.587   5.443
 9147TIP3    H127386   2.371   7.655   5.451
 9147TIP3    H227387   2.245   7.603   5.517
 9148TIP3   OH227388   3.418   1.287   1.609
 9148TIP3    H127389   3.466   1.216   1.649
 9148TIP3    H227390   3.444   1.365   1.658
 9149TIP3   OH227391   0.640   3.398   4.195
 9149TIP3    H127392   0.642   3.302   4.201
 9149TIP3    H227393   0.597   3.416   4.111
 9150TIP3   OH227394   5.300   4.027   2.730
 9150TIP3    H127395   5.392   4.045   2.747
 9150TIP3    H227396   5.260   4.021   2.817
 9151TIP3   OH227397   8.135   5.600   1.320
 9151TIP3    H127398   8.180   5.679   1.291
 9151TIP3    H227399   8.069   5.583   1.253
 9152TIP3   OH227400   6.706   6.506   5.619
 9152TIP3    H127401   6.701   6.601   5.628
 9152TIP3    H227402   6.617   6.479   5.598
 9153TIP3   OH227403   5.047   0.658   3.293
 9153TIP3    H127404   5.027   0.750   3.277
 9153TIP3    H227405   4.970   0.624   3.338
 9154TIP3   OH227406   5.207   7.095   3.199
 9154TIP3    H127407   5.210   7.070   3.291
 9154TIP3    H227408   5.224   7.013   3.152
 9155TIP3   OH227409   6.317   0.364   3.997
 9155TIP3    H127410   6.257   0.305   4.043
 9155TIP3    H227411   6.389   0.308   3.967
 9156TIP3   OH227412   0.556   2.921   3.191
 9156TIP3    H127413   0.638   2.871   3.189
 9156TIP3    H227414   0.488   2.854   3.184
 9157TIP3   OH227415   7.745   7.295   2.357
 9157TIP3    H127416   7.824   7.348   2.352
 9157TIP3    H227417   7.673   7.358   2.355
 9158TIP3   OH227418   4.458   1.851   1.421
 9158TIP3    H127419   4.504   1.896   1.351
 9158TIP3    H227420   4.448   1.761   1.389
 9159TIP3   OH227421   2.280   0.940   2.010
 9159TIP3    H127422   2.345   0.995   1.966
 9159TIP3    H227423   2.302   0.851   1.984
 9160TIP3   OH227424   2.543   7.130   1.908
 9160TIP3    H127425   2.619   7.074   1.892
 9160TIP3    H227426   2.471   7.086   1.863
 9161TIP3   OH227427   1.762   0.443   3.283
 9161TIP3    H127428   1.821   0.403   3.347
 9161TIP3    H227429   1.692   0.481   3.336
 9162TIP3   OH227430   4.586   0.946   1.624
 9162TIP3    H127431   4.553   0.988   1.544
 9162TIP3    H227432   4.649   1.009   1.659
 9163TIP3   OH227433   5.242   3.684   5.774
 9163TIP3    H127434   5.276   3.770   5.799
 9163TIP3    H227435   5.283   3.623   5.835
 9164TIP3   OH227436   3.600   3.458   3.959
 9164TIP3    H127437   3.601   3.487   4.050
 9164TIP3    H227438   3.520   3.495   3.922
 9165TIP3   OH227439   4.015   1.221   0.112
 9165TIP3    H127440   4.029   1.307   0.073
 9165TIP3    H227441   4.099   1.201   0.154
 9166TIP3   OH227442   2.927   6.343   5.510
 9166TIP3    H127443   2.985   6.412   5.543
 9166TIP3    H227444   2.890   6.379   5.430
 9167TIP3   OH227445   3.010   3.700   6.525
 9167TIP3    H127446   3.070   3.774   6.520
 9167TIP3    H227447   3.057   3.634   6.576
 9168TIP3   OH227448   5.542   0.846   6.710
 9168TIP3    H127449   5.601   0.779   6.746
 9168TIP3    H227450   5.455   0.817   6.737
 9169TIP3   OH227451   8.155   3.794   4.598
 9169TIP3    H127452   8.113   3.869   4.555
 9169TIP3    H227453   8.084   3.749   4.643
 9170TIP3   OH227454   2.589   5.669   0.726
 9170TIP3    H127455   2.622   5.756   0.702
 9170TIP3    H227456   2.520   5.687   0.791
 9171TIP3   OH227457   3.879   2.460   4.681
 9171TIP3    H127458   3.821   2.532   4.708
 9171TIP3    H227459   3.967   2.494   4.691
 9172TIP3   OH227460   7.978   3.949   5.504
 9172TIP3    H127461   7.929   3.868   5.491
 9172TIP3    H227462   8.036   3.955   5.428
 9173TIP3   OH227463   6.592   7.388   1.799
 9173TIP3    H127464   6.519   7.396   1.738
 9173TIP3    H227465   6.623   7.298   1.788
 9174TIP3   OH227466   6.761   2.943   3.683
 9174TIP3    H127467   6.681   2.927   3.734
 9174TIP3    H227468   6.736   2.921   3.593
 9175TIP3   OH227469   6.866   0.002   2.014
 9175TIP3    H127470   6.942   0.021   1.959
 9175TIP3    H227471   6.800  -0.032   1.953
 9176TIP3   OH227472   0.950   3.463   1.121
 9176TIP3    H127473   0.999   3.400   1.174
 9176TIP3    H227474   0.960   3.546   1.167
 9177TIP3   OH227475   6.051   0.811   2.754
 9177TIP3    H127476   6.079   0.719   2.762
 9177TIP3    H227477   6.132   0.860   2.744
 9178TIP3   OH227478   3.190   1.391   2.604
 9178TIP3    H127479   3.166   1.480   2.631
 9178TIP3    H227480   3.159   1.384   2.514
 9179TIP3   OH227481   6.430   7.219   3.541
 9179TIP3    H127482   6.503   7.281   3.543
 9179TIP3    H227483   6.373   7.246   3.614
 9180TIP3   OH227484   2.252   2.981   0.161
 9180TIP3    H127485   2.187   2.915   0.136
 9180TIP3    H227486   2.213   3.027   0.235
 9181TIP3   OH227487   4.717   2.161   0.806
 9181TIP3    H127488   4.666   2.240   0.826
 9181TIP3    H227489   4.797   2.194   0.765
 9182TIP3   OH227490   2.263   1.864   0.400
 9182TIP3    H127491   2.284   1.884   0.308
 9182TIP3    H227492   2.174   1.828   0.397
 9183TIP3   OH227493   1.273   3.896   2.385
 9183TIP3    H127494   1.312   3.879   2.299
 9183TIP3    H227495   1.303   3.984   2.408
 9184TIP3   OH227496   4.638   3.488   0.735
 9184TIP3    H127497   4.688   3.408   0.722
 9184TIP3    H227498   4.601   3.479   0.822
 9185TIP3   OH227499   2.824   5.816   3.575
 9185TIP3    H127500   2.812   5.757   3.501
 9185TIP3    H227501   2.787   5.770   3.650
 9186TIP3   OH227502   6.478   2.852   5.278
 9186TIP3    H127503   6.574   2.851   5.275
 9186TIP3    H227504   6.455   2.781   5.338
 9187TIP3   OH227505   7.989   7.586   5.304
 9187TIP3    H127506   7.957   7.557   5.389
 9187TIP3    H227507   8.068   7.637   5.324
 9188TIP3   OH227508   2.941   2.762   4.878
 9188TIP3    H127509   2.947   2.677   4.833
 9188TIP3    H227510   3.031   2.795   4.878
 9189TIP3   OH227511   2.962   2.585   2.547
 9189TIP3    H127512   2.937   2.664   2.499
 9189TIP3    H227513   3.050   2.605   2.580
 9190TIP3   OH227514   1.308   4.671   3.474
 9190TIP3    H127515   1.356   4.666   3.391
 9190TIP3    H227516   1.258   4.590   3.478
 9191TIP3   OH227517   7.073   0.763   3.435
 9191TIP3    H127518   7.143   0.760   3.368
 9191TIP3    H227519   7.114   0.726   3.513
 9192TIP3   OH227520   3.266   5.704   6.028
 9192TIP3    H127521   3.284   5.649   6.105
 9192TIP3    H227522   3.313   5.786   6.046
 9193TIP3   OH227523   4.729   4.814   4.661
 9193TIP3    H127524   4.687   4.737   4.624
 9193TIP3    H227525   4.741   4.873   4.587
 9194TIP3   OH227526   7.636   2.209   2.722
 9194TIP3    H127527   7.671   2.200   2.633
 9194TIP3    H227528   7.576   2.135   2.732
 9195TIP3   OH227529   8.086   1.838   5.466
 9195TIP3    H127530   8.030   1.798   5.532
 9195TIP3    H227531   8.170   1.850   5.510
 9196TIP3   OH227532   3.667   1.512   6.059
 9196TIP3    H127533   3.724   1.468   6.122
 9196TIP3    H227534   3.726   1.545   5.991
 9197TIP3   OH227535   3.936   2.658   6.029
 9197TIP3    H127536   3.933   2.610   5.946
 9197TIP3    H227537   3.864   2.721   6.022
 9198TIP3   OH227538   0.687   1.395   4.193
 9198TIP3    H127539   0.688   1.482   4.153
 9198TIP3    H227540   0.686   1.334   4.120
 9199TIP3   OH227541   7.080   3.902   0.624
 9199TIP3    H127542   7.058   3.820   0.580
 9199TIP3    H227543   7.176   3.904   0.623
 9200TIP3   OH227544   4.132   3.587   5.983
 9200TIP3    H127545   4.072   3.557   5.914
 9200TIP3    H227546   4.089   3.564   6.065
 9201TIP3   OH227547   3.783   2.421   2.694
 9201TIP3    H127548   3.756   2.509   2.669
 9201TIP3    H227549   3.760   2.365   2.620
 9202TIP3   OH227550   6.771   1.193   3.872
 9202TIP3    H127551   6.825   1.187   3.793
 9202TIP3    H227552   6.756   1.287   3.884
 9203TIP3   OH227553   3.172   4.388   4.951
 9203TIP3    H127554   3.184   4.433   4.867
 9203TIP3    H227555   3.208   4.301   4.936
 9204TIP3   OH227556   7.045   7.660   5.515
 9204TIP3    H127557   6.979   7.612   5.563
 9204TIP3    H227558   7.027   7.642   5.423
 9205TIP3   OH227559   7.932   0.937   5.016
 9205TIP3    H127560   7.985   0.944   5.096
 9205TIP3    H227561   7.857   0.993   5.033
 9206TIP3   OH227562   7.490   5.899   6.533
 9206TIP3    H127563   7.548   5.975   6.527
 9206TIP3    H227564   7.461   5.884   6.443
 9207TIP3   OH227565   5.677   7.585   5.980
 9207TIP3    H127566   5.627   7.504   5.976
 9207TIP3    H227567   5.658   7.622   6.066
 9208TIP3   OH227568   7.451   1.014   2.263
 9208TIP3    H127569   7.539   1.051   2.251
 9208TIP3    H227570   7.456   0.965   2.344
 9209TIP3   OH227571   7.238   2.388   2.759
 9209TIP3    H127572   7.315   2.421   2.714
 9209TIP3    H227573   7.214   2.458   2.821
 9210TIP3   OH227574   1.042   3.987   3.798
 9210TIP3    H127575   1.119   3.931   3.789
 9210TIP3    H227576   0.968   3.927   3.807
 9211TIP3   OH227577   3.473   3.466   1.844
 9211TIP3    H127578   3.476   3.383   1.795
 9211TIP3    H227579   3.564   3.493   1.850
 9212TIP3   OH227580   3.692   1.490   2.148
 9212TIP3    H127581   3.623   1.427   2.130
 9212TIP3    H227582   3.764   1.438   2.184
 9213TIP3   OH227583   0.916   6.462   5.714
 9213TIP3    H127584   0.942   6.413   5.792
 9213TIP3    H227585   0.855   6.403   5.668
 9214TIP3   OH227586   7.606   2.133   4.602
 9214TIP3    H127587   7.602   2.059   4.541
 9214TIP3    H227588   7.522   2.177   4.591
 9215TIP3   OH227589   6.186   3.007   1.714
 9215TIP3    H127590   6.148   2.924   1.687
 9215TIP3    H227591   6.267   3.015   1.664
 9216TIP3   OH227592   4.613   2.781   2.058
 9216TIP3    H127593   4.674   2.707   2.055
 9216TIP3    H227594   4.632   2.824   2.141
 9217TIP3   OH227595   7.759   1.547   4.862
 9217TIP3    H127596   7.842   1.577   4.900
 9217TIP3    H227597   7.777   1.456   4.835
 9218TIP3   OH227598   2.386   4.651   1.666
 9218TIP3    H127599   2.378   4.604   1.749
 9218TIP3    H227600   2.304   4.632   1.620
 9219TIP3   OH227601   1.913   4.514   1.482
 9219TIP3    H127602   1.858   4.445   1.445
 9219TIP3    H227603   1.873   4.595   1.451
 9220TIP3   OH227604   6.112   0.535   2.869
 9220TIP3    H127605   6.181   0.471   2.888
 9220TIP3    H227606   6.033   0.482   2.860
 9221TIP3   OH227607   7.559   1.333   4.420
 9221TIP3    H127608   7.525   1.311   4.506
 9221TIP3    H227609   7.592   1.423   4.429
 9222TIP3   OH227610   3.061   6.552   5.182
 9222TIP3    H127611   3.049   6.574   5.275
 9222TIP3    H227612   3.022   6.465   5.173
 9223TIP3   OH227613   2.863   2.226   1.456
 9223TIP3    H127614   2.854   2.154   1.520
 9223TIP3    H227615   2.958   2.233   1.443
 9224TIP3   OH227616   6.187   1.609   0.435
 9224TIP3    H127617   6.153   1.597   0.524
 9224TIP3    H227618   6.277   1.640   0.447
 9225TIP3   OH227619   2.434   6.286   0.750
 9225TIP3    H127620   2.362   6.350   0.750
 9225TIP3    H227621   2.405   6.216   0.808
 9226TIP3   OH227622   2.714   6.998   0.353
 9226TIP3    H127623   2.688   7.067   0.414
 9226TIP3    H227624   2.658   6.924   0.375
 9227TIP3   OH227625   0.840   3.383   6.187
 9227TIP3    H127626   0.760   3.348   6.225
 9227TIP3    H227627   0.904   3.377   6.257
 9228TIP3   OH227628   2.357   0.515   0.869
 9228TIP3    H127629   2.292   0.447   0.853
 9228TIP3    H227630   2.389   0.499   0.958
 9229TIP3   OH227631   3.732   1.054   0.766
 9229TIP3    H127632   3.720   0.968   0.805
 9229TIP3    H227633   3.722   1.040   0.671
 9230TIP3   OH227634   0.317   3.639   0.372
 9230TIP3    H127635   0.241   3.696   0.370
 9230TIP3    H227636   0.281   3.551   0.358
 9231TIP3   OH227637   6.950   6.431   2.763
 9231TIP3    H127638   6.886   6.368   2.730
 9231TIP3    H227639   6.909   6.467   2.842
 9232TIP3   OH227640   3.373   2.805   4.394
 9232TIP3    H127641   3.380   2.737   4.327
 9232TIP3    H227642   3.297   2.779   4.446
 9233TIP3   OH227643   5.130   5.843   3.670
 9233TIP3    H127644   5.157   5.874   3.757
 9233TIP3    H227645   5.154   5.915   3.611
 9234TIP3   OH227646   6.338   6.420   3.602
 9234TIP3    H127647   6.421   6.373   3.600
 9234TIP3    H227648   6.323   6.447   3.512
 9235TIP3   OH227649   1.495   2.021   2.600
 9235TIP3    H127650   1.459   2.109   2.588
 9235TIP3    H227651   1.467   1.973   2.522
 9236TIP3   OH227652   5.659   4.611   4.674
 9236TIP3    H127653   5.698   4.670   4.608
 9236TIP3    H227654   5.629   4.670   4.743
 9237TIP3   OH227655   6.124   3.478   2.727
 9237TIP3    H127656   6.087   3.416   2.791
 9237TIP3    H227657   6.056   3.486   2.660
 9238TIP3   OH227658   2.304   7.413   0.517
 9238TIP3    H127659   2.276   7.495   0.478
 9238TIP3    H227660   2.400   7.413   0.509
 9239TIP3   OH227661   3.364   4.291   4.165
 9239TIP3    H127662   3.292   4.353   4.151
 9239TIP3    H227663   3.342   4.246   4.246
 9240TIP3   OH227664   7.352   3.189   4.845
 9240TIP3    H127665   7.434   3.216   4.886
 9240TIP3    H227666   7.371   3.189   4.751
 9241TIP3   OH227667   3.985   5.192   0.451
 9241TIP3    H127668   3.912   5.210   0.392
 9241TIP3    H227669   3.960   5.231   0.534
 9242TIP3   OH227670   0.058   4.640   6.687
 9242TIP3    H127671  -0.010   4.700   6.657
 9242TIP3    H227672   0.121   4.636   6.614
 9243TIP3   OH227673   6.224   2.690   4.349
 9243TIP3    H127674   6.156   2.626   4.369
 9243TIP3    H227675   6.303   2.638   4.336
 9244TIP3   OH227676   4.968   1.843   3.092
 9244TIP3    H127677   4.918   1.762   3.104
 9244TIP3    H227678   5.039   1.837   3.157
 9245TIP3   OH227679   1.113   0.883   5.031
 9245TIP3    H127680   1.207   0.895   5.018
 9245TIP3    H227681   1.085   0.961   5.078
 9246TIP3   OH227682   0.664   4.120   0.681
 9246TIP3    H127683   0.609   4.047   0.652
 9246TIP3    H227684   0.696   4.159   0.599
 9247TIP3   OH227685   8.169   5.735   0.458
 9247TIP3    H127686   8.230   5.799   0.495
 9247TIP3    H227687   8.174   5.660   0.517
 9248TIP3   OH227688   7.233   0.263   1.156
 9248TIP3    H127689   7.232   0.295   1.066
 9248TIP3    H227690   7.143   0.233   1.171
 9249TIP3   OH227691   7.247   1.380   6.037
 9249TIP3    H127692   7.257   1.431   5.957
 9249TIP3    H227693   7.299   1.426   6.102
 9250TIP3   OH227694   4.994   1.260   0.220
 9250TIP3    H127695   4.911   1.302   0.196
 9250TIP3    H227696   5.037   1.323   0.277
 9251TIP3   OH227697   7.454   0.111   4.201
 9251TIP3    H127698   7.443   0.029   4.153
 9251TIP3    H227699   7.464   0.178   4.132
 9252TIP3   OH227700   1.115   1.321   2.330
 9252TIP3    H127701   1.119   1.236   2.375
 9252TIP3    H227702   1.109   1.299   2.237
 9253TIP3   OH227703   1.920   5.953   3.389
 9253TIP3    H127704   1.846   5.936   3.331
 9253TIP3    H227705   1.996   5.921   3.341
 9254TIP3   OH227706   4.094   2.064   2.606
 9254TIP3    H127707   4.071   2.019   2.688
 9254TIP3    H227708   4.154   2.133   2.633
 9255TIP3   OH227709   6.589   3.189   6.580
 9255TIP3    H127710   6.678   3.164   6.602
 9255TIP3    H227711   6.538   3.170   6.659
 9256TIP3   OH227712   0.463   7.728   0.263
 9256TIP3    H127713   0.434   7.741   0.173
 9256TIP3    H227714   0.423   7.800   0.312
 9257TIP3   OH227715   5.049   4.187   4.114
 9257TIP3    H127716   4.986   4.122   4.144
 9257TIP3    H227717   5.001   4.238   4.048
 9258TIP3   OH227718   2.223   3.958   4.680
 9258TIP3    H127719   2.227   3.869   4.647
 9258TIP3    H227720   2.314   3.986   4.688
 9259TIP3   OH227721   4.841   0.399   6.309
 9259TIP3    H127722   4.845   0.452   6.389
 9259TIP3    H227723   4.753   0.413   6.275
 9260TIP3   OH227724   2.922   0.661   2.220
 9260TIP3    H127725   2.931   0.713   2.300
 9260TIP3    H227726   2.833   0.679   2.190
 9261TIP3   OH227727   0.441   4.973   0.484
 9261TIP3    H127728   0.523   4.979   0.435
 9261TIP3    H227729   0.402   4.891   0.456
 9262TIP3   OH227730   3.070   2.829   3.701
 9262TIP3    H127731   3.039   2.806   3.789
 9262TIP3    H227732   2.996   2.812   3.644
 9263TIP3   OH227733   3.788   6.012   4.917
 9263TIP3    H127734   3.873   6.039   4.883
 9263TIP3    H227735   3.734   5.997   4.839
 9264TIP3   OH227736   2.219   4.226   6.312
 9264TIP3    H127737   2.290   4.260   6.367
 9264TIP3    H227738   2.263   4.172   6.247
 9265TIP3   OH227739   3.846   4.756   2.543
 9265TIP3    H127740   3.848   4.674   2.494
 9265TIP3    H227741   3.876   4.822   2.481
 9266TIP3   OH227742   5.876   6.226   4.904
 9266TIP3    H127743   5.931   6.284   4.850
 9266TIP3    H227744   5.902   6.246   4.994
 9267TIP3   OH227745   6.345   0.931   5.460
 9267TIP3    H127746   6.307   1.010   5.498
 9267TIP3    H227747   6.414   0.906   5.522
 9268TIP3   OH227748   6.961   0.149   4.562
 9268TIP3    H127749   7.029   0.097   4.519
 9268TIP3    H227750   6.998   0.238   4.565
 9269TIP3   OH227751   5.697   4.826   2.323
 9269TIP3    H127752   5.635   4.898   2.330
 9269TIP3    H227753   5.642   4.748   2.310
 9270TIP3   OH227754   7.270   6.174   3.625
 9270TIP3    H127755   7.191   6.185   3.573
 9270TIP3    H227756   7.309   6.093   3.593
 9271TIP3   OH227757   6.108   5.093   5.966
 9271TIP3    H127758   6.123   5.187   5.967
 9271TIP3    H227759   6.060   5.075   6.047
 9272TIP3   OH227760   6.663   5.910   0.453
 9272TIP3    H127761   6.735   5.853   0.479
 9272TIP3    H227762   6.604   5.852   0.405
 9273TIP3   OH227763   1.557   3.705   0.465
 9273TIP3    H127764   1.525   3.629   0.514
 9273TIP3    H227765   1.548   3.778   0.526
 9274TIP3   OH227766   8.225   4.738   5.521
 9274TIP3    H127767   8.228   4.645   5.542
 9274TIP3    H227768   8.171   4.777   5.590
 9275TIP3   OH227769   7.448   4.645   5.626
 9275TIP3    H127770   7.466   4.730   5.666
 9275TIP3    H227771   7.455   4.661   5.532
 9276TIP3   OH227772   6.628   2.067   1.015
 9276TIP3    H127773   6.618   2.071   1.110
 9276TIP3    H227774   6.541   2.042   0.983
 9277TIP3   OH227775   0.675   4.077   4.095
 9277TIP3    H127776   0.752   4.097   4.043
 9277TIP3    H227777   0.710   4.052   4.181
 9278TIP3   OH227778   5.945   1.620   4.947
 9278TIP3    H127779   5.896   1.604   5.027
 9278TIP3    H227780   5.905   1.561   4.883
 9279TIP3   OH227781   5.607   1.986   4.672
 9279TIP3    H127782   5.577   1.975   4.582
 9279TIP3    H227783   5.690   2.033   4.663
 9280TIP3   OH227784   1.960   2.430   4.288
 9280TIP3    H127785   2.015   2.352   4.299
 9280TIP3    H227786   2.013   2.502   4.321
 9281TIP3   OH227787   3.516   0.622   0.101
 9281TIP3    H127788   3.475   0.647   0.018
 9281TIP3    H227789   3.581   0.690   0.117
 9282TIP3   OH227790   1.469   5.543   3.108
 9282TIP3    H127791   1.403   5.578   3.168
 9282TIP3    H227792   1.553   5.570   3.146
 9283TIP3   OH227793   1.227   0.653   2.778
 9283TIP3    H127794   1.304   0.598   2.761
 9283TIP3    H227795   1.262   0.743   2.780
 9284TIP3   OH227796   7.754   4.361   1.563
 9284TIP3    H127797   7.664   4.387   1.547
 9284TIP3    H227798   7.749   4.298   1.635
 9285TIP3   OH227799   3.711   6.317   3.778
 9285TIP3    H127800   3.720   6.412   3.786
 9285TIP3    H227801   3.618   6.300   3.792
 9286TIP3   OH227802   2.043   4.472   0.909
 9286TIP3    H127803   1.972   4.496   0.850
 9286TIP3    H227804   2.086   4.398   0.867
 9287TIP3   OH227805   4.427   7.763   1.107
 9287TIP3    H127806   4.439   7.669   1.092
 9287TIP3    H227807   4.386   7.769   1.193
 9288TIP3   OH227808   6.717   2.553   3.947
 9288TIP3    H127809   6.781   2.615   3.982
 9288TIP3    H227810   6.736   2.548   3.854
 9289TIP3   OH227811   3.514   4.196   2.419
 9289TIP3    H127812   3.529   4.286   2.391
 9289TIP3    H227813   3.419   4.189   2.427
 9290TIP3   OH227814   7.232   3.663   2.349
 9290TIP3    H127815   7.282   3.620   2.418
 9290TIP3    H227816   7.175   3.595   2.314
 9291TIP3   OH227817   6.721   7.124   6.567
 9291TIP3    H127818   6.661   7.065   6.522
 9291TIP3    H227819   6.697   7.118   6.659
 9292TIP3   OH227820   6.450   2.966   4.723
 9292TIP3    H127821   6.447   3.056   4.756
 9292TIP3    H227822   6.486   2.974   4.635
 9293TIP3   OH227823   7.601   7.403   2.634
 9293TIP3    H127824   7.675   7.460   2.615
 9293TIP3    H227825   7.547   7.406   2.555
 9294TIP3   OH227826   0.720   5.028   3.460
 9294TIP3    H127827   0.793   4.990   3.509
 9294TIP3    H227828   0.667   5.072   3.526
 9295TIP3   OH227829   6.028   3.719   4.569
 9295TIP3    H127830   6.068   3.797   4.609
 9295TIP3    H227831   6.029   3.654   4.639
 9296TIP3   OH227832   7.632   4.688   6.534
 9296TIP3    H127833   7.611   4.709   6.625
 9296TIP3    H227834   7.649   4.774   6.494
 9297TIP3   OH227835   1.370   2.556   2.789
 9297TIP3    H127836   1.375   2.637   2.840
 9297TIP3    H227837   1.459   2.521   2.791
 9298TIP3   OH227838   1.565   5.648   3.699
 9298TIP3    H127839   1.613   5.728   3.676
 9298TIP3    H227840   1.578   5.637   3.793
 9299TIP3   OH227841   6.007   7.756   1.817
 9299TIP3    H127842   5.961   7.709   1.748
 9299TIP3    H227843   5.940   7.770   1.884
 9300TIP3   OH227844   7.846   7.270   0.937
 9300TIP3    H127845   7.784   7.198   0.946
 9300TIP3    H227846   7.837   7.298   0.845
 9301TIP3   OH227847   4.271   1.493   2.348
 9301TIP3    H127848   4.216   1.512   2.424
 9301TIP3    H227849   4.276   1.398   2.346
 9302TIP3   OH227850   8.270   2.863   1.742
 9302TIP3    H127851   8.338   2.853   1.676
 9302TIP3    H227852   8.311   2.916   1.811
 9303TIP3   OH227853   6.350   2.782   2.969
 9303TIP3    H127854   6.392   2.866   2.948
 9303TIP3    H227855   6.415   2.716   2.948
 9304TIP3   OH227856   3.190   0.580   5.684
 9304TIP3    H127857   3.143   0.503   5.654
 9304TIP3    H227858   3.225   0.620   5.604
 9305TIP3   OH227859   4.549   0.401   2.921
 9305TIP3    H127860   4.533   0.423   3.013
 9305TIP3    H227861   4.604   0.323   2.924
 9306TIP3   OH227862   2.717   0.164   4.012
 9306TIP3    H127863   2.734   0.158   4.106
 9306TIP3    H227864   2.636   0.215   4.006
 9307TIP3   OH227865   6.374   3.869   4.354
 9307TIP3    H127866   6.329   3.952   4.371
 9307TIP3    H227867   6.465   3.886   4.379
 9308TIP3   OH227868   6.311   6.912   0.124
 9308TIP3    H127869   6.221   6.942   0.132
 9308TIP3    H227870   6.350   6.971   0.059
 9309TIP3   OH227871   5.459   5.870   0.314
 9309TIP3    H127872   5.429   5.960   0.317
 9309TIP3    H227873   5.553   5.875   0.331
 9310TIP3   OH227874   0.790   6.291   2.859
 9310TIP3    H127875   0.702   6.277   2.822
 9310TIP3    H227876   0.792   6.384   2.882
 9311TIP3   OH227877   3.237   2.553   2.613
 9311TIP3    H127878   3.317   2.559   2.665
 9311TIP3    H227879   3.266   2.549   2.522
 9312TIP3   OH227880   2.246   6.075   3.315
 9312TIP3    H127881   2.182   6.042   3.252
 9312TIP3    H227882   2.193   6.111   3.386
 9313TIP3   OH227883   6.353   4.541   2.997
 9313TIP3    H127884   6.372   4.542   2.903
 9313TIP3    H227885   6.272   4.590   3.006
 9314TIP3   OH227886   6.118   6.513   5.266
 9314TIP3    H127887   6.203   6.472   5.277
 9314TIP3    H227888   6.106   6.567   5.344
 9315TIP3   OH227889   5.427   2.938   4.565
 9315TIP3    H127890   5.499   2.926   4.503
 9315TIP3    H227891   5.376   3.010   4.528
 9316TIP3   OH227892   6.647   5.143   3.270
 9316TIP3    H127893   6.623   5.056   3.302
 9316TIP3    H227894   6.675   5.128   3.180
 9317TIP3   OH227895   1.718   1.391   0.453
 9317TIP3    H127896   1.643   1.340   0.484
 9317TIP3    H227897   1.740   1.352   0.368
 9318TIP3   OH227898   6.315   4.516   2.088
 9318TIP3    H127899   6.281   4.465   2.161
 9318TIP3    H227900   6.303   4.460   2.012
 9319TIP3   OH227901   8.125   7.600   6.731
 9319TIP3    H127902   8.070   7.676   6.712
 9319TIP3    H227903   8.214   7.631   6.721
 9320TIP3   OH227904   6.567   6.845   4.006
 9320TIP3    H127905   6.628   6.909   3.969
 9320TIP3    H227906   6.496   6.898   4.042
 9321TIP3   OH227907   6.483   2.163   0.628
 9321TIP3    H127908   6.473   2.205   0.543
 9321TIP3    H227909   6.402   2.184   0.675
 9322TIP3   OH227910   6.791   7.311   1.253
 9322TIP3    H127911   6.696   7.303   1.241
 9322TIP3    H227912   6.801   7.359   1.335
 9323TIP3   OH227913   1.003   3.105   0.785
 9323TIP3    H127914   1.049   3.115   0.868
 9323TIP3    H227915   1.072   3.087   0.721
 9324TIP3   OH227916   5.982   4.248   2.163
 9324TIP3    H127917   5.960   4.325   2.110
 9324TIP3    H227918   5.920   4.181   2.136
 9325TIP3   OH227919   8.179   1.069   4.103
 9325TIP3    H127920   8.187   0.974   4.114
 9325TIP3    H227921   8.100   1.092   4.152
 9326TIP3   OH227922   5.836   0.502   1.472
 9326TIP3    H127923   5.808   0.412   1.456
 9326TIP3    H227924   5.755   0.551   1.484
 9327TIP3   OH227925   5.654   5.199   3.974
 9327TIP3    H127926   5.748   5.184   3.971
 9327TIP3    H227927   5.642   5.261   4.046
 9328TIP3   OH227928   0.025   5.228   4.820
 9328TIP3    H127929  -0.052   5.214   4.874
 9328TIP3    H227930   0.096   5.241   4.883
 9329TIP3   OH227931   0.521   1.808   1.639
 9329TIP3    H127932   0.606   1.765   1.644
 9329TIP3    H227933   0.462   1.751   1.689
 9330TIP3   OH227934   3.720   2.159   1.805
 9330TIP3    H127935   3.763   2.244   1.814
 9330TIP3    H227936   3.744   2.112   1.886
 9331TIP3   OH227937   2.924   5.977   3.251
 9331TIP3    H127938   2.921   5.988   3.156
 9331TIP3    H227939   2.977   5.899   3.265
 9332TIP3   OH227940   3.167   7.806   2.494
 9332TIP3    H127941   3.130   7.731   2.447
 9332TIP3    H227942   3.148   7.788   2.586
 9333TIP3   OH227943   0.078   0.741   2.101
 9333TIP3    H127944   0.041   0.771   2.184
 9333TIP3    H227945   0.148   0.680   2.127
 9334TIP3   OH227946   7.753   0.952   0.507
 9334TIP3    H127947   7.743   1.040   0.544
 9334TIP3    H227948   7.846   0.932   0.517
 9335TIP3   OH227949   7.408   7.802   1.691
 9335TIP3    H127950   7.346   7.778   1.621
 9335TIP3    H227951   7.352   7.834   1.762
 9336TIP3   OH227952   5.864   4.235   6.298
 9336TIP3    H127953   5.870   4.192   6.213
 9336TIP3    H227954   5.947   4.282   6.307
 9337TIP3   OH227955   7.245   1.755   1.194
 9337TIP3    H127956   7.209   1.731   1.109
 9337TIP3    H227957   7.340   1.758   1.181
 9338TIP3   OH227958   8.180   1.081   2.218
 9338TIP3    H127959   8.266   1.096   2.257
 9338TIP3    H227960   8.132   1.031   2.285
 9339TIP3   OH227961   0.713   4.976   1.245
 9339TIP3    H127962   0.792   4.939   1.206
 9339TIP3    H227963   0.652   4.988   1.172
 9340TIP3   OH227964   1.722   2.729   3.091
 9340TIP3    H127965   1.708   2.747   3.184
 9340TIP3    H227966   1.635   2.738   3.051
 9341TIP3   OH227967   5.350   5.335   3.348
 9341TIP3    H127968   5.266   5.292   3.366
 9341TIP3    H227969   5.330   5.400   3.281
 9342TIP3   OH227970   0.284   3.010   5.001
 9342TIP3    H127971   0.361   3.042   4.956
 9342TIP3    H227972   0.231   2.968   4.932
 9343TIP3   OH227973   1.619   1.061   1.347
 9343TIP3    H127974   1.712   1.082   1.350
 9343TIP3    H227975   1.597   1.058   1.254
 9344TIP3   OH227976   8.103   7.569   6.052
 9344TIP3    H127977   8.051   7.490   6.039
 9344TIP3    H227978   8.040   7.641   6.048
 9345TIP3   OH227979   2.774   3.701   1.018
 9345TIP3    H127980   2.828   3.769   1.058
 9345TIP3    H227981   2.713   3.676   1.087
 9346TIP3   OH227982   1.672   6.031   6.117
 9346TIP3    H127983   1.622   6.084   6.179
 9346TIP3    H227984   1.749   6.003   6.166
 9347TIP3   OH227985   6.784   2.085   5.123
 9347TIP3    H127986   6.732   2.152   5.080
 9347TIP3    H227987   6.836   2.046   5.052
 9348TIP3   OH227988   2.128   4.001   0.877
 9348TIP3    H127989   2.189   3.928   0.891
 9348TIP3    H227990   2.078   3.975   0.800
 9349TIP3   OH227991   5.283   6.074   3.241
 9349TIP3    H127992   5.324   6.154   3.275
 9349TIP3    H227993   5.240   6.035   3.317
 9350TIP3   OH227994   4.134   7.593   3.971
 9350TIP3    H127995   4.042   7.566   3.968
 9350TIP3    H227996   4.156   7.615   3.880
 9351TIP3   OH227997   6.705   4.821   6.005
 9351TIP3    H127998   6.726   4.869   5.925
 9351TIP3    H227999   6.729   4.880   6.076
 9352TIP3   OH228000   6.180   1.869   6.019
 9352TIP3    H128001   6.192   1.779   6.052
 9352TIP3    H228002   6.144   1.858   5.931
 9353TIP3   OH228003   2.905   3.292   5.526
 9353TIP3    H128004   2.853   3.367   5.552
 9353TIP3    H228005   2.996   3.318   5.545
 9354TIP3   OH228006   4.250   4.550   5.366
 9354TIP3    H128007   4.178   4.557   5.429
 9354TIP3    H228008   4.215   4.588   5.286
 9355TIP3   OH228009   1.836   1.155   6.001
 9355TIP3    H128010   1.778   1.135   5.926
 9355TIP3    H228011   1.800   1.235   6.038
 9356TIP3   OH228012   5.839   0.738   4.803
 9356TIP3    H128013   5.859   0.718   4.711
 9356TIP3    H228014   5.817   0.831   4.803
 9357TIP3   OH228015   4.601   1.873   5.944
 9357TIP3    H128016   4.658   1.801   5.918
 9357TIP3    H228017   4.517   1.831   5.963
 9358TIP3   OH228018   1.515   7.280   1.657
 9358TIP3    H128019   1.453   7.214   1.624
 9358TIP3    H228020   1.587   7.230   1.693
 9359TIP3   OH228021   0.129   7.161   3.695
 9359TIP3    H128022   0.046   7.119   3.676
 9359TIP3    H228023   0.120   7.193   3.785
 9360TIP3   OH228024   4.331   3.054   1.661
 9360TIP3    H128025   4.399   3.099   1.610
 9360TIP3    H228026   4.269   3.122   1.684
 9361TIP3   OH228027   4.133   4.877   1.054
 9361TIP3    H128028   4.038   4.865   1.045
 9361TIP3    H228029   4.170   4.820   0.987
 9362TIP3   OH228030   3.787   1.818   2.963
 9362TIP3    H128031   3.857   1.780   3.016
 9362TIP3    H228032   3.749   1.886   3.019
 9363TIP3   OH228033   1.654   4.951   4.516
 9363TIP3    H128034   1.726   4.907   4.471
 9363TIP3    H228035   1.663   4.926   4.608
 9364TIP3   OH228036   7.250   6.835   1.093
 9364TIP3    H128037   7.248   6.802   1.004
 9364TIP3    H228038   7.271   6.928   1.084
 9365TIP3   OH228039   5.513   3.955   1.012
 9365TIP3    H128040   5.539   4.047   1.021
 9365TIP3    H228041   5.593   3.910   0.985
 9366TIP3   OH228042   0.504   0.591   1.482
 9366TIP3    H128043   0.550   0.674   1.481
 9366TIP3    H228044   0.425   0.607   1.533
 9367TIP3   OH228045   6.842   5.202   3.587
 9367TIP3    H128046   6.865   5.264   3.517
 9367TIP3    H228047   6.865   5.116   3.551
 9368TIP3   OH228048   3.200   4.823   0.699
 9368TIP3    H128049   3.290   4.799   0.720
 9368TIP3    H228050   3.147   4.748   0.729
 9369TIP3   OH228051   7.989   0.159   2.956
 9369TIP3    H128052   7.980   0.080   3.009
 9369TIP3    H228053   8.076   0.152   2.917
 9370TIP3   OH228054   4.173   0.262   6.685
 9370TIP3    H128055   4.141   0.269   6.775
 9370TIP3    H228056   4.166   0.351   6.649
 9371TIP3   OH228057   1.090   1.950   5.932
 9371TIP3    H128058   1.140   1.873   5.907
 9371TIP3    H228059   1.155   2.021   5.936
 9372TIP3   OH228060   5.494   0.580   2.754
 9372TIP3    H128061   5.477   0.488   2.771
 9372TIP3    H228062   5.555   0.580   2.679
 9373TIP3   OH228063   0.955   7.685   5.087
 9373TIP3    H128064   1.024   7.644   5.034
 9373TIP3    H228065   0.961   7.778   5.066
 9374TIP3   OH228066   0.507   0.968   2.573
 9374TIP3    H128067   0.467   0.888   2.539
 9374TIP3    H228068   0.573   0.937   2.635
 9375TIP3   OH228069   4.800   2.027   1.096
 9375TIP3    H128070   4.781   1.990   1.010
 9375TIP3    H228071   4.719   2.018   1.146
 9376TIP3   OH228072   7.525   0.281   5.724
 9376TIP3    H128073   7.470   0.290   5.802
 9376TIP3    H228074   7.492   0.349   5.664
 9377TIP3   OH228075   7.921   2.057   2.578
 9377TIP3    H128076   7.957   2.013   2.655
 9377TIP3    H228077   7.957   2.009   2.504
 9378TIP3   OH228078   1.328   3.503   1.559
 9378TIP3    H128079   1.236   3.520   1.537
 9378TIP3    H228080   1.375   3.512   1.476
 9379TIP3   OH228081   5.215   0.462   3.841
 9379TIP3    H128082   5.177   0.426   3.761
 9379TIP3    H228083   5.254   0.545   3.814
 9380TIP3   OH228084   1.326   0.779   1.284
 9380TIP3    H128085   1.248   0.728   1.308
 9380TIP3    H228086   1.336   0.842   1.356
 9381TIP3   OH228087   7.368   1.505   3.830
 9381TIP3    H128088   7.388   1.593   3.797
 9381TIP3    H228089   7.273   1.504   3.837
 9382TIP3   OH228090   3.470   2.959   4.654
 9382TIP3    H128091   3.481   2.864   4.666
 9382TIP3    H228092   3.417   2.986   4.729
 9383TIP3   OH228093   6.962   0.159   1.274
 9383TIP3    H128094   6.910   0.193   1.201
 9383TIP3    H228095   6.925   0.203   1.351
 9384TIP3   OH228096   4.263   7.271   4.975
 9384TIP3    H128097   4.348   7.238   5.004
 9384TIP3    H228098   4.260   7.362   5.005
 9385TIP3   OH228099   2.037   3.526   4.165
 9385TIP3    H128100   1.946   3.514   4.193
 9385TIP3    H228101   2.087   3.469   4.222
 9386TIP3   OH228102   3.787   4.523   5.769
 9386TIP3    H128103   3.859   4.523   5.832
 9386TIP3    H228104   3.723   4.584   5.805
 9387TIP3   OH228105   3.931   1.281   5.213
 9387TIP3    H128106   3.892   1.194   5.217
 9387TIP3    H228107   3.861   1.338   5.182
 9388TIP3   OH228108   5.157   1.465   5.575
 9388TIP3    H128109   5.103   1.440   5.650
 9388TIP3    H228110   5.223   1.524   5.611
 9389TIP3   OH228111   5.127   0.623   5.875
 9389TIP3    H128112   5.072   0.648   5.800
 9389TIP3    H228113   5.115   0.529   5.882
 9390TIP3   OH228114   6.564   0.555   2.051
 9390TIP3    H128115   6.581   0.648   2.067
 9390TIP3    H228116   6.561   0.516   2.138
 9391TIP3   OH228117   2.597   2.554   2.961
 9391TIP3    H128118   2.626   2.629   2.908
 9391TIP3    H228119   2.655   2.555   3.038
 9392TIP3   OH228120   0.116   4.069   6.566
 9392TIP3    H128121   0.155   3.989   6.603
 9392TIP3    H228122   0.065   4.038   6.491
 9393TIP3   OH228123   4.679   7.778   1.675
 9393TIP3    H128124   4.755   7.761   1.732
 9393TIP3    H228125   4.653   7.691   1.645
 9394TIP3   OH228126   4.113   2.591   4.722
 9394TIP3    H128127   4.141   2.617   4.809
 9394TIP3    H228128   4.177   2.526   4.694
 9395TIP3   OH228129   3.244   1.121   1.048
 9395TIP3    H128130   3.325   1.074   1.063
 9395TIP3    H228131   3.271   1.213   1.042
 9396TIP3   OH228132   6.440   5.530   0.042
 9396TIP3    H128133   6.443   5.625   0.047
 9396TIP3    H228134   6.385   5.511  -0.034
 9397TIP3   OH228135   1.075   4.867   3.289
 9397TIP3    H128136   1.156   4.844   3.242
 9397TIP3    H228137   1.037   4.782   3.312
 9398TIP3   OH228138   0.947   0.258   0.550
 9398TIP3    H128139   0.986   0.248   0.636
 9398TIP3    H228140   0.868   0.204   0.553
 9399TIP3   OH228141   5.508   5.295   1.740
 9399TIP3    H128142   5.596   5.258   1.738
 9399TIP3    H228143   5.492   5.323   1.650
 9400TIP3   OH228144   2.395   2.416   2.210
 9400TIP3    H128145   2.373   2.405   2.303
 9400TIP3    H228146   2.375   2.330   2.171
 9401TIP3   OH228147   4.222   4.880   3.704
 9401TIP3    H128148   4.163   4.809   3.677
 9401TIP3    H228149   4.294   4.835   3.748
 9402TIP3   OH228150   1.408   3.469   3.496
 9402TIP3    H128151   1.489   3.469   3.445
 9402TIP3    H228152   1.415   3.547   3.551
 9403TIP3   OH228153   1.025   2.023   1.895
 9403TIP3    H128154   0.933   2.000   1.883
 9403TIP3    H228155   1.038   2.026   1.990
 9404TIP3   OH228156   3.753   0.789   4.728
 9404TIP3    H128157   3.670   0.822   4.695
 9404TIP3    H228158   3.796   0.753   4.650
 9405TIP3   OH228159   8.099   3.702   6.185
 9405TIP3    H128160   8.192   3.712   6.164
 9405TIP3    H228161   8.054   3.711   6.102
 9406TIP3   OH228162   0.818   5.205   2.699
 9406TIP3    H128163   0.851   5.215   2.609
 9406TIP3    H228164   0.767   5.284   2.715
 9407TIP3   OH228165   4.840   0.140   1.797
 9407TIP3    H128166   4.888   0.222   1.803
 9407TIP3    H228167   4.773   0.157   1.730
 9408TIP3   OH228168   0.953   2.984   5.679
 9408TIP3    H128169   1.032   2.956   5.725
 9408TIP3    H228170   0.914   3.051   5.736
 9409TIP3   OH228171   5.748   0.344   4.973
 9409TIP3    H128172   5.664   0.298   4.978
 9409TIP3    H228173   5.792   0.305   4.897
 9410TIP3   OH228174   7.063   5.522   4.096
 9410TIP3    H128175   7.007   5.578   4.040
 9410TIP3    H228176   7.149   5.564   4.093
 9411TIP3   OH228177   5.301   5.614   5.573
 9411TIP3    H128178   5.368   5.562   5.617
 9411TIP3    H228179   5.341   5.640   5.490
 9412TIP3   OH228180   6.716   3.488   0.747
 9412TIP3    H128181   6.738   3.553   0.681
 9412TIP3    H228182   6.789   3.492   0.809
 9413TIP3   OH228183   4.519   5.730   2.722
 9413TIP3    H128184   4.510   5.825   2.733
 9413TIP3    H228185   4.436   5.703   2.682
 9414TIP3   OH228186   4.772   5.041   3.701
 9414TIP3    H128187   4.824   4.971   3.662
 9414TIP3    H228188   4.731   5.001   3.778
 9415TIP3   OH228189   5.477   4.859   3.128
 9415TIP3    H128190   5.452   4.949   3.106
 9415TIP3    H228191   5.489   4.816   3.044
 9416TIP3   OH228192   6.179   4.503   1.392
 9416TIP3    H128193   6.165   4.588   1.434
 9416TIP3    H228194   6.257   4.516   1.337
 9417TIP3   OH228195   5.692   2.823   1.196
 9417TIP3    H128196   5.630   2.822   1.123
 9417TIP3    H228197   5.650   2.769   1.263
 9418TIP3   OH228198   5.391   1.581   6.551
 9418TIP3    H128199   5.409   1.494   6.516
 9418TIP3    H228200   5.459   1.595   6.617
 9419TIP3   OH228201   6.092   1.873   1.271
 9419TIP3    H128202   6.122   1.801   1.327
 9419TIP3    H228203   6.158   1.942   1.283
 9420TIP3   OH228204   7.794   6.092   3.275
 9420TIP3    H128205   7.798   6.136   3.359
 9420TIP3    H228206   7.884   6.093   3.242
 9421TIP3   OH228207   2.435   6.521   1.662
 9421TIP3    H128208   2.428   6.527   1.567
 9421TIP3    H228209   2.359   6.570   1.695
 9422TIP3   OH228210   5.938   2.683   3.485
 9422TIP3    H128211   5.981   2.671   3.401
 9422TIP3    H228212   5.956   2.602   3.533
 9423TIP3   OH228213   8.023   7.476   2.114
 9423TIP3    H128214   8.092   7.443   2.171
 9423TIP3    H228215   8.040   7.434   2.029
 9424TIP3   OH228216   0.312   3.166   1.918
 9424TIP3    H128217   0.349   3.091   1.872
 9424TIP3    H228218   0.368   3.240   1.892
 9425TIP3   OH228219   1.030   4.779   6.068
 9425TIP3    H128220   0.982   4.856   6.096
 9425TIP3    H228221   0.983   4.747   5.991
 9426TIP3   OH228222   4.905   4.296   4.612
 9426TIP3    H128223   4.902   4.200   4.613
 9426TIP3    H228224   4.996   4.316   4.589
 9427TIP3   OH228225   8.124   5.838   4.760
 9427TIP3    H128226   8.061   5.815   4.829
 9427TIP3    H228227   8.199   5.872   4.808
 9428TIP3   OH228228   6.762   4.996   6.212
 9428TIP3    H128229   6.835   4.938   6.236
 9428TIP3    H228230   6.740   5.041   6.294
 9429TIP3   OH228231   0.977   3.091   3.521
 9429TIP3    H128232   0.907   3.026   3.528
 9429TIP3    H228233   0.937   3.164   3.473
 9430TIP3   OH228234   7.692   3.521   1.446
 9430TIP3    H128235   7.708   3.442   1.498
 9430TIP3    H228236   7.776   3.566   1.444
 9431TIP3   OH228237   0.345   0.482   5.393
 9431TIP3    H128238   0.352   0.572   5.361
 9431TIP3    H228239   0.432   0.461   5.425
 9432TIP3   OH228240   6.234   6.174   4.862
 9432TIP3    H128241   6.176   6.245   4.834
 9432TIP3    H228242   6.293   6.161   4.788
 9433TIP3   OH228243   8.023   0.598   5.428
 9433TIP3    H128244   7.977   0.681   5.422
 9433TIP3    H228245   8.012   0.558   5.342
 9434TIP3   OH228246   5.351   5.291   0.932
 9434TIP3    H128247   5.345   5.196   0.937
 9434TIP3    H228248   5.384   5.317   1.018
 9435TIP3   OH228249   7.769   2.470   0.202
 9435TIP3    H128250   7.748   2.377   0.204
 9435TIP3    H228251   7.848   2.479   0.255
 9436TIP3   OH228252   7.983   2.833   6.430
 9436TIP3    H128253   7.913   2.775   6.462
 9436TIP3    H228254   7.980   2.824   6.335
 9437TIP3   OH228255   7.736   7.771   3.008
 9437TIP3    H128256   7.666   7.834   2.991
 9437TIP3    H228257   7.746   7.772   3.103
 9438TIP3   OH228258   2.136   7.258   4.705
 9438TIP3    H128259   2.208   7.284   4.647
 9438TIP3    H228260   2.131   7.328   4.770
 9439TIP3   OH228261   1.525   5.819   5.448
 9439TIP3    H128262   1.585   5.811   5.375
 9439TIP3    H228263   1.553   5.898   5.494
 9440TIP3   OH228264   6.732   3.183   2.495
 9440TIP3    H128265   6.751   3.248   2.562
 9440TIP3    H228266   6.652   3.215   2.453
 9441TIP3   OH228267   1.130   3.200   2.331
 9441TIP3    H128268   1.088   3.117   2.312
 9441TIP3    H228269   1.179   3.185   2.412
 9442TIP3   OH228270   5.845   4.803   2.776
 9442TIP3    H128271   5.824   4.746   2.850
 9442TIP3    H228272   5.922   4.852   2.805
 9443TIP3   OH228273   3.407   6.705   4.199
 9443TIP3    H128274   3.408   6.653   4.280
 9443TIP3    H228275   3.319   6.741   4.195
 9444TIP3   OH228276   0.915   0.271   5.173
 9444TIP3    H128277   0.929   0.243   5.083
 9444TIP3    H228278   0.988   0.233   5.221
 9445TIP3   OH228279   1.247   1.016   4.306
 9445TIP3    H128280   1.194   0.949   4.264
 9445TIP3    H228281   1.318   0.968   4.349
 9446TIP3   OH228282   4.567   5.190   0.420
 9446TIP3    H128283   4.503   5.239   0.368
 9446TIP3    H228284   4.613   5.257   0.470
 9447TIP3   OH228285   1.491   2.481   4.207
 9447TIP3    H128286   1.539   2.563   4.218
 9447TIP3    H228287   1.440   2.494   4.127
 9448TIP3   OH228288   0.323   3.190   3.772
 9448TIP3    H128289   0.256   3.121   3.768
 9448TIP3    H228290   0.347   3.205   3.681
 9449TIP3   OH228291   1.693   7.129   1.798
 9449TIP3    H128292   1.654   7.118   1.885
 9449TIP3    H228293   1.788   7.128   1.814
 9450TIP3   OH228294   6.910   5.423   6.290
 9450TIP3    H128295   6.982   5.389   6.237
 9450TIP3    H228296   6.948   5.497   6.337
 9451TIP3   OH228297   1.982   3.019   0.610
 9451TIP3    H128298   1.974   3.047   0.701
 9451TIP3    H228299   1.926   2.942   0.604
 9452TIP3   OH228300   0.843   5.624   0.200
 9452TIP3    H128301   0.917   5.598   0.255
 9452TIP3    H228302   0.872   5.604   0.111
 9453TIP3   OH228303   0.884   1.707   2.403
 9453TIP3    H128304   0.886   1.622   2.358
 9453TIP3    H228305   0.808   1.702   2.460
 9454TIP3   OH228306   4.498   5.372   6.773
 9454TIP3    H128307   4.547   5.410   6.701
 9454TIP3    H228308   4.490   5.443   6.837
 9455TIP3   OH228309   0.192   0.990   2.943
 9455TIP3    H128310   0.254   0.939   2.995
 9455TIP3    H228311   0.240   1.013   2.864
 9456TIP3   OH228312   0.544   5.235   6.745
 9456TIP3    H128313   0.489   5.304   6.708
 9456TIP3    H228314   0.623   5.282   6.775
 9457TIP3   OH228315   2.844   1.976   2.449
 9457TIP3    H128316   2.940   1.979   2.448
 9457TIP3    H228317   2.819   2.042   2.514
 9458TIP3   OH228318   8.088   3.464   0.759
 9458TIP3    H128319   8.051   3.376   0.764
 9458TIP3    H228320   8.024   3.520   0.803
 9459TIP3   OH228321   3.004   3.291   2.706
 9459TIP3    H128322   2.931   3.260   2.653
 9459TIP3    H228323   2.965   3.318   2.788
 9460TIP3   OH228324   3.906   3.340   3.377
 9460TIP3    H128325   3.992   3.300   3.388
 9460TIP3    H228326   3.903   3.366   3.285
 9461TIP3   OH228327   5.297   7.126   6.179
 9461TIP3    H128328   5.376   7.074   6.165
 9461TIP3    H228329   5.232   7.063   6.211
 9462TIP3   OH228330   3.919   3.402   6.637
 9462TIP3    H128331   3.950   3.374   6.723
 9462TIP3    H228332   3.994   3.448   6.599
 9463TIP3   OH228333   7.062   5.939   1.122
 9463TIP3    H128334   6.967   5.947   1.128
 9463TIP3    H228335   7.095   6.023   1.154
 9464TIP3   OH228336   7.184   3.563   0.831
 9464TIP3    H128337   7.135   3.579   0.751
 9464TIP3    H228338   7.118   3.536   0.895
 9465TIP3   OH228339   4.541   6.743   3.671
 9465TIP3    H128340   4.446   6.740   3.659
 9465TIP3    H228341   4.576   6.695   3.595
 9466TIP3   OH228342   0.592   3.569   6.450
 9466TIP3    H128343   0.633   3.490   6.486
 9466TIP3    H228344   0.525   3.536   6.390
 9467TIP3   OH228345   5.149   2.477   6.679
 9467TIP3    H128346   5.218   2.413   6.662
 9467TIP3    H228347   5.069   2.425   6.688
 9468TIP3   OH228348   3.080   1.081   4.169
 9468TIP3    H128349   3.074   0.994   4.209
 9468TIP3    H228350   3.115   1.137   4.239
 9469TIP3   OH228351   2.001   2.312   3.133
 9469TIP3    H128352   2.007   2.378   3.202
 9469TIP3    H228353   2.092   2.297   3.106
 9470TIP3   OH228354   0.535   5.927   6.181
 9470TIP3    H128355   0.599   5.859   6.203
 9470TIP3    H228356   0.534   5.930   6.086
 9471TIP3   OH228357   8.096   7.374   4.902
 9471TIP3    H128358   8.035   7.392   4.973
 9471TIP3    H228359   8.091   7.279   4.889
 9472TIP3   OH228360   7.641   0.783   1.269
 9472TIP3    H128361   7.711   0.792   1.204
 9472TIP3    H228362   7.576   0.848   1.243
 9473TIP3   OH228363   4.134   2.566   1.204
 9473TIP3    H128364   4.119   2.476   1.174
 9473TIP3    H228365   4.229   2.578   1.196
 9474TIP3   OH228366   5.679   1.970   1.645
 9474TIP3    H128367   5.751   1.980   1.583
 9474TIP3    H228368   5.685   2.048   1.701
 9475TIP3   OH228369   8.149   4.669   1.645
 9475TIP3    H128370   8.095   4.605   1.599
 9475TIP3    H228371   8.167   4.629   1.730
 9476TIP3   OH228372   3.296   2.843   6.502
 9476TIP3    H128373   3.209   2.810   6.525
 9476TIP3    H228374   3.297   2.932   6.537
 9477TIP3   OH228375   3.502   7.710   1.473
 9477TIP3    H128376   3.448   7.787   1.490
 9477TIP3    H228377   3.482   7.650   1.544
 9478TIP3   OH228378   3.438   0.749   5.468
 9478TIP3    H128379   3.517   0.803   5.474
 9478TIP3    H228380   3.464   0.674   5.415
 9479TIP3   OH228381   4.722   2.603   3.128
 9479TIP3    H128382   4.813   2.574   3.133
 9479TIP3    H228383   4.670   2.523   3.136
 9480TIP3   OH228384   3.536   4.042   1.245
 9480TIP3    H128385   3.541   3.948   1.261
 9480TIP3    H228386   3.541   4.051   1.150
 9481TIP3   OH228387   4.665   4.451   3.184
 9481TIP3    H128388   4.687   4.464   3.276
 9481TIP3    H228389   4.670   4.539   3.145
 9482TIP3   OH228390   3.894   0.483   4.789
 9482TIP3    H128391   3.817   0.487   4.733
 9482TIP3    H228392   3.956   0.545   4.750
 9483TIP3   OH228393   8.191   5.663   2.078
 9483TIP3    H128394   8.234   5.638   1.996
 9483TIP3    H228395   8.263   5.685   2.137
 9484TIP3   OH228396   5.458   0.852   4.895
 9484TIP3    H128397   5.481   0.888   4.809
 9484TIP3    H228398   5.527   0.788   4.913
 9485TIP3   OH228399   7.393   0.918   1.107
 9485TIP3    H128400   7.316   0.969   1.082
 9485TIP3    H228401   7.377   0.830   1.072
 9486TIP3   OH228402   1.093   2.628   6.658
 9486TIP3    H128403   1.041   2.569   6.602
 9486TIP3    H228404   1.184   2.608   6.636
 9487TIP3   OH228405   1.623   2.054   5.279
 9487TIP3    H128406   1.575   1.974   5.256
 9487TIP3    H228407   1.682   2.028   5.350
 9488TIP3   OH228408   4.444   7.467   1.145
 9488TIP3    H128409   4.394   7.424   1.215
 9488TIP3    H228410   4.447   7.401   1.075
 9489TIP3   OH228411   1.550   5.183   5.951
 9489TIP3    H128412   1.495   5.196   6.028
 9489TIP3    H228413   1.523   5.252   5.891
 9490TIP3   OH228414   1.701   2.199   3.914
 9490TIP3    H128415   1.718   2.274   3.971
 9490TIP3    H228416   1.634   2.229   3.853
 9491TIP3   OH228417   1.163   5.511   6.487
 9491TIP3    H128418   1.143   5.600   6.458
 9491TIP3    H228419   1.201   5.469   6.410
 9492TIP3   OH228420   2.312   0.745   3.941
 9492TIP3    H128421   2.348   0.662   3.910
 9492TIP3    H228422   2.332   0.746   4.034
 9493TIP3   OH228423   1.343   3.243   2.898
 9493TIP3    H128424   1.272   3.216   2.957
 9493TIP3    H228425   1.303   3.309   2.841
 9494TIP3   OH228426   2.554   6.979   6.474
 9494TIP3    H128427   2.619   6.973   6.544
 9494TIP3    H228428   2.495   7.048   6.502
 9495TIP3   OH228429   5.139   5.243   3.498
 9495TIP3    H128430   5.098   5.325   3.523
 9495TIP3    H228431   5.174   5.208   3.580
 9496TIP3   OH228432   2.868   4.201   1.030
 9496TIP3    H128433   2.851   4.284   1.074
 9496TIP3    H228434   2.961   4.185   1.045
 9497TIP3   OH228435   4.583   7.356   2.578
 9497TIP3    H128436   4.629   7.399   2.505
 9497TIP3    H228437   4.622   7.393   2.656
 9498TIP3   OH228438   2.839   0.450   6.264
 9498TIP3    H128439   2.905   0.493   6.319
 9498TIP3    H228440   2.866   0.468   6.174
 9499TIP3   OH228441   1.562   1.801   2.762
 9499TIP3    H128442   1.533   1.716   2.729
 9499TIP3    H228443   1.544   1.862   2.690
 9500TIP3   OH228444   6.740   5.494   6.558
 9500TIP3    H128445   6.652   5.457   6.570
 9500TIP3    H228446   6.742   5.522   6.467
 9501TIP3   OH228447   7.111   6.378   1.548
 9501TIP3    H128448   7.115   6.450   1.486
 9501TIP3    H228449   7.202   6.348   1.556
 9502TIP3   OH228450   6.727   7.322   0.150
 9502TIP3    H128451   6.730   7.284   0.238
 9502TIP3    H228452   6.797   7.388   0.150
 9503TIP3   OH228453   4.238   1.868   5.288
 9503TIP3    H128454   4.285   1.850   5.207
 9503TIP3    H228455   4.282   1.945   5.325
 9504TIP3   OH228456   6.195   0.546   3.480
 9504TIP3    H128457   6.248   0.480   3.523
 9504TIP3    H228458   6.246   0.571   3.403
 9505TIP3   OH228459   3.157   2.572   5.773
 9505TIP3    H128460   3.156   2.631   5.697
 9505TIP3    H228461   3.231   2.514   5.756
 9506TIP3   OH228462   2.680   7.499   2.273
 9506TIP3    H128463   2.604   7.553   2.253
 9506TIP3    H228464   2.666   7.471   2.363
 9507TIP3   OH228465   5.031   6.771   5.280
 9507TIP3    H128466   4.978   6.834   5.329
 9507TIP3    H228467   4.994   6.686   5.303
 9508TIP3   OH228468   7.283   0.065   0.403
 9508TIP3    H128469   7.270   0.143   0.458
 9508TIP3    H228470   7.329   0.004   0.460
 9509TIP3   OH228471   3.365   7.111   5.954
 9509TIP3    H128472   3.336   7.133   6.043
 9509TIP3    H228473   3.425   7.038   5.967
 9510TIP3   OH228474   2.976   4.642   5.040
 9510TIP3    H128475   3.017   4.559   5.013
 9510TIP3    H228476   2.983   4.641   5.136
 9511TIP3   OH228477   4.619   6.895   2.339
 9511TIP3    H128478   4.655   6.872   2.254
 9511TIP3    H228479   4.672   6.969   2.368
 9512TIP3   OH228480   3.092   1.762   1.414
 9512TIP3    H128481   3.079   1.850   1.379
 9512TIP3    H228482   3.009   1.718   1.399
 9513TIP3   OH228483   5.491   3.966   4.773
 9513TIP3    H128484   5.457   3.891   4.726
 9513TIP3    H228485   5.586   3.961   4.762
 9514TIP3   OH228486   6.587   1.723   2.972
 9514TIP3    H128487   6.576   1.717   3.066
 9514TIP3    H228488   6.510   1.680   2.935
 9515TIP3   OH228489   1.537   2.152   3.420
 9515TIP3    H128490   1.490   2.169   3.338
 9515TIP3    H228491   1.502   2.068   3.450
 9516TIP3   OH228492   5.433   1.161   0.342
 9516TIP3    H128493   5.369   1.165   0.413
 9516TIP3    H228494   5.501   1.223   0.367
 9517TIP3   OH228495   7.039   5.135   6.351
 9517TIP3    H128496   7.030   5.143   6.445
 9517TIP3    H228497   6.950   5.119   6.320
 9518TIP3   OH228498   2.448   0.059   2.901
 9518TIP3    H128499   2.426   0.009   2.823
 9518TIP3    H228500   2.364   0.072   2.946
 9519TIP3   OH228501   0.552   4.756   3.399
 9519TIP3    H128502   0.480   4.776   3.460
 9519TIP3    H228503   0.595   4.841   3.385
 9520TIP3   OH228504   5.779   7.852   5.951
 9520TIP3    H128505   5.684   7.846   5.962
 9520TIP3    H228506   5.810   7.763   5.964
 9521TIP3   OH228507   0.650   6.439   6.652
 9521TIP3    H128508   0.646   6.398   6.566
 9521TIP3    H228509   0.608   6.376   6.711
 9522TIP3   OH228510   3.376   6.885   2.406
 9522TIP3    H128511   3.341   6.823   2.471
 9522TIP3    H228512   3.298   6.923   2.366
 9523TIP3   OH228513   3.896   7.260   0.541
 9523TIP3    H128514   3.848   7.342   0.547
 9523TIP3    H228515   3.988   7.285   0.548
 9524TIP3   OH228516   0.283   5.672   4.852
 9524TIP3    H128517   0.236   5.624   4.784
 9524TIP3    H228518   0.357   5.616   4.875
 9525TIP3   OH228519   6.680   6.458   3.263
 9525TIP3    H128520   6.653   6.541   3.302
 9525TIP3    H228521   6.768   6.443   3.298
 9526TIP3   OH228522   6.712   5.389   2.524
 9526TIP3    H128523   6.755   5.378   2.609
 9526TIP3    H228524   6.645   5.321   2.522
 9527TIP3   OH228525   3.338   4.165   0.807
 9527TIP3    H128526   3.388   4.244   0.786
 9527TIP3    H228527   3.285   4.149   0.729
 9528TIP3   OH228528   2.852   4.558   4.671
 9528TIP3    H128529   2.803   4.505   4.735
 9528TIP3    H228530   2.855   4.646   4.711
 9529TIP3   OH228531   6.949   2.295   1.336
 9529TIP3    H128532   6.978   2.269   1.249
 9529TIP3    H228533   6.975   2.386   1.344
 9530TIP3   OH228534   4.226   2.421   6.098
 9530TIP3    H128535   4.320   2.415   6.079
 9530TIP3    H228536   4.215   2.367   6.177
 9531TIP3   OH228537   7.615   3.823   3.644
 9531TIP3    H128538   7.672   3.893   3.677
 9531TIP3    H228539   7.676   3.756   3.612
 9532TIP3   OH228540   0.892   3.623   0.364
 9532TIP3    H128541   0.811   3.622   0.415
 9532TIP3    H228542   0.868   3.585   0.280
 9533TIP3   OH228543   5.898   2.747   2.400
 9533TIP3    H128544   5.867   2.776   2.314
 9533TIP3    H228545   5.855   2.805   2.462
 9534TIP3   OH228546   6.567   0.489   2.314
 9534TIP3    H128547   6.627   0.467   2.385
 9534TIP3    H228548   6.510   0.558   2.351
 9535TIP3   OH228549   1.702   6.346   2.629
 9535TIP3    H128550   1.785   6.392   2.624
 9535TIP3    H228551   1.643   6.397   2.574
 9536TIP3   OH228552   4.352   7.568   2.418
 9536TIP3    H128553   4.273   7.568   2.365
 9536TIP3    H228554   4.403   7.493   2.386
 9537TIP3   OH228555   6.374   3.356   4.725
 9537TIP3    H128556   6.310   3.303   4.676
 9537TIP3    H228557   6.370   3.442   4.684
 9538TIP3   OH228558   3.662   4.143   0.389
 9538TIP3    H128559   3.726   4.177   0.327
 9538TIP3    H228560   3.596   4.213   0.396
 9539TIP3   OH228561   5.326   1.692   6.281
 9539TIP3    H128562   5.389   1.733   6.342
 9539TIP3    H228563   5.374   1.619   6.242
 9540TIP3   OH228564   6.742   2.591   5.700
 9540TIP3    H128565   6.818   2.603   5.643
 9540TIP3    H228566   6.768   2.521   5.760
 9541TIP3   OH228567   1.086   5.879   3.874
 9541TIP3    H128568   1.054   5.816   3.810
 9541TIP3    H228569   1.152   5.930   3.827
 9542TIP3   OH228570   5.929   1.431   5.720
 9542TIP3    H128571   5.986   1.508   5.722
 9542TIP3    H228572   5.942   1.394   5.632
 9543TIP3   OH228573   6.475   2.182   3.752
 9543TIP3    H128574   6.399   2.237   3.771
 9543TIP3    H228575   6.527   2.233   3.690
 9544TIP3   OH228576   7.539   3.984   1.947
 9544TIP3    H128577   7.517   3.898   1.983
 9544TIP3    H228578   7.456   4.031   1.946
 9545TIP3   OH228579   6.325   2.553   3.506
 9545TIP3    H128580   6.381   2.559   3.429
 9545TIP3    H228581   6.322   2.459   3.526
 9546TIP3   OH228582   2.936   2.914   6.063
 9546TIP3    H128583   3.007   2.885   6.006
 9546TIP3    H228584   2.976   2.979   6.120
 9547TIP3   OH228585   7.934   4.397   5.989
 9547TIP3    H128586   7.994   4.328   5.962
 9547TIP3    H228587   7.933   4.459   5.916
 9548TIP3   OH228588   4.909   7.419   3.869
 9548TIP3    H128589   4.870   7.342   3.911
 9548TIP3    H228590   4.840   7.453   3.812
 9549TIP3   OH228591   7.374   6.846   3.683
 9549TIP3    H128592   7.290   6.892   3.684
 9549TIP3    H228593   7.363   6.775   3.746
 9550TIP3   OH228594   2.668   3.306   6.415
 9550TIP3    H128595   2.629   3.390   6.392
 9550TIP3    H228596   2.733   3.327   6.482
 9551TIP3   OH228597   0.869   2.037   0.076
 9551TIP3    H128598   0.829   2.089   0.006
 9551TIP3    H228599   0.812   2.049   0.151
 9552TIP3   OH228600   8.098   3.375   2.850
 9552TIP3    H128601   8.114   3.444   2.785
 9552TIP3    H228602   8.178   3.373   2.903
 9553TIP3   OH228603   1.074   2.691   0.412
 9553TIP3    H128604   1.029   2.641   0.344
 9553TIP3    H228605   1.006   2.706   0.478
 9554TIP3   OH228606   2.920   7.345   6.434
 9554TIP3    H128607   2.837   7.371   6.473
 9554TIP3    H228608   2.896   7.297   6.355
 9555TIP3   OH228609   5.161   6.396   6.545
 9555TIP3    H128610   5.249   6.392   6.581
 9555TIP3    H228611   5.111   6.448   6.608
 9556TIP3   OH228612   1.590   4.381   5.458
 9556TIP3    H128613   1.529   4.451   5.481
 9556TIP3    H228614   1.566   4.309   5.517
 9557TIP3   OH228615   7.240   1.528   3.181
 9557TIP3    H128616   7.153   1.496   3.207
 9557TIP3    H228617   7.245   1.616   3.219
 9558TIP3   OH228618   0.016   6.800   1.509
 9558TIP3    H128619  -0.034   6.772   1.585
 9558TIP3    H228620   0.104   6.764   1.523
 9559TIP3   OH228621   1.463   0.639   2.473
 9559TIP3    H128622   1.535   0.701   2.479
 9559TIP3    H228623   1.398   0.682   2.418
 9560TIP3   OH228624   6.017   2.493   2.458
 9560TIP3    H128625   6.012   2.491   2.554
 9560TIP3    H228626   5.965   2.569   2.433
 9561TIP3   OH228627   5.086   7.263   3.736
 9561TIP3    H128628   5.054   7.348   3.766
 9561TIP3    H228629   5.059   7.201   3.804
 9562TIP3   OH228630   2.661   3.499   3.097
 9562TIP3    H128631   2.583   3.459   3.136
 9562TIP3    H228632   2.632   3.585   3.067
 9563TIP3   OH228633   7.568   2.508   2.108
 9563TIP3    H128634   7.504   2.482   2.042
 9563TIP3    H228635   7.635   2.557   2.060
 9564TIP3   OH228636   1.292   0.219   5.512
 9564TIP3    H128637   1.355   0.189   5.578
 9564TIP3    H228638   1.332   0.195   5.428
 9565TIP3   OH228639   0.715   2.308   1.498
 9565TIP3    H128640   0.763   2.253   1.560
 9565TIP3    H228641   0.751   2.283   1.412
 9566TIP3   OH228642   0.730   0.145   3.347
 9566TIP3    H128643   0.757   0.054   3.357
 9566TIP3    H228644   0.745   0.164   3.254
 9567TIP3   OH228645   5.139   5.956   6.697
 9567TIP3    H128646   5.085   6.014   6.643
 9567TIP3    H228647   5.161   5.883   6.639
 9568TIP3   OH228648   3.171   7.602   6.357
 9568TIP3    H128649   3.226   7.634   6.429
 9568TIP3    H228650   3.105   7.670   6.346
 9569TIP3   OH228651   7.973   2.639   1.731
 9569TIP3    H128652   7.965   2.678   1.818
 9569TIP3    H228653   8.003   2.710   1.675
 9570TIP3   OH228654   8.145   3.881   3.389
 9570TIP3    H128655   8.137   3.966   3.432
 9570TIP3    H228656   8.157   3.819   3.461
 9571TIP3   OH228657   4.858   3.734   6.758
 9571TIP3    H128658   4.879   3.664   6.697
 9571TIP3    H228659   4.766   3.721   6.780
 9572TIP3   OH228660   5.097   2.081   1.030
 9572TIP3    H128661   5.007   2.055   1.048
 9572TIP3    H228662   5.094   2.176   1.026
 9573TIP3   OH228663   0.886   7.263   4.392
 9573TIP3    H128664   0.859   7.348   4.427
 9573TIP3    H228665   0.940   7.225   4.462
 9574TIP3   OH228666   5.605   0.292   1.477
 9574TIP3    H128667   5.515   0.279   1.506
 9574TIP3    H228668   5.658   0.276   1.555
 9575TIP3   OH228669   7.019   6.215   3.483
 9575TIP3    H128670   6.980   6.143   3.533
 9575TIP3    H228671   6.991   6.200   3.393
 9576TIP3   OH228672   5.251   5.422   2.522
 9576TIP3    H128673   5.321   5.470   2.565
 9576TIP3    H228674   5.204   5.487   2.470
 9577TIP3   OH228675   5.502   5.001   2.304
 9577TIP3    H128676   5.499   5.082   2.253
 9577TIP3    H228677   5.411   4.977   2.317
 9578TIP3   OH228678  -0.010   3.891   2.826
 9578TIP3    H128679   0.025   3.826   2.887
 9578TIP3    H228680   0.048   3.886   2.749
 9579TIP3   OH228681   6.784   6.951   4.777
 9579TIP3    H128682   6.698   6.926   4.745
 9579TIP3    H228683   6.809   6.881   4.837
 9580TIP3   OH228684   6.751   7.035   5.070
 9580TIP3    H128685   6.719   6.945   5.066
 9580TIP3    H228686   6.726   7.073   4.986
 9581TIP3   OH228687   6.671   3.000   4.097
 9581TIP3    H128688   6.748   2.968   4.144
 9581TIP3    H228689   6.607   3.019   4.166
 9582TIP3   OH228690   6.763   0.725   4.657
 9582TIP3    H128691   6.769   0.663   4.729
 9582TIP3    H228692   6.676   0.710   4.619
 9583TIP3   OH228693   7.851   6.874   1.593
 9583TIP3    H128694   7.922   6.935   1.615
 9583TIP3    H228695   7.856   6.806   1.659
 9584TIP3   OH228696   1.077   4.437   0.194
 9584TIP3    H128697   0.985   4.410   0.205
 9584TIP3    H228698   1.118   4.416   0.278
 9585TIP3   OH228699   1.789   2.462   3.020
 9585TIP3    H128700   1.857   2.413   3.067
 9585TIP3    H228701   1.803   2.553   3.044
 9586TIP3   OH228702   3.590   7.727   6.275
 9586TIP3    H128703   3.671   7.711   6.323
 9586TIP3    H228704   3.524   7.675   6.321
 9587TIP3   OH228705   7.615   4.124   6.695
 9587TIP3    H128706   7.646   4.202   6.647
 9587TIP3    H228707   7.532   4.102   6.652
 9588TIP3   OH228708   7.755   0.195   5.854
 9588TIP3    H128709   7.672   0.170   5.815
 9588TIP3    H228710   7.746   0.289   5.872
 9589TIP3   OH228711   3.838   2.671   3.953
 9589TIP3    H128712   3.894   2.746   3.932
 9589TIP3    H228713   3.759   2.685   3.901
 9590TIP3   OH228714   7.983   4.606   6.170
 9590TIP3    H128715   7.943   4.530   6.127
 9590TIP3    H228716   8.067   4.573   6.203
 9591TIP3   OH228717   3.568   0.794   1.595
 9591TIP3    H128718   3.564   0.842   1.512
 9591TIP3    H228719   3.650   0.744   1.589
 9592TIP3   OH228720  -0.025   2.662   3.211
 9592TIP3    H128721   0.010   2.592   3.156
 9592TIP3    H228722   0.037   2.734   3.201
 9593TIP3   OH228723   1.223   1.937   5.503
 9593TIP3    H128724   1.261   1.928   5.590
 9593TIP3    H228725   1.206   1.847   5.475
 9594TIP3   OH228726   0.591   5.466   4.235
 9594TIP3    H128727   0.635   5.396   4.188
 9594TIP3    H228728   0.617   5.454   4.326
 9595TIP3   OH228729   0.162   2.586   0.102
 9595TIP3    H128730   0.072   2.557   0.084
 9595TIP3    H228731   0.175   2.660   0.043
 9596TIP3   OH228732   1.179   2.104   6.669
 9596TIP3    H128733   1.157   2.109   6.576
 9596TIP3    H228734   1.094   2.107   6.714
 9597TIP3   OH228735   2.941   0.481   1.918
 9597TIP3    H128736   3.009   0.541   1.888
 9597TIP3    H228737   2.862   0.510   1.874
 9598TIP3   OH228738   8.023   6.925   3.892
 9598TIP3    H128739   8.064   6.844   3.921
 9598TIP3    H228740   8.006   6.974   3.973
 9599TIP3   OH228741   1.223   0.686   3.131
 9599TIP3    H128742   1.282   0.755   3.103
 9599TIP3    H228743   1.275   0.606   3.124
 9600TIP3   OH228744   8.136   1.112   5.928
 9600TIP3    H128745   8.130   1.075   6.016
 9600TIP3    H228746   8.219   1.079   5.893
 9601TIP3   OH228747   4.281   4.217   3.176
 9601TIP3    H128748   4.348   4.165   3.221
 9601TIP3    H228749   4.298   4.307   3.204
 9602TIP3   OH228750   5.051   6.118   0.591
 9602TIP3    H128751   5.027   6.122   0.498
 9602TIP3    H228752   5.108   6.194   0.603
 9603TIP3   OH228753   2.335   7.051   1.125
 9603TIP3    H128754   2.401   7.104   1.081
 9603TIP3    H228755   2.328   6.971   1.072
 9604TIP3   OH228756   1.632   1.676   0.386
 9604TIP3    H128757   1.669   1.598   0.427
 9604TIP3    H228758   1.633   1.742   0.455
 9605TIP3   OH228759   8.010   5.403   0.635
 9605TIP3    H128760   7.961   5.325   0.609
 9605TIP3    H228761   7.944   5.464   0.665
 9606TIP3   OH228762   5.506   3.780   0.220
 9606TIP3    H128763   5.491   3.866   0.179
 9606TIP3    H228764   5.494   3.796   0.313
 9607TIP3   OH228765   5.093   6.541   0.114
 9607TIP3    H128766   5.127   6.602   0.049
 9607TIP3    H228767   5.000   6.563   0.121
 9608TIP3   OH228768   0.847   3.176   2.505
 9608TIP3    H128769   0.904   3.178   2.581
 9608TIP3    H228770   0.825   3.268   2.489
 9609TIP3   OH228771   1.348   3.844   0.031
 9609TIP3    H128772   1.355   3.813   0.121
 9609TIP3    H228773   1.326   3.937   0.040
 9610TIP3   OH228774   5.382   1.467   1.705
 9610TIP3    H128775   5.356   1.477   1.613
 9610TIP3    H228776   5.336   1.388   1.734
 9611TIP3   OH228777   2.445   3.896   1.050
 9611TIP3    H128778   2.527   3.889   1.098
 9611TIP3    H228779   2.420   3.988   1.058
 9612TIP3   OH228780   8.171   2.214   0.491
 9612TIP3    H128781   8.256   2.171   0.501
 9612TIP3    H228782   8.171   2.282   0.559
 9613TIP3   OH228783   6.083   3.973   1.362
 9613TIP3    H128784   6.158   3.980   1.422
 9613TIP3    H228785   6.117   3.925   1.287
 9614TIP3   OH228786   4.303   2.415   3.403
 9614TIP3    H128787   4.259   2.495   3.375
 9614TIP3    H228788   4.258   2.344   3.355
 9615TIP3   OH228789   5.111   4.549   5.870
 9615TIP3    H128790   5.134   4.499   5.948
 9615TIP3    H228791   5.082   4.634   5.904
 9616TIP3   OH228792   4.733   2.476   0.880
 9616TIP3    H128793   4.765   2.563   0.901
 9616TIP3    H228794   4.807   2.433   0.837
 9617TIP3   OH228795   4.019   4.226   1.930
 9617TIP3    H128796   3.991   4.136   1.916
 9617TIP3    H228797   4.093   4.237   1.870
 9618TIP3   OH228798   8.296   3.907  -0.007
 9618TIP3    H128799   8.209   3.913   0.031
 9618TIP3    H228800   8.353   3.950   0.057
 9619TIP3   OH228801   6.144   1.262   6.628
 9619TIP3    H128802   6.200   1.274   6.705
 9619TIP3    H228803   6.055   1.259   6.663
 9620TIP3   OH228804   1.215   6.697   5.265
 9620TIP3    H128805   1.200   6.616   5.313
 9620TIP3    H228806   1.160   6.688   5.187
 9621TIP3   OH228807   6.874   0.511   1.181
 9621TIP3    H128808   6.924   0.554   1.251
 9621TIP3    H228809   6.857   0.580   1.117
 9622TIP3   OH228810   2.639   1.845   1.661
 9622TIP3    H128811   2.643   1.774   1.726
 9622TIP3    H228812   2.614   1.802   1.580
 9623TIP3   OH228813   6.878   2.096   2.125
 9623TIP3    H128814   6.889   2.026   2.191
 9623TIP3    H228815   6.826   2.056   2.056
 9624TIP3   OH228816   0.343   0.936   1.920
 9624TIP3    H128817   0.420   0.880   1.911
 9624TIP3    H228818   0.269   0.875   1.921
 9625TIP3   OH228819   1.663   1.392   2.806
 9625TIP3    H128820   1.694   1.410   2.895
 9625TIP3    H228821   1.743   1.375   2.756
 9626TIP3   OH228822   8.002   0.144   5.707
 9626TIP3    H128823   7.943   0.128   5.781
 9626TIP3    H228824   7.968   0.223   5.665
 9627TIP3   OH228825   7.838   7.777   6.111
 9627TIP3    H128826   7.754   7.789   6.153
 9627TIP3    H228827   7.825   7.702   6.052
 9628TIP3   OH228828   7.476   6.981   1.290
 9628TIP3    H128829   7.442   6.962   1.377
 9628TIP3    H228830   7.416   7.046   1.254
 9629TIP3   OH228831   1.874   3.215   4.296
 9629TIP3    H128832   1.782   3.191   4.299
 9629TIP3    H228833   1.874   3.310   4.308
 9630TIP3   OH228834   1.156   3.655   0.382
 9630TIP3    H128835   1.064   3.672   0.363
 9630TIP3    H228836   1.156   3.624   0.472
 9631TIP3   OH228837   2.458   3.205   6.571
 9631TIP3    H128838   2.535   3.238   6.524
 9631TIP3    H228839   2.481   3.116   6.597
 9632TIP3   OH228840   8.076   2.826   0.311
 9632TIP3    H128841   8.119   2.785   0.235
 9632TIP3    H228842   8.134   2.899   0.335
 9633TIP3   OH228843   6.374   2.573   5.682
 9633TIP3    H128844   6.453   2.579   5.736
 9633TIP3    H228845   6.315   2.639   5.718
 9634TIP3   OH228846   7.751   0.580   0.083
 9634TIP3    H128847   7.833   0.601   0.038
 9634TIP3    H228848   7.774   0.579   0.176
 9635TIP3   OH228849   7.099   2.365   4.592
 9635TIP3    H128850   7.192   2.386   4.591
 9635TIP3    H228851   7.080   2.342   4.683
 9636TIP3   OH228852   0.420   1.554   0.965
 9636TIP3    H128853   0.502   1.561   1.013
 9636TIP3    H228854   0.379   1.640   0.974
 9637TIP3   OH228855   6.715   2.742   5.956
 9637TIP3    H128856   6.726   2.647   5.944
 9637TIP3    H228857   6.768   2.763   6.032
 9638TIP3   OH228858   6.675   5.814   2.225
 9638TIP3    H128859   6.755   5.834   2.177
 9638TIP3    H228860   6.703   5.757   2.296
 9639TIP3   OH228861   4.272   5.318   6.639
 9639TIP3    H128862   4.208   5.330   6.709
 9639TIP3    H228863   4.357   5.324   6.683
 9640TIP3   OH228864   0.303   0.632   1.902
 9640TIP3    H128865   0.384   0.679   1.883
 9640TIP3    H228866   0.279   0.591   1.819
 9641TIP3   OH228867   2.941   3.663   0.260
 9641TIP3    H128868   3.001   3.599   0.221
 9641TIP3    H228869   2.918   3.627   0.345
 9642TIP3   OH228870   6.907   1.766   3.911
 9642TIP3    H128871   6.855   1.783   3.990
 9642TIP3    H228872   6.916   1.852   3.870
 9643TIP3   OH228873   8.053   1.725   0.805
 9643TIP3    H128874   7.981   1.665   0.826
 9643TIP3    H228875   8.014   1.791   0.749
 9644TIP3   OH228876   1.579   1.995   0.173
 9644TIP3    H128877   1.657   2.043   0.147
 9644TIP3    H228878   1.596   1.968   0.264
 9645TIP3   OH228879   3.714   6.280   2.853
 9645TIP3    H128880   3.621   6.268   2.833
 9645TIP3    H228881   3.746   6.336   2.783
 9646TIP3   OH228882   2.751   4.532   4.429
 9646TIP3    H128883   2.709   4.454   4.464
 9646TIP3    H228884   2.792   4.574   4.505
 9647TIP3   OH228885   5.971   5.217   2.859
 9647TIP3    H128886   5.924   5.254   2.934
 9647TIP3    H228887   5.966   5.285   2.792
 9648TIP3   OH228888   7.128   3.845   0.087
 9648TIP3    H128889   7.146   3.767   0.139
 9648TIP3    H228890   7.090   3.812   0.006
 9649TIP3   OH228891   4.737   4.633   6.287
 9649TIP3    H128892   4.700   4.669   6.207
 9649TIP3    H228893   4.761   4.543   6.264
 9650TIP3   OH228894   7.642   0.523   2.235
 9650TIP3    H128895   7.606   0.579   2.166
 9650TIP3    H228896   7.599   0.554   2.315
 9651TIP3   OH228897   2.071   6.036   5.324
 9651TIP3    H128898   2.079   6.112   5.381
 9651TIP3    H228899   2.161   6.014   5.301
 9652TIP3   OH228900   2.807   5.219   1.086
 9652TIP3    H128901   2.847   5.305   1.068
 9652TIP3    H228902   2.713   5.236   1.087
 9653TIP3   OH228903   5.429   5.858   3.762
 9653TIP3    H128904   5.503   5.820   3.809
 9653TIP3    H228905   5.446   5.836   3.670
 9654TIP3   OH228906   5.907   6.108   0.979
 9654TIP3    H128907   5.881   6.032   0.927
 9654TIP3    H228908   6.003   6.101   0.985
 9655TIP3   OH228909   6.588   0.529   5.995
 9655TIP3    H128910   6.598   0.438   6.023
 9655TIP3    H228911   6.637   0.534   5.913
 9656TIP3   OH228912   7.350   6.355   6.703
 9656TIP3    H128913   7.359   6.322   6.614
 9656TIP3    H228914   7.326   6.278   6.755
 9657TIP3   OH228915   0.647   7.101   4.324
 9657TIP3    H128916   0.637   7.012   4.357
 9657TIP3    H228917   0.740   7.122   4.337
 9658TIP3   OH228918   5.205   2.858   5.261
 9658TIP3    H128919   5.112   2.856   5.280
 9658TIP3    H228920   5.210   2.872   5.166
 9659TIP3   OH228921   0.479   4.988   0.751
 9659TIP3    H128922   0.394   5.019   0.783
 9659TIP3    H228923   0.464   4.968   0.658
 9660TIP3   OH228924   0.385   0.808   6.565
 9660TIP3    H128925   0.468   0.811   6.519
 9660TIP3    H228926   0.322   0.776   6.500
 9661TIP3   OH228927   0.063   0.833   1.523
 9661TIP3    H128928   0.019   0.751   1.501
 9661TIP3    H228929  -0.001   0.881   1.575
 9662TIP3   OH228930   1.983   0.279   3.430
 9662TIP3    H128931   1.982   0.245   3.341
 9662TIP3    H228932   1.986   0.202   3.486
 9663TIP3   OH228933   0.345   7.662   0.916
 9663TIP3    H128934   0.289   7.590   0.888
 9663TIP3    H228935   0.323   7.676   1.008
 9664TIP3   OH228936   7.197   7.362   6.149
 9664TIP3    H128937   7.131   7.298   6.176
 9664TIP3    H228938   7.197   7.357   6.053
 9665TIP3   OH228939   7.492   5.588   3.777
 9665TIP3    H128940   7.551   5.554   3.709
 9665TIP3    H228941   7.551   5.632   3.839
 9666TIP3   OH228942   0.882   1.607   3.682
 9666TIP3    H128943   0.952   1.611   3.616
 9666TIP3    H228944   0.806   1.646   3.639
 9667TIP3   OH228945   7.821   4.065   5.883
 9667TIP3    H128946   7.755   4.109   5.936
 9667TIP3    H228947   7.772   4.003   5.829
 9668TIP3   OH228948   0.882   6.603   6.678
 9668TIP3    H128949   0.800   6.553   6.680
 9668TIP3    H228950   0.879   6.657   6.756
 9669TIP3   OH228951   0.296   7.855   3.893
 9669TIP3    H128952   0.279   7.817   3.806
 9669TIP3    H228953   0.222   7.828   3.946
 9670TIP3   OH228954   7.194   3.404   4.947
 9670TIP3    H128955   7.232   3.317   4.961
 9670TIP3    H228956   7.103   3.388   4.922
 9671TIP3   OH228957   6.633   6.774   5.659
 9671TIP3    H128958   6.549   6.813   5.634
 9671TIP3    H228959   6.614   6.727   5.741
 9672TIP3   OH228960   7.633   6.730   1.928
 9672TIP3    H128961   7.554   6.691   1.889
 9672TIP3    H228962   7.643   6.684   2.012
 9673TIP3   OH228963   5.430   2.001   3.494
 9673TIP3    H128964   5.489   1.926   3.482
 9673TIP3    H228965   5.472   2.054   3.561
 9674TIP3   OH228966   5.982   7.742   4.619
 9674TIP3    H128967   5.994   7.805   4.689
 9674TIP3    H228968   5.992   7.657   4.661
 9675TIP3   OH228969   2.633   0.257   1.275
 9675TIP3    H128970   2.607   0.349   1.285
 9675TIP3    H228971   2.630   0.222   1.364
 9676TIP3   OH228972   2.805   6.872   0.692
 9676TIP3    H128973   2.837   6.938   0.630
 9676TIP3    H228974   2.855   6.793   0.669
 9677TIP3   OH228975   1.743   3.983   1.454
 9677TIP3    H128976   1.833   3.955   1.469
 9677TIP3    H228977   1.703   3.985   1.541
 9678TIP3   OH228978   0.204   2.076   0.521
 9678TIP3    H128979   0.145   2.004   0.501
 9678TIP3    H228980   0.290   2.035   0.533
 9679TIP3   OH228981   3.605   4.602   4.166
 9679TIP3    H128982   3.514   4.609   4.195
 9679TIP3    H228983   3.656   4.630   4.242
 9680TIP3   OH228984   2.533   5.283   0.912
 9680TIP3    H128985   2.481   5.208   0.882
 9680TIP3    H228986   2.572   5.318   0.832
 9681TIP3   OH228987   8.052   6.773   6.139
 9681TIP3    H128988   8.096   6.723   6.208
 9681TIP3    H228989   8.109   6.764   6.063
 9682TIP3   OH228990   3.110   5.835   0.649
 9682TIP3    H128991   3.060   5.887   0.711
 9682TIP3    H228992   3.058   5.836   0.568
 9683TIP3   OH228993   4.525   2.090   0.610
 9683TIP3    H128994   4.600   2.080   0.669
 9683TIP3    H228995   4.550   2.042   0.532
 9684TIP3   OH228996   4.192   1.337   2.077
 9684TIP3    H128997   4.230   1.408   2.026
 9684TIP3    H228998   4.116   1.376   2.120
 9685TIP3   OH228999   4.289   3.030   3.623
 9685TIP3    H129000   4.375   3.007   3.587
 9685TIP3    H229001   4.309   3.080   3.702
 9686TIP3   OH229002   0.307   4.057   1.669
 9686TIP3    H129003   0.264   4.069   1.754
 9686TIP3    H229004   0.272   4.127   1.614
 9687TIP3   OH229005   6.774   4.717   3.586
 9687TIP3    H129006   6.701   4.767   3.624
 9687TIP3    H229007   6.734   4.668   3.514
 9688TIP3   OH229008   1.898   6.235   3.769
 9688TIP3    H129009   1.811   6.257   3.804
 9688TIP3    H229010   1.958   6.292   3.817
 9689TIP3   OH229011   5.551   5.716   5.424
 9689TIP3    H129012   5.600   5.711   5.342
 9689TIP3    H229013   5.616   5.705   5.493
 9690TIP3   OH229014   2.439   7.197   4.789
 9690TIP3    H129015   2.523   7.183   4.832
 9690TIP3    H229016   2.375   7.192   4.860
 9691TIP3   OH229017   7.095   1.581   3.847
 9691TIP3    H129018   7.031   1.650   3.866
 9691TIP3    H229019   7.111   1.587   3.753
 9692TIP3   OH229020   0.622   3.950   5.745
 9692TIP3    H129021   0.708   3.992   5.753
 9692TIP3    H229022   0.619   3.919   5.654
 9693TIP3   OH229023   1.394   3.937   3.472
 9693TIP3    H129024   1.313   3.937   3.422
 9693TIP3    H229025   1.398   3.850   3.512
 9694TIP3   OH229026   1.759   3.056   1.410
 9694TIP3    H129027   1.853   3.044   1.405
 9694TIP3    H229028   1.742   3.084   1.500
 9695TIP3   OH229029   7.160   2.903   1.540
 9695TIP3    H129030   7.095   2.836   1.562
 9695TIP3    H229031   7.123   2.984   1.576
 9696TIP3   OH229032   2.794   1.732   6.718
 9696TIP3    H129033   2.819   1.824   6.718
 9696TIP3    H229034   2.716   1.728   6.662
 9697TIP3   OH229035   3.862   2.264   5.595
 9697TIP3    H129036   3.894   2.341   5.641
 9697TIP3    H229037   3.899   2.271   5.507
 9698TIP3   OH229038   5.651   6.013   4.248
 9698TIP3    H129039   5.744   5.995   4.236
 9698TIP3    H229040   5.608   5.959   4.182
 9699TIP3   OH229041   1.241   4.468   0.633
 9699TIP3    H129042   1.220   4.416   0.555
 9699TIP3    H229043   1.156   4.497   0.666
 9700TIP3   OH229044   0.946   4.118   4.012
 9700TIP3    H129045   0.971   4.087   3.925
 9700TIP3    H229046   1.029   4.145   4.052
 9701TIP3   OH229047   1.535   6.312   0.764
 9701TIP3    H129048   1.496   6.224   0.759
 9701TIP3    H229049   1.620   6.298   0.805
 9702TIP3   OH229050   5.324   6.857   4.947
 9702TIP3    H129051   5.387   6.786   4.933
 9702TIP3    H229052   5.241   6.812   4.964
 9703TIP3   OH229053   1.790   7.079   4.063
 9703TIP3    H129054   1.860   7.141   4.041
 9703TIP3    H229055   1.730   7.130   4.117
 9704TIP3   OH229056   7.224   4.254   5.486
 9704TIP3    H129057   7.227   4.339   5.530
 9704TIP3    H229058   7.261   4.271   5.399
 9705TIP3   OH229059   0.227   0.531   0.412
 9705TIP3    H129060   0.193   0.621   0.410
 9705TIP3    H229061   0.307   0.535   0.360
 9706TIP3   OH229062   5.599   1.026   2.439
 9706TIP3    H129063   5.670   0.982   2.486
 9706TIP3    H229064   5.641   1.099   2.394
 9707TIP3   OH229065   1.964   4.190   1.286
 9707TIP3    H129066   2.034   4.251   1.266
 9707TIP3    H229067   1.924   4.170   1.201
 9708TIP3   OH229068   6.426   2.246   3.165
 9708TIP3    H129069   6.507   2.195   3.168
 9708TIP3    H229070   6.402   2.248   3.073
 9709TIP3   OH229071   8.172   2.586   1.157
 9709TIP3    H129072   8.114   2.623   1.224
 9709TIP3    H229073   8.194   2.660   1.101
 9710TIP3   OH229074   7.669   2.608   0.756
 9710TIP3    H129075   7.731   2.662   0.706
 9710TIP3    H229076   7.625   2.669   0.813
 9711TIP3   OH229077   2.122   4.312   2.739
 9711TIP3    H129078   2.213   4.284   2.747
 9711TIP3    H229079   2.080   4.283   2.820
 9712TIP3   OH229080   2.860   4.774   0.412
 9712TIP3    H129081   2.949   4.747   0.430
 9712TIP3    H229082   2.805   4.713   0.462
 9713TIP3   OH229083   4.022   1.116   5.675
 9713TIP3    H129084   4.051   1.025   5.675
 9713TIP3    H229085   4.004   1.136   5.583
 9714TIP3   OH229086   3.221   4.939   0.155
 9714TIP3    H129087   3.229   4.917   0.248
 9714TIP3    H229088   3.182   5.026   0.154
 9715TIP3   OH229089   0.836   3.552   5.964
 9715TIP3    H129090   0.748   3.587   5.952
 9715TIP3    H229091   0.831   3.500   6.044
 9716TIP3   OH229092   1.848   7.335   2.861
 9716TIP3    H129093   1.921   7.284   2.897
 9716TIP3    H229094   1.790   7.349   2.935
 9717TIP3   OH229095   6.783   5.114   4.655
 9717TIP3    H129096   6.873   5.111   4.686
 9717TIP3    H229097   6.789   5.160   4.571
 9718TIP3   OH229098   0.084   5.058   2.077
 9718TIP3    H129099   0.121   5.076   1.990
 9718TIP3    H229100   0.102   4.965   2.091
 9719TIP3   OH229101   7.571   2.164   0.603
 9719TIP3    H129102   7.522   2.127   0.530
 9719TIP3    H229103   7.663   2.149   0.580
 9720TIP3   OH229104   2.157   2.379   6.013
 9720TIP3    H129105   2.096   2.327   6.066
 9720TIP3    H229106   2.164   2.331   5.931
 9721TIP3   OH229107   4.111   4.627   4.865
 9721TIP3    H129108   4.027   4.651   4.826
 9721TIP3    H229109   4.174   4.684   4.822
 9722TIP3   OH229110   5.062   7.090   2.437
 9722TIP3    H129111   5.054   7.185   2.436
 9722TIP3    H229112   5.104   7.070   2.520
 9723TIP3   OH229113   2.318   2.459   0.981
 9723TIP3    H129114   2.359   2.519   0.919
 9723TIP3    H229115   2.232   2.441   0.944
 9724TIP3   OH229116   1.966   2.710   0.806
 9724TIP3    H129117   2.028   2.638   0.819
 9724TIP3    H229118   2.005   2.784   0.852
 9725TIP3   OH229119   5.827   2.910   3.870
 9725TIP3    H129120   5.884   2.873   3.803
 9725TIP3    H229121   5.869   2.887   3.953
 9726TIP3   OH229122   6.029   4.953   3.910
 9726TIP3    H129123   6.091   4.891   3.947
 9726TIP3    H229124   6.081   5.031   3.891
 9727TIP3   OH229125   5.988   4.873   2.287
 9727TIP3    H129126   5.905   4.828   2.307
 9727TIP3    H229127   5.970   4.965   2.305
 9728TIP3   OH229128   3.310   5.723   3.943
 9728TIP3    H129129   3.404   5.739   3.931
 9728TIP3    H229130   3.301   5.700   4.035
 9729TIP3   OH229131   2.871   0.389   4.044
 9729TIP3    H129132   2.832   0.303   4.028
 9729TIP3    H229133   2.799   0.451   4.030
 9730TIP3   OH229134   5.471   4.342   3.246
 9730TIP3    H129135   5.541   4.283   3.220
 9730TIP3    H229136   5.487   4.422   3.195
 9731TIP3   OH229137   0.653   0.576   4.907
 9731TIP3    H129138   0.725   0.639   4.905
 9731TIP3    H229139   0.669   0.524   4.985
 9732TIP3   OH229140   1.926   4.144   0.998
 9732TIP3    H129141   1.997   4.098   0.952
 9732TIP3    H229142   1.881   4.192   0.929
 9733TIP3   OH229143   7.384   2.316   5.921
 9733TIP3    H129144   7.321   2.245   5.931
 9733TIP3    H229145   7.363   2.377   5.992
 9734TIP3   OH229146   2.847   7.371   2.635
 9734TIP3    H129147   2.823   7.368   2.727
 9734TIP3    H229148   2.942   7.358   2.634
 9735TIP3   OH229149   2.848   4.101   6.579
 9735TIP3    H129150   2.908   4.039   6.621
 9735TIP3    H229151   2.761   4.066   6.599
 9736TIP3   OH229152   8.155   2.741   4.403
 9736TIP3    H129153   8.181   2.661   4.358
 9736TIP3    H229154   8.137   2.804   4.333
 9737TIP3   OH229155   2.377   6.334   4.741
 9737TIP3    H129156   2.357   6.363   4.652
 9737TIP3    H229157   2.432   6.404   4.777
 9738TIP3   OH229158   1.982   0.145   2.422
 9738TIP3    H129159   1.981   0.051   2.402
 9738TIP3    H229160   1.968   0.188   2.338
 9739TIP3   OH229161   6.537   4.077   1.367
 9739TIP3    H129162   6.627   4.097   1.393
 9739TIP3    H229163   6.504   4.160   1.332
 9740TIP3   OH229164   0.526   4.805   2.172
 9740TIP3    H129165   0.454   4.748   2.199
 9740TIP3    H229166   0.573   4.824   2.253
 9741TIP3   OH229167   3.267   4.659   2.239
 9741TIP3    H129168   3.253   4.592   2.172
 9741TIP3    H229169   3.227   4.622   2.318
 9742TIP3   OH229170   5.119   2.535   1.465
 9742TIP3    H129171   5.144   2.447   1.436
 9742TIP3    H229172   5.202   2.581   1.476
 9743TIP3   OH229173   7.530   3.714   3.898
 9743TIP3    H129174   7.448   3.666   3.890
 9743TIP3    H229175   7.553   3.738   3.808
 9744TIP3   OH229176   1.997   3.842   4.918
 9744TIP3    H129177   1.972   3.761   4.962
 9744TIP3    H229178   1.944   3.910   4.961
 9745TIP3   OH229179   8.222   1.816   4.645
 9745TIP3    H129180   8.240   1.722   4.655
 9745TIP3    H229181   8.155   1.820   4.576
 9746TIP3   OH229182   1.148   2.096   6.369
 9746TIP3    H129183   1.053   2.103   6.377
 9746TIP3    H229184   1.166   2.002   6.372
 9747TIP3   OH229185   2.661   5.607   4.725
 9747TIP3    H129186   2.622   5.684   4.768
 9747TIP3    H229187   2.632   5.613   4.634
 9748TIP3   OH229188   1.581   0.848   3.418
 9748TIP3    H129189   1.566   0.756   3.398
 9748TIP3    H229190   1.676   0.857   3.423
 9749TIP3   OH229191   2.061   0.418   4.996
 9749TIP3    H129192   2.134   0.413   5.057
 9749TIP3    H229193   2.086   0.361   4.923
 9750TIP3   OH229194   6.156   0.399   3.764
 9750TIP3    H129195   6.204   0.425   3.843
 9750TIP3    H229196   6.224   0.374   3.702
 9751TIP3   OH229197   6.461   6.030   6.384
 9751TIP3    H129198   6.399   5.957   6.385
 9751TIP3    H229199   6.407   6.107   6.367
 9752TIP3   OH229200   5.214   2.219   4.847
 9752TIP3    H129201   5.218   2.130   4.813
 9752TIP3    H229202   5.148   2.216   4.917
 9753TIP3   OH229203   0.430   1.151   5.746
 9753TIP3    H129204   0.370   1.158   5.672
 9753TIP3    H229205   0.497   1.089   5.717
 9754TIP3   OH229206   8.087   3.541   1.652
 9754TIP3    H129207   8.117   3.468   1.597
 9754TIP3    H229208   8.041   3.599   1.592
 9755TIP3   OH229209   2.866   5.849   5.442
 9755TIP3    H129210   2.806   5.788   5.485
 9755TIP3    H229211   2.946   5.798   5.428
 9756TIP3   OH229212   0.066   2.631   4.794
 9756TIP3    H129213   0.137   2.577   4.828
 9756TIP3    H229214   0.104   2.718   4.783
 9757TIP3   OH229215   0.549   3.270   0.213
 9757TIP3    H129216   0.600   3.254   0.292
 9757TIP3    H229217   0.527   3.183   0.180
 9758TIP3   OH229218   1.923   7.592   3.937
 9758TIP3    H129219   1.978   7.579   3.859
 9758TIP3    H229220   1.984   7.588   4.010
 9759TIP3   OH229221   6.832   0.733   0.250
 9759TIP3    H129222   6.839   0.656   0.307
 9759TIP3    H229223   6.850   0.807   0.307
 9760TIP3   OH229224   1.008   5.138   1.608
 9760TIP3    H129225   0.930   5.135   1.552
 9760TIP3    H229226   0.993   5.212   1.667
 9761TIP3   OH229227   1.881   0.284   2.189
 9761TIP3    H129228   1.972   0.274   2.161
 9761TIP3    H229229   1.832   0.294   2.107
 9762TIP3   OH229230   3.001   1.623   6.471
 9762TIP3    H129231   2.987   1.554   6.406
 9762TIP3    H229232   2.973   1.584   6.554
 9763TIP3   OH229233   6.441   0.778   2.983
 9763TIP3    H129234   6.477   0.866   2.971
 9763TIP3    H229235   6.358   0.792   3.028
 9764TIP3   OH229236   4.367   0.501   1.966
 9764TIP3    H129237   4.340   0.458   1.885
 9764TIP3    H229238   4.414   0.434   2.015
 9765TIP3   OH229239   6.601   2.406   6.201
 9765TIP3    H129240   6.596   2.388   6.295
 9765TIP3    H229241   6.695   2.411   6.182
 9766TIP3   OH229242   1.782   3.445   2.885
 9766TIP3    H129243   1.762   3.394   2.963
 9766TIP3    H229244   1.728   3.524   2.893
 9767TIP3   OH229245   1.480   6.515   3.229
 9767TIP3    H129246   1.434   6.458   3.167
 9767TIP3    H229247   1.573   6.500   3.209
 9768TIP3   OH229248   7.584   3.165   2.359
 9768TIP3    H129249   7.535   3.142   2.280
 9768TIP3    H229250   7.521   3.156   2.430
 9769TIP3   OH229251   7.670   6.118   0.483
 9769TIP3    H129252   7.630   6.204   0.469
 9769TIP3    H229253   7.742   6.114   0.420
 9770TIP3   OH229254   3.474   0.474   1.560
 9770TIP3    H129255   3.423   0.460   1.640
 9770TIP3    H229256   3.416   0.527   1.504
 9771TIP3   OH229257   8.191   4.198   5.339
 9771TIP3    H129258   8.250   4.124   5.325
 9771TIP3    H229259   8.221   4.237   5.421
 9772TIP3   OH229260   4.499   4.939   3.558
 9772TIP3    H129261   4.586   4.977   3.553
 9772TIP3    H229262   4.469   4.957   3.647
 9773TIP3   OH229263   3.061   7.073   6.522
 9773TIP3    H129264   2.997   7.006   6.500
 9773TIP3    H229265   3.132   7.061   6.459
 9774TIP3   OH229266   3.382   2.447   3.877
 9774TIP3    H129267   3.297   2.456   3.920
 9774TIP3    H229268   3.397   2.531   3.834
 9775TIP3   OH229269   4.810   5.107   1.500
 9775TIP3    H129270   4.757   5.033   1.529
 9775TIP3    H229271   4.746   5.174   1.476
 9776TIP3   OH229272   3.613   7.063   1.883
 9776TIP3    H129273   3.588   6.977   1.851
 9776TIP3    H229274   3.700   7.050   1.922
 9777TIP3   OH229275   0.288   4.508   5.695
 9777TIP3    H129276   0.367   4.527   5.644
 9777TIP3    H229277   0.225   4.476   5.631
 9778TIP3   OH229278   7.196   6.447   5.956
 9778TIP3    H129279   7.255   6.450   5.880
 9778TIP3    H229280   7.252   6.472   6.030
 9779TIP3   OH229281   1.860   7.715   1.836
 9779TIP3    H129282   1.937   7.769   1.816
 9779TIP3    H229283   1.896   7.628   1.853
 9780TIP3   OH229284   6.282   4.481   5.570
 9780TIP3    H129285   6.300   4.457   5.479
 9780TIP3    H229286   6.290   4.398   5.618
 9781TIP3   OH229287   3.737   6.329   6.123
 9781TIP3    H129288   3.802   6.336   6.053
 9781TIP3    H229289   3.765   6.394   6.188
 9782TIP3   OH229290   6.946   4.684   0.286
 9782TIP3    H129291   6.863   4.636   0.286
 9782TIP3    H229292   6.973   4.686   0.378
 9783TIP3   OH229293   6.134   0.659   2.302
 9783TIP3    H129294   6.109   0.581   2.350
 9783TIP3    H229295   6.077   0.660   2.225
 9784TIP3   OH229296   2.971   0.088   2.263
 9784TIP3    H129297   2.879   0.073   2.288
 9784TIP3    H229298   2.978   0.183   2.255
 9785TIP3   OH229299   3.667   6.494   5.831
 9785TIP3    H129300   3.613   6.437   5.776
 9785TIP3    H229301   3.615   6.506   5.911
 9786TIP3   OH229302   0.024   7.449   2.320
 9786TIP3    H129303   0.095   7.384   2.314
 9786TIP3    H229304   0.045   7.500   2.398
 9787TIP3   OH229305   7.796   0.129   3.262
 9787TIP3    H129306   7.817   0.220   3.241
 9787TIP3    H229307   7.712   0.135   3.309
 9788TIP3   OH229308   8.093   2.074   5.325
 9788TIP3    H129309   8.112   1.990   5.367
 9788TIP3    H229310   8.101   2.139   5.396
 9789TIP3   OH229311   4.392   4.805   5.171
 9789TIP3    H129312   4.370   4.837   5.258
 9789TIP3    H229313   4.364   4.713   5.172
 9790TIP3   OH229314   6.591   1.254   1.837
 9790TIP3    H129315   6.565   1.345   1.824
 9790TIP3    H229316   6.510   1.208   1.857
 9791TIP3   OH229317   0.634   3.493   1.123
 9791TIP3    H129318   0.693   3.440   1.068
 9791TIP3    H229319   0.690   3.563   1.157
 9792TIP3   OH229320   0.563   2.590   6.694
 9792TIP3    H129321   0.553   2.574   6.788
 9792TIP3    H229322   0.494   2.538   6.653
 9793TIP3   OH229323   7.592   3.470   2.616
 9793TIP3    H129324   7.526   3.511   2.672
 9793TIP3    H229325   7.668   3.527   2.623
 9794TIP3   OH229326   3.810   1.555   5.821
 9794TIP3    H129327   3.899   1.587   5.805
 9794TIP3    H229328   3.772   1.545   5.733
 9795TIP3   OH229329   2.397   0.432   2.369
 9795TIP3    H129330   2.438   0.518   2.380
 9795TIP3    H229331   2.309   0.443   2.404
 9796TIP3   OH229332   0.874   0.690   1.994
 9796TIP3    H129333   0.806   0.637   1.954
 9796TIP3    H229334   0.911   0.741   1.922
 9797TIP3   OH229335   6.642   3.833   4.438
 9797TIP3    H129336   6.679   3.793   4.517
 9797TIP3    H229337   6.640   3.762   4.374
 9798TIP3   OH229338   3.666   4.143   3.585
 9798TIP3    H129339   3.741   4.163   3.530
 9798TIP3    H229340   3.664   4.212   3.651
 9799TIP3   OH229341   0.805   5.910   2.885
 9799TIP3    H129342   0.878   5.971   2.875
 9799TIP3    H229343   0.768   5.902   2.797
 9800TIP3   OH229344   2.053   4.528   2.151
 9800TIP3    H129345   2.020   4.563   2.234
 9800TIP3    H229346   1.975   4.500   2.104
 9801TIP3   OH229347   7.945   3.670   0.891
 9801TIP3    H129348   7.972   3.636   0.976
 9801TIP3    H229349   7.854   3.696   0.903
 9802TIP3   OH229350   0.064   6.586   4.441
 9802TIP3    H129351   0.006   6.545   4.506
 9802TIP3    H229352   0.141   6.613   4.492
 9803TIP3   OH229353   1.596   2.247   0.714
 9803TIP3    H129354   1.561   2.332   0.685
 9803TIP3    H229355   1.679   2.239   0.669
 9804TIP3   OH229356   2.918   3.209   3.143
 9804TIP3    H129357   2.910   3.125   3.190
 9804TIP3    H229358   2.879   3.273   3.202
 9805TIP3   OH229359   7.382   1.871   5.027
 9805TIP3    H129360   7.414   1.907   4.944
 9805TIP3    H229361   7.318   1.935   5.058
 9806TIP3   OH229362   4.355   7.095   4.759
 9806TIP3    H129363   4.292   7.130   4.822
 9806TIP3    H229364   4.434   7.148   4.772
 9807TIP3   OH229365   3.669   5.519   3.485
 9807TIP3    H129366   3.675   5.423   3.482
 9807TIP3    H229367   3.610   5.541   3.413
 9808TIP3   OH229368   5.425   2.230   5.087
 9808TIP3    H129369   5.376   2.184   5.155
 9808TIP3    H229370   5.358   2.273   5.034
 9809TIP3   OH229371   6.998   0.264   5.543
 9809TIP3    H129372   6.959   0.306   5.620
 9809TIP3    H229373   7.027   0.337   5.489
 9810TIP3   OH229374   2.385   1.320   6.367
 9810TIP3    H129375   2.302   1.358   6.337
 9810TIP3    H229376   2.368   1.226   6.371
 9811TIP3   OH229377   7.542   1.641   0.096
 9811TIP3    H129378   7.575   1.701   0.029
 9811TIP3    H229379   7.582   1.557   0.076
 9812TIP3   OH229380   7.267   2.542   0.175
 9812TIP3    H129381   7.241   2.634   0.162
 9812TIP3    H229382   7.187   2.498   0.201
 9813TIP3   OH229383   0.857   2.291   5.986
 9813TIP3    H129384   0.822   2.379   5.981
 9813TIP3    H229385   0.917   2.284   5.912
 9814TIP3   OH229386   3.771   2.292   6.390
 9814TIP3    H129387   3.813   2.233   6.453
 9814TIP3    H229388   3.818   2.278   6.308
 9815TIP3   OH229389   4.733   5.086   4.243
 9815TIP3    H129390   4.710   5.091   4.336
 9815TIP3    H229391   4.807   5.027   4.240
 9816TIP3   OH229392   4.333   3.065   5.251
 9816TIP3    H129393   4.245   3.071   5.287
 9816TIP3    H229394   4.348   3.148   5.207
 9817TIP3   OH229395   2.771   6.443   3.796
 9817TIP3    H129396   2.827   6.423   3.721
 9817TIP3    H229397   2.825   6.499   3.852
 9818TIP3   OH229398   5.938   1.796   5.798
 9818TIP3    H129399   5.901   1.755   5.876
 9818TIP3    H229400   5.863   1.835   5.753
 9819TIP3   OH229401   8.088   4.785   1.357
 9819TIP3    H129402   8.123   4.759   1.272
 9819TIP3    H229403   8.126   4.722   1.419
 9820TIP3   OH229404   4.602   2.964   1.417
 9820TIP3    H129405   4.511   2.993   1.410
 9820TIP3    H229406   4.653   3.036   1.381
 9821TIP3   OH229407   0.097   3.584   3.594
 9821TIP3    H129408   0.074   3.676   3.607
 9821TIP3    H229409   0.128   3.555   3.680
 9822TIP3   OH229410   2.813   2.151   5.355
 9822TIP3    H129411   2.853   2.124   5.438
 9822TIP3    H229412   2.768   2.073   5.324
 9823TIP3   OH229413   4.200   1.059   1.965
 9823TIP3    H129414   4.183   1.031   2.055
 9823TIP3    H229415   4.207   1.154   1.971
 9824TIP3   OH229416   0.175   3.348   1.381
 9824TIP3    H129417   0.259   3.335   1.336
 9824TIP3    H229418   0.185   3.301   1.464
 9825TIP3   OH229419   0.843   1.062   4.007
 9825TIP3    H129420   0.935   1.085   3.991
 9825TIP3    H229421   0.830   1.082   4.099
 9826TIP3   OH229422   2.266   0.910   0.887
 9826TIP3    H129423   2.350   0.944   0.916
 9826TIP3    H229424   2.236   0.855   0.959
 9827TIP3   OH229425   2.325   5.784   6.584
 9827TIP3    H129426   2.385   5.854   6.610
 9827TIP3    H229427   2.318   5.792   6.489
 9828TIP3   OH229428   0.117   2.727   6.062
 9828TIP3    H129429   0.181   2.669   6.021
 9828TIP3    H229430   0.055   2.748   5.991
 9829TIP3   OH229431   7.648   6.608   0.206
 9829TIP3    H129432   7.572   6.633   0.153
 9829TIP3    H229433   7.724   6.628   0.151
 9830TIP3   OH229434   7.216   3.045   1.859
 9830TIP3    H129435   7.278   3.014   1.792
 9830TIP3    H229436   7.249   3.130   1.885
 9831TIP3   OH229437   5.571   5.899   0.680
 9831TIP3    H129438   5.556   5.952   0.602
 9831TIP3    H229439   5.541   5.953   0.753
 9832TIP3   OH229440   5.754   7.038   1.652
 9832TIP3    H129441   5.738   6.952   1.615
 9832TIP3    H229442   5.847   7.037   1.677
 9833TIP3   OH229443   1.752   4.916   1.739
 9833TIP3    H129444   1.657   4.925   1.731
 9833TIP3    H229445   1.766   4.883   1.827
 9834TIP3   OH229446   4.011   7.723   3.113
 9834TIP3    H129447   3.946   7.782   3.152
 9834TIP3    H229448   4.066   7.781   3.060
 9835TIP3   OH229449   5.334   0.148   0.954
 9835TIP3    H129450   5.258   0.129   0.899
 9835TIP3    H229451   5.298   0.174   1.038
 9836TIP3   OH229452   0.778   5.933   1.052
 9836TIP3    H129453   0.795   5.925   0.958
 9836TIP3    H229454   0.806   6.022   1.073
 9837TIP3   OH229455   3.007   4.297   5.142
 9837TIP3    H129456   3.070   4.255   5.201
 9837TIP3    H229457   3.061   4.335   5.072
 9838TIP3   OH229458   4.189   3.984   5.886
 9838TIP3    H129459   4.152   4.002   5.972
 9838TIP3    H229460   4.246   3.908   5.899
 9839TIP3   OH229461   2.393   6.428   1.973
 9839TIP3    H129462   2.298   6.434   1.964
 9839TIP3    H229463   2.406   6.362   2.041
 9840TIP3   OH229464   4.113   3.275   5.120
 9840TIP3    H129465   4.200   3.267   5.080
 9840TIP3    H229466   4.122   3.347   5.183
 9841TIP3   OH229467   4.689   3.515   0.061
 9841TIP3    H129468   4.758   3.581   0.056
 9841TIP3    H229469   4.718   3.454   0.129
 9842TIP3   OH229470   3.915   5.745   0.027
 9842TIP3    H129471   3.854   5.786  -0.033
 9842TIP3    H229472   3.866   5.673   0.066
 9843TIP3   OH229473   0.729   3.464   1.881
 9843TIP3    H129474   0.709   3.410   1.805
 9843TIP3    H229475   0.643   3.484   1.919
 9844TIP3   OH229476   0.701   0.714   0.777
 9844TIP3    H129477   0.609   0.705   0.752
 9844TIP3    H229478   0.734   0.624   0.775
 9845TIP3   OH229479   7.014   5.982   5.112
 9845TIP3    H129480   6.984   6.059   5.064
 9845TIP3    H229481   7.023   6.012   5.203
 9846TIP3   OH229482   0.795   1.812   6.774
 9846TIP3    H129483   0.792   1.725   6.815
 9846TIP3    H229484   0.723   1.810   6.711
 9847TIP3   OH229485   2.432   2.652   4.478
 9847TIP3    H129486   2.484   2.691   4.548
 9847TIP3    H229487   2.356   2.709   4.469
 9848TIP3   OH229488   2.591   6.595   3.147
 9848TIP3    H129489   2.558   6.649   3.219
 9848TIP3    H229490   2.607   6.657   3.076
 9849TIP3   OH229491   5.318   6.105   4.652
 9849TIP3    H129492   5.262   6.098   4.574
 9849TIP3    H229493   5.387   6.041   4.638
 9850TIP3   OH229494   4.381   7.420   5.751
 9850TIP3    H129495   4.390   7.468   5.669
 9850TIP3    H229496   4.291   7.436   5.779
 9851TIP3   OH229497   6.947   2.546   6.510
 9851TIP3    H129498   6.859   2.520   6.483
 9851TIP3    H229499   6.981   2.471   6.558
 9852TIP3   OH229500   1.991   2.029   6.647
 9852TIP3    H129501   1.989   2.123   6.631
 9852TIP3    H229502   1.981   1.990   6.560
 9853TIP3   OH229503   5.784   5.825   5.291
 9853TIP3    H129504   5.869   5.847   5.251
 9853TIP3    H229505   5.797   5.842   5.385
 9854TIP3   OH229506   4.227   3.211   0.673
 9854TIP3    H129507   4.306   3.252   0.638
 9854TIP3    H229508   4.249   3.189   0.763
 9855TIP3   OH229509   5.120   2.567   5.220
 9855TIP3    H129510   5.163   2.579   5.135
 9855TIP3    H229511   5.192   2.554   5.282
 9856TIP3   OH229512   2.103   4.439   6.022
 9856TIP3    H129513   2.092   4.443   6.117
 9856TIP3    H229514   2.197   4.438   6.008
 9857TIP3   OH229515   7.126   4.243   3.053
 9857TIP3    H129516   7.109   4.244   3.148
 9857TIP3    H229517   7.041   4.264   3.014
 9858TIP3   OH229518   1.334   2.365   1.992
 9858TIP3    H129519   1.373   2.278   1.987
 9858TIP3    H229520   1.347   2.404   1.906
 9859TIP3   OH229521   1.106   5.725   2.711
 9859TIP3    H129522   1.120   5.817   2.685
 9859TIP3    H229523   1.085   5.680   2.629
 9860TIP3   OH229524   4.128   6.482   3.796
 9860TIP3    H129525   4.101   6.573   3.784
 9860TIP3    H229526   4.221   6.487   3.817
 9861TIP3   OH229527   4.697   4.280   0.318
 9861TIP3    H129528   4.686   4.248   0.408
 9861TIP3    H229529   4.657   4.367   0.319
 9862TIP3   OH229530   4.749   0.389   0.320
 9862TIP3    H129531   4.778   0.392   0.411
 9862TIP3    H229532   4.784   0.469   0.281
 9863TIP3   OH229533   0.617   1.223   1.549
 9863TIP3    H129534   0.540   1.234   1.493
 9863TIP3    H229535   0.683   1.281   1.511
 9864TIP3   OH229536   2.887   0.586   5.729
 9864TIP3    H129537   2.880   0.666   5.676
 9864TIP3    H229538   2.933   0.524   5.673
 9865TIP3   OH229539   2.167   7.098   5.517
 9865TIP3    H129540   2.201   7.012   5.495
 9865TIP3    H229541   2.074   7.084   5.537
 9866TIP3   OH229542   4.034   4.333   2.676
 9866TIP3    H129543   3.988   4.304   2.598
 9866TIP3    H229544   4.056   4.252   2.723
 9867TIP3   OH229545   5.781   3.624   0.393
 9867TIP3    H129546   5.690   3.593   0.391
 9867TIP3    H229547   5.791   3.673   0.311
 9868TIP3   OH229548   0.345   0.816   1.242
 9868TIP3    H129549   0.320   0.846   1.330
 9868TIP3    H229550   0.335   0.721   1.247
 9869TIP3   OH229551   2.723   3.169   2.609
 9869TIP3    H129552   2.679   3.254   2.602
 9869TIP3    H229553   2.709   3.127   2.525
 9870TIP3   OH229554   2.879   0.750   0.979
 9870TIP3    H129555   2.838   0.765   1.065
 9870TIP3    H229556   2.953   0.810   0.978
 9871TIP3   OH229557   3.881   2.564   5.592
 9871TIP3    H129558   3.798   2.595   5.629
 9871TIP3    H229559   3.948   2.599   5.651
 9872TIP3   OH229560   7.865   3.217   2.517
 9872TIP3    H129561   7.803   3.283   2.487
 9872TIP3    H229562   7.931   3.213   2.448
 9873TIP3   OH229563   4.033   7.573   2.611
 9873TIP3    H129564   4.100   7.609   2.670
 9873TIP3    H229565   3.963   7.545   2.669
 9874TIP3   OH229566   3.958   1.190   2.865
 9874TIP3    H129567   3.945   1.280   2.835
 9874TIP3    H229568   3.874   1.165   2.903
 9875TIP3   OH229569   1.467   2.215   6.594
 9875TIP3    H129570   1.494   2.168   6.515
 9875TIP3    H229571   1.391   2.167   6.625
 9876TIP3   OH229572   1.817   4.583   1.172
 9876TIP3    H129573   1.803   4.669   1.133
 9876TIP3    H229574   1.912   4.572   1.173
 9877TIP3   OH229575   7.845   4.067   2.896
 9877TIP3    H129576   7.875   3.990   2.944
 9877TIP3    H229577   7.921   4.094   2.844
 9878TIP3   OH229578   0.174   4.981   5.990
 9878TIP3    H129579   0.119   5.056   6.010
 9878TIP3    H229580   0.143   4.912   6.049
 9879TIP3   OH229581   1.827   0.773   6.522
 9879TIP3    H129582   1.879   0.766   6.602
 9879TIP3    H229583   1.759   0.836   6.543
 9880TIP3   OH229584   0.640   1.382   6.098
 9880TIP3    H129585   0.716   1.389   6.041
 9880TIP3    H229586   0.647   1.295   6.138
 9881TIP3   OH229587   3.905   4.423   5.150
 9881TIP3    H129588   3.833   4.399   5.209
 9881TIP3    H229589   3.967   4.350   5.158
 9882TIP3   OH229590   1.141   3.637   3.822
 9882TIP3    H129591   1.110   3.659   3.734
 9882TIP3    H229592   1.176   3.548   3.813
 9883TIP3   OH229593   0.273   6.347   0.170
 9883TIP3    H129594   0.228   6.417   0.123
 9883TIP3    H229595   0.366   6.363   0.153
 9884TIP3   OH229596   7.332   1.171   1.913
 9884TIP3    H129597   7.308   1.215   1.832
 9884TIP3    H229598   7.421   1.200   1.931
 9885TIP3   OH229599   1.070   3.669   0.943
 9885TIP3    H129600   1.022   3.586   0.934
 9885TIP3    H229601   1.162   3.644   0.941
 9886TIP3   OH229602   2.694   4.212   4.010
 9886TIP3    H129603   2.705   4.307   4.008
 9886TIP3    H229604   2.611   4.196   3.964
 9887TIP3   OH229605   0.387   0.840   5.433
 9887TIP3    H129606   0.338   0.836   5.351
 9887TIP3    H229607   0.451   0.909   5.419
 9888TIP3   OH229608   3.894   6.274   0.111
 9888TIP3    H129609   3.846   6.274   0.028
 9888TIP3    H229610   3.852   6.344   0.162
 9889TIP3   OH229611   6.844   4.809   1.899
 9889TIP3    H129612   6.911   4.849   1.955
 9889TIP3    H229613   6.861   4.715   1.906
 9890TIP3   OH229614   5.223   7.262   2.162
 9890TIP3    H129615   5.138   7.277   2.122
 9890TIP3    H229616   5.212   7.182   2.213
 9891TIP3   OH229617   7.724   3.158   1.063
 9891TIP3    H129618   7.742   3.097   0.992
 9891TIP3    H229619   7.673   3.228   1.023
 9892TIP3   OH229620   4.068   2.812   5.745
 9892TIP3    H129621   4.118   2.733   5.767
 9892TIP3    H229622   4.039   2.847   5.829
 9893TIP3   OH229623   5.955   5.523   1.165
 9893TIP3    H129624   5.992   5.604   1.130
 9893TIP3    H229625   5.891   5.552   1.230
 9894TIP3   OH229626   6.888   2.952   6.699
 9894TIP3    H129627   6.925   2.871   6.665
 9894TIP3    H229628   6.799   2.928   6.724
 9895TIP3   OH229629   3.418   2.555   1.755
 9895TIP3    H129630   3.433   2.483   1.694
 9895TIP3    H229631   3.504   2.597   1.765
 9896TIP3   OH229632   6.279   1.406   3.650
 9896TIP3    H129633   6.252   1.426   3.560
 9896TIP3    H229634   6.334   1.328   3.641
 9897TIP3   OH229635   7.942   4.442   4.841
 9897TIP3    H129636   7.867   4.383   4.839
 9897TIP3    H229637   7.909   4.519   4.888
 9898TIP3   OH229638   5.037   7.580   6.196
 9898TIP3    H129639   5.115   7.557   6.246
 9898TIP3    H229640   5.067   7.645   6.133
 9899TIP3   OH229641   7.697   6.567   5.525
 9899TIP3    H129642   7.613   6.552   5.482
 9899TIP3    H229643   7.761   6.521   5.471
 9900TIP3   OH229644   7.491   0.639   0.150
 9900TIP3    H129645   7.573   0.608   0.112
 9900TIP3    H229646   7.482   0.589   0.231
 9901TIP3   OH229647   8.215   5.889   4.180
 9901TIP3    H129648   8.186   5.874   4.090
 9901TIP3    H229649   8.285   5.825   4.194
 9902TIP3   OH229650   7.422   6.060   4.049
 9902TIP3    H129651   7.486   6.003   4.091
 9902TIP3    H229652   7.446   6.148   4.079
 9903TIP3   OH229653   2.122   2.529   0.025
 9903TIP3    H129654   2.058   2.567  -0.037
 9903TIP3    H229655   2.131   2.596   0.093
 9904TIP3   OH229656   0.622   2.427   1.924
 9904TIP3    H129657   0.561   2.385   1.985
 9904TIP3    H229658   0.601   2.391   1.839
 9905TIP3   OH229659   8.143   3.236   6.008
 9905TIP3    H129660   8.190   3.278   5.936
 9905TIP3    H229661   8.051   3.259   5.994
 9906TIP3   OH229662   3.831   0.618   3.902
 9906TIP3    H129663   3.896   0.594   3.836
 9906TIP3    H229664   3.879   0.619   3.985
 9907TIP3   OH229665   7.311   5.652   4.036
 9907TIP3    H129666   7.402   5.624   4.035
 9907TIP3    H229667   7.302   5.709   3.959
 9908TIP3   OH229668   5.048   4.753   4.574
 9908TIP3    H129669   5.006   4.681   4.528
 9908TIP3    H229670   5.142   4.737   4.564
 9909TIP3   OH229671   7.965   0.623   1.365
 9909TIP3    H129672   7.907   0.700   1.365
 9909TIP3    H229673   7.915   0.556   1.317
 9910TIP3   OH229674   3.857   7.048   2.024
 9910TIP3    H129675   3.834   6.958   2.047
 9910TIP3    H229676   3.916   7.039   1.948
 9911TIP3   OH229677   1.397   4.943   0.498
 9911TIP3    H129678   1.469   4.925   0.559
 9911TIP3    H229679   1.359   5.025   0.528
 9912TIP3   OH229680   3.345   4.835   3.600
 9912TIP3    H129681   3.402   4.872   3.532
 9912TIP3    H229682   3.364   4.888   3.677
 9913TIP3   OH229683   0.786   6.622   5.948
 9913TIP3    H129684   0.810   6.577   5.867
 9913TIP3    H229685   0.807   6.714   5.932
 9914TIP3   OH229686   0.155   0.335   6.242
 9914TIP3    H129687   0.198   0.372   6.165
 9914TIP3    H229688   0.062   0.339   6.221
 9915TIP3   OH229689   5.425   0.389   0.849
 9915TIP3    H129690   5.339   0.426   0.869
 9915TIP3    H229691   5.415   0.295   0.861
 9916TIP3   OH229692   3.109   1.656   2.723
 9916TIP3    H129693   3.175   1.659   2.793
 9916TIP3    H229694   3.039   1.713   2.754
 9917TIP3   OH229695   6.016   2.811   3.721
 9917TIP3    H129696   6.109   2.832   3.714
 9917TIP3    H229697   5.992   2.777   3.635
 9918TIP3   OH229698   7.852   5.762   0.914
 9918TIP3    H129699   7.926   5.796   0.965
 9918TIP3    H229700   7.775   5.781   0.968
 9919TIP3   OH229701   3.419   5.611   0.753
 9919TIP3    H129702   3.392   5.539   0.809
 9919TIP3    H229703   3.510   5.593   0.732
 9920TIP3   OH229704   0.439   1.023   3.679
 9920TIP3    H129705   0.520   1.052   3.638
 9920TIP3    H229706   0.440   0.928   3.670
 9921TIP3   OH229707   4.944   7.125   0.729
 9921TIP3    H129708   4.866   7.069   0.724
 9921TIP3    H229709   4.909   7.214   0.730
 9922TIP3   OH229710   7.528   5.633   1.784
 9922TIP3    H129711   7.434   5.641   1.799
 9922TIP3    H229712   7.554   5.555   1.832
 9923TIP3   OH229713   7.023   7.145   6.125
 9923TIP3    H129714   6.981   7.059   6.116
 9923TIP3    H229715   6.951   7.207   6.130
 9924TIP3   OH229716   1.802   0.955   1.795
 9924TIP3    H129717   1.849   0.936   1.714
 9924TIP3    H229718   1.835   0.891   1.858
 9925TIP3   OH229719   2.024   1.067   4.764
 9925TIP3    H129720   2.024   0.975   4.741
 9925TIP3    H229721   1.982   1.111   4.690
 9926TIP3   OH229722   2.502   0.312   4.084
 9926TIP3    H129723   2.511   0.398   4.043
 9926TIP3    H229724   2.563   0.315   4.158
 9927TIP3   OH229725   4.449   7.096   0.925
 9927TIP3    H129726   4.466   7.189   0.909
 9927TIP3    H229727   4.370   7.095   0.978
 9928TIP3   OH229728   6.912   4.960   4.934
 9928TIP3    H129729   6.963   5.018   4.878
 9928TIP3    H229730   6.908   5.004   5.018
 9929TIP3   OH229731   5.711   3.066   3.622
 9929TIP3    H129732   5.725   3.046   3.715
 9929TIP3    H229733   5.791   3.035   3.579
 9930TIP3   OH229734   0.018   2.301   5.542
 9930TIP3    H129735   0.043   2.234   5.605
 9930TIP3    H229736   0.079   2.289   5.469
 9931TIP3   OH229737   7.869   5.739   5.921
 9931TIP3    H129738   7.840   5.830   5.916
 9931TIP3    H229739   7.950   5.743   5.972
 9932TIP3   OH229740   3.656   7.342   3.644
 9932TIP3    H129741   3.626   7.271   3.588
 9932TIP3    H229742   3.739   7.369   3.605
 9933TIP3   OH229743   1.023   5.843   4.632
 9933TIP3    H129744   1.008   5.787   4.555
 9933TIP3    H229745   1.027   5.782   4.705
 9934TIP3   OH229746   3.546   1.642   5.761
 9934TIP3    H129747   3.542   1.702   5.686
 9934TIP3    H229748   3.568   1.698   5.835
 9935TIP3   OH229749   6.442   1.043   6.495
 9935TIP3    H129750   6.353   1.077   6.483
 9935TIP3    H229751   6.462   1.060   6.587
 9936TIP3   OH229752   4.311   1.445   5.620
 9936TIP3    H129753   4.292   1.510   5.553
 9936TIP3    H229754   4.326   1.364   5.572
 9937TIP3   OH229755   1.280   7.740   6.210
 9937TIP3    H129756   1.286   7.809   6.144
 9937TIP3    H229757   1.265   7.786   6.293
 9938TIP3   OH229758   0.534   2.751   0.892
 9938TIP3    H129759   0.621   2.783   0.915
 9938TIP3    H229760   0.493   2.825   0.847
 9939TIP3   OH229761   8.206   6.624   3.124
 9939TIP3    H129762   8.130   6.584   3.164
 9939TIP3    H229763   8.176   6.710   3.095
 9940TIP3   OH229764   5.476   0.235   3.439
 9940TIP3    H129765   5.552   0.242   3.497
 9940TIP3    H229766   5.510   0.255   3.352
 9941TIP3   OH229767   8.118   4.704   0.825
 9941TIP3    H129768   8.055   4.632   0.825
 9941TIP3    H229769   8.203   4.662   0.820
 9942TIP3   OH229770   6.904   7.109   2.202
 9942TIP3    H129771   6.914   7.195   2.162
 9942TIP3    H229772   6.950   7.116   2.286
 9943TIP3   OH229773   6.743   7.172   3.804
 9943TIP3    H129774   6.664   7.192   3.854
 9943TIP3    H229775   6.718   7.184   3.712
 9944TIP3   OH229776   6.465   7.618   6.347
 9944TIP3    H129777   6.470   7.605   6.252
 9944TIP3    H229778   6.548   7.583   6.380
 9945TIP3   OH229779   3.617   2.698   3.315
 9945TIP3    H129780   3.670   2.772   3.284
 9945TIP3    H229781   3.667   2.620   3.293
 9946TIP3   OH229782   3.913   0.653   1.034
 9946TIP3    H129783   3.880   0.577   1.083
 9946TIP3    H229784   4.003   0.664   1.066
 9947TIP3   OH229785   5.468   3.120   0.997
 9947TIP3    H129786   5.501   3.079   0.917
 9947TIP3    H229787   5.373   3.105   0.994
 9948TIP3   OH229788   2.770   7.555   5.138
 9948TIP3    H129789   2.824   7.528   5.212
 9948TIP3    H229790   2.697   7.493   5.136
 9949TIP3   OH229791   1.891   3.850   5.635
 9949TIP3    H129792   1.825   3.898   5.586
 9949TIP3    H229793   1.899   3.898   5.718
 9950TIP3   OH229794   8.070   5.649   2.842
 9950TIP3    H129795   8.115   5.597   2.775
 9950TIP3    H229796   8.115   5.628   2.924
 9951TIP3   OH229797   4.178   6.960   0.472
 9951TIP3    H129798   4.123   6.950   0.395
 9951TIP3    H229799   4.159   6.883   0.525
 9952TIP3   OH229800   3.387   3.271   5.392
 9952TIP3    H129801   3.343   3.249   5.310
 9952TIP3    H229802   3.459   3.329   5.366
 9953TIP3   OH229803   1.662   4.328   2.269
 9953TIP3    H129804   1.641   4.366   2.184
 9953TIP3    H229805   1.668   4.234   2.252
 9954TIP3   OH229806   5.147   2.492   0.463
 9954TIP3    H129807   5.240   2.482   0.443
 9954TIP3    H229808   5.137   2.585   0.486
 9955TIP3   OH229809   7.097   6.980   1.749
 9955TIP3    H129810   7.045   7.051   1.786
 9955TIP3    H229811   7.187   7.012   1.752
 9956TIP3   OH229812   1.377   4.691   5.877
 9956TIP3    H129813   1.455   4.645   5.845
 9956TIP3    H229814   1.411   4.770   5.918
 9957TIP3   OH229815   1.458   6.464   4.238
 9957TIP3    H129816   1.542   6.418   4.240
 9957TIP3    H229817   1.410   6.423   4.167
 9958TIP3   OH229818   7.133   3.353   5.879
 9958TIP3    H129819   7.191   3.297   5.929
 9958TIP3    H229820   7.090   3.408   5.944
 9959TIP3   OH229821   1.356   1.713   4.141
 9959TIP3    H129822   1.352   1.807   4.159
 9959TIP3    H229823   1.351   1.672   4.228
 9960TIP3   OH229824   4.813   3.841   5.632
 9960TIP3    H129825   4.793   3.845   5.725
 9960TIP3    H229826   4.871   3.766   5.623
 9961TIP3   OH229827   3.664   3.863   0.043
 9961TIP3    H129828   3.614   3.785   0.018
 9961TIP3    H229829   3.613   3.902   0.114
 9962TIP3   OH229830   5.207   2.060   3.954
 9962TIP3    H129831   5.134   2.078   3.896
 9962TIP3    H229832   5.284   2.055   3.896
 9963TIP3   OH229833   1.053   0.273   1.515
 9963TIP3    H129834   1.138   0.286   1.472
 9963TIP3    H229835   1.041   0.178   1.516
 9964TIP3   OH229836   4.793   0.577   0.535
 9964TIP3    H129837   4.836   0.660   0.516
 9964TIP3    H229838   4.701   0.600   0.548
 9965TIP3   OH229839   6.215   1.979   3.977
 9965TIP3    H129840   6.249   1.932   4.053
 9965TIP3    H229841   6.289   1.983   3.916
 9966TIP3   OH229842   7.404   5.590   1.271
 9966TIP3    H129843   7.374   5.519   1.214
 9966TIP3    H229844   7.370   5.670   1.230
 9967TIP3   OH229845   3.089   1.722   0.496
 9967TIP3    H129846   3.163   1.662   0.505
 9967TIP3    H229847   3.120   1.789   0.435
 9968TIP3   OH229848   1.398   0.769   3.666
 9968TIP3    H129849   1.329   0.753   3.601
 9968TIP3    H229850   1.452   0.838   3.626
 9969TIP3   OH229851   3.514   7.819   5.298
 9969TIP3    H129852   3.520   7.727   5.326
 9969TIP3    H229853   3.602   7.840   5.265
 9970TIP3   OH229854   1.015   0.318   4.365
 9970TIP3    H129855   1.003   0.224   4.351
 9970TIP3    H229856   0.991   0.333   4.456
 9971TIP3   OH229857   4.550   1.359   3.212
 9971TIP3    H129858   4.613   1.288   3.228
 9971TIP3    H229859   4.602   1.426   3.167
 9972TIP3   OH229860   0.302   3.397   0.571
 9972TIP3    H129861   0.337   3.332   0.631
 9972TIP3    H229862   0.260   3.462   0.627
 9973TIP3   OH229863   8.249   4.188   0.864
 9973TIP3    H129864   8.297   4.261   0.903
 9973TIP3    H229865   8.158   4.206   0.885
 9974TIP3   OH229866   7.620   7.138   5.068
 9974TIP3    H129867   7.548   7.102   5.016
 9974TIP3    H229868   7.683   7.067   5.074
 9975TIP3   OH229869   1.016   0.118   4.916
 9975TIP3    H129870   0.927   0.084   4.904
 9975TIP3    H229871   1.073   0.052   4.877
 9976TIP3   OH229872   1.783   6.122   1.877
 9976TIP3    H129873   1.775   6.053   1.943
 9976TIP3    H229874   1.870   6.160   1.893
 9977TIP3   OH229875   2.577   2.797   2.467
 9977TIP3    H129876   2.545   2.800   2.377
 9977TIP3    H229877   2.612   2.708   2.478
 9978TIP3   OH229878   4.906   6.451   5.647
 9978TIP3    H129879   4.828   6.483   5.602
 9978TIP3    H229880   4.878   6.370   5.690
 9979TIP3   OH229881   1.657   5.092   2.429
 9979TIP3    H129882   1.623   5.009   2.396
 9979TIP3    H229883   1.748   5.095   2.398
 9980TIP3   OH229884   8.129   6.984   4.241
 9980TIP3    H129885   8.082   7.061   4.210
 9980TIP3    H229886   8.068   6.940   4.299
 9981TIP3   OH229887   2.096   1.204   5.388
 9981TIP3    H129888   2.175   1.215   5.336
 9981TIP3    H229889   2.127   1.173   5.473
 9982TIP3   OH229890   2.390   4.527   0.977
 9982TIP3    H129891   2.377   4.618   0.950
 9982TIP3    H229892   2.386   4.529   1.072
 9983TIP3   OH229893   7.749   2.365   4.668
 9983TIP3    H129894   7.721   2.281   4.631
 9983TIP3    H229895   7.769   2.345   4.759
 9984TIP3   OH229896   7.858   4.964   2.322
 9984TIP3    H129897   7.851   4.869   2.335
 9984TIP3    H229898   7.920   4.973   2.250
 9985TIP3   OH229899   0.299   7.503   0.321
 9985TIP3    H129900   0.353   7.428   0.345
 9985TIP3    H229901   0.342   7.540   0.244
 9986TIP3   OH229902   5.509   6.082   0.495
 9986TIP3    H129903   5.541   6.161   0.540
 9986TIP3    H229904   5.422   6.105   0.464
 9987TIP3   OH229905   1.036   2.993   0.118
 9987TIP3    H129906   0.990   2.913   0.092
 9987TIP3    H229907   0.978   3.064   0.090
 9988TIP3   OH229908   4.779   6.857   5.337
 9988TIP3    H129909   4.708   6.797   5.320
 9988TIP3    H229910   4.745   6.917   5.404
 9989TIP3   OH229911   6.113   1.615   0.707
 9989TIP3    H129912   6.042   1.675   0.681
 9989TIP3    H229913   6.190   1.671   0.712
 9990TIP3   OH229914   4.838   1.107   3.072
 9990TIP3    H129915   4.749   1.135   3.051
 9990TIP3    H229916   4.863   1.049   3.000
 9991TIP3   OH229917   0.716   6.761   3.135
 9991TIP3    H129918   0.708   6.680   3.185
 9991TIP3    H229919   0.633   6.769   3.089
 9992TIP3   OH229920   7.738   0.250   5.247
 9992TIP3    H129921   7.654   0.209   5.265
 9992TIP3    H229922   7.793   0.179   5.214
 9993TIP3   OH229923   2.369   5.451   1.078
 9993TIP3    H129924   2.440   5.409   1.030
 9993TIP3    H229925   2.406   5.536   1.104
 9994TIP3   OH229926   6.634   2.935   2.107
 9994TIP3    H129927   6.581   2.995   2.159
 9994TIP3    H229928   6.586   2.924   2.026
 9995TIP3   OH229929   0.630   6.387   1.140
 9995TIP3    H129930   0.549   6.408   1.187
 9995TIP3    H229931   0.607   6.398   1.047
 9996TIP3   OH229932   1.028   4.227   6.260
 9996TIP3    H129933   1.073   4.282   6.196
 9996TIP3    H229934   1.038   4.138   6.226
 9997TIP3   OH229935   5.493   5.308   3.572
 9997TIP3    H129936   5.412   5.290   3.619
 9997TIP3    H229937   5.469   5.303   3.479
 9998TIP3   OH229938   0.223   2.954   3.470
 9998TIP3    H129939   0.302   3.002   3.494
 9998TIP3    H229940   0.240   2.864   3.498
 9999TIP3   OH229941   5.194   5.277   5.007
 9999TIP3    H129942   5.104   5.300   4.985
 9999TIP3    H229943   5.187   5.197   5.058
10000TIP3   OH229944   4.769   2.781   1.515
10000TIP3    H129945   4.831   2.770   1.443
10000TIP3    H229946   4.723   2.862   1.495
10001TIP3   OH229947   1.028   5.571   2.045
10001TIP3    H129948   1.100   5.509   2.054
10001TIP3    H229949   1.017   5.608   2.132
10002TIP3   OH229950   4.489   7.471   0.202
10002TIP3    H129951   4.431   7.396   0.201
10002TIP3    H229952   4.479   7.511   0.115
10003TIP3   OH229953   4.664   2.343   3.021
10003TIP3    H129954   4.590   2.296   2.982
10003TIP3    H229955   4.678   2.418   2.964
10004TIP3   OH229956   0.737   7.144   3.563
10004TIP3    H129957   0.682   7.159   3.639
10004TIP3    H229958   0.678   7.104   3.499
10005TIP3   OH229959   1.273   6.737   6.411
10005TIP3    H129960   1.224   6.724   6.493
10005TIP3    H229961   1.213   6.710   6.342
10006TIP3   OH229962   1.589   4.230   6.749
10006TIP3    H129963   1.678   4.259   6.728
10006TIP3    H229964   1.561   4.181   6.672
10007TIP3   OH229965   1.231   7.519   0.710
10007TIP3    H129966   1.148   7.543   0.669
10007TIP3    H229967   1.280   7.475   0.642
10008TIP3   OH229968   5.309   5.044   2.985
10008TIP3    H129969   5.252   5.121   2.975
10008TIP3    H229970   5.342   5.028   2.896
10009TIP3   OH229971   0.766   1.674   0.437
10009TIP3    H129972   0.735   1.592   0.477
10009TIP3    H229973   0.841   1.648   0.384
10010TIP3   OH229974   3.553   1.175   6.690
10010TIP3    H129975   3.585   1.096   6.734
10010TIP3    H229976   3.633   1.217   6.657
10011TIP3   OH229977   1.289   5.879   6.060
10011TIP3    H129978   1.313   5.949   6.121
10011TIP3    H229979   1.195   5.892   6.046
10012TIP3   OH229980   2.462   0.847   6.438
10012TIP3    H129981   2.384   0.795   6.459
10012TIP3    H229982   2.534   0.797   6.477
10013TIP3   OH229983   0.288   6.754   1.548
10013TIP3    H129984   0.341   6.688   1.502
10013TIP3    H229985   0.323   6.755   1.637
10014TIP3   OH229986   4.366   0.015   4.767
10014TIP3    H129987   4.394   0.085   4.708
10014TIP3    H229988   4.424  -0.058   4.746
10015TIP3   OH229989   0.890   5.218   2.419
10015TIP3    H129990   0.979   5.236   2.449
10015TIP3    H229991   0.887   5.123   2.408
10016TIP3   OH229992   7.457   4.890   3.731
10016TIP3    H129993   7.541   4.910   3.773
10016TIP3    H229994   7.425   4.975   3.700
10017TIP3   OH229995   6.673   4.056   1.104
10017TIP3    H129996   6.648   4.050   1.196
10017TIP3    H229997   6.592   4.075   1.058
10018TIP3   OH229998   5.557   3.578   5.196
10018TIP3    H129999   5.461   3.577   5.196
10018TIP3    H230000   5.580   3.662   5.156
10019TIP3   OH230001   7.565   6.400   2.565
10019TIP3    H130002   7.494   6.395   2.501
10019TIP3    H230003   7.528   6.448   2.638
10020TIP3   OH230004   6.464   5.215   2.537
10020TIP3    H130005   6.398   5.161   2.581
10020TIP3    H230006   6.434   5.221   2.446
10021TIP3   OH230007   6.353   7.404   1.667
10021TIP3    H130008   6.288   7.345   1.707
10021TIP3    H230009   6.334   7.490   1.705
10022TIP3   OH230010   4.738   3.955   0.265
10022TIP3    H130011   4.765   3.894   0.196
10022TIP3    H230012   4.724   3.899   0.342
10023TIP3   OH230013   0.453   4.619   4.809
10023TIP3    H130014   0.476   4.647   4.720
10023TIP3    H230015   0.379   4.560   4.798
10024TIP3   OH230016   7.459   0.445   5.513
10024TIP3    H130017   7.426   0.535   5.514
10024TIP3    H230018   7.522   0.443   5.441
10025TIP3   OH230019   4.819   1.493   2.212
10025TIP3    H130020   4.754   1.540   2.265
10025TIP3    H230021   4.880   1.455   2.276
10026TIP3   OH230022   0.595   5.722   1.182
10026TIP3    H130023   0.659   5.778   1.138
10026TIP3    H230024   0.554   5.672   1.111
10027TIP3   OH230025   6.213   5.142   1.048
10027TIP3    H130026   6.309   5.146   1.049
10027TIP3    H230027   6.186   5.185   1.129
10028TIP3   OH230028   7.324   7.305   3.434
10028TIP3    H130029   7.404   7.302   3.381
10028TIP3    H230030   7.353   7.277   3.521
10029TIP3   OH230031   2.793   2.494   6.621
10029TIP3    H130032   2.707   2.459   6.599
10029TIP3    H230033   2.781   2.533   6.708
10030TIP3   OH230034   1.955   0.760   1.998
10030TIP3    H130035   1.961   0.812   2.079
10030TIP3    H230036   2.015   0.686   2.014
10031TIP3   OH230037   5.714   0.122   6.098
10031TIP3    H130038   5.796   0.117   6.049
10031TIP3    H230039   5.652   0.163   6.038
10032TIP3   OH230040   1.591   2.860   0.444
10032TIP3    H130041   1.512   2.816   0.473
10032TIP3    H230042   1.640   2.878   0.525
10033TIP3   OH230043   0.278   6.513   2.263
10033TIP3    H130044   0.342   6.447   2.238
10033TIP3    H230045   0.312   6.549   2.345
10034TIP3   OH230046   0.261   1.318   6.405
10034TIP3    H130047   0.196   1.273   6.459
10034TIP3    H230048   0.250   1.280   6.318
10035TIP3   OH230049   8.061  -0.033   4.182
10035TIP3    H130050   7.972  -0.013   4.213
10035TIP3    H230051   8.110   0.047   4.200
10036TIP3   OH230052   5.555   3.848   0.538
10036TIP3    H130053   5.525   3.939   0.539
10036TIP3    H230054   5.509   3.806   0.610
10037TIP3   OH230055   0.642   2.159   1.070
10037TIP3    H130056   0.590   2.155   1.150
10037TIP3    H230057   0.630   2.074   1.028
10038TIP3   OH230058   0.195   5.576   4.406
10038TIP3    H130059   0.207   5.497   4.354
10038TIP3    H230060   0.102   5.597   4.397
10039TIP3   OH230061   1.658   6.362   3.860
10039TIP3    H130062   1.578   6.322   3.895
10039TIP3    H230063   1.698   6.404   3.936
10040TIP3   OH230064   5.235   0.149   6.172
10040TIP3    H130065   5.161   0.100   6.136
10040TIP3    H230066   5.305   0.084   6.178
10041TIP3   OH230067   5.296   0.329   2.140
10041TIP3    H130068   5.267   0.259   2.199
10041TIP3    H230069   5.381   0.357   2.176
10042TIP3   OH230070   0.987   7.622   3.394
10042TIP3    H130071   0.993   7.717   3.383
10042TIP3    H230072   0.950   7.591   3.311
10043TIP3   OH230073   6.910   6.148   2.463
10043TIP3    H130074   6.893   6.143   2.557
10043TIP3    H230075   6.999   6.183   2.457
10044TIP3   OH230076   4.816   6.208   3.145
10044TIP3    H130077   4.834   6.197   3.052
10044TIP3    H230078   4.897   6.247   3.180
10045TIP3   OH230079   6.575   7.407   4.263
10045TIP3    H130080   6.551   7.432   4.352
10045TIP3    H230081   6.651   7.350   4.274
10046TIP3   OH230082   3.870   4.451   4.114
10046TIP3    H130083   3.934   4.460   4.185
10046TIP3    H230084   3.802   4.394   4.150
10047TIP3   OH230085   0.616   7.371   2.049
10047TIP3    H130086   0.587   7.286   2.015
10047TIP3    H230087   0.592   7.368   2.142
10048TIP3   OH230088   2.472   7.671   2.253
10048TIP3    H130089   2.394   7.682   2.307
10048TIP3    H230090   2.439   7.661   2.164
10049TIP3   OH230091   6.141   5.449   5.428
10049TIP3    H130092   6.203   5.497   5.373
10049TIP3    H230093   6.145   5.359   5.395
10050TIP3   OH230094   7.045   5.969   5.408
10050TIP3    H130095   6.959   5.968   5.451
10050TIP3    H230096   7.086   6.050   5.438
10051TIP3   OH230097   7.636   2.514   5.584
10051TIP3    H130098   7.674   2.451   5.646
10051TIP3    H230099   7.553   2.539   5.624
10052TIP3   OH230100   4.192   0.258   3.120
10052TIP3    H130101   4.223   0.307   3.196
10052TIP3    H230102   4.128   0.196   3.155
10053TIP3   OH230103   5.795   5.007   3.448
10053TIP3    H130104   5.710   5.011   3.405
10053TIP3    H230105   5.779   5.040   3.536
10054TIP3   OH230106   7.778  -0.016   0.260
10054TIP3    H130107   7.869   0.006   0.240
10054TIP3    H230108   7.742   0.066   0.295
10055TIP3   OH230109   7.273   7.687   2.518
10055TIP3    H130110   7.257   7.593   2.510
10055TIP3    H230111   7.191   7.727   2.491
10056TIP3   OH230112   6.112   7.800   3.856
10056TIP3    H130113   6.121   7.872   3.793
10056TIP3    H230114   6.157   7.726   3.814
10057TIP3   OH230115   2.926   5.289   5.915
10057TIP3    H130116   2.844   5.261   5.875
10057TIP3    H230117   2.991   5.279   5.846
10058TIP3   OH230118   6.584   6.370   2.774
10058TIP3    H130119   6.544   6.348   2.858
10058TIP3    H230120   6.529   6.441   2.739
10059TIP3   OH230121   5.853   6.797   3.155
10059TIP3    H130122   5.791   6.726   3.142
10059TIP3    H230123   5.798   6.876   3.160
10060TIP3   OH230124   1.304   3.562   0.900
10060TIP3    H130125   1.355   3.501   0.953
10060TIP3    H230126   1.370   3.620   0.861
10061TIP3   OH230127   6.857   0.950   4.959
10061TIP3    H130128   6.801   0.951   4.881
10061TIP3    H230129   6.866   1.043   4.982
10062TIP3   OH230130   5.056   1.225   6.239
10062TIP3    H130131   5.006   1.207   6.319
10062TIP3    H230132   5.003   1.290   6.192
10063TIP3   OH230133   0.772   5.883   3.374
10063TIP3    H130134   0.692   5.925   3.343
10063TIP3    H230135   0.752   5.855   3.463
10064TIP3   OH230136   1.194   0.109   1.761
10064TIP3    H130137   1.199   0.084   1.669
10064TIP3    H230138   1.282   0.141   1.782
10065TIP3   OH230139   2.696   5.501   3.071
10065TIP3    H130140   2.626   5.550   3.113
10065TIP3    H230141   2.680   5.513   2.977
10066TIP3   OH230142   5.664   3.086   1.458
10066TIP3    H130143   5.692   3.004   1.499
10066TIP3    H230144   5.569   3.088   1.472
10067TIP3   OH230145   1.637   5.423   0.760
10067TIP3    H130146   1.610   5.349   0.815
10067TIP3    H230147   1.611   5.398   0.672
10068TIP3   OH230148   7.741   4.059   3.762
10068TIP3    H130149   7.690   4.113   3.702
10068TIP3    H230150   7.772   4.121   3.829
10069TIP3   OH230151   5.885   6.804   4.109
10069TIP3    H130152   5.912   6.715   4.085
10069TIP3    H230153   5.795   6.811   4.078
10070TIP3   OH230154   1.243   7.577   2.975
10070TIP3    H130155   1.165   7.524   2.960
10070TIP3    H230156   1.235   7.651   2.914
10071TIP3   OH230157   1.542   3.930   3.173
10071TIP3    H130158   1.495   3.994   3.227
10071TIP3    H230159   1.476   3.899   3.111
10072TIP3   OH230160   5.467   4.410   3.788
10072TIP3    H130161   5.522   4.411   3.709
10072TIP3    H230162   5.458   4.502   3.813
10073TIP3   OH230163   0.578   1.893   1.037
10073TIP3    H130164   0.656   1.844   1.010
10073TIP3    H230165   0.545   1.845   1.113
10074TIP3   OH230166   0.956   2.862   6.675
10074TIP3    H130167   0.993   2.774   6.679
10074TIP3    H230168   0.864   2.850   6.698
10075TIP3   OH230169   0.100   5.701   2.830
10075TIP3    H130170   0.167   5.635   2.847
10075TIP3    H230171   0.031   5.653   2.784
10076TIP3   OH230172   4.813   6.585   0.120
10076TIP3    H130173   4.719   6.568   0.108
10076TIP3    H230174   4.818   6.679   0.139
10077TIP3   OH230175   7.622   2.692   2.360
10077TIP3    H130176   7.549   2.753   2.357
10077TIP3    H230177   7.656   2.691   2.270
10078TIP3   OH230178   3.878   1.265   2.073
10078TIP3    H130179   3.927   1.318   2.136
10078TIP3    H230180   3.870   1.180   2.115
10079TIP3   OH230181   7.566   2.202   5.062
10079TIP3    H130182   7.633   2.233   5.001
10079TIP3    H230183   7.605   2.214   5.148
10080TIP3   OH230184   1.602   7.135   5.699
10080TIP3    H130185   1.629   7.209   5.753
10080TIP3    H230186   1.617   7.165   5.609
10081TIP3   OH230187   4.436   2.674   2.537
10081TIP3    H130188   4.381   2.607   2.578
10081TIP3    H230189   4.506   2.625   2.494
10082TIP3   OH230190   6.586   1.892   0.721
10082TIP3    H130191   6.550   1.980   0.704
10082TIP3    H230192   6.680   1.903   0.712
10083TIP3   OH230193   2.313   2.385   0.186
10083TIP3    H130194   2.384   2.332   0.152
10083TIP3    H230195   2.247   2.385   0.116
10084TIP3   OH230196   1.755   3.950   1.099
10084TIP3    H130197   1.821   4.016   1.076
10084TIP3    H230198   1.773   3.877   1.040
10085TIP3   OH230199   4.248   2.728   6.525
10085TIP3    H130200   4.296   2.697   6.448
10085TIP3    H230201   4.177   2.665   6.536
10086TIP3   OH230202   4.556   3.849   5.833
10086TIP3    H130203   4.493   3.835   5.904
10086TIP3    H230204   4.636   3.876   5.877
10087TIP3   OH230205   4.300   1.367   6.149
10087TIP3    H130206   4.325   1.437   6.210
10087TIP3    H230207   4.246   1.411   6.083
10088TIP3   OH230208   7.566   1.353   6.465
10088TIP3    H130209   7.589   1.280   6.408
10088TIP3    H230210   7.575   1.431   6.409
10089TIP3   OH230211   5.373   7.671   3.979
10089TIP3    H130212   5.328   7.704   4.056
10089TIP3    H230213   5.463   7.701   3.988
10090TIP3   OH230214   2.846   1.906   3.650
10090TIP3    H130215   2.916   1.868   3.704
10090TIP3    H230216   2.885   1.983   3.611
10091TIP3   OH230217   0.192   1.948   1.346
10091TIP3    H130218   0.250   1.980   1.416
10091TIP3    H230219   0.156   1.867   1.381
10092TIP3   OH230220   4.839   3.827   3.058
10092TIP3    H130221   4.827   3.847   2.965
10092TIP3    H230222   4.886   3.902   3.093
10093TIP3   OH230223   1.244   3.772   4.041
10093TIP3    H130224   1.215   3.741   3.955
10093TIP3    H230225   1.314   3.712   4.065
10094TIP3   OH230226   6.808   7.839   1.510
10094TIP3    H130227   6.809   7.751   1.549
10094TIP3    H230228   6.901   7.864   1.507
10095TIP3   OH230229   3.553   3.356   1.218
10095TIP3    H130230   3.466   3.395   1.218
10095TIP3    H230231   3.594   3.388   1.299
10096TIP3   OH230232   7.588   6.367   6.271
10096TIP3    H130233   7.621   6.315   6.198
10096TIP3    H230234   7.662   6.422   6.297
10097TIP3   OH230235   5.582   0.684   4.532
10097TIP3    H130236   5.669   0.724   4.527
10097TIP3    H230237   5.599   0.589   4.532
10098TIP3   OH230238   0.918   0.034   4.264
10098TIP3    H130239   0.848  -0.006   4.212
10098TIP3    H230240   0.997   0.024   4.210
10099TIP3   OH230241   7.187   1.547   2.668
10099TIP3    H130242   7.098   1.563   2.637
10099TIP3    H230243   7.203   1.455   2.649
10100TIP3   OH230244   2.494   6.717   5.411
10100TIP3    H130245   2.512   6.625   5.428
10100TIP3    H230246   2.466   6.719   5.319
10101TIP3   OH230247   3.541   5.157   2.030
10101TIP3    H130248   3.479   5.194   2.093
10101TIP3    H230249   3.571   5.232   1.979
10102TIP3   OH230250   4.025   2.356   2.823
10102TIP3    H130251   3.936   2.371   2.789
10102TIP3    H230252   4.021   2.270   2.863
10103TIP3   OH230253   7.823   4.209   3.115
10103TIP3    H130254   7.842   4.299   3.088
10103TIP3    H230255   7.841   4.157   3.037
10104TIP3   OH230256   3.475   5.731   5.418
10104TIP3    H130257   3.527   5.770   5.347
10104TIP3    H230258   3.401   5.791   5.428
10105TIP3   OH230259   1.738   7.624   2.961
10105TIP3    H130260   1.689   7.623   2.879
10105TIP3    H230261   1.672   7.613   3.029
10106TIP3   OH230262   5.216   1.277   6.633
10106TIP3    H130263   5.292   1.221   6.648
10106TIP3    H230264   5.249   1.366   6.644
10107TIP3   OH230265   6.395   2.073   4.711
10107TIP3    H130266   6.489   2.061   4.720
10107TIP3    H230267   6.358   2.031   4.788
10108TIP3   OH230268   2.628   5.258   6.095
10108TIP3    H130269   2.622   5.195   6.167
10108TIP3    H230270   2.585   5.337   6.130
10109TIP3   OH230271   0.227   4.675   4.298
10109TIP3    H130272   0.311   4.664   4.253
10109TIP3    H230273   0.201   4.587   4.323
10110TIP3   OH230274   0.776   2.669   4.998
10110TIP3    H130275   0.847   2.611   4.969
10110TIP3    H230276   0.696   2.621   4.980
10111TIP3   OH230277   6.238   7.007   2.031
10111TIP3    H130278   6.299   6.975   2.098
10111TIP3    H230279   6.291   7.063   1.975
10112TIP3   OH230280   7.968   4.278   6.607
10112TIP3    H130281   8.031   4.247   6.671
10112TIP3    H230282   7.941   4.364   6.640
10113TIP3   OH230283   5.701   7.315   5.681
10113TIP3    H130284   5.688   7.297   5.588
10113TIP3    H230285   5.612   7.324   5.716
10114TIP3   OH230286   6.708   6.917   5.451
10114TIP3    H130287   6.721   6.857   5.525
10114TIP3    H230288   6.797   6.935   5.420
10115TIP3   OH230289   6.064   2.780   5.337
10115TIP3    H130290   6.005   2.854   5.344
10115TIP3    H230291   6.140   2.804   5.389
10116TIP3   OH230292   4.020   5.565   1.620
10116TIP3    H130293   4.100   5.578   1.670
10116TIP3    H230294   4.043   5.496   1.557
10117TIP3   OH230295   0.653   0.049   3.602
10117TIP3    H130296   0.669   0.087   3.516
10117TIP3    H230297   0.597  -0.027   3.584
10118TIP3   OH230298   2.528   6.352   3.854
10118TIP3    H130299   2.621   6.370   3.836
10118TIP3    H230300   2.529   6.277   3.914
10119TIP3   OH230301   3.711   4.054   1.021
10119TIP3    H130302   3.679   3.968   0.996
10119TIP3    H230303   3.733   4.096   0.938
10120TIP3   OH230304   6.074   3.357   0.724
10120TIP3    H130305   5.995   3.400   0.756
10120TIP3    H230306   6.103   3.411   0.650
10121TIP3   OH230307   5.279   4.080   2.147
10121TIP3    H130308   5.336   4.156   2.144
10121TIP3    H230309   5.209   4.104   2.208
10122TIP3   OH230310   0.757   0.368   0.740
10122TIP3    H130311   0.831   0.422   0.766
10122TIP3    H230312   0.789   0.278   0.743
10123TIP3   OH230313   1.521   0.549   4.281
10123TIP3    H130314   1.530   0.643   4.298
10123TIP3    H230315   1.426   0.535   4.278
10124TIP3   OH230316   4.576   1.466   2.373
10124TIP3    H130317   4.602   1.391   2.427
10124TIP3    H230318   4.507   1.432   2.316
10125TIP3   OH230319   1.282   1.697   1.576
10125TIP3    H130320   1.320   1.785   1.582
10125TIP3    H230321   1.356   1.638   1.591
10126TIP3   OH230322   4.622   0.856   2.060
10126TIP3    H130323   4.556   0.877   1.994
10126TIP3    H230324   4.674   0.936   2.067
10127TIP3   OH230325   2.560   6.321   5.005
10127TIP3    H130326   2.475   6.285   5.029
10127TIP3    H230327   2.545   6.415   4.995
10128TIP3   OH230328   3.385   1.667   4.130
10128TIP3    H130329   3.450   1.597   4.119
10128TIP3    H230330   3.349   1.653   4.218
10129TIP3   OH230331   7.265   6.456   0.469
10129TIP3    H130332   7.205   6.415   0.532
10129TIP3    H230333   7.235   6.426   0.384
10130TIP3   OH230334   5.160   5.828   5.283
10130TIP3    H130335   5.079   5.778   5.289
10130TIP3    H230336   5.155   5.891   5.355
10131TIP3   OH230337   1.644   0.712   2.248
10131TIP3    H130338   1.583   0.638   2.254
10131TIP3    H230339   1.626   0.752   2.163
10132TIP3   OH230340   2.554   2.149   0.593
10132TIP3    H130341   2.542   2.208   0.518
10132TIP3    H230342   2.519   2.198   0.668
10133TIP3   OH230343   1.104   3.841   4.256
10133TIP3    H130344   1.022   3.885   4.234
10133TIP3    H230345   1.134   3.803   4.173
10134TIP3   OH230346   3.037   2.438   1.262
10134TIP3    H130347   3.119   2.473   1.228
10134TIP3    H230348   3.063   2.365   1.318
10135TIP3   OH230349   3.677   3.027   0.913
10135TIP3    H130350   3.712   3.028   0.824
10135TIP3    H230351   3.647   3.116   0.928
10136TIP3   OH230352   4.953   6.663   1.198
10136TIP3    H130353   5.021   6.666   1.131
10136TIP3    H230354   4.929   6.755   1.212
10137TIP3   OH230355   0.853   1.850   0.983
10137TIP3    H130356   0.918   1.851   1.052
10137TIP3    H230357   0.864   1.765   0.940
10138TIP3   OH230358   2.910   0.856   2.875
10138TIP3    H130359   2.911   0.828   2.967
10138TIP3    H230360   2.826   0.825   2.842
10139TIP3   OH230361   8.197   6.197   5.274
10139TIP3    H130362   8.268   6.225   5.331
10139TIP3    H230363   8.187   6.267   5.210
10140TIP3   OH230364   6.944   4.801   6.374
10140TIP3    H130365   6.941   4.828   6.466
10140TIP3    H230366   7.027   4.755   6.365
10141TIP3   OH230367   0.428   6.951   2.473
10141TIP3    H130368   0.384   6.897   2.407
10141TIP3    H230369   0.520   6.924   2.469
10142TIP3   OH230370   6.624   0.170   1.195
10142TIP3    H130371   6.599   0.102   1.132
10142TIP3    H230372   6.600   0.133   1.280
10143TIP3   OH230373   3.231   7.369   6.498
10143TIP3    H130374   3.324   7.347   6.510
10143TIP3    H230375   3.230   7.431   6.425
10144TIP3   OH230376   1.593   5.884   1.103
10144TIP3    H130377   1.569   5.944   1.033
10144TIP3    H230378   1.619   5.940   1.176
10145TIP3   OH230379   5.836   3.217   0.369
10145TIP3    H130380   5.799   3.230   0.456
10145TIP3    H230381   5.927   3.191   0.383
10146TIP3   OH230382   6.638   5.238   5.163
10146TIP3    H130383   6.608   5.209   5.250
10146TIP3    H230384   6.589   5.318   5.146
10147TIP3   OH230385   2.027   0.949   6.066
10147TIP3    H130386   1.958   1.006   6.032
10147TIP3    H230387   2.012   0.947   6.160
10148TIP3   OH230388   4.219   7.735   5.224
10148TIP3    H130389   4.145   7.776   5.269
10148TIP3    H230390   4.284   7.805   5.216
10149TIP3   OH230391   1.177   6.043   4.493
10149TIP3    H130392   1.139   5.989   4.563
10149TIP3    H230393   1.184   6.130   4.533
10150TIP3   OH230394   0.645   3.004   2.398
10150TIP3    H130395   0.582   3.051   2.343
10150TIP3    H230396   0.708   3.072   2.425
10151TIP3   OH230397   8.207   3.745   6.431
10151TIP3    H130398   8.137   3.723   6.369
10151TIP3    H230399   8.234   3.833   6.406
10152TIP3   OH230400   6.443   2.230   5.565
10152TIP3    H130401   6.501   2.301   5.591
10152TIP3    H230402   6.486   2.151   5.597
10153TIP3   OH230403   2.063   6.798   5.316
10153TIP3    H130404   2.142   6.819   5.367
10153TIP3    H230405   2.017   6.734   5.369
10154TIP3   OH230406   6.139   5.254   0.011
10154TIP3    H130407   6.204   5.286   0.073
10154TIP3    H230408   6.171   5.166  -0.013
10155TIP3   OH230409   6.475   3.987   5.459
10155TIP3    H130410   6.443   4.056   5.402
10155TIP3    H230411   6.523   4.032   5.528
10156TIP3   OH230412   2.883   5.937   3.946
10156TIP3    H130413   2.967   5.899   3.970
10156TIP3    H230414   2.820   5.896   4.006
10157TIP3   OH230415   5.098   0.335   4.071
10157TIP3    H130416   5.125   0.397   4.003
10157TIP3    H230417   5.063   0.390   4.140
10158TIP3   OH230418   5.098   0.121   0.849
10158TIP3    H130419   5.098   0.085   0.760
10158TIP3    H230420   5.081   0.215   0.837
10159TIP3   OH230421   0.432   1.360   1.376
10159TIP3    H130422   0.429   1.437   1.320
10159TIP3    H230423   0.350   1.313   1.358
10160TIP3   OH230424   4.947   0.153   5.502
10160TIP3    H130425   4.980   0.126   5.588
10160TIP3    H230426   5.025   0.156   5.446
10161TIP3   OH230427   2.423   7.742   0.679
10161TIP3    H130428   2.355   7.727   0.613
10161TIP3    H230429   2.498   7.774   0.629
10162TIP3   OH230430   5.187   6.395   0.625
10162TIP3    H130431   5.278   6.380   0.652
10162TIP3    H230432   5.193   6.419   0.533
10163TIP3   OH230433   5.921   6.056   4.609
10163TIP3    H130434   5.834   6.052   4.570
10163TIP3    H230435   5.910   6.109   4.688
10164TIP3   OH230436   7.784   4.731   1.597
10164TIP3    H130437   7.789   4.663   1.530
10164TIP3    H230438   7.822   4.691   1.675
10165TIP3   OH230439   6.563   6.621   4.175
10165TIP3    H130440   6.646   6.579   4.153
10165TIP3    H230441   6.562   6.701   4.122
10166TIP3   OH230442   0.456   6.816   2.985
10166TIP3    H130443   0.498   6.895   2.950
10166TIP3    H230444   0.403   6.783   2.912
10167TIP3   OH230445   4.331   3.634   0.787
10167TIP3    H130446   4.371   3.578   0.854
10167TIP3    H230447   4.237   3.625   0.802
10168TIP3   OH230448   3.368   1.231   2.021
10168TIP3    H130449   3.462   1.232   2.004
10168TIP3    H230450   3.356   1.289   2.096
10169TIP3   OH230451   2.105   4.813   1.022
10169TIP3    H130452   2.191   4.849   1.041
10169TIP3    H230453   2.075   4.861   0.944
10170TIP3   OH230454   1.423   0.745   6.608
10170TIP3    H130455   1.449   0.676   6.547
10170TIP3    H230456   1.487   0.815   6.593
10171TIP3   OH230457   4.631   6.028   6.272
10171TIP3    H130458   4.563   6.015   6.206
10171TIP3    H230459   4.649   5.941   6.306
10172TIP3   OH230460   3.754   6.055   3.645
10172TIP3    H130461   3.719   6.000   3.575
10172TIP3    H230462   3.682   6.114   3.667
10173TIP3   OH230463   7.033   3.762   3.211
10173TIP3    H130464   7.017   3.841   3.263
10173TIP3    H230465   7.128   3.752   3.211
10174TIP3   OH230466   7.074   6.375   4.469
10174TIP3    H130467   6.995   6.356   4.419
10174TIP3    H230468   7.056   6.459   4.511
10175TIP3   OH230469   5.733   7.467   1.675
10175TIP3    H130470   5.687   7.550   1.688
10175TIP3    H230471   5.692   7.429   1.597
10176TIP3   OH230472   7.376   1.714   1.910
10176TIP3    H130473   7.313   1.781   1.936
10176TIP3    H230474   7.392   1.664   1.990
10177TIP3   OH230475   0.922   1.924   4.183
10177TIP3    H130476   0.911   1.913   4.277
10177TIP3    H230477   0.874   1.851   4.144
10178TIP3   OH230478   6.595   1.683   6.198
10178TIP3    H130479   6.629   1.624   6.265
10178TIP3    H230480   6.633   1.650   6.116
10179TIP3   OH230481   1.920   2.358   1.387
10179TIP3    H130482   1.853   2.408   1.341
10179TIP3    H230483   1.931   2.279   1.334
10180TIP3   OH230484   2.899   5.734   2.767
10180TIP3    H130485   2.825   5.794   2.773
10180TIP3    H230486   2.897   5.702   2.676
10181TIP3   OH230487   5.979   1.626   3.389
10181TIP3    H130488   6.059   1.574   3.387
10181TIP3    H230489   5.908   1.562   3.385
10182TIP3   OH230490   8.302   3.064   0.108
10182TIP3    H130491   8.252   2.985   0.091
10182TIP3    H230492   8.280   3.123   0.036
10183TIP3   OH230493   5.066   5.693   5.817
10183TIP3    H130494   4.975   5.691   5.789
10183TIP3    H230495   5.073   5.775   5.867
10184TIP3   OH230496   8.180   6.054   6.181
10184TIP3    H130497   8.234   6.088   6.253
10184TIP3    H230498   8.237   5.993   6.135
10185TIP3   OH230499   5.653   1.209   1.282
10185TIP3    H130500   5.722   1.270   1.259
10185TIP3    H230501   5.690   1.122   1.265
10186TIP3   OH230502   5.349   4.137   1.437
10186TIP3    H130503   5.332   4.045   1.458
10186TIP3    H230504   5.429   4.159   1.485
10187TIP3   OH230505   7.366   0.633   2.111
10187TIP3    H130506   7.283   0.677   2.131
10187TIP3    H230507   7.425   0.703   2.085
10188TIP3   OH230508   4.789   4.863   1.704
10188TIP3    H130509   4.729   4.830   1.637
10188TIP3    H230510   4.871   4.816   1.687
10189TIP3   OH230511   0.592   7.150   1.885
10189TIP3    H130512   0.549   7.067   1.904
10189TIP3    H230513   0.536   7.192   1.819
10190TIP3   OH230514   6.211   5.726   0.766
10190TIP3    H130515   6.291   5.769   0.735
10190TIP3    H230516   6.155   5.721   0.689
10191TIP3   OH230517   1.258   3.999   4.619
10191TIP3    H130518   1.306   4.066   4.666
10191TIP3    H230519   1.268   4.023   4.527
10192TIP3   OH230520   0.765   6.703   4.727
10192TIP3    H130521   0.699   6.643   4.693
10192TIP3    H230522   0.844   6.649   4.736
10193TIP3   OH230523   5.014   3.643   5.322
10193TIP3    H130524   5.031   3.564   5.374
10193TIP3    H230525   4.927   3.629   5.286
10194TIP3   OH230526   3.683   5.456   1.762
10194TIP3    H130527   3.750   5.524   1.757
10194TIP3    H230528   3.718   5.393   1.825
10195TIP3   OH230529   4.864   6.911   1.236
10195TIP3    H130530   4.772   6.918   1.211
10195TIP3    H230531   4.900   6.999   1.221
10196TIP3   OH230532   1.173   4.983   4.423
10196TIP3    H130533   1.174   4.991   4.518
10196TIP3    H230534   1.144   4.894   4.406
10197TIP3   OH230535   0.601   4.837   0.189
10197TIP3    H130536   0.606   4.932   0.197
10197TIP3    H230537   0.647   4.804   0.266
10198TIP3   OH230538   2.080   4.414   4.557
10198TIP3    H130539   2.068   4.329   4.514
10198TIP3    H230540   2.116   4.393   4.643
10199TIP3   OH230541   0.536   4.884   1.424
10199TIP3    H130542   0.603   4.869   1.490
10199TIP3    H230543   0.580   4.934   1.356
10200TIP3   OH230544   0.259   1.334   5.413
10200TIP3    H130545   0.308   1.277   5.353
10200TIP3    H230546   0.303   1.418   5.408
10201TIP3   OH230547   7.110   0.894   5.064
10201TIP3    H130548   7.015   0.892   5.074
10201TIP3    H230549   7.124   0.892   4.969
10202TIP3   OH230550   4.060   6.122   0.487
10202TIP3    H130551   3.992   6.097   0.424
10202TIP3    H230552   4.012   6.136   0.569
10203TIP3   OH230553   5.205   1.803   5.333
10203TIP3    H130554   5.264   1.850   5.275
10203TIP3    H230555   5.220   1.843   5.419
10204TIP3   OH230556   7.334   4.250   1.097
10204TIP3    H130557   7.306   4.338   1.124
10204TIP3    H230558   7.257   4.195   1.109
10205TIP3   OH230559   0.220   4.393   6.137
10205TIP3    H130560   0.287   4.351   6.082
10205TIP3    H230561   0.210   4.333   6.211
10206TIP3   OH230562   5.795   4.177   4.054
10206TIP3    H130563   5.826   4.266   4.038
10206TIP3    H230564   5.721   4.166   3.994
10207TIP3   OH230565   1.433   3.448   5.502
10207TIP3    H130566   1.339   3.435   5.497
10207TIP3    H230567   1.446   3.541   5.483
10208TIP3   OH230568   2.218   6.506   0.798
10208TIP3    H130569   2.227   6.513   0.893
10208TIP3    H230570   2.236   6.595   0.766
10209TIP3   OH230571   6.119   2.484   0.179
10209TIP3    H130572   6.170   2.412   0.216
10209TIP3    H230573   6.172   2.562   0.199
10210TIP3   OH230574   1.958   6.754   6.091
10210TIP3    H130575   1.880   6.790   6.134
10210TIP3    H230576   2.010   6.831   6.068
10211TIP3   OH230577   4.747   1.098   2.042
10211TIP3    H130578   4.831   1.134   2.070
10211TIP3    H230579   4.724   1.149   1.964
10212TIP3   OH230580   2.872   5.681   6.553
10212TIP3    H130581   2.940   5.690   6.486
10212TIP3    H230582   2.796   5.646   6.505
10213TIP3   OH230583   2.639   1.238   6.501
10213TIP3    H130584   2.594   1.172   6.448
10213TIP3    H230585   2.602   1.321   6.471
10214TIP3   OH230586   8.064   6.841   2.991
10214TIP3    H130587   8.030   6.892   2.918
10214TIP3    H230588   8.052   6.897   3.067
10215TIP3   OH230589   2.659   7.032   6.242
10215TIP3    H130590   2.597   7.023   6.315
10215TIP3    H230591   2.603   7.046   6.165
10216TIP3   OH230592   0.971   1.578   5.530
10216TIP3    H130593   0.944   1.487   5.539
10216TIP3    H230594   1.053   1.574   5.481
10217TIP3   OH230595   2.318   5.884   1.155
10217TIP3    H130596   2.389   5.824   1.135
10217TIP3    H230597   2.247   5.828   1.186
10218TIP3   OH230598   0.376   2.392   0.715
10218TIP3    H130599   0.434   2.316   0.712
10218TIP3    H230600   0.395   2.441   0.635
10219TIP3   OH230601   0.261   2.463   4.899
10219TIP3    H130602   0.277   2.374   4.866
10219TIP3    H230603   0.342   2.510   4.882
10220TIP3   OH230604   4.976   7.460   2.201
10220TIP3    H130605   4.963   7.370   2.169
10220TIP3    H230606   4.903   7.474   2.263
10221TIP3   OH230607   0.838   7.355   0.338
10221TIP3    H130608   0.769   7.397   0.286
10221TIP3    H230609   0.907   7.421   0.345
10222TIP3   OH230610   3.241   4.687   6.171
10222TIP3    H130611   3.202   4.731   6.095
10222TIP3    H230612   3.191   4.606   6.179
10223TIP3   OH230613   2.116   5.452   2.784
10223TIP3    H130614   2.024   5.455   2.757
10223TIP3    H230615   2.120   5.378   2.845
10224TIP3   OH230616   8.028   5.547   5.526
10224TIP3    H130617   8.013   5.605   5.451
10224TIP3    H230618   7.941   5.512   5.548
10225TIP3   OH230619   6.672   5.706   3.596
10225TIP3    H130620   6.767   5.697   3.602
10225TIP3    H230621   6.644   5.731   3.684
10226TIP3   OH230622   1.357   1.234   0.792
10226TIP3    H130623   1.282   1.284   0.824
10226TIP3    H230624   1.394   1.193   0.870
10227TIP3   OH230625   7.056   1.473   1.188
10227TIP3    H130626   7.096   1.387   1.197
10227TIP3    H230627   7.076   1.518   1.270
10228TIP3   OH230628   7.957   1.647   3.078
10228TIP3    H130629   7.913   1.562   3.088
10228TIP3    H230630   7.987   1.648   2.987
10229TIP3   OH230631   5.101   1.937   2.847
10229TIP3    H130632   5.047   2.003   2.804
10229TIP3    H230633   5.047   1.906   2.920
10230TIP3   OH230634   2.517   1.334   4.634
10230TIP3    H130635   2.591   1.387   4.605
10230TIP3    H230636   2.450   1.347   4.566
10231TIP3   OH230637   3.640   5.817   0.504
10231TIP3    H130638   3.562   5.762   0.497
10231TIP3    H230639   3.713   5.757   0.490
10232TIP3   OH230640   0.046   3.849   3.700
10232TIP3    H130641   0.110   3.897   3.648
10232TIP3    H230642   0.033   3.902   3.778
10233TIP3   OH230643   4.020   0.055   0.477
10233TIP3    H130644   4.014   0.149   0.460
10233TIP3    H230645   3.962   0.040   0.551
10234TIP3   OH230646   7.679   4.859   5.469
10234TIP3    H130647   7.671   4.774   5.425
10234TIP3    H230648   7.696   4.920   5.398
10235TIP3   OH230649   0.935   3.263   0.415
10235TIP3    H130650   1.023   3.301   0.414
10235TIP3    H230651   0.948   3.170   0.397
10236TIP3   OH230652   6.749   7.033   0.042
10236TIP3    H130653   6.750   7.009  -0.050
10236TIP3    H230654   6.730   7.127   0.042
10237TIP3   OH230655   4.963   0.655   3.939
10237TIP3    H130656   5.039   0.632   3.993
10237TIP3    H230657   4.972   0.749   3.923
10238TIP3   OH230658   7.294   5.450   4.573
10238TIP3    H130659   7.310   5.488   4.486
10238TIP3    H230660   7.377   5.460   4.619
10239TIP3   OH230661   7.743   1.400   5.840
10239TIP3    H130662   7.796   1.442   5.908
10239TIP3    H230663   7.766   1.307   5.845
10240TIP3   OH230664   5.272   5.885   5.695
10240TIP3    H130665   5.236   5.796   5.689
10240TIP3    H230666   5.285   5.899   5.789
10241TIP3   OH230667   8.013   4.510   3.553
10241TIP3    H130668   8.066   4.486   3.477
10241TIP3    H230669   8.059   4.584   3.593
10242TIP3   OH230670   6.459   0.311   1.836
10242TIP3    H130671   6.496   0.366   1.767
10242TIP3    H230672   6.534   0.289   1.892
10243TIP3   OH230673   2.166   5.349   0.585
10243TIP3    H130674   2.197   5.298   0.660
10243TIP3    H230675   2.206   5.307   0.509
10244TIP3   OH230676   6.078   6.644   0.523
10244TIP3    H130677   5.999   6.636   0.469
10244TIP3    H230678   6.060   6.719   0.579
10245TIP3   OH230679   4.636   7.788   5.038
10245TIP3    H130680   4.672   7.874   5.014
10245TIP3    H230681   4.693   7.725   4.994
10246TIP3   OH230682   0.888   2.681   1.764
10246TIP3    H130683   0.964   2.735   1.784
10246TIP3    H230684   0.813   2.737   1.784
10247TIP3   OH230685   3.053   3.099   3.427
10247TIP3    H130686   3.083   3.009   3.434
10247TIP3    H230687   2.958   3.093   3.429
10248TIP3   OH230688   8.081   7.169   2.541
10248TIP3    H130689   7.988   7.149   2.553
10248TIP3    H230690   8.087   7.263   2.557
10249TIP3   OH230691   2.897   3.654   5.731
10249TIP3    H130692   2.857   3.593   5.792
10249TIP3    H230693   2.910   3.602   5.651
10250TIP3   OH230694   1.053   0.111   3.678
10250TIP3    H130695   1.122   0.051   3.653
10250TIP3    H230696   1.050   0.106   3.774
10251TIP3   OH230697   3.011   2.460   3.889
10251TIP3    H130698   3.077   2.487   3.953
10251TIP3    H230699   3.062   2.432   3.813
10252TIP3   OH230700   4.849   1.242   4.000
10252TIP3    H130701   4.943   1.246   4.020
10252TIP3    H230702   4.807   1.276   4.079
10253TIP3   OH230703   5.467   4.794   1.916
10253TIP3    H130704   5.387   4.810   1.966
10253TIP3    H230705   5.512   4.878   1.916
10254TIP3   OH230706   6.970   7.603   1.900
10254TIP3    H130707   7.063   7.627   1.904
10254TIP3    H230708   6.924   7.680   1.931
10255TIP3   OH230709   4.098   2.762   4.158
10255TIP3    H130710   4.111   2.795   4.247
10255TIP3    H230711   4.020   2.706   4.165
10256TIP3   OH230712   0.370   3.917   4.446
10256TIP3    H130713   0.363   3.981   4.375
10256TIP3    H230714   0.285   3.874   4.448
10257TIP3   OH230715   0.703   0.768   0.270
10257TIP3    H130716   0.722   0.711   0.195
10257TIP3    H230717   0.745   0.724   0.344
10258TIP3   OH230718   0.531   3.539   3.222
10258TIP3    H130719   0.578   3.466   3.262
10258TIP3    H230720   0.598   3.606   3.206
10259TIP3   OH230721   6.189   4.107   6.183
10259TIP3    H130722   6.227   4.180   6.134
10259TIP3    H230723   6.095   4.111   6.164
10260TIP3   OH230724   7.677   6.675   3.327
10260TIP3    H130725   7.586   6.685   3.355
10260TIP3    H230726   7.709   6.765   3.317
10261TIP3   OH230727   2.484   6.556   4.863
10261TIP3    H130728   2.420   6.626   4.855
10261TIP3    H230729   2.568   6.600   4.869
10262TIP3   OH230730   5.476   5.481   1.919
10262TIP3    H130731   5.464   5.409   1.857
10262TIP3    H230732   5.411   5.547   1.893
10263TIP3   OH230733   7.440   2.686   3.348
10263TIP3    H130734   7.355   2.643   3.365
10263TIP3    H230735   7.435   2.713   3.256
10264TIP3   OH230736   8.242   2.924   6.503
10264TIP3    H130737   8.166   2.870   6.483
10264TIP3    H230738   8.247   2.987   6.431
10265TIP3   OH230739   6.778   2.190   0.046
10265TIP3    H130740   6.856   2.147   0.081
10265TIP3    H230741   6.797   2.201  -0.048
10266TIP3   OH230742   0.063   4.263   3.511
10266TIP3    H130743   0.138   4.228   3.463
10266TIP3    H230744   0.099   4.288   3.596
10267TIP3   OH230745   2.526   0.591   0.656
10267TIP3    H130746   2.613   0.602   0.694
10267TIP3    H230747   2.477   0.541   0.721
10268TIP3   OH230748   7.705   5.335   4.652
10268TIP3    H130749   7.692   5.401   4.720
10268TIP3    H230750   7.758   5.268   4.694
10269TIP3   OH230751   5.602   3.595   2.768
10269TIP3    H130752   5.573   3.512   2.730
10269TIP3    H230753   5.628   3.573   2.858
10270TIP3   OH230754   8.207   4.035   0.263
10270TIP3    H130755   8.182   4.011   0.353
10270TIP3    H230756   8.197   4.130   0.260
10271TIP3   OH230757   0.657   5.481   0.006
10271TIP3    H130758   0.594   5.432   0.058
10271TIP3    H230759   0.738   5.478   0.057
10272TIP3   OH230760   0.881   1.879   3.834
10272TIP3    H130761   0.824   1.831   3.894
10272TIP3    H230762   0.941   1.812   3.800
10273TIP3   OH230763   0.243   2.437   2.296
10273TIP3    H130764   0.330   2.408   2.271
10273TIP3    H230765   0.234   2.414   2.388
10274TIP3   OH230766   4.776   1.534   5.112
10274TIP3    H130767   4.776   1.624   5.081
10274TIP3    H230768   4.692   1.524   5.157
10275TIP3   OH230769   1.299   7.215   1.955
10275TIP3    H130770   1.215   7.179   1.927
10275TIP3    H230771   1.354   7.138   1.972
10276TIP3   OH230772   3.593   5.749   2.425
10276TIP3    H130773   3.622   5.679   2.368
10276TIP3    H230774   3.547   5.705   2.497
10277TIP3   OH230775   4.529   5.743   3.271
10277TIP3    H130776   4.567   5.658   3.290
10277TIP3    H230777   4.587   5.782   3.206
10278TIP3   OH230778   3.859   7.681   5.819
10278TIP3    H130779   3.926   7.693   5.887
10278TIP3    H230780   3.873   7.753   5.758
10279TIP3   OH230781   0.242   5.736   5.688
10279TIP3    H130782   0.171   5.757   5.626
10279TIP3    H230783   0.310   5.697   5.633
10280TIP3   OH230784   2.535   2.774   1.053
10280TIP3    H130785   2.559   2.682   1.060
10280TIP3    H230786   2.465   2.776   0.987
10281TIP3   OH230787   0.195   4.552   3.575
10281TIP3    H130788   0.200   4.484   3.643
10281TIP3    H230789   0.235   4.512   3.498
10282TIP3   OH230790   8.181   0.981   0.415
10282TIP3    H130791   8.237   1.049   0.453
10282TIP3    H230792   8.134   1.025   0.345
10283TIP3   OH230793   6.889   5.398   3.830
10283TIP3    H130794   6.868   5.334   3.762
10283TIP3    H230795   6.984   5.393   3.840
10284TIP3   OH230796   4.267   3.082   1.968
10284TIP3    H130797   4.281   3.175   1.955
10284TIP3    H230798   4.355   3.045   1.976
10285TIP3   OH230799   8.168   1.200   2.822
10285TIP3    H130800   8.181   1.260   2.895
10285TIP3    H230801   8.078   1.216   2.793
10286TIP3   OH230802   1.213   2.590   2.379
10286TIP3    H130803   1.189   2.563   2.290
10286TIP3    H230804   1.165   2.672   2.393
10287TIP3   OH230805   7.445   0.488   1.897
10287TIP3    H130806   7.530   0.453   1.923
10287TIP3    H230807   7.407   0.520   1.979
10288TIP3   OH230808   7.876   3.760   3.311
10288TIP3    H130809   7.851   3.849   3.289
10288TIP3    H230810   7.972   3.760   3.309
10289TIP3   OH230811   1.591   1.226   4.912
10289TIP3    H130812   1.562   1.317   4.922
10289TIP3    H230813   1.668   1.220   4.969
10290TIP3   OH230814   0.538   3.980   0.973
10290TIP3    H130815   0.507   3.903   0.925
10290TIP3    H230816   0.633   3.967   0.980
10291TIP3   OH230817   0.897   2.429   4.337
10291TIP3    H130818   0.898   2.382   4.254
10291TIP3    H230819   0.978   2.402   4.381
10292TIP3   OH230820   4.666   5.591   4.089
10292TIP3    H130821   4.701   5.578   4.001
10292TIP3    H230822   4.578   5.625   4.076
10293TIP3   OH230823   2.668   5.910   2.801
10293TIP3    H130824   2.603   5.843   2.819
10293TIP3    H230825   2.625   5.992   2.826
10294TIP3   OH230826   6.455   4.106   0.435
10294TIP3    H130827   6.409   4.156   0.368
10294TIP3    H230828   6.387   4.083   0.499
10295TIP3   OH230829   4.412   4.024   5.646
10295TIP3    H130830   4.484   4.066   5.695
10295TIP3    H230831   4.430   3.931   5.654
10296TIP3   OH230832   0.053   0.785   6.690
10296TIP3    H130833   0.086   0.716   6.634
10296TIP3    H230834   0.121   0.798   6.756
10297TIP3   OH230835   7.266   0.755   6.072
10297TIP3    H130836   7.256   0.779   6.164
10297TIP3    H230837   7.182   0.780   6.031
10298TIP3   OH230838   7.266   1.284   2.606
10298TIP3    H130839   7.289   1.213   2.666
10298TIP3    H230840   7.204   1.245   2.545
10299TIP3   OH230841   0.197   5.474   6.785
10299TIP3    H130842   0.167   5.511   6.702
10299TIP3    H230843   0.292   5.484   6.782
10300TIP3   OH230844   0.375   1.448   0.341
10300TIP3    H130845   0.397   1.477   0.253
10300TIP3    H230846   0.397   1.355   0.343
10301TIP3   OH230847   3.724   2.902   5.558
10301TIP3    H130848   3.731   2.867   5.647
10301TIP3    H230849   3.706   2.826   5.503
10302TIP3   OH230850   3.821   4.306   3.796
10302TIP3    H130851   3.762   4.379   3.818
10302TIP3    H230852   3.883   4.343   3.734
10303TIP3   OH230853   7.113   0.667   2.429
10303TIP3    H130854   7.140   0.600   2.367
10303TIP3    H230855   7.017   0.667   2.425
10304TIP3   OH230856   3.438   5.553   1.869
10304TIP3    H130857   3.404   5.611   1.802
10304TIP3    H230858   3.527   5.532   1.839
10305TIP3   OH230859   6.809   6.508   2.986
10305TIP3    H130860   6.713   6.517   2.986
10305TIP3    H230861   6.833   6.505   3.078
10306TIP3   OH230862   3.636   5.776   5.212
10306TIP3    H130863   3.631   5.869   5.190
10306TIP3    H230864   3.712   5.744   5.163
10307TIP3   OH230865   7.471   2.795   2.612
10307TIP3    H130866   7.556   2.774   2.649
10307TIP3    H230867   7.480   2.885   2.580
10308TIP3   OH230868   1.371   4.797   3.924
10308TIP3    H130869   1.437   4.842   3.977
10308TIP3    H230870   1.420   4.761   3.850
10309TIP3   OH230871   6.256   3.380   0.199
10309TIP3    H130872   6.270   3.308   0.261
10309TIP3    H230873   6.329   3.440   0.215
10310TIP3   OH230874   5.149   4.807   2.622
10310TIP3    H130875   5.147   4.787   2.716
10310TIP3    H230876   5.115   4.729   2.580
10311TIP3   OH230877   3.314   1.839   2.040
10311TIP3    H130878   3.392   1.813   1.991
10311TIP3    H230879   3.242   1.794   1.996
10312TIP3   OH230880   2.626   2.305   4.057
10312TIP3    H130881   2.689   2.366   4.094
10312TIP3    H230882   2.592   2.256   4.132
10313TIP3   OH230883   2.288   2.724   4.857
10313TIP3    H130884   2.381   2.748   4.856
10313TIP3    H230885   2.261   2.737   4.948
10314TIP3   OH230886   1.123   4.194   1.213
10314TIP3    H130887   1.093   4.142   1.287
10314TIP3    H230888   1.177   4.263   1.251
10315TIP3   OH230889   2.787   1.991   6.389
10315TIP3    H130890   2.781   2.084   6.368
10315TIP3    H230891   2.696   1.963   6.397
10316TIP3   OH230892   0.406   7.795   2.926
10316TIP3    H130893   0.351   7.748   2.988
10316TIP3    H230894   0.418   7.733   2.854
10317TIP3   OH230895   1.839   5.094   0.662
10317TIP3    H130896   1.889   5.153   0.606
10317TIP3    H230897   1.777   5.150   0.709
10318TIP3   OH230898   3.788   5.453   0.899
10318TIP3    H130899   3.697   5.425   0.906
10318TIP3    H230900   3.821   5.451   0.989
10319TIP3   OH230901   3.350   0.460   1.819
10319TIP3    H130902   3.281   0.398   1.843
10319TIP3    H230903   3.309   0.546   1.827
10320TIP3   OH230904   6.089   4.563   0.344
10320TIP3    H130905   6.089   4.588   0.252
10320TIP3    H230906   6.038   4.632   0.388
10321TIP3   OH230907   7.830   1.049   3.091
10321TIP3    H130908   7.749   1.023   3.048
10321TIP3    H230909   7.838   1.143   3.074
10322TIP3   OH230910   6.059   4.630   1.739
10322TIP3    H130911   5.963   4.635   1.742
10322TIP3    H230912   6.081   4.662   1.651
10323TIP3   OH230913   1.513   6.697   3.771
10323TIP3    H130914   1.604   6.669   3.777
10323TIP3    H230915   1.504   6.767   3.836
10324TIP3   OH230916   8.045   7.148   6.553
10324TIP3    H130917   8.140   7.146   6.549
10324TIP3    H230918   8.022   7.083   6.620
10325TIP3   OH230919   5.946   5.537   4.062
10325TIP3    H130920   5.963   5.527   3.968
10325TIP3    H230921   5.859   5.576   4.067
10326TIP3   OH230922   3.118   3.351   1.735
10326TIP3    H130923   3.095   3.430   1.783
10326TIP3    H230924   3.138   3.287   1.803
10327TIP3   OH230925   7.928   3.172   2.779
10327TIP3    H130926   7.900   3.200   2.692
10327TIP3    H230927   8.000   3.232   2.801
10328TIP3   OH230928   6.490   0.164   3.971
10328TIP3    H130929   6.469   0.104   4.042
10328TIP3    H230930   6.577   0.136   3.941
10329TIP3   OH230931   2.081   1.874   2.553
10329TIP3    H130932   2.039   1.789   2.544
10329TIP3    H230933   2.035   1.916   2.626
10330TIP3   OH230934   3.678   6.546   1.154
10330TIP3    H130935   3.613   6.489   1.195
10330TIP3    H230936   3.631   6.586   1.081
10331TIP3   OH230937   5.023   0.672   4.547
10331TIP3    H130938   5.007   0.707   4.635
10331TIP3    H230939   5.117   0.683   4.533
10332TIP3   OH230940   6.793   3.939   3.900
10332TIP3    H130941   6.818   3.850   3.873
10332TIP3    H230942   6.723   3.925   3.964
10333TIP3   OH230943   3.518   5.399   5.662
10333TIP3    H130944   3.444   5.436   5.613
10333TIP3    H230945   3.592   5.406   5.602
10334TIP3   OH230946   0.907   5.555   5.142
10334TIP3    H130947   0.982   5.595   5.186
10334TIP3    H230948   0.934   5.465   5.126
10335TIP3   OH230949   2.173   3.514   3.932
10335TIP3    H130950   2.124   3.531   4.012
10335TIP3    H230951   2.112   3.538   3.862
10336TIP3   OH230952   1.317   6.592   5.590
10336TIP3    H130953   1.250   6.583   5.522
10336TIP3    H230954   1.281   6.545   5.665
10337TIP3   OH230955   1.017   4.676   5.367
10337TIP3    H130956   1.062   4.603   5.325
10337TIP3    H230957   0.949   4.702   5.304
10338TIP3   OH230958   1.727   2.493   1.288
10338TIP3    H130959   1.654   2.430   1.292
10338TIP3    H230960   1.687   2.577   1.308
10339TIP3   OH230961   6.754   3.405   3.321
10339TIP3    H130962   6.848   3.403   3.302
10339TIP3    H230963   6.719   3.473   3.263
10340TIP3   OH230964   0.413   3.918   2.964
10340TIP3    H130965   0.340   3.863   2.992
10340TIP3    H230966   0.377   3.971   2.893
10341TIP3   OH230967   5.296   7.452   3.483
10341TIP3    H130968   5.387   7.430   3.464
10341TIP3    H230969   5.295   7.475   3.576
10342TIP3   OH230970   5.951   6.170   3.669
10342TIP3    H130971   5.985   6.083   3.690
10342TIP3    H230972   5.913   6.201   3.752
10343TIP3   OH230973   0.531   6.751   6.509
10343TIP3    H130974   0.521   6.691   6.435
10343TIP3    H230975   0.520   6.695   6.586
10344TIP3   OH230976   0.118   5.960   2.725
10344TIP3    H130977   0.154   6.014   2.796
10344TIP3    H230978   0.122   5.871   2.758
10345TIP3   OH230979   7.247   0.753   2.788
10345TIP3    H130980   7.176   0.813   2.808
10345TIP3    H230981   7.309   0.806   2.738
10346TIP3   OH230982   0.901   7.098   3.879
10346TIP3    H130983   0.812   7.093   3.844
10346TIP3    H230984   0.943   7.017   3.850
10347TIP3   OH230985   4.939   2.005   2.079
10347TIP3    H130986   4.939   2.100   2.071
10347TIP3    H230987   4.852   1.983   2.112
10348TIP3   OH230988   3.832   1.532   1.357
10348TIP3    H130989   3.788   1.617   1.353
10348TIP3    H230990   3.767   1.469   1.327
10349TIP3   OH230991   6.214   6.087   1.308
10349TIP3    H130992   6.259   6.126   1.233
10349TIP3    H230993   6.224   5.993   1.296
10350TIP3   OH230994   4.156   6.422   4.105
10350TIP3    H130995   4.244   6.401   4.072
10350TIP3    H230996   4.100   6.354   4.067
10351TIP3   OH230997   0.221   1.089   6.575
10351TIP3    H130998   0.131   1.091   6.544
10351TIP3    H230999   0.242   0.996   6.583
10352TIP3   OH231000   8.170   6.896   0.238
10352TIP3    H131001   8.216   6.980   0.242
10352TIP3    H231002   8.079   6.919   0.222
10353TIP3   OH231003   2.964   6.377   2.276
10353TIP3    H131004   3.036   6.321   2.247
10353TIP3    H231005   2.923   6.407   2.196
10354TIP3   OH231006   6.084   4.914   0.922
10354TIP3    H131007   6.121   4.997   0.951
10354TIP3    H231008   6.044   4.876   1.001
10355TIP3   OH231009   8.226   2.874   3.776
10355TIP3    H131010   8.263   2.845   3.859
10355TIP3    H231011   8.158   2.937   3.800
10356TIP3   OH231012   6.847   7.352   4.084
10356TIP3    H131013   6.861   7.306   4.166
10356TIP3    H231014   6.922   7.326   4.029
10357TIP3   OH231015   3.346   4.327   6.276
10357TIP3    H131016   3.339   4.241   6.235
10357TIP3    H231017   3.438   4.351   6.265
10358TIP3   OH231018   7.165   6.183  -0.023
10358TIP3    H131019   7.088   6.149  -0.068
10358TIP3    H231020   7.167   6.137   0.061
10359TIP3   OH231021   2.417   3.632   1.551
10359TIP3    H131022   2.339   3.623   1.606
10359TIP3    H231023   2.466   3.551   1.566
10360TIP3   OH231024   5.722   2.563   5.327
10360TIP3    H131025   5.673   2.609   5.259
10360TIP3    H231026   5.655   2.533   5.389
10361TIP3   OH231027   2.596   0.185   1.526
10361TIP3    H131028   2.521   0.242   1.544
10361TIP3    H231029   2.566   0.098   1.551
10362TIP3   OH231030   2.393   5.022   5.190
10362TIP3    H131031   2.463   4.962   5.217
10362TIP3    H231032   2.319   4.998   5.245
10363TIP3   OH231033   4.025   4.055   4.797
10363TIP3    H131034   4.106   4.036   4.749
10363TIP3    H231035   4.016   4.150   4.793
10364TIP3   OH231036   8.017   2.797   5.859
10364TIP3    H131037   7.983   2.886   5.872
10364TIP3    H231038   7.960   2.760   5.791
10365TIP3   OH231039   0.913   3.199   5.970
10365TIP3    H131040   0.933   3.243   5.887
10365TIP3    H231041   0.887   3.269   6.029
10366TIP3   OH231042   8.170   7.682   1.525
10366TIP3    H131043   8.224   7.603   1.531
10366TIP3    H231044   8.123   7.673   1.443
10367TIP3   OH231045   6.741   2.879   5.218
10367TIP3    H131046   6.710   2.947   5.158
10367TIP3    H231047   6.836   2.878   5.205
10368TIP3   OH231048   4.009   1.040   3.851
10368TIP3    H131049   4.062   0.965   3.824
10368TIP3    H231050   3.973   1.075   3.769
10369TIP3   OH231051   1.140   3.230   4.010
10369TIP3    H131052   1.134   3.148   3.962
10369TIP3    H231053   1.085   3.291   3.961
10370TIP3   OH231054   6.667   7.130   3.176
10370TIP3    H131055   6.606   7.080   3.121
10370TIP3    H231056   6.734   7.159   3.115
10371TIP3   OH231057   0.995   4.762   0.917
10371TIP3    H131058   1.016   4.671   0.900
10371TIP3    H231059   1.069   4.811   0.882
10372TIP3   OH231060   3.490   7.649   0.498
10372TIP3    H131061   3.463   7.584   0.433
10372TIP3    H231062   3.467   7.733   0.459
10373TIP3   OH231063   0.786   3.880   0.433
10373TIP3    H131064   0.841   3.844   0.364
10373TIP3    H231065   0.838   3.870   0.513
10374TIP3   OH231066   5.266   7.178   1.312
10374TIP3    H131067   5.174   7.180   1.286
10374TIP3    H231068   5.293   7.088   1.294
10375TIP3   OH231069   4.083   2.977   3.293
10375TIP3    H131070   4.155   2.960   3.233
10375TIP3    H231071   4.118   3.040   3.356
10376TIP3   OH231072   5.663   1.301   6.141
10376TIP3    H131073   5.725   1.252   6.195
10376TIP3    H231074   5.582   1.251   6.145
10377TIP3   OH231075   6.812   3.408   3.955
10377TIP3    H131076   6.763   3.402   4.037
10377TIP3    H231077   6.781   3.333   3.904
10378TIP3   OH231078   8.035   4.453   0.186
10378TIP3    H131079   7.949   4.413   0.193
10378TIP3    H231080   8.024   4.525   0.123
10379TIP3   OH231081   6.507   2.978   4.324
10379TIP3    H131082   6.449   3.035   4.374
10379TIP3    H231083   6.493   2.891   4.362
10380TIP3   OH231084   1.631   1.772   4.338
10380TIP3    H131085   1.602   1.857   4.304
10380TIP3    H231086   1.550   1.722   4.348
10381TIP3   OH231087   3.014   5.599   5.662
10381TIP3    H131088   3.088   5.631   5.714
10381TIP3    H231089   2.967   5.679   5.636
10382TIP3   OH231090   8.013   4.123   1.192
10382TIP3    H131091   7.995   4.149   1.283
10382TIP3    H231092   7.998   4.203   1.141
10383TIP3   OH231093   5.221   4.413   3.903
10383TIP3    H131094   5.236   4.386   3.994
10383TIP3    H231095   5.305   4.399   3.860
10384TIP3   OH231096   5.617   0.165   4.480
10384TIP3    H131097   5.565   0.178   4.400
10384TIP3    H231098   5.689   0.109   4.452
10385TIP3   OH231099   5.789   1.006   6.675
10385TIP3    H131100   5.843   1.005   6.596
10385TIP3    H231101   5.707   0.964   6.649
10386TIP3   OH231102   4.094   1.049   4.393
10386TIP3    H131103   4.180   1.089   4.388
10386TIP3    H231104   4.108   0.958   4.365
10387TIP3   OH231105   2.843   1.611   2.393
10387TIP3    H131106   2.821   1.687   2.340
10387TIP3    H231107   2.813   1.634   2.481
10388TIP3   OH231108   1.235   1.423   1.877
10388TIP3    H131109   1.147   1.407   1.843
10388TIP3    H231110   1.293   1.380   1.814
10389TIP3   OH231111   3.424   7.515   1.719
10389TIP3    H131112   3.446   7.479   1.805
10389TIP3    H231113   3.483   7.470   1.659
10390TIP3   OH231114   0.185   0.508   4.690
10390TIP3    H131115   0.175   0.457   4.609
10390TIP3    H231116   0.269   0.552   4.680
10391TIP3   OH231117   1.904   0.578   2.318
10391TIP3    H131118   1.830   0.633   2.291
10391TIP3    H231119   1.909   0.511   2.249
10392TIP3   OH231120   0.292   7.126   5.183
10392TIP3    H131121   0.235   7.192   5.222
10392TIP3    H231122   0.235   7.075   5.126
10393TIP3   OH231123   2.005   7.415   3.221
10393TIP3    H131124   2.084   7.362   3.211
10393TIP3    H231125   1.947   7.385   3.151
10394TIP3   OH231126   5.699   4.329   4.685
10394TIP3    H131127   5.684   4.423   4.694
10394TIP3    H231128   5.724   4.301   4.773
10395TIP3   OH231129   1.869   6.834   1.509
10395TIP3    H131130   1.847   6.927   1.501
10395TIP3    H231131   1.903   6.810   1.423
10396TIP3   OH231132   5.335   2.095   5.859
10396TIP3    H131133   5.428   2.080   5.842
10396TIP3    H231134   5.307   2.153   5.789
10397TIP3   OH231135   0.869   7.505   0.893
10397TIP3    H131136   0.787   7.552   0.877
10397TIP3    H231137   0.868   7.487   0.987
10398TIP3   OH231138   7.948   3.518   6.320
10398TIP3    H131139   7.870   3.573   6.320
10398TIP3    H231140   8.005   3.558   6.254
10399TIP3   OH231141   1.030   4.028   6.083
10399TIP3    H131142   0.951   3.990   6.044
10399TIP3    H231143   1.088   4.044   6.008
10400TIP3   OH231144   5.374   4.320   0.522
10400TIP3    H131145   5.359   4.397   0.467
10400TIP3    H231146   5.382   4.356   0.610
10401TIP3   OH231147   0.398   2.333   3.935
10401TIP3    H131148   0.351   2.280   3.871
10401TIP3    H231149   0.332   2.355   4.000
10402TIP3   OH231150   0.193   6.340   6.314
10402TIP3    H131151   0.134   6.273   6.350
10402TIP3    H231152   0.155   6.361   6.228
10403TIP3   OH231153   7.970   3.936   4.391
10403TIP3    H131154   7.888   3.894   4.419
10403TIP3    H231155   7.958   3.955   4.298
10404TIP3   OH231156   4.099   0.057   3.277
10404TIP3    H131157   4.052  -0.027   3.284
10404TIP3    H231158   4.092   0.095   3.364
10405TIP3   OH231159   4.548   2.824   3.104
10405TIP3    H131160   4.598   2.903   3.125
10405TIP3    H231161   4.611   2.752   3.111
10406TIP3   OH231162   6.670   0.181   2.664
10406TIP3    H131163   6.611   0.116   2.702
10406TIP3    H231164   6.729   0.130   2.608
10407TIP3   OH231165   2.094   5.035   2.847
10407TIP3    H131166   2.115   4.960   2.904
10407TIP3    H231167   2.016   5.074   2.888
10408TIP3   OH231168   5.812   0.813   2.553
10408TIP3    H131169   5.773   0.769   2.477
10408TIP3    H231170   5.897   0.844   2.521
10409TIP3   OH231171   3.671   7.511   2.775
10409TIP3    H131172   3.581   7.504   2.743
10409TIP3    H231173   3.715   7.432   2.741
10410TIP3   OH231174   0.334   0.071   3.418
10410TIP3    H131175   0.251   0.111   3.442
10410TIP3    H231176   0.316  -0.023   3.416
10411TIP3   OH231177   2.828   1.284   0.364
10411TIP3    H131178   2.806   1.191   0.353
10411TIP3    H231179   2.746   1.325   0.391
10412TIP3   OH231180   4.478   4.659   6.460
10412TIP3    H131181   4.536   4.660   6.384
10412TIP3    H231182   4.518   4.597   6.521
10413TIP3   OH231183   6.704   6.546   4.588
10413TIP3    H131184   6.765   6.526   4.658
10413TIP3    H231185   6.618   6.521   4.623
10414TIP3   OH231186   6.346   5.528   0.443
10414TIP3    H131187   6.395   5.448   0.460
10414TIP3    H231188   6.269   5.523   0.499
10415TIP3   OH231189   7.390   7.378   0.445
10415TIP3    H131190   7.307   7.410   0.481
10415TIP3    H231191   7.377   7.284   0.434
10416TIP3   OH231192   5.828   1.132   2.198
10416TIP3    H131193   5.851   1.130   2.106
10416TIP3    H231194   5.746   1.182   2.202
10417TIP3   OH231195   2.612   2.788   5.452
10417TIP3    H131196   2.620   2.740   5.535
10417TIP3    H231197   2.637   2.878   5.474
10418TIP3   OH231198   0.318   5.888   3.289
10418TIP3    H131199   0.225   5.869   3.279
10418TIP3    H231200   0.362   5.825   3.233
10419TIP3   OH231201   0.396   6.122   1.228
10419TIP3    H131202   0.478   6.091   1.265
10419TIP3    H231203   0.387   6.072   1.146
10420TIP3   OH231204   1.496   7.352   0.055
10420TIP3    H131205   1.454   7.266   0.051
10420TIP3    H231206   1.464   7.390   0.137
10421TIP3   OH231207   3.260   1.912   3.069
10421TIP3    H131208   3.312   1.969   3.013
10421TIP3    H231209   3.264   1.954   3.155
10422TIP3   OH231210   1.334   2.505   0.101
10422TIP3    H131211   1.418   2.465   0.123
10422TIP3    H231212   1.355   2.595   0.077
10423TIP3   OH231213   3.057   2.589   2.866
10423TIP3    H131214   3.128   2.632   2.913
10423TIP3    H231215   3.096   2.567   2.781
10424TIP3   OH231216   5.418   6.114   1.447
10424TIP3    H131217   5.453   6.030   1.417
10424TIP3    H231218   5.495   6.163   1.476
10425TIP3   OH231219   3.963   1.412   5.599
10425TIP3    H131220   4.015   1.478   5.645
10425TIP3    H231221   4.027   1.362   5.548
10426TIP3   OH231222   6.442   2.271  -0.016
10426TIP3    H131223   6.356   2.306   0.011
10426TIP3    H231224   6.505   2.331   0.023
10427TIP3   OH231225   0.271   6.316   0.719
10427TIP3    H131226   0.207   6.367   0.668
10427TIP3    H231227   0.327   6.275   0.653
10428TIP3   OH231228   8.179   6.642   6.334
10428TIP3    H131229   8.148   6.553   6.317
10428TIP3    H231230   8.135   6.666   6.416
10429TIP3   OH231231   4.086   0.394   1.247
10429TIP3    H131232   4.112   0.436   1.329
10429TIP3    H231233   4.108   0.302   1.259
10430TIP3   OH231234   2.054   2.864   1.594
10430TIP3    H131235   1.993   2.800   1.629
10430TIP3    H231236   2.135   2.850   1.644
10431TIP3   OH231237   5.586   2.290   6.307
10431TIP3    H131238   5.589   2.384   6.322
10431TIP3    H231239   5.668   2.257   6.345
10432TIP3   OH231240   6.999   1.577   5.865
10432TIP3    H131241   6.919   1.585   5.813
10432TIP3    H231242   6.979   1.508   5.928
10433TIP3   OH231243   3.979   0.113   1.656
10433TIP3    H131244   4.064   0.071   1.645
10433TIP3    H231245   3.922   0.043   1.687
10434TIP3   OH231246   7.295   2.366   0.632
10434TIP3    H131247   7.371   2.361   0.691
10434TIP3    H231248   7.334   2.379   0.545
10435TIP3   OH231249   0.140   0.789   4.238
10435TIP3    H131250   0.048   0.783   4.209
10435TIP3    H231251   0.186   0.827   4.163
10436TIP3   OH231252   3.817   5.804   6.370
10436TIP3    H131253   3.913   5.799   6.365
10436TIP3    H231254   3.797   5.782   6.461
10437TIP3   OH231255   0.296   0.951   1.475
10437TIP3    H131256   0.203   0.953   1.495
10437TIP3    H231257   0.329   1.037   1.502
10438TIP3   OH231258   7.472   0.770   6.567
10438TIP3    H131259   7.405   0.786   6.633
10438TIP3    H231260   7.493   0.677   6.576
10439TIP3   OH231261   3.501   1.801   4.706
10439TIP3    H131262   3.533   1.713   4.726
10439TIP3    H231263   3.421   1.787   4.656
10440TIP3   OH231264   0.784   3.064   1.195
10440TIP3    H131265   0.859   3.022   1.238
10440TIP3    H231266   0.770   3.145   1.245
10441TIP3   OH231267   7.275   3.267   1.361
10441TIP3    H131268   7.199   3.224   1.322
10441TIP3    H231269   7.349   3.240   1.306
10442TIP3   OH231270   8.287   5.832   5.532
10442TIP3    H131271   8.257   5.784   5.455
10442TIP3    H231272   8.334   5.908   5.496
10443TIP3   OH231273   2.246   7.747   1.429
10443TIP3    H131274   2.158   7.778   1.407
10443TIP3    H231275   2.281   7.715   1.346
10444TIP3   OH231276   7.140   3.528   1.330
10444TIP3    H131277   7.195   3.450   1.343
10444TIP3    H231278   7.107   3.549   1.417
10445TIP3   OH231279   3.663   5.281   1.518
10445TIP3    H131280   3.634   5.194   1.547
10445TIP3    H231281   3.611   5.342   1.569
10446TIP3   OH231282   7.420   3.559   4.845
10446TIP3    H131283   7.354   3.511   4.895
10446TIP3    H231284   7.401   3.538   4.753
10447TIP3   OH231285   8.156   7.306   0.684
10447TIP3    H131286   8.196   7.257   0.756
10447TIP3    H231287   8.096   7.366   0.727
10448TIP3   OH231288   3.943   7.751   5.554
10448TIP3    H131289   3.996   7.753   5.474
10448TIP3    H231290   4.002   7.782   5.623
10449TIP3   OH231291   6.559   5.113   5.448
10449TIP3    H131292   6.481   5.066   5.420
10449TIP3    H231293   6.607   5.050   5.502
10450TIP3   OH231294   7.135   1.183   1.322
10450TIP3    H131295   7.100   1.195   1.410
10450TIP3    H231296   7.109   1.095   1.297
10451TIP3   OH231297   6.479   7.396   4.838
10451TIP3    H131298   6.412   7.465   4.834
10451TIP3    H231299   6.507   7.395   4.929
10452TIP3   OH231300   3.561   4.288   4.838
10452TIP3    H131301   3.496   4.230   4.877
10452TIP3    H231302   3.578   4.354   4.905
10453TIP3   OH231303   0.857   7.202   6.756
10453TIP3    H131304   0.814   7.230   6.838
10453TIP3    H231305   0.891   7.284   6.719
10454TIP3   OH231306   5.092   2.209   0.563
10454TIP3    H131307   5.179   2.247   0.575
10454TIP3    H231308   5.107   2.115   0.559
10455TIP3   OH231309   0.259   2.562   5.877
10455TIP3    H131310   0.195   2.585   5.810
10455TIP3    H231311   0.315   2.497   5.835
10456TIP3   OH231312   2.607   5.612   2.826
10456TIP3    H131313   2.626   5.622   2.733
10456TIP3    H231314   2.519   5.575   2.829
10457TIP3   OH231315   5.796   4.877   5.073
10457TIP3    H131316   5.824   4.932   5.000
10457TIP3    H231317   5.864   4.889   5.139
10458TIP3   OH231318   6.474   0.610   3.682
10458TIP3    H131319   6.382   0.637   3.674
10458TIP3    H231320   6.470   0.514   3.689
10459TIP3   OH231321   3.111   3.537   3.763
10459TIP3    H131322   3.038   3.594   3.737
10459TIP3    H231323   3.074   3.481   3.832
10460TIP3   OH231324   5.062   2.971   2.570
10460TIP3    H131325   5.028   2.904   2.511
10460TIP3    H231326   5.043   2.938   2.658
10461TIP3   OH231327   5.690   6.140   2.024
10461TIP3    H131328   5.611   6.188   2.048
10461TIP3    H231329   5.671   6.105   1.936
10462TIP3   OH231330   0.171   5.398   5.697
10462TIP3    H131331   0.171   5.467   5.764
10462TIP3    H231332   0.103   5.424   5.636
10463TIP3   OH231333   6.076   5.739   3.661
10463TIP3    H131334   6.059   5.823   3.704
10463TIP3    H231335   6.059   5.674   3.728
10464TIP3   OH231336   2.341   6.094   1.317
10464TIP3    H131337   2.435   6.111   1.321
10464TIP3    H231338   2.333   6.017   1.261
10465TIP3   OH231339   2.170   6.433   2.745
10465TIP3    H131340   2.158   6.482   2.826
10465TIP3    H231341   2.240   6.479   2.699
10466TIP3   OH231342   5.523   2.608   1.837
10466TIP3    H131343   5.540   2.526   1.883
10466TIP3    H231344   5.580   2.672   1.880
10467TIP3   OH231345   6.845   7.577   0.157
10467TIP3    H131346   6.770   7.601   0.102
10467TIP3    H231347   6.843   7.639   0.229
10468TIP3   OH231348   1.090   2.301   4.523
10468TIP3    H131349   1.114   2.357   4.596
10468TIP3    H231350   1.142   2.334   4.449
10469TIP3   OH231351   0.277   5.323   5.416
10469TIP3    H131352   0.220   5.278   5.478
10469TIP3    H231353   0.359   5.273   5.419
10470TIP3   OH231354   1.803   7.006   5.940
10470TIP3    H131355   1.793   6.976   6.030
10470TIP3    H231356   1.719   7.044   5.917
10471TIP3   OH231357   1.984   6.226   0.090
10471TIP3    H131358   1.919   6.286   0.125
10471TIP3    H231359   1.970   6.226  -0.005
10472TIP3   OH231360   5.128   3.705   4.831
10472TIP3    H131361   5.119   3.691   4.737
10472TIP3    H231362   5.062   3.647   4.870
10473TIP3   OH231363   7.161   2.937   2.096
10473TIP3    H131364   7.170   2.980   2.011
10473TIP3    H231365   7.202   2.851   2.084
10474TIP3   OH231366   7.497   3.726   1.272
10474TIP3    H131367   7.482   3.815   1.240
10474TIP3    H231368   7.485   3.732   1.367
10475TIP3   OH231369   3.715   0.571   2.985
10475TIP3    H131370   3.794   0.525   3.015
10475TIP3    H231371   3.713   0.556   2.891
10476TIP3   OH231372   1.102   0.609   2.541
10476TIP3    H131373   1.131   0.616   2.632
10476TIP3    H231374   1.183   0.596   2.491
10477TIP3   OH231375   7.571   0.950   3.374
10477TIP3    H131376   7.555   0.885   3.442
10477TIP3    H231377   7.659   0.983   3.391
10478TIP3   OH231378   0.617   5.456   1.806
10478TIP3    H131379   0.639   5.482   1.895
10478TIP3    H231380   0.595   5.538   1.761
10479TIP3   OH231381   3.488   6.427   5.240
10479TIP3    H131382   3.497   6.333   5.223
10479TIP3    H231383   3.467   6.433   5.333
10480TIP3   OH231384   1.185   4.854   5.641
10480TIP3    H131385   1.133   4.931   5.664
10480TIP3    H231386   1.261   4.858   5.700
10481TIP3   OH231387   2.653   1.036   3.160
10481TIP3    H131388   2.601   1.002   3.233
10481TIP3    H231389   2.646   0.970   3.092
10482TIP3   OH231390   7.098   5.611   2.759
10482TIP3    H131391   7.101   5.677   2.690
10482TIP3    H231392   7.090   5.662   2.840
10483TIP3   OH231393   6.835   4.695   1.605
10483TIP3    H131394   6.896   4.697   1.531
10483TIP3    H231395   6.888   4.719   1.681
10484TIP3   OH231396   4.476   1.658   0.493
10484TIP3    H131397   4.407   1.669   0.559
10484TIP3    H231398   4.433   1.676   0.410
10485TIP3   OH231399   7.651   1.706   6.235
10485TIP3    H131400   7.600   1.705   6.155
10485TIP3    H231401   7.645   1.797   6.267
10486TIP3   OH231402   0.211   2.081   2.339
10486TIP3    H131403   0.152   2.018   2.296
10486TIP3    H231404   0.292   2.077   2.289
10487TIP3   OH231405   2.297   2.188   4.100
10487TIP3    H131406   2.391   2.197   4.116
10487TIP3    H231407   2.256   2.208   4.185
10488TIP3   OH231408   4.645   6.231   0.588
10488TIP3    H131409   4.668   6.287   0.514
10488TIP3    H231410   4.677   6.145   0.564
10489TIP3   OH231411   5.317   7.190   1.604
10489TIP3    H131412   5.229   7.156   1.622
10489TIP3    H231413   5.358   7.122   1.549
10490TIP3   OH231414   4.831   3.645   5.911
10490TIP3    H131415   4.880   3.723   5.885
10490TIP3    H231416   4.848   3.582   5.841
10491TIP3   OH231417   3.672   5.026   0.699
10491TIP3    H131418   3.764   5.031   0.673
10491TIP3    H231419   3.675   5.030   0.795
10492TIP3   OH231420   5.416   6.988   2.603
10492TIP3    H131421   5.451   7.060   2.656
10492TIP3    H231422   5.321   6.997   2.608
10493TIP3   OH231423   1.645   4.083   2.168
10493TIP3    H131424   1.726   4.033   2.171
10493TIP3    H231425   1.646   4.127   2.083
10494TIP3   OH231426   0.812   2.040   4.743
10494TIP3    H131427   0.897   2.083   4.751
10494TIP3    H231428   0.813   2.001   4.656
10495TIP3   OH231429   0.128   1.339   3.754
10495TIP3    H131430   0.219   1.324   3.780
10495TIP3    H231431   0.121   1.434   3.742
10496TIP3   OH231432   5.634   2.366   2.499
10496TIP3    H131433   5.688   2.399   2.570
10496TIP3    H231434   5.552   2.339   2.541
10497TIP3   OH231435   3.594   4.588   0.814
10497TIP3    H131436   3.536   4.650   0.770
10497TIP3    H231437   3.594   4.616   0.905
10498TIP3   OH231438   4.496   0.878   6.327
10498TIP3    H131439   4.492   0.798   6.274
10498TIP3    H231440   4.422   0.931   6.296
10499TIP3   OH231441   8.254   1.285   5.170
10499TIP3    H131442   8.296   1.203   5.146
10499TIP3    H231443   8.227   1.324   5.086
10500TIP3   OH231444   5.169   3.451   3.547
10500TIP3    H131445   5.194   3.530   3.595
10500TIP3    H231446   5.246   3.429   3.494
10501TIP3   OH231447   7.585   4.568   3.360
10501TIP3    H131448   7.582   4.585   3.266
10501TIP3    H231449   7.623   4.481   3.368
10502TIP3   OH231450   2.415   6.539   2.303
10502TIP3    H131451   2.499   6.496   2.321
10502TIP3    H231452   2.406   6.603   2.373
10503TIP3   OH231453   6.253   1.493   1.537
10503TIP3    H131454   6.333   1.506   1.588
10503TIP3    H231455   6.185   1.481   1.602
10504TIP3   OH231456   4.124   1.687   0.423
10504TIP3    H131457   4.103   1.598   0.452
10504TIP3    H231458   4.199   1.677   0.365
10505TIP3   OH231459   0.108   6.792   4.214
10505TIP3    H131460   0.158   6.872   4.228
10505TIP3    H231461   0.123   6.740   4.294
10506TIP3   OH231462   3.727   3.005   1.648
10506TIP3    H131463   3.766   2.920   1.630
10506TIP3    H231464   3.791   3.050   1.703
10507TIP3   OH231465   7.548   3.065   5.599
10507TIP3    H131466   7.480   3.006   5.565
10507TIP3    H231467   7.613   3.006   5.636
10508TIP3   OH231468   0.945   4.988   0.257
10508TIP3    H131469   0.888   4.972   0.332
10508TIP3    H231470   1.014   4.922   0.264
10509TIP3   OH231471   0.061   6.823   2.074
10509TIP3    H131472   0.038   6.863   1.990
10509TIP3    H231473   0.106   6.893   2.122
10510TIP3   OH231474   4.592   1.529   1.563
10510TIP3    H131475   4.678   1.489   1.546
10510TIP3    H231476   4.561   1.557   1.477
10511TIP3   OH231477   8.163   1.341   3.099
10511TIP3    H131478   8.199   1.253   3.105
10511TIP3    H231479   8.070   1.331   3.119
10512TIP3   OH231480   4.530   1.074   0.799
10512TIP3    H131481   4.562   1.064   0.889
10512TIP3    H231482   4.497   1.164   0.795
10513TIP3   OH231483   2.215   3.086   2.704
10513TIP3    H131484   2.279   3.130   2.759
10513TIP3    H231485   2.225   3.127   2.618
10514TIP3   OH231486   2.006   2.121   3.353
10514TIP3    H131487   2.099   2.099   3.362
10514TIP3    H231488   2.005   2.201   3.301
10515TIP3   OH231489   6.189   0.702   3.728
10515TIP3    H131490   6.168   0.662   3.643
10515TIP3    H231491   6.115   0.679   3.784
10516TIP3   OH231492   4.159   6.357   3.273
10516TIP3    H131493   4.113   6.380   3.193
10516TIP3    H231494   4.137   6.428   3.335
10517TIP3   OH231495   4.138   6.369   0.402
10517TIP3    H131496   4.130   6.273   0.404
10517TIP3    H231497   4.196   6.389   0.476
10518TIP3   OH231498   3.636   5.472   6.523
10518TIP3    H131499   3.545   5.480   6.551
10518TIP3    H231500   3.685   5.526   6.585
10519TIP3   OH231501   2.545   2.023   3.354
10519TIP3    H131502   2.620   1.964   3.362
10519TIP3    H231503   2.508   2.003   3.269
10520TIP3   OH231504   6.036   0.027   6.566
10520TIP3    H131505   6.025   0.120   6.587
10520TIP3    H231506   5.963  -0.016   6.611
10521TIP3   OH231507   2.215   6.079   1.571
10521TIP3    H131508   2.232   6.099   1.479
10521TIP3    H231509   2.287   6.120   1.618
10522TIP3   OH231510   0.783   2.069   3.370
10522TIP3    H131511   0.766   2.003   3.303
10522TIP3    H231512   0.870   2.046   3.405
10523TIP3   OH231513   1.978   7.035   6.562
10523TIP3    H131514   1.951   6.944   6.548
10523TIP3    H231515   1.901   7.076   6.602
10524TIP3   OH231516   1.726   2.497   4.402
10524TIP3    H131517   1.674   2.446   4.339
10524TIP3    H231518   1.816   2.491   4.368
10525TIP3   OH231519   8.245   3.216   3.652
10525TIP3    H131520   8.201   3.131   3.644
10525TIP3    H231521   8.251   3.231   3.746
10526TIP3   OH231522   4.243   4.580   1.257
10526TIP3    H131523   4.314   4.537   1.306
10526TIP3    H231524   4.175   4.594   1.323
10527TIP3   OH231525   1.905   0.527   3.554
10527TIP3    H131526   1.922   0.595   3.490
10527TIP3    H231527   1.948   0.449   3.519
10528TIP3   OH231528   2.713   6.287   3.354
10528TIP3    H131529   2.618   6.280   3.346
10528TIP3    H231530   2.746   6.257   3.269
10529TIP3   OH231531   5.833   5.537   5.388
10529TIP3    H131532   5.924   5.508   5.395
10529TIP3    H231533   5.837   5.611   5.328
10530TIP3   OH231534   5.402   2.479   0.386
10530TIP3    H131535   5.420   2.507   0.296
10530TIP3    H231536   5.466   2.410   0.404
10531TIP3   OH231537   6.218   7.312   0.507
10531TIP3    H131538   6.225   7.232   0.558
10531TIP3    H231539   6.174   7.285   0.426
10532TIP3   OH231540   5.901   6.719   5.637
10532TIP3    H131541   5.812   6.688   5.652
10532TIP3    H231542   5.910   6.796   5.694
10533TIP3   OH231543   5.441   1.133   4.135
10533TIP3    H131544   5.372   1.150   4.199
10533TIP3    H231545   5.439   1.038   4.123
10534TIP3   OH231546   4.106   6.717   2.991
10534TIP3    H131547   4.144   6.730   3.078
10534TIP3    H231548   4.113   6.802   2.948
10535TIP3   OH231549   6.648   2.397   1.395
10535TIP3    H131550   6.731   2.410   1.349
10535TIP3    H231551   6.594   2.347   1.335
10536TIP3   OH231552   6.264   2.928   6.696
10536TIP3    H131553   6.271   2.833   6.682
10536TIP3    H231554   6.215   2.959   6.620
10537TIP3   OH231555   5.549   4.599   0.038
10537TIP3    H131556   5.497   4.674   0.067
10537TIP3    H231557   5.633   4.611   0.082
10538TIP3   OH231558   2.630   0.910   4.992
10538TIP3    H131559   2.622   0.974   4.921
10538TIP3    H231560   2.548   0.918   5.040
10539TIP3   OH231561   6.290   1.689   4.758
10539TIP3    H131562   6.344   1.629   4.810
10539TIP3    H231563   6.353   1.737   4.704
10540TIP3   OH231564   6.671   4.255   0.387
10540TIP3    H131565   6.710   4.226   0.469
10540TIP3    H231566   6.600   4.193   0.371
10541TIP3   OH231567   1.944   3.584   1.993
10541TIP3    H131568   1.867   3.544   2.032
10541TIP3    H231569   1.909   3.648   1.931
10542TIP3   OH231570   0.473   3.025   0.930
10542TIP3    H131571   0.416   3.003   1.004
10542TIP3    H231572   0.545   3.074   0.969
10543TIP3   OH231573   5.454   3.806   2.050
10543TIP3    H131574   5.537   3.804   2.003
10543TIP3    H231575   5.401   3.870   2.002
10544TIP3   OH231576   5.895   6.285   2.103
10544TIP3    H131577   5.884   6.284   2.198
10544TIP3    H231578   5.828   6.225   2.071
10545TIP3   OH231579   4.243   3.884   0.825
10545TIP3    H131580   4.204   3.884   0.912
10545TIP3    H231581   4.316   3.821   0.831
10546TIP3   OH231582   2.218   6.015   4.327
10546TIP3    H131583   2.138   5.978   4.290
10546TIP3    H231584   2.192   6.101   4.359
10547TIP3   OH231585   6.038   6.844   0.721
10547TIP3    H131586   6.102   6.809   0.783
10547TIP3    H231587   5.954   6.838   0.767
10548TIP3   OH231588   4.798   5.672   5.724
10548TIP3    H131589   4.739   5.597   5.727
10548TIP3    H231590   4.777   5.723   5.802
10549TIP3   OH231591   0.079   4.129   3.084
10549TIP3    H131592   0.126   4.169   3.157
10549TIP3    H231593   0.088   4.191   3.012
10550TIP3   OH231594   6.665   0.790   2.475
10550TIP3    H131595   6.665   0.779   2.571
10550TIP3    H231596   6.577   0.763   2.448
10551TIP3   OH231597   5.197   1.552   2.847
10551TIP3    H131598   5.137   1.522   2.778
10551TIP3    H231599   5.257   1.612   2.802
10552TIP3   OH231600   1.286   3.846   1.313
10552TIP3    H131601   1.352   3.904   1.274
10552TIP3    H231602   1.313   3.836   1.404
10553TIP3   OH231603   5.718   1.964   0.518
10553TIP3    H131604   5.671   1.895   0.472
10553TIP3    H231605   5.672   2.045   0.493
10554TIP3   OH231606   6.695   3.124   2.875
10554TIP3    H131607   6.672   3.207   2.916
10554TIP3    H231608   6.626   3.111   2.809
10555TIP3   OH231609   5.864   0.773   4.527
10555TIP3    H131610   5.882   0.727   4.445
10555TIP3    H231611   5.838   0.861   4.499
10556TIP3   OH231612   7.666   1.398   0.023
10556TIP3    H131613   7.640   1.326   0.081
10556TIP3    H231614   7.669   1.359  -0.064
10557TIP3   OH231615   7.441   4.007   2.597
10557TIP3    H131616   7.351   4.011   2.629
10557TIP3    H231617   7.433   3.996   2.503
10558TIP3   OH231618   7.271   5.235   6.199
10558TIP3    H131619   7.270   5.185   6.117
10558TIP3    H231620   7.187   5.215   6.240
10559TIP3   OH231621   5.318   0.608   4.480
10559TIP3    H131622   5.300   0.664   4.555
10559TIP3    H231623   5.403   0.638   4.447
10560TIP3   OH231624   0.777   3.431   2.555
10560TIP3    H131625   0.861   3.462   2.520
10560TIP3    H231626   0.769   3.476   2.639
10561TIP3   OH231627   1.106   0.242   4.034
10561TIP3    H131628   1.111   0.153   4.001
10561TIP3    H231629   1.141   0.237   4.123
10562TIP3   OH231630   3.348   4.878   5.065
10562TIP3    H131631   3.363   4.787   5.091
10562TIP3    H231632   3.369   4.929   5.144
10563TIP3   OH231633   3.166   0.785   0.596
10563TIP3    H131634   3.228   0.827   0.656
10563TIP3    H231635   3.084   0.833   0.610
10564TIP3   OH231636   5.290   2.341   0.694
10564TIP3    H131637   5.317   2.254   0.723
10564TIP3    H231638   5.365   2.398   0.716
10565TIP3   OH231639   2.171   2.524   5.298
10565TIP3    H131640   2.156   2.510   5.391
10565TIP3    H231641   2.225   2.604   5.293
10566TIP3   OH231642   7.172   2.503   2.341
10566TIP3    H131643   7.200   2.424   2.386
10566TIP3    H231644   7.080   2.487   2.319
10567TIP3   OH231645   6.947   0.874   3.738
10567TIP3    H131646   6.919   0.811   3.805
10567TIP3    H231647   7.002   0.936   3.785
10568TIP3   OH231648   0.642   5.318   3.957
10568TIP3    H131649   0.737   5.328   3.945
10568TIP3    H231650   0.603   5.370   3.887
10569TIP3   OH231651   2.677   4.901   0.992
10569TIP3    H131652   2.690   4.863   0.905
10569TIP3    H231653   2.583   4.918   0.998
10570TIP3   OH231654   4.700   6.731   2.117
10570TIP3    H131655   4.681   6.644   2.152
10570TIP3    H231656   4.624   6.752   2.062
10571TIP3   OH231657   7.567   0.336   2.604
10571TIP3    H131658   7.638   0.299   2.656
10571TIP3    H231659   7.488   0.292   2.637
10572TIP3   OH231660   7.352   5.537   5.716
10572TIP3    H131661   7.420   5.479   5.683
10572TIP3    H231662   7.306   5.567   5.638
10573TIP3   OH231663   7.599   0.129   3.001
10573TIP3    H131664   7.621   0.222   3.001
10573TIP3    H231665   7.519   0.122   3.052
10574TIP3   OH231666   2.200   1.171   3.115
10574TIP3    H131667   2.278   1.227   3.116
10574TIP3    H231668   2.227   1.090   3.158
10575TIP3   OH231669   7.742   0.740   4.426
10575TIP3    H131670   7.741   0.701   4.513
10575TIP3    H231671   7.833   0.767   4.413
10576TIP3   OH231672   3.594   0.550   3.585
10576TIP3    H131673   3.656   0.560   3.513
10576TIP3    H231674   3.611   0.627   3.641
10577TIP3   OH231675   5.370   7.777   5.553
10577TIP3    H131676   5.311   7.852   5.557
10577TIP3    H231677   5.374   7.745   5.643
10578TIP3   OH231678   6.831   1.120   1.767
10578TIP3    H131679   6.808   1.123   1.674
10578TIP3    H231680   6.747   1.116   1.813
10579TIP3   OH231681   7.458   2.810   5.371
10579TIP3    H131682   7.461   2.714   5.369
10579TIP3    H231683   7.540   2.835   5.413
10580TIP3   OH231684   7.052   3.493   2.614
10580TIP3    H131685   7.069   3.446   2.532
10580TIP3    H231686   7.116   3.564   2.615
10581TIP3   OH231687   6.177   1.028   6.463
10581TIP3    H131688   6.087   1.006   6.437
10581TIP3    H231689   6.170   1.117   6.499
10582TIP3   OH231690   6.770   1.670   6.487
10582TIP3    H131691   6.790   1.726   6.412
10582TIP3    H231692   6.855   1.636   6.515
10583TIP3   OH231693   7.918   4.813   0.514
10583TIP3    H131694   7.891   4.770   0.595
10583TIP3    H231695   7.844   4.870   0.492
10584TIP3   OH231696   2.472   2.594   0.124
10584TIP3    H131697   2.403   2.530   0.145
10584TIP3    H231698   2.435   2.647   0.054
10585TIP3   OH231699   6.479   6.359   5.550
10585TIP3    H131700   6.440   6.342   5.636
10585TIP3    H231701   6.515   6.274   5.523
10586TIP3   OH231702   0.531   5.701   1.700
10586TIP3    H131703   0.522   5.704   1.605
10586TIP3    H231704   0.529   5.793   1.727
10587TIP3   OH231705   1.222   6.488   3.468
10587TIP3    H131706   1.305   6.443   3.480
10587TIP3    H231707   1.241   6.558   3.406
10588TIP3   OH231708   0.231   1.523   1.268
10588TIP3    H131709   0.212   1.589   1.201
10588TIP3    H231710   0.148   1.476   1.280
10589TIP3   OH231711   4.470   0.723   0.249
10589TIP3    H131712   4.409   0.729   0.323
10589TIP3    H231713   4.466   0.631   0.222
10590TIP3   OH231714   3.785   5.266   1.930
10590TIP3    H131715   3.817   5.208   1.861
10590TIP3    H231716   3.770   5.208   2.005
10591TIP3   OH231717   2.647   5.313   2.558
10591TIP3    H131718   2.646   5.288   2.650
10591TIP3    H231719   2.661   5.230   2.511
10592TIP3   OH231720   0.843   7.127   5.143
10592TIP3    H131721   0.894   7.073   5.203
10592TIP3    H231722   0.775   7.166   5.198
10593TIP3   OH231723   7.776   2.892   1.470
10593TIP3    H131724   7.809   2.945   1.543
10593TIP3    H231725   7.738   2.956   1.409
10594TIP3   OH231726  -0.013   1.107   2.502
10594TIP3    H131727   0.006   1.149   2.586
10594TIP3    H231728   0.035   1.160   2.438
10595TIP3   OH231729   4.556   3.902   0.850
10595TIP3    H131730   4.587   3.858   0.929
10595TIP3    H231731   4.570   3.838   0.780
10596TIP3   OH231732   3.412   3.905   3.109
10596TIP3    H131733   3.493   3.925   3.155
10596TIP3    H231734   3.390   3.986   3.063
10597TIP3   OH231735   1.222   6.847   0.350
10597TIP3    H131736   1.297   6.907   0.348
10597TIP3    H231737   1.151   6.899   0.388
10598TIP3   OH231738   7.747   0.655   6.704
10598TIP3    H131739   7.729   0.700   6.787
10598TIP3    H231740   7.665   0.611   6.682
10599TIP3   OH231741   2.368   3.901   4.077
10599TIP3    H131742   2.282   3.888   4.116
10599TIP3    H231743   2.410   3.815   4.081
10600TIP3   OH231744   1.827   7.139   1.491
10600TIP3    H131745   1.877   7.212   1.456
10600TIP3    H231746   1.850   7.136   1.584
10601TIP3   OH231747   7.907   3.594   2.952
10601TIP3    H131748   7.952   3.524   2.905
10601TIP3    H231749   7.975   3.657   2.974
10602TIP3   OH231750   1.673   3.387   5.403
10602TIP3    H131751   1.718   3.384   5.487
10602TIP3    H231752   1.586   3.421   5.423
10603TIP3   OH231753   2.208   4.330   2.469
10603TIP3    H131754   2.300   4.323   2.492
10603TIP3    H231755   2.161   4.324   2.552
10604TIP3   OH231756   8.149   0.417   6.727
10604TIP3    H131757   8.127   0.510   6.734
10604TIP3    H231758   8.166   0.403   6.634
10605TIP3   OH231759   0.215   3.011   6.050
10605TIP3    H131760   0.186   3.083   6.106
10605TIP3    H231761   0.167   2.935   6.082
10606TIP3   OH231762   0.065   7.178   2.623
10606TIP3    H131763  -0.015   7.195   2.573
10606TIP3    H231764   0.047   7.096   2.669
10607TIP3   OH231765   5.300   4.303   4.145
10607TIP3    H131766   5.220   4.250   4.147
10607TIP3    H231767   5.368   4.244   4.177
10608TIP3   OH231768   6.987   5.567   4.474
10608TIP3    H131769   7.016   5.658   4.460
10608TIP3    H231770   6.967   5.563   4.568
10609TIP3   OH231771   4.459   1.295   2.632
10609TIP3    H131772   4.514   1.224   2.598
10609TIP3    H231773   4.388   1.250   2.677
10610TIP3   OH231774   0.919   7.735   0.027
10610TIP3    H131775   0.873   7.763  -0.052
10610TIP3    H231776   0.886   7.792   0.096
10611TIP3   OH231777   4.584   5.410   1.070
10611TIP3    H131778   4.517   5.477   1.056
10611TIP3    H231779   4.665   5.459   1.084
10612TIP3   OH231780   8.059   5.634   6.114
10612TIP3    H131781   8.055   5.572   6.042
10612TIP3    H231782   8.054   5.580   6.193
10613TIP3   OH231783   3.739   4.418   6.589
10613TIP3    H131784   3.705   4.462   6.667
10613TIP3    H231785   3.678   4.346   6.573
10614TIP3   OH231786   7.730   5.429   0.367
10614TIP3    H131787   7.763   5.346   0.402
10614TIP3    H231788   7.796   5.456   0.303
10615TIP3   OH231789   1.480   0.083   6.235
10615TIP3    H131790   1.522   0.014   6.182
10615TIP3    H231791   1.533   0.088   6.314
10616TIP3   OH231792   7.152   2.639   1.026
10616TIP3    H131793   7.128   2.727   1.056
10616TIP3    H231794   7.170   2.590   1.106
10617TIP3   OH231795   3.799   7.315   0.139
10617TIP3    H131796   3.769   7.229   0.170
10617TIP3    H231797   3.720   7.356   0.104
10618TIP3   OH231798   5.514   0.185   4.979
10618TIP3    H131799   5.507   0.188   4.884
10618TIP3    H231800   5.451   0.117   5.005
10619TIP3   OH231801   5.767   5.783   1.837
10619TIP3    H131802   5.811   5.698   1.842
10619TIP3    H231803   5.717   5.789   1.918
10620TIP3   OH231804   5.706   1.555   6.423
10620TIP3    H131805   5.786   1.504   6.408
10620TIP3    H231806   5.723   1.603   6.504
10621TIP3   OH231807   3.357   1.467   6.092
10621TIP3    H131808   3.266   1.445   6.071
10621TIP3    H231809   3.404   1.454   6.009
10622TIP3   OH231810   1.898   6.770   1.835
10622TIP3    H131811   1.982   6.817   1.828
10622TIP3    H231812   1.862   6.772   1.746
10623TIP3   OH231813   2.349   4.586   5.171
10623TIP3    H131814   2.313   4.585   5.082
10623TIP3    H231815   2.280   4.548   5.225
10624TIP3   OH231816   4.662   0.114   1.601
10624TIP3    H131817   4.589   0.053   1.608
10624TIP3    H231818   4.631   0.195   1.643
10625TIP3   OH231819   8.266   2.076   4.694
10625TIP3    H131820   8.256   2.089   4.789
10625TIP3    H231821   8.250   1.982   4.682
10626TIP3   OH231822   2.244   3.008   2.113
10626TIP3    H131823   2.268   3.005   2.205
10626TIP3    H231824   2.326   2.997   2.066
10627TIP3   OH231825   6.794   6.418   1.837
10627TIP3    H131826   6.871   6.363   1.827
10627TIP3    H231827   6.821   6.505   1.808
10628TIP3   OH231828   7.563   3.381   5.812
10628TIP3    H131829   7.555   3.291   5.846
10628TIP3    H231830   7.494   3.388   5.746
10629TIP3   OH231831   6.114   7.310   5.784
10629TIP3    H131832   6.029   7.352   5.771
10629TIP3    H231833   6.092   7.220   5.808
10630TIP3   OH231834   2.196   6.005   0.112
10630TIP3    H131835   2.142   5.935   0.074
10630TIP3    H231836   2.134   6.058   0.162
10631TIP3   OH231837   1.132   7.478   0.980
10631TIP3    H131838   1.053   7.493   0.927
10631TIP3    H231839   1.201   7.523   0.931
10632TIP3   OH231840   1.147   2.765   5.815
10632TIP3    H131841   1.229   2.813   5.825
10632TIP3    H231842   1.170   2.674   5.834
10633TIP3   OH231843   2.993   4.533   5.770
10633TIP3    H131844   3.054   4.599   5.740
10633TIP3    H231845   2.959   4.492   5.690
10634TIP3   OH231846   1.455   7.306   2.575
10634TIP3    H131847   1.388   7.278   2.637
10634TIP3    H231848   1.428   7.393   2.547
10635TIP3   OH231849   2.910   4.926   0.166
10635TIP3    H131850   2.871   4.875   0.238
10635TIP3    H231851   2.999   4.893   0.160
10636TIP3   OH231852   1.369   0.294   1.106
10636TIP3    H131853   1.456   0.325   1.129
10636TIP3    H231854   1.379   0.199   1.096
10637TIP3   OH231855   1.682   7.751   1.607
10637TIP3    H131856   1.702   7.669   1.652
10637TIP3    H231857   1.586   7.757   1.609
10638TIP3   OH231858   6.536   7.272   6.293
10638TIP3    H131859   6.540   7.176   6.298
10638TIP3    H231860   6.459   7.289   6.238
10639TIP3   OH231861   2.077   4.170   3.320
10639TIP3    H131862   2.137   4.241   3.296
10639TIP3    H231863   2.037   4.199   3.402
10640TIP3   OH231864   5.962   2.401   3.146
10640TIP3    H131865   6.053   2.421   3.171
10640TIP3    H231866   5.962   2.405   3.050
10641TIP3   OH231867   7.601   4.315   2.073
10641TIP3    H131868   7.567   4.363   2.148
10641TIP3    H231869   7.650   4.242   2.110
10642TIP3   OH231870   4.345   0.670   6.546
10642TIP3    H131871   4.282   0.610   6.585
10642TIP3    H231872   4.296   0.715   6.477
10643TIP3   OH231873   7.209   0.255   2.087
10643TIP3    H131874   7.201   0.161   2.103
10643TIP3    H231875   7.213   0.263   1.991
10644TIP3   OH231876   5.700   2.267   1.639
10644TIP3    H131877   5.780   2.314   1.615
10644TIP3    H231878   5.646   2.271   1.560
10645TIP3   OH231879   2.747   3.712   1.834
10645TIP3    H131880   2.772   3.655   1.906
10645TIP3    H231881   2.652   3.702   1.826
10646TIP3   OH231882   3.213   6.123   1.772
10646TIP3    H131883   3.187   6.036   1.740
10646TIP3    H231884   3.296   6.108   1.817
10647TIP3   OH231885   6.609   4.936   0.967
10647TIP3    H131886   6.658   4.882   0.905
10647TIP3    H231887   6.625   5.026   0.937
10648TIP3   OH231888   6.604   1.411   3.423
10648TIP3    H131889   6.631   1.327   3.386
10648TIP3    H231890   6.525   1.434   3.374
10649TIP3   OH231891   1.761   1.251   1.895
10649TIP3    H131892   1.768   1.192   1.970
10649TIP3    H231893   1.789   1.197   1.820
10650TIP3   OH231894   1.924   5.312   0.512
10650TIP3    H131895   1.904   5.374   0.442
10650TIP3    H231896   2.013   5.334   0.538
10651TIP3   OH231897   7.344   3.499   2.907
10651TIP3    H131898   7.368   3.584   2.943
10651TIP3    H231899   7.421   3.444   2.921
10652TIP3   OH231900   2.359   4.307   5.332
10652TIP3    H131901   2.305   4.387   5.330
10652TIP3    H231902   2.334   4.265   5.415
10653TIP3   OH231903   3.460   7.355   5.836
10653TIP3    H131904   3.430   7.282   5.891
10653TIP3    H231905   3.427   7.333   5.748
10654TIP3   OH231906   7.244   7.532   1.500
10654TIP3    H131907   7.232   7.512   1.408
10654TIP3    H231908   7.331   7.497   1.521
10655TIP3   OH231909   1.368   5.821   5.810
10655TIP3    H131910   1.421   5.899   5.795
10655TIP3    H231911   1.344   5.826   5.903
10656TIP3   OH231912   7.038   5.934   1.526
10656TIP3    H131913   6.964   5.887   1.488
10656TIP3    H231914   7.114   5.899   1.481
10657TIP3   OH231915   8.233   0.622   0.546
10657TIP3    H131916   8.309   0.632   0.489
10657TIP3    H231917   8.158   0.643   0.491
10658TIP3   OH231918   0.342   5.109   4.832
10658TIP3    H131919   0.429   5.105   4.869
10658TIP3    H231920   0.286   5.138   4.904
10659TIP3   OH231921   8.033   5.502   3.375
10659TIP3    H131922   7.981   5.481   3.298
10659TIP3    H231923   8.117   5.458   3.361
10660TIP3   OH231924   5.489   5.937   2.432
10660TIP3    H131925   5.438   6.009   2.470
10660TIP3    H231926   5.568   5.931   2.486
10661TIP3   OH231927   0.471   7.386   6.563
10661TIP3    H131928   0.381   7.394   6.596
10661TIP3    H231929   0.526   7.410   6.638
10662TIP3   OH231930   4.763   1.127   1.714
10662TIP3    H131931   4.825   1.147   1.644
10662TIP3    H231932   4.741   1.212   1.753
10663TIP3   OH231933   1.109   1.972   2.509
10663TIP3    H131934   1.159   2.036   2.559
10663TIP3    H231935   1.056   2.024   2.450
10664TIP3   OH231936   2.273   4.155   5.535
10664TIP3    H131937   2.338   4.110   5.589
10664TIP3    H231938   2.193   4.152   5.587
10665TIP3   OH231939   3.694   7.348   1.820
10665TIP3    H131940   3.656   7.260   1.821
10665TIP3    H231941   3.750   7.349   1.742
10666TIP3   OH231942   7.848   6.808   6.693
10666TIP3    H131943   7.917   6.874   6.698
10666TIP3    H231944   7.781   6.848   6.637
10667TIP3   OH231945   4.446   1.648   3.106
10667TIP3    H131946   4.379   1.712   3.132
10667TIP3    H231947   4.459   1.665   3.012
10668TIP3   OH231948   6.529   3.802   1.353
10668TIP3    H131949   6.544   3.796   1.258
10668TIP3    H231950   6.534   3.896   1.372
10669TIP3   OH231951   5.675   6.978   4.993
10669TIP3    H131952   5.646   6.890   4.970
10669TIP3    H231953   5.770   6.977   4.978
10670TIP3   OH231954   4.214   7.535   3.190
10670TIP3    H131955   4.139   7.592   3.172
10670TIP3    H231956   4.198   7.457   3.137
10671TIP3   OH231957   4.902   4.012   5.223
10671TIP3    H131958   4.901   3.998   5.128
10671TIP3    H231959   4.853   4.093   5.236
10672TIP3   OH231960   6.326   0.281   1.422
10672TIP3    H131961   6.289   0.356   1.376
10672TIP3    H231962   6.255   0.250   1.478
10673TIP3   OH231963   1.415   4.235   4.524
10673TIP3    H131964   1.441   4.215   4.434
10673TIP3    H231965   1.341   4.296   4.514
10674TIP3   OH231966   6.797   0.431   2.929
10674TIP3    H131967   6.748   0.355   2.961
10674TIP3    H231968   6.814   0.412   2.837
10675TIP3   OH231969   3.078   0.810   6.550
10675TIP3    H131970   3.029   0.879   6.595
10675TIP3    H231971   3.159   0.802   6.601
10676TIP3   OH231972   6.338   4.103   3.134
10676TIP3    H131973   6.338   4.193   3.166
10676TIP3    H231974   6.247   4.075   3.140
10677TIP3   OH231975   3.577   4.836   6.409
10677TIP3    H131976   3.523   4.915   6.404
10677TIP3    H231977   3.667   4.869   6.413
10678TIP3   OH231978   5.975   1.538   1.452
10678TIP3    H131979   6.049   1.594   1.429
10678TIP3    H231980   5.967   1.546   1.547
10679TIP3   OH231981   3.626   0.149   5.463
10679TIP3    H131982   3.711   0.108   5.446
10679TIP3    H231983   3.599   0.184   5.379
10680TIP3   OH231984   7.989   2.630   5.390
10680TIP3    H131985   7.940   2.580   5.325
10680TIP3    H231986   8.080   2.623   5.361
10681TIP3   OH231987   7.690   7.650   5.481
10681TIP3    H131988   7.772   7.629   5.525
10681TIP3    H231989   7.622   7.621   5.542
10682TIP3   OH231990   5.681   0.177   3.629
10682TIP3    H131991   5.663   0.210   3.717
10682TIP3    H231992   5.661   0.084   3.634
10683TIP3   OH231993   2.956   6.777   2.978
10683TIP3    H131994   2.911   6.708   3.026
10683TIP3    H231995   2.956   6.852   3.039
10684TIP3   OH231996   5.436   2.057   6.286
10684TIP3    H131997   5.471   2.146   6.282
10684TIP3    H231998   5.513   2.002   6.300
10685TIP3   OH231999   2.356   1.469   1.785
10685TIP3    H132000   2.364   1.386   1.738
10685TIP3    H232001   2.416   1.461   1.859
10686TIP3   OH232002   5.191   3.207   2.540
10686TIP3    H132003   5.140   3.129   2.562
10686TIP3    H232004   5.132   3.280   2.558
10687TIP3   OH232005   0.780   3.275   0.986
10687TIP3    H132006   0.796   3.192   1.031
10687TIP3    H232007   0.859   3.327   1.003
10688TIP3   OH232008   7.771   0.069   4.020
10688TIP3    H132009   7.821   0.109   4.091
10688TIP3    H232010   7.712   0.008   4.064
10689TIP3   OH232011   3.289   4.200   6.579
10689TIP3    H132012   3.302   4.237   6.491
10689TIP3    H232013   3.371   4.219   6.625
10690TIP3   OH232014   1.353   1.200   4.059
10690TIP3    H132015   1.420   1.147   4.017
10690TIP3    H232016   1.350   1.167   4.149
10691TIP3   OH232017   5.742   3.253   0.628
10691TIP3    H132018   5.651   3.234   0.602
10691TIP3    H232019   5.772   3.173   0.670
10692TIP3   OH232020   4.712   4.719   1.985
10692TIP3    H132021   4.786   4.774   1.962
10692TIP3    H232022   4.752   4.639   2.021
10693TIP3   OH232023   5.981   2.276   2.889
10693TIP3    H132024   5.931   2.198   2.914
10693TIP3    H232025   6.070   2.259   2.918
10694TIP3   OH232026   3.010   3.851   1.086
10694TIP3    H132027   3.102   3.853   1.113
10694TIP3    H232028   3.012   3.862   0.991
10695TIP3   OH232029   4.398   0.980   2.430
10695TIP3    H132030   4.484   0.951   2.402
10695TIP3    H232031   4.352   0.900   2.454
10696TIP3   OH232032   5.821   4.390   0.742
10696TIP3    H132033   5.771   4.308   0.745
10696TIP3    H232034   5.909   4.365   0.772
10697TIP3   OH232035   1.119   0.547   1.844
10697TIP3    H132036   1.112   0.628   1.792
10697TIP3    H232037   1.213   0.533   1.852
10698TIP3   OH232038   2.533   7.399   0.755
10698TIP3    H132039   2.598   7.392   0.825
10698TIP3    H232040   2.454   7.429   0.801
10699TIP3   OH232041   0.627   7.820   3.739
10699TIP3    H132042   0.579   7.737   3.736
10699TIP3    H232043   0.654   7.835   3.648
10700TIP3   OH232044   7.466   4.036   6.266
10700TIP3    H132045   7.443   4.121   6.302
10700TIP3    H232046   7.383   3.989   6.260
10701TIP3   OH232047   2.158   2.211   5.788
10701TIP3    H132048   2.086   2.155   5.817
10701TIP3    H232049   2.229   2.151   5.767
10702TIP3   OH232050   6.380   3.024   5.809
10702TIP3    H132051   6.419   2.967   5.743
10702TIP3    H232052   6.399   3.113   5.778
10703TIP3   OH232053   4.618   6.480   2.163
10703TIP3    H132054   4.683   6.419   2.129
10703TIP3    H232055   4.534   6.441   2.139
10704TIP3   OH232056   3.122   1.376   5.972
10704TIP3    H132057   3.107   1.282   5.959
10704TIP3    H232058   3.079   1.418   5.897
10705TIP3   OH232059   4.210   5.154   1.116
10705TIP3    H132060   4.176   5.067   1.135
10705TIP3    H232061   4.193   5.167   1.023
10706TIP3   OH232062   5.590   2.248   1.358
10706TIP3    H132063   5.614   2.156   1.345
10706TIP3    H232064   5.505   2.256   1.316
10707TIP3   OH232065   3.741   3.706   3.896
10707TIP3    H132066   3.673   3.768   3.868
10707TIP3    H232067   3.697   3.648   3.958
10708TIP3   OH232068   3.083   0.172   5.836
10708TIP3    H132069   3.137   0.143   5.762
10708TIP3    H232070   2.994   0.177   5.800
10709TIP3   OH232071   7.219   5.473   3.050
10709TIP3    H132072   7.277   5.528   2.997
10709TIP3    H232073   7.216   5.516   3.135
10710TIP3   OH232074   5.053   0.385   0.851
10710TIP3    H132075   4.966   0.424   0.850
10710TIP3    H232076   5.110   0.453   0.815
10711TIP3   OH232077   1.354   4.027   0.830
10711TIP3    H132078   1.413   4.078   0.885
10711TIP3    H232079   1.291   3.988   0.891
10712TIP3   OH232080   4.839   6.350   2.722
10712TIP3    H132081   4.928   6.326   2.748
10712TIP3    H232082   4.847   6.375   2.630
10713TIP3   OH232083   3.288   7.087   6.368
10713TIP3    H132084   3.264   7.011   6.315
10713TIP3    H232085   3.255   7.162   6.320
10714TIP3   OH232086   6.948   3.121   4.078
10714TIP3    H132087   6.858   3.141   4.053
10714TIP3    H232088   6.941   3.042   4.132
10715TIP3   OH232089   1.563   3.308   1.419
10715TIP3    H132090   1.535   3.270   1.335
10715TIP3    H232091   1.624   3.377   1.394
10716TIP3   OH232092   1.759   0.389   5.777
10716TIP3    H132093   1.839   0.442   5.780
10716TIP3    H232094   1.707   0.428   5.707
10717TIP3   OH232095   6.681   1.339   5.799
10717TIP3    H132096   6.602   1.337   5.852
10717TIP3    H232097   6.662   1.280   5.726
10718TIP3   OH232098   5.939   6.493   6.758
10718TIP3    H132099   5.871   6.526   6.817
10718TIP3    H232100   5.892   6.444   6.691
10719TIP3   OH232101   7.224   4.508   1.110
10719TIP3    H132102   7.237   4.539   1.200
10719TIP3    H232103   7.148   4.555   1.079
10720TIP3   OH232104   1.417   4.931   0.861
10720TIP3    H132105   1.456   4.890   0.784
10720TIP3    H232106   1.429   4.867   0.932
10721TIP3   OH232107   8.000   0.661   6.631
10721TIP3    H132108   7.915   0.651   6.672
10721TIP3    H232109   8.007   0.754   6.611
10722TIP3   OH232110   0.881   4.667   5.841
10722TIP3    H132111   0.910   4.715   5.764
10722TIP3    H232112   0.787   4.655   5.828
10723TIP3   OH232113   0.875   6.385   1.461
10723TIP3    H132114   0.809   6.336   1.510
10723TIP3    H232115   0.889   6.465   1.513
10724TIP3   OH232116   6.981   2.322   5.067
10724TIP3    H132117   7.032   2.245   5.093
10724TIP3    H232118   6.943   2.354   5.148
10725TIP3   OH232119   5.496   0.669   5.668
10725TIP3    H132120   5.462   0.612   5.599
10725TIP3    H232121   5.450   0.752   5.654
10726TIP3   OH232122   7.473   0.573   2.461
10726TIP3    H132123   7.487   0.495   2.514
10726TIP3    H232124   7.392   0.555   2.414
10727TIP3   OH232125   0.698   1.269   4.976
10727TIP3    H132126   0.604   1.286   4.986
10727TIP3    H232127   0.722   1.315   4.896
10728TIP3   OH232128   4.290   6.298   6.173
10728TIP3    H132129   4.308   6.248   6.093
10728TIP3    H232130   4.359   6.364   6.176
10729TIP3   OH232131   0.758   7.533   2.381
10729TIP3    H132132   0.738   7.612   2.330
10729TIP3    H232133   0.796   7.473   2.317
10730TIP3   OH232134   4.528   5.388   1.885
10730TIP3    H132135   4.457   5.404   1.948
10730TIP3    H232136   4.520   5.296   1.863
10731TIP3   OH232137   2.572   5.761   4.056
10731TIP3    H132138   2.653   5.743   4.103
10731TIP3    H232139   2.549   5.851   4.081
10732TIP3   OH232140   2.232   3.454   5.587
10732TIP3    H132141   2.197   3.444   5.676
10732TIP3    H232142   2.179   3.523   5.548
10733TIP3   OH232143   0.826   4.774   1.942
10733TIP3    H132144   0.818   4.845   2.005
10733TIP3    H232145   0.748   4.782   1.887
10734TIP3   OH232146   6.589   4.297   4.394
10734TIP3    H132147   6.498   4.304   4.365
10734TIP3    H232148   6.641   4.319   4.317
10735TIP3   OH232149   3.178   7.045   2.996
10735TIP3    H132150   3.193   6.958   2.958
10735TIP3    H232151   3.142   7.096   2.923
10736TIP3   OH232152   1.440   6.928   4.386
10736TIP3    H132153   1.431   6.855   4.325
10736TIP3    H232154   1.534   6.932   4.405
10737TIP3   OH232155   0.281   4.226   5.536
10737TIP3    H132156   0.271   4.134   5.513
10737TIP3    H232157   0.325   4.265   5.461
10738TIP3   OH232158   6.322   0.049   2.317
10738TIP3    H132159   6.326   0.137   2.280
10738TIP3    H232160   6.409   0.012   2.301
10739TIP3   OH232161   6.988   3.155   1.617
10739TIP3    H132162   6.908   3.207   1.628
10739TIP3    H232163   7.014   3.171   1.526
10740TIP3   OH232164   6.650   5.331   1.290
10740TIP3    H132165   6.662   5.378   1.207
10740TIP3    H232166   6.733   5.343   1.336
10741TIP3   OH232167   1.702   3.715   3.692
10741TIP3    H132168   1.616   3.699   3.654
10741TIP3    H232169   1.684   3.770   3.769
10742TIP3   OH232170   2.320   4.846   3.512
10742TIP3    H132171   2.288   4.895   3.588
10742TIP3    H232172   2.377   4.779   3.549
10743TIP3   OH232173   1.712   4.743   0.462
10743TIP3    H132174   1.643   4.763   0.526
10743TIP3    H232175   1.666   4.733   0.379
10744TIP3   OH232176   2.969   5.424   6.155
10744TIP3    H132177   3.056   5.388   6.167
10744TIP3    H232178   2.930   5.373   6.084
10745TIP3   OH232179   2.830   5.995   6.413
10745TIP3    H132180   2.925   5.988   6.416
10745TIP3    H232181   2.812   6.048   6.335
10746TIP3   OH232182   4.498   5.903   3.963
10746TIP3    H132183   4.443   5.976   3.990
10746TIP3    H232184   4.444   5.825   3.979
10747TIP3   OH232185   5.416   0.035   6.522
10747TIP3    H132186   5.342  -0.024   6.508
10747TIP3    H232187   5.458   0.000   6.601
10748TIP3   OH232188   6.463   5.329   1.775
10748TIP3    H132189   6.407   5.281   1.715
10748TIP3    H232190   6.411   5.338   1.855
10749TIP3   OH232191   4.017   2.856   3.848
10749TIP3    H132192   4.031   2.939   3.802
10749TIP3    H232193   4.053   2.790   3.789
10750TIP3   OH232194   7.738   5.214   2.972
10750TIP3    H132195   7.751   5.127   2.932
10750TIP3    H232196   7.681   5.260   2.911
10751TIP3   OH232197   2.632   4.548   0.422
10751TIP3    H132198   2.703   4.484   0.429
10751TIP3    H232199   2.595   4.552   0.510
10752TIP3   OH232200   6.790   6.950   2.781
10752TIP3    H132201   6.850   7.018   2.749
10752TIP3    H232202   6.735   6.929   2.705
10753TIP3   OH232203   8.115   4.771   5.268
10753TIP3    H132204   8.159   4.703   5.217
10753TIP3    H232205   8.157   4.767   5.353
10754TIP3   OH232206   1.902   5.564   4.130
10754TIP3    H132207   1.862   5.502   4.191
10754TIP3    H232208   1.994   5.538   4.126
10755TIP3   OH232209   6.478   5.157   0.322
10755TIP3    H132210   6.417   5.216   0.277
10755TIP3    H232211   6.502   5.204   0.401
10756TIP3   OH232212   6.498   4.782   2.693
10756TIP3    H132213   6.580   4.742   2.720
10756TIP3    H232214   6.434   4.711   2.699
10757TIP3   OH232215   6.376   1.307   6.200
10757TIP3    H132216   6.468   1.291   6.222
10757TIP3    H232217   6.333   1.320   6.285
10758TIP3   OH232218   7.359   0.286   6.667
10758TIP3    H132219   7.404   0.333   6.737
10758TIP3    H232220   7.313   0.215   6.712
10759TIP3   OH232221   2.855   6.178   1.257
10759TIP3    H132222   2.927   6.213   1.205
10759TIP3    H232223   2.787   6.246   1.253
10760TIP3   OH232224   2.892   5.990   2.957
10760TIP3    H132225   2.895   6.063   2.895
10760TIP3    H232226   2.826   5.931   2.921
10761TIP3   OH232227  -0.005   1.933   2.714
10761TIP3    H132228   0.000   1.981   2.631
10761TIP3    H232229   0.079   1.950   2.757
10762TIP3   OH232230   6.613   4.284   2.175
10762TIP3    H132231   6.630   4.361   2.121
10762TIP3    H232232   6.519   4.268   2.165
10763TIP3   OH232233   0.021   3.288   1.877
10763TIP3    H132234   0.069   3.365   1.908
10763TIP3    H232235   0.058   3.215   1.927
10764TIP3   OH232236   2.231   7.533   4.579
10764TIP3    H132237   2.210   7.626   4.584
10764TIP3    H232238   2.296   7.526   4.509
10765TIP3   OH232239   1.361   6.904   2.030
10765TIP3    H132240   1.367   6.910   1.935
10765TIP3    H232241   1.432   6.846   2.056
10766TIP3   OH232242   1.815   4.431   6.144
10766TIP3    H132243   1.905   4.461   6.154
10766TIP3    H232244   1.763   4.511   6.143
10767TIP3   OH232245   5.208   3.400   4.007
10767TIP3    H132246   5.159   3.324   4.038
10767TIP3    H232247   5.160   3.476   4.039
10768TIP3   OH232248   6.153   2.030   3.494
10768TIP3    H132249   6.231   1.975   3.502
10768TIP3    H232250   6.082   1.969   3.479
10769TIP3   OH232251   6.249   4.843   2.171
10769TIP3    H132252   6.157   4.858   2.195
10769TIP3    H232253   6.244   4.796   2.088
10770TIP3   OH232254   6.637   6.129   5.515
10770TIP3    H132255   6.687   6.057   5.477
10770TIP3    H232256   6.611   6.098   5.601
10771TIP3   OH232257   4.093   0.890   1.327
10771TIP3    H132258   4.157   0.879   1.398
10771TIP3    H232259   4.015   0.844   1.358
10772TIP3   OH232260   7.031   6.359   2.086
10772TIP3    H132261   7.072   6.282   2.126
10772TIP3    H232262   7.048   6.348   1.992
10773TIP3   OH232263   4.564   1.139   3.013
10773TIP3    H132264   4.539   1.229   3.035
10773TIP3    H232265   4.523   1.123   2.929
10774TIP3   OH232266   3.161   0.360   4.797
10774TIP3    H132267   3.170   0.455   4.801
10774TIP3    H232268   3.207   0.328   4.874
10775TIP3   OH232269   1.717   2.355   6.503
10775TIP3    H132270   1.797   2.315   6.537
10775TIP3    H232271   1.646   2.307   6.547
10776TIP3   OH232272   7.314   3.081   0.602
10776TIP3    H132273   7.404   3.051   0.611
10776TIP3    H232274   7.268   3.039   0.675
10777TIP3   OH232275   4.534   6.932   0.280
10777TIP3    H132276   4.561   6.887   0.199
10777TIP3    H232277   4.466   6.994   0.252
10778TIP3   OH232278   3.915   4.695   1.306
10778TIP3    H132279   3.953   4.670   1.390
10778TIP3    H232280   3.927   4.618   1.250
10779TIP3   OH232281   3.802   7.180   1.339
10779TIP3    H132282   3.797   7.268   1.301
10779TIP3    H232283   3.711   7.159   1.361
10780TIP3   OH232284   4.091   0.793   4.276
10780TIP3    H132285   4.100   0.710   4.322
10780TIP3    H232286   4.175   0.806   4.233
10781TIP3   OH232287   3.438   5.166   0.613
10781TIP3    H132288   3.468   5.254   0.590
10781TIP3    H232289   3.516   5.123   0.648
10782TIP3   OH232290   3.780   7.722   6.489
10782TIP3    H132291   3.809   7.812   6.506
10782TIP3    H232292   3.792   7.676   6.572
10783TIP3   OH232293   6.512   3.904   1.782
10783TIP3    H132294   6.550   3.944   1.861
10783TIP3    H232295   6.425   3.874   1.810
10784TIP3   OH232296   2.330   0.876   4.883
10784TIP3    H132297   2.306   0.797   4.836
10784TIP3    H232298   2.395   0.848   4.947
10785TIP3   OH232299   5.549   5.878   3.221
10785TIP3    H132300   5.599   5.821   3.163
10785TIP3    H232301   5.465   5.890   3.177
10786TIP3   OH232302   2.839   3.573   2.417
10786TIP3    H132303   2.789   3.622   2.482
10786TIP3    H232304   2.832   3.626   2.337
10787TIP3   OH232305   6.645   1.276   4.449
10787TIP3    H132306   6.711   1.239   4.390
10787TIP3    H232307   6.593   1.200   4.477
10788TIP3   OH232308   7.176   1.550   4.113
10788TIP3    H132309   7.129   1.573   4.033
10788TIP3    H232310   7.135   1.469   4.143
10789TIP3   OH232311   4.185   1.128   1.527
10789TIP3    H132312   4.129   1.204   1.516
10789TIP3    H232313   4.154   1.086   1.608
10790TIP3   OH232314   1.105   2.446   2.096
10790TIP3    H132315   1.189   2.446   2.049
10790TIP3    H232316   1.100   2.359   2.135
10791TIP3   OH232317   3.347   6.312   1.604
10791TIP3    H132318   3.423   6.333   1.658
10791TIP3    H232319   3.301   6.244   1.652
10792TIP3   OH232320   0.402   2.313   0.045
10792TIP3    H132321   0.355   2.363   0.112
10792TIP3    H232322   0.336   2.251   0.012
10793TIP3   OH232323   1.368   4.692   4.878
10793TIP3    H132324   1.330   4.656   4.798
10793TIP3    H232325   1.375   4.786   4.862
10794TIP3   OH232326   5.843   6.551   0.426
10794TIP3    H132327   5.779   6.614   0.457
10794TIP3    H232328   5.839   6.557   0.330
10795TIP3   OH232329   4.841   5.073   5.373
10795TIP3    H132330   4.782   4.998   5.370
10795TIP3    H232331   4.912   5.050   5.313
10796TIP3   OH232332   3.887   3.786   0.963
10796TIP3    H132333   3.929   3.741   0.890
10796TIP3    H232334   3.811   3.830   0.924
10797TIP3   OH232335   0.133   5.016   5.390
10797TIP3    H132336   0.044   5.001   5.422
10797TIP3    H232337   0.121   5.061   5.306
10798TIP3   OH232338   0.608   4.583   5.879
10798TIP3    H132339   0.561   4.518   5.931
10798TIP3    H232340   0.572   4.574   5.791
10799TIP3   OH232341   0.711   0.642   1.212
10799TIP3    H132342   0.805   0.645   1.195
10799TIP3    H232343   0.696   0.710   1.278
10800TIP3   OH232344   7.215   4.283   0.446
10800TIP3    H132345   7.199   4.342   0.372
10800TIP3    H232346   7.153   4.312   0.512
10801TIP3   OH232347   6.395   5.168   2.972
10801TIP3    H132348   6.466   5.125   2.924
10801TIP3    H232349   6.371   5.242   2.917
10802TIP3   OH232350   4.539   0.281   2.039
10802TIP3    H132351   4.548   0.297   1.945
10802TIP3    H232352   4.520   0.187   2.046
10803TIP3   OH232353   6.787   0.379   4.470
10803TIP3    H132354   6.879   0.377   4.442
10803TIP3    H232355   6.785   0.447   4.537
10804TIP3   OH232356   7.291   7.431   0.794
10804TIP3    H132357   7.233   7.444   0.720
10804TIP3    H232358   7.239   7.455   0.870
10805TIP3   OH232359   0.219   5.371   4.971
10805TIP3    H132360   0.187   5.432   4.905
10805TIP3    H232361   0.161   5.385   5.047
10806TIP3   OH232362   1.606   5.947   2.361
10806TIP3    H132363   1.520   5.988   2.346
10806TIP3    H232364   1.587   5.854   2.372
10807TIP3   OH232365   5.918   2.313   0.175
10807TIP3    H132366   5.859   2.328   0.250
10807TIP3    H232367   5.976   2.389   0.175
10808TIP3   OH232368   6.346   1.084   1.229
10808TIP3    H132369   6.268   1.030   1.214
10808TIP3    H232370   6.338   1.155   1.166
10809TIP3   OH232371   3.467   1.882   3.686
10809TIP3    H132372   3.551   1.880   3.640
10809TIP3    H232373   3.491   1.884   3.779
10810TIP3   OH232374   5.400   2.087   0.668
10810TIP3    H132375   5.399   1.999   0.629
10810TIP3    H232376   5.463   2.137   0.616
10811TIP3   OH232377   6.913   7.357   2.055
10811TIP3    H132378   7.003   7.383   2.077
10811TIP3    H232379   6.863   7.439   2.060
10812TIP3   OH232380   5.956   5.102   1.527
10812TIP3    H132381   6.050   5.110   1.542
10812TIP3    H232382   5.924   5.192   1.528
10813TIP3   OH232383   1.961   4.515   4.220
10813TIP3    H132384   2.038   4.460   4.233
10813TIP3    H232385   1.891   4.469   4.267
10814TIP3   OH232386   1.112   2.127   2.779
10814TIP3    H132387   1.124   2.093   2.867
10814TIP3    H232388   1.022   2.160   2.778
10815TIP3   OH232389   7.630   5.668   4.974
10815TIP3    H132390   7.726   5.665   4.980
10815TIP3    H232391   7.609   5.761   4.980
10816TIP3   OH232392   4.177   2.353   2.200
10816TIP3    H132393   4.244   2.362   2.132
10816TIP3    H232394   4.126   2.434   2.193
10817TIP3   OH232395   2.757   2.562   6.126
10817TIP3    H132396   2.695   2.628   6.158
10817TIP3    H232397   2.801   2.530   6.204
10818TIP3   OH232398   5.825   0.529   5.960
10818TIP3    H132399   5.833   0.476   6.039
10818TIP3    H232400   5.738   0.508   5.926
10819TIP3   OH232401   0.438   2.097   5.692
10819TIP3    H132402   0.464   2.049   5.613
10819TIP3    H232403   0.512   2.156   5.709
10820TIP3   OH232404   1.375   6.999   5.613
10820TIP3    H132405   1.453   6.951   5.584
10820TIP3    H232406   1.394   7.024   5.703
10821TIP3   OH232407   3.960   3.775   0.280
10821TIP3    H132408   3.946   3.774   0.185
10821TIP3    H232409   4.028   3.710   0.294
10822TIP3   OH232410   2.666   4.698   6.068
10822TIP3    H132411   2.645   4.741   5.984
10822TIP3    H232412   2.685   4.608   6.044
10823TIP3   OH232413   5.562   2.459   3.818
10823TIP3    H132414   5.644   2.476   3.864
10823TIP3    H232415   5.579   2.485   3.728
10824TIP3   OH232416   7.143   2.959   2.366
10824TIP3    H132417   7.064   3.014   2.361
10824TIP3    H232418   7.164   2.940   2.275
10825TIP3   OH232419   5.085   4.746   0.977
10825TIP3    H132420   5.091   4.680   0.908
10825TIP3    H232421   5.029   4.814   0.939
10826TIP3   OH232422   5.019   6.110   6.513
10826TIP3    H132423   5.062   6.195   6.510
10826TIP3    H232424   4.970   6.105   6.430
10827TIP3   OH232425   8.040   0.116   0.212
10827TIP3    H132426   8.043   0.201   0.168
10827TIP3    H232427   8.132   0.094   0.227
10828TIP3   OH232428   4.420   6.703   6.696
10828TIP3    H132429   4.392   6.793   6.680
10828TIP3    H232430   4.399   6.687   6.788
10829TIP3   OH232431   5.216   4.478   2.745
10829TIP3    H132432   5.223   4.496   2.838
10829TIP3    H232433   5.147   4.413   2.738
10830TIP3   OH232434   5.422   0.012   0.583
10830TIP3    H132435   5.364   0.087   0.596
10830TIP3    H232436   5.445   0.017   0.490
10831TIP3   OH232437   7.089   6.196   3.849
10831TIP3    H132438   7.167   6.204   3.795
10831TIP3    H232439   7.037   6.273   3.828
10832TIP3   OH232440   0.528   3.389   4.727
10832TIP3    H132441   0.533   3.351   4.639
10832TIP3    H232442   0.619   3.414   4.746
10833TIP3   OH232443   7.939   2.984   6.647
10833TIP3    H132444   7.946   2.970   6.552
10833TIP3    H232445   7.881   3.060   6.655
10834TIP3   OH232446   7.346   1.763   2.776
10834TIP3    H132447   7.418   1.701   2.765
10834TIP3    H232448   7.269   1.716   2.743
10835TIP3   OH232449   4.073  -0.024   2.790
10835TIP3    H132450   4.036   0.041   2.730
10835TIP3    H232451   4.146   0.022   2.832
10836TIP3   OH232452   1.627   5.293   2.808
10836TIP3    H132453   1.653   5.368   2.754
10836TIP3    H232454   1.669   5.310   2.893
10837TIP3   OH232455   6.856   0.979   1.076
10837TIP3    H132456   6.919   0.968   1.148
10837TIP3    H232457   6.809   1.059   1.096
10838TIP3   OH232458   3.311   6.854   1.076
10838TIP3    H132459   3.356   6.839   0.993
10838TIP3    H232460   3.374   6.900   1.130
10839TIP3   OH232461   2.351   7.310   5.601
10839TIP3    H132462   2.282   7.359   5.646
10839TIP3    H232463   2.308   7.230   5.571
10840TIP3   OH232464   3.110   0.537   2.987
10840TIP3    H132465   3.017   0.547   2.968
10840TIP3    H232466   3.125   0.443   2.987
10841TIP3   OH232467   3.608   7.249   1.005
10841TIP3    H132468   3.535   7.309   0.993
10841TIP3    H232469   3.575   7.181   1.064
10842TIP3   OH232470   0.851   3.931   0.107
10842TIP3    H132471   0.929   3.876   0.111
10842TIP3    H232472   0.786   3.878   0.062
10843TIP3   OH232473   3.754   3.689   2.395
10843TIP3    H132474   3.823   3.708   2.459
10843TIP3    H232475   3.717   3.775   2.373
10844TIP3   OH232476   4.037   0.079   3.552
10844TIP3    H132477   3.995   0.010   3.604
10844TIP3    H232478   3.998   0.160   3.584
10845TIP3   OH232479   1.165   3.312   1.243
10845TIP3    H132480   1.206   3.388   1.284
10845TIP3    H232481   1.152   3.250   1.315
10846TIP3   OH232482   3.060   7.201   0.125
10846TIP3    H132483   3.103   7.211   0.040
10846TIP3    H232484   2.966   7.204   0.105
10847TIP3   OH232485   6.017   2.278   3.395
10847TIP3    H132486   5.954   2.301   3.327
10847TIP3    H232487   6.102   2.297   3.355
10848TIP3   OH232488   2.983   1.042   6.670
10848TIP3    H132489   3.023   1.050   6.757
10848TIP3    H232490   2.996   1.128   6.630
10849TIP3   OH232491   0.603   5.138   4.227
10849TIP3    H132492   0.619   5.049   4.259
10849TIP3    H232493   0.681   5.186   4.252
10850TIP3   OH232494   1.997   5.829   6.393
10850TIP3    H132495   2.081   5.783   6.391
10850TIP3    H232496   1.995   5.871   6.479
10851TIP3   OH232497   5.941   7.018   4.969
10851TIP3    H132498   5.940   7.015   4.874
10851TIP3    H232499   6.008   6.955   4.995
10852TIP3   OH232500   1.297   1.223   6.390
10852TIP3    H132501   1.220   1.185   6.347
10852TIP3    H232502   1.271   1.312   6.411
10853TIP3   OH232503   3.200   6.086   5.085
10853TIP3    H132504   3.128   6.146   5.099
10853TIP3    H232505   3.177   6.008   5.136
10854TIP3   OH232506   5.013   0.824   0.051
10854TIP3    H132507   5.011   0.917   0.030
10854TIP3    H232508   4.921   0.798   0.050
10855TIP3   OH232509   3.380   7.152   0.217
10855TIP3    H132510   3.437   7.079   0.198
10855TIP3    H232511   3.307   7.143   0.156
10856TIP3   OH232512   2.558   7.366   4.369
10856TIP3    H132513   2.552   7.270   4.367
10856TIP3    H232514   2.544   7.389   4.461
10857TIP3   OH232515   0.561   4.539   4.407
10857TIP3    H132516   0.550   4.592   4.328
10857TIP3    H232517   0.494   4.472   4.400
10858TIP3   OH232518   0.633   2.578   6.336
10858TIP3    H132519   0.654   2.557   6.245
10858TIP3    H232520   0.635   2.494   6.382
10859TIP3   OH232521   1.495   3.127   3.252
10859TIP3    H132522   1.400   3.137   3.247
10859TIP3    H232523   1.528   3.178   3.178
10860TIP3   OH232524   1.628   4.398   4.053
10860TIP3    H132525   1.667   4.444   3.979
10860TIP3    H232526   1.681   4.319   4.063
10861TIP3   OH232527   5.629   6.801   5.318
10861TIP3    H132528   5.618   6.866   5.386
10861TIP3    H232529   5.582   6.836   5.242
10862TIP3   OH232530   4.619   2.309   3.826
10862TIP3    H132531   4.564   2.351   3.760
10862TIP3    H232532   4.701   2.358   3.825
10863TIP3   OH232533   2.668   7.788   6.165
10863TIP3    H132534   2.705   7.752   6.085
10863TIP3    H232535   2.656   7.712   6.223
10864TIP3   OH232536   7.714   4.921   3.899
10864TIP3    H132537   7.783   4.959   3.953
10864TIP3    H232538   7.760   4.884   3.824
10865TIP3   OH232539   6.269   7.178   5.108
10865TIP3    H132540   6.250   7.272   5.106
10865TIP3    H232541   6.363   7.172   5.093
10866TIP3   OH232542   8.263   5.183   0.627
10866TIP3    H132543   8.239   5.118   0.694
10866TIP3    H232544   8.226   5.148   0.546
10867TIP3   OH232545   1.212   2.541   4.378
10867TIP3    H132546   1.214   2.462   4.324
10867TIP3    H232547   1.290   2.590   4.351
10868TIP3   OH232548   0.490   4.435   2.033
10868TIP3    H132549   0.557   4.385   1.987
10868TIP3    H232550   0.491   4.521   1.991
10869TIP3   OH232551   2.683   0.176   6.317
10869TIP3    H132552   2.745   0.144   6.251
10869TIP3    H232553   2.620   0.229   6.268
10870TIP3   OH232554   1.611   7.615   5.835
10870TIP3    H132555   1.559   7.647   5.762
10870TIP3    H232556   1.701   7.609   5.801
10871TIP3   OH232557   3.416   3.953   0.990
10871TIP3    H132558   3.417   4.031   0.935
10871TIP3    H232559   3.362   3.891   0.942
10872TIP3   OH232560   8.110   7.648   2.439
10872TIP3    H132561   8.163   7.659   2.518
10872TIP3    H232562   8.149   7.708   2.375
10873TIP3   OH232563   7.486   5.442   4.290
10873TIP3    H132564   7.548   5.463   4.221
10873TIP3    H232565   7.443   5.525   4.310
10874TIP3   OH232566   3.146   6.928   5.417
10874TIP3    H132567   3.105   6.954   5.499
10874TIP3    H232568   3.086   6.864   5.379
10875TIP3   OH232569   3.127   3.400   0.222
10875TIP3    H132570   3.222   3.396   0.230
10875TIP3    H232571   3.093   3.365   0.304
10876TIP3   OH232572   4.379   1.421   3.550
10876TIP3    H132573   4.358   1.449   3.639
10876TIP3    H232574   4.448   1.481   3.523
10877TIP3   OH232575   5.491   7.792   0.230
10877TIP3    H132576   5.429   7.719   0.231
10877TIP3    H232577   5.573   7.753   0.199
10878TIP3   OH232578   0.126   6.667   6.540
10878TIP3    H132579   0.093   6.596   6.485
10878TIP3    H232580   0.144   6.738   6.479
10879TIP3   OH232581   1.743   3.772   1.907
10879TIP3    H132582   1.652   3.746   1.926
10879TIP3    H232583   1.772   3.816   1.986
10880TIP3   OH232584   5.464   1.517   0.145
10880TIP3    H132585   5.534   1.530   0.081
10880TIP3    H232586   5.437   1.426   0.133
10881TIP3   OH232587   1.574   1.083   3.927
10881TIP3    H132588   1.531   1.053   3.847
10881TIP3    H232589   1.663   1.103   3.901
10882TIP3   OH232590   4.762   3.150   0.417
10882TIP3    H132591   4.796   3.061   0.409
10882TIP3    H232592   4.800   3.184   0.497
10883TIP3   OH232593   4.371   5.648   6.037
10883TIP3    H132594   4.346   5.599   5.959
10883TIP3    H232595   4.296   5.641   6.095
10884TIP3   OH232596   4.084   3.176   6.297
10884TIP3    H132597   4.077   3.211   6.208
10884TIP3    H232598   4.164   3.216   6.333
10885TIP3   OH232599   4.651   6.847   0.034
10885TIP3    H132600   4.693   6.932   0.024
10885TIP3    H232601   4.635   6.817  -0.055
10886TIP3   OH232602   5.417   3.123   1.537
10886TIP3    H132603   5.453   3.118   1.625
10886TIP3    H232604   5.358   3.199   1.540
10887TIP3   OH232605   0.987   1.390   1.797
10887TIP3    H132606   0.914   1.406   1.858
10887TIP3    H232607   0.947   1.398   1.710
10888TIP3   OH232608   3.705   4.298   2.635
10888TIP3    H132609   3.669   4.369   2.689
10888TIP3    H232610   3.628   4.261   2.590
10889TIP3   OH232611   4.602   2.170   1.517
10889TIP3    H132612   4.550   2.232   1.569
10889TIP3    H232613   4.691   2.179   1.552
10890TIP3   OH232614   2.124   2.110   5.496
10890TIP3    H132615   2.100   2.109   5.403
10890TIP3    H232616   2.060   2.054   5.539
10891TIP3   OH232617   1.248   6.426   5.808
10891TIP3    H132618   1.164   6.403   5.848
10891TIP3    H232619   1.297   6.344   5.808
10892TIP3   OH232620   4.140   0.910   5.380
10892TIP3    H132621   4.183   0.926   5.296
10892TIP3    H232622   4.207   0.932   5.446
10893TIP3   OH232623   0.464   0.463   0.264
10893TIP3    H132624   0.479   0.428   0.352
10893TIP3    H232625   0.535   0.427   0.211
10894TIP3   OH232626   7.981   4.993   3.168
10894TIP3    H132627   7.910   5.047   3.203
10894TIP3    H232628   7.950   4.964   3.082
10895TIP3   OH232629   2.038   0.800   4.026
10895TIP3    H132630   1.976   0.780   3.956
10895TIP3    H232631   2.122   0.769   3.994
10896TIP3   OH232632   5.228   2.864   3.465
10896TIP3    H132633   5.274   2.783   3.442
10896TIP3    H232634   5.278   2.901   3.537
10897TIP3   OH232635   6.588   2.126   4.097
10897TIP3    H132636   6.529   2.085   4.034
10897TIP3    H232637   6.660   2.159   4.044
10898TIP3   OH232638   5.885   7.307   2.827
10898TIP3    H132639   5.973   7.328   2.796
10898TIP3    H232640   5.890   7.214   2.851
10899TIP3   OH232641   4.444   1.072   4.150
10899TIP3    H132642   4.493   1.040   4.074
10899TIP3    H232643   4.457   1.167   4.149
10900TIP3   OH232644   4.289   3.779   6.502
10900TIP3    H132645   4.208   3.831   6.499
10900TIP3    H232646   4.354   3.838   6.540
10901TIP3   OH232647   1.687   0.975   2.702
10901TIP3    H132648   1.762   0.934   2.744
10901TIP3    H232649   1.613   0.955   2.760
10902TIP3   OH232650   6.581   0.477   0.119
10902TIP3    H132651   6.565   0.570   0.134
10902TIP3    H232652   6.665   0.474   0.072
10903TIP3   OH232653   1.573   0.413   6.691
10903TIP3    H132654   1.622   0.481   6.738
10903TIP3    H232655   1.582   0.437   6.599
10904TIP3   OH232656   3.803   5.203   3.425
10904TIP3    H132657   3.862   5.257   3.372
10904TIP3    H232658   3.849   5.189   3.507
10905TIP3   OH232659   1.504   1.464   4.964
10905TIP3    H132660   1.476   1.472   5.055
10905TIP3    H232661   1.447   1.524   4.916
10906TIP3   OH232662   1.679   1.391   4.658
10906TIP3    H132663   1.771   1.367   4.668
10906TIP3    H232664   1.631   1.328   4.712
10907TIP3   OH232665   3.433   4.621   3.891
10907TIP3    H132666   3.495   4.693   3.890
10907TIP3    H232667   3.478   4.551   3.938
10908TIP3   OH232668   2.052   5.707   5.556
10908TIP3    H132669   2.078   5.787   5.602
10908TIP3    H232670   2.037   5.643   5.626
10909TIP3   OH232671   6.612   5.900   3.803
10909TIP3    H132672   6.616   5.994   3.786
10909TIP3    H232673   6.532   5.887   3.853
10910TIP3   OH232674   4.362   4.958   2.363
10910TIP3    H132675   4.303   5.019   2.407
10910TIP3    H232676   4.448   4.999   2.369
10911TIP3   OH232677   1.809   4.000   6.680
10911TIP3    H132678   1.884   4.047   6.644
10911TIP3    H232679   1.828   3.991   6.773
10912TIP3   OH232680   4.070   3.174   0.404
10912TIP3    H132681   4.127   3.183   0.329
10912TIP3    H232682   4.127   3.186   0.480
10913TIP3   OH232683   1.531   0.273   4.074
10913TIP3    H132684   1.598   0.221   4.118
10913TIP3    H232685   1.562   0.363   4.078
10914TIP3   OH232686   1.296   1.868   3.082
10914TIP3    H132687   1.268   1.783   3.048
10914TIP3    H232688   1.292   1.927   3.006
10915TIP3   OH232689   6.635   5.007   4.372
10915TIP3    H132690   6.561   5.017   4.431
10915TIP3    H232691   6.691   5.082   4.392
10916TIP3   OH232692   7.348   2.932   0.992
10916TIP3    H132693   7.314   2.940   0.903
10916TIP3    H232694   7.327   3.017   1.032
10917TIP3   OH232695   8.022   6.313   3.615
10917TIP3    H132696   8.089   6.249   3.593
10917TIP3    H232697   8.060   6.397   3.593
10918TIP3   OH232698   6.167   2.278   2.470
10918TIP3    H132699   6.197   2.222   2.399
10918TIP3    H232700   6.118   2.347   2.427
10919TIP3   OH232701   1.016   2.697   3.603
10919TIP3    H132702   1.067   2.626   3.564
10919TIP3    H232703   0.977   2.658   3.681
10920TIP3   OH232704   7.232   7.265   6.499
10920TIP3    H132705   7.240   7.342   6.555
10920TIP3    H232706   7.138   7.245   6.499
10921TIP3   OH232707   2.979   6.308   6.189
10921TIP3    H132708   2.941   6.394   6.173
10921TIP3    H232709   2.903   6.251   6.203
10922TIP3   OH232710   2.247   5.209   0.365
10922TIP3    H132711   2.337   5.177   0.358
10922TIP3    H232712   2.193   5.130   0.365
10923TIP3   OH232713   5.178   1.796   1.329
10923TIP3    H132714   5.102   1.766   1.278
10923TIP3    H232715   5.218   1.864   1.275
10924TIP3   OH232716   4.711   1.646   5.819
10924TIP3    H132717   4.682   1.555   5.810
10924TIP3    H232718   4.775   1.658   5.749
10925TIP3   OH232719   1.247   5.415   2.102
10925TIP3    H132720   1.305   5.455   2.038
10925TIP3    H232721   1.291   5.429   2.186
10926TIP3   OH232722   4.045   7.830   2.496
10926TIP3    H132723   4.007   7.844   2.409
10926TIP3    H232724   4.027   7.739   2.515
10927TIP3   OH232725   5.100   7.810   4.386
10927TIP3    H132726   5.113   7.859   4.468
10927TIP3    H232727   5.007   7.786   4.387
10928TIP3   OH232728   1.455   7.149   5.372
10928TIP3    H132729   1.406   7.089   5.316
10928TIP3    H232730   1.412   7.143   5.458
10929TIP3   OH232731   7.688   6.136   6.537
10929TIP3    H132732   7.725   6.112   6.453
10929TIP3    H232733   7.763   6.146   6.595
10930TIP3   OH232734   5.020   0.216   6.498
10930TIP3    H132735   5.109   0.252   6.494
10930TIP3    H232736   4.979   0.244   6.416
10931TIP3   OH232737   2.549   2.534   4.818
10931TIP3    H132738   2.581   2.473   4.751
10931TIP3    H232739   2.563   2.621   4.780
10932TIP3   OH232740   7.317   5.079   5.468
10932TIP3    H132741   7.298   5.059   5.376
10932TIP3    H232742   7.231   5.077   5.511
10933TIP3   OH232743   7.247   5.695   1.802
10933TIP3    H132744   7.263   5.744   1.721
10933TIP3    H232745   7.157   5.664   1.794
10934TIP3   OH232746   0.396   1.713   0.307
10934TIP3    H132747   0.303   1.710   0.331
10934TIP3    H232748   0.439   1.659   0.373
10935TIP3   OH232749   2.787   3.641   2.832
10935TIP3    H132750   2.806   3.675   2.919
10935TIP3    H232751   2.818   3.551   2.834
10936TIP3   OH232752   3.691   1.581   0.145
10936TIP3    H132753   3.677   1.582   0.240
10936TIP3    H232754   3.609   1.614   0.108
10937TIP3   OH232755   6.511   2.586   2.167
10937TIP3    H132756   6.458   2.637   2.106
10937TIP3    H232757   6.601   2.598   2.137
10938TIP3   OH232758   4.958   0.556   1.168
10938TIP3    H132759   5.017   0.597   1.104
10938TIP3    H232760   5.015   0.538   1.243
10939TIP3   OH232761   6.210   3.475   1.575
10939TIP3    H132762   6.161   3.557   1.576
10939TIP3    H232763   6.280   3.489   1.511
10940TIP3   OH232764   4.250   4.292   0.888
10940TIP3    H132765   4.161   4.321   0.905
10940TIP3    H232766   4.304   4.344   0.947
10941TIP3   OH232767   0.672   2.685   5.781
10941TIP3    H132768   0.599   2.641   5.823
10941TIP3    H232769   0.734   2.615   5.761
10942TIP3   OH232770   3.456   7.614   5.872
10942TIP3    H132771   3.426   7.669   5.799
10942TIP3    H232772   3.459   7.526   5.835
10943TIP3   OH232773   8.326   2.172   3.077
10943TIP3    H132774   8.306   2.199   2.988
10943TIP3    H232775   8.277   2.091   3.090
10944TIP3   OH232776   3.048   2.455   2.158
10944TIP3    H132777   3.041   2.429   2.066
10944TIP3    H232778   3.035   2.374   2.207
10945TIP3   OH232779   4.584   5.732   5.034
10945TIP3    H132780   4.528   5.654   5.032
10945TIP3    H232781   4.618   5.739   4.945
10946TIP3   OH232782   2.217   5.453   5.858
10946TIP3    H132783   2.231   5.389   5.789
10946TIP3    H232784   2.305   5.474   5.889
10947TIP3   OH232785   5.922   5.406   2.644
10947TIP3    H132786   5.926   5.478   2.580
10947TIP3    H232787   5.852   5.433   2.704
10948TIP3   OH232788   1.845   4.878   1.088
10948TIP3    H132789   1.939   4.884   1.102
10948TIP3    H232790   1.807   4.928   1.161
10949TIP3   OH232791   4.150   3.793   1.075
10949TIP3    H132792   4.075   3.767   1.022
10949TIP3    H232793   4.175   3.713   1.121
10950TIP3   OH232794   4.426   6.489   5.590
10950TIP3    H132795   4.510   6.454   5.560
10950TIP3    H232796   4.394   6.425   5.654
10951TIP3   OH232797   3.035   0.115   3.196
10951TIP3    H132798   3.090   0.074   3.262
10951TIP3    H232799   3.014   0.044   3.135
10952TIP3   OH232800   5.512   5.223   2.476
10952TIP3    H132801   5.453   5.154   2.445
10952TIP3    H232802   5.591   5.213   2.422
10953TIP3   OH232803   1.690   6.508   2.961
10953TIP3    H132804   1.714   6.416   2.966
10953TIP3    H232805   1.737   6.549   3.034
10954TIP3   OH232806   6.235   3.841   3.760
10954TIP3    H132807   6.181   3.917   3.781
10954TIP3    H232808   6.173   3.769   3.753
10955TIP3   OH232809   7.420   5.565   0.184
10955TIP3    H132810   7.484   5.628   0.217
10955TIP3    H232811   7.355   5.617   0.139
10956TIP3   OH232812   6.202   7.448   0.194
10956TIP3    H132813   6.199   7.533   0.238
10956TIP3    H232814   6.291   7.441   0.160
10957TIP3   OH232815   1.259   4.334   0.388
10957TIP3    H132816   1.323   4.347   0.318
10957TIP3    H232817   1.235   4.241   0.381
10958TIP3   OH232818   1.351   2.271   2.588
10958TIP3    H132819   1.405   2.349   2.574
10958TIP3    H232820   1.268   2.305   2.621
10959TIP3   OH232821   6.834   0.863   6.357
10959TIP3    H132822   6.903   0.800   6.376
10959TIP3    H232823   6.764   0.812   6.317
10960TIP3   OH232824   6.695   6.843   0.233
10960TIP3    H132825   6.707   6.906   0.162
10960TIP3    H232826   6.624   6.879   0.286
10961TIP3   OH232827   5.206   6.993   2.206
10961TIP3    H132828   5.115   7.022   2.211
10961TIP3    H232829   5.211   6.919   2.267
10962TIP3   OH232830   1.146   7.563   4.087
10962TIP3    H132831   1.072   7.589   4.031
10962TIP3    H232832   1.128   7.605   4.171
10963TIP3   OH232833   1.352   2.359   0.920
10963TIP3    H132834   1.330   2.413   0.996
10963TIP3    H232835   1.438   2.322   0.942
10964TIP3   OH232836   2.510   3.312   0.653
10964TIP3    H132837   2.515   3.406   0.669
10964TIP3    H232838   2.416   3.292   0.657
10965TIP3   OH232839   1.295   1.036   6.625
10965TIP3    H132840   1.339   1.084   6.555
10965TIP3    H232841   1.210   1.078   6.634
10966TIP3   OH232842   6.006   1.176   1.951
10966TIP3    H132843   5.963   1.136   1.876
10966TIP3    H232844   6.082   1.221   1.914
10967TIP3   OH232845   1.586   4.638   3.340
10967TIP3    H132846   1.625   4.704   3.398
10967TIP3    H232847   1.608   4.669   3.252
10968TIP3   OH232848   4.401   3.538   1.715
10968TIP3    H132849   4.495   3.552   1.705
10968TIP3    H232850   4.386   3.541   1.810
10969TIP3   OH232851   5.626   6.593   2.458
10969TIP3    H132852   5.533   6.614   2.459
10969TIP3    H232853   5.631   6.504   2.422
10970TIP3   OH232854   1.847   2.840   4.065
10970TIP3    H132855   1.793   2.765   4.041
10970TIP3    H232856   1.844   2.843   4.161
10971TIP3   OH232857   7.432   1.046   2.725
10971TIP3    H132858   7.500   1.090   2.674
10971TIP3    H232859   7.395   0.980   2.666
10972TIP3   OH232860   6.817   0.954   4.013
10972TIP3    H132861   6.751   0.887   3.996
10972TIP3    H232862   6.792   1.027   3.956
10973TIP3   OH232863   3.937   5.587   4.776
10973TIP3    H132864   3.926   5.675   4.812
10973TIP3    H232865   3.991   5.541   4.840
10974TIP3   OH232866   3.656   4.629   3.294
10974TIP3    H132867   3.612   4.578   3.226
10974TIP3    H232868   3.733   4.665   3.251
10975TIP3   OH232869   7.125   2.683   1.897
10975TIP3    H132870   7.065   2.756   1.909
10975TIP3    H232871   7.175   2.679   1.979
10976TIP3   OH232872   6.648   5.894   1.279
10976TIP3    H132873   6.697   5.912   1.199
10976TIP3    H232874   6.594   5.818   1.258
10977TIP3   OH232875   1.103   6.672   4.517
10977TIP3    H132876   1.150   6.750   4.544
10977TIP3    H232877   1.171   6.607   4.500
10978TIP3   OH232878   0.583   1.957   4.207
10978TIP3    H132879   0.616   1.875   4.170
10978TIP3    H232880   0.661   2.000   4.242
10979TIP3   OH232881   1.607   4.131   2.984
10979TIP3    H132882   1.542   4.201   2.976
10979TIP3    H232883   1.584   4.087   3.066
10980TIP3   OH232884   3.067   6.414   3.987
10980TIP3    H132885   3.087   6.346   3.923
10980TIP3    H232886   3.044   6.491   3.934
10981TIP3   OH232887   4.029   4.525   3.057
10981TIP3    H132888   4.120   4.508   3.034
10981TIP3    H232889   4.004   4.450   3.111
10982TIP3   OH232890   5.519   4.541   2.017
10982TIP3    H132891   5.530   4.623   1.969
10982TIP3    H232892   5.558   4.558   2.103
10983TIP3   OH232893   2.680   7.685   1.593
10983TIP3    H132894   2.585   7.682   1.605
10983TIP3    H232895   2.714   7.709   1.680
10984TIP3   OH232896   3.281   0.494   4.470
10984TIP3    H132897   3.311   0.546   4.545
10984TIP3    H232898   3.339   0.521   4.399
10985TIP3   OH232899   3.535   3.247   5.797
10985TIP3    H132900   3.515   3.200   5.716
10985TIP3    H232901   3.455   3.239   5.849
10986TIP3   OH232902   0.111   5.743   6.715
10986TIP3    H132903   0.114   5.689   6.636
10986TIP3    H232904   0.200   5.775   6.726
10987TIP3   OH232905   4.428   4.723   3.838
10987TIP3    H132906   4.366   4.692   3.904
10987TIP3    H232907   4.458   4.644   3.794
10988TIP3   OH232908   4.055   2.631   0.327
10988TIP3    H132909   4.049   2.725   0.341
10988TIP3    H232910   4.147   2.611   0.340
10989TIP3   OH232911   1.909   7.139   2.444
10989TIP3    H132912   1.864   7.066   2.403
10989TIP3    H232913   1.840   7.189   2.488
10990TIP3   OH232914   2.378   1.587   3.879
10990TIP3    H132915   2.359   1.642   3.803
10990TIP3    H232916   2.447   1.528   3.849
10991TIP3   OH232917   2.172   6.927   6.032
10991TIP3    H132918   2.217   6.857   5.986
10991TIP3    H232919   2.182   7.004   5.975
10992TIP3   OH232920   3.530   7.133   4.123
10992TIP3    H132921   3.571   7.047   4.123
10992TIP3    H232922   3.483   7.137   4.206
10993TIP3   OH232923   2.155   3.844   6.538
10993TIP3    H132924   2.155   3.824   6.631
10993TIP3    H232925   2.115   3.931   6.532
10994TIP3   OH232926   3.082   3.580   1.906
10994TIP3    H132927   3.125   3.660   1.939
10994TIP3    H232928   3.094   3.516   1.976
10995TIP3   OH232929   0.270   5.198   3.731
10995TIP3    H132930   0.218   5.267   3.691
10995TIP3    H232931   0.211   5.159   3.796
10996TIP3   OH232932   2.789   0.640   0.329
10996TIP3    H132933   2.768   0.706   0.263
10996TIP3    H232934   2.876   0.608   0.304
10997TIP3   OH232935   6.251   3.010   2.004
10997TIP3    H132936   6.207   3.023   1.920
10997TIP3    H232937   6.302   3.089   2.018
10998TIP3   OH232938   6.795   5.618   4.297
10998TIP3    H132939   6.854   5.597   4.370
10998TIP3    H232940   6.834   5.573   4.222
10999TIP3   OH232941   5.935   1.237   4.861
10999TIP3    H132942   5.991   1.267   4.932
10999TIP3    H232943   5.853   1.286   4.873
11000TIP3   OH232944   5.655   0.918   0.591
11000TIP3    H132945   5.612   0.897   0.508
11000TIP3    H232946   5.745   0.939   0.566
11001TIP3   OH232947   8.063   3.115   6.313
11001TIP3    H132948   8.044   3.023   6.293
11001TIP3    H232949   8.004   3.165   6.258
11002TIP3   OH232950   3.456   7.805   4.490
11002TIP3    H132951   3.366   7.785   4.464
11002TIP3    H232952   3.507   7.729   4.460
11003TIP3   OH232953   2.477   5.546   5.892
11003TIP3    H132954   2.571   5.538   5.911
11003TIP3    H232955   2.471   5.618   5.830
11004TIP3   OH232956   1.985   0.123   3.208
11004TIP3    H132957   1.950   0.151   3.124
11004TIP3    H232958   1.953   0.034   3.219
11005TIP3   OH232959   2.552   6.677   0.809
11005TIP3    H132960   2.643   6.697   0.832
11005TIP3    H232961   2.551   6.676   0.713
11006TIP3   OH232962   7.491   6.243   5.181
11006TIP3    H132963   7.526   6.291   5.257
11006TIP3    H232964   7.398   6.264   5.180
11007TIP3   OH232965   7.414   3.527   1.097
11007TIP3    H132966   7.365   3.489   1.170
11007TIP3    H232967   7.476   3.586   1.139
11008TIP3   OH232968   7.793   2.641   6.711
11008TIP3    H132969   7.833   2.717   6.667
11008TIP3    H232970   7.832   2.641   6.798
11009TIP3   OH232971   5.124   3.424   5.092
11009TIP3    H132972   5.149   3.353   5.150
11009TIP3    H232973   5.028   3.428   5.098
11010TIP3   OH232974   8.223   5.033   6.537
11010TIP3    H132975   8.311   5.032   6.576
11010TIP3    H232976   8.238   5.021   6.443
11011TIP3   OH232977   5.811   1.019   5.970
11011TIP3    H132978   5.716   1.010   5.960
11011TIP3    H232979   5.839   0.937   6.011
11012TIP3   OH232980   6.151   3.120   3.915
11012TIP3    H132981   6.197   3.040   3.942
11012TIP3    H232982   6.139   3.168   3.997
11013TIP3   OH232983   3.209   4.177   2.354
11013TIP3    H132984   3.244   4.099   2.312
11013TIP3    H232985   3.137   4.145   2.409
11014TIP3   OH232986   0.080   7.509   0.839
11014TIP3    H132987   0.091   7.523   0.745
11014TIP3    H232988   0.036   7.424   0.846
11015TIP3   OH232989   6.121   0.990   4.908
11015TIP3    H132990   6.059   0.929   4.948
11015TIP3    H232991   6.073   1.073   4.902
11016TIP3   OH232992   5.869   2.735   1.714
11016TIP3    H132993   5.878   2.804   1.780
11016TIP3    H232994   5.869   2.654   1.764
11017TIP3   OH232995   7.160   7.429   2.179
11017TIP3    H132996   7.222   7.489   2.220
11017TIP3    H232997   7.211   7.350   2.160
11018TIP3   OH232998   6.694   0.324   1.983
11018TIP3    H132999   6.675   0.405   2.030
11018TIP3    H233000   6.780   0.298   2.015
11019TIP3   OH233001   0.406   6.984   6.407
11019TIP3    H133002   0.471   7.045   6.441
11019TIP3    H233003   0.427   6.901   6.449
11020TIP3   OH233004   1.699   0.783   1.420
11020TIP3    H133005   1.638   0.803   1.491
11020TIP3    H233006   1.770   0.847   1.432
11021TIP3   OH233007   4.009   6.163   1.344
11021TIP3    H133008   3.956   6.211   1.281
11021TIP3    H233009   4.098   6.195   1.331
11022TIP3   OH233010   2.087   4.578   1.147
11022TIP3    H133011   2.091   4.552   1.055
11022TIP3    H233012   2.094   4.673   1.146
11023TIP3   OH233013   2.092   7.610   1.601
11023TIP3    H133014   2.013   7.576   1.558
11023TIP3    H233015   2.143   7.649   1.530
11024TIP3   OH233016   1.284   5.944   6.549
11024TIP3    H133017   1.360   6.001   6.539
11024TIP3    H233018   1.307   5.865   6.501
11025TIP3   OH233019   5.944   1.796   3.600
11025TIP3    H133020   5.950   1.747   3.518
11025TIP3    H233021   6.021   1.770   3.649
11026TIP3   OH233022   1.194   3.186   5.371
11026TIP3    H133023   1.109   3.152   5.343
11026TIP3    H233024   1.214   3.255   5.308
11027TIP3   OH233025   6.209   4.302   1.577
11027TIP3    H133026   6.230   4.368   1.643
11027TIP3    H233027   6.193   4.352   1.497
11028TIP3   OH233028   2.824   0.322   5.762
11028TIP3    H133029   2.856   0.304   5.673
11028TIP3    H233030   2.806   0.416   5.762
11029TIP3   OH233031   5.479   5.638   0.784
11029TIP3    H133032   5.518   5.719   0.751
11029TIP3    H233033   5.525   5.622   0.867
11030TIP3   OH233034   0.995   2.193   5.055
11030TIP3    H133035   1.061   2.222   4.992
11030TIP3    H233036   0.974   2.103   5.029
11031TIP3   OH233037   1.136   1.342   5.805
11031TIP3    H133038   1.159   1.287   5.730
11031TIP3    H233039   1.173   1.295   5.880
11032TIP3   OH233040   7.666   6.846   4.603
11032TIP3    H133041   7.690   6.918   4.661
11032TIP3    H233042   7.661   6.885   4.516
11033TIP3   OH233043   3.137   5.162   2.341
11033TIP3    H133044   3.214   5.159   2.285
11033TIP3    H233045   3.083   5.088   2.313
11034TIP3   OH233046   2.922   0.855   1.994
11034TIP3    H133047   2.991   0.821   1.937
11034TIP3    H233048   2.936   0.811   2.078
11035TIP3   OH233049   5.145   7.308   3.038
11035TIP3    H133050   5.185   7.224   3.060
11035TIP3    H233051   5.208   7.350   2.979
11036TIP3   OH233052   4.125   0.596   2.719
11036TIP3    H133053   4.197   0.582   2.781
11036TIP3    H233054   4.071   0.518   2.727
11037TIP3   OH233055   5.732   5.683   0.183
11037TIP3    H133056   5.767   5.599   0.211
11037TIP3    H233057   5.690   5.665   0.099
11038TIP3   OH233058   1.891   5.400   5.038
11038TIP3    H133059   1.821   5.456   5.005
11038TIP3    H233060   1.946   5.458   5.090
11039TIP3   OH233061   4.356   2.727   3.374
11039TIP3    H133062   4.437   2.699   3.416
11039TIP3    H233063   4.382   2.799   3.316
11040TIP3   OH233064   8.074   6.619   4.400
11040TIP3    H133065   8.069   6.673   4.479
11040TIP3    H233066   8.154   6.649   4.356
11041TIP3   OH233067   7.546   1.988   2.310
11041TIP3    H133068   7.588   1.976   2.225
11041TIP3    H233069   7.538   2.083   2.319
11042TIP3   OH233070   4.815   0.580   3.429
11042TIP3    H133071   4.752   0.508   3.435
11042TIP3    H233072   4.845   0.592   3.519
11043TIP3   OH233073   0.093   1.165   3.130
11043TIP3    H133074   0.175   1.214   3.142
11043TIP3    H233075   0.111   1.107   3.056
11044TIP3   OH233076   3.604   6.847   2.688
11044TIP3    H133077   3.635   6.767   2.729
11044TIP3    H233078   3.622   6.835   2.595
11045TIP3   OH233079   6.681   0.036   4.721
11045TIP3    H133080   6.655  -0.029   4.655
11045TIP3    H233081   6.724   0.105   4.671
11046TIP3   OH233082   7.300   4.225   6.739
11046TIP3    H133083   7.347   4.151   6.701
11046TIP3    H233084   7.254   4.188   6.814
11047TIP3   OH233085   1.726   5.419   4.559
11047TIP3    H133086   1.691   5.504   4.533
11047TIP3    H233087   1.691   5.358   4.494
11048TIP3   OH233088   1.779   6.672   3.802
11048TIP3    H133089   1.782   6.660   3.897
11048TIP3    H233090   1.835   6.748   3.786
11049TIP3   OH233091   2.095   3.621   3.309
11049TIP3    H133092   2.104   3.576   3.392
11049TIP3    H233093   2.066   3.709   3.333
11050TIP3   OH233094   4.211   2.755   0.873
11050TIP3    H133095   4.219   2.782   0.781
11050TIP3    H233096   4.299   2.730   0.898
11051TIP3   OH233097   2.024   7.556   2.906
11051TIP3    H133098   1.933   7.544   2.878
11051TIP3    H233099   2.071   7.484   2.864
11052TIP3   OH233100   0.641   2.210   2.803
11052TIP3    H133101   0.639   2.123   2.763
11052TIP3    H233102   0.640   2.271   2.729
11053TIP3   OH233103   8.270   2.565   5.559
11053TIP3    H133104   8.249   2.591   5.469
11053TIP3    H233105   8.309   2.478   5.551
11054TIP3   OH233106   1.661   1.158   0.812
11054TIP3    H133107   1.735   1.142   0.755
11054TIP3    H233108   1.601   1.086   0.795
11055TIP3   OH233109   3.531   1.286   1.032
11055TIP3    H133110   3.612   1.336   1.035
11055TIP3    H233111   3.480   1.319   1.106
11056TIP3   OH233112   7.574   3.261   3.342
11056TIP3    H133113   7.595   3.177   3.302
11056TIP3    H233114   7.640   3.274   3.409
11057TIP3   OH233115   7.067   0.836   1.722
11057TIP3    H133116   7.008   0.763   1.706
11057TIP3    H233117   7.153   0.796   1.734
11058TIP3   OH233118   0.862   2.853   2.464
11058TIP3    H133119   0.780   2.899   2.451
11058TIP3    H233120   0.930   2.913   2.432
11059TIP3   OH233121   3.009   5.969   4.725
11059TIP3    H133122   3.012   5.883   4.768
11059TIP3    H233123   2.916   5.987   4.714
11060TIP3   OH233124   3.422   0.614   4.711
11060TIP3    H133125   3.408   0.708   4.702
11060TIP3    H233126   3.349   0.584   4.766
11061TIP3   OH233127   7.328   0.834   6.322
11061TIP3    H133128   7.385   0.825   6.398
11061TIP3    H233129   7.330   0.928   6.302
11062TIP3   OH233130   4.439   2.395   2.511
11062TIP3    H133131   4.428   2.312   2.463
11062TIP3    H233132   4.503   2.444   2.459
11063TIP3   OH233133   2.159   0.576   2.402
11063TIP3    H133134   2.191   0.665   2.392
11063TIP3    H233135   2.069   0.579   2.372
11064TIP3   OH233136   3.777   2.534   1.569
11064TIP3    H133137   3.742   2.588   1.498
11064TIP3    H233138   3.732   2.450   1.560
11065TIP3   OH233139   6.797   5.810   1.512
11065TIP3    H133140   6.774   5.813   1.419
11065TIP3    H233141   6.715   5.826   1.558
11066TIP3   OH233142   1.458   6.141   1.884
11066TIP3    H133143   1.390   6.173   1.825
11066TIP3    H233144   1.515   6.216   1.899
11067TIP3   OH233145   7.558   6.029   3.736
11067TIP3    H133146   7.486   6.087   3.758
11067TIP3    H233147   7.609   6.077   3.671
11068TIP3   OH233148   0.333   5.260   0.464
11068TIP3    H133149   0.376   5.174   0.461
11068TIP3    H233150   0.249   5.247   0.420
11069TIP3   OH233151   4.030   5.795   2.404
11069TIP3    H133152   3.987   5.711   2.418
11069TIP3    H233153   4.120   5.772   2.382
11070TIP3   OH233154   7.045   7.357   3.902
11070TIP3    H133155   7.039   7.414   3.826
11070TIP3    H233156   7.073   7.415   3.973
11071TIP3   OH233157   1.406   3.910   2.150
11071TIP3    H133158   1.468   3.982   2.162
11071TIP3    H233159   1.328   3.952   2.112
11072TIP3   OH233160   8.284   2.553   3.493
11072TIP3    H133161   8.280   2.592   3.406
11072TIP3    H233162   8.283   2.458   3.476
11073TIP3   OH233163   3.202   3.889   2.784
11073TIP3    H133164   3.244   3.810   2.750
11073TIP3    H233165   3.273   3.938   2.825
11074TIP3   OH233166   6.363   3.665   4.983
11074TIP3    H133167   6.306   3.699   4.914
11074TIP3    H233168   6.378   3.740   5.041
11075TIP3   OH233169   4.901   4.294   6.510
11075TIP3    H133170   4.889   4.241   6.589
11075TIP3    H233171   4.992   4.279   6.485
11076TIP3   OH233172   4.362   0.377   5.432
11076TIP3    H133173   4.275   0.406   5.458
11076TIP3    H233174   4.383   0.428   5.354
11077TIP3   OH233175   0.777   0.402   2.455
11077TIP3    H133176   0.767   0.458   2.378
11077TIP3    H233177   0.692   0.361   2.466
11078TIP3   OH233178   6.238   2.704   4.924
11078TIP3    H133179   6.168   2.713   4.859
11078TIP3    H233180   6.242   2.789   4.967
11079TIP3   OH233181   2.477   3.488   1.990
11079TIP3    H133182   2.500   3.481   1.897
11079TIP3    H233183   2.389   3.524   1.990
11080TIP3   OH233184   2.032   7.111   2.925
11080TIP3    H133185   2.059   7.099   3.016
11080TIP3    H233186   1.963   7.046   2.911
11081TIP3   OH233187   8.246   0.804   5.128
11081TIP3    H133188   8.211   0.727   5.082
11081TIP3    H233189   8.168   0.849   5.160
11082TIP3   OH233190   0.445   6.663   4.903
11082TIP3    H133191   0.510   6.604   4.866
11082TIP3    H233192   0.371   6.659   4.842
11083TIP3   OH233193   5.117   1.727   3.896
11083TIP3    H133194   5.169   1.675   3.958
11083TIP3    H233195   5.153   1.815   3.903
11084TIP3   OH233196   5.300   1.052   5.094
11084TIP3    H133197   5.298   1.144   5.120
11084TIP3    H233198   5.297   1.004   5.177
11085TIP3   OH233199   1.695   1.678   4.674
11085TIP3    H133200   1.693   1.582   4.670
11085TIP3    H233201   1.629   1.705   4.610
11086TIP3   OH233202   5.726   2.178   2.246
11086TIP3    H133203   5.672   2.215   2.315
11086TIP3    H233204   5.789   2.121   2.292
11087TIP3   OH233205   5.499   6.724   3.953
11087TIP3    H133206   5.495   6.629   3.948
11087TIP3    H233207   5.463   6.745   4.039
11088TIP3   OH233208   1.311   6.031   2.951
11088TIP3    H133209   1.258   6.079   2.888
11088TIP3    H233210   1.321   6.090   3.025
11089TIP3   OH233211   5.309   3.844   1.557
11089TIP3    H133212   5.337   3.755   1.580
11089TIP3    H233213   5.250   3.869   1.628
11090TIP3   OH233214   6.656   6.585   1.305
11090TIP3    H133215   6.739   6.606   1.262
11090TIP3    H233216   6.660   6.491   1.323
11091TIP3   OH233217   0.770   2.872   1.918
11091TIP3    H133218   0.811   2.933   1.978
11091TIP3    H233219   0.735   2.802   1.974
11092TIP3   OH233220   1.233   5.524   1.329
11092TIP3    H133221   1.157   5.539   1.273
11092TIP3    H233222   1.236   5.429   1.341
11093TIP3   OH233223   6.363   0.329   3.596
11093TIP3    H133224   6.397   0.248   3.633
11093TIP3    H233225   6.424   0.352   3.526
11094TIP3   OH233226   7.158   4.850   5.992
11094TIP3    H133227   7.165   4.793   6.068
11094TIP3    H233228   7.125   4.794   5.922
11095TIP3   OH233229   4.104   3.949   6.159
11095TIP3    H133230   4.053   3.976   6.235
11095TIP3    H233231   4.056   3.874   6.124
11096TIP3   OH233232   2.052   2.748   4.669
11096TIP3    H133233   2.042   2.802   4.747
11096TIP3    H233234   2.143   2.717   4.672
11097TIP3   OH233235   5.951   1.329   4.548
11097TIP3    H133236   5.925   1.272   4.620
11097TIP3    H233237   5.962   1.270   4.473
11098TIP3   OH233238   0.160   3.037   4.167
11098TIP3    H133239   0.082   3.063   4.217
11098TIP3    H233240   0.209   3.119   4.157
11099TIP3   OH233241   3.645   0.091   2.710
11099TIP3    H133242   3.602   0.007   2.693
11099TIP3    H233243   3.584   0.138   2.767
11100TIP3   OH233244   6.999   4.648   1.035
11100TIP3    H133245   6.987   4.623   0.943
11100TIP3    H233246   6.919   4.620   1.078
11101TIP3   OH233247   6.719   1.411   1.422
11101TIP3    H133248   6.630   1.384   1.397
11101TIP3    H233249   6.748   1.466   1.349
11102TIP3   OH233250   2.129   4.847   4.993
11102TIP3    H133251   2.077   4.892   5.059
11102TIP3    H233252   2.210   4.897   4.987
11103TIP3   OH233253   8.140   3.631   0.483
11103TIP3    H133254   8.138   3.720   0.517
11103TIP3    H233255   8.081   3.582   0.540
11104TIP3   OH233256   0.126   6.828   2.507
11104TIP3    H133257   0.071   6.904   2.486
11104TIP3    H233258   0.154   6.795   2.421
11105TIP3   OH233259   7.051   2.047   1.804
11105TIP3    H133260   7.006   1.963   1.794
11105TIP3    H233261   7.047   2.087   1.718
11106TIP3   OH233262   2.793   4.816   5.247
11106TIP3    H133263   2.798   4.811   5.152
11106TIP3    H233264   2.875   4.776   5.278
11107TIP3   OH233265   1.712   5.721   1.309
11107TIP3    H133266   1.786   5.771   1.274
11107TIP3    H233267   1.637   5.746   1.255
11108TIP3   OH233268   2.166   3.373   6.506
11108TIP3    H133269   2.261   3.377   6.519
11108TIP3    H233270   2.129   3.412   6.585
11109TIP3   OH233271   5.303   7.465   5.896
11109TIP3    H133272   5.388   7.457   5.852
11109TIP3    H233273   5.322   7.513   5.976
11110TIP3   OH233274   6.452   3.131   1.050
11110TIP3    H133275   6.374   3.088   1.013
11110TIP3    H233276   6.505   3.153   0.973
11111TIP3   OH233277   5.140   6.941   2.679
11111TIP3    H133278   5.129   6.848   2.698
11111TIP3    H233279   5.059   6.981   2.710
11112TIP3   OH233280   2.658   4.739   2.514
11112TIP3    H133281   2.684   4.673   2.450
11112TIP3    H233282   2.731   4.743   2.575
11113TIP3   OH233283   2.183   3.049   0.427
11113TIP3    H133284   2.112   3.038   0.489
11113TIP3    H233285   2.262   3.055   0.481
11114TIP3   OH233286   5.410   7.361   6.286
11114TIP3    H133287   5.335   7.385   6.340
11114TIP3    H233288   5.380   7.288   6.233
11115TIP3   OH233289   0.336   2.818   0.001
11115TIP3    H133290   0.418   2.822  -0.048
11115TIP3    H233291   0.353   2.868   0.081
11116TIP3   OH233292   5.984   0.767   5.949
11116TIP3    H133293   6.029   0.761   5.865
11116TIP3    H233294   5.951   0.679   5.965
11117TIP3   OH233295   8.046   0.976   5.256
11117TIP3    H133296   8.034   1.067   5.286
11117TIP3    H233297   7.979   0.927   5.303
11118TIP3   OH233298   6.621   1.037   1.310
11118TIP3    H133299   6.686   1.019   1.242
11118TIP3    H233300   6.539   1.049   1.262
11119TIP3   OH233301   4.963   4.846   3.593
11119TIP3    H133302   4.945   4.876   3.504
11119TIP3    H233303   5.058   4.852   3.601
11120TIP3   OH233304   3.853   1.248   0.550
11120TIP3    H133305   3.902   1.167   0.562
11120TIP3    H233306   3.797   1.255   0.628
11121TIP3   OH233307   2.291   0.837   0.365
11121TIP3    H133308   2.359   0.839   0.432
11121TIP3    H233309   2.215   0.875   0.407
11122TIP3   OH233310   7.583   4.308   0.957
11122TIP3    H133311   7.501   4.312   1.007
11122TIP3    H233312   7.596   4.215   0.939
11123TIP3   OH233313   4.584   2.142   1.839
11123TIP3    H133314   4.535   2.215   1.799
11123TIP3    H233315   4.561   2.066   1.786
11124TIP3   OH233316   3.994   6.656   5.061
11124TIP3    H133317   4.003   6.692   5.149
11124TIP3    H233318   3.906   6.619   5.058
11125TIP3   OH233319   6.287   3.020   3.202
11125TIP3    H133320   6.317   3.059   3.120
11125TIP3    H233321   6.285   3.093   3.264
11126TIP3   OH233322   4.701   7.258   0.686
11126TIP3    H133323   4.722   7.342   0.645
11126TIP3    H233324   4.653   7.210   0.619
11127TIP3   OH233325   6.058   6.451   1.237
11127TIP3    H133326   6.022   6.369   1.271
11127TIP3    H233327   6.107   6.488   1.311
11128TIP3   OH233328   7.661   1.865   6.732
11128TIP3    H133329   7.732   1.920   6.700
11128TIP3    H233330   7.635   1.812   6.656
11129TIP3   OH233331   8.078   1.594   0.076
11129TIP3    H133332   8.159   1.643   0.086
11129TIP3    H233333   8.051   1.611  -0.015
11130TIP3   OH233334   5.058   0.863   2.404
11130TIP3    H133335   5.000   0.827   2.472
11130TIP3    H233336   5.086   0.786   2.354
11131TIP3   OH233337   6.005   4.523   5.408
11131TIP3    H133338   5.961   4.540   5.325
11131TIP3    H233339   6.025   4.609   5.443
11132TIP3   OH233340   2.164   6.024   4.888
11132TIP3    H133341   2.186   5.993   4.800
11132TIP3    H233342   2.114   5.953   4.927
11133TIP3   OH233343   0.957   1.141   3.020
11133TIP3    H133344   0.909   1.161   3.101
11133TIP3    H233345   0.928   1.208   2.958
11134TIP3   OH233346   1.393   2.080   1.232
11134TIP3    H133347   1.425   2.032   1.156
11134TIP3    H233348   1.334   2.146   1.196
11135TIP3   OH233349   2.860   6.183   5.723
11135TIP3    H133350   2.871   6.229   5.639
11135TIP3    H233351   2.787   6.229   5.765
11136TIP3   OH233352   2.417   5.101   1.465
11136TIP3    H133353   2.432   5.177   1.408
11136TIP3    H233354   2.422   5.026   1.406
11137TIP3   OH233355   2.365   5.018   3.119
11137TIP3    H133356   2.440   5.068   3.085
11137TIP3    H233357   2.333   4.970   3.042
11138TIP3   OH233358   1.009   4.582   2.240
11138TIP3    H133359   0.966   4.667   2.238
11138TIP3    H233360   1.103   4.603   2.231
11139TIP3   OH233361   3.751   7.424   6.237
11139TIP3    H133362   3.765   7.426   6.142
11139TIP3    H233363   3.718   7.336   6.254
11140TIP3   OH233364   2.250   1.085   1.687
11140TIP3    H133365   2.174   1.029   1.704
11140TIP3    H233366   2.324   1.038   1.726
11141TIP3   OH233367   0.428   5.071   2.395
11141TIP3    H133368   0.433   5.081   2.300
11141TIP3    H233369   0.389   5.153   2.425
11142TIP3   OH233370   2.945   5.640   2.053
11142TIP3    H133371   2.889   5.711   2.084
11142TIP3    H233372   2.936   5.642   1.957
11143TIP3   OH233373   2.128   2.354   1.966
11143TIP3    H133374   2.099   2.374   2.055
11143TIP3    H233375   2.214   2.314   1.977
11144TIP3   OH233376   2.308   2.322   3.545
11144TIP3    H133377   2.391   2.285   3.574
11144TIP3    H233378   2.268   2.355   3.626
11145TIP3   OH233379   4.206   2.527   3.020
11145TIP3    H133380   4.146   2.602   3.024
11145TIP3    H233381   4.156   2.454   3.057
11146TIP3   OH233382   2.391   0.432   6.518
11146TIP3    H133383   2.355   0.439   6.430
11146TIP3    H233384   2.486   0.426   6.505
11147TIP3   OH233385   3.963   6.425   3.036
11147TIP3    H133386   4.033   6.394   2.979
11147TIP3    H233387   3.890   6.365   3.020
11148TIP3   OH233388   1.958   2.566   2.565
11148TIP3    H133389   1.896   2.628   2.603
11148TIP3    H233390   2.043   2.593   2.600
11149TIP3   OH233391   0.161   2.682   1.346
11149TIP3    H133392   0.071   2.714   1.348
11149TIP3    H233393   0.181   2.659   1.437
11150TIP3   OH233394   4.440   1.022   2.762
11150TIP3    H133395   4.358   1.064   2.785
11150TIP3    H233396   4.432   1.006   2.667
11151TIP3   OH233397   5.192   5.902   2.444
11151TIP3    H133398   5.203   5.983   2.395
11151TIP3    H233399   5.251   5.840   2.401
11152TIP3   OH233400   8.059   5.583   1.585
11152TIP3    H133401   8.070   5.584   1.490
11152TIP3    H233402   7.986   5.642   1.601
11153TIP3   OH233403   5.725   5.878   6.773
11153TIP3    H133404   5.648   5.848   6.725
11153TIP3    H233405   5.774   5.929   6.709
11154TIP3   OH233406   5.817   3.497   5.305
11154TIP3    H133407   5.726   3.487   5.334
11154TIP3    H233408   5.827   3.590   5.285
11155TIP3   OH233409   4.849   0.269   2.706
11155TIP3    H133410   4.813   0.238   2.789
11155TIP3    H233411   4.820   0.360   2.699
11156TIP3   OH233412   0.180   2.376   2.566
11156TIP3    H133413   0.233   2.376   2.646
11156TIP3    H233414   0.136   2.292   2.567
11157TIP3   OH233415   2.480   4.544   0.189
11157TIP3    H133416   2.518   4.625   0.156
11157TIP3    H233417   2.533   4.521   0.265
11158TIP3   OH233418   2.907   2.025   0.256
11158TIP3    H133419   2.914   2.027   0.160
11158TIP3    H233420   2.964   1.952   0.282
11159TIP3   OH233421   1.651   0.312   2.408
11159TIP3    H133422   1.741   0.305   2.440
11159TIP3    H233423   1.609   0.374   2.467
11160TIP3   OH233424   5.174   0.218   5.800
11160TIP3    H133425   5.183   0.265   5.717
11160TIP3    H233426   5.264   0.196   5.825
11161TIP3   OH233427   0.851   0.976   6.462
11161TIP3    H133428   0.834   1.041   6.531
11161TIP3    H233429   0.854   0.892   6.508
11162TIP3   OH233430   1.614   7.357   3.908
11162TIP3    H133431   1.555   7.428   3.937
11162TIP3    H233432   1.577   7.278   3.948
11163TIP3   OH233433   6.326   0.702   5.044
11163TIP3    H133434   6.263   0.741   5.105
11163TIP3    H233435   6.278   0.695   4.961
11164TIP3   OH233436   7.062   7.240   1.207
11164TIP3    H133437   7.078   7.206   1.295
11164TIP3    H233438   6.975   7.281   1.213
11165TIP3   OH233439   8.268   1.127   6.408
11165TIP3    H133440   8.242   1.219   6.402
11165TIP3    H233441   8.245   1.090   6.322
11166TIP3   OH233442   1.607   3.893   2.836
11166TIP3    H133443   1.593   3.978   2.878
11166TIP3    H233444   1.638   3.836   2.906
11167TIP3   OH233445   2.940   5.769   0.445
11167TIP3    H133446   2.901   5.684   0.423
11167TIP3    H233447   2.873   5.833   0.421
11168TIP3   OH233448   3.503   4.815   0.693
11168TIP3    H133449   3.556   4.891   0.715
11168TIP3    H233450   3.502   4.813   0.597
11169TIP3   OH233451   7.283   3.649   5.916
11169TIP3    H133452   7.342   3.628   5.988
11169TIP3    H233453   7.294   3.577   5.854
11170TIP3   OH233454   5.661   0.025   5.265
11170TIP3    H133455   5.614  -0.059   5.271
11170TIP3    H233456   5.732   0.008   5.203
11171TIP3   OH233457   2.464   7.164   1.454
11171TIP3    H133458   2.442   7.223   1.526
11171TIP3    H233459   2.476   7.222   1.379
11172TIP3   OH233460   6.080   3.038   6.482
11172TIP3    H133461   6.006   3.068   6.534
11172TIP3    H233462   6.124   3.119   6.453
11173TIP3   OH233463   6.429   1.984   6.544
11173TIP3    H133464   6.378   1.996   6.624
11173TIP3    H233465   6.396   2.052   6.484
11174TIP3   OH233466   1.536   6.268   4.733
11174TIP3    H133467   1.507   6.191   4.781
11174TIP3    H233468   1.631   6.256   4.724
11175TIP3   OH233469   2.097   0.226   0.300
11175TIP3    H133470   2.177   0.211   0.350
11175TIP3    H233471   2.046   0.146   0.312
11176TIP3   OH233472   2.380   4.623   1.275
11176TIP3    H133473   2.444   4.565   1.316
11176TIP3    H233474   2.302   4.615   1.330
11177TIP3   OH233475   7.635   1.169   3.587
11177TIP3    H133476   7.713   1.115   3.574
11177TIP3    H233477   7.620   1.211   3.503
11178TIP3   OH233478   1.532   4.010   1.274
11178TIP3    H133479   1.617   4.035   1.312
11178TIP3    H233480   1.551   3.993   1.182
11179TIP3   OH233481   2.736   0.020   2.651
11179TIP3    H133482   2.772   0.083   2.713
11179TIP3    H233483   2.663   0.066   2.610
11180TIP3   OH233484   7.744   3.898   6.559
11180TIP3    H133485   7.770   3.900   6.467
11180TIP3    H233486   7.698   3.980   6.573
11181TIP3   OH233487   4.371   4.348   6.261
11181TIP3    H133488   4.354   4.332   6.354
11181TIP3    H233489   4.338   4.270   6.217
11182TIP3   OH233490   3.657   1.436   3.665
11182TIP3    H133491   3.595   1.362   3.665
11182TIP3    H233492   3.692   1.437   3.754
11183TIP3   OH233493   3.989   2.067   3.217
11183TIP3    H133494   3.956   2.003   3.281
11183TIP3    H233495   3.971   2.152   3.258
11184TIP3   OH233496   7.927   5.271   1.588
11184TIP3    H133497   7.942   5.178   1.570
11184TIP3    H233498   8.009   5.313   1.560
11185TIP3   OH233499   0.137   6.335   2.636
11185TIP3    H133500   0.053   6.344   2.590
11185TIP3    H233501   0.156   6.423   2.668
11186TIP3   OH233502   0.879   6.822   3.818
11186TIP3    H133503   0.803   6.859   3.774
11186TIP3    H233504   0.850   6.737   3.850
11187TIP3   OH233505   1.708   4.370   5.007
11187TIP3    H133506   1.691   4.447   5.061
11187TIP3    H233507   1.801   4.374   4.987
11188TIP3   OH233508   6.503   5.411   5.609
11188TIP3    H133509   6.551   5.349   5.553
11188TIP3    H233510   6.462   5.356   5.676
11189TIP3   OH233511   2.450   4.585   6.711
11189TIP3    H133512   2.520   4.582   6.776
11189TIP3    H233513   2.471   4.662   6.657
11190TIP3   OH233514   3.324   2.851   0.564
11190TIP3    H133515   3.231   2.827   0.563
11190TIP3    H233516   3.367   2.780   0.516
11191TIP3   OH233517   3.789   3.145   1.394
11191TIP3    H133518   3.766   3.103   1.477
11191TIP3    H233519   3.842   3.221   1.419
11192TIP3   OH233520   1.992   0.570   2.832
11192TIP3    H133521   2.043   0.555   2.753
11192TIP3    H233522   2.054   0.550   2.904
11193TIP3   OH233523   7.541   2.925   4.926
11193TIP3    H133524   7.479   2.929   4.853
11193TIP3    H233525   7.554   2.831   4.941
11194TIP3   OH233526   2.785   7.410   3.340
11194TIP3    H133527   2.720   7.462   3.388
11194TIP3    H233528   2.826   7.355   3.407
11195TIP3   OH233529   0.093   1.570   4.605
11195TIP3    H133530   0.117   1.553   4.514
11195TIP3    H233531   0.166   1.535   4.656
11196TIP3   OH233532   5.386   4.708   5.351
11196TIP3    H133533   5.362   4.799   5.371
11196TIP3    H233534   5.469   4.694   5.397
11197TIP3   OH233535   5.458  -0.009   0.008
11197TIP3    H133536   5.421   0.078   0.020
11197TIP3    H233537   5.414  -0.043  -0.070
11198TIP3   OH233538   3.256   4.423   2.464
11198TIP3    H133539   3.349   4.437   2.485
11198TIP3    H233540   3.256   4.349   2.403
11199TIP3   OH233541   8.210   0.931   2.844
11199TIP3    H133542   8.253   0.924   2.929
11199TIP3    H233543   8.209   1.025   2.826
11200TIP3   OH233544   4.895   2.638   1.867
11200TIP3    H133545   4.971   2.639   1.809
11200TIP3    H233546   4.883   2.546   1.890
11201TIP3   OH233547   2.893   6.880   5.103
11201TIP3    H133548   2.972   6.840   5.064
11201TIP3    H233549   2.886   6.838   5.189
11202TIP3   OH233550   4.971   0.481   2.444
11202TIP3    H133551   4.882   0.486   2.478
11202TIP3    H233552   4.995   0.389   2.452
11203TIP3   OH233553   2.118   7.297   0.681
11203TIP3    H133554   2.195   7.307   0.625
11203TIP3    H233555   2.044   7.320   0.626
11204TIP3   OH233556   7.084   1.526   6.291
11204TIP3    H133557   7.175   1.533   6.262
11204TIP3    H233558   7.038   1.593   6.240
11205TIP3   OH233559   3.550   6.255   3.406
11205TIP3    H133560   3.474   6.219   3.360
11205TIP3    H233561   3.526   6.253   3.498
11206TIP3   OH233562   5.274   5.061   2.499
11206TIP3    H133563   5.234   4.980   2.530
11206TIP3    H233564   5.215   5.093   2.431
11207TIP3   OH233565   5.500   0.021   1.794
11207TIP3    H133566   5.567   0.083   1.823
11207TIP3    H233567   5.421   0.050   1.839
11208TIP3   OH233568   7.665   4.129   1.310
11208TIP3    H133569   7.592   4.153   1.367
11208TIP3    H233570   7.705   4.053   1.352
11209TIP3   OH233571   0.139   4.465   0.311
11209TIP3    H133572   0.063   4.408   0.318
11209TIP3    H233573   0.214   4.405   0.311
11210TIP3   OH233574   5.398   1.837   2.471
11210TIP3    H133575   5.466   1.782   2.509
11210TIP3    H233576   5.444   1.894   2.409
11211TIP3   OH233577   3.840   6.183   5.407
11211TIP3    H133578   3.850   6.103   5.458
11211TIP3    H233579   3.746   6.192   5.395
11212TIP3   OH233580   6.916   0.606   2.045
11212TIP3    H133581   6.994   0.655   2.070
11212TIP3    H233582   6.845   0.649   2.093
11213TIP3   OH233583   4.723   6.088   2.308
11213TIP3    H133584   4.708   5.995   2.319
11213TIP3    H233585   4.786   6.111   2.376
11214TIP3   OH233586   1.565   2.269   1.075
11214TIP3    H133587   1.627   2.198   1.092
11214TIP3    H233588   1.521   2.284   1.159
11215TIP3   OH233589   1.248   6.041   1.416
11215TIP3    H133590   1.192   5.967   1.435
11215TIP3    H233591   1.188   6.111   1.389
11216TIP3   OH233592   3.560   1.156   3.703
11216TIP3    H133593   3.535   1.087   3.763
11216TIP3    H233594   3.477   1.199   3.680
11217TIP3   OH233595   1.079   3.575   1.595
11217TIP3    H133596   1.017   3.605   1.661
11217TIP3    H233597   1.048   3.612   1.513
11218TIP3   OH233598   4.797   3.191   3.876
11218TIP3    H133599   4.739   3.256   3.915
11218TIP3    H233600   4.797   3.213   3.782
11219TIP3   OH233601   5.653   6.500   3.844
11219TIP3    H133602   5.571   6.469   3.806
11219TIP3    H233603   5.697   6.546   3.772
11220TIP3   OH233604   5.911   7.794   6.481
11220TIP3    H133605   5.949   7.842   6.555
11220TIP3    H233606   5.941   7.704   6.493
11221TIP3   OH233607   2.811   6.605   5.586
11221TIP3    H133608   2.757   6.675   5.623
11221TIP3    H233609   2.776   6.525   5.625
11222TIP3   OH233610   6.335   1.836   3.487
11222TIP3    H133611   6.404   1.816   3.550
11222TIP3    H233612   6.344   1.769   3.419
11223TIP3   OH233613   7.980   4.935   2.587
11223TIP3    H133614   7.979   5.002   2.656
11223TIP3    H233615   8.022   4.978   2.512
11224TIP3   OH233616   3.055   3.910   4.181
11224TIP3    H133617   2.970   3.882   4.213
11224TIP3    H233618   3.096   3.830   4.149
11225TIP3   OH233619   8.073   6.982   3.227
11225TIP3    H133620   7.990   6.984   3.275
11225TIP3    H233621   8.133   7.032   3.282
11226TIP3   OH233622   5.193   2.925   1.999
11226TIP3    H133623   5.210   2.833   1.977
11226TIP3    H233624   5.172   2.966   1.914
11227TIP3   OH233625   1.111   3.671   4.480
11227TIP3    H133626   1.109   3.732   4.406
11227TIP3    H233627   1.112   3.584   4.440
11228TIP3   OH233628   1.596   6.463   5.940
11228TIP3    H133629   1.628   6.552   5.928
11228TIP3    H233630   1.667   6.408   5.907
11229TIP3   OH233631   7.493   6.271  -0.031
11229TIP3    H133632   7.413   6.245   0.015
11229TIP3    H233633   7.562   6.264   0.035
11230TIP3   OH233634   2.398   4.746   5.868
11230TIP3    H133635   2.344   4.749   5.789
11230TIP3    H233636   2.470   4.806   5.850
11231TIP3   OH233637   2.587   7.376   2.844
11231TIP3    H133638   2.502   7.392   2.802
11231TIP3    H233639   2.564   7.335   2.927
11232TIP3   OH233640   4.965   4.484   0.264
11232TIP3    H133641   4.906   4.410   0.250
11232TIP3    H233642   4.992   4.476   0.355
11233TIP3   OH233643   7.727   6.850   1.074
11233TIP3    H133644   7.787   6.828   1.145
11233TIP3    H233645   7.640   6.846   1.114
11234TIP3   OH233646   1.183   1.119   0.178
11234TIP3    H133647   1.252   1.182   0.159
11234TIP3    H233648   1.118   1.133   0.109
11235TIP3   OH233649   2.410   0.068   4.330
11235TIP3    H133650   2.460   0.145   4.359
11235TIP3    H233651   2.408   0.010   4.406
11236TIP3   OH233652   2.829   3.767   2.214
11236TIP3    H133653   2.844   3.749   2.121
11236TIP3    H233654   2.874   3.850   2.229
11237TIP3   OH233655   0.274   6.426   6.571
11237TIP3    H133656   0.303   6.517   6.580
11237TIP3    H233657   0.226   6.424   6.488
11238TIP3   OH233658   4.428   3.492  -0.042
11238TIP3    H133659   4.512   3.488   0.005
11238TIP3    H233660   4.371   3.433   0.007
11239TIP3   OH233661   5.962   0.095   4.363
11239TIP3    H133662   6.033   0.132   4.311
11239TIP3    H233663   5.975   0.130   4.451
11240TIP3   OH233664   2.500   5.295   5.272
11240TIP3    H133665   2.591   5.298   5.243
11240TIP3    H233666   2.482   5.201   5.281
11241TIP3   OH233667   4.339   5.761   6.470
11241TIP3    H133668   4.406   5.830   6.462
11241TIP3    H233669   4.352   5.725   6.557
11242TIP3   OH233670   0.886   2.380   3.299
11242TIP3    H133671   0.976   2.364   3.326
11242TIP3    H233672   0.832   2.333   3.363
11243TIP3   OH233673   3.302   5.153   3.824
11243TIP3    H133674   3.233   5.117   3.880
11243TIP3    H233675   3.364   5.081   3.812
11244TIP3   OH233676   3.767   4.124   0.773
11244TIP3    H133677   3.848   4.085   0.742
11244TIP3    H233678   3.705   4.112   0.702
11245TIP3   OH233679   2.619   1.656   2.141
11245TIP3    H133680   2.639   1.719   2.210
11245TIP3    H233681   2.642   1.701   2.060
11246TIP3   OH233682   2.082   0.918   6.578
11246TIP3    H133683   2.128   0.941   6.659
11246TIP3    H233684   2.023   0.992   6.563
11247TIP3   OH233685   7.997   0.899   2.624
11247TIP3    H133686   8.060   0.929   2.689
11247TIP3    H233687   7.983   0.807   2.643
11248TIP3   OH233688   7.305   1.780   3.302
11248TIP3    H133689   7.386   1.825   3.281
11248TIP3    H233690   7.310   1.765   3.397
11249TIP3   OH233691   6.313   0.471   1.152
11249TIP3    H133692   6.402   0.503   1.136
11249TIP3    H233693   6.286   0.434   1.068
11250TIP3   OH233694   5.390   6.818   0.828
11250TIP3    H133695   5.406   6.863   0.745
11250TIP3    H233696   5.297   6.833   0.846
11251TIP3   OH233697   7.756   3.878   4.945
11251TIP3    H133698   7.744   3.959   4.994
11251TIP3    H233699   7.691   3.818   4.980
11252TIP3   OH233700   3.255   5.372   0.485
11252TIP3    H133701   3.243   5.279   0.504
11252TIP3    H233702   3.193   5.416   0.544
11253TIP3   OH233703   6.456   5.807   6.732
11253TIP3    H133704   6.475   5.854   6.813
11253TIP3    H233705   6.531   5.825   6.675
11254TIP3   OH233706   1.268   2.014   0.383
11254TIP3    H133707   1.280   2.042   0.293
11254TIP3    H233708   1.291   1.921   0.384
11255TIP3   OH233709   2.116   3.895   0.241
11255TIP3    H133710   2.138   3.825   0.180
11255TIP3    H233711   2.192   3.954   0.239
11256TIP3   OH233712   3.315   0.896   4.926
11256TIP3    H133713   3.397   0.912   4.972
11256TIP3    H233714   3.296   0.977   4.879
11257TIP3   OH233715   0.158   1.358   1.981
11257TIP3    H133716   0.078   1.410   1.986
11257TIP3    H233717   0.229   1.422   1.979
11258TIP3   OH233718   6.188   5.216   3.611
11258TIP3    H133719   6.119   5.232   3.547
11258TIP3    H233720   6.256   5.171   3.562
11259TIP3   OH233721   4.400   6.493   3.851
11259TIP3    H133722   4.404   6.414   3.905
11259TIP3    H233723   4.458   6.476   3.777
11260TIP3   OH233724   2.647   5.097   1.977
11260TIP3    H133725   2.565   5.088   1.928
11260TIP3    H233726   2.691   5.172   1.937
11261TIP3   OH233727   6.583   7.062   5.813
11261TIP3    H133728   6.653   7.083   5.751
11261TIP3    H233729   6.534   6.990   5.771
11262TIP3   OH233730   7.130   5.535   6.098
11262TIP3    H133731   7.189   5.459   6.102
11262TIP3    H233732   7.185   5.605   6.063
11263TIP3   OH233733   4.315   1.553   0.858
11263TIP3    H133734   4.247   1.524   0.920
11263TIP3    H233735   4.294   1.645   0.841
11264TIP3   OH233736   3.680   1.464   2.971
11264TIP3    H133737   3.728   1.457   3.053
11264TIP3    H233738   3.597   1.419   2.988
11265TIP3   OH233739   1.647   0.450   4.491
11265TIP3    H133740   1.605   0.479   4.410
11265TIP3    H233741   1.594   0.376   4.520
11266TIP3   OH233742   6.019   4.020   5.189
11266TIP3    H133743   6.009   4.024   5.285
11266TIP3    H233744   5.930   4.009   5.156
11267TIP3   OH233745   6.401   3.719   2.256
11267TIP3    H133746   6.453   3.792   2.289
11267TIP3    H233747   6.326   3.714   2.316
11268TIP3   OH233748   2.316   0.835   3.041
11268TIP3    H133749   2.348   0.835   3.131
11268TIP3    H233750   2.393   0.858   2.988
11269TIP3   OH233751   3.621   1.213   2.643
11269TIP3    H133752   3.649   1.303   2.661
11269TIP3    H233753   3.527   1.213   2.662
11270TIP3   OH233754   3.386   2.473   3.420
11270TIP3    H133755   3.338   2.512   3.348
11270TIP3    H233756   3.423   2.548   3.468
11271TIP3   OH233757   4.982   4.541   1.881
11271TIP3    H133758   4.957   4.527   1.789
11271TIP3    H233759   5.078   4.537   1.880
11272TIP3   OH233760   1.905   6.349   1.119
11272TIP3    H133761   1.978   6.287   1.123
11272TIP3    H233762   1.893   6.378   1.209
11273TIP3   OH233763   3.245   1.621   1.882
11273TIP3    H133764   3.272   1.637   1.791
11273TIP3    H233765   3.215   1.530   1.881
11274TIP3   OH233766   1.856   4.990   3.789
11274TIP3    H133767   1.779   4.953   3.832
11274TIP3    H233768   1.871   5.073   3.834
11275TIP3   OH233769   3.995   0.325   1.865
11275TIP3    H133770   3.984   0.386   1.793
11275TIP3    H233771   3.963   0.241   1.832
11276TIP3   OH233772   6.504   2.850   2.489
11276TIP3    H133773   6.414   2.839   2.458
11276TIP3    H233774   6.558   2.843   2.411
11277TIP3   OH233775   6.809   6.953   4.002
11277TIP3    H133776   6.776   7.033   3.960
11277TIP3    H233777   6.890   6.933   3.956
11278TIP3   OH233778   2.871   2.550   6.360
11278TIP3    H133779   2.804   2.518   6.421
11278TIP3    H233780   2.953   2.542   6.409
11279TIP3   OH233781   0.594   3.930   3.262
11279TIP3    H133782   0.550   3.990   3.202
11279TIP3    H233783   0.633   3.864   3.204
11280TIP3   OH233784   0.752   5.860   4.575
11280TIP3    H133785   0.846   5.880   4.574
11280TIP3    H233786   0.735   5.832   4.665
11281TIP3   OH233787   6.987   3.964   6.653
11281TIP3    H133788   6.892   3.973   6.665
11281TIP3    H233789   6.997   3.891   6.592
11282TIP3   OH233790   6.186   5.431   4.144
11282TIP3    H133791   6.093   5.447   4.127
11282TIP3    H233792   6.191   5.415   4.238
11283TIP3   OH233793   4.198   0.258   2.503
11283TIP3    H133794   4.224   0.296   2.587
11283TIP3    H233795   4.249   0.306   2.438
11284TIP3   OH233796   2.529   0.495   5.997
11284TIP3    H133797   2.619   0.480   6.025
11284TIP3    H233798   2.532   0.486   5.901
11285TIP3   OH233799   4.443   2.800   5.908
11285TIP3    H133800   4.396   2.869   5.955
11285TIP3    H233801   4.373   2.743   5.874
11286TIP3   OH233802   3.337   6.989   5.013
11286TIP3    H133803   3.409   7.051   5.021
11286TIP3    H233804   3.376   6.904   5.034
11287TIP3   OH233805   6.507   5.663   1.202
11287TIP3    H133806   6.420   5.698   1.223
11287TIP3    H233807   6.489   5.577   1.163
11288TIP3   OH233808   7.995   2.692   2.157
11288TIP3    H133809   8.017   2.697   2.250
11288TIP3    H233810   8.056   2.628   2.121
11289TIP3   OH233811   7.897   1.375   3.580
11289TIP3    H133812   7.892   1.373   3.485
11289TIP3    H233813   7.978   1.422   3.599
11290TIP3   OH233814   1.299   2.443   6.586
11290TIP3    H133815   1.379   2.390   6.586
11290TIP3    H233816   1.271   2.445   6.495
11291TIP3   OH233817   1.445   7.178   3.668
11291TIP3    H133818   1.474   7.268   3.659
11291TIP3    H233819   1.466   7.154   3.758
11292TIP3   OH233820   3.798   1.986   2.602
11292TIP3    H133821   3.752   2.004   2.520
11292TIP3    H233822   3.890   2.001   2.581
11293TIP3   OH233823   0.030   4.353   0.641
11293TIP3    H133824  -0.032   4.399   0.584
11293TIP3    H233825  -0.025   4.302   0.701
11294TIP3   OH233826   4.626   2.156   5.349
11294TIP3    H133827   4.654   2.174   5.259
11294TIP3    H233828   4.641   2.063   5.361
11295TIP3   OH233829   7.953   7.528   0.977
11295TIP3    H133830   7.946   7.623   0.969
11295TIP3    H233831   7.869   7.495   0.945
11296TIP3   OH233832   6.932   5.172   4.124
11296TIP3    H133833   6.987   5.248   4.142
11296TIP3    H233834   6.985   5.097   4.150
11297TIP3   OH233835   3.369   2.004   0.498
11297TIP3    H133836   3.392   2.087   0.455
11297TIP3    H233837   3.325   2.031   0.579
11298TIP3   OH233838   1.787   6.485   1.694
11298TIP3    H133839   1.872   6.476   1.738
11298TIP3    H233840   1.747   6.398   1.701
11299TIP3   OH233841   1.499   4.368   3.680
11299TIP3    H133842   1.480   4.283   3.718
11299TIP3    H233843   1.465   4.363   3.591
11300TIP3   OH233844   6.387   7.678   2.652
11300TIP3    H133845   6.437   7.603   2.619
11300TIP3    H233846   6.434   7.755   2.620
11301TIP3   OH233847   1.223   6.592   3.787
11301TIP3    H133848   1.169   6.612   3.711
11301TIP3    H233849   1.311   6.623   3.764
11302TIP3   OH233850   6.608   5.033   2.143
11302TIP3    H133851   6.599   5.080   2.059
11302TIP3    H233852   6.598   4.941   2.120
11303TIP3   OH233853   6.624   5.597   2.905
11303TIP3    H133854   6.626   5.538   2.980
11303TIP3    H233855   6.677   5.553   2.838
11304TIP3   OH233856   0.918   2.207   4.160
11304TIP3    H133857   0.828   2.218   4.190
11304TIP3    H233858   0.937   2.115   4.177
11305TIP3   OH233859   7.231   2.020   5.795
11305TIP3    H133860   7.284   1.944   5.774
11305TIP3    H233861   7.208   2.058   5.710
11306TIP3   OH233862   6.150   1.481   1.053
11306TIP3    H133863   6.097   1.486   0.973
11306TIP3    H233864   6.165   1.572   1.077
11307TIP3   OH233865   8.028   7.253   0.448
11307TIP3    H133866   8.062   7.258   0.538
11307TIP3    H233867   7.966   7.181   0.450
11308TIP3   OH233868   3.449   2.010   4.505
11308TIP3    H133869   3.503   1.959   4.564
11308TIP3    H233870   3.462   1.969   4.419
11309TIP3   OH233871   7.576   4.936   1.610
11309TIP3    H133872   7.650   4.893   1.653
11309TIP3    H233873   7.609   4.961   1.524
11310TIP3   OH233874   2.078   4.998   6.221
11310TIP3    H133875   1.996   4.990   6.171
11310TIP3    H233876   2.138   4.937   6.178
11311TIP3   OH233877   1.053   0.062   0.345
11311TIP3    H133878   0.992   0.096   0.411
11311TIP3    H233879   1.137   0.102   0.368
11312TIP3   OH233880   3.767   2.884   1.284
11312TIP3    H133881   3.827   2.813   1.262
11312TIP3    H233882   3.682   2.841   1.297
11313TIP3   OH233883   2.141   4.876   1.428
11313TIP3    H133884   2.206   4.914   1.369
11313TIP3    H233885   2.157   4.919   1.512
11314TIP3   OH233886   7.401   6.161   1.750
11314TIP3    H133887   7.316   6.119   1.761
11314TIP3    H233888   7.463   6.101   1.793
11315TIP3   OH233889   0.250   7.748   6.244
11315TIP3    H133890   0.282   7.683   6.181
11315TIP3    H233891   0.169   7.782   6.205
11316TIP3   OH233892   5.173   0.486   5.127
11316TIP3    H133893   5.185   0.523   5.040
11316TIP3    H233894   5.258   0.447   5.148
11317TIP3   OH233895   3.619   6.729   6.527
11317TIP3    H133896   3.676   6.761   6.456
11317TIP3    H233897   3.680   6.695   6.592
11318TIP3   OH233898   1.608   7.294   3.381
11318TIP3    H133899   1.571   7.370   3.426
11318TIP3    H233900   1.695   7.283   3.421
11319TIP3   OH233901   6.807   0.188   0.156
11319TIP3    H133902   6.795   0.282   0.140
11319TIP3    H233903   6.812   0.149   0.069
11320TIP3   OH233904   3.576   0.660   6.155
11320TIP3    H133905   3.507   0.607   6.197
11320TIP3    H233906   3.529   0.720   6.098
11321TIP3   OH233907   0.683   7.551   1.854
11321TIP3    H133908   0.736   7.607   1.910
11321TIP3    H233909   0.638   7.492   1.914
11322TIP3   OH233910   4.677   3.305   1.861
11322TIP3    H133911   4.688   3.323   1.767
11322TIP3    H233912   4.708   3.215   1.872
11323TIP3   OH233913   5.260   0.240   0.629
11323TIP3    H133914   5.347   0.280   0.636
11323TIP3    H233915   5.207   0.307   0.586
11324TIP3   OH233916   2.458   2.343   0.416
11324TIP3    H133917   2.395   2.390   0.471
11324TIP3    H233918   2.417   2.339   0.330
11325TIP3   OH233919   3.560   4.521   3.038
11325TIP3    H133920   3.492   4.459   3.011
11325TIP3    H233921   3.642   4.478   3.016
11326TIP3   OH233922   7.260   2.312   1.551
11326TIP3    H133923   7.208   2.388   1.575
11326TIP3    H233924   7.304   2.287   1.633
11327TIP3   OH233925   5.928   1.551   4.370
11327TIP3    H133926   5.894   1.619   4.427
11327TIP3    H233927   5.946   1.477   4.428
11328TIP3   OH233928   2.543   3.535   2.289
11328TIP3    H133929   2.538   3.626   2.317
11328TIP3    H233930   2.522   3.537   2.196
11329TIP3   OH233931   7.031   4.680   5.802
11329TIP3    H133932   7.030   4.585   5.810
11329TIP3    H233933   7.035   4.697   5.708
11330TIP3   OH233934   5.175   0.835   1.426
11330TIP3    H133935   5.198   0.900   1.493
11330TIP3    H233936   5.197   0.878   1.343
11331TIP3   OH233937   7.216   7.558   4.904
11331TIP3    H133938   7.276   7.590   4.837
11331TIP3    H233939   7.139   7.613   4.896
11332TIP3   OH233940   6.020   2.342   5.256
11332TIP3    H133941   6.011   2.311   5.166
11332TIP3    H233942   6.037   2.263   5.307
11333TIP3   OH233943   3.551   0.564   0.840
11333TIP3    H133944   3.459   0.591   0.845
11333TIP3    H233945   3.573   0.573   0.747
11334TIP3   OH233946   6.967   5.848   2.351
11334TIP3    H133947   6.989   5.875   2.262
11334TIP3    H233948   6.979   5.927   2.404
11335TIP3   OH233949   1.029   3.528   2.464
11335TIP3    H133950   1.006   3.569   2.380
11335TIP3    H233951   1.122   3.549   2.476
11336TIP3   OH233952   7.572   4.459   0.047
11336TIP3    H133953   7.546   4.400   0.118
11336TIP3    H233954   7.490   4.478   0.001
11337TIP3   OH233955   5.715   0.495   2.585
11337TIP3    H133956   5.738   0.550   2.510
11337TIP3    H233957   5.670   0.420   2.547
11338TIP3   OH233958   1.857   1.338   5.155
11338TIP3    H133959   1.868   1.255   5.109
11338TIP3    H233960   1.863   1.405   5.087
11339TIP3   OH233961   1.065   2.154   4.749
11339TIP3    H133962   1.091   2.183   4.662
11339TIP3    H233963   1.144   2.163   4.803
11340TIP3   OH233964   6.209   2.732   4.048
11340TIP3    H133965   6.194   2.729   4.142
11340TIP3    H233966   6.264   2.810   4.036
11341TIP3   OH233967   2.354   6.027   1.887
11341TIP3    H133968   2.417   5.958   1.908
11341TIP3    H233969   2.386   6.065   1.806
11342TIP3   OH233970   3.029   4.638   1.538
11342TIP3    H133971   2.953   4.595   1.579
11342TIP3    H233972   3.053   4.707   1.599
11343TIP3   OH233973   5.071   3.928   4.959
11343TIP3    H133974   5.076   3.843   4.916
11343TIP3    H233975   5.129   3.984   4.908
11344TIP3   OH233976   4.045   6.209   6.208
11344TIP3    H133977   4.127   6.257   6.196
11344TIP3    H233978   4.006   6.248   6.287
11345TIP3   OH233979   0.189   2.201   4.843
11345TIP3    H133980   0.165   2.144   4.916
11345TIP3    H233981   0.122   2.184   4.777
11346TIP3   OH233982   5.336   5.133   6.430
11346TIP3    H133983   5.267   5.185   6.471
11346TIP3    H233984   5.303   5.043   6.434
11347TIP3   OH233985   1.222   4.968   1.293
11347TIP3    H133986   1.315   4.960   1.313
11347TIP3    H233987   1.178   4.909   1.354
11348TIP3   OH233988   7.796   3.023   2.294
11348TIP3    H133989   7.721   3.080   2.314
11348TIP3    H233990   7.871   3.082   2.295
11349TIP3   OH233991   1.052   1.057   1.856
11349TIP3    H133992   0.974   1.061   1.911
11349TIP3    H233993   1.024   1.013   1.776
11350TIP3   OH233994   5.023   0.479   6.640
11350TIP3    H133995   4.968   0.522   6.705
11350TIP3    H233996   4.985   0.392   6.630
11351TIP3   OH233997   1.406   2.602   3.224
11351TIP3    H133998   1.419   2.664   3.296
11351TIP3    H233999   1.346   2.648   3.165
11352TIP3   OH234000   1.633   1.070   4.683
11352TIP3    H134001   1.634   0.977   4.702
11352TIP3    H234002   1.589   1.110   4.758
11353TIP3   OH234003   2.299   2.017   1.540
11353TIP3    H134004   2.289   2.096   1.487
11353TIP3    H234005   2.296   2.048   1.630
11354TIP3   OH234006   3.310   2.743   1.593
11354TIP3    H134007   3.356   2.680   1.647
11354TIP3    H234008   3.220   2.711   1.589
11355TIP3   OH234009   3.186   1.219   4.392
11355TIP3    H134010   3.134   1.198   4.469
11355TIP3    H234011   3.277   1.211   4.422
11356TIP3   OH234012   2.430   4.568   6.275
11356TIP3    H134013   2.452   4.562   6.182
11356TIP3    H234014   2.335   4.575   6.277
11357TIP3   OH234015   5.950   0.992   0.145
11357TIP3    H134016   6.010   0.948   0.205
11357TIP3    H234017   6.004   1.015   0.069
11358TIP3   OH234018   7.657   6.941   4.339
11358TIP3    H134019   7.670   6.992   4.259
11358TIP3    H234020   7.575   6.894   4.325
11359TIP3   OH234021   4.693   4.004   1.469
11359TIP3    H134022   4.783   3.982   1.444
11359TIP3    H234023   4.696   4.097   1.489
11360TIP3   OH234024   1.589   1.220   1.619
11360TIP3    H134025   1.645   1.256   1.550
11360TIP3    H234026   1.590   1.126   1.603
11361TIP3   OH234027   1.976   4.140   6.278
11361TIP3    H134028   1.992   4.061   6.226
11361TIP3    H234029   2.061   4.183   6.283
11362TIP3   OH234030   7.626   7.725   5.813
11362TIP3    H134031   7.590   7.683   5.735
11362TIP3    H234032   7.720   7.729   5.796
11363TIP3   OH234033   5.913   5.302   4.780
11363TIP3    H134034   5.924   5.369   4.846
11363TIP3    H234035   5.884   5.349   4.702
11364TIP3   OH234036   2.173   6.505   6.160
11364TIP3    H134037   2.085   6.482   6.133
11364TIP3    H234038   2.179   6.476   6.251
11365TIP3   OH234039   5.845   3.469   0.785
11365TIP3    H134040   5.785   3.410   0.741
11365TIP3    H234041   5.796   3.502   0.861
11366TIP3   OH234042   3.007   0.566   0.137
11366TIP3    H134043   3.071   0.600   0.074
11366TIP3    H234044   3.059   0.510   0.195
11367TIP3   OH234045   4.909   1.240   5.274
11367TIP3    H134046   4.904   1.180   5.200
11367TIP3    H234047   4.994   1.283   5.264
11368TIP3   OH234048   1.235   1.635   2.935
11368TIP3    H134049   1.171   1.565   2.929
11368TIP3    H234050   1.242   1.671   2.846
11369TIP3   OH234051   3.474   7.265   3.049
11369TIP3    H134052   3.446   7.174   3.048
11369TIP3    H234053   3.399   7.314   3.016
11370TIP3   OH234054   7.857   3.418   5.392
11370TIP3    H134055   7.798   3.493   5.382
11370TIP3    H234056   7.945   3.457   5.388
11371TIP3   OH234057   1.034   1.136   5.157
11371TIP3    H134058   1.083   1.183   5.225
11371TIP3    H234059   0.975   1.078   5.205
11372TIP3   OH234060   1.641   4.230   2.535
11372TIP3    H134061   1.676   4.276   2.458
11372TIP3    H234062   1.713   4.177   2.567
11373TIP3   OH234063   3.869   7.282   4.379
11373TIP3    H134064   3.776   7.262   4.378
11373TIP3    H234065   3.881   7.339   4.455
11374TIP3   OH234066   5.087   6.511   2.547
11374TIP3    H134067   5.034   6.516   2.467
11374TIP3    H234068   5.042   6.567   2.609
11375TIP3   OH234069   4.170   1.462   2.620
11375TIP3    H134070   4.168   1.556   2.639
11375TIP3    H234071   4.261   1.436   2.638
11376TIP3   OH234072   0.733   2.974   2.708
11376TIP3    H134073   0.764   2.997   2.620
11376TIP3    H234074   0.640   2.994   2.706
11377TIP3   OH234075   2.319   1.582   4.765
11377TIP3    H134076   2.296   1.664   4.721
11377TIP3    H234077   2.414   1.583   4.769
11378TIP3   OH234078   4.068   0.490   3.912
11378TIP3    H134079   4.113   0.505   3.995
11378TIP3    H234080   4.134   0.509   3.845
11379TIP3   OH234081   0.045   1.880   1.750
11379TIP3    H134082  -0.008   1.825   1.692
11379TIP3    H234083   0.007   1.968   1.741
11380TIP3   OH234084   6.361   2.363   2.624
11380TIP3    H134085   6.310   2.343   2.545
11380TIP3    H234086   6.319   2.440   2.661
11381TIP3   OH234087   8.012   5.276   2.483
11381TIP3    H134088   8.009   5.369   2.502
11381TIP3    H234089   8.006   5.233   2.568
11382TIP3   OH234090   2.250   0.193   1.579
11382TIP3    H134091   2.281   0.105   1.555
11382TIP3    H234092   2.155   0.185   1.580
11383TIP3   OH234093   1.262   2.149   5.900
11383TIP3    H134094   1.230   2.163   5.811
11383TIP3    H234095   1.352   2.184   5.898
11384TIP3   OH234096   0.545   4.775   3.696
11384TIP3    H134097   0.576   4.685   3.688
11384TIP3    H234098   0.454   4.772   3.665
11385TIP3   OH234099   7.317   4.544   2.482
11385TIP3    H134100   7.351   4.558   2.393
11385TIP3    H234101   7.224   4.527   2.470
11386TIP3   OH234102   0.608   0.280   6.346
11386TIP3    H134103   0.625   0.365   6.305
11386TIP3    H234104   0.630   0.293   6.439
11387TIP3   OH234105   6.722   6.995   1.094
11387TIP3    H134106   6.675   6.936   1.153
11387TIP3    H234107   6.756   7.064   1.151
11388TIP3   OH234108   2.381   7.560   3.972
11388TIP3    H134109   2.398   7.650   3.942
11388TIP3    H234110   2.440   7.547   4.046
11389TIP3   OH234111   5.822   4.653   6.192
11389TIP3    H134112   5.748   4.603   6.157
11389TIP3    H234113   5.858   4.698   6.116
11390TIP3   OH234114   0.171   3.512   4.312
11390TIP3    H134115   0.113   3.581   4.344
11390TIP3    H234116   0.247   3.515   4.371
11391TIP3   OH234117   4.042   7.093   5.617
11391TIP3    H134118   4.049   7.114   5.710
11391TIP3    H234119   3.961   7.043   5.609
11392TIP3   OH234120   6.393   5.270   2.285
11392TIP3    H134121   6.447   5.210   2.234
11392TIP3    H234122   6.432   5.356   2.270
11393TIP3   OH234123   7.015   2.875   3.005
11393TIP3    H134124   7.040   2.886   2.913
11393TIP3    H234125   6.965   2.954   3.025
11394TIP3   OH234126   0.481   4.520   2.673
11394TIP3    H134127   0.502   4.426   2.673
11394TIP3    H234128   0.393   4.525   2.637
11395TIP3   OH234129   0.873   6.008   1.775
11395TIP3    H134130   0.806   6.075   1.766
11395TIP3    H234131   0.852   5.944   1.707
11396TIP3   OH234132   3.577   4.054   6.183
11396TIP3    H134133   3.605   4.143   6.161
11396TIP3    H234134   3.597   4.002   6.104
11397TIP3   OH234135   1.459   6.524   6.314
11397TIP3    H134136   1.413   6.508   6.232
11397TIP3    H234137   1.423   6.606   6.347
11398TIP3   OH234138   5.311   2.706   6.672
11398TIP3    H134139   5.400   2.671   6.674
11398TIP3    H234140   5.255   2.629   6.682
11399TIP3   OH234141   2.953   4.978   6.045
11399TIP3    H134142   2.901   5.054   6.071
11399TIP3    H234143   2.919   4.906   6.099
11400TIP3   OH234144   2.056   5.955   3.147
11400TIP3    H134145   2.073   5.875   3.096
11400TIP3    H234146   2.046   6.023   3.081
11401TIP3   OH234147   1.011   3.380   3.238
11401TIP3    H134148   1.032   3.369   3.146
11401TIP3    H234149   0.938   3.320   3.254
11402TIP3   OH234150   6.477   6.629   3.283
11402TIP3    H134151   6.444   6.689   3.350
11402TIP3    H234152   6.434   6.546   3.301
11403TIP3   OH234153   4.810   4.660   3.729
11403TIP3    H134154   4.860   4.732   3.692
11403TIP3    H234155   4.876   4.600   3.765
11404TIP3   OH234156   7.907   0.472   5.149
11404TIP3    H134157   7.972   0.465   5.079
11404TIP3    H234158   7.844   0.403   5.130
11405TIP3   OH234159   7.568   4.474   4.472
11405TIP3    H134160   7.551   4.384   4.502
11405TIP3    H234161   7.543   4.529   4.546
11406TIP3   OH234162   6.636   0.739   1.616
11406TIP3    H134163   6.697   0.739   1.690
11406TIP3    H234164   6.553   0.709   1.653
11407TIP3   OH234165   7.659   6.999   1.932
11407TIP3    H134166   7.633   7.004   2.024
11407TIP3    H234167   7.659   6.905   1.912
11408TIP3   OH234168   6.163   7.360   2.783
11408TIP3    H134169   6.229   7.345   2.715
11408TIP3    H234170   6.105   7.427   2.747
11409TIP3   OH234171   1.256   1.118   3.585
11409TIP3    H134172   1.273   1.198   3.535
11409TIP3    H234173   1.161   1.118   3.600
11410TIP3   OH234174   2.269   4.345   3.197
11410TIP3    H134175   2.348   4.357   3.249
11410TIP3    H234176   2.297   4.359   3.107
11411TIP3   OH234177   0.048   0.802   2.658
11411TIP3    H134178   0.009   0.863   2.721
11411TIP3    H234179   0.133   0.841   2.638
11412TIP3   OH234180   2.810   6.258   3.087
11412TIP3    H134181   2.868   6.199   3.038
11412TIP3    H234182   2.832   6.345   3.055
11413TIP3   OH234183   3.082   1.198   3.106
11413TIP3    H134184   3.113   1.288   3.099
11413TIP3    H234185   3.159   1.145   3.086
11414TIP3   OH234186   4.524   5.804   0.627
11414TIP3    H134187   4.456   5.740   0.645
11414TIP3    H234188   4.529   5.808   0.531
11415TIP3   OH234189   4.462   0.610   2.613
11415TIP3    H134190   4.409   0.627   2.535
11415TIP3    H234191   4.442   0.520   2.637
11416TIP3   OH234192   7.935   3.624   1.418
11416TIP3    H134193   7.993   3.616   1.341
11416TIP3    H234194   7.919   3.718   1.426
11417TIP3   OH234195   6.843   2.915   4.277
11417TIP3    H134196   6.816   2.938   4.366
11417TIP3    H234197   6.868   2.823   4.282
11418TIP3   OH234198   5.268   6.045   4.921
11418TIP3    H134199   5.346   6.093   4.949
11418TIP3    H234200   5.264   6.061   4.826
11419TIP3   OH234201   0.304   7.671   4.726
11419TIP3    H134202   0.382   7.727   4.735
11419TIP3    H234203   0.269   7.665   4.814
11420TIP3   OH234204   6.922   1.739   6.154
11420TIP3    H134205   6.911   1.803   6.224
11420TIP3    H234206   6.862   1.768   6.085
11421TIP3   OH234207   4.954   3.987   4.602
11421TIP3    H134208   5.049   3.980   4.591
11421TIP3    H234209   4.921   3.900   4.577
11422TIP3   OH234210   4.986   1.527   1.087
11422TIP3    H134211   4.972   1.619   1.106
11422TIP3    H234212   4.899   1.487   1.097
11423TIP3   OH234213   2.446   1.635   0.095
11423TIP3    H134214   2.531   1.596   0.073
11423TIP3    H234215   2.393   1.624   0.016
11424TIP3   OH234216   1.905   7.503   6.390
11424TIP3    H134217   1.903   7.595   6.367
11424TIP3    H234218   1.861   7.458   6.318
11425TIP3   OH234219   7.099   2.030   5.555
11425TIP3    H134220   7.024   2.006   5.501
11425TIP3    H234221   7.175   2.022   5.497
11426TIP3   OH234222   4.267   2.533   1.634
11426TIP3    H134223   4.320   2.515   1.712
11426TIP3    H234224   4.190   2.478   1.644
11427TIP3   OH234225   6.444   1.445   0.333
11427TIP3    H134226   6.456   1.519   0.392
11427TIP3    H234227   6.513   1.454   0.268
11428TIP3   OH234228   1.168   1.563   2.205
11428TIP3    H134229   1.173   1.481   2.255
11428TIP3    H234230   1.259   1.592   2.198
11429TIP3   OH234231   1.306   1.205   1.311
11429TIP3    H134232   1.307   1.126   1.365
11429TIP3    H234233   1.214   1.216   1.285
11430TIP3   OH234234   4.364   6.131   1.308
11430TIP3    H134235   4.316   6.198   1.356
11430TIP3    H234236   4.325   6.132   1.220
11431TIP3   OH234237   0.952   6.992   6.163
11431TIP3    H134238   0.931   6.900   6.178
11431TIP3    H234239   0.996   6.993   6.077
11432TIP3   OH234240   7.802   6.939   3.307
11432TIP3    H134241   7.799   7.010   3.372
11432TIP3    H234242   7.803   6.984   3.223
11433TIP3   OH234243   7.976   6.734   2.158
11433TIP3    H134244   7.883   6.714   2.155
11433TIP3    H234245   8.014   6.684   2.086
11434TIP3   OH234246   5.458   3.177   2.475
11434TIP3    H134247   5.369   3.184   2.509
11434TIP3    H234248   5.457   3.225   2.392
11435TIP3   OH234249   4.183   0.855   6.025
11435TIP3    H134250   4.155   0.785   6.084
11435TIP3    H234251   4.117   0.857   5.957
11436TIP3   OH234252   7.834   3.793   1.162
11436TIP3    H134253   7.804   3.823   1.247
11436TIP3    H234254   7.865   3.872   1.117
11437TIP3   OH234255   0.750   5.127   0.765
11437TIP3    H134256   0.679   5.063   0.759
11437TIP3    H234257   0.712   5.200   0.813
11438TIP3   OH234258   5.901   3.983   5.792
11438TIP3    H134259   5.926   4.065   5.748
11438TIP3    H234260   5.985   3.943   5.817
11439TIP3   OH234261   1.128   1.743   6.454
11439TIP3    H134262   1.150   1.738   6.361
11439TIP3    H234263   1.036   1.768   6.455
11440TIP3   OH234264   5.769   3.664   4.497
11440TIP3    H134265   5.859   3.691   4.513
11440TIP3    H234266   5.738   3.630   4.581
11441TIP3   OH234267   0.889   1.908   6.489
11441TIP3    H134268   0.848   1.984   6.529
11441TIP3    H234269   0.830   1.884   6.417
11442TIP3   OH234270   7.941   3.565   4.695
11442TIP3    H134271   7.870   3.602   4.747
11442TIP3    H234272   7.898   3.532   4.616
11443TIP3   OH234273   7.574   6.643   5.758
11443TIP3    H134274   7.626   6.624   5.680
11443TIP3    H234275   7.493   6.594   5.746
11444TIP3   OH234276   1.219   7.299   5.059
11444TIP3    H134277   1.171   7.259   5.132
11444TIP3    H234278   1.282   7.357   5.102
11445TIP3   OH234279   2.867   7.514   6.169
11445TIP3    H134280   2.773   7.532   6.170
11445TIP3    H234281   2.873   7.420   6.190
11446TIP3   OH234282   7.575   1.850   1.202
11446TIP3    H134283   7.663   1.841   1.165
11446TIP3    H234284   7.560   1.944   1.203
11447TIP3   OH234285   0.799   4.047   4.788
11447TIP3    H134286   0.782   4.134   4.753
11447TIP3    H234287   0.780   4.054   4.881
11448TIP3   OH234288   1.425   3.741   5.802
11448TIP3    H134289   1.502   3.739   5.746
11448TIP3    H234290   1.430   3.661   5.853
11449TIP3   OH234291   2.365   1.019   3.992
11449TIP3    H134292   2.333   0.933   3.963
11449TIP3    H234293   2.356   1.016   4.087
11450TIP3   OH234294   4.167   7.090   6.167
11450TIP3    H134295   4.205   7.003   6.151
11450TIP3    H234296   4.078   7.072   6.198
11451TIP3   OH234297   1.459   2.491   4.604
11451TIP3    H134298   1.477   2.488   4.698
11451TIP3    H234299   1.386   2.552   4.595
11452TIP3   OH234300   2.552   7.091   4.412
11452TIP3    H134301   2.558   7.025   4.481
11452TIP3    H234302   2.573   7.044   4.332
11453TIP3   OH234303   0.907   0.480   4.181
11453TIP3    H134304   0.970   0.552   4.188
11453TIP3    H234305   0.944   0.410   4.234
11454TIP3   OH234306   5.600   7.845   2.358
11454TIP3    H134307   5.603   7.795   2.276
11454TIP3    H234308   5.558   7.786   2.420
11455TIP3   OH234309   8.224   0.630   4.677
11455TIP3    H134310   8.220   0.698   4.609
11455TIP3    H234311   8.316   0.608   4.684
11456TIP3   OH234312   1.401   0.583   2.042
11456TIP3    H134313   1.368   0.522   2.108
11456TIP3    H234314   1.333   0.651   2.037
11457TIP3   OH234315   1.095   3.071   6.804
11457TIP3    H134316   1.048   3.023   6.736
11457TIP3    H234317   1.184   3.079   6.770
11458TIP3   OH234318   6.842   4.327   3.932
11458TIP3    H134319   6.929   4.324   3.893
11458TIP3    H234320   6.794   4.256   3.890
11459TIP3   OH234321   3.583   4.281   0.057
11459TIP3    H134322   3.533   4.319   0.129
11459TIP3    H234323   3.635   4.211   0.098
11460TIP3   OH234324   1.341   1.273   6.045
11460TIP3    H134325   1.387   1.268   5.961
11460TIP3    H234326   1.350   1.365   6.071
11461TIP3   OH234327   5.738   7.633   4.914
11461TIP3    H134328   5.830   7.628   4.940
11461TIP3    H234329   5.724   7.725   4.892
11462TIP3   OH234330   8.233   0.251   5.473
11462TIP3    H134331   8.251   0.157   5.479
11462TIP3    H234332   8.313   0.293   5.504
11463TIP3   OH234333   0.241   4.485   5.057
11463TIP3    H134334   0.224   4.440   4.974
11463TIP3    H234335   0.234   4.578   5.036
11464TIP3   OH234336   0.740   6.584   1.286
11464TIP3    H134337   0.704   6.521   1.223
11464TIP3    H234338   0.786   6.530   1.351
11465TIP3   OH234339   4.903   3.115   1.927
11465TIP3    H134340   4.871   3.036   1.884
11465TIP3    H234341   4.979   3.142   1.876
11466TIP3   OH234342   0.267   4.286   6.727
11466TIP3    H134343   0.206   4.212   6.733
11466TIP3    H234344   0.249   4.338   6.805
11467TIP3   OH234345   3.184   7.527   2.420
11467TIP3    H134346   3.120   7.485   2.361
11467TIP3    H234347   3.252   7.559   2.362
11468TIP3   OH234348   1.463   6.430   3.668
11468TIP3    H134349   1.476   6.522   3.692
11468TIP3    H234350   1.527   6.383   3.721
11469TIP3   OH234351   1.498   1.149   3.235
11469TIP3    H134352   1.486   1.240   3.209
11469TIP3    H234353   1.546   1.109   3.162
11470TIP3   OH234354   6.000   5.557   5.168
11470TIP3    H134355   6.093   5.571   5.149
11470TIP3    H234356   5.989   5.463   5.161
11471TIP3   OH234357   0.992   1.280   4.830
11471TIP3    H134358   0.954   1.192   4.834
11471TIP3    H234359   0.917   1.338   4.823
11472TIP3   OH234360   4.533   4.168   0.889
11472TIP3    H134361   4.547   4.077   0.863
11472TIP3    H234362   4.438   4.177   0.894
11473TIP3   OH234363   1.983   0.106   2.910
11473TIP3    H134364   1.892   0.132   2.922
11473TIP3    H234365   1.985   0.061   2.825
11474TIP3   OH234366  -0.005   3.722   5.539
11474TIP3    H134367   0.036   3.805   5.517
11474TIP3    H234368   0.059   3.676   5.592
11475TIP3   OH234369   0.518   2.743   2.397
11475TIP3    H134370   0.426   2.749   2.422
11475TIP3    H234371   0.542   2.833   2.371
11476TIP3   OH234372   0.107   6.121   1.114
11476TIP3    H134373   0.201   6.129   1.096
11476TIP3    H234374   0.065   6.138   1.029
11477TIP3   OH234375   4.278   7.364   2.046
11477TIP3    H134376   4.277   7.418   1.968
11477TIP3    H234377   4.187   7.359   2.074
11478TIP3   OH234378   0.468   5.323   2.968
11478TIP3    H134379   0.539   5.333   3.031
11478TIP3    H234380   0.448   5.229   2.970
11479TIP3   OH234381   1.382   1.898   1.439
11479TIP3    H134382   1.387   1.824   1.379
11479TIP3    H234383   1.401   1.975   1.384
11480TIP3   OH234384   7.695   6.511   1.303
11480TIP3    H134385   7.623   6.575   1.305
11480TIP3    H234386   7.754   6.541   1.372
11481TIP3   OH234387   4.058   7.008   2.495
11481TIP3    H134388   4.071   7.011   2.400
11481TIP3    H234389   4.126   6.948   2.526
11482TIP3   OH234390   8.176   7.432   6.271
11482TIP3    H134391   8.133   7.460   6.190
11482TIP3    H234392   8.189   7.513   6.321
11483TIP3   OH234393   4.878   1.987   3.465
11483TIP3    H134394   4.960   2.036   3.458
11483TIP3    H234395   4.817   2.049   3.505
11484TIP3   OH234396   3.009   4.024   4.493
11484TIP3    H134397   3.071   3.951   4.498
11484TIP3    H234398   2.930   3.992   4.537
11485TIP3   OH234399   0.310   7.512   2.780
11485TIP3    H134400   0.363   7.437   2.806
11485TIP3    H234401   0.223   7.493   2.815
11486TIP3   OH234402   1.766   6.944   2.369
11486TIP3    H134403   1.752   6.916   2.278
11486TIP3    H234404   1.691   6.908   2.417
11487TIP3   OH234405   7.199   2.148   5.094
11487TIP3    H134406   7.234   2.193   5.170
11487TIP3    H234407   7.237   2.195   5.019
11488TIP3   OH234408   3.331   1.627   4.391
11488TIP3    H134409   3.405   1.589   4.439
11488TIP3    H234410   3.287   1.682   4.455
11489TIP3   OH234411   1.901   2.897   3.805
11489TIP3    H134412   1.813   2.904   3.767
11489TIP3    H234413   1.885   2.869   3.896
11490TIP3   OH234414   5.525   6.414   3.046
11490TIP3    H134415   5.468   6.338   3.034
11490TIP3    H234416   5.548   6.441   2.957
11491TIP3   OH234417   4.262   2.901   3.086
11491TIP3    H134418   4.214   2.838   3.033
11491TIP3    H234419   4.349   2.861   3.098
11492TIP3   OH234420   5.234   3.141   3.384
11492TIP3    H134421   5.223   3.053   3.422
11492TIP3    H234422   5.324   3.165   3.407
11493TIP3   OH234423   7.964   3.274   1.727
11493TIP3    H134424   7.966   3.261   1.822
11493TIP3    H234425   8.026   3.345   1.711
11494TIP3   OH234426   2.894   5.475   1.094
11494TIP3    H134427   2.851   5.530   1.159
11494TIP3    H234428   2.900   5.529   1.015
11495TIP3   OH234429   2.082   0.696   5.109
11495TIP3    H134430   2.005   0.641   5.119
11495TIP3    H234431   2.047   0.785   5.098
11496TIP3   OH234432   1.778   3.474   1.368
11496TIP3    H134433   1.861   3.429   1.351
11496TIP3    H234434   1.797   3.566   1.349
11497TIP3   OH234435   2.383   2.078   4.888
11497TIP3    H134436   2.462   2.075   4.941
11497TIP3    H234437   2.331   2.003   4.918
11498TIP3   OH234438   1.294   2.957   5.506
11498TIP3    H134439   1.293   3.043   5.464
11498TIP3    H234440   1.225   2.908   5.461
11499TIP3   OH234441   4.264   1.537   1.908
11499TIP3    H134442   4.280   1.631   1.904
11499TIP3    H234443   4.245   1.512   1.817
11500TIP3   OH234444   0.876   7.258   0.781
11500TIP3    H134445   0.971   7.253   0.779
11500TIP3    H234446   0.857   7.343   0.819
11501TIP3   OH234447   4.259   2.966   1.409
11501TIP3    H134448   4.297   2.983   1.495
11501TIP3    H234449   4.210   2.884   1.420
11502TIP3   OH234450   4.009   0.596   3.540
11502TIP3    H134451   3.992   0.530   3.607
11502TIP3    H234452   3.958   0.566   3.464
11503TIP3   OH234453   1.393   1.813   5.738
11503TIP3    H134454   1.472   1.864   5.719
11503TIP3    H234455   1.386   1.812   5.833
11504TIP3   OH234456   7.891   2.794   0.690
11504TIP3    H134457   7.965   2.772   0.747
11504TIP3    H234458   7.931   2.845   0.619
11505TIP3   OH234459   0.946   6.995   2.577
11505TIP3    H134460   1.035   6.972   2.549
11505TIP3    H234461   0.958   7.071   2.634
11506TIP3   OH234462   7.042   2.944   3.700
11506TIP3    H134463   7.066   2.996   3.624
11506TIP3    H234464   6.947   2.940   3.698
11507TIP3   OH234465   3.761   6.491   0.259
11507TIP3    H134466   3.673   6.453   0.264
11507TIP3    H234467   3.792   6.493   0.349
11508TIP3   OH234468   1.151   4.832   6.659
11508TIP3    H134469   1.239   4.805   6.635
11508TIP3    H234470   1.117   4.760   6.712
11509TIP3   OH234471   6.279   5.944   4.999
11509TIP3    H134472   6.296   5.880   4.930
11509TIP3    H234473   6.287   6.029   4.955
11510TIP3   OH234474   5.564   1.569   1.885
11510TIP3    H134475   5.501   1.554   1.956
11510TIP3    H234476   5.511   1.571   1.806
11511TIP3   OH234477   2.668   6.312   1.531
11511TIP3    H134478   2.753   6.348   1.558
11511TIP3    H234479   2.644   6.365   1.454
11512TIP3   OH234480   6.741   1.547   4.381
11512TIP3    H134481   6.746   1.453   4.400
11512TIP3    H234482   6.674   1.580   4.441
11513TIP3   OH234483   4.995   1.818   1.122
11513TIP3    H134484   4.914   1.868   1.132
11513TIP3    H234485   5.048   1.868   1.060
11514TIP3   OH234486   7.418   4.221   0.180
11514TIP3    H134487   7.326   4.245   0.188
11514TIP3    H234488   7.437   4.173   0.260
11515TIP3   OH234489   1.737   7.472   0.116
11515TIP3    H134490   1.666   7.418   0.082
11515TIP3    H234491   1.708   7.562   0.101
11516TIP3   OH234492   1.969   5.697   2.488
11516TIP3    H134493   1.956   5.782   2.529
11516TIP3    H234494   1.949   5.711   2.395
11517TIP3   OH234495   1.083   0.591   3.666
11517TIP3    H134496   1.125   0.519   3.714
11517TIP3    H234497   1.130   0.669   3.696
11518TIP3   OH234498   2.132   2.950   6.270
11518TIP3    H134499   2.091   2.864   6.257
11518TIP3    H234500   2.201   2.954   6.203
11519TIP3   OH234501   6.744   1.528   3.653
11519TIP3    H134502   6.685   1.490   3.588
11519TIP3    H234503   6.745   1.464   3.724
11520TIP3   OH234504   5.977   6.077   6.207
11520TIP3    H134505   6.034   6.037   6.141
11520TIP3    H234506   5.892   6.036   6.192
11521TIP3   OH234507   6.662   7.388   3.562
11521TIP3    H134508   6.647   7.479   3.536
11521TIP3    H234509   6.717   7.393   3.640
11522TIP3   OH234510   5.686   6.534   5.666
11522TIP3    H134511   5.715   6.450   5.630
11522TIP3    H234512   5.645   6.579   5.591
11523TIP3   OH234513   3.495   0.897   1.341
11523TIP3    H134514   3.508   0.816   1.291
11523TIP3    H234515   3.498   0.966   1.275
11524TIP3   OH234516   2.131   7.821   2.104
11524TIP3    H134517   2.123   7.864   2.019
11524TIP3    H234518   2.048   7.774   2.115
11525TIP3   OH234519   4.796   6.204   5.773
11525TIP3    H134520   4.784   6.205   5.868
11525TIP3    H234521   4.708   6.217   5.738
11526TIP3   OH234522   7.406   5.244   2.403
11526TIP3    H134523   7.474   5.311   2.403
11526TIP3    H234524   7.334   5.283   2.452
11527TIP3   OH234525   3.634   3.569   0.429
11527TIP3    H134526   3.649   3.663   0.427
11527TIP3    H234527   3.626   3.543   0.337
11528TIP3   OH234528   2.314   5.902   0.700
11528TIP3    H134529   2.301   5.811   0.673
11528TIP3    H234530   2.237   5.948   0.668
11529TIP3   OH234531   5.828   1.214   0.407
11529TIP3    H134532   5.789   1.190   0.323
11529TIP3    H234533   5.879   1.292   0.388
11530TIP3   OH234534   7.224   4.511   5.591
11530TIP3    H134535   7.304   4.561   5.605
11530TIP3    H234536   7.157   4.578   5.575
11531TIP3   OH234537   0.813   7.585   5.659
11531TIP3    H134538   0.842   7.524   5.727
11531TIP3    H234539   0.827   7.672   5.696
11532TIP3   OH234540   7.480   3.567   1.664
11532TIP3    H134541   7.523   3.553   1.748
11532TIP3    H234542   7.548   3.550   1.599
11533TIP3   OH234543   4.688   0.165   2.896
11533TIP3    H134544   4.616   0.129   2.844
11533TIP3    H234545   4.692   0.107   2.973
11534TIP3   OH234546   2.734   2.473   1.950
11534TIP3    H134547   2.829   2.474   1.934
11534TIP3    H234548   2.715   2.382   1.976
11535TIP3   OH234549   0.888   2.773   0.099
11535TIP3    H134550   0.939   2.730   0.031
11535TIP3    H234551   0.853   2.702   0.153
11536TIP3   OH234552   7.875   0.860   5.431
11536TIP3    H134553   7.790   0.828   5.464
11536TIP3    H234554   7.926   0.877   5.510
11537TIP3   OH234555   6.510   4.747   1.628
11537TIP3    H134556   6.511   4.692   1.707
11537TIP3    H234557   6.560   4.697   1.563
11538TIP3   OH234558   6.945   0.288   1.029
11538TIP3    H134559   6.869   0.301   0.972
11538TIP3    H234560   6.950   0.369   1.079
11539TIP3   OH234561   6.731   0.617   0.618
11539TIP3    H134562   6.669   0.681   0.582
11539TIP3    H234563   6.746   0.555   0.547
11540TIP3   OH234564   3.326   6.046   4.822
11540TIP3    H134565   3.269   6.043   4.899
11540TIP3    H234566   3.282   6.108   4.762
11541TIP3   OH234567   2.535   6.013   4.352
11541TIP3    H134568   2.562   6.059   4.273
11541TIP3    H234569   2.439   6.016   4.349
11542TIP3   OH234570   6.127   7.257   1.145
11542TIP3    H134571   6.078   7.264   1.063
11542TIP3    H234572   6.204   7.312   1.131
11543TIP3   OH234573   6.048   0.413   2.150
11543TIP3    H134574   6.112   0.393   2.218
11543TIP3    H234575   6.100   0.424   2.070
11544TIP3   OH234576   3.456   6.791   0.830
11544TIP3    H134577   3.489   6.731   0.762
11544TIP3    H234578   3.481   6.878   0.799
11545TIP3   OH234579   3.364   5.967   6.074
11545TIP3    H134580   3.280   6.007   6.098
11545TIP3    H234581   3.416   6.040   6.040
11546TIP3   OH234582   3.508   6.157   2.096
11546TIP3    H134583   3.495   6.251   2.107
11546TIP3    H234584   3.538   6.127   2.182
11547TIP3   OH234585   8.083   4.346   0.457
11547TIP3    H134586   8.034   4.264   0.460
11547TIP3    H234587   8.060   4.385   0.373
11548TIP3   OH234588   2.776   1.016   0.858
11548TIP3    H134589   2.774   0.936   0.911
11548TIP3    H234590   2.823   1.079   0.913
11549TIP3   OH234591   3.208   4.481   1.401
11549TIP3    H134592   3.197   4.413   1.467
11549TIP3    H234593   3.292   4.461   1.359
11550TIP3   OH234594   0.949   5.287   6.772
11550TIP3    H134595   0.961   5.381   6.756
11550TIP3    H234596   1.024   5.246   6.728
11551TIP3   OH234597   0.998   3.919   1.939
11551TIP3    H134598   0.957   3.984   1.883
11551TIP3    H234599   0.939   3.843   1.936
11552TIP3   OH234600   1.130   2.147   3.067
11552TIP3    H134601   1.180   2.228   3.055
11552TIP3    H234602   1.040   2.171   3.044
11553TIP3   OH234603   2.270   4.578   0.702
11553TIP3    H134604   2.317   4.662   0.704
11553TIP3    H234605   2.243   4.563   0.793
11554TIP3   OH234606   8.009   2.181   3.130
11554TIP3    H134607   8.041   2.263   3.092
11554TIP3    H234608   7.935   2.156   3.074
11555TIP3   OH234609   7.092   6.297   2.970
11555TIP3    H134610   7.014   6.304   2.915
11555TIP3    H234611   7.072   6.349   3.048
11556TIP3   OH234612   8.296   0.353   4.841
11556TIP3    H134613   8.379   0.393   4.814
11556TIP3    H234614   8.256   0.325   4.759
11557TIP3   OH234615   3.718   0.462   2.430
11557TIP3    H134616   3.627   0.491   2.423
11557TIP3    H234617   3.711   0.368   2.445
11558TIP3   OH234618   1.607   5.895   1.861
11558TIP3    H134619   1.653   5.893   1.945
11558TIP3    H234620   1.558   5.976   1.863
11559TIP3   OH234621   3.120   5.039   0.405
11559TIP3    H134622   3.097   4.946   0.416
11559TIP3    H234623   3.214   5.039   0.391
11560TIP3   OH234624   5.106   6.105   5.876
11560TIP3    H134625   5.104   6.098   5.780
11560TIP3    H234626   5.191   6.143   5.896
11561TIP3   OH234627   3.774   2.449   1.841
11561TIP3    H134628   3.772   2.512   1.914
11561TIP3    H234629   3.746   2.500   1.765
11562TIP3   OH234630   1.515   3.051   6.059
11562TIP3    H134631   1.601   3.034   6.021
11562TIP3    H234632   1.503   3.146   6.051
11563TIP3   OH234633   1.653   6.769   1.005
11563TIP3    H134634   1.703   6.841   1.042
11563TIP3    H234635   1.681   6.765   0.913
11564TIP3   OH234636   0.283   2.236   6.459
11564TIP3    H134637   0.327   2.318   6.481
11564TIP3    H234638   0.305   2.221   6.367
11565TIP3   OH234639   3.045   4.070   5.906
11565TIP3    H134640   3.125   4.065   5.958
11565TIP3    H234641   3.041   3.987   5.858
11566TIP3   OH234642   0.450   1.848   5.516
11566TIP3    H134643   0.369   1.798   5.511
11566TIP3    H234644   0.442   1.914   5.447
11567TIP3   OH234645   6.148   6.391   5.643
11567TIP3    H134646   6.096   6.465   5.610
11567TIP3    H234647   6.237   6.426   5.650
11568TIP3   OH234648   8.143   6.996   5.218
11568TIP3    H134649   8.088   7.051   5.161
11568TIP3    H234650   8.202   7.058   5.262
11569TIP3   OH234651   1.211   6.656   1.748
11569TIP3    H134652   1.279   6.588   1.749
11569TIP3    H234653   1.257   6.734   1.717
11570TIP3   OH234654   5.090   2.300   3.728
11570TIP3    H134655   5.164   2.355   3.753
11570TIP3    H234656   5.064   2.333   3.642
11571TIP3   OH234657   2.784   1.834   5.446
11571TIP3    H134658   2.711   1.785   5.409
11571TIP3    H234659   2.744   1.892   5.511
11572TIP3   OH234660   6.448   2.660   0.870
11572TIP3    H134661   6.441   2.566   0.856
11572TIP3    H234662   6.472   2.669   0.962
11573TIP3   OH234663   4.283   7.548   1.838
11573TIP3    H134664   4.304   7.526   1.747
11573TIP3    H234665   4.306   7.640   1.846
11574TIP3   OH234666   7.525   2.276   2.253
11574TIP3    H134667   7.527   2.360   2.207
11574TIP3    H234668   7.612   2.267   2.292
11575TIP3   OH234669   4.538   1.996   3.508
11575TIP3    H134670   4.585   1.944   3.443
11575TIP3    H234671   4.588   2.077   3.515
11576TIP3   OH234672   1.405   0.971   1.466
11576TIP3    H134673   1.478   0.993   1.407
11576TIP3    H234674   1.446   0.958   1.551
11577TIP3   OH234675   5.909   0.627   5.317
11577TIP3    H134676   5.984   0.676   5.351
11577TIP3    H234677   5.841   0.693   5.304
11578TIP3   OH234678   1.430   6.026   0.652
11578TIP3    H134679   1.340   5.994   0.640
11578TIP3    H234680   1.456   6.058   0.565
11579TIP3   OH234681   2.527   0.245   4.504
11579TIP3    H134682   2.439   0.237   4.540
11579TIP3    H234683   2.584   0.209   4.572
11580TIP3   OH234684   8.265   2.510   2.868
11580TIP3    H134685   8.325   2.458   2.922
11580TIP3    H234686   8.181   2.505   2.913
11581TIP3   OH234687   3.848   2.524   3.272
11581TIP3    H134688   3.849   2.577   3.193
11581TIP3    H234689   3.892   2.443   3.248
11582TIP3   OH234690   3.752   4.832  -0.037
11582TIP3    H134691   3.661   4.817  -0.010
11582TIP3    H234692   3.803   4.824   0.044
11583TIP3   OH234693   7.664   4.105   5.102
11583TIP3    H134694   7.656   4.183   5.156
11583TIP3    H234695   7.575   4.089   5.069
11584TIP3   OH234696   3.591   2.783   3.895
11584TIP3    H134697   3.545   2.700   3.888
11584TIP3    H234698   3.589   2.820   3.807
11585TIP3   OH234699   1.559   4.799   6.292
11585TIP3    H134700   1.652   4.787   6.310
11585TIP3    H234701   1.550   4.893   6.275
11586TIP3   OH234702   5.923   7.049   3.895
11586TIP3    H134703   5.889   7.069   3.808
11586TIP3    H234704   5.864   6.981   3.929
11587TIP3   OH234705   4.432   1.037   3.246
11587TIP3    H134706   4.480   1.061   3.325
11587TIP3    H234707   4.478   1.084   3.175
11588TIP3   OH234708   2.722   7.242   4.153
11588TIP3    H134709   2.697   7.292   4.231
11588TIP3    H234710   2.767   7.306   4.098
11589TIP3   OH234711   6.331   2.271   0.392
11589TIP3    H134712   6.258   2.322   0.428
11589TIP3    H234713   6.390   2.336   0.356
11590TIP3   OH234714   0.734   3.874   6.066
11590TIP3    H134715   0.717   3.845   6.155
11590TIP3    H234716   0.707   3.800   6.011
11591TIP3   OH234717   6.278   3.172   3.428
11591TIP3    H134718   6.337   3.247   3.421
11591TIP3    H234719   6.191   3.209   3.411
11592TIP3   OH234720   3.354   4.913   1.133
11592TIP3    H134721   3.293   4.974   1.091
11592TIP3    H234722   3.357   4.942   1.225
11593TIP3   OH234723   4.100   0.973   1.741
11593TIP3    H134724   4.083   0.880   1.750
11593TIP3    H234725   4.124   1.003   1.828
11594TIP3   OH234726   0.844   1.441   3.440
11594TIP3    H134727   0.867   1.468   3.529
11594TIP3    H234728   0.911   1.481   3.385
11595TIP3   OH234729   1.687   0.057   3.241
11595TIP3    H134730   1.734  -0.026   3.233
11595TIP3    H234731   1.657   0.077   3.153
11596TIP3   OH234732   7.771   1.914   5.284
11596TIP3    H134733   7.727   1.831   5.303
11596TIP3    H234734   7.803   1.944   5.369
11597TIP3   OH234735   0.313   0.088   4.466
11597TIP3    H134736   0.342   0.010   4.513
11597TIP3    H234737   0.392   0.142   4.459
11598TIP3   OH234738   4.196   2.120   0.652
11598TIP3    H134739   4.267   2.130   0.589
11598TIP3    H234740   4.135   2.060   0.610
11599TIP3   OH234741   0.205   2.923   0.301
11599TIP3    H134742   0.232   3.006   0.340
11599TIP3    H234743   0.179   2.946   0.212
11600TIP3   OH234744   2.378   7.606   0.914
11600TIP3    H134745   2.394   7.644   0.827
11600TIP3    H234746   2.351   7.680   0.968
11601TIP3   OH234747   1.107   2.459   3.823
11601TIP3    H134748   1.016   2.480   3.843
11601TIP3    H234749   1.106   2.366   3.801
11602TIP3   OH234750   6.869   2.448   6.215
11602TIP3    H134751   6.889   2.368   6.264
11602TIP3    H234752   6.943   2.506   6.232
11603TIP3   OH234753   6.188   3.949   4.566
11603TIP3    H134754   6.145   4.000   4.497
11603TIP3    H234755   6.223   4.015   4.626
11604TIP3   OH234756   3.086   4.794   4.274
11604TIP3    H134757   3.117   4.865   4.331
11604TIP3    H234758   3.053   4.839   4.196
11605TIP3   OH234759   7.436   1.525   4.849
11605TIP3    H134760   7.480   1.531   4.934
11605TIP3    H234761   7.478   1.591   4.795
11606TIP3   OH234762   6.221   4.623   3.409
11606TIP3    H134763   6.147   4.664   3.365
11606TIP3    H234764   6.297   4.648   3.357
11607TIP3   OH234765   2.131   7.005   0.398
11607TIP3    H134766   2.092   7.089   0.376
11607TIP3    H234767   2.128   7.001   0.494
11608TIP3   OH234768   2.890   0.884   3.876
11608TIP3    H134769   2.895   0.837   3.793
11608TIP3    H234770   2.931   0.969   3.857
11609TIP3   OH234771   4.832   3.168   2.507
11609TIP3    H134772   4.887   3.130   2.576
11609TIP3    H234773   4.873   3.252   2.488
11610TIP3   OH234774   3.297   2.218   6.073
11610TIP3    H134775   3.207   2.187   6.080
11610TIP3    H234776   3.348   2.140   6.049
11611TIP3   OH234777   2.667   7.685   1.310
11611TIP3    H134778   2.738   7.649   1.256
11611TIP3    H234779   2.711   7.715   1.389
11612TIP3   OH234780   4.548   4.457   3.861
11612TIP3    H134781   4.621   4.439   3.802
11612TIP3    H234782   4.530   4.374   3.903
11613TIP3   OH234783   0.397   2.769   5.072
11613TIP3    H134784   0.367   2.860   5.082
11613TIP3    H234785   0.349   2.720   5.138
11614TIP3   OH234786   7.775   0.077   3.733
11614TIP3    H134787   7.793   0.167   3.706
11614TIP3    H234788   7.794   0.076   3.826
11615TIP3   OH234789   7.782   6.525   2.041
11615TIP3    H134790   7.850   6.479   2.091
11615TIP3    H234791   7.775   6.475   1.959
11616TIP3   OH234792   1.122   0.665   6.637
11616TIP3    H134793   1.076   0.735   6.684
11616TIP3    H234794   1.176   0.710   6.573
11617TIP3   OH234795   3.849   1.181   3.673
11617TIP3    H134796   3.846   1.274   3.654
11617TIP3    H234797   3.757   1.154   3.675
11618TIP3   OH234798   0.859   0.775   4.238
11618TIP3    H134799   0.903   0.860   4.250
11618TIP3    H234800   0.898   0.739   4.159
11619TIP3   OH234801   0.844   6.134   3.097
11619TIP3    H134802   0.771   6.072   3.103
11619TIP3    H234803   0.820   6.192   3.025
11620TIP3   OH234804   4.882   1.116   0.913
11620TIP3    H134805   4.868   1.071   0.996
11620TIP3    H234806   4.932   1.194   0.936
11621TIP3   OH234807   1.644   6.421   6.555
11621TIP3    H134808   1.582   6.456   6.490
11621TIP3    H234809   1.592   6.361   6.608
11622TIP3   OH234810   7.397   0.207   4.934
11622TIP3    H134811   7.312   0.197   4.976
11622TIP3    H234812   7.440   0.277   4.984
11623TIP3   OH234813   7.185   6.265   4.107
11623TIP3    H134814   7.255   6.234   4.050
11623TIP3    H234815   7.106   6.258   4.053
11624TIP3   OH234816   3.940   0.415   2.778
11624TIP3    H134817   3.851   0.445   2.761
11624TIP3    H234818   3.940   0.323   2.753
11625TIP3   OH234819   8.306   7.023   4.561
11625TIP3    H134820   8.372   7.034   4.493
11625TIP3    H234821   8.239   7.088   4.540
11626TIP3   OH234822   2.273   7.384   2.403
11626TIP3    H134823   2.229   7.323   2.462
11626TIP3    H234824   2.364   7.353   2.399
11627TIP3   OH234825   3.160   4.402   2.939
11627TIP3    H134826   3.065   4.402   2.941
11627TIP3    H234827   3.186   4.478   2.990
11628TIP3   OH234828   2.879   4.780   2.656
11628TIP3    H134829   2.845   4.846   2.717
11628TIP3    H234830   2.931   4.721   2.710
11629TIP3   OH234831   1.399   0.598   4.716
11629TIP3    H134832   1.338   0.526   4.731
11629TIP3    H234833   1.418   0.595   4.622
11630TIP3   OH234834   7.769   2.239   2.431
11630TIP3    H134835   7.824   2.176   2.477
11630TIP3    H234836   7.827   2.278   2.365
11631TIP3   OH234837   5.855   3.263   2.106
11631TIP3    H134838   5.772   3.218   2.120
11631TIP3    H234839   5.921   3.194   2.110
11632TIP3   OH234840   6.032   3.506   0.327
11632TIP3    H134841   6.019   3.456   0.247
11632TIP3    H234842   5.944   3.539   0.349
11633TIP3   OH234843   6.221   4.195   5.078
11633TIP3    H134844   6.174   4.122   5.117
11633TIP3    H234845   6.165   4.271   5.094
11634TIP3   OH234846   3.779   1.286   6.569
11634TIP3    H134847   3.848   1.286   6.502
11634TIP3    H234848   3.822   1.321   6.647
11635TIP3   OH234849   3.012   1.950   0.640
11635TIP3    H134850   3.050   1.864   0.624
11635TIP3    H234851   2.918   1.936   0.627
11636TIP3   OH234852   5.728   5.911   0.332
11636TIP3    H134853   5.727   5.835   0.273
11636TIP3    H234854   5.797   5.968   0.296
11637TIP3   OH234855   1.952   0.470   5.456
11637TIP3    H134856   1.867   0.438   5.486
11637TIP3    H234857   1.956   0.446   5.363
11638TIP3   OH234858   4.437   1.299   6.471
11638TIP3    H134859   4.393   1.249   6.540
11638TIP3    H234860   4.503   1.239   6.436
11639TIP3   OH234861   4.713   2.194   3.570
11639TIP3    H134862   4.695   2.287   3.555
11639TIP3    H234863   4.703   2.183   3.665
11640TIP3   OH234864   1.032   2.999   0.408
11640TIP3    H134865   1.023   2.974   0.316
11640TIP3    H234866   0.989   2.928   0.456
11641TIP3   OH234867   2.673   3.356   6.743
11641TIP3    H134868   2.696   3.264   6.730
11641TIP3    H234869   2.601   3.354   6.807
11642TIP3   OH234870   5.837   6.630   2.708
11642TIP3    H134871   5.898   6.609   2.638
11642TIP3    H234872   5.872   6.710   2.748
11643TIP3   OH234873   2.653   5.253   0.575
11643TIP3    H134874   2.745   5.280   0.576
11643TIP3    H234875   2.656   5.159   0.563
11644TIP3   OH234876   6.746   0.355   5.617
11644TIP3    H134877   6.704   0.432   5.655
11644TIP3    H234878   6.706   0.281   5.661
11645TIP3   OH234879   3.000   0.934   4.961
11645TIP3    H134880   2.912   0.967   4.939
11645TIP3    H234881   3.059   0.991   4.911
11646TIP3   OH234882   3.850   0.812   5.384
11646TIP3    H134883   3.937   0.847   5.399
11646TIP3    H234884   3.803   0.827   5.466
11647TIP3   OH234885   2.873   2.242   0.572
11647TIP3    H134886   2.894   2.149   0.576
11647TIP3    H234887   2.834   2.261   0.657
11648TIP3   OH234888   3.772   3.821   5.275
11648TIP3    H134889   3.843   3.775   5.321
11648TIP3    H234890   3.755   3.767   5.198
11649TIP3   OH234891   0.309   3.604   3.346
11649TIP3    H134892   0.366   3.620   3.422
11649TIP3    H234893   0.369   3.578   3.276
11650TIP3   OH234894   3.018   3.829   3.447
11650TIP3    H134895   3.079   3.888   3.403
11650TIP3    H234896   3.030   3.846   3.540
11651TIP3   OH234897   6.901   0.622   5.326
11651TIP3    H134898   6.843   0.548   5.309
11651TIP3    H234899   6.989   0.588   5.307
11652TIP3   OH234900   4.198   2.179   1.750
11652TIP3    H134901   4.123   2.220   1.706
11652TIP3    H234902   4.249   2.140   1.679
11653TIP3   OH234903   0.914   6.595   0.936
11653TIP3    H134904   0.855   6.528   0.902
11653TIP3    H234905   0.943   6.561   1.021
11654TIP3   OH234906   5.024   6.535   5.405
11654TIP3    H134907   4.967   6.516   5.479
11654TIP3    H234908   5.104   6.484   5.422
11655TIP3   OH234909   0.059   6.360   6.084
11655TIP3    H134910  -0.033   6.352   6.061
11655TIP3    H234911   0.106   6.318   6.012
11656TIP3   OH234912   1.926   1.650   1.525
11656TIP3    H134913   1.918   1.629   1.432
11656TIP3    H234914   1.854   1.710   1.543
11657TIP3   OH234915   6.629   5.542   5.849
11657TIP3    H134916   6.568   5.539   5.776
11657TIP3    H234917   6.593   5.480   5.913
11658TIP3   OH234918   3.349   1.448   3.844
11658TIP3    H134919   3.322   1.399   3.766
11658TIP3    H234920   3.308   1.534   3.832
11659TIP3   OH234921   7.937   7.647   4.497
11659TIP3    H134922   7.869   7.690   4.550
11659TIP3    H234923   8.013   7.644   4.555
11660TIP3   OH234924   8.119   2.840   6.789
11660TIP3    H134925   8.198   2.893   6.789
11660TIP3    H234926   8.056   2.890   6.738
11661TIP3   OH234927   1.961   4.708   3.990
11661TIP3    H134928   1.963   4.652   4.067
11661TIP3    H234929   1.903   4.663   3.929
11662TIP3   OH234930   5.896   4.723   3.557
11662TIP3    H134931   5.820   4.724   3.499
11662TIP3    H234932   5.862   4.694   3.642
11663TIP3   OH234933   5.005  -0.023   1.085
11663TIP3    H134934   5.035   0.013   1.001
11663TIP3    H234935   4.959   0.050   1.126
11664TIP3   OH234936   7.518   6.286   3.472
11664TIP3    H134937   7.474   6.227   3.411
11664TIP3    H234938   7.448   6.341   3.507
11665TIP3   OH234939   7.556   7.235   3.298
11665TIP3    H134940   7.576   7.141   3.294
11665TIP3    H234941   7.627   7.276   3.248
11666TIP3   OH234942   6.051   1.920   4.482
11666TIP3    H134943   5.969   1.921   4.433
11666TIP3    H234944   6.035   1.860   4.555
11667TIP3   OH234945   6.574   6.830   1.236
11667TIP3    H134946   6.573   6.739   1.265
11667TIP3    H234947   6.482   6.856   1.235
11668TIP3   OH234948   0.690   4.873   4.251
11668TIP3    H134949   0.689   4.862   4.156
11668TIP3    H234950   0.781   4.896   4.272
11669TIP3   OH234951   4.716   0.336   1.372
11669TIP3    H134952   4.671   0.412   1.410
11669TIP3    H234953   4.783   0.314   1.437
11670TIP3   OH234954   6.332   7.711   5.313
11670TIP3    H134955   6.312   7.677   5.400
11670TIP3    H234956   6.280   7.791   5.305
11671TIP3   OH234957   2.103   4.903   4.346
11671TIP3    H134958   2.088   4.909   4.252
11671TIP3    H234959   2.079   4.813   4.369
11672TIP3   OH234960   3.237   0.957   3.054
11672TIP3    H134961   3.208   0.885   3.111
11672TIP3    H234962   3.244   0.917   2.968
11673TIP3   OH234963   5.058   6.569   4.237
11673TIP3    H134964   4.971   6.545   4.268
11673TIP3    H234965   5.112   6.491   4.253
11674TIP3   OH234966   1.987   3.882   1.479
11674TIP3    H134967   2.068   3.926   1.452
11674TIP3    H234968   1.971   3.819   1.409
11675TIP3   OH234969   5.864   3.714   3.520
11675TIP3    H134970   5.944   3.672   3.490
11675TIP3    H234971   5.890   3.802   3.545
11676TIP3   OH234972   5.889   3.945   1.000
11676TIP3    H134973   5.898   4.003   1.076
11676TIP3    H234974   5.943   3.986   0.933
11677TIP3   OH234975   0.389   2.004   0.857
11677TIP3    H134976   0.329   2.025   0.929
11677TIP3    H234977   0.466   1.967   0.900
11678TIP3   OH234978   0.073   7.090   4.153
11678TIP3    H134979   0.009   7.045   4.208
11678TIP3    H234980   0.109   7.159   4.209
11679TIP3   OH234981   0.971   1.921   0.646
11679TIP3    H134982   1.004   1.975   0.574
11679TIP3    H234983   0.932   1.984   0.707
11680TIP3   OH234984   4.887   7.440   1.031
11680TIP3    H134985   4.877   7.494   0.953
11680TIP3    H234986   4.979   7.415   1.031
11681TIP3   OH234987   3.438   0.754   0.511
11681TIP3    H134988   3.348   0.764   0.540
11681TIP3    H234989   3.435   0.681   0.448
11682TIP3   OH234990   7.238   6.519   4.042
11682TIP3    H134991   7.160   6.565   4.072
11682TIP3    H234992   7.227   6.430   4.075
11683TIP3   OH234993   7.761   6.180   3.565
11683TIP3    H134994   7.679   6.228   3.551
11683TIP3    H234995   7.826   6.249   3.580
11684TIP3   OH234996   8.059   7.145   1.090
11684TIP3    H134997   8.000   7.175   1.021
11684TIP3    H234998   8.053   7.049   1.086
11685TIP3   OH234999   4.575   6.655   1.735
11685TIP3    H135000   4.644   6.589   1.742
11685TIP3    H235001   4.623   6.737   1.720
11686TIP3   OH235002   0.902   2.681   1.455
11686TIP3    H135003   0.891   2.665   1.549
11686TIP3    H235004   0.820   2.654   1.416
11687TIP3   OH235005   6.766   3.413   2.645
11687TIP3    H135006   6.724   3.473   2.706
11687TIP3    H235007   6.858   3.439   2.644
11688TIP3   OH235008   8.232   7.382   4.225
11688TIP3    H135009   8.198   7.468   4.204
11688TIP3    H235010   8.155   7.325   4.229
11689TIP3   OH235011   6.830   6.537   4.181
11689TIP3    H135012   6.836   6.553   4.087
11689TIP3    H235013   6.892   6.600   4.220
11690TIP3   OH235014   2.392   3.710   4.731
11690TIP3    H135015   2.460   3.653   4.695
11690TIP3    H235016   2.315   3.693   4.676
11691TIP3   OH235017   8.057   6.660   3.440
11691TIP3    H135018   8.119   6.604   3.486
11691TIP3    H235019   8.004   6.599   3.388
11692TIP3   OH235020   7.050   1.769   3.621
11692TIP3    H135021   6.966   1.738   3.589
11692TIP3    H235022   7.057   1.859   3.590
11693TIP3   OH235023   7.213   3.921   6.304
11693TIP3    H135024   7.168   3.844   6.269
11693TIP3    H235025   7.147   3.990   6.302
11694TIP3   OH235026   0.972   5.545   2.952
11694TIP3    H135027   0.946   5.458   2.983
11694TIP3    H235028   0.893   5.598   2.962
11695TIP3   OH235029   2.768   4.486   3.973
11695TIP3    H135030   2.830   4.509   4.042
11695TIP3    H235031   2.739   4.570   3.938
11696TIP3   OH235032   4.663   2.510   2.767
11696TIP3    H135033   4.592   2.538   2.824
11696TIP3    H235034   4.621   2.456   2.700
11697TIP3   OH235035   0.097   7.200   6.468
11697TIP3    H135036   0.073   7.128   6.527
11697TIP3    H235037   0.129   7.269   6.526
11698TIP3   OH235038   3.018   5.529   3.745
11698TIP3    H135039   2.999   5.467   3.675
11698TIP3    H235040   2.948   5.594   3.739
11699TIP3   OH235041   4.662   6.221   4.769
11699TIP3    H135042   4.581   6.269   4.752
11699TIP3    H235043   4.663   6.210   4.864
11700TIP3   OH235044   1.990   3.226   5.245
11700TIP3    H135045   1.966   3.248   5.335
11700TIP3    H235046   2.081   3.197   5.252
11701TIP3   OH235047   2.003   6.342   1.884
11701TIP3    H135048   2.063   6.282   1.928
11701TIP3    H235049   1.972   6.399   1.953
11702TIP3   OH235050   2.575   4.744   3.994
11702TIP3    H135051   2.567   4.837   4.014
11702TIP3    H235052   2.597   4.703   4.078
11703TIP3   OH235053   1.336   2.917   2.282
11703TIP3    H135054   1.311   3.009   2.278
11703TIP3    H235055   1.297   2.879   2.202
11704TIP3   OH235056   4.430   0.830   0.726
11704TIP3    H135057   4.478   0.912   0.737
11704TIP3    H235058   4.489   0.763   0.761
11705TIP3   OH235059   6.982   5.403   3.179
11705TIP3    H135060   6.990   5.311   3.154
11705TIP3    H235061   7.040   5.449   3.119
11706TIP3   OH235062   1.191   4.180   3.137
11706TIP3    H135063   1.095   4.182   3.141
11706TIP3    H235064   1.215   4.103   3.187
11707TIP3   OH235065   2.379   4.469   4.454
11707TIP3    H135066   2.387   4.550   4.505
11707TIP3    H235067   2.289   4.439   4.471
11708TIP3   OH235068   3.738   0.794   0.080
11708TIP3    H135069   3.788   0.860   0.032
11708TIP3    H235070   3.695   0.844   0.150
11709TIP3   OH235071   5.630   0.253   3.222
11709TIP3    H135072   5.695   0.191   3.254
11709TIP3    H235073   5.680   0.316   3.170
11710TIP3   OH235074   2.658   6.411   2.418
11710TIP3    H135075   2.698   6.404   2.505
11710TIP3    H235076   2.694   6.337   2.369
11711TIP3   OH235077   3.655   0.257   6.555
11711TIP3    H135078   3.619   0.277   6.469
11711TIP3    H235079   3.662   0.161   6.555
11712TIP3   OH235080   2.124   6.712   2.429
11712TIP3    H135081   2.065   6.753   2.492
11712TIP3    H235082   2.206   6.702   2.476
11713TIP3   OH235083   4.872   5.756   2.800
11713TIP3    H135084   4.838   5.674   2.836
11713TIP3    H235085   4.943   5.728   2.742
11714TIP3   OH235086   2.943   4.288   3.825
11714TIP3    H135087   2.869   4.342   3.853
11714TIP3    H235088   2.943   4.214   3.887
11715TIP3   OH235089   1.340   4.548   5.522
11715TIP3    H135090   1.252   4.577   5.546
11715TIP3    H235091   1.397   4.621   5.545
11716TIP3   OH235092   7.221   0.846   5.313
11716TIP3    H135093   7.129   0.872   5.321
11716TIP3    H235094   7.227   0.808   5.225
11717TIP3   OH235095   2.079   4.271   0.045
11717TIP3    H135096   2.170   4.301   0.035
11717TIP3    H235097   2.049   4.314   0.126
11718TIP3   OH235098   1.280   6.287   2.518
11718TIP3    H135099   1.219   6.360   2.505
11718TIP3    H235100   1.314   6.301   2.607
11719TIP3   OH235101   3.595   1.461   3.391
11719TIP3    H135102   3.525   1.524   3.372
11719TIP3    H235103   3.601   1.460   3.487
11720TIP3   OH235104   7.006   6.562   2.509
11720TIP3    H135105   7.004   6.516   2.592
11720TIP3    H235106   6.925   6.535   2.464
11721TIP3   OH235107   4.364   7.523   6.249
11721TIP3    H135108   4.269   7.525   6.258
11721TIP3    H235109   4.383   7.439   6.208
11722TIP3   OH235110   1.599   5.210   4.430
11722TIP3    H135111   1.634   5.132   4.473
11722TIP3    H235112   1.505   5.196   4.426
11723TIP3   OH235113   0.309   6.969   4.318
11723TIP3    H135114   0.380   6.957   4.381
11723TIP3    H235115   0.277   7.058   4.334
11724TIP3   OH235116   5.330   0.745   0.511
11724TIP3    H135117   5.283   0.811   0.562
11724TIP3    H235118   5.390   0.795   0.455
11725TIP3   OH235119   1.697   1.702   5.075
11725TIP3    H135120   1.633   1.739   5.135
11725TIP3    H235121   1.669   1.611   5.063
11726TIP3   OH235122   1.643   7.688   4.034
11726TIP3    H135123   1.654   7.681   4.129
11726TIP3    H235124   1.709   7.629   3.997
11727TIP3   OH235125   6.547   4.620   2.383
11727TIP3    H135126   6.457   4.603   2.353
11727TIP3    H235127   6.586   4.534   2.393
11728TIP3   OH235128   1.859   2.663   2.183
11728TIP3    H135129   1.818   2.723   2.120
11728TIP3    H235130   1.845   2.705   2.268
11729TIP3   OH235131   1.033   3.417   2.933
11729TIP3    H135132   1.025   3.348   2.867
11729TIP3    H235133   1.012   3.498   2.886
11730TIP3   OH235134   2.162   1.828   2.252
11730TIP3    H135135   2.162   1.923   2.268
11730TIP3    H235136   2.073   1.800   2.271
11731TIP3   OH235137   2.897   0.470   5.032
11731TIP3    H135138   2.846   0.408   4.980
11731TIP3    H235139   2.865   0.556   5.005
11732TIP3   OH235140   1.471   5.490   1.567
11732TIP3    H135141   1.406   5.500   1.636
11732TIP3    H235142   1.457   5.402   1.532
11733TIP3   OH235143   0.456   6.676   4.485
11733TIP3    H135144   0.384   6.682   4.548
11733TIP3    H235145   0.479   6.584   4.483
11734TIP3   OH235146   3.652   6.514   3.323
11734TIP3    H135147   3.599   6.549   3.396
11734TIP3    H235148   3.651   6.420   3.336
11735TIP3   OH235149   0.286   7.759   0.532
11735TIP3    H135150   0.214   7.782   0.474
11735TIP3    H235151   0.319   7.676   0.497
11736TIP3   OH235152   3.055   2.869   4.276
11736TIP3    H135153   3.012   2.954   4.289
11736TIP3    H235154   3.137   2.877   4.324
11737TIP3   OH235155   5.955   3.140   0.045
11737TIP3    H135156   5.930   3.076   0.112
11737TIP3    H235157   6.036   3.104   0.008
11738TIP3   OH235158   3.095   2.362   6.253
11738TIP3    H135159   3.147   2.291   6.291
11738TIP3    H235160   3.090   2.428   6.322
11739TIP3   OH235161   5.533   4.118   0.458
11739TIP3    H135162   5.611   4.167   0.431
11739TIP3    H235163   5.473   4.184   0.492
11740TIP3   OH235164   7.745   1.927   6.055
11740TIP3    H135165   7.813   1.862   6.068
11740TIP3    H235166   7.768   1.998   6.116
11741TIP3   OH235167   2.139   4.819   2.078
11741TIP3    H135168   2.109   4.803   2.167
11741TIP3    H235169   2.060   4.811   2.024
11742TIP3   OH235170   4.545   5.443   3.249
11742TIP3    H135171   4.505   5.373   3.301
11742TIP3    H235172   4.534   5.414   3.158
11743TIP3   OH235173   1.860   7.375   6.622
11743TIP3    H135174   1.873   7.419   6.538
11743TIP3    H235175   1.796   7.306   6.602
11744TIP3   OH235176   6.042   6.688   4.689
11744TIP3    H135177   6.108   6.675   4.622
11744TIP3    H235178   6.084   6.744   4.754
11745TIP3   OH235179   2.041   6.732   0.541
11745TIP3    H135180   1.984   6.804   0.513
11745TIP3    H235181   2.072   6.693   0.460
11746TIP3   OH235182   7.568   1.716   1.439
11746TIP3    H135183   7.538   1.649   1.377
11746TIP3    H235184   7.593   1.790   1.383
11747TIP3   OH235185   2.252   2.971   5.877
11747TIP3    H135186   2.259   3.007   5.788
11747TIP3    H235187   2.331   2.918   5.888
11748TIP3   OH235188   0.928   7.251   3.244
11748TIP3    H135189   0.887   7.336   3.255
11748TIP3    H235190   0.866   7.201   3.191
11749TIP3   OH235191   5.134   6.135   2.244
11749TIP3    H135192   5.098   6.154   2.331
11749TIP3    H235193   5.089   6.195   2.185
11750TIP3   OH235194   7.704   7.342   4.044
11750TIP3    H135195   7.635   7.317   3.982
11750TIP3    H235196   7.663   7.409   4.099
11751TIP3   OH235197   1.038   1.232   0.840
11751TIP3    H135198   1.012   1.300   0.901
11751TIP3    H235199   1.050   1.154   0.895
11752TIP3   OH235200   2.676   6.219   6.582
11752TIP3    H135201   2.668   6.134   6.538
11752TIP3    H235202   2.622   6.278   6.529
11753TIP3   OH235203   4.491   2.721   4.692
11753TIP3    H135204   4.549   2.647   4.677
11753TIP3    H235205   4.444   2.732   4.610
11754TIP3   OH235206   6.255   5.502   3.629
11754TIP3    H135207   6.266   5.486   3.722
11754TIP3    H235208   6.255   5.415   3.589
11755TIP3   OH235209   7.007   2.553   2.645
11755TIP3    H135210   7.074   2.487   2.666
11755TIP3    H235211   7.056   2.623   2.602
11756TIP3   OH235212   7.284   0.343   0.898
11756TIP3    H135213   7.322   0.430   0.910
11756TIP3    H235214   7.322   0.311   0.816
11757TIP3   OH235215   7.317   3.205   6.071
11757TIP3    H135216   7.360   3.126   6.039
11757TIP3    H235217   7.332   3.205   6.165
11758TIP3   OH235218   2.796   7.298   3.663
11758TIP3    H135219   2.711   7.342   3.667
11758TIP3    H235220   2.814   7.274   3.753
11759TIP3   OH235221   2.914   0.608   5.298
11759TIP3    H135222   2.914   0.698   5.266
11759TIP3    H235223   2.936   0.555   5.222
11760TIP3   OH235224   4.610   7.448   3.831
11760TIP3    H135225   4.632   7.420   3.920
11760TIP3    H235226   4.518   7.425   3.821
11761TIP3   OH235227   4.000   7.274   2.562
11761TIP3    H135228   4.029   7.186   2.538
11761TIP3    H235229   4.016   7.280   2.656
11762TIP3   OH235230   3.492   1.238   0.109
11762TIP3    H135231   3.569   1.217   0.163
11762TIP3    H235232   3.501   1.332   0.091
11763TIP3   OH235233   1.720   7.296   3.104
11763TIP3    H135234   1.682   7.271   3.188
11763TIP3    H235235   1.682   7.234   3.041
11764TIP3   OH235236   5.623   5.459   3.769
11764TIP3    H135237   5.709   5.419   3.773
11764TIP3    H235238   5.578   5.412   3.698
11765TIP3   OH235239   4.164   4.661   1.757
11765TIP3    H135240   4.153   4.674   1.851
11765TIP3    H235241   4.183   4.748   1.723
11766TIP3   OH235242   2.492   5.796   0.151
11766TIP3    H135243   2.542   5.753   0.083
11766TIP3    H235244   2.471   5.882   0.115
11767TIP3   OH235245   3.301   1.201   5.357
11767TIP3    H135246   3.262   1.119   5.326
11767TIP3    H235247   3.275   1.266   5.291
11768TIP3   OH235248   3.968   5.005   2.739
11768TIP3    H135249   4.041   5.065   2.751
11768TIP3    H235250   3.904   5.054   2.688
11769TIP3   OH235251   4.978   0.450   4.369
11769TIP3    H135252   4.980   0.487   4.458
11769TIP3    H235253   4.895   0.479   4.333
11770TIP3   OH235254   8.257   0.153   4.229
11770TIP3    H135255   8.325   0.219   4.240
11770TIP3    H235256   8.295   0.074   4.267
11771TIP3   OH235257   3.231   5.139   1.043
11771TIP3    H135258   3.263   5.220   1.003
11771TIP3    H235259   3.185   5.168   1.121
11772TIP3   OH235260   3.457   0.259   2.138
11772TIP3    H135261   3.434   0.342   2.179
11772TIP3    H235262   3.377   0.206   2.143
11773TIP3   OH235263   0.189   6.056   3.652
11773TIP3    H135264   0.155   6.044   3.741
11773TIP3    H235265   0.113   6.043   3.596
11774TIP3   OH235266   6.899   6.608   1.698
11774TIP3    H135267   6.956   6.659   1.640
11774TIP3    H235268   6.811   6.635   1.674
11775TIP3   OH235269   0.696   1.689   4.395
11775TIP3    H135270   0.701   1.714   4.303
11775TIP3    H235271   0.603   1.681   4.413
11776TIP3   OH235272   6.163   3.565  -0.003
11776TIP3    H135273   6.175   3.627   0.068
11776TIP3    H235274   6.199   3.483   0.031
11777TIP3   OH235275   6.716   2.705   0.739
11777TIP3    H135276   6.699   2.657   0.658
11777TIP3    H235277   6.634   2.699   0.788
11778TIP3   OH235278   7.820   0.758   0.772
11778TIP3    H135279   7.882   0.814   0.725
11778TIP3    H235280   7.814   0.678   0.719
11779TIP3   OH235281   5.262   1.855   4.267
11779TIP3    H135282   5.316   1.827   4.193
11779TIP3    H235283   5.249   1.949   4.254
11780TIP3   OH235284   7.039   4.605   6.719
11780TIP3    H135285   6.978   4.575   6.786
11780TIP3    H235286   6.990   4.600   6.637
11781TIP3   OH235287   2.734   0.653   4.879
11781TIP3    H135288   2.752   0.743   4.851
11781TIP3    H235289   2.646   0.655   4.915
11782TIP3   OH235290   8.237   4.936   1.594
11782TIP3    H135291   8.181   4.984   1.656
11782TIP3    H235292   8.185   4.860   1.569
11783TIP3   OH235293   2.186   2.091   2.224
11783TIP3    H135294   2.238   2.054   2.152
11783TIP3    H235295   2.100   2.106   2.186
11784TIP3   OH235296   4.030   0.263   5.685
11784TIP3    H135297   4.048   0.202   5.613
11784TIP3    H235298   3.936   0.280   5.679
11785TIP3   OH235299   6.657   0.219   3.052
11785TIP3    H135300   6.731   0.163   3.027
11785TIP3    H235301   6.638   0.194   3.142
11786TIP3   OH235302   1.923   6.588   0.991
11786TIP3    H135303   1.915   6.508   1.043
11786TIP3    H235304   1.917   6.558   0.900
11787TIP3   OH235305   1.266   4.942   6.120
11787TIP3    H135306   1.235   5.017   6.069
11787TIP3    H235307   1.209   4.871   6.094
11788TIP3   OH235308   0.395   3.593   0.834
11788TIP3    H135309   0.390   3.616   0.927
11788TIP3    H235310   0.315   3.629   0.796
11789TIP3   OH235311   7.994   1.883   2.352
11789TIP3    H135312   8.065   1.858   2.410
11789TIP3    H235313   8.033   1.884   2.264
11790TIP3   OH235314   7.713   6.448   2.327
11790TIP3    H135315   7.666   6.440   2.410
11790TIP3    H235316   7.699   6.538   2.300
11791TIP3   OH235317   7.659   1.500   6.698
11791TIP3    H135318   7.675   1.540   6.784
11791TIP3    H235319   7.725   1.539   6.641
11792TIP3   OH235320   5.166   6.432   0.358
11792TIP3    H135321   5.140   6.496   0.293
11792TIP3    H235322   5.119   6.352   0.334
11793TIP3   OH235323   6.126   6.703   1.078
11793TIP3    H135324   6.033   6.709   1.056
11793TIP3    H235325   6.171   6.703   0.994
11794TIP3   OH235326   3.712   3.855   0.392
11794TIP3    H135327   3.683   3.946   0.398
11794TIP3    H235328   3.790   3.859   0.337
11795TIP3   OH235329   5.710   1.119   0.171
11795TIP3    H135330   5.797   1.082   0.185
11795TIP3    H235331   5.709   1.144   0.078
11796TIP3   OH235332   5.820   2.246   5.588
11796TIP3    H135333   5.867   2.215   5.665
11796TIP3    H235334   5.868   2.325   5.561
11797TIP3   OH235335   1.919   3.176   3.424
11797TIP3    H135336   1.824   3.167   3.431
11797TIP3    H235337   1.931   3.253   3.368
11798TIP3   OH235338   5.064   7.524   4.184
11798TIP3    H135339   5.137   7.572   4.224
11798TIP3    H235340   5.102   7.482   4.107
11799TIP3   OH235341   3.742   5.416   6.261
11799TIP3    H135342   3.688   5.465   6.322
11799TIP3    H235343   3.820   5.392   6.312
11800TIP3   OH235344   3.218   7.076   3.257
11800TIP3    H135345   3.150   7.015   3.286
11800TIP3    H235346   3.203   7.086   3.163
11801TIP3   OH235347   0.223   2.000   5.023
11801TIP3    H135348   0.135   1.964   5.036
11801TIP3    H235349   0.274   1.927   4.991
11802TIP3   OH235350   3.559   6.009   2.881
11802TIP3    H135351   3.483   6.034   2.828
11802TIP3    H235352   3.626   5.986   2.816
11803TIP3   OH235353   6.623   6.904   3.503
11803TIP3    H135354   6.640   6.999   3.501
11803TIP3    H235355   6.657   6.872   3.420
11804TIP3   OH235356   0.557   2.787   3.613
11804TIP3    H135357   0.539   2.873   3.576
11804TIP3    H235358   0.525   2.792   3.703
11805TIP3   OH235359   4.745   5.313   2.057
11805TIP3    H135360   4.686   5.350   1.993
11805TIP3    H235361   4.710   5.226   2.076
11806TIP3   OH235362   3.466   2.156   2.705
11806TIP3    H135363   3.462   2.096   2.630
11806TIP3    H235364   3.381   2.200   2.704
11807TIP3   OH235365   3.280   1.699   6.548
11807TIP3    H135366   3.186   1.685   6.541
11807TIP3    H235367   3.292   1.792   6.528
11808TIP3   OH235368   5.464   4.469   1.474
11808TIP3    H135369   5.430   4.458   1.563
11808TIP3    H235370   5.559   4.463   1.483
11809TIP3   OH235371   4.812   6.389   5.141
11809TIP3    H135372   4.902   6.421   5.141
11809TIP3    H235373   4.762   6.458   5.097
11810TIP3   OH235374   2.037   2.152   6.167
11810TIP3    H135375   1.949   2.189   6.156
11810TIP3    H235376   2.029   2.092   6.241
11811TIP3   OH235377   7.690   3.015   2.940
11811TIP3    H135378   7.680   2.962   2.861
11811TIP3    H235379   7.629   2.976   3.003
11812TIP3   OH235380   5.346   3.217   6.302
11812TIP3    H135381   5.311   3.298   6.265
11812TIP3    H235382   5.270   3.160   6.312
11813TIP3   OH235383   8.072   4.868   4.620
11813TIP3    H135384   8.162   4.841   4.639
11813TIP3    H235385   8.017   4.802   4.663
11814TIP3   OH235386   4.001   0.214   5.399
11814TIP3    H135387   3.965   0.125   5.396
11814TIP3    H235388   3.954   0.262   5.331
11815TIP3   OH235389   6.764   5.846   2.890
11815TIP3    H135390   6.761   5.884   2.802
11815TIP3    H235391   6.708   5.769   2.885
11816TIP3   OH235392   4.307   0.436   4.089
11816TIP3    H135393   4.229   0.390   4.120
11816TIP3    H235394   4.356   0.370   4.040
11817TIP3   OH235395   0.923   7.460   6.540
11817TIP3    H135396   0.983   7.466   6.614
11817TIP3    H235397   0.959   7.520   6.474
11818TIP3   OH235398   2.197   1.647   3.525
11818TIP3    H135399   2.115   1.646   3.574
11818TIP3    H235400   2.170   1.648   3.433
11819TIP3   OH235401   0.176   0.750   5.621
11819TIP3    H135402   0.212   0.805   5.552
11819TIP3    H235403   0.253   0.721   5.671
11820TIP3   OH235404   5.551   5.185   5.425
11820TIP3    H135405   5.632   5.152   5.385
11820TIP3    H235406   5.528   5.261   5.372
11821TIP3   OH235407   1.518   0.160   1.369
11821TIP3    H135408   1.581   0.215   1.322
11821TIP3    H235409   1.439   0.213   1.375
11822TIP3   OH235410   4.326   1.755   2.247
11822TIP3    H135411   4.306   1.665   2.275
11822TIP3    H235412   4.265   1.810   2.297
11823TIP3   OH235413   2.588   2.792   4.673
11823TIP3    H135414   2.670   2.790   4.625
11823TIP3    H235415   2.588   2.877   4.718
11824TIP3   OH235416   3.718   0.364   3.887
11824TIP3    H135417   3.705   0.352   3.793
11824TIP3    H235418   3.739   0.457   3.898
11825TIP3   OH235419   7.067   7.817   6.498
11825TIP3    H135420   7.161   7.806   6.515
11825TIP3    H235421   7.033   7.859   6.577
11826TIP3   OH235422   0.490   5.134   4.600
11826TIP3    H135423   0.484   5.228   4.580
11826TIP3    H235424   0.452   5.126   4.687
11827TIP3   OH235425   4.519   3.323   3.695
11827TIP3    H135426   4.560   3.241   3.669
11827TIP3    H235427   4.556   3.342   3.782
11828TIP3   OH235428   5.885   3.053   5.733
11828TIP3    H135429   5.817   3.001   5.692
11828TIP3    H235430   5.904   3.123   5.670
11829TIP3   OH235431   7.089   5.382   4.315
11829TIP3    H135432   7.074   5.436   4.393
11829TIP3    H235433   7.076   5.442   4.242
11830TIP3   OH235434   4.938   6.937   3.058
11830TIP3    H135435   4.879   6.865   3.079
11830TIP3    H235436   4.880   7.011   3.040
11831TIP3   OH235437   4.769   5.090   4.520
11831TIP3    H135438   4.685   5.043   4.525
11831TIP3    H235439   4.769   5.146   4.598
11832TIP3   OH235440   5.807   4.391   5.188
11832TIP3    H135441   5.861   4.360   5.115
11832TIP3    H235442   5.760   4.467   5.152
11833TIP3   OH235443   3.859   0.997   1.613
11833TIP3    H135444   3.826   1.081   1.646
11833TIP3    H235445   3.940   0.981   1.661
11834TIP3   OH235446   7.012   7.507   2.506
11834TIP3    H135447   6.998   7.516   2.412
11834TIP3    H235448   6.931   7.541   2.545
11835TIP3   OH235449   6.628   4.123   4.816
11835TIP3    H135450   6.541   4.161   4.818
11835TIP3    H235451   6.658   4.137   4.726
11836TIP3   OH235452   0.786   4.679   5.196
11836TIP3    H135453   0.839   4.716   5.125
11836TIP3    H235454   0.723   4.622   5.151
11837TIP3   OH235455   8.247   5.026   6.254
11837TIP3    H135456   8.241   5.075   6.173
11837TIP3    H235457   8.181   4.957   6.245
11838TIP3   OH235458   7.870   4.354   1.906
11838TIP3    H135459   7.857   4.299   1.983
11838TIP3    H235460   7.849   4.297   1.831
11839TIP3   OH235461   4.319   5.993   0.370
11839TIP3    H135462   4.264   5.956   0.301
11839TIP3    H235463   4.257   6.018   0.439
11840TIP3   OH235464   4.687   1.740   2.953
11840TIP3    H135465   4.687   1.835   2.968
11840TIP3    H235466   4.611   1.725   2.896
11841TIP3   OH235467   7.061   7.122   3.099
11841TIP3    H135468   7.033   7.084   3.183
11841TIP3    H235469   7.148   7.158   3.117
11842TIP3   OH235470   7.873   4.594   1.268
11842TIP3    H135471   7.832   4.511   1.244
11842TIP3    H235472   7.944   4.605   1.204
11843TIP3   OH235473   2.856   7.697   2.301
11843TIP3    H135474   2.786   7.634   2.284
11843TIP3    H235475   2.914   7.691   2.225
11844TIP3   OH235476   2.143   3.613   6.166
11844TIP3    H135477   2.144   3.671   6.242
11844TIP3    H235478   2.051   3.610   6.139
11845TIP3   OH235479   1.731   5.776   4.188
11845TIP3    H135480   1.788   5.702   4.167
11845TIP3    H235481   1.771   5.816   4.265
11846TIP3   OH235482   2.221   4.301   2.071
11846TIP3    H135483   2.281   4.348   2.128
11846TIP3    H235484   2.154   4.366   2.048
11847TIP3   OH235485   1.820   1.240   1.045
11847TIP3    H135486   1.751   1.218   0.983
11847TIP3    H235487   1.840   1.332   1.028
11848TIP3   OH235488   8.239   6.438   2.872
11848TIP3    H135489   8.234   6.453   2.966
11848TIP3    H235490   8.151   6.410   2.848
11849TIP3   OH235491   7.453   7.801   4.441
11849TIP3    H135492   7.360   7.820   4.430
11849TIP3    H235493   7.496   7.847   4.370
11850TIP3   OH235494   5.086   4.321   0.479
11850TIP3    H135495   5.099   4.245   0.422
11850TIP3    H235496   5.124   4.296   0.563
11851TIP3   OH235497   1.992   2.249   4.756
11851TIP3    H135498   1.910   2.268   4.712
11851TIP3    H235499   1.991   2.305   4.834
11852TIP3   OH235500   6.249   4.009   2.551
11852TIP3    H135501   6.216   4.066   2.620
11852TIP3    H235502   6.318   3.958   2.593
11853TIP3   OH235503   1.203   6.904   3.960
11853TIP3    H135504   1.160   6.823   3.988
11853TIP3    H235505   1.174   6.917   3.870
11854TIP3   OH235506   1.980   2.907   4.887
11854TIP3    H135507   2.056   2.895   4.945
11854TIP3    H235508   1.911   2.853   4.926
11855TIP3   OH235509   0.924   3.618   2.810
11855TIP3    H135510   0.931   3.713   2.803
11855TIP3    H235511   0.844   3.603   2.861
11856TIP3   OH235512   3.454   7.679   6.703
11856TIP3    H135513   3.430   7.755   6.649
11856TIP3    H235514   3.519   7.632   6.651
11857TIP3   OH235515   1.145   7.334   4.797
11857TIP3    H135516   1.166   7.353   4.889
11857TIP3    H235517   1.229   7.343   4.751
11858TIP3   OH235518   1.806   1.255   3.877
11858TIP3    H135519   1.780   1.296   3.960
11858TIP3    H235520   1.787   1.322   3.811
11859TIP3   OH235521   0.014   0.337   6.489
11859TIP3    H135522  -0.050   0.268   6.480
11859TIP3    H235523   0.087   0.311   6.432
11860TIP3   OH235524   8.142   3.849   5.292
11860TIP3    H135525   8.086   3.808   5.226
11860TIP3    H235526   8.221   3.873   5.243
11861TIP3   OH235527   6.738   5.900   5.410
11861TIP3    H135528   6.680   5.828   5.436
11861TIP3    H235529   6.752   5.887   5.316
11862TIP3   OH235530   3.312   6.241   2.457
11862TIP3    H135531   3.355   6.312   2.411
11862TIP3    H235532   3.223   6.238   2.421
11863TIP3   OH235533   1.904   2.018   4.165
11863TIP3    H135534   1.908   2.018   4.261
11863TIP3    H235535   1.819   2.058   4.145
11864TIP3   OH235536   7.257   4.069   5.976
11864TIP3    H135537   7.188   4.003   5.974
11864TIP3    H235538   7.223   4.137   6.035
11865TIP3   OH235539   2.360   6.250   4.203
11865TIP3    H135540   2.290   6.214   4.148
11865TIP3    H235541   2.440   6.209   4.171
11866TIP3   OH235542   7.766   6.573   6.392
11866TIP3    H135543   7.715   6.623   6.456
11866TIP3    H235544   7.798   6.638   6.330
11867TIP3   OH235545   3.664   2.174   1.017
11867TIP3    H135546   3.698   2.231   1.085
11867TIP3    H235547   3.705   2.206   0.936
11868TIP3   OH235548   4.540   7.364   0.880
11868TIP3    H135549   4.510   7.437   0.826
11868TIP3    H235550   4.616   7.329   0.834
11869TIP3   OH235551   1.927   6.918   4.688
11869TIP3    H135552   1.908   6.825   4.676
11869TIP3    H235553   1.984   6.941   4.615
11870TIP3   OH235554   0.670   3.523   3.899
11870TIP3    H135555   0.584   3.558   3.876
11870TIP3    H235556   0.702   3.582   3.967
11871TIP3   OH235557   5.347   4.687   4.075
11871TIP3    H135558   5.424   4.665   4.127
11871TIP3    H235559   5.298   4.748   4.130
11872TIP3   OH235560   0.214   0.154   5.035
11872TIP3    H135561   0.237   0.239   4.999
11872TIP3    H235562   0.143   0.173   5.097
11873TIP3   OH235563   2.248   4.323   0.828
11873TIP3    H135564   2.277   4.385   0.895
11873TIP3    H235565   2.297   4.243   0.848
11874TIP3   OH235566   1.697   6.054   5.151
11874TIP3    H135567   1.746   5.999   5.091
11874TIP3    H235568   1.737   6.038   5.236
11875TIP3   OH235569   5.979   4.532   0.039
11875TIP3    H135570   5.934   4.612   0.066
11875TIP3    H235571   5.939   4.462   0.092
11876TIP3   OH235572   2.033   0.473   0.180
11876TIP3    H135573   1.941   0.481   0.208
11876TIP3    H235574   2.059   0.385   0.207
11877TIP3   OH235575   4.686   5.532   4.552
11877TIP3    H135576   4.670   5.452   4.602
11877TIP3    H235577   4.680   5.504   4.460
11878TIP3   OH235578   1.259   7.058   4.935
11878TIP3    H135579   1.225   7.141   4.969
11878TIP3    H235580   1.191   6.994   4.959
11879TIP3   OH235581   6.432   2.921   0.751
11879TIP3    H135582   6.453   2.834   0.787
11879TIP3    H235583   6.370   2.904   0.680
11880TIP3   OH235584   8.165   5.095   5.363
11880TIP3    H135585   8.116   5.086   5.445
11880TIP3    H235586   8.123   5.168   5.318
11881TIP3   OH235587   3.688   0.846   0.571
11881TIP3    H135588   3.724   0.758   0.589
11881TIP3    H235589   3.593   0.834   0.573
11882TIP3   OH235590   5.585   0.256   3.880
11882TIP3    H135591   5.506   0.215   3.915
11882TIP3    H235592   5.611   0.319   3.948
11883TIP3   OH235593   1.643   7.293   1.027
11883TIP3    H135594   1.639   7.232   1.101
11883TIP3    H235595   1.735   7.318   1.021
11884TIP3   OH235596   5.725   0.336   6.259
11884TIP3    H135597   5.695   0.302   6.344
11884TIP3    H235598   5.748   0.259   6.209
11885TIP3   OH235599   3.348   1.948   4.125
11885TIP3    H135600   3.312   1.978   4.042
11885TIP3    H235601   3.317   1.858   4.134
11886TIP3   OH235602   5.542   7.668   5.739
11886TIP3    H135603   5.605   7.623   5.796
11886TIP3    H235604   5.536   7.756   5.775
11887TIP3   OH235605   7.222   7.850   3.747
11887TIP3    H135606   7.187   7.762   3.731
11887TIP3    H235607   7.163   7.908   3.698
11888TIP3   OH235608   5.500   4.156   4.238
11888TIP3    H135609   5.511   4.069   4.274
11888TIP3    H235610   5.583   4.201   4.255
11889TIP3   OH235611   7.582   1.552   0.910
11889TIP3    H135612   7.526   1.539   0.833
11889TIP3    H235613   7.545   1.494   0.977
11890TIP3   OH235614   8.012   2.441   2.977
11890TIP3    H135615   7.974   2.389   2.906
11890TIP3    H235616   7.996   2.532   2.952
11891TIP3   OH235617   5.037   4.059   2.297
11891TIP3    H135618   4.953   4.101   2.317
11891TIP3    H235619   5.089   4.071   2.377
11892TIP3   OH235620   1.403   3.771   4.640
11892TIP3    H135621   1.346   3.714   4.690
11892TIP3    H235622   1.356   3.854   4.635
11893TIP3   OH235623   6.755   1.210   0.750
11893TIP3    H135624   6.660   1.206   0.761
11893TIP3    H235625   6.768   1.232   0.657
11894TIP3   OH235626   2.217   0.261  -0.003
11894TIP3    H135627   2.269   0.340  -0.011
11894TIP3    H235628   2.263   0.207   0.062
11895TIP3   OH235629   2.432   5.617   4.926
11895TIP3    H135630   2.396   5.660   4.848
11895TIP3    H235631   2.442   5.526   4.901
11896TIP3   OH235632   2.866   5.267   4.155
11896TIP3    H135633   2.825   5.233   4.234
11896TIP3    H235634   2.849   5.361   4.157
11897TIP3   OH235635   7.387   1.164   5.958
11897TIP3    H135636   7.319   1.232   5.961
11897TIP3    H235637   7.405   1.151   5.865
11898TIP3   OH235638   7.182   2.026   1.225
11898TIP3    H135639   7.245   2.077   1.276
11898TIP3    H235640   7.217   1.937   1.226
11899TIP3   OH235641   4.146   7.414   6.442
11899TIP3    H135642   4.055   7.385   6.443
11899TIP3    H235643   4.161   7.453   6.529
11900TIP3   OH235644   1.744   2.054   6.213
11900TIP3    H135645   1.747   2.006   6.130
11900TIP3    H235646   1.743   2.146   6.187
11901TIP3   OH235647   2.608   3.685   5.234
11901TIP3    H135648   2.524   3.639   5.235
11901TIP3    H235649   2.674   3.616   5.230
11902TIP3   OH235650   6.721   4.064   1.670
11902TIP3    H135651   6.779   4.057   1.746
11902TIP3    H235652   6.647   4.007   1.691
11903TIP3   OH235653   4.194   5.193   3.978
11903TIP3    H135654   4.208   5.108   4.020
11903TIP3    H235655   4.275   5.241   3.994
11904TIP3   OH235656   8.262   3.410   4.199
11904TIP3    H135657   8.344   3.440   4.237
11904TIP3    H235658   8.206   3.487   4.199
11905TIP3   OH235659   5.571   6.567   5.420
11905TIP3    H135660   5.585   6.657   5.389
11905TIP3    H235661   5.483   6.568   5.458
11906TIP3   OH235662   4.867   6.188   1.853
11906TIP3    H135663   4.917   6.242   1.791
11906TIP3    H235664   4.920   6.110   1.865
11907TIP3   OH235665   7.777   5.323   2.703
11907TIP3    H135666   7.700   5.380   2.696
11907TIP3    H235667   7.827   5.358   2.777
11908TIP3   OH235668   1.930   5.973   4.296
11908TIP3    H135669   1.898   6.028   4.368
11908TIP3    H235670   1.923   5.884   4.329
11909TIP3   OH235671   4.204   1.793   3.598
11909TIP3    H135672   4.125   1.823   3.643
11909TIP3    H235673   4.268   1.781   3.668
11910TIP3   OH235674   5.276   3.063   0.020
11910TIP3    H135675   5.366   3.032   0.028
11910TIP3    H235676   5.265   3.123   0.094
11911TIP3   OH235677   1.470   3.525   2.927
11911TIP3    H135678   1.393   3.574   2.898
11911TIP3    H235679   1.437   3.467   2.995
11912TIP3   OH235680   3.015   0.586   6.436
11912TIP3    H135681   3.033   0.672   6.474
11912TIP3    H235682   2.992   0.531   6.511
11913TIP3   OH235683   1.418   0.472   6.236
11913TIP3    H135684   1.369   0.553   6.225
11913TIP3    H235685   1.354   0.402   6.222
11914TIP3   OH235686   0.137   4.659   2.842
11914TIP3    H135687   0.143   4.666   2.747
11914TIP3    H235688   0.054   4.701   2.864
11915TIP3   OH235689   5.878   3.530   4.260
11915TIP3    H135690   5.886   3.614   4.214
11915TIP3    H235691   5.852   3.554   4.349
11916TIP3   OH235692   4.265   0.825   3.014
11916TIP3    H135693   4.255   0.742   2.968
11916TIP3    H235694   4.194   0.879   2.980
11917TIP3   OH235695   7.770   5.793   4.707
11917TIP3    H135696   7.765   5.889   4.708
11917TIP3    H235697   7.768   5.769   4.799
11918TIP3   OH235698   6.871   7.429   1.471
11918TIP3    H135699   6.929   7.394   1.540
11918TIP3    H235700   6.826   7.502   1.512
11919TIP3   OH235701   1.398   4.302   2.994
11919TIP3    H135702   1.352   4.353   2.927
11919TIP3    H235703   1.332   4.241   3.027
11920TIP3   OH235704   1.132   0.964   2.178
11920TIP3    H135705   1.152   0.999   2.265
11920TIP3    H235706   1.045   0.997   2.158
11921TIP3   OH235707   3.891   4.911   1.470
11921TIP3    H135708   3.907   4.980   1.406
11921TIP3    H235709   3.891   4.830   1.419
11922TIP3   OH235710   4.418   3.783   2.481
11922TIP3    H135711   4.422   3.704   2.534
11922TIP3    H235712   4.340   3.772   2.427
11923TIP3   OH235713   2.146   7.162   2.591
11923TIP3    H135714   2.148   7.078   2.637
11923TIP3    H235715   2.069   7.156   2.534
11924TIP3   OH235716   3.167   3.754   0.546
11924TIP3    H135717   3.229   3.687   0.519
11924TIP3    H235718   3.081   3.712   0.539
11925TIP3   OH235719   1.255   5.770   0.062
11925TIP3    H135720   1.177   5.742   0.014
11925TIP3    H235721   1.228   5.851   0.106
11926TIP3   OH235722   8.091   5.891   3.938
11926TIP3    H135723   8.102   5.806   3.895
11926TIP3    H235724   8.006   5.922   3.906
11927TIP3   OH235725   2.633   4.730   1.542
11927TIP3    H135726   2.626   4.824   1.530
11927TIP3    H235727   2.556   4.706   1.593
11928TIP3   OH235728   7.362   2.035   2.992
11928TIP3    H135729   7.382   2.091   3.068
11928TIP3    H235730   7.446   2.026   2.947
11929TIP3   OH235731   2.319   0.701   3.655
11929TIP3    H135732   2.326   0.721   3.748
11929TIP3    H235733   2.397   0.741   3.616
11930TIP3   OH235734   6.609   3.597   6.211
11930TIP3    H135735   6.526   3.644   6.201
11930TIP3    H235736   6.584   3.507   6.229
11931TIP3   OH235737   2.175   5.692   1.491
11931TIP3    H135738   2.109   5.759   1.510
11931TIP3    H235739   2.259   5.739   1.495
11932TIP3   OH235740   2.403   2.088   2.685
11932TIP3    H135741   2.332   2.150   2.703
11932TIP3    H235742   2.389   2.061   2.595
11933TIP3   OH235743   4.236   1.890   3.163
11933TIP3    H135744   4.157   1.944   3.166
11933TIP3    H235745   4.299   1.934   3.220
11934TIP3   OH235746   6.103   7.002   4.552
11934TIP3    H135747   6.164   7.034   4.619
11934TIP3    H235748   6.141   7.030   4.469
11935TIP3   OH235749   6.271   2.868   6.208
11935TIP3    H135750   6.269   2.951   6.159
11935TIP3    H235751   6.320   2.888   6.287
11936TIP3   OH235752   3.624   6.037   5.132
11936TIP3    H135753   3.679   6.029   5.054
11936TIP3    H235754   3.552   6.093   5.104
11937TIP3   OH235755   1.225   5.991   2.069
11937TIP3    H135756   1.146   6.032   2.105
11937TIP3    H235757   1.255   6.053   2.002
11938TIP3   OH235758   5.891   2.470   6.185
11938TIP3    H135759   5.969   2.466   6.241
11938TIP3    H235760   5.886   2.562   6.159
11939TIP3   OH235761   3.496   4.599   6.251
11939TIP3    H135762   3.426   4.637   6.198
11939TIP3    H235763   3.541   4.675   6.289
11940TIP3   OH235764   1.806   7.534   4.272
11940TIP3    H135765   1.825   7.511   4.362
11940TIP3    H235766   1.735   7.476   4.246
11941TIP3   OH235767   7.938   0.124   5.110
11941TIP3    H135768   7.988   0.162   5.183
11941TIP3    H235769   7.975   0.037   5.099
11942TIP3   OH235770   4.172   6.185   2.180
11942TIP3    H135771   4.169   6.280   2.167
11942TIP3    H235772   4.265   6.166   2.193
11943TIP3   OH235773   0.970   5.064   5.230
11943TIP3    H135774   0.892   5.017   5.259
11943TIP3    H235775   0.991   5.123   5.302
11944TIP3   OH235776   7.825   3.502   3.804
11944TIP3    H135777   7.792   3.568   3.744
11944TIP3    H235778   7.773   3.424   3.784
11945TIP3   OH235779   3.171   3.071   0.293
11945TIP3    H135780   3.236   3.089   0.361
11945TIP3    H235781   3.102   3.136   0.309
11946TIP3   OH235782   6.399   6.223   0.109
11946TIP3    H135783   6.337   6.296   0.105
11946TIP3    H235784   6.472   6.257   0.160
11947TIP3   OH235785   0.941   3.975   5.365
11947TIP3    H135786   0.911   4.060   5.332
11947TIP3    H235787   1.017   3.995   5.418
11948TIP3   OH235788   1.533   6.099   5.513
11948TIP3    H135789   1.624   6.082   5.540
11948TIP3    H235790   1.526   6.194   5.510
11949TIP3   OH235791   2.706   4.691   5.489
11949TIP3    H135792   2.737   4.731   5.407
11949TIP3    H235793   2.716   4.596   5.475
11950TIP3   OH235794   8.155   6.647   4.115
11950TIP3    H135795   8.233   6.702   4.107
11950TIP3    H235796   8.187   6.558   4.103
11951TIP3   OH235797   1.622   2.436   1.957
11951TIP3    H135798   1.706   2.479   1.938
11951TIP3    H235799   1.584   2.418   1.872
11952TIP3   OH235800   4.776   2.142   0.391
11952TIP3    H135801   4.762   2.232   0.361
11952TIP3    H235802   4.870   2.128   0.382
11953TIP3   OH235803   8.185   1.219   3.651
11953TIP3    H135804   8.132   1.146   3.619
11953TIP3    H235805   8.160   1.293   3.595
11954TIP3   OH235806   5.216   6.368   4.320
11954TIP3    H135807   5.276   6.347   4.392
11954TIP3    H235808   5.210   6.287   4.270
11955TIP3   OH235809   2.185   5.861   3.591
11955TIP3    H135810   2.132   5.940   3.579
11955TIP3    H235811   2.270   5.883   3.552
11956TIP3   OH235812   1.163   5.243   3.982
11956TIP3    H135813   1.181   5.309   3.915
11956TIP3    H235814   1.249   5.221   4.018
11957TIP3   OH235815   5.030   1.309   4.648
11957TIP3    H135816   4.974   1.236   4.619
11957TIP3    H235817   5.083   1.272   4.718
11958TIP3   OH235818   0.656   6.727   3.505
11958TIP3    H135819   0.675   6.779   3.583
11958TIP3    H235820   0.582   6.672   3.530
11959TIP3   OH235821   3.445   1.976   1.536
11959TIP3    H135822   3.395   1.959   1.456
11959TIP3    H235823   3.379   1.977   1.606
11960TIP3   OH235824   7.123   3.884   3.807
11960TIP3    H135825   7.212   3.895   3.775
11960TIP3    H235826   7.133   3.862   3.900
11961TIP3   OH235827   3.914   5.920   2.187
11961TIP3    H135828   3.867   5.897   2.267
11961TIP3    H235829   4.002   5.885   2.200
11962TIP3   OH235830   6.651   1.740   0.942
11962TIP3    H135831   6.740   1.762   0.972
11962TIP3    H235832   6.624   1.816   0.890
11963TIP3   OH235833   3.338   4.746   4.776
11963TIP3    H135834   3.316   4.750   4.869
11963TIP3    H235835   3.253   4.751   4.732
11964TIP3   OH235836   3.961   6.636   0.120
11964TIP3    H135837   3.922   6.597   0.199
11964TIP3    H235838   3.893   6.626   0.053
11965TIP3   OH235839   1.334   3.179   2.513
11965TIP3    H135840   1.425   3.196   2.534
11965TIP3    H235841   1.298   3.138   2.592
11966TIP3   OH235842   1.422   0.104   5.276
11966TIP3    H135843   1.428   0.009   5.286
11966TIP3    H235844   1.452   0.120   5.186
11967TIP3   OH235845   6.672   0.423   6.703
11967TIP3    H135846   6.703   0.513   6.695
11967TIP3    H235847   6.586   0.430   6.745
11968TIP3   OH235848   5.964   6.181   1.638
11968TIP3    H135849   5.936   6.191   1.729
11968TIP3    H235850   6.059   6.194   1.641
11969TIP3   OH235851   0.567   6.756   0.971
11969TIP3    H135852   0.526   6.684   1.019
11969TIP3    H235853   0.508   6.773   0.898
11970TIP3   OH235854   4.277   0.174   1.308
11970TIP3    H135855   4.212   0.104   1.311
11970TIP3    H235856   4.361   0.128   1.301
11971TIP3   OH235857   6.589   2.209   2.695
11971TIP3    H135858   6.661   2.268   2.672
11971TIP3    H235859   6.511   2.250   2.658
11972TIP3   OH235860   1.436   4.140   4.780
11972TIP3    H135861   1.510   4.081   4.793
11972TIP3    H235862   1.471   4.211   4.726
11973TIP3   OH235863   4.073   1.660   0.703
11973TIP3    H135864   4.029   1.612   0.774
11973TIP3    H235865   4.109   1.592   0.646
11974TIP3   OH235866   4.902   6.950   3.749
11974TIP3    H135867   4.839   6.917   3.812
11974TIP3    H235868   4.960   7.006   3.800
11975TIP3   OH235869   2.760   6.416   2.787
11975TIP3    H135870   2.823   6.369   2.732
11975TIP3    H235871   2.772   6.508   2.763
11976TIP3   OH235872   5.713   5.468   2.814
11976TIP3    H135873   5.713   5.515   2.897
11976TIP3    H235874   5.629   5.489   2.774
11977TIP3   OH235875   8.252   6.687   2.722
11977TIP3    H135876   8.284   6.666   2.634
11977TIP3    H235877   8.273   6.610   2.775
11978TIP3   OH235878   6.413   1.660   3.263
11978TIP3    H135879   6.341   1.617   3.216
11978TIP3    H235880   6.423   1.745   3.220
11979TIP3   OH235881   4.195   4.881   2.918
11979TIP3    H135882   4.196   4.832   2.836
11979TIP3    H235883   4.108   4.922   2.920
11980TIP3   OH235884   0.932   5.277   4.522
11980TIP3    H135885   1.015   5.235   4.546
11980TIP3    H235886   0.874   5.258   4.596
11981TIP3   OH235887   7.376   2.314   5.508
11981TIP3    H135888   7.281   2.324   5.503
11981TIP3    H235889   7.402   2.368   5.583
11982TIP3   OH235890   3.503   1.781   1.847
11982TIP3    H135891   3.596   1.794   1.869
11982TIP3    H235892   3.504   1.715   1.778
11983TIP3   OH235893   4.356   6.779   0.808
11983TIP3    H135894   4.416   6.726   0.860
11983TIP3    H235895   4.409   6.811   0.735
11984TIP3   OH235896   4.486   7.634   6.452
11984TIP3    H135897   4.411   7.680   6.491
11984TIP3    H235898   4.448   7.581   6.382
11985TIP3   OH235899   3.045   6.708   0.140
11985TIP3    H135900   3.024   6.780   0.199
11985TIP3    H235901   2.960   6.673   0.113
11986TIP3   OH235902   2.240   3.078   6.780
11986TIP3    H135903   2.172   3.020   6.745
11986TIP3    H235904   2.279   3.119   6.703
11987TIP3   OH235905   7.348   6.313   4.455
11987TIP3    H135906   7.385   6.357   4.379
11987TIP3    H235907   7.254   6.329   4.449
11988TIP3   OH235908   3.551   7.152   5.339
11988TIP3    H135909   3.582   7.221   5.281
11988TIP3    H235910   3.478   7.192   5.387
11989TIP3   OH235911   1.700   1.718   5.390
11989TIP3    H135912   1.770   1.724   5.455
11989TIP3    H235913   1.623   1.755   5.435
11990TIP3   OH235914   5.390   0.527   1.294
11990TIP3    H135915   5.408   0.458   1.231
11990TIP3    H235916   5.355   0.599   1.242
11991TIP3   OH235917   6.504   6.013   5.733
11991TIP3    H135918   6.412   6.000   5.707
11991TIP3    H235919   6.525   5.936   5.785
11992TIP3   OH235920   7.537   7.809   0.371
11992TIP3    H135921   7.564   7.735   0.425
11992TIP3    H235922   7.485   7.770   0.301
11993TIP3   OH235923   7.929   4.551   5.715
11993TIP3    H135924   7.837   4.548   5.744
11993TIP3    H235925   7.932   4.626   5.656
11994TIP3   OH235926   5.674   0.479   1.185
11994TIP3    H135927   5.710   0.391   1.195
11994TIP3    H235928   5.702   0.525   1.264
11995TIP3   OH235929   4.942   3.227   4.510
11995TIP3    H135930   4.920   3.278   4.588
11995TIP3    H235931   4.858   3.190   4.480
11996TIP3   OH235932   0.647   0.224   1.020
11996TIP3    H135933   0.667   0.209   1.112
11996TIP3    H235934   0.559   0.261   1.020
11997TIP3   OH235935   0.540   4.563   5.594
11997TIP3    H135936   0.548   4.626   5.523
11997TIP3    H235937   0.591   4.488   5.565
11998TIP3   OH235938   4.595   2.561   4.304
11998TIP3    H135939   4.532   2.609   4.250
11998TIP3    H235940   4.681   2.593   4.275
11999TIP3   OH235941   4.933   0.980   5.144
11999TIP3    H135942   4.924   0.948   5.233
11999TIP3    H235943   4.943   0.901   5.091
12000TIP3   OH235944   1.925   1.979   0.943
12000TIP3    H135945   1.928   1.968   1.038
12000TIP3    H235946   1.832   1.974   0.921
12001TIP3   OH235947   4.886   6.119   6.272
12001TIP3    H135948   4.796   6.088   6.275
12001TIP3    H235949   4.932   6.056   6.217
12002TIP3   OH235950   3.869   0.982   2.112
12002TIP3    H135951   3.904   0.894   2.125
12002TIP3    H235952   3.776   0.975   2.133
12003TIP3   OH235953   1.360   2.032   2.884
12003TIP3    H135954   1.407   1.976   2.822
12003TIP3    H235955   1.297   2.080   2.831
12004TIP3   OH235956   0.849   2.423   2.577
12004TIP3    H135957   0.848   2.482   2.500
12004TIP3    H235958   0.780   2.458   2.633
12005TIP3   OH235959   6.574   1.406   4.711
12005TIP3    H135960   6.655   1.455   4.724
12005TIP3    H235961   6.581   1.371   4.623
12006TIP3   OH235962   4.003   5.740   6.004
12006TIP3    H135963   3.932   5.796   5.973
12006TIP3    H235964   4.064   5.802   6.046
12007TIP3   OH235965   1.808   6.401   5.771
12007TIP3    H135966   1.867   6.417   5.844
12007TIP3    H235967   1.831   6.467   5.706
12008TIP3   OH235968   0.812   3.379   6.589
12008TIP3    H135969   0.777   3.291   6.570
12008TIP3    H235970   0.820   3.381   6.684
12009TIP3   OH235971   3.829   4.970   4.848
12009TIP3    H135972   3.873   4.892   4.814
12009TIP3    H235973   3.736   4.954   4.834
12010TIP3   OH235974   5.281   6.372   4.681
12010TIP3    H135975   5.295   6.277   4.680
12010TIP3    H235976   5.347   6.405   4.741
12011TIP3   OH235977   0.481   2.936   4.443
12011TIP3    H135978   0.416   2.867   4.451
12011TIP3    H235979   0.539   2.908   4.372
12012TIP3   OH235980   5.975   0.389   1.113
12012TIP3    H135981   5.909   0.332   1.152
12012TIP3    H235982   6.029   0.331   1.060
12013TIP3   OH235983   1.099   3.733   0.031
12013TIP3    H135984   1.189   3.763   0.021
12013TIP3    H235985   1.097   3.647  -0.011
12014TIP3   OH235986   0.598   0.956   3.307
12014TIP3    H135987   0.665   0.964   3.375
12014TIP3    H235988   0.600   0.864   3.281
12015TIP3   OH235989   1.356   2.472   3.959
12015TIP3    H135990   1.415   2.502   3.890
12015TIP3    H235991   1.274   2.453   3.914
12016TIP3   OH235992   6.781   6.735   1.973
12016TIP3    H135993   6.786   6.708   1.881
12016TIP3    H235994   6.755   6.656   2.020
12017TIP3   OH235995   0.440   5.523   2.252
12017TIP3    H135996   0.489   5.448   2.287
12017TIP3    H235997   0.438   5.585   2.324
12018TIP3   OH235998   2.901   2.669   2.178
12018TIP3    H135999   2.946   2.585   2.187
12018TIP3    H236000   2.927   2.719   2.256
12019TIP3   OH236001   4.075   2.985   2.427
12019TIP3    H136002   4.136   2.918   2.393
12019TIP3    H236003   4.114   3.068   2.399
12020TIP3   OH236004   4.244   3.010   3.964
12020TIP3    H136005   4.238   2.916   3.949
12020TIP3    H236006   4.178   3.048   3.906
12021TIP3   OH236007   5.051   2.696   3.885
12021TIP3    H136008   5.040   2.678   3.792
12021TIP3    H236009   5.137   2.739   3.892
12022TIP3   OH236010   8.087   1.642   2.820
12022TIP3    H136011   8.109   1.702   2.749
12022TIP3    H236012   8.171   1.620   2.861
12023TIP3   OH236013   4.267   0.539   3.698
12023TIP3    H136014   4.349   0.542   3.648
12023TIP3    H236015   4.199   0.565   3.635
12024TIP3   OH236016   6.473   6.032   3.426
12024TIP3    H136017   6.431   6.043   3.341
12024TIP3    H236018   6.563   6.007   3.405
12025TIP3   OH236019   3.936   7.581   2.861
12025TIP3    H136020   3.908   7.511   2.919
12025TIP3    H236021   3.966   7.651   2.920
12026TIP3   OH236022   1.160   1.671   0.121
12026TIP3    H136023   1.159   1.754   0.074
12026TIP3    H236024   1.251   1.659   0.146
12027TIP3   OH236025   5.161   6.785   3.072
12027TIP3    H136026   5.096   6.849   3.041
12027TIP3    H236027   5.153   6.711   3.012
12028TIP3   OH236028   0.348   2.437   3.302
12028TIP3    H136029   0.415   2.370   3.285
12028TIP3    H236030   0.372   2.474   3.387
12029TIP3   OH236031   1.293   6.008   3.723
12029TIP3    H136032   1.378   6.023   3.764
12029TIP3    H236033   1.269   6.092   3.685
12030TIP3   OH236034   4.672   5.138   0.989
12030TIP3    H136035   4.601   5.201   1.000
12030TIP3    H236036   4.640   5.059   1.032
12031TIP3   OH236037   5.570   5.209   6.616
12031TIP3    H136038   5.593   5.257   6.537
12031TIP3    H236039   5.476   5.222   6.626
12032TIP3   OH236040   4.820   5.235   2.374
12032TIP3    H136041   4.847   5.190   2.294
12032TIP3    H236042   4.902   5.256   2.419
12033TIP3   OH236043   0.432   0.504   3.697
12033TIP3    H136044   0.413   0.416   3.666
12033TIP3    H236045   0.525   0.517   3.680
12034TIP3   OH236046   2.429   3.976   5.690
12034TIP3    H136047   2.436   3.901   5.631
12034TIP3    H236048   2.480   3.950   5.768
12035TIP3   OH236049   1.739   4.640   6.778
12035TIP3    H136050   1.820   4.591   6.791
12035TIP3    H236051   1.761   4.705   6.712
12036TIP3   OH236052   6.109   7.008   2.984
12036TIP3    H136053   6.042   6.940   2.980
12036TIP3    H236054   6.172   6.983   2.917
12037TIP3   OH236055   2.629   3.937   5.435
12037TIP3    H136056   2.653   3.886   5.358
12037TIP3    H236057   2.536   3.918   5.448
12038TIP3   OH236058   6.157   5.684   4.588
12038TIP3    H136059   6.069   5.682   4.625
12038TIP3    H236060   6.211   5.721   4.658
12039TIP3   OH236061   4.253   2.051   3.717
12039TIP3    H136062   4.227   2.123   3.660
12039TIP3    H236063   4.325   2.087   3.770
12040TIP3   OH236064   7.912   5.169   0.528
12040TIP3    H136065   7.989   5.164   0.471
12040TIP3    H236066   7.848   5.111   0.487
12041TIP3   OH236067   0.699   0.941   4.603
12041TIP3    H136068   0.694   0.857   4.558
12041TIP3    H236069   0.650   1.001   4.548
12042TIP3   OH236070   3.336   7.443   5.287
12042TIP3    H136071   3.270   7.396   5.236
12042TIP3    H236072   3.335   7.400   5.372
12043TIP3   OH236073   7.783   1.822   1.985
12043TIP3    H136074   7.856   1.760   1.992
12043TIP3    H236075   7.707   1.768   1.967
12044TIP3   OH236076   0.341   0.576   3.954
12044TIP3    H136077   0.295   0.660   3.946
12044TIP3    H236078   0.364   0.552   3.865
12045TIP3   OH236079   1.272   6.015   1.027
12045TIP3    H136080   1.277   6.103   1.063
12045TIP3    H236081   1.354   6.003   0.980
12046TIP3   OH236082   4.140   7.641   2.250
12046TIP3    H136083   4.080   7.567   2.251
12046TIP3    H236084   4.118   7.689   2.169
12047TIP3   OH236085   7.659   1.621   5.709
12047TIP3    H136086   7.587   1.590   5.654
12047TIP3    H236087   7.694   1.541   5.749
12048TIP3   OH236088   7.620   6.251   2.050
12048TIP3    H136089   7.646   6.241   1.959
12048TIP3    H236090   7.702   6.246   2.099
12049TIP3   OH236091   8.116   6.015   4.555
12049TIP3    H136092   8.107   5.944   4.619
12049TIP3    H236093   8.055   5.993   4.485
12050TIP3   OH236094   5.768   1.368   4.056
12050TIP3    H136095   5.838   1.430   4.034
12050TIP3    H236096   5.802   1.283   4.028
12051TIP3   OH236097   1.594   4.390   3.181
12051TIP3    H136098   1.535   4.358   3.113
12051TIP3    H236099   1.557   4.474   3.207
12052TIP3   OH236100   3.255   1.574   1.585
12052TIP3    H136101   3.199   1.637   1.540
12052TIP3    H236102   3.344   1.601   1.562
12053TIP3   OH236103   7.304   0.892   0.423
12053TIP3    H136104   7.263   0.968   0.465
12053TIP3    H236105   7.396   0.914   0.416
12054TIP3   OH236106   1.052   3.142   4.260
12054TIP3    H136107   1.076   3.173   4.173
12054TIP3    H236108   1.077   3.049   4.260
12055TIP3   OH236109   3.145   5.041   4.779
12055TIP3    H136110   3.134   4.972   4.844
12055TIP3    H236111   3.070   5.100   4.793
12056TIP3   OH236112   3.778   6.539   4.241
12056TIP3    H136113   3.721   6.607   4.278
12056TIP3    H236114   3.765   6.463   4.299
12057TIP3   OH236115   6.333   3.614   5.606
12057TIP3    H136116   6.331   3.682   5.538
12057TIP3    H236117   6.244   3.613   5.641
12058TIP3   OH236118   5.453   1.115   6.649
12058TIP3    H136119   5.501   1.036   6.622
12058TIP3    H236120   5.490   1.184   6.594
12059TIP3   OH236121   0.065   7.693   3.997
12059TIP3    H136122   0.001   7.621   3.996
12059TIP3    H236123   0.016   7.768   3.962
12060TIP3   OH236124   6.531   3.760   1.063
12060TIP3    H136125   6.590   3.834   1.047
12060TIP3    H236126   6.485   3.748   0.980
12061TIP3   OH236127   6.301   7.540   5.524
12061TIP3    H136128   6.251   7.465   5.492
12061TIP3    H236129   6.370   7.500   5.577
12062TIP3   OH236130   3.559   4.113   3.877
12062TIP3    H136131   3.595   4.165   3.949
12062TIP3    H236132   3.524   4.177   3.816
12063TIP3   OH236133   4.598   6.171   5.036
12063TIP3    H136134   4.511   6.135   5.018
12063TIP3    H236135   4.585   6.225   5.114
12064TIP3   OH236136   7.462   4.604   3.624
12064TIP3    H136137   7.478   4.692   3.659
12064TIP3    H236138   7.501   4.606   3.537
12065TIP3   OH236139   7.803   0.151   4.594
12065TIP3    H136140   7.758   0.196   4.665
12065TIP3    H236141   7.776   0.197   4.515
12066TIP3   OH236142   5.036   7.111   1.580
12066TIP3    H136143   5.038   7.098   1.675
12066TIP3    H236144   5.029   7.023   1.544
12067TIP3   OH236145   6.260   7.060   0.610
12067TIP3    H136146   6.242   7.060   0.704
12067TIP3    H236147   6.281   6.969   0.589
12068TIP3   OH236148   1.948   5.997   5.888
12068TIP3    H136149   2.011   5.925   5.884
12068TIP3    H236150   1.917   5.997   5.978
12069TIP3   OH236151   8.063   1.464   0.674
12069TIP3    H136152   7.977   1.504   0.659
12069TIP3    H236153   8.112   1.532   0.721
12070TIP3   OH236154   6.163   4.118   6.819
12070TIP3    H136155   6.123   4.039   6.782
12070TIP3    H236156   6.106   4.190   6.791
12071TIP3   OH236157   1.494   1.678   3.043
12071TIP3    H136158   1.545   1.704   2.966
12071TIP3    H236159   1.435   1.751   3.059
12072TIP3   OH236160   5.029   4.574   6.307
12072TIP3    H136161   5.056   4.636   6.239
12072TIP3    H236162   4.949   4.535   6.274
12073TIP3   OH236163   5.529   5.865   1.409
12073TIP3    H136164   5.527   5.838   1.501
12073TIP3    H236165   5.622   5.878   1.389
12074TIP3   OH236166   3.263   5.352   1.903
12074TIP3    H136167   3.337   5.411   1.887
12074TIP3    H236168   3.213   5.355   1.821
12075TIP3   OH236169   5.064   3.663   4.049
12075TIP3    H136170   5.003   3.702   4.112
12075TIP3    H236171   5.124   3.734   4.027
12076TIP3   OH236172   7.426   5.443   5.973
12076TIP3    H136173   7.502   5.501   5.969
12076TIP3    H236174   7.379   5.459   5.892
12077TIP3   OH236175   0.881   5.991   4.905
12077TIP3    H136176   0.914   6.035   4.827
12077TIP3    H236177   0.895   6.053   4.976
12078TIP3   OH236178   3.422   6.305   3.887
12078TIP3    H136179   3.393   6.395   3.897
12078TIP3    H236180   3.373   6.256   3.953
12079TIP3   OH236181   5.870   4.035   4.839
12079TIP3    H136182   5.874   3.953   4.888
12079TIP3    H236183   5.804   4.019   4.771
12080TIP3   OH236184   5.451   7.660   3.284
12080TIP3    H136185   5.427   7.586   3.340
12080TIP3    H236186   5.394   7.731   3.312
12081TIP3   OH236187   7.684   4.761   2.047
12081TIP3    H136188   7.644   4.835   2.093
12081TIP3    H236189   7.707   4.699   2.116
12082TIP3   OH236190   1.266   4.991   2.859
12082TIP3    H136191   1.198   4.965   2.796
12082TIP3    H236192   1.321   5.052   2.810
12083TIP3   OH236193   6.783   2.803   1.150
12083TIP3    H136194   6.719   2.734   1.133
12083TIP3    H236195   6.784   2.855   1.070
12084TIP3   OH236196   1.821   2.424   4.055
12084TIP3    H136197   1.867   2.416   4.139
12084TIP3    H236198   1.766   2.501   4.066
12085TIP3   OH236199   2.680   1.016   6.312
12085TIP3    H136200   2.598   0.975   6.341
12085TIP3    H236201   2.744   0.946   6.315
12086TIP3   OH236202   2.055   6.521   5.804
12086TIP3    H136203   2.073   6.526   5.710
12086TIP3    H236204   2.141   6.509   5.844
12087TIP3   OH236205   8.193   6.770   0.539
12087TIP3    H136206   8.128   6.701   0.524
12087TIP3    H236207   8.164   6.842   0.484
12088TIP3   OH236208   4.396   3.902   1.213
12088TIP3    H136209   4.400   3.997   1.216
12088TIP3    H236210   4.305   3.882   1.190
12089TIP3   OH236211   6.488   3.139   1.321
12089TIP3    H136212   6.421   3.174   1.262
12089TIP3    H236213   6.564   3.126   1.266
12090TIP3   OH236214   5.695   3.370   2.934
12090TIP3    H136215   5.667   3.317   3.008
12090TIP3    H236216   5.619   3.371   2.876
12091TIP3   OH236217   7.635   0.576   1.442
12091TIP3    H136218   7.636   0.630   1.362
12091TIP3    H236219   7.547   0.538   1.443
12092TIP3   OH236220   5.891   5.319   6.516
12092TIP3    H136221   5.802   5.339   6.490
12092TIP3    H236222   5.932   5.284   6.437
12093TIP3   OH236223   1.516   2.926   4.024
12093TIP3    H136224   1.515   2.909   3.929
12093TIP3    H236225   1.567   3.006   4.033
12094TIP3   OH236226   4.261   6.384   4.997
12094TIP3    H136227   4.232   6.303   5.040
12094TIP3    H236228   4.308   6.432   5.066
12095TIP3   OH236229   0.925   1.287   5.468
12095TIP3    H136230   0.889   1.206   5.503
12095TIP3    H236231   0.870   1.305   5.391
12096TIP3   OH236232   1.266   0.130   6.709
12096TIP3    H136233   1.283   0.181   6.630
12096TIP3    H236234   1.301   0.183   6.780
12097TIP3   OH236235   5.285   4.856   3.620
12097TIP3    H136236   5.273   4.930   3.680
12097TIP3    H236237   5.368   4.874   3.576
12098TIP3   OH236238   1.682   5.428   0.133
12098TIP3    H136239   1.628   5.474   0.070
12098TIP3    H236240   1.620   5.376   0.185
12099TIP3   OH236241   1.415   4.571   6.283
12099TIP3    H136242   1.485   4.624   6.245
12099TIP3    H236243   1.334   4.620   6.264
12100TIP3   OH236244   7.114   2.490   5.806
12100TIP3    H136245   7.038   2.431   5.807
12100TIP3    H236246   7.081   2.572   5.842
12101TIP3   OH236247   5.106   4.777   6.148
12101TIP3    H136248   5.055   4.776   6.067
12101TIP3    H236249   5.157   4.858   6.144
12102TIP3   OH236250   2.683   5.008   1.567
12102TIP3    H136251   2.740   5.066   1.516
12102TIP3    H236252   2.595   5.041   1.551
12103TIP3   OH236253   2.654   3.369   3.589
12103TIP3    H136254   2.729   3.373   3.649
12103TIP3    H236255   2.584   3.415   3.635
12104TIP3   OH236256   1.370   4.511   5.078
12104TIP3    H136257   1.368   4.570   5.002
12104TIP3    H236258   1.459   4.519   5.112
12105TIP3   OH236259   6.465   0.959   1.524
12105TIP3    H136260   6.507   1.006   1.452
12105TIP3    H236261   6.535   0.905   1.562
12106TIP3   OH236262   6.154   5.217   3.889
12106TIP3    H136263   6.169   5.208   3.795
12106TIP3    H236264   6.238   5.250   3.923
12107TIP3   OH236265   8.194   2.807   0.060
12107TIP3    H136266   8.253   2.769  -0.005
12107TIP3    H236267   8.113   2.757   0.051
12108TIP3   OH236268   4.130   4.709   0.851
12108TIP3    H136269   4.148   4.732   0.760
12108TIP3    H236270   4.034   4.707   0.856
12109TIP3   OH236271   5.375   3.608   1.685
12109TIP3    H136272   5.455   3.570   1.720
12109TIP3    H236273   5.313   3.604   1.758
12110TIP3   OH236274   1.452   5.490   5.098
12110TIP3    H136275   1.433   5.573   5.141
12110TIP3    H236276   1.542   5.469   5.125
12111TIP3   OH236277   7.871   3.934   0.339
12111TIP3    H136278   7.961   3.912   0.315
12111TIP3    H236279   7.824   3.937   0.256
12112TIP3   OH236280   6.986   0.222   4.841
12112TIP3    H136281   6.986   0.235   4.746
12112TIP3    H236282   6.984   0.127   4.853
12113TIP3   OH236283   1.014   0.338   2.555
12113TIP3    H136284   1.062   0.420   2.565
12113TIP3    H236285   0.927   0.363   2.525
12114TIP3   OH236286   7.429   6.997   2.296
12114TIP3    H136287   7.402   6.986   2.205
12114TIP3    H236288   7.524   7.005   2.292
12115TIP3   OH236289   0.914   3.074   3.127
12115TIP3    H136290   0.892   2.981   3.139
12115TIP3    H236291   0.866   3.119   3.196
12116TIP3   OH236292   2.196   4.567   0.204
12116TIP3    H136293   2.273   4.511   0.192
12116TIP3    H236294   2.228   4.640   0.256
12117TIP3   OH236295   6.298   0.732   6.230
12117TIP3    H136296   6.371   0.784   6.263
12117TIP3    H236297   6.220   0.785   6.249
12118TIP3   OH236298   3.761   0.478   2.158
12118TIP3    H136299   3.744   0.472   2.252
12118TIP3    H236300   3.674   0.491   2.119
12119TIP3   OH236301   2.585   1.664   5.425
12119TIP3    H136302   2.585   1.654   5.520
12119TIP3    H236303   2.548   1.583   5.392
12120TIP3   OH236304   5.448   1.592   0.401
12120TIP3    H136305   5.448   1.563   0.309
12120TIP3    H236306   5.497   1.525   0.448
12121TIP3   OH236307   1.103   1.204   4.464
12121TIP3    H136308   1.144   1.166   4.386
12121TIP3    H236309   1.069   1.289   4.433
12122TIP3   OH236310   1.162   7.071   4.460
12122TIP3    H136311   1.105   7.113   4.525
12122TIP3    H236312   1.115   7.079   4.377
12123TIP3   OH236313   2.127   1.647   2.804
12123TIP3    H136314   2.143   1.741   2.807
12123TIP3    H236315   2.058   1.632   2.868
12124TIP3   OH236316   7.144   2.614   5.184
12124TIP3    H136317   7.162   2.617   5.278
12124TIP3    H236318   7.230   2.608   5.144
12125TIP3   OH236319   7.164   0.268   5.039
12125TIP3    H136320   7.099   0.263   4.970
12125TIP3    H236321   7.139   0.345   5.090
12126TIP3   OH236322   5.662   3.371   4.221
12126TIP3    H136323   5.596   3.427   4.262
12126TIP3    H236324   5.743   3.422   4.227
12127TIP3   OH236325   2.703   4.722   3.632
12127TIP3    H136326   2.718   4.812   3.659
12127TIP3    H236327   2.781   4.675   3.660
12128TIP3   OH236328   1.508   0.623   3.013
12128TIP3    H136329   1.560   0.698   3.041
12128TIP3    H236330   1.554   0.590   2.936
12129TIP3   OH236331   4.775   4.594   0.033
12129TIP3    H136332   4.841   4.535  -0.004
12129TIP3    H236333   4.815   4.681   0.028
12130TIP3   OH236334   6.506   3.395   1.675
12130TIP3    H136335   6.474   3.434   1.756
12130TIP3    H236336   6.483   3.459   1.607
12131TIP3   OH236337   2.766   4.270   2.533
12131TIP3    H136338   2.857   4.296   2.521
12131TIP3    H236339   2.770   4.177   2.558
12132TIP3   OH236340   7.511   5.759   3.369
12132TIP3    H136341   7.525   5.749   3.275
12132TIP3    H236342   7.596   5.789   3.403
12133TIP3   OH236343   0.342   4.936   1.981
12133TIP3    H136344   0.285   4.904   1.912
12133TIP3    H236345   0.403   4.864   1.997
12134TIP3   OH236346   4.227   7.311   1.421
12134TIP3    H136347   4.182   7.378   1.370
12134TIP3    H236348   4.157   7.249   1.445
12135TIP3   OH236349   4.930   0.169   3.407
12135TIP3    H136350   4.885   0.103   3.460
12135TIP3    H236351   4.962   0.121   3.330
12136TIP3   OH236352   5.710   0.471   0.200
12136TIP3    H136353   5.735   0.531   0.270
12136TIP3    H236354   5.640   0.518   0.153
12137TIP3   OH236355   4.728   6.930   1.803
12137TIP3    H136356   4.640   6.955   1.829
12137TIP3    H236357   4.725   6.926   1.707
12138TIP3   OH236358   4.728   0.071   2.477
12138TIP3    H136359   4.667   0.126   2.428
12138TIP3    H236360   4.722   0.104   2.567
12139TIP3   OH236361   1.391   5.301   6.146
12139TIP3    H136362   1.325   5.271   6.082
12139TIP3    H236363   1.348   5.373   6.192
12140TIP3   OH236364   1.277   4.416   1.475
12140TIP3    H136365   1.292   4.341   1.532
12140TIP3    H236366   1.356   4.423   1.422
12141TIP3   OH236367   7.946   1.433   5.356
12141TIP3    H136368   7.983   1.513   5.392
12141TIP3    H236369   7.885   1.462   5.289
12142TIP3   OH236370   0.490   1.451   5.562
12142TIP3    H136371   0.498   1.482   5.472
12142TIP3    H236372   0.411   1.396   5.562
12143TIP3   OH236373   6.707   7.023   4.275
12143TIP3    H136374   6.716   6.935   4.311
12143TIP3    H236375   6.749   7.018   4.189
12144TIP3   OH236376   0.973   0.413   6.541
12144TIP3    H136377   1.003   0.481   6.601
12144TIP3    H236378   0.959   0.336   6.598
12145TIP3   OH236379   4.332   1.468   4.338
12145TIP3    H136380   4.310   1.556   4.367
12145TIP3    H236381   4.262   1.444   4.277
12146TIP3   OH236382   2.992   3.923   0.760
12146TIP3    H136383   2.911   3.954   0.802
12146TIP3    H236384   2.971   3.920   0.667
12147TIP3   OH236385   2.489   3.153   1.741
12147TIP3    H136386   2.424   3.150   1.811
12147TIP3    H236387   2.506   3.061   1.719
12148TIP3   OH236388   1.518   4.360   0.507
12148TIP3    H136389   1.551   4.354   0.418
12148TIP3    H236390   1.424   4.342   0.500
12149TIP3   OH236391   7.015   5.601   2.467
12149TIP3    H136392   6.985   5.667   2.405
12149TIP3    H236393   6.947   5.599   2.535
12150TIP3   OH236394   5.868   4.684   2.526
12150TIP3    H136395   5.869   4.727   2.612
12150TIP3    H236396   5.807   4.736   2.474
12151TIP3   OH236397   1.908   7.174   6.256
12151TIP3    H136398   1.840   7.108   6.238
12151TIP3    H236399   1.949   7.144   6.337
12152TIP3   OH236400   1.890   6.916   3.856
12152TIP3    H136401   1.971   6.919   3.907
12152TIP3    H236402   1.829   6.971   3.905
12153TIP3   OH236403   7.704   0.843   1.589
12153TIP3    H136404   7.670   0.918   1.540
12153TIP3    H236405   7.700   0.770   1.527
12154TIP3   OH236406   3.106   1.478   0.732
12154TIP3    H136407   3.173   1.506   0.670
12154TIP3    H236408   3.023   1.496   0.688
12155TIP3   OH236409   5.914   1.004   3.565
12155TIP3    H136410   5.913   0.941   3.637
12155TIP3    H236411   5.836   0.984   3.514
12156TIP3   OH236412   2.190   4.858   6.000
12156TIP3    H136413   2.120   4.810   5.956
12156TIP3    H236414   2.270   4.814   5.972
12157TIP3   OH236415   6.330   1.340   0.576
12157TIP3    H136416   6.366   1.370   0.492
12157TIP3    H236417   6.402   1.350   0.638
12158TIP3   OH236418   7.187   6.090   6.568
12158TIP3    H136419   7.242   6.156   6.526
12158TIP3    H236420   7.223   6.006   6.541
12159TIP3   OH236421   3.577   6.139   6.351
12159TIP3    H136422   3.624   6.158   6.270
12159TIP3    H236423   3.490   6.177   6.338
12160TIP3   OH236424   2.534   5.218   1.200
12160TIP3    H136425   2.594   5.159   1.244
12160TIP3    H236426   2.522   5.179   1.113
12161TIP3   OH236427   2.277   2.084   3.403
12161TIP3    H136428   2.364   2.088   3.363
12161TIP3    H236429   2.270   2.165   3.454
12162TIP3   OH236430   5.400   5.367   4.868
12162TIP3    H136431   5.333   5.338   4.930
12162TIP3    H236432   5.385   5.461   4.859
12163TIP3   OH236433   4.779   5.212   4.779
12163TIP3    H136434   4.831   5.135   4.802
12163TIP3    H236435   4.688   5.187   4.796
12164TIP3   OH236436   5.527   1.484   4.710
12164TIP3    H136437   5.514   1.543   4.784
12164TIP3    H236438   5.440   1.472   4.673
12165TIP3   OH236439   0.197   7.420   3.104
12165TIP3    H136440   0.179   7.332   3.071
12165TIP3    H236441   0.174   7.416   3.197
12166TIP3   OH236442   1.611   0.964   6.596
12166TIP3    H136443   1.631   0.932   6.684
12166TIP3    H236444   1.631   1.058   6.599
12167TIP3   OH236445   2.161   3.914   2.447
12167TIP3    H136446   2.191   3.915   2.538
12167TIP3    H236447   2.120   4.000   2.436
12168TIP3   OH236448   7.814   2.577   6.392
12168TIP3    H136449   7.798   2.613   6.305
12168TIP3    H236450   7.864   2.497   6.376
12169TIP3   OH236451   0.223   2.714   2.404
12169TIP3    H136452   0.196   2.622   2.411
12169TIP3    H236453   0.167   2.760   2.466
12170TIP3   OH236454   5.039   7.830   1.082
12170TIP3    H136455   5.046   7.740   1.049
12170TIP3    H236456   4.957   7.831   1.132
12171TIP3   OH236457   6.752   3.088   1.863
12171TIP3    H136458   6.710   3.011   1.902
12171TIP3    H236459   6.724   3.161   1.918
12172TIP3   OH236460   1.402   1.320   0.158
12172TIP3    H136461   1.481   1.293   0.206
12172TIP3    H236462   1.392   1.413   0.180
12173TIP3   OH236463   1.963   2.993   2.668
12173TIP3    H136464   1.971   3.007   2.574
12173TIP3    H236465   2.043   3.030   2.705
12174TIP3   OH236466   1.465   7.108   3.937
12174TIP3    H136467   1.468   7.016   3.961
12174TIP3    H236468   1.399   7.146   3.995
12175TIP3   OH236469   6.736   3.547   5.191
12175TIP3    H136470   6.712   3.554   5.284
12175TIP3    H236471   6.657   3.514   5.148
12176TIP3   OH236472   3.089   1.724   3.463
12176TIP3    H136473   3.127   1.811   3.479
12176TIP3    H236474   3.054   1.697   3.547
12177TIP3   OH236475   1.302   4.302   0.843
12177TIP3    H136476   1.334   4.214   0.822
12177TIP3    H236477   1.283   4.341   0.757
12178TIP3   OH236478   6.796   0.478   5.066
12178TIP3    H136479   6.839   0.504   5.148
12178TIP3    H236480   6.707   0.512   5.074
12179TIP3   OH236481   5.355   5.921   5.949
12179TIP3    H136482   5.383   5.982   6.017
12179TIP3    H236483   5.436   5.885   5.914
12180TIP3   OH236484   5.425   1.478   4.347
12180TIP3    H136485   5.407   1.414   4.279
12180TIP3    H236486   5.340   1.498   4.386
12181TIP3   OH236487   4.194   6.336   1.182
12181TIP3    H136488   4.198   6.254   1.133
12181TIP3    H236489   4.216   6.403   1.118
12182TIP3   OH236490   0.398   6.781   0.478
12182TIP3    H136491   0.466   6.845   0.500
12182TIP3    H236492   0.418   6.755   0.388
12183TIP3   OH236493   5.154   0.381   3.249
12183TIP3    H136494   5.087   0.313   3.245
12183TIP3    H236495   5.235   0.337   3.224
12184TIP3   OH236496   2.682   0.100   1.980
12184TIP3    H136497   2.773   0.099   1.950
12184TIP3    H236498   2.640   0.029   1.933
12185TIP3   OH236499   0.980   5.603   4.770
12185TIP3    H136500   1.045   5.544   4.807
12185TIP3    H236501   0.896   5.562   4.790
12186TIP3   OH236502   0.006   1.080   4.454
12186TIP3    H136503   0.094   1.068   4.419
12186TIP3    H236504  -0.009   1.175   4.447
12187TIP3   OH236505   4.690   6.229   2.079
12187TIP3    H136506   4.755   6.202   2.014
12187TIP3    H236507   4.715   6.181   2.158
12188TIP3   OH236508   6.366   7.455   1.145
12188TIP3    H136509   6.353   7.496   1.059
12188TIP3    H236510   6.375   7.529   1.205
12189TIP3   OH236511   6.612   5.368   3.428
12189TIP3    H136512   6.645   5.300   3.369
12189TIP3    H236513   6.690   5.415   3.457
12190TIP3   OH236514   4.899   3.601   0.833
12190TIP3    H136515   4.958   3.546   0.885
12190TIP3    H236516   4.831   3.542   0.803
12191TIP3   OH236517   6.008   1.401   1.721
12191TIP3    H136518   5.923   1.431   1.753
12191TIP3    H236519   5.989   1.317   1.679
12192TIP3   OH236520   1.411   6.281   3.984
12192TIP3    H136521   1.455   6.196   3.987
12192TIP3    H236522   1.330   6.265   3.935
12193TIP3   OH236523   0.721   4.395   5.206
12193TIP3    H136524   0.650   4.448   5.170
12193TIP3    H236525   0.732   4.425   5.296
12194TIP3   OH236526   4.931   5.778   0.354
12194TIP3    H136527   4.892   5.813   0.275
12194TIP3    H236528   5.015   5.822   0.361
12195TIP3   OH236529   1.871   0.094   6.537
12195TIP3    H136530   1.855   0.010   6.580
12195TIP3    H236531   1.964   0.091   6.514
12196TIP3   OH236532   4.866   7.033   2.695
12196TIP3    H136533   4.838   7.092   2.625
12196TIP3    H236534   4.797   7.040   2.761
12197TIP3   OH236535   8.157   3.412   4.815
12197TIP3    H136536   8.106   3.475   4.764
12197TIP3    H236537   8.091   3.352   4.851
12198TIP3   OH236538   4.500   4.048   6.651
12198TIP3    H136539   4.479   4.125   6.599
12198TIP3    H236540   4.593   4.057   6.671
12199TIP3   OH236541   0.893   0.549   2.735
12199TIP3    H136542   0.917   0.564   2.644
12199TIP3    H236543   0.821   0.610   2.752
12200TIP3   OH236544   5.340   3.396   5.666
12200TIP3    H136545   5.424   3.355   5.689
12200TIP3    H236546   5.334   3.472   5.724
12201TIP3   OH236547   5.384   2.845   1.678
12201TIP3    H136548   5.389   2.940   1.670
12201TIP3    H236549   5.468   2.820   1.716
12202TIP3   OH236550   7.702   2.851   5.510
12202TIP3    H136551   7.752   2.931   5.493
12202TIP3    H236552   7.765   2.791   5.549
12203TIP3   OH236553   6.439   4.289   1.209
12203TIP3    H136554   6.438   4.381   1.236
12203TIP3    H236555   6.347   4.268   1.193
12204TIP3   OH236556   6.571   6.106   1.468
12204TIP3    H136557   6.587   6.058   1.387
12204TIP3    H236558   6.561   6.037   1.534
12205TIP3   OH236559   0.222   5.444   6.043
12205TIP3    H136560   0.156   5.470   5.979
12205TIP3    H236561   0.219   5.513   6.109
12206TIP3   OH236562   6.770   0.534   3.622
12206TIP3    H136563   6.815   0.454   3.593
12206TIP3    H236564   6.717   0.507   3.696
12207TIP3   OH236565   0.777   7.616   5.388
12207TIP3    H136566   0.777   7.585   5.479
12207TIP3    H236567   0.811   7.705   5.392
12208TIP3   OH236568   2.979   3.019   2.032
12208TIP3    H136569   3.061   2.971   2.037
12208TIP3    H236570   2.985   3.067   1.949
12209TIP3   OH236571   4.769   0.495   5.932
12209TIP3    H136572   4.761   0.440   5.854
12209TIP3    H236573   4.863   0.506   5.945
12210TIP3   OH236574   8.007   6.314   1.293
12210TIP3    H136575   7.911   6.312   1.285
12210TIP3    H236576   8.038   6.300   1.203
12211TIP3   OH236577   5.095   3.145   4.950
12211TIP3    H136578   5.133   3.160   5.037
12211TIP3    H236579   5.078   3.051   4.948
12212TIP3   OH236580   7.186   0.974   2.336
12212TIP3    H136581   7.134   1.053   2.350
12212TIP3    H236582   7.273   1.005   2.312
12213TIP3   OH236583   5.953   1.098   4.378
12213TIP3    H136584   5.900   1.088   4.299
12213TIP3    H236585   6.039   1.062   4.354
12214TIP3   OH236586   8.116   5.262   2.230
12214TIP3    H136587   8.138   5.170   2.216
12214TIP3    H236588   8.093   5.268   2.323
12215TIP3   OH236589   7.892   5.219   1.024
12215TIP3    H136590   7.807   5.183   1.049
12215TIP3    H236591   7.903   5.196   0.932
12216TIP3   OH236592   3.270   3.906   1.486
12216TIP3    H136593   3.212   3.848   1.535
12216TIP3    H236594   3.317   3.956   1.554
12217TIP3   OH236595   3.522   1.540   4.824
12217TIP3    H136596   3.600   1.505   4.868
12217TIP3    H236597   3.459   1.553   4.895
12218TIP3   OH236598   3.569   3.653   6.062
12218TIP3    H136599   3.614   3.733   6.036
12218TIP3    H236600   3.548   3.609   5.980
12219TIP3   OH236601   1.739   2.740   3.518
12219TIP3    H136602   1.826   2.778   3.530
12219TIP3    H236603   1.699   2.792   3.448
12220TIP3   OH236604   7.739   5.005   4.399
12220TIP3    H136605   7.791   5.059   4.458
12220TIP3    H236606   7.803   4.947   4.358
12221TIP3   OH236607   3.613   2.144   4.824
12221TIP3    H136608   3.693   2.093   4.817
12221TIP3    H236609   3.552   2.101   4.765
12222TIP3   OH236610   2.865   4.553   0.638
12222TIP3    H136611   2.959   4.569   0.648
12222TIP3    H236612   2.848   4.476   0.693
12223TIP3   OH236613   2.156   1.588   5.007
12223TIP3    H136614   2.186   1.596   4.917
12223TIP3    H236615   2.204   1.513   5.042
12224TIP3   OH236616   0.256   2.812   4.032
12224TIP3    H136617   0.274   2.774   4.118
12224TIP3    H236618   0.225   2.901   4.051
12225TIP3   OH236619   0.747   6.269   3.347
12225TIP3    H136620   0.691   6.197   3.319
12225TIP3    H236621   0.820   6.269   3.286
12226TIP3   OH236622   1.029   7.635   6.361
12226TIP3    H136623   1.008   7.592   6.278
12226TIP3    H236624   1.074   7.715   6.335
12227TIP3   OH236625   1.938   1.140   6.519
12227TIP3    H136626   1.913   1.191   6.442
12227TIP3    H236627   1.934   1.204   6.591
12228TIP3   OH236628   1.911   3.398   3.265
12228TIP3    H136629   1.918   3.343   3.187
12228TIP3    H236630   1.983   3.461   3.256
12229TIP3   OH236631   3.994   1.913   0.616
12229TIP3    H136632   4.017   1.821   0.605
12229TIP3    H236633   3.945   1.936   0.537
12230TIP3   OH236634   2.297   2.005   2.453
12230TIP3    H136635   2.272   2.050   2.373
12230TIP3    H236636   2.218   1.956   2.479
12231TIP3   OH236637   7.187   3.842   4.075
12231TIP3    H136638   7.246   3.783   4.122
12231TIP3    H236639   7.107   3.843   4.128
12232TIP3   OH236640   0.226   4.814   5.744
12232TIP3    H136641   0.181   4.850   5.821
12232TIP3    H236642   0.277   4.741   5.779
12233TIP3   OH236643   2.677   5.974   2.528
12233TIP3    H136644   2.689   5.931   2.613
12233TIP3    H236645   2.766   5.996   2.500
12234TIP3   OH236646   4.121   6.160   6.631
12234TIP3    H136647   4.102   6.134   6.541
12234TIP3    H236648   4.156   6.249   6.624
12235TIP3   OH236649   4.410   4.009   4.825
12235TIP3    H136650   4.369   4.023   4.739
12235TIP3    H236651   4.504   4.005   4.807
12236TIP3   OH236652   7.959   2.309   2.735
12236TIP3    H136653   7.929   2.238   2.678
12236TIP3    H236654   7.893   2.378   2.723
12237TIP3   OH236655   7.167   1.893   4.261
12237TIP3    H136656   7.189   1.983   4.285
12237TIP3    H236657   7.222   1.874   4.185
12238TIP3   OH236658   6.918   6.662   5.184
12238TIP3    H136659   6.950   6.710   5.261
12238TIP3    H236660   6.827   6.642   5.204
12239TIP3   OH236661   1.167   5.336   0.722
12239TIP3    H136662   1.236   5.387   0.764
12239TIP3    H236663   1.093   5.396   0.716
12240TIP3   OH236664   5.081   5.076   5.167
12240TIP3    H136665   5.129   4.996   5.147
12240TIP3    H236666   5.138   5.124   5.227
12241TIP3   OH236667   5.254   1.051   3.301
12241TIP3    H136668   5.246   0.988   3.230
12241TIP3    H236669   5.194   1.122   3.278
12242TIP3   OH236670   2.188   3.468   0.085
12242TIP3    H136671   2.116   3.405   0.094
12242TIP3    H236672   2.260   3.428   0.134
12243TIP3   OH236673   4.405   6.202   6.405
12243TIP3    H136674   4.362   6.238   6.327
12243TIP3    H236675   4.477   6.150   6.370
12244TIP3   OH236676   1.557   6.710   5.502
12244TIP3    H136677   1.468   6.681   5.521
12244TIP3    H236678   1.558   6.723   5.407
12245TIP3   OH236679   7.585   3.642   4.180
12245TIP3    H136680   7.654   3.708   4.183
12245TIP3    H236681   7.561   3.637   4.087
12246TIP3   OH236682   6.190   4.703   3.720
12246TIP3    H136683   6.152   4.787   3.696
12246TIP3    H236684   6.190   4.652   3.639
12247TIP3   OH236685   5.703   0.786   0.154
12247TIP3    H136686   5.648   0.751   0.084
12247TIP3    H236687   5.740   0.866   0.117
12248TIP3   OH236688   5.521   1.170   0.955
12248TIP3    H136689   5.615   1.173   0.971
12248TIP3    H236690   5.511   1.187   0.862
12249TIP3   OH236691   3.174   4.130   5.311
12249TIP3    H136692   3.120   4.076   5.368
12249TIP3    H236693   3.235   4.069   5.269
12250TIP3   OH236694   5.114   7.509   3.213
12250TIP3    H136695   5.075   7.584   3.168
12250TIP3    H236696   5.119   7.440   3.147
12251TIP3   OH236697   6.667   1.948   2.327
12251TIP3    H136698   6.692   1.900   2.248
12251TIP3    H236699   6.748   1.951   2.379
12252TIP3   OH236700   2.548   0.561   3.418
12252TIP3    H136701   2.486   0.489   3.427
12252TIP3    H236702   2.632   0.524   3.446
12253TIP3   OH236703   2.220   4.344   4.798
12253TIP3    H136704   2.241   4.271   4.856
12253TIP3    H236705   2.292   4.406   4.811
12254TIP3   OH236706   1.245   7.181   6.177
12254TIP3    H136707   1.185   7.178   6.251
12254TIP3    H236708   1.301   7.105   6.188
12255TIP3   OH236709   4.543   7.161   0.462
12255TIP3    H136710   4.604   7.148   0.389
12255TIP3    H236711   4.494   7.079   0.467
12256TIP3   OH236712   2.218   0.705   6.413
12256TIP3    H136713   2.163   0.646   6.361
12256TIP3    H236714   2.156   0.760   6.461
12257TIP3   OH236715   5.827   7.133   5.210
12257TIP3    H136716   5.856   7.072   5.278
12257TIP3    H236717   5.853   7.091   5.128
12258TIP3   OH236718   8.207   0.753   3.671
12258TIP3    H136719   8.152   0.679   3.694
12258TIP3    H236720   8.183   0.774   3.581
12259TIP3   OH236721   6.115   6.112   3.999
12259TIP3    H136722   6.186   6.086   4.058
12259TIP3    H236723   6.053   6.159   4.055
12260TIP3   OH236724   0.838   6.007   6.410
12260TIP3    H136725   0.839   6.085   6.465
12260TIP3    H236726   0.851   6.039   6.321
12261TIP3   OH236727   3.949   6.528   0.830
12261TIP3    H136728   3.915   6.533   0.919
12261TIP3    H236729   3.897   6.592   0.781
12262TIP3   OH236730   3.166   2.132   0.761
12262TIP3    H136731   3.116   2.135   0.842
12262TIP3    H236732   3.125   2.062   0.710
12263TIP3   OH236733   7.414   2.868   2.300
12263TIP3    H136734   7.431   2.924   2.223
12263TIP3    H236735   7.319   2.868   2.307
12264TIP3   OH236736   2.932   3.260   5.246
12264TIP3    H136737   2.841   3.245   5.221
12264TIP3    H236738   2.935   3.245   5.340
12265TIP3   OH236739   5.912   7.584   3.085
12265TIP3    H136740   5.880   7.674   3.090
12265TIP3    H236741   5.860   7.536   3.150
12266TIP3   OH236742   3.789   7.445   4.139
12266TIP3    H136743   3.773   7.403   4.055
12266TIP3    H236744   3.844   7.383   4.188
12267TIP3   OH236745   4.528   2.530   0.541
12267TIP3    H136746   4.460   2.550   0.606
12267TIP3    H236747   4.504   2.443   0.508
12268TIP3   OH236748  -0.012   6.280   2.237
12268TIP3    H136749   0.038   6.199   2.232
12268TIP3    H236750   0.045   6.345   2.196
12269TIP3   OH236751   6.075   4.518   2.878
12269TIP3    H136752   6.062   4.434   2.923
12269TIP3    H236753   6.053   4.500   2.786
12270TIP3   OH236754   7.005   7.717   2.808
12270TIP3    H136755   6.967   7.629   2.807
12270TIP3    H236756   6.942   7.771   2.759
12271TIP3   OH236757   8.225   3.300   3.912
12271TIP3    H136758   8.196   3.389   3.893
12271TIP3    H236759   8.233   3.298   4.007
12272TIP3   OH236760   5.267   5.606   4.856
12272TIP3    H136761   5.283   5.672   4.923
12272TIP3    H236762   5.173   5.588   4.863
12273TIP3   OH236763   3.366   5.490   6.526
12273TIP3    H136764   3.288   5.434   6.522
12273TIP3    H236765   3.364   5.539   6.444
12274TIP3   OH236766   2.594   6.292   4.445
12274TIP3    H136767   2.499   6.279   4.451
12274TIP3    H236768   2.631   6.222   4.499
12275TIP3   OH236769   5.256   1.394   6.036
12275TIP3    H136770   5.202   1.438   6.102
12275TIP3    H236771   5.208   1.314   6.015
12276TIP3   OH236772   3.509   0.960   6.085
12276TIP3    H136773   3.479   1.047   6.063
12276TIP3    H236774   3.467   0.940   6.169
12277TIP3   OH236775   7.905   0.905   1.378
12277TIP3    H136776   7.912   0.939   1.467
12277TIP3    H236777   7.817   0.927   1.350
12278TIP3   OH236778   6.659   0.757   2.742
12278TIP3    H136779   6.746   0.766   2.782
12278TIP3    H236780   6.604   0.722   2.812
12279TIP3   OH236781   3.483   6.557   0.975
12279TIP3    H136782   3.417   6.493   0.946
12279TIP3    H236783   3.465   6.635   0.923
12280TIP3   OH236784   8.122   5.621   3.794
12280TIP3    H136785   8.216   5.635   3.782
12280TIP3    H236786   8.106   5.533   3.760
12281TIP3   OH236787   1.381   2.764   1.220
12281TIP3    H136788   1.460   2.757   1.274
12281TIP3    H236789   1.351   2.673   1.209
12282TIP3   OH236790   1.250   0.721   3.436
12282TIP3    H136791   1.238   0.651   3.372
12282TIP3    H236792   1.286   0.794   3.384
12283TIP3   OH236793   2.742   3.767   1.564
12283TIP3    H136794   2.743   3.757   1.659
12283TIP3    H236795   2.680   3.839   1.548
12284TIP3   OH236796   6.305   0.123   3.151
12284TIP3    H136797   6.238   0.174   3.197
12284TIP3    H236798   6.359   0.188   3.107
12285TIP3   OH236799   6.971   6.811   3.014
12285TIP3    H136800   7.019   6.773   2.941
12285TIP3    H236801   6.881   6.818   2.983
12286TIP3   OH236802   6.616   5.803   4.142
12286TIP3    H136803   6.619   5.893   4.174
12286TIP3    H236804   6.688   5.758   4.187
12287TIP3   OH236805   3.079   3.680   1.295
12287TIP3    H136806   3.173   3.664   1.303
12287TIP3    H236807   3.039   3.620   1.358
12288TIP3   OH236808   0.851   3.247   4.593
12288TIP3    H136809   0.808   3.251   4.678
12288TIP3    H236810   0.814   3.169   4.551
12289TIP3   OH236811   2.343   3.930   1.972
12289TIP3    H136812   2.259   3.950   1.932
12289TIP3    H236813   2.322   3.878   2.050
12290TIP3   OH236814   3.327   6.143   0.859
12290TIP3    H136815   3.369   6.086   0.795
12290TIP3    H236816   3.242   6.164   0.821
12291TIP3   OH236817   3.335   5.818   0.876
12291TIP3    H136818   3.371   5.745   0.825
12291TIP3    H236819   3.277   5.864   0.814
12292TIP3   OH236820   5.572   4.772   1.065
12292TIP3    H136821   5.626   4.710   1.016
12292TIP3    H236822   5.488   4.727   1.074
12293TIP3   OH236823   4.073   3.963   0.457
12293TIP3    H136824   4.015   3.929   0.389
12293TIP3    H236825   4.083   4.055   0.436
12294TIP3   OH236826   6.902   7.830   1.065
12294TIP3    H136827   6.818   7.823   1.111
12294TIP3    H236828   6.937   7.741   1.066
12295TIP3   OH236829   6.251   6.665   5.868
12295TIP3    H136830   6.225   6.579   5.900
12295TIP3    H236831   6.169   6.705   5.839
12296TIP3   OH236832   4.435   2.233   2.930
12296TIP3    H136833   4.381   2.309   2.906
12296TIP3    H236834   4.437   2.179   2.851
12297TIP3   OH236835   7.348   0.191   4.590
12297TIP3    H136836   7.312   0.272   4.552
12297TIP3    H236837   7.418   0.221   4.648
12298TIP3   OH236838   5.032   5.130   4.062
12298TIP3    H136839   5.072   5.206   4.105
12298TIP3    H236840   4.958   5.166   4.013
12299TIP3   OH236841   1.267   7.076   1.658
12299TIP3    H136842   1.218   7.009   1.706
12299TIP3    H236843   1.221   7.158   1.678
12300TIP3   OH236844   3.651   5.310   4.937
12300TIP3    H136845   3.612   5.385   4.981
12300TIP3    H236846   3.581   5.244   4.935
12301TIP3   OH236847   8.157   3.739   0.228
12301TIP3    H136848   8.209   3.666   0.192
12301TIP3    H236849   8.132   3.709   0.315
12302TIP3   OH236850   1.474   4.761   2.718
12302TIP3    H136851   1.561   4.724   2.732
12302TIP3    H236852   1.490   4.849   2.683
12303TIP3   OH236853   3.731   2.795   5.264
12303TIP3    H136854   3.824   2.817   5.270
12303TIP3    H236855   3.724   2.740   5.186
12304TIP3   OH236856   5.090   1.561   6.221
12304TIP3    H136857   5.061   1.563   6.312
12304TIP3    H236858   5.172   1.611   6.222
12305TIP3   OH236859   1.651   2.655   4.008
12305TIP3    H136860   1.582   2.705   4.052
12305TIP3    H236861   1.618   2.640   3.919
12306TIP3   OH236862   3.364   5.977   3.750
12306TIP3    H136863   3.407   5.903   3.793
12306TIP3    H236864   3.272   5.951   3.744
12307TIP3   OH236865   6.444   4.661   3.942
12307TIP3    H136866   6.490   4.627   3.866
12307TIP3    H236867   6.487   4.743   3.962
12308TIP3   OH236868   0.535   2.441   4.367
12308TIP3    H136869   0.570   2.390   4.294
12308TIP3    H236870   0.580   2.405   4.444
12309TIP3   OH236871   7.479   2.428   1.890
12309TIP3    H136872   7.444   2.458   1.806
12309TIP3    H236873   7.478   2.333   1.884
12310TIP3   OH236874   3.169   3.787   4.461
12310TIP3    H136875   3.093   3.731   4.447
12310TIP3    H236876   3.243   3.725   4.468
12311TIP3   OH236877   7.576   5.327   6.335
12311TIP3    H136878   7.605   5.365   6.418
12311TIP3    H236879   7.487   5.361   6.324
12312TIP3   OH236880   7.339   2.062   6.606
12312TIP3    H136881   7.424   2.107   6.601
12312TIP3    H236882   7.317   2.063   6.700
12313TIP3   OH236883   2.422   2.700   2.231
12313TIP3    H136884   2.391   2.609   2.233
12313TIP3    H236885   2.442   2.716   2.138
12314TIP3   OH236886   0.527   7.471   5.682
12314TIP3    H136887   0.621   7.486   5.666
12314TIP3    H236888   0.486   7.555   5.661
12315TIP3   OH236889   3.394   1.664   0.339
12315TIP3    H136890   3.331   1.598   0.307
12315TIP3    H236891   3.410   1.721   0.263
12316TIP3   OH236892   6.328   7.304   3.278
12316TIP3    H136893   6.387   7.363   3.231
12316TIP3    H236894   6.381   7.268   3.349
12317TIP3   OH236895   8.188   2.444   6.145
12317TIP3    H136896   8.239   2.368   6.117
12317TIP3    H236897   8.160   2.486   6.063
12318TIP3   OH236898   5.593   5.366   1.326
12318TIP3    H136899   5.533   5.440   1.319
12318TIP3    H236900   5.540   5.295   1.362
12319TIP3   OH236901   5.886   4.706   5.619
12319TIP3    H136902   5.963   4.761   5.634
12319TIP3    H236903   5.916   4.617   5.636
12320TIP3   OH236904   6.340   5.362   2.741
12320TIP3    H136905   6.289   5.395   2.667
12320TIP3    H236906   6.416   5.320   2.701
12321TIP3   OH236907   7.509   7.447   2.382
12321TIP3    H136908   7.510   7.513   2.312
12321TIP3    H236909   7.424   7.459   2.424
12322TIP3   OH236910   3.486   5.592   3.277
12322TIP3    H136911   3.413   5.604   3.337
12322TIP3    H236912   3.476   5.664   3.213
12323TIP3   OH236913   7.215   6.328   5.186
12323TIP3    H136914   7.123   6.309   5.204
12323TIP3    H236915   7.230   6.412   5.229
12324TIP3   OH236916   4.548   2.061   4.824
12324TIP3    H136917   4.522   2.003   4.896
12324TIP3    H236918   4.640   2.039   4.807
12325TIP3   OH236919   8.109   7.618   4.154
12325TIP3    H136920   8.026   7.611   4.107
12325TIP3    H236921   8.095   7.687   4.218
12326TIP3   OH236922   6.915   4.247   2.299
12326TIP3    H136923   6.845   4.183   2.312
12326TIP3    H236924   6.985   4.219   2.357
12327TIP3   OH236925   6.370   5.792   3.579
12327TIP3    H136926   6.461   5.779   3.552
12327TIP3    H236927   6.357   5.887   3.572
12328TIP3   OH236928   5.344   7.555   0.239
12328TIP3    H136929   5.393   7.475   0.257
12328TIP3    H236930   5.278   7.528   0.175
12329TIP3   OH236931   5.942   5.285   5.119
12329TIP3    H136932   5.896   5.214   5.163
12329TIP3    H236933   5.873   5.341   5.084
12330TIP3   OH236934   4.829   0.678   3.713
12330TIP3    H136935   4.850   0.645   3.800
12330TIP3    H236936   4.762   0.745   3.728
12331TIP3   OH236937   7.379   2.862   4.488
12331TIP3    H136938   7.286   2.866   4.466
12331TIP3    H236939   7.423   2.903   4.413
12332TIP3   OH236940   3.543   3.525   5.786
12332TIP3    H136941   3.532   3.431   5.793
12332TIP3    H236942   3.634   3.536   5.757
12333TIP3   OH236943   1.384   0.900   4.950
12333TIP3    H136944   1.467   0.903   4.997
12333TIP3    H236945   1.401   0.845   4.873
12334TIP3   OH236946   3.094   6.106   5.852
12334TIP3    H136947   3.072   6.026   5.899
12334TIP3    H236948   3.010   6.144   5.827
12335TIP3   OH236949   6.891   6.904   6.087
12335TIP3    H136950   6.891   6.866   5.999
12335TIP3    H236951   6.938   6.840   6.140
12336TIP3   OH236952   7.571   6.915   1.590
12336TIP3    H136953   7.519   6.835   1.585
12336TIP3    H236954   7.662   6.886   1.590
12337TIP3   OH236955   7.935   1.659   5.667
12337TIP3    H136956   7.990   1.665   5.746
12337TIP3    H236957   7.845   1.659   5.701
12338TIP3   OH236958   1.017   0.535   4.825
12338TIP3    H136959   0.990   0.606   4.884
12338TIP3    H236960   0.970   0.552   4.744
12339TIP3   OH236961   3.736   7.020   3.294
12339TIP3    H136962   3.748   7.068   3.212
12339TIP3    H236963   3.642   7.001   3.298
12340TIP3   OH236964   4.967   3.422   2.557
12340TIP3    H136965   4.953   3.465   2.473
12340TIP3    H236966   4.970   3.494   2.621
12341TIP3   OH236967   0.756   3.245   1.681
12341TIP3    H136968   0.754   3.255   1.586
12341TIP3    H236969   0.774   3.152   1.696
12342TIP3   OH236970   4.856   3.687   4.281
12342TIP3    H136971   4.855   3.713   4.373
12342TIP3    H236972   4.893   3.599   4.281
12343TIP3   OH236973   5.807   0.108   5.662
12343TIP3    H136974   5.776   0.019   5.679
12343TIP3    H236975   5.791   0.122   5.569
12344TIP3   OH236976   4.370   4.809   5.713
12344TIP3    H136977   4.407   4.755   5.783
12344TIP3    H236978   4.411   4.776   5.633
12345TIP3   OH236979   6.370   7.717   3.398
12345TIP3    H136980   6.307   7.675   3.457
12345TIP3    H236981   6.455   7.686   3.429
12346TIP3   OH236982   3.503   1.031   1.109
12346TIP3    H136983   3.540   1.110   1.070
12346TIP3    H236984   3.569   0.964   1.094
12347TIP3   OH236985   2.553   3.012   4.427
12347TIP3    H136986   2.506   2.933   4.453
12347TIP3    H236987   2.578   3.054   4.509
12348TIP3   OH236988   7.882   0.410   1.206
12348TIP3    H136989   7.824   0.335   1.214
12348TIP3    H236990   7.953   0.392   1.268
12349TIP3   OH236991   6.063   3.630   5.520
12349TIP3    H136992   6.114   3.710   5.534
12349TIP3    H236993   6.081   3.607   5.429
12350TIP3   OH236994   4.622   3.097   3.279
12350TIP3    H136995   4.668   3.154   3.217
12350TIP3    H236996   4.531   3.127   3.275
12351TIP3   OH236997   5.729   0.150   2.747
12351TIP3    H136998   5.817   0.140   2.783
12351TIP3    H236999   5.675   0.092   2.801
12352TIP3   OH237000   5.269   0.164   3.622
12352TIP3    H137001   5.308   0.191   3.538
12352TIP3    H237002   5.179   0.197   3.618
12353TIP3   OH237003   2.668   5.898   6.034
12353TIP3    H137004   2.680   5.810   6.069
12353TIP3    H237005   2.670   5.887   5.939
12354TIP3   OH237006   7.430   2.226   3.746
12354TIP3    H137007   7.423   2.166   3.820
12354TIP3    H237008   7.451   2.311   3.785
12355TIP3   OH237009   8.054   2.013   0.700
12355TIP3    H137010   7.975   2.039   0.746
12355TIP3    H237011   8.095   2.096   0.673
12356TIP3   OH237012   3.698   1.519   5.520
12356TIP3    H137013   3.768   1.454   5.527
12356TIP3    H237014   3.744   1.603   5.511
12357TIP3   OH237015   0.192   5.350   4.254
12357TIP3    H137016   0.105   5.387   4.235
12357TIP3    H237017   0.173   5.261   4.285
12358TIP3   OH237018   3.295   2.353   4.994
12358TIP3    H137019   3.223   2.402   4.955
12358TIP3    H237020   3.364   2.417   5.007
12359TIP3   OH237021   7.399   6.220   6.436
12359TIP3    H137022   7.407   6.201   6.342
12359TIP3    H237023   7.488   6.236   6.466
12360TIP3   OH237024   2.924   5.017   5.786
12360TIP3    H137025   2.985   5.084   5.755
12360TIP3    H237026   2.954   4.997   5.875
12361TIP3   OH237027   0.777   2.325   2.284
12361TIP3    H137028   0.785   2.417   2.310
12361TIP3    H237029   0.832   2.278   2.345
12362TIP3   OH237030   2.261   0.249   0.540
12362TIP3    H137031   2.271   0.337   0.504
12362TIP3    H237032   2.350   0.213   0.541
12363TIP3   OH237033   4.868   3.636   1.290
12363TIP3    H137034   4.795   3.686   1.253
12363TIP3    H237035   4.848   3.545   1.269
12364TIP3   OH237036   1.540   5.277   6.630
12364TIP3    H137037   1.540   5.184   6.653
12364TIP3    H237038   1.447   5.301   6.629
12365TIP3   OH237039   3.214   2.865   2.093
12365TIP3    H137040   3.229   2.878   2.186
12365TIP3    H237041   3.292   2.902   2.051
12366TIP3   OH237042   7.090   5.156   1.657
12366TIP3    H137043   7.012   5.150   1.712
12366TIP3    H237044   7.149   5.213   1.706
12367TIP3   OH237045   4.052   6.008   1.964
12367TIP3    H137046   3.992   6.003   2.039
12367TIP3    H237047   4.129   6.052   1.999
12368TIP3   OH237048   3.824   7.860   3.276
12368TIP3    H137049   3.875   7.814   3.343
12368TIP3    H237050   3.749   7.802   3.258
12369TIP3   OH237051   1.183   6.433   5.323
12369TIP3    H137052   1.166   6.364   5.387
12369TIP3    H237053   1.267   6.408   5.283
12370TIP3   OH237054   2.659   6.389   5.718
12370TIP3    H137055   2.589   6.349   5.769
12370TIP3    H237056   2.624   6.397   5.629
12371TIP3   OH237057   8.181   1.795   5.723
12371TIP3    H137058   8.250   1.833   5.778
12371TIP3    H237059   8.207   1.704   5.712
12372TIP3   OH237060   4.267   0.081   5.449
12372TIP3    H137061   4.210   0.006   5.430
12372TIP3    H237062   4.208   0.156   5.451
12373TIP3   OH237063   6.130   5.329   3.141
12373TIP3    H137064   6.185   5.283   3.078
12373TIP3    H237065   6.190   5.387   3.188
12374TIP3   OH237066   7.674   2.828   6.515
12374TIP3    H137067   7.678   2.736   6.490
12374TIP3    H237068   7.643   2.827   6.606
12375TIP3   OH237069   7.509   0.084   3.732
12375TIP3    H137070   7.463   0.011   3.774
12375TIP3    H237071   7.593   0.047   3.704
12376TIP3   OH237072   8.216   2.203   2.820
12376TIP3    H137073   8.257   2.150   2.751
12376TIP3    H237074   8.123   2.200   2.799
12377TIP3   OH237075   1.725   6.656   6.411
12377TIP3    H137076   1.684   6.585   6.362
12377TIP3    H237077   1.711   6.734   6.358
12378TIP3   OH237078   4.469   5.122   1.808
12378TIP3    H137079   4.563   5.131   1.795
12378TIP3    H237080   4.450   5.033   1.778
12379TIP3   OH237081   5.023   7.545   4.593
12379TIP3    H137082   4.964   7.517   4.522
12379TIP3    H237083   5.108   7.553   4.551
12380TIP3   OH237084   5.358   0.232   3.121
12380TIP3    H137085   5.330   0.142   3.139
12380TIP3    H237086   5.454   0.228   3.123
12381TIP3   OH237087   1.278   3.240   2.093
12381TIP3    H137088   1.235   3.212   2.174
12381TIP3    H237089   1.291   3.334   2.105
12382TIP3   OH237090   5.583   2.898   4.350
12382TIP3    H137091   5.640   2.970   4.323
12382TIP3    H237092   5.612   2.823   4.298
12383TIP3   OH237093   2.178   1.531   0.794
12383TIP3    H137094   2.145   1.604   0.845
12383TIP3    H237095   2.269   1.553   0.775
12384TIP3   OH237096   5.220   4.067   4.529
12384TIP3    H137097   5.242   4.157   4.508
12384TIP3    H237098   5.251   4.055   4.619
12385TIP3   OH237099   2.804   3.212   4.513
12385TIP3    H137100   2.861   3.270   4.563
12385TIP3    H237101   2.725   3.204   4.567
12386TIP3   OH237102   5.661   6.559   0.896
12386TIP3    H137103   5.748   6.525   0.914
12386TIP3    H237104   5.602   6.489   0.925
12387TIP3   OH237105   5.912   6.840   3.452
12387TIP3    H137106   5.835   6.897   3.448
12387TIP3    H237107   5.926   6.814   3.361
12388TIP3   OH237108   2.233   1.936   6.459
12388TIP3    H137109   2.199   1.955   6.546
12388TIP3    H237110   2.305   1.998   6.447
12389TIP3   OH237111   7.217   4.741   3.715
12389TIP3    H137112   7.299   4.783   3.688
12389TIP3    H237113   7.238   4.697   3.797
12390TIP3   OH237114   5.707   7.672   3.509
12390TIP3    H137115   5.635   7.719   3.467
12390TIP3    H237116   5.686   7.676   3.602
12391TIP3   OH237117   7.817   2.603   3.659
12391TIP3    H137118   7.755   2.613   3.731
12391TIP3    H237119   7.903   2.617   3.700
12392TIP3   OH237120   4.223   0.493   3.371
12392TIP3    H137121   4.186   0.573   3.408
12392TIP3    H237122   4.155   0.427   3.387
12393TIP3   OH237123   8.032   2.073   5.711
12393TIP3    H137124   8.083   2.082   5.791
12393TIP3    H237125   8.030   1.979   5.694
12394TIP3   OH237126   7.162   0.429   0.222
12394TIP3    H137127   7.174   0.415   0.128
12394TIP3    H237128   7.153   0.523   0.232
12395TIP3   OH237129   3.623   2.529   1.095
12395TIP3    H137130   3.662   2.609   1.062
12395TIP3    H237131   3.583   2.487   1.018
12396TIP3   OH237132   1.653   3.235   5.167
12396TIP3    H137133   1.664   3.280   5.251
12396TIP3    H237134   1.646   3.306   5.103
12397TIP3   OH237135   4.251   1.836   0.802
12397TIP3    H137136   4.269   1.922   0.762
12397TIP3    H237137   4.180   1.800   0.751
12398TIP3   OH237138   3.355   5.628   6.294
12398TIP3    H137139   3.393   5.715   6.309
12398TIP3    H237140   3.410   5.590   6.225
12399TIP3   OH237141   1.315   5.145   2.617
12399TIP3    H137142   1.378   5.085   2.657
12399TIP3    H237143   1.361   5.228   2.611
12400TIP3   OH237144   0.035   6.582   2.167
12400TIP3    H137145   0.035   6.676   2.151
12400TIP3    H237146   0.121   6.564   2.205
12401TIP3   OH237147   1.524   1.759   1.931
12401TIP3    H137148   1.460   1.828   1.914
12401TIP3    H237149   1.608   1.798   1.906
12402TIP3   OH237150   6.905   4.904   6.653
12402TIP3    H137151   6.928   4.914   6.746
12402TIP3    H237152   6.847   4.828   6.651
12403TIP3   OH237153   4.619   4.126   0.045
12403TIP3    H137154   4.658   4.084  -0.032
12403TIP3    H237155   4.525   4.125   0.028
12404TIP3   OH237156   5.566   1.672   0.696
12404TIP3    H137157   5.543   1.591   0.650
12404TIP3    H237158   5.498   1.734   0.672
12405TIP3   OH237159   3.726   3.300   6.239
12405TIP3    H137160   3.700   3.271   6.152
12405TIP3    H237161   3.779   3.228   6.273
12406TIP3   OH237162   0.505   6.351   2.329
12406TIP3    H137163   0.572   6.393   2.384
12406TIP3    H237164   0.554   6.290   2.274
12407TIP3   OH237165   1.675   6.424   5.002
12407TIP3    H137166   1.673   6.507   4.953
12407TIP3    H237167   1.726   6.445   5.080
12408TIP3   OH237168   3.509   5.896   0.219
12408TIP3    H137169   3.516   5.832   0.149
12408TIP3    H237170   3.463   5.850   0.289
12409TIP3   OH237171   0.316   1.033   5.976
12409TIP3    H137172   0.358   0.950   6.000
12409TIP3    H237173   0.385   1.084   5.934
12410TIP3   OH237174   3.298   6.864   0.470
12410TIP3    H137175   3.391   6.888   0.471
12410TIP3    H237176   3.252   6.948   0.464
12411TIP3   OH237177   4.072   2.329   1.100
12411TIP3    H137178   4.116   2.326   1.015
12411TIP3    H237179   4.107   2.253   1.148
12412TIP3   OH237180   2.482   4.978   4.665
12412TIP3    H137181   2.479   5.018   4.752
12412TIP3    H237182   2.390   4.966   4.641
12413TIP3   OH237183   6.463   7.718   4.492
12413TIP3    H137184   6.474   7.756   4.404
12413TIP3    H237185   6.420   7.787   4.543
12414TIP3   OH237186   1.023   2.356   5.778
12414TIP3    H137187   1.066   2.295   5.718
12414TIP3    H237188   1.089   2.423   5.796
12415TIP3   OH237189   0.157   7.708   4.996
12415TIP3    H137190   0.128   7.799   4.994
12415TIP3    H237191   0.088   7.659   4.951
12416TIP3   OH237192   6.446   1.850   0.268
12416TIP3    H137193   6.501   1.776   0.244
12416TIP3    H237194   6.505   1.925   0.270
12417TIP3   OH237195   5.764   4.649   0.478
12417TIP3    H137196   5.681   4.660   0.526
12417TIP3    H237197   5.830   4.686   0.536
12418TIP3   OH237198   2.655   3.221   1.987
12418TIP3    H137199   2.680   3.230   2.079
12418TIP3    H237200   2.603   3.141   1.984
12419TIP3   OH237201   4.240   3.079   5.638
12419TIP3    H137202   4.322   3.035   5.618
12419TIP3    H237203   4.183   3.060   5.563
12420TIP3   OH237204   6.300   2.462   4.798
12420TIP3    H137205   6.313   2.394   4.732
12420TIP3    H237206   6.220   2.507   4.770
12421TIP3   OH237207   2.156   5.727   2.952
12421TIP3    H137208   2.226   5.792   2.946
12421TIP3    H237209   2.168   5.672   2.874
12422TIP3   OH237210   2.049   4.460   1.733
12422TIP3    H137211   1.994   4.538   1.742
12422TIP3    H237212   2.018   4.418   1.653
12423TIP3   OH237213   0.524   3.313   2.652
12423TIP3    H137214   0.618   3.325   2.636
12423TIP3    H237215   0.496   3.395   2.690
12424TIP3   OH237216   3.195   2.556   5.456
12424TIP3    H137217   3.104   2.586   5.460
12424TIP3    H237218   3.204   2.519   5.368
12425TIP3   OH237219   7.249   4.769   3.188
12425TIP3    H137220   7.270   4.716   3.111
12425TIP3    H237221   7.330   4.772   3.238
12426TIP3   OH237222   5.751   3.462   1.964
12426TIP3    H137223   5.774   3.384   2.015
12426TIP3    H237224   5.790   3.535   2.012
12427TIP3   OH237225   1.253   1.735   0.461
12427TIP3    H137226   1.262   1.640   0.456
12427TIP3    H237227   1.158   1.749   0.459
12428TIP3   OH237228   5.945   5.414   0.542
12428TIP3    H137229   5.925   5.465   0.463
12428TIP3    H237230   5.913   5.467   0.614
12429TIP3   OH237231   5.705   3.727   5.908
12429TIP3    H137232   5.773   3.734   5.841
12429TIP3    H237233   5.659   3.646   5.888
12430TIP3   OH237234   4.362   4.855   1.690
12430TIP3    H137235   4.381   4.781   1.632
12430TIP3    H237236   4.292   4.903   1.645
12431TIP3   OH237237   7.732   2.401   3.964
12431TIP3    H137238   7.812   2.424   3.915
12431TIP3    H237239   7.760   2.400   4.055
12432TIP3   OH237240   6.187   4.835   1.880
12432TIP3    H137241   6.176   4.781   1.802
12432TIP3    H237242   6.108   4.820   1.931
12433TIP3   OH237243   5.528   6.989   6.085
12433TIP3    H137244   5.541   7.001   5.991
12433TIP3    H237245   5.542   6.895   6.099
12434TIP3   OH237246   1.627   4.025   6.117
12434TIP3    H137247   1.654   3.983   6.198
12434TIP3    H237248   1.568   4.095   6.145
12435TIP3   OH237249   1.590   4.506   0.760
12435TIP3    H137250   1.543   4.456   0.694
12435TIP3    H237251   1.529   4.575   0.785
12436TIP3   OH237252   1.863   6.535   2.012
12436TIP3    H137253   1.894   6.554   2.101
12436TIP3    H237254   1.869   6.618   1.966
12437TIP3   OH237255   4.304   4.527   1.003
12437TIP3    H137256   4.236   4.576   0.957
12437TIP3    H237257   4.303   4.562   1.092
12438TIP3   OH237258   1.772   3.400   2.599
12438TIP3    H137259   1.837   3.387   2.668
12438TIP3    H237260   1.759   3.495   2.596
12439TIP3   OH237261   3.202   0.506   2.555
12439TIP3    H137262   3.115   0.536   2.583
12439TIP3    H237263   3.253   0.503   2.636
12440TIP3   OH237264   5.452   6.935   5.189
12440TIP3    H137265   5.427   7.018   5.229
12440TIP3    H237266   5.410   6.937   5.103
12441TIP3   OH237267   1.582   4.070   6.525
12441TIP3    H137268   1.658   4.053   6.581
12441TIP3    H237269   1.617   4.119   6.451
12442TIP3   OH237270   2.532   0.996   5.897
12442TIP3    H137271   2.508   0.999   5.805
12442TIP3    H237272   2.627   1.003   5.898
12443TIP3   OH237273   7.153   7.302   5.855
12443TIP3    H137274   7.084   7.366   5.873
12443TIP3    H237275   7.120   7.220   5.891
12444TIP3   OH237276   4.541   1.057   5.558
12444TIP3    H137277   4.556   0.994   5.488
12444TIP3    H237278   4.459   1.028   5.599
12445TIP3   OH237279   1.435   3.502   0.586
12445TIP3    H137280   1.341   3.511   0.601
12445TIP3    H237281   1.454   3.410   0.602
12446TIP3   OH237282   1.452   7.493   1.841
12446TIP3    H137283   1.443   7.455   1.928
12446TIP3    H237284   1.468   7.418   1.783
12447TIP3   OH237285   2.739   0.101   4.675
12447TIP3    H137286   2.817   0.123   4.625
12447TIP3    H237287   2.729   0.006   4.664
12448TIP3   OH237288   3.655   3.563   6.303
12448TIP3    H137289   3.668   3.471   6.282
12448TIP3    H237290   3.617   3.601   6.224
12449TIP3   OH237291   5.983   3.004   4.526
12449TIP3    H137292   5.915   2.959   4.577
12449TIP3    H237293   5.971   2.971   4.437
12450TIP3   OH237294   5.103   5.257   2.693
12450TIP3    H137295   5.150   5.334   2.662
12450TIP3    H237296   5.132   5.186   2.635
12451TIP3   OH237297   3.321   3.574   1.372
12451TIP3    H137298   3.395   3.617   1.415
12451TIP3    H237299   3.314   3.489   1.417
12452TIP3   OH237300   0.303   1.745   2.987
12452TIP3    H137301   0.339   1.794   3.061
12452TIP3    H237302   0.283   1.811   2.921
12453TIP3   OH237303   4.858   1.845   3.703
12453TIP3    H137304   4.880   1.928   3.745
12453TIP3    H237305   4.850   1.866   3.610
12454TIP3   OH237306   6.628   1.213   6.274
12454TIP3    H137307   6.679   1.293   6.273
12454TIP3    H237308   6.604   1.201   6.366
12455TIP3   OH237309   2.793   3.391   6.170
12455TIP3    H137310   2.717   3.442   6.199
12455TIP3    H237311   2.859   3.405   6.237
12456TIP3   OH237312   6.268   4.836   0.307
12456TIP3    H137313   6.186   4.835   0.356
12456TIP3    H237314   6.335   4.848   0.374
12457TIP3   OH237315   1.913   5.541   5.793
12457TIP3    H137316   1.955   5.461   5.824
12457TIP3    H237317   1.872   5.578   5.872
12458TIP3   OH237318   5.555   2.149   5.558
12458TIP3    H137319   5.480   2.204   5.583
12458TIP3    H237320   5.632   2.200   5.585
12459TIP3   OH237321   8.164   5.110   5.969
12459TIP3    H137322   8.253   5.099   5.935
12459TIP3    H237323   8.123   5.025   5.955
12460TIP3   OH237324   5.541   1.921   5.402
12460TIP3    H137325   5.501   1.980   5.466
12460TIP3    H237326   5.619   1.969   5.372
12461TIP3   OH237327   6.635   7.562   2.037
12461TIP3    H137328   6.558   7.611   2.067
12461TIP3    H237329   6.601   7.503   1.969
12462TIP3   OH237330   4.810   0.820   1.232
12462TIP3    H137331   4.813   0.730   1.199
12462TIP3    H237332   4.824   0.811   1.326
12463TIP3   OH237333   3.261   5.727   4.244
12463TIP3    H137334   3.351   5.743   4.273
12463TIP3    H237335   3.231   5.654   4.298
12464TIP3   OH237336   8.204   6.485   1.385
12464TIP3    H137337   8.283   6.469   1.332
12464TIP3    H237338   8.143   6.417   1.357
12465TIP3   OH237339   1.234   2.560   4.818
12465TIP3    H137340   1.299   2.627   4.837
12465TIP3    H237341   1.207   2.527   4.904
12466TIP3   OH237342   5.579   1.887   3.850
12466TIP3    H137343   5.513   1.938   3.803
12466TIP3    H237344   5.662   1.932   3.829
12467TIP3   OH237345   7.443   4.024   0.950
12467TIP3    H137346   7.435   3.995   1.041
12467TIP3    H237347   7.357   4.059   0.928
12468TIP3   OH237348   8.191   4.904   4.122
12468TIP3    H137349   8.166   4.912   4.214
12468TIP3    H237350   8.287   4.895   4.124
12469TIP3   OH237351   6.360   4.235   4.854
12469TIP3    H137352   6.283   4.204   4.806
12469TIP3    H237353   6.334   4.232   4.946
12470TIP3   OH237354   0.165   3.119   5.693
12470TIP3    H137355   0.165   3.155   5.781
12470TIP3    H237356   0.083   3.071   5.686
12471TIP3   OH237357   4.934   1.427   1.631
12471TIP3    H137358   5.026   1.443   1.608
12471TIP3    H237359   4.894   1.398   1.550
12472TIP3   OH237360   0.123   3.198   1.649
12472TIP3    H137361   0.038   3.197   1.604
12472TIP3    H237362   0.100   3.212   1.741
12473TIP3   OH237363   5.181   5.884   4.069
12473TIP3    H137364   5.095   5.865   4.105
12473TIP3    H237365   5.231   5.803   4.080
12474TIP3   OH237366   3.957   1.643   1.804
12474TIP3    H137367   3.894   1.572   1.788
12474TIP3    H237368   4.035   1.617   1.756
12475TIP3   OH237369   2.195   6.285   6.670
12475TIP3    H137370   2.203   6.216   6.736
12475TIP3    H237371   2.125   6.341   6.703
12476TIP3   OH237372   3.340   6.699   2.660
12476TIP3    H137373   3.285   6.725   2.734
12476TIP3    H237374   3.424   6.674   2.699
12477TIP3   OH237375   3.952   4.664   5.993
12477TIP3    H137376   3.992   4.733   5.940
12477TIP3    H237377   3.980   4.683   6.083
12478TIP3   OH237378   0.896   0.454   1.394
12478TIP3    H137379   0.910   0.388   1.462
12478TIP3    H237380   0.835   0.412   1.333
12479TIP3   OH237381   4.482   3.966   1.818
12479TIP3    H137382   4.467   4.011   1.901
12479TIP3    H237383   4.489   3.873   1.842
12480TIP3   OH237384   3.174   4.210   1.507
12480TIP3    H137385   3.134   4.251   1.584
12480TIP3    H237386   3.105   4.152   1.473
12481TIP3   OH237387   4.949   1.531   3.609
12481TIP3    H137388   4.903   1.483   3.540
12481TIP3    H237389   4.907   1.617   3.610
12482TIP3   OH237390   5.247   3.077   5.466
12482TIP3    H137391   5.238   2.983   5.483
12482TIP3    H237392   5.324   3.103   5.516
12483TIP3   OH237393   0.372   7.669   2.576
12483TIP3    H137394   0.424   7.597   2.539
12483TIP3    H237395   0.321   7.628   2.646
12484TIP3   OH237396   7.994   1.178   5.451
12484TIP3    H137397   8.074   1.152   5.496
12484TIP3    H237398   8.012   1.266   5.418
12485TIP3   OH237399   2.421   0.884   5.193
12485TIP3    H137400   2.405   0.792   5.172
12485TIP3    H237401   2.364   0.901   5.268
12486TIP3   OH237402   1.115   3.289   1.774
12486TIP3    H137403   1.204   3.315   1.748
12486TIP3    H237404   1.085   3.360   1.831
12487TIP3   OH237405   5.392   4.270   6.173
12487TIP3    H137406   5.416   4.186   6.134
12487TIP3    H237407   5.433   4.269   6.260
12488TIP3   OH237408   5.488   6.091   5.233
12488TIP3    H137409   5.501   6.031   5.306
12488TIP3    H237410   5.557   6.157   5.244
12489TIP3   OH237411   7.034   2.307   0.667
12489TIP3    H137412   7.127   2.312   0.645
12489TIP3    H237413   7.011   2.396   0.696
12490TIP3   OH237414   4.863   2.290   0.080
12490TIP3    H137415   4.877   2.362   0.018
12490TIP3    H237416   4.928   2.305   0.149
12491TIP3   OH237417   7.500   1.107   5.702
12491TIP3    H137418   7.511   1.015   5.725
12491TIP3    H237419   7.587   1.134   5.672
12492TIP3   OH237420   8.212   6.002   3.560
12492TIP3    H137421   8.185   6.063   3.491
12492TIP3    H237422   8.220   6.056   3.638
12493TIP3   OH237423   5.673   3.685   4.794
12493TIP3    H137424   5.702   3.603   4.833
12493TIP3    H237425   5.585   3.699   4.829
12494TIP3   OH237426   1.191   5.427   1.010
12494TIP3    H137427   1.105   5.404   1.047
12494TIP3    H237428   1.243   5.347   1.019
12495TIP3   OH237429   4.300   2.665   2.161
12495TIP3    H137430   4.385   2.634   2.128
12495TIP3    H237431   4.322   2.741   2.215
12496TIP3   OH237432   4.341   3.314   4.514
12496TIP3    H137433   4.368   3.252   4.582
12496TIP3    H237434   4.322   3.395   4.563
12497TIP3   OH237435   8.095   2.895   2.745
12497TIP3    H137436   8.148   2.852   2.678
12497TIP3    H237437   8.035   2.951   2.695
12498TIP3   OH237438   6.979   7.452   6.486
12498TIP3    H137439   6.967   7.446   6.581
12498TIP3    H237440   6.979   7.361   6.456
12499TIP3   OH237441   3.168   7.204   4.720
12499TIP3    H137442   3.128   7.186   4.805
12499TIP3    H237443   3.130   7.138   4.661
12500TIP3   OH237444   7.237   1.372   4.475
12500TIP3    H137445   7.293   1.346   4.548
12500TIP3    H237446   7.235   1.296   4.417
12501TIP3   OH237447   1.794   4.287   6.404
12501TIP3    H137448   1.734   4.297   6.330
12501TIP3    H237449   1.867   4.237   6.368
12502TIP3   OH237450   4.131   3.922   2.983
12502TIP3    H137451   4.207   3.900   2.928
12502TIP3    H237452   4.150   3.880   3.067
12503TIP3   OH237453   0.219   0.715   3.045
12503TIP3    H137454   0.196   0.643   2.986
12503TIP3    H237455   0.139   0.766   3.053
12504TIP3   OH237456   6.681   3.684   4.217
12504TIP3    H137457   6.629   3.730   4.151
12504TIP3    H237458   6.772   3.692   4.186
12505TIP3   OH237459   7.285   4.519   6.748
12505TIP3    H137460   7.196   4.539   6.777
12505TIP3    H237461   7.289   4.423   6.746
12506TIP3   OH237462   8.080   0.338   4.024
12506TIP3    H137463   7.991   0.363   3.998
12506TIP3    H237464   8.067   0.278   4.098
12507TIP3   OH237465   3.534   5.353   0.874
12507TIP3    H137466   3.538   5.263   0.907
12507TIP3    H237467   3.461   5.353   0.812
12508TIP3   OH237468   0.102   2.270   3.522
12508TIP3    H137469   0.055   2.272   3.439
12508TIP3    H237470   0.194   2.259   3.498
12509TIP3   OH237471   6.327   5.777   6.474
12509TIP3    H137472   6.276   5.699   6.500
12509TIP3    H237473   6.382   5.795   6.550
12510TIP3   OH237474   6.998   1.713  -0.006
12510TIP3    H137475   7.014   1.807   0.001
12510TIP3    H237476   6.939   1.693   0.066
12511TIP3   OH237477   6.621   4.018   2.687
12511TIP3    H137478   6.548   4.056   2.736
12511TIP3    H237479   6.593   3.928   2.670
12512TIP3   OH237480   0.617   6.965   6.670
12512TIP3    H137481   0.604   6.904   6.598
12512TIP3    H237482   0.638   7.048   6.627
12513TIP3   OH237483   2.259   1.945   5.971
12513TIP3    H137484   2.172   1.976   5.946
12513TIP3    H237485   2.245   1.895   6.051
12514TIP3   OH237486   5.351   4.481   5.779
12514TIP3    H137487   5.391   4.564   5.755
12514TIP3    H237488   5.266   4.505   5.816
12515TIP3   OH237489   2.346   5.691   4.671
12515TIP3    H137490   2.285   5.764   4.664
12515TIP3    H237491   2.412   5.709   4.603
12516TIP3   OH237492   2.172   6.408   6.414
12516TIP3    H137493   2.209   6.364   6.491
12516TIP3    H237494   2.097   6.456   6.448
12517TIP3   OH237495   1.203   2.844   4.651
12517TIP3    H137496   1.174   2.932   4.676
12517TIP3    H237497   1.129   2.807   4.603
12518TIP3   OH237498   6.008   6.378   2.889
12518TIP3    H137499   5.922   6.363   2.850
12518TIP3    H237500   6.001   6.464   2.930
12519TIP3   OH237501   7.593   0.248   0.354
12519TIP3    H137502   7.521   0.298   0.393
12519TIP3    H237503   7.669   0.306   0.361
12520TIP3   OH237504   3.601   0.684   2.602
12520TIP3    H137505   3.622   0.684   2.509
12520TIP3    H237506   3.622   0.773   2.631
12521TIP3   OH237507   4.083   5.536   5.035
12521TIP3    H137508   4.156   5.540   5.096
12521TIP3    H237509   4.085   5.447   5.000
12522TIP3   OH237510   4.617   3.238   0.986
12522TIP3    H137511   4.676   3.230   0.911
12522TIP3    H237512   4.584   3.149   1.001
12523TIP3   OH237513   4.768   0.417   2.100
12523TIP3    H137514   4.806   0.371   2.175
12523TIP3    H237515   4.692   0.364   2.074
12524TIP3   OH237516   2.130   2.803   5.363
12524TIP3    H137517   2.039   2.826   5.381
12524TIP3    H237518   2.178   2.831   5.441
12525TIP3   OH237519   3.876   5.569   3.062
12525TIP3    H137520   3.869   5.611   3.148
12525TIP3    H237521   3.966   5.587   3.034
12526TIP3   OH237522   7.238   4.447   3.513
12526TIP3    H137523   7.159   4.498   3.530
12526TIP3    H237524   7.311   4.506   3.536
12527TIP3   OH237525   4.291   5.465   5.240
12527TIP3    H137526   4.329   5.482   5.326
12527TIP3    H237527   4.259   5.375   5.246
12528TIP3   OH237528   3.706   4.559   1.108
12528TIP3    H137529   3.800   4.541   1.113
12528TIP3    H237530   3.667   4.476   1.082
12529TIP3   OH237531   2.222   4.900   4.633
12529TIP3    H137532   2.148   4.858   4.678
12529TIP3    H237533   2.185   4.928   4.549
12530TIP3   OH237534   6.105   0.127   5.651
12530TIP3    H137535   6.113   0.139   5.745
12530TIP3    H237536   6.011   0.123   5.635
12531TIP3   OH237537   2.903   7.175   1.728
12531TIP3    H137538   2.858   7.259   1.719
12531TIP3    H237539   2.992   7.198   1.754
12532TIP3   OH237540   4.501   3.115   0.318
12532TIP3    H137541   4.522   3.098   0.226
12532TIP3    H237542   4.586   3.122   0.361
12533TIP3   OH237543   3.771   6.114   4.225
12533TIP3    H137544   3.718   6.160   4.161
12533TIP3    H237545   3.812   6.183   4.277
12534TIP3   OH237546   0.142   6.671   0.468
12534TIP3    H137547   0.234   6.697   0.464
12534TIP3    H237548   0.094   6.753   0.481
12535TIP3   OH237549   8.170   1.510   1.715
12535TIP3    H137550   8.253   1.492   1.670
12535TIP3    H237551   8.120   1.563   1.653
12536TIP3   OH237552   7.136   0.006   2.349
12536TIP3    H137553   7.170  -0.029   2.267
12536TIP3    H237554   7.088  -0.067   2.388
12537TIP3   OH237555   1.413   3.136   0.962
12537TIP3    H137556   1.407   3.062   0.901
12537TIP3    H237557   1.482   3.113   1.023
12538TIP3   OH237558   2.452   4.586   2.748
12538TIP3    H137559   2.538   4.560   2.715
12538TIP3    H237560   2.452   4.558   2.839
12539TIP3   OH237561   1.877   4.888   6.033
12539TIP3    H137562   1.894   4.810   5.979
12539TIP3    H237563   1.852   4.955   5.970
12540TIP3   OH237564   5.148   6.463   1.929
12540TIP3    H137565   5.244   6.461   1.920
12540TIP3    H237566   5.119   6.521   1.859
12541TIP3   OH237567   6.892   3.087   2.313
12541TIP3    H137568   6.870   3.003   2.274
12541TIP3    H237569   6.828   3.098   2.383
12542TIP3   OH237570   0.214   7.226   4.347
12542TIP3    H137571   0.173   7.245   4.432
12542TIP3    H237572   0.293   7.280   4.345
12543TIP3   OH237573   8.302   5.515   5.906
12543TIP3    H137574   8.232   5.480   5.961
12543TIP3    H237575   8.258   5.573   5.844
12544TIP3   OH237576   1.584   7.379   2.110
12544TIP3    H137577   1.554   7.327   2.185
12544TIP3    H237578   1.679   7.369   2.110
12545TIP3   OH237579   1.145   3.799   6.768
12545TIP3    H137580   1.050   3.787   6.777
12545TIP3    H237581   1.172   3.730   6.707
12546TIP3   OH237582   4.104   2.392   4.168
12546TIP3    H137583   4.042   2.394   4.095
12546TIP3    H237584   4.049   2.384   4.245
12547TIP3   OH237585   4.906   2.165   2.445
12547TIP3    H137586   4.963   2.191   2.372
12547TIP3    H237587   4.916   2.070   2.450
12548TIP3   OH237588   5.333   4.548   0.341
12548TIP3    H137589   5.264   4.605   0.307
12548TIP3    H237590   5.368   4.596   0.416
12549TIP3   OH237591   6.062   7.648   1.032
12549TIP3    H137592   6.113   7.647   0.952
12549TIP3    H237593   6.119   7.690   1.097
12550TIP3   OH237594   1.045   3.418   6.443
12550TIP3    H137595   1.086   3.502   6.467
12550TIP3    H237596   0.968   3.412   6.499
12551TIP3   OH237597   4.441   0.167   0.178
12551TIP3    H137598   4.414   0.078   0.156
12551TIP3    H237599   4.533   0.158   0.205
12552TIP3   OH237600   7.480   6.054   4.480
12552TIP3    H137601   7.413   6.010   4.533
12552TIP3    H237602   7.447   6.143   4.469
12553TIP3   OH237603   0.425   0.155   0.539
12553TIP3    H137604   0.465   0.226   0.489
12553TIP3    H237605   0.475   0.153   0.621
12554TIP3   OH237606   3.609   0.344   0.993
12554TIP3    H137607   3.553   0.269   0.971
12554TIP3    H237608   3.554   0.421   0.974
12555TIP3   OH237609   6.566   1.769   4.782
12555TIP3    H137610   6.625   1.797   4.711
12555TIP3    H237611   6.544   1.850   4.827
12556TIP3   OH237612   3.630   0.188   6.098
12556TIP3    H137613   3.582   0.248   6.155
12556TIP3    H237614   3.567   0.119   6.077
12557TIP3   OH237615   8.222   4.003   6.357
12557TIP3    H137616   8.262   3.973   6.275
12557TIP3    H237617   8.151   4.061   6.330
12558TIP3   OH237618   0.633   3.173   5.456
12558TIP3    H137619   0.625   3.100   5.517
12558TIP3    H237620   0.620   3.134   5.370
12559TIP3   OH237621   7.191   3.209   2.175
12559TIP3    H137622   7.263   3.199   2.237
12559TIP3    H237623   7.159   3.120   2.161
12560TIP3   OH237624   4.283   5.725   6.770
12560TIP3    H137625   4.368   5.689   6.743
12560TIP3    H237626   4.306   5.807   6.815
12561TIP3   OH237627   0.631   5.859   2.150
12561TIP3    H137628   0.653   5.770   2.124
12561TIP3    H237629   0.704   5.912   2.119
12562TIP3   OH237630   1.371   7.648   4.455
12562TIP3    H137631   1.387   7.664   4.548
12562TIP3    H237632   1.277   7.636   4.448
12563TIP3   OH237633   1.588   1.460   2.275
12563TIP3    H137634   1.628   1.474   2.360
12563TIP3    H237635   1.535   1.381   2.286
12564TIP3   OH237636   5.853   7.284   4.818
12564TIP3    H137637   5.873   7.209   4.874
12564TIP3    H237638   5.758   7.280   4.805
12565TIP3   OH237639   7.770   1.109   1.062
12565TIP3    H137640   7.678   1.138   1.053
12565TIP3    H237641   7.810   1.177   1.116
12566TIP3   OH237642   4.312   3.548   4.725
12566TIP3    H137643   4.265   3.620   4.767
12566TIP3    H237644   4.404   3.562   4.749
12567TIP3   OH237645   2.343   1.066   6.083
12567TIP3    H137646   2.419   1.028   6.039
12567TIP3    H237647   2.282   0.992   6.092
12568TIP3   OH237648   5.033   2.336   2.260
12568TIP3    H137649   5.021   2.386   2.340
12568TIP3    H237650   5.121   2.359   2.231
12569TIP3   OH237651   3.407   3.996   3.587
12569TIP3    H137652   3.362   3.966   3.508
12569TIP3    H237653   3.481   4.047   3.555
12570TIP3   OH237654   6.480   1.929   3.849
12570TIP3    H137655   6.475   2.012   3.802
12570TIP3    H237656   6.549   1.880   3.804
12571TIP3   OH237657   0.909   1.438   3.157
12571TIP3    H137658   0.815   1.435   3.141
12571TIP3    H237659   0.925   1.364   3.215
12572TIP3   OH237660   4.208   5.929   1.483
12572TIP3    H137661   4.275   5.868   1.451
12572TIP3    H237662   4.237   6.015   1.452
12573TIP3   OH237663   0.835   2.459   3.014
12573TIP3    H137664   0.866   2.373   2.986
12573TIP3    H237665   0.846   2.459   3.109
12574TIP3   OH237666   4.709   1.068   3.366
12574TIP3    H137667   4.735   1.135   3.429
12574TIP3    H237668   4.774   1.074   3.296
12575TIP3   OH237669   2.642   4.296   6.527
12575TIP3    H137670   2.695   4.287   6.607
12575TIP3    H237671   2.623   4.206   6.501
12576TIP3   OH237672   5.172   3.645   2.497
12576TIP3    H137673   5.135   3.636   2.584
12576TIP3    H237674   5.263   3.615   2.506
12577TIP3   OH237675   5.358   7.228   5.254
12577TIP3    H137676   5.405   7.260   5.178
12577TIP3    H237677   5.289   7.293   5.270
12578TIP3   OH237678   5.264   4.087   4.816
12578TIP3    H137679   5.344   4.037   4.797
12578TIP3    H237680   5.293   4.157   4.875
12579TIP3   OH237681   5.640   3.792   4.292
12579TIP3    H137682   5.569   3.853   4.314
12579TIP3    H237683   5.665   3.753   4.375
12580TIP3   OH237684   8.179   3.931   2.557
12580TIP3    H137685   8.260   3.980   2.548
12580TIP3    H237686   8.149   3.917   2.468
12581TIP3   OH237687   4.779   3.157   1.325
12581TIP3    H137688   4.795   3.102   1.249
12581TIP3    H237689   4.819   3.241   1.304
12582TIP3   OH237690   4.202   2.226   6.270
12582TIP3    H137691   4.269   2.177   6.221
12582TIP3    H237692   4.148   2.158   6.311
12583TIP3   OH237693   0.883   5.511   2.285
12583TIP3    H137694   0.833   5.540   2.361
12583TIP3    H237695   0.869   5.417   2.281
12584TIP3   OH237696   1.213   2.384   2.941
12584TIP3    H137697   1.157   2.373   2.864
12584TIP3    H237698   1.288   2.434   2.909
12585TIP3   OH237699   7.953   5.855   1.477
12585TIP3    H137700   7.913   5.830   1.394
12585TIP3    H237701   7.886   5.907   1.521
12586TIP3   OH237702   6.244   1.117   3.254
12586TIP3    H137703   6.304   1.042   3.254
12586TIP3    H237704   6.162   1.081   3.288
12587TIP3   OH237705   1.157   1.305   5.336
12587TIP3    H137706   1.078   1.308   5.389
12587TIP3    H237707   1.210   1.378   5.369
12588TIP3   OH237708   6.371   3.441   4.427
12588TIP3    H137709   6.372   3.528   4.468
12588TIP3    H237710   6.385   3.458   4.334
12589TIP3   OH237711   0.486   0.117   6.700
12589TIP3    H137712   0.552   0.066   6.748
12589TIP3    H237713   0.446   0.173   6.766
12590TIP3   OH237714   8.091   2.618   6.577
12590TIP3    H137715   8.002   2.582   6.580
12590TIP3    H237716   8.081   2.708   6.610
12591TIP3   OH237717   6.993   5.041   2.289
12591TIP3    H137718   6.943   5.109   2.335
12591TIP3    H237719   7.075   5.034   2.338
12592TIP3   OH237720   7.652   4.123   4.124
12592TIP3    H137721   7.615   4.048   4.077
12592TIP3    H237722   7.578   4.184   4.133
12593TIP3   OH237723   6.093   7.610   4.314
12593TIP3    H137724   6.119   7.591   4.403
12593TIP3    H237725   6.062   7.701   4.317
12594TIP3   OH237726   6.521   2.304   1.183
12594TIP3    H137727   6.578   2.292   1.107
12594TIP3    H237728   6.432   2.291   1.149
12595TIP3   OH237729   3.904   5.502   6.050
12595TIP3    H137730   3.943   5.589   6.042
12595TIP3    H237731   3.855   5.505   6.133
12596TIP3   OH237732   1.171   3.684   4.732
12596TIP3    H137733   1.139   3.701   4.643
12596TIP3    H237734   1.152   3.591   4.746
12597TIP3   OH237735   0.493   4.086   5.931
12597TIP3    H137736   0.546   4.074   6.009
12597TIP3    H237737   0.537   4.033   5.864
12598TIP3   OH237738   6.606   3.765   4.708
12598TIP3    H137739   6.636   3.679   4.737
12598TIP3    H237740   6.630   3.824   4.779
12599TIP3   OH237741   7.204   6.950   2.898
12599TIP3    H137742   7.135   6.985   2.954
12599TIP3    H237743   7.267   7.021   2.888
12600TIP3   OH237744   5.112   4.333   1.482
12600TIP3    H137745   5.194   4.283   1.484
12600TIP3    H237746   5.084   4.327   1.391
12601TIP3   OH237747   4.044   3.899   6.510
12601TIP3    H137748   4.029   3.979   6.459
12601TIP3    H237749   3.965   3.846   6.496
12602TIP3   OH237750   2.939   4.153   1.897
12602TIP3    H137751   2.945   4.197   1.812
12602TIP3    H237752   2.881   4.210   1.948
12603TIP3   OH237753   3.187   3.691   1.654
12603TIP3    H137754   3.160   3.655   1.739
12603TIP3    H237755   3.214   3.614   1.604
12604TIP3   OH237756   6.946   1.024   4.598
12604TIP3    H137757   7.018   1.055   4.654
12604TIP3    H237758   6.872   1.013   4.657
12605TIP3   OH237759   2.516   6.443   5.454
12605TIP3    H137760   2.588   6.446   5.392
12605TIP3    H237761   2.472   6.359   5.437
12606TIP3   OH237762   4.592   5.954   4.682
12606TIP3    H137763   4.640   5.884   4.726
12606TIP3    H237764   4.626   6.035   4.721
12607TIP3   OH237765   1.047   7.415   6.781
12607TIP3    H137766   1.063   7.411   6.875
12607TIP3    H237767   1.118   7.469   6.747
12608TIP3   OH237768   2.703   5.597   2.574
12608TIP3    H137769   2.680   5.504   2.568
12608TIP3    H237770   2.759   5.613   2.498
12609TIP3   OH237771   4.125   2.559   2.441
12609TIP3    H137772   4.087   2.471   2.444
12609TIP3    H237773   4.183   2.558   2.364
12610TIP3   OH237774   6.425   4.629   5.744
12610TIP3    H137775   6.379   4.546   5.730
12610TIP3    H237776   6.511   4.616   5.702
12611TIP3   OH237777   6.197   5.704   2.966
12611TIP3    H137778   6.292   5.717   2.976
12611TIP3    H237779   6.190   5.644   2.891
12612TIP3   OH237780   2.131   5.214   4.919
12612TIP3    H137781   2.207   5.201   4.863
12612TIP3    H237782   2.103   5.304   4.901
12613TIP3   OH237783   8.037   0.558   3.679
12613TIP3    H137784   8.085   0.495   3.625
12613TIP3    H237785   7.947   0.552   3.649
12614TIP3   OH237786   5.964   3.140   6.017
12614TIP3    H137787   6.046   3.188   6.010
12614TIP3    H237788   5.949   3.106   5.929
12615TIP3   OH237789   3.212   7.626   4.217
12615TIP3    H137790   3.228   7.599   4.307
12615TIP3    H237791   3.272   7.700   4.203
12616TIP3   OH237792   0.385   7.213   3.237
12616TIP3    H137793   0.396   7.241   3.328
12616TIP3    H237794   0.363   7.120   3.243
12617TIP3   OH237795   7.626   2.268   1.565
12617TIP3    H137796   7.599   2.178   1.584
12617TIP3    H237797   7.643   2.268   1.471
12618TIP3   OH237798   3.958   4.814   6.594
12618TIP3    H137799   4.034   4.866   6.569
12618TIP3    H237800   3.883   4.867   6.564
12619TIP3   OH237801   3.141   5.058   5.346
12619TIP3    H137802   3.180   5.142   5.323
12619TIP3    H237803   3.187   5.031   5.426
12620TIP3   OH237804   7.159   3.281   3.154
12620TIP3    H137805   7.196   3.298   3.241
12620TIP3    H237806   7.101   3.355   3.138
12621TIP3   OH237807   5.351   4.870   6.726
12621TIP3    H137808   5.324   4.887   6.636
12621TIP3    H237809   5.270   4.850   6.772
12622TIP3   OH237810   1.518   6.395   1.548
12622TIP3    H137811   1.583   6.337   1.587
12622TIP3    H237812   1.564   6.437   1.475
12623TIP3   OH237813   1.712   6.046   3.719
12623TIP3    H137814   1.783   6.109   3.720
12623TIP3    H237815   1.750   5.967   3.682
12624TIP3   OH237816   2.120   1.820   6.762
12624TIP3    H137817   2.078   1.768   6.829
12624TIP3    H237818   2.054   1.884   6.735
12625TIP3   OH237819   8.190   1.486   0.389
12625TIP3    H137820   8.146   1.502   0.473
12625TIP3    H237821   8.240   1.405   0.403
12626TIP3   OH237822   4.935   6.309   6.081
12626TIP3    H137823   4.889   6.238   6.125
12626TIP3    H237824   4.868   6.376   6.067
12627TIP3   OH237825   8.101   4.243   3.254
12627TIP3    H137826   8.097   4.337   3.272
12627TIP3    H237827   8.010   4.217   3.239
12628TIP3   OH237828   8.276   4.918   5.095
12628TIP3    H137829   8.231   4.910   5.179
12628TIP3    H237830   8.240   4.997   5.056
12629TIP3   OH237831   1.649   6.713   0.289
12629TIP3    H137832   1.594   6.763   0.229
12629TIP3    H237833   1.709   6.777   0.326
12630TIP3   OH237834   1.169   0.879   6.418
12630TIP3    H137835   1.124   0.957   6.386
12630TIP3    H237836   1.230   0.912   6.484
12631TIP3   OH237837   3.399   7.631   5.609
12631TIP3    H137838   3.383   7.541   5.579
12631TIP3    H237839   3.491   7.647   5.587
12632TIP3   OH237840   2.115   5.788   4.126
12632TIP3    H137841   2.119   5.824   4.038
12632TIP3    H237842   2.046   5.722   4.122
12633TIP3   OH237843   2.820   0.289   0.364
12633TIP3    H137844   2.745   0.348   0.379
12633TIP3    H237845   2.880   0.309   0.436
12634TIP3   OH237846   4.923   1.556   1.977
12634TIP3    H137847   4.858   1.621   1.949
12634TIP3    H237848   4.887   1.520   2.058
12635TIP3   OH237849   3.578   1.100   1.740
12635TIP3    H137850   3.516   1.032   1.767
12635TIP3    H237851   3.636   1.056   1.677
12636TIP3   OH237852   0.698   4.313   1.885
12636TIP3    H137853   0.784   4.341   1.916
12636TIP3    H237854   0.716   4.247   1.818
12637TIP3   OH237855   1.098   0.204   0.766
12637TIP3    H137856   1.188   0.178   0.782
12637TIP3    H237857   1.072   0.253   0.844
12638TIP3   OH237858   7.941   4.150   5.121
12638TIP3    H137859   7.958   4.148   5.215
12638TIP3    H237860   7.850   4.124   5.111
12639TIP3   OH237861   0.981   7.383   5.545
12639TIP3    H137862   1.054   7.334   5.583
12639TIP3    H237863   0.961   7.450   5.610
12640TIP3   OH237864   0.872   0.158   0.158
12640TIP3    H137865   0.919   0.107   0.224
12640TIP3    H237866   0.939   0.183   0.095
12641TIP3   OH237867   6.826   2.974   0.899
12641TIP3    H137868   6.853   2.894   0.854
12641TIP3    H237869   6.756   3.010   0.844
12642TIP3   OH237870   6.379   3.419   5.251
12642TIP3    H137871   6.360   3.326   5.265
12642TIP3    H237872   6.425   3.421   5.167
12643TIP3   OH237873   4.043   1.566   6.439
12643TIP3    H137874   3.961   1.615   6.452
12643TIP3    H237875   4.053   1.562   6.343
12644TIP3   OH237876   8.081   1.771   1.628
12644TIP3    H137877   8.063   1.759   1.534
12644TIP3    H237878   8.039   1.854   1.649
12645TIP3   OH237879   6.988   1.196   0.870
12645TIP3    H137880   6.907   1.159   0.834
12645TIP3    H237881   6.970   1.289   0.878
12646TIP3   OH237882   4.824   1.858   0.857
12646TIP3    H137883   4.799   1.770   0.830
12646TIP3    H237884   4.785   1.916   0.792
12647TIP3   OH237885   2.501   3.978   4.414
12647TIP3    H137886   2.520   4.013   4.501
12647TIP3    H237887   2.421   3.926   4.427
12648TIP3   OH237888   1.572   4.116   3.867
12648TIP3    H137889   1.606   4.031   3.896
12648TIP3    H237890   1.646   4.176   3.874
12649TIP3   OH237891   6.301   4.735   5.032
12649TIP3    H137892   6.272   4.772   4.949
12649TIP3    H237893   6.380   4.785   5.055
12650TIP3   OH237894   6.000   2.456   3.609
12650TIP3    H137895   6.042   2.381   3.566
12650TIP3    H237896   6.014   2.440   3.702
12651TIP3   OH237897   1.818   0.609   4.663
12651TIP3    H137898   1.865   0.663   4.600
12651TIP3    H237899   1.771   0.545   4.610
12652TIP3   OH237900   3.177   2.193   5.584
12652TIP3    H137901   3.242   2.143   5.535
12652TIP3    H237902   3.228   2.260   5.630
12653TIP3   OH237903   1.491   0.374   5.907
12653TIP3    H137904   1.489   0.469   5.901
12653TIP3    H237905   1.405   0.351   5.943
12654TIP3   OH237906   6.825   0.586   1.485
12654TIP3    H137907   6.833   0.494   1.508
12654TIP3    H237908   6.795   0.628   1.566
12655TIP3   OH237909   4.602   5.104   2.448
12655TIP3    H137910   4.581   5.122   2.540
12655TIP3    H237911   4.679   5.158   2.431
12656TIP3   OH237912   8.131   0.084   3.574
12656TIP3    H137913   8.058   0.138   3.545
12656TIP3    H237914   8.146   0.109   3.665
12657TIP3   OH237915   3.577   4.015   5.395
12657TIP3    H137916   3.637   4.044   5.463
12657TIP3    H237917   3.625   3.946   5.349
12658TIP3   OH237918   3.693   6.815   1.261
12658TIP3    H137919   3.757   6.815   1.332
12658TIP3    H237920   3.669   6.723   1.251
12659TIP3   OH237921   6.336   6.389   2.919
12659TIP3    H137922   6.304   6.341   2.996
12659TIP3    H237923   6.259   6.397   2.862
12660TIP3   OH237924   7.847   5.659   6.591
12660TIP3    H137925   7.934   5.687   6.563
12660TIP3    H237926   7.826   5.715   6.665
12661TIP3   OH237927   2.433   3.029   5.422
12661TIP3    H137928   2.416   2.937   5.442
12661TIP3    H237929   2.528   3.038   5.429
12662TIP3   OH237930   5.420   0.929   5.598
12662TIP3    H137931   5.337   0.922   5.646
12662TIP3    H237932   5.394   0.953   5.509
12663TIP3   OH237933   7.397   0.202   3.956
12663TIP3    H137934   7.428   0.193   3.866
12663TIP3    H237935   7.325   0.264   3.951
12664TIP3   OH237936   1.985   3.332   2.736
12664TIP3    H137937   1.994   3.240   2.759
12664TIP3    H237938   1.926   3.368   2.801
12665TIP3   OH237939   1.769   1.982   5.489
12665TIP3    H137940   1.855   1.949   5.464
12665TIP3    H237941   1.788   2.065   5.534
12666TIP3   OH237942   5.284   3.500   0.137
12666TIP3    H137943   5.361   3.471   0.186
12666TIP3    H237944   5.319   3.556   0.068
12667TIP3   OH237945   4.449   0.748   3.257
12667TIP3    H137946   4.431   0.659   3.228
12667TIP3    H237947   4.518   0.739   3.322
12668TIP3   OH237948   2.054   6.982   4.438
12668TIP3    H137949   2.104   7.046   4.389
12668TIP3    H237950   2.054   6.904   4.382
12669TIP3   OH237951   4.673   1.006   5.088
12669TIP3    H137952   4.764   1.024   5.109
12669TIP3    H237953   4.638   0.963   5.166
12670TIP3   OH237954   4.228   7.725   1.354
12670TIP3    H137955   4.224   7.821   1.355
12670TIP3    H237956   4.205   7.701   1.264
12671TIP3   OH237957   2.259   2.281   2.799
12671TIP3    H137958   2.163   2.287   2.790
12671TIP3    H237959   2.275   2.302   2.891
12672TIP3   OH237960   3.381   7.283   6.713
12672TIP3    H137961   3.365   7.236   6.795
12672TIP3    H237962   3.343   7.370   6.727
12673TIP3   OH237963   7.155   6.025   1.764
12673TIP3    H137964   7.138   5.959   1.832
12673TIP3    H237965   7.123   5.984   1.683
12674TIP3   OH237966   5.443   6.007   0.913
12674TIP3    H137967   5.484   5.964   0.988
12674TIP3    H237968   5.350   6.012   0.936
12675TIP3   OH237969   6.515   7.452   4.539
12675TIP3    H137970   6.531   7.544   4.519
12675TIP3    H237971   6.437   7.452   4.594
12676TIP3   OH237972   6.257   4.348   0.646
12676TIP3    H137973   6.256   4.381   0.557
12676TIP3    H237974   6.312   4.269   0.642
12677TIP3   OH237975   0.102   4.870   4.442
12677TIP3    H137976   0.166   4.834   4.380
12677TIP3    H237977   0.156   4.913   4.509
12678TIP3   OH237978   0.663   3.137   5.860
12678TIP3    H137979   0.686   3.221   5.820
12678TIP3    H237980   0.663   3.075   5.787
12679TIP3   OH237981   2.069   3.651   5.487
12679TIP3    H137982   2.020   3.710   5.544
12679TIP3    H237983   2.001   3.603   5.439
12680TIP3   OH237984   2.758   6.603   1.703
12680TIP3    H137985   2.834   6.564   1.660
12680TIP3    H237986   2.695   6.532   1.711
12681TIP3   OH237987   8.230   1.639   3.197
12681TIP3    H137988   8.141   1.620   3.166
12681TIP3    H237989   8.219   1.655   3.291
12682TIP3   OH237990   3.141   6.783   5.755
12682TIP3    H137991   3.180   6.868   5.735
12682TIP3    H237992   3.058   6.804   5.798
12683TIP3   OH237993   2.379   1.240   2.047
12683TIP3    H137994   2.441   1.167   2.054
12683TIP3    H237995   2.434   1.315   2.026
12684TIP3   OH237996   5.040   5.916   4.670
12684TIP3    H137997   5.039   6.012   4.680
12684TIP3    H237998   5.083   5.901   4.586
12685TIP3   OH237999   5.670   6.249   5.563
12685TIP3    H138000   5.764   6.256   5.576
12685TIP3    H238001   5.660   6.227   5.470
12686TIP3   OH238002   8.204   7.775   5.339
12686TIP3    H138003   8.240   7.841   5.280
12686TIP3    H238004   8.275   7.755   5.400
12687TIP3   OH238005   5.610   2.777   0.528
12687TIP3    H138006   5.536   2.825   0.493
12687TIP3    H238007   5.572   2.696   0.563
12688TIP3   OH238008   8.205   3.886   3.120
12688TIP3    H138009   8.263   3.958   3.093
12688TIP3    H238010   8.204   3.891   3.216
12689TIP3   OH238011   4.394   1.010   4.432
12689TIP3    H138012   4.448   1.069   4.485
12689TIP3    H238013   4.419   1.029   4.342
12690TIP3   OH238014   8.229   1.505   1.982
12690TIP3    H138015   8.174   1.430   2.004
12690TIP3    H238016   8.219   1.516   1.888
12691TIP3   OH238017   8.055   3.448   2.359
12691TIP3    H138018   7.976   3.501   2.347
12691TIP3    H238019   8.095   3.483   2.439
12692TIP3   OH238020   7.175   7.757   1.227
12692TIP3    H138021   7.118   7.683   1.248
12692TIP3    H238022   7.126   7.834   1.254
12693TIP3   OH238023   2.250   5.405   5.323
12693TIP3    H138024   2.267   5.426   5.415
12693TIP3    H238025   2.333   5.370   5.291
12694TIP3   OH238026   3.381   4.320   1.858
12694TIP3    H138027   3.334   4.267   1.923
12694TIP3    H238028   3.351   4.409   1.874
12695TIP3   OH238029   7.575   4.576   5.102
12695TIP3    H138030   7.652   4.582   5.044
12695TIP3    H238031   7.502   4.559   5.043
12696TIP3   OH238032   8.010   2.109   6.167
12696TIP3    H138033   7.996   2.203   6.177
12696TIP3    H238034   8.066   2.084   6.240
12697TIP3   OH238035   0.498   0.936   6.308
12697TIP3    H138036   0.472   0.898   6.223
12697TIP3    H238037   0.547   0.866   6.352
12698TIP3   OH238038   6.683   4.723   4.547
12698TIP3    H138039   6.650   4.799   4.596
12698TIP3    H238040   6.775   4.742   4.533
12699TIP3   OH238041   4.812   3.468   2.056
12699TIP3    H138042   4.860   3.542   2.020
12699TIP3    H238043   4.793   3.412   1.981
12700TIP3   OH238044   7.309   7.664   5.557
12700TIP3    H138045   7.215   7.668   5.537
12700TIP3    H238046   7.322   7.730   5.625
12701TIP3   OH238047   7.747   6.707   2.803
12701TIP3    H138048   7.815   6.691   2.867
12701TIP3    H238049   7.792   6.750   2.730
12702TIP3   OH238050   1.957   4.960   4.109
12702TIP3    H138051   1.964   4.889   4.045
12702TIP3    H238052   1.910   5.030   4.062
12703TIP3   OH238053   3.821   6.447   2.603
12703TIP3    H138054   3.799   6.380   2.538
12703TIP3    H238055   3.785   6.528   2.567
12704TIP3   OH238056   4.614   1.991   4.108
12704TIP3    H138057   4.647   1.903   4.129
12704TIP3    H238058   4.684   2.050   4.135
12705TIP3   OH238059   8.246   2.481   4.317
12705TIP3    H138060   8.305   2.419   4.273
12705TIP3    H238061   8.246   2.452   4.408
12706TIP3   OH238062   5.453   1.524   1.424
12706TIP3    H138063   5.472   1.478   1.343
12706TIP3    H238064   5.514   1.598   1.426
12707TIP3   OH238065   0.733   0.470   5.213
12707TIP3    H138066   0.686   0.414   5.274
12707TIP3    H238067   0.802   0.415   5.176
12708TIP3   OH238068   4.584   3.680   6.766
12708TIP3    H138069   4.544   3.594   6.753
12708TIP3    H238070   4.512   3.742   6.760
12709TIP3   OH238071   7.251   1.376   0.052
12709TIP3    H138072   7.259   1.467   0.080
12709TIP3    H238073   7.194   1.380  -0.025
12710TIP3   OH238074   2.688   0.309   4.287
12710TIP3    H138075   2.773   0.318   4.330
12710TIP3    H238076   2.625   0.344   4.351
12711TIP3   OH238077   5.035   2.245   0.294
12711TIP3    H138078   5.091   2.168   0.283
12711TIP3    H238079   5.067   2.288   0.374
12712TIP3   OH238080   2.718   2.926   6.328
12712TIP3    H138081   2.809   2.951   6.341
12712TIP3    H238082   2.689   2.980   6.255
12713TIP3   OH238083   8.191   6.307   2.501
12713TIP3    H138084   8.209   6.353   2.419
12713TIP3    H238085   8.101   6.332   2.524
12714TIP3   OH238086   6.950   5.130   0.542
12714TIP3    H138087   6.916   5.195   0.604
12714TIP3    H238088   6.871   5.090   0.504
12715TIP3   OH238089   7.462   3.619   0.839
12715TIP3    H138090   7.452   3.572   0.923
12715TIP3    H238091   7.373   3.632   0.809
12716TIP3   OH238092   1.477   3.419   0.232
12716TIP3    H138093   1.438   3.358   0.295
12716TIP3    H238094   1.451   3.506   0.263
12717TIP3   OH238095   5.594   3.273   5.771
12717TIP3    H138096   5.591   3.317   5.855
12717TIP3    H238097   5.683   3.240   5.764
12718TIP3   OH238098   3.324   2.118   4.719
12718TIP3    H138099   3.242   2.073   4.700
12718TIP3    H238100   3.376   2.107   4.640
12719TIP3   OH238101   1.666   5.702   5.217
12719TIP3    H138102   1.735   5.712   5.282
12719TIP3    H238103   1.711   5.707   5.133
12720TIP3   OH238104   6.973   0.690   3.924
12720TIP3    H138105   6.938   0.608   3.961
12720TIP3    H238106   7.028   0.726   3.994
12721TIP3   OH238107   1.316   0.603   1.034
12721TIP3    H138108   1.371   0.631   0.961
12721TIP3    H238109   1.338   0.511   1.048
12722TIP3   OH238110   6.870   0.124   2.889
12722TIP3    H138111   6.805   0.160   2.830
12722TIP3    H238112   6.933   0.079   2.832
12723TIP3   OH238113   5.522   5.017   5.756
12723TIP3    H138114   5.437   5.021   5.714
12723TIP3    H238115   5.550   4.926   5.745
12724TIP3   OH238116   7.266   5.084   2.629
12724TIP3    H138117   7.244   5.176   2.615
12724TIP3    H238118   7.248   5.042   2.545
12725TIP3   OH238119   4.527   3.553   5.856
12725TIP3    H138120   4.521   3.645   5.829
12725TIP3    H238121   4.540   3.556   5.951
12726TIP3   OH238122   1.783   4.324   4.337
12726TIP3    H138123   1.841   4.273   4.394
12726TIP3    H238124   1.728   4.258   4.294
12727TIP3   OH238125   6.512   2.957   5.545
12727TIP3    H138126   6.604   2.945   5.570
12727TIP3    H238127   6.514   3.029   5.482
12728TIP3   OH238128   6.244   5.567   1.466
12728TIP3    H138129   6.243   5.585   1.560
12728TIP3    H238130   6.315   5.504   1.454
12729TIP3   OH238131   4.595   4.805   2.839
12729TIP3    H138132   4.640   4.818   2.755
12729TIP3    H238133   4.539   4.729   2.824
12730TIP3   OH238134   5.820   4.635   3.015
12730TIP3    H138135   5.884   4.682   3.068
12730TIP3    H238136   5.838   4.542   3.033
12731TIP3   OH238137   7.665   7.111   5.466
12731TIP3    H138138   7.583   7.077   5.502
12731TIP3    H238139   7.704   7.036   5.421
12732TIP3   OH238140   2.223   4.229   1.769
12732TIP3    H138141   2.153   4.283   1.731
12732TIP3    H238142   2.218   4.246   1.863
12733TIP3   OH238143   5.586   5.187   4.966
12733TIP3    H138144   5.513   5.230   4.922
12733TIP3    H238145   5.638   5.259   5.002
12734TIP3   OH238146   2.311   6.680   5.998
12734TIP3    H138147   2.387   6.708   6.051
12734TIP3    H238148   2.265   6.618   6.054
12735TIP3   OH238149   5.489   1.976   4.115
12735TIP3    H138150   5.475   2.071   4.113
12735TIP3    H238151   5.530   1.957   4.031
12736TIP3   OH238152   3.586   4.016   1.949
12736TIP3    H138153   3.552   3.933   1.982
12736TIP3    H238154   3.664   3.993   1.898
12737TIP3   OH238155   7.228   1.279   6.528
12737TIP3    H138156   7.322   1.287   6.517
12737TIP3    H238157   7.199   1.229   6.451
12738TIP3   OH238158   6.156   6.487   6.560
12738TIP3    H138159   6.249   6.496   6.581
12738TIP3    H238160   6.113   6.486   6.646
12739TIP3   OH238161   6.412   2.584   6.386
12739TIP3    H138162   6.483   2.522   6.398
12739TIP3    H238163   6.453   2.670   6.394
12740TIP3   OH238164   6.884   2.866   6.114
12740TIP3    H138165   6.841   2.951   6.126
12740TIP3    H238166   6.909   2.840   6.203
12741TIP3   OH238167   3.283   7.564   4.486
12741TIP3    H138168   3.240   7.544   4.569
12741TIP3    H238169   3.368   7.522   4.493
12742TIP3   OH238170   6.540   4.590   1.909
12742TIP3    H138171   6.476   4.586   1.980
12742TIP3    H238172   6.621   4.557   1.948
12743TIP3   OH238173   6.587   3.775   3.706
12743TIP3    H138174   6.620   3.788   3.795
12743TIP3    H238175   6.594   3.680   3.692
12744TIP3   OH238176   2.016   4.359   0.330
12744TIP3    H138177   1.993   4.306   0.406
12744TIP3    H238178   2.108   4.383   0.345
12745TIP3   OH238179   3.343   0.962   3.806
12745TIP3    H138180   3.352   0.895   3.737
12745TIP3    H238181   3.391   0.926   3.881
12746TIP3   OH238182   3.681   0.845   5.620
12746TIP3    H138183   3.668   0.926   5.669
12746TIP3    H238184   3.651   0.776   5.680
12747TIP3   OH238185   2.489   4.006   4.880
12747TIP3    H138186   2.492   4.081   4.940
12747TIP3    H238187   2.557   3.947   4.913
12748TIP3   OH238188   3.685   1.597   0.463
12748TIP3    H138189   3.711   1.689   0.459
12748TIP3    H238190   3.596   1.600   0.498
12749TIP3   OH238191   3.544   4.489   2.472
12749TIP3    H138192   3.526   4.576   2.436
12749TIP3    H238193   3.639   4.478   2.464
12750TIP3   OH238194   7.576   2.667   3.058
12750TIP3    H138195   7.638   2.696   3.125
12750TIP3    H238196   7.551   2.747   3.012
12751TIP3   OH238197   7.888   4.155   0.508
12751TIP3    H138198   7.809   4.161   0.561
12751TIP3    H238199   7.886   4.068   0.470
12752TIP3   OH238200   0.787   5.681   4.219
12752TIP3    H138201   0.713   5.621   4.221
12752TIP3    H238202   0.839   5.652   4.144
12753TIP3   OH238203   6.445   1.980   5.806
12753TIP3    H138204   6.366   1.927   5.805
12753TIP3    H238205   6.415   2.067   5.830
12754TIP3   OH238206   7.248   4.100   1.381
12754TIP3    H138207   7.183   4.168   1.394
12754TIP3    H238208   7.329   4.136   1.417
12755TIP3   OH238209   1.871   1.072   0.678
12755TIP3    H138210   1.882   0.980   0.703
12755TIP3    H238211   1.960   1.108   0.683
12756TIP3   OH238212   7.171   1.791   2.996
12756TIP3    H138213   7.209   1.827   3.077
12756TIP3    H238214   7.243   1.795   2.933
12757TIP3   OH238215   7.071   4.999   2.862
12757TIP3    H138216   7.133   5.012   2.790
12757TIP3    H238217   7.023   4.920   2.839
12758TIP3   OH238218   1.314   3.431   3.741
12758TIP3    H138219   1.294   3.342   3.768
12758TIP3    H238220   1.353   3.422   3.654
12759TIP3   OH238221   7.024   6.831   3.896
12759TIP3    H138222   7.072   6.766   3.845
12759TIP3    H238223   7.067   6.914   3.876
12760TIP3   OH238224   5.082   3.902   3.706
12760TIP3    H138225   4.999   3.890   3.751
12760TIP3    H238226   5.131   3.964   3.760
12761TIP3   OH238227   4.492   0.287   3.460
12761TIP3    H138228   4.466   0.234   3.534
12761TIP3    H238229   4.510   0.374   3.497
12762TIP3   OH238230   5.828   7.771   2.091
12762TIP3    H138231   5.801   7.735   2.176
12762TIP3    H238232   5.773   7.849   2.081
12763TIP3   OH238233   0.757   0.032   5.688
12763TIP3    H138234   0.681   0.055   5.634
12763TIP3    H238235   0.725  -0.039   5.744
12764TIP3   OH238236   2.969   0.279   0.609
12764TIP3    H138237   3.003   0.361   0.573
12764TIP3    H238238   2.966   0.293   0.703
12765TIP3   OH238239   4.270   0.370   5.810
12765TIP3    H138240   4.336   0.301   5.809
12765TIP3    H238241   4.198   0.335   5.757
12766TIP3   OH238242   7.886   6.295   0.882
12766TIP3    H138243   7.907   6.387   0.866
12766TIP3    H238244   7.836   6.295   0.963
12767TIP3   OH238245   5.043   0.893   5.381
12767TIP3    H138246   5.110   0.824   5.384
12767TIP3    H238247   5.078   0.962   5.437
12768TIP3   OH238248   1.896   4.735   3.660
12768TIP3    H138249   1.923   4.823   3.687
12768TIP3    H238250   1.865   4.747   3.570
12769TIP3   OH238251   0.073   4.359   4.294
12769TIP3    H138252   0.020   4.306   4.354
12769TIP3    H238253   0.015   4.378   4.221
12770TIP3   OH238254   1.042   3.630   3.574
12770TIP3    H138255   0.993   3.698   3.528
12770TIP3    H238256   0.978   3.561   3.590
12771TIP3   OH238257   4.087   2.180   3.513
12771TIP3    H138258   4.129   2.104   3.474
12771TIP3    H238259   4.007   2.145   3.554
12772TIP3   OH238260   7.340   0.196   2.402
12772TIP3    H138261   7.317   0.281   2.364
12772TIP3    H238262   7.261   0.168   2.448
12773TIP3   OH238263   6.859   4.190   2.938
12773TIP3    H138264   6.791   4.197   2.871
12773TIP3    H238265   6.820   4.133   3.005
12774TIP3   OH238266   3.417   6.817   5.365
12774TIP3    H138267   3.489   6.851   5.418
12774TIP3    H238268   3.354   6.889   5.360
12775TIP3   OH238269   5.042   2.382   3.256
12775TIP3    H138270   5.051   2.444   3.327
12775TIP3    H238271   5.024   2.298   3.299
12776TIP3   OH238272   4.768   4.179   3.181
12776TIP3    H138273   4.714   4.254   3.158
12776TIP3    H238274   4.858   4.212   3.176
12777TIP3   OH238275   6.987   5.643   5.059
12777TIP3    H138276   6.994   5.548   5.073
12777TIP3    H238277   7.017   5.682   5.141
12778TIP3   OH238278   1.683   2.740   1.626
12778TIP3    H138279   1.756   2.695   1.668
12778TIP3    H238280   1.641   2.790   1.696
12779TIP3   OH238281   0.834   6.223   5.348
12779TIP3    H138282   0.858   6.311   5.320
12779TIP3    H238283   0.838   6.169   5.269
12780TIP3   OH238284   5.215   4.361   6.397
12780TIP3    H138285   5.268   4.344   6.319
12780TIP3    H238286   5.139   4.409   6.364
12781TIP3   OH238287   7.221   2.888   0.761
12781TIP3    H138288   7.268   2.805   0.769
12781TIP3    H238289   7.135   2.863   0.727
12782TIP3   OH238290   0.575   3.896   4.855
12782TIP3    H138291   0.570   3.809   4.815
12782TIP3    H238292   0.656   3.934   4.821
12783TIP3   OH238293   2.444   4.401   4.109
12783TIP3    H138294   2.475   4.325   4.158
12783TIP3    H238295   2.469   4.476   4.163
12784TIP3   OH238296   6.889   0.943   2.453
12784TIP3    H138297   6.885   0.957   2.358
12784TIP3    H238298   6.824   0.875   2.469
12785TIP3   OH238299   5.443   4.762   2.852
12785TIP3    H138300   5.468   4.828   2.788
12785TIP3    H238301   5.485   4.682   2.821
12786TIP3   OH238302   2.442   3.179   2.256
12786TIP3    H138303   2.524   3.228   2.251
12786TIP3    H238304   2.438   3.148   2.347
12787TIP3   OH238305   7.788   3.275   1.534
12787TIP3    H138306   7.860   3.268   1.596
12787TIP3    H238307   7.828   3.259   1.448
12788TIP3   OH238308   8.009   4.907   6.184
12788TIP3    H138309   7.963   4.921   6.101
12788TIP3    H238310   8.019   4.812   6.190
12789TIP3   OH238311   6.699   7.500   5.966
12789TIP3    H138312   6.667   7.490   5.876
12789TIP3    H238313   6.706   7.594   5.979
12790TIP3   OH238314   1.216   1.020   6.091
12790TIP3    H138315   1.262   1.104   6.091
12790TIP3    H238316   1.140   1.035   6.148
12791TIP3   OH238317   4.785   2.359   4.158
12791TIP3    H138318   4.822   2.272   4.176
12791TIP3    H238319   4.693   2.351   4.183
12792TIP3   OH238320   0.713   5.660   2.967
12792TIP3    H138321   0.646   5.651   3.035
12792TIP3    H238322   0.725   5.755   2.958
12793TIP3   OH238323   6.946   7.462   3.214
12793TIP3    H138324   6.911   7.427   3.296
12793TIP3    H238325   6.927   7.395   3.148
12794TIP3   OH238326   8.096   4.199   5.860
12794TIP3    H138327   8.089   4.220   5.767
12794TIP3    H238328   8.031   4.130   5.875
12795TIP3   OH238329   3.782   6.530   6.302
12795TIP3    H138330   3.852   6.499   6.358
12795TIP3    H238331   3.702   6.512   6.351
12796TIP3   OH238332   7.328   0.259   0.640
12796TIP3    H138333   7.239   0.292   0.627
12796TIP3    H238334   7.382   0.312   0.581
12797TIP3   OH238335   1.876   1.920   2.719
12797TIP3    H138336   1.862   1.907   2.813
12797TIP3    H238337   1.805   1.977   2.691
12798TIP3   OH238338   7.701   5.161   4.160
12798TIP3    H138339   7.657   5.085   4.198
12798TIP3    H238340   7.746   5.202   4.233
12799TIP3   OH238341   7.269   4.829   4.411
12799TIP3    H138342   7.355   4.820   4.452
12799TIP3    H238343   7.242   4.740   4.391
12800TIP3   OH238344   1.681   5.210   4.793
12800TIP3    H138345   1.751   5.146   4.806
12800TIP3    H238346   1.702   5.252   4.710
12801TIP3   OH238347   6.780   4.021   2.334
12801TIP3    H138348   6.803   3.989   2.247
12801TIP3    H238349   6.722   3.954   2.369
12802TIP3   OH238350   4.341   7.365   3.460
12802TIP3    H138351   4.401   7.435   3.435
12802TIP3    H238352   4.393   7.309   3.519
12803TIP3   OH238353   2.605   1.537   6.313
12803TIP3    H138354   2.522   1.489   6.305
12803TIP3    H238355   2.673   1.470   6.307
12804TIP3   OH238356   7.508   5.513   4.770
12804TIP3    H138357   7.538   5.551   4.688
12804TIP3    H238358   7.560   5.557   4.837
12805TIP3   OH238359   5.146   5.370   4.616
12805TIP3    H138360   5.215   5.309   4.589
12805TIP3    H238361   5.104   5.326   4.690
12806TIP3   OH238362   3.145   5.336   4.334
12806TIP3    H138363   3.176   5.259   4.286
12806TIP3    H238364   3.221   5.367   4.382
12807TIP3   OH238365   8.064   3.000   1.224
12807TIP3    H138366   8.125   2.952   1.281
12807TIP3    H238367   8.015   2.931   1.178
12808TIP3   OH238368   2.076   3.659   2.392
12808TIP3    H138369   2.110   3.746   2.413
12808TIP3    H238370   2.080   3.611   2.475
12809TIP3   OH238371   1.246   1.458   0.507
12809TIP3    H138372   1.182   1.434   0.440
12809TIP3    H238373   1.192   1.488   0.581
12810TIP3   OH238374   7.624   2.724   0.234
12810TIP3    H138375   7.690   2.655   0.237
12810TIP3    H238376   7.595   2.734   0.325
12811TIP3   OH238377   2.148   0.565   5.634
12811TIP3    H138378   2.074   0.614   5.670
12811TIP3    H238379   2.110   0.511   5.565
12812TIP3   OH238380   0.177   4.971   4.137
12812TIP3    H138381   0.233   4.921   4.077
12812TIP3    H238382   0.235   4.992   4.211
12813TIP3   OH238383   5.391   1.109   2.627
12813TIP3    H138384   5.483   1.115   2.602
12813TIP3    H238385   5.357   1.033   2.578
12814TIP3   OH238386   1.823   7.045   5.177
12814TIP3    H138387   1.862   6.973   5.127
12814TIP3    H238388   1.879   7.120   5.158
12815TIP3   OH238389   6.318   0.384   4.715
12815TIP3    H138390   6.276   0.299   4.705
12815TIP3    H238391   6.354   0.383   4.804
12816TIP3   OH238392   5.408   5.305   5.622
12816TIP3    H138393   5.461   5.260   5.556
12816TIP3    H238394   5.470   5.361   5.669
12817TIP3   OH238395   4.140   7.116   5.881
12817TIP3    H138396   4.164   7.139   5.970
12817TIP3    H238397   4.189   7.036   5.863
12818TIP3   OH238398   7.976   0.364   3.155
12818TIP3    H138399   7.957   0.455   3.134
12818TIP3    H238400   7.993   0.323   3.070
12819TIP3   OH238401   1.078   5.629   2.455
12819TIP3    H138402   1.084   5.668   2.368
12819TIP3    H238403   1.021   5.552   2.442
12820TIP3   OH238404   6.060   6.622   6.194
12820TIP3    H138405   6.032   6.640   6.284
12820TIP3    H238406   6.069   6.527   6.189
12821TIP3   OH238407   3.489   4.916   4.333
12821TIP3    H138408   3.550   4.847   4.359
12821TIP3    H238409   3.485   4.974   4.409
12822TIP3   OH238410   2.618   3.145   6.198
12822TIP3    H138411   2.681   3.214   6.177
12822TIP3    H238412   2.589   3.166   6.287
12823TIP3   OH238413   7.599   3.397   4.399
12823TIP3    H138414   7.554   3.429   4.321
12823TIP3    H238415   7.561   3.448   4.471
12824TIP3   OH238416   1.270   5.240   1.336
12824TIP3    H138417   1.347   5.207   1.382
12824TIP3    H238418   1.220   5.161   1.314
12825TIP3   OH238419   1.641   4.393   1.098
12825TIP3    H138420   1.627   4.402   1.004
12825TIP3    H238421   1.719   4.446   1.116
12826TIP3   OH238422   7.398   3.234   6.350
12826TIP3    H138423   7.474   3.193   6.391
12826TIP3    H238424   7.325   3.177   6.373
12827TIP3   OH238425   7.848   7.042   3.028
12827TIP3    H138426   7.755   7.055   3.011
12827TIP3    H238427   7.880   6.993   2.953
12828TIP3   OH238428   4.727   7.163   2.454
12828TIP3    H138429   4.654   7.205   2.499
12828TIP3    H238430   4.753   7.225   2.386
12829TIP3   OH238431   4.595   4.057   3.010
12829TIP3    H138432   4.632   4.002   2.941
12829TIP3    H238433   4.666   4.067   3.073
12830TIP3   OH238434   5.288   4.079   0.837
12830TIP3    H138435   5.350   4.068   0.908
12830TIP3    H238436   5.275   3.991   0.802
12831TIP3   OH238437   6.802   7.789   1.979
12831TIP3    H138438   6.762   7.836   1.905
12831TIP3    H238439   6.745   7.714   1.994
12832TIP3   OH238440   5.116   1.385   2.280
12832TIP3    H138441   5.096   1.303   2.327
12832TIP3    H238442   5.121   1.451   2.349
12833TIP3   OH238443   7.893   2.016   1.554
12833TIP3    H138444   7.844   1.935   1.541
12833TIP3    H238445   7.862   2.049   1.638
12834TIP3   OH238446   5.292   0.897   6.459
12834TIP3    H138447   5.203   0.862   6.451
12834TIP3    H238448   5.286   0.987   6.427
12835TIP3   OH238449   2.037   1.221   3.487
12835TIP3    H138450   2.034   1.198   3.580
12835TIP3    H238451   2.001   1.310   3.483
12836TIP3   OH238452   1.999   4.552   2.415
12836TIP3    H138453   2.077   4.538   2.469
12836TIP3    H238454   1.926   4.536   2.475
12837TIP3   OH238455   2.661   2.195   2.564
12837TIP3    H138456   2.699   2.264   2.619
12837TIP3    H238457   2.567   2.216   2.561
12838TIP3   OH238458   4.793   5.580   1.116
12838TIP3    H138459   4.819   5.629   1.038
12838TIP3    H238460   4.770   5.648   1.180
12839TIP3   OH238461   4.364   1.702   0.233
12839TIP3    H138462   4.298   1.730   0.169
12839TIP3    H238463   4.448   1.723   0.192
12840TIP3   OH238464   4.279   0.610   5.278
12840TIP3    H138465   4.230   0.570   5.351
12840TIP3    H238466   4.262   0.703   5.285
12841TIP3   OH238467   6.698   0.716   3.940
12841TIP3    H138468   6.638   0.658   3.892
12841TIP3    H238469   6.705   0.676   4.026
12842TIP3   OH238470   1.973   2.785   2.997
12842TIP3    H138471   1.884   2.772   3.030
12842TIP3    H238472   2.012   2.848   3.058
12843TIP3   OH238473   1.555   4.113   1.001
12843TIP3    H138474   1.634   4.066   1.027
12843TIP3    H238475   1.568   4.202   1.034
12844TIP3   OH238476   5.728   7.305   1.017
12844TIP3    H138477   5.650   7.354   0.993
12844TIP3    H238478   5.755   7.343   1.101
12845TIP3   OH238479   3.478   2.383   6.197
12845TIP3    H138480   3.553   2.325   6.206
12845TIP3    H238481   3.411   2.330   6.154
12846TIP3   OH238482   0.763   2.790   4.505
12846TIP3    H138483   0.754   2.714   4.447
12846TIP3    H238484   0.857   2.795   4.523
12847TIP3   OH238485   7.792   2.173   0.077
12847TIP3    H138486   7.855   2.212   0.017
12847TIP3    H238487   7.813   2.080   0.077
12848TIP3   OH238488   4.232   3.614   3.888
12848TIP3    H138489   4.234   3.702   3.848
12848TIP3    H238490   4.141   3.586   3.878
12849TIP3   OH238491   4.553   3.136   5.447
12849TIP3    H138492   4.578   3.053   5.406
12849TIP3    H238493   4.586   3.130   5.536
12850TIP3   OH238494   4.124   5.978   5.989
12850TIP3    H138495   4.144   6.026   5.908
12850TIP3    H238496   4.178   6.020   6.056
12851TIP3   OH238497   4.741   5.503   6.185
12851TIP3    H138498   4.757   5.446   6.261
12851TIP3    H238499   4.826   5.509   6.141
12852TIP3   OH238500   3.359   0.295   0.692
12852TIP3    H138501   3.335   0.206   0.720
12852TIP3    H238502   3.322   0.352   0.759
12853TIP3   OH238503   2.834   0.867   0.109
12853TIP3    H138504   2.842   0.777   0.076
12853TIP3    H238505   2.760   0.904   0.060
12854TIP3   OH238506   4.295   3.083   5.919
12854TIP3    H138507   4.267   3.051   5.833
12854TIP3    H238508   4.311   3.177   5.905
12855TIP3   OH238509   3.741   2.736   4.761
12855TIP3    H138510   3.716   2.820   4.798
12855TIP3    H238511   3.736   2.749   4.666
12856TIP3   OH238512   0.402   0.085   3.142
12856TIP3    H138513   0.397   0.114   3.233
12856TIP3    H238514   0.322   0.117   3.102
12857TIP3   OH238515   7.384   6.952   2.036
12857TIP3    H138516   7.438   6.908   1.971
12857TIP3    H238517   7.309   6.893   2.049
12858TIP3   OH238518   3.617   4.674   5.926
12858TIP3    H138519   3.552   4.634   5.985
12858TIP3    H238520   3.653   4.746   5.976
12859TIP3   OH238521   7.032   7.672   4.564
12859TIP3    H138522   6.992   7.721   4.636
12859TIP3    H238523   7.047   7.585   4.600
12860TIP3   OH238524   6.177   1.784   2.663
12860TIP3    H138525   6.244   1.830   2.614
12860TIP3    H238526   6.110   1.851   2.681
12861TIP3   OH238527   5.937   2.752   6.120
12861TIP3    H138528   5.915   2.787   6.034
12861TIP3    H238529   5.891   2.808   6.181
12862TIP3   OH238530   6.269   6.993   1.614
12862TIP3    H138531   6.194   7.011   1.558
12862TIP3    H238532   6.231   6.959   1.695
12863TIP3   OH238533   1.722   3.830   0.262
12863TIP3    H138534   1.788   3.767   0.232
12863TIP3    H238535   1.654   3.777   0.303
12864TIP3   OH238536   8.134   2.900   5.506
12864TIP3    H138537   8.088   2.984   5.507
12864TIP3    H238538   8.068   2.836   5.533
12865TIP3   OH238539   6.976   0.235   2.343
12865TIP3    H138540   7.052   0.180   2.329
12865TIP3    H238541   6.901   0.176   2.334
12866TIP3   OH238542   5.428   5.587   1.497
12866TIP3    H138543   5.479   5.652   1.545
12866TIP3    H238544   5.340   5.594   1.532
12867TIP3   OH238545   6.676   4.774   4.241
12867TIP3    H138546   6.672   4.855   4.293
12867TIP3    H238547   6.747   4.724   4.281
12868TIP3   OH238548   4.070   3.284   1.485
12868TIP3    H138549   4.054   3.195   1.516
12868TIP3    H238550   4.094   3.274   1.393
12869TIP3   OH238551   8.023   7.626   3.739
12869TIP3    H138552   8.007   7.718   3.761
12869TIP3    H238553   7.950   7.579   3.779
12870TIP3   OH238554   1.314   1.183   4.876
12870TIP3    H138555   1.319   1.088   4.888
12870TIP3    H238556   1.399   1.207   4.840
12871TIP3   OH238557   2.200   1.508   1.515
12871TIP3    H138558   2.261   1.499   1.589
12871TIP3    H238559   2.153   1.589   1.532
12872TIP3   OH238560   4.772   4.000   6.659
12872TIP3    H138561   4.806   3.915   6.689
12872TIP3    H238562   4.828   4.064   6.703
12873TIP3   OH238563   7.806   3.306   6.192
12873TIP3    H138564   7.767   3.358   6.262
12873TIP3    H238565   7.862   3.367   6.145
12874TIP3   OH238566   4.942   5.059   1.950
12874TIP3    H138567   5.024   5.056   1.902
12874TIP3    H238568   4.968   5.075   2.041
12875TIP3   OH238569   6.029   2.747   0.030
12875TIP3    H138570   6.040   2.667   0.082
12875TIP3    H238571   5.981   2.806   0.088
12876TIP3   OH238572   5.050   7.302   5.127
12876TIP3    H138573   5.008   7.374   5.173
12876TIP3    H238574   5.067   7.337   5.039
12877TIP3   OH238575   3.022   4.365   4.534
12877TIP3    H138576   3.099   4.387   4.588
12877TIP3    H238577   2.951   4.418   4.572
12878TIP3   OH238578   7.133   0.787   2.145
12878TIP3    H138579   7.127   0.852   2.076
12878TIP3    H238580   7.121   0.837   2.226
12879TIP3   OH238581   3.389   3.072   6.068
12879TIP3    H138582   3.294   3.066   6.057
12879TIP3    H238583   3.425   3.025   5.993
12880TIP3   OH238584   5.641   4.560   5.772
12880TIP3    H138585   5.574   4.624   5.748
12880TIP3    H238586   5.612   4.527   5.858
12881TIP3   OH238587   3.145   6.964   0.727
12881TIP3    H138588   3.121   7.007   0.645
12881TIP3    H238589   3.175   7.035   0.784
12882TIP3   OH238590   1.629   4.859   2.320
12882TIP3    H138591   1.566   4.875   2.250
12882TIP3    H238592   1.611   4.769   2.349
12883TIP3   OH238593   0.393   0.279   5.934
12883TIP3    H138594   0.343   0.352   5.970
12883TIP3    H238595   0.343   0.201   5.957
12884TIP3   OH238596   4.147   5.278   4.958
12884TIP3    H138597   4.200   5.328   4.896
12884TIP3    H238598   4.187   5.191   4.958
12885TIP3   OH238599   0.084   2.256   0.707
12885TIP3    H138600   0.154   2.303   0.752
12885TIP3    H238601   0.129   2.204   0.641
12886TIP3   OH238602   2.535   4.091   0.755
12886TIP3    H138603   2.453   4.113   0.712
12886TIP3    H238604   2.591   4.168   0.742
12887TIP3   OH238605   7.793   6.819   5.424
12887TIP3    H138606   7.818   6.735   5.384
12887TIP3    H238607   7.771   6.796   5.514
12888TIP3   OH238608   2.716   0.674   1.564
12888TIP3    H138609   2.703   0.642   1.654
12888TIP3    H238610   2.811   0.679   1.555
12889TIP3   OH238611   5.267   6.725   3.481
12889TIP3    H138612   5.354   6.718   3.443
12889TIP3    H238613   5.282   6.757   3.570
12890TIP3   OH238614   5.799   2.112   6.391
12890TIP3    H138615   5.869   2.076   6.445
12890TIP3    H238616   5.750   2.035   6.362
12891TIP3   OH238617   5.999   0.765   5.049
12891TIP3    H138618   5.972   0.727   4.965
12891TIP3    H238619   5.966   0.704   5.114
12892TIP3   OH238620   5.161   1.873   6.400
12892TIP3    H138621   5.234   1.933   6.385
12892TIP3    H238622   5.192   1.789   6.369
12893TIP3   OH238623   7.770   7.625   0.200
12893TIP3    H138624   7.688   7.622   0.249
12893TIP3    H238625   7.744   7.651   0.111
12894TIP3   OH238626   2.200   0.109   1.309
12894TIP3    H138627   2.183   0.049   1.382
12894TIP3    H238628   2.140   0.081   1.240
12895TIP3   OH238629   0.359   1.665   6.714
12895TIP3    H138630   0.318   1.748   6.690
12895TIP3    H238631   0.347   1.609   6.637
12896TIP3   OH238632   4.674   3.974   4.685
12896TIP3    H138633   4.754   4.015   4.651
12896TIP3    H238634   4.689   3.880   4.674
12897TIP3   OH238635   4.657   7.446   1.894
12897TIP3    H138636   4.611   7.387   1.835
12897TIP3    H238637   4.727   7.392   1.932
12898TIP3   OH238638   3.922   6.321   3.598
12898TIP3    H138639   3.896   6.282   3.515
12898TIP3    H238640   3.842   6.321   3.650
12899TIP3   OH238641   5.266   0.634   0.206
12899TIP3    H138642   5.277   0.603   0.296
12899TIP3    H238643   5.221   0.718   0.215
12900TIP3   OH238644   2.632   3.085   3.728
12900TIP3    H138645   2.705   3.031   3.760
12900TIP3    H238646   2.669   3.172   3.716
12901TIP3   OH238647   1.632   5.969   2.985
12901TIP3    H138648   1.651   6.050   2.939
12901TIP3    H238649   1.547   5.985   3.027
12902TIP3   OH238650   0.193   3.914   5.257
12902TIP3    H138651   0.184   3.834   5.206
12902TIP3    H238652   0.123   3.971   5.224
12903TIP3   OH238653   4.651   6.228   2.905
12903TIP3    H138654   4.573   6.252   2.955
12903TIP3    H238655   4.675   6.141   2.939
12904TIP3   OH238656   5.930   1.380   6.428
12904TIP3    H138657   6.010   1.433   6.434
12904TIP3    H238658   5.947   1.320   6.355
12905TIP3   OH238659   0.319   5.112   3.434
12905TIP3    H138660   0.401   5.098   3.481
12905TIP3    H238661   0.258   5.142   3.500
12906TIP3   OH238662   0.128   4.356   3.221
12906TIP3    H138663   0.205   4.353   3.278
12906TIP3    H238664   0.054   4.358   3.282
12907TIP3   OH238665   4.799   6.226   4.191
12907TIP3    H138666   4.830   6.136   4.189
12907TIP3    H238667   4.723   6.227   4.133
12908TIP3   OH238668   6.806   2.453   5.932
12908TIP3    H138669   6.828   2.441   6.024
12908TIP3    H238670   6.866   2.396   5.885
12909TIP3   OH238671   2.154   3.411   4.376
12909TIP3    H138672   2.249   3.403   4.379
12909TIP3    H238673   2.126   3.399   4.467
12910TIP3   OH238674   8.071   6.157   5.707
12910TIP3    H138675   8.135   6.222   5.679
12910TIP3    H238676   8.058   6.101   5.631
12911TIP3   OH238677   7.179   5.119   0.367
12911TIP3    H138678   7.221   5.205   0.364
12911TIP3    H238679   7.112   5.127   0.436
12912TIP3   OH238680   4.490   1.270   5.393
12912TIP3    H138681   4.528   1.190   5.430
12912TIP3    H238682   4.433   1.239   5.322
12913TIP3   OH238683   1.484   6.167   6.561
12913TIP3    H138684   1.556   6.111   6.590
12913TIP3    H238685   1.500   6.181   6.467
12914TIP3   OH238686   2.601   1.637   4.751
12914TIP3    H138687   2.659   1.713   4.754
12914TIP3    H238688   2.617   1.598   4.665
12915TIP3   OH238689   0.545   5.044   1.038
12915TIP3    H138690   0.599   4.984   0.987
12915TIP3    H238691   0.542   5.124   0.986
12916TIP3   OH238692   1.009   7.007   0.459
12916TIP3    H138693   1.067   7.082   0.449
12916TIP3    H238694   1.008   6.989   0.552
12917TIP3   OH238695   0.384   0.761   3.577
12917TIP3    H138696   0.418   0.680   3.615
12917TIP3    H238697   0.364   0.738   3.486
12918TIP3   OH238698   2.804   3.905   5.678
12918TIP3    H138699   2.848   3.821   5.692
12918TIP3    H238700   2.743   3.888   5.606
12919TIP3   OH238701   5.126   2.157   1.632
12919TIP3    H138702   5.220   2.150   1.613
12919TIP3    H238703   5.097   2.066   1.639
12920TIP3   OH238704   1.406   1.754   2.411
12920TIP3    H138705   1.420   1.756   2.316
12920TIP3    H238706   1.366   1.668   2.427
12921TIP3   OH238707   2.384   4.415   2.265
12921TIP3    H138708   2.452   4.434   2.330
12921TIP3    H238709   2.306   4.393   2.317
12922TIP3   OH238710   1.535   6.377   5.490
12922TIP3    H138711   1.620   6.419   5.475
12922TIP3    H238712   1.486   6.440   5.543
12923TIP3   OH238713   6.075   5.765   1.928
12923TIP3    H138714   6.130   5.829   1.884
12923TIP3    H238715   6.136   5.708   1.975
12924TIP3   OH238716   4.240   6.450   3.543
12924TIP3    H138717   4.278   6.364   3.558
12924TIP3    H238718   4.170   6.457   3.607
12925TIP3   OH238719   0.022   0.808   2.359
12925TIP3    H138720   0.028   0.713   2.364
12925TIP3    H238721  -0.052   0.831   2.417
12926TIP3   OH238722   3.888   0.085   0.711
12926TIP3    H138723   3.817   0.021   0.705
12926TIP3    H238724   3.845   0.169   0.698
12927TIP3   OH238725   2.568   2.055   6.716
12927TIP3    H138726   2.545   2.138   6.759
12927TIP3    H238727   2.526   1.988   6.769
12928TIP3   OH238728   1.195   0.345   5.952
12928TIP3    H138729   1.202   0.303   6.038
12928TIP3    H238730   1.119   0.403   5.959
12929TIP3   OH238731   6.614   1.644   5.048
12929TIP3    H138732   6.544   1.703   5.076
12929TIP3    H238733   6.627   1.664   4.955
12930TIP3   OH238734   6.818   4.341   5.551
12930TIP3    H138735   6.865   4.283   5.611
12930TIP3    H238736   6.872   4.342   5.472
12931TIP3   OH238737   3.549   0.884   0.258
12931TIP3    H138738   3.458   0.908   0.241
12931TIP3    H238739   3.556   0.881   0.353
12932TIP3   OH238740   1.171   6.332   2.243
12932TIP3    H138741   1.204   6.350   2.155
12932TIP3    H238742   1.136   6.416   2.273
12933TIP3   OH238743   3.721   0.576   1.582
12933TIP3    H138744   3.747   0.549   1.670
12933TIP3    H238745   3.632   0.542   1.572
12934TIP3   OH238746   7.842   7.348   0.204
12934TIP3    H138747   7.896   7.334   0.282
12934TIP3    H238748   7.839   7.443   0.192
12935TIP3   OH238749   2.457   7.703   1.964
12935TIP3    H138750   2.486   7.786   1.925
12935TIP3    H238751   2.376   7.681   1.918
12936TIP3   OH238752   0.573   2.196   3.253
12936TIP3    H138753   0.617   2.227   3.174
12936TIP3    H238754   0.643   2.160   3.307
12937TIP3   OH238755   0.064   7.365   5.166
12937TIP3    H138756   0.145   7.415   5.177
12937TIP3    H238757  -0.003   7.419   5.206
12938TIP3   OH238758   0.384   0.285   2.864
12938TIP3    H138759   0.354   0.327   2.945
12938TIP3    H238760   0.475   0.261   2.881
12939TIP3   OH238761   6.877   3.176   6.521
12939TIP3    H138762   6.894   3.220   6.605
12939TIP3    H238763   6.910   3.088   6.534
12940TIP3   OH238764   4.243   2.882   2.658
12940TIP3    H138765   4.198   2.903   2.576
12940TIP3    H238766   4.250   2.787   2.659
12941TIP3   OH238767   3.199   2.951   5.688
12941TIP3    H138768   3.227   3.043   5.693
12941TIP3    H238769   3.113   2.954   5.647
12942TIP3   OH238770   1.337   3.484   2.203
12942TIP3    H138771   1.275   3.554   2.226
12942TIP3    H238772   1.398   3.481   2.277
12943TIP3   OH238773   0.443   2.473   0.429
12943TIP3    H138774   0.407   2.529   0.361
12943TIP3    H238775   0.403   2.387   0.413
12944TIP3   OH238776   1.173   6.257   0.029
12944TIP3    H138777   1.130   6.337   0.060
12944TIP3    H238778   1.163   6.260  -0.066
12945TIP3   OH238779   4.966   5.146   6.211
12945TIP3    H138780   4.985   5.173   6.121
12945TIP3    H238781   4.900   5.078   6.202
12946TIP3   OH238782   4.394   1.280   3.939
12946TIP3    H138783   4.448   1.294   4.017
12946TIP3    H238784   4.401   1.362   3.890
12947TIP3   OH238785   6.766   0.996   6.708
12947TIP3    H138786   6.776   0.911   6.752
12947TIP3    H238787   6.855   1.027   6.695
12948TIP3   OH238788   6.072   2.103   5.384
12948TIP3    H138789   6.164   2.093   5.359
12948TIP3    H238790   6.066   2.063   5.471
12949TIP3   OH238791   5.891   6.777   2.463
12949TIP3    H138792   5.934   6.700   2.425
12949TIP3    H238793   5.818   6.741   2.514
12950TIP3   OH238794   6.991   0.350   1.757
12950TIP3    H138795   7.012   0.341   1.850
12950TIP3    H238796   7.069   0.388   1.718
12951TIP3   OH238797   3.297   5.691   2.050
12951TIP3    H138798   3.356   5.642   1.992
12951TIP3    H238799   3.310   5.782   2.025
12952TIP3   OH238800   5.375   7.039   0.654
12952TIP3    H138801   5.420   7.123   0.665
12952TIP3    H238802   5.371   7.027   0.559
12953TIP3   OH238803   4.942   4.779   5.611
12953TIP3    H138804   4.999   4.709   5.643
12953TIP3    H238805   4.905   4.746   5.530
12954TIP3   OH238806   5.141   3.072   1.769
12954TIP3    H138807   5.199   3.146   1.784
12954TIP3    H238808   5.132   3.067   1.674
12955TIP3   OH238809   0.196   1.839   0.735
12955TIP3    H138810   0.134   1.855   0.806
12955TIP3    H238811   0.263   1.907   0.745
12956TIP3   OH238812   8.056   6.184   6.510
12956TIP3    H138813   7.996   6.135   6.455
12956TIP3    H238814   8.023   6.172   6.599
12957TIP3   OH238815   0.608   3.065   0.558
12957TIP3    H138816   0.649   3.070   0.644
12957TIP3    H238817   0.614   3.154   0.522
12958TIP3   OH238818   3.106   0.592   0.991
12958TIP3    H138819   3.023   0.639   0.983
12958TIP3    H238820   3.124   0.590   1.085
12959TIP3   OH238821   0.353   0.700   3.320
12959TIP3    H138822   0.313   0.740   3.242
12959TIP3    H238823   0.335   0.607   3.311
12960TIP3   OH238824   4.096   0.837   3.577
12960TIP3    H138825   4.051   0.753   3.567
12960TIP3    H238826   4.139   0.831   3.662
12961TIP3   OH238827   4.125   6.487   2.210
12961TIP3    H138828   4.046   6.541   2.207
12961TIP3    H238829   4.191   6.543   2.249
12962TIP3   OH238830   5.362   3.853   6.556
12962TIP3    H138831   5.439   3.846   6.612
12962TIP3    H238832   5.393   3.831   6.468
12963TIP3   OH238833   7.182   5.069   4.479
12963TIP3    H138834   7.201   5.125   4.405
12963TIP3    H238835   7.208   4.981   4.451
12964TIP3   OH238836   7.560   4.425   2.314
12964TIP3    H138837   7.589   4.498   2.369
12964TIP3    H238838   7.481   4.457   2.271
12965TIP3   OH238839   8.048   1.294   2.078
12965TIP3    H138840   8.101   1.236   2.132
12965TIP3    H238841   8.011   1.237   2.011
12966TIP3   OH238842   6.033   7.066   4.251
12966TIP3    H138843   6.032   6.988   4.195
12966TIP3    H238844   5.946   7.104   4.241
12967TIP3   OH238845   1.832   2.918   4.333
12967TIP3    H138846   1.905   2.977   4.355
12967TIP3    H238847   1.756   2.975   4.326
12968TIP3   OH238848   3.977   6.588   3.584
12968TIP3    H138849   4.009   6.597   3.495
12968TIP3    H238850   3.964   6.493   3.595
12969TIP3   OH238851   2.511   3.910   6.329
12969TIP3    H138852   2.596   3.866   6.336
12969TIP3    H238853   2.470   3.872   6.252
12970TIP3   OH238854   4.883   0.770   1.489
12970TIP3    H138855   4.877   0.828   1.564
12970TIP3    H238856   4.976   0.760   1.473
12971TIP3   OH238857   1.212   1.450   6.564
12971TIP3    H138858   1.149   1.522   6.569
12971TIP3    H238859   1.179   1.386   6.627
12972TIP3   OH238860   1.717   4.881   4.772
12972TIP3    H138861   1.792   4.934   4.800
12972TIP3    H238862   1.731   4.796   4.814
12973TIP3   OH238863   1.079   2.185   2.165
12973TIP3    H138864   1.161   2.199   2.211
12973TIP3    H238865   1.039   2.111   2.210
12974TIP3   OH238866   7.908   3.370   5.890
12974TIP3    H138867   7.887   3.371   5.797
12974TIP3    H238868   7.932   3.460   5.911
12975TIP3   OH238869   3.225   1.553   2.156
12975TIP3    H138870   3.298   1.502   2.191
12975TIP3    H238871   3.262   1.601   2.082
12976TIP3   OH238872   0.030   3.630   2.432
12976TIP3    H138873  -0.003   3.637   2.343
12976TIP3    H238874   0.087   3.553   2.430
12977TIP3   OH238875   1.668   6.719   5.945
12977TIP3    H138876   1.645   6.752   5.858
12977TIP3    H238877   1.699   6.796   5.993
12978TIP3   OH238878   6.112   1.645   4.180
12978TIP3    H138879   6.038   1.622   4.236
12978TIP3    H238880   6.088   1.611   4.094
12979TIP3   OH238881   7.072   7.157   4.496
12979TIP3    H138882   7.027   7.152   4.580
12979TIP3    H238883   7.165   7.161   4.518
12980TIP3   OH238884   1.858   7.436   4.708
12980TIP3    H138885   1.887   7.459   4.796
12980TIP3    H238886   1.872   7.342   4.701
12981TIP3   OH238887   0.096   3.869   1.579
12981TIP3    H138888   0.177   3.906   1.613
12981TIP3    H238889   0.124   3.796   1.524
12982TIP3   OH238890   5.634   3.005   0.776
12982TIP3    H138891   5.718   2.959   0.777
12982TIP3    H238892   5.576   2.949   0.725
12983TIP3   OH238893   3.567   6.902   0.371
12983TIP3    H138894   3.583   6.807   0.364
12983TIP3    H238895   3.586   6.936   0.284
12984TIP3   OH238896   4.471   6.871   0.542
12984TIP3    H138897   4.496   6.890   0.452
12984TIP3    H238898   4.498   6.780   0.556
12985TIP3   OH238899   3.324   3.412   2.088
12985TIP3    H138900   3.336   3.497   2.129
12985TIP3    H238901   3.373   3.418   2.005
12986TIP3   OH238902   3.850   2.235   2.053
12986TIP3    H138903   3.837   2.301   1.985
12986TIP3    H238904   3.781   2.252   2.118
12987TIP3   OH238905   0.580   4.993   6.612
12987TIP3    H138906   0.584   5.072   6.665
12987TIP3    H238907   0.644   5.006   6.542
12988TIP3   OH238908   7.087   1.405   4.707
12988TIP3    H138909   7.081   1.314   4.737
12988TIP3    H238910   7.132   1.399   4.623
12989TIP3   OH238911   0.569   3.551   1.489
12989TIP3    H138912   0.524   3.579   1.569
12989TIP3    H238913   0.554   3.457   1.485
12990TIP3   OH238914   4.768   2.620   0.520
12990TIP3    H138915   4.805   2.608   0.607
12990TIP3    H238916   4.677   2.590   0.528
12991TIP3   OH238917   7.976   0.257   2.047
12991TIP3    H138918   7.992   0.228   1.957
12991TIP3    H238919   8.023   0.194   2.102
12992TIP3   OH238920   3.926   6.827   6.434
12992TIP3    H138921   3.904   6.880   6.358
12992TIP3    H238922   4.005   6.781   6.409
12993TIP3   OH238923   3.332   4.402   5.838
12993TIP3    H138924   3.254   4.386   5.890
12993TIP3    H238925   3.308   4.471   5.777
12994TIP3   OH238926   4.422   6.858   2.777
12994TIP3    H138927   4.374   6.776   2.767
12994TIP3    H238928   4.428   6.893   2.688
12995TIP3   OH238929   0.305   5.767   0.111
12995TIP3    H138930   0.398   5.761   0.132
12995TIP3    H238931   0.290   5.859   0.091
12996TIP3   OH238932   5.711   6.141   3.095
12996TIP3    H138933   5.751   6.094   3.168
12996TIP3    H238934   5.737   6.232   3.107
12997TIP3   OH238935   5.788   6.935   2.174
12997TIP3    H138936   5.834   6.854   2.198
12997TIP3    H238937   5.729   6.951   2.248
12998TIP3   OH238938   3.822   4.963   6.401
12998TIP3    H138939   3.911   4.980   6.370
12998TIP3    H238940   3.771   5.036   6.366
12999TIP3   OH238941   0.600   3.386   3.463
12999TIP3    H138942   0.538   3.313   3.463
12999TIP3    H238943   0.546   3.463   3.478
13000TIP3   OH238944   1.341   7.478   2.342
13000TIP3    H138945   1.434   7.482   2.367
13000TIP3    H238946   1.337   7.523   2.258
13001TIP3   OH238947   7.907   2.682   5.637
13001TIP3    H138948   7.950   2.658   5.555
13001TIP3    H238949   7.856   2.604   5.660
13002TIP3   OH238950   1.022   0.509   0.826
13002TIP3    H138951   1.079   0.541   0.756
13002TIP3    H238952   1.025   0.577   0.893
13003TIP3   OH238953   1.130   3.655   3.187
13003TIP3    H138954   1.051   3.603   3.197
13003TIP3    H238955   1.202   3.593   3.202
13004TIP3   OH238956   4.869   6.150   6.763
13004TIP3    H138957   4.855   6.244   6.752
13004TIP3    H238958   4.875   6.117   6.674
13005TIP3   OH238959   7.533   1.980   0.817
13005TIP3    H138960   7.536   2.021   0.903
13005TIP3    H238961   7.466   2.030   0.769
13006TIP3   OH238962   1.663   4.278   1.646
13006TIP3    H138963   1.679   4.267   1.552
13006TIP3    H238964   1.658   4.373   1.659
13007TIP3   OH238965   1.327   0.464   3.290
13007TIP3    H138966   1.241   0.422   3.292
13007TIP3    H238967   1.382   0.404   3.241
13008TIP3   OH238968   8.243   4.300   0.197
13008TIP3    H138969   8.262   4.269   0.108
13008TIP3    H238970   8.170   4.360   0.186
13009TIP3   OH238971   3.386   7.149   3.715
13009TIP3    H138972   3.371   7.143   3.621
13009TIP3    H238973   3.373   7.241   3.736
13010TIP3   OH238974   4.889   3.475   3.930
13010TIP3    H138975   4.959   3.540   3.941
13010TIP3    H238976   4.922   3.397   3.974
13011TIP3   OH238977   5.247   6.740   1.385
13011TIP3    H138978   5.299   6.693   1.320
13011TIP3    H238979   5.290   6.825   1.393
13012TIP3   OH238980   3.625   1.274   1.958
13012TIP3    H138981   3.719   1.271   1.978
13012TIP3    H238982   3.615   1.215   1.883
13013TIP3   OH238983   3.135   4.725   4.592
13013TIP3    H138984   3.057   4.752   4.642
13013TIP3    H238985   3.107   4.730   4.501
13014TIP3   OH238986   8.111   3.898   1.297
13014TIP3    H138987   8.060   3.968   1.255
13014TIP3    H238988   8.135   3.840   1.225
13015TIP3   OH238989   1.448   4.222   5.208
13015TIP3    H138990   1.412   4.295   5.158
13015TIP3    H238991   1.453   4.150   5.145
13016TIP3   OH238992   5.262   7.399   3.998
13016TIP3    H138993   5.298   7.486   3.980
13016TIP3    H238994   5.306   7.371   4.078
13017TIP3   OH238995   4.696   3.768   5.106
13017TIP3    H138996   4.708   3.848   5.054
13017TIP3    H238997   4.699   3.797   5.197
13018TIP3   OH238998   4.952   0.978   3.471
13018TIP3    H138999   4.973   0.964   3.379
13018TIP3    H239000   4.961   0.891   3.511
13019TIP3   OH239001   1.833   6.264   5.491
13019TIP3    H139002   1.784   6.257   5.573
13019TIP3    H239003   1.918   6.224   5.510
13020TIP3   OH239004   5.133   0.561   1.388
13020TIP3    H139005   5.212   0.509   1.373
13020TIP3    H239006   5.165   0.649   1.409
13021TIP3   OH239007   3.485   7.102   0.777
13021TIP3    H139008   3.563   7.140   0.819
13021TIP3    H239009   3.516   7.070   0.693
13022TIP3   OH239010   0.616   0.014   0.119
13022TIP3    H139011   0.619  -0.038   0.200
13022TIP3    H239012   0.684   0.081   0.131
13023TIP3   OH239013   7.293   0.093   6.169
13023TIP3    H139014   7.328   0.031   6.105
13023TIP3    H239015   7.205   0.063   6.187
13024TIP3   OH239016   6.022   4.223   5.685
13024TIP3    H139017   6.116   4.215   5.704
13024TIP3    H239018   6.001   4.313   5.712
13025TIP3   OH239019   4.964   1.904   2.480
13025TIP3    H139020   5.036   1.902   2.417
13025TIP3    H239021   5.001   1.869   2.561
13026TIP3   OH239022   0.256   3.870   3.534
13026TIP3    H139023   0.314   3.832   3.601
13026TIP3    H239024   0.231   3.795   3.480
13027TIP3   OH239025   4.501   0.033   1.354
13027TIP3    H139026   4.475  -0.021   1.429
13027TIP3    H239027   4.588   0.064   1.377
13028TIP3   OH239028   1.561   3.587   1.712
13028TIP3    H139029   1.508   3.658   1.748
13028TIP3    H239030   1.513   3.557   1.634
13029TIP3   OH239031   7.584   5.144   0.794
13029TIP3    H139032   7.547   5.209   0.854
13029TIP3    H239033   7.538   5.062   0.815
13030TIP3   OH239034   7.289   3.576   3.881
13030TIP3    H139035   7.307   3.494   3.834
13030TIP3    H239036   7.198   3.568   3.909
13031TIP3   OH239037   5.951   1.751   6.239
13031TIP3    H139038   6.027   1.693   6.239
13031TIP3    H239039   5.980   1.828   6.288
13032TIP3   OH239040   7.651   6.691   3.937
13032TIP3    H139041   7.688   6.732   3.859
13032TIP3    H239042   7.702   6.611   3.949
13033TIP3   OH239043   0.240   7.510   1.930
13033TIP3    H139044   0.313   7.571   1.917
13033TIP3    H239045   0.180   7.557   1.987
13034TIP3   OH239046   1.491   4.972   0.245
13034TIP3    H139047   1.550   4.897   0.240
13034TIP3    H239048   1.433   4.952   0.318
13035TIP3   OH239049   2.289   4.445   5.650
13035TIP3    H139050   2.375   4.444   5.693
13035TIP3    H239051   2.291   4.523   5.594
13036TIP3   OH239052   6.449   3.546   0.292
13036TIP3    H139053   6.462   3.619   0.352
13036TIP3    H239054   6.537   3.512   0.276
13037TIP3   OH239055   1.091   4.667   2.829
13037TIP3    H139056   1.012   4.621   2.800
13037TIP3    H239057   1.120   4.715   2.752
13038TIP3   OH239058   2.780   6.677   2.765
13038TIP3    H139059   2.859   6.699   2.815
13038TIP3    H239060   2.779   6.741   2.694
13039TIP3   OH239061   8.019   3.303   0.099
13039TIP3    H139062   7.997   3.338   0.185
13039TIP3    H239063   7.998   3.210   0.104
13040TIP3   OH239064   3.860   4.072   2.260
13040TIP3    H139065   3.793   4.018   2.302
13040TIP3    H239066   3.813   4.128   2.199
13041TIP3   OH239067   0.790   6.960   4.715
13041TIP3    H139068   0.785   6.938   4.622
13041TIP3    H239069   0.790   6.875   4.760
13042TIP3   OH239070   6.550   4.924   0.209
13042TIP3    H139071   6.503   4.991   0.259
13042TIP3    H239072   6.489   4.899   0.140
13043TIP3   OH239073   7.180   1.232   3.445
13043TIP3    H139074   7.115   1.299   3.467
13043TIP3    H239075   7.259   1.260   3.490
13044TIP3   OH239076   6.062   3.329   3.422
13044TIP3    H139077   6.028   3.341   3.333
13044TIP3    H239078   5.986   3.344   3.479
13045TIP3   OH239079   4.984   0.759   0.365
13045TIP3    H139080   5.057   0.738   0.423
13045TIP3    H239081   4.981   0.855   0.364
13046TIP3   OH239082   5.776   5.102   5.255
13046TIP3    H139083   5.828   5.024   5.275
13046TIP3    H239084   5.710   5.072   5.194
13047TIP3   OH239085   5.475   2.041   0.933
13047TIP3    H139086   5.522   1.958   0.926
13047TIP3    H239087   5.438   2.055   0.846
13048TIP3   OH239088   2.432   5.475   4.337
13048TIP3    H139089   2.520   5.494   4.371
13048TIP3    H239090   2.398   5.560   4.309
13049TIP3   OH239091   8.130   0.542   6.121
13049TIP3    H139092   8.107   0.521   6.211
13049TIP3    H239093   8.179   0.624   6.127
13050TIP3   OH239094   5.613   0.758   1.189
13050TIP3    H139095   5.612   0.743   1.284
13050TIP3    H239096   5.635   0.672   1.152
13051TIP3   OH239097   4.280   0.807   1.510
13051TIP3    H139098   4.363   0.823   1.556
13051TIP3    H239099   4.226   0.761   1.574
13052TIP3   OH239100   1.508   1.027   3.655
13052TIP3    H139101   1.561   0.995   3.582
13052TIP3    H239102   1.427   1.058   3.614
13053TIP3   OH239103   5.409   6.472   5.146
13053TIP3    H139104   5.497   6.452   5.115
13053TIP3    H239105   5.395   6.563   5.119
13054TIP3   OH239106   5.767   5.072   5.608
13054TIP3    H139107   5.675   5.079   5.633
13054TIP3    H239108   5.766   5.020   5.527
13055TIP3   OH239109   5.755   7.749   0.867
13055TIP3    H139110   5.760   7.723   0.775
13055TIP3    H239111   5.665   7.730   0.893
13056TIP3   OH239112   2.678   7.130   6.662
13056TIP3    H139113   2.633   7.169   6.737
13056TIP3    H239114   2.681   7.200   6.596
13057TIP3   OH239115   1.861   5.502   5.375
13057TIP3    H139116   1.904   5.498   5.461
13057TIP3    H239117   1.932   5.514   5.313
13058TIP3   OH239118   0.078   4.350   2.252
13058TIP3    H139119   0.122   4.331   2.335
13058TIP3    H239120   0.037   4.435   2.265
13059TIP3   OH239121   5.110   7.019   4.814
13059TIP3    H139122   5.046   6.962   4.772
13059TIP3    H239123   5.180   6.959   4.842
13060TIP3   OH239124   5.026   6.432   1.302
13060TIP3    H139125   4.994   6.517   1.273
13060TIP3    H239126   5.068   6.450   1.386
13061TIP3   OH239127   7.699   2.634   6.150
13061TIP3    H139128   7.656   2.639   6.065
13061TIP3    H239129   7.649   2.693   6.206
13062TIP3   OH239130   0.537   4.001   1.789
13062TIP3    H139131   0.466   4.022   1.729
13062TIP3    H239132   0.503   4.023   1.875
13063TIP3   OH239133   2.288   2.657   3.238
13063TIP3    H139134   2.361   2.597   3.249
13063TIP3    H239135   2.248   2.632   3.155
13064TIP3   OH239136   2.489   2.373   3.805
13064TIP3    H139137   2.437   2.401   3.880
13064TIP3    H239138   2.562   2.324   3.842
13065TIP3   OH239139   3.728   7.190   3.085
13065TIP3    H139140   3.638   7.222   3.080
13065TIP3    H239141   3.738   7.133   3.009
13066TIP3   OH239142   5.330   2.355   6.151
13066TIP3    H139143   5.278   2.421   6.105
13066TIP3    H239144   5.387   2.318   6.082
13067TIP3   OH239145   4.973   3.854   5.838
13067TIP3    H139146   4.973   3.941   5.878
13067TIP3    H239147   5.021   3.864   5.756
13068TIP3   OH239148   1.627   6.534   4.458
13068TIP3    H139149   1.550   6.517   4.405
13068TIP3    H239150   1.635   6.629   4.459
13069TIP3   OH239151   7.099   6.680   0.589
13069TIP3    H139152   7.013   6.638   0.589
13069TIP3    H239153   7.120   6.693   0.497
13070TIP3   OH239154   8.136   6.534   4.911
13070TIP3    H139155   8.115   6.564   4.999
13070TIP3    H239156   8.079   6.459   4.896
13071TIP3   OH239157   1.367   4.660   0.752
13071TIP3    H139158   1.298   4.726   0.757
13071TIP3    H239159   1.325   4.585   0.709
13072TIP3   OH239160   6.712   2.932   4.531
13072TIP3    H139161   6.636   2.879   4.507
13072TIP3    H239162   6.742   2.894   4.614
13073TIP3   OH239163   2.211   3.352   1.114
13073TIP3    H139164   2.285   3.365   1.173
13073TIP3    H239165   2.197   3.437   1.074
13074TIP3   OH239166   7.066   0.072   0.900
13074TIP3    H139167   7.036   0.157   0.932
13074TIP3    H239168   7.083   0.021   0.979
13075TIP3   OH239169   5.824   6.303   4.188
13075TIP3    H139170   5.782   6.222   4.219
13075TIP3    H239171   5.913   6.298   4.221
13076TIP3   OH239172   0.387   5.952   0.394
13076TIP3    H139173   0.392   6.037   0.438
13076TIP3    H239174   0.312   5.961   0.334
13077TIP3   OH239175   3.038   4.633   2.420
13077TIP3    H139176   2.965   4.648   2.481
13077TIP3    H239177   3.111   4.607   2.476
13078TIP3   OH239178   0.806   0.497   0.392
13078TIP3    H139179   0.828   0.461   0.306
13078TIP3    H239180   0.890   0.526   0.428
13079TIP3   OH239181   3.404   6.431   4.787
13079TIP3    H139182   3.354   6.464   4.861
13079TIP3    H239183   3.342   6.378   4.737
13080TIP3   OH239184   2.430   6.660   0.199
13080TIP3    H139185   2.367   6.727   0.176
13080TIP3    H239186   2.501   6.670   0.136
13081TIP3   OH239187   4.299   1.232   2.341
13081TIP3    H139188   4.308   1.143   2.375
13081TIP3    H239189   4.259   1.221   2.255
13082TIP3   OH239190   7.253   5.297   3.530
13082TIP3    H139191   7.328   5.351   3.507
13082TIP3    H239192   7.230   5.323   3.619
13083TIP3   OH239193   6.822   1.565   1.628
13083TIP3    H139194   6.787   1.510   1.558
13083TIP3    H239195   6.870   1.505   1.685
13084TIP3   OH239196   5.081   1.771   0.676
13084TIP3    H139197   5.072   1.797   0.585
13084TIP3    H239198   5.002   1.804   0.719
13085TIP3   OH239199   8.096   4.990   2.158
13085TIP3    H139200   8.167   4.986   2.095
13085TIP3    H239201   8.024   5.031   2.111
13086TIP3   OH239202   3.386   6.992   2.767
13086TIP3    H139203   3.460   6.931   2.763
13086TIP3    H239204   3.310   6.939   2.743
13087TIP3   OH239205   3.782   6.222   1.883
13087TIP3    H139206   3.804   6.134   1.913
13087TIP3    H239207   3.860   6.252   1.836
13088TIP3   OH239208   5.939   6.221   5.970
13088TIP3    H139209   5.920   6.185   6.057
13088TIP3    H239210   5.875   6.291   5.959
13089TIP3   OH239211   3.512   6.467   6.415
13089TIP3    H139212   3.461   6.478   6.495
13089TIP3    H239213   3.455   6.417   6.357
13090TIP3   OH239214   0.039   2.455   0.427
13090TIP3    H139215   0.129   2.424   0.437
13090TIP3    H239216   0.007   2.467   0.516
13091TIP3   OH239217   6.215   1.725   2.170
13091TIP3    H139218   6.141   1.771   2.131
13091TIP3    H239219   6.245   1.783   2.239
13092TIP3   OH239220   3.369   3.600   3.836
13092TIP3    H139221   3.285   3.564   3.806
13092TIP3    H239222   3.354   3.694   3.841
13093TIP3   OH239223   6.166   6.128   2.196
13093TIP3    H139224   6.209   6.086   2.122
13093TIP3    H239225   6.234   6.183   2.235
13094TIP3   OH239226   5.315   5.720   2.975
13094TIP3    H139227   5.303   5.669   2.895
13094TIP3    H239228   5.405   5.752   2.970
13095TIP3   OH239229   4.553   3.432   2.389
13095TIP3    H139230   4.558   3.500   2.456
13095TIP3    H239231   4.536   3.351   2.438
13096TIP3   OH239232   7.002   2.790   6.460
13096TIP3    H139233   6.966   2.716   6.509
13096TIP3    H239234   7.096   2.773   6.456
13097TIP3   OH239235   8.181   5.421   0.352
13097TIP3    H139236   8.202   5.398   0.442
13097TIP3    H239237   8.256   5.473   0.323
13098TIP3   OH239238   3.545   4.397   3.706
13098TIP3    H139239   3.525   4.397   3.799
13098TIP3    H239240   3.574   4.486   3.687
13099TIP3   OH239241   7.263   6.911   5.407
13099TIP3    H139242   7.346   6.939   5.445
13099TIP3    H239243   7.280   6.904   5.313
13100TIP3   OH239244   7.214   4.933   6.268
13100TIP3    H139245   7.160   4.999   6.312
13100TIP3    H239246   7.194   4.852   6.315
13101TIP3   OH239247   4.638   1.118   6.387
13101TIP3    H139248   4.699   1.094   6.317
13101TIP3    H239249   4.587   1.038   6.403
13102TIP3   OH239250   5.197   0.662   5.319
13102TIP3    H139251   5.174   0.600   5.250
13102TIP3    H239252   5.281   0.629   5.353
13103TIP3   OH239253   3.656   3.496   2.104
13103TIP3    H139254   3.617   3.494   2.191
13103TIP3    H239255   3.693   3.585   2.096
13104TIP3   OH239256   6.501   3.911   0.712
13104TIP3    H139257   6.486   3.817   0.723
13104TIP3    H239258   6.457   3.950   0.787
13105TIP3   OH239259   3.010   1.562   1.029
13105TIP3    H139260   3.083   1.584   1.086
13105TIP3    H239261   3.026   1.612   0.949
13106TIP3   OH239262   7.155   2.829   6.132
13106TIP3    H139263   7.236   2.798   6.090
13106TIP3    H239264   7.085   2.791   6.079
13107TIP3   OH239265   1.956   1.489   5.702
13107TIP3    H139266   2.045   1.492   5.668
13107TIP3    H239267   1.905   1.450   5.632
13108TIP3   OH239268   5.177   1.740   4.821
13108TIP3    H139269   5.102   1.798   4.828
13108TIP3    H239270   5.139   1.652   4.811
13109TIP3   OH239271   2.438   0.773   1.571
13109TIP3    H139272   2.401   0.783   1.483
13109TIP3    H239273   2.516   0.719   1.558
13110TIP3   OH239274   2.387   1.900   0.773
13110TIP3    H139275   2.329   1.959   0.725
13110TIP3    H239276   2.420   1.953   0.846
13111TIP3   OH239277   5.939   3.071   3.447
13111TIP3    H139278   5.973   3.021   3.373
13111TIP3    H239279   5.987   3.154   3.443
13112TIP3   OH239280   0.178   0.336   4.474
13112TIP3    H139281   0.229   0.256   4.460
13112TIP3    H239282   0.200   0.392   4.399
13113TIP3   OH239283   4.624   2.185   6.272
13113TIP3    H139284   4.654   2.179   6.363
13113TIP3    H239285   4.691   2.139   6.221
13114TIP3   OH239286   7.897   1.567   2.613
13114TIP3    H139287   7.977   1.591   2.660
13114TIP3    H239288   7.928   1.511   2.541
13115TIP3   OH239289   3.222   0.147   1.628
13115TIP3    H139290   3.174   0.181   1.704
13115TIP3    H239291   3.302   0.110   1.664
13116TIP3   OH239292   1.657   4.726   3.078
13116TIP3    H139293   1.671   4.682   2.995
13116TIP3    H239294   1.613   4.808   3.055
13117TIP3   OH239295   6.400   5.189   3.457
13117TIP3    H139296   6.413   5.094   3.461
13117TIP3    H239297   6.488   5.225   3.466
13118TIP3   OH239298   7.674   3.163   0.001
13118TIP3    H139299   7.612   3.147  -0.071
13118TIP3    H239300   7.628   3.134   0.079
13119TIP3   OH239301   7.950   2.082   3.400
13119TIP3    H139302   7.946   2.086   3.304
13119TIP3    H239303   7.989   2.166   3.426
13120TIP3   OH239304   5.124   2.746   5.551
13120TIP3    H139305   5.038   2.716   5.579
13120TIP3    H239306   5.114   2.767   5.458
13121TIP3   OH239307   1.290   5.626   6.179
13121TIP3    H139308   1.307   5.648   6.271
13121TIP3    H239309   1.284   5.711   6.135
13122TIP3   OH239310   6.652   0.534   4.194
13122TIP3    H139311   6.627   0.498   4.279
13122TIP3    H239312   6.570   0.565   4.156
13123TIP3   OH239313   6.701   6.780   4.428
13123TIP3    H139314   6.669   6.743   4.346
13123TIP3    H239315   6.686   6.711   4.493
13124TIP3   OH239316   4.541   2.471   2.104
13124TIP3    H139317   4.468   2.429   2.057
13124TIP3    H239318   4.619   2.447   2.053
13125TIP3   OH239319   0.966   0.151   2.334
13125TIP3    H139320   0.918   0.069   2.345
13125TIP3    H239321   0.971   0.188   2.423
13126TIP3   OH239322   5.484   3.401   3.996
13126TIP3    H139323   5.528   3.380   4.078
13126TIP3    H239324   5.391   3.391   4.015
13127TIP3   OH239325   6.365   3.656   4.599
13127TIP3    H139326   6.427   3.699   4.657
13127TIP3    H239327   6.317   3.728   4.557
13128TIP3   OH239328   6.711   4.911   0.428
13128TIP3    H139329   6.617   4.893   0.433
13128TIP3    H239330   6.726   4.933   0.336
13129TIP3   OH239331   5.007   5.529   4.447
13129TIP3    H139332   5.055   5.482   4.515
13129TIP3    H239333   4.955   5.462   4.403
13130TIP3   OH239334   4.237   7.267   1.739
13130TIP3    H139335   4.182   7.223   1.674
13130TIP3    H239336   4.187   7.261   1.821
13131TIP3   OH239337   5.636   6.986   5.521
13131TIP3    H139338   5.646   7.080   5.502
13131TIP3    H239339   5.544   6.976   5.544
13132TIP3   OH239340   8.042   5.446   6.329
13132TIP3    H139341   8.005   5.366   6.291
13132TIP3    H239342   8.102   5.414   6.397
13133TIP3   OH239343   0.124   6.372   3.747
13133TIP3    H139344   0.146   6.377   3.840
13133TIP3    H239345   0.208   6.368   3.702
13134TIP3   OH239346   0.961   4.419   3.825
13134TIP3    H139347   1.000   4.456   3.904
13134TIP3    H239348   0.967   4.489   3.761
13135TIP3   OH239349   4.323   3.323   5.514
13135TIP3    H139350   4.331   3.263   5.588
13135TIP3    H239351   4.367   3.278   5.442
13136TIP3   OH239352   6.952   3.055   2.758
13136TIP3    H139353   6.922   3.008   2.680
13136TIP3    H239354   6.876   3.104   2.787
13137TIP3   OH239355   7.804   5.808   2.940
13137TIP3    H139356   7.766   5.884   2.983
13137TIP3    H239357   7.857   5.844   2.869
13138TIP3   OH239358   6.929   0.703   4.924
13138TIP3    H139359   6.862   0.638   4.944
13138TIP3    H239360   6.886   0.788   4.939
13139TIP3   OH239361   6.877   6.576   1.133
13139TIP3    H139362   6.866   6.657   1.084
13139TIP3    H239363   6.882   6.508   1.066
13140TIP3   OH239364   2.391   3.520   2.664
13140TIP3    H139365   2.327   3.563   2.721
13140TIP3    H239366   2.338   3.470   2.602
13141TIP3   OH239367   5.882   3.393   5.773
13141TIP3    H139368   5.965   3.424   5.809
13141TIP3    H239369   5.843   3.471   5.733
13142TIP3   OH239370   0.345   1.061   3.334
13142TIP3    H139371   0.431   1.045   3.371
13142TIP3    H239372   0.362   1.078   3.241
13143TIP3   OH239373   0.502   7.301   5.461
13143TIP3    H139374   0.490   7.368   5.529
13143TIP3    H239375   0.421   7.251   5.462
13144TIP3   OH239376   2.167   4.251   5.794
13144TIP3    H139377   2.118   4.288   5.867
13144TIP3    H239378   2.209   4.327   5.754
13145TIP3   OH239379   6.289   4.017   1.570
13145TIP3    H139380   6.275   4.112   1.569
13145TIP3    H239381   6.355   4.003   1.638
13146TIP3   OH239382   0.060   4.926   3.696
13146TIP3    H139383   0.053   4.972   3.780
13146TIP3    H239384   0.024   4.987   3.632
13147TIP3   OH239385   6.731   1.466   0.250
13147TIP3    H139386   6.781   1.546   0.264
13147TIP3    H239387   6.777   1.421   0.178
13148TIP3   OH239388   1.222   7.249   5.617
13148TIP3    H139389   1.225   7.256   5.712
13148TIP3    H239390   1.255   7.161   5.598
13149TIP3   OH239391   4.271   5.064   4.385
13149TIP3    H139392   4.296   5.064   4.477
13149TIP3    H239393   4.193   5.120   4.382
13150TIP3   OH239394   2.174   6.465   5.477
13150TIP3    H139395   2.097   6.510   5.441
13150TIP3    H239396   2.236   6.462   5.404
13151TIP3   OH239397   1.160   4.369   2.821
13151TIP3    H139398   1.069   4.377   2.851
13151TIP3    H239399   1.185   4.458   2.797
13152TIP3   OH239400   3.918   5.149   6.006
13152TIP3    H139401   3.997   5.157   6.059
13152TIP3    H239402   3.847   5.136   6.069
13153TIP3   OH239403   0.142   1.851   3.312
13153TIP3    H139404   0.062   1.894   3.281
13153TIP3    H239405   0.212   1.894   3.263
13154TIP3   OH239406   1.188   6.732   6.667
13154TIP3    H139407   1.141   6.816   6.661
13154TIP3    H239408   1.243   6.741   6.745
13155TIP3   OH239409   5.324   3.948   5.852
13155TIP3    H139410   5.249   3.966   5.796
13155TIP3    H239411   5.399   3.983   5.804
13156TIP3   OH239412   1.610   0.985   6.150
13156TIP3    H139413   1.538   0.923   6.165
13156TIP3    H239414   1.594   1.056   6.212
13157TIP3   OH239415   3.701   0.238   5.696
13157TIP3    H139416   3.675   0.230   5.605
13157TIP3    H239417   3.652   0.313   5.729
13158TIP3   OH239418   4.971   2.183   6.481
13158TIP3    H139419   4.927   2.121   6.423
13158TIP3    H239420   5.046   2.215   6.430
13159TIP3   OH239421   1.672   0.608   5.639
13159TIP3    H139422   1.658   0.692   5.595
13159TIP3    H239423   1.584   0.579   5.664
13160TIP3   OH239424   4.359   4.337   5.946
13160TIP3    H139425   4.363   4.420   5.899
13160TIP3    H239426   4.374   4.271   5.879
13161TIP3   OH239427   2.627   3.423   2.610
13161TIP3    H139428   2.627   3.460   2.521
13161TIP3    H239429   2.551   3.462   2.652
13162TIP3   OH239430   7.299   5.316   4.041
13162TIP3    H139431   7.311   5.375   4.115
13162TIP3    H239432   7.309   5.228   4.078
13163TIP3   OH239433   6.176   0.230   5.158
13163TIP3    H139434   6.121   0.308   5.170
13163TIP3    H239435   6.164   0.181   5.239
13164TIP3   OH239436   3.514   3.615   4.200
13164TIP3    H139437   3.531   3.639   4.291
13164TIP3    H239438   3.518   3.697   4.152
13165TIP3   OH239439   1.895   6.583   0.136
13165TIP3    H139440   1.843   6.595   0.056
13165TIP3    H239441   1.830   6.578   0.206
13166TIP3   OH239442   4.744   6.171   1.054
13166TIP3    H139443   4.725   6.116   0.978
13166TIP3    H239444   4.748   6.260   1.019
13167TIP3   OH239445   6.410   7.707   2.064
13167TIP3    H139446   6.367   7.743   2.142
13167TIP3    H239447   6.389   7.770   1.995
13168TIP3   OH239448   5.766   0.293   1.687
13168TIP3    H139449   5.856   0.292   1.655
13168TIP3    H239450   5.773   0.318   1.779
13169TIP3   OH239451   0.723   5.602   2.489
13169TIP3    H139452   0.756   5.587   2.577
13169TIP3    H239453   0.634   5.634   2.502
13170TIP3   OH239454   3.528   7.412   4.032
13170TIP3    H139455   3.521   7.334   4.086
13170TIP3    H239456   3.536   7.484   4.095
13171TIP3   OH239457   6.906   5.522   4.801
13171TIP3    H139458   6.991   5.519   4.845
13171TIP3    H239459   6.874   5.432   4.803
13172TIP3   OH239460   4.903   4.082   5.500
13172TIP3    H139461   4.941   4.032   5.428
13172TIP3    H239462   4.866   4.016   5.559
13173TIP3   OH239463   2.070   6.264   4.383
13173TIP3    H139464   1.980   6.239   4.408
13173TIP3    H239465   2.062   6.292   4.292
13174TIP3   OH239466   6.632   6.310   2.037
13174TIP3    H139467   6.683   6.354   1.969
13174TIP3    H239468   6.697   6.270   2.095
13175TIP3   OH239469   0.029   1.240   0.424
13175TIP3    H139470   0.104   1.285   0.462
13175TIP3    H239471   0.058   1.213   0.337
13176TIP3   OH239472   1.985   4.142   4.059
13176TIP3    H139473   2.019   4.174   3.975
13176TIP3    H239474   1.973   4.221   4.112
13177TIP3   OH239475   8.268   1.901   0.523
13177TIP3    H139476   8.192   1.866   0.478
13177TIP3    H239477   8.234   1.935   0.605
13178TIP3   OH239478   3.692   3.992   6.435
13178TIP3    H139479   3.709   3.902   6.461
13178TIP3    H239480   3.637   3.985   6.357
13179TIP3   OH239481   3.449   6.225   5.043
13179TIP3    H139482   3.365   6.179   5.050
13179TIP3    H239483   3.426   6.312   5.010
13180TIP3   OH239484   1.916   7.338   4.022
13180TIP3    H139485   1.925   7.414   3.965
13180TIP3    H239486   1.841   7.359   4.078
13181TIP3   OH239487   4.465   6.541   3.111
13181TIP3    H139488   4.430   6.453   3.099
13181TIP3    H239489   4.448   6.561   3.203
13182TIP3   OH239490   6.962   4.882   4.215
13182TIP3    H139491   6.921   4.889   4.301
13182TIP3    H239492   6.925   4.802   4.177
13183TIP3   OH239493   5.494   0.062   5.666
13183TIP3    H139494   5.512   0.077   5.759
13183TIP3    H239495   5.502   0.148   5.625
13184TIP3   OH239496   1.995   6.475   3.891
13184TIP3    H139497   1.929   6.542   3.874
13184TIP3    H239498   2.078   6.517   3.866
13185TIP3   OH239499   2.917   4.570   4.203
13185TIP3    H139500   2.958   4.649   4.239
13185TIP3    H239501   2.850   4.547   4.267
13186TIP3   OH239502   3.455   1.253   4.475
13186TIP3    H139503   3.503   1.335   4.477
13186TIP3    H239504   3.458   1.220   4.564
13187TIP3   OH239505   4.740   5.421   6.632
13187TIP3    H139506   4.738   5.326   6.636
13187TIP3    H239507   4.767   5.442   6.542
13188TIP3   OH239508   1.916   4.012   2.174
13188TIP3    H139509   1.971   4.075   2.220
13188TIP3    H239510   1.931   4.030   2.081
13189TIP3   OH239511   4.334   1.776   5.685
13189TIP3    H139512   4.360   1.727   5.763
13189TIP3    H239513   4.414   1.785   5.634
13190TIP3   OH239514   1.949   5.536   3.062
13190TIP3    H139515   2.017   5.594   3.027
13190TIP3    H239516   1.994   5.487   3.131
13191TIP3   OH239517   7.420   3.826   1.543
13191TIP3    H139518   7.459   3.887   1.605
13191TIP3    H239519   7.447   3.739   1.573
13192TIP3   OH239520   1.597   1.139   5.329
13192TIP3    H139521   1.625   1.222   5.291
13192TIP3    H239522   1.668   1.115   5.389
13193TIP3   OH239523   8.309   1.779   6.786
13193TIP3    H139524   8.318   1.823   6.701
13193TIP3    H239525   8.351   1.694   6.773
13194TIP3   OH239526   5.269   3.591   3.286
13194TIP3    H139527   5.334   3.535   3.328
13194TIP3    H239528   5.220   3.630   3.358
13195TIP3   OH239529   6.998   5.608   6.563
13195TIP3    H139530   6.908   5.576   6.556
13195TIP3    H239531   7.050   5.529   6.578
13196TIP3   OH239532   1.704   0.182   5.379
13196TIP3    H139533   1.698   0.259   5.436
13196TIP3    H239534   1.623   0.134   5.395
13197TIP3   OH239535   7.178   3.926   2.718
13197TIP3    H139536   7.084   3.916   2.738
13197TIP3    H239537   7.212   3.976   2.792
13198TIP3   OH239538   5.200   3.957   6.127
13198TIP3    H139539   5.252   3.880   6.148
13198TIP3    H239540   5.245   3.998   6.053
13199TIP3   OH239541   6.798   6.287   0.485
13199TIP3    H139542   6.818   6.199   0.518
13199TIP3    H239543   6.728   6.273   0.421
13200TIP3   OH239544   0.428   2.036   2.178
13200TIP3    H139545   0.413   2.012   2.086
13200TIP3    H239546   0.486   1.969   2.211
13201TIP3   OH239547   1.846   1.093   5.450
13201TIP3    H139548   1.919   1.147   5.417
13201TIP3    H239549   1.874   1.003   5.433
13202TIP3   OH239550   6.358   1.178   4.427
13202TIP3    H139551   6.316   1.232   4.494
13202TIP3    H239552   6.355   1.232   4.348
13203TIP3   OH239553   2.119   0.839   2.430
13203TIP3    H139554   2.032   0.833   2.390
13203TIP3    H239555   2.168   0.898   2.372
13204TIP3   OH239556   2.420   3.358   0.188
13204TIP3    H139557   2.438   3.418   0.261
13204TIP3    H239558   2.498   3.303   0.182
13205TIP3   OH239559   0.494   6.745   6.006
13205TIP3    H139560   0.424   6.692   6.044
13205TIP3    H239561   0.569   6.686   6.003
13206TIP3   OH239562   2.546   1.214   4.894
13206TIP3    H139563   2.517   1.224   4.803
13206TIP3    H239564   2.466   1.197   4.943
13207TIP3   OH239565   3.440   6.218   3.633
13207TIP3    H139566   3.415   6.273   3.707
13207TIP3    H239567   3.416   6.129   3.659
13208TIP3   OH239568   0.197   0.500   0.689
13208TIP3    H139569   0.176   0.419   0.736
13208TIP3    H239570   0.184   0.477   0.596
13209TIP3   OH239571   5.829   6.278   6.457
13209TIP3    H139572   5.816   6.290   6.363
13209TIP3    H239573   5.752   6.317   6.497
13210TIP3   OH239574   1.917   6.287   1.426
13210TIP3    H139575   1.925   6.192   1.416
13210TIP3    H239576   1.825   6.301   1.450
13211TIP3   OH239577   8.196   0.972   1.681
13211TIP3    H139578   8.124   0.919   1.715
13211TIP3    H239579   8.261   0.971   1.752
13212TIP3   OH239580   6.378   0.463   0.741
13212TIP3    H139581   6.368   0.509   0.657
13212TIP3    H239582   6.296   0.482   0.788
13213TIP3   OH239583   1.975   3.026   5.664
13213TIP3    H139584   2.020   2.942   5.655
13213TIP3    H239585   1.882   3.003   5.665
13214TIP3   OH239586   4.268   4.994   5.006
13214TIP3    H139587   4.336   4.932   5.031
13214TIP3    H239588   4.186   4.952   5.034
13215TIP3   OH239589   4.233   3.811   2.272
13215TIP3    H139590   4.226   3.871   2.197
13215TIP3    H239591   4.179   3.736   2.248
13216TIP3   OH239592   6.371   6.990   4.123
13216TIP3    H139593   6.298   6.935   4.094
13216TIP3    H239594   6.348   7.014   4.213
13217TIP3   OH239595   1.521   5.628   1.064
13217TIP3    H139596   1.490   5.583   1.142
13217TIP3    H239597   1.523   5.721   1.089
13218TIP3   OH239598   0.126   5.929   4.567
13218TIP3    H139599   0.200   5.902   4.622
13218TIP3    H239600   0.061   5.860   4.579
13219TIP3   OH239601   4.521   0.042   3.337
13219TIP3    H139602   4.498   0.130   3.369
13219TIP3    H239603   4.485  -0.018   3.402
13220TIP3   OH239604   6.708   5.659   2.485
13220TIP3    H139605   6.616   5.669   2.509
13220TIP3    H239606   6.724   5.564   2.491
13221TIP3   OH239607   2.230   4.567   1.899
13221TIP3    H139608   2.162   4.510   1.863
13221TIP3    H239609   2.193   4.603   1.979
13222TIP3   OH239610   0.881   1.025   5.533
13222TIP3    H139611   0.909   0.991   5.448
13222TIP3    H239612   0.939   0.983   5.596
13223TIP3   OH239613   5.356   2.484   5.394
13223TIP3    H139614   5.393   2.556   5.446
13223TIP3    H239615   5.332   2.418   5.459
13224TIP3   OH239616   0.357   2.578   4.227
13224TIP3    H139617   0.308   2.501   4.201
13224TIP3    H239618   0.433   2.544   4.274
13225TIP3   OH239619   4.412   1.726   4.524
13225TIP3    H139620   4.328   1.762   4.552
13225TIP3    H239621   4.427   1.652   4.583
13226TIP3   OH239622   4.142   0.084   2.029
13226TIP3    H139623   4.123   0.170   2.067
13226TIP3    H239624   4.229   0.094   1.991
13227TIP3   OH239625   0.060   4.620   0.704
13227TIP3    H139626   0.098   4.538   0.672
13227TIP3    H239627   0.131   4.684   0.694
13228TIP3   OH239628   7.074   7.122   0.325
13228TIP3    H139629   7.117   7.157   0.247
13228TIP3    H239630   7.141   7.128   0.394
13229TIP3   OH239631   1.964   5.233   1.301
13229TIP3    H139632   1.925   5.308   1.257
13229TIP3    H239633   2.049   5.221   1.258
13230TIP3   OH239634   3.309   5.315   3.603
13230TIP3    H139635   3.287   5.399   3.642
13230TIP3    H239636   3.323   5.256   3.677
13231TIP3   OH239637   2.873   1.181   1.470
13231TIP3    H139638   2.863   1.182   1.375
13231TIP3    H239639   2.919   1.262   1.491
13232TIP3   OH239640   8.216   6.553   0.924
13232TIP3    H139641   8.165   6.533   1.002
13232TIP3    H239642   8.156   6.540   0.851
13233TIP3   OH239643   6.564   6.840   4.991
13233TIP3    H139644   6.482   6.874   5.026
13233TIP3    H239645   6.538   6.785   4.917
13234TIP3   OH239646   1.123   6.983   2.174
13234TIP3    H139647   1.212   6.950   2.159
13234TIP3    H239648   1.135   7.076   2.192
13235TIP3   OH239649   3.610   0.109   0.220
13235TIP3    H139650   3.519   0.136   0.224
13235TIP3    H239651   3.660   0.189   0.237
13236TIP3   OH239652   2.977   0.039   0.110
13236TIP3    H139653   2.996   0.038   0.204
13236TIP3    H239654   2.966   0.131   0.088
13237TIP3   OH239655   5.177   1.779   2.637
13237TIP3    H139656   5.156   1.824   2.719
13237TIP3    H239657   5.257   1.822   2.606
13238TIP3   OH239658   3.015   5.196   3.636
13238TIP3    H139659   3.102   5.201   3.676
13238TIP3    H239660   3.013   5.269   3.574
13239TIP3   OH239661   6.645   2.436   0.090
13239TIP3    H139662   6.680   2.347   0.092
13239TIP3    H239663   6.719   2.491   0.117
13240TIP3   OH239664   7.533   2.432   4.849
13240TIP3    H139665   7.590   2.508   4.856
13240TIP3    H239666   7.567   2.383   4.775
13241TIP3   OH239667   2.641   3.360   4.342
13241TIP3    H139668   2.704   3.295   4.374
13241TIP3    H239669   2.661   3.369   4.249
13242TIP3   OH239670   5.159   4.824   5.121
13242TIP3    H139671   5.154   4.754   5.056
13242TIP3    H239672   5.213   4.787   5.192
13243TIP3   OH239673   0.012   1.778   3.936
13243TIP3    H139674   0.017   1.729   4.018
13243TIP3    H239675   0.048   1.864   3.957
13244TIP3   OH239676   4.198   6.951   5.377
13244TIP3    H139677   4.282   6.987   5.349
13244TIP3    H239678   4.185   6.874   5.322
13245TIP3   OH239679   0.934   3.389   2.220
13245TIP3    H139680   0.862   3.327   2.220
13245TIP3    H239681   1.002   3.346   2.271
13246TIP3   OH239682   5.835   3.780   4.106
13246TIP3    H139683   5.825   3.752   4.015
13246TIP3    H239684   5.751   3.759   4.147
13247TIP3   OH239685   4.959   6.436   3.232
13247TIP3    H139686   4.991   6.388   3.308
13247TIP3    H239687   4.870   6.463   3.255
13248TIP3   OH239688   1.211   1.298   2.789
13248TIP3    H139689   1.269   1.354   2.737
13248TIP3    H239690   1.156   1.359   2.838
13249TIP3   OH239691   7.021   0.979   1.940
13249TIP3    H139692   7.017   1.074   1.933
13249TIP3    H239693   7.023   0.948   1.849
13250TIP3   OH239694   0.149   0.198   3.114
13250TIP3    H139695   0.086   0.229   3.178
13250TIP3    H239696   0.100   0.194   3.032
13251TIP3   OH239697   2.107   6.210   5.533
13251TIP3    H139698   2.144   6.180   5.616
13251TIP3    H239699   2.136   6.301   5.524
13252TIP3   OH239700   7.547   0.513   6.551
13252TIP3    H139701   7.567   0.488   6.461
13252TIP3    H239702   7.523   0.431   6.594
13253TIP3   OH239703   1.543   0.943   1.696
13253TIP3    H139704   1.473   0.955   1.760
13253TIP3    H239705   1.624   0.956   1.745
13254TIP3   OH239706   6.841   7.636   2.209
13254TIP3    H139707   6.891   7.716   2.193
13254TIP3    H239708   6.783   7.628   2.133
13255TIP3   OH239709   7.155   1.973   0.528
13255TIP3    H139710   7.073   2.019   0.508
13255TIP3    H239711   7.129   1.881   0.536
13256TIP3   OH239712   5.344   7.083   0.363
13256TIP3    H139713   5.357   7.031   0.283
13256TIP3    H239714   5.249   7.085   0.374
13257TIP3   OH239715   3.929   6.840   3.411
13257TIP3    H139716   3.841   6.872   3.394
13257TIP3    H239717   3.927   6.749   3.383
13258TIP3   OH239718   1.229   5.460   5.944
13258TIP3    H139719   1.157   5.507   5.903
13258TIP3    H239720   1.252   5.512   6.020
13259TIP3   OH239721   7.883   7.801   4.869
13259TIP3    H139722   7.865   7.800   4.964
13259TIP3    H239723   7.862   7.712   4.841
13260TIP3   OH239724   0.891   1.231   1.165
13260TIP3    H139725   0.812   1.213   1.115
13260TIP3    H239726   0.860   1.269   1.247
13261TIP3   OH239727   6.654   4.566   3.344
13261TIP3    H139728   6.614   4.609   3.269
13261TIP3    H239729   6.743   4.545   3.316
13262TIP3   OH239730   8.157   4.707   3.714
13262TIP3    H139731   8.225   4.774   3.704
13262TIP3    H239732   8.188   4.652   3.785
13263TIP3   OH239733   5.755   2.896   2.590
13263TIP3    H139734   5.769   2.904   2.684
13263TIP3    H239735   5.663   2.870   2.582
13264TIP3   OH239736   6.957   3.200   0.974
13264TIP3    H139737   6.980   3.233   0.888
13264TIP3    H239738   6.919   3.114   0.958
13265TIP3   OH239739   3.679   1.868   5.965
13265TIP3    H139740   3.706   1.857   6.056
13265TIP3    H239741   3.761   1.883   5.917
13266TIP3   OH239742   5.672   1.375   4.426
13266TIP3    H139743   5.730   1.444   4.394
13266TIP3    H239744   5.584   1.403   4.401
13267TIP3   OH239745   8.195   2.954   6.037
13267TIP3    H139746   8.225   2.958   5.946
13267TIP3    H239747   8.151   3.038   6.051
13268TIP3   OH239748   0.600   3.798   2.594
13268TIP3    H139749   0.547   3.731   2.638
13268TIP3    H239750   0.633   3.755   2.516
13269TIP3   OH239751   7.358   1.550   6.222
13269TIP3    H139752   7.378   1.634   6.182
13269TIP3    H239753   7.441   1.503   6.223
13270TIP3   OH239754   6.057   1.675   5.602
13270TIP3    H139755   5.988   1.663   5.537
13270TIP3    H239756   6.015   1.720   5.675
13271TIP3   OH239757   1.206   5.166   4.929
13271TIP3    H139758   1.299   5.188   4.931
13271TIP3    H239759   1.199   5.090   4.987
13272TIP3   OH239760   3.582   1.956   5.698
13272TIP3    H139761   3.489   1.944   5.680
13272TIP3    H239762   3.589   1.953   5.794
13273TIP3   OH239763   1.696   1.707   0.853
13273TIP3    H139764   1.678   1.616   0.829
13273TIP3    H239765   1.719   1.749   0.770
13274TIP3   OH239766   1.524   1.369   5.848
13274TIP3    H139767   1.586   1.325   5.790
13274TIP3    H239768   1.498   1.448   5.799
13275TIP3   OH239769   0.339   4.770   4.004
13275TIP3    H139770   0.383   4.707   4.061
13275TIP3    H239771   0.272   4.718   3.959
13276TIP3   OH239772   7.930   5.536   2.484
13276TIP3    H139773   7.892   5.620   2.508
13276TIP3    H239774   8.006   5.558   2.430
13277TIP3   OH239775   0.339   0.683   4.361
13277TIP3    H139776   0.264   0.700   4.304
13277TIP3    H239777   0.390   0.617   4.314
13278TIP3   OH239778   1.379   2.787   6.648
13278TIP3    H139779   1.316   2.761   6.716
13278TIP3    H239780   1.462   2.751   6.678
13279TIP3   OH239781   1.753   0.594   1.052
13279TIP3    H139782   1.721   0.527   0.991
13279TIP3    H239783   1.678   0.615   1.106
13280TIP3   OH239784   6.829   1.352   2.656
13280TIP3    H139785   6.815   1.425   2.716
13280TIP3    H239786   6.912   1.372   2.614
13281TIP3   OH239787   5.450   6.496   0.725
13281TIP3    H139788   5.530   6.531   0.763
13281TIP3    H239789   5.380   6.530   0.781
13282TIP3   OH239790   1.360   2.771   0.012
13282TIP3    H139791   1.453   2.771   0.036
13282TIP3    H239792   1.314   2.790   0.094
13283TIP3   OH239793   5.380   2.485   6.404
13283TIP3    H139794   5.346   2.432   6.332
13283TIP3    H239795   5.383   2.574   6.369
13284TIP3   OH239796   7.587   4.741   4.074
13284TIP3    H139797   7.541   4.796   4.138
13284TIP3    H239798   7.638   4.803   4.022
13285TIP3   OH239799   5.756   0.799   4.074
13285TIP3    H139800   5.769   0.874   4.131
13285TIP3    H239801   5.728   0.836   3.990
13286TIP3   OH239802   6.902   5.516   0.715
13286TIP3    H139803   6.995   5.505   0.736
13286TIP3    H239804   6.869   5.427   0.703
13287TIP3   OH239805   8.232   6.080   0.378
13287TIP3    H139806   8.189   6.159   0.412
13287TIP3    H239807   8.307   6.113   0.328
13288TIP3   OH239808   7.314   6.786   5.774
13288TIP3    H139809   7.314   6.751   5.863
13288TIP3    H239810   7.326   6.710   5.717
13289TIP3   OH239811   0.464   1.112   4.553
13289TIP3    H139812   0.402   1.088   4.484
13289TIP3    H239813   0.444   1.203   4.573
13290TIP3   OH239814   2.445   0.127   2.101
13290TIP3    H139815   2.398   0.054   2.062
13290TIP3    H239816   2.527   0.132   2.052
13291TIP3   OH239817   1.365   7.633   2.130
13291TIP3    H139818   1.372   7.728   2.134
13291TIP3    H239819   1.417   7.609   2.053
13292TIP3   OH239820   5.261   7.773   0.008
13292TIP3    H139821   5.227   7.695   0.052
13292TIP3    H239822   5.257   7.842   0.075
13293TIP3   OH239823   2.788   1.592   5.229
13293TIP3    H139824   2.738   1.597   5.311
13293TIP3    H239825   2.722   1.576   5.162
13294TIP3   OH239826   4.169   2.448   5.634
13294TIP3    H139827   4.101   2.402   5.583
13294TIP3    H239828   4.230   2.481   5.568
13295TIP3   OH239829   4.713   4.277   1.910
13295TIP3    H139830   4.668   4.265   1.827
13295TIP3    H239831   4.806   4.267   1.889
13296TIP3   OH239832   6.509   6.085   2.501
13296TIP3    H139833   6.497   6.063   2.409
13296TIP3    H239834   6.422   6.074   2.540
13297TIP3   OH239835   4.039   7.568   0.736
13297TIP3    H139836   4.120   7.563   0.787
13297TIP3    H239837   4.039   7.488   0.683
13298TIP3   OH239838   0.082   0.577   3.462
13298TIP3    H139839   0.152   0.543   3.407
13298TIP3    H239840   0.117   0.574   3.551
13299TIP3   OH239841   0.227   4.499   2.579
13299TIP3    H139842   0.222   4.404   2.570
13299TIP3    H239843   0.139   4.530   2.556
13300TIP3   OH239844   4.887   4.582   0.625
13300TIP3    H139845   4.874   4.527   0.702
13300TIP3    H239846   4.882   4.521   0.551
13301TIP3   OH239847   7.868   6.650   4.677
13301TIP3    H139848   7.796   6.695   4.634
13301TIP3    H239849   7.946   6.699   4.649
13302TIP3   OH239850   5.631   7.523   4.483
13302TIP3    H139851   5.711   7.480   4.454
13302TIP3    H239852   5.633   7.517   4.578
13303TIP3   OH239853   0.806   1.437   6.593
13303TIP3    H139854   0.787   1.343   6.597
13303TIP3    H239855   0.807   1.457   6.499
13304TIP3   OH239856   1.742   2.828   0.674
13304TIP3    H139857   1.702   2.872   0.750
13304TIP3    H239858   1.763   2.740   0.706
13305TIP3   OH239859   5.805   6.466   0.160
13305TIP3    H139860   5.734   6.407   0.184
13305TIP3    H239861   5.883   6.410   0.156
13306TIP3   OH239862   7.306   4.035  -0.021
13306TIP3    H139863   7.283   4.120   0.016
13306TIP3    H239864   7.232   3.978   0.001
13307TIP3   OH239865   6.037   0.798   5.666
13307TIP3    H139866   6.087   0.761   5.594
13307TIP3    H239867   5.949   0.763   5.655
13308TIP3   OH239868   5.278   3.003   0.509
13308TIP3    H139869   5.318   2.962   0.585
13308TIP3    H239870   5.205   3.053   0.544
13309TIP3   OH239871   2.692   7.049   2.186
13309TIP3    H139872   2.750   7.125   2.180
13309TIP3    H239873   2.750   6.974   2.170
13310TIP3   OH239874   1.639   2.587   0.830
13310TIP3    H139875   1.589   2.636   0.895
13310TIP3    H239876   1.573   2.541   0.778
13311TIP3   OH239877   0.415   7.731   3.337
13311TIP3    H139878   0.439   7.660   3.278
13311TIP3    H239879   0.397   7.688   3.420
13312TIP3   OH239880   4.375   4.382   5.169
13312TIP3    H139881   4.319   4.310   5.140
13312TIP3    H239882   4.319   4.435   5.226
13313TIP3   OH239883   3.806   5.675   5.039
13313TIP3    H139884   3.807   5.758   4.991
13313TIP3    H239885   3.897   5.645   5.037
13314TIP3   OH239886   3.571   1.033   5.773
13314TIP3    H139887   3.521   1.009   5.851
13314TIP3    H239888   3.514   1.093   5.725
13315TIP3   OH239889   3.948   0.825   5.882
13315TIP3    H139890   3.882   0.758   5.898
13315TIP3    H239891   3.919   0.901   5.933
13316TIP3   OH239892   0.390   0.297   1.621
13316TIP3    H139893   0.393   0.229   1.554
13316TIP3    H239894   0.367   0.377   1.573
13317TIP3   OH239895   2.500   3.922   1.516
13317TIP3    H139896   2.466   3.834   1.500
13317TIP3    H239897   2.429   3.968   1.560
13318TIP3   OH239898   3.997   2.544   5.343
13318TIP3    H139899   3.958   2.551   5.430
13318TIP3    H239900   3.962   2.461   5.309
13319TIP3   OH239901   3.116   0.715   4.396
13319TIP3    H139902   3.151   0.632   4.430
13319TIP3    H239903   3.039   0.689   4.345
13320TIP3   OH239904   8.076   6.820   5.469
13320TIP3    H139905   7.993   6.849   5.432
13320TIP3    H239906   8.142   6.873   5.424
13321TIP3   OH239907   6.269   6.218   1.793
13321TIP3    H139908   6.312   6.270   1.725
13321TIP3    H239909   6.211   6.280   1.837
13322TIP3   OH239910   7.038   0.095   2.684
13322TIP3    H139911   6.990   0.069   2.605
13322TIP3    H239912   7.106   0.028   2.693
13323TIP3   OH239913   1.106   1.905   1.443
13323TIP3    H139914   1.200   1.885   1.450
13323TIP3    H239915   1.104   1.999   1.425
13324TIP3   OH239916   1.738   3.548   0.737
13324TIP3    H139917   1.791   3.545   0.658
13324TIP3    H239918   1.693   3.463   0.739
13325TIP3   OH239919   7.857   5.487   0.871
13325TIP3    H139920   7.825   5.574   0.891
13325TIP3    H239921   7.815   5.430   0.936
13326TIP3   OH239922   4.161   0.880   3.308
13326TIP3    H139923   4.150   0.880   3.403
13326TIP3    H239924   4.082   0.923   3.275
13327TIP3   OH239925   7.551   0.828   0.827
13327TIP3    H139926   7.642   0.815   0.855
13327TIP3    H239927   7.501   0.766   0.879
13328TIP3   OH239928   2.616   1.221   0.747
13328TIP3    H139929   2.669   1.297   0.770
13328TIP3    H239930   2.659   1.148   0.789
13329TIP3   OH239931   5.481   1.682   5.514
13329TIP3    H139932   5.485   1.771   5.480
13329TIP3    H239933   5.448   1.692   5.603
13330TIP3   OH239934   4.518   5.533   2.162
13330TIP3    H139935   4.513   5.616   2.115
13330TIP3    H239936   4.583   5.547   2.230
13331TIP3   OH239937   6.363   6.199   4.413
13331TIP3    H139938   6.385   6.291   4.432
13331TIP3    H239939   6.419   6.176   4.339
13332TIP3   OH239940   5.298   6.298   0.063
13332TIP3    H139941   5.350   6.378   0.067
13332TIP3    H239942   5.210   6.328   0.040
13333TIP3   OH239943   4.102   1.900   2.384
13333TIP3    H139944   4.140   1.954   2.454
13333TIP3    H239945   4.088   1.962   2.312
13334TIP3   OH239946   7.936   3.038   0.103
13334TIP3    H139947   7.846   3.068   0.088
13334TIP3    H239948   7.945   2.961   0.048
13335TIP3   OH239949   2.827   3.761   3.058
13335TIP3    H139950   2.818   3.694   3.126
13335TIP3    H239951   2.914   3.798   3.072
13336TIP3   OH239952   6.563   5.882   1.631
13336TIP3    H139953   6.572   5.816   1.700
13336TIP3    H239954   6.469   5.894   1.621
13337TIP3   OH239955   2.091   4.134   0.585
13337TIP3    H139956   2.166   4.089   0.546
13337TIP3    H239957   2.130   4.199   0.643
13338TIP3   OH239958   3.215   2.395   0.660
13338TIP3    H139959   3.187   2.307   0.682
13338TIP3    H239960   3.173   2.451   0.725
13339TIP3   OH239961   7.293   7.253   3.146
13339TIP3    H139962   7.333   7.340   3.144
13339TIP3    H239963   7.350   7.201   3.202
13340TIP3   OH239964   7.489   7.832   3.597
13340TIP3    H139965   7.475   7.755   3.542
13340TIP3    H239966   7.407   7.843   3.645
13341TIP3   OH239967   5.309   6.856   3.735
13341TIP3    H139968   5.318   6.952   3.735
13341TIP3    H239969   5.390   6.825   3.775
13342TIP3   OH239970   2.220   2.571   1.214
13342TIP3    H139971   2.253   2.524   1.137
13342TIP3    H239972   2.126   2.553   1.215
13343TIP3   OH239973   1.775   5.048   2.876
13343TIP3    H139974   1.794   4.991   2.951
13343TIP3    H239975   1.806   5.134   2.903
13344TIP3   OH239976   1.678   0.396   1.998
13344TIP3    H139977   1.604   0.380   2.057
13344TIP3    H239978   1.674   0.490   1.979
13345TIP3   OH239979   1.817   2.574   5.488
13345TIP3    H139980   1.871   2.554   5.565
13345TIP3    H239981   1.858   2.651   5.449
13346TIP3   OH239982   1.400   0.542   0.517
13346TIP3    H139983   1.310   0.554   0.487
13346TIP3    H239984   1.447   0.619   0.483
13347TIP3   OH239985   3.911   1.465   0.406
13347TIP3    H139986   3.830   1.511   0.427
13347TIP3    H239987   3.904   1.382   0.455
13348TIP3   OH239988   6.562   0.985   3.469
13348TIP3    H139989   6.618   0.909   3.483
13348TIP3    H239990   6.496   0.956   3.406
13349TIP3   OH239991   7.991   2.943   1.682
13349TIP3    H139992   7.924   2.978   1.740
13349TIP3    H239993   8.070   2.941   1.735
13350TIP3   OH239994   2.513   5.585   6.567
13350TIP3    H139995   2.427   5.626   6.571
13350TIP3    H239996   2.572   5.654   6.537
13351TIP3   OH239997   7.241   7.191   2.049
13351TIP3    H139998   7.265   7.228   1.965
13351TIP3    H239999   7.288   7.107   2.053
13352TIP3   OH240000   0.815   5.364   6.386
13352TIP3    H140001   0.855   5.408   6.311
13352TIP3    H240002   0.833   5.422   6.460
13353TIP3   OH240003   6.188   0.036   2.548
13353TIP3    H140004   6.094   0.018   2.545
13353TIP3    H240005   6.211   0.060   2.458
13354TIP3   OH240006   7.357   6.483   6.199
13354TIP3    H140007   7.296   6.500   6.271
13354TIP3    H240008   7.440   6.463   6.243
13355TIP3   OH240009   4.615   0.915   1.032
13355TIP3    H140010   4.551   0.848   1.056
13355TIP3    H240011   4.673   0.921   1.107
13356TIP3   OH240012   4.453   7.779   4.481
13356TIP3    H140013   4.487   7.866   4.461
13356TIP3    H240014   4.530   7.728   4.506
13357TIP3   OH240015   8.258   4.307   1.182
13357TIP3    H140016   8.217   4.224   1.157
13357TIP3    H240017   8.274   4.352   1.099
13358TIP3   OH240018   1.087   5.595   0.362
13358TIP3    H140019   1.158   5.532   0.352
13358TIP3    H240020   1.129   5.680   0.351
13359TIP3   OH240021   5.619   6.306   0.281
13359TIP3    H140022   5.583   6.368   0.344
13359TIP3    H240023   5.568   6.226   0.294
13360TIP3   OH240024   5.812   4.026   4.337
13360TIP3    H140025   5.807   3.936   4.305
13360TIP3    H240026   5.826   4.078   4.258
13361TIP3   OH240027   1.784   6.017   0.778
13361TIP3    H140028   1.845   6.086   0.748
13361TIP3    H240029   1.840   5.941   0.794
13362TIP3   OH240030   7.590   1.506   1.650
13362TIP3    H140031   7.596   1.564   1.574
13362TIP3    H240032   7.516   1.447   1.630
13363TIP3   OH240033   0.877   6.741   6.236
13363TIP3    H140034   0.821   6.666   6.219
13363TIP3    H240035   0.864   6.759   6.329
13364TIP3   OH240036   6.931   2.679   3.562
13364TIP3    H140037   7.009   2.657   3.613
13364TIP3    H240038   6.880   2.598   3.561
13365TIP3   OH240039   2.394   2.389   6.125
13365TIP3    H140040   2.447   2.366   6.049
13365TIP3    H240041   2.312   2.422   6.088
13366TIP3   OH240042   6.408   6.738   4.384
13366TIP3    H140043   6.405   6.833   4.391
13366TIP3    H240044   6.470   6.721   4.313
13367TIP3   OH240045   1.726   3.956   2.477
13367TIP3    H140046   1.728   3.896   2.403
13367TIP3    H240047   1.636   3.987   2.481
13368TIP3   OH240048   4.052   4.573   5.555
13368TIP3    H140049   4.020   4.663   5.561
13368TIP3    H240050   3.973   4.520   5.568
13369TIP3   OH240051   3.616   4.843   4.022
13369TIP3    H140052   3.596   4.909   4.088
13369TIP3    H240053   3.632   4.763   4.072
13370TIP3   OH240054   3.749   3.503   2.701
13370TIP3    H140055   3.722   3.585   2.660
13370TIP3    H240056   3.787   3.529   2.785
13371TIP3   OH240057   4.138   3.984   6.756
13371TIP3    H140058   4.052   3.985   6.796
13371TIP3    H240059   4.121   3.962   6.664
13372TIP3   OH240060   1.266   3.900   2.668
13372TIP3    H140061   1.281   3.868   2.579
13372TIP3    H240062   1.236   3.990   2.656
13373TIP3   OH240063   2.941   7.083   2.435
13373TIP3    H140064   2.908   7.123   2.515
13373TIP3    H240065   2.901   6.996   2.433
13374TIP3   OH240066   7.400   7.315   4.847
13374TIP3    H140067   7.338   7.342   4.915
13374TIP3    H240068   7.463   7.387   4.843
13375TIP3   OH240069   0.217   7.583   5.820
13375TIP3    H140070   0.272   7.571   5.898
13375TIP3    H240071   0.180   7.496   5.804
13376TIP3   OH240072   6.228   3.481   0.510
13376TIP3    H140073   6.149   3.497   0.457
13376TIP3    H240074   6.300   3.500   0.451
13377TIP3   OH240075   1.211   2.167   3.470
13377TIP3    H140076   1.246   2.225   3.402
13377TIP3    H240077   1.207   2.081   3.428
13378TIP3   OH240078   2.755   3.785   6.279
13378TIP3    H140079   2.752   3.718   6.347
13378TIP3    H240080   2.833   3.763   6.227
13379TIP3   OH240081   0.303   5.574   3.852
13379TIP3    H140082   0.385   5.559   3.804
13379TIP3    H240083   0.331   5.609   3.936
13380TIP3   OH240084   4.510   5.457   1.619
13380TIP3    H140085   4.532   5.442   1.711
13380TIP3    H240086   4.429   5.409   1.605
13381TIP3   OH240087   5.128   4.253   1.166
13381TIP3    H140088   5.141   4.166   1.129
13381TIP3    H240089   5.214   4.294   1.164
13382TIP3   OH240090   2.982   6.977   1.055
13382TIP3    H140091   2.910   6.938   1.005
13382TIP3    H240092   2.947   7.061   1.085
13383TIP3   OH240093   0.989   0.883   6.007
13383TIP3    H140094   0.930   0.856   6.078
13383TIP3    H240095   1.077   0.871   6.044
13384TIP3   OH240096   6.839   3.980   5.923
13384TIP3    H140097   6.764   3.934   5.962
13384TIP3    H240098   6.916   3.940   5.965
13385TIP3   OH240099   8.284   1.958   1.165
13385TIP3    H140100   8.231   2.036   1.181
13385TIP3    H240101   8.359   1.968   1.223
13386TIP3   OH240102   5.176   7.659   1.566
13386TIP3    H140103   5.172   7.755   1.557
13386TIP3    H240104   5.103   7.638   1.625
13387TIP3   OH240105   4.629   0.439   6.154
13387TIP3    H140106   4.635   0.347   6.127
13387TIP3    H240107   4.682   0.486   6.091
13388TIP3   OH240108   6.981   7.183   6.447
13388TIP3    H140109   7.008   7.134   6.369
13388TIP3    H240110   6.927   7.121   6.496
13389TIP3   OH240111   1.763   3.037   2.939
13389TIP3    H140112   1.707   2.963   2.962
13389TIP3    H240113   1.796   3.016   2.851
13390TIP3   OH240114   3.221   4.608   3.702
13390TIP3    H140115   3.279   4.589   3.776
13390TIP3    H240116   3.262   4.684   3.659
13391TIP3   OH240117   3.973   1.443   2.242
13391TIP3    H140118   3.972   1.405   2.330
13391TIP3    H240119   3.999   1.534   2.256
13392TIP3   OH240120   3.061   7.606   3.987
13392TIP3    H140121   3.126   7.594   4.056
13392TIP3    H240122   3.089   7.685   3.941
13393TIP3   OH240123   7.854   6.411   4.822
13393TIP3    H140124   7.842   6.480   4.757
13393TIP3    H240125   7.775   6.414   4.875
13394TIP3   OH240126   0.114   5.177   0.293
13394TIP3    H140127   0.030   5.134   0.279
13394TIP3    H240128   0.179   5.117   0.256
13395TIP3   OH240129   1.739   2.413   2.578
13395TIP3    H140130   1.703   2.453   2.499
13395TIP3    H240131   1.826   2.450   2.587
13396TIP3   OH240132   5.180   5.016   2.198
13396TIP3    H140133   5.089   5.020   2.226
13396TIP3    H240134   5.189   4.930   2.157
13397TIP3   OH240135   7.315   1.855   2.328
13397TIP3    H140136   7.320   1.760   2.322
13397TIP3    H240137   7.404   1.884   2.347
13398TIP3   OH240138   1.234   6.532   1.258
13398TIP3    H140139   1.313   6.588   1.258
13398TIP3    H240140   1.221   6.510   1.350
13399TIP3   OH240141   5.934   1.208   3.911
13399TIP3    H140142   5.884   1.246   3.838
13399TIP3    H240143   5.948   1.117   3.886
13400TIP3   OH240144   5.850   3.774   5.265
13400TIP3    H140145   5.926   3.771   5.207
13400TIP3    H240146   5.799   3.849   5.233
13401TIP3   OH240147   0.658   2.524   2.763
13401TIP3    H140148   0.605   2.603   2.756
13401TIP3    H240149   0.716   2.540   2.836
13402TIP3   OH240150   7.205   6.096   2.774
13402TIP3    H140151   7.195   6.160   2.845
13402TIP3    H240152   7.297   6.070   2.777
13403TIP3   OH240153   5.018   6.311   1.671
13403TIP3    H140154   5.025   6.232   1.619
13403TIP3    H240155   5.065   6.377   1.620
13404TIP3   OH240156   5.559   5.810   2.951
13404TIP3    H140157   5.643   5.764   2.954
13404TIP3    H240158   5.582   5.901   2.930
13405TIP3   OH240159   7.014   5.312   1.189
13405TIP3    H140160   6.999   5.366   1.266
13405TIP3    H240161   7.061   5.235   1.222
13406TIP3   OH240162   5.836   5.687   3.083
13406TIP3    H140163   5.912   5.719   3.132
13406TIP3    H240164   5.833   5.743   3.005
13407TIP3   OH240165   8.091   4.316   2.989
13407TIP3    H140166   8.153   4.276   3.049
13407TIP3    H240167   8.090   4.257   2.913
13408TIP3   OH240168   1.412   3.989   5.949
13408TIP3    H140169   1.493   3.988   6.000
13408TIP3    H240170   1.414   3.907   5.899
13409TIP3   OH240171   2.331   6.527   1.405
13409TIP3    H140172   2.248   6.499   1.444
13409TIP3    H240173   2.305   6.576   1.326
13410TIP3   OH240174   5.645   7.692   5.426
13410TIP3    H140175   5.606   7.743   5.355
13410TIP3    H240176   5.579   7.692   5.495
13411TIP3   OH240177   4.309   4.158   0.252
13411TIP3    H140178   4.347   4.136   0.337
13411TIP3    H240179   4.345   4.244   0.231
13412TIP3   OH240180   4.329   6.294   1.737
13412TIP3    H140181   4.293   6.207   1.754
13412TIP3    H240182   4.407   6.299   1.793
13413TIP3   OH240183   2.611   2.250   1.680
13413TIP3    H140184   2.554   2.326   1.689
13413TIP3    H240185   2.699   2.283   1.696
13414TIP3   OH240186   6.056   0.350   4.512
13414TIP3    H140187   6.084   0.438   4.487
13414TIP3    H240188   6.123   0.292   4.477
13415TIP3   OH240189   1.305   6.396   0.905
13415TIP3    H140190   1.384   6.369   0.858
13415TIP3    H240191   1.306   6.344   0.986
13416TIP3   OH240192   5.726   7.732   1.777
13416TIP3    H140193   5.711   7.801   1.712
13416TIP3    H240194   5.646   7.732   1.830
13417TIP3   OH240195   5.809   6.410   1.873
13417TIP3    H140196   5.863   6.489   1.880
13417TIP3    H240197   5.832   6.358   1.951
13418TIP3   OH240198   1.682   0.717   4.101
13418TIP3    H140199   1.667   0.688   4.011
13418TIP3    H240200   1.721   0.642   4.145
13419TIP3   OH240201   6.601   6.991   6.148
13419TIP3    H140202   6.670   6.958   6.090
13419TIP3    H240203   6.533   7.023   6.089
13420TIP3   OH240204   2.853   5.387   1.510
13420TIP3    H140205   2.781   5.425   1.561
13420TIP3    H240206   2.913   5.352   1.576
13421TIP3   OH240207   2.569   5.761   2.092
13421TIP3    H140208   2.511   5.777   2.166
13421TIP3    H240209   2.649   5.810   2.112
13422TIP3   OH240210   3.580   2.611   1.362
13422TIP3    H140211   3.533   2.692   1.340
13422TIP3    H240212   3.593   2.567   1.278
13423TIP3   OH240213   6.635   3.616   6.761
13423TIP3    H140214   6.649   3.617   6.667
13423TIP3    H240215   6.564   3.679   6.776
13424TIP3   OH240216   5.896   3.786   4.936
13424TIP3    H140217   5.810   3.763   4.901
13424TIP3    H240218   5.952   3.713   4.910
13425TIP3   OH240219   1.971   7.119   1.780
13425TIP3    H140220   2.046   7.178   1.769
13425TIP3    H240221   1.979   7.088   1.870
13426TIP3   OH240222   7.588   6.593   0.966
13426TIP3    H140223   7.651   6.523   0.981
13426TIP3    H240224   7.604   6.657   1.035
13427TIP3   OH240225   0.605   3.891   3.538
13427TIP3    H140226   0.594   3.920   3.447
13427TIP3    H240227   0.614   3.973   3.587
13428TIP3   OH240228   6.960   0.638   6.409
13428TIP3    H140229   6.909   0.641   6.490
13428TIP3    H240230   7.043   0.597   6.434
13429TIP3   OH240231   2.884   5.446   2.825
13429TIP3    H140232   2.880   5.541   2.813
13429TIP3    H240233   2.878   5.410   2.736
13430TIP3   OH240234   0.041   3.182   2.422
13430TIP3    H140235   0.048   3.179   2.517
13430TIP3    H240236   0.017   3.092   2.397
13431TIP3   OH240237   0.755   5.636   6.537
13431TIP3    H140238   0.672   5.589   6.542
13431TIP3    H240239   0.745   5.709   6.598
13432TIP3   OH240240   3.788   5.353   5.862
13432TIP3    H140241   3.845   5.281   5.835
13432TIP3    H240242   3.846   5.413   5.908
13433TIP3   OH240243   2.612   0.934   2.441
13433TIP3    H140244   2.652   1.001   2.385
13433TIP3    H240245   2.519   0.958   2.445
13434TIP3   OH240246   4.103   0.005   6.595
13434TIP3    H140247   4.147   0.086   6.622
13434TIP3    H240248   4.025   0.034   6.548
13435TIP3   OH240249   4.253   2.262   5.221
13435TIP3    H140250   4.243   2.192   5.156
13435TIP3    H240251   4.297   2.332   5.174
13436TIP3   OH240252   6.196   3.856   1.126
13436TIP3    H140253   6.164   3.844   1.036
13436TIP3    H240254   6.222   3.768   1.153
13437TIP3   OH240255   1.317   1.405   4.527
13437TIP3    H140256   1.373   1.338   4.489
13437TIP3    H240257   1.228   1.370   4.519
13438TIP3   OH240258   3.474   0.439   3.068
13438TIP3    H140259   3.552   0.495   3.071
13438TIP3    H240260   3.406   0.494   3.030
13439TIP3   OH240261   3.386   0.537   4.209
13439TIP3    H140262   3.456   0.484   4.171
13439TIP3    H240263   3.373   0.608   4.147
13440TIP3   OH240264   7.278   5.379   3.787
13440TIP3    H140265   7.337   5.454   3.780
13440TIP3    H240266   7.266   5.367   3.881
13441TIP3   OH240267   4.730   0.960   4.036
13441TIP3    H140268   4.742   0.914   3.953
13441TIP3    H240269   4.732   1.053   4.013
13442TIP3   OH240270   7.803   7.115   2.593
13442TIP3    H140271   7.751   7.178   2.542
13442TIP3    H240272   7.813   7.040   2.535
13443TIP3   OH240273   0.226   6.426   5.143
13443TIP3    H140274   0.316   6.395   5.134
13443TIP3    H240275   0.182   6.393   5.064
13444TIP3   OH240276   1.000   4.337   4.387
13444TIP3    H140277   0.941   4.341   4.463
13444TIP3    H240278   0.961   4.271   4.330
13445TIP3   OH240279   5.975   0.274   6.646
13445TIP3    H140280   5.987   0.316   6.731
13445TIP3    H240281   5.937   0.342   6.590
13446TIP3   OH240282   5.079   2.476   0.092
13446TIP3    H140283   5.139   2.414   0.134
13446TIP3    H240284   5.027   2.512   0.164
13447TIP3   OH240285   2.872   2.000   1.613
13447TIP3    H140286   2.919   1.996   1.697
13447TIP3    H240287   2.784   1.966   1.633
13448TIP3   OH240288   7.315   5.459   6.346
13448TIP3    H140289   7.299   5.385   6.287
13448TIP3    H240290   7.249   5.450   6.414
13449TIP3   OH240291   0.515   6.902   5.781
13449TIP3    H140292   0.489   6.872   5.868
13449TIP3    H240293   0.504   6.826   5.725
13450TIP3   OH240294   6.220   0.121   0.480
13450TIP3    H140295   6.140   0.069   0.480
13450TIP3    H240296   6.198   0.199   0.428
13451TIP3   OH240297   1.429   1.237   2.266
13451TIP3    H140298   1.438   1.174   2.338
13451TIP3    H240299   1.424   1.183   2.187
13452TIP3   OH240300   7.325   6.519   1.297
13452TIP3    H140301   7.354   6.434   1.264
13452TIP3    H240302   7.229   6.512   1.299
13453TIP3   OH240303   7.181   6.265   1.091
13453TIP3    H140304   7.215   6.206   1.157
13453TIP3    H240305   7.086   6.265   1.105
13454TIP3   OH240306   7.879   7.406   5.103
13454TIP3    H140307   7.893   7.487   5.152
13454TIP3    H240308   7.810   7.360   5.150
13455TIP3   OH240309   1.447   5.208   1.560
13455TIP3    H140310   1.520   5.212   1.622
13455TIP3    H240311   1.375   5.170   1.611
13456TIP3   OH240312   7.386   6.661   6.726
13456TIP3    H140313   7.478   6.639   6.736
13456TIP3    H240314   7.341   6.577   6.724
13457TIP3   OH240315   1.906   4.407   5.429
13457TIP3    H140316   1.854   4.328   5.412
13457TIP3    H240317   1.842   4.478   5.428
13458TIP3   OH240318   2.021   0.862   3.638
13458TIP3    H140319   2.044   0.775   3.673
13458TIP3    H240320   1.983   0.844   3.552
13459TIP3   OH240321   8.100   4.431   2.088
13459TIP3    H140322   8.125   4.494   2.155
13459TIP3    H240323   8.073   4.353   2.137
13460TIP3   OH240324   1.525   1.621   3.514
13460TIP3    H140325   1.436   1.595   3.538
13460TIP3    H240326   1.552   1.558   3.448
13461TIP3   OH240327   6.694   3.147   5.402
13461TIP3    H140328   6.730   3.059   5.391
13461TIP3    H240329   6.738   3.199   5.335
13462TIP3   OH240330   2.550   2.189   6.265
13462TIP3    H140331   2.476   2.242   6.237
13462TIP3    H240332   2.592   2.161   6.184
13463TIP3   OH240333   4.876   0.039   4.296
13463TIP3    H140334   4.830   0.097   4.236
13463TIP3    H240335   4.968   0.062   4.285
13464TIP3   OH240336   7.471   7.597   5.296
13464TIP3    H140337   7.525   7.611   5.374
13464TIP3    H240338   7.517   7.528   5.248
13465TIP3   OH240339   1.077   3.741   2.222
13465TIP3    H140340   1.090   3.829   2.257
13465TIP3    H240341   1.143   3.733   2.154
13466TIP3   OH240342   4.201   1.735   2.630
13466TIP3    H140343   4.285   1.752   2.587
13466TIP3    H240344   4.202   1.792   2.707
13467TIP3   OH240345   2.805   2.919   3.857
13467TIP3    H140346   2.865   2.983   3.894
13467TIP3    H240347   2.849   2.835   3.870
13468TIP3   OH240348   5.877   4.398   0.482
13468TIP3    H140349   5.861   4.385   0.576
13468TIP3    H240350   5.876   4.493   0.471
13469TIP3   OH240351   7.714   2.331   3.117
13469TIP3    H140352   7.730   2.251   3.068
13469TIP3    H240353   7.633   2.366   3.080
13470TIP3   OH240354   6.663   1.133   5.580
13470TIP3    H140355   6.671   1.190   5.503
13470TIP3    H240356   6.728   1.064   5.566
13471TIP3   OH240357   3.965   6.992   6.649
13471TIP3    H140358   3.950   6.945   6.567
13471TIP3    H240359   3.893   6.966   6.706
13472TIP3   OH240360   4.382   2.886   0.361
13472TIP3    H140361   4.432   2.967   0.354
13472TIP3    H240362   4.449   2.817   0.362
13473TIP3   OH240363   6.217   6.023   2.618
13473TIP3    H140364   6.269   5.995   2.693
13473TIP3    H240365   6.127   6.026   2.651
13474TIP3   OH240366   0.488   7.359   4.310
13474TIP3    H140367   0.534   7.435   4.272
13474TIP3    H240368   0.546   7.285   4.293
13475TIP3   OH240369   6.899   7.336   0.603
13475TIP3    H140370   6.831   7.393   0.638
13475TIP3    H240371   6.856   7.291   0.529
13476TIP3   OH240372   0.358   2.273   5.126
13476TIP3    H140373   0.332   2.189   5.089
13476TIP3    H240374   0.445   2.289   5.091
13477TIP3   OH240375   2.819   6.145   4.148
13477TIP3    H140376   2.735   6.143   4.101
13477TIP3    H240377   2.881   6.103   4.088
13478TIP3   OH240378   0.192   6.879   3.960
13478TIP3    H140379   0.166   6.804   4.014
13478TIP3    H240380   0.179   6.955   4.017
13479TIP3   OH240381   6.181   5.077   4.993
13479TIP3    H140382   6.176   5.172   4.986
13479TIP3    H240383   6.268   5.054   4.961
13480TIP3   OH240384   0.349   5.605   5.169
13480TIP3    H140385   0.256   5.582   5.164
13480TIP3    H240386   0.351   5.684   5.222
13481TIP3   OH240387   5.663   1.050   5.088
13481TIP3    H140388   5.587   1.084   5.133
13481TIP3    H240389   5.737   1.096   5.127
13482TIP3   OH240390   2.148   5.694   6.024
13482TIP3    H140391   2.056   5.692   6.050
13482TIP3    H240392   2.163   5.607   5.986
13483TIP3   OH240393   5.336   0.645   3.207
13483TIP3    H140394   5.384   0.726   3.193
13483TIP3    H240395   5.374   0.583   3.145
13484TIP3   OH240396   5.719   2.403   4.608
13484TIP3    H140397   5.776   2.460   4.556
13484TIP3    H240398   5.639   2.396   4.556
13485TIP3   OH240399   4.691   7.756   0.571
13485TIP3    H140400   4.769   7.810   0.578
13485TIP3    H240401   4.671   7.730   0.661
13486TIP3   OH240402   8.159   0.052   1.518
13486TIP3    H140403   8.090   0.030   1.455
13486TIP3    H240404   8.198  -0.033   1.540
13487TIP3   OH240405   4.028   3.024   2.087
13487TIP3    H140406   4.050   3.018   2.180
13487TIP3    H240407   4.110   3.050   2.045
13488TIP3   OH240408   8.107   6.883   1.095
13488TIP3    H140409   8.197   6.904   1.071
13488TIP3    H240410   8.114   6.833   1.176
13489TIP3   OH240411   4.662   0.180   6.097
13489TIP3    H140412   4.725   0.126   6.144
13489TIP3    H240413   4.701   0.193   6.011
13490TIP3   OH240414   2.772   0.413   4.769
13490TIP3    H140415   2.834   0.414   4.696
13490TIP3    H240416   2.778   0.500   4.808
13491TIP3   OH240417   2.960   4.507   6.197
13491TIP3    H140418   2.877   4.472   6.229
13491TIP3    H240419   2.979   4.454   6.119
13492TIP3   OH240420   3.689   1.173   5.549
13492TIP3    H140421   3.755   1.240   5.535
13492TIP3    H240422   3.695   1.152   5.642
13493TIP3   OH240423   4.646   6.689   2.510
13493TIP3    H140424   4.603   6.619   2.462
13493TIP3    H240425   4.612   6.769   2.470
13494TIP3   OH240426   1.636   0.677   0.031
13494TIP3    H140427   1.550   0.647   0.002
13494TIP3    H240428   1.620   0.763   0.069
13495TIP3   OH240429   4.576   3.194   2.587
13495TIP3    H140430   4.666   3.165   2.577
13495TIP3    H240431   4.563   3.201   2.682
13496TIP3   OH240432   3.823   7.556   0.519
13496TIP3    H140433   3.766   7.579   0.446
13496TIP3    H240434   3.867   7.638   0.542
13497TIP3   OH240435   1.684   4.104   4.912
13497TIP3    H140436   1.674   4.199   4.912
13497TIP3    H240437   1.767   4.089   4.957
13498TIP3   OH240438   5.036   1.045   4.852
13498TIP3    H140439   5.116   1.063   4.900
13498TIP3    H240440   4.966   1.055   4.916
13499TIP3   OH240441   0.231   0.445   6.668
13499TIP3    H140442   0.148   0.402   6.648
13499TIP3    H240443   0.239   0.516   6.604
13500TIP3   OH240444   7.674   2.661   4.869
13500TIP3    H140445   7.763   2.677   4.899
13500TIP3    H240446   7.669   2.705   4.784
13501TIP3   OH240447   5.445   4.317   4.945
13501TIP3    H140448   5.451   4.381   5.016
13501TIP3    H240449   5.535   4.289   4.929
13502TIP3   OH240450   4.283   5.280   1.592
13502TIP3    H140451   4.260   5.231   1.671
13502TIP3    H240452   4.322   5.215   1.534
13503TIP3   OH240453   5.082   3.631   0.640
13503TIP3    H140454   5.044   3.624   0.727
13503TIP3    H240455   5.018   3.589   0.582
13504TIP3   OH240456   2.834   0.467   3.528
13504TIP3    H140457   2.832   0.398   3.594
13504TIP3    H240458   2.873   0.426   3.451
13505TIP3   OH240459   3.450   4.357   2.836
13505TIP3    H140460   3.415   4.434   2.792
13505TIP3    H240461   3.373   4.313   2.872
13506TIP3   OH240462   5.238   0.122   2.315
13506TIP3    H140463   5.235   0.033   2.279
13506TIP3    H240464   5.157   0.130   2.364
13507TIP3   OH240465   6.121   2.192   3.738
13507TIP3    H140466   6.090   2.130   3.672
13507TIP3    H240467   6.126   2.140   3.819
13508TIP3   OH240468   1.620   0.365   3.680
13508TIP3    H140469   1.688   0.333   3.739
13508TIP3    H240470   1.623   0.305   3.605
13509TIP3   OH240471   6.535   1.585   4.077
13509TIP3    H140472   6.494   1.520   4.135
13509TIP3    H240473   6.518   1.552   3.989
13510TIP3   OH240474   4.831   1.999   1.450
13510TIP3    H140475   4.781   1.933   1.400
13510TIP3    H240476   4.863   1.951   1.527
13511TIP3   OH240477   5.857   0.330   3.071
13511TIP3    H140478   5.886   0.241   3.049
13511TIP3    H240479   5.830   0.367   2.988
13512TIP3   OH240480   1.781   4.279   2.792
13512TIP3    H140481   1.750   4.239   2.873
13512TIP3    H240482   1.865   4.235   2.774
13513TIP3   OH240483   2.265   6.275   0.184
13513TIP3    H140484   2.290   6.317   0.101
13513TIP3    H240485   2.172   6.253   0.172
13514TIP3   OH240486   3.664   0.505   4.631
13514TIP3    H140487   3.682   0.578   4.572
13514TIP3    H240488   3.578   0.525   4.668
13515TIP3   OH240489   7.075   2.245   3.160
13515TIP3    H140490   7.112   2.309   3.100
13515TIP3    H240491   7.030   2.182   3.103
13516TIP3   OH240492   4.641   0.799   3.450
13516TIP3    H140493   4.653   0.893   3.437
13516TIP3    H240494   4.720   0.759   3.414
13517TIP3   OH240495   7.260   6.525   3.042
13517TIP3    H140496   7.284   6.608   3.002
13517TIP3    H240497   7.216   6.476   2.972
13518TIP3   OH240498   8.224   1.402   5.965
13518TIP3    H140499   8.214   1.427   5.873
13518TIP3    H240500   8.183   1.316   5.972
13519TIP3   OH240501   1.707   1.279   0.207
13519TIP3    H140502   1.799   1.258   0.224
13519TIP3    H240503   1.705   1.305   0.115
13520TIP3   OH240504   6.824   5.680   1.225
13520TIP3    H140505   6.730   5.668   1.236
13520TIP3    H240506   6.832   5.756   1.167
13521TIP3   OH240507   7.878   4.776   3.714
13521TIP3    H140508   7.969   4.749   3.700
13521TIP3    H240509   7.833   4.748   3.635
13522TIP3   OH240510   1.822   5.346   4.274
13522TIP3    H140511   1.878   5.283   4.320
13522TIP3    H240512   1.733   5.312   4.284
13523TIP3   OH240513   8.011   3.987   2.347
13523TIP3    H140514   7.978   4.050   2.411
13523TIP3    H240515   8.059   4.041   2.284
13524TIP3   OH240516   8.208   5.346   1.515
13524TIP3    H140517   8.177   5.431   1.483
13524TIP3    H240518   8.298   5.363   1.543
13525TIP3   OH240519   6.807   7.235   3.387
13525TIP3    H140520   6.737   7.275   3.440
13525TIP3    H240521   6.761   7.186   3.320
13526TIP3   OH240522   0.254   4.125   5.792
13526TIP3    H140523   0.310   4.143   5.868
13526TIP3    H240524   0.293   4.176   5.721
13527TIP3   OH240525   0.673   3.669   4.522
13527TIP3    H140526   0.623   3.603   4.474
13527TIP3    H240527   0.752   3.623   4.550
13528TIP3   OH240528   0.249   2.157   3.778
13528TIP3    H140529   0.208   2.191   3.698
13528TIP3    H240530   0.318   2.098   3.747
13529TIP3   OH240531   4.449   1.832   3.753
13529TIP3    H140532   4.471   1.872   3.669
13529TIP3    H240533   4.441   1.905   3.814
13530TIP3   OH240534   0.071   7.342   5.856
13530TIP3    H140535   0.012   7.346   5.931
13530TIP3    H240536   0.136   7.276   5.880
13531TIP3   OH240537   2.482   0.068   3.836
13531TIP3    H140538   2.468   0.148   3.785
13531TIP3    H240539   2.546   0.093   3.903
13532TIP3   OH240540   0.824   3.292   1.341
13532TIP3    H140541   0.905   3.300   1.390
13532TIP3    H240542   0.790   3.381   1.336
13533TIP3   OH240543   7.376   5.895   5.436
13533TIP3    H140544   7.296   5.929   5.396
13533TIP3    H240545   7.381   5.804   5.406
13534TIP3   OH240546   5.053   5.018   5.716
13534TIP3    H140547   5.023   4.949   5.658
13534TIP3    H240548   5.023   5.099   5.676
13535TIP3   OH240549   7.407   7.756   6.293
13535TIP3    H140550   7.352   7.688   6.332
13535TIP3    H240551   7.412   7.733   6.200
13536TIP3   OH240552   3.226   1.703   6.151
13536TIP3    H140553   3.287   1.629   6.142
13536TIP3    H240554   3.202   1.704   6.243
13537TIP3   OH240555   4.978   1.984   5.192
13537TIP3    H140556   4.963   1.941   5.277
13537TIP3    H240557   5.063   2.027   5.202
13538TIP3   OH240558   4.975   3.147   3.285
13538TIP3    H140559   4.921   3.219   3.318
13538TIP3    H240560   5.061   3.164   3.323
13539TIP3   OH240561   5.928   5.439   3.802
13539TIP3    H140562   5.892   5.392   3.727
13539TIP3    H240563   6.016   5.402   3.814
13540TIP3   OH240564   5.175   0.782   6.079
13540TIP3    H140565   5.166   0.727   6.002
13540TIP3    H240566   5.142   0.729   6.151
13541TIP3   OH240567   7.494   3.494   3.217
13541TIP3    H140568   7.555   3.555   3.258
13541TIP3    H240569   7.525   3.407   3.245
13542TIP3   OH240570   5.574   2.009   2.878
13542TIP3    H140571   5.577   2.042   2.788
13542TIP3    H240572   5.481   2.014   2.903
13543TIP3   OH240573   7.312   6.816   6.500
13543TIP3    H140574   7.356   6.785   6.421
13543TIP3    H240575   7.312   6.742   6.559
13544TIP3   OH240576   8.116   4.755   4.917
13544TIP3    H140577   8.173   4.774   4.992
13544TIP3    H240578   8.176   4.722   4.850
13545TIP3   OH240579   0.495   1.602   6.214
13545TIP3    H140580   0.490   1.660   6.138
13545TIP3    H240581   0.553   1.531   6.186
13546TIP3   OH240582   0.059   2.415   3.880
13546TIP3    H140583   0.016   2.398   3.796
13546TIP3    H240584   0.114   2.492   3.865
13547TIP3   OH240585   7.251   2.735   6.476
13547TIP3    H140586   7.310   2.673   6.432
13547TIP3    H240587   7.295   2.756   6.558
13548TIP3   OH240588   7.435   2.178   3.220
13548TIP3    H140589   7.438   2.271   3.196
13548TIP3    H240590   7.450   2.177   3.314
13549TIP3   OH240591   5.972   3.316   6.742
13549TIP3    H140592   5.998   3.281   6.828
13549TIP3    H240593   5.911   3.251   6.708
13550TIP3   OH240594   4.420   5.515   5.010
13550TIP3    H140595   4.430   5.423   4.984
13550TIP3    H240596   4.382   5.512   5.098
13551TIP3   OH240597   0.074   1.653   5.314
13551TIP3    H140598   0.100   1.618   5.229
13551TIP3    H240599   0.035   1.578   5.360
13552TIP3   OH240600   5.119   4.272   5.539
13552TIP3    H140601   5.167   4.324   5.475
13552TIP3    H240602   5.042   4.240   5.491
13553TIP3   OH240603   7.913   6.586   5.266
13553TIP3    H140604   7.834   6.595   5.213
13553TIP3    H240605   7.974   6.650   5.229
13554TIP3   OH240606   0.919   1.914   5.176
13554TIP3    H140607   0.992   1.952   5.225
13554TIP3    H240608   0.840   1.948   5.219
13555TIP3   OH240609   4.505   4.200   2.289
13555TIP3    H140610   4.462   4.228   2.207
13555TIP3    H240611   4.444   4.227   2.357
13556TIP3   OH240612   2.076   2.485   3.637
13556TIP3    H140613   2.100   2.451   3.723
13556TIP3    H240614   2.137   2.557   3.621
13557TIP3   OH240615   5.151   4.755   0.622
13557TIP3    H140616   5.175   4.800   0.541
13557TIP3    H240617   5.074   4.703   0.600
13558TIP3   OH240618   4.108   4.804   5.788
13558TIP3    H140619   4.200   4.805   5.763
13558TIP3    H240620   4.061   4.828   5.708
13559TIP3   OH240621   6.778   3.030   5.900
13559TIP3    H140622   6.774   3.005   5.808
13559TIP3    H240623   6.735   2.958   5.946
13560TIP3   OH240624   0.251   6.032   1.626
13560TIP3    H140625   0.176   6.037   1.686
13560TIP3    H240626   0.222   6.078   1.547
13561TIP3   OH240627   7.417   7.531   3.687
13561TIP3    H140628   7.394   7.438   3.681
13561TIP3    H240629   7.391   7.557   3.776
13562TIP3   OH240630   3.965   3.520   5.773
13562TIP3    H140631   3.953   3.440   5.721
13562TIP3    H240632   3.992   3.586   5.709
13563TIP3   OH240633   7.976   1.612   4.978
13563TIP3    H140634   7.989   1.618   5.072
13563TIP3    H240635   7.977   1.703   4.948
13564TIP3   OH240636   3.088   1.035   2.713
13564TIP3    H140637   3.039   0.975   2.769
13564TIP3    H240638   3.030   1.051   2.638
13565TIP3   OH240639   2.639   3.751   2.626
13565TIP3    H140640   2.547   3.740   2.651
13565TIP3    H240641   2.688   3.710   2.697
13566TIP3   OH240642   6.627   4.648   0.736
13566TIP3    H140643   6.674   4.568   0.758
13566TIP3    H240644   6.695   4.716   0.731
13567TIP3   OH240645   1.876   2.017   1.595
13567TIP3    H140646   1.965   2.002   1.626
13567TIP3    H240647   1.887   2.047   1.504
13568TIP3   OH240648   2.789   7.279   0.449
13568TIP3    H140649   2.811   7.372   0.442
13568TIP3    H240650   2.693   7.277   0.451
13569TIP3   OH240651   4.986   5.146   0.585
13569TIP3    H140652   5.031   5.185   0.660
13569TIP3    H240653   4.895   5.173   0.595
13570TIP3   OH240654   3.617   5.203   5.409
13570TIP3    H140655   3.704   5.178   5.377
13570TIP3    H240656   3.614   5.298   5.399
13571TIP3   OH240657   0.816   2.874   3.543
13571TIP3    H140658   0.894   2.821   3.563
13571TIP3    H240659   0.743   2.813   3.550
13572TIP3   OH240660   3.908   4.337   5.584
13572TIP3    H140661   3.877   4.246   5.575
13572TIP3    H240662   3.859   4.372   5.659
13573TIP3   OH240663   3.907   2.613   3.537
13573TIP3    H140664   3.906   2.604   3.441
13573TIP3    H240665   3.961   2.691   3.553
13574TIP3   OH240666   3.101   3.994   6.618
13574TIP3    H140667   3.177   3.936   6.618
13574TIP3    H240668   3.139   4.082   6.614
13575TIP3   OH240669   0.188   5.098   6.660
13575TIP3    H140670   0.257   5.032   6.654
13575TIP3    H240671   0.189   5.141   6.574
13576TIP3   OH240672   4.294   6.909   5.784
13576TIP3    H140673   4.226   6.843   5.796
13576TIP3    H240674   4.376   6.861   5.786
13577TIP3   OH240675   3.862   4.880   1.062
13577TIP3    H140676   3.843   4.814   1.128
13577TIP3    H240677   3.780   4.889   1.012
13578TIP3   OH240678   4.538   0.313   4.887
13578TIP3    H140679   4.534   0.242   4.823
13578TIP3    H240680   4.497   0.277   4.966
13579TIP3   OH240681   2.097   0.519   1.689
13579TIP3    H140682   2.084   0.513   1.594
13579TIP3    H240683   2.023   0.572   1.719
13580TIP3   OH240684   2.853   2.085   2.880
13580TIP3    H140685   2.880   2.158   2.936
13580TIP3    H240686   2.760   2.100   2.864
13581TIP3   OH240687   4.611   0.702   4.716
13581TIP3    H140688   4.664   0.666   4.787
13581TIP3    H240689   4.660   0.682   4.637
13582TIP3   OH240690   3.404   2.428   6.475
13582TIP3    H140691   3.423   2.335   6.489
13582TIP3    H240692   3.440   2.448   6.389
13583TIP3   OH240693   0.702   7.269   0.565
13583TIP3    H140694   0.737   7.303   0.483
13583TIP3    H240695   0.780   7.256   0.620
13584TIP3   OH240696   6.991   4.619   0.727
13584TIP3    H140697   6.985   4.535   0.680
13584TIP3    H240698   7.015   4.683   0.660
13585TIP3   OH240699   6.706   6.025   4.774
13585TIP3    H140700   6.699   6.063   4.686
13585TIP3    H240701   6.753   5.942   4.760
13586TIP3   OH240702   0.852   7.772   1.506
13586TIP3    H140703   0.927   7.759   1.564
13586TIP3    H240704   0.820   7.859   1.529
13587TIP3   OH240705   7.062   1.663   6.543
13587TIP3    H140706   7.084   1.611   6.465
13587TIP3    H240707   7.078   1.753   6.516
13588TIP3   OH240708   2.774   2.600   3.373
13588TIP3    H140709   2.686   2.577   3.401
13588TIP3    H240710   2.801   2.528   3.317
13589TIP3   OH240711   1.019  -0.019   3.056
13589TIP3    H140712   1.078  -0.036   3.130
13589TIP3    H240713   0.944   0.026   3.095
13590TIP3   OH240714   7.085   0.915   4.332
13590TIP3    H140715   7.077   0.953   4.420
13590TIP3    H240716   7.099   0.822   4.347
13591TIP3   OH240717   8.237   5.294   6.487
13591TIP3    H140718   8.166   5.297   6.552
13591TIP3    H240719   8.252   5.200   6.473
13592TIP3   OH240720   7.977   1.954   3.961
13592TIP3    H140721   7.912   2.016   3.930
13592TIP3    H240722   7.926   1.884   4.003
13593TIP3   OH240723   8.300   1.797   0.926
13593TIP3    H140724   8.215   1.781   0.885
13593TIP3    H240725   8.279   1.851   1.003
13594TIP3   OH240726   8.109   2.263   0.058
13594TIP3    H140727   8.154   2.283  -0.025
13594TIP3    H240728   8.131   2.336   0.115
13595TIP3   OH240729   3.135   2.740   3.193
13595TIP3    H140730   3.091   2.779   3.268
13595TIP3    H240731   3.220   2.785   3.189
13596TIP3   OH240732   0.034   5.311   0.896
13596TIP3    H140733  -0.033   5.280   0.956
13596TIP3    H240734  -0.014   5.355   0.827
13597TIP3   OH240735   1.063   6.142   5.889
13597TIP3    H140736   1.044   6.214   5.949
13597TIP3    H240737   1.156   6.152   5.868
13598TIP3   OH240738   2.389   4.141   3.906
13598TIP3    H140739   2.317   4.202   3.922
13598TIP3    H240740   2.381   4.076   3.975
13599TIP3   OH240741   1.564   0.656   1.226
13599TIP3    H140742   1.601   0.726   1.278
13599TIP3    H240743   1.470   0.674   1.223
13600TIP3   OH240744   5.929   2.168   5.037
13600TIP3    H140745   5.833   2.164   5.038
13600TIP3    H240746   5.955   2.094   4.981
13601TIP3   OH240747   2.593   3.308   4.970
13601TIP3    H140748   2.532   3.380   4.956
13601TIP3    H240749   2.590   3.257   4.890
13602TIP3   OH240750   2.927   6.362   2.542
13602TIP3    H140751   3.007   6.402   2.574
13602TIP3    H240752   2.932   6.369   2.447
13603TIP3   OH240753   3.140   2.491   6.510
13603TIP3    H140754   3.226   2.454   6.492
13603TIP3    H240755   3.086   2.416   6.537
13604TIP3   OH240756   6.454   7.297   2.082
13604TIP3    H140757   6.459   7.247   2.000
13604TIP3    H240758   6.373   7.349   2.073
13605TIP3   OH240759   4.983   2.283   2.002
13605TIP3    H140760   5.032   2.301   1.922
13605TIP3    H240761   5.041   2.310   2.073
13606TIP3   OH240762   4.245   6.560   1.663
13606TIP3    H140763   4.279   6.641   1.624
13606TIP3    H240764   4.323   6.507   1.680
13607TIP3   OH240765   6.558   1.936   5.456
13607TIP3    H140766   6.628   1.993   5.488
13607TIP3    H240767   6.534   1.883   5.532
13608TIP3   OH240768   1.272   0.853   0.320
13608TIP3    H140769   1.205   0.882   0.382
13608TIP3    H240770   1.299   0.933   0.276
13609TIP3   OH240771   6.661   6.664   1.565
13609TIP3    H140772   6.614   6.743   1.542
13609TIP3    H240773   6.687   6.626   1.481
13610TIP3   OH240774   3.854   7.248   2.243
13610TIP3    H140775   3.860   7.177   2.179
13610TIP3    H240776   3.765   7.282   2.233
13611TIP3   OH240777   4.108   5.579   0.986
13611TIP3    H140778   4.045   5.633   1.034
13611TIP3    H240779   4.160   5.536   1.054
13612TIP3   OH240780   4.614   7.601   4.558
13612TIP3    H140781   4.687   7.634   4.611
13612TIP3    H240782   4.623   7.506   4.562
13613TIP3   OH240783   5.124   7.008   1.825
13613TIP3    H140784   5.219   7.018   1.839
13613TIP3    H240785   5.094   6.959   1.902
13614TIP3   OH240786   0.764   6.418   4.479
13614TIP3    H140787   0.834   6.414   4.544
13614TIP3    H240788   0.752   6.327   4.451
13615TIP3   OH240789   0.063   0.905   0.094
13615TIP3    H140790   0.011   0.963   0.148
13615TIP3    H240791   0.135   0.959   0.061
13616TIP3   OH240792   5.643   4.875   4.037
13616TIP3    H140793   5.622   4.894   3.946
13616TIP3    H240794   5.659   4.781   4.040
13617TIP3   OH240795   3.573   3.372   3.669
13617TIP3    H140796   3.488   3.397   3.633
13617TIP3    H240797   3.583   3.426   3.747
13618TIP3   OH240798   5.313   1.153   4.788
13618TIP3    H140799   5.356   1.071   4.813
13618TIP3    H240800   5.280   1.189   4.870
13619TIP3   OH240801   2.771   7.575   0.220
13619TIP3    H140802   2.807   7.603   0.136
13619TIP3    H240803   2.771   7.479   0.214
13620TIP3   OH240804   3.939   6.143   5.159
13620TIP3    H140805   3.890   6.069   5.123
13620TIP3    H240806   3.919   6.142   5.252
13621TIP3   OH240807   2.474   2.835   5.817
13621TIP3    H140808   2.560   2.849   5.857
13621TIP3    H240809   2.459   2.741   5.826
13622TIP3   OH240810   3.884   0.662   6.798
13622TIP3    H140811   3.831   0.621   6.729
13622TIP3    H240812   3.894   0.753   6.770
13623TIP3   OH240813   7.702   1.253   5.013
13623TIP3    H140814   7.700   1.277   4.920
13623TIP3    H240815   7.795   1.238   5.031
13624TIP3   OH240816   1.049   0.365   2.931
13624TIP3    H140817   1.144   0.374   2.917
13624TIP3    H240818   1.009   0.408   2.855
13625TIP3   OH240819   4.263   2.266   2.688
13625TIP3    H140820   4.302   2.317   2.616
13625TIP3    H240821   4.200   2.325   2.728
13626TIP3   OH240822   0.989   2.326   3.552
13626TIP3    H140823   1.057   2.394   3.549
13626TIP3    H240824   1.039   2.244   3.551
13627TIP3   OH240825   5.604   2.209   3.597
13627TIP3    H140826   5.685   2.163   3.572
13627TIP3    H240827   5.629   2.301   3.600
13628TIP3   OH240828   5.781   5.287   0.798
13628TIP3    H140829   5.820   5.374   0.794
13628TIP3    H240830   5.736   5.284   0.882
13629TIP3   OH240831   1.176   4.031   6.632
13629TIP3    H140832   1.102   4.017   6.574
13629TIP3    H240833   1.195   3.945   6.669
13630TIP3   OH240834   5.824   3.724   0.146
13630TIP3    H140835   5.832   3.788   0.074
13630TIP3    H240836   5.849   3.641   0.107
13631TIP3   OH240837   7.618   5.858   3.949
13631TIP3    H140838   7.601   5.900   3.865
13631TIP3    H240839   7.669   5.780   3.927
13632TIP3   OH240840   2.591   3.943   3.781
13632TIP3    H140841   2.623   4.007   3.719
13632TIP3    H240842   2.505   3.975   3.807
13633TIP3   OH240843   2.559   7.256   3.904
13633TIP3    H140844   2.620   7.244   3.977
13633TIP3    H240845   2.472   7.257   3.946
13634TIP3   OH240846   7.228   6.153   2.506
13634TIP3    H140847   7.290   6.086   2.478
13634TIP3    H240848   7.219   6.139   2.600
13635TIP3   OH240849   8.083   2.921   4.226
13635TIP3    H140850   8.095   3.016   4.223
13635TIP3    H240851   8.025   2.901   4.152
13636TIP3   OH240852   0.475   6.177   4.008
13636TIP3    H140853   0.473   6.119   4.084
13636TIP3    H240854   0.529   6.132   3.944
13637TIP3   OH240855   3.251   2.082   2.174
13637TIP3    H140856   3.158   2.102   2.182
13637TIP3    H240857   3.254   2.002   2.122
13638TIP3   OH240858   2.165   4.349   4.245
13638TIP3    H140859   2.258   4.365   4.229
13638TIP3    H240860   2.154   4.255   4.235
13639TIP3   OH240861   7.093   4.186   6.526
13639TIP3    H140862   7.156   4.243   6.570
13639TIP3    H240863   7.094   4.105   6.578
13640TIP3   OH240864   7.895   0.627   2.325
13640TIP3    H140865   7.975   0.599   2.281
13640TIP3    H240866   7.825   0.595   2.269
13641TIP3   OH240867   6.870   5.073   1.801
13641TIP3    H140868   6.867   5.113   1.888
13641TIP3    H240869   6.822   4.991   1.811
13642TIP3   OH240870   4.837   5.754   4.427
13642TIP3    H140871   4.779   5.701   4.482
13642TIP3    H240872   4.918   5.704   4.423
13643TIP3   OH240873   5.315   2.971   1.321
13643TIP3    H140874   5.392   2.988   1.376
13643TIP3    H240875   5.247   3.029   1.356
13644TIP3   OH240876   8.271   2.691   5.797
13644TIP3    H140877   8.177   2.702   5.811
13644TIP3    H240878   8.278   2.660   5.706
13645TIP3   OH240879   0.503   2.754   3.877
13645TIP3    H140880   0.532   2.673   3.920
13645TIP3    H240881   0.441   2.793   3.939
13646TIP3   OH240882   5.258   0.803   4.660
13646TIP3    H140883   5.211   0.839   4.735
13646TIP3    H240884   5.340   0.853   4.658
13647TIP3   OH240885   2.737   4.679   1.281
13647TIP3    H140886   2.704   4.689   1.371
13647TIP3    H240887   2.710   4.759   1.237
13648TIP3   OH240888   5.551   0.554   3.036
13648TIP3    H140889   5.535   0.477   2.981
13648TIP3    H240890   5.587   0.619   2.975
13649TIP3   OH240891   0.018   0.242   1.409
13649TIP3    H140892  -0.022   0.163   1.446
13649TIP3    H240893   0.102   0.212   1.373
13650TIP3   OH240894   0.968   2.938   1.362
13650TIP3    H140895   1.062   2.945   1.380
13650TIP3    H240896   0.944   2.850   1.394
13651TIP3   OH240897   6.345   6.287   1.497
13651TIP3    H140898   6.309   6.230   1.429
13651TIP3    H240899   6.430   6.249   1.519
13652TIP3   OH240900   7.958   2.335   2.250
13652TIP3    H140901   7.979   2.428   2.261
13652TIP3    H240902   7.958   2.321   2.155
13653TIP3   OH240903   1.688   3.565   5.922
13653TIP3    H140904   1.734   3.559   5.839
13653TIP3    H240905   1.698   3.656   5.949
13654TIP3   OH240906   7.225   2.959   3.176
13654TIP3    H140907   7.174   3.038   3.195
13654TIP3    H240908   7.181   2.919   3.101
13655TIP3   OH240909   8.170   7.169   2.908
13655TIP3    H140910   8.136   7.088   2.871
13655TIP3    H240911   8.098   7.231   2.901
13656TIP3   OH240912   6.465   6.687   4.780
13656TIP3    H140913   6.487   6.625   4.850
13656TIP3    H240914   6.383   6.654   4.743
13657TIP3   OH240915   2.626   2.672   0.640
13657TIP3    H140916   2.712   2.640   0.614
13657TIP3    H240917   2.606   2.742   0.577
13658TIP3   OH240918   3.764   1.448   1.029
13658TIP3    H140919   3.845   1.446   1.080
13658TIP3    H240920   3.792   1.466   0.939
13659TIP3   OH240921   3.711   1.105   2.945
13659TIP3    H140922   3.625   1.147   2.949
13659TIP3    H240923   3.703   1.029   3.003
13660TIP3   OH240924   5.703   5.338   5.959
13660TIP3    H140925   5.615   5.307   5.979
13660TIP3    H240926   5.754   5.319   6.038
13661TIP3   OH240927   8.158   3.967   0.559
13661TIP3    H140928   8.237   3.998   0.604
13661TIP3    H240929   8.102   3.935   0.630
13662TIP3   OH240930   6.841   3.498   1.789
13662TIP3    H140931   6.835   3.448   1.707
13662TIP3    H240932   6.921   3.464   1.831
13663TIP3   OH240933   4.328   2.162   4.623
13663TIP3    H140934   4.327   2.257   4.634
13663TIP3    H240935   4.392   2.131   4.687
13664TIP3   OH240936   8.185   7.177   0.208
13664TIP3    H140937   8.266   7.228   0.215
13664TIP3    H240938   8.124   7.220   0.267
13665TIP3   OH240939   6.889   6.058   0.596
13665TIP3    H140940   6.959   6.035   0.657
13665TIP3    H240941   6.877   5.980   0.542
13666TIP3   OH240942   6.034   6.710   6.473
13666TIP3    H140943   6.066   6.629   6.514
13666TIP3    H240944   5.943   6.717   6.501
13667TIP3   OH240945   4.226   1.882   6.572
13667TIP3    H140946   4.225   1.796   6.614
13667TIP3    H240947   4.255   1.864   6.482
13668TIP3   OH240948   0.726   6.991   5.513
13668TIP3    H140949   0.729   7.077   5.555
13668TIP3    H240950   0.641   6.989   5.469
13669TIP3   OH240951   5.000   5.455   3.567
13669TIP3    H140952   4.935   5.434   3.635
13669TIP3    H240953   5.075   5.488   3.616
13670TIP3   OH240954   5.119   1.210   5.762
13670TIP3    H140955   5.117   1.122   5.800
13670TIP3    H240956   5.036   1.250   5.789
13671TIP3   OH240957   2.006   2.417   5.684
13671TIP3    H140958   2.013   2.484   5.752
13671TIP3    H240959   2.064   2.347   5.714
13672TIP3   OH240960   8.083   2.014   2.091
13672TIP3    H140961   8.084   1.941   2.030
13672TIP3    H240962   8.104   2.090   2.037
13673TIP3   OH240963   2.797   1.090   1.919
13673TIP3    H140964   2.834   1.005   1.944
13673TIP3    H240965   2.868   1.152   1.931
13674TIP3   OH240966   6.884   4.130   6.345
13674TIP3    H140967   6.968   4.136   6.390
13674TIP3    H240968   6.863   4.220   6.320
13675TIP3   OH240969   2.208   7.165   5.909
13675TIP3    H140970   2.207   7.213   5.827
13675TIP3    H240971   2.140   7.206   5.962
13676TIP3   OH240972   5.739   3.737   1.112
13676TIP3    H140973   5.702   3.794   1.180
13676TIP3    H240974   5.807   3.790   1.071
13677TIP3   OH240975   1.736   7.019   0.737
13677TIP3    H140976   1.709   7.095   0.788
13677TIP3    H240977   1.831   7.016   0.747
13678TIP3   OH240978   7.097   3.878   5.887
13678TIP3    H140979   7.133   3.789   5.893
13678TIP3    H240980   7.031   3.872   5.818
13679TIP3   OH240981   1.599   5.239   0.549
13679TIP3    H140982   1.546   5.266   0.474
13679TIP3    H240983   1.658   5.172   0.513
13680TIP3   OH240984   0.034   6.894   5.584
13680TIP3    H140985  -0.038   6.831   5.584
13680TIP3    H240986   0.089   6.869   5.510
13681TIP3   OH240987   6.568   7.489   0.783
13681TIP3    H140988   6.567   7.398   0.814
13681TIP3    H240989   6.559   7.541   0.863
13682TIP3   OH240990   1.721   5.595   3.234
13682TIP3    H140991   1.717   5.526   3.300
13682TIP3    H240992   1.793   5.569   3.177
13683TIP3   OH240993   0.967   4.127   2.294
13683TIP3    H140994   0.921   4.209   2.275
13683TIP3    H240995   0.897   4.062   2.299
13684TIP3   OH240996   1.848   4.029   2.712
13684TIP3    H140997   1.838   3.980   2.631
13684TIP3    H240998   1.763   4.021   2.756
13685TIP3   OH240999  -0.005   0.234   2.638
13685TIP3    H141000   0.048   0.189   2.572
13685TIP3    H241001   0.019   0.326   2.630
13686TIP3   OH241002   7.923   1.368   4.518
13686TIP3    H141003   7.911   1.332   4.430
13686TIP3    H241004   7.922   1.463   4.505
13687TIP3   OH241005   3.122   0.224   2.833
13687TIP3    H141006   3.144   0.137   2.866
13687TIP3    H241007   3.128   0.216   2.738
13688TIP3   OH241008   1.073   5.332   5.102
13688TIP3    H141009   1.135   5.348   5.173
13688TIP3    H241010   1.125   5.287   5.035
13689TIP3   OH241011   4.621   2.551   2.406
13689TIP3    H141012   4.608   2.521   2.316
13689TIP3    H241013   4.716   2.565   2.413
13690TIP3   OH241014   2.966   2.841   6.451
13690TIP3    H141015   2.971   2.796   6.535
13690TIP3    H241016   2.939   2.773   6.389
13691TIP3   OH241017   7.609   5.871   5.584
13691TIP3    H141018   7.521   5.849   5.553
13691TIP3    H241019   7.659   5.889   5.504
13692TIP3   OH241020   1.690   5.613   6.596
13692TIP3    H141021   1.611   5.596   6.646
13692TIP3    H241022   1.726   5.526   6.578
13693TIP3   OH241023   6.184   7.780   1.247
13693TIP3    H141024   6.131   7.810   1.321
13693TIP3    H241025   6.261   7.836   1.249
13694TIP3   OH241026   2.310   0.253   1.105
13694TIP3    H141027   2.364   0.201   1.045
13694TIP3    H241028   2.301   0.198   1.183
13695TIP3   OH241029   3.821   6.408   1.486
13695TIP3    H141030   3.842   6.393   1.394
13695TIP3    H241031   3.906   6.419   1.529
13696TIP3   OH241032   6.039   1.341   5.966
13696TIP3    H141033   6.007   1.347   5.876
13696TIP3    H241034   6.089   1.259   5.969
13697TIP3   OH241035   6.801   5.027   3.901
13697TIP3    H141036   6.884   5.031   3.853
13697TIP3    H241037   6.823   5.055   3.990
13698TIP3   OH241038   5.283   0.846   1.727
13698TIP3    H141039   5.368   0.836   1.685
13698TIP3    H241040   5.302   0.836   1.821
13699TIP3   OH241041   4.202   5.064   3.504
13699TIP3    H141042   4.251   5.023   3.433
13699TIP3    H241043   4.225   5.013   3.582
13700TIP3   OH241044   3.817   6.952   5.580
13700TIP3    H141045   3.760   6.904   5.521
13700TIP3    H241046   3.842   6.888   5.647
13701TIP3   OH241047   0.069   5.837   6.403
13701TIP3    H141048   0.066   5.811   6.311
13701TIP3    H241049   0.139   5.902   6.408
13702TIP3   OH241050   1.630   0.070   5.092
13702TIP3    H141051   1.718   0.035   5.109
13702TIP3    H241052   1.645   0.163   5.074
13703TIP3   OH241053   5.361   2.271   6.676
13703TIP3    H141054   5.361   2.177   6.696
13703TIP3    H241055   5.453   2.295   6.676
13704TIP3   OH241056   3.813   4.286   4.674
13704TIP3    H141057   3.738   4.283   4.733
13704TIP3    H241058   3.787   4.234   4.599
13705TIP3   OH241059   1.011   0.529   3.407
13705TIP3    H141060   1.062   0.557   3.483
13705TIP3    H241061   0.964   0.451   3.436
13706TIP3   OH241062   1.237   6.291   3.749
13706TIP3    H141063   1.167   6.306   3.685
13706TIP3    H241064   1.289   6.371   3.747
13707TIP3   OH241065   6.802   1.278   3.065
13707TIP3    H141066   6.778   1.248   3.153
13707TIP3    H241067   6.719   1.279   3.017
13708TIP3   OH241068   2.581   4.310   3.355
13708TIP3    H141069   2.653   4.344   3.408
13708TIP3    H241070   2.624   4.267   3.281
13709TIP3   OH241071   4.789   0.860   0.836
13709TIP3    H141072   4.788   0.955   0.820
13709TIP3    H241073   4.728   0.848   0.909
13710TIP3   OH241074   1.921   0.425   6.523
13710TIP3    H141075   1.847   0.427   6.583
13710TIP3    H241076   1.993   0.389   6.574
13711TIP3   OH241077   0.140   1.183   2.254
13711TIP3    H141078   0.200   1.113   2.228
13711TIP3    H241079   0.117   1.228   2.172
13712TIP3   OH241080   7.318   6.658   4.873
13712TIP3    H141081   7.251   6.723   4.851
13712TIP3    H241082   7.269   6.581   4.901
13713TIP3   OH241083   2.027   0.511   2.051
13713TIP3    H141084   2.117   0.494   2.077
13713TIP3    H241085   2.004   0.438   1.994
13714TIP3   OH241086   3.472   4.124   5.762
13714TIP3    H141087   3.406   4.184   5.798
13714TIP3    H241088   3.552   4.144   5.812
13715TIP3   OH241089   5.278   1.087   1.519
13715TIP3    H141090   5.364   1.128   1.521
13715TIP3    H241091   5.236   1.116   1.601
13716TIP3   OH241092   7.408   4.808   4.897
13716TIP3    H141093   7.314   4.799   4.878
13716TIP3    H241094   7.411   4.846   4.985
13717TIP3   OH241095   1.199   5.468   4.549
13717TIP3    H141096   1.122   5.519   4.523
13717TIP3    H241097   1.213   5.490   4.641
13718TIP3   OH241098   4.146   1.137   1.219
13718TIP3    H141099   4.188   1.106   1.139
13718TIP3    H241100   4.121   1.058   1.266
13719TIP3   OH241101   6.167   4.691   5.697
13719TIP3    H141102   6.257   4.709   5.722
13719TIP3    H241103   6.173   4.610   5.645
13720TIP3   OH241104   4.370   6.446   5.240
13720TIP3    H141105   4.325   6.443   5.325
13720TIP3    H241106   4.449   6.394   5.254
13721TIP3   OH241107   2.679   2.762   2.791
13721TIP3    H141108   2.697   2.774   2.698
13721TIP3    H241109   2.689   2.849   2.829
13722TIP3   OH241110   1.004   1.624   0.332
13722TIP3    H141111   1.052   1.650   0.253
13722TIP3    H241112   1.006   1.529   0.331
13723TIP3   OH241113   3.049   2.761   0.885
13723TIP3    H141114   3.067   2.769   0.791
13723TIP3    H241115   2.958   2.790   0.894
13724TIP3   OH241116   1.615   3.975   1.746
13724TIP3    H141117   1.675   3.903   1.766
13724TIP3    H241118   1.610   4.025   1.828
13725TIP3   OH241119   3.723   0.129   3.287
13725TIP3    H141120   3.634   0.148   3.256
13725TIP3    H241121   3.770   0.100   3.210
13726TIP3   OH241122   1.804   5.106   6.319
13726TIP3    H141123   1.858   5.118   6.241
13726TIP3    H241124   1.808   5.012   6.337
13727TIP3   OH241125   4.193   1.681   3.331
13727TIP3    H141126   4.174   1.725   3.414
13727TIP3    H241127   4.246   1.743   3.282
13728TIP3   OH241128   2.389   0.768   5.570
13728TIP3    H141129   2.361   0.778   5.661
13728TIP3    H241130   2.464   0.827   5.562
13729TIP3   OH241131   2.498   6.889   1.393
13729TIP3    H141132   2.462   6.977   1.409
13729TIP3    H241133   2.513   6.854   1.481
13730TIP3   OH241134   7.176   4.143   3.329
13730TIP3    H141135   7.091   4.147   3.372
13730TIP3    H241136   7.240   4.149   3.400
13731TIP3   OH241137   0.550   4.438   0.596
13731TIP3    H141138   0.608   4.375   0.553
13731TIP3    H241139   0.465   4.396   0.597
13732TIP3   OH241140   0.352   2.148   2.955
13732TIP3    H141141   0.407   2.223   2.977
13732TIP3    H241142   0.269   2.166   2.999
13733TIP3   OH241143   2.029   4.954   0.802
13733TIP3    H141144   1.955   4.995   0.757
13733TIP3    H241145   2.105   5.005   0.774
13734TIP3   OH241146   4.158   3.198   3.444
13734TIP3    H141147   4.175   3.124   3.502
13734TIP3    H241148   4.238   3.250   3.448
13735TIP3   OH241149   0.623   5.602   3.902
13735TIP3    H141150   0.703   5.577   3.948
13735TIP3    H241151   0.626   5.553   3.820
13736TIP3   OH241152   6.365   4.348   0.232
13736TIP3    H141153   6.414   4.298   0.166
13736TIP3    H241154   6.353   4.434   0.192
13737TIP3   OH241155   4.667   5.488   0.413
13737TIP3    H141156   4.647   5.537   0.492
13737TIP3    H241157   4.762   5.488   0.407
13738TIP3   OH241158   2.425   4.636   5.447
13738TIP3    H141159   2.515   4.664   5.466
13738TIP3    H241160   2.425   4.615   5.354
13739TIP3   OH241161   5.092   6.978   0.908
13739TIP3    H141162   5.160   7.042   0.888
13739TIP3    H241163   5.010   7.028   0.902
13740TIP3   OH241164   4.044   0.941   2.897
13740TIP3    H141165   4.008   0.898   2.819
13740TIP3    H241166   4.015   1.032   2.889
13741TIP3   OH241167   0.143   1.435   1.683
13741TIP3    H141168   0.229   1.447   1.643
13741TIP3    H241169   0.161   1.410   1.773
13742TIP3   OH241170   1.248   3.710   6.194
13742TIP3    H141171   1.161   3.687   6.226
13742TIP3    H241172   1.233   3.787   6.138
13743TIP3   OH241173   7.253   3.385   1.603
13743TIP3    H141174   7.268   3.467   1.556
13743TIP3    H241175   7.279   3.317   1.540
13744TIP3   OH241176   4.219   5.445   5.868
13744TIP3    H141177   4.155   5.464   5.800
13744TIP3    H241178   4.168   5.402   5.938
13745TIP3   OH241179   2.892   6.420   4.216
13745TIP3    H141180   2.953   6.441   4.145
13745TIP3    H241181   2.864   6.330   4.197
13746TIP3   OH241182   4.060   7.432   1.219
13746TIP3    H141183   4.067   7.522   1.188
13746TIP3    H241184   3.966   7.414   1.220
13747TIP3   OH241185   5.808   3.231   5.204
13747TIP3    H141186   5.812   3.312   5.254
13747TIP3    H241187   5.838   3.254   5.116
13748TIP3   OH241188   6.166   0.915   3.472
13748TIP3    H141189   6.111   0.952   3.541
13748TIP3    H241190   6.105   0.881   3.407
13749TIP3   OH241191   1.723   6.008   0.104
13749TIP3    H141192   1.706   5.924   0.147
13749TIP3    H241193   1.639   6.053   0.107
13750TIP3   OH241194   7.848   4.719   4.751
13750TIP3    H141195   7.787   4.693   4.821
13750TIP3    H241196   7.883   4.636   4.719
13751TIP3   OH241197   1.799   0.787   5.259
13751TIP3    H141198   1.764   0.838   5.186
13751TIP3    H241199   1.816   0.701   5.223
13752TIP3   OH241200   3.328   2.213   0.294
13752TIP3    H141201   3.234   2.232   0.294
13752TIP3    H241202   3.369   2.297   0.312
13753TIP3   OH241203   3.210   2.176   6.469
13753TIP3    H141204   3.211   2.081   6.460
13753TIP3    H241205   3.143   2.193   6.536
13754TIP3   OH241206   6.813   7.165   0.386
13754TIP3    H141207   6.902   7.145   0.359
13754TIP3    H241208   6.773   7.079   0.400
13755TIP3   OH241209   5.282   2.974   6.609
13755TIP3    H141210   5.333   3.047   6.644
13755TIP3    H241211   5.315   2.897   6.654
13756TIP3   OH241212   8.144   1.347   4.664
13756TIP3    H141213   8.067   1.336   4.608
13756TIP3    H241214   8.212   1.378   4.605
13757TIP3   OH241215   2.005   6.728   1.268
13757TIP3    H141216   1.955   6.745   1.188
13757TIP3    H241217   2.094   6.755   1.247
13758TIP3   OH241218   3.810   0.914   3.509
13758TIP3    H141219   3.799   1.009   3.508
13758TIP3    H241220   3.855   0.896   3.591
13759TIP3   OH241221   3.609   2.029   3.083
13759TIP3    H141222   3.647   2.070   3.006
13759TIP3    H241223   3.574   2.101   3.135
13760TIP3   OH241224   5.997   1.135   0.881
13760TIP3    H141225   6.038   1.186   0.811
13760TIP3    H241226   6.049   1.055   0.887
13761TIP3   OH241227   2.114   7.416   0.946
13761TIP3    H141228   2.115   7.383   0.856
13761TIP3    H241229   2.186   7.479   0.949
13762TIP3   OH241230   1.265   2.515   5.835
13762TIP3    H141231   1.318   2.449   5.791
13762TIP3    H241232   1.291   2.510   5.927
13763TIP3   OH241233   3.457   2.627   5.545
13763TIP3    H141234   3.361   2.624   5.546
13763TIP3    H241235   3.484   2.539   5.520
13764TIP3   OH241236   4.543   7.519   3.359
13764TIP3    H141237   4.613   7.469   3.400
13764TIP3    H241238   4.555   7.608   3.392
13765TIP3   OH241239   3.979   5.495   2.370
13765TIP3    H141240   4.045   5.487   2.301
13765TIP3    H241241   3.896   5.480   2.326
13766TIP3   OH241242   4.264   1.992   3.422
13766TIP3    H141243   4.348   2.038   3.421
13766TIP3    H241244   4.266   1.939   3.502
13767TIP3   OH241245   1.338   2.206   4.072
13767TIP3    H141246   1.365   2.292   4.039
13767TIP3    H241247   1.291   2.166   3.999
13768TIP3   OH241248   3.456   3.061   5.085
13768TIP3    H141249   3.514   3.130   5.053
13768TIP3    H241250   3.370   3.083   5.050
13769TIP3   OH241251   4.174   3.892   2.673
13769TIP3    H141252   4.256   3.902   2.624
13769TIP3    H241253   4.133   3.978   2.667
13770TIP3   OH241254   6.228   0.432   1.947
13770TIP3    H141255   6.218   0.484   1.867
13770TIP3    H241256   6.310   0.385   1.935
13771TIP3   OH241257   7.022   2.884   5.285
13771TIP3    H141258   7.103   2.881   5.233
13771TIP3    H241259   7.024   2.970   5.328
13772TIP3   OH241260   5.502   2.600   4.624
13772TIP3    H141261   5.570   2.582   4.689
13772TIP3    H241262   5.511   2.693   4.605
13773TIP3   OH241263   1.453   6.748   3.083
13773TIP3    H141264   1.421   6.664   3.116
13773TIP3    H241265   1.536   6.762   3.130
13774TIP3   OH241266   0.507   5.005   3.945
13774TIP3    H141267   0.558   4.988   3.866
13774TIP3    H241268   0.439   4.938   3.946
13775TIP3   OH241269   2.894   2.310   2.613
13775TIP3    H141270   2.933   2.297   2.699
13775TIP3    H241271   2.916   2.401   2.591
13776TIP3   OH241272   2.009   1.739   4.218
13776TIP3    H141273   1.972   1.824   4.242
13776TIP3    H241274   2.093   1.736   4.263
13777TIP3   OH241275   4.390   4.493   3.657
13777TIP3    H141276   4.451   4.462   3.723
13777TIP3    H241277   4.390   4.424   3.590
13778TIP3   OH241278   7.135   6.452   6.390
13778TIP3    H141279   7.075   6.403   6.334
13778TIP3    H241280   7.130   6.410   6.475
13779TIP3   OH241281   1.487   1.906   3.568
13779TIP3    H141282   1.508   1.817   3.538
13779TIP3    H241283   1.529   1.912   3.654
13780TIP3   OH241284   5.062   3.966   1.123
13780TIP3    H141285   5.012   3.940   1.046
13780TIP3    H241286   5.147   3.922   1.112
13781TIP3   OH241287   1.664   2.777   1.370
13781TIP3    H141288   1.689   2.765   1.462
13781TIP3    H241289   1.672   2.872   1.356
13782TIP3   OH241290   7.903   4.958   4.939
13782TIP3    H141291   7.821   4.980   4.895
13782TIP3    H241292   7.950   4.902   4.877
13783TIP3   OH241293   2.077   2.171   0.810
13783TIP3    H141294   2.141   2.138   0.748
13783TIP3    H241295   2.026   2.094   0.834
13784TIP3   OH241296   3.374   3.126   0.487
13784TIP3    H141297   3.457   3.173   0.479
13784TIP3    H241298   3.399   3.033   0.482
13785TIP3   OH241299   7.012   4.584   3.612
13785TIP3    H141300   6.928   4.630   3.609
13785TIP3    H241301   7.074   4.650   3.641
13786TIP3   OH241302   1.285   2.808   2.552
13786TIP3    H141303   1.335   2.726   2.555
13786TIP3    H241304   1.329   2.860   2.484
13787TIP3   OH241305   7.810   1.764   4.062
13787TIP3    H141306   7.762   1.843   4.087
13787TIP3    H241307   7.742   1.698   4.048
13788TIP3   OH241308   3.328   2.341   5.769
13788TIP3    H141309   3.321   2.319   5.862
13788TIP3    H241310   3.422   2.337   5.751
13789TIP3   OH241311   7.209   1.699   0.930
13789TIP3    H141312   7.294   1.679   0.891
13789TIP3    H241313   7.181   1.780   0.887
13790TIP3   OH241314   6.853   0.597   1.779
13790TIP3    H141315   6.884   0.508   1.762
13790TIP3    H241316   6.878   0.615   1.869
13791TIP3   OH241317   4.369   5.165   5.363
13791TIP3    H141318   4.295   5.119   5.324
13791TIP3    H241319   4.436   5.165   5.295
13792TIP3   OH241320   7.938   6.868   3.556
13792TIP3    H141321   7.983   6.790   3.525
13792TIP3    H241322   7.862   6.877   3.498
13793TIP3   OH241323   2.326   1.189   0.841
13793TIP3    H141324   2.411   1.195   0.799
13793TIP3    H241325   2.345   1.158   0.930
13794TIP3   OH241326   6.621   4.311   2.813
13794TIP3    H141327   6.620   4.326   2.908
13794TIP3    H241328   6.563   4.236   2.800
13795TIP3   OH241329   7.086   1.209   5.862
13795TIP3    H141330   6.996   1.236   5.878
13795TIP3    H241331   7.139   1.263   5.922
13796TIP3   OH241332   2.463   5.769   5.705
13796TIP3    H141333   2.518   5.833   5.660
13796TIP3    H241334   2.434   5.709   5.636
13797TIP3   OH241335   1.051   4.255   0.953
13797TIP3    H141336   1.124   4.274   0.894
13797TIP3    H241337   1.090   4.257   1.040
13798TIP3   OH241338   5.411   1.704   3.395
13798TIP3    H141339   5.379   1.731   3.481
13798TIP3    H241340   5.400   1.609   3.395
13799TIP3   OH241341   1.137   5.727   4.181
13799TIP3    H141342   1.111   5.810   4.221
13799TIP3    H241343   1.129   5.741   4.087
13800TIP3   OH241344   5.445   3.440   3.421
13800TIP3    H141345   5.463   3.352   3.456
13800TIP3    H241346   5.530   3.469   3.388
13801TIP3   OH241347   1.315   6.168   1.628
13801TIP3    H141348   1.294   6.100   1.565
13801TIP3    H241349   1.410   6.179   1.622
13802TIP3   OH241350   3.753   5.016   5.837
13802TIP3    H141351   3.819   5.052   5.897
13802TIP3    H241352   3.689   4.974   5.895
13803TIP3   OH241353   1.243   5.030   1.704
13803TIP3    H141354   1.210   5.018   1.793
13803TIP3    H241355   1.171   5.071   1.656
13804TIP3   OH241356   0.047   6.455   1.901
13804TIP3    H141357   0.071   6.364   1.920
13804TIP3    H241358   0.026   6.492   1.986
13805TIP3   OH241359   7.850   1.757   1.437
13805TIP3    H141360   7.762   1.723   1.423
13805TIP3    H241361   7.902   1.722   1.365
13806TIP3   OH241362   6.326   0.538   2.657
13806TIP3    H141363   6.299   0.447   2.655
13806TIP3    H241364   6.266   0.580   2.718
13807TIP3   OH241365   0.009   7.525   4.836
13807TIP3    H141366   0.050   7.452   4.790
13807TIP3    H241367  -0.060   7.485   4.889
13808TIP3   OH241368   5.821   5.244   6.200
13808TIP3    H141369   5.828   5.151   6.177
13808TIP3    H241370   5.912   5.273   6.208
13809TIP3   OH241371   7.250   0.800   4.117
13809TIP3    H141372   7.205   0.791   4.201
13809TIP3    H241373   7.302   0.879   4.126
13810TIP3   OH241374   8.242   4.985   0.156
13810TIP3    H141375   8.280   4.899   0.177
13810TIP3    H241376   8.233   4.984   0.061
13811TIP3   OH241377   3.027   6.940   0.271
13811TIP3    H141378   2.961   6.953   0.339
13811TIP3    H241379   3.038   7.027   0.231
13812TIP3   OH241380   1.756   3.746   3.284
13812TIP3    H141381   1.691   3.812   3.259
13812TIP3    H241382   1.828   3.796   3.321
13813TIP3   OH241383   5.834   0.134   3.375
13813TIP3    H141384   5.796   0.164   3.458
13813TIP3    H241385   5.792   0.050   3.360
13814TIP3   OH241386   4.101   1.826   4.960
13814TIP3    H141387   4.056   1.877   4.893
13814TIP3    H241388   4.096   1.735   4.928
13815TIP3   OH241389   7.341   4.235   2.133
13815TIP3    H141390   7.422   4.269   2.095
13815TIP3    H241391   7.363   4.217   2.224
13816TIP3   OH241392   0.708   1.065   0.021
13816TIP3    H141393   0.670   1.055   0.109
13816TIP3    H241394   0.632   1.068  -0.037
13817TIP3   OH241395   2.657   1.820   2.353
13817TIP3    H141396   2.586   1.825   2.418
13817TIP3    H241397   2.729   1.869   2.393
13818TIP3   OH241398   0.216   2.643   1.090
13818TIP3    H141399   0.288   2.582   1.075
13818TIP3    H241400   0.198   2.635   1.184
13819TIP3   OH241401   2.921   4.062   3.962
13819TIP3    H141402   2.829   4.084   3.979
13819TIP3    H241403   2.940   3.990   4.022
13820TIP3   OH241404   1.879   5.290   2.980
13820TIP3    H141405   1.897   5.384   2.985
13820TIP3    H241406   1.872   5.262   3.071
13821TIP3   OH241407   3.786   7.328   5.607
13821TIP3    H141408   3.750   7.416   5.612
13821TIP3    H241409   3.713   7.273   5.579
13822TIP3   OH241410   6.927   6.234   1.152
13822TIP3    H141411   6.840   6.252   1.115
13822TIP3    H241412   6.911   6.219   1.245
13823TIP3   OH241413   2.610   7.494   4.147
13823TIP3    H141414   2.562   7.436   4.206
13823TIP3    H241415   2.668   7.544   4.205
13824TIP3   OH241416   4.556   0.748   2.837
13824TIP3    H141417   4.486   0.811   2.857
13824TIP3    H241418   4.529   0.707   2.756
13825TIP3   OH241419   4.488   1.721   2.521
13825TIP3    H141420   4.566   1.768   2.490
13825TIP3    H241421   4.506   1.629   2.499
13826TIP3   OH241422   3.535   3.398   4.625
13826TIP3    H141423   3.543   3.320   4.570
13826TIP3    H241424   3.606   3.455   4.596
13827TIP3   OH241425   0.151   3.586   1.140
13827TIP3    H141426   0.237   3.626   1.130
13827TIP3    H241427   0.160   3.499   1.102
13828TIP3   OH241428   5.272   6.391   5.357
13828TIP3    H141429   5.350   6.412   5.306
13828TIP3    H241430   5.251   6.301   5.333
13829TIP3   OH241431   0.696   0.395   1.575
13829TIP3    H141432   0.636   0.418   1.504
13829TIP3    H241433   0.676   0.458   1.645
13830TIP3   OH241434   7.935   0.517   0.676
13830TIP3    H141435   7.950   0.536   0.768
13830TIP3    H241436   7.990   0.441   0.657
13831TIP3   OH241437   7.512   3.579   6.376
13831TIP3    H141438   7.583   3.635   6.344
13831TIP3    H241439   7.447   3.640   6.412
13832TIP3   OH241440   3.032   4.380   2.596
13832TIP3    H141441   3.042   4.288   2.620
13832TIP3    H241442   3.106   4.398   2.538
13833TIP3   OH241443   8.054   0.104   1.808
13833TIP3    H141444   8.146   0.084   1.791
13833TIP3    H241445   8.015   0.115   1.721
13834TIP3   OH241446   4.143   0.531   6.659
13834TIP3    H141447   4.105   0.545   6.746
13834TIP3    H241448   4.087   0.584   6.601
13835TIP3   OH241449   8.175   0.692   0.125
13835TIP3    H141450   8.251   0.738   0.162
13835TIP3    H241451   8.126   0.662   0.202
13836TIP3   OH241452   2.944   6.318   6.524
13836TIP3    H141453   2.861   6.283   6.557
13836TIP3    H241454   2.920   6.364   6.444
13837TIP3   OH241455   7.547   4.626   5.383
13837TIP3    H141456   7.567   4.613   5.291
13837TIP3    H241457   7.610   4.570   5.429
13838TIP3   OH241458   0.857   0.756   4.939
13838TIP3    H141459   0.950   0.773   4.957
13838TIP3    H241460   0.823   0.841   4.911
13839TIP3   OH241461   1.851   0.250   6.020
13839TIP3    H141462   1.907   0.323   5.992
13839TIP3    H241463   1.876   0.233   6.111
13840TIP3   OH241464   7.046   6.899   6.475
13840TIP3    H141465   7.140   6.882   6.471
13840TIP3    H241466   7.028   6.912   6.568
13841TIP3   OH241467   8.127   4.344   4.996
13841TIP3    H141468   8.051   4.375   4.947
13841TIP3    H241469   8.090   4.309   5.077
13842TIP3   OH241470   3.161   6.035   4.486
13842TIP3    H141471   3.111   6.035   4.568
13842TIP3    H241472   3.241   6.084   4.507
13843TIP3   OH241473   1.343   1.722   4.866
13843TIP3    H141474   1.308   1.793   4.920
13843TIP3    H241475   1.431   1.751   4.843
13844TIP3   OH241476   6.227   3.879   5.525
13844TIP3    H141477   6.158   3.923   5.475
13844TIP3    H241478   6.306   3.929   5.506
13845TIP3   OH241479   6.042   4.927   5.183
13845TIP3    H141480   6.088   4.883   5.255
13845TIP3    H241481   6.110   4.977   5.138
13846TIP3   OH241482   8.081   5.196   3.373
13846TIP3    H141483   8.046   5.163   3.456
13846TIP3    H241484   8.009   5.186   3.311
13847TIP3   OH241485   3.259   1.728   3.877
13847TIP3    H141486   3.293   1.816   3.858
13847TIP3    H241487   3.298   1.706   3.961
13848TIP3   OH241488   0.528   2.020   3.684
13848TIP3    H141489   0.539   1.925   3.693
13848TIP3    H241490   0.604   2.057   3.729
13849TIP3   OH241491   7.968   6.550   0.775
13849TIP3    H141492   7.983   6.551   0.680
13849TIP3    H241493   7.959   6.642   0.798
13850TIP3   OH241494   0.168   7.409   6.603
13850TIP3    H141495   0.150   7.498   6.572
13850TIP3    H241496   0.136   7.408   6.693
13851TIP3   OH241497   7.585   3.014   0.568
13851TIP3    H141498   7.566   3.091   0.514
13851TIP3    H241499   7.676   2.993   0.547
13852TIP3   OH241500   4.953   6.697   1.722
13852TIP3    H141501   4.969   6.758   1.794
13852TIP3    H241502   4.945   6.752   1.645
13853TIP3   OH241503   5.473   2.486   1.158
13853TIP3    H141504   5.426   2.422   1.210
13853TIP3    H241505   5.475   2.449   1.069
13854TIP3   OH241506   5.335   6.726   6.254
13854TIP3    H141507   5.349   6.762   6.167
13854TIP3    H241508   5.250   6.682   6.249
13855TIP3   OH241509   6.761   2.863   5.649
13855TIP3    H141510   6.799   2.842   5.564
13855TIP3    H241511   6.746   2.778   5.691
13856TIP3   OH241512   3.620   6.791   3.863
13856TIP3    H141513   3.690   6.727   3.848
13856TIP3    H241514   3.629   6.815   3.955
13857TIP3   OH241515   3.903   6.143   2.646
13857TIP3    H141516   3.937   6.223   2.685
13857TIP3    H241517   3.852   6.172   2.571
13858TIP3   OH241518   2.681   2.438   5.460
13858TIP3    H141519   2.748   2.461   5.395
13858TIP3    H241520   2.619   2.382   5.412
13859TIP3   OH241521   2.242   5.749   6.318
13859TIP3    H141522   2.291   5.669   6.338
13859TIP3    H241523   2.229   5.745   6.223
13860TIP3   OH241524   7.335   4.677   1.976
13860TIP3    H141525   7.414   4.673   1.921
13860TIP3    H241526   7.341   4.761   2.021
13861TIP3   OH241527   8.124   3.566   2.625
13861TIP3    H141528   8.060   3.623   2.583
13861TIP3    H241529   8.209   3.601   2.599
13862TIP3   OH241530   0.293   6.964   3.678
13862TIP3    H141531   0.239   7.042   3.684
13862TIP3    H241532   0.297   6.931   3.768
13863TIP3   OH241533   5.874   4.659   3.886
13863TIP3    H141534   5.959   4.632   3.851
13863TIP3    H241535   5.891   4.744   3.927
13864TIP3   OH241536   3.982   0.557   4.414
13864TIP3    H141537   3.962   0.464   4.424
13864TIP3    H241538   4.044   0.576   4.485
13865TIP3   OH241539   7.167   7.789   1.548
13865TIP3    H141540   7.141   7.856   1.485
13865TIP3    H241541   7.154   7.706   1.502
13866TIP3   OH241542   6.325   5.781   4.763
13866TIP3    H141543   6.400   5.791   4.705
13866TIP3    H241544   6.348   5.707   4.819
13867TIP3   OH241545   7.504   6.376   0.577
13867TIP3    H141546   7.523   6.353   0.667
13867TIP3    H241547   7.418   6.419   0.580
13868TIP3   OH241548   2.039   7.495   1.882
13868TIP3    H141549   2.117   7.490   1.937
13868TIP3    H241550   2.053   7.429   1.814
13869TIP3   OH241551   2.324   1.315   5.827
13869TIP3    H141552   2.343   1.292   5.918
13869TIP3    H241553   2.237   1.279   5.811
13870TIP3   OH241554   3.330   4.768   3.273
13870TIP3    H141555   3.319   4.709   3.347
13870TIP3    H241556   3.259   4.831   3.281
13871TIP3   OH241557   4.812   4.814   0.805
13871TIP3    H141558   4.747   4.850   0.745
13871TIP3    H241559   4.850   4.739   0.758
13872TIP3   OH241560   3.443   2.186   3.821
13872TIP3    H141561   3.418   2.275   3.844
13872TIP3    H241562   3.535   2.193   3.793
13873TIP3   OH241563   6.236   2.237   0.714
13873TIP3    H141564   6.165   2.174   0.718
13873TIP3    H241565   6.222   2.285   0.632
13874TIP3   OH241566   4.275   1.047   0.976
13874TIP3    H141567   4.272   1.141   0.959
13874TIP3    H241568   4.343   1.013   0.918
13875TIP3   OH241569   3.781   2.561   2.092
13875TIP3    H141570   3.877   2.563   2.088
13875TIP3    H241571   3.755   2.653   2.085
13876TIP3   OH241572   4.133   2.647   6.211
13876TIP3    H141573   4.184   2.569   6.188
13876TIP3    H241574   4.064   2.650   6.144
13877TIP3   OH241575   5.691   7.493   2.754
13877TIP3    H141576   5.610   7.441   2.750
13877TIP3    H241577   5.756   7.432   2.788
13878TIP3   OH241578   7.338   7.115   1.667
13878TIP3    H141579   7.392   7.108   1.589
13878TIP3    H241580   7.397   7.151   1.733
13879TIP3   OH241581   5.809   3.950   3.251
13879TIP3    H141582   5.757   3.940   3.331
13879TIP3    H241583   5.787   3.873   3.198
13880TIP3   OH241584   1.869   7.452   1.064
13880TIP3    H141585   1.812   7.510   1.014
13880TIP3    H241586   1.954   7.460   1.022
13881TIP3   OH241587   7.777   4.357   1.157
13881TIP3    H141588   7.708   4.351   1.091
13881TIP3    H241589   7.754   4.291   1.222
13882TIP3   OH241590   6.742   3.723   0.517
13882TIP3    H141591   6.816   3.664   0.534
13882TIP3    H241592   6.705   3.742   0.603
13883TIP3   OH241593   7.847   2.923   4.068
13883TIP3    H141594   7.812   2.905   4.155
13883TIP3    H241595   7.821   3.014   4.050
13884TIP3   OH241596   8.110   5.375   6.019
13884TIP3    H141597   8.017   5.375   5.999
13884TIP3    H241598   8.134   5.282   6.024
13885TIP3   OH241599   7.403   1.484   2.115
13885TIP3    H141600   7.468   1.418   2.093
13885TIP3    H241601   7.448   1.544   2.174
13886TIP3   OH241602   3.223   7.824   4.694
13886TIP3    H141603   3.251   7.815   4.785
13886TIP3    H241604   3.159   7.755   4.681
13887TIP3   OH241605   4.380   4.652   0.493
13887TIP3    H141606   4.455   4.710   0.479
13887TIP3    H241607   4.418   4.564   0.495
13888TIP3   OH241608   4.850   5.850   5.135
13888TIP3    H141609   4.757   5.834   5.117
13888TIP3    H241610   4.878   5.906   5.062
13889TIP3   OH241611   5.192   5.739   4.405
13889TIP3    H141612   5.223   5.741   4.314
13889TIP3    H241613   5.123   5.673   4.404
13890TIP3   OH241614   3.301   3.139   6.583
13890TIP3    H141615   3.361   3.213   6.576
13890TIP3    H241616   3.292   3.124   6.677
13891TIP3   OH241617   6.026   5.034   3.299
13891TIP3    H141618   6.057   5.080   3.377
13891TIP3    H241619   5.931   5.032   3.309
13892TIP3   OH241620   2.449   2.290   1.388
13892TIP3    H141621   2.456   2.333   1.473
13892TIP3    H241622   2.355   2.289   1.369
13893TIP3   OH241623   2.358   2.324   4.576
13893TIP3    H141624   2.453   2.335   4.576
13893TIP3    H241625   2.326   2.385   4.642
13894TIP3   OH241626   1.392   5.668   4.866
13894TIP3    H141627   1.393   5.713   4.950
13894TIP3    H241628   1.359   5.733   4.804
13895TIP3   OH241629   2.365   3.674   3.565
13895TIP3    H141630   2.281   3.629   3.576
13895TIP3    H241631   2.346   3.766   3.580
13896TIP3   OH241632   2.305   5.891   5.902
13896TIP3    H141633   2.355   5.872   5.823
13896TIP3    H241634   2.285   5.805   5.940
13897TIP3   OH241635   2.587   2.408   6.473
13897TIP3    H141636   2.597   2.341   6.406
13897TIP3    H241637   2.526   2.471   6.435
13898TIP3   OH241638   5.868   1.698   6.614
13898TIP3    H141639   5.877   1.682   6.708
13898TIP3    H241640   5.957   1.697   6.581
13899TIP3   OH241641   2.563   4.124   1.334
13899TIP3    H141642   2.612   4.085   1.262
13899TIP3    H241643   2.554   4.054   1.398
13900TIP3   OH241644   6.312   0.259   0.937
13900TIP3    H141645   6.388   0.218   0.896
13900TIP3    H241646   6.242   0.247   0.872
13901TIP3   OH241647   3.971   4.736   6.253
13901TIP3    H141648   3.923   4.682   6.316
13901TIP3    H241649   4.061   4.738   6.286
13902TIP3   OH241650   8.076   4.370   2.345
13902TIP3    H141651   8.134   4.388   2.420
13902TIP3    H241652   8.006   4.316   2.382
13903TIP3   OH241653   4.681   0.583   5.595
13903TIP3    H141654   4.605   0.638   5.577
13903TIP3    H241655   4.750   0.617   5.537
13904TIP3   OH241656   7.009   7.752   4.936
13904TIP3    H141657   7.051   7.798   5.008
13904TIP3    H241658   6.924   7.726   4.971
13905TIP3   OH241659   3.548   0.305   4.154
13905TIP3    H141660   3.629   0.355   4.142
13905TIP3    H241661   3.565   0.249   4.230
13906TIP3   OH241662   3.160   0.280   1.883
13906TIP3    H141663   3.174   0.262   1.976
13906TIP3    H241664   3.075   0.324   1.879
13907TIP3   OH241665   1.986   7.701   1.317
13907TIP3    H141666   1.945   7.737   1.239
13907TIP3    H241667   1.971   7.607   1.312
13908TIP3   OH241668   1.375   0.902   3.253
13908TIP3    H141669   1.444   0.905   3.320
13908TIP3    H241670   1.364   0.993   3.226
13909TIP3   OH241671   2.482   4.478   2.994
13909TIP3    H141672   2.517   4.553   3.043
13909TIP3    H241673   2.556   4.419   2.983
13910TIP3   OH241674   7.839   5.507   2.888
13910TIP3    H141675   7.876   5.503   2.977
13910TIP3    H241676   7.894   5.570   2.842
13911TIP3   OH241677   4.482   0.552   4.269
13911TIP3    H141678   4.459   0.484   4.333
13911TIP3    H241679   4.426   0.534   4.194
13912TIP3   OH241680   2.175   1.346   1.099
13912TIP3    H141681   2.123   1.391   1.032
13912TIP3    H241682   2.158   1.253   1.083
13913TIP3   OH241683   3.736   5.130   0.202
13913TIP3    H141684   3.754   5.222   0.222
13913TIP3    H241685   3.641   5.125   0.193
13914TIP3   OH241686   5.829   2.194   6.126
13914TIP3    H141687   5.851   2.153   6.210
13914TIP3    H241688   5.860   2.284   6.134
13915TIP3   OH241689   5.667   6.595   3.179
13915TIP3    H141690   5.717   6.524   3.218
13915TIP3    H241691   5.598   6.551   3.128
13916TIP3   OH241692   5.261   6.716   0.250
13916TIP3    H141693   5.170   6.744   0.235
13916TIP3    H241694   5.274   6.727   0.344
13917TIP3   OH241695   4.062   4.228   0.123
13917TIP3    H141696   4.135   4.230   0.185
13917TIP3    H241697   4.054   4.319   0.093
13918TIP3   OH241698   8.138   6.734   1.317
13918TIP3    H141699   8.167   6.646   1.342
13918TIP3    H241700   8.196   6.793   1.364
13919TIP3   OH241701   3.867   2.991   4.576
13919TIP3    H141702   3.839   2.987   4.668
13919TIP3    H241703   3.941   2.931   4.571
13920TIP3   OH241704   1.250   2.522   1.155
13920TIP3    H141705   1.199   2.550   1.079
13920TIP3    H241706   1.215   2.435   1.176
13921TIP3   OH241707   2.443   5.137   1.788
13921TIP3    H141708   2.408   5.129   1.699
13921TIP3    H241709   2.368   5.124   1.845
13922TIP3   OH241710   4.275   5.605   3.275
13922TIP3    H141711   4.313   5.519   3.254
13922TIP3    H241712   4.350   5.664   3.276
13923TIP3   OH241713   6.213   7.772   4.115
13923TIP3    H141714   6.204   7.685   4.154
13923TIP3    H241715   6.175   7.764   4.028
13924TIP3   OH241716   1.207   1.581   3.266
13924TIP3    H141717   1.200   1.635   3.188
13924TIP3    H241718   1.248   1.500   3.236
13925TIP3   OH241719   2.062   7.622   5.605
13925TIP3    H141720   1.967   7.613   5.609
13925TIP3    H241721   2.078   7.683   5.533
13926TIP3   OH241722   1.861   7.106   0.226
13926TIP3    H141723   1.835   7.189   0.267
13926TIP3    H241724   1.941   7.128   0.178
13927TIP3   OH241725   0.863   6.009   4.030
13927TIP3    H141726   0.929   5.966   3.975
13927TIP3    H241727   0.779   5.976   3.996
13928TIP3   OH241728   4.165   5.421   0.760
13928TIP3    H141729   4.136   5.336   0.792
13928TIP3    H241730   4.132   5.484   0.824
13929TIP3   OH241731   7.332   5.549   2.337
13929TIP3    H141732   7.377   5.559   2.421
13929TIP3    H241733   7.317   5.638   2.307
13930TIP3   OH241734   0.191   6.725   3.529
13930TIP3    H141735   0.276   6.683   3.545
13930TIP3    H241736   0.194   6.805   3.581
13931TIP3   OH241737   3.035   2.183   3.769
13931TIP3    H141738   3.045   2.232   3.688
13931TIP3    H241739   2.941   2.190   3.790
13932TIP3   OH241740   3.138   5.307   6.439
13932TIP3    H141741   3.047   5.287   6.462
13932TIP3    H241742   3.159   5.247   6.368
13933TIP3   OH241743   0.218   4.110   1.341
13933TIP3    H141744   0.172   4.026   1.341
13933TIP3    H241745   0.156   4.171   1.381
13934TIP3   OH241746   1.942   6.481   6.525
13934TIP3    H141747   1.870   6.541   6.504
13934TIP3    H241748   1.924   6.453   6.615
13935TIP3   OH241749   1.506   0.937   2.907
13935TIP3    H141750   1.429   0.908   2.955
13935TIP3    H241751   1.516   1.029   2.932
13936TIP3   OH241752   7.429   2.129   6.270
13936TIP3    H141753   7.334   2.139   6.281
13936TIP3    H241754   7.458   2.212   6.232
13937TIP3   OH241755   6.329   5.989   0.240
13937TIP3    H141756   6.404   5.937   0.209
13937TIP3    H241757   6.349   6.079   0.212
13938TIP3   OH241758   4.312   5.132   2.969
13938TIP3    H141759   4.271   5.172   2.892
13938TIP3    H241760   4.312   5.038   2.951
13939TIP3   OH241761   1.736   3.551   4.348
13939TIP3    H141762   1.678   3.524   4.277
13939TIP3    H241763   1.680   3.547   4.426
13940TIP3   OH241764   6.682   2.473   3.088
13940TIP3    H141765   6.614   2.495   3.024
13940TIP3    H241766   6.709   2.384   3.066
13941TIP3   OH241767   3.058   4.106   2.622
13941TIP3    H141768   2.973   4.071   2.598
13941TIP3    H241769   3.102   4.035   2.668
13942TIP3   OH241770   3.584   3.416   1.516
13942TIP3    H141771   3.626   3.428   1.601
13942TIP3    H241772   3.498   3.378   1.537
13943TIP3   OH241773   2.027   7.741   4.551
13943TIP3    H141774   2.050   7.787   4.471
13943TIP3    H241775   2.087   7.775   4.617
13944TIP3   OH241776   2.561   4.625   4.246
13944TIP3    H141777   2.473   4.639   4.280
13944TIP3    H241778   2.613   4.602   4.323
13945TIP3   OH241779   5.089   6.125   4.172
13945TIP3    H141780   5.126   6.071   4.102
13945TIP3    H241781   5.063   6.206   4.129
13946TIP3   OH241782   3.320   5.985   5.720
13946TIP3    H141783   3.243   6.022   5.762
13946TIP3    H241784   3.369   6.061   5.688
13947TIP3   OH241785   8.237   0.076   5.873
13947TIP3    H141786   8.149   0.054   5.843
13947TIP3    H241787   8.239   0.172   5.873
13948TIP3   OH241788   4.816   2.724   4.253
13948TIP3    H141789   4.799   2.779   4.176
13948TIP3    H241790   4.757   2.756   4.320
13949TIP3   OH241791   7.443   5.119   0.492
13949TIP3    H141792   7.450   5.106   0.586
13949TIP3    H241793   7.363   5.074   0.467
13950TIP3   OH241794   6.310   5.918   1.567
13950TIP3    H141795   6.288   5.898   1.476
13950TIP3    H241796   6.225   5.938   1.608
13951TIP3   OH241797   1.033   2.860   1.041
13951TIP3    H141798   1.099   2.928   1.037
13951TIP3    H241799   1.036   2.828   1.132
13952TIP3   OH241800   6.428   0.225   6.299
13952TIP3    H141801   6.385   0.145   6.331
13952TIP3    H241802   6.356   0.288   6.289
13953TIP3   OH241803   5.675   3.168   4.552
13953TIP3    H141804   5.582   3.170   4.528
13953TIP3    H241805   5.719   3.135   4.474
13954TIP3   OH241806   3.009   5.408   6.738
13954TIP3    H141807   2.954   5.383   6.665
13954TIP3    H241808   3.080   5.344   6.738
13955TIP3   OH241809   5.569   3.824   5.061
13955TIP3    H141810   5.527   3.779   4.987
13955TIP3    H241811   5.500   3.881   5.096
13956TIP3   OH241812   0.571   3.743   6.650
13956TIP3    H141813   0.554   3.819   6.594
13956TIP3    H241814   0.570   3.668   6.591
13957TIP3   OH241815   8.069   6.298   6.120
13957TIP3    H141816   8.105   6.211   6.139
13957TIP3    H241817   8.044   6.334   6.205
13958TIP3   OH241818   3.203   5.497   1.014
13958TIP3    H141819   3.224   5.467   0.925
13958TIP3    H241820   3.125   5.552   1.003
13959TIP3   OH241821   6.741   2.935   6.405
13959TIP3    H141822   6.762   2.916   6.496
13959TIP3    H241823   6.744   2.850   6.361
13960TIP3   OH241824   6.730   4.882   5.303
13960TIP3    H141825   6.703   4.853   5.391
13960TIP3    H241826   6.775   4.806   5.266
13961TIP3   OH241827   2.643   1.335   3.947
13961TIP3    H141828   2.681   1.253   3.916
13961TIP3    H241829   2.659   1.335   4.041
13962TIP3   OH241830   7.311   0.478   4.679
13962TIP3    H141831   7.302   0.554   4.737
13962TIP3    H241832   7.389   0.432   4.711
13963TIP3   OH241833   5.591   4.623   2.665
13963TIP3    H141834   5.649   4.653   2.595
13963TIP3    H241835   5.647   4.570   2.722
13964TIP3   OH241836   2.387   4.874   6.592
13964TIP3    H141837   2.372   4.969   6.591
13964TIP3    H241838   2.440   4.858   6.514
13965TIP3   OH241839   7.264   2.321   4.840
13965TIP3    H141840   7.352   2.355   4.824
13965TIP3    H241841   7.221   2.389   4.890
13966TIP3   OH241842   1.310   3.623   2.465
13966TIP3    H141843   1.290   3.711   2.432
13966TIP3    H241844   1.394   3.633   2.509
13967TIP3   OH241845   0.292   3.465   2.246
13967TIP3    H141846   0.277   3.496   2.335
13967TIP3    H241847   0.205   3.447   2.212
13968TIP3   OH241848   0.130   6.097   3.355
13968TIP3    H141849   0.089   6.013   3.333
13968TIP3    H241850   0.218   6.073   3.386
13969TIP3   OH241851   2.047   0.397   1.167
13969TIP3    H141852   2.078   0.488   1.168
13969TIP3    H241853   2.126   0.344   1.172
13970TIP3   OH241854   6.753   2.249   2.388
13970TIP3    H141855   6.775   2.284   2.474
13970TIP3    H241856   6.772   2.155   2.396
13971TIP3   OH241857   3.270   5.496   4.578
13971TIP3    H141858   3.228   5.423   4.622
13971TIP3    H241859   3.354   5.507   4.622
13972TIP3   OH241860   1.571   6.065   1.298
13972TIP3    H141861   1.653   6.087   1.342
13972TIP3    H241862   1.506   6.062   1.368
13973TIP3   OH241863   2.225   0.628   0.060
13973TIP3    H141864   2.164   0.565   0.099
13973TIP3    H241865   2.275   0.576  -0.003
13974TIP3   OH241866   3.796   2.039   6.491
13974TIP3    H141867   3.803   2.079   6.578
13974TIP3    H241868   3.727   1.973   6.500
13975TIP3   OH241869   6.437   5.220   3.959
13975TIP3    H141870   6.509   5.248   4.016
13975TIP3    H241871   6.475   5.217   3.872
13976TIP3   OH241872   6.325   3.890   6.553
13976TIP3    H141873   6.264   3.964   6.550
13976TIP3    H241874   6.293   3.831   6.484
13977TIP3   OH241875   1.596   7.854   4.405
13977TIP3    H141876   1.503   7.835   4.392
13977TIP3    H241877   1.623   7.794   4.475
13978TIP3   OH241878   2.688   2.539   2.496
13978TIP3    H141879   2.780   2.563   2.507
13978TIP3    H241880   2.686   2.488   2.415
13979TIP3   OH241881   4.717   7.285   5.769
13979TIP3    H141882   4.635   7.236   5.762
13979TIP3    H241883   4.701   7.364   5.717
13980TIP3   OH241884   8.175   7.548   5.706
13980TIP3    H141885   8.220   7.549   5.791
13980TIP3    H241886   8.165   7.641   5.683
13981TIP3   OH241887   5.594   1.711   1.570
13981TIP3    H141888   5.510   1.682   1.606
13981TIP3    H241889   5.619   1.786   1.625
13982TIP3   OH241890   7.758   1.629   6.463
13982TIP3    H141891   7.831   1.587   6.416
13982TIP3    H241892   7.703   1.666   6.394
13983TIP3   OH241893   7.872   6.814   1.304
13983TIP3    H141894   7.966   6.802   1.323
13983TIP3    H241895   7.841   6.870   1.376
13984TIP3   OH241896   6.887   3.601   2.055
13984TIP3    H141897   6.850   3.553   1.981
13984TIP3    H241898   6.920   3.533   2.113
13985TIP3   OH241899   2.577   7.660   2.924
13985TIP3    H141900   2.580   7.569   2.894
13985TIP3    H241901   2.663   7.675   2.963
13986TIP3   OH241902   7.143   2.397   3.724
13986TIP3    H141903   7.109   2.425   3.639
13986TIP3    H241904   7.197   2.471   3.754
13987TIP3   OH241905   1.798   4.298   0.175
13987TIP3    H141906   1.822   4.210   0.205
13987TIP3    H241907   1.849   4.357   0.231
13988TIP3   OH241908   7.615   5.715   0.310
13988TIP3    H141909   7.685   5.661   0.347
13988TIP3    H241910   7.659   5.769   0.244
13989TIP3   OH241911   4.170   0.297   6.233
13989TIP3    H141912   4.246   0.280   6.289
13989TIP3    H241913   4.095   0.290   6.291
13990TIP3   OH241914   7.588   1.619   2.715
13990TIP3    H141915   7.612   1.537   2.759
13990TIP3    H241916   7.666   1.674   2.724
13991TIP3   OH241917   0.094   1.069   5.807
13991TIP3    H141918   0.137   1.073   5.892
13991TIP3    H241919   0.166   1.061   5.744
13992TIP3   OH241920   7.481   1.432   2.518
13992TIP3    H141921   7.507   1.468   2.603
13992TIP3    H241922   7.401   1.383   2.536
13993TIP3   OH241923   2.811   5.592   3.409
13993TIP3    H141924   2.814   5.620   3.318
13993TIP3    H241925   2.723   5.556   3.420
13994TIP3   OH241926   0.769   3.720   1.195
13994TIP3    H141927   0.780   3.744   1.103
13994TIP3    H241928   0.830   3.777   1.241
13995TIP3   OH241929   5.824   7.073   3.641
13995TIP3    H141930   5.886   7.061   3.569
13995TIP3    H241931   5.758   7.005   3.627
13996TIP3   OH241932   3.394   7.463   0.293
13996TIP3    H141933   3.304   7.445   0.318
13996TIP3    H241934   3.445   7.391   0.330
13997TIP3   OH241935   3.976   3.009   5.957
13997TIP3    H141936   4.057   2.993   6.005
13997TIP3    H241937   3.953   3.099   5.978
13998TIP3   OH241938   0.409   2.689   5.590
13998TIP3    H141939   0.491   2.650   5.558
13998TIP3    H241940   0.416   2.686   5.685
13999TIP3   OH241941   0.898   0.789   0.531
13999TIP3    H141942   0.823   0.781   0.590
13999TIP3    H241943   0.939   0.872   0.554
14000TIP3   OH241944   4.754   7.415   3.558
14000TIP3    H141945   4.695   7.437   3.630
14000TIP3    H241946   4.759   7.320   3.559
14001TIP3   OH241947   2.920   7.808   1.554
14001TIP3    H141948   2.827   7.794   1.567
14001TIP3    H241949   2.936   7.897   1.587
14002TIP3   OH241950   6.396   1.886   2.346
14002TIP3    H141951   6.490   1.904   2.356
14002TIP3    H241952   6.354   1.952   2.402
14003TIP3   OH241953   0.845   1.042   4.816
14003TIP3    H141954   0.784   1.091   4.871
14003TIP3    H241955   0.789   1.003   4.748
14004TIP3   OH241956   3.517   0.294   3.662
14004TIP3    H141957   3.440   0.278   3.607
14004TIP3    H241958   3.550   0.379   3.633
14005TIP3   OH241959   7.186   2.057   2.122
14005TIP3    H141960   7.117   2.090   2.064
14005TIP3    H241961   7.266   2.098   2.090
14006TIP3   OH241962   7.032   1.310   4.150
14006TIP3    H141963   7.078   1.241   4.102
14006TIP3    H241964   6.941   1.280   4.155
14007TIP3   OH241965   1.243   2.890   1.425
14007TIP3    H141966   1.257   2.985   1.424
14007TIP3    H241967   1.299   2.858   1.354
14008TIP3   OH241968   0.521   2.826   6.160
14008TIP3    H141969   0.523   2.840   6.255
14008TIP3    H241970   0.594   2.878   6.126
14009TIP3   OH241971   7.055   6.206   5.894
14009TIP3    H141972   7.003   6.223   5.816
14009TIP3    H241973   7.096   6.289   5.916
14010TIP3   OH241974   6.747   6.830   2.327
14010TIP3    H141975   6.724   6.740   2.302
14010TIP3    H241976   6.727   6.882   2.249
14011TIP3   OH241977   0.357   6.323   1.807
14011TIP3    H141978   0.354   6.413   1.838
14011TIP3    H241979   0.433   6.320   1.749
14012TIP3   OH241980   4.724   7.003   0.891
14012TIP3    H141981   4.754   7.003   0.981
14012TIP3    H241982   4.631   7.024   0.896
14013TIP3   OH241983   7.641   1.926   2.877
14013TIP3    H141984   7.713   1.864   2.884
14013TIP3    H241985   7.595   1.902   2.796
14014TIP3   OH241986   1.075   7.630   4.812
14014TIP3    H141987   1.008   7.677   4.762
14014TIP3    H241988   1.061   7.538   4.791
14015TIP3   OH241989   4.794   7.664   3.288
14015TIP3    H141990   4.765   7.704   3.370
14015TIP3    H241991   4.887   7.684   3.283
14016TIP3   OH241992   0.692   1.743   4.925
14016TIP3    H141993   0.734   1.677   4.980
14016TIP3    H241994   0.671   1.696   4.844
14017TIP3   OH241995   6.302   2.372   3.869
14017TIP3    H141996   6.270   2.462   3.880
14017TIP3    H241997   6.224   2.322   3.845
14018TIP3   OH241998   3.856   3.718   2.136
14018TIP3    H141999   3.945   3.686   2.149
14018TIP3    H242000   3.818   3.718   2.224
14019TIP3   OH242001   0.942   0.914   5.285
14019TIP3    H142002   0.867   0.901   5.228
14019TIP3    H242003   0.978   0.826   5.298
14020TIP3   OH242004   6.004   7.379   3.359
14020TIP3    H142005   5.986   7.312   3.425
14020TIP3    H242006   5.918   7.397   3.320
14021TIP3   OH242007   1.895   3.766   4.373
14021TIP3    H142008   1.908   3.780   4.467
14021TIP3    H242009   1.847   3.684   4.367
14022TIP3   OH242010   1.886   6.022   1.403
14022TIP3    H142011   1.910   5.961   1.473
14022TIP3    H242012   1.872   5.966   1.326
14023TIP3   OH242013   2.979   7.197   2.831
14023TIP3    H142014   2.900   7.166   2.785
14023TIP3    H242015   2.947   7.266   2.890
14024TIP3   OH242016   7.681   2.572   5.287
14024TIP3    H142017   7.609   2.534   5.237
14024TIP3    H242018   7.656   2.559   5.379
14025TIP3   OH242019   7.157   3.508   4.640
14025TIP3    H142020   7.113   3.557   4.571
14025TIP3    H242021   7.098   3.434   4.658
14026TIP3   OH242022   4.204   0.891   2.197
14026TIP3    H142023   4.162   0.897   2.283
14026TIP3    H242024   4.278   0.832   2.212
14027TIP3   OH242025   3.459   7.484   3.768
14027TIP3    H142026   3.523   7.419   3.739
14027TIP3    H242027   3.445   7.464   3.860
14028TIP3   OH242028   3.912   2.141   1.419
14028TIP3    H142029   3.985   2.079   1.409
14028TIP3    H242030   3.869   2.116   1.500
14029TIP3   OH242031   3.739   7.269   2.640
14029TIP3    H142032   3.828   7.259   2.606
14029TIP3    H242033   3.685   7.283   2.563
14030TIP3   OH242034   7.493   6.079   2.822
14030TIP3    H142035   7.534   6.044   2.901
14030TIP3    H242036   7.479   6.171   2.841
14031TIP3   OH242037   8.295   3.224   0.618
14031TIP3    H142038   8.346   3.287   0.669
14031TIP3    H242039   8.220   3.203   0.673
14032TIP3   OH242040   3.993   4.375   0.874
14032TIP3    H142041   3.963   4.434   0.804
14032TIP3    H242042   3.943   4.295   0.861
14033TIP3   OH242043   3.360   6.196   0.496
14033TIP3    H142044   3.309   6.173   0.418
14033TIP3    H242045   3.345   6.124   0.557
14034TIP3   OH242046   6.859   7.665   6.343
14034TIP3    H142047   6.913   7.742   6.361
14034TIP3    H242048   6.897   7.596   6.396
14035TIP3   OH242049   1.421   5.702   2.314
14035TIP3    H142050   1.414   5.606   2.313
14035TIP3    H242051   1.393   5.729   2.227
14036TIP3   OH242052   2.427   5.905   3.505
14036TIP3    H142053   2.439   5.983   3.559
14036TIP3    H242054   2.510   5.896   3.457
14037TIP3   OH242055   6.936   1.844   4.474
14037TIP3    H142056   6.936   1.858   4.569
14037TIP3    H242057   6.843   1.843   4.450
14038TIP3   OH242058   4.692   5.058   2.892
14038TIP3    H142059   4.645   4.978   2.916
14038TIP3    H242060   4.632   5.104   2.833
14039TIP3   OH242061   1.954   2.900   3.529
14039TIP3    H142062   1.958   2.918   3.623
14039TIP3    H242063   1.945   2.986   3.488
14040TIP3   OH242064   3.117   0.352   2.350
14040TIP3    H142065   3.133   0.369   2.257
14040TIP3    H242066   3.151   0.429   2.394
14041TIP3   OH242067   0.540   2.181   0.729
14041TIP3    H142068   0.621   2.130   0.734
14041TIP3    H242069   0.474   2.124   0.770
14042TIP3   OH242070   2.743   6.470   5.265
14042TIP3    H142071   2.810   6.410   5.233
14042TIP3    H242072   2.718   6.521   5.188
14043TIP3   OH242073   5.903   7.623   0.435
14043TIP3    H142074   5.866   7.703   0.472
14043TIP3    H242075   5.878   7.625   0.343
14044TIP3   OH242076   6.858   4.117   2.594
14044TIP3    H142077   6.771   4.097   2.629
14044TIP3    H242078   6.852   4.092   2.501
14045TIP3   OH242079   1.541   7.710   3.760
14045TIP3    H142080   1.555   7.695   3.854
14045TIP3    H242081   1.461   7.662   3.739
14046TIP3   OH242082   7.577   4.335   5.222
14046TIP3    H142083   7.600   4.336   5.315
14046TIP3    H242084   7.572   4.428   5.198
14047TIP3   OH242085   4.520   2.202   4.253
14047TIP3    H142086   4.518   2.132   4.188
14047TIP3    H242087   4.590   2.178   4.313
14048TIP3   OH242088   3.072   2.578   1.704
14048TIP3    H142089   3.046   2.619   1.622
14048TIP3    H242090   3.032   2.633   1.772
14049TIP3   OH242091   6.739   2.789   0.275
14049TIP3    H142092   6.752   2.729   0.202
14049TIP3    H242093   6.822   2.787   0.323
14050TIP3   OH242094   2.463   4.860   2.832
14050TIP3    H142095   2.550   4.850   2.870
14050TIP3    H242096   2.460   4.795   2.762
14051TIP3   OH242097   2.759   2.243   3.694
14051TIP3    H142098   2.777   2.336   3.681
14051TIP3    H242099   2.679   2.227   3.645
14052TIP3   OH242100   5.982   7.444  -0.008
14052TIP3    H142101   5.952   7.514   0.049
14052TIP3    H242102   6.077   7.442   0.005
14053TIP3   OH242103   0.337   4.402   4.657
14053TIP3    H142104   0.309   4.318   4.622
14053TIP3    H242105   0.293   4.467   4.603
14054TIP3   OH242106   3.787   5.133   4.530
14054TIP3    H142107   3.784   5.191   4.607
14054TIP3    H242108   3.874   5.148   4.493
14055TIP3   OH242109   2.024   4.736   4.744
14055TIP3    H142110   2.067   4.777   4.819
14055TIP3    H242111   1.937   4.711   4.776
14056TIP3   OH242112   0.742   6.677   1.811
14056TIP3    H142113   0.785   6.749   1.765
14056TIP3    H242114   0.813   6.616   1.832
14057TIP3   OH242115   7.212   2.358   1.130
14057TIP3    H142116   7.156   2.373   1.054
14057TIP3    H242117   7.177   2.278   1.170
14058TIP3   OH242118   3.296   4.950   5.566
14058TIP3    H142119   3.372   4.893   5.555
14058TIP3    H242120   3.331   5.031   5.603
14059TIP3   OH242121   1.381   5.521   0.817
14059TIP3    H142122   1.371   5.501   0.910
14059TIP3    H242123   1.425   5.606   0.815
14060TIP3   OH242124   5.678   7.747   3.196
14060TIP3    H142125   5.684   7.842   3.184
14060TIP3    H242126   5.600   7.735   3.250
14061TIP3   OH242127   7.113   6.949   0.676
14061TIP3    H142128   7.139   6.899   0.754
14061TIP3    H242129   7.080   6.884   0.615
14062TIP3   OH242130   3.866   0.273   1.467
14062TIP3    H142131   3.888   0.361   1.496
14062TIP3    H242132   3.918   0.216   1.523
14063TIP3   OH242133   2.203   2.823   2.382
14063TIP3    H142134   2.205   2.796   2.474
14063TIP3    H242135   2.271   2.771   2.340
14064TIP3   OH242136   6.548   0.765   4.490
14064TIP3    H142137   6.513   0.847   4.524
14064TIP3    H242138   6.615   0.792   4.426
14065TIP3   OH242139   1.222   5.018   6.394
14065TIP3    H142140   1.203   4.966   6.316
14065TIP3    H242141   1.317   5.021   6.399
14066TIP3   OH242142   8.090   6.183   4.947
14066TIP3    H142143   8.047   6.255   4.993
14066TIP3    H242144   8.061   6.104   4.992
14067TIP3   OH242145   0.949   6.231   5.054
14067TIP3    H142146   1.031   6.265   5.018
14067TIP3    H242147   0.882   6.290   5.019
14068TIP3   OH242148   0.733   4.279   3.861
14068TIP3    H142149   0.719   4.193   3.822
14068TIP3    H242150   0.827   4.296   3.851
14069TIP3   OH242151   6.603   7.455   5.713
14069TIP3    H142152   6.575   7.394   5.645
14069TIP3    H242153   6.523   7.481   5.758
14070TIP3   OH242154   1.728   2.793   5.006
14070TIP3    H142155   1.769   2.836   5.080
14070TIP3    H242156   1.673   2.861   4.966
14071TIP3   OH242157   8.196   7.460   3.070
14071TIP3    H142158   8.257   7.519   3.025
14071TIP3    H242159   8.192   7.493   3.160
14072TIP3   OH242160   4.569   1.639   6.216
14072TIP3    H142161   4.525   1.557   6.237
14072TIP3    H242162   4.652   1.636   6.264
14073TIP3   OH242163   2.090   2.272   2.458
14073TIP3    H142164   2.065   2.182   2.437
14073TIP3    H242165   2.063   2.284   2.548
14074TIP3   OH242166   3.830   5.182   2.577
14074TIP3    H142167   3.828   5.272   2.610
14074TIP3    H242168   3.738   5.161   2.560
14075TIP3   OH242169   0.940   7.392   2.183
14075TIP3    H142170   0.972   7.356   2.266
14075TIP3    H242171   0.941   7.317   2.123
14076TIP3   OH242172   3.358   3.093   3.660
14076TIP3    H142173   3.309   3.090   3.742
14076TIP3    H242174   3.374   3.186   3.644
14077TIP3   OH242175   6.836   4.494   4.946
14077TIP3    H142176   6.785   4.562   4.991
14077TIP3    H242177   6.777   4.459   4.880
14078TIP3   OH242178   7.892   7.533   3.438
14078TIP3    H142179   7.948   7.456   3.438
14078TIP3    H242180   7.953   7.606   3.428
14079TIP3   OH242181   6.034   2.518   4.708
14079TIP3    H142182   5.994   2.590   4.757
14079TIP3    H242183   6.002   2.530   4.618
14080TIP3   OH242184   2.070   7.575   3.694
14080TIP3    H142185   2.165   7.573   3.687
14080TIP3    H242186   2.039   7.544   3.609
14081TIP3   OH242187   3.367   7.386   0.889
14081TIP3    H142188   3.299   7.348   0.944
14081TIP3    H242189   3.367   7.331   0.810
14082TIP3   OH242190   7.374   6.528   3.576
14082TIP3    H142191   7.422   6.609   3.557
14082TIP3    H242192   7.428   6.483   3.641
14083TIP3   OH242193   3.103   3.810   5.836
14083TIP3    H142194   3.063   3.740   5.784
14083TIP3    H242195   3.195   3.783   5.845
14084TIP3   OH242196   5.184   5.805   6.456
14084TIP3    H142197   5.176   5.783   6.363
14084TIP3    H242198   5.276   5.828   6.467
14085TIP3   OH242199   1.200   7.030   3.675
14085TIP3    H142200   1.279   7.073   3.707
14085TIP3    H242201   1.145   7.101   3.642
14086TIP3   OH242202   6.385   1.118   4.953
14086TIP3    H142203   6.311   1.058   4.944
14086TIP3    H242204   6.414   1.107   5.043
14087TIP3   OH242205   3.396   5.151   5.001
14087TIP3    H142206   3.315   5.124   4.958
14087TIP3    H242207   3.398   5.101   5.083
14088TIP3   OH242208   6.235   6.860   6.622
14088TIP3    H142209   6.172   6.823   6.560
14088TIP3    H242210   6.183   6.884   6.698
14089TIP3   OH242211   5.552   1.952   1.375
14089TIP3    H142212   5.604   1.909   1.442
14089TIP3    H242213   5.506   1.880   1.331
14090TIP3   OH242214   1.632   2.534   0.413
14090TIP3    H142215   1.628   2.470   0.342
14090TIP3    H242216   1.719   2.573   0.405
14091TIP3   OH242217   0.420   2.497   0.959
14091TIP3    H142218   0.446   2.587   0.942
14091TIP3    H242219   0.414   2.457   0.873
14092TIP3   OH242220   2.301   3.976   1.665
14092TIP3    H142221   2.264   4.062   1.687
14092TIP3    H242222   2.237   3.913   1.697
14093TIP3   OH242223   8.162   5.858   0.211
14093TIP3    H142224   8.173   5.781   0.267
14093TIP3    H242225   8.185   5.932   0.268
14094TIP3   OH242226   4.169   3.576   1.256
14094TIP3    H142227   4.125   3.586   1.341
14094TIP3    H242228   4.119   3.507   1.212
14095TIP3   OH242229   3.804   1.711   2.668
14095TIP3    H142230   3.846   1.699   2.584
14095TIP3    H242231   3.824   1.802   2.693
14096TIP3   OH242232   4.681   2.397   5.740
14096TIP3    H142233   4.682   2.302   5.750
14096TIP3    H242234   4.696   2.431   5.828
14097TIP3   OH242235   1.927   0.699   5.731
14097TIP3    H142236   1.941   0.752   5.810
14097TIP3    H242237   1.835   0.672   5.736
14098TIP3   OH242238   5.916   1.756   2.274
14098TIP3    H142239   5.926   1.708   2.193
14098TIP3    H242240   5.850   1.707   2.324
14099TIP3   OH242241   3.336   6.314   6.267
14099TIP3    H142242   3.287   6.298   6.348
14099TIP3    H242243   3.270   6.346   6.205
14100TIP3   OH242244   0.032   6.953   2.779
14100TIP3    H142245  -0.014   6.873   2.752
14100TIP3    H242246   0.120   6.923   2.804
14101TIP3   OH242247   6.062   6.773   5.099
14101TIP3    H142248   6.100   6.687   5.077
14101TIP3    H242249   5.993   6.753   5.162
14102TIP3   OH242250   6.068   0.258   3.259
14102TIP3    H142251   6.008   0.325   3.227
14102TIP3    H242252   6.012   0.198   3.309
14103TIP3   OH242253   7.987   6.459   1.837
14103TIP3    H142254   8.038   6.396   1.786
14103TIP3    H242255   8.021   6.451   1.926
14104TIP3   OH242256   1.253   6.277   4.646
14104TIP3    H142257   1.261   6.339   4.573
14104TIP3    H242258   1.341   6.274   4.685
14105TIP3   OH242259   3.581   0.283   5.212
14105TIP3    H142260   3.573   0.321   5.124
14105TIP3    H242261   3.527   0.204   5.209
14106TIP3   OH242262   3.230   0.494   3.661
14106TIP3    H142263   3.207   0.463   3.573
14106TIP3    H242264   3.222   0.416   3.716
14107TIP3   OH242265   5.795   7.375   0.536
14107TIP3    H142266   5.854   7.379   0.460
14107TIP3    H242267   5.790   7.466   0.566
14108TIP3   OH242268   2.768   6.897   2.578
14108TIP3    H142269   2.698   6.895   2.513
14108TIP3    H242270   2.746   6.971   2.635
14109TIP3   OH242271   8.012   0.768   4.486
14109TIP3    H142272   8.006   0.774   4.582
14109TIP3    H242273   8.015   0.859   4.456
14110TIP3   OH242274   2.698   2.882   3.198
14110TIP3    H142275   2.608   2.877   3.168
14110TIP3    H242276   2.747   2.825   3.138
14111TIP3   OH242277   1.161   3.195   3.700
14111TIP3    H142278   1.112   3.167   3.623
14111TIP3    H242279   1.098   3.246   3.751
14112TIP3   OH242280   1.715   7.105   6.622
14112TIP3    H142281   1.661   7.026   6.614
14112TIP3    H242282   1.656   7.177   6.600
14113TIP3   OH242283   1.441   2.777   2.960
14113TIP3    H142284   1.448   2.861   2.914
14113TIP3    H242285   1.373   2.792   3.026
14114TIP3   OH242286   1.862   0.306   2.607
14114TIP3    H142287   1.925   0.349   2.665
14114TIP3    H242288   1.916   0.251   2.550
14115TIP3   OH242289   7.265   6.131   4.735
14115TIP3    H142290   7.310   6.211   4.761
14115TIP3    H242291   7.314   6.061   4.777
14116TIP3   OH242292   7.792   1.523   1.240
14116TIP3    H142293   7.699   1.500   1.230
14116TIP3    H242294   7.837   1.439   1.247
14117TIP3   OH242295   0.834   2.510   5.657
14117TIP3    H142296   0.888   2.440   5.693
14117TIP3    H242297   0.895   2.582   5.639
14118TIP3   OH242298   2.229   6.040   4.002
14118TIP3    H142299   2.323   6.049   4.020
14118TIP3    H242300   2.223   5.969   3.938
14119TIP3   OH242301   4.676   4.861   5.351
14119TIP3    H142302   4.602   4.837   5.406
14119TIP3    H242303   4.690   4.785   5.295
14120TIP3   OH242304   6.657   0.442   2.568
14120TIP3    H142305   6.646   0.499   2.644
14120TIP3    H242306   6.619   0.359   2.596
14121TIP3   OH242307   2.597   7.458   5.648
14121TIP3    H142308   2.602   7.415   5.733
14121TIP3    H242309   2.525   7.414   5.603
14122TIP3   OH242310   4.307   0.735   0.511
14122TIP3    H142311   4.338   0.779   0.590
14122TIP3    H242312   4.300   0.643   0.536
14123TIP3   OH242313   4.338   2.475   0.041
14123TIP3    H142314   4.281   2.456  -0.034
14123TIP3    H242315   4.425   2.486   0.003
14124TIP3   OH242316   4.664   2.393   0.249
14124TIP3    H142317   4.602   2.323   0.230
14124TIP3    H242318   4.716   2.401   0.169
14125TIP3   OH242319   5.142   5.438   5.743
14125TIP3    H142320   5.181   5.431   5.656
14125TIP3    H242321   5.113   5.529   5.749
14126TIP3   OH242322   7.972   1.729   5.247
14126TIP3    H142323   8.015   1.798   5.298
14126TIP3    H242324   7.879   1.750   5.250
14127TIP3   OH242325   2.309   6.764   4.109
14127TIP3    H142326   2.368   6.690   4.097
14127TIP3    H242327   2.263   6.745   4.192
14128TIP3   OH242328   2.039   1.151   2.871
14128TIP3    H142329   2.041   1.058   2.847
14128TIP3    H242330   2.100   1.159   2.944
14129TIP3   OH242331   3.144   0.426   0.344
14129TIP3    H142332   3.226   0.471   0.326
14129TIP3    H242333   3.118   0.458   0.431
14130TIP3   OH242334   3.994   7.042   0.699
14130TIP3    H142335   3.945   7.101   0.641
14130TIP3    H242336   4.086   7.056   0.675
14131TIP3   OH242337   3.053   0.975   0.915
14131TIP3    H142338   3.112   1.006   0.984
14131TIP3    H242339   3.011   1.055   0.882
14132TIP3   OH242340   6.096   4.339   6.342
14132TIP3    H142341   6.187   4.363   6.326
14132TIP3    H242342   6.050   4.423   6.352
14133TIP3   OH242343   6.971   6.842   0.119
14133TIP3    H142344   6.949   6.891   0.040
14133TIP3    H242345   6.903   6.866   0.182
14134TIP3   OH242346   2.637   2.783   3.679
14134TIP3    H142347   2.672   2.863   3.718
14134TIP3    H242348   2.634   2.721   3.752
14135TIP3   OH242349   3.888   5.491   4.093
14135TIP3    H142350   3.932   5.490   4.008
14135TIP3    H242351   3.858   5.581   4.104
14136TIP3   OH242352   7.058   3.701   4.829
14136TIP3    H142353   7.026   3.681   4.917
14136TIP3    H242354   7.131   3.640   4.817
14137TIP3   OH242355   7.575   1.013   3.005
14137TIP3    H142356   7.558   1.064   2.926
14137TIP3    H242357   7.497   1.025   3.059
14138TIP3   OH242358   4.598   7.211   5.405
14138TIP3    H142359   4.622   7.233   5.315
14138TIP3    H242360   4.662   7.256   5.460
14139TIP3   OH242361   7.297   7.671   6.686
14139TIP3    H142362   7.243   7.736   6.731
14139TIP3    H242363   7.242   7.592   6.683
14140TIP3   OH242364   4.764   5.073   5.837
14140TIP3    H142365   4.823   5.146   5.856
14140TIP3    H242366   4.729   5.092   5.750
14141TIP3   OH242367   1.076   1.608   3.495
14141TIP3    H142368   1.152   1.577   3.543
14141TIP3    H242369   1.105   1.614   3.404
14142TIP3   OH242370   5.260   3.782   3.077
14142TIP3    H142371   5.261   3.698   3.124
14142TIP3    H242372   5.342   3.824   3.104
14143TIP3   OH242373   6.128   7.610   3.534
14143TIP3    H142374   6.088   7.558   3.463
14143TIP3    H242375   6.131   7.550   3.608
14144TIP3   OH242376   7.154   5.861   2.640
14144TIP3    H142377   7.242   5.868   2.603
14144TIP3    H242378   7.143   5.943   2.689
14145TIP3   OH242379   1.743   3.388   1.798
14145TIP3    H142380   1.701   3.463   1.756
14145TIP3    H242381   1.734   3.405   1.892
14146TIP3   OH242382   3.909   0.380   3.072
14146TIP3    H142383   3.876   0.345   2.989
14146TIP3    H242384   4.002   0.361   3.072
14147TIP3   OH242385   5.608   2.613   1.368
14147TIP3    H142386   5.569   2.582   1.450
14147TIP3    H242387   5.547   2.582   1.300
14148TIP3   OH242388   0.270   4.746   5.486
14148TIP3    H142389   0.246   4.757   5.578
14148TIP3    H242390   0.224   4.817   5.441
14149TIP3   OH242391   1.777   0.848   5.980
14149TIP3    H142392   1.772   0.897   5.899
14149TIP3    H242393   1.721   0.896   6.041
14150TIP3   OH242394   7.458   3.681   1.972
14150TIP3    H142395   7.390   3.634   1.924
14150TIP3    H242396   7.505   3.613   2.020
14151TIP3   OH242397   2.943   4.636   3.763
14151TIP3    H142398   2.930   4.594   3.848
14151TIP3    H242399   3.024   4.597   3.730
14152TIP3   OH242400   4.116   5.848   4.223
14152TIP3    H142401   4.067   5.773   4.258
14152TIP3    H242402   4.096   5.847   4.129
14153TIP3   OH242403   3.420   0.230   1.254
14153TIP3    H142404   3.464   0.240   1.339
14153TIP3    H242405   3.451   0.304   1.202
14154TIP3   OH242406   2.921   3.605   0.558
14154TIP3    H142407   2.940   3.565   0.643
14154TIP3    H242408   2.849   3.666   0.576
14155TIP3   OH242409   3.860   0.297   5.170
14155TIP3    H142410   3.765   0.291   5.175
14155TIP3    H242411   3.887   0.219   5.123
14156TIP3   OH242412   3.113   1.091   3.813
14156TIP3    H142413   3.114   1.146   3.891
14156TIP3    H242414   3.192   1.037   3.820
14157TIP3   OH242415   6.066   4.015   0.257
14157TIP3    H142416   6.085   4.105   0.283
14157TIP3    H242417   5.977   3.999   0.288
14158TIP3   OH242418   7.041   5.867   0.835
14158TIP3    H142419   7.041   5.884   0.929
14158TIP3    H242420   6.949   5.854   0.813
14159TIP3   OH242421   7.066   6.719   4.164
14159TIP3    H142422   7.050   6.783   4.094
14159TIP3    H242423   7.125   6.764   4.224
14160TIP3   OH242424   7.357   4.206   3.528
14160TIP3    H142425   7.301   4.280   3.505
14160TIP3    H242426   7.437   4.247   3.562
14161TIP3   OH242427   3.150   6.313   4.880
14161TIP3    H142428   3.092   6.355   4.817
14161TIP3    H242429   3.099   6.308   4.961
14162TIP3   OH242430   3.150   6.929   1.316
14162TIP3    H142431   3.081   6.987   1.349
14162TIP3    H242432   3.222   6.940   1.378
14163TIP3   OH242433   1.422   0.309   4.554
14163TIP3    H142434   1.388   0.327   4.642
14163TIP3    H242435   1.396   0.218   4.536
14164TIP3   OH242436   7.960   1.243   5.122
14164TIP3    H142437   7.940   1.283   5.207
14164TIP3    H242438   8.055   1.248   5.114
14165TIP3   OH242439   4.932   5.456   2.758
14165TIP3    H142440   5.006   5.398   2.739
14165TIP3    H242441   4.954   5.497   2.842
14166TIP3   OH242442   0.478   5.339   1.347
14166TIP3    H142443   0.437   5.268   1.397
14166TIP3    H242444   0.404   5.387   1.310
14167TIP3   OH242445   1.424   6.905   1.767
14167TIP3    H142446   1.488   6.852   1.721
14167TIP3    H242447   1.408   6.979   1.708
14168TIP3   OH242448   7.345   4.495   4.896
14168TIP3    H142449   7.266   4.440   4.894
14168TIP3    H242450   7.313   4.581   4.922
14169TIP3   OH242451   7.356   4.540   2.213
14169TIP3    H142452   7.371   4.546   2.118
14169TIP3    H242453   7.266   4.507   2.221
14170TIP3   OH242454   6.827   1.524   4.685
14170TIP3    H142455   6.842   1.551   4.595
14170TIP3    H242456   6.903   1.471   4.707
14171TIP3   OH242457   6.915   4.563   4.288
14171TIP3    H142458   6.991   4.514   4.254
14171TIP3    H242459   6.909   4.537   4.380
14172TIP3   OH242460   2.724   1.949   0.642
14172TIP3    H142461   2.671   1.880   0.602
14172TIP3    H242462   2.663   2.022   0.653
14173TIP3   OH242463   2.503   6.127   3.614
14173TIP3    H142464   2.479   6.187   3.685
14173TIP3    H242465   2.591   6.096   3.637
14174TIP3   OH242466   4.231   0.710   2.467
14174TIP3    H142467   4.188   0.699   2.552
14174TIP3    H242468   4.180   0.656   2.407
14175TIP3   OH242469   1.686   3.142   2.044
14175TIP3    H142470   1.602   3.147   1.999
14175TIP3    H242471   1.704   3.232   2.070
14176TIP3   OH242472   6.616   2.468   4.802
14176TIP3    H142473   6.710   2.471   4.780
14176TIP3    H242474   6.577   2.535   4.745
14177TIP3   OH242475   4.526   6.741   5.719
14177TIP3    H142476   4.588   6.797   5.671
14177TIP3    H242477   4.507   6.669   5.659
14178TIP3   OH242478   3.632   1.438   2.442
14178TIP3    H142479   3.709   1.487   2.410
14178TIP3    H242480   3.581   1.504   2.489
14179TIP3   OH242481   8.014   2.785   6.166
14179TIP3    H142482   8.074   2.845   6.122
14179TIP3    H242483   7.980   2.730   6.096
14180TIP3   OH242484   1.564   7.339   6.533
14180TIP3    H142485   1.530   7.334   6.443
14180TIP3    H242486   1.489   7.366   6.585
14181TIP3   OH242487   8.066   1.789   1.895
14181TIP3    H142488   8.123   1.729   1.944
14181TIP3    H242489   8.084   1.771   1.803
14182TIP3   OH242490   4.371   7.521   1.522
14182TIP3    H142491   4.339   7.602   1.483
14182TIP3    H242492   4.293   7.465   1.528
14183TIP3   OH242493   5.207   0.595   0.753
14183TIP3    H142494   5.142   0.649   0.798
14183TIP3    H242495   5.227   0.644   0.673
14184TIP3   OH242496   6.832   1.534   2.851
14184TIP3    H142497   6.790   1.613   2.816
14184TIP3    H242498   6.854   1.557   2.941
14185TIP3   OH242499   0.148   2.409   3.096
14185TIP3    H142500   0.113   2.320   3.109
14185TIP3    H242501   0.211   2.421   3.168
14186TIP3   OH242502   4.849   4.329   3.739
14186TIP3    H142503   4.863   4.387   3.815
14186TIP3    H242504   4.800   4.255   3.775
14187TIP3   OH242505   3.705   6.342   4.063
14187TIP3    H142506   3.733   6.424   4.106
14187TIP3    H242507   3.617   6.362   4.029
14188TIP3   OH242508   7.465   0.594   6.048
14188TIP3    H142509   7.536   0.633   6.098
14188TIP3    H242510   7.393   0.655   6.055
14189TIP3   OH242511   8.257   5.986   3.049
14189TIP3    H142512   8.282   5.904   3.006
14189TIP3    H242513   8.314   6.052   3.009
14190TIP3   OH242514   5.562   1.941   4.397
14190TIP3    H142515   5.490   1.946   4.334
14190TIP3    H242516   5.582   1.848   4.404
14191TIP3   OH242517   7.823   6.036   2.348
14191TIP3    H142518   7.789   6.064   2.433
14191TIP3    H242519   7.786   5.949   2.335
14192TIP3   OH242520   3.272   2.243   1.661
14192TIP3    H142521   3.310   2.175   1.716
14192TIP3    H242522   3.347   2.294   1.630
14193TIP3   OH242523   4.904   1.161   2.740
14193TIP3    H142524   4.876   1.107   2.666
14193TIP3    H242525   4.969   1.107   2.785
14194TIP3   OH242526   3.756   0.936   1.112
14194TIP3    H142527   3.763   0.982   1.196
14194TIP3    H242528   3.839   0.956   1.068
14195TIP3   OH242529   6.666   4.077   4.550
14195TIP3    H142530   6.652   3.993   4.506
14195TIP3    H242531   6.632   4.142   4.488
14196TIP3   OH242532   5.555   6.506   2.793
14196TIP3    H142533   5.628   6.534   2.738
14196TIP3    H242534   5.483   6.493   2.731
14197TIP3   OH242535   5.959   1.415   2.764
14197TIP3    H142536   5.955   1.463   2.681
14197TIP3    H242537   5.959   1.323   2.739
14198TIP3   OH242538   1.853   1.314   6.311
14198TIP3    H142539   1.832   1.399   6.349
14198TIP3    H242540   1.773   1.288   6.264
14199TIP3   OH242541   7.760   1.316   4.726
14199TIP3    H142542   7.834   1.346   4.672
14199TIP3    H242543   7.743   1.227   4.696
14200TIP3   OH242544   3.265   6.285   4.611
14200TIP3    H142545   3.202   6.299   4.682
14200TIP3    H242546   3.235   6.341   4.540
14201TIP3   OH242547   5.180   7.509   0.031
14201TIP3    H142548   5.143   7.425   0.057
14201TIP3    H242549   5.153   7.520  -0.060
14202TIP3   OH242550   6.540   7.776   0.908
14202TIP3    H142551   6.504   7.830   0.979
14202TIP3    H242552   6.549   7.835   0.834
14203TIP3   OH242553   3.961   3.733   3.524
14203TIP3    H142554   4.025   3.670   3.557
14203TIP3    H242555   3.957   3.801   3.590
14204TIP3   OH242556   6.525   1.657   5.925
14204TIP3    H142557   6.454   1.720   5.934
14204TIP3    H242558   6.605   1.710   5.919
14205TIP3   OH242559   0.345   1.867   4.075
14205TIP3    H142560   0.425   1.911   4.104
14205TIP3    H242561   0.372   1.777   4.059
14206TIP3   OH242562   1.539   3.718   0.821
14206TIP3    H142563   1.609   3.662   0.786
14206TIP3    H242564   1.536   3.793   0.760
14207TIP3   OH242565   6.334   7.474   5.840
14207TIP3    H142566   6.259   7.416   5.824
14207TIP3    H242567   6.297   7.562   5.837
14208TIP3   OH242568   7.763   2.514   1.882
14208TIP3    H142569   7.809   2.518   1.798
14208TIP3    H242570   7.676   2.480   1.861
14209TIP3   OH242571   3.797   0.618   5.896
14209TIP3    H142572   3.792   0.525   5.916
14209TIP3    H242573   3.721   0.635   5.840
14210TIP3   OH242574   1.853   1.564   1.263
14210TIP3    H142575   1.890   1.504   1.198
14210TIP3    H242576   1.775   1.600   1.221
14211TIP3   OH242577   3.505   4.318   5.550
14211TIP3    H142578   3.411   4.315   5.533
14211TIP3    H242579   3.520   4.246   5.613
14212TIP3   OH242580   3.702   2.742   2.805
14212TIP3    H142581   3.666   2.830   2.793
14212TIP3    H242582   3.796   2.752   2.785
14213TIP3   OH242583   3.667   6.916   4.554
14213TIP3    H142584   3.608   6.894   4.627
14213TIP3    H242585   3.754   6.896   4.587
14214TIP3   OH242586   0.490   6.908   1.996
14214TIP3    H142587   0.550   6.959   2.051
14214TIP3    H242588   0.511   6.817   2.018
14215TIP3   OH242589   4.298   3.851   1.637
14215TIP3    H142590   4.346   3.861   1.554
14215TIP3    H242591   4.355   3.890   1.703
14216TIP3   OH242592   4.864   4.575   5.385
14216TIP3    H142593   4.916   4.500   5.358
14216TIP3    H242594   4.831   4.613   5.304
14217TIP3   OH242595   7.410   6.667   0.559
14217TIP3    H142596   7.348   6.607   0.518
14217TIP3    H242597   7.495   6.640   0.526
14218TIP3   OH242598   2.947   7.560   0.421
14218TIP3    H142599   2.976   7.649   0.440
14218TIP3    H242600   2.878   7.571   0.356
14219TIP3   OH242601   6.303   6.760   1.838
14219TIP3    H142602   6.292   6.756   1.933
14219TIP3    H242603   6.385   6.808   1.824
14220TIP3   OH242604   7.390   6.671   3.886
14220TIP3    H142605   7.345   6.620   3.954
14220TIP3    H242606   7.483   6.662   3.906
14221TIP3   OH242607   2.472   6.200   2.167
14221TIP3    H142608   2.444   6.128   2.224
14221TIP3    H242609   2.557   6.227   2.203
14222TIP3   OH242610   6.554   3.994   3.551
14222TIP3    H142611   6.565   4.069   3.609
14222TIP3    H242612   6.550   3.918   3.610
14223TIP3   OH242613   5.591   4.404   2.853
14223TIP3    H142614   5.643   4.368   2.780
14223TIP3    H242615   5.513   4.350   2.856
14224TIP3   OH242616   0.226   3.112   5.238
14224TIP3    H142617   0.294   3.077   5.295
14224TIP3    H242618   0.247   3.077   5.151
14225TIP3   OH242619   3.861   0.760   1.375
14225TIP3    H142620   3.840   0.685   1.431
14225TIP3    H242621   3.800   0.753   1.302
14226TIP3   OH242622   2.209   7.254   3.604
14226TIP3    H142623   2.202   7.298   3.689
14226TIP3    H242624   2.160   7.172   3.615
14227TIP3   OH242625   0.775   3.874   4.343
14227TIP3    H142626   0.706   3.843   4.402
14227TIP3    H242627   0.849   3.891   4.401
14228TIP3   OH242628   3.854   6.729   6.108
14228TIP3    H142629   3.864   6.675   6.030
14228TIP3    H242630   3.821   6.669   6.175
14229TIP3   OH242631   5.182   5.590   1.211
14229TIP3    H142632   5.124   5.551   1.276
14229TIP3    H242633   5.125   5.645   1.157
14230TIP3   OH242634   2.183   7.446   6.382
14230TIP3    H142635   2.091   7.468   6.400
14230TIP3    H242636   2.226   7.530   6.371
14231TIP3   OH242637   0.783   5.863   5.522
14231TIP3    H142638   0.796   5.770   5.507
14231TIP3    H242639   0.814   5.878   5.611
14232TIP3   OH242640   5.840   4.432   3.553
14232TIP3    H142641   5.867   4.460   3.466
14232TIP3    H242642   5.766   4.489   3.575
14233TIP3   OH242643   4.794   5.422   3.040
14233TIP3    H142644   4.817   5.384   3.125
14233TIP3    H242645   4.705   5.391   3.023
14234TIP3   OH242646   4.330   3.774   5.988
14234TIP3    H142647   4.285   3.813   6.064
14234TIP3    H242648   4.276   3.699   5.965
14235TIP3   OH242649   4.877   4.181   2.612
14235TIP3    H142650   4.833   4.167   2.528
14235TIP3    H242651   4.876   4.276   2.624
14236TIP3   OH242652   7.022   6.192   4.665
14236TIP3    H142653   7.050   6.252   4.596
14236TIP3    H242654   7.102   6.147   4.692
14237TIP3   OH242655   3.207   0.059   5.382
14237TIP3    H142656   3.124   0.107   5.391
14237TIP3    H242657   3.211   0.004   5.461
14238TIP3   OH242658   8.159   0.509   5.649
14238TIP3    H142659   8.114   0.546   5.573
14238TIP3    H242660   8.157   0.415   5.635
14239TIP3   OH242661   4.730   5.257   4.016
14239TIP3    H142662   4.764   5.202   4.087
14239TIP3    H242663   4.637   5.237   4.012
14240TIP3   OH242664   0.466   2.307   5.995
14240TIP3    H142665   0.467   2.395   5.956
14240TIP3    H242666   0.494   2.249   5.925
14241TIP3   OH242667   8.261   5.500   2.411
14241TIP3    H142668   8.286   5.591   2.395
14241TIP3    H242669   8.269   5.458   2.325
14242TIP3   OH242670   1.174   6.077   3.316
14242TIP3    H142671   1.135   6.103   3.399
14242TIP3    H242672   1.126   5.997   3.292
14243TIP3   OH242673   6.432   6.103   6.058
14243TIP3    H142674   6.414   6.153   6.137
14243TIP3    H242675   6.499   6.040   6.084
14244TIP3   OH242676   2.880   7.547   1.221
14244TIP3    H142677   2.934   7.551   1.142
14244TIP3    H242678   2.932   7.495   1.283
14245TIP3   OH242679   6.262   0.106   4.742
14245TIP3    H142680   6.236   0.086   4.652
14245TIP3    H242681   6.184   0.087   4.794
14246TIP3   OH242682   3.066   0.011   1.132
14246TIP3    H142683   3.017   0.091   1.151
14246TIP3    H242684   3.014  -0.059   1.171
14247TIP3   OH242685   5.441   6.105   1.780
14247TIP3    H142686   5.464   6.198   1.786
14247TIP3    H242687   5.522   6.062   1.754
14248TIP3   OH242688   6.002   3.428   3.934
14248TIP3    H142689   5.958   3.344   3.942
14248TIP3    H242690   6.013   3.458   4.025
14249TIP3   OH242691   3.745   3.558   3.465
14249TIP3    H142692   3.787   3.481   3.427
14249TIP3    H242693   3.818   3.618   3.484
14250TIP3   OH242694   0.765   1.909   6.033
14250TIP3    H142695   0.732   1.976   6.093
14250TIP3    H242696   0.831   1.953   5.980
14251TIP3   OH242697   3.681   4.958   5.557
14251TIP3    H142698   3.663   5.048   5.529
14251TIP3    H242699   3.707   4.966   5.648
14252TIP3   OH242700   5.531   3.829   3.177
14252TIP3    H142701   5.529   3.847   3.271
14252TIP3    H242702   5.568   3.741   3.171
14253TIP3   OH242703   5.536   7.180   3.350
14253TIP3    H142704   5.555   7.236   3.425
14253TIP3    H242705   5.506   7.240   3.282
14254TIP3   OH242706   6.438   6.850   3.726
14254TIP3    H142707   6.509   6.892   3.678
14254TIP3    H242708   6.475   6.832   3.813
14255TIP3   OH242709   7.701   5.469   1.981
14255TIP3    H142710   7.718   5.424   2.064
14255TIP3    H242711   7.787   5.500   1.952
14256TIP3   OH242712   7.676   7.611   6.287
14256TIP3    H142713   7.722   7.528   6.297
14256TIP3    H242714   7.623   7.599   6.207
14257TIP3   OH242715   2.033   0.417   1.437
14257TIP3    H142716   2.062   0.408   1.346
14257TIP3    H242717   2.025   0.326   1.468
14258TIP3   OH242718   3.245   4.576   0.827
14258TIP3    H142719   3.325   4.605   0.870
14258TIP3    H242720   3.184   4.560   0.899
14259TIP3   OH242721   7.748   4.224   6.166
14259TIP3    H142722   7.745   4.196   6.258
14259TIP3    H242723   7.841   4.244   6.150
14260TIP3   OH242724   6.228   2.929   1.010
14260TIP3    H142725   6.277   2.939   0.928
14260TIP3    H242726   6.150   2.983   0.998
14261TIP3   OH242727   7.947   1.343   1.759
14261TIP3    H142728   8.029   1.392   1.749
14261TIP3    H242729   7.974   1.256   1.789
14262TIP3   OH242730   2.048   0.886   3.012
14262TIP3    H142731   2.026   0.930   3.094
14262TIP3    H242732   2.143   0.878   3.014
14263TIP3   OH242733   3.218   3.984   3.355
14263TIP3    H142734   3.215   4.076   3.329
14263TIP3    H242735   3.277   3.944   3.291
14264TIP3   OH242736   8.071   0.058   2.235
14264TIP3    H142737   8.155   0.013   2.238
14264TIP3    H242738   8.006  -0.012   2.233
14265TIP3   OH242739   6.203   0.580   4.348
14265TIP3    H142740   6.294   0.561   4.373
14265TIP3    H242741   6.190   0.672   4.373
14266TIP3   OH242742   7.468   2.502   2.635
14266TIP3    H142743   7.561   2.481   2.648
14266TIP3    H242744   7.464   2.597   2.635
14267TIP3   OH242745   0.503   7.020   3.461
14267TIP3    H142746   0.476   6.984   3.377
14267TIP3    H242747   0.467   6.960   3.526
14268TIP3   OH242748   7.675   3.867   5.728
14268TIP3    H142749   7.660   3.804   5.798
14268TIP3    H242750   7.736   3.823   5.669
14269TIP3   OH242751   2.930   2.750   0.128
14269TIP3    H142752   2.840   2.768   0.154
14269TIP3    H242753   2.956   2.828   0.079
14270TIP3   OH242754   0.049   5.500   1.916
14270TIP3    H142755   0.115   5.562   1.883
14270TIP3    H242756   0.066   5.495   2.010
14271TIP3   OH242757   4.984   6.846   1.483
14271TIP3    H142758   4.916   6.861   1.417
14271TIP3    H242759   5.061   6.821   1.432
14272TIP3   OH242760   7.697   0.090   0.564
14272TIP3    H142761   7.686   0.126   0.476
14272TIP3    H242762   7.788   0.110   0.587
14273TIP3   OH242763   6.343   5.100   2.042
14273TIP3    H142764   6.345   5.072   1.951
14273TIP3    H242765   6.354   5.019   2.093
14274TIP3   OH242766   4.954   2.126   2.724
14274TIP3    H142767   4.980   2.138   2.633
14274TIP3    H242768   4.860   2.147   2.725
14275TIP3   OH242769   5.594   6.091   2.850
14275TIP3    H142770   5.506   6.090   2.888
14275TIP3    H242771   5.652   6.112   2.922
14276TIP3   OH242772   3.882   7.027   6.196
14276TIP3    H142773   3.881   7.095   6.128
14276TIP3    H242774   3.849   6.949   6.151
14277TIP3   OH242775   0.121   7.106   6.129
14277TIP3    H142776   0.203   7.058   6.141
14277TIP3    H242777   0.112   7.158   6.209
14278TIP3   OH242778   0.180   0.463   1.427
14278TIP3    H142779   0.086   0.476   1.438
14278TIP3    H242780   0.192   0.446   1.334
14279TIP3   OH242781   6.467   5.794   0.038
14279TIP3    H142782   6.561   5.794   0.022
14279TIP3    H242783   6.428   5.774  -0.047
14280TIP3   OH242784   4.406   4.255   1.657
14280TIP3    H142785   4.440   4.172   1.692
14280TIP3    H242786   4.316   4.259   1.689
14281TIP3   OH242787   3.928   0.365   6.387
14281TIP3    H142788   3.864   0.360   6.458
14281TIP3    H242789   3.927   0.457   6.360
14282TIP3   OH242790   0.833   2.375   0.641
14282TIP3    H142791   0.907   2.331   0.683
14282TIP3    H242792   0.823   2.457   0.690
14283TIP3   OH242793   7.956   1.100   1.884
14283TIP3    H142794   7.958   1.037   1.956
14283TIP3    H242795   7.924   1.050   1.809
14284TIP3   OH242796   5.832   4.914   6.377
14284TIP3    H142797   5.747   4.932   6.417
14284TIP3    H242798   5.877   4.857   6.439
14285TIP3   OH242799   6.702   3.652   6.474
14285TIP3    H142800   6.667   3.740   6.463
14285TIP3    H242801   6.679   3.606   6.394
14286TIP3   OH242802   3.905   5.893   1.317
14286TIP3    H142803   3.889   5.864   1.407
14286TIP3    H242804   3.955   5.974   1.326
14287TIP3   OH242805   1.433   6.398   5.235
14287TIP3    H142806   1.458   6.374   5.325
14287TIP3    H242807   1.516   6.418   5.192
14288TIP3   OH242808   6.269   4.920   4.380
14288TIP3    H142809   6.316   4.847   4.339
14288TIP3    H242810   6.303   4.998   4.335
14289TIP3   OH242811   1.721   6.166   3.229
14289TIP3    H142812   1.753   6.106   3.162
14289TIP3    H242813   1.633   6.134   3.250
14290TIP3   OH242814   3.299   3.068   4.827
14290TIP3    H142815   3.308   3.149   4.776
14290TIP3    H242816   3.222   3.083   4.882
14291TIP3   OH242817   4.126   1.764   4.561
14291TIP3    H142818   4.100   1.679   4.596
14291TIP3    H242819   4.118   1.755   4.466
14292TIP3   OH242820   4.375   0.177   0.579
14292TIP3    H142821   4.333   0.149   0.660
14292TIP3    H242822   4.375   0.099   0.523
14293TIP3   OH242823   6.752   6.211   2.661
14293TIP3    H142824   6.708   6.150   2.602
14293TIP3    H242825   6.681   6.263   2.699
14294TIP3   OH242826   1.710   3.280   1.109
14294TIP3    H142827   1.775   3.280   1.039
14294TIP3    H242828   1.755   3.317   1.184
14295TIP3   OH242829   7.896   6.561   4.021
14295TIP3    H142830   7.900   6.496   3.950
14295TIP3    H242831   7.984   6.562   4.058
14296TIP3   OH242832   0.655   3.833   1.547
14296TIP3    H142833   0.658   3.747   1.505
14296TIP3    H242834   0.594   3.822   1.620
14297TIP3   OH242835   2.707   3.821   3.987
14297TIP3    H142836   2.685   3.873   3.910
14297TIP3    H242837   2.672   3.871   4.060
14298TIP3   OH242838   4.630   6.875   6.490
14298TIP3    H142839   4.684   6.929   6.547
14298TIP3    H242840   4.692   6.831   6.432
14299TIP3   OH242841   6.612   6.893   3.047
14299TIP3    H142842   6.583   6.802   3.040
14299TIP3    H242843   6.623   6.922   2.957
14300TIP3   OH242844   1.401   2.865   5.815
14300TIP3    H142845   1.451   2.906   5.745
14300TIP3    H242846   1.449   2.887   5.895
14301TIP3   OH242847   1.895   4.950   3.124
14301TIP3    H142848   1.840   5.021   3.156
14301TIP3    H242849   1.974   4.954   3.177
14302TIP3   OH242850   1.448   5.947   2.700
14302TIP3    H142851   1.539   5.975   2.709
14302TIP3    H242852   1.419   5.929   2.789
14303TIP3   OH242853   6.575   0.000   4.235
14303TIP3    H142854   6.547  -0.042   4.316
14303TIP3    H242855   6.540  -0.055   4.166
14304TIP3   OH242856   1.735   7.352   5.899
14304TIP3    H142857   1.718   7.308   5.982
14304TIP3    H242858   1.697   7.439   5.910
14305TIP3   OH242859   1.462   5.822   0.302
14305TIP3    H142860   1.432   5.761   0.234
14305TIP3    H242861   1.523   5.770   0.355
14306TIP3   OH242862   2.808   3.421   5.830
14306TIP3    H142863   2.861   3.342   5.840
14306TIP3    H242864   2.725   3.400   5.873
14307TIP3   OH242865   0.952   7.215   2.969
14307TIP3    H142866   0.898   7.147   3.011
14307TIP3    H242867   1.042   7.183   2.978
14308TIP3   OH242868   6.937   3.814   4.582
14308TIP3    H142869   6.946   3.770   4.667
14308TIP3    H242870   6.952   3.744   4.518
14309TIP3   OH242871   7.721   3.999   3.274
14309TIP3    H142872   7.755   4.067   3.215
14309TIP3    H242873   7.627   4.017   3.280
14310TIP3   OH242874   4.634   5.064   6.476
14310TIP3    H142875   4.665   4.975   6.462
14310TIP3    H242876   4.539   5.057   6.474
14311TIP3   OH242877   0.667   1.743   0.726
14311TIP3    H142878   0.588   1.721   0.677
14311TIP3    H242879   0.705   1.658   0.748
14312TIP3   OH242880   5.000   0.373   5.984
14312TIP3    H142881   5.031   0.309   5.920
14312TIP3    H242882   4.936   0.325   6.037
14313TIP3   OH242883   1.775   7.306   0.356
14313TIP3    H142884   1.692   7.351   0.344
14313TIP3    H242885   1.794   7.315   0.450
14314TIP3   OH242886   0.455   6.724   0.215
14314TIP3    H142887   0.531   6.754   0.165
14314TIP3    H242888   0.404   6.673   0.152
14315TIP3   OH242889   0.089   7.319   3.973
14315TIP3    H142890   0.086   7.232   4.012
14315TIP3    H242891   0.030   7.372   4.026
14316TIP3   OH242892   5.579   6.694   4.604
14316TIP3    H142893   5.577   6.615   4.549
14316TIP3    H242894   5.507   6.748   4.571
14317TIP3   OH242895   3.999   5.666   2.694
14317TIP3    H142896   3.923   5.721   2.682
14317TIP3    H242897   3.963   5.579   2.711
14318TIP3   OH242898   4.000   0.645   0.486
14318TIP3    H142899   4.051   0.588   0.429
14318TIP3    H242900   4.065   0.701   0.529
14319TIP3   OH242901   5.738   0.660   2.344
14319TIP3    H142902   5.686   0.722   2.292
14319TIP3    H242903   5.776   0.601   2.279
14320TIP3   OH242904   8.137   7.044   1.400
14320TIP3    H142905   8.117   7.095   1.322
14320TIP3    H242906   8.220   7.079   1.432
14321TIP3   OH242907   0.319   3.222   4.052
14321TIP3    H142908   0.308   3.218   3.957
14321TIP3    H242909   0.398   3.170   4.069
14322TIP3   OH242910   7.147   7.072   3.852
14322TIP3    H142911   7.084   7.144   3.852
14322TIP3    H242912   7.153   7.045   3.760
14323TIP3   OH242913   4.526   4.818   4.924
14323TIP3    H142914   4.505   4.791   5.014
14323TIP3    H242915   4.619   4.801   4.914
14324TIP3   OH242916   6.334   1.648   2.874
14324TIP3    H142917   6.344   1.566   2.826
14324TIP3    H242918   6.278   1.702   2.817
14325TIP3   OH242919   5.234   3.249   1.241
14325TIP3    H142920   5.328   3.264   1.246
14325TIP3    H242921   5.196   3.335   1.223
14326TIP3   OH242922   0.598   2.954   5.672
14326TIP3    H142923   0.508   2.943   5.641
14326TIP3    H242924   0.613   2.878   5.729
14327TIP3   OH242925   5.140   6.981   4.449
14327TIP3    H142926   5.108   7.071   4.462
14327TIP3    H242927   5.231   6.983   4.480
14328TIP3   OH242928   7.076   1.493   1.992
14328TIP3    H142929   7.083   1.587   2.008
14328TIP3    H242930   7.163   1.459   2.010
14329TIP3   OH242931   2.362   4.058   0.186
14329TIP3    H142932   2.401   4.018   0.108
14329TIP3    H242933   2.362   4.152   0.166
14330TIP3   OH242934   4.740   0.773   3.130
14330TIP3    H142935   4.734   0.788   3.036
14330TIP3    H242936   4.650   0.782   3.162
14331TIP3   OH242937   6.867   1.926   6.399
14331TIP3    H142938   6.946   1.979   6.409
14331TIP3    H242939   6.806   1.962   6.463
14332TIP3   OH242940   0.223   7.336   1.134
14332TIP3    H142941   0.265   7.378   1.209
14332TIP3    H242942   0.273   7.255   1.120
14333TIP3   OH242943   4.362   5.314   0.259
14333TIP3    H142944   4.342   5.391   0.206
14333TIP3    H242945   4.301   5.319   0.333
14334TIP3   OH242946   1.183   4.100   5.862
14334TIP3    H142947   1.206   4.185   5.823
14334TIP3    H242948   1.266   4.061   5.887
14335TIP3   OH242949   2.447   6.172   5.341
14335TIP3    H142950   2.373   6.112   5.327
14335TIP3    H242951   2.523   6.124   5.309
14336TIP3   OH242952   4.047   4.571   3.387
14336TIP3    H142953   4.132   4.561   3.344
14336TIP3    H242954   3.996   4.627   3.329
14337TIP3   OH242955   0.479   2.536   3.530
14337TIP3    H142956   0.524   2.621   3.533
14337TIP3    H242957   0.510   2.490   3.608
14338TIP3   OH242958   2.749   1.277   6.227
14338TIP3    H142959   2.756   1.193   6.273
14338TIP3    H242960   2.679   1.264   6.163
14339TIP3   OH242961   7.526   1.883   4.522
14339TIP3    H142962   7.545   1.853   4.432
14339TIP3    H242963   7.563   1.814   4.578
14340TIP3   OH242964   7.265   6.987   5.111
14340TIP3    H142965   7.294   6.989   5.019
14340TIP3    H242966   7.199   7.056   5.117
14341TIP3   OH242967   3.061   1.021   5.230
14341TIP3    H142968   2.969   1.029   5.204
14341TIP3    H242969   3.093   0.945   5.182
14342TIP3   OH242970   6.057   1.960   1.752
14342TIP3    H142971   6.088   2.038   1.706
14342TIP3    H242972   5.962   1.961   1.738
14343TIP3   OH242973   4.806   6.998   5.065
14343TIP3    H142974   4.893   7.030   5.040
14343TIP3    H242975   4.822   6.940   5.139
14344TIP3   OH242976   5.641   0.591   6.323
14344TIP3    H142977   5.550   0.569   6.301
14344TIP3    H242978   5.691   0.514   6.299
14345TIP3   OH242979   2.169   4.976   2.370
14345TIP3    H142980   2.235   4.910   2.350
14345TIP3    H242981   2.086   4.928   2.367
14346TIP3   OH242982   1.939   0.803   0.671
14346TIP3    H142983   1.976   0.787   0.584
14346TIP3    H242984   1.964   0.726   0.722
14347TIP3   OH242985   0.885   5.156   3.263
14347TIP3    H142986   0.939   5.208   3.323
14347TIP3    H242987   0.820   5.115   3.320
14348TIP3   OH242988   2.898   3.700   4.777
14348TIP3    H142989   2.880   3.608   4.795
14348TIP3    H242990   2.959   3.727   4.846
14349TIP3   OH242991   4.647   5.322   1.420
14349TIP3    H142992   4.608   5.304   1.334
14349TIP3    H242993   4.587   5.384   1.461
14350TIP3   OH242994   5.485   2.995   0.338
14350TIP3    H142995   5.547   3.048   0.388
14350TIP3    H242996   5.399   3.020   0.371
14351TIP3   OH242997   7.722   2.693   3.890
14351TIP3    H142998   7.716   2.787   3.905
14351TIP3    H242999   7.772   2.659   3.964
14352TIP3   OH243000   5.100   2.279   1.387
14352TIP3    H143001   5.013   2.290   1.351
14352TIP3    H243002   5.086   2.245   1.475
14353TIP3   OH243003   6.979   5.814   3.351
14353TIP3    H143004   7.012   5.889   3.401
14353TIP3    H243005   6.947   5.753   3.418
14354TIP3   OH243006   2.972   0.478   6.707
14354TIP3    H143007   2.901   0.528   6.748
14354TIP3    H243008   3.014   0.431   6.779
14355TIP3   OH243009   5.340   6.325   4.064
14355TIP3    H143010   5.324   6.404   4.012
14355TIP3    H243011   5.408   6.351   4.126
14356TIP3   OH243012   3.860   5.271   2.993
14356TIP3    H143013   3.862   5.348   3.050
14356TIP3    H243014   3.823   5.201   3.048
14357TIP3   OH243015   0.610   0.980   5.987
14357TIP3    H143016   0.579   0.890   5.975
14357TIP3    H243017   0.666   0.996   5.912
14358TIP3   OH243018   1.888   6.774   3.105
14358TIP3    H143019   1.834   6.801   3.180
14358TIP3    H243020   1.868   6.838   3.037
14359TIP3   OH243021   3.137   1.476   3.067
14359TIP3    H143022   3.081   1.554   3.073
14359TIP3    H243023   3.205   1.501   3.004
14360TIP3   OH243024   2.710   4.488   2.719
14360TIP3    H143025   2.735   4.415   2.776
14360TIP3    H243026   2.720   4.453   2.630
14361TIP3   OH243027   2.150   6.576   4.704
14361TIP3    H143028   2.171   6.646   4.643
14361TIP3    H243029   2.175   6.496   4.658
14362TIP3   OH243030   2.528   0.335   3.740
14362TIP3    H143031   2.624   0.330   3.741
14362TIP3    H243032   2.503   0.291   3.659
14363TIP3   OH243033   2.879   6.808   2.215
14363TIP3    H143034   2.799   6.756   2.224
14363TIP3    H243035   2.942   6.764   2.272
14364TIP3   OH243036   6.891   1.801   1.476
14364TIP3    H143037   6.968   1.790   1.532
14364TIP3    H243038   6.861   1.711   1.460
14365TIP3   OH243039   2.730   3.906   4.266
14365TIP3    H143040   2.759   3.825   4.309
14365TIP3    H243041   2.662   3.940   4.323
14366TIP3   OH243042   7.415   1.225   4.984
14366TIP3    H143043   7.386   1.201   5.072
14366TIP3    H243044   7.510   1.226   4.990
14367TIP3   OH243045   7.270   0.287   1.821
14367TIP3    H143046   7.260   0.273   1.727
14367TIP3    H243047   7.342   0.350   1.827
14368TIP3   OH243048   8.089   2.359   5.724
14368TIP3    H143049   8.161   2.361   5.661
14368TIP3    H243050   8.067   2.266   5.732
14369TIP3   OH243051   1.130   4.829   3.658
14369TIP3    H143052   1.197   4.794   3.600
14369TIP3    H243053   1.172   4.833   3.745
14370TIP3   OH243054   8.068   0.358   1.404
14370TIP3    H143055   8.062   0.448   1.436
14370TIP3    H243056   8.154   0.329   1.432
14371TIP3   OH243057   0.969   7.006   1.381
14371TIP3    H143058   1.023   7.084   1.382
14371TIP3    H243059   1.029   6.934   1.361
14372TIP3   OH243060   6.674   7.231   4.596
14372TIP3    H143061   6.615   7.304   4.615
14372TIP3    H243062   6.700   7.243   4.505
14373TIP3   OH243063   6.007   7.733   6.082
14373TIP3    H143064   6.079   7.794   6.096
14373TIP3    H243065   5.932   7.772   6.127
14374TIP3   OH243066   4.413   5.068   0.117
14374TIP3    H143067   4.420   5.113   0.033
14374TIP3    H243068   4.415   5.139   0.182
14375TIP3   OH243069   3.735   0.514   4.236
14375TIP3    H143070   3.756   0.594   4.187
14375TIP3    H243071   3.779   0.525   4.320
14376TIP3   OH243072   4.016   4.036   0.722
14376TIP3    H143073   4.098   4.023   0.770
14376TIP3    H243074   4.040   4.028   0.630
14377TIP3   OH243075   7.178   2.001   3.555
14377TIP3    H143076   7.171   2.045   3.640
14377TIP3    H243077   7.249   2.046   3.510
14378TIP3   OH243078   2.982   0.538   6.039
14378TIP3    H143079   2.992   0.609   5.976
14378TIP3    H243080   3.008   0.576   6.123
14379TIP3   OH243081   1.941   2.118   3.778
14379TIP3    H143082   1.867   2.153   3.828
14379TIP3    H243083   1.916   2.129   3.686
14380TIP3   OH243084   4.975   0.120   0.481
14380TIP3    H143085   4.916   0.054   0.446
14380TIP3    H243086   4.923   0.167   0.546
14381TIP3   OH243087   7.940   3.270   4.935
14381TIP3    H143088   7.973   3.235   5.018
14381TIP3    H243089   7.900   3.195   4.891
14382TIP3   OH243090   3.494   6.891   3.353
14382TIP3    H143091   3.413   6.932   3.381
14382TIP3    H243092   3.484   6.879   3.258
14383TIP3   OH243093   4.343   6.600   0.040
14383TIP3    H143094   4.337   6.654   0.118
14383TIP3    H243095   4.303   6.517   0.066
14384TIP3   OH243096   2.496   4.029   2.766
14384TIP3    H143097   2.551   3.979   2.827
14384TIP3    H243098   2.442   4.085   2.822
14385TIP3   OH243099   1.054   6.287   3.548
14385TIP3    H143100   1.085   6.368   3.508
14385TIP3    H243101   0.964   6.305   3.574
14386TIP3   OH243102   5.789   0.688   5.691
14386TIP3    H143103   5.704   0.653   5.663
14386TIP3    H243104   5.833   0.613   5.730
14387TIP3   OH243105   5.242   1.322   4.984
14387TIP3    H143106   5.171   1.361   5.036
14387TIP3    H243107   5.290   1.397   4.949
14388TIP3   OH243108   5.963   4.776   2.009
14388TIP3    H143109   5.907   4.819   2.074
14388TIP3    H243110   5.949   4.682   2.023
14389TIP3   OH243111   6.070   5.698   0.534
14389TIP3    H143112   5.979   5.721   0.548
14389TIP3    H243113   6.069   5.641   0.457
14390TIP3   OH243114   1.098   4.544   1.149
14390TIP3    H143115   1.089   4.525   1.242
14390TIP3    H243116   1.042   4.481   1.106
14391TIP3   OH243117   7.020   6.779   5.429
14391TIP3    H143118   7.107   6.818   5.434
14391TIP3    H243119   7.020   6.712   5.498
14392TIP3   OH243120   6.948   2.246   1.051
14392TIP3    H143121   6.881   2.308   1.022
14392TIP3    H243122   6.943   2.174   0.988
14393TIP3   OH243123   6.534   0.744   1.083
14393TIP3    H143124   6.580   0.675   1.130
14393TIP3    H243125   6.559   0.732   0.992
14394TIP3   OH243126   3.286   1.675   2.936
14394TIP3    H143127   3.265   1.759   2.976
14394TIP3    H243128   3.372   1.688   2.896
14395TIP3   OH243129   2.050   4.032   2.895
14395TIP3    H143130   2.060   4.106   2.955
14395TIP3    H243131   1.971   4.053   2.845
14396TIP3   OH243132   0.712   7.075   2.839
14396TIP3    H143133   0.766   7.138   2.793
14396TIP3    H243134   0.638   7.126   2.872
14397TIP3   OH243135   4.832   4.482   3.465
14397TIP3    H143136   4.883   4.549   3.510
14397TIP3    H243137   4.828   4.409   3.527
14398TIP3   OH243138   3.975   1.849   3.751
14398TIP3    H143139   3.947   1.935   3.721
14398TIP3    H243140   3.926   1.787   3.697
14399TIP3   OH243141   6.381   5.776   3.910
14399TIP3    H143142   6.316   5.707   3.924
14399TIP3    H243143   6.461   5.730   3.886
14400TIP3   OH243144   1.073   7.559   5.342
14400TIP3    H143145   1.014   7.563   5.267
14400TIP3    H243146   1.034   7.492   5.399
14401TIP3   OH243147   4.924   1.428   5.721
14401TIP3    H143148   4.866   1.360   5.755
14401TIP3    H243149   4.882   1.457   5.639
14402TIP3   OH243150   3.200   6.529   0.267
14402TIP3    H143151   3.191   6.564   0.356
14402TIP3    H243152   3.142   6.583   0.214
14403TIP3   OH243153   3.489   1.490   5.282
14403TIP3    H143154   3.464   1.582   5.291
14403TIP3    H243155   3.549   1.474   5.355
14404TIP3   OH243156   4.936   0.210   2.297
14404TIP3    H143157   4.911   0.141   2.235
14404TIP3    H243158   4.928   0.169   2.383
14405TIP3   OH243159   1.616   2.872   3.296
14405TIP3    H143160   1.539   2.843   3.346
14405TIP3    H243161   1.595   2.961   3.270
14406TIP3   OH243162   2.307   0.125   3.316
14406TIP3    H143163   2.376   0.059   3.327
14406TIP3    H243164   2.231   0.075   3.285
14407TIP3   OH243165   5.455   1.373   1.187
14407TIP3    H143166   5.522   1.323   1.233
14407TIP3    H243167   5.494   1.394   1.102
14408TIP3   OH243168   5.767   3.738   2.393
14408TIP3    H143169   5.856   3.774   2.400
14408TIP3    H243170   5.716   3.809   2.354
14409TIP3   OH243171   7.229   3.852   5.275
14409TIP3    H143172   7.222   3.926   5.215
14409TIP3    H243173   7.163   3.870   5.342
14410TIP3   OH243174   2.335   7.138   6.587
14410TIP3    H143175   2.291   7.066   6.542
14410TIP3    H243176   2.274   7.164   6.656
14411TIP3   OH243177   6.175   3.163   4.627
14411TIP3    H143178   6.105   3.220   4.659
14411TIP3    H243179   6.129   3.084   4.597
14412TIP3   OH243180   1.611   0.151   3.507
14412TIP3    H143181   1.536   0.157   3.447
14412TIP3    H243182   1.683   0.123   3.451
14413TIP3   OH243183   0.533   4.550   5.068
14413TIP3    H143184   0.448   4.540   5.111
14413TIP3    H243185   0.511   4.583   4.981
14414TIP3   OH243186   7.413   4.758   1.486
14414TIP3    H143187   7.474   4.809   1.540
14414TIP3    H243188   7.410   4.804   1.402
14415TIP3   OH243189   7.717   1.329   3.798
14415TIP3    H143190   7.792   1.356   3.746
14415TIP3    H243191   7.669   1.267   3.743
14416TIP3   OH243192   5.493   5.250   2.156
14416TIP3    H143193   5.416   5.306   2.154
14416TIP3    H243194   5.557   5.298   2.208
14417TIP3   OH243195   5.959   5.132   2.299
14417TIP3    H143196   5.903   5.176   2.364
14417TIP3    H243197   5.995   5.204   2.247
14418TIP3   OH243198   0.460   6.301   3.683
14418TIP3    H143199   0.554   6.300   3.664
14418TIP3    H243200   0.452   6.253   3.766
14419TIP3   OH243201   6.315   2.751   2.025
14419TIP3    H143202   6.227   2.723   2.051
14419TIP3    H243203   6.309   2.846   2.020
14420TIP3   OH243204   2.854   1.551   1.315
14420TIP3    H143205   2.763   1.555   1.284
14420TIP3    H243206   2.906   1.546   1.235
14421TIP3   OH243207   7.157   0.463   3.435
14421TIP3    H143208   7.137   0.541   3.488
14421TIP3    H243209   7.152   0.493   3.345
14422TIP3   OH243210   1.534   3.555   5.152
14422TIP3    H143211   1.546   3.633   5.098
14422TIP3    H243212   1.564   3.581   5.239
14423TIP3   OH243213   4.614   1.676   4.802
14423TIP3    H143214   4.635   1.717   4.885
14423TIP3    H243215   4.519   1.665   4.804
14424TIP3   OH243216   4.639   3.269   4.677
14424TIP3    H143217   4.557   3.229   4.704
14424TIP3    H243218   4.650   3.244   4.585
14425TIP3   OH243219   7.750   3.658   5.316
14425TIP3    H143220   7.657   3.668   5.294
14425TIP3    H243221   7.795   3.672   5.233
14426TIP3   OH243222   0.681   3.310   0.435
14426TIP3    H143223   0.777   3.308   0.427
14426TIP3    H243224   0.662   3.396   0.474
14427TIP3   OH243225   0.778   7.729   2.030
14427TIP3    H143226   0.810   7.817   2.012
14427TIP3    H243227   0.818   7.706   2.114
14428TIP3   OH243228   6.279   1.504   3.103
14428TIP3    H143229   6.268   1.409   3.097
14428TIP3    H243230   6.306   1.530   3.015
14429TIP3   OH243231   7.661   2.237   5.320
14429TIP3    H143232   7.668   2.317   5.372
14429TIP3    H243233   7.705   2.170   5.372
14430TIP3   OH243234   0.268   6.254   5.576
14430TIP3    H143235   0.225   6.251   5.662
14430TIP3    H243236   0.281   6.348   5.559
14431TIP3   OH243237   1.376   6.550   0.244
14431TIP3    H143238   1.422   6.583   0.321
14431TIP3    H243239   1.325   6.476   0.276
14432TIP3   OH243240   6.519   6.752   2.169
14432TIP3    H143241   6.467   6.832   2.181
14432TIP3    H243242   6.544   6.755   2.076
14433TIP3   OH243243   3.946   2.997   5.152
14433TIP3    H143244   4.016   3.055   5.122
14433TIP3    H243245   3.865   3.041   5.124
14434TIP3   OH243246   2.885   2.718   3.047
14434TIP3    H143247   2.957   2.729   3.109
14434TIP3    H243248   2.924   2.673   2.972
14435TIP3   OH243249   3.162   6.904   6.212
14435TIP3    H143250   3.181   6.826   6.159
14435TIP3    H243251   3.125   6.967   6.150
14436TIP3   OH243252   5.767   3.629   6.268
14436TIP3    H143253   5.728   3.635   6.356
14436TIP3    H243254   5.850   3.584   6.283
14437TIP3   OH243255   6.869   6.104   6.223
14437TIP3    H143256   6.960   6.108   6.251
14437TIP3    H243257   6.819   6.133   6.299
14438TIP3   OH243258   1.854   3.798   0.900
14438TIP3    H143259   1.908   3.846   0.837
14438TIP3    H243260   1.810   3.731   0.849
14439TIP3   OH243261   3.920   4.286   2.423
14439TIP3    H143262   3.861   4.277   2.498
14439TIP3    H243263   3.903   4.208   2.370
14440TIP3   OH243264   1.344   2.769   4.174
14440TIP3    H143265   1.383   2.829   4.110
14440TIP3    H243266   1.411   2.760   4.242
14441TIP3   OH243267   4.321   0.160   3.647
14441TIP3    H143268   4.325   0.075   3.691
14441TIP3    H243269   4.234   0.162   3.607
14442TIP3   OH243270   5.492   5.689   3.485
14442TIP3    H143271   5.495   5.618   3.421
14442TIP3    H243272   5.583   5.717   3.493
14443TIP3   OH243273   7.940   5.225   5.782
14443TIP3    H143274   7.862   5.173   5.799
14443TIP3    H243275   7.978   5.240   5.869
14444TIP3   OH243276   4.699   1.149   0.057
14444TIP3    H143277   4.787   1.133   0.022
14444TIP3    H243278   4.664   1.062   0.076
14445TIP3   OH243279   7.957   4.962   1.506
14445TIP3    H143280   8.012   4.911   1.446
14445TIP3    H243281   7.893   4.898   1.539
14446TIP3   OH243282   7.786   3.519   3.178
14446TIP3    H143283   7.795   3.545   3.086
14446TIP3    H243284   7.793   3.601   3.227
14447TIP3   OH243285   2.923   6.764   5.345
14447TIP3    H143286   2.872   6.683   5.352
14447TIP3    H243287   2.897   6.815   5.421
14448TIP3   OH243288   2.503   2.514   3.290
14448TIP3    H143289   2.511   2.520   3.385
14448TIP3    H243290   2.559   2.440   3.266
14449TIP3   OH243291   2.285   5.150   6.572
14449TIP3    H143292   2.213   5.212   6.560
14449TIP3    H243293   2.364   5.200   6.549
14450TIP3   OH243294   3.077   3.548   1.046
14450TIP3    H143295   3.060   3.619   1.107
14450TIP3    H243296   3.026   3.474   1.079
14451TIP3   OH243297   6.059   5.594   6.544
14451TIP3    H143298   6.029   5.661   6.483
14451TIP3    H243299   6.009   5.516   6.521
14452TIP3   OH243300   4.301   5.591   1.948
14452TIP3    H143301   4.243   5.658   1.911
14452TIP3    H243302   4.389   5.627   1.936
14453TIP3   OH243303   2.063   5.840   5.111
14453TIP3    H143304   2.045   5.921   5.158
14453TIP3    H243305   1.989   5.832   5.049
14454TIP3   OH243306   1.566   5.455   5.520
14454TIP3    H143307   1.517   5.375   5.536
14454TIP3    H243308   1.500   5.525   5.529
14455TIP3   OH243309   6.862   1.345   6.022
14455TIP3    H143310   6.788   1.355   5.962
14455TIP3    H243311   6.853   1.256   6.057
14456TIP3   OH243312   4.756   1.400   5.453
14456TIP3    H143313   4.812   1.367   5.383
14456TIP3    H243314   4.676   1.428   5.408
14457TIP3   OH243315   1.609   0.884   2.029
14457TIP3    H143316   1.529   0.935   2.035
14457TIP3    H243317   1.680   0.947   2.045
14458TIP3   OH243318   0.288   1.900   6.584
14458TIP3    H143319   0.335   1.920   6.503
14458TIP3    H243320   0.195   1.911   6.561
14459TIP3   OH243321   3.660  -0.016   5.821
14459TIP3    H143322   3.740  -0.021   5.872
14459TIP3    H243323   3.655   0.076   5.794
14460TIP3   OH243324   0.193   4.011   1.956
14460TIP3    H143325   0.136   4.087   1.968
14460TIP3    H243326   0.279   4.040   1.988
14461TIP3   OH243327   5.747   4.188   3.470
14461TIP3    H143328   5.806   4.186   3.394
14461TIP3    H243329   5.776   4.264   3.520
14462TIP3   OH243330   5.432   0.180   5.905
14462TIP3    H143331   5.408   0.110   5.967
14462TIP3    H243332   5.426   0.260   5.957
14463TIP3   OH243333   4.237   0.970   0.405
14463TIP3    H143334   4.142   0.963   0.405
14463TIP3    H243335   4.267   0.879   0.417
14464TIP3   OH243336   4.838   3.377   5.102
14464TIP3    H143337   4.762   3.400   5.155
14464TIP3    H243338   4.806   3.314   5.038
14465TIP3   OH243339   3.748   1.445   3.959
14465TIP3    H143340   3.708   1.500   4.027
14465TIP3    H243341   3.748   1.357   3.996
14466TIP3   OH243342   0.346   0.029   3.988
14466TIP3    H143343   0.421   0.003   3.934
14466TIP3    H243344   0.302   0.097   3.937
14467TIP3   OH243345   7.792   4.356   4.096
14467TIP3    H143346   7.758   4.279   4.141
14467TIP3    H243347   7.819   4.324   4.010
14468TIP3   OH243348   7.935   3.092   5.523
14468TIP3    H143349   7.900   3.102   5.434
14468TIP3    H243350   7.975   3.176   5.543
14469TIP3   OH243351   3.022   2.675   6.690
14469TIP3    H143352   3.035   2.646   6.780
14469TIP3    H243353   3.065   2.609   6.637
14470TIP3   OH243354   0.685   4.785   0.698
14470TIP3    H143355   0.620   4.845   0.735
14470TIP3    H243356   0.757   4.786   0.762
14471TIP3   OH243357   7.968   0.613   2.607
14471TIP3    H143358   8.004   0.525   2.612
14471TIP3    H243359   7.927   0.618   2.520
14472TIP3   OH243360   3.048   2.970   0.033
14472TIP3    H143361   3.092   2.991   0.116
14472TIP3    H243362   3.115   2.987  -0.034
14473TIP3   OH243363   5.623   6.729   0.504
14473TIP3    H143364   5.530   6.714   0.524
14473TIP3    H243365   5.651   6.794   0.568
14474TIP3   OH243366   5.208   0.814   4.969
14474TIP3    H143367   5.297   0.785   4.950
14474TIP3    H243368   5.219   0.894   5.021
14475TIP3   OH243369   3.693   7.298   5.122
14475TIP3    H143370   3.788   7.285   5.128
14475TIP3    H243371   3.682   7.393   5.119
14476TIP3   OH243372   2.309   7.168   5.013
14476TIP3    H143373   2.257   7.088   5.020
14476TIP3    H243374   2.358   7.172   5.095
14477TIP3   OH243375   5.158   1.624   2.401
14477TIP3    H143376   5.202   1.680   2.336
14477TIP3    H243377   5.148   1.680   2.478
14478TIP3   OH243378   8.083   3.174   5.200
14478TIP3    H143379   8.149   3.189   5.132
14478TIP3    H243380   8.134   3.155   5.279
14479TIP3   OH243381   6.858   5.565   2.154
14479TIP3    H143382   6.922   5.513   2.203
14479TIP3    H243383   6.901   5.650   2.142
14480TIP3   OH243384   2.635   0.588   4.064
14480TIP3    H143385   2.597   0.636   4.138
14480TIP3    H243386   2.650   0.655   3.998
14481TIP3   OH243387   4.808   6.817   0.728
14481TIP3    H143388   4.764   6.887   0.777
14481TIP3    H243389   4.764   6.737   0.756
14482TIP3   OH243390   5.311   5.728   1.857
14482TIP3    H143391   5.239   5.686   1.904
14482TIP3    H243392   5.333   5.805   1.910
14483TIP3   OH243393   5.094   6.895   5.808
14483TIP3    H143394   5.002   6.904   5.784
14483TIP3    H243395   5.138   6.965   5.761
14484TIP3   OH243396   0.269   1.029   4.370
14484TIP3    H143397   0.284   0.937   4.350
14484TIP3    H243398   0.313   1.076   4.299
14485TIP3   OH243399   2.158   0.460   2.639
14485TIP3    H143400   2.245   0.482   2.674
14485TIP3    H243401   2.158   0.497   2.551
14486TIP3   OH243402   6.749   3.146   3.871
14486TIP3    H143403   6.798   3.092   3.808
14486TIP3    H243404   6.678   3.089   3.900
14487TIP3   OH243405   6.866   3.363   5.800
14487TIP3    H143406   6.848   3.350   5.893
14487TIP3    H243407   6.955   3.331   5.789
14488TIP3   OH243408   6.756   2.457   1.028
14488TIP3    H143409   6.708   2.510   1.091
14488TIP3    H243410   6.696   2.444   0.955
14489TIP3   OH243411   6.138   3.183   4.198
14489TIP3    H143412   6.232   3.189   4.214
14489TIP3    H243413   6.100   3.250   4.255
14490TIP3   OH243414   6.706   7.703   6.785
14490TIP3    H143415   6.621   7.747   6.778
14490TIP3    H243416   6.770   7.768   6.757
14491TIP3   OH243417   1.267   2.197   4.948
14491TIP3    H143418   1.355   2.204   4.912
14491TIP3    H243419   1.277   2.224   5.040
14492TIP3   OH243420   1.721   4.922   5.330
14492TIP3    H143421   1.706   4.999   5.384
14492TIP3    H243422   1.666   4.935   5.253
14493TIP3   OH243423   8.172   6.140   4.071
14493TIP3    H143424   8.137   6.095   3.994
14493TIP3    H243425   8.154   6.080   4.144
14494TIP3   OH243426   6.152   5.094   0.252
14494TIP3    H143427   6.144   5.149   0.330
14494TIP3    H243428   6.238   5.116   0.216
14495TIP3   OH243429   6.588   4.578   5.132
14495TIP3    H143430   6.567   4.670   5.121
14495TIP3    H243431   6.569   4.538   5.047
14496TIP3   OH243432   5.604   7.318   6.051
14496TIP3    H143433   5.543   7.359   6.112
14496TIP3    H243434   5.551   7.255   6.002
14497TIP3   OH243435   0.585   6.056   2.995
14497TIP3    H143436   0.508   6.007   2.966
14497TIP3    H243437   0.627   6.086   2.914
14498TIP3   OH243438   6.023   5.839   6.083
14498TIP3    H143439   5.994   5.852   5.993
14498TIP3    H243440   6.099   5.782   6.076
14499TIP3   OH243441   6.083   4.038   3.187
14499TIP3    H143442   6.069   4.113   3.246
14499TIP3    H243443   5.998   3.993   3.184
14500TIP3   OH243444   7.682   1.909   5.776
14500TIP3    H143445   7.676   1.913   5.871
14500TIP3    H243446   7.659   1.818   5.755
14501TIP3   OH243447   5.138   7.076   5.273
14501TIP3    H143448   5.220   7.120   5.251
14501TIP3    H243449   5.070   7.135   5.241
14502TIP3   OH243450   0.484   5.553   6.594
14502TIP3    H143451   0.403   5.585   6.554
14502TIP3    H243452   0.474   5.573   6.687
14503TIP3   OH243453   0.471   3.825   5.106
14503TIP3    H143454   0.482   3.830   5.011
14503TIP3    H243455   0.389   3.778   5.119
14504TIP3   OH243456   5.325   7.364   6.654
14504TIP3    H143457   5.417   7.369   6.629
14504TIP3    H243458   5.322   7.297   6.722
14505TIP3   OH243459   7.425   6.296   4.908
14505TIP3    H143460   7.480   6.233   4.956
14505TIP3    H243461   7.479   6.324   4.834
14506TIP3   OH243462   5.074   1.050   6.005
14506TIP3    H143463   5.111   0.974   6.051
14506TIP3    H243464   5.037   1.104   6.075
14507TIP3   OH243465   0.617   4.545   2.927
14507TIP3    H143466   0.553   4.569   2.860
14507TIP3    H243467   0.699   4.533   2.879
14508TIP3   OH243468   3.540   7.609   1.229
14508TIP3    H143469   3.495   7.639   1.150
14508TIP3    H243470   3.507   7.666   1.299
14509TIP3   OH243471   3.379   5.011   0.406
14509TIP3    H143472   3.453   4.950   0.402
14509TIP3    H243473   3.402   5.072   0.476
14510TIP3   OH243474   3.829   6.323   1.197
14510TIP3    H143475   3.789   6.409   1.182
14510TIP3    H243476   3.800   6.270   1.122
14511TIP3   OH243477   2.609   2.929   6.582
14511TIP3    H143478   2.678   2.913   6.647
14511TIP3    H243479   2.657   2.945   6.500
14512TIP3   OH243480   2.731   7.666   5.911
14512TIP3    H143481   2.706   7.687   5.820
14512TIP3    H243482   2.804   7.605   5.902
14513TIP3   OH243483   1.292   3.126   5.850
14513TIP3    H143484   1.273   3.158   5.938
14513TIP3    H243485   1.333   3.040   5.864
14514TIP3   OH243486   7.338   5.366   0.582
14514TIP3    H143487   7.410   5.310   0.551
14514TIP3    H243488   7.289   5.388   0.503
14515TIP3   OH243489   5.958   5.926   3.407
14515TIP3    H143490   6.041   5.911   3.452
14515TIP3    H243491   5.983   5.941   3.315
14516TIP3   OH243492   7.787   2.070   5.525
14516TIP3    H143493   7.707   2.034   5.564
14516TIP3    H243494   7.846   2.082   5.600
14517TIP3   OH243495   6.991   2.246   4.374
14517TIP3    H143496   6.903   2.224   4.406
14517TIP3    H243497   7.039   2.274   4.452
14518TIP3   OH243498   6.874   2.607   0.102
14518TIP3    H143499   6.888   2.681   0.044
14518TIP3    H243500   6.961   2.587   0.138
14519TIP3   OH243501   1.301   7.302   3.364
14519TIP3    H143502   1.323   7.266   3.278
14519TIP3    H243503   1.370   7.269   3.422
14520TIP3   OH243504   1.318   5.587   2.879
14520TIP3    H143505   1.371   5.600   2.801
14520TIP3    H243506   1.382   5.570   2.949
14521TIP3   OH243507   0.473   4.352   1.152
14521TIP3    H143508   0.437   4.310   1.074
14521TIP3    H243509   0.544   4.407   1.119
14522TIP3   OH243510   2.273   5.629   3.471
14522TIP3    H143511   2.367   5.617   3.462
14522TIP3    H243512   2.264   5.712   3.518
14523TIP3   OH243513   6.318   3.549   4.193
14523TIP3    H143514   6.350   3.588   4.111
14523TIP3    H243515   6.223   3.561   4.190
14524TIP3   OH243516   5.487   5.824   6.390
14524TIP3    H143517   5.531   5.761   6.447
14524TIP3    H243518   5.516   5.801   6.302
14525TIP3   OH243519   0.820   0.256   5.505
14525TIP3    H143520   0.902   0.295   5.473
14525TIP3    H243521   0.849   0.180   5.556
14526TIP3   OH243522   4.869   1.084   4.596
14526TIP3    H143523   4.826   1.041   4.670
14526TIP3    H243524   4.799   1.130   4.550
14527TIP3   OH243525   3.877   6.285   6.434
14527TIP3    H143526   3.807   6.220   6.438
14527TIP3    H243527   3.909   6.292   6.524
14528TIP3   OH243528   7.845   0.551   3.457
14528TIP3    H143529   7.860   0.624   3.398
14528TIP3    H243530   7.793   0.489   3.406
14529TIP3   OH243531   4.782   3.059   6.683
14529TIP3    H143532   4.817   3.137   6.725
14529TIP3    H243533   4.857   3.018   6.640
14530TIP3   OH243534   6.773   4.431   1.947
14530TIP3    H143535   6.847   4.431   2.008
14530TIP3    H243536   6.814   4.425   1.860
14531TIP3   OH243537   0.818   6.873   5.750
14531TIP3    H143538   0.735   6.908   5.784
14531TIP3    H243539   0.812   6.888   5.656
14532TIP3   OH243540   0.809   4.464   4.761
14532TIP3    H143541   0.876   4.506   4.815
14532TIP3    H243542   0.744   4.433   4.824
14533TIP3   OH243543   5.468   0.668   4.042
14533TIP3    H143544   5.517   0.718   4.108
14533TIP3    H243545   5.522   0.590   4.027
14534TIP3   OH243546   5.508   1.326   6.443
14534TIP3    H143547   5.552   1.408   6.422
14534TIP3    H243548   5.572   1.258   6.422
14535TIP3   OH243549   0.464   7.109   2.986
14535TIP3    H143550   0.382   7.108   2.936
14535TIP3    H243551   0.436   7.126   3.076
14536TIP3   OH243552   0.829   1.189   2.341
14536TIP3    H143553   0.845   1.114   2.285
14536TIP3    H243554   0.853   1.158   2.429
14537TIP3   OH243555   3.575   6.018   4.736
14537TIP3    H143556   3.540   5.932   4.712
14537TIP3    H243557   3.506   6.058   4.789
14538TIP3   OH243558   1.751   3.468   6.285
14538TIP3    H143559   1.803   3.546   6.264
14538TIP3    H243560   1.768   3.408   6.212
14539TIP3   OH243561   6.017   4.259   3.313
14539TIP3    H143562   6.029   4.341   3.266
14539TIP3    H243563   6.063   4.271   3.396
14540TIP3   OH243564   2.863   7.640   4.177
14540TIP3    H143565   2.899   7.680   4.256
14540TIP3    H243566   2.917   7.675   4.106
14541TIP3   OH243567   1.940   3.262   0.020
14541TIP3    H143568   1.972   3.259   0.110
14541TIP3    H243569   1.855   3.307   0.026
14542TIP3   OH243570   2.493   1.690   0.936
14542TIP3    H143571   2.497   1.603   0.897
14542TIP3    H243572   2.450   1.745   0.870
14543TIP3   OH243573   2.894   0.785   5.571
14543TIP3    H143574   2.844   0.854   5.527
14543TIP3    H243575   2.980   0.787   5.529
14544TIP3   OH243576   2.991   4.893   2.308
14544TIP3    H143577   2.998   4.822   2.371
14544TIP3    H243578   3.013   4.854   2.224
14545TIP3   OH243579   4.592   5.460   0.707
14545TIP3    H143580   4.559   5.513   0.779
14545TIP3    H243581   4.686   5.477   0.706
14546TIP3   OH243582   0.844   0.127   4.630
14546TIP3    H143583   0.933   0.159   4.642
14546TIP3    H243584   0.792   0.176   4.693
14547TIP3   OH243585   1.780   5.930   2.088
14547TIP3    H143586   1.754   5.953   2.177
14547TIP3    H243587   1.822   5.844   2.096
14548TIP3   OH243588   2.091   3.573   2.653
14548TIP3    H143589   2.027   3.616   2.710
14548TIP3    H243590   2.079   3.480   2.670
14549TIP3   OH243591   6.129   7.462   5.170
14549TIP3    H143592   6.199   7.488   5.230
14549TIP3    H243593   6.060   7.427   5.227
14550TIP3   OH243594   7.141   7.851   4.198
14550TIP3    H143595   7.104   7.764   4.182
14550TIP3    H243596   7.169   7.849   4.290
14551TIP3   OH243597   4.968   3.475   1.494
14551TIP3    H143598   4.978   3.529   1.573
14551TIP3    H243599   4.922   3.531   1.432
14552TIP3   OH243600   4.454   2.067   5.618
14552TIP3    H143601   4.497   2.088   5.535
14552TIP3    H243602   4.503   1.991   5.652
14553TIP3   OH243603   7.644   5.251   5.370
14553TIP3    H143604   7.736   5.271   5.387
14553TIP3    H243605   7.619   5.312   5.300
14554TIP3   OH243606   3.536   1.692   6.262
14554TIP3    H143607   3.513   1.671   6.172
14554TIP3    H243608   3.477   1.764   6.285
14555TIP3   OH243609   0.842   7.076  -0.003
14555TIP3    H143610   0.817   7.069   0.089
14555TIP3    H243611   0.819   6.992  -0.041
14556TIP3   OH243612   4.175   7.373   0.618
14556TIP3    H143613   4.215   7.288   0.636
14556TIP3    H243614   4.214   7.400   0.535
14557TIP3   OH243615   2.457   0.626   4.953
14557TIP3    H143616   2.391   0.619   4.884
14557TIP3    H243617   2.409   0.609   5.034
14558TIP3   OH243618   3.920   5.076   1.237
14558TIP3    H143619   3.925   5.014   1.165
14558TIP3    H243620   3.834   5.117   1.228
14559TIP3   OH243621   7.400   4.231   4.189
14559TIP3    H143622   7.379   4.172   4.117
14559TIP3    H243623   7.365   4.316   4.162
14560TIP3   OH243624   7.660   6.620   6.756
14560TIP3    H143625   7.722   6.556   6.790
14560TIP3    H243626   7.715   6.691   6.722
14561TIP3   OH243627   8.189   7.450   0.365
14561TIP3    H143628   8.139   7.389   0.420
14561TIP3    H243629   8.175   7.536   0.406
14562TIP3   OH243630   1.766   4.462   3.464
14562TIP3    H143631   1.700   4.501   3.408
14562TIP3    H243632   1.839   4.524   3.462
14563TIP3   OH243633   0.772   5.019   0.460
14563TIP3    H143634   0.783   5.077   0.535
14563TIP3    H243635   0.718   5.068   0.398
14564TIP3   OH243636   3.138   6.668   6.063
14564TIP3    H143637   3.147   6.635   5.974
14564TIP3    H243638   3.045   6.687   6.072
14565TIP3   OH243639   4.587   5.101   5.215
14565TIP3    H143640   4.676   5.131   5.230
14565TIP3    H243641   4.584   5.013   5.251
14566TIP3   OH243642   7.109   3.206   3.825
14566TIP3    H143643   7.043   3.171   3.885
14566TIP3    H243644   7.059   3.240   3.751
14567TIP3   OH243645   2.549   7.268   3.078
14567TIP3    H143646   2.484   7.210   3.038
14567TIP3    H243647   2.503   7.312   3.149
14568TIP3   OH243648   3.141   7.264   5.838
14568TIP3    H143649   3.187   7.242   5.757
14568TIP3    H243650   3.205   7.250   5.907
14569TIP3   OH243651   0.957   5.591   3.731
14569TIP3    H143652   0.940   5.509   3.683
14569TIP3    H243653   1.035   5.627   3.689
14570TIP3   OH243654   7.505   7.022   0.544
14570TIP3    H143655   7.524   6.973   0.464
14570TIP3    H243656   7.519   6.959   0.615
14571TIP3   OH243657   1.022   0.770   0.101
14571TIP3    H143658   0.988   0.816   0.178
14571TIP3    H243659   0.963   0.797   0.030
14572TIP3   OH243660   2.996   4.074   1.339
14572TIP3    H143661   2.937   3.999   1.341
14572TIP3    H243662   3.070   4.045   1.286
14573TIP3   OH243663   6.223   4.736   6.290
14573TIP3    H143664   6.291   4.673   6.312
14573TIP3    H243665   6.264   4.793   6.224
14574TIP3   OH243666   8.034   3.564   4.233
14574TIP3    H143667   8.062   3.654   4.215
14574TIP3    H243668   7.980   3.571   4.312
14575TIP3   OH243669   7.323   1.860   4.015
14575TIP3    H143670   7.325   1.845   3.921
14575TIP3    H243671   7.379   1.791   4.051
14576TIP3   OH243672   7.426   4.331   3.116
14576TIP3    H143673   7.434   4.292   3.028
14576TIP3    H243674   7.339   4.304   3.146
14577TIP3   OH243675   4.688   1.708   3.851
14577TIP3    H143676   4.615   1.759   3.816
14577TIP3    H243677   4.765   1.740   3.802
14578TIP3   OH243678   1.796   4.219   5.992
14578TIP3    H143679   1.732   4.171   6.045
14578TIP3    H243680   1.811   4.301   6.040
14579TIP3   OH243681   4.541   0.685   1.691
14579TIP3    H143682   4.551   0.774   1.657
14579TIP3    H243683   4.517   0.697   1.783
14580TIP3   OH243684   7.588   7.140   0.206
14580TIP3    H143685   7.683   7.145   0.213
14580TIP3    H243686   7.564   7.063   0.257
14581TIP3   OH243687   7.849   7.783   5.166
14581TIP3    H143688   7.825   7.858   5.220
14581TIP3    H243689   7.875   7.716   5.229
14582TIP3   OH243690   0.219   2.823   6.308
14582TIP3    H143691   0.287   2.756   6.299
14582TIP3    H243692   0.152   2.798   6.244
14583TIP3   OH243693   6.623   0.147   5.770
14583TIP3    H143694   6.531   0.142   5.744
14583TIP3    H243695   6.621   0.166   5.864
14584TIP3   OH243696   7.519   6.801   6.293
14584TIP3    H143697   7.478   6.766   6.214
14584TIP3    H243698   7.613   6.796   6.276
14585TIP3   OH243699   7.349   2.809   4.753
14585TIP3    H143700   7.255   2.790   4.755
14585TIP3    H243701   7.367   2.829   4.661
14586TIP3   OH243702   4.654   4.507   5.566
14586TIP3    H143703   4.614   4.450   5.500
14586TIP3    H243704   4.733   4.541   5.524
14587TIP3   OH243705   7.034   5.594   5.564
14587TIP3    H143706   7.066   5.673   5.608
14587TIP3    H243707   6.975   5.553   5.628
14588TIP3   OH243708   6.890   5.783   0.480
14588TIP3    H143709   6.971   5.736   0.501
14588TIP3    H243710   6.877   5.766   0.386
14589TIP3   OH243711   2.259   3.919   1.348
14589TIP3    H143712   2.305   3.992   1.392
14589TIP3    H243713   2.219   3.960   1.272
14590TIP3   OH243714   7.713   5.060   1.377
14590TIP3    H143715   7.710   5.151   1.405
14590TIP3    H243716   7.805   5.045   1.354
14591TIP3   OH243717   4.735   2.897   2.283
14591TIP3    H143718   4.689   2.883   2.366
14591TIP3    H243719   4.757   2.990   2.284
14592TIP3   OH243720   4.432   7.791   2.092
14592TIP3    H143721   4.400   7.702   2.105
14592TIP3    H243722   4.516   7.780   2.048
14593TIP3   OH243723   0.087   1.816   5.956
14593TIP3    H143724   0.139   1.756   5.903
14593TIP3    H243725   0.149   1.881   5.989
14594TIP3   OH243726   0.302   3.266   6.237
14594TIP3    H143727   0.222   3.257   6.186
14594TIP3    H243728   0.290   3.206   6.311
14595TIP3   OH243729   7.630   0.489   1.097
14595TIP3    H143730   7.611   0.583   1.102
14595TIP3    H243731   7.710   0.479   1.149
14596TIP3   OH243732   6.405   6.117   4.679
14596TIP3    H143733   6.472   6.057   4.711
14596TIP3    H243734   6.370   6.074   4.601
14597TIP3   OH243735   1.881   3.640   1.631
14597TIP3    H143736   1.788   3.631   1.652
14597TIP3    H243737   1.902   3.563   1.578
14598TIP3   OH243738   0.683   0.140   5.285
14598TIP3    H143739   0.695   0.162   5.378
14598TIP3    H243740   0.768   0.159   5.245
14599TIP3   OH243741   2.774   0.463   2.358
14599TIP3    H143742   2.760   0.424   2.272
14599TIP3    H243743   2.845   0.526   2.346
14600TIP3   OH243744   0.101   3.480   4.940
14600TIP3    H143745   0.174   3.430   4.901
14600TIP3    H243746   0.029   3.469   4.878
14601TIP3   OH243747   6.756   7.797   5.087
14601TIP3    H143748   6.767   7.872   5.029
14601TIP3    H243749   6.666   7.768   5.073
14602TIP3   OH243750   2.529   7.423   4.666
14602TIP3    H143751   2.498   7.334   4.681
14602TIP3    H243752   2.450   7.477   4.668
14603TIP3   OH243753   2.664   1.898   5.771
14603TIP3    H143754   2.693   1.902   5.863
14603TIP3    H243755   2.680   1.807   5.745
14604TIP3   OH243756   4.915   7.105   5.977
14604TIP3    H143757   4.982   7.170   5.958
14604TIP3    H243758   4.954   7.049   6.044
14605TIP3   OH243759   6.142   2.412   4.391
14605TIP3    H143760   6.101   2.343   4.338
14605TIP3    H243761   6.189   2.364   4.460
14606TIP3   OH243762   2.253   3.744   5.865
14606TIP3    H143763   2.332   3.729   5.814
14606TIP3    H243764   2.241   3.839   5.862
14607TIP3   OH243765   5.528   7.270   4.423
14607TIP3    H143766   5.515   7.178   4.446
14607TIP3    H243767   5.567   7.310   4.500
14608TIP3   OH243768   0.277   2.449   4.492
14608TIP3    H143769   0.344   2.387   4.465
14608TIP3    H243770   0.316   2.535   4.476
14609TIP3   OH243771   8.035   4.207   6.310
14609TIP3    H143772   8.025   4.232   6.401
14609TIP3    H243773   8.082   4.279   6.269
14610TIP3   OH243774   0.531   4.246   2.708
14610TIP3    H143775   0.524   4.177   2.642
14610TIP3    H243776   0.625   4.255   2.723
14611TIP3   OH243777   6.460   7.059   0.812
14611TIP3    H143778   6.506   7.040   0.730
14611TIP3    H243779   6.514   7.124   0.855
14612TIP3   OH243780   0.454   6.770   4.138
14612TIP3    H143781   0.423   6.699   4.196
14612TIP3    H243782   0.406   6.847   4.168
14613TIP3   OH243783   8.194   5.620   4.418
14613TIP3    H143784   8.123   5.587   4.364
14613TIP3    H243785   8.169   5.599   4.508
14614TIP3   OH243786   4.649   3.890   2.301
14614TIP3    H143787   4.676   3.809   2.258
14614TIP3    H243788   4.581   3.863   2.363
14615TIP3   OH243789   2.506   5.444   3.791
14615TIP3    H143790   2.531   5.508   3.724
14615TIP3    H243791   2.580   5.385   3.797
14616TIP3   OH243792   6.730   2.680   6.278
14616TIP3    H143793   6.786   2.613   6.239
14616TIP3    H243794   6.642   2.660   6.246
14617TIP3   OH243795   6.820   3.355   2.253
14617TIP3    H143796   6.831   3.261   2.262
14617TIP3    H243797   6.773   3.381   2.333
14618TIP3   OH243798   7.432   7.702   3.237
14618TIP3    H143799   7.429   7.622   3.185
14618TIP3    H243800   7.466   7.675   3.322
14619TIP3   OH243801   1.818   1.885   3.579
14619TIP3    H143802   1.759   1.960   3.578
14619TIP3    H243803   1.766   1.814   3.616
14620TIP3   OH243804   7.328   3.204   5.237
14620TIP3    H143805   7.375   3.271   5.187
14620TIP3    H243806   7.355   3.219   5.327
14621TIP3   OH243807   0.675   7.626   0.541
14621TIP3    H143808   0.595   7.665   0.504
14621TIP3    H243809   0.730   7.608   0.464
14622TIP3   OH243810   6.767   6.168   4.551
14622TIP3    H143811   6.752   6.238   4.487
14622TIP3    H243812   6.847   6.194   4.597
14623TIP3   OH243813   6.793   0.462   0.393
14623TIP3    H143814   6.835   0.381   0.366
14623TIP3    H243815   6.726   0.478   0.326
14624TIP3   OH243816   0.868   4.363   2.208
14624TIP3    H143817   0.781   4.399   2.192
14624TIP3    H243818   0.922   4.439   2.229
14625TIP3   OH243819   7.977   0.060   6.708
14625TIP3    H143820   8.027   0.073   6.627
14625TIP3    H243821   8.013  -0.020   6.745
14626TIP3   OH243822   7.684   1.071   1.420
14626TIP3    H143823   7.715   1.157   1.449
14626TIP3    H243824   7.616   1.092   1.356
14627TIP3   OH243825   1.030   4.734   0.559
14627TIP3    H143826   1.106   4.760   0.506
14627TIP3    H243827   1.035   4.790   0.636
14628TIP3   OH243828   6.338   7.541   2.934
14628TIP3    H143829   6.350   7.589   2.852
14628TIP3    H243830   6.314   7.452   2.905
14629TIP3   OH243831   6.074   2.360   0.510
14629TIP3    H143832   5.987   2.389   0.482
14629TIP3    H243833   6.064   2.340   0.603
14630TIP3   OH243834   5.202   4.869   6.395
14630TIP3    H143835   5.119   4.847   6.352
14630TIP3    H243836   5.269   4.824   6.343
14631TIP3   OH243837   1.550   5.789   0.778
14631TIP3    H143838   1.621   5.793   0.841
14631TIP3    H243839   1.557   5.870   0.728
14632TIP3   OH243840   5.515   1.021   3.136
14632TIP3    H143841   5.423   1.031   3.114
14632TIP3    H243842   5.520   1.039   3.230
14633TIP3   OH243843   6.707   3.306   1.101
14633TIP3    H143844   6.731   3.233   1.044
14633TIP3    H243845   6.637   3.351   1.054
14634TIP3   OH243846   4.726   0.956   4.780
14634TIP3    H143847   4.700   0.980   4.869
14634TIP3    H243848   4.678   0.875   4.761
14635TIP3   OH243849   3.280   4.225   0.339
14635TIP3    H143850   3.278   4.245   0.246
14635TIP3    H243851   3.336   4.293   0.377
14636TIP3   OH243852   4.541   6.369   1.907
14636TIP3    H143853   4.592   6.319   1.971
14636TIP3    H243854   4.605   6.425   1.864
14637TIP3   OH243855   1.822   1.850   6.013
14637TIP3    H143856   1.785   1.804   6.089
14637TIP3    H243857   1.871   1.782   5.967
14638TIP3   OH243858   6.641   1.351   5.003
14638TIP3    H143859   6.604   1.352   4.915
14638TIP3    H243860   6.622   1.438   5.038
14639TIP3   OH243861   5.335   7.005   4.062
14639TIP3    H143862   5.281   7.055   4.123
14639TIP3    H243863   5.311   6.914   4.079
14640TIP3   OH243864   1.636   5.537   2.696
14640TIP3    H143865   1.700   5.600   2.729
14640TIP3    H243866   1.582   5.588   2.634
14641TIP3   OH243867   5.581   0.493   5.856
14641TIP3    H143868   5.519   0.468   5.925
14641TIP3    H243869   5.537   0.564   5.809
14642TIP3   OH243870   2.584   5.009   5.455
14642TIP3    H143871   2.495   5.040   5.471
14642TIP3    H243872   2.573   4.920   5.423
14643TIP3   OH243873   7.569   0.350   4.709
14643TIP3    H143874   7.594   0.365   4.800
14643TIP3    H243875   7.619   0.416   4.660
14644TIP3   OH243876   7.532   4.054   5.988
14644TIP3    H143877   7.441   4.082   5.988
14644TIP3    H243878   7.549   4.027   6.078
14645TIP3   OH243879   5.131   6.344   3.767
14645TIP3    H143880   5.075   6.355   3.689
14645TIP3    H243881   5.070   6.340   3.840
14646TIP3   OH243882   5.914   7.638   5.443
14646TIP3    H143883   5.916   7.556   5.393
14646TIP3    H243884   5.821   7.662   5.444
14647TIP3   OH243885   2.196   6.504   1.103
14647TIP3    H143886   2.186   6.410   1.117
14647TIP3    H243887   2.108   6.540   1.113
14648TIP3   OH243888   8.106   2.695   2.441
14648TIP3    H143889   8.174   2.638   2.476
14648TIP3    H243890   8.027   2.672   2.490
14649TIP3   OH243891   4.490   6.804   4.973
14649TIP3    H143892   4.505   6.887   4.929
14649TIP3    H243893   4.395   6.793   4.974
14650TIP3   OH243894   4.170   4.301   5.483
14650TIP3    H143895   4.163   4.384   5.529
14650TIP3    H243896   4.090   4.253   5.507
14651TIP3   OH243897   1.973   0.324   1.840
14651TIP3    H143898   2.016   0.393   1.788
14651TIP3    H243899   1.891   0.308   1.795
14652TIP3   OH243900   0.838   3.887   3.026
14652TIP3    H143901   0.768   3.911   2.965
14652TIP3    H243902   0.916   3.877   2.971
14653TIP3   OH243903   3.557   7.265   2.118
14653TIP3    H143904   3.574   7.176   2.149
14653TIP3    H243905   3.601   7.270   2.034
14654TIP3   OH243906   4.654   5.484   2.695
14654TIP3    H143907   4.748   5.474   2.711
14654TIP3    H243908   4.634   5.574   2.721
14655TIP3   OH243909   2.853   2.764   4.548
14655TIP3    H143910   2.941   2.779   4.514
14655TIP3    H243911   2.856   2.675   4.583
14656TIP3   OH243912   6.206   4.072   2.060
14656TIP3    H143913   6.236   4.010   1.993
14656TIP3    H243914   6.150   4.133   2.013
14657TIP3   OH243915   2.262   2.870   4.454
14657TIP3    H143916   2.246   2.892   4.546
14657TIP3    H243917   2.202   2.926   4.405
14658TIP3   OH243918   6.380   4.712   3.218
14658TIP3    H143919   6.398   4.667   3.136
14658TIP3    H243920   6.350   4.799   3.191
14659TIP3   OH243921   2.862   1.761   0.837
14659TIP3    H143922   2.779   1.793   0.802
14659TIP3    H243923   2.919   1.837   0.837
14660TIP3   OH243924   1.651   6.393   1.296
14660TIP3    H143925   1.627   6.441   1.216
14660TIP3    H243926   1.621   6.304   1.280
14661TIP3   OH243927   4.755   2.153   5.816
14661TIP3    H143928   4.777   2.081   5.756
14661TIP3    H243929   4.699   2.112   5.883
14662TIP3   OH243930   5.325   2.695   1.043
14662TIP3    H143931   5.333   2.629   1.112
14662TIP3    H243932   5.406   2.687   0.993
14663TIP3   OH243933   7.171   0.003   4.820
14663TIP3    H143934   7.184   0.092   4.789
14663TIP3    H243935   7.251  -0.019   4.867
14664TIP3   OH243936   4.237   4.418   1.789
14664TIP3    H143937   4.329   4.442   1.804
14664TIP3    H243938   4.194   4.501   1.768
14665TIP3   OH243939   7.540   0.842   3.654
14665TIP3    H143940   7.509   0.752   3.666
14665TIP3    H243941   7.461   0.895   3.654
14666TIP3   OH243942   2.918   6.025   1.490
14666TIP3    H143943   2.831   6.018   1.450
14666TIP3    H243944   2.950   6.111   1.462
14667TIP3   OH243945   5.826   7.166   4.525
14667TIP3    H143946   5.881   7.237   4.492
14667TIP3    H243947   5.741   7.181   4.484
14668TIP3   OH243948   7.553   7.020   3.774
14668TIP3    H143949   7.487   6.972   3.724
14668TIP3    H243950   7.624   6.957   3.786
14669TIP3   OH243951   4.802   6.841   0.427
14669TIP3    H143952   4.781   6.835   0.520
14669TIP3    H243953   4.721   6.871   0.385
14670TIP3   OH243954   1.716   3.702   3.028
14670TIP3    H143955   1.623   3.678   3.027
14670TIP3    H243956   1.745   3.682   3.116
14671TIP3   OH243957   7.026   7.591   4.146
14671TIP3    H143958   6.934   7.566   4.147
14671TIP3    H243959   7.071   7.517   4.186
14672TIP3   OH243960   7.877   0.664   3.900
14672TIP3    H143961   7.903   0.647   3.991
14672TIP3    H243962   7.889   0.580   3.856
14673TIP3   OH243963   1.751   6.305   0.229
14673TIP3    H143964   1.743   6.270   0.318
14673TIP3    H243965   1.661   6.319   0.201
14674TIP3   OH243966   4.175   6.797   2.629
14674TIP3    H143967   4.118   6.726   2.603
14674TIP3    H243968   4.134   6.833   2.708
14675TIP3   OH243969   5.771   3.119   2.439
14675TIP3    H143970   5.753   3.052   2.505
14675TIP3    H243971   5.725   3.089   2.361
14676TIP3   OH243972   0.168   6.217   1.994
14676TIP3    H143973   0.238   6.229   1.930
14676TIP3    H243974   0.211   6.174   2.069
14677TIP3   OH243975   5.563   5.859   1.099
14677TIP3    H143976   5.651   5.849   1.134
14677TIP3    H243977   5.505   5.831   1.170
14678TIP3   OH243978   2.926   1.261   5.140
14678TIP3    H143979   2.900   1.243   5.050
14678TIP3    H243980   2.848   1.298   5.181
14679TIP3   OH243981   2.293   1.680   6.599
14679TIP3    H143982   2.237   1.709   6.671
14679TIP3    H243983   2.264   1.732   6.524
14680TIP3   OH243984   8.291   5.043   3.181
14680TIP3    H143985   8.318   4.990   3.256
14680TIP3    H243986   8.197   5.030   3.176
14681TIP3   OH243987   0.012   7.044   6.675
14681TIP3    H143988   0.029   6.953   6.702
14681TIP3    H243989   0.042   7.096   6.750
14682TIP3   OH243990   0.019   7.191   1.891
14682TIP3    H143991   0.092   7.213   1.834
14682TIP3    H243992   0.009   7.096   1.881
14683TIP3   OH243993   2.614   7.550   6.298
14683TIP3    H143994   2.573   7.591   6.375
14683TIP3    H243995   2.549   7.486   6.268
14684TIP3   OH243996   7.213   5.363   4.808
14684TIP3    H143997   7.180   5.374   4.719
14684TIP3    H243998   7.308   5.354   4.797
14685TIP3   OH243999   6.448   5.125   6.449
14685TIP3    H144000   6.427   5.036   6.477
14685TIP3    H244001   6.371   5.177   6.474
14686TIP3   OH244002   3.652   7.184   4.488
14686TIP3    H144003   3.661   7.089   4.503
14686TIP3    H244004   3.649   7.222   4.575
14687TIP3   OH244005   2.805   7.548   6.714
14687TIP3    H144006   2.789   7.633   6.755
14687TIP3    H244007   2.774   7.484   6.778
14688TIP3   OH244008   1.680   3.465   2.063
14688TIP3    H144009   1.603   3.520   2.051
14688TIP3    H244010   1.680   3.444   2.157
14689TIP3   OH244011   1.549   1.567   2.595
14689TIP3    H144012   1.478   1.518   2.554
14689TIP3    H244013   1.597   1.502   2.646
14690TIP3   OH244014   3.922   0.384   3.363
14690TIP3    H144015   3.885   0.413   3.279
14690TIP3    H244016   3.887   0.295   3.375
14691TIP3   OH244017   4.193   3.086   2.903
14691TIP3    H144018   4.227   3.039   2.979
14691TIP3    H244019   4.161   3.017   2.844
14692TIP3   OH244020   4.872   4.667   1.454
14692TIP3    H144021   4.930   4.718   1.397
14692TIP3    H244022   4.826   4.608   1.395
14693TIP3   OH244023   0.774   7.413   4.172
14693TIP3    H144024   0.824   7.478   4.123
14693TIP3    H244025   0.839   7.345   4.195
14694TIP3   OH244026   7.348   3.681   5.622
14694TIP3    H144027   7.266   3.689   5.574
14694TIP3    H244028   7.362   3.767   5.662
14695TIP3   OH244029   7.391   6.819   4.347
14695TIP3    H144030   7.381   6.756   4.418
14695TIP3    H244031   7.305   6.860   4.339
14696TIP3   OH244032   3.848   1.980   5.656
14696TIP3    H144033   3.888   2.067   5.658
14696TIP3    H244034   3.757   1.995   5.681
14697TIP3   OH244035   6.326   6.733   3.513
14697TIP3    H144036   6.306   6.822   3.484
14697TIP3    H244037   6.385   6.744   3.587
14698TIP3   OH244038   8.178   1.112   0.903
14698TIP3    H144039   8.193   1.018   0.907
14698TIP3    H244040   8.194   1.136   0.812
14699TIP3   OH244041   1.473   4.104   5.444
14699TIP3    H144042   1.381   4.085   5.464
14699TIP3    H244043   1.470   4.161   5.368
14700TIP3   OH244044   7.947   5.694   5.307
14700TIP3    H144045   7.944   5.697   5.211
14700TIP3    H244046   7.879   5.755   5.335
14701TIP3   OH244047   4.818   0.977   6.228
14701TIP3    H144048   4.793   0.885   6.227
14701TIP3    H244049   4.790   1.011   6.143
14702TIP3   OH244050   4.936   6.521   0.708
14702TIP3    H144051   4.951   6.539   0.801
14702TIP3    H244052   5.014   6.473   0.680
14703TIP3   OH244053   5.242   5.749   0.695
14703TIP3    H144054   5.282   5.679   0.643
14703TIP3    H244055   5.314   5.781   0.750
14704TIP3   OH244056   2.894   7.234   1.097
14704TIP3    H144057   2.853   7.316   1.069
14704TIP3    H244058   2.827   7.190   1.148
14705TIP3   OH244059   2.568   5.231   4.590
14705TIP3    H144060   2.473   5.241   4.580
14705TIP3    H244061   2.580   5.137   4.607
14706TIP3   OH244062   1.495   7.349   6.257
14706TIP3    H144063   1.477   7.441   6.272
14706TIP3    H244064   1.414   7.314   6.220
14707TIP3   OH244065   6.052   1.371   0.368
14707TIP3    H144066   6.082   1.348   0.280
14707TIP3    H244067   6.087   1.458   0.383
14708TIP3   OH244068   2.483   6.802   0.493
14708TIP3    H144069   2.442   6.804   0.406
14708TIP3    H244070   2.498   6.709   0.510
14709TIP3   OH244071   1.604   3.061   4.943
14709TIP3    H144072   1.587   3.144   4.988
14709TIP3    H244073   1.528   3.047   4.887
14710TIP3   OH244074   4.829   0.042   0.759
14710TIP3    H144075   4.881   0.022   0.836
14710TIP3    H244076   4.756   0.096   0.792
14711TIP3   OH244077   0.654   1.669   3.575
14711TIP3    H144078   0.621   1.688   3.663
14711TIP3    H244079   0.576   1.650   3.523
14712TIP3   OH244080   0.960   1.842   1.250
14712TIP3    H144081   0.889   1.881   1.300
14712TIP3    H244082   1.036   1.846   1.309
14713TIP3   OH244083   7.582   0.237   1.784
14713TIP3    H144084   7.630   0.247   1.867
14713TIP3    H244085   7.501   0.193   1.809
14714TIP3   OH244086   0.653   5.565   2.082
14714TIP3    H144087   0.724   5.527   2.133
14714TIP3    H244088   0.573   5.535   2.125
14715TIP3   OH244089   2.532   7.783   3.162
14715TIP3    H144090   2.608   7.753   3.211
14715TIP3    H244091   2.533   7.732   3.081
14716TIP3   OH244092   7.235   4.271   4.423
14716TIP3    H144093   7.309   4.261   4.363
14716TIP3    H244094   7.177   4.198   4.402
14717TIP3   OH244095   5.064   6.018   1.973
14717TIP3    H144096   5.106   6.004   1.888
14717TIP3    H244097   5.136   6.026   2.035
14718TIP3   OH244098   7.642   6.908   6.510
14718TIP3    H144099   7.621   6.998   6.534
14718TIP3    H244100   7.596   6.894   6.427
14719TIP3   OH244101   8.135   0.514   2.829
14719TIP3    H144102   8.107   0.453   2.761
14719TIP3    H244103   8.208   0.563   2.790
14720TIP3   OH244104   4.561   0.333   5.594
14720TIP3    H144105   4.515   0.344   5.511
14720TIP3    H244106   4.604   0.417   5.609
14721TIP3   OH244107   5.542   3.370   0.288
14721TIP3    H144108   5.559   3.389   0.380
14721TIP3    H244109   5.594   3.292   0.270
14722TIP3   OH244110   0.944   0.850   2.842
14722TIP3    H144111   1.039   0.839   2.837
14722TIP3    H244112   0.928   0.881   2.931
14723TIP3   OH244113   7.817   2.116   0.828
14723TIP3    H144114   7.749   2.056   0.798
14723TIP3    H244115   7.827   2.179   0.757
14724TIP3   OH244116   1.231   2.847   5.069
14724TIP3    H144117   1.157   2.870   5.013
14724TIP3    H244118   1.225   2.752   5.078
14725TIP3   OH244119   6.239   2.721   1.357
14725TIP3    H144120   6.320   2.757   1.395
14725TIP3    H244121   6.179   2.717   1.431
14726TIP3   OH244122   3.590   7.082   5.674
14726TIP3    H144123   3.669   7.058   5.625
14726TIP3    H244124   3.541   7.139   5.615
14727TIP3   OH244125   7.713   5.332   1.428
14727TIP3    H144126   7.699   5.426   1.423
14727TIP3    H244127   7.781   5.321   1.494
14728TIP3   OH244128   7.830   0.878   3.753
14728TIP3    H144129   7.838   0.798   3.805
14728TIP3    H244130   7.741   0.874   3.718
14729TIP3   OH244131   3.949   7.730   1.807
14729TIP3    H144132   3.955   7.792   1.734
14729TIP3    H244133   3.950   7.644   1.765
14730TIP3   OH244134   6.480   3.508   2.040
14730TIP3    H144135   6.523   3.542   1.962
14730TIP3    H244136   6.461   3.585   2.092
14731TIP3   OH244137   5.879   4.517   3.313
14731TIP3    H144138   5.794   4.561   3.314
14731TIP3    H244139   5.942   4.587   3.293
14732TIP3   OH244140   4.758   7.502   4.983
14732TIP3    H144141   4.836   7.469   4.939
14732TIP3    H244142   4.791   7.550   5.058
14733TIP3   OH244143   2.283   7.206   4.445
14733TIP3    H144144   2.363   7.160   4.418
14733TIP3    H244145   2.274   7.277   4.382
14734TIP3   OH244146   1.610   2.410   0.152
14734TIP3    H144147   1.619   2.351   0.077
14734TIP3    H244148   1.669   2.483   0.132
14735TIP3   OH244149   3.241   6.644   2.083
14735TIP3    H144150   3.287   6.576   2.134
14735TIP3    H244151   3.284   6.643   1.997
14736TIP3   OH244152   3.930   3.438   6.116
14736TIP3    H144153   3.914   3.390   6.034
14736TIP3    H244154   3.869   3.399   6.178
14737TIP3   OH244155   0.613   5.061   2.825
14737TIP3    H144156   0.673   4.987   2.840
14737TIP3    H244157   0.665   5.122   2.772
14738TIP3   OH244158   3.697   1.932   3.513
14738TIP3    H144159   3.780   1.891   3.490
14738TIP3    H244160   3.637   1.911   3.441
14739TIP3   OH244161   3.436   2.688   0.343
14739TIP3    H144162   3.461   2.780   0.336
14739TIP3    H244163   3.422   2.660   0.253
14740TIP3   OH244164   0.252   5.619   1.780
14740TIP3    H144165   0.220   5.656   1.698
14740TIP3    H244166   0.340   5.586   1.759
14741TIP3   OH244167   7.171   4.603   6.337
14741TIP3    H144168   7.235   4.534   6.354
14741TIP3    H244169   7.159   4.602   6.242
14742TIP3   OH244170   0.422   0.696   5.759
14742TIP3    H144171   0.428   0.742   5.843
14742TIP3    H244172   0.511   0.701   5.723
14743TIP3   OH244173   6.954   5.725   1.765
14743TIP3    H144174   6.913   5.775   1.694
14743TIP3    H244175   6.943   5.633   1.738
14744TIP3   OH244176   1.815   5.936   5.398
14744TIP3    H144177   1.842   5.910   5.487
14744TIP3    H244178   1.894   5.976   5.361
14745TIP3   OH244179   2.958   4.356   2.325
14745TIP3    H144180   3.040   4.313   2.305
14745TIP3    H244181   2.983   4.445   2.351
14746TIP3   OH244182   7.825   2.785   5.129
14746TIP3    H144183   7.740   2.741   5.125
14746TIP3    H244184   7.879   2.730   5.185
14747TIP3   OH244185   0.850   2.755   0.536
14747TIP3    H144186   0.849   2.688   0.605
14747TIP3    H244187   0.763   2.752   0.498
14748TIP3   OH244188   5.232   0.701   3.525
14748TIP3    H144189   5.222   0.698   3.620
14748TIP3    H244190   5.287   0.778   3.509
14749TIP3   OH244191   2.019   3.093   4.709
14749TIP3    H144192   1.993   3.027   4.773
14749TIP3    H244193   2.099   3.132   4.746
14750TIP3   OH244194   6.599   3.904   6.492
14750TIP3    H144195   6.609   3.994   6.458
14750TIP3    H244196   6.504   3.892   6.497
14751TIP3   OH244197   4.025   6.366   5.474
14751TIP3    H144198   4.097   6.311   5.506
14751TIP3    H244199   3.961   6.304   5.439
14752TIP3   OH244200   7.863   6.015   3.777
14752TIP3    H144201   7.852   6.088   3.716
14752TIP3    H244202   7.811   6.041   3.853
14753TIP3   OH244203   8.240   2.022   6.306
14753TIP3    H144204   8.320   2.045   6.259
14753TIP3    H244205   8.234   1.927   6.300
14754TIP3   OH244206   5.490   1.522   6.135
14754TIP3    H144207   5.421   1.476   6.086
14754TIP3    H244208   5.563   1.461   6.135
14755TIP3   OH244209   7.687   1.178   6.697
14755TIP3    H144210   7.675   1.112   6.765
14755TIP3    H244211   7.782   1.184   6.686
14756TIP3   OH244212   0.063   6.897   1.031
14756TIP3    H144213   0.091   6.874   0.942
14756TIP3    H244214   0.115   6.840   1.088
14757TIP3   OH244215   1.158   4.921   0.729
14757TIP3    H144216   1.250   4.943   0.744
14757TIP3    H244217   1.109   4.986   0.778
14758TIP3   OH244218   3.972   2.893   0.107
14758TIP3    H144219   3.885   2.874   0.074
14758TIP3    H244220   4.026   2.819   0.078
14759TIP3   OH244221   2.835   3.416   4.852
14759TIP3    H144222   2.792   3.339   4.889
14759TIP3    H244223   2.899   3.381   4.790
14760TIP3   OH244224   2.599   0.402   5.070
14760TIP3    H144225   2.567   0.482   5.027
14760TIP3    H244226   2.682   0.428   5.109
14761TIP3   OH244227   2.339   3.812   2.230
14761TIP3    H144228   2.422   3.839   2.272
14761TIP3    H244229   2.273   3.827   2.298
14762TIP3   OH244230   2.291   2.639   3.549
14762TIP3    H144231   2.298   2.686   3.467
14762TIP3    H244232   2.355   2.568   3.542
14763TIP3   OH244233   7.316   5.354   0.299
14763TIP3    H144234   7.348   5.438   0.266
14763TIP3    H244235   7.394   5.301   0.312
14764TIP3   OH244236   3.040   5.858   5.996
14764TIP3    H144237   3.107   5.793   6.018
14764TIP3    H244238   3.052   5.928   6.060
14765TIP3   OH244239   0.805   2.838   0.893
14765TIP3    H144240   0.887   2.853   0.940
14765TIP3    H244241   0.797   2.913   0.834
14766TIP3   OH244242   0.407   4.090   3.768
14766TIP3    H144243   0.341   4.160   3.769
14766TIP3    H244244   0.387   4.040   3.689
14767TIP3   OH244245   8.167   0.440   1.738
14767TIP3    H144246   8.228   0.422   1.810
14767TIP3    H244247   8.088   0.474   1.781
14768TIP3   OH244248   2.963   1.258   0.926
14768TIP3    H144249   3.025   1.273   0.997
14768TIP3    H244250   2.953   1.344   0.884
14769TIP3   OH244251   3.507   3.866   4.077
14769TIP3    H144252   3.465   3.842   3.994
14769TIP3    H244253   3.563   3.941   4.054
14770TIP3   OH244254   3.546   5.704   4.456
14770TIP3    H144255   3.600   5.771   4.414
14770TIP3    H244256   3.487   5.752   4.513
14771TIP3   OH244257   3.140   6.808   4.236
14771TIP3    H144258   3.045   6.800   4.247
14771TIP3    H244259   3.171   6.846   4.318
14772TIP3   OH244260   3.084   0.125   2.557
14772TIP3    H144261   3.109   0.158   2.471
14772TIP3    H244262   3.118   0.035   2.559
14773TIP3   OH244263   5.278   2.096   0.266
14773TIP3    H144264   5.359   2.085   0.316
14773TIP3    H244265   5.306   2.096   0.174
14774TIP3   OH244266   1.286   0.315   1.388
14774TIP3    H144267   1.254   0.405   1.383
14774TIP3    H244268   1.287   0.284   1.298
14775TIP3   OH244269   2.820   5.453   2.218
14775TIP3    H144270   2.811   5.443   2.313
14775TIP3    H244271   2.883   5.525   2.208
14776TIP3   OH244272   1.379   3.690   0.249
14776TIP3    H144273   1.444   3.712   0.316
14776TIP3    H244274   1.296   3.688   0.297
14777TIP3   OH244275   2.173   5.423   4.734
14777TIP3    H144276   2.094   5.477   4.730
14777TIP3    H244277   2.242   5.478   4.698
14778TIP3   OH244278   0.689   4.699   0.418
14778TIP3    H144279   0.643   4.720   0.500
14778TIP3    H244280   0.781   4.693   0.443
14779TIP3   OH244281   0.718   3.002   6.089
14779TIP3    H144282   0.692   3.027   6.001
14779TIP3    H244283   0.812   3.015   6.092
14780TIP3   OH244284   0.197   7.195   0.690
14780TIP3    H144285   0.191   7.288   0.667
14780TIP3    H244286   0.132   7.183   0.759
14781TIP3   OH244287   1.345   1.800   6.625
14781TIP3    H144288   1.302   1.806   6.710
14781TIP3    H244289   1.273   1.791   6.563
14782TIP3   OH244290   3.933   0.829   2.677
14782TIP3    H144291   3.902   0.837   2.587
14782TIP3    H244292   3.966   0.739   2.683
14783TIP3   OH244293   4.118   3.732   1.821
14783TIP3    H144294   4.184   3.734   1.752
14783TIP3    H244295   4.037   3.710   1.775
14784TIP3   OH244296   7.638   0.555   3.662
14784TIP3    H144297   7.717   0.561   3.608
14784TIP3    H244298   7.566   0.553   3.600
14785TIP3   OH244299   4.756   4.966   6.097
14785TIP3    H144300   4.746   5.007   6.011
14785TIP3    H244301   4.837   4.916   6.091
14786TIP3   OH244302   1.640   4.891   3.982
14786TIP3    H144303   1.683   4.810   4.011
14786TIP3    H244304   1.647   4.950   4.058
14787TIP3   OH244305   7.643   6.533   3.047
14787TIP3    H144306   7.633   6.610   2.991
14787TIP3    H244307   7.643   6.567   3.136
14788TIP3   OH244308   2.096   0.111   0.693
14788TIP3    H144309   2.057   0.039   0.644
14788TIP3    H244310   2.144   0.162   0.628
14789TIP3   OH244311   0.133   0.786   0.365
14789TIP3    H144312   0.143   0.817   0.275
14789TIP3    H244313   0.126   0.866   0.418
14790TIP3   OH244314   7.880   0.538   2.928
14790TIP3    H144315   7.879   0.632   2.949
14790TIP3    H244316   7.963   0.524   2.883
14791TIP3   OH244317   7.372   5.632   6.610
14791TIP3    H144318   7.406   5.718   6.586
14791TIP3    H244319   7.445   5.572   6.596
14792TIP3   OH244320   0.570   7.597   5.195
14792TIP3    H144321   0.590   7.508   5.165
14792TIP3    H244322   0.643   7.619   5.253
14793TIP3   OH244323   6.589   3.637   1.831
14793TIP3    H144324   6.567   3.725   1.801
14793TIP3    H244325   6.683   3.629   1.814
14794TIP3   OH244326   2.240   4.925   0.411
14794TIP3    H144327   2.326   4.953   0.442
14794TIP3    H244328   2.204   4.874   0.483
14795TIP3   OH244329   6.259   7.279   5.420
14795TIP3    H144330   6.201   7.234   5.358
14795TIP3    H244331   6.260   7.222   5.497
14796TIP3   OH244332   5.038   0.821   2.705
14796TIP3    H144333   5.073   0.909   2.693
14796TIP3    H244334   5.110   0.773   2.745
14797TIP3   OH244335   8.125   5.766   6.514
14797TIP3    H144336   8.216   5.759   6.486
14797TIP3    H244337   8.079   5.801   6.437
14798TIP3   OH244338   0.766   4.902   5.357
14798TIP3    H144339   0.767   4.821   5.307
14798TIP3    H244340   0.674   4.916   5.379
14799TIP3   OH244341   1.590   7.083   2.070
14799TIP3    H144342   1.523   7.030   2.114
14799TIP3    H244343   1.577   7.171   2.104
14800TIP3   OH244344   3.857   4.474   1.893
14800TIP3    H144345   3.772   4.430   1.895
14800TIP3    H244346   3.918   4.410   1.930
14801TIP3   OH244347   1.347   7.636   4.754
14801TIP3    H144348   1.254   7.652   4.766
14801TIP3    H244349   1.390   7.707   4.802
14802TIP3   OH244350   3.342   3.630   2.246
14802TIP3    H144351   3.416   3.606   2.301
14802TIP3    H244352   3.265   3.619   2.302
14803TIP3   OH244353   3.560   4.908   4.878
14803TIP3    H144354   3.507   4.859   4.815
14803TIP3    H244355   3.496   4.947   4.938
14804TIP3   OH244356   7.378   4.263   6.349
14804TIP3    H144357   7.353   4.313   6.427
14804TIP3    H244358   7.434   4.323   6.299
14805TIP3   OH244359   7.939   6.037   5.993
14805TIP3    H144360   7.966   6.129   6.003
14805TIP3    H244361   8.014   5.994   5.952
14806TIP3   OH244362   1.926   3.980   5.889
14806TIP3    H144363   1.887   4.064   5.912
14806TIP3    H244364   2.018   3.989   5.912
14807TIP3   OH244365   4.072   2.215   0.360
14807TIP3    H144366   4.080   2.272   0.284
14807TIP3    H244367   4.136   2.145   0.345
14808TIP3   OH244368   4.233   4.586   4.471
14808TIP3    H144369   4.247   4.615   4.562
14808TIP3    H244370   4.174   4.652   4.434
14809TIP3   OH244371   5.063   1.586   5.316
14809TIP3    H144372   5.115   1.663   5.340
14809TIP3    H244373   5.045   1.543   5.400
14810TIP3   OH244374   1.818   1.355   1.449
14810TIP3    H144375   1.832   1.428   1.389
14810TIP3    H244376   1.900   1.305   1.444
14811TIP3   OH244377   0.096   2.991   6.749
14811TIP3    H144378   0.053   3.068   6.785
14811TIP3    H244379   0.047   2.971   6.669
14812TIP3   OH244380   1.009   0.836   3.505
14812TIP3    H144381   1.082   0.775   3.493
14812TIP3    H244382   1.010   0.856   3.599
14813TIP3   OH244383   4.823   6.561   6.038
14813TIP3    H144384   4.740   6.574   5.992
14813TIP3    H244385   4.890   6.571   5.970
14814TIP3   OH244386   6.108   4.264   2.959
14814TIP3    H144387   6.158   4.278   3.039
14814TIP3    H244388   6.029   4.219   2.988
14815TIP3   OH244389   7.083   2.864   1.165
14815TIP3    H144390   7.004   2.879   1.217
14815TIP3    H244391   7.097   2.948   1.120
14816TIP3   OH244392   3.543   2.550   4.455
14816TIP3    H144393   3.526   2.460   4.481
14816TIP3    H244394   3.558   2.546   4.360
14817TIP3   OH244395   0.262   7.694   3.577
14817TIP3    H144396   0.318   7.638   3.630
14817TIP3    H244397   0.179   7.646   3.571
14818TIP3   OH244398   2.873   2.527   0.588
14818TIP3    H144399   2.887   2.440   0.627
14818TIP3    H244400   2.817   2.511   0.513
14819TIP3   OH244401   5.274   3.104   3.928
14819TIP3    H144402   5.307   3.111   4.017
14819TIP3    H244403   5.190   3.060   3.937
14820TIP3   OH244404   6.757   2.498   1.798
14820TIP3    H144405   6.753   2.513   1.703
14820TIP3    H244406   6.694   2.429   1.815
14821TIP3   OH244407   6.983   4.059   3.606
14821TIP3    H144408   6.987   4.008   3.687
14821TIP3    H244409   7.054   4.123   3.615
14822TIP3   OH244410   7.844   3.699   3.587
14822TIP3    H144411   7.932   3.702   3.626
14822TIP3    H244412   7.858   3.729   3.497
14823TIP3   OH244413   4.109   4.116   4.364
14823TIP3    H144414   4.153   4.086   4.443
14823TIP3    H244415   4.119   4.044   4.302
14824TIP3   OH244416   5.807   5.571   0.731
14824TIP3    H144417   5.805   5.586   0.825
14824TIP3    H244418   5.785   5.656   0.692
14825TIP3   OH244419   5.763   1.834   2.020
14825TIP3    H144420   5.858   1.829   2.030
14825TIP3    H244421   5.743   1.765   1.955
14826TIP3   OH244422   6.917   5.019   5.920
14826TIP3    H144423   6.931   5.107   5.955
14826TIP3    H244424   6.996   4.971   5.944
14827TIP3   OH244425   8.168   1.462   3.523
14827TIP3    H144426   8.237   1.519   3.558
14827TIP3    H244427   8.170   1.477   3.429
14828TIP3   OH244428   3.732   3.226   3.954
14828TIP3    H144429   3.732   3.198   3.862
14828TIP3    H244430   3.684   3.309   3.954
14829TIP3   OH244431   3.850   1.755   6.141
14829TIP3    H144432   3.894   1.683   6.097
14829TIP3    H244433   3.828   1.720   6.228
14830TIP3   OH244434   7.871   6.251   2.197
14830TIP3    H144435   7.882   6.174   2.253
14830TIP3    H244436   7.806   6.305   2.244
14831TIP3   OH244437   1.276   4.530   4.680
14831TIP3    H144438   1.237   4.453   4.721
14831TIP3    H244439   1.283   4.506   4.587
14832TIP3   OH244440   1.758   6.868   2.083
14832TIP3    H144441   1.699   6.942   2.070
14832TIP3    H244442   1.814   6.868   2.006
14833TIP3   OH244443   4.645   4.180   5.084
14833TIP3    H144444   4.566   4.195   5.033
14833TIP3    H244445   4.695   4.117   5.031
14834TIP3   OH244446   2.839   2.833   1.593
14834TIP3    H144447   2.830   2.809   1.685
14834TIP3    H244448   2.835   2.749   1.546
14835TIP3   OH244449   0.371   4.111   5.125
14835TIP3    H144450   0.353   4.017   5.127
14835TIP3    H244451   0.342   4.140   5.039
14836TIP3   OH244452   1.001   7.819   4.209
14836TIP3    H144453   1.037   7.906   4.224
14836TIP3    H244454   0.945   7.829   4.131
14837TIP3   OH244455   5.884   4.680   6.631
14837TIP3    H144456   5.934   4.645   6.557
14837TIP3    H244457   5.916   4.632   6.707
14838TIP3   OH244458  -0.001   2.781   0.993
14838TIP3    H144459   0.045   2.857   0.956
14838TIP3    H244460   0.069   2.719   1.014
14839TIP3   OH244461   1.320   6.949   5.213
14839TIP3    H144462   1.378   6.910   5.147
14839TIP3    H244463   1.283   6.873   5.259
   8.29788   7.82332   6.77519   0.00000   0.00000  -2.76596   0.00000  -2.76596  -3.91166
