Title
19942
    1ASP      N    1   0.907   2.320   1.559 -0.4341  0.1708 -0.1935
    1ASP    HT1    2   0.861   2.317   1.653 -1.7034 -1.7744 -0.8192
    1ASP    HT2    3   0.866   2.242   1.505  1.8208 -0.4975 -1.0479
    1ASP    HT3    4   0.890   2.407   1.505  0.7293 -0.5515 -1.8020
    1ASP     CA    5   1.048   2.284   1.577  0.0129 -0.2351 -0.3333
    1ASP     HA    6   1.089   2.296   1.478  2.5526  3.5520  0.9687
    1ASP     CB    7   1.116   2.384   1.681  0.3627 -0.2706  0.5304
    1ASP    HB1    8   1.216   2.340   1.703 -0.2074 -1.8911  0.0178
    1ASP    HB2    9   1.067   2.387   1.780  0.2971 -0.9964  0.5224
    1ASP     CG   10   1.148   2.524   1.629 -0.2714  0.8343 -0.3098
    1ASP    OD1   11   1.162   2.618   1.713 -0.1623  0.1174 -0.3154
    1ASP    OD2   12   1.160   2.545   1.508 -0.0634  0.2875  0.2622
    1ASP      C   13   1.065   2.137   1.630 -0.9618  0.0576 -0.5048
    1ASP      O   14   1.019   2.099   1.739 -0.3167 -0.0844  0.1715
    2ALA      N   15   1.120   2.043   1.549 -0.5659  0.5686 -0.8711
    2ALA     HN   16   1.157   2.055   1.457 -0.6446 -0.0089 -0.9801
    2ALA     CA   17   1.139   1.905   1.590 -0.0196  0.5664 -0.6519
    2ALA     HA   18   1.036   1.871   1.595 -0.2331  1.0602 -1.5306
    2ALA     CB   19   1.199   1.814   1.482 -0.0421  0.1586 -0.5250
    2ALA    HB1   20   1.152   1.837   1.384 -0.5819 -1.5719 -0.6983
    2ALA    HB2   21   1.188   1.706   1.505  2.9555 -0.0929  0.1112
    2ALA    HB3   22   1.305   1.837   1.459  0.0204  0.3788 -0.0443
    2ALA      C   23   1.203   1.879   1.729  0.9070 -0.0591 -0.2093
    2ALA      O   24   1.302   1.945   1.763  0.2286  0.3325 -0.6238
    3ASP      N   25   1.151   1.788   1.810  0.0522 -0.1213 -0.3357
    3ASP     HN   26   1.070   1.741   1.776 -0.5670  0.5045  0.2841
    3ASP     CA   27   1.188   1.763   1.951  0.2911 -0.1341  0.7559
    3ASP     HA   28   1.203   1.860   1.994  0.4795 -0.1660  0.7670
    3ASP     CB   29   1.077   1.676   2.015  0.6555 -0.5177  0.2497
    3ASP    HB1   30   1.109   1.648   2.118  1.3929 -1.7596 -0.2971
    3ASP    HB2   31   1.051   1.580   1.967 -0.4552 -0.1017 -0.0013
    3ASP     CG   32   0.934   1.734   2.033 -0.4004  0.0442  0.3781
    3ASP    OD1   33   0.846   1.655   2.079 -0.0500 -0.3288  0.5049
    3ASP    OD2   34   0.901   1.851   2.004 -0.6251 -0.0001  0.3991
    3ASP      C   35   1.325   1.702   1.956 -0.4158 -0.6295  0.3121
    3ASP      O   36   1.372   1.636   1.861 -0.3625 -0.6944 -0.0092
    4GLY      N   37   1.399   1.717   2.070  0.0624 -0.3895  0.5834
    4GLY     HN   38   1.352   1.764   2.145  0.8887 -0.4496  1.1572
    4GLY     CA   39   1.533   1.661   2.094 -0.2731 -0.3847 -0.7303
    4GLY    HA1   40   1.563   1.736   2.165 -0.5232  1.2873 -2.2970
    4GLY    HA2   41   1.587   1.691   2.005  1.8669  3.5348  1.6063
    4GLY      C   42   1.543   1.511   2.124 -0.7676 -0.6688  0.1147
    4GLY      O   43   1.448   1.437   2.100  0.3398  0.0165  0.2976
    5PRO      N   44   1.657   1.460   2.179 -0.4968  0.6066 -0.2965
    5PRO     CD   45   1.767   1.543   2.225 -0.2592  0.1720  0.3779
    5PRO    HD1   46   1.729   1.637   2.271 -0.9392  0.3227 -0.4594
    5PRO    HD2   47   1.827   1.564   2.134  0.6210  2.6645  1.4290
    5PRO     CA   48   1.653   1.334   2.255  0.7442 -0.1155  0.0373
    5PRO     HA   49   1.637   1.258   2.180  1.0757 -1.5951  1.4395
    5PRO     CB   50   1.796   1.318   2.304 -0.8734 -0.4425  0.0932
    5PRO    HB1   51   1.855   1.278   2.220 -1.2269 -0.2647 -0.2420
    5PRO    HB2   52   1.802   1.259   2.398  3.2990  0.3515  0.4795
    5PRO     CG   53   1.839   1.463   2.332 -0.3785  0.1718  1.2109
    5PRO    HG1   54   1.791   1.498   2.426 -2.3145  0.6049  0.1230
    5PRO    HG2   55   1.950   1.461   2.326 -0.3623 -3.7001  0.3305
    5PRO      C   56   1.541   1.305   2.351  0.0180  0.0323 -0.0645
    5PRO      O   57   1.505   1.390   2.429 -0.3238  0.5381  0.3060
    6GLY      N   58   1.488   1.178   2.358 -0.1336 -0.3384 -0.3945
    6GLY     HN   59   1.512   1.115   2.284 -2.9922  1.1213 -2.7235
    6GLY     CA   60   1.398   1.126   2.471  0.5702 -0.1664  0.5323
    6GLY    HA1   61   1.305   1.094   2.425 -0.2575 -0.4242  2.3125
    6GLY    HA2   62   1.395   1.196   2.553  1.3317 -0.0627  0.4774
    6GLY      C   63   1.451   1.004   2.542  0.5865 -0.4297  0.0969
    6GLY      O   64   1.396   0.961   2.642  0.0656 -0.1143  0.4595
    7ASP      N   65   1.560   0.939   2.484  0.6248 -0.1355  0.1926
    7ASP     HN   66   1.586   0.966   2.392 -0.3265 -0.3736 -0.1603
    7ASP     CA   67   1.625   0.826   2.541 -0.1686 -0.1013  0.2588
    7ASP     HA   68   1.546   0.776   2.595  1.4790 -1.8824  1.1288
    7ASP     CB   69   1.678   0.734   2.431 -0.4590 -0.3106 -0.1228
    7ASP    HB1   70   1.712   0.644   2.487 -1.6891 -1.3160 -0.9250
    7ASP    HB2   71   1.763   0.793   2.390 -0.9139 -1.3685 -2.8536
    7ASP     CG   72   1.582   0.693   2.325  0.6920  0.3151 -0.0772
    7ASP    OD1   73   1.454   0.670   2.343  0.0233 -0.4577 -0.0680
    7ASP    OD2   74   1.634   0.669   2.211  0.0078 -0.4187 -0.4051
    7ASP      C   75   1.722   0.855   2.650 -0.8467 -0.0727 -0.6586
    7ASP      O   76   1.781   0.964   2.656 -0.2521 -0.1270 -0.0344
    8PRO      N   77   1.752   0.767   2.746  0.1568  0.1778 -0.2829
    8PRO     CD   78   1.673   0.644   2.777  0.6990  0.2984 -0.0221
    8PRO    HD1   79   1.656   0.581   2.687  1.6943 -0.6133  0.4099
    8PRO    HD2   80   1.568   0.657   2.813 -0.0188 -0.3632 -1.7800
    8PRO     CA   81   1.830   0.795   2.865  0.8054 -0.4465  0.0642
    8PRO     HA   82   1.811   0.896   2.898  1.8856 -0.6617  1.4418
    8PRO     CB   83   1.789   0.695   2.975  0.6612  0.2936  0.3270
    8PRO    HB1   84   1.695   0.719   3.028  0.1384 -0.6356 -0.1716
    8PRO    HB2   85   1.876   0.660   3.034  1.3108 -1.0162 -1.3275
    8PRO     CG   86   1.757   0.575   2.887  0.3106  0.0122 -0.2480
    8PRO    HG1   87   1.845   0.521   2.847  0.1268 -0.8278  0.4611
    8PRO    HG2   88   1.695   0.497   2.936 -0.1827  0.4869 -0.0986
    8PRO      C   89   1.975   0.802   2.849 -0.2469 -0.0052 -0.6810
    8PRO      O   90   2.032   0.855   2.943  0.2079 -0.3286 -0.2709
    9ASP      N   91   2.030   0.753   2.741  0.4781 -0.2551  0.7771
    9ASP     HN   92   1.968   0.712   2.674  0.3769 -1.0550  1.3391
    9ASP     CA   93   2.173   0.758   2.720  0.4563  0.0122  0.5579
    9ASP     HA   94   2.219   0.793   2.812  0.3472  0.1560  0.5573
    9ASP     CB   95   2.224   0.623   2.674  0.2059 -0.2594  0.3217
    9ASP    HB1   96   2.332   0.627   2.648  0.0959 -0.0261 -0.1012
    9ASP    HB2   97   2.173   0.577   2.586 -0.4760 -0.1146  0.6403
    9ASP     CG   98   2.232   0.523   2.792 -0.1696  0.2395 -0.1398
    9ASP    OD1   99   2.272   0.407   2.768 -0.1028 -0.5193 -0.3312
    9ASP    OD2  100   2.240   0.572   2.909 -0.3997  0.0614  0.4512
    9ASP      C  101   2.201   0.860   2.609 -0.3597  0.6489  0.3312
    9ASP      O  102   2.306   0.863   2.543 -0.2958 -0.1091  0.5375
   10ALA      N  103   2.105   0.957   2.592 -0.0207 -0.2486  0.1855
   10ALA     HN  104   2.038   0.958   2.665 -1.0138 -1.4135 -0.6655
   10ALA     CA  105   2.106   1.043   2.482  0.2627 -0.4718  0.8132
   10ALA     HA  106   2.191   1.024   2.418 -0.1592 -0.9817  0.3912
   10ALA     CB  107   1.998   1.024   2.378  0.6769 -0.5568 -0.3655
   10ALA    HB1  108   2.007   0.925   2.328 -0.7173 -0.5647 -0.6583
   10ALA    HB2  109   1.990   1.099   2.296 -0.3534  0.5550  0.7021
   10ALA    HB3  110   1.902   1.033   2.433  1.2481  1.3262  0.3808
   10ALA      C  111   2.098   1.184   2.529  0.2426 -0.2088 -0.4237
   10ALA      O  112   2.022   1.218   2.615 -0.0752  0.1053  0.0487
   11GLY      N  113   2.180   1.276   2.473  0.0286 -0.5971 -0.4804
   11GLY     HN  114   2.248   1.242   2.409 -0.9647  1.8804 -3.0525
   11GLY     CA  115   2.185   1.414   2.510  0.1853  0.0025  0.0716
   11GLY    HA1  116   2.229   1.421   2.608  1.3374 -0.6224 -0.3818
   11GLY    HA2  117   2.083   1.450   2.501 -0.1240 -0.4024  1.6795
   11GLY      C  118   2.267   1.485   2.397 -0.4738  0.2150 -0.5178
   11GLY    OT1  119   2.206   1.555   2.309  0.1486  0.3114  0.2179
   11GLY    OT2  120   2.392   1.465   2.394  0.3520 -0.5472  0.2247
   12LIT    LIT  121   5.123   5.936   2.374  0.1331 -0.1452  0.5887
   13LIT    LIT  122   5.243   1.841   0.835  0.4206 -1.1890  0.4148
   14LIT    LIT  123   1.244   2.580   0.353 -0.7474  0.5048  1.1767
   15LIT    LIT  124   1.479   3.343   3.353 -0.4022  0.1811  0.4721
   16LIT    LIT  125   5.013   3.092   3.538  0.3797  0.6457 -0.9018
   17LIT    LIT  126   5.232   3.581   2.939 -0.1772 -0.0748  0.3837
   18LIT    LIT  127   4.079   1.765   2.975  0.3901 -0.7451  1.3233
   19LIT    LIT  128   2.395   0.403   2.914 -0.1220 -0.3309  0.7705
   20LIT    LIT  129   2.463   3.440   0.886  0.8343  0.3630 -0.5005
   21LIT    LIT  130   3.988   5.820   3.175  0.4965  0.8244  1.0950
   22LIT    LIT  131   4.585   3.803   1.131 -1.0006 -0.3051 -0.2438
   23LIT    LIT  132   0.223   4.511   2.270 -0.7768  0.4878  0.4406
   24LIT    LIT  133   1.697   0.160   1.511 -0.0524  0.4233  0.0017
   25LIT    LIT  134   0.327   3.061   2.911  0.0348  0.5249 -0.3736
   26LIT    LIT  135   5.393   4.082   4.758 -0.4038  1.0807 -0.0154
   27LIT    LIT  136   1.332   0.260   3.107 -0.2789  0.0770 -0.2965
   28LIT    LIT  137   1.135   2.749   1.579  0.3227 -0.5299 -0.3058
   29LIT    LIT  138   0.736   0.358   1.539  0.5426  0.8850  1.0551
   30LIT    LIT  139   5.636   5.222   4.566 -0.8795 -0.3947 -0.3620
   31LIT    LIT  140   6.341   1.267   3.722 -0.9203 -1.4440  0.1855
   32LIT    LIT  141   1.410   1.208   0.271 -0.4044 -0.0543 -0.0281
   33LIT    LIT  142   4.591   5.300   3.029  0.5279  0.1052  0.3430
   34CLA    CLA  143   2.411   0.395   0.427 -0.2651 -0.0372  0.2416
   35CLA    CLA  144   5.396   0.964   4.338  0.2528 -0.0022 -0.3720
   36CLA    CLA  145   6.310   4.492   1.325 -0.2756  0.3458  0.3113
   37CLA    CLA  146   1.016   5.383   0.588  0.4314  0.0791 -0.0716
   38CLA    CLA  147   3.881   3.742   2.138  0.3287 -0.2902 -0.0212
   39CLA    CLA  148   0.860   4.866   4.920  0.4591  0.2039  0.0949
   40CLA    CLA  149   6.136   1.578   3.062  0.2207 -0.4004  0.2966
   41CLA    CLA  150   1.250   0.131   1.569 -0.2146 -0.0541 -0.2527
   42CLA    CLA  151   0.889   3.612   2.843  0.1714  0.1713 -0.0451
   43CLA    CLA  152   3.041   1.560   4.353  0.4247  0.2830  0.0844
   44CLA    CLA  153   5.469   3.039   4.039  0.1845 -0.0377  0.1170
   45CLA    CLA  154   3.899   1.596   1.080 -0.2652 -0.6598  0.0086
   46CLA    CLA  155   0.958   0.312   2.861  0.2289 -0.1929  0.0035
   47CLA    CLA  156   6.120   1.226   4.405 -0.0856  0.0518  0.0871
   48CLA    CLA  157   4.096   5.331   4.160  0.2175  0.0820  0.1334
   49CLA    CLA  158   4.007   1.965   4.230  0.2957 -0.3158  0.1080
   50CLA    CLA  159   5.050   3.767   1.964 -0.2221  0.0167  0.0848
   51CLA    CLA  160   0.497   2.190   0.904  0.0043 -0.0996 -0.0874
   52TIP3   OH2  161   1.298   2.107   2.393 -0.4698 -0.6124  0.3149
   52TIP3    H1  162   1.207   2.119   2.366 -0.0160  0.1086 -1.0110
   52TIP3    H2  163   1.293   2.062   2.477 -2.0967  0.9025  1.0904
   53TIP3   OH2  164   4.310   0.338   1.156 -0.4571  0.0170 -0.1034
   53TIP3    H1  165   4.239   0.274   1.147 -0.4114 -0.7621  3.5337
   53TIP3    H2  166   4.390   0.288   1.140 -0.4911 -0.5596  1.4015
   54TIP3   OH2  167   3.155   4.220   0.538  0.3804 -0.2453 -0.2869
   54TIP3    H1  168   3.106   4.247   0.616 -0.3764  0.9793 -1.1489
   54TIP3    H2  169   3.119   4.134   0.516  0.2362 -0.3720  0.3995
   55TIP3   OH2  170   1.879   2.475   3.179 -0.1347 -0.0607  0.4659
   55TIP3    H1  171   1.840   2.542   3.236  1.5572  1.9323 -0.5574
   55TIP3    H2  172   1.955   2.444   3.229 -0.2214 -0.3261  0.4304
   56TIP3   OH2  173   2.487   4.156   2.843  0.3836 -0.0873  0.0159
   56TIP3    H1  174   2.451   4.101   2.774  1.0456  0.1884 -0.5563
   56TIP3    H2  175   2.537   4.096   2.898 -0.4023 -0.3621  0.4541
   57TIP3   OH2  176   3.339   0.685   4.815  0.1827  0.0028 -0.1730
   57TIP3    H1  177   3.378   0.649   4.895  0.7218 -0.6132 -0.6980
   57TIP3    H2  178   3.382   0.638   4.745 -0.6259  0.2109 -0.8198
   58TIP3   OH2  179   6.349   0.261   4.331  0.1741 -0.1323  0.1064
   58TIP3    H1  180   6.309   0.270   4.244  1.3179 -0.9204 -0.5204
   58TIP3    H2  181   6.379   0.170   4.335 -1.1238 -0.5448  1.8986
   59TIP3   OH2  182   5.733   1.117   2.624  0.0323  0.3365 -0.6461
   59TIP3    H1  183   5.805   1.175   2.645  0.4770 -0.9734  1.7729
   59TIP3    H2  184   5.677   1.168   2.565  2.4060  1.6975 -1.8654
   60TIP3   OH2  185   1.800   2.414   2.913 -0.2521 -0.2324  0.3088
   60TIP3    H1  186   1.802   2.448   3.002  0.2845  0.1059  0.1741
   60TIP3    H2  187   1.891   2.417   2.884 -0.5077  0.3311 -0.4922
   61TIP3   OH2  188   5.149   0.804   1.598 -0.8271 -0.6486  0.0499
   61TIP3    H1  189   5.058   0.778   1.609 -1.7344  1.4977 -1.6029
   61TIP3    H2  190   5.153   0.892   1.637  0.4199 -0.5431 -0.2839
   62TIP3   OH2  191   1.462   0.946   1.307  0.2539  0.1278 -0.1247
   62TIP3    H1  192   1.466   1.018   1.369  1.2094  1.2400 -1.4218
   62TIP3    H2  193   1.523   0.881   1.342 -0.2539  0.1315  0.7987
   63TIP3   OH2  194   2.627   3.308   0.262 -0.4114  0.0714  0.3610
   63TIP3    H1  195   2.637   3.389   0.211  1.9168 -1.0626 -1.1621
   63TIP3    H2  196   2.578   3.249   0.204 -0.8325 -0.0924  0.8783
   64TIP3   OH2  197   5.577   2.273   0.758 -0.2495 -0.3098  0.0202
   64TIP3    H1  198   5.621   2.300   0.838 -0.5769 -0.4601  0.2507
   64TIP3    H2  199   5.643   2.285   0.689 -0.0575  0.0818  0.2691
   65TIP3   OH2  200   3.924   0.376   3.672  0.0611  0.1853 -0.7715
   65TIP3    H1  201   3.929   0.409   3.582  1.6352  0.9777 -0.4358
   65TIP3    H2  202   4.015   0.363   3.698 -0.3635 -0.0886  0.6883
   66TIP3   OH2  203   4.417   5.465   2.910  0.4233  0.2311 -0.8189
   66TIP3    H1  204   4.337   5.517   2.910  0.5798  0.5101  0.5773
   66TIP3    H2  205   4.487   5.527   2.892  0.6340  0.6102  1.0603
   67TIP3   OH2  206   5.633   2.815   0.215 -0.0665 -0.2491  0.1104
   67TIP3    H1  207   5.537   2.819   0.219 -0.0521 -0.4692  1.0436
   67TIP3    H2  208   5.653   2.724   0.240  0.3084 -0.8618 -2.2192
   68TIP3   OH2  209   3.840   5.742   0.601  0.2370  0.3336  0.6473
   68TIP3    H1  210   3.816   5.773   0.514  1.0345  0.6490  0.5276
   68TIP3    H2  211   3.920   5.691   0.587 -0.7029 -1.2619  0.9310
   69TIP3   OH2  212   4.424   2.672   0.826 -0.4667 -0.1229 -0.0250
   69TIP3    H1  213   4.420   2.583   0.790 -1.2071 -0.4477  0.8261
   69TIP3    H2  214   4.383   2.665   0.912  0.5993  0.7942  0.5741
   70TIP3   OH2  215   4.398   3.948   3.449  0.1588 -0.1024 -0.4306
   70TIP3    H1  216   4.317   3.950   3.397  0.2512  0.5080 -0.5574
   70TIP3    H2  217   4.372   3.907   3.531 -0.4821  0.8473 -0.1454
   71TIP3   OH2  218   0.146   0.732   2.291 -0.3048 -0.4137  0.0981
   71TIP3    H1  219   0.050   0.737   2.299 -0.4080 -1.2316 -0.5659
   71TIP3    H2  220   0.173   0.682   2.368 -0.3127  0.5469  0.7508
   72TIP3   OH2  221   0.728   1.492   1.176 -0.4962  0.3019 -0.1132
   72TIP3    H1  222   0.809   1.473   1.224  0.1250  2.5072 -0.2133
   72TIP3    H2  223   0.754   1.489   1.083 -1.2109 -1.7481 -0.3146
   73TIP3   OH2  224   1.462   0.282   3.878 -0.1944  0.2080  0.1763
   73TIP3    H1  225   1.446   0.244   3.792  0.3691  3.5994 -1.6070
   73TIP3    H2  226   1.539   0.236   3.911  0.0789 -0.6304 -1.5033
   74TIP3   OH2  227   0.558   0.369   3.817  0.1036 -0.0126 -0.3374
   74TIP3    H1  228   0.560   0.384   3.723 -1.2699 -1.0756 -0.5839
   74TIP3    H2  229   0.617   0.295   3.831  0.1828  0.0398 -0.3999
   75TIP3   OH2  230   5.907   3.773   4.240  0.1672 -0.3584  0.7151
   75TIP3    H1  231   5.889   3.801   4.330  2.0579  0.2678  0.9483
   75TIP3    H2  232   5.932   3.681   4.248  1.7771  0.0710  1.0865
   76TIP3   OH2  233   5.177   3.311   2.679 -0.4407 -0.5065  0.1358
   76TIP3    H1  234   5.263   3.344   2.654 -0.3386 -0.3210  0.7235
   76TIP3    H2  235   5.117   3.347   2.613 -0.3017  0.6799  0.6479
   77TIP3   OH2  236   1.149   3.070   0.778  0.0166 -0.1588 -0.0957
   77TIP3    H1  237   1.077   3.095   0.837 -0.4621  0.5170 -0.9497
   77TIP3    H2  238   1.144   2.974   0.774 -1.2808 -0.0887 -0.6757
   78TIP3   OH2  239   1.090   0.504   3.947  0.0096  0.4804 -0.0451
   78TIP3    H1  240   1.082   0.567   4.019  1.8047  0.6378  0.0438
   78TIP3    H2  241   1.153   0.543   3.887  0.6213 -0.9102 -0.3427
   79TIP3   OH2  242   2.421   3.916   4.950  0.2497 -0.1268 -0.0538
   79TIP3    H1  243   2.381   3.842   4.995  1.3132 -1.5346 -1.3257
   79TIP3    H2  244   2.348   3.963   4.910 -0.4667 -0.2773  1.0395
   80TIP3   OH2  245   6.171   3.169   2.315 -0.3662 -0.2356  0.1698
   80TIP3    H1  246   6.230   3.207   2.250  0.7035 -2.0391  0.0356
   80TIP3    H2  247   6.087   3.161   2.270  0.1358 -0.6524 -0.7068
   81TIP3   OH2  248   4.277   2.885   4.761  0.2743 -0.9053 -0.4400
   81TIP3    H1  249   4.340   2.954   4.741 -0.6350  0.2414  0.5093
   81TIP3    H2  250   4.267   2.889   4.856 -1.4850 -0.7973 -0.5970
   82TIP3   OH2  251   5.862   1.207   5.210  0.3528 -0.0642 -0.4507
   82TIP3    H1  252   5.797   1.138   5.195  0.5706 -0.2815 -0.4001
   82TIP3    H2  253   5.933   1.186   5.149  0.5732 -0.0833 -0.1845
   83TIP3   OH2  254   2.171   0.571   3.153  0.1949 -0.1902  0.0280
   83TIP3    H1  255   2.217   0.643   3.196 -1.7774  0.7249  0.7223
   83TIP3    H2  256   2.186   0.585   3.060  0.8067  0.4141  0.2066
   84TIP3   OH2  257   0.335   0.423   1.694  0.1864 -0.3645 -0.6458
   84TIP3    H1  258   0.339   0.330   1.675 -0.5405 -0.0260 -2.8485
   84TIP3    H2  259   0.274   0.431   1.767  1.7908 -1.7078  0.9164
   85TIP3   OH2  260   4.003   3.738   1.736  0.0573 -0.6103  0.3076
   85TIP3    H1  261   4.098   3.743   1.730  0.2335  0.4282  2.6418
   85TIP3    H2  262   3.987   3.671   1.803 -0.8340 -0.4779  0.2382
   86TIP3   OH2  263   5.565   0.929   2.482  0.0663 -0.4196  0.2631
   86TIP3    H1  264   5.591   0.984   2.556 -0.0953 -3.2915  2.6336
   86TIP3    H2  265   5.636   0.939   2.419 -0.2324  2.8267  0.3026
   87TIP3   OH2  266   3.834   4.267   0.574 -0.2422  0.3669 -0.0537
   87TIP3    H1  267   3.847   4.251   0.481  0.1317  1.0457 -0.1212
   87TIP3    H2  268   3.898   4.210   0.617 -0.5350 -0.0782 -0.2022
   88TIP3   OH2  269   3.179   4.693   4.340 -0.2180  0.4594  0.2165
   88TIP3    H1  270   3.143   4.685   4.252 -2.0533 -0.3497  0.9861
   88TIP3    H2  271   3.113   4.742   4.389  0.4545  0.3098  1.3159
   89TIP3   OH2  272   0.933   4.301   0.513 -0.4422  0.0697 -0.2391
   89TIP3    H1  273   0.945   4.328   0.604  1.9179  0.8469 -0.7297
   89TIP3    H2  274   0.867   4.231   0.518 -1.0505  0.7149  1.9236
   90TIP3   OH2  275   3.515   0.206   1.250 -0.2556  0.2092 -0.0023
   90TIP3    H1  276   3.545   0.266   1.318 -2.2755  0.5344  0.6729
   90TIP3    H2  277   3.579   0.214   1.180  0.0112  2.5101  0.4349
   91TIP3   OH2  278   2.778   1.443   2.428  0.0634 -0.2294  0.2630
   91TIP3    H1  279   2.843   1.427   2.497  0.2655 -0.5836 -0.0053
   91TIP3    H2  280   2.772   1.538   2.423  1.1057 -0.1734 -0.2085
   92TIP3   OH2  281   6.187   1.250   0.072 -0.4186 -0.0748 -0.0074
   92TIP3    H1  282   6.104   1.202   0.069 -0.1423 -0.5145 -2.3755
   92TIP3    H2  283   6.253   1.187   0.045  0.2848  0.9614 -0.8234
   93TIP3   OH2  284   4.377   1.609   3.588  0.2192 -0.1748  0.2261
   93TIP3    H1  285   4.442   1.592   3.520 -0.6160 -0.4687 -0.5204
   93TIP3    H2  286   4.383   1.703   3.603  0.2800 -0.0679 -0.4134
   94TIP3   OH2  287   2.841   2.901   4.163  0.1575  0.2545 -0.4190
   94TIP3    H1  288   2.861   2.839   4.234  1.3087  1.2299  0.1375
   94TIP3    H2  289   2.916   2.896   4.104  0.3339  1.2183 -0.2898
   95TIP3   OH2  290   0.229   1.766   3.901 -0.2709 -0.0484 -0.2310
   95TIP3    H1  291   0.194   1.685   3.937  3.1043 -1.6274 -0.0726
   95TIP3    H2  292   0.229   1.753   3.807 -1.4498  0.5994 -0.3351
   96TIP3   OH2  293   5.454   4.248   4.376  0.0263 -0.3436  0.2117
   96TIP3    H1  294   5.514   4.294   4.435 -1.3263  2.3754 -0.3651
   96TIP3    H2  295   5.369   4.289   4.392 -0.8170 -1.0730 -2.0572
   97TIP3   OH2  296   1.848   0.074   1.615 -0.0333  0.4471 -0.0066
   97TIP3    H1  297   1.874  -0.013   1.645 -0.8128 -0.1189 -0.9405
   97TIP3    H2  298   1.902   0.134   1.667  0.9833 -0.6014  0.1917
   98TIP3   OH2  299   3.925   0.258   4.424 -0.3217 -0.1433  0.1780
   98TIP3    H1  300   3.970   0.292   4.347  1.0639 -0.8490  0.6503
   98TIP3    H2  301   3.844   0.220   4.390  0.9052 -1.7094 -1.1645
   99TIP3   OH2  302   1.071   5.838   3.029 -0.2230  0.0388 -0.0370
   99TIP3    H1  303   1.013   5.789   3.088  0.0768  0.9725  1.0557
   99TIP3    H2  304   1.015   5.906   2.991  0.2173  1.2274  1.3637
  100TIP3   OH2  305   5.731   0.535   3.069 -0.3175  0.2510 -0.0639
  100TIP3    H1  306   5.686   0.467   3.018 -0.5804  0.5329 -0.2123
  100TIP3    H2  307   5.813   0.494   3.097  0.3888  0.4730 -1.7134
  101TIP3   OH2  308   4.220   5.696   5.059  0.1806 -0.1908  0.3831
  101TIP3    H1  309   4.210   5.754   5.134  0.7013 -0.1824  0.4505
  101TIP3    H2  310   4.143   5.714   5.004 -0.1322 -0.1019  0.8451
  102TIP3   OH2  311   1.014   2.944   4.749  0.1103 -0.1733 -0.4012
  102TIP3    H1  312   0.961   2.993   4.686 -0.6859  1.8833  1.6960
  102TIP3    H2  313   0.956   2.933   4.825  1.6089 -0.8843  0.6927
  103TIP3   OH2  314   0.750   2.004   0.737  1.0917  0.2405 -0.3645
  103TIP3    H1  315   0.692   2.065   0.783  0.2724 -1.2498  0.6601
  103TIP3    H2  316   0.756   2.039   0.649 -0.8757  0.8034 -0.3220
  104TIP3   OH2  317   3.209   1.767   0.950  0.2061 -0.3087 -0.1280
  104TIP3    H1  318   3.268   1.750   0.876  1.9151  1.1763  0.8008
  104TIP3    H2  319   3.260   1.742   1.027  1.0082  3.8476  0.9403
  105TIP3   OH2  320   4.334   5.471   2.124 -0.2678  0.4332 -1.0939
  105TIP3    H1  321   4.364   5.433   2.041  2.3009  0.0279 -0.0527
  105TIP3    H2  322   4.294   5.397   2.170 -0.6085  0.3842 -1.4581
  106TIP3   OH2  323   5.253   4.000   1.952  0.0371 -0.3123 -0.6517
  106TIP3    H1  324   5.265   3.988   2.046  1.7764 -1.3956 -0.9699
  106TIP3    H2  325   5.176   3.947   1.930 -0.1689 -0.3280  0.1040
  107TIP3   OH2  326   3.959   1.934   0.793  0.3917 -0.2721  0.4728
  107TIP3    H1  327   4.043   1.889   0.789 -0.2910 -1.5170 -2.3469
  107TIP3    H2  328   3.895   1.864   0.807 -0.2362  0.7088  3.1610
  108TIP3   OH2  329   4.581   4.748   0.620 -0.2558  0.1240  0.5958
  108TIP3    H1  330   4.624   4.669   0.653 -0.2636  0.4108  1.3022
  108TIP3    H2  331   4.635   4.820   0.651 -1.0253  0.4686  1.1678
  109TIP3   OH2  332   5.769   2.472   3.962 -0.4801 -0.4020  0.0667
  109TIP3    H1  333   5.861   2.477   3.936 -0.8797  0.9721 -1.2154
  109TIP3    H2  334   5.767   2.403   4.029  0.9090 -2.8621 -2.2557
  110TIP3   OH2  335   3.940   0.011   4.150  0.1548  0.3177  0.5863
  110TIP3    H1  336   3.956  -0.006   4.057  0.0648  2.2857  0.1750
  110TIP3    H2  337   4.027   0.011   4.189  0.3800  1.4586  0.1166
  111TIP3   OH2  338   1.567   1.790   2.726 -0.0566  0.7497  0.2014
  111TIP3    H1  339   1.519   1.731   2.785  0.5742 -2.5753 -2.3031
  111TIP3    H2  340   1.537   1.765   2.638  0.7023  3.9013 -1.0723
  112TIP3   OH2  341   5.118   0.927   3.727  0.1114  0.2306  0.8478
  112TIP3    H1  342   5.156   0.973   3.802 -0.6849  1.0117  0.7930
  112TIP3    H2  343   5.149   0.837   3.736  1.3713  0.6744  1.1911
  113TIP3   OH2  344   3.160   3.428   2.425 -0.3382  0.6423 -0.4728
  113TIP3    H1  345   3.138   3.362   2.360  1.1902  1.4408 -1.8909
  113TIP3    H2  346   3.255   3.440   2.416 -0.1638  1.2227  1.5050
  114TIP3   OH2  347   5.212   4.322   3.296 -0.7306  0.1286 -0.1313
  114TIP3    H1  348   5.302   4.311   3.268 -0.1807  0.6810  1.3443
  114TIP3    H2  349   5.181   4.233   3.312  0.0806  0.0000  0.8617
  115TIP3   OH2  350   0.673   5.049   2.251 -0.5199  0.0799  0.0749
  115TIP3    H1  351   0.737   5.062   2.320  0.1376 -0.8663 -0.3335
  115TIP3    H2  352   0.722   5.063   2.170 -0.7329 -0.9393 -0.2484
  116TIP3   OH2  353   5.720   4.071   2.543  0.0662  0.2153 -0.1157
  116TIP3    H1  354   5.699   4.165   2.550  0.6405  0.4285 -1.0664
  116TIP3    H2  355   5.805   4.063   2.585  0.3434  0.2539 -0.6639
  117TIP3   OH2  356   5.788   0.627   0.808  0.0787  0.6004  0.2112
  117TIP3    H1  357   5.867   0.653   0.761  0.7145 -0.4436  0.6833
  117TIP3    H2  358   5.771   0.699   0.869  0.9184  0.6237  0.4177
  118TIP3   OH2  359   3.719   0.173   4.237 -0.3120  0.1562 -0.0965
  118TIP3    H1  360   3.779   0.102   4.212 -0.7513 -0.0517 -0.5673
  118TIP3    H2  361   3.737   0.243   4.174 -0.3164  0.2295 -0.0173
  119TIP3   OH2  362   0.369   4.223   1.098  0.2946  0.2200 -0.4917
  119TIP3    H1  363   0.320   4.178   1.030  0.7926  0.9960 -1.3904
  119TIP3    H2  364   0.341   4.181   1.179 -0.0750 -0.9389 -1.1906
  120TIP3   OH2  365   5.289   5.079   4.847 -0.0276  0.2193  0.0494
  120TIP3    H1  366   5.345   5.033   4.785 -1.0739 -0.8886 -0.1210
  120TIP3    H2  367   5.279   5.167   4.811  1.0793  0.2443 -0.2296
  121TIP3   OH2  368   6.044   2.129   4.516 -0.1948 -0.0557  0.2461
  121TIP3    H1  369   6.102   2.174   4.455  0.6084 -0.7530  0.4680
  121TIP3    H2  370   6.066   2.165   4.602  0.9422 -1.3240  0.5136
  122TIP3   OH2  371   5.659   2.992   2.738  0.1518 -0.0269 -0.1578
  122TIP3    H1  372   5.593   2.960   2.800  0.6523 -1.0666 -0.1376
  122TIP3    H2  373   5.670   3.084   2.760 -0.9968  0.0650  0.1028
  123TIP3   OH2  374   4.125   2.311   3.758 -0.1394  0.6086  0.0174
  123TIP3    H1  375   4.121   2.242   3.825  0.8166  0.6141  0.0978
  123TIP3    H2  376   4.094   2.268   3.678 -1.0435  0.5297  0.3957
  124TIP3   OH2  377   3.227   3.722   1.407  0.0891  0.0208  0.0283
  124TIP3    H1  378   3.142   3.705   1.446  0.4136  0.9166  1.1974
  124TIP3    H2  379   3.248   3.812   1.433  0.6750  0.4031 -1.5974
  125TIP3   OH2  380   0.961   1.324   4.346 -0.1648 -0.2832 -0.0207
  125TIP3    H1  381   0.903   1.251   4.324 -2.1099  1.2689 -0.3917
  125TIP3    H2  382   0.985   1.309   4.437 -1.2462 -0.9351  0.1735
  126TIP3   OH2  383   3.089   0.921   5.158 -0.3768 -0.1381  0.1029
  126TIP3    H1  384   3.072   0.860   5.086  1.3197  0.4465 -0.8560
  126TIP3    H2  385   3.058   1.006   5.125 -1.1300 -0.1404  0.7529
  127TIP3   OH2  386   4.965   3.472   2.015  0.3142  0.1473 -0.7014
  127TIP3    H1  387   4.874   3.501   2.013  0.5761  1.1748  0.7449
  127TIP3    H2  388   5.016   3.554   2.020  1.1517 -0.4459  1.8591
  128TIP3   OH2  389   4.273   2.422   5.012  0.4837 -0.9802  0.1805
  128TIP3    H1  390   4.324   2.341   5.010 -0.9388 -1.9517  1.4028
  128TIP3    H2  391   4.228   2.420   5.096 -1.8443 -0.3755 -0.9679
  129TIP3   OH2  392   3.349   4.485   1.656  0.1013  0.3584  0.6139
  129TIP3    H1  393   3.291   4.557   1.633 -0.7009 -0.9189 -1.8003
  129TIP3    H2  394   3.340   4.475   1.750 -1.4763  1.9610  0.6805
  130TIP3   OH2  395   1.316   3.844   2.218 -0.4871  0.1445  0.1348
  130TIP3    H1  396   1.392   3.880   2.171 -0.0141 -1.3454 -0.2683
  130TIP3    H2  397   1.326   3.749   2.211 -2.7480 -0.0892 -0.4613
  131TIP3   OH2  398   3.378   1.186   0.189  0.0245 -1.1756  0.5694
  131TIP3    H1  399   3.338   1.268   0.160 -2.2032 -2.9254 -1.7932
  131TIP3    H2  400   3.465   1.212   0.221 -0.8842  2.1575  0.7874
  132TIP3   OH2  401   3.301   4.931   5.164 -0.5414 -0.2396 -0.0256
  132TIP3    H1  402   3.363   4.981   5.217 -0.5301  0.2744 -0.5146
  132TIP3    H2  403   3.354   4.897   5.092 -0.9659  0.9166 -0.9233
  133TIP3   OH2  404   4.162   4.808   1.401 -0.5650  0.5238 -0.1751
  133TIP3    H1  405   4.153   4.721   1.362 -0.3300  0.1579  0.5763
  133TIP3    H2  406   4.218   4.856   1.340  1.9944 -0.8596  0.9603
  134TIP3   OH2  407   4.097   2.211   2.315 -0.1998  1.1174 -0.4960
  134TIP3    H1  408   4.110   2.235   2.407 -1.4025  0.2898 -0.0930
  134TIP3    H2  409   4.169   2.152   2.295 -0.6544  0.2750  0.3048
  135TIP3   OH2  410   5.149   3.660   2.478 -0.0853  0.1637 -0.6307
  135TIP3    H1  411   5.182   3.693   2.395  0.0353  2.1634  0.1516
  135TIP3    H2  412   5.056   3.684   2.478 -0.0819  0.1919 -0.1995
  136TIP3   OH2  413   1.856   4.522   2.345  0.2878 -0.1051  0.0013
  136TIP3    H1  414   1.776   4.523   2.398 -0.3662 -0.8613 -0.9470
  136TIP3    H2  415   1.897   4.437   2.365  0.5279  0.0125  0.0102
  137TIP3   OH2  416   2.741   3.363   4.732  0.1291 -0.2755  0.2176
  137TIP3    H1  417   2.766   3.293   4.671 -1.0050  0.8130 -1.5708
  137TIP3    H2  418   2.668   3.407   4.690  1.3082  2.5402  0.8753
  138TIP3   OH2  419   3.269   2.123   4.965  0.5202  0.8955  0.1603
  138TIP3    H1  420   3.298   2.061   4.898 -0.1655  1.6246 -0.8302
  138TIP3    H2  421   3.334   2.193   4.962 -0.2967  1.6326 -0.7730
  139TIP3   OH2  422   3.562   0.418   4.307 -0.3641 -0.4542 -0.2734
  139TIP3    H1  423   3.617   0.382   4.238  0.9922  2.4037 -0.8312
  139TIP3    H2  424   3.602   0.384   4.388 -0.7697 -2.2378 -0.7649
  140TIP3   OH2  425   0.558   4.856   3.066  0.4633  0.4069  0.0721
  140TIP3    H1  426   0.477   4.811   3.043 -0.7137  2.5428 -0.2622
  140TIP3    H2  427   0.530   4.927   3.124  2.0281  1.4022 -0.3310
  141TIP3   OH2  428   2.437   5.721   4.638 -0.3788  0.0045 -0.3290
  141TIP3    H1  429   2.395   5.710   4.553  0.1183  0.1737 -0.6017
  141TIP3    H2  430   2.498   5.794   4.625 -0.1496 -0.1031  0.1133
  142TIP3   OH2  431   6.204   2.050   3.113  0.6331  0.5305 -0.3463
  142TIP3    H1  432   6.299   2.058   3.119  0.7759 -1.1519 -0.0161
  142TIP3    H2  433   6.173   2.059   3.203  0.4745  0.9133 -0.4340
  143TIP3   OH2  434   0.860   3.575   1.879 -0.2674  0.2204  0.1864
  143TIP3    H1  435   0.942   3.533   1.906  0.5178  2.3300  1.3441
  143TIP3    H2  436   0.819   3.603   1.960 -2.0092 -0.4924 -0.4067
  144TIP3   OH2  437   1.678   3.231   3.736  0.3449  0.1070  0.0965
  144TIP3    H1  438   1.701   3.323   3.747  2.4618 -0.4603  0.9137
  144TIP3    H2  439   1.681   3.217   3.641  1.1350  0.6385  0.0302
  145TIP3   OH2  440   5.106   3.022   3.691  0.3950  0.1459 -0.0312
  145TIP3    H1  441   5.167   2.951   3.710  1.2785  0.0517 -2.8225
  145TIP3    H2  442   5.096   3.068   3.775 -0.1082 -3.1075  1.8464
  146TIP3   OH2  443   5.476   4.246   3.248 -0.0496  0.1999 -0.2247
  146TIP3    H1  444   5.539   4.201   3.192  0.1681 -0.7828  0.7667
  146TIP3    H2  445   5.510   4.235   3.337 -0.6809  1.2217  0.1653
  147TIP3   OH2  446   0.622   5.117   3.452 -0.6915  0.1981 -0.4087
  147TIP3    H1  447   0.664   5.031   3.454 -2.7540 -0.8786 -1.4276
  147TIP3    H2  448   0.635   5.151   3.541  2.4682  0.0714 -0.7078
  148TIP3   OH2  449   1.729   0.672   4.963 -0.5687  0.0618  0.3269
  148TIP3    H1  450   1.759   0.582   4.954 -2.1977 -0.5453  0.6017
  148TIP3    H2  451   1.803   0.718   5.004  1.0045 -0.6715 -1.5640
  149TIP3   OH2  452   5.472   2.356   2.205  0.0492  0.1130  0.4472
  149TIP3    H1  453   5.476   2.261   2.214 -0.1600  0.2843  3.2980
  149TIP3    H2  454   5.391   2.372   2.156  0.5926 -1.1624 -0.9333
  150TIP3   OH2  455   3.523   5.919   3.857 -0.3666  0.2119 -0.2773
  150TIP3    H1  456   3.475   5.926   3.775  1.9007 -0.7165 -1.8033
  150TIP3    H2  457   3.615   5.917   3.831  0.4726  0.2035  2.3283
  151TIP3   OH2  458   0.451   2.729   3.808  0.7238  0.0161 -0.5916
  151TIP3    H1  459   0.363   2.758   3.787  0.6801 -0.3291 -0.9004
  151TIP3    H2  460   0.438   2.652   3.864  0.8119 -0.7555 -1.6094
  152TIP3   OH2  461   4.586   4.173   4.821 -0.3559 -0.2653 -0.1337
  152TIP3    H1  462   4.582   4.231   4.745  0.2490  0.6832  0.5211
  152TIP3    H2  463   4.497   4.141   4.832 -0.9217  1.2456 -0.0089
  153TIP3   OH2  464   5.679   2.025   0.914  0.0121  0.3958  0.0483
  153TIP3    H1  465   5.759   2.066   0.947 -0.0196  0.0550  0.5526
  153TIP3    H2  466   5.699   1.932   0.910 -0.6653  0.1832  1.1129
  154TIP3   OH2  467   4.810   5.413   1.225  0.0633  0.0910 -0.0027
  154TIP3    H1  468   4.900   5.379   1.231  0.0297  0.0614  0.3298
  154TIP3    H2  469   4.816   5.503   1.256  0.6182  1.2896 -3.1501
  155TIP3   OH2  470   5.178   2.385   1.098 -1.2432 -0.0967 -0.3683
  155TIP3    H1  471   5.091   2.422   1.085 -0.2413  2.9741  0.7509
  155TIP3    H2  472   5.214   2.379   1.009 -1.4355  1.8905 -0.6369
  156TIP3   OH2  473   5.117   5.243   2.828  0.0429  0.0601 -0.4604
  156TIP3    H1  474   5.139   5.258   2.736  0.0987 -1.5724 -0.7332
  156TIP3    H2  475   5.175   5.172   2.856 -0.4480  0.0745  0.6371
  157TIP3   OH2  476   3.631   0.339   1.472  0.3249  0.2065 -0.0201
  157TIP3    H1  477   3.557   0.389   1.505 -0.1836 -0.0740 -0.7220
  157TIP3    H2  478   3.691   0.334   1.547  0.8469  2.6558 -0.1816
  158TIP3   OH2  479   2.300   2.188   2.370  0.0045  0.0070 -0.1760
  158TIP3    H1  480   2.380   2.189   2.422 -1.3842  0.3116  2.0976
  158TIP3    H2  481   2.295   2.099   2.335  0.2043 -0.7443  1.5985
  159TIP3   OH2  482   3.795   0.593   3.915 -0.2221 -0.0685 -0.0059
  159TIP3    H1  483   3.773   0.606   3.823 -1.6656  0.6348  0.4037
  159TIP3    H2  484   3.833   0.676   3.943 -2.1067  0.6389  0.6235
  160TIP3   OH2  485   4.367   4.257   2.038  0.6167 -0.4509 -0.2647
  160TIP3    H1  486   4.368   4.229   2.129 -0.4351  0.5100  0.0669
  160TIP3    H2  487   4.439   4.209   1.997  1.5352 -0.3864  1.2175
  161TIP3   OH2  488   4.729   5.184   3.094 -0.0901  0.5077  0.7250
  161TIP3    H1  489   4.819   5.176   3.063 -0.0667 -2.6884  1.2970
  161TIP3    H2  490   4.726   5.133   3.175 -2.4134  0.4800  0.6927
  162TIP3   OH2  491   5.301   4.685   3.435  0.1095  0.3153  0.3745
  162TIP3    H1  492   5.286   4.721   3.347  0.3087  1.1391  0.6770
  162TIP3    H2  493   5.390   4.650   3.431  1.1301  2.6512  0.9899
  163TIP3   OH2  494   2.354   0.708   3.385  0.4590  0.0691  0.5103
  163TIP3    H1  495   2.379   0.635   3.443  0.1400  0.1942  0.8137
  163TIP3    H2  496   2.364   0.786   3.440  0.5336  0.2261  0.2715
  164TIP3   OH2  497   4.719   4.330   3.852 -0.5973 -0.2131 -0.1090
  164TIP3    H1  498   4.758   4.297   3.771 -0.2892 -1.1119  0.3960
  164TIP3    H2  499   4.701   4.422   3.833  0.7506 -0.0441 -0.7452
  165TIP3   OH2  500   4.219   4.885   0.549  0.0928 -0.0069  0.4052
  165TIP3    H1  501   4.299   4.902   0.500  0.2615 -0.2892  0.5796
  165TIP3    H2  502   4.228   4.936   0.629  0.5343 -0.7753  0.8621
  166TIP3   OH2  503   0.512   5.577   1.205 -0.3877  0.3442  0.3319
  166TIP3    H1  504   0.597   5.621   1.199 -0.6790  0.8497 -0.1848
  166TIP3    H2  505   0.499   5.538   1.118 -0.5261 -0.0258  0.5168
  167TIP3   OH2  506   2.621   1.463   3.358  0.2251 -0.2583  0.2584
  167TIP3    H1  507   2.704   1.422   3.333 -0.3964 -0.8998 -0.8380
  167TIP3    H2  508   2.629   1.476   3.453  2.3637  1.5407 -0.0743
  168TIP3   OH2  509   6.191   4.535   1.009  0.0023  0.2575  0.3294
  168TIP3    H1  510   6.280   4.534   0.974 -0.1685 -2.0018 -0.2257
  168TIP3    H2  511   6.201   4.515   1.102  0.0266 -2.4698 -0.1742
  169TIP3   OH2  512   4.244   3.966   3.887 -0.6290  0.1563  0.0989
  169TIP3    H1  513   4.173   4.025   3.860 -0.5444  0.3786  0.3565
  169TIP3    H2  514   4.209   3.920   3.964  0.1447  1.5889  1.3784
  170TIP3   OH2  515   2.150   2.154   3.643 -0.5753  0.1057 -0.0403
  170TIP3    H1  516   2.055   2.149   3.656 -0.5945  0.9460  0.2196
  170TIP3    H2  517   2.168   2.248   3.638  0.2399 -0.0516 -0.1284
  171TIP3   OH2  518   2.575   2.135   4.406 -0.1880 -0.1162  0.6911
  171TIP3    H1  519   2.562   2.114   4.314  1.6217 -0.8684  0.5615
  171TIP3    H2  520   2.648   2.197   4.407 -1.8346  1.9400  1.4863
  172TIP3   OH2  521   2.796   4.007   3.557  0.3684 -0.5252  0.1652
  172TIP3    H1  522   2.783   4.004   3.462  0.7866  1.2852  0.0129
  172TIP3    H2  523   2.853   3.932   3.575  1.5073 -0.0579 -1.2503
  173TIP3   OH2  524   3.557   4.175   3.664  0.0795 -0.4144 -0.0639
  173TIP3    H1  525   3.487   4.240   3.666  1.2012  0.8163  0.5953
  173TIP3    H2  526   3.611   4.201   3.589 -0.3924 -1.6527 -0.8805
  174TIP3   OH2  527   0.973   4.119   4.704 -0.1400  0.1497  0.1172
  174TIP3    H1  528   1.047   4.170   4.737  0.3172 -1.5595  1.9018
  174TIP3    H2  529   0.896   4.172   4.726  0.4422  1.9332 -1.7345
  175TIP3   OH2  530   1.947   5.003   3.183 -0.0449 -0.5540 -0.3180
  175TIP3    H1  531   1.936   5.064   3.255  0.8413  0.8508 -1.3175
  175TIP3    H2  532   1.911   4.921   3.215  0.7387 -0.0990  1.8787
  176TIP3   OH2  533   4.155   3.225   5.077  0.0944  0.2949 -0.7953
  176TIP3    H1  534   4.198   3.148   5.113  0.9203  1.1754  0.1703
  176TIP3    H2  535   4.062   3.204   5.076  0.3286 -0.7716 -0.7240
  177TIP3   OH2  536   3.002   0.224   2.705  0.0242  0.4137 -0.0526
  177TIP3    H1  537   2.937   0.289   2.680 -0.0160  0.3881 -0.0156
  177TIP3    H2  538   3.024   0.178   2.624  0.7884  1.1285 -0.2665
  178TIP3   OH2  539   5.115   2.121   4.602 -0.5661  0.3784  0.6977
  178TIP3    H1  540   5.094   2.153   4.514 -0.8322  0.9456  0.9627
  178TIP3    H2  541   5.086   2.030   4.602 -0.6018  0.3864  0.2119
  179TIP3   OH2  542   5.099   5.774   2.773 -0.3524  0.5111  0.3281
  179TIP3    H1  543   5.191   5.780   2.800 -0.1560  1.5997 -0.5139
  179TIP3    H2  544   5.068   5.865   2.774 -1.4107  0.1624  0.5548
  180TIP3   OH2  545   0.848   1.038   4.809  0.0354  0.0698 -0.3125
  180TIP3    H1  546   0.808   0.997   4.885  1.5890 -0.4590  0.2497
  180TIP3    H2  547   0.942   1.022   4.819  0.3233  0.4195 -2.0785
  181TIP3   OH2  548   2.841   4.898   1.991 -0.1605 -0.6083 -0.0357
  181TIP3    H1  549   2.908   4.858   2.046  1.5502 -0.6677 -1.9999
  181TIP3    H2  550   2.859   4.992   1.997  1.2775 -0.7036 -1.8315
  182TIP3   OH2  551   3.415   3.270   1.966 -0.2726 -0.5304 -0.2620
  182TIP3    H1  552   3.422   3.222   2.049  0.5118  0.5393  0.3077
  182TIP3    H2  553   3.464   3.216   1.903  0.2120 -0.7056  0.2631
  183TIP3   OH2  554   2.559   3.104   1.852  0.0372 -0.2046  0.2380
  183TIP3    H1  555   2.585   3.195   1.842  0.2875 -0.3452 -0.5212
  183TIP3    H2  556   2.642   3.057   1.864 -0.1382 -0.2590  1.3626
  184TIP3   OH2  557   6.372   1.676   1.255  0.2421 -0.4923  0.4350
  184TIP3    H1  558   6.279   1.663   1.273 -0.0934 -0.2178 -0.9614
  184TIP3    H2  559   6.388   1.768   1.274 -0.0277 -0.2898 -0.2677
  185TIP3   OH2  560   4.605   0.630   1.290 -0.1940 -0.2876 -0.0542
  185TIP3    H1  561   4.554   0.598   1.364 -1.3415  0.1643 -0.6286
  185TIP3    H2  562   4.695   0.603   1.309 -0.6966 -1.4359  0.7936
  186TIP3   OH2  563   4.771   2.790   3.272  0.1625 -0.0699 -0.3680
  186TIP3    H1  564   4.800   2.732   3.202 -0.7887 -1.7907  0.5771
  186TIP3    H2  565   4.677   2.771   3.280  0.3777 -0.4725  1.8100
  187TIP3   OH2  566   4.850   3.439   2.983  0.3204 -0.2137  0.2284
  187TIP3    H1  567   4.835   3.345   2.992  0.3898 -0.3835 -1.2265
  187TIP3    H2  568   4.793   3.479   3.049 -1.4158 -1.1749 -0.6324
  188TIP3   OH2  569   5.410   1.189   0.472 -0.1921  0.0033  0.0793
  188TIP3    H1  570   5.504   1.178   0.487 -0.6150 -3.8847  0.9451
  188TIP3    H2  571   5.400   1.180   0.377  0.3453  1.5522 -0.1543
  189TIP3   OH2  572   1.502   0.113   2.387  0.0744  0.0120  0.1044
  189TIP3    H1  573   1.449   0.188   2.359  0.9957  0.8035  0.4154
  189TIP3    H2  574   1.462   0.038   2.343 -0.8697  0.6751 -0.2220
  190TIP3   OH2  575   2.336   3.346   0.995  0.7193 -0.1982  0.1376
  190TIP3    H1  576   2.347   3.321   1.087 -2.0499  0.7032  0.8054
  190TIP3    H2  577   2.274   3.282   0.960  0.2785  0.5857 -0.5490
  191TIP3   OH2  578   1.058   4.073   3.591 -0.0475  0.0621 -0.0088
  191TIP3    H1  579   0.986   4.136   3.593 -0.0969  0.0172 -0.3261
  191TIP3    H2  580   1.083   4.062   3.683 -1.8926 -1.5816  0.3654
  192TIP3   OH2  581   5.273   1.502   0.217 -0.1587  0.3128  0.2817
  192TIP3    H1  582   5.244   1.544   0.136 -0.8107  0.9486  0.8261
  192TIP3    H2  583   5.221   1.422   0.222  0.0960  0.1219 -0.0691
  193TIP3   OH2  584   0.519   5.346   2.767  0.1853  0.4340 -0.2008
  193TIP3    H1  585   0.424   5.340   2.779  0.4157 -0.6608  1.4067
  193TIP3    H2  586   0.530   5.366   2.674 -1.5877 -1.0310 -0.7923
  194TIP3   OH2  587   3.080   2.227   0.758  0.3715  0.9159  0.4072
  194TIP3    H1  588   3.147   2.160   0.772  0.8412  0.8979 -1.5819
  194TIP3    H2  589   3.002   2.192   0.800  0.9043 -0.3638  0.3849
  195TIP3   OH2  590   2.997   0.242   1.518 -0.5420 -0.3325  0.1069
  195TIP3    H1  591   3.051   0.175   1.558 -0.2149  1.2702  2.5623
  195TIP3    H2  592   3.060   0.305   1.481 -0.7638  0.2496  0.7043
  196TIP3   OH2  593   0.293   4.534   3.493  0.5652  0.1399  0.5556
  196TIP3    H1  594   0.275   4.609   3.550 -0.0564  0.4359 -0.0244
  196TIP3    H2  595   0.278   4.458   3.549 -1.6275  0.3852  0.3739
  197TIP3   OH2  596   3.673   3.228   1.150 -0.2493  0.3377  0.3291
  197TIP3    H1  597   3.636   3.166   1.212  0.6713 -0.0024  0.5566
  197TIP3    H2  598   3.606   3.295   1.140 -0.8790 -0.2085  0.7947
  198TIP3   OH2  599   1.838   5.707   3.702  0.6655  0.2714 -0.0211
  198TIP3    H1  600   1.760   5.654   3.690  1.2455 -0.0662 -3.0700
  198TIP3    H2  601   1.808   5.784   3.749 -1.2546 -0.3918 -0.0890
  199TIP3   OH2  602   1.942   3.875   4.216  0.1250 -0.3799  0.2499
  199TIP3    H1  603   1.899   3.951   4.179 -0.3713 -0.4493  0.6707
  199TIP3    H2  604   2.030   3.875   4.178 -0.6476 -0.9655 -1.6349
  200TIP3   OH2  605   2.461   2.896   4.519 -0.2657 -0.0816 -0.0042
  200TIP3    H1  606   2.392   2.850   4.567 -0.1677  0.3583  0.5709
  200TIP3    H2  607   2.513   2.939   4.587  0.0903  0.2575 -0.4837
  201TIP3   OH2  608   2.875   1.688   1.281  0.4288  0.5467  0.1676
  201TIP3    H1  609   2.826   1.770   1.272  0.3289  0.4246 -0.4160
  201TIP3    H2  610   2.901   1.665   1.192  0.4402 -0.0655  0.3226
  202TIP3   OH2  611   1.326   3.215   0.991  0.1627  0.0302  0.1429
  202TIP3    H1  612   1.267   3.234   0.917 -1.5208  0.6762  1.5804
  202TIP3    H2  613   1.369   3.299   1.008  0.8851 -0.2308 -0.3712
  203TIP3   OH2  614   5.015   0.106   0.918  0.5272 -0.5859  0.5237
  203TIP3    H1  615   5.083   0.174   0.923 -0.8532  0.7935  1.2108
  203TIP3    H2  616   5.049   0.043   0.853  1.9650  0.6074  0.0644
  204TIP3   OH2  617   0.467   0.126   2.497 -0.2373  0.3820  0.6525
  204TIP3    H1  618   0.562   0.119   2.500 -0.2522 -0.2730 -0.0943
  204TIP3    H2  619   0.450   0.219   2.481  0.3414  0.2697 -0.8272
  205TIP3   OH2  620   0.281   2.803   1.397  0.1222  0.0647  0.1853
  205TIP3    H1  621   0.327   2.764   1.324  0.8523 -0.3046  0.8276
  205TIP3    H2  622   0.188   2.785   1.380  0.2919 -0.0748 -0.5989
  206TIP3   OH2  623   4.948   1.768   0.523 -0.4122  0.1448  0.1495
  206TIP3    H1  624   4.992   1.694   0.565  2.7252  1.6079 -0.2887
  206TIP3    H2  625   4.935   1.740   0.433 -0.2488 -0.2351  0.2408
  207TIP3   OH2  626   2.893   0.308   2.395 -0.1738 -0.8138  0.5662
  207TIP3    H1  627   2.973   0.352   2.423 -0.0827 -0.1590 -0.6501
  207TIP3    H2  628   2.919   0.262   2.315 -0.9280 -0.9207  0.3786
  208TIP3   OH2  629   1.082   3.834   3.506 -0.1895  0.5341 -0.3681
  208TIP3    H1  630   1.051   3.847   3.417 -1.5854  0.2663  0.0512
  208TIP3    H2  631   1.086   3.922   3.543  0.1766  0.6251 -0.6173
  209TIP3   OH2  632   0.664   2.745   3.140  0.2780  0.4521 -0.3809
  209TIP3    H1  633   0.630   2.769   3.054  0.5300  1.4543 -0.2176
  209TIP3    H2  634   0.630   2.658   3.157  2.6728 -1.0971 -2.8102
  210TIP3   OH2  635   4.643   3.020   1.630 -0.6878  0.3410 -0.2995
  210TIP3    H1  636   4.582   3.071   1.683  0.0886  0.6296  0.3480
  210TIP3    H2  637   4.723   3.015   1.684 -1.8560 -4.9636  1.6082
  211TIP3   OH2  638   5.402   2.377   2.744 -0.0614  0.1327 -0.1387
  211TIP3    H1  639   5.440   2.413   2.665 -0.3885  0.4024 -0.1763
  211TIP3    H2  640   5.465   2.312   2.774 -0.0217 -0.0977 -0.7159
  212TIP3   OH2  641   1.168   0.470   4.491 -0.2370 -0.1625 -0.4071
  212TIP3    H1  642   1.110   0.411   4.444 -1.4632  0.0732  0.7478
  212TIP3    H2  643   1.144   0.558   4.461  0.1602 -0.1143 -0.5959
  213TIP3   OH2  644   3.908   5.846   3.341  0.4032  0.3508 -0.2476
  213TIP3    H1  645   3.960   5.889   3.409  0.1371  0.4068 -0.0830
  213TIP3    H2  646   3.826   5.824   3.383  0.4987 -0.2316 -0.3607
  214TIP3   OH2  647   0.603   2.802   2.575  0.0631  0.4188 -0.3450
  214TIP3    H1  648   0.509   2.820   2.572  0.0733  0.3230 -1.8630
  214TIP3    H2  649   0.642   2.885   2.603 -0.5567 -0.0187  2.0431
  215TIP3   OH2  650   3.139   2.418   1.993 -0.1759  0.8195  0.5119
  215TIP3    H1  651   3.062   2.474   1.988 -0.5526  0.5342  2.4430
  215TIP3    H2  652   3.177   2.436   2.078  0.5721 -0.7313  0.5494
  216TIP3   OH2  653   3.264   5.295   1.782 -0.6112  0.2105  0.1076
  216TIP3    H1  654   3.331   5.291   1.714  0.0082  2.0772  0.5503
  216TIP3    H2  655   3.308   5.336   1.856 -1.8730  0.1898  0.8913
  217TIP3   OH2  656   1.690   0.414   2.186 -0.1387  0.1282 -0.3396
  217TIP3    H1  657   1.684   0.504   2.217  0.4164 -0.5398  1.9816
  217TIP3    H2  658   1.614   0.370   2.226  0.4882 -0.7552 -0.0835
  218TIP3   OH2  659   4.910   1.625   4.817 -0.1389 -0.7307  0.2244
  218TIP3    H1  660   4.975   1.674   4.768 -1.7373  1.3545  0.0674
  218TIP3    H2  661   4.864   1.573   4.751  0.6272 -1.3784  0.1879
  219TIP3   OH2  662   3.533   5.237   3.820  0.1685 -0.1659 -0.1561
  219TIP3    H1  663   3.616   5.274   3.790 -0.0997 -0.0496 -0.7753
  219TIP3    H2  664   3.554   5.195   3.903  0.0716  3.1883  1.7222
  220TIP3   OH2  665   2.321   3.962   1.793 -0.2235  0.1511  0.3293
  220TIP3    H1  666   2.283   3.912   1.865 -1.2508  1.3133  0.6375
  220TIP3    H2  667   2.408   3.987   1.824 -0.6217  0.5566  1.1277
  221TIP3   OH2  668   1.426   1.550   2.758  0.0599  0.0304  0.2535
  221TIP3    H1  669   1.413   1.543   2.853 -0.6017  0.7947  0.2275
  221TIP3    H2  670   1.520   1.536   2.747  0.2110  0.3161  1.0644
  222TIP3   OH2  671   4.467   3.423   2.404  0.5013  0.1084 -0.2366
  222TIP3    H1  672   4.508   3.353   2.353  2.7782  0.4202  1.0164
  222TIP3    H2  673   4.540   3.464   2.451 -1.1770  1.2311  1.5512
  223TIP3   OH2  674   3.255   1.233   4.893  0.5784 -0.4151 -0.3766
  223TIP3    H1  675   3.320   1.178   4.850  1.3834  0.4897 -0.3689
  223TIP3    H2  676   3.280   1.233   4.985  0.3440 -0.3626 -0.3121
  224TIP3   OH2  677   1.027   0.175   1.777 -0.1554  0.3225  0.5755
  224TIP3    H1  678   1.096   0.148   1.716  0.2120  0.8676  0.7536
  224TIP3    H2  679   1.009   0.266   1.755 -1.4215 -0.0513 -0.0395
  225TIP3   OH2  680   2.320   3.381   1.850  0.4058 -0.1214  0.1139
  225TIP3    H1  681   2.336   3.288   1.865 -2.1869 -1.0708 -2.0432
  225TIP3    H2  682   2.231   3.395   1.883  1.1042  1.9285  1.3368
  226TIP3   OH2  683   3.349   3.530   1.915  0.0701  0.0545 -0.7302
  226TIP3    H1  684   3.356   3.436   1.932 -1.2622 -0.2768 -1.8502
  226TIP3    H2  685   3.429   3.552   1.867 -0.0221 -0.7051 -1.2496
  227TIP3   OH2  686   1.021   2.062   2.042 -0.1598  0.8899  0.3910
  227TIP3    H1  687   0.977   1.978   2.031  1.4841 -0.0342  0.5521
  227TIP3    H2  688   0.953   2.127   2.022 -1.3157 -0.4642 -0.3092
  228TIP3   OH2  689   5.237   4.133   4.656 -0.0404  0.2064 -0.3666
  228TIP3    H1  690   5.152   4.176   4.663 -0.8747 -1.4150 -0.0641
  228TIP3    H2  691   5.232   4.081   4.576  1.1197  0.9688 -0.9737
  229TIP3   OH2  692   2.110   4.547   2.100 -0.0200 -0.5071 -0.4965
  229TIP3    H1  693   2.178   4.522   2.037  0.0683 -0.2902 -0.4886
  229TIP3    H2  694   2.028   4.542   2.051  0.2586  2.1911 -1.4262
  230TIP3   OH2  695   2.862   2.241   0.536 -0.3827 -0.7337  0.4555
  230TIP3    H1  696   2.848   2.154   0.575  1.2746 -1.6053 -0.7476
  230TIP3    H2  697   2.957   2.246   0.524 -0.3515  1.5992  1.1906
  231TIP3   OH2  698   2.518   2.485   2.324  0.6897  0.6718 -0.6621
  231TIP3    H1  699   2.426   2.473   2.302  0.2291  1.3408  0.8129
  231TIP3    H2  700   2.565   2.457   2.245 -0.7361 -0.1909 -1.2377
  232TIP3   OH2  701   0.073   3.026   3.930  0.0233 -0.3296 -0.1646
  232TIP3    H1  702   0.055   2.956   3.867 -0.1080  0.0890 -0.6040
  232TIP3    H2  703   0.165   3.050   3.913 -0.2677  0.3841 -0.8232
  233TIP3   OH2  704   1.931   1.576   0.955  0.3917  0.1932  0.0760
  233TIP3    H1  705   1.852   1.566   0.902  0.2782  0.3955  0.2037
  233TIP3    H2  706   1.988   1.504   0.929  0.0957 -0.0495  0.1016
  234TIP3   OH2  707   3.115   0.859   2.881  0.5579  0.5789  0.1944
  234TIP3    H1  708   3.090   0.787   2.823 -0.3877  2.3185 -1.6577
  234TIP3    H2  709   3.036   0.879   2.931  1.3794 -0.9462  2.2654
  235TIP3   OH2  710   5.070   4.669   0.739  0.4618 -0.3250  0.4678
  235TIP3    H1  711   5.072   4.700   0.830  0.9361 -1.5764  0.9050
  235TIP3    H2  712   5.115   4.737   0.689  0.4861  0.2196  1.2174
  236TIP3   OH2  713   3.372   4.613   4.564 -0.3501  0.2119 -0.2626
  236TIP3    H1  714   3.424   4.692   4.582  0.1804  0.0916 -1.1981
  236TIP3    H2  715   3.294   4.645   4.518 -0.8013  0.3219  0.5580
  237TIP3   OH2  716   4.672   1.128   0.789  0.6324  0.3383  0.5068
  237TIP3    H1  717   4.595   1.078   0.817  1.7615 -0.4577  2.3636
  237TIP3    H2  718   4.677   1.201   0.850 -0.0135  1.8270 -1.1378
  238TIP3   OH2  719   1.485   2.909   1.618 -0.8029 -0.9725 -0.3901
  238TIP3    H1  720   1.448   2.825   1.640 -1.3835 -1.0147 -1.4375
  238TIP3    H2  721   1.450   2.970   1.683 -1.4501 -1.2972 -0.4357
  239TIP3   OH2  722   3.009   3.208   1.980 -0.5003 -0.4060 -0.0924
  239TIP3    H1  723   3.009   3.269   1.906  2.1853 -1.3756 -0.9779
  239TIP3    H2  724   3.052   3.130   1.947  2.4997 -0.2484  2.9207
  240TIP3   OH2  725   3.868   4.319   2.308  0.2564  0.6258 -0.1086
  240TIP3    H1  726   3.896   4.345   2.220  0.1796  1.5185  0.1239
  240TIP3    H2  727   3.943   4.342   2.364  1.1454 -1.7827 -0.1866
  241TIP3   OH2  728   3.272   4.733   4.011  0.1261  0.7406 -0.3498
  241TIP3    H1  729   3.323   4.652   4.015 -0.0491  0.5780 -1.2449
  241TIP3    H2  730   3.184   4.707   4.036  0.0669  0.6552 -0.6508
  242TIP3   OH2  731   2.921   1.276   1.300  0.1807 -0.7775  0.5532
  242TIP3    H1  732   2.831   1.308   1.292  0.4031 -0.3291 -0.2454
  242TIP3    H2  733   2.914   1.182   1.289 -0.0156 -0.5935 -1.1240
  243TIP3   OH2  734   3.698   3.116   0.654 -0.4833 -0.4419 -0.0553
  243TIP3    H1  735   3.690   3.108   0.750  0.2500 -2.8087 -0.1232
  243TIP3    H2  736   3.786   3.150   0.640  0.4943 -2.7333  0.1202
  244TIP3   OH2  737   3.316   2.023   0.406  0.1267 -0.3211  0.0173
  244TIP3    H1  738   3.356   2.005   0.491  0.0627 -1.1443 -0.1119
  244TIP3    H2  739   3.283   1.937   0.377 -0.9451  0.1720 -0.2732
  245TIP3   OH2  740   6.057   2.021   1.376  0.1585 -0.0958 -0.0688
  245TIP3    H1  741   6.013   1.943   1.411 -1.4973  0.7812 -0.1076
  245TIP3    H2  742   6.150   2.006   1.396 -0.0280 -2.2926 -0.5187
  246TIP3   OH2  743   4.940   0.349   1.622 -0.5314  0.3744 -0.3185
  246TIP3    H1  744   5.034   0.349   1.602 -0.8727 -1.4349 -2.4629
  246TIP3    H2  745   4.935   0.367   1.716  2.0023 -0.0806 -0.0161
  247TIP3   OH2  746   2.164   5.780   0.295 -0.1263 -0.0643 -0.4552
  247TIP3    H1  747   2.135   5.690   0.309 -1.7869  0.4216 -0.6342
  247TIP3    H2  748   2.156   5.794   0.201 -2.7233  1.1537 -0.1284
  248TIP3   OH2  749   3.417   3.098   2.271 -0.4172  0.3429 -0.4273
  248TIP3    H1  750   3.325   3.098   2.300 -0.6574  2.8451 -0.8782
  248TIP3    H2  751   3.467   3.121   2.349 -0.1865 -0.7009 -0.2567
  249TIP3   OH2  752   3.785   2.491   3.039 -0.1610  0.0484  0.2274
  249TIP3    H1  753   3.719   2.552   3.070  0.4799  0.1509  1.4442
  249TIP3    H2  754   3.868   2.538   3.048  0.2916 -0.8119  0.6972
  250TIP3   OH2  755   5.442   5.902   0.701  0.1399  0.2872 -0.6910
  250TIP3    H1  756   5.483   5.985   0.725 -0.5846  1.1970 -2.4515
  250TIP3    H2  757   5.424   5.859   0.785  1.8764  1.2083  0.2078
  251TIP3   OH2  758   2.382   3.047   3.656  0.1555  0.2081  0.4753
  251TIP3    H1  759   2.296   3.088   3.648  0.5742  0.9870 -0.1792
  251TIP3    H2  760   2.363   2.953   3.662 -0.7915  0.4496  1.5689
  252TIP3   OH2  761   2.418   5.453   1.535 -0.2700  0.3654 -0.1078
  252TIP3    H1  762   2.410   5.549   1.532  0.1392  0.5584  2.6364
  252TIP3    H2  763   2.503   5.435   1.493 -0.6356  1.1155 -1.2106
  253TIP3   OH2  764   1.789   0.798   1.728 -0.2248  0.0625  0.0096
  253TIP3    H1  765   1.813   0.711   1.695  0.0696 -0.4420  1.4505
  253TIP3    H2  766   1.748   0.780   1.813 -0.8474  1.2935 -0.0060
  254TIP3   OH2  767   3.487   0.033   4.168  0.0607 -0.2979  0.1066
  254TIP3    H1  768   3.454   0.111   4.123  1.0855 -0.3624 -0.8095
  254TIP3    H2  769   3.565   0.063   4.214 -1.3396 -0.0770  2.4972
  255TIP3   OH2  770   4.280   3.457   1.735 -0.0258  0.8372 -0.6243
  255TIP3    H1  771   4.326   3.539   1.757 -0.2793  1.0420 -0.8553
  255TIP3    H2  772   4.187   3.479   1.744 -0.0898  0.5466 -0.5931
  256TIP3   OH2  773   1.217   5.550   0.764 -0.1529  0.1386  0.2235
  256TIP3    H1  774   1.254   5.631   0.727  2.1223 -0.8295  0.2383
  256TIP3    H2  775   1.168   5.511   0.692 -1.3420  1.5102  0.2326
  257TIP3   OH2  776   3.472   3.813   0.661  0.3457 -0.0712  0.4668
  257TIP3    H1  777   3.537   3.883   0.668 -0.9536  1.2981 -0.4850
  257TIP3    H2  778   3.522   3.737   0.632  1.3062  1.4409 -2.2079
  258TIP3   OH2  779   6.255   1.494   2.264  0.1290  0.1582 -0.4212
  258TIP3    H1  780   6.287   1.467   2.178  0.8029  0.1107 -0.1571
  258TIP3    H2  781   6.288   1.429   2.324  1.8380  1.5399  0.2303
  259TIP3   OH2  782   0.969   2.890   0.559 -0.5998 -0.0201  0.2990
  259TIP3    H1  783   0.985   2.857   0.647  1.0306  0.1107  0.0819
  259TIP3    H2  784   0.946   2.812   0.507  3.1586 -1.0046 -0.2053
  260TIP3   OH2  785   1.308   2.876   3.710  0.1999  0.0862 -0.7469
  260TIP3    H1  786   1.370   2.935   3.666  0.7537 -1.2279 -1.7930
  260TIP3    H2  787   1.359   2.835   3.779 -0.6742  2.1567  1.2740
  261TIP3   OH2  788   3.098   4.491   2.199  0.0600  0.0652 -0.1882
  261TIP3    H1  789   3.024   4.476   2.257  0.0136 -0.7086 -0.4333
  261TIP3    H2  790   3.174   4.465   2.250  0.2306  1.3604  0.2524
  262TIP3   OH2  791   2.738   4.808   0.387 -0.0809 -0.3657 -0.1062
  262TIP3    H1  792   2.720   4.730   0.335  0.7365 -0.4898 -0.2119
  262TIP3    H2  793   2.695   4.792   0.470 -2.0322  0.1448 -0.9593
  263TIP3   OH2  794   5.968   3.715   2.611  0.3537 -0.1111  0.1021
  263TIP3    H1  795   5.942   3.707   2.519 -0.9676 -0.2301  0.4725
  263TIP3    H2  796   6.061   3.740   2.607  0.1177  0.6472 -1.2652
  264TIP3   OH2  797   1.574   2.537   0.271 -0.4724  0.2284 -0.1154
  264TIP3    H1  798   1.634   2.590   0.218 -2.2617  1.7446 -0.7448
  264TIP3    H2  799   1.537   2.599   0.334 -0.3698 -0.9865  1.1914
  265TIP3   OH2  800   0.725   3.344   4.645  0.0016  0.2397  0.7113
  265TIP3    H1  801   0.667   3.311   4.713  1.4918 -3.3194  0.4675
  265TIP3    H2  802   0.676   3.331   4.564  0.2490 -0.6370  0.6940
  266TIP3   OH2  803   6.243   0.540   3.966 -0.3951 -0.2818 -0.1485
  266TIP3    H1  804   6.306   0.590   4.019 -2.5460  2.1144  0.3262
  266TIP3    H2  805   6.166   0.530   4.022 -1.1020 -1.6755 -1.2943
  267TIP3   OH2  806   1.473   3.728   0.091  0.3146 -0.2092 -0.8389
  267TIP3    H1  807   1.560   3.766   0.082 -0.3621  1.6915  0.0129
  267TIP3    H2  808   1.481   3.663   0.160  0.7395  1.0892  0.3606
  268TIP3   OH2  809   2.806   3.201   0.458  0.0210  0.7606  0.4993
  268TIP3    H1  810   2.726   3.167   0.498 -0.1347  0.9063  0.3180
  268TIP3    H2  811   2.775   3.250   0.381  0.3654 -0.2019 -0.2705
  269TIP3   OH2  812   0.306   4.785   0.596 -0.3991 -0.8483 -0.0283
  269TIP3    H1  813   0.389   4.741   0.613 -0.8855 -0.7201  3.1728
  269TIP3    H2  814   0.325   4.845   0.524  1.8627 -1.8393 -0.3354
  270TIP3   OH2  815   3.896   5.240   4.357  0.4148  0.5527  0.0366
  270TIP3    H1  816   3.977   5.241   4.306 -0.7362  1.7343 -1.8719
  270TIP3    H2  817   3.828   5.268   4.296 -1.4999 -0.5659  1.5166
  271TIP3   OH2  818   4.781   1.548   4.108 -0.2125  0.6535 -0.6796
  271TIP3    H1  819   4.789   1.587   4.021  0.3533 -0.2412 -1.0386
  271TIP3    H2  820   4.774   1.623   4.167  0.4050  1.3002 -1.4023
  272TIP3   OH2  821   3.610   5.578   4.120 -0.4025  0.3257 -0.4858
  272TIP3    H1  822   3.590   5.670   4.136  0.3118  0.2143  1.3796
  272TIP3    H2  823   3.663   5.552   4.196 -1.5489 -1.9148 -0.3553
  273TIP3   OH2  824   0.055   0.415   3.165 -0.2674 -0.6798  0.3236
  273TIP3    H1  825   0.098   0.329   3.162 -1.1489 -1.1407  0.4066
  273TIP3    H2  826   0.068   0.445   3.255  1.1828 -0.1100 -0.0553
  274TIP3   OH2  827   0.160   0.622   0.867 -0.0321  0.1227  0.2544
  274TIP3    H1  828   0.084   0.624   0.926  0.4585  0.3830  0.8853
  274TIP3    H2  829   0.186   0.714   0.860  1.1326 -0.1141  1.2344
  275TIP3   OH2  830   5.137   1.089   0.474 -0.0624 -0.0513  0.3670
  275TIP3    H1  831   5.124   1.023   0.407  1.4718 -0.1432  0.1241
  275TIP3    H2  832   5.232   1.101   0.478 -0.1818  0.6288  1.8651
  276TIP3   OH2  833   2.908   3.573   0.951  0.0040 -0.2369  0.0491
  276TIP3    H1  834   2.882   3.581   1.043 -2.2215  0.0627 -0.5559
  276TIP3    H2  835   2.995   3.613   0.947 -0.1334  0.3328  1.9001
  277TIP3   OH2  836   6.223   4.218   1.555 -0.8187 -0.3134  0.4793
  277TIP3    H1  837   6.179   4.264   1.484  0.7550  1.2931  0.4582
  277TIP3    H2  838   6.196   4.127   1.546  1.2594 -0.7619 -3.8608
  278TIP3   OH2  839   0.916   1.229   3.666  0.6187  0.8506  0.1186
  278TIP3    H1  840   1.009   1.215   3.650  0.3787  0.9410 -1.5250
  278TIP3    H2  841   0.877   1.233   3.579 -1.1607 -0.6438  0.7786
  279TIP3   OH2  842   2.755   5.968   0.415  0.0401 -0.1388  0.6839
  279TIP3    H1  843   2.775   5.985   0.507 -1.2607  1.9892  0.6245
  279TIP3    H2  844   2.659   5.961   0.412 -0.1739  2.3672 -0.8319
  280TIP3   OH2  845   5.576   0.525   1.240  0.4851 -0.0676 -0.6225
  280TIP3    H1  846   5.589   0.491   1.151  0.2725 -0.4134 -0.5252
  280TIP3    H2  847   5.487   0.559   1.240 -0.7941 -3.1091  0.3887
  281TIP3   OH2  848   6.247   2.930   4.808  0.2408 -0.4515 -0.0097
  281TIP3    H1  849   6.154   2.930   4.782  0.3638  0.8330 -0.5538
  281TIP3    H2  850   6.265   2.840   4.834 -0.7889 -1.0647 -1.2956
  282TIP3   OH2  851   3.227   0.620   4.465  0.8325  0.4835 -0.4408
  282TIP3    H1  852   3.285   0.580   4.531 -0.9650  0.9055  1.5186
  282TIP3    H2  853   3.242   0.714   4.473 -0.7919  0.6868  0.8749
  283TIP3   OH2  854   3.645   5.350   2.467 -0.5962 -0.2982  0.2843
  283TIP3    H1  855   3.728   5.360   2.421 -0.7004  0.7542  0.3127
  283TIP3    H2  856   3.653   5.265   2.511  0.3825 -0.3083  0.1199
  284TIP3   OH2  857   2.005   3.099   1.198 -0.1551 -0.6096  0.0801
  284TIP3    H1  858   1.942   3.141   1.139 -0.7320 -0.6769  0.6453
  284TIP3    H2  859   2.058   3.172   1.231  0.1332 -0.5640 -0.4625
  285TIP3   OH2  860   4.767   5.660   4.146  0.5141 -0.4045 -0.3706
  285TIP3    H1  861   4.806   5.711   4.075 -0.8051  1.7008  0.2944
  285TIP3    H2  862   4.839   5.647   4.209  0.9066  0.6825 -0.5673
  286TIP3   OH2  863   0.297   0.291   3.839  0.0921  0.2276  0.8630
  286TIP3    H1  864   0.243   0.348   3.784  2.6669  0.3317 -1.8258
  286TIP3    H2  865   0.381   0.336   3.844  1.3395 -2.0248  1.0250
  287TIP3   OH2  866   5.257   3.699   2.209 -0.1194  0.2466 -0.3000
  287TIP3    H1  867   5.201   3.710   2.132 -0.3578  1.1330 -0.0103
  287TIP3    H2  868   5.313   3.776   2.209 -0.7336  0.7256  0.9092
  288TIP3   OH2  869   1.349   1.734   0.323  0.4730 -0.0939  0.2101
  288TIP3    H1  870   1.373   1.690   0.242  0.1465  1.3081 -0.6836
  288TIP3    H2  871   1.311   1.665   0.378 -3.9576 -0.3549 -2.6778
  289TIP3   OH2  872   4.517   5.615   0.502 -0.0388  0.2306  0.1445
  289TIP3    H1  873   4.528   5.687   0.439 -1.2329  0.6773  0.4240
  289TIP3    H2  874   4.441   5.641   0.554 -1.2612 -1.8067 -0.5308
  290TIP3   OH2  875   3.106   3.869   4.081 -0.0439 -0.3561  0.2191
  290TIP3    H1  876   3.137   3.936   4.019  0.3460  0.6237  1.4395
  290TIP3    H2  877   3.167   3.796   4.070  1.3307  0.6372  0.9332
  291TIP3   OH2  878   4.029   3.561   3.618 -0.1031 -0.3710  0.1031
  291TIP3    H1  879   4.021   3.623   3.546  1.7656 -0.3410 -0.1286
  291TIP3    H2  880   4.027   3.475   3.576 -1.4291 -0.4493  0.2932
  292TIP3   OH2  881   3.903   5.713   3.037 -0.5832  0.4902 -0.0646
  292TIP3    H1  882   3.938   5.680   2.955 -0.3948  1.3580 -0.3445
  292TIP3    H2  883   3.810   5.688   3.035  0.0498 -2.3053  0.9334
  293TIP3   OH2  884   5.435   3.955   1.362 -0.0415 -0.0843  0.7937
  293TIP3    H1  885   5.474   3.890   1.420 -0.4593  0.5365  1.8026
  293TIP3    H2  886   5.501   3.970   1.295 -0.1650 -1.9681  0.1916
  294TIP3   OH2  887   4.217   3.243   4.744 -0.5214 -0.7228  0.4639
  294TIP3    H1  888   4.298   3.209   4.781 -1.2815 -0.8919  2.0650
  294TIP3    H2  889   4.192   3.315   4.803 -1.6682 -0.8593  0.1700
  295TIP3   OH2  890   3.981   1.478   2.445 -0.0317 -0.6094 -0.3398
  295TIP3    H1  891   3.952   1.569   2.454  1.9796  0.0510 -0.0536
  295TIP3    H2  892   3.920   1.428   2.499 -1.4923  0.4706 -0.9149
  296TIP3   OH2  893   3.519   3.248   2.481  0.4602  0.2420  0.3626
  296TIP3    H1  894   3.521   3.306   2.557 -1.0203  0.4425  0.2733
  296TIP3    H2  895   3.496   3.304   2.408  1.5318 -0.0145 -0.1851
  297TIP3   OH2  896   4.232   3.962   2.941 -0.4756  0.1538 -0.2071
  297TIP3    H1  897   4.160   3.900   2.931 -1.1781  1.2763 -2.8979
  297TIP3    H2  898   4.190   4.043   2.969  0.1065  0.1639  0.6881
  298TIP3   OH2  899   4.461   2.069   4.074  0.1007  0.6372 -0.5033
  298TIP3    H1  900   4.383   2.091   4.125 -0.9175  0.9662 -2.1276
  298TIP3    H2  901   4.432   2.001   4.013  0.5812  2.0074 -2.3388
  299TIP3   OH2  902   2.849   4.995   1.355  0.1157 -0.0717  0.1984
  299TIP3    H1  903   2.790   5.009   1.280 -1.5405 -2.0413  1.0038
  299TIP3    H2  904   2.791   5.000   1.431  1.7383  1.7221  1.3711
  300TIP3   OH2  905   1.127   1.061   0.720 -0.2609 -0.3161  0.2960
  300TIP3    H1  906   1.136   0.992   0.653 -0.1013 -0.3479  0.3504
  300TIP3    H2  907   1.175   1.135   0.684 -1.4629  0.1844 -0.3266
  301TIP3   OH2  908   6.236   2.244   4.305  0.4441 -0.2374 -0.0572
  301TIP3    H1  909   6.234   2.261   4.211  0.0493  1.2691  0.2031
  301TIP3    H2  910   6.303   2.177   4.316  0.8144 -0.0975 -1.3557
  302TIP3   OH2  911   4.053   3.645   4.963  0.3252  0.2816  0.5783
  302TIP3    H1  912   4.095   3.690   4.890  0.9449 -0.3958  0.5123
  302TIP3    H2  913   3.998   3.579   4.921  1.5673 -0.8844  0.7326
  303TIP3   OH2  914   4.673   0.811   4.285  0.1636 -0.0005 -0.8266
  303TIP3    H1  915   4.703   0.873   4.351 -0.8769  0.2771 -0.5949
  303TIP3    H2  916   4.731   0.735   4.296  0.1271  0.1090  0.2949
  304TIP3   OH2  917   1.245   0.338   2.962 -0.1606 -0.0191 -0.1922
  304TIP3    H1  918   1.277   0.405   2.901  1.7091 -1.9011 -1.3866
  304TIP3    H2  919   1.156   0.319   2.933  0.2403  0.0611 -1.5332
  305TIP3   OH2  920   3.224   5.959   3.192 -0.9926  0.2379 -0.4077
  305TIP3    H1  921   3.260   5.908   3.264  0.8609 -0.1568 -1.5670
  305TIP3    H2  922   3.179   6.033   3.235 -0.0657 -0.0599  1.1366
  306TIP3   OH2  923   1.943   3.164   2.629  0.2195 -0.0670  0.0540
  306TIP3    H1  924   1.902   3.078   2.636 -1.2137  0.3949 -1.7578
  306TIP3    H2  925   2.037   3.147   2.631 -0.0483 -1.6123  0.2096
  307TIP3   OH2  926   4.742   0.764   4.914  0.7370  0.1421 -0.1092
  307TIP3    H1  927   4.659   0.716   4.911  1.5258 -1.2229 -1.5402
  307TIP3    H2  928   4.716   0.856   4.921 -0.8870 -0.2917  0.0236
  308TIP3   OH2  929   1.803   4.783   3.147  0.5334  0.9885 -0.1937
  308TIP3    H1  930   1.855   4.703   3.156 -0.5747  0.3451  0.6726
  308TIP3    H2  931   1.713   4.753   3.149  0.0493  1.9398 -2.9170
  309TIP3   OH2  932   5.773   4.942   3.282 -0.1363  0.3999  0.7058
  309TIP3    H1  933   5.681   4.934   3.257 -0.0752  1.0992  0.2180
  309TIP3    H2  934   5.791   4.864   3.334 -0.7126 -0.2917 -0.1053
  310TIP3   OH2  935   1.850   2.840   5.131 -0.5021  0.2813 -0.7094
  310TIP3    H1  936   1.906   2.861   5.206 -1.4941  2.2463 -0.4791
  310TIP3    H2  937   1.912   2.817   5.061  0.4749 -0.2301  0.2866
  311TIP3   OH2  938   5.449   3.030   3.677  0.2066 -0.6674 -0.0421
  311TIP3    H1  939   5.426   3.055   3.767 -0.5780 -1.5047  0.0049
  311TIP3    H2  940   5.544   3.030   3.676  0.3229 -3.5109  1.6510
  312TIP3   OH2  941   2.448   3.369   3.031  0.1119  0.0322 -0.6366
  312TIP3    H1  942   2.426   3.425   2.956 -0.1990 -0.0936 -0.6408
  312TIP3    H2  943   2.371   3.314   3.043  1.0434 -1.6098 -1.7296
  313TIP3   OH2  944   1.478   3.103   3.146  0.1519 -0.1092 -0.0829
  313TIP3    H1  945   1.460   3.091   3.053  0.6109  2.6120 -0.6084
  313TIP3    H2  946   1.392   3.102   3.188 -0.1563 -0.0577 -0.7038
  314TIP3   OH2  947   1.713   3.205   0.241  0.0014 -0.0224  0.2735
  314TIP3    H1  948   1.617   3.209   0.235 -0.1165 -2.6591 -1.2028
  314TIP3    H2  949   1.731   3.147   0.315  0.4920  0.6759  0.7163
  315TIP3   OH2  950   5.438   2.972   1.263 -0.2437 -0.0615 -0.2986
  315TIP3    H1  951   5.384   2.960   1.185 -0.4798  0.5390 -0.2354
  315TIP3    H2  952   5.521   2.929   1.242 -0.3646 -0.0445 -0.8200
  316TIP3   OH2  953   2.820   0.783   3.520 -0.0439  0.5635  0.1170
  316TIP3    H1  954   2.908   0.815   3.498 -1.7320  4.5185 -1.9543
  316TIP3    H2  955   2.786   0.747   3.438  0.0088 -2.3745  1.2611
  317TIP3   OH2  956   5.519   3.004   2.994  0.4700 -0.5324  0.0692
  317TIP3    H1  957   5.450   3.070   2.995  0.7946 -0.1924  0.1551
  317TIP3    H2  958   5.539   2.988   3.087  0.2951 -0.8582  0.0547
  318TIP3   OH2  959   3.756   2.529   2.747 -0.1481 -0.4457 -0.0502
  318TIP3    H1  960   3.770   2.528   2.842  0.9966 -1.3544 -0.2098
  318TIP3    H2  961   3.668   2.564   2.736 -1.1673 -2.3454  1.4628
  319TIP3   OH2  962   0.113   2.278   0.040 -0.0571 -0.9070  0.6773
  319TIP3    H1  963   0.090   2.365   0.073  0.0311 -0.6731  0.1298
  319TIP3    H2  964   0.208   2.281   0.029 -0.1593 -0.7524 -0.2350
  320TIP3   OH2  965   5.609   4.494   3.867 -0.5268  0.0685 -0.0854
  320TIP3    H1  966   5.564   4.532   3.791  0.8116  0.4203 -0.7425
  320TIP3    H2  967   5.599   4.399   3.855  0.1859  0.1027 -1.0443
  321TIP3   OH2  968   5.577   5.954   1.830 -0.5614  0.9196  0.0189
  321TIP3    H1  969   5.641   5.996   1.888 -0.4384 -0.6890  1.1059
  321TIP3    H2  970   5.574   6.011   1.753  2.4709  0.8668 -0.2805
  322TIP3   OH2  971   6.321   5.498   1.088 -0.0387  0.0443  0.8016
  322TIP3    H1  972   6.226   5.491   1.082  0.0412 -1.3119  0.7935
  322TIP3    H2  973   6.341   5.588   1.065 -1.3401  0.3805  0.9742
  323TIP3   OH2  974   0.555   1.409   1.542 -0.4579 -0.3895  0.0622
  323TIP3    H1  975   0.486   1.378   1.600  1.3262 -1.0550  1.9421
  323TIP3    H2  976   0.589   1.330   1.500 -0.0871 -0.2024  0.0081
  324TIP3   OH2  977   2.922   0.812   2.533  0.7697  0.1153  0.8360
  324TIP3    H1  978   2.960   0.899   2.529 -1.7904  1.3626  1.1492
  324TIP3    H2  979   2.867   0.806   2.455 -0.1828 -0.6357  1.5403
  325TIP3   OH2  980   2.090   2.698   3.460  0.4945 -0.2551  0.3250
  325TIP3    H1  981   2.122   2.754   3.531 -0.1141 -0.6589  0.9338
  325TIP3    H2  982   2.157   2.704   3.392  1.6450 -0.7186  1.3771
  326TIP3   OH2  983   2.025   2.530   0.618 -0.3010  0.1418 -0.2060
  326TIP3    H1  984   2.035   2.523   0.524 -4.0394  1.2124 -0.8536
  326TIP3    H2  985   2.026   2.440   0.650 -0.0934 -0.2961 -1.4323
  327TIP3   OH2  986   3.837   5.068   0.466  0.1006 -0.1273  0.5181
  327TIP3    H1  987   3.836   5.143   0.406 -1.9620 -0.9013 -0.5306
  327TIP3    H2  988   3.766   5.012   0.435  0.2066 -1.5028  2.5575
  328TIP3   OH2  989   2.741   2.844   0.960 -0.9296 -0.2495 -0.3492
  328TIP3    H1  990   2.768   2.753   0.946  1.5818  0.4144 -0.2594
  328TIP3    H2  991   2.779   2.892   0.887 -0.8179  0.9656  0.4791
  329TIP3   OH2  992   3.373   0.898   4.989  0.0644 -0.5081 -0.2876
  329TIP3    H1  993   3.283   0.907   5.019  0.3915 -0.2390  0.6691
  329TIP3    H2  994   3.397   0.808   5.013  0.1314 -0.4893 -0.2835
  330TIP3   OH2  995   4.078   1.400   4.449  0.1093  0.0395  0.8477
  330TIP3    H1  996   4.104   1.337   4.382 -1.9761 -0.7116  0.6690
  330TIP3    H2  997   4.028   1.466   4.402  0.8786  0.9693  1.2932
  331TIP3   OH2  998   5.144   4.511   1.935 -0.0283  0.4492  0.1409
  331TIP3    H1  999   5.173   4.420   1.936  0.7737  0.7011  0.5176
  331TIP3    H2 1000   5.158   4.540   1.844 -0.1698  0.2355  0.0515
  332TIP3   OH2 1001   2.333   5.241   3.292 -0.2421  0.0514 -0.1104
  332TIP3    H1 1002   2.296   5.328   3.278 -0.0697  0.3824  1.3362
  332TIP3    H2 1003   2.274   5.200   3.356  0.6625 -0.2209  0.5686
  333TIP3   OH2 1004   0.938   3.141   1.651 -0.0247  0.4459  0.0494
  333TIP3    H1 1005   0.946   3.236   1.657  0.2493  0.6069 -2.2894
  333TIP3    H2 1006   0.880   3.118   1.724  0.2818  2.3260  0.9462
  334TIP3   OH2 1007   2.896   3.608   3.165 -0.0659 -0.9327  0.0529
  334TIP3    H1 1008   2.806   3.577   3.165  0.1730 -1.7617 -1.7693
  334TIP3    H2 1009   2.899   3.674   3.096  0.5557 -0.3627  0.6109
  335TIP3   OH2 1010   1.066   5.655   1.750  0.3608  0.5325 -0.3758
  335TIP3    H1 1011   1.095   5.717   1.817  1.0618 -2.1358  2.0186
  335TIP3    H2 1012   0.974   5.679   1.733 -0.6619 -0.0464  3.4363
  336TIP3   OH2 1013   1.249   4.796   3.246  0.2995  0.2001  0.0365
  336TIP3    H1 1014   1.170   4.811   3.299  0.8860 -1.2761  1.3824
  336TIP3    H2 1015   1.234   4.711   3.205  1.2236 -0.1157  0.3517
  337TIP3   OH2 1016   1.813   1.922   0.092 -0.4190  0.4154  0.1443
  337TIP3    H1 1017   1.888   1.931   0.034  0.4203 -1.7472  0.7959
  337TIP3    H2 1018   1.743   1.889   0.036  0.1349 -0.8354  0.1647
  338TIP3   OH2 1019   4.299   4.462   3.656  0.3497  0.1851  0.0464
  338TIP3    H1 1020   4.354   4.401   3.606 -0.3684 -1.0190  0.6594
  338TIP3    H2 1021   4.292   4.539   3.600  2.1964  0.1609 -0.2810
  339TIP3   OH2 1022   1.364   4.488   1.289  0.2879  0.1747 -0.5269
  339TIP3    H1 1023   1.314   4.519   1.214  1.8556  1.5223 -1.0609
  339TIP3    H2 1024   1.371   4.564   1.347 -0.0411 -0.5754  0.5456
  340TIP3   OH2 1025   2.372   2.874   1.045  0.7260 -0.1622  0.1848
  340TIP3    H1 1026   2.405   2.919   0.967 -1.7830  1.9272  0.2156
  340TIP3    H2 1027   2.282   2.853   1.025  0.7505 -1.8748  1.6357
  341TIP3   OH2 1028   1.801   5.430   1.593 -0.0510 -0.1194  0.3382
  341TIP3    H1 1029   1.738   5.359   1.581 -1.5616  0.8720  1.9039
  341TIP3    H2 1030   1.770   5.476   1.671  1.5646  1.5420  0.0605
  342TIP3   OH2 1031   1.511   5.621   4.142  0.2631  0.6074 -0.4354
  342TIP3    H1 1032   1.607   5.624   4.146  0.3443 -0.0060 -1.7264
  342TIP3    H2 1033   1.484   5.612   4.234  1.4610  0.0403 -0.1231
  343TIP3   OH2 1034   5.456   1.787   3.827  0.1005  0.1344  0.0824
  343TIP3    H1 1035   5.471   1.822   3.739  1.3665 -0.0431  0.2020
  343TIP3    H2 1036   5.432   1.863   3.880 -0.1903  0.3183 -0.3165
  344TIP3   OH2 1037   4.011   4.997   1.880  0.4744  0.2422  1.2363
  344TIP3    H1 1038   3.986   4.995   1.972 -2.9087 -0.2035  0.4226
  344TIP3    H2 1039   4.023   4.905   1.856 -0.5829  0.2215  0.7764
  345TIP3   OH2 1040   3.384   0.631   5.076 -0.5442 -0.3357  0.9059
  345TIP3    H1 1041   3.291   0.609   5.083 -0.6419  0.4590  2.6832
  345TIP3    H2 1042   3.429   0.547   5.086 -1.0493 -0.8276 -0.6596
  346TIP3   OH2 1043   1.341   2.555   1.069 -0.2420 -0.3887  0.4678
  346TIP3    H1 1044   1.329   2.610   1.147 -1.9197  1.6125 -1.0630
  346TIP3    H2 1045   1.256   2.513   1.056 -0.8939  1.4135 -1.6987
  347TIP3   OH2 1046   3.489   2.645   3.823  0.3623  0.3600 -0.2925
  347TIP3    H1 1047   3.469   2.716   3.884  0.8924  2.0045 -1.9292
  347TIP3    H2 1048   3.546   2.586   3.873 -0.7494  0.6269  1.3742
  348TIP3   OH2 1049   0.001   2.866   0.590  0.2429  0.2196 -0.3773
  348TIP3    H1 1050  -0.046   2.942   0.623 -1.2553  0.6331 -3.1765
  348TIP3    H2 1051   0.083   2.902   0.556  0.3032  0.3033 -0.1467
  349TIP3   OH2 1052   1.939   5.806   3.067 -0.5998 -0.0725  0.1326
  349TIP3    H1 1053   1.882   5.804   3.144 -0.9570  0.1998 -0.1169
  349TIP3    H2 1054   2.011   5.748   3.089 -0.9113 -0.3254  0.5060
  350TIP3   OH2 1055   4.176   4.068   5.071  0.1894  0.6179  0.1726
  350TIP3    H1 1056   4.222   4.097   5.149 -2.4556 -0.7891  2.4160
  350TIP3    H2 1057   4.140   3.983   5.095  1.5004 -1.2238 -3.5638
  351TIP3   OH2 1058   6.292   2.319   3.066 -0.0241  0.0865  0.4275
  351TIP3    H1 1059   6.367   2.289   3.117  0.5643  1.4898  0.4388
  351TIP3    H2 1060   6.315   2.298   2.975  1.5071  2.5666  0.1498
  352TIP3   OH2 1061   5.951   5.182   3.028  0.6886  0.3756 -0.2683
  352TIP3    H1 1062   6.007   5.104   3.024  0.9640  0.4711  1.1772
  352TIP3    H2 1063   5.924   5.187   3.120 -2.0407  0.1306 -0.9967
  353TIP3   OH2 1064   1.020   5.770   0.429  0.1510 -0.0020 -0.2471
  353TIP3    H1 1065   0.995   5.861   0.416 -1.3108 -0.4418 -0.7538
  353TIP3    H2 1066   0.947   5.720   0.393  0.4687 -1.3721  0.9153
  354TIP3   OH2 1067   0.093   2.754   2.056 -0.0913  0.0922 -0.2141
  354TIP3    H1 1068   0.133   2.838   2.032  0.4932  0.0443  0.5528
  354TIP3    H2 1069   0.142   2.726   2.134 -0.5542 -0.7619 -0.2252
  355TIP3   OH2 1070   4.636   3.333   4.206 -0.4328 -0.4306  0.0709
  355TIP3    H1 1071   4.702   3.282   4.159 -1.5814 -0.0329 -2.0749
  355TIP3    H2 1072   4.563   3.272   4.216  0.1086 -0.8326  2.3405
  356TIP3   OH2 1073   6.027   4.989   2.027 -0.0652 -0.0340  0.0423
  356TIP3    H1 1074   6.020   5.019   2.118 -0.4602 -1.3106  0.4572
  356TIP3    H2 1075   5.999   5.064   1.975 -1.0620  0.3101  1.0319
  357TIP3   OH2 1076   1.295   2.170   1.924 -0.3997 -0.3299  0.2170
  357TIP3    H1 1077   1.297   2.104   1.854 -1.1547  0.1476 -0.2688
  357TIP3    H2 1078   1.209   2.159   1.964 -0.3203  0.0090  0.4787
  358TIP3   OH2 1079   4.871   2.600   3.115 -0.5492 -0.6773 -0.1839
  358TIP3    H1 1080   4.961   2.634   3.119  0.5283 -3.3959  0.6913
  358TIP3    H2 1081   4.862   2.569   3.025 -0.4660 -0.7778 -0.1577
  359TIP3   OH2 1082   1.599   5.300   2.278  0.1195 -0.2554  0.4845
  359TIP3    H1 1083   1.597   5.206   2.294  0.5530 -0.1361  1.2656
  359TIP3    H2 1084   1.691   5.319   2.261  0.3746  0.3418  2.3346
  360TIP3   OH2 1085   2.481   0.594   1.007 -0.6156 -0.7787  0.1583
  360TIP3    H1 1086   2.559   0.547   0.977 -0.9185 -1.8603  0.9763
  360TIP3    H2 1087   2.478   0.673   0.953  1.2063 -0.5641  0.2918
  361TIP3   OH2 1088   0.397   0.904   0.069 -0.0911  0.5707 -0.2625
  361TIP3    H1 1089   0.342   0.834   0.105  0.3285  0.6285  0.5325
  361TIP3    H2 1090   0.471   0.858   0.030  0.8176  0.5886  1.3601
  362TIP3   OH2 1091   4.440   3.397   0.738 -0.1335 -0.0787  0.0283
  362TIP3    H1 1092   4.442   3.490   0.715 -1.5009  0.6587  2.5034
  362TIP3    H2 1093   4.496   3.390   0.815  1.5468 -1.7434 -1.2669
  363TIP3   OH2 1094   3.626   1.084   1.052 -0.4252 -0.3397  0.0083
  363TIP3    H1 1095   3.716   1.080   1.019 -0.4230  1.2622 -0.2483
  363TIP3    H2 1096   3.573   1.044   0.983 -0.0039 -0.6070 -0.1686
  364TIP3   OH2 1097   4.306   5.406   3.538  0.1499 -0.4976 -0.1302
  364TIP3    H1 1098   4.344   5.489   3.567  0.4996 -0.9009  0.6047
  364TIP3    H2 1099   4.332   5.399   3.446  0.0021  0.2628 -0.2419
  365TIP3   OH2 1100   3.990   4.144   1.229  0.3928  0.2014  0.1710
  365TIP3    H1 1101   3.977   4.076   1.295  3.4660  0.1440  0.8340
  365TIP3    H2 1102   4.026   4.218   1.276 -1.9022  2.0397 -0.7264
  366TIP3   OH2 1103   1.852   2.205   2.218 -0.1421  0.0315  0.2956
  366TIP3    H1 1104   1.787   2.178   2.283 -0.8912  0.8706 -0.0926
  366TIP3    H2 1105   1.807   2.201   2.134 -0.1336  1.8703  0.1542
  367TIP3   OH2 1106   1.818   3.745   2.269  0.5144  0.3831  0.3506
  367TIP3    H1 1107   1.726   3.770   2.275  1.0064  2.4453  0.2348
  367TIP3    H2 1108   1.831   3.725   2.177  0.5185  1.7231  0.0334
  368TIP3   OH2 1109   6.278   1.581   0.978 -1.0487 -0.2948 -0.2235
  368TIP3    H1 1110   6.313   1.615   1.061 -0.7166  0.1278 -0.5362
  368TIP3    H2 1111   6.183   1.588   0.988 -1.0685 -1.3372  0.5830
  369TIP3   OH2 1112   6.097   5.329   3.890  0.4845 -0.1171  0.3434
  369TIP3    H1 1113   6.165   5.271   3.923  1.4573  1.2224  0.7719
  369TIP3    H2 1114   6.112   5.334   3.796  0.2156 -0.7618  0.2599
  370TIP3   OH2 1115   1.884   3.121   2.157 -0.1465 -0.7285  0.0887
  370TIP3    H1 1116   1.853   3.050   2.213 -0.6258  0.4172  1.3306
  370TIP3    H2 1117   1.977   3.130   2.179 -0.6138  0.5915  1.7693
  371TIP3   OH2 1118   4.497   4.958   4.225  0.2483  0.1820 -0.1084
  371TIP3    H1 1119   4.537   4.970   4.311 -1.4022  2.2906  0.4622
  371TIP3    H2 1120   4.488   5.047   4.191  0.6160 -0.5857 -2.3923
  372TIP3   OH2 1121   4.603   1.838   1.075 -0.4464 -0.3456  0.0205
  372TIP3    H1 1122   4.520   1.790   1.082 -1.8749  2.1459  1.5781
  372TIP3    H2 1123   4.628   1.828   0.983 -2.6638 -0.9015 -0.5955
  373TIP3   OH2 1124   5.751   2.910   1.654 -0.0312 -0.1559 -0.1891
  373TIP3    H1 1125   5.760   2.912   1.559  1.7546 -0.6921 -0.0660
  373TIP3    H2 1126   5.665   2.871   1.669 -0.5234  0.3314 -1.5722
  374TIP3   OH2 1127   6.096   2.360   2.601  0.4157  0.1804  0.2248
  374TIP3    H1 1128   6.135   2.273   2.586  2.3570  0.7525  1.4928
  374TIP3    H2 1129   6.090   2.399   2.514 -1.2134 -1.4670 -0.4692
  375TIP3   OH2 1130   3.097   0.578   0.835  0.2336  0.4859 -0.1040
  375TIP3    H1 1131   3.056   0.640   0.775 -1.8864  0.8254  1.6214
  375TIP3    H2 1132   3.076   0.492   0.798 -0.7130  0.6990 -0.0864
  376TIP3   OH2 1133   2.253   2.637   4.365  0.0523  0.2569 -0.0033
  376TIP3    H1 1134   2.257   2.703   4.434 -1.0966  0.0334  0.2898
  376TIP3    H2 1135   2.343   2.632   4.332  1.4789 -1.8816  3.5984
  377TIP3   OH2 1136   2.645   0.047   4.807 -0.1355 -0.0703  0.5416
  377TIP3    H1 1137   2.713   0.019   4.745  0.0489  1.6921 -0.1109
  377TIP3    H2 1138   2.577  -0.021   4.800  0.4814 -0.6034 -0.5855
  378TIP3   OH2 1139   1.782   3.167   4.734 -0.1529  0.1063  0.2626
  378TIP3    H1 1140   1.726   3.093   4.712 -0.8707  0.9743 -0.9188
  378TIP3    H2 1141   1.863   3.126   4.766 -0.3541 -1.2010 -0.7714
  379TIP3   OH2 1142   4.187   2.166   4.570  0.3449 -0.2279 -0.0772
  379TIP3    H1 1143   4.137   2.103   4.622  1.2486 -0.5511  0.4270
  379TIP3    H2 1144   4.127   2.238   4.556  0.1257 -0.0314  1.6307
  380TIP3   OH2 1145   0.738   2.748   2.339  0.5497  0.0374  0.1640
  380TIP3    H1 1146   0.712   2.657   2.330 -1.6011  0.7701 -2.5673
  380TIP3    H2 1147   0.693   2.779   2.417  0.7511 -1.0098  0.7205
  381TIP3   OH2 1148   5.498   2.851   2.297 -0.0409  0.0916  0.3908
  381TIP3    H1 1149   5.561   2.785   2.268 -0.5089 -0.1421 -0.1141
  381TIP3    H2 1150   5.468   2.819   2.382  1.1575  0.6543  1.0413
  382TIP3   OH2 1151   6.180   2.821   2.163 -0.5504 -0.3498 -0.2640
  382TIP3    H1 1152   6.259   2.799   2.114 -0.5748 -0.5937 -0.1975
  382TIP3    H2 1153   6.139   2.891   2.113 -1.2679 -1.4778 -1.3264
  383TIP3   OH2 1154   1.468   0.407   4.292  0.0597  0.3643 -0.3012
  383TIP3    H1 1155   1.480   0.483   4.348  0.9130 -1.0727  1.5490
  383TIP3    H2 1156   1.373   0.398   4.285 -0.0566  0.8987  0.4544
  384TIP3   OH2 1157   3.993   1.245   1.506 -0.5225 -0.2207  0.0650
  384TIP3    H1 1158   3.961   1.300   1.435 -1.5762 -0.9974 -0.0878
  384TIP3    H2 1159   3.932   1.171   1.509  0.6468 -1.2112  0.4908
  385TIP3   OH2 1160   5.972   2.653   3.098  0.1544 -0.5628  0.3450
  385TIP3    H1 1161   5.933   2.740   3.107  0.2621 -0.6179  1.3819
  385TIP3    H2 1162   5.965   2.634   3.004 -2.4431 -0.6253  0.4788
  386TIP3   OH2 1163   1.315   3.612   4.195  0.0219  0.2198 -0.3342
  386TIP3    H1 1164   1.361   3.667   4.259 -2.6500  0.1652  1.8479
  386TIP3    H2 1165   1.347   3.523   4.212  0.9629  0.4995 -0.6276
  387TIP3   OH2 1166   0.077   1.201   4.478 -0.3115 -0.6311 -0.4511
  387TIP3    H1 1167  -0.018   1.213   4.472 -0.4519 -1.1388  0.6339
  387TIP3    H2 1168   0.100   1.153   4.398 -1.1274 -1.4420 -0.2093
  388TIP3   OH2 1169   2.776   1.029   5.040 -0.5904 -0.4679  0.5570
  388TIP3    H1 1170   2.694   1.024   4.989 -0.2787 -1.1920  0.1059
  388TIP3    H2 1171   2.845   1.024   4.974 -0.1839 -0.3001  0.9719
  389TIP3   OH2 1172   0.562   0.076   4.765 -0.0715 -0.9222 -0.2581
  389TIP3    H1 1173   0.484   0.069   4.819 -0.7825  2.2245 -0.6864
  389TIP3    H2 1174   0.532   0.059   4.676  0.0809 -1.3187 -0.2349
  390TIP3   OH2 1175   2.746   5.265   0.222 -0.5921  0.7495  0.0473
  390TIP3    H1 1176   2.712   5.267   0.132  0.3139 -0.7570 -0.3578
  390TIP3    H2 1177   2.801   5.187   0.225  0.5802  1.5975  1.4989
  391TIP3   OH2 1178   5.584   0.215   2.431 -0.3007  0.0420 -0.4076
  391TIP3    H1 1179   5.671   0.255   2.432 -0.6894  0.9839 -1.8344
  391TIP3    H2 1180   5.595   0.134   2.480  2.1665 -1.4130 -3.0464
  392TIP3   OH2 1181   4.356   4.443   4.311 -0.5409 -0.0752 -0.3563
  392TIP3    H1 1182   4.402   4.459   4.229 -1.2125 -3.0601 -1.4450
  392TIP3    H2 1183   4.384   4.355   4.337 -1.1169  0.3960  2.1278
  393TIP3   OH2 1184   3.064   4.023   5.117 -0.2557 -0.4798  0.2109
  393TIP3    H1 1185   3.103   4.088   5.059 -0.4910 -0.1055  0.4737
  393TIP3    H2 1186   2.990   3.987   5.068  0.5378 -1.3600 -0.3857
  394TIP3   OH2 1187   6.006   2.924   0.761 -0.0473 -0.1751 -0.1964
  394TIP3    H1 1188   6.027   2.930   0.668  1.2995  0.4316  0.1268
  394TIP3    H2 1189   6.052   2.845   0.791 -0.1104 -0.1274  0.0332
  395TIP3   OH2 1190   5.533   0.595   3.621 -0.1139 -0.2303 -0.5542
  395TIP3    H1 1191   5.626   0.573   3.629 -0.2277 -0.4963  0.1135
  395TIP3    H2 1192   5.513   0.579   3.529  0.2136 -1.3503 -0.4507
  396TIP3   OH2 1193   1.228   1.899   0.496 -0.1253  0.3327  0.2183
  396TIP3    H1 1194   1.138   1.868   0.506 -0.9381  2.2986 -0.4140
  396TIP3    H2 1195   1.262   1.849   0.422 -1.3227  0.7678 -0.6722
  397TIP3   OH2 1196   6.084   3.638   3.502 -0.4543  0.0883  0.7493
  397TIP3    H1 1197   6.040   3.720   3.524 -0.1111  0.5050 -0.0570
  397TIP3    H2 1198   6.016   3.583   3.463 -0.3355  0.6562 -0.3109
  398TIP3   OH2 1199   5.397   2.656   4.756  0.1775 -0.0807 -0.6177
  398TIP3    H1 1200   5.332   2.661   4.685 -0.6950 -0.3829  0.1317
  398TIP3    H2 1201   5.354   2.603   4.823  1.1659 -0.1741 -0.0477
  399TIP3   OH2 1202   3.904   1.346   1.269 -0.2977  0.2747 -0.5187
  399TIP3    H1 1203   3.812   1.321   1.280 -0.8809  2.3871 -0.1504
  399TIP3    H2 1204   3.901   1.422   1.210  1.3749 -0.6151 -1.8326
  400TIP3   OH2 1205   1.085   3.109   0.460 -0.5592 -0.0895  0.0748
  400TIP3    H1 1206   1.175   3.084   0.444 -0.5004  0.8191 -1.2477
  400TIP3    H2 1207   1.052   3.045   0.523  1.0356 -0.3429  0.6903
  401TIP3   OH2 1208   3.508   3.671   1.330  0.3545 -0.3444  0.0269
  401TIP3    H1 1209   3.555   3.681   1.412  1.2536 -0.2134 -0.4920
  401TIP3    H2 1210   3.424   3.715   1.345  1.9008  3.0871 -0.2767
  402TIP3   OH2 1211   4.006   1.378   0.658 -0.5291  0.4109  0.8678
  402TIP3    H1 1212   4.065   1.304   0.668 -0.5110  0.5111  1.5674
  402TIP3    H2 1213   3.976   1.374   0.567 -1.2091 -0.9597  1.1279
  403TIP3   OH2 1214   2.529   2.110   4.943 -0.1674 -0.0808 -0.6754
  403TIP3    H1 1215   2.582   2.082   5.018  0.1891  0.7606 -0.6058
  403TIP3    H2 1216   2.589   2.106   4.869 -0.2076  0.1679 -0.7227
  404TIP3   OH2 1217   3.752   4.486   4.680 -0.1759  0.0708  0.2154
  404TIP3    H1 1218   3.807   4.490   4.601  0.1316  1.4182  0.4650
  404TIP3    H2 1219   3.788   4.413   4.731  0.1248 -0.3086 -0.5276
  405TIP3   OH2 1220   2.042   4.033   0.231 -0.1263 -0.3343  0.2891
  405TIP3    H1 1221   2.104   4.054   0.161  0.2643 -0.1102  0.6970
  405TIP3    H2 1222   2.000   3.952   0.202 -0.0946 -0.1463 -0.2857
  406TIP3   OH2 1223   2.430   5.654   2.017 -0.7639 -1.0024  0.4394
  406TIP3    H1 1224   2.427   5.591   1.945  0.9579  0.0904 -0.6657
  406TIP3    H2 1225   2.341   5.687   2.024 -1.0070 -1.2708 -1.0742
  407TIP3   OH2 1226   3.262   2.397   0.143 -0.4942  0.2105 -0.2348
  407TIP3    H1 1227   3.224   2.471   0.190 -0.4111  0.3256 -0.3477
  407TIP3    H2 1228   3.258   2.423   0.051 -0.5264  0.0458 -0.2808
  408TIP3   OH2 1229   1.857   2.901   2.721  0.2389  0.3791 -0.0421
  408TIP3    H1 1230   1.808   2.839   2.667  0.9995 -0.9977  0.7779
  408TIP3    H2 1231   1.892   2.847   2.792 -0.0896  1.9979  1.3876
  409TIP3   OH2 1232   5.492   1.486   0.844 -0.6732 -0.0746  0.1608
  409TIP3    H1 1233   5.582   1.455   0.854 -1.0138 -0.9568  0.5854
  409TIP3    H2 1234   5.444   1.443   0.914 -1.7253 -0.8063 -0.9560
  410TIP3   OH2 1235   5.332   5.697   2.992  0.2697  0.1581  0.0048
  410TIP3    H1 1236   5.392   5.699   3.066  0.0590  1.1951  0.1515
  410TIP3    H2 1237   5.300   5.606   2.990 -0.7650  0.4193  2.0183
  411TIP3   OH2 1238   0.005   4.791   1.307  0.0800  0.2184 -0.9659
  411TIP3    H1 1239   0.043   4.807   1.221  2.5346  0.5664  0.1066
  411TIP3    H2 1240   0.004   4.695   1.315  0.4541  0.2026 -1.1165
  412TIP3   OH2 1241   3.400   1.711   1.157  0.3750 -0.1613 -0.3668
  412TIP3    H1 1242   3.495   1.705   1.166  0.3429  1.0500  1.0259
  412TIP3    H2 1243   3.370   1.620   1.163  1.2710 -0.3839  1.7479
  413TIP3   OH2 1244   3.473   2.907   5.137  0.2291  0.4904 -0.1941
  413TIP3    H1 1245   3.434   2.938   5.219 -0.3104 -0.6956  0.0185
  413TIP3    H2 1246   3.442   2.969   5.071 -0.6104  0.5593  0.2556
  414TIP3   OH2 1247   1.565   1.143   0.378 -0.2593 -0.5886  0.1261
  414TIP3    H1 1248   1.573   1.053   0.410  0.7566 -0.4904  0.1784
  414TIP3    H2 1249   1.641   1.188   0.414  0.3571 -0.2138 -1.5734
  415TIP3   OH2 1250   1.866   1.697   3.688 -0.9291 -0.3220  0.4488
  415TIP3    H1 1251   1.798   1.729   3.628 -1.0351  0.2489  0.8621
  415TIP3    H2 1252   1.948   1.710   3.640 -0.4471  4.6671  2.0645
  416TIP3   OH2 1253   2.006   3.372   2.809  0.0135  0.0645  0.2830
  416TIP3    H1 1254   2.052   3.325   2.878 -0.8653 -1.2440  0.0092
  416TIP3    H2 1255   1.976   3.304   2.748  1.3758  1.2063 -1.8088
  417TIP3   OH2 1256   5.852   3.831   5.073  0.6710 -0.2257  0.0593
  417TIP3    H1 1257   5.796   3.868   5.141  1.1909  0.1138  0.3073
  417TIP3    H2 1258   5.917   3.779   5.121  0.2088 -1.1269 -0.2559
  418TIP3   OH2 1259   3.697   2.319   2.437  0.4876 -0.4514  0.4460
  418TIP3    H1 1260   3.766   2.379   2.408  0.6987 -0.9782 -0.1930
  418TIP3    H2 1261   3.624   2.335   2.378  0.2670 -0.2938  0.7594
  419TIP3   OH2 1262   0.833   5.971   1.223 -0.4631 -0.3645 -0.0681
  419TIP3    H1 1263   0.928   5.969   1.207  0.2699 -1.9394  3.4406
  419TIP3    H2 1264   0.801   5.892   1.179 -0.2585  0.3598 -1.5735
  420TIP3   OH2 1265   4.156   3.368   0.807 -0.0678 -0.7401 -0.1579
  420TIP3    H1 1266   4.245   3.400   0.793 -0.3672  0.5858  0.7478
  420TIP3    H2 1267   4.111   3.380   0.723  0.3372 -0.5073 -0.3385
  421TIP3   OH2 1268   5.156   4.272   2.626  0.0725 -0.0952  0.1724
  421TIP3    H1 1269   5.068   4.277   2.662 -0.3096 -1.9743 -0.3795
  421TIP3    H2 1270   5.172   4.359   2.589 -2.1491 -0.1138 -1.0382
  422TIP3   OH2 1271   0.258   0.714   0.209  0.7455 -0.5531 -0.6485
  422TIP3    H1 1272   0.347   0.680   0.224  1.3773  0.5404 -1.7385
  422TIP3    H2 1273   0.201   0.641   0.234  1.8490 -0.6704  1.7957
  423TIP3   OH2 1274   1.806   1.788   0.793 -0.0972 -0.0891  0.3352
  423TIP3    H1 1275   1.823   1.812   0.884 -0.6050 -0.5010  0.5424
  423TIP3    H2 1276   1.766   1.701   0.799 -0.3710 -0.0034 -0.2660
  424TIP3   OH2 1277   2.729   4.258   3.288 -0.0985  0.6119 -0.2621
  424TIP3    H1 1278   2.769   4.172   3.278 -0.1013  0.4355  1.0348
  424TIP3    H2 1279   2.750   4.305   3.207  1.5801  0.0721 -0.1785
  425TIP3   OH2 1280   1.683   4.914   0.219  0.2434 -0.3810  0.6980
  425TIP3    H1 1281   1.601   4.932   0.266 -0.1309 -1.0725  0.3168
  425TIP3    H2 1282   1.656   4.896   0.129  0.9476  0.8120  0.2283
  426TIP3   OH2 1283   0.733   5.923   4.118  0.0479  0.0277 -0.0593
  426TIP3    H1 1284   0.827   5.942   4.121  0.3098 -1.2175  0.9520
  426TIP3    H2 1285   0.691   6.001   4.152  0.4758  1.7232 -3.1211
  427TIP3   OH2 1286   1.240   1.164   0.335 -0.1317  0.5135 -0.2604
  427TIP3    H1 1287   1.168   1.103   0.318 -0.4546  0.3849  1.4544
  427TIP3    H2 1288   1.223   1.199   0.422  1.0976  1.6113 -0.4183
  428TIP3   OH2 1289   3.988   0.779   3.544  0.4971  0.0307 -0.2064
  428TIP3    H1 1290   4.011   0.777   3.451  1.8687  1.0666  0.0791
  428TIP3    H2 1291   3.981   0.872   3.565 -2.4104 -0.1527  0.1709
  429TIP3   OH2 1292   5.874   2.205   1.238 -0.2161  0.6581 -0.1357
  429TIP3    H1 1293   5.902   2.181   1.149  0.2002 -0.4811  0.2787
  429TIP3    H2 1294   5.940   2.165   1.295 -2.0095 -1.1015  0.8194
  430TIP3   OH2 1295   5.982   2.124   0.461 -0.1541  0.9950  0.4065
  430TIP3    H1 1296   6.027   2.082   0.535 -1.4947  0.8759  1.1923
  430TIP3    H2 1297   5.906   2.069   0.445  0.2365  0.9049 -1.2396
  431TIP3   OH2 1298   3.657   4.014   4.294  0.4023 -0.1876  0.5805
  431TIP3    H1 1299   3.751   4.009   4.311 -0.0416 -0.6604  3.3631
  431TIP3    H2 1300   3.638   4.107   4.286  1.1609 -0.1171 -0.5954
  432TIP3   OH2 1301   1.132   3.378   0.794  0.0982  0.1670  0.5399
  432TIP3    H1 1302   1.082   3.449   0.756 -0.2522 -0.8233 -0.9491
  432TIP3    H2 1303   1.072   3.336   0.855 -0.7478 -0.6291 -0.7720
  433TIP3   OH2 1304   6.155   5.626   1.537  0.5724 -0.9537 -0.2461
  433TIP3    H1 1305   6.166   5.670   1.621 -1.5873 -0.9278  0.0770
  433TIP3    H2 1306   6.221   5.666   1.481  0.8860  0.3025  0.9501
  434TIP3   OH2 1307   1.604   4.928   4.119 -0.2086  0.0792  0.0134
  434TIP3    H1 1308   1.591   4.837   4.145 -1.2051  0.0961 -0.3697
  434TIP3    H2 1309   1.613   4.926   4.024 -0.8656  0.4290 -0.0665
  435TIP3   OH2 1310   2.457   0.153   3.583  0.0180  0.1698  0.0131
  435TIP3    H1 1311   2.464   0.059   3.597 -0.1818 -0.0133 -0.9956
  435TIP3    H2 1312   2.529   0.191   3.633 -0.9932 -0.3426  1.9255
  436TIP3   OH2 1313   2.757   2.775   3.766  0.1113  0.3319  0.1809
  436TIP3    H1 1314   2.849   2.798   3.780  0.2220 -0.0937  0.1775
  436TIP3    H2 1315   2.760   2.702   3.705 -0.2040 -0.0455  0.6096
  437TIP3   OH2 1316   4.733   5.234   0.730  0.1961  0.0277  0.2709
  437TIP3    H1 1317   4.742   5.269   0.819  0.8465  4.1541 -1.2112
  437TIP3    H2 1318   4.802   5.277   0.680 -0.4977 -1.7211 -2.3893
  438TIP3   OH2 1319   0.923   3.414   5.141 -0.6614 -0.4829 -0.0041
  438TIP3    H1 1320   0.832   3.400   5.114 -0.5043 -0.1266 -0.7471
  438TIP3    H2 1321   0.917   3.449   5.230 -1.1502 -2.7423  0.9041
  439TIP3   OH2 1322   2.279   2.191   0.968 -0.3432 -0.6384  0.0340
  439TIP3    H1 1323   2.282   2.272   0.917 -0.1038  0.0584  1.1298
  439TIP3    H2 1324   2.208   2.205   1.031  0.1117 -1.0278  0.6424
  440TIP3   OH2 1325   3.685   2.962   4.976 -0.3013 -0.1902 -0.2406
  440TIP3    H1 1326   3.628   2.942   5.050 -1.2092  0.7175 -0.6610
  440TIP3    H2 1327   3.773   2.939   5.006 -0.8406 -1.3210  0.5410
  441TIP3   OH2 1328   3.030   4.770   2.189 -0.2673 -0.0041 -0.1977
  441TIP3    H1 1329   3.106   4.806   2.144 -0.5905 -0.4000 -1.0740
  441TIP3    H2 1330   3.045   4.676   2.192 -0.2275  0.0181  0.5841
  442TIP3   OH2 1331   3.067   4.444   1.866  0.4534  0.2378  0.2218
  442TIP3    H1 1332   3.145   4.456   1.920 -0.3594 -1.0274  1.7725
  442TIP3    H2 1333   3.046   4.351   1.873 -0.7038  0.3865 -0.8581
  443TIP3   OH2 1334   5.752   0.243   1.744  0.4694  0.9407 -0.5292
  443TIP3    H1 1335   5.766   0.326   1.790  2.3264  0.8459 -0.8281
  443TIP3    H2 1336   5.787   0.258   1.656  1.3020 -0.2808 -0.4407
  444TIP3   OH2 1337   3.739   2.783   1.309 -0.1246  0.3133 -0.0018
  444TIP3    H1 1338   3.712   2.753   1.396 -0.6835  0.2393 -0.1978
  444TIP3    H2 1339   3.719   2.710   1.250 -2.7273  1.4797 -0.6940
  445TIP3   OH2 1340   5.249   3.143   0.841 -0.0278  0.5123  0.1209
  445TIP3    H1 1341   5.220   3.055   0.866 -1.7318 -0.2901 -3.8399
  445TIP3    H2 1342   5.174   3.199   0.859  0.8182  1.1332  1.9937
  446TIP3   OH2 1343   0.800   0.196   0.228 -0.0587  0.2481  0.0659
  446TIP3    H1 1344   0.765   0.209   0.140  2.1966 -0.7485 -1.0533
  446TIP3    H2 1345   0.889   0.229   0.224  0.6358 -1.2978  1.4919
  447TIP3   OH2 1346   3.336   5.133   1.129 -0.0110  0.3759 -0.8710
  447TIP3    H1 1347   3.323   5.199   1.060  0.6399  1.3987 -0.0527
  447TIP3    H2 1348   3.299   5.053   1.093 -1.3904  1.3273 -1.6587
  448TIP3   OH2 1349   0.513   0.661   2.745  0.3176 -0.0249  0.0171
  448TIP3    H1 1350   0.587   0.621   2.699  0.8987 -1.3984  2.0111
  448TIP3    H2 1351   0.456   0.587   2.767  0.1046  0.5538  1.5344
  449TIP3   OH2 1352   0.458   5.657   2.848 -0.5694  0.2914  0.1134
  449TIP3    H1 1353   0.520   5.646   2.919  0.0107 -0.4311 -0.4936
  449TIP3    H2 1354   0.510   5.647   2.768 -0.9010  2.5622 -0.4767
  450TIP3   OH2 1355   0.303   4.303   3.316  0.0742 -0.5213  0.1131
  450TIP3    H1 1356   0.293   4.371   3.381 -0.3822 -0.4470 -0.0336
  450TIP3    H2 1357   0.393   4.312   3.285  0.9898 -1.8652  2.1910
  451TIP3   OH2 1358   4.879   4.224   3.647 -0.1075  0.0295 -0.0720
  451TIP3    H1 1359   4.890   4.167   3.723 -4.2045  0.5677  1.1816
  451TIP3    H2 1360   4.887   4.166   3.572 -1.7737 -1.7822  1.0647
  452TIP3   OH2 1361   5.728   4.278   0.502 -0.1052 -0.0095 -0.4557
  452TIP3    H1 1362   5.671   4.282   0.579 -0.7052 -0.9629 -0.8359
  452TIP3    H2 1363   5.761   4.188   0.502  0.9860  0.3771 -0.5452
  453TIP3   OH2 1364   2.433   2.500   4.186 -0.3075  0.0133 -0.0698
  453TIP3    H1 1365   2.465   2.424   4.137 -0.6706 -2.1602  2.8040
  453TIP3    H2 1366   2.349   2.522   4.145 -0.2804 -1.2467 -0.8546
  454TIP3   OH2 1367   6.028   4.702   2.909 -0.4100  0.1256  0.7319
  454TIP3    H1 1368   5.983   4.699   2.824 -1.0613  1.8173  0.9852
  454TIP3    H2 1369   6.114   4.663   2.891 -0.7109 -0.0016 -0.5847
  455TIP3   OH2 1370   1.742   0.059   2.534 -0.1754 -0.0380  0.0460
  455TIP3    H1 1371   1.661   0.055   2.484  1.2888 -3.1791 -2.3995
  455TIP3    H2 1372   1.749   0.151   2.561 -4.0835  0.5036 -0.2215
  456TIP3   OH2 1373   1.919   4.345   1.761 -0.1782  0.5066 -0.1071
  456TIP3    H1 1374   1.918   4.400   1.683 -2.1482 -1.1692 -1.3451
  456TIP3    H2 1375   1.833   4.304   1.763 -0.0238  0.0933  2.7092
  457TIP3   OH2 1376   6.124   0.754   4.705 -0.4095  0.3424  0.1305
  457TIP3    H1 1377   6.167   0.834   4.676 -0.4982  0.3687  0.0694
  457TIP3    H2 1378   6.170   0.729   4.785  1.2730 -0.9183 -1.1616
  458TIP3   OH2 1379   4.123   4.264   4.560  0.3462 -0.1962  0.3880
  458TIP3    H1 1380   4.140   4.174   4.532  1.9949  0.5384 -1.2062
  458TIP3    H2 1381   4.197   4.287   4.615  0.4425  0.4815 -0.0072
  459TIP3   OH2 1382   3.013   5.141   3.800 -0.1000  0.5343 -0.1238
  459TIP3    H1 1383   3.083   5.076   3.803 -1.1537 -0.6176  0.1872
  459TIP3    H2 1384   3.045   5.213   3.854  0.1743 -0.6827  1.4202
  460TIP3   OH2 1385   2.153   1.376   0.881 -0.0428 -0.2462 -0.2923
  460TIP3    H1 1386   2.131   1.376   0.974  1.6236 -2.5815  0.1671
  460TIP3    H2 1387   2.248   1.368   0.878 -0.1941 -2.6082 -2.1356
  461TIP3   OH2 1388   0.586   5.922   0.553  0.0791  0.1456 -0.1209
  461TIP3    H1 1389   0.666   5.884   0.589  1.5756  2.1698 -1.1601
  461TIP3    H2 1390   0.592   5.909   0.459 -0.0650  1.6269 -0.3575
  462TIP3   OH2 1391   0.447   2.131   4.241  0.3705 -0.0802 -0.1176
  462TIP3    H1 1392   0.525   2.079   4.223  0.8144  0.0907  1.2605
  462TIP3    H2 1393   0.424   2.110   4.331 -2.2900 -1.5674 -1.0263
  463TIP3   OH2 1394   1.719   4.438   1.358  0.3218 -0.1622  0.1467
  463TIP3    H1 1395   1.670   4.449   1.277  0.2060 -1.7866 -0.0434
  463TIP3    H2 1396   1.665   4.378   1.410  1.3516 -0.7253  0.5832
  464TIP3   OH2 1397   2.872   2.926   0.701  0.3267 -0.0800 -0.1581
  464TIP3    H1 1398   2.894   3.015   0.730  2.3130 -0.3074 -0.7824
  464TIP3    H2 1399   2.924   2.914   0.621 -0.2776 -1.6452 -0.3417
  465TIP3   OH2 1400   4.382   0.358   4.884  0.3720  0.5820 -0.1108
  465TIP3    H1 1401   4.306   0.375   4.829 -0.4883 -1.9101  0.2006
  465TIP3    H2 1402   4.346   0.339   4.971  1.3588 -0.3177  0.1203
  466TIP3   OH2 1403   4.694   2.445   3.234 -0.0597  0.3693  0.3636
  466TIP3    H1 1404   4.754   2.370   3.237  0.3820  0.7192  0.5625
  466TIP3    H2 1405   4.743   2.513   3.187 -0.7066  0.3218 -0.3840
  467TIP3   OH2 1406   0.621   0.360   4.624  0.1647 -0.4296  0.0662
  467TIP3    H1 1407   0.691   0.334   4.565  0.8145  0.6850  0.3118
  467TIP3    H2 1408   0.604   0.282   4.677 -1.4247 -1.9307 -2.4719
  468TIP3   OH2 1409   6.102   0.270   1.279  0.0646 -0.6620  0.2714
  468TIP3    H1 1410   6.098   0.233   1.191 -1.0974 -1.8511  0.7878
  468TIP3    H2 1411   6.080   0.197   1.337 -0.8776  0.4758  1.4244
  469TIP3   OH2 1412   3.447   5.922   2.518  0.0132 -0.0287  0.1833
  469TIP3    H1 1413   3.356   5.923   2.489  0.4491 -0.4994 -1.2721
  469TIP3    H2 1414   3.481   5.837   2.491  1.2069  0.5901 -0.3578
  470TIP3   OH2 1415   0.872   4.376   1.604 -0.1925 -0.3136 -0.2655
  470TIP3    H1 1416   0.816   4.435   1.655 -0.7434  0.4093 -1.6770
  470TIP3    H2 1417   0.825   4.293   1.605 -0.7598 -0.0017 -0.5290
  471TIP3   OH2 1418   1.990   4.520   3.360  0.3997 -0.1430  0.3574
  471TIP3    H1 1419   2.070   4.478   3.392  0.2431 -0.5071  0.2767
  471TIP3    H2 1420   1.981   4.598   3.414  0.8616 -0.0460  0.3037
  472TIP3   OH2 1421   6.371   1.963   2.764  0.3561  0.3205  0.1698
  472TIP3    H1 1422   6.341   2.046   2.801  2.1255  1.1650 -0.2031
  472TIP3    H2 1423   6.316   1.950   2.687 -0.4206  0.7669  0.6357
  473TIP3   OH2 1424   2.045   4.543   3.730 -0.4604 -0.4441  0.8660
  473TIP3    H1 1425   2.037   4.619   3.789 -3.4482 -1.1318  1.5324
  473TIP3    H2 1426   1.996   4.569   3.652  0.3442 -0.9266  0.1901
  474TIP3   OH2 1427   5.985   5.355   2.796 -0.5122 -0.3635 -0.5089
  474TIP3    H1 1428   6.055   5.414   2.824 -0.6970 -0.5584  0.3906
  474TIP3    H2 1429   5.962   5.307   2.875  1.9223 -4.1005 -1.8097
  475TIP3   OH2 1430   0.613   1.913   4.146  0.2169  0.1658  0.3171
  475TIP3    H1 1431   0.651   1.911   4.058  2.0961  1.1167  1.0493
  475TIP3    H2 1432   0.519   1.910   4.131  0.5056 -0.9058 -1.6704
  476TIP3   OH2 1433   5.698   2.924   1.130 -0.0755  0.2649  0.1595
  476TIP3    H1 1434   5.765   2.925   1.062 -0.0363 -0.3880  0.1802
  476TIP3    H2 1435   5.622   2.967   1.090 -0.4200 -1.0889 -0.6981
  477TIP3   OH2 1436   3.988   4.446   0.241 -0.1459  0.2899 -0.5034
  477TIP3    H1 1437   3.952   4.534   0.246 -1.6455 -0.3226  0.0107
  477TIP3    H2 1438   4.018   4.438   0.150  2.1200  2.0715 -0.0078
  478TIP3   OH2 1439   0.983   3.733   0.873  0.0068  0.2142 -0.2285
  478TIP3    H1 1440   0.975   3.814   0.823 -0.6064  0.2477 -0.0899
  478TIP3    H2 1441   0.954   3.664   0.813 -1.2248  0.3102  0.2156
  479TIP3   OH2 1442   5.515   0.077   2.957  0.1112  0.4179  0.2887
  479TIP3    H1 1443   5.510   0.023   3.036 -0.7905 -0.4940 -0.3618
  479TIP3    H2 1444   5.571   0.027   2.897  1.6972  1.6130  0.7006
  480TIP3   OH2 1445   4.696   0.398   0.701 -0.3983 -0.0566 -0.3244
  480TIP3    H1 1446   4.604   0.419   0.718 -0.5494 -2.1365  2.0412
  480TIP3    H2 1447   4.743   0.436   0.776  0.7109  0.8503 -1.4263
  481TIP3   OH2 1448   0.365   3.787   3.143  0.3226 -0.2234  0.2917
  481TIP3    H1 1449   0.449   3.833   3.146 -0.3609  1.1543 -0.5822
  481TIP3    H2 1450   0.323   3.819   3.063  0.1130 -2.9622 -0.8150
  482TIP3   OH2 1451   5.154   4.968   0.112  0.2756  0.9726  0.0480
  482TIP3    H1 1452   5.224   5.021   0.150  1.5284 -0.5504 -0.0392
  482TIP3    H2 1453   5.077   4.986   0.166  0.6575  2.8336  0.0267
  483TIP3   OH2 1454   3.920   5.719   2.035  0.0766 -0.1297  0.0363
  483TIP3    H1 1455   3.902   5.688   1.946 -0.2386  0.7478 -0.2174
  483TIP3    H2 1456   3.845   5.688   2.086  0.6654 -1.3617  0.1953
  484TIP3   OH2 1457   0.082   2.840   3.721  0.2858  0.4825  0.0726
  484TIP3    H1 1458   0.116   2.817   3.635  2.2248 -1.2512  1.2192
  484TIP3    H2 1459   0.033   2.762   3.749  2.6382 -0.4489  1.9136
  485TIP3   OH2 1460   3.588   2.083   4.271 -0.6617 -0.1727  0.1930
  485TIP3    H1 1461   3.598   2.017   4.202 -0.6478 -0.1876  0.2097
  485TIP3    H2 1462   3.677   2.101   4.301 -0.6418  0.0282  0.0236
  486TIP3   OH2 1463   5.619   3.477   4.213 -0.2860  0.1793 -0.1909
  486TIP3    H1 1464   5.609   3.541   4.143  0.5635  0.5459  0.0082
  486TIP3    H2 1465   5.540   3.424   4.209  0.2263 -0.5041 -2.1198
  487TIP3   OH2 1466   3.963   0.278   4.694  0.8445 -0.0461 -0.1284
  487TIP3    H1 1467   3.994   0.367   4.712 -1.3479  0.8730 -0.5699
  487TIP3    H2 1468   3.963   0.272   4.598 -0.5723  0.1118 -0.1597
  488TIP3   OH2 1469   5.345   1.436   0.598 -0.1007  0.3555  0.0317
  488TIP3    H1 1470   5.394   1.372   0.547 -0.2718  0.9925 -0.9642
  488TIP3    H2 1471   5.393   1.442   0.681 -0.6621 -1.7730  0.5522
  489TIP3   OH2 1472   0.041   2.833   1.696 -0.1819 -0.2015  0.4170
  489TIP3    H1 1473   0.094   2.807   1.771  1.8006 -0.1176 -0.8775
  489TIP3    H2 1474   0.075   2.919   1.672 -0.2993 -0.5226 -0.9824
  490TIP3   OH2 1475   5.036   2.946   2.039 -0.4919 -0.0925  0.2667
  490TIP3    H1 1476   5.120   2.934   1.996 -0.0496  1.2155  0.7187
  490TIP3    H2 1477   5.054   3.006   2.111 -1.5998 -0.6893  1.0630
  491TIP3   OH2 1478  -0.007   1.814   4.125 -0.4619  0.1952  0.7335
  491TIP3    H1 1479  -0.054   1.892   4.155  0.8275  0.9646  0.8107
  491TIP3    H2 1480   0.073   1.811   4.177  0.5172  0.0242 -0.7146
  492TIP3   OH2 1481   6.303   2.262   2.801 -0.2166  0.1224  0.3143
  492TIP3    H1 1482   6.215   2.270   2.764 -0.1768  0.5985  0.3085
  492TIP3    H2 1483   6.358   2.317   2.744  0.1528 -0.4601  0.1005
  493TIP3   OH2 1484   4.314   5.409   1.481 -0.1299  0.1859  0.1429
  493TIP3    H1 1485   4.374   5.480   1.505 -0.5473  0.6321 -0.1279
  493TIP3    H2 1486   4.264   5.392   1.561 -1.1536  1.3117 -0.2448
  494TIP3   OH2 1487   3.136   1.816   2.438  0.4672 -0.1495  0.4529
  494TIP3    H1 1488   3.091   1.830   2.354 -1.1464  0.0247  1.3151
  494TIP3    H2 1489   3.131   1.722   2.452 -0.7604 -0.0053  1.1244
  495TIP3   OH2 1490   2.206   4.391   2.919  0.2186  0.4096  0.6858
  495TIP3    H1 1491   2.166   4.473   2.891 -2.3459  0.2697  3.3704
  495TIP3    H2 1492   2.300   4.409   2.923  0.0222  2.2931 -1.4506
  496TIP3   OH2 1493   4.826   4.332   2.280 -0.0734  0.0183  0.2109
  496TIP3    H1 1494   4.800   4.285   2.359  1.4288 -1.4345 -0.0919
  496TIP3    H2 1495   4.889   4.274   2.238  1.2442  1.9696 -0.6504
  497TIP3   OH2 1496   4.576   3.110   3.194 -0.3585 -0.0164  0.2109
  497TIP3    H1 1497   4.569   3.072   3.281 -0.2866 -0.2007  0.1376
  497TIP3    H2 1498   4.488   3.143   3.174 -0.4839 -0.3761  0.1705
  498TIP3   OH2 1499   2.908   4.720   1.409  0.3676 -0.4566 -0.4704
  498TIP3    H1 1500   2.896   4.814   1.394  0.0477 -0.1069  1.6532
  498TIP3    H2 1501   2.934   4.685   1.323 -1.9267  1.1405 -1.9429
  499TIP3   OH2 1502   5.063   4.769   3.524  0.5530 -0.4490 -0.1611
  499TIP3    H1 1503   5.120   4.695   3.504 -1.6024 -2.5221  0.8328
  499TIP3    H2 1504   5.065   4.823   3.445  2.3535 -1.4197 -0.8487
  500TIP3   OH2 1505   0.612   3.685   0.188 -0.0373  0.5329  0.1388
  500TIP3    H1 1506   0.519   3.699   0.207 -0.2478  0.2279 -0.6492
  500TIP3    H2 1507   0.620   3.697   0.094  1.0609  2.3794  0.4275
  501TIP3   OH2 1508   0.279   5.750   4.494  0.0651 -0.3065  0.5576
  501TIP3    H1 1509   0.290   5.793   4.579 -0.2173  0.6396  0.1225
  501TIP3    H2 1510   0.360   5.700   4.481  0.9856  1.1597  0.4643
  502TIP3   OH2 1511   2.879   3.790   0.300  0.0934 -0.0100  0.1986
  502TIP3    H1 1512   2.841   3.860   0.352  0.1129  1.2407 -1.3638
  502TIP3    H2 1513   2.858   3.710   0.347 -0.1081  1.0207  1.9428
  503TIP3   OH2 1514   0.008   1.492   0.082  0.0740  0.7035 -0.5465
  503TIP3    H1 1515   0.073   1.513   0.015  1.1821  0.0822  0.2942
  503TIP3    H2 1516  -0.057   1.439   0.037  1.6871 -1.1723 -0.7992
  504TIP3   OH2 1517   3.049   4.145   1.877 -0.2097 -0.3292 -0.0082
  504TIP3    H1 1518   2.999   4.106   1.949 -0.0566  0.1236  0.3474
  504TIP3    H2 1519   3.088   4.071   1.831 -0.4630 -0.6305  0.2626
  505TIP3   OH2 1520   1.409   5.042   2.173 -0.6332 -0.5708 -0.4973
  505TIP3    H1 1521   1.404   5.071   2.264 -0.4723  2.2630 -1.2984
  505TIP3    H2 1522   1.318   5.023   2.149 -0.9381  0.5253 -0.2655
  506TIP3   OH2 1523   0.922   5.398   0.289 -0.0650  0.1134 -0.3881
  506TIP3    H1 1524   1.003   5.383   0.240  0.1525 -1.5536  0.4034
  506TIP3    H2 1525   0.945   5.378   0.380 -1.1802  0.3144 -0.0511
  507TIP3   OH2 1526   3.532   3.665   2.881  0.3633 -0.5921  0.6662
  507TIP3    H1 1527   3.594   3.606   2.838  0.4057 -1.0574  1.3406
  507TIP3    H2 1528   3.510   3.620   2.963 -0.8111 -0.4058  0.4799
  508TIP3   OH2 1529   6.037   2.358   1.031  0.3902 -0.1065 -0.0254
  508TIP3    H1 1530   6.084   2.302   1.093 -0.7661 -1.3358 -0.2223
  508TIP3    H2 1531   6.081   2.443   1.037  1.9640 -0.9273  0.5431
  509TIP3   OH2 1532   2.464   5.791   3.630 -0.1186 -0.7843 -0.4782
  509TIP3    H1 1533   2.376   5.828   3.632 -0.5681 -1.7990 -0.7964
  509TIP3    H2 1534   2.504   5.828   3.551 -0.1185 -0.0107 -0.1158
  510TIP3   OH2 1535   3.058   3.527   0.469 -0.2586 -0.0732 -0.4329
  510TIP3    H1 1536   3.074   3.599   0.529 -0.1183  0.3779 -1.0015
  510TIP3    H2 1537   2.962   3.525   0.459 -0.3098 -0.4156  0.1240
  511TIP3   OH2 1538   1.390   5.546   5.131  0.1000  0.1696  0.1141
  511TIP3    H1 1539   1.452   5.473   5.122 -0.0920  0.1032 -0.7086
  511TIP3    H2 1540   1.446   5.624   5.135  0.2649  0.0579  0.0156
  512TIP3   OH2 1541   0.322   1.587   5.106  0.6893  0.3512  0.8189
  512TIP3    H1 1542   0.398   1.633   5.141  1.0631 -1.3263  2.4020
  512TIP3    H2 1543   0.348   1.494   5.108 -0.8882 -0.1410  0.0264
  513TIP3   OH2 1544   2.215   5.109   1.914  0.2293  0.5661  0.0786
  513TIP3    H1 1545   2.213   5.015   1.932 -1.0100 -0.3047 -3.8033
  513TIP3    H2 1546   2.308   5.129   1.905  0.5131 -0.2534  0.9738
  514TIP3   OH2 1547   2.073   3.505   4.788  0.0761  0.2417  0.2796
  514TIP3    H1 1548   2.161   3.468   4.782 -0.1365 -0.2745  0.2942
  514TIP3    H2 1549   2.086   3.600   4.780  0.3765  0.0382 -2.6572
  515TIP3   OH2 1550   1.867   3.668   1.994 -0.1990  0.0573  0.2459
  515TIP3    H1 1551   1.956   3.637   1.979 -0.2069  0.2722 -0.2786
  515TIP3    H2 1552   1.812   3.609   1.943 -0.3532 -0.0511  0.5375
  516TIP3   OH2 1553   2.880   4.565   3.720 -0.1531  0.1893 -0.3353
  516TIP3    H1 1554   2.795   4.566   3.763  0.5336 -1.9579  1.2847
  516TIP3    H2 1555   2.902   4.472   3.712  1.3990  0.6419 -2.0618
  517TIP3   OH2 1556   3.192   1.993   2.877 -0.2990  0.3293 -0.0007
  517TIP3    H1 1557   3.235   1.962   2.956 -1.8325 -0.1556  0.6745
  517TIP3    H2 1558   3.149   1.916   2.840 -0.6306  0.7968 -0.6263
  518TIP3   OH2 1559   3.698   2.990   4.649  0.3147 -0.1517  0.1939
  518TIP3    H1 1560   3.654   3.063   4.607  1.2689  0.0394 -0.5185
  518TIP3    H2 1561   3.783   3.025   4.675 -0.6811  0.1003  3.4967
  519TIP3   OH2 1562   6.009   4.760   1.867  0.2424 -0.1443 -0.3110
  519TIP3    H1 1563   6.019   4.675   1.911 -0.5891 -0.2470 -0.2892
  519TIP3    H2 1564   6.023   4.825   1.935  1.0688 -0.2607 -0.3684
  520TIP3   OH2 1565   3.070   3.671   2.497 -0.5977  0.3756 -0.0121
  520TIP3    H1 1566   3.125   3.713   2.430 -0.5986 -1.4490 -1.2377
  520TIP3    H2 1567   3.081   3.577   2.481 -1.6863 -0.0880  1.7055
  521TIP3   OH2 1568   3.781   0.477   3.037 -0.0846 -0.2637 -0.5089
  521TIP3    H1 1569   3.876   0.479   3.049 -0.0426  1.0101 -0.9355
  521TIP3    H2 1570   3.745   0.483   3.125  0.2308 -0.4894 -0.3636
  522TIP3   OH2 1571   3.914   4.382   4.019 -0.9521  0.0071 -0.1163
  522TIP3    H1 1572   3.821   4.398   4.005 -1.1783 -0.9846  0.2157
  522TIP3    H2 1573   3.919   4.343   4.107 -0.2602 -0.2040 -0.2445
  523TIP3   OH2 1574   4.319   5.326   0.105  0.2664  0.3483 -0.3161
  523TIP3    H1 1575   4.291   5.273   0.031 -1.7699  0.1120  0.5689
  523TIP3    H2 1576   4.349   5.263   0.170  1.0349  0.5030 -0.5029
  524TIP3   OH2 1577   4.151   3.632   3.319 -0.3214 -0.4199 -0.2209
  524TIP3    H1 1578   4.186   3.569   3.383 -0.7057  0.2707  0.6877
  524TIP3    H2 1579   4.225   3.689   3.300 -0.6315  0.3866  0.8896
  525TIP3   OH2 1580   5.866   0.620   4.898  0.5447 -0.7127 -0.0446
  525TIP3    H1 1581   5.931   0.682   4.931 -0.6171 -0.5683  2.2218
  525TIP3    H2 1582   5.880   0.541   4.951 -0.4098 -1.0348 -0.2524
  526TIP3   OH2 1583   4.481   0.639   3.480 -0.2552 -0.5445  0.1053
  526TIP3    H1 1584   4.464   0.568   3.418  0.2210 -0.8076  0.2630
  526TIP3    H2 1585   4.571   0.623   3.510 -0.6536 -0.7286  1.2652
  527TIP3   OH2 1586   1.186   0.599   3.333 -0.1081  0.1667  0.1049
  527TIP3    H1 1587   1.125   0.642   3.393 -0.6542 -0.0907 -0.2607
  527TIP3    H2 1588   1.151   0.511   3.321  1.0785 -0.4649  0.9647
  528TIP3   OH2 1589   4.497   5.633   1.521  0.4920 -0.3731  0.0395
  528TIP3    H1 1590   4.592   5.638   1.533  0.3892 -0.5257  0.9360
  528TIP3    H2 1591   4.463   5.710   1.566  0.1664 -0.4451 -0.0773
  529TIP3   OH2 1592   0.398   1.061   4.944  0.2085  0.0576 -0.1464
  529TIP3    H1 1593   0.343   1.092   4.872 -1.4593 -1.6288  0.3123
  529TIP3    H2 1594   0.414   0.969   4.924  0.7299 -0.1243  1.0361
  530TIP3   OH2 1595   2.912   5.249   1.089  0.0105 -0.2044  0.1877
  530TIP3    H1 1596   2.955   5.259   1.174  2.6158  1.0014 -1.1333
  530TIP3    H2 1597   2.891   5.339   1.063 -1.5059 -0.6296 -0.1108
  531TIP3   OH2 1598   0.967   5.306   2.196  1.0891 -0.2159  0.0111
  531TIP3    H1 1599   0.963   5.369   2.124 -0.1739 -1.0449 -0.6934
  531TIP3    H2 1600   1.059   5.284   2.204  1.5636  1.7494  0.3202
  532TIP3   OH2 1601   4.305   1.188   5.116  0.3750 -0.2404  0.3624
  532TIP3    H1 1602   4.258   1.149   5.190  0.7403 -2.6105 -0.5544
  532TIP3    H2 1603   4.387   1.220   5.153  0.0392 -0.3082  1.1723
  533TIP3   OH2 1604   1.511   3.528   3.414  0.2470  0.2446 -0.2671
  533TIP3    H1 1605   1.455   3.604   3.398  1.3038  0.7727 -1.6208
  533TIP3    H2 1606   1.522   3.525   3.509 -3.1887 -0.7206  0.2488
  534TIP3   OH2 1607   1.822   4.936   1.459 -0.5163 -0.3852 -0.5965
  534TIP3    H1 1608   1.880   4.874   1.502 -1.1825 -0.6018 -0.0015
  534TIP3    H2 1609   1.829   4.915   1.366  0.5783 -0.2165 -0.5647
  535TIP3   OH2 1610   3.518   2.643   2.681 -0.4630 -0.6596 -0.1331
  535TIP3    H1 1611   3.536   2.646   2.587 -0.3066  0.0090 -0.0898
  535TIP3    H2 1612   3.492   2.733   2.703  2.2239 -0.0686  0.9729
  536TIP3   OH2 1613   3.972   5.323   2.161  0.3001 -0.4521  0.3825
  536TIP3    H1 1614   3.972   5.323   2.066 -0.3735 -2.3566  0.3404
  536TIP3    H2 1615   4.004   5.236   2.185  0.6802  0.0677  1.9120
  537TIP3   OH2 1616   5.995   2.387   3.843 -0.0627 -0.1165  0.4527
  537TIP3    H1 1617   5.967   2.433   3.763 -0.7388  2.4217  2.0444
  537TIP3    H2 1618   5.976   2.295   3.825 -2.9813  0.6869 -1.2233
  538TIP3   OH2 1619   2.523   5.276   2.835  0.1157  0.2316  0.3071
  538TIP3    H1 1620   2.478   5.280   2.750 -0.1829  1.0671  0.4891
  538TIP3    H2 1621   2.455   5.248   2.896  0.5698 -1.3297  0.1269
  539TIP3   OH2 1622   0.546   3.664   4.921 -0.5016  0.1621 -0.0030
  539TIP3    H1 1623   0.460   3.694   4.891 -0.5091 -0.4400 -0.6317
  539TIP3    H2 1624   0.573   3.602   4.853 -0.6701 -1.5316  1.4181
  540TIP3   OH2 1625   2.212   2.694   0.386  0.3755  0.8301  0.4706
  540TIP3    H1 1626   2.241   2.636   0.457 -1.2944  0.4359  0.8742
  540TIP3    H2 1627   2.187   2.634   0.315 -1.8586  0.9687  1.0782
  541TIP3   OH2 1628   5.479   2.376   1.337  0.0093  0.4569  0.4413
  541TIP3    H1 1629   5.511   2.287   1.353 -2.4364 -0.1965  2.2380
  541TIP3    H2 1630   5.412   2.365   1.269 -0.6903  0.8189  1.0628
  542TIP3   OH2 1631   0.469   3.966   2.880  0.4798 -0.0288  0.4300
  542TIP3    H1 1632   0.519   3.961   2.961  2.0825 -0.2769 -0.5221
  542TIP3    H2 1633   0.523   3.919   2.816  0.6751  2.5053 -1.4263
  543TIP3   OH2 1634   0.787   4.933   0.747 -0.5483  0.4119 -0.2505
  543TIP3    H1 1635   0.878   4.910   0.728 -0.5785 -0.5100  0.6800
  543TIP3    H2 1636   0.793   4.995   0.820 -0.6769  0.1068  0.0212
  544TIP3   OH2 1637   3.668   5.857   2.136 -0.7502 -0.1554  0.3643
  544TIP3    H1 1638   3.721   5.872   2.058 -0.6183 -1.5691  0.1595
  544TIP3    H2 1639   3.610   5.933   2.141  0.8133  1.0922  0.2080
  545TIP3   OH2 1640   1.398   1.198   3.242 -0.4499 -0.2148  0.4238
  545TIP3    H1 1641   1.476   1.144   3.258  0.2197  0.2350 -1.1978
  545TIP3    H2 1642   1.325   1.142   3.269  0.3308 -1.2450  0.4934
  546TIP3   OH2 1643   2.108   5.716   0.937 -0.2916 -0.0009  0.3675
  546TIP3    H1 1644   2.105   5.691   1.029 -0.2770  0.8358  0.6026
  546TIP3    H2 1645   2.018   5.702   0.905 -0.6053  0.8993  0.8385
  547TIP3   OH2 1646   3.520   4.994   2.120 -0.3001 -0.0530  0.3066
  547TIP3    H1 1647   3.492   5.073   2.168  1.3934  0.5515  0.3680
  547TIP3    H2 1648   3.603   5.019   2.081  0.1674 -1.7678  0.1600
  548TIP3   OH2 1649   0.514   5.023   4.083 -0.2353  0.3727 -0.3247
  548TIP3    H1 1650   0.443   4.990   4.138  1.3125 -0.2478  1.4317
  548TIP3    H2 1651   0.537   4.949   4.027  0.9213 -0.4671  1.1772
  549TIP3   OH2 1652   0.510   0.199   3.246 -0.1571  0.0998 -0.6993
  549TIP3    H1 1653   0.466   0.264   3.301  0.2095 -0.0998 -0.1610
  549TIP3    H2 1654   0.574   0.250   3.196 -0.7920  0.3471 -1.2658
  550TIP3   OH2 1655   4.656   3.654   3.960  0.4049  0.2530  0.2530
  550TIP3    H1 1656   4.568   3.627   3.986 -0.0254  2.0584  0.7867
  550TIP3    H2 1657   4.671   3.608   3.878 -0.6890 -0.7352  0.5704
  551TIP3   OH2 1658   0.777   5.174   2.548  0.2270  0.3842 -0.0861
  551TIP3    H1 1659   0.852   5.117   2.532  1.1024  1.4701  0.0419
  551TIP3    H2 1660   0.702   5.115   2.550  1.0802 -0.7307 -0.1603
  552TIP3   OH2 1661   0.551   2.742   1.481 -0.3428  0.3350 -0.2115
  552TIP3    H1 1662   0.584   2.811   1.538 -0.3741  0.3052 -0.1573
  552TIP3    H2 1663   0.462   2.768   1.460  0.2710  1.3196 -1.7782
  553TIP3   OH2 1664   1.006   0.941   1.955 -0.1038  0.0307  0.0128
  553TIP3    H1 1665   0.930   0.962   2.010  0.4111  1.1982  0.3040
  553TIP3    H2 1666   1.022   1.021   1.905 -0.1359 -0.7867 -1.3532
  554TIP3   OH2 1667   4.181   0.935   1.547  0.4462 -0.5371  0.0645
  554TIP3    H1 1668   4.158   0.847   1.518 -0.8267  0.0824 -0.8930
  554TIP3    H2 1669   4.215   0.978   1.468  0.8142 -0.0987  0.4601
  555TIP3   OH2 1670   0.555   0.565   4.001  0.0823 -0.3750  0.1243
  555TIP3    H1 1671   0.577   0.487   3.950  0.8301 -0.6259  0.8057
  555TIP3    H2 1672   0.552   0.534   4.091  0.8654  0.4718  0.4539
  556TIP3   OH2 1673   6.265   2.335   3.789  0.0800  0.1713 -0.0856
  556TIP3    H1 1674   6.184   2.350   3.838  0.0967  0.6527 -0.1938
  556TIP3    H2 1675   6.328   2.306   3.854  0.1861  1.0891  0.2379
  557TIP3   OH2 1676   4.620   1.029   4.100 -0.0767  0.2255  0.3449
  557TIP3    H1 1677   4.662   0.954   4.143  0.3318  0.3196  0.1068
  557TIP3    H2 1678   4.539   0.993   4.063  0.9967 -0.5325 -1.3838
  558TIP3   OH2 1679   1.011   4.385   2.001 -0.0943  0.4071 -0.1134
  558TIP3    H1 1680   0.941   4.326   1.973 -1.0404  0.9653  0.9441
  558TIP3    H2 1681   1.076   4.382   1.931 -1.3714  0.1695 -1.3244
  559TIP3   OH2 1682   3.037   1.318   4.161  0.7533  0.3933  0.1383
  559TIP3    H1 1683   3.040   1.404   4.202 -0.1896  0.9467 -0.9115
  559TIP3    H2 1684   3.053   1.335   4.068 -0.8412 -0.3692 -0.3068
  560TIP3   OH2 1685   5.652   0.699   2.648  0.3203  0.1636  0.1486
  560TIP3    H1 1686   5.653   0.719   2.554  1.7126  1.1150  0.3402
  560TIP3    H2 1687   5.595   0.623   2.655 -1.9834  1.6218 -1.1507
  561TIP3   OH2 1688   4.166   0.414   0.592 -0.4493  0.4708  0.3300
  561TIP3    H1 1689   4.240   0.353   0.589 -2.3762 -2.0493  0.5492
  561TIP3    H2 1690   4.187   0.481   0.527  0.6046 -1.9305 -1.9733
  562TIP3   OH2 1691   4.245   5.714   4.280  0.6859 -0.0243 -0.1851
  562TIP3    H1 1692   4.324   5.659   4.275 -0.3149 -1.5026 -0.3746
  562TIP3    H2 1693   4.175   5.653   4.304 -0.4105  1.2567 -0.0343
  563TIP3   OH2 1694   1.768   3.441   3.165 -0.1439 -0.0167 -0.0797
  563TIP3    H1 1695   1.761   3.452   3.070  1.5457 -1.2974 -0.4023
  563TIP3    H2 1696   1.794   3.349   3.176 -0.3178  0.1186  1.6221
  564TIP3   OH2 1697   3.888   5.499   1.525  0.1160  0.0596  0.1804
  564TIP3    H1 1698   3.830   5.500   1.602 -0.2773  1.3168 -0.1114
  564TIP3    H2 1699   3.830   5.477   1.452 -0.2271  2.1515 -0.2453
  565TIP3   OH2 1700   0.529   3.161   0.650  0.2228 -0.5321  0.3526
  565TIP3    H1 1701   0.556   3.184   0.739  0.0933  0.6171  0.1159
  565TIP3    H2 1702   0.499   3.244   0.612  1.4421 -0.7377 -1.1850
  566TIP3   OH2 1703   2.838   1.748   4.710 -0.0798 -0.2945  0.1054
  566TIP3    H1 1704   2.851   1.659   4.678 -1.3523 -0.3218 -0.3945
  566TIP3    H2 1705   2.926   1.781   4.727  0.7332 -0.2719 -3.4701
  567TIP3   OH2 1706   3.164   4.519   0.956 -0.2639 -0.0891  0.1460
  567TIP3    H1 1707   3.111   4.598   0.949 -0.1105  0.2786  2.4143
  567TIP3    H2 1708   3.214   4.516   0.874 -2.3020  0.5950 -1.1916
  568TIP3   OH2 1709   5.927   0.301   1.542  0.1773  0.4851  0.1034
  568TIP3    H1 1710   5.969   0.380   1.509 -0.3694  0.3192 -1.0207
  568TIP3    H2 1711   5.888   0.260   1.465  0.1522 -0.7041  0.7202
  569TIP3   OH2 1712   3.813   1.592   4.617 -0.2420  0.1191 -0.4484
  569TIP3    H1 1713   3.775   1.680   4.614 -2.3335 -0.5941  1.8971
  569TIP3    H2 1714   3.885   1.595   4.554 -0.5477  3.3420 -0.8088
  570TIP3   OH2 1715   4.094   1.880   3.284 -0.2364  0.4701  0.4962
  570TIP3    H1 1716   4.094   1.958   3.229  0.1212  0.6861  0.7924
  570TIP3    H2 1717   4.187   1.861   3.299 -0.3204  0.0521  0.5191
  571TIP3   OH2 1718   3.266   3.991   1.512 -0.2570 -0.1948 -0.5545
  571TIP3    H1 1719   3.261   3.967   1.605  2.6664 -1.4404 -0.6143
  571TIP3    H2 1720   3.245   4.084   1.510 -0.7044 -0.2183  1.3149
  572TIP3   OH2 1721   2.742   2.240   3.240 -0.0683 -0.5179  0.2629
  572TIP3    H1 1722   2.708   2.238   3.330  2.6811 -0.9152  1.3896
  572TIP3    H2 1723   2.734   2.150   3.209  3.6162 -1.6624  2.1236
  573TIP3   OH2 1724   3.647   2.492   0.144  0.8193  0.6683  0.7906
  573TIP3    H1 1725   3.677   2.421   0.201 -0.1075  1.4227  2.2663
  573TIP3    H2 1726   3.648   2.570   0.200 -1.8618  1.1137  0.3428
  574TIP3   OH2 1727   2.032   5.262   1.585  0.3499 -0.9923 -0.1642
  574TIP3    H1 1728   1.946   5.305   1.574 -0.0677 -1.5379  0.8722
  574TIP3    H2 1729   2.022   5.208   1.664  1.2232 -2.1271 -0.8034
  575TIP3   OH2 1730   4.189   3.748   0.529 -0.0972  0.4285 -0.3580
  575TIP3    H1 1731   4.136   3.711   0.599  0.3942  0.8475  0.2357
  575TIP3    H2 1732   4.274   3.706   0.538  0.4306  1.5878  0.2442
  576TIP3   OH2 1733   5.732   3.188   4.126 -0.6522  0.0193  0.5226
  576TIP3    H1 1734   5.686   3.255   4.177 -0.0651  1.1135 -0.3632
  576TIP3    H2 1735   5.663   3.141   4.080 -0.9767  0.8272  0.1821
  577TIP3   OH2 1736   1.206   1.010   3.275 -0.5042  0.3276 -0.5636
  577TIP3    H1 1737   1.271   0.940   3.280 -0.0532  0.7842  0.1381
  577TIP3    H2 1738   1.123   0.965   3.258 -0.1201 -0.3222 -0.7269
  578TIP3   OH2 1739   0.167   5.158   2.016 -0.3895  0.2675  0.0044
  578TIP3    H1 1740   0.227   5.166   2.091 -2.2967 -1.4266  1.8395
  578TIP3    H2 1741   0.186   5.072   1.979 -0.8082  0.2603 -0.2012
  579TIP3   OH2 1742   2.343   3.724   4.361  0.1861 -0.1466  0.3019
  579TIP3    H1 1743   2.285   3.648   4.358  1.1330 -0.8656 -0.7241
  579TIP3    H2 1744   2.345   3.757   4.271 -1.3720  2.0605  0.9692
  580TIP3   OH2 1745   1.667   5.284   0.424  0.8045 -0.3154 -0.3043
  580TIP3    H1 1746   1.589   5.333   0.451  1.6604  1.3763 -0.8023
  580TIP3    H2 1747   1.722   5.280   0.503  0.2168 -1.5997  0.0762
  581TIP3   OH2 1748   1.633   5.318   2.566  0.0792 -0.4239  0.1324
  581TIP3    H1 1749   1.612   5.309   2.473 -1.9539  0.8456  0.4142
  581TIP3    H2 1750   1.578   5.254   2.610 -0.3700  0.2791  0.6048
  582TIP3   OH2 1751   3.837   5.406   3.643 -0.1779 -0.0508 -0.4801
  582TIP3    H1 1752   3.830   5.471   3.713 -0.0378  0.3076 -0.7915
  582TIP3    H2 1753   3.925   5.371   3.651  0.0437  0.4078 -0.8286
  583TIP3   OH2 1754   0.343   1.452   4.557  0.1940 -0.3448  0.0239
  583TIP3    H1 1755   0.408   1.382   4.567 -0.6385 -1.2692 -0.8760
  583TIP3    H2 1756   0.321   1.476   4.647 -0.9114 -2.5931  0.4204
  584TIP3   OH2 1757   4.327   5.894   3.541 -0.2578  1.0043 -0.6782
  584TIP3    H1 1758   4.395   5.945   3.496  0.7475  0.4350  0.1530
  584TIP3    H2 1759   4.287   5.956   3.601 -0.1000  1.2143 -0.7886
  585TIP3   OH2 1760   3.799   5.094   2.092  0.3225  0.2556  0.0287
  585TIP3    H1 1761   3.729   5.151   2.061  0.9389  1.1369  0.2242
  585TIP3    H2 1762   3.824   5.131   2.177 -0.3395 -1.2428  0.9278
  586TIP3   OH2 1763   5.352   3.963   2.233  0.3763 -0.6408  0.2881
  586TIP3    H1 1764   5.442   3.995   2.226  0.0713 -0.0645 -1.4733
  586TIP3    H2 1765   5.321   3.998   2.316 -0.7445  6.0587 -2.3259
  587TIP3   OH2 1766   3.343   1.135   4.516 -0.5662  0.0592  0.3594
  587TIP3    H1 1767   3.424   1.143   4.568 -1.1678 -1.3670  1.5874
  587TIP3    H2 1768   3.281   1.193   4.561 -0.8580 -0.5634  0.7685
  588TIP3   OH2 1769   3.837   0.719   2.445  0.4446  0.0562  0.5953
  588TIP3    H1 1770   3.808   0.671   2.522 -0.4315 -2.2080 -1.0174
  588TIP3    H2 1771   3.760   0.770   2.417 -0.3712 -1.6918 -0.5633
  589TIP3   OH2 1772   3.861   3.180   1.647  0.1580 -0.5534 -0.2810
  589TIP3    H1 1773   3.892   3.091   1.665 -1.3114 -1.4092 -1.6862
  589TIP3    H2 1774   3.879   3.192   1.553 -2.1622 -0.4636 -0.7555
  590TIP3   OH2 1775   6.049   5.307   4.173  0.5763  0.1440 -0.2174
  590TIP3    H1 1776   6.004   5.380   4.215  0.8473  0.4227 -0.4174
  590TIP3    H2 1777   6.062   5.335   4.083  2.0338  0.4663  0.0790
  591TIP3   OH2 1778   5.427   1.996   2.003  0.1387 -0.1830  0.0098
  591TIP3    H1 1779   5.353   1.954   2.047 -0.7764 -1.1441 -2.2666
  591TIP3    H2 1780   5.405   2.089   2.000 -1.5073 -0.5679 -1.4500
  592TIP3   OH2 1781   1.521   5.097   1.052  0.0578  0.1933 -0.2773
  592TIP3    H1 1782   1.524   5.013   1.098 -0.0538  0.5565  0.4127
  592TIP3    H2 1783   1.497   5.075   0.962 -0.3360 -0.4781 -0.0123
  593TIP3   OH2 1784   1.728   4.076   3.262  0.2932  0.1829 -0.3987
  593TIP3    H1 1785   1.641   4.106   3.236 -1.0967 -2.0070  1.4320
  593TIP3    H2 1786   1.763   4.149   3.314  0.2125  1.6506 -2.2746
  594TIP3   OH2 1787   0.210   3.236   1.254  0.3508  0.0013  0.8888
  594TIP3    H1 1788   0.157   3.160   1.279  0.0261  0.4132  1.4854
  594TIP3    H2 1789   0.147   3.299   1.219  0.6669 -0.1425  0.0372
  595TIP3   OH2 1790   3.032   5.740   0.589  0.0843 -0.3800  0.0442
  595TIP3    H1 1791   3.027   5.824   0.545 -2.0442 -0.1978  0.5346
  595TIP3    H2 1792   3.110   5.745   0.643  1.0992  0.4924 -1.4506
  596TIP3   OH2 1793   5.308   1.920   1.745 -0.2628  0.2753 -0.5226
  596TIP3    H1 1794   5.379   1.946   1.803 -0.0252  0.3348 -0.8377
  596TIP3    H2 1795   5.229   1.928   1.799 -0.0752  0.6104 -0.2927
  597TIP3   OH2 1796   2.826   4.266   4.477 -0.0877  0.0458 -0.2946
  597TIP3    H1 1797   2.799   4.343   4.427 -0.5642 -0.1402 -0.3307
  597TIP3    H2 1798   2.772   4.195   4.443 -1.5866  0.2175  1.5314
  598TIP3   OH2 1799   1.697   3.051   1.211 -0.3120 -0.1596 -0.6131
  598TIP3    H1 1800   1.739   2.973   1.248  2.4212  0.8365 -1.3724
  598TIP3    H2 1801   1.630   3.075   1.274  0.5818 -1.5941  0.9653
  599TIP3   OH2 1802   0.564   1.681   1.059 -0.0896  0.3439 -0.1874
  599TIP3    H1 1803   0.493   1.644   1.006  0.5896 -0.6761 -0.4077
  599TIP3    H2 1804   0.609   1.605   1.096 -0.7521  1.0150  2.1831
  600TIP3   OH2 1805   2.440   3.455   2.528  0.3600 -0.0722 -0.2571
  600TIP3    H1 1806   2.453   3.451   2.433 -0.9149 -0.4455 -0.4342
  600TIP3    H2 1807   2.464   3.367   2.559  1.9757  0.4090 -0.0410
  601TIP3   OH2 1808   5.630   3.096   5.044  0.7287 -0.1649  0.5426
  601TIP3    H1 1809   5.558   3.033   5.050  0.0263  0.7665  3.3936
  601TIP3    H2 1810   5.694   3.065   5.108  2.0262  0.1012 -0.5819
  602TIP3   OH2 1811   0.633   1.999   2.932 -0.5397  0.0625 -0.5333
  602TIP3    H1 1812   0.698   2.033   2.871 -2.1225  1.4557 -1.5385
  602TIP3    H2 1813   0.617   1.909   2.903  1.2801 -0.4928  0.0735
  603TIP3   OH2 1814   3.816   2.358   0.903  0.5111 -0.0057 -0.0398
  603TIP3    H1 1815   3.754   2.327   0.969  1.7949 -0.2006  1.1224
  603TIP3    H2 1816   3.766   2.357   0.821 -1.8224  2.3608  1.2008
  604TIP3   OH2 1817   3.795   3.455   0.605  0.1303 -0.2171 -0.2274
  604TIP3    H1 1818   3.805   3.545   0.576  1.6294 -0.5272 -0.7580
  604TIP3    H2 1819   3.824   3.455   0.696  0.5327 -0.2335 -0.3534
  605TIP3   OH2 1820   5.736   1.410   0.923 -0.6687  0.4171 -0.6695
  605TIP3    H1 1821   5.823   1.375   0.901 -0.9516 -0.6440 -0.1695
  605TIP3    H2 1822   5.729   1.397   1.018 -1.1918  0.9355 -0.6317
  606TIP3   OH2 1823   3.139   4.058   4.605  0.2506  0.0432 -0.0108
  606TIP3    H1 1824   3.126   4.150   4.581 -1.0364 -0.8619 -3.3802
  606TIP3    H2 1825   3.053   4.026   4.630  0.3037 -0.6974 -0.7339
  607TIP3   OH2 1826   1.659   5.967   0.458 -0.2034 -0.6901  0.3905
  607TIP3    H1 1827   1.597   5.974   0.531 -0.3316 -0.4576  0.2644
  607TIP3    H2 1828   1.636   5.885   0.415 -0.1837 -0.7855  0.5623
  608TIP3   OH2 1829   0.924   0.492   4.682 -1.2363 -0.1505  0.3834
  608TIP3    H1 1830   1.018   0.477   4.692 -1.0715  0.3255 -0.3745
  608TIP3    H2 1831   0.898   0.437   4.608 -1.0384  1.5576 -1.0292
  609TIP3   OH2 1832   0.728   0.161   3.823  0.4554  0.2503 -1.2158
  609TIP3    H1 1833   0.798   0.100   3.845 -2.0149 -2.4200 -0.0207
  609TIP3    H2 1834   0.659   0.106   3.787 -2.3803  2.1147  0.9455
  610TIP3   OH2 1835   5.866   1.214   3.079  0.3381  0.4924 -0.0727
  610TIP3    H1 1836   5.922   1.262   3.017 -2.2871  2.4046 -1.1391
  610TIP3    H2 1837   5.825   1.146   3.027 -0.2586  0.7471  0.0547
  611TIP3   OH2 1838   0.318   2.675   4.426  0.0714 -0.0627  0.2953
  611TIP3    H1 1839   0.301   2.734   4.353  1.4005 -1.1511 -0.9569
  611TIP3    H2 1840   0.234   2.632   4.441 -0.9074  2.0286  1.2021
  612TIP3   OH2 1841   3.349   0.879   1.856 -0.1170 -1.0940 -0.0170
  612TIP3    H1 1842   3.255   0.861   1.859 -0.3058 -0.1785 -0.3515
  612TIP3    H2 1843   3.368   0.896   1.764 -0.4681  2.9562  0.4844
  613TIP3   OH2 1844   2.388   3.062   3.373 -0.2745 -0.4844 -0.5745
  613TIP3    H1 1845   2.476   3.094   3.355  0.5062 -1.9291  0.4450
  613TIP3    H2 1846   2.385   3.053   3.468 -1.7512  0.1018 -0.5337
  614TIP3   OH2 1847   1.872   5.333   2.198 -0.4766 -0.6204  0.2300
  614TIP3    H1 1848   1.935   5.310   2.130 -0.4702 -0.7209  0.2697
  614TIP3    H2 1849   1.882   5.264   2.264  0.9069  0.5448  1.2788
  615TIP3   OH2 1850   5.049   5.863   3.585  0.3109 -0.1142  0.0629
  615TIP3    H1 1851   5.079   5.858   3.676  0.2135 -1.1745  0.0527
  615TIP3    H2 1852   4.993   5.786   3.575  1.3667 -0.7393 -1.2729
  616TIP3   OH2 1853   2.577   5.298   1.174 -0.3984 -0.2483  0.5258
  616TIP3    H1 1854   2.612   5.387   1.180  1.8652 -1.1591  1.5479
  616TIP3    H2 1855   2.496   5.308   1.123 -0.8208  2.5401  1.5774
  617TIP3   OH2 1856   3.622   0.495   0.981  0.4702  0.6159  0.2827
  617TIP3    H1 1857   3.568   0.557   0.932 -0.4934 -1.6605 -1.7134
  617TIP3    H2 1858   3.711   0.507   0.948  0.2272  0.7028 -0.3377
  618TIP3   OH2 1859   4.895   1.159   2.922 -0.3030  0.2801  0.2176
  618TIP3    H1 1860   4.804   1.133   2.906 -0.6377  0.1686  2.0813
  618TIP3    H2 1861   4.934   1.163   2.835 -1.5881 -1.5067 -0.5182
  619TIP3   OH2 1862   2.932   2.576   2.232 -0.0231  0.3472  0.2946
  619TIP3    H1 1863   2.856   2.536   2.188  0.4529 -0.1970 -0.0458
  619TIP3    H2 1864   2.979   2.502   2.269 -0.2294  0.7715  1.4433
  620TIP3   OH2 1865   0.540   1.782   0.244  0.0525 -0.7819 -0.2267
  620TIP3    H1 1866   0.557   1.830   0.163 -2.0026  1.9044  0.7943
  620TIP3    H2 1867   0.448   1.801   0.264  0.3455 -1.8060  2.4704
  621TIP3   OH2 1868   1.693   1.739   3.233  0.8975 -0.2360 -0.0361
  621TIP3    H1 1869   1.698   1.783   3.318  0.6524 -0.1252 -0.0772
  621TIP3    H2 1870   1.600   1.742   3.211  0.5364 -2.5275  0.8728
  622TIP3   OH2 1871   5.599   4.842   2.043 -0.1709 -0.0210 -0.2609
  622TIP3    H1 1872   5.622   4.787   1.968 -1.0487 -0.4031 -0.2577
  622TIP3    H2 1873   5.529   4.795   2.088 -0.7090  0.9333 -0.0670
  623TIP3   OH2 1874   3.830   5.893   4.652  0.2623  0.1220 -0.7311
  623TIP3    H1 1875   3.859   5.848   4.572 -1.0025  0.2211 -1.2823
  623TIP3    H2 1876   3.906   5.942   4.681  1.0256 -0.6518 -1.3525
  624TIP3   OH2 1877   6.286   2.818   2.651  0.5494 -0.2464 -0.2509
  624TIP3    H1 1878   6.309   2.848   2.563  1.4053 -0.3419 -0.0587
  624TIP3    H2 1879   6.215   2.877   2.677  0.4683 -0.0460 -0.8988
  625TIP3   OH2 1880   2.076   2.108   1.157 -0.9003 -0.1356 -0.1007
  625TIP3    H1 1881   2.139   2.051   1.201 -1.9863 -0.1235  1.5573
  625TIP3    H2 1882   2.019   2.140   1.227 -1.4699  1.5245 -1.2400
  626TIP3   OH2 1883   5.595   4.898   0.514  0.3894 -0.8202  0.3803
  626TIP3    H1 1884   5.590   4.870   0.422 -0.4227 -2.4427  0.8870
  626TIP3    H2 1885   5.506   4.926   0.535  0.4236 -1.0455  0.8373
  627TIP3   OH2 1886   5.049   1.316   3.754 -0.6576 -0.0752  0.1175
  627TIP3    H1 1887   5.032   1.374   3.829  0.1897 -1.0302  1.0767
  627TIP3    H2 1888   4.964   1.307   3.711 -0.3885  4.2129 -1.8653
  628TIP3   OH2 1889   4.169   5.049   3.181  0.5354 -0.3058 -0.1479
  628TIP3    H1 1890   4.226   4.974   3.194  2.4476  1.3377  1.5955
  628TIP3    H2 1891   4.107   5.045   3.254  0.5834 -0.2548 -0.1037
  629TIP3   OH2 1892   0.865   1.113   0.797 -0.3876  0.0302  0.4497
  629TIP3    H1 1893   0.951   1.082   0.771 -0.4581 -0.4386  0.7633
  629TIP3    H2 1894   0.804   1.046   0.767 -0.6677  0.4617  0.0415
  630TIP3   OH2 1895   6.223   5.218   4.380 -0.3870 -0.9352 -0.1353
  630TIP3    H1 1896   6.162   5.235   4.308  0.6581 -0.7775 -1.0077
  630TIP3    H2 1897   6.292   5.283   4.370 -1.2420  0.4673  2.2707
  631TIP3   OH2 1898   4.188   0.412   2.914  0.5776 -0.3287  0.2876
  631TIP3    H1 1899   4.161   0.434   2.825  0.1616  0.5031  0.6111
  631TIP3    H2 1900   4.271   0.365   2.903  0.3493 -0.5470 -0.5554
  632TIP3   OH2 1901   3.567   2.644   3.549  0.1363  0.5277 -0.3304
  632TIP3    H1 1902   3.534   2.607   3.630  1.0631  0.1618 -0.0994
  632TIP3    H2 1903   3.520   2.598   3.480  0.0084  0.1757 -0.0106
  633TIP3   OH2 1904   1.777   0.214   4.514 -0.1786  0.2463  0.4496
  633TIP3    H1 1905   1.832   0.278   4.468  0.7797 -0.7614  0.1576
  633TIP3    H2 1906   1.718   0.268   4.568  1.7897  1.3752  1.5916
  634TIP3   OH2 1907   4.304   3.538   2.184  0.3425 -0.6979 -0.6189
  634TIP3    H1 1908   4.241   3.571   2.247  0.0500  0.1694 -1.3463
  634TIP3    H2 1909   4.379   3.511   2.237  0.0222 -0.1752  0.1116
  635TIP3   OH2 1910   5.273   5.713   4.596  0.0939 -0.5074 -0.0369
  635TIP3    H1 1911   5.255   5.807   4.590  0.7818 -0.3664  0.0138
  635TIP3    H2 1912   5.304   5.700   4.685 -3.0136 -1.3447  1.0393
  636TIP3   OH2 1913   3.344   3.458   1.426  0.3538 -0.3648 -0.1460
  636TIP3    H1 1914   3.293   3.539   1.423 -0.9594 -1.1499  0.3089
  636TIP3    H2 1915   3.398   3.462   1.347  0.8834  1.2919  0.2470
  637TIP3   OH2 1916   5.101   4.664   1.048 -0.3662 -0.1743  0.2376
  637TIP3    H1 1917   5.111   4.572   1.070 -2.0640 -0.4374  0.0086
  637TIP3    H2 1918   5.182   4.705   1.079 -0.8850 -1.1940  3.2543
  638TIP3   OH2 1919   1.044   1.133   1.777  0.0131 -0.4340  0.1002
  638TIP3    H1 1920   1.069   1.225   1.770  1.3001 -0.8540 -1.5086
  638TIP3    H2 1921   1.018   1.108   1.689  1.1009 -1.9692  0.1589
  639TIP3   OH2 1922   5.413   4.150   1.042 -0.1721  0.1253  0.7337
  639TIP3    H1 1923   5.497   4.146   1.089 -0.2403 -0.0962  0.8421
  639TIP3    H2 1924   5.348   4.141   1.111 -0.2718 -0.3388  0.5811
  640TIP3   OH2 1925   5.204   5.727   3.389  0.0481  0.1774  0.4869
  640TIP3    H1 1926   5.146   5.741   3.464  2.2558  0.5757  2.2119
  640TIP3    H2 1927   5.222   5.633   3.389 -0.8300 -0.0118 -0.2883
  641TIP3   OH2 1928   4.524   1.648   3.361  0.0267 -0.0882 -0.4210
  641TIP3    H1 1929   4.619   1.634   3.353 -0.1479 -0.9132 -1.0957
  641TIP3    H2 1930   4.487   1.612   3.280 -1.0688 -1.7077  0.7477
  642TIP3   OH2 1931   2.399   3.366   5.018 -0.5785  0.7095 -0.1382
  642TIP3    H1 1932   2.336   3.395   5.084 -1.3672  1.1988 -1.0765
  642TIP3    H2 1933   2.358   3.389   4.935  1.0530  1.4905 -0.7644
  643TIP3   OH2 1934   3.335   1.240   5.159 -0.5504  0.7293  0.2457
  643TIP3    H1 1935   3.381   1.244   5.243  0.2220  0.8458 -0.1729
  643TIP3    H2 1936   3.292   1.325   5.151 -0.0051  1.0027  0.1830
  644TIP3   OH2 1937   2.322   0.013   2.239 -0.6888  0.4686 -0.2431
  644TIP3    H1 1938   2.328   0.108   2.242  0.9217  0.5405 -2.5106
  644TIP3    H2 1939   2.250  -0.006   2.179  0.7134  0.3970 -2.0018
  645TIP3   OH2 1940   2.311   4.262   5.050 -0.2236 -0.1038 -0.2766
  645TIP3    H1 1941   2.237   4.221   5.095  0.6026 -1.4466 -0.0823
  645TIP3    H2 1942   2.326   4.344   5.098 -0.6037 -0.5638  0.6639
  646TIP3   OH2 1943   5.275   3.106   1.430  0.3071  0.1176 -1.0701
  646TIP3    H1 1944   5.347   3.066   1.381  0.3588  0.4378 -1.2621
  646TIP3    H2 1945   5.201   3.048   1.415  0.7675 -0.7535 -0.0572
  647TIP3   OH2 1946   2.489   5.671   4.965  0.5755  0.0308  0.4034
  647TIP3    H1 1947   2.407   5.621   4.964  0.1103  0.6221  2.5558
  647TIP3    H2 1948   2.482   5.731   4.891 -1.0823  0.2778  0.7308
  648TIP3   OH2 1949   1.964   3.013   4.895 -0.1902  0.0064  0.3765
  648TIP3    H1 1950   2.050   2.985   4.925 -0.3294 -0.6312  0.2076
  648TIP3    H2 1951   1.926   3.059   4.970  0.2120  0.1117  0.5194
  649TIP3   OH2 1952   1.796   1.180   3.437 -0.0960 -0.1430 -0.2021
  649TIP3    H1 1953   1.732   1.139   3.378  0.8863  0.0087 -1.4011
  649TIP3    H2 1954   1.768   1.152   3.524 -0.5867 -1.7862 -0.8380
  650TIP3   OH2 1955   1.972   1.395   1.656 -0.1696  0.1576  0.0880
  650TIP3    H1 1956   2.031   1.334   1.613 -0.9870 -0.3735 -0.3063
  650TIP3    H2 1957   1.970   1.472   1.600 -1.1050 -0.4682 -0.7659
  651TIP3   OH2 1958   2.730   2.153   2.884 -0.2874 -0.0093  0.0708
  651TIP3    H1 1959   2.713   2.102   2.963 -2.0753  0.8498  0.2792
  651TIP3    H2 1960   2.822   2.178   2.891 -0.7760  1.3744  2.6846
  652TIP3   OH2 1961   2.049   4.799   1.588  0.1927  0.0172  0.2259
  652TIP3    H1 1962   2.057   4.768   1.678  1.9817 -0.5724 -0.1043
  652TIP3    H2 1963   2.103   4.740   1.537 -1.2258  0.0080 -1.3502
  653TIP3   OH2 1964   1.637   3.337   2.268  0.6411 -0.2357  0.4821
  653TIP3    H1 1965   1.679   3.397   2.330 -0.1679  0.3097  0.5080
  653TIP3    H2 1966   1.580   3.282   2.322 -0.0126  0.1944  0.2436
  654TIP3   OH2 1967   3.198   5.780   2.423  0.0981  0.4313 -0.0916
  654TIP3    H1 1968   3.236   5.736   2.346 -0.5926 -0.0801 -0.1483
  654TIP3    H2 1969   3.154   5.858   2.387 -3.8739 -1.9159 -0.9039
  655TIP3   OH2 1970   3.598   4.760   3.987  0.1853 -0.0675 -0.2082
  655TIP3    H1 1971   3.556   4.680   4.017  0.0343  0.8117  2.0863
  655TIP3    H2 1972   3.547   4.785   3.909 -0.9270 -1.2000  0.1157
  656TIP3   OH2 1973   0.148   3.997   5.149  0.2848  0.6976 -0.0161
  656TIP3    H1 1974   0.082   3.939   5.188 -0.7683  0.5017 -1.9788
  656TIP3    H2 1975   0.112   4.020   5.064  2.5822  0.9046 -0.9971
  657TIP3   OH2 1976   5.081   4.076   4.409 -0.0810  0.5534 -0.4327
  657TIP3    H1 1977   4.988   4.060   4.424 -0.1515  1.3794  0.0697
  657TIP3    H2 1978   5.098   4.040   4.322 -0.3257 -1.6909  0.3751
  658TIP3   OH2 1979   1.336   0.720   4.653 -0.3913 -0.1032 -0.2566
  658TIP3    H1 1980   1.378   0.693   4.735  0.8189  2.2052 -0.0498
  658TIP3    H2 1981   1.244   0.734   4.676 -0.0990  0.3535  0.6635
  659TIP3   OH2 1982   1.207   4.535   4.317 -0.3716 -0.4549 -0.5633
  659TIP3    H1 1983   1.241   4.624   4.319 -0.4575 -0.3869 -1.5529
  659TIP3    H2 1984   1.114   4.544   4.337 -0.2962 -0.3773 -0.2362
  660TIP3   OH2 1985   0.924   3.273   1.337 -0.0890  0.0383 -0.2386
  660TIP3    H1 1986   0.924   3.336   1.265  3.0396 -0.4080 -0.7765
  660TIP3    H2 1987   0.926   3.328   1.416 -0.1427  0.5818 -0.6072
  661TIP3   OH2 1988   0.927   5.316   4.609 -0.0648 -0.2112 -0.3537
  661TIP3    H1 1989   0.833   5.307   4.597 -0.1696 -1.3116  1.0230
  661TIP3    H2 1990   0.958   5.227   4.623  1.0090  0.2529  0.3279
  662TIP3   OH2 1991   6.282   0.306   0.933 -0.2315  0.0146 -0.9288
  662TIP3    H1 1992   6.328   0.268   1.008  2.0098 -0.4770 -2.4755
  662TIP3    H2 1993   6.318   0.394   0.924 -1.6846  0.6843 -0.4787
  663TIP3   OH2 1994   2.941   4.283   3.596 -0.0501  0.2422 -0.8291
  663TIP3    H1 1995   2.935   4.198   3.552  0.4731  0.0602 -0.5632
  663TIP3    H2 1996   2.985   4.340   3.532  1.4527 -0.2377 -0.2709
  664TIP3   OH2 1997   1.963   5.219   2.437 -0.7001  0.2631  0.5671
  664TIP3    H1 1998   1.933   5.158   2.504 -1.5370 -3.0191 -2.4779
  664TIP3    H2 1999   2.043   5.180   2.403 -0.0619  2.0578 -0.1303
  665TIP3   OH2 2000   5.769   1.970   5.153 -0.3951 -0.0596  0.1710
  665TIP3    H1 2001   5.743   1.916   5.078  1.2909 -2.5327  1.2454
  665TIP3    H2 2002   5.689   1.981   5.203 -0.9075 -1.1063 -0.3782
  666TIP3   OH2 2003   3.333   3.446   3.498 -0.5853  0.0550 -0.2432
  666TIP3    H1 2004   3.288   3.375   3.545  2.2741  0.0639  2.8853
  666TIP3    H2 2005   3.323   3.424   3.406 -0.1039 -4.3581  0.5479
  667TIP3   OH2 2006   4.578   5.687   2.155 -0.0992  0.2185 -0.1054
  667TIP3    H1 2007   4.634   5.764   2.148  2.0012 -1.3038 -0.9728
  667TIP3    H2 2008   4.490   5.723   2.169  0.8193  2.7386 -0.2640
  668TIP3   OH2 2009   1.587   5.640   4.459 -0.4560  0.0749  0.4979
  668TIP3    H1 2010   1.604   5.622   4.552  0.6937 -0.7288  0.1518
  668TIP3    H2 2011   1.659   5.695   4.432 -0.4421 -0.2161 -0.0741
  669TIP3   OH2 2012   5.068   1.950   1.411  0.1080 -0.2828 -0.4357
  669TIP3    H1 2013   4.982   1.918   1.437  0.4390 -1.1661 -0.3845
  669TIP3    H2 2014   5.054   2.043   1.390 -0.6656 -0.1849  0.4355
  670TIP3   OH2 2015   4.818   1.189   3.442 -0.0420  0.2693 -0.1387
  670TIP3    H1 2016   4.838   1.134   3.518  0.3509  1.3097  0.5358
  670TIP3    H2 2017   4.855   1.141   3.367  0.2116 -0.4244  0.4215
  671TIP3   OH2 2018   4.376   5.642   2.450  0.3057  0.0645  0.8067
  671TIP3    H1 2019   4.406   5.730   2.424  0.6214 -0.5824 -1.1921
  671TIP3    H2 2020   4.288   5.636   2.413  0.1594 -0.3543  1.2234
  672TIP3   OH2 2021   1.623   0.260   3.618  0.4584  0.4624 -0.0523
  672TIP3    H1 2022   1.537   0.222   3.600 -0.2724  1.9577  0.1638
  672TIP3    H2 2023   1.681   0.184   3.627 -1.1873 -0.6948  1.6631
  673TIP3   OH2 2024   0.132   5.694   1.914  0.5710 -1.0889  0.5601
  673TIP3    H1 2025   0.159   5.699   1.823 -1.2696 -0.8955 -0.0069
  673TIP3    H2 2026   0.112   5.784   1.939 -0.6466 -1.3480  0.5804
  674TIP3   OH2 2027   3.521   4.144   3.951 -0.6785 -0.5109 -0.0937
  674TIP3    H1 2028   3.512   4.124   3.858  2.3097 -0.1092 -0.5817
  674TIP3    H2 2029   3.579   4.075   3.985 -0.5484  0.1732  1.1447
  675TIP3   OH2 2030   4.887   1.786   4.231 -0.3641  0.0446 -0.0859
  675TIP3    H1 2031   4.963   1.728   4.242 -0.1640  0.5661  1.5651
  675TIP3    H2 2032   4.881   1.833   4.314 -0.2872  2.6717 -1.4694
  676TIP3   OH2 2033   0.386  -0.002   2.171 -0.1486 -0.2798  0.1824
  676TIP3    H1 2034   0.326   0.050   2.117 -0.2276 -1.1322 -0.5736
  676TIP3    H2 2035   0.451   0.061   2.201 -0.7983  0.4467  0.1093
  677TIP3   OH2 2036   4.760   2.099   2.577  0.1771 -0.3318  0.8085
  677TIP3    H1 2037   4.829   2.158   2.608 -0.5924  1.0083  0.0360
  677TIP3    H2 2038   4.778   2.087   2.484  0.9371 -2.2192  1.1485
  678TIP3   OH2 2039   6.066   0.457   5.051  0.6751  0.0108 -0.4126
  678TIP3    H1 2040   6.076   0.381   5.109  0.4305  0.4611  0.2300
  678TIP3    H2 2041   6.125   0.439   4.978  0.1949 -1.0621 -0.5539
  679TIP3   OH2 2042   2.761   0.797   1.619  0.2468 -0.5783  0.1103
  679TIP3    H1 2043   2.818   0.734   1.574  1.5423  0.8419 -0.3386
  679TIP3    H2 2044   2.813   0.877   1.622 -1.1030  0.2890  1.2470
  680TIP3   OH2 2045   0.047   1.297   1.418 -0.5023 -0.1690  0.0197
  680TIP3    H1 2046   0.048   1.219   1.474 -0.2713  0.1056  0.4101
  680TIP3    H2 2047   0.087   1.365   1.473  0.5055 -0.0974 -0.7840
  681TIP3   OH2 2048   4.068   0.387   5.101 -0.2971 -0.3089 -0.0111
  681TIP3    H1 2049   4.102   0.417   5.185 -0.3247 -1.7890  0.5555
  681TIP3    H2 2050   4.024   0.463   5.064  1.4205  0.9454  0.3935
  682TIP3   OH2 2051   3.673   1.156   0.750 -0.3117  0.3225  0.3421
  682TIP3    H1 2052   3.691   1.124   0.662  0.1170  0.5243  0.3533
  682TIP3    H2 2053   3.745   1.122   0.804 -0.9478 -0.4024  0.7664
  683TIP3   OH2 2054   1.394   2.513   3.896 -0.4330 -0.1151  0.3082
  683TIP3    H1 2055   1.459   2.463   3.944  0.5530  0.5252 -0.3372
  683TIP3    H2 2056   1.427   2.602   3.895 -1.8810  0.4668  0.9346
  684TIP3   OH2 2057   1.402   5.053   4.577  0.3933  0.4305 -0.3063
  684TIP3    H1 2058   1.378   5.122   4.516 -1.3247  1.2842  1.2532
  684TIP3    H2 2059   1.494   5.071   4.598  0.0771  2.0463 -0.1990
  685TIP3   OH2 2060   0.236   3.578   1.617  0.3009  0.4225 -0.5773
  685TIP3    H1 2061   0.158   3.609   1.663  1.0164  1.2374  0.1295
  685TIP3    H2 2062   0.308   3.603   1.674  1.1370  0.4611 -1.6235
  686TIP3   OH2 2063   5.763   4.681   3.983  0.1245  0.1802  0.0612
  686TIP3    H1 2064   5.768   4.668   4.078  1.0517 -2.2303 -0.2609
  686TIP3    H2 2065   5.711   4.607   3.952  0.6488  0.4131 -1.4124
  687TIP3   OH2 2066   1.767   2.659   1.257 -0.1251 -0.4427  0.3491
  687TIP3    H1 2067   1.857   2.685   1.277  0.7841 -1.2006 -2.3696
  687TIP3    H2 2068   1.771   2.621   1.170 -3.2480  0.2099 -0.2121
  688TIP3   OH2 2069   5.562   0.741   4.732  0.3955 -0.0320  0.4930
  688TIP3    H1 2070   5.580   0.774   4.820 -0.2392  1.0087  0.2546
  688TIP3    H2 2071   5.643   0.757   4.684 -0.1512  2.0395  0.1583
  689TIP3   OH2 2072   0.386   3.040   2.352 -0.1637  0.8272 -0.6352
  689TIP3    H1 2073   0.415   3.131   2.355  0.7347  0.7408 -3.5456
  689TIP3    H2 2074   0.422   3.006   2.270 -0.0343 -2.3354  0.6116
  690TIP3   OH2 2075   1.360   0.181   3.650  0.6227 -0.2741 -0.8873
  690TIP3    H1 2076   1.281   0.211   3.606  0.3917  1.1069  0.3755
  690TIP3    H2 2077   1.342   0.089   3.673 -1.7065  0.6608  1.5747
  691TIP3   OH2 2078   1.365   5.958   1.444 -0.3275 -0.0614 -0.1324
  691TIP3    H1 2079   1.397   6.037   1.401  1.5423 -0.8945 -0.3493
  691TIP3    H2 2080   1.276   5.947   1.410  0.2141  0.6609 -1.9075
  692TIP3   OH2 2081   2.656   5.039   4.674 -0.0164  0.0594 -0.1736
  692TIP3    H1 2082   2.662   5.070   4.764  0.5680 -2.3685  0.6979
  692TIP3    H2 2083   2.574   4.990   4.670 -0.8111  1.3885 -1.4468
  693TIP3   OH2 2084   2.656   0.514   2.276  0.0170 -0.0009 -0.0062
  693TIP3    H1 2085   2.581   0.485   2.224 -0.6477  0.8438  0.4589
  693TIP3    H2 2086   2.732   0.497   2.221 -0.5366 -0.6064 -0.5985
  694TIP3   OH2 2087   4.517   2.795   3.253  0.3838  0.4991 -0.1462
  694TIP3    H1 2088   4.494   2.845   3.175 -0.8274  0.1018 -0.0729
  694TIP3    H2 2089   4.496   2.853   3.326 -0.4785  0.1291 -0.0787
  695TIP3   OH2 2090   4.707   2.096   4.749 -0.4543 -0.1614  0.1637
  695TIP3    H1 2091   4.760   2.016   4.743 -1.3349 -0.8750  1.3931
  695TIP3    H2 2092   4.625   2.067   4.787 -1.7638  0.9181 -1.6920
  696TIP3   OH2 2093   1.163   1.968   3.252 -0.1280  0.0078  0.5132
  696TIP3    H1 2094   1.207   2.035   3.199 -0.5735 -0.4547 -0.4737
  696TIP3    H2 2095   1.129   2.016   3.328 -1.1597  1.0810 -0.5777
  697TIP3   OH2 2096   2.305   3.564   3.687 -0.2472 -0.0039 -0.0535
  697TIP3    H1 2097   2.301   3.558   3.782  1.5214 -2.5057 -0.0179
  697TIP3    H2 2098   2.342   3.650   3.670  0.3774  0.0928  1.5838
  698TIP3   OH2 2099   4.456   4.458   2.330  0.1811 -0.5092 -0.5068
  698TIP3    H1 2100   4.497   4.372   2.325 -0.2628 -0.9204  1.7331
  698TIP3    H2 2101   4.524   4.519   2.300  0.8127 -1.5383 -1.2361
  699TIP3   OH2 2102   1.372   4.062   2.395 -0.0082 -0.2125  0.3581
  699TIP3    H1 2103   1.397   4.111   2.317 -0.4290 -1.0317 -0.3115
  699TIP3    H2 2104   1.370   3.970   2.366 -1.3816 -0.4112  1.0146
  700TIP3   OH2 2105   4.463   4.804   4.006 -0.1460 -0.3611  0.3549
  700TIP3    H1 2106   4.478   4.838   4.095 -1.3987  1.0204  0.0977
  700TIP3    H2 2107   4.370   4.821   3.990  0.4650  1.3524 -1.9678
  701TIP3   OH2 2108   1.410   1.264   3.551 -0.0828  0.3504  0.0516
  701TIP3    H1 2109   1.440   1.179   3.585  0.5449  0.4853 -0.1533
  701TIP3    H2 2110   1.485   1.322   3.565 -0.6836  0.9918  0.6435
  702TIP3   OH2 2111   0.315   2.519   3.079 -0.7328 -0.0582 -0.0459
  702TIP3    H1 2112   0.270   2.459   3.138  0.9254 -0.9141  0.3914
  702TIP3    H2 2113   0.408   2.508   3.099 -0.2697  1.2567 -1.2924
  703TIP3   OH2 2114   0.414   3.919   1.132  0.0843  0.2218  0.0951
  703TIP3    H1 2115   0.382   3.943   1.218 -0.4103 -1.4531  0.4045
  703TIP3    H2 2116   0.347   3.950   1.071  0.6337  1.7827  0.2460
  704TIP3   OH2 2117   1.930   1.239   1.362  0.0499  0.2409 -0.1935
  704TIP3    H1 2118   1.843   1.234   1.401 -0.2857 -0.5745 -1.0066
  704TIP3    H2 2119   1.979   1.167   1.402  0.2827  0.5420  0.0737
  705TIP3   OH2 2120   4.501   0.052   2.182 -0.1787 -0.0957 -0.2270
  705TIP3    H1 2121   4.577   0.111   2.183  0.4718 -0.7847 -2.4542
  705TIP3    H2 2122   4.433   0.100   2.229  1.2522  1.0893  0.7348
  706TIP3   OH2 2123   1.484   1.417   4.901  0.1862 -0.0053 -0.3355
  706TIP3    H1 2124   1.392   1.428   4.878  0.0326 -0.7974 -0.1314
  706TIP3    H2 2125   1.495   1.468   4.981 -0.0343  0.2324 -0.4568
  707TIP3   OH2 2126   3.536   1.818   0.212  0.1824 -0.1985  0.2723
  707TIP3    H1 2127   3.595   1.782   0.147 -0.3407  0.9848 -0.8847
  707TIP3    H2 2128   3.448   1.797   0.179 -0.1319  1.8226 -0.2800
  708TIP3   OH2 2129   0.134   2.708   0.798  0.1034 -0.3908 -0.1578
  708TIP3    H1 2130   0.098   2.787   0.759  1.0806  0.2509  0.1971
  708TIP3    H2 2131   0.083   2.637   0.760  0.2532  0.2899 -1.7219
  709TIP3   OH2 2132   4.493   0.054   4.300 -0.0325  0.0252 -0.3664
  709TIP3    H1 2133   4.528   0.078   4.215  0.9312 -1.3856 -0.4118
  709TIP3    H2 2134   4.565   0.072   4.361  0.1071 -1.0895 -0.1861
  710TIP3   OH2 2135   6.232   1.018   2.457 -0.5442  0.4352  0.7594
  710TIP3    H1 2136   6.171   1.053   2.522 -0.2030  1.1439  0.7153
  710TIP3    H2 2137   6.188   0.941   2.421 -0.1984 -0.7566  2.7330
  711TIP3   OH2 2138   2.652   4.511   5.152 -0.2128 -0.1548 -0.3952
  711TIP3    H1 2139   2.701   4.446   5.100 -0.6988  0.2806 -1.4396
  711TIP3    H2 2140   2.642   4.471   5.238  0.7575 -0.8444 -0.5894
  712TIP3   OH2 2141   1.070   2.323   3.089 -0.2145 -0.6211 -0.2178
  712TIP3    H1 2142   1.138   2.314   3.155 -0.7978 -0.1371  0.4532
  712TIP3    H2 2143   1.094   2.258   3.022  0.2333 -1.3013  0.5818
  713TIP3   OH2 2144   2.751   4.721   3.986 -0.3442  0.1425 -0.7377
  713TIP3    H1 2145   2.720   4.691   3.901  0.2049 -1.6473 -0.3470
  713TIP3    H2 2146   2.697   4.676   4.050  0.9369 -0.5829 -0.1125
  714TIP3   OH2 2147   4.205   1.941   0.637  0.5467  0.2929  0.3037
  714TIP3    H1 2148   4.212   1.988   0.554 -2.3739 -0.0879 -0.2439
  714TIP3    H2 2149   4.266   1.987   0.695  0.6860  2.2633 -1.2817
  715TIP3   OH2 2150   3.290   3.844   4.471 -0.0526 -0.3459 -0.1285
  715TIP3    H1 2151   3.229   3.842   4.397 -0.2561  1.9810 -0.0875
  715TIP3    H2 2152   3.242   3.889   4.541 -0.1479 -3.1475  1.7847
  716TIP3   OH2 2153   0.605   3.313   3.563  0.1401 -0.2055  0.3509
  716TIP3    H1 2154   0.658   3.272   3.495 -0.7276  0.0283 -0.4783
  716TIP3    H2 2155   0.522   3.266   3.561  0.2932 -0.5869  1.6591
  717TIP3   OH2 2156   2.701   3.354   1.805 -0.2713  0.4215 -0.3494
  717TIP3    H1 2157   2.669   3.427   1.752  0.4154 -0.7871 -2.5091
  717TIP3    H2 2158   2.737   3.396   1.883  0.2253  2.4169 -1.5801
  718TIP3   OH2 2159   0.120   2.677   4.682  0.3136 -0.9217 -0.0376
  718TIP3    H1 2160   0.085   2.751   4.632 -1.8828 -0.8776  1.4449
  718TIP3    H2 2161   0.077   2.600   4.644 -0.1224 -1.0516  0.6986
  719TIP3   OH2 2162   3.935   3.052   4.801  0.2911 -0.6210  0.0586
  719TIP3    H1 2163   3.959   2.992   4.731  0.4671 -1.1596  0.5729
  719TIP3    H2 2164   4.011   3.109   4.811  0.6848 -1.2125  0.5096
  720TIP3   OH2 2165   2.491   2.363   0.445 -0.7018  0.2993 -0.0668
  720TIP3    H1 2166   2.526   2.381   0.357  1.7471 -1.1126  0.5230
  720TIP3    H2 2167   2.463   2.272   0.441 -2.8044  0.9082 -0.0009
  721TIP3   OH2 2168   5.480   2.436   2.462  0.0010  0.4345 -0.3714
  721TIP3    H1 2169   5.512   2.469   2.378  3.1846 -1.6111 -0.1634
  721TIP3    H2 2170   5.554   2.450   2.522 -1.5044  0.1737  1.6404
  722TIP3   OH2 2171   2.621   0.886   1.382  0.0624 -0.4558  0.6050
  722TIP3    H1 2172   2.603   0.796   1.354  0.6944 -0.4995  0.3368
  722TIP3    H2 2173   2.632   0.880   1.477  1.2770 -0.8577  0.4462
  723TIP3   OH2 2174   4.530   5.387   2.326 -0.4530  0.3288  0.3504
  723TIP3    H1 2175   4.512   5.473   2.288 -1.3641  0.1235  0.2887
  723TIP3    H2 2176   4.447   5.340   2.317 -0.0549 -0.4395  0.6864
  724TIP3   OH2 2177   1.211   0.661   3.736 -0.1566 -0.2741 -0.4043
  724TIP3    H1 2178   1.224   0.751   3.765 -1.2289 -0.3849  0.4927
  724TIP3    H2 2179   1.143   0.667   3.668 -1.6645 -0.5565  0.9958
  725TIP3   OH2 2180   4.769   5.574   0.497  0.4313  0.3721  0.0748
  725TIP3    H1 2181   4.808   5.647   0.545 -0.0057  1.2679 -0.8754
  725TIP3    H2 2182   4.677   5.598   0.490  0.6141  0.6660 -1.8418
  726TIP3   OH2 2183   1.673   4.287   2.978 -0.3956  0.3819  0.3574
  726TIP3    H1 2184   1.752   4.311   3.027  0.2953 -0.5747 -0.2670
  726TIP3    H2 2185   1.704   4.230   2.908 -1.7604 -0.8764  0.7256
  727TIP3   OH2 2186   2.285   4.427   1.913 -0.4874 -0.0675  0.0944
  727TIP3    H1 2187   2.315   4.371   1.984 -0.4621 -0.4246 -0.1969
  727TIP3    H2 2188   2.250   4.367   1.847 -0.4540  0.2522 -0.2220
  728TIP3   OH2 2189   2.880   1.987   0.405  0.1664 -0.6488 -0.4214
  728TIP3    H1 2190   2.905   2.061   0.350  1.7853 -2.5234 -2.3851
  728TIP3    H2 2191   2.946   1.986   0.474  1.0131 -1.0644 -1.2136
  729TIP3   OH2 2192   5.265   3.760   0.298 -0.2671 -0.8695 -0.4172
  729TIP3    H1 2193   5.345   3.759   0.245 -1.6422  0.2677 -2.6630
  729TIP3    H2 2194   5.285   3.820   0.370  1.6955 -2.5578  0.5689
  730TIP3   OH2 2195   2.684   5.726   2.007 -0.0009 -0.2606 -0.1888
  730TIP3    H1 2196   2.701   5.809   2.051  2.3084  0.3663 -1.9968
  730TIP3    H2 2197   2.594   5.703   2.030 -0.7711  2.8216  0.2663
  731TIP3   OH2 2198   4.904   4.946   0.228 -0.7030 -0.4675 -0.3227
  731TIP3    H1 2199   4.906   4.868   0.173  0.0135 -1.6541  1.2736
  731TIP3    H2 2200   4.890   4.912   0.317  1.6023  1.0248  0.7114
  732TIP3   OH2 2201   5.703   3.774   1.059 -0.1856  0.1781 -0.1470
  732TIP3    H1 2202   5.703   3.793   1.153 -1.9680  2.2995 -0.4777
  732TIP3    H2 2203   5.614   3.795   1.031  0.3148 -0.3957 -2.3190
  733TIP3   OH2 2204   0.898   5.284   4.239  1.0376 -0.3272 -0.6716
  733TIP3    H1 2205   0.968   5.258   4.299  0.4209 -0.3264  0.0698
  733TIP3    H2 2206   0.888   5.379   4.252 -1.2796 -0.7762  1.7003
  734TIP3   OH2 2207   2.610   4.812   3.442  0.1441 -0.1099 -0.3282
  734TIP3    H1 2208   2.693   4.802   3.488  0.4233  2.2443 -0.1910
  734TIP3    H2 2209   2.635   4.831   3.351 -0.2034  0.8387 -0.2377
  735TIP3   OH2 2210   1.965   2.789   2.162 -0.8934 -0.1503 -0.0772
  735TIP3    H1 2211   1.992   2.793   2.070 -0.3409 -0.6587  0.0541
  735TIP3    H2 2212   1.870   2.803   2.160 -1.1168 -1.5938 -0.8666
  736TIP3   OH2 2213   6.199   3.870   4.043  0.0649 -0.2224 -0.2875
  736TIP3    H1 2214   6.253   3.944   4.015 -1.2948  0.4461 -1.2423
  736TIP3    H2 2215   6.162   3.835   3.962  0.3299 -1.6969  0.1906
  737TIP3   OH2 2216   0.571   5.313   1.042 -0.1350  0.8948  0.3924
  737TIP3    H1 2217   0.537   5.297   0.954  1.3719  1.7820 -0.3759
  737TIP3    H2 2218   0.505   5.273   1.100 -0.3310 -1.1822 -1.1473
  738TIP3   OH2 2219   0.057   4.189   0.327  0.0607 -0.0023  0.2771
  738TIP3    H1 2220  -0.004   4.236   0.384  1.0646  0.4194  1.0376
  738TIP3    H2 2221   0.132   4.248   0.318  0.0875 -0.2232 -1.1923
  739TIP3   OH2 2222   3.516   5.320   1.600  0.7616  0.6018  0.1070
  739TIP3    H1 2223   3.595   5.374   1.610  0.1342  1.6115 -0.2593
  739TIP3    H2 2224   3.519   5.291   1.509  1.0563  0.0667  0.2817
  740TIP3   OH2 2225   3.663   5.047   1.420  0.2951 -0.9003 -0.5437
  740TIP3    H1 2226   3.757   5.036   1.406  0.5804  0.9450 -0.2865
  740TIP3    H2 2227   3.650   5.021   1.511  0.9124  0.6089  0.0043
  741TIP3   OH2 2228   2.179   5.426   1.394 -0.2999  0.1389 -0.0127
  741TIP3    H1 2229   2.129   5.376   1.458 -1.2758 -0.7231 -1.3957
  741TIP3    H2 2230   2.258   5.453   1.441 -0.4149 -1.4949  1.2038
  742TIP3   OH2 2231   4.968   5.027   2.295  0.0501 -0.7180 -0.1469
  742TIP3    H1 2232   5.020   5.000   2.371 -0.9181  0.1688  0.8846
  742TIP3    H2 2233   4.905   4.956   2.282  1.6772 -1.9609 -1.6247
  743TIP3   OH2 2234   0.441   3.103   1.212  0.0379 -0.0292 -1.0515
  743TIP3    H1 2235   0.355   3.146   1.215  0.1440  0.2170 -1.4722
  743TIP3    H2 2236   0.420   3.011   1.193 -0.1102  0.1375 -1.7458
  744TIP3   OH2 2237   3.662   1.834   2.783 -0.0714 -0.2297  0.0538
  744TIP3    H1 2238   3.702   1.749   2.803  0.3447  0.0643  0.5194
  744TIP3    H2 2239   3.670   1.843   2.688 -2.2841 -1.7615 -0.3392
  745TIP3   OH2 2240   2.451   2.707   1.591 -0.1701  0.0315  0.3968
  745TIP3    H1 2241   2.442   2.615   1.612 -1.8088  0.1000  0.1519
  745TIP3    H2 2242   2.373   2.748   1.629 -0.5381  0.9613 -1.2420
  746TIP3   OH2 2243   5.342   0.886   0.654  0.0451 -0.7055  0.3487
  746TIP3    H1 2244   5.379   0.912   0.570  0.8121  0.8619  1.1155
  746TIP3    H2 2245   5.296   0.964   0.685 -0.3072 -1.2892  1.3379
  747TIP3   OH2 2246   2.736   3.445   2.070 -0.2424 -0.0678 -0.7025
  747TIP3    H1 2247   2.804   3.381   2.090  0.4976 -0.0564 -2.9745
  747TIP3    H2 2248   2.677   3.442   2.146  1.5087 -1.0864  0.6764
  748TIP3   OH2 2249   0.371   4.744   0.234  0.3000  0.3755 -0.2665
  748TIP3    H1 2250   0.383   4.836   0.255 -0.0435  0.6388 -1.1754
  748TIP3    H2 2251   0.284   4.723   0.266  0.1869  0.4958 -0.4962
  749TIP3   OH2 2252   5.105   1.543   0.651 -0.3358 -0.8209  0.2952
  749TIP3    H1 2253   5.184   1.516   0.604 -0.3228 -0.1783 -0.0711
  749TIP3    H2 2254   5.035   1.488   0.615  0.0529 -1.9069  1.1385
  750TIP3   OH2 2255   5.595   5.808   3.276 -0.9607 -0.1822  0.0555
  750TIP3    H1 2256   5.608   5.747   3.348 -0.4657  0.6125  0.6538
  750TIP3    H2 2257   5.511   5.850   3.294 -0.8956 -0.0733  0.1113
  751TIP3   OH2 2258   4.730   2.468   5.138  0.0173 -0.0470  0.9516
  751TIP3    H1 2259   4.638   2.493   5.143  0.1129  0.2070  1.5807
  751TIP3    H2 2260   4.729   2.372   5.136 -0.3579 -0.0499 -1.6425
  752TIP3   OH2 2261   1.487   3.284   2.654 -0.1779 -0.5388 -0.9377
  752TIP3    H1 2262   1.467   3.375   2.633  0.0346 -0.7869 -2.2769
  752TIP3    H2 2263   1.442   3.268   2.737  0.3928  0.9922 -0.3102
  753TIP3   OH2 2264   2.891   5.862   3.333 -0.1366 -0.5738  0.3019
  753TIP3    H1 2265   2.901   5.901   3.247 -1.1999  0.3089  0.5593
  753TIP3    H2 2266   2.834   5.787   3.319 -1.5918  0.4712  0.4537
  754TIP3   OH2 2267   3.099   4.081   3.469  0.0331 -0.2053 -0.4554
  754TIP3    H1 2268   3.181   4.127   3.450  0.0693  0.1964  0.6028
  754TIP3    H2 2269   3.076   4.038   3.386 -0.2803  2.1234 -1.6619
  755TIP3   OH2 2270   0.084   0.690   3.286  0.4380 -0.8333 -0.3703
  755TIP3    H1 2271   0.023   0.654   3.222 -0.2141 -1.3928  0.5367
  755TIP3    H2 2272   0.165   0.706   3.237 -0.1180 -1.0257 -1.3699
  756TIP3   OH2 2273   3.768   3.516   1.356  0.5365 -0.2787  0.1115
  756TIP3    H1 2274   3.697   3.509   1.292  0.8468 -1.8093 -0.1283
  756TIP3    H2 2275   3.725   3.528   1.440 -0.1901 -2.9924  0.2353
  757TIP3   OH2 2276   2.052   2.479   0.340  0.0933  0.1903 -0.7283
  757TIP3    H1 2277   2.059   2.384   0.349 -2.9942 -0.0094  0.5066
  757TIP3    H2 2278   1.999   2.492   0.262  0.5428  0.9468 -0.9217
  758TIP3   OH2 2279   0.116   2.029   5.076 -0.5202 -0.4478 -0.3127
  758TIP3    H1 2280   0.138   2.100   5.015  1.6964 -0.8089 -0.0274
  758TIP3    H2 2281   0.038   2.060   5.122  0.7047  2.1027  0.2273
  759TIP3   OH2 2282   3.824   1.901   3.267  0.0344  0.5234  0.0455
  759TIP3    H1 2283   3.812   1.994   3.286  1.5436  0.7395  0.0069
  759TIP3    H2 2284   3.917   1.885   3.279  0.1330 -0.5639 -1.8239
  760TIP3   OH2 2285   1.279   1.289   1.944 -0.0099 -0.1184  0.1664
  760TIP3    H1 2286   1.332   1.211   1.931  0.2109 -0.1804  1.2958
  760TIP3    H2 2287   1.335   1.348   1.994 -0.4916  0.3914  0.1133
  761TIP3   OH2 2288   2.233   4.426   3.397 -0.5282 -0.0411 -0.2890
  761TIP3    H1 2289   2.276   4.422   3.312 -0.5954 -0.6973 -0.2978
  761TIP3    H2 2290   2.300   4.458   3.457  0.3494 -2.1377 -0.0792
  762TIP3   OH2 2291   2.168   3.828   0.502  0.2874 -0.5771 -0.4269
  762TIP3    H1 2292   2.233   3.894   0.524 -1.2420  1.5682 -1.9157
  762TIP3    H2 2293   2.091   3.851   0.553  0.1425 -2.1093  0.1000
  763TIP3   OH2 2294   6.066   0.606   0.024  1.0247 -0.1778 -0.0867
  763TIP3    H1 2295   6.066   0.597  -0.072 -1.6902  0.0444 -0.1934
  763TIP3    H2 2296   6.010   0.535   0.055 -0.5906  1.5001  1.0420
  764TIP3   OH2 2297   5.247   2.615   3.476  0.2294 -0.0662 -0.1836
  764TIP3    H1 2298   5.255   2.548   3.543 -1.4818 -0.3988 -0.2528
  764TIP3    H2 2299   5.280   2.574   3.396 -0.8154 -0.8637 -0.2306
  765TIP3   OH2 2300   1.162   2.021   0.776 -0.2607 -0.0906 -0.1161
  765TIP3    H1 2301   1.150   1.973   0.694 -0.4273 -1.6752  0.7942
  765TIP3    H2 2302   1.091   1.991   0.832 -2.0518  3.2950 -0.3401
  766TIP3   OH2 2303   4.082   4.983   4.841  0.1236  0.1026  0.4052
  766TIP3    H1 2304   4.126   4.956   4.761  1.3734  1.1444  0.7201
  766TIP3    H2 2305   4.004   5.031   4.811 -0.1732 -0.7055 -0.1558
  767TIP3   OH2 2306   1.379   0.618   0.829 -0.0244 -0.2679 -0.0363
  767TIP3    H1 2307   1.286   0.623   0.806  0.0013 -0.6387 -0.2228
  767TIP3    H2 2308   1.389   0.681   0.901 -0.7170 -1.2436  0.9387
  768TIP3   OH2 2309   1.800   0.240   1.361  0.2391 -0.2844 -0.0259
  768TIP3    H1 2310   1.846   0.323   1.371 -1.2674  0.6895 -0.6704
  768TIP3    H2 2311   1.800   0.224   1.266  1.1357 -1.4090  0.1508
  769TIP3   OH2 2312   0.091   5.483   2.622 -0.4303 -0.6449  0.1161
  769TIP3    H1 2313   0.124   5.557   2.572  0.4603 -1.7270 -0.9629
  769TIP3    H2 2314   0.016   5.451   2.572 -1.1690 -0.1648  0.8755
  770TIP3   OH2 2315   2.881   5.605   0.751  0.1858  0.2694 -0.2908
  770TIP3    H1 2316   2.942   5.651   0.693 -0.3748  1.6526  0.1825
  770TIP3    H2 2317   2.801   5.595   0.698 -1.0828  3.4161  0.8052
  771TIP3   OH2 2318   2.983   2.183   1.231  0.4172 -0.2548  0.5017
  771TIP3    H1 2319   3.052   2.121   1.206 -0.1118  0.1315 -2.2881
  771TIP3    H2 2320   3.009   2.265   1.189 -1.7343 -0.1362 -0.7487
  772TIP3   OH2 2321   2.530   0.201   3.278 -0.0582  0.1126 -0.2498
  772TIP3    H1 2322   2.482   0.120   3.259 -2.0075  1.5274 -1.7829
  772TIP3    H2 2323   2.516   0.217   3.371  0.9853 -1.6515  0.2583
  773TIP3   OH2 2324   4.793   5.028   5.108  0.3776  0.9027  0.0996
  773TIP3    H1 2325   4.826   4.940   5.091  0.5699  0.7459  1.1737
  773TIP3    H2 2326   4.741   5.050   5.031 -0.7702 -0.6809  0.3786
  774TIP3   OH2 2327   0.967   4.702   5.167 -0.3844  0.7890 -0.8309
  774TIP3    H1 2328   1.056   4.736   5.179 -0.0873  0.0954 -1.0096
  774TIP3    H2 2329   0.931   4.755   5.095 -0.6674  2.0877  0.2173
  775TIP3   OH2 2330   4.110   5.756   0.522  0.5835 -0.0011  0.0370
  775TIP3    H1 2331   4.169   5.765   0.597  1.5483 -0.8735 -0.5906
  775TIP3    H2 2332   4.155   5.694   0.464 -0.6837 -0.2262 -0.7310
  776TIP3   OH2 2333   1.258   1.504   0.435 -0.7971  0.8308  0.3640
  776TIP3    H1 2334   1.285   1.494   0.526  0.2519 -2.0973 -0.1522
  776TIP3    H2 2335   1.163   1.498   0.436 -0.6667 -2.3812  1.0620
  777TIP3   OH2 2336   0.035   5.463   4.628 -0.2441  0.2288 -0.2694
  777TIP3    H1 2337   0.074   5.417   4.554  1.7726 -0.1371  0.9371
  777TIP3    H2 2338   0.076   5.422   4.705 -3.4506 -0.5671  1.1827
  778TIP3   OH2 2339   4.251   0.088   0.251  0.1433 -0.6091  0.5935
  778TIP3    H1 2340   4.245  -0.005   0.231 -2.7821 -0.2137 -0.9264
  778TIP3    H2 2341   4.277   0.129   0.167 -1.3615  0.1355  0.4549
  779TIP3   OH2 2342   0.800   5.290   1.791 -0.1913  0.1318 -0.1218
  779TIP3    H1 2343   0.709   5.296   1.762 -0.1696 -0.7223 -0.3764
  779TIP3    H2 2344   0.796   5.246   1.876 -0.0208  0.1566 -0.0999
  780TIP3   OH2 2345   5.476   1.405   2.069  0.6561  0.0487 -0.0870
  780TIP3    H1 2346   5.560   1.393   2.112  0.5580  1.6035  0.6080
  780TIP3    H2 2347   5.431   1.472   2.121 -0.7992 -0.3658 -0.7420
  781TIP3   OH2 2348   2.678   3.714   1.498  0.3144 -0.6225 -0.3387
  781TIP3    H1 2349   2.648   3.636   1.451 -0.5393 -0.1033 -0.6885
  781TIP3    H2 2350   2.624   3.785   1.463  1.8746  0.3438 -0.8850
  782TIP3   OH2 2351   5.916   2.786   0.407 -0.1318 -0.1570 -0.4999
  782TIP3    H1 2352   5.873   2.722   0.351 -2.4594  1.6824 -0.9515
  782TIP3    H2 2353   5.999   2.744   0.432 -1.3419 -3.1347 -1.0802
  783TIP3   OH2 2354   0.254   1.739   0.230 -0.0975 -0.3546  0.7207
  783TIP3    H1 2355   0.170   1.725   0.275 -0.1430 -1.0953  0.4258
  783TIP3    H2 2356   0.291   1.651   0.222 -0.6898 -0.4543 -1.8437
  784TIP3   OH2 2357   1.972   3.403   2.265 -0.0614  0.0418 -0.0695
  784TIP3    H1 2358   2.051   3.349   2.270  1.1080  1.5707 -0.9072
  784TIP3    H2 2359   1.904   3.344   2.233  1.1910 -0.9107 -1.1223
  785TIP3   OH2 2360   5.657   5.870   4.904  0.6293  0.4752 -0.6150
  785TIP3    H1 2361   5.739   5.917   4.921  1.6510 -0.4480 -2.6480
  785TIP3    H2 2362   5.634   5.894   4.814 -2.4828  2.2778  0.4893
  786TIP3   OH2 2363   4.810   1.605   2.366 -0.8347  0.0304  0.2286
  786TIP3    H1 2364   4.733   1.595   2.310 -0.8650 -0.8758  0.4144
  786TIP3    H2 2365   4.777   1.651   2.443 -1.1542 -0.1890  0.2253
  787TIP3   OH2 2366   1.878   3.807   0.562  0.3138 -0.2405  0.2416
  787TIP3    H1 2367   1.848   3.740   0.501  2.4959 -0.4256 -0.7526
  787TIP3    H2 2368   1.824   3.883   0.543  0.6716 -0.4130 -1.7044
  788TIP3   OH2 2369   0.421   5.677   2.021  0.0820  0.5120 -0.3320
  788TIP3    H1 2370   0.446   5.614   1.954  2.0139  1.0092 -0.1442
  788TIP3    H2 2371   0.326   5.675   2.022  0.0405 -0.3441 -2.2713
  789TIP3   OH2 2372   2.712   5.053   1.110 -0.2001  0.1330 -0.0974
  789TIP3    H1 2373   2.658   5.120   1.152  0.4427  0.0025  0.9659
  789TIP3    H2 2374   2.799   5.092   1.104  0.4848 -1.0074  1.6528
  790TIP3   OH2 2375   5.717   3.568   1.979  0.5486 -0.2547 -0.0262
  790TIP3    H1 2376   5.734   3.481   1.942 -1.2181 -0.5161 -0.3042
  790TIP3    H2 2377   5.734   3.558   2.073 -2.3556 -1.7665  0.4652
  791TIP3   OH2 2378   3.846   5.505   5.032 -0.0480 -0.1371 -1.1794
  791TIP3    H1 2379   3.816   5.549   4.952  1.7725  2.7345 -0.4637
  791TIP3    H2 2380   3.939   5.489   5.017  0.3608  0.5675  0.3486
  792TIP3   OH2 2381   6.163   1.297   0.986 -0.0308 -0.6456 -0.5327
  792TIP3    H1 2382   6.233   1.262   0.931 -1.7746 -0.1283 -3.3120
  792TIP3    H2 2383   6.202   1.374   1.029  1.3053 -0.7989 -1.4357
  793TIP3   OH2 2384   0.802   5.400   2.399  0.5556  0.0397 -0.1340
  793TIP3    H1 2385   0.876   5.370   2.346  0.0281 -0.6156 -0.5238
  793TIP3    H2 2386   0.774   5.322   2.447  0.3148  0.3602  0.2506
  794TIP3   OH2 2387   0.319   3.044   4.940 -0.2324  0.3087  0.3579
  794TIP3    H1 2388   0.312   2.948   4.936  1.9241  0.1137  0.0700
  794TIP3    H2 2389   0.234   3.075   4.909  0.4883 -1.5251 -4.3918
  795TIP3   OH2 2390   4.787   5.748   0.242 -0.0405  0.3412  0.3365
  795TIP3    H1 2391   4.805   5.698   0.322  0.9357  1.0215  0.5582
  795TIP3    H2 2392   4.865   5.802   0.229  0.7473 -1.2361 -2.2247
  796TIP3   OH2 2393   5.587   2.579   3.470  0.1734  0.4509 -0.0009
  796TIP3    H1 2394   5.598   2.580   3.565  0.3120 -1.2087  0.0358
  796TIP3    H2 2395   5.651   2.643   3.438 -0.2250  1.4029  1.0329
  797TIP3   OH2 2396   0.156   0.139   2.121 -0.1637  0.4281 -0.2520
  797TIP3    H1 2397   0.215   0.209   2.091  3.2604 -1.1402  2.1527
  797TIP3    H2 2398   0.114   0.176   2.199  1.7684 -0.1229  1.1164
  798TIP3   OH2 2399   2.282   2.032   4.926  0.2840  0.3744 -0.4247
  798TIP3    H1 2400   2.363   2.082   4.937  2.6058 -2.5996 -2.1721
  798TIP3    H2 2401   2.273   1.984   5.008  0.9352 -0.0536 -0.5929
  799TIP3   OH2 2402   6.146   0.299   4.639  0.3236  0.0798  0.4563
  799TIP3    H1 2403   6.199   0.336   4.568 -0.7678  1.0754  0.1296
  799TIP3    H2 2404   6.061   0.281   4.598 -0.1675  0.2113  1.4013
  800TIP3   OH2 2405   5.252   0.678   4.256 -0.5611 -0.4251 -0.0917
  800TIP3    H1 2406   5.192   0.641   4.322 -0.1208  0.5384  0.8711
  800TIP3    H2 2407   5.263   0.769   4.282  2.7801 -0.9941  0.8680
  801TIP3   OH2 2408   5.448   2.722   1.899 -0.1352 -0.1339 -0.0514
  801TIP3    H1 2409   5.543   2.733   1.894 -0.1143  0.1123  0.6750
  801TIP3    H2 2410   5.433   2.693   1.989 -0.8458  0.9342  0.1913
  802TIP3   OH2 2411   4.778   3.791   3.717 -0.8059  0.4533 -0.4130
  802TIP3    H1 2412   4.726   3.852   3.770 -1.7036  0.5734 -1.4021
  802TIP3    H2 2413   4.718   3.718   3.700 -0.6216  0.5491 -1.4860
  803TIP3   OH2 2414   3.821   5.560   0.184  0.2603 -0.3575 -0.3285
  803TIP3    H1 2415   3.915   5.554   0.163  0.2165  2.3062 -1.7839
  803TIP3    H2 2416   3.777   5.550   0.099 -0.4948  1.8526 -0.2770
  804TIP3   OH2 2417   4.149   2.687   1.127  0.4333  0.2783 -0.6297
  804TIP3    H1 2418   4.117   2.646   1.047  2.1470 -1.0548 -0.6900
  804TIP3    H2 2419   4.132   2.623   1.196  0.3680  0.7627 -0.1862
  805TIP3   OH2 2420   1.605   1.103   3.667 -0.0402 -0.0892  0.0069
  805TIP3    H1 2421   1.609   1.007   3.661  4.2216 -0.0893 -0.5116
  805TIP3    H2 2422   1.588   1.120   3.760 -0.4479 -1.3345  0.1849
  806TIP3   OH2 2423   0.789   5.647   0.309  0.2123 -0.2667 -0.1536
  806TIP3    H1 2424   0.843   5.581   0.266  0.4785 -0.9431  1.1530
  806TIP3    H2 2425   0.708   5.602   0.330 -0.2683  0.3086 -0.7382
  807TIP3   OH2 2426   1.016   4.873   1.379 -0.1606  0.8330  0.1160
  807TIP3    H1 2427   0.932   4.857   1.421 -0.0991 -0.4785 -0.2121
  807TIP3    H2 2428   1.003   4.951   1.326 -2.0935 -0.9845 -2.3040
  808TIP3   OH2 2429  -0.005   4.092   3.947 -0.0751  0.5546  0.3633
  808TIP3    H1 2430   0.013   4.037   3.871  0.8648 -0.5849  1.3764
  808TIP3    H2 2431   0.056   4.166   3.938  1.2302 -0.4244  0.8440
  809TIP3   OH2 2432   6.326   1.460   4.949 -0.0753 -0.1023 -0.1801
  809TIP3    H1 2433   6.261   1.434   4.883  0.5944  0.9141 -1.2796
  809TIP3    H2 2434   6.311   1.554   4.961  1.6838  0.3267 -1.0626
  810TIP3   OH2 2435   4.632   2.760   3.617 -0.4197 -0.6595 -0.3825
  810TIP3    H1 2436   4.693   2.771   3.690 -0.0103  0.9335 -0.9150
  810TIP3    H2 2437   4.646   2.670   3.587  1.1063 -0.5749  0.0051
  811TIP3   OH2 2438   0.888   2.712   0.340 -0.3481  0.2452  0.1410
  811TIP3    H1 2439   0.844   2.661   0.408  0.8498  0.7028  1.3050
  811TIP3    H2 2440   0.908   2.649   0.271  1.3644 -0.9654  1.6649
  812TIP3   OH2 2441   1.463   1.632   3.898  0.4910 -0.0233  0.4653
  812TIP3    H1 2442   1.466   1.570   3.971 -0.5384 -1.0070 -0.2863
  812TIP3    H2 2443   1.371   1.658   3.894  0.8181  1.1633  0.4289
  813TIP3   OH2 2444   3.392   1.130   3.790 -0.0602  0.4878 -1.1380
  813TIP3    H1 2445   3.468   1.176   3.825 -0.4033 -0.0082  0.3413
  813TIP3    H2 2446   3.353   1.086   3.866 -2.5995  1.7871 -1.5826
  814TIP3   OH2 2447   4.299   0.693   5.053  0.3488 -0.4413  0.0895
  814TIP3    H1 2448   4.311   0.727   5.142  1.3049  3.2882 -1.2767
  814TIP3    H2 2449   4.380   0.645   5.035  1.8665  2.0147  0.0123
  815TIP3   OH2 2450   2.098   5.039   4.071 -0.5763 -0.5185 -0.4586
  815TIP3    H1 2451   2.084   5.116   4.017 -0.9339  0.2700  0.7106
  815TIP3    H2 2452   2.149   5.070   4.146 -2.3204 -0.9413  1.0101
  816TIP3   OH2 2453   4.756   1.573   5.055  0.5647  0.3026  0.9469
  816TIP3    H1 2454   4.806   1.601   4.979 -0.8544  1.4010  0.3716
  816TIP3    H2 2455   4.821   1.536   5.114  1.8297  0.3273 -0.3793
  817TIP3   OH2 2456   2.020   3.745   4.462  0.4938  0.2017 -0.2886
  817TIP3    H1 2457   2.032   3.819   4.522 -2.7791  0.4575  0.2552
  817TIP3    H2 2458   1.983   3.784   4.383  0.6304 -0.6327 -0.7754
  818TIP3   OH2 2459   6.039   4.345   3.976 -0.2305 -0.0834 -0.7947
  818TIP3    H1 2460   6.021   4.343   3.882  1.6259 -1.8155 -1.1834
  818TIP3    H2 2461   5.984   4.275   4.012 -1.4580  1.0204 -0.4253
  819TIP3   OH2 2462   1.779   3.132   2.902 -0.5128 -0.4898 -0.0232
  819TIP3    H1 2463   1.813   3.115   2.989  0.1299  0.5879 -0.0537
  819TIP3    H2 2464   1.798   3.051   2.853 -1.4097 -1.3331  0.9624
  820TIP3   OH2 2465   2.144   3.961   0.848 -0.3696  0.1717 -0.3015
  820TIP3    H1 2466   2.119   3.999   0.763  0.0189  1.5652  0.1761
  820TIP3    H2 2467   2.239   3.964   0.849 -0.3751  0.3009  0.2443
  821TIP3   OH2 2468   4.698   4.243   1.751 -0.0551 -0.5582 -0.0970
  821TIP3    H1 2469   4.751   4.164   1.760 -0.3504 -0.7104  0.3512
  821TIP3    H2 2470   4.730   4.285   1.671  0.1806 -1.0715 -0.2746
  822TIP3   OH2 2471   3.803   1.847   2.299 -0.1752 -0.2640  0.1800
  822TIP3    H1 2472   3.869   1.904   2.259 -2.2269  2.9983  1.0228
  822TIP3    H2 2473   3.793   1.775   2.237  1.0392  1.4636 -2.1853
  823TIP3   OH2 2474   2.025   0.307   2.209 -0.2413  0.0424  0.5707
  823TIP3    H1 2475   2.078   0.289   2.286  0.2790 -0.7608  0.0382
  823TIP3    H2 2476   1.960   0.237   2.208 -2.3887  1.8845  2.1045
  824TIP3   OH2 2477   0.954   2.311   0.288 -0.0287 -0.2620  0.8247
  824TIP3    H1 2478   0.925   2.369   0.217  0.4539  1.6158  2.1007
  824TIP3    H2 2479   0.874   2.267   0.317 -0.5049  0.1867  0.2219
  825TIP3   OH2 2480   2.400   1.567   4.987 -0.3700  0.5720 -0.7112
  825TIP3    H1 2481   2.347   1.613   4.922 -0.6243  1.3626  0.0344
  825TIP3    H2 2482   2.474   1.531   4.937 -0.2463  1.6682 -1.3383
  826TIP3   OH2 2483   5.324   4.930   4.552 -0.2443 -0.4886 -0.3866
  826TIP3    H1 2484   5.389   4.998   4.537  0.7332 -1.1705  0.5703
  826TIP3    H2 2485   5.325   4.877   4.472  0.5618 -0.6197 -0.3032
  827TIP3   OH2 2486   2.494   3.496   3.913  0.0140  0.2699 -0.2562
  827TIP3    H1 2487   2.536   3.575   3.878  1.2739  0.0108  0.6088
  827TIP3    H2 2488   2.542   3.424   3.873 -0.6321 -0.0723 -0.4399
  828TIP3   OH2 2489   0.818   3.018   1.326 -0.3248  0.2474  0.2370
  828TIP3    H1 2490   0.849   3.108   1.338 -1.2056  0.7442 -1.0102
  828TIP3    H2 2491   0.724   3.023   1.341 -0.2490 -0.6741  1.1236
  829TIP3   OH2 2492   1.453   4.019   4.958 -0.3954  0.5930 -0.4305
  829TIP3    H1 2493   1.501   3.945   4.994 -1.7741  1.0268  2.6786
  829TIP3    H2 2494   1.489   4.032   4.871  3.0982 -0.8072  0.6558
  830TIP3   OH2 2495   2.364   4.306   2.178 -0.0213 -0.6323  0.2733
  830TIP3    H1 2496   2.306   4.325   2.253 -0.2202 -1.0409  0.2243
  830TIP3    H2 2497   2.450   4.338   2.206 -0.6103  1.7115 -0.3559
  831TIP3   OH2 2498   0.268   5.852   0.881 -0.0038 -0.4761  0.1760
  831TIP3    H1 2499   0.354   5.857   0.924  0.8138 -2.3321 -1.1126
  831TIP3    H2 2500   0.271   5.770   0.832 -2.9861 -1.1854  1.0156
  832TIP3   OH2 2501   2.513   5.742   0.831  0.1325  0.1105 -0.2288
  832TIP3    H1 2502   2.427   5.700   0.826 -0.7404  1.7668 -0.0121
  832TIP3    H2 2503   2.544   5.724   0.920 -0.0437 -0.3822 -0.2654
  833TIP3   OH2 2504   2.317   1.954   1.588 -0.2044  0.1164  0.3826
  833TIP3    H1 2505   2.276   2.031   1.549 -2.9161 -0.4300  1.8730
  833TIP3    H2 2506   2.396   1.940   1.536 -1.2795  1.9826 -1.9702
  834TIP3   OH2 2507   2.699   1.258   1.660  0.1545 -0.1637  0.5146
  834TIP3    H1 2508   2.694   1.322   1.589  1.0930 -0.1810  0.4198
  834TIP3    H2 2509   2.709   1.311   1.740 -0.4309 -0.1580  0.5871
  835TIP3   OH2 2510   3.734   1.598   2.519  0.1359 -0.3418 -0.1293
  835TIP3    H1 2511   3.721   1.680   2.471  0.0705 -0.1179  0.2681
  835TIP3    H2 2512   3.663   1.541   2.489 -0.7027  0.2486  0.6675
  836TIP3   OH2 2513   5.120   0.230   4.761 -0.4159  0.1274  0.2374
  836TIP3    H1 2514   5.139   0.138   4.781 -1.3490 -0.0563  0.3482
  836TIP3    H2 2515   5.198   0.278   4.789  0.6121 -0.7579 -0.9812
  837TIP3   OH2 2516   1.983   4.224   4.740 -0.6670  0.3101  0.1634
  837TIP3    H1 2517   2.034   4.243   4.661  0.6205  0.7853  1.0880
  837TIP3    H2 2518   1.991   4.303   4.793  0.4361 -0.8462  1.7902
  838TIP3   OH2 2519   2.856   1.829   3.640 -0.3220  0.4140  0.2118
  838TIP3    H1 2520   2.884   1.804   3.728 -0.1674  0.7209  0.2477
  838TIP3    H2 2521   2.768   1.791   3.632 -0.9806  1.6887  1.0697
  839TIP3   OH2 2522   5.078   1.127   1.985 -0.1100  0.5201 -0.4062
  839TIP3    H1 2523   4.999   1.181   1.978 -0.8687 -0.0718  2.3153
  839TIP3    H2 2524   5.045   1.038   2.001  1.0502  0.2968  0.9626
  840TIP3   OH2 2525   3.351   4.050   4.825  0.3175 -0.1107 -0.3704
  840TIP3    H1 2526   3.331   4.009   4.741 -0.9061 -0.6447  0.1561
  840TIP3    H2 2527   3.278   4.110   4.840 -0.2528 -1.1104  0.9951
  841TIP3   OH2 2528   3.577   4.147   0.197  0.1644 -0.3343 -0.1448
  841TIP3    H1 2529   3.670   4.141   0.173  0.4503 -0.5807  0.9901
  841TIP3    H2 2530   3.565   4.080   0.265 -0.1326  1.6458  1.8610
  842TIP3   OH2 2531   5.829   4.366   2.858 -0.2570  0.1872  0.4219
  842TIP3    H1 2532   5.798   4.440   2.806 -1.2145  0.3071  1.1428
  842TIP3    H2 2533   5.924   4.363   2.841  0.2658  3.0577  2.1765
  843TIP3   OH2 2534   5.327   4.511   2.239 -0.3525  0.0093 -0.4367
  843TIP3    H1 2535   5.388   4.472   2.177 -1.5923 -0.6244 -1.3087
  843TIP3    H2 2536   5.329   4.604   2.220  1.8137  0.3049  0.9234
  844TIP3   OH2 2537   1.931   4.478   4.870 -0.3060  0.4037  0.3258
  844TIP3    H1 2538   1.859   4.484   4.808  0.5540 -0.0536 -0.7592
  844TIP3    H2 2539   1.889   4.470   4.955 -1.5483 -0.7415 -0.3584
  845TIP3   OH2 2540   1.833   5.638   3.266  0.8865 -0.1707 -0.5158
  845TIP3    H1 2541   1.857   5.555   3.306 -0.7202 -0.6420 -0.4398
  845TIP3    H2 2542   1.874   5.704   3.322  0.5714 -0.8738  0.5820
  846TIP3   OH2 2543   4.197   5.792   0.107  0.3289 -0.6236 -0.5612
  846TIP3    H1 2544   4.165   5.843   0.181  1.6502  0.4647 -0.6823
  846TIP3    H2 2545   4.210   5.704   0.142 -0.6045 -0.5302  0.0538
  847TIP3   OH2 2546   2.053   1.489   3.485 -0.4706 -0.1658  0.0080
  847TIP3    H1 2547   2.028   1.456   3.399  0.5039  0.8762 -0.7121
  847TIP3    H2 2548   2.055   1.584   3.474  0.0272 -0.0391  1.0780
  848TIP3   OH2 2549   3.799   2.856   3.507  0.0079  0.2534  0.5560
  848TIP3    H1 2550   3.844   2.836   3.425  0.9265 -0.5788  1.2525
  848TIP3    H2 2551   3.829   2.790   3.569 -3.1784 -1.2175  0.7336
  849TIP3   OH2 2552   3.752   4.302   1.681  0.0819 -0.7295  0.2675
  849TIP3    H1 2553   3.724   4.370   1.620  1.3067 -0.0987  0.3718
  849TIP3    H2 2554   3.673   4.278   1.729 -0.9791 -1.4172 -1.7058
  850TIP3   OH2 2555   5.162   5.582   0.815 -0.5911  0.2730  0.0044
  850TIP3    H1 2556   5.099   5.650   0.840  0.2068  1.5118 -1.2925
  850TIP3    H2 2557   5.164   5.584   0.720  1.0770 -0.0684  0.0079
  851TIP3   OH2 2558   5.272   1.501   4.822  0.1704  0.2051  0.4578
  851TIP3    H1 2559   5.225   1.427   4.783  0.4397  1.3549 -2.3383
  851TIP3    H2 2560   5.359   1.466   4.841  0.4118 -0.1648 -1.1803
  852TIP3   OH2 2561   2.856   4.779   1.718 -0.3310  0.1029  0.0914
  852TIP3    H1 2562   2.833   4.724   1.792  2.4859  0.7994  1.6395
  852TIP3    H2 2563   2.775   4.788   1.668 -1.9915 -1.5369  2.3032
  853TIP3   OH2 2564   1.335   5.387   2.446 -0.1613 -0.1392 -0.4090
  853TIP3    H1 2565   1.387   5.456   2.405  0.0428 -0.6779 -1.0792
  853TIP3    H2 2566   1.355   5.394   2.540  1.0137 -0.2380 -0.6345
  854TIP3   OH2 2567   2.123   5.404   2.854 -0.6947  0.3303  0.3637
  854TIP3    H1 2568   2.075   5.369   2.929  0.3555  0.2892  1.0280
  854TIP3    H2 2569   2.063   5.391   2.780 -2.2735  1.5551  1.3689
  855TIP3   OH2 2570   3.926   0.050   3.381  0.1874  0.2681 -0.5599
  855TIP3    H1 2571   3.847   0.004   3.410  0.5897 -0.8087 -1.1350
  855TIP3    H2 2572   3.907   0.077   3.292  0.2653  0.4959 -0.5079
  856TIP3   OH2 2573   1.503   0.486   0.622 -0.0663 -0.0735  0.4363
  856TIP3    H1 2574   1.452   0.537   0.685 -0.2729  0.6611 -0.3163
  856TIP3    H2 2575   1.471   0.514   0.537 -0.3500 -1.6390 -0.0069
  857TIP3   OH2 2576   0.668   1.254   0.145 -0.8470 -0.4900 -0.3520
  857TIP3    H1 2577   0.704   1.239   0.057  0.0394  0.9697 -0.2551
  857TIP3    H2 2578   0.730   1.212   0.204 -1.3503 -1.3162 -0.3940
  858TIP3   OH2 2579   4.680   3.421   1.786 -0.0880 -0.2412 -0.2144
  858TIP3    H1 2580   4.630   3.495   1.820 -1.2282 -0.1084 -2.0467
  858TIP3    H2 2581   4.680   3.357   1.858  2.7496  2.2084  2.2495
  859TIP3   OH2 2582   3.791   5.870   3.793  0.1906 -0.0673 -0.0098
  859TIP3    H1 2583   3.844   5.950   3.798 -0.6368  0.4678  0.7385
  859TIP3    H2 2584   3.838   5.807   3.847  1.6509 -0.6100 -1.8261
  860TIP3   OH2 2585   6.066   2.682   4.402  0.0701  0.3026 -0.1923
  860TIP3    H1 2586   6.077   2.768   4.362 -1.1173 -0.0340 -1.2843
  860TIP3    H2 2587   5.972   2.673   4.415  0.0041 -1.4253 -1.4939
  861TIP3   OH2 2588   3.333   0.270   2.619 -0.2203  0.0857 -0.3391
  861TIP3    H1 2589   3.239   0.256   2.608  0.1128 -1.4719 -1.5639
  861TIP3    H2 2590   3.362   0.194   2.670  0.4307  0.3964 -0.2380
  862TIP3   OH2 2591  -0.002   5.915   0.611 -0.3174 -0.4441  0.5062
  862TIP3    H1 2592  -0.050   5.978   0.665  0.4529  0.0035  0.6811
  862TIP3    H2 2593   0.056   5.968   0.558 -0.2422 -0.9610  0.0602
  863TIP3   OH2 2594   1.717   4.320   0.796  0.2951 -0.4167 -0.2519
  863TIP3    H1 2595   1.780   4.361   0.737  1.4114 -2.3649 -0.5108
  863TIP3    H2 2596   1.636   4.317   0.746  0.7011 -0.2535 -0.9384
  864TIP3   OH2 2597   6.281   2.648   3.467 -0.4419  0.3577 -0.1137
  864TIP3    H1 2598   6.283   2.564   3.513 -2.8753  1.4738  2.2744
  864TIP3    H2 2599   6.238   2.629   3.384 -0.6745 -0.8037  0.2600
  865TIP3   OH2 2600   4.424   2.185   4.790 -0.1234  0.2379 -0.5022
  865TIP3    H1 2601   4.461   2.125   4.855  1.4335 -0.4387 -1.9639
  865TIP3    H2 2602   4.346   2.140   4.758 -0.6064  0.3390  0.4888
  866TIP3   OH2 2603   6.208   0.716   3.635 -0.1146  0.1151  0.0319
  866TIP3    H1 2604   6.229   0.752   3.721  0.8433 -0.5827  0.0949
  866TIP3    H2 2605   6.156   0.785   3.593  1.0441  1.2667  0.4354
  867TIP3   OH2 2606   3.438   4.518   3.958  0.2824  0.2232 -0.6961
  867TIP3    H1 2607   3.465   4.469   4.035 -1.6841  1.2055  0.6874
  867TIP3    H2 2608   3.430   4.452   3.889 -0.9336 -1.1950  0.7487
  868TIP3   OH2 2609   3.254   5.410   2.069 -0.5063 -0.3468 -0.5729
  868TIP3    H1 2610   3.233   5.502   2.051 -1.7659 -0.4298  0.3817
  868TIP3    H2 2611   3.181   5.361   2.030 -0.6417 -0.8356  0.2864
  869TIP3   OH2 2612   1.967   3.615   0.758  0.0565  0.2198 -0.2250
  869TIP3    H1 2613   1.936   3.550   0.695 -0.5912  1.1513 -0.9093
  869TIP3    H2 2614   1.965   3.698   0.709 -0.8335  1.0368  1.1091
  870TIP3   OH2 2615   5.807   5.761   2.721  0.1629 -0.6075  0.5799
  870TIP3    H1 2616   5.872   5.831   2.714  1.7986 -2.0842  0.3636
  870TIP3    H2 2617   5.733   5.791   2.668  0.6326  1.1279  0.8492
  871TIP3   OH2 2618   5.328   0.466   0.624 -0.6106 -0.2017  0.2067
  871TIP3    H1 2619   5.315   0.521   0.701 -1.6041 -0.7033  0.4190
  871TIP3    H2 2620   5.403   0.504   0.578  1.0621 -0.8525  2.2696
  872TIP3   OH2 2621   0.765   0.610   2.074 -0.2863  0.5146 -0.0359
  872TIP3    H1 2622   0.847   0.637   2.116 -0.4613 -0.6208  1.1004
  872TIP3    H2 2623   0.699   0.666   2.114 -0.1213  1.2732 -0.7870
  873TIP3   OH2 2624   1.244   2.080   3.689 -0.3147  0.7179  0.4914
  873TIP3    H1 2625   1.283   2.160   3.726  0.7565  0.3013  0.3199
  873TIP3    H2 2626   1.319   2.033   3.651 -1.1321  0.2841 -0.6314
  874TIP3   OH2 2627   2.564   1.591   3.910 -0.3299 -0.5911  0.2708
  874TIP3    H1 2628   2.579   1.661   3.974 -0.7176 -0.8023  0.5970
  874TIP3    H2 2629   2.486   1.545   3.942  0.0240 -1.2823  0.1545
  875TIP3   OH2 2630   2.515   3.682   0.585 -0.5156 -0.2040  0.0816
  875TIP3    H1 2631   2.456   3.736   0.638 -0.9709  0.0561 -0.6796
  875TIP3    H2 2632   2.458   3.626   0.533 -0.0798 -0.3787 -0.2213
  876TIP3   OH2 2633   6.237   5.183   2.633 -0.1413 -0.7985  0.2880
  876TIP3    H1 2634   6.246   5.259   2.575 -0.2752 -1.1088 -0.1519
  876TIP3    H2 2635   6.327   5.159   2.655 -0.0327 -1.2879 -0.6198
  877TIP3   OH2 2636   3.554   0.662   1.789  0.1935 -0.2708  0.7099
  877TIP3    H1 2637   3.519   0.674   1.701 -0.9465 -0.4765  1.1150
  877TIP3    H2 2638   3.583   0.749   1.816 -0.1192 -0.0679  0.3998
  878TIP3   OH2 2639   1.380   2.324   3.710 -0.4360  0.2862  0.2645
  878TIP3    H1 2640   1.394   2.386   3.781 -0.4452 -0.1967  0.6931
  878TIP3    H2 2641   1.325   2.371   3.647 -0.9371  0.5005  0.8618
  879TIP3   OH2 2642   5.502   3.291   2.730 -0.1961  0.2547  0.3715
  879TIP3    H1 2643   5.515   3.348   2.654 -0.3440 -0.5071 -0.2507
  879TIP3    H2 2644   5.587   3.289   2.774 -0.0311  0.4836  0.0656
  880TIP3   OH2 2645   5.684   0.890   3.158  0.1440  0.7333  0.0650
  880TIP3    H1 2646   5.637   0.972   3.177 -0.3885  0.4937 -0.2237
  880TIP3    H2 2647   5.628   0.843   3.097  0.2615 -0.0318  0.5383
  881TIP3   OH2 2648   0.339   3.058   3.872 -0.1335  0.0892 -0.5787
  881TIP3    H1 2649   0.365   3.150   3.878  1.7565 -0.4812  0.8367
  881TIP3    H2 2650   0.392   3.024   3.799  0.1953 -0.1858 -0.2122
  882TIP3   OH2 2651   2.745   4.665   4.277  0.4470 -0.1693  0.3119
  882TIP3    H1 2652   2.693   4.588   4.299  0.7482 -0.5995 -0.4605
  882TIP3    H2 2653   2.777   4.697   4.362 -3.5834  1.9901  1.2594
  883TIP3   OH2 2654   4.985   2.743   1.738  0.0855 -0.3648 -0.5878
  883TIP3    H1 2655   5.029   2.694   1.806  0.4911  0.1909 -0.4413
  883TIP3    H2 2656   5.003   2.835   1.759 -0.8457 -0.1368 -0.7197
  884TIP3   OH2 2657   1.082   0.188   4.377  0.3703 -0.2192  0.3703
  884TIP3    H1 2658   1.157   0.172   4.320  0.4679  0.3269  0.3406
  884TIP3    H2 2659   1.081   0.114   4.438  1.8563  0.5265  1.3561
  885TIP3   OH2 2660   6.138   5.115   1.243 -0.0827 -0.2079  0.1253
  885TIP3    H1 2661   6.209   5.112   1.308 -0.3529  1.4874  0.5496
  885TIP3    H2 2662   6.158   5.044   1.182  2.2766  0.5458 -0.0726
  886TIP3   OH2 2663   1.875   4.128   4.093 -0.1365 -0.4296  0.1948
  886TIP3    H1 2664   1.923   4.197   4.049 -0.1374 -0.0330  0.8037
  886TIP3    H2 2665   1.792   4.122   4.046 -0.6730  0.8799  0.9174
  887TIP3   OH2 2666   2.664   0.134   2.017  0.1975  0.0295  0.6048
  887TIP3    H1 2667   2.655   0.225   1.988  2.8928  0.6963  1.4906
  887TIP3    H2 2668   2.659   0.139   2.113  2.4186 -0.3702  0.7915
  888TIP3   OH2 2669   2.712   4.960   4.300 -0.6428  0.7507 -0.2355
  888TIP3    H1 2670   2.753   4.876   4.277 -0.6228  0.7426 -0.1699
  888TIP3    H2 2671   2.768   4.996   4.368 -1.1901  0.3633  0.4251
  889TIP3   OH2 2672   4.173   2.614   4.861  0.0711 -0.3383  0.1317
  889TIP3    H1 2673   4.194   2.543   4.922  2.6184 -0.2753 -0.5539
  889TIP3    H2 2674   4.252   2.625   4.809 -0.4651  2.5626 -0.2477
  890TIP3   OH2 2675   4.886   0.110   0.646 -0.2851 -0.0136 -0.1474
  890TIP3    H1 2676   4.912   0.167   0.719 -1.4445  2.7205 -1.6936
  890TIP3    H2 2677   4.801   0.075   0.673 -0.6174  0.8276 -0.0648
  891TIP3   OH2 2678   4.872   2.027   2.341 -0.0718 -0.1124  0.7238
  891TIP3    H1 2679   4.789   2.037   2.296  1.2638  1.5328 -1.6163
  891TIP3    H2 2680   4.910   1.946   2.306 -0.7362 -0.9724  1.9431
  892TIP3   OH2 2681   5.698   3.516   0.893  0.1336 -0.0091  0.0602
  892TIP3    H1 2682   5.725   3.552   0.809  3.7851 -1.3562  0.4638
  892TIP3    H2 2683   5.691   3.592   0.951 -1.4885  0.8274 -1.1555
  893TIP3   OH2 2684   2.987   5.539   2.450 -0.2613  0.5195  0.4916
  893TIP3    H1 2685   2.991   5.634   2.447  1.0071  0.4620 -0.5480
  893TIP3    H2 2686   2.911   5.516   2.396 -1.0092  0.9463  1.3422
  894TIP3   OH2 2687   2.331   0.525   2.157  0.0974 -0.1221  0.0175
  894TIP3    H1 2688   2.271   0.595   2.184 -1.0795 -1.2568  0.5004
  894TIP3    H2 2689   2.354   0.546   2.067 -1.8120 -0.1181 -0.5142
  895TIP3   OH2 2690   3.002   5.817   2.716 -0.0317 -0.0534  0.0052
  895TIP3    H1 2691   3.080   5.848   2.763  0.4096  1.0187 -1.3613
  895TIP3    H2 2692   2.981   5.888   2.655 -1.5153 -0.7435 -0.3302
  896TIP3   OH2 2693   5.399   5.131   0.200  0.2099 -0.4043  0.4388
  896TIP3    H1 2694   5.378   5.164   0.288 -1.5352  1.0201 -0.4623
  896TIP3    H2 2695   5.483   5.085   0.212  0.6268  0.7676  2.6114
  897TIP3   OH2 2696   1.369   5.769   1.051  0.1155 -0.1222  0.0516
  897TIP3    H1 2697   1.358   5.699   1.115  0.4460 -1.0359 -0.8693
  897TIP3    H2 2698   1.463   5.772   1.034  0.1496  0.7899  0.3348
  898TIP3   OH2 2699   0.214   1.232   2.057  0.0717 -0.3596 -0.6037
  898TIP3    H1 2700   0.265   1.193   2.129 -1.9488 -1.3183  0.3955
  898TIP3    H2 2701   0.194   1.320   2.088  0.4495 -0.2489 -0.6637
  899TIP3   OH2 2702   3.291   0.281   3.576  0.4445 -0.1434 -0.2426
  899TIP3    H1 2703   3.246   0.284   3.491  0.4358 -0.7256 -0.2660
  899TIP3    H2 2704   3.243   0.342   3.631  0.7046  0.5569 -0.7809
  900TIP3   OH2 2705   3.477   0.523   2.628 -0.0956  0.2437 -0.1898
  900TIP3    H1 2706   3.442   0.437   2.653 -1.2224  0.6907 -0.1553
  900TIP3    H2 2707   3.535   0.547   2.700  0.0791 -0.4047 -0.1073
  901TIP3   OH2 2708   4.993   0.040   2.523 -0.4879  0.3100  0.0995
  901TIP3    H1 2709   4.899   0.039   2.541 -0.7931  0.7971 -1.3442
  901TIP3    H2 2710   5.000   0.072   2.433  0.9157 -2.0185 -0.7129
  902TIP3   OH2 2711   0.064   2.884   4.508 -0.0401 -1.0182 -0.3079
  902TIP3    H1 2712   0.076   2.878   4.413 -1.5493 -2.1702 -0.4608
  902TIP3    H2 2713   0.044   2.976   4.523  1.7954 -0.4883 -0.8782
  903TIP3   OH2 2714   1.402   0.686   4.370  0.6466  0.4554  0.9415
  903TIP3    H1 2715   1.381   0.680   4.463  0.5897  0.5863  0.9385
  903TIP3    H2 2716   1.318   0.704   4.327  0.6501  0.2586  0.8498
  904TIP3   OH2 2717   2.049   0.435   4.953  0.2755 -0.1045  0.5352
  904TIP3    H1 2718   2.015   0.346   4.968 -0.8709  0.4253  1.2061
  904TIP3    H2 2719   1.981   0.477   4.900  0.9968  0.2562 -0.1110
  905TIP3   OH2 2720   5.126   5.515   1.537  0.0063  0.1119  0.5323
  905TIP3    H1 2721   5.108   5.602   1.573 -0.6095  0.5903 -0.8828
  905TIP3    H2 2722   5.131   5.529   1.443  2.0835 -1.0186  0.4213
  906TIP3   OH2 2723   1.813   1.672   4.910 -0.4816  0.0540 -0.3009
  906TIP3    H1 2724   1.837   1.625   4.830 -3.8470 -2.7355  0.0954
  906TIP3    H2 2725   1.757   1.743   4.879 -0.3234  0.0815 -0.5276
  907TIP3   OH2 2726   5.765   3.323   1.898 -0.2995  0.2803 -0.1040
  907TIP3    H1 2727   5.817   3.298   1.822  1.1420 -0.4802  1.0861
  907TIP3    H2 2728   5.684   3.272   1.889 -0.0799  0.0809 -1.0400
  908TIP3   OH2 2729   4.324   4.556   5.126 -0.2822 -0.0382 -0.2977
  908TIP3    H1 2730   4.385   4.626   5.099  0.0324  0.4642  1.5695
  908TIP3    H2 2731   4.237   4.595   5.115 -0.1159  1.9082  3.4163
  909TIP3   OH2 2732   0.254   4.166   1.928 -0.0859 -0.2998  0.6630
  909TIP3    H1 2733   0.343   4.175   1.961 -0.5346  0.7201  1.6692
  909TIP3    H2 2734   0.215   4.252   1.941 -0.4834  0.0429 -2.0755
  910TIP3   OH2 2735   1.141   2.613   3.762 -0.1255  0.2758 -0.4517
  910TIP3    H1 2736   1.174   2.548   3.824  0.0558  1.2771  0.5487
  910TIP3    H2 2737   1.098   2.679   3.818  0.2821  1.3508 -1.3685
  911TIP3   OH2 2738   4.549   2.184   4.503 -0.2784 -0.0588 -0.0511
  911TIP3    H1 2739   4.627   2.178   4.559 -0.4318 -0.9138  0.0817
  911TIP3    H2 2740   4.483   2.223   4.560  0.1270  0.9560 -0.2541
  912TIP3   OH2 2741   1.770   0.781   4.091 -0.0710 -0.0417  0.4059
  912TIP3    H1 2742   1.716   0.788   4.170  2.0120  1.5967  1.7941
  912TIP3    H2 2743   1.859   0.795   4.122  0.9035 -0.1353 -2.1517
  913TIP3   OH2 2744   0.064   1.203   0.288  0.2989 -0.6669 -0.1410
  913TIP3    H1 2745  -0.016   1.229   0.242 -0.7360 -0.7050  1.5505
  913TIP3    H2 2746   0.073   1.110   0.269  0.5562 -0.4493 -1.1828
  914TIP3   OH2 2747   1.549   0.082   1.132  0.1986  0.2497 -0.1608
  914TIP3    H1 2748   1.462   0.044   1.117  1.0110 -0.9567 -2.0998
  914TIP3    H2 2749   1.537   0.139   1.208 -2.1872 -0.2058 -0.1243
  915TIP3   OH2 2750   0.074   3.627   3.897 -0.3862 -0.0526 -0.2886
  915TIP3    H1 2751   0.027   3.570   3.836 -0.6025 -1.4672  1.1249
  915TIP3    H2 2752   0.036   3.607   3.982  2.6269 -1.2095  0.9298
  916TIP3   OH2 2753   4.618   1.024   3.191 -0.3956 -0.2007 -0.2514
  916TIP3    H1 2754   4.689   1.014   3.255  0.0851 -0.8425 -0.8682
  916TIP3    H2 2755   4.590   1.115   3.200 -3.0638 -1.1467  3.6886
  917TIP3   OH2 2756   3.231   0.080   0.148  0.3372  0.3124 -0.0038
  917TIP3    H1 2757   3.282   0.006   0.116  0.3218 -0.2869  1.3002
  917TIP3    H2 2758   3.157   0.086   0.088 -0.1603 -1.3184  0.3924
  918TIP3   OH2 2759   4.699   2.553   4.877 -0.0246  0.4094 -0.0545
  918TIP3    H1 2760   4.790   2.552   4.847  0.1162  0.1360  0.3757
  918TIP3    H2 2761   4.703   2.521   4.967 -0.6122 -0.0875 -0.1998
  919TIP3   OH2 2762   4.210   0.622   0.945 -0.2117  0.2062  0.2968
  919TIP3    H1 2763   4.282   0.567   0.974  2.1268  1.3831 -2.7605
  919TIP3    H2 2764   4.225   0.706   0.988 -0.7673 -0.0279  0.9592
  920TIP3   OH2 2765   4.996   5.936   0.336  0.5578 -0.6128 -0.5456
  920TIP3    H1 2766   5.007   6.020   0.290  0.1742 -0.9774 -1.3143
  920TIP3    H2 2767   4.947   5.959   0.415 -0.5123 -0.2573 -1.2867
  921TIP3   OH2 2768   0.719   3.037   2.935  0.3979  0.5649 -0.5597
  921TIP3    H1 2769   0.709   3.081   2.851 -0.6645 -0.1780 -0.8392
  921TIP3    H2 2770   0.795   2.979   2.923  0.1674  0.3661 -1.0479
  922TIP3   OH2 2771   4.433   1.677   2.574  0.2034 -0.1114 -0.3941
  922TIP3    H1 2772   4.528   1.661   2.572  0.1265 -0.4410 -2.3227
  922TIP3    H2 2773   4.394   1.591   2.567 -0.2507  0.1000 -0.4647
  923TIP3   OH2 2774   1.774   5.547   3.003  0.1799 -0.4522  0.0989
  923TIP3    H1 2775   1.773   5.609   3.077  2.6943  3.3235 -2.6342
  923TIP3    H2 2776   1.711   5.584   2.941  2.5896  0.2573 -2.0912
  924TIP3   OH2 2777   2.192   4.096   2.132  0.4025  0.4768  0.9157
  924TIP3    H1 2778   2.224   4.041   2.061 -0.5960  0.1710  0.6905
  924TIP3    H2 2779   2.256   4.167   2.138 -0.0004  1.0372 -0.9416
  925TIP3   OH2 2780   4.230   1.627   2.335 -0.5526  0.1793 -0.4978
  925TIP3    H1 2781   4.171   1.639   2.410 -1.2245 -1.8057 -0.6438
  925TIP3    H2 2782   4.175   1.586   2.268  0.8886 -1.4090 -0.7780
  926TIP3   OH2 2783   6.214   5.069   4.762 -0.5153 -0.1324  0.3998
  926TIP3    H1 2784   6.236   5.028   4.846 -0.6184 -0.5170  0.2383
  926TIP3    H2 2785   6.295   5.111   4.734 -0.6446  0.5493  1.0034
  927TIP3   OH2 2786   1.496   2.278   4.906 -0.3143 -0.2386 -0.1979
  927TIP3    H1 2787   1.441   2.230   4.844 -2.3070  1.4480  0.1224
  927TIP3    H2 2788   1.528   2.212   4.967 -2.5016 -1.2784 -0.0802
  928TIP3   OH2 2789   6.268   5.538   1.929  0.3993  0.0269 -0.5408
  928TIP3    H1 2790   6.298   5.475   1.863 -0.3279 -1.3622  0.3902
  928TIP3    H2 2791   6.329   5.611   1.922 -0.5766  0.6852 -3.8296
  929TIP3   OH2 2792   4.911   0.082   4.982  0.3280 -0.1547  0.2704
  929TIP3    H1 2793   4.959   0.001   4.966  0.2290 -0.0675 -0.5051
  929TIP3    H2 2794   4.976   0.140   5.022  0.9813  0.0773 -1.0882
  930TIP3   OH2 2795   1.849   1.875   2.702  0.0480  0.2229  0.2886
  930TIP3    H1 2796   1.768   1.887   2.751 -0.2260  0.3794 -0.1927
  930TIP3    H2 2797   1.861   1.958   2.655  0.9185  0.5067  0.9824
  931TIP3   OH2 2798   4.369   1.588   3.141 -0.7713  0.5728  0.1227
  931TIP3    H1 2799   4.434   1.630   3.085 -0.3332  2.1854  1.7425
  931TIP3    H2 2800   4.402   1.499   3.154 -0.1933  0.6021 -1.0573
  932TIP3   OH2 2801   3.342   5.155   2.570  0.0754  0.1469 -0.0690
  932TIP3    H1 2802   3.373   5.067   2.591  0.7057  0.2809 -0.3934
  932TIP3    H2 2803   3.405   5.187   2.505  0.2924  1.1160  0.5956
  933TIP3   OH2 2804   3.424   4.035   1.975  0.5605 -0.3017 -0.4155
  933TIP3    H1 2805   3.406   4.106   2.036  0.9321  0.7353 -1.4827
  933TIP3    H2 2806   3.511   4.004   1.999  0.2206 -0.7171  0.3330
  934TIP3   OH2 2807   5.039   5.765   4.229  0.1988  0.5562  0.0186
  934TIP3    H1 2808   5.041   5.857   4.257 -0.2459  0.3993  0.5714
  934TIP3    H2 2809   5.109   5.759   4.164 -0.6736  1.6375 -1.1034
  935TIP3   OH2 2810   5.798   5.892   4.223  0.3158  0.4852 -0.4689
  935TIP3    H1 2811   5.790   5.957   4.292 -0.7140 -1.6288  1.5342
  935TIP3    H2 2812   5.890   5.895   4.197  0.1642  3.0982 -0.9071
  936TIP3   OH2 2813   0.037   3.645   2.182 -0.3429 -0.6127 -0.0815
  936TIP3    H1 2814   0.045   3.740   2.171 -0.9394 -0.5158  0.2925
  936TIP3    H2 2815   0.082   3.627   2.265 -0.7857 -0.5713  0.1665
  937TIP3   OH2 2816   5.327   0.688   1.437 -0.6552  0.1339  0.4282
  937TIP3    H1 2817   5.282   0.727   1.511  0.1583  1.0630  0.4495
  937TIP3    H2 2818   5.314   0.749   1.365 -1.6965 -0.9090 -0.2977
  938TIP3   OH2 2819   2.419   1.449   0.901 -0.1076 -0.0322 -0.4056
  938TIP3    H1 2820   2.365   1.528   0.894  0.9009  0.7986  0.7427
  938TIP3    H2 2821   2.509   1.481   0.895  0.3061 -1.1634 -0.4387
  939TIP3   OH2 2822   4.371   4.947   2.093  0.2424 -0.4000  0.0432
  939TIP3    H1 2823   4.287   4.989   2.077  0.5607  0.6457  0.9810
  939TIP3    H2 2824   4.424   4.968   2.015 -0.1138 -0.4155 -0.2036
  940TIP3   OH2 2825   3.022   3.361   3.215  0.4107  0.1577  0.3549
  940TIP3    H1 2826   3.015   3.351   3.310  0.3829  2.0975  0.5964
  940TIP3    H2 2827   2.989   3.449   3.197  3.5794  1.2165 -1.0527
  941TIP3   OH2 2828   5.022   4.953   3.074 -0.8726  0.0452 -0.1112
  941TIP3    H1 2829   4.962   4.937   3.001  0.0780  0.7182 -1.0543
  941TIP3    H2 2830   5.023   5.048   3.084 -0.4821 -0.0035  0.3423
  942TIP3   OH2 2831   4.474   3.753   0.277  0.4995  0.4210 -0.4357
  942TIP3    H1 2832   4.534   3.733   0.205 -0.8703  0.4321 -1.6143
  942TIP3    H2 2833   4.457   3.847   0.269  2.8354  1.2109  1.9306
  943TIP3   OH2 2834   6.131   1.912   1.940 -0.1555 -0.2844  0.0358
  943TIP3    H1 2835   6.070   1.856   1.988 -0.3058  0.8499  1.2420
  943TIP3    H2 2836   6.079   1.951   1.870 -0.4885 -0.3277  0.2596
  944TIP3   OH2 2837   0.821   2.205   4.887  0.0921  0.2194 -0.0819
  944TIP3    H1 2838   0.809   2.293   4.921 -2.2718  0.1382 -0.5049
  944TIP3    H2 2839   0.875   2.216   4.809  0.3581  1.1923  0.2297
  945TIP3   OH2 2840   0.965   1.028   4.554  0.3298  0.0747  0.1303
  945TIP3    H1 2841   0.914   1.067   4.625  0.9690  0.8923  0.1472
  945TIP3    H2 2842   0.914   1.044   4.475 -0.7516 -1.4782  0.4608
  946TIP3   OH2 2843   2.797   2.261   4.352  0.0407 -0.3255 -0.4393
  946TIP3    H1 2844   2.842   2.268   4.268 -2.0516  1.0836 -1.5233
  946TIP3    H2 2845   2.803   2.349   4.390 -1.7125 -0.0846 -0.6276
  947TIP3   OH2 2846   4.190   4.278   4.863 -0.5183  0.1726  0.2035
  947TIP3    H1 2847   4.119   4.336   4.891 -0.7836  0.0023 -0.1079
  947TIP3    H2 2848   4.206   4.221   4.939 -1.4721 -0.5217 -0.0979
  948TIP3   OH2 2849   1.533   2.829   1.993 -0.4803 -0.2644 -0.1603
  948TIP3    H1 2850   1.620   2.861   1.966 -0.3782 -0.2153  0.2101
  948TIP3    H2 2851   1.502   2.777   1.919  0.3728 -1.2676  0.1603
  949TIP3   OH2 2852   3.967   5.564   2.796 -0.0959 -0.4505  0.3538
  949TIP3    H1 2853   4.013   5.521   2.724 -0.9627  1.8912 -1.7947
  949TIP3    H2 2854   3.880   5.582   2.760 -1.0052 -0.3087  2.4852
  950TIP3   OH2 2855   6.084   5.628   3.115  0.1078  0.2545  0.2636
  950TIP3    H1 2856   6.114   5.713   3.083  0.5427 -0.6324 -1.7674
  950TIP3    H2 2857   6.009   5.606   3.059 -0.0818 -0.6544  0.8481
  951TIP3   OH2 2858   0.441   1.529   1.323  0.0459 -0.0924  0.3678
  951TIP3    H1 2859   0.468   1.493   1.408  0.9695  2.3124  1.1766
  951TIP3    H2 2860   0.517   1.517   1.267  0.3281  0.5142  0.6156
  952TIP3   OH2 2861   2.284   0.509   0.696  0.1212  0.6042 -0.0036
  952TIP3    H1 2862   2.339   0.586   0.681  1.3648 -0.3185 -0.2938
  952TIP3    H2 2863   2.290   0.458   0.615 -1.3536  0.5820 -0.1272
  953TIP3   OH2 2864   3.200   2.956   0.154 -0.6221  0.0605  0.2531
  953TIP3    H1 2865   3.224   3.049   0.154 -1.9216  0.4695 -1.8709
  953TIP3    H2 2866   3.203   2.931   0.062 -2.4046 -1.4289  0.5377
  954TIP3   OH2 2867   3.529   4.406   0.982 -0.3818  0.3957  0.6127
  954TIP3    H1 2868   3.511   4.329   1.036 -1.5682  0.3231  0.1499
  954TIP3    H2 2869   3.617   4.392   0.949 -0.6582 -0.8832  0.3652
  955TIP3   OH2 2870   0.247   4.046   2.739  0.8429 -0.3618 -0.2804
  955TIP3    H1 2871   0.320   4.039   2.800  0.4190  3.0308  0.8247
  955TIP3    H2 2872   0.169   4.048   2.795  0.3907  1.9621 -0.8860
  956TIP3   OH2 2873   5.504   2.564   1.543  0.7170  0.1793  0.5123
  956TIP3    H1 2874   5.434   2.615   1.583  1.3945 -0.4683  2.6546
  956TIP3    H2 2875   5.459   2.507   1.481 -0.3672  1.3489  0.1827
  957TIP3   OH2 2876   0.933   1.077   1.523  0.1322  0.7385  0.0316
  957TIP3    H1 2877   0.896   0.996   1.489  2.2710 -0.4938  0.4645
  957TIP3    H2 2878   0.948   1.131   1.446 -0.9182  0.5676 -0.3064
  958TIP3   OH2 2879   6.258   4.969   1.036 -0.1305 -0.1361 -0.1915
  958TIP3    H1 2880   6.284   5.028   0.965 -0.3152 -1.5906 -1.5257
  958TIP3    H2 2881   6.340   4.947   1.079  0.1345 -0.1127 -0.6704
  959TIP3   OH2 2882   4.063   4.637   2.169  0.3549 -0.6130  0.6573
  959TIP3    H1 2883   3.991   4.700   2.162  1.5567  0.8518  0.9900
  959TIP3    H2 2884   4.091   4.623   2.079  1.3329  0.8817  0.6941
  960TIP3   OH2 2885   2.858   2.850   2.709 -0.2802  0.1035  0.5701
  960TIP3    H1 2886   2.924   2.782   2.726  1.1971  1.1491 -0.7930
  960TIP3    H2 2887   2.871   2.914   2.779 -0.0782  0.1534  0.4860
  961TIP3   OH2 2888   3.191   2.556   1.245 -0.7834 -0.7665  0.3846
  961TIP3    H1 2889   3.280   2.589   1.260 -0.6219 -0.4254 -1.1034
  961TIP3    H2 2890   3.202   2.491   1.175 -1.6079 -1.2792  0.7246
  962TIP3   OH2 2891   3.293   1.450   3.385  0.9144 -0.2054 -0.1478
  962TIP3    H1 2892   3.215   1.403   3.415  0.5305  1.7931  2.4160
  962TIP3    H2 2893   3.353   1.445   3.460  1.7159  1.4260 -0.6367
  963TIP3   OH2 2894   2.757   5.688   4.019 -0.1544  0.0129  0.2663
  963TIP3    H1 2895   2.850   5.683   3.996 -0.0830 -3.2248  0.8255
  963TIP3    H2 2896   2.711   5.683   3.935  0.1742 -0.0206  0.0867
  964TIP3   OH2 2897   4.298   4.096   1.286 -0.3208 -0.1815 -0.1391
  964TIP3    H1 2898   4.316   4.101   1.192 -0.4736 -1.9595 -0.3112
  964TIP3    H2 2899   4.338   4.174   1.323 -0.8681  0.9208 -1.7674
  965TIP3   OH2 2900   5.045   5.296   4.071 -0.2781 -0.4433  0.2258
  965TIP3    H1 2901   5.012   5.300   4.161 -2.3926 -0.5754 -0.4875
  965TIP3    H2 2902   5.077   5.207   4.061 -0.4023 -0.5442  0.7123
  966TIP3   OH2 2903   0.178   5.008   3.473 -0.4707 -0.2649  0.3990
  966TIP3    H1 2904   0.213   5.043   3.555  1.2855 -1.5812  0.2716
  966TIP3    H2 2905   0.252   5.010   3.413 -1.5870  0.1660 -1.0282
  967TIP3   OH2 2906   2.613   5.544   2.273  0.3014 -0.2461  0.2062
  967TIP3    H1 2907   2.529   5.589   2.268  0.3825 -0.1547 -0.5689
  967TIP3    H2 2908   2.605   5.471   2.212  0.1871 -1.2809  1.4246
  968TIP3   OH2 2909   2.735   0.809   0.751  0.5639 -0.4955  0.6539
  968TIP3    H1 2910   2.808   0.788   0.692  1.2521 -0.5403  1.5046
  968TIP3    H2 2911   2.658   0.811   0.694  1.2964  0.0508 -0.3572
  969TIP3   OH2 2912   0.798   2.184   3.307  1.0857  0.5822 -0.1490
  969TIP3    H1 2913   0.709   2.181   3.273  0.5780  1.3391  1.0576
  969TIP3    H2 2914   0.838   2.260   3.266  0.9586  0.6330 -0.1770
  970TIP3   OH2 2915   1.124   0.396   2.358  0.7312 -0.2467  0.1635
  970TIP3    H1 2916   1.039   0.362   2.387  1.0042 -1.5160 -0.4359
  970TIP3    H2 2917   1.172   0.412   2.439  0.3022 -0.5425  0.4849
  971TIP3   OH2 2918   3.336   1.974   3.396 -0.2014  0.2267  0.3273
  971TIP3    H1 2919   3.248   1.964   3.357  0.2207 -1.5585 -0.2631
  971TIP3    H2 2920   3.354   1.890   3.436  2.0817 -0.1858 -1.3651
  972TIP3   OH2 2921   4.049   0.300  -0.021  0.0705  0.2005  0.3036
  972TIP3    H1 2922   3.986   0.370  -0.004  1.5478  1.4645  0.8144
  972TIP3    H2 2923   4.022   0.228   0.036  0.0339  1.3339  1.7682
  973TIP3   OH2 2924   3.050   4.555   2.645  1.2383 -0.3937 -0.0902
  973TIP3    H1 2925   3.059   4.476   2.699  2.3871  0.5724  1.1918
  973TIP3    H2 2926   3.026   4.521   2.559  1.7915 -2.1650  0.3950
  974TIP3   OH2 2927   5.362   3.544   3.073  0.2564 -0.0447 -0.6279
  974TIP3    H1 2928   5.456   3.553   3.052  0.7364 -0.0454  1.3236
  974TIP3    H2 2929   5.361   3.520   3.166 -1.6806 -0.6753 -0.7851
  975TIP3   OH2 2930   4.469   2.158   1.471  0.6966  0.3546 -0.1084
  975TIP3    H1 2931   4.563   2.153   1.489  0.5433 -0.2265  0.5671
  975TIP3    H2 2932   4.452   2.084   1.413  0.1416 -1.4450  2.2010
  976TIP3   OH2 2933   4.169   3.153   1.882 -0.2003  0.4274  0.2782
  976TIP3    H1 2934   4.137   3.237   1.849 -0.2271  0.3640  0.1445
  976TIP3    H2 2935   4.146   3.090   1.814 -1.5723  0.0484  1.0450
  977TIP3   OH2 2936   5.303   4.109   2.791 -0.3977  0.1899  0.0221
  977TIP3    H1 2937   5.236   4.164   2.750 -0.2621  0.9417  0.7807
  977TIP3    H2 2938   5.357   4.170   2.842 -0.5360 -0.6935  1.2823
  978TIP3   OH2 2939   2.161   4.334   1.051 -0.1835  0.2937  0.2298
  978TIP3    H1 2940   2.105   4.267   1.091  0.1319 -0.3707 -0.4108
  978TIP3    H2 2941   2.250   4.302   1.065 -0.0276  0.6357  0.0202
  979TIP3   OH2 2942   4.580   0.080   0.353 -0.2636 -0.0940 -0.0696
  979TIP3    H1 2943   4.605   0.074   0.261 -1.3003 -0.8724 -0.3189
  979TIP3    H2 2944   4.618   0.163   0.383 -0.1915  0.3316 -1.2851
  980TIP3   OH2 2945   0.967   3.679   2.529 -0.6381  0.4915 -0.1985
  980TIP3    H1 2946   1.010   3.762   2.547 -0.8824  0.4821  0.4722
  980TIP3    H2 2947   0.930   3.652   2.614  0.8056 -1.0706 -0.0112
  981TIP3   OH2 2948   2.140   5.169   1.264 -0.1707 -0.1567 -0.3277
  981TIP3    H1 2949   2.133   5.097   1.327  1.9586 -1.1210 -1.0742
  981TIP3    H2 2950   2.133   5.248   1.317 -0.2691 -0.9277  0.8509
  982TIP3   OH2 2951   5.574   1.248   2.435  0.2731  0.2975  0.2720
  982TIP3    H1 2952   5.491   1.213   2.468 -1.3690  0.7510 -2.9927
  982TIP3    H2 2953   5.554   1.337   2.408  1.8866  0.4960 -0.3911
  983TIP3   OH2 2954   5.515   3.303   0.253  0.2595 -0.1440 -0.1143
  983TIP3    H1 2955   5.447   3.255   0.205  0.6125 -1.5968  0.7851
  983TIP3    H2 2956   5.529   3.251   0.332  0.6922  1.4422  0.8857
  984TIP3   OH2 2957   0.972   4.398   0.790 -0.2060 -0.2850  0.6153
  984TIP3    H1 2958   1.060   4.425   0.816 -0.2377  1.2123 -0.6845
  984TIP3    H2 2959   0.921   4.404   0.871  0.3054  1.4821  0.8538
  985TIP3   OH2 2960   2.736   3.754   5.134 -0.1578 -0.1472 -0.1337
  985TIP3    H1 2961   2.736   3.665   5.099 -1.2044  0.0545 -0.6888
  985TIP3    H2 2962   2.774   3.808   5.065  0.1727 -0.1152  0.0718
  986TIP3   OH2 2963   4.610   3.088   4.010  0.0842  0.1301 -0.1871
  986TIP3    H1 2964   4.696   3.047   3.994 -0.1546 -0.0902 -0.9785
  986TIP3    H2 2965   4.583   3.055   4.095  1.3554  1.2100  0.6900
  987TIP3   OH2 2966   1.758   2.280   3.941  0.3073  0.0809 -0.3568
  987TIP3    H1 2967   1.682   2.303   3.993 -0.6651 -0.5099 -1.4756
  987TIP3    H2 2968   1.801   2.211   3.990  0.7634  1.1616  0.8190
  988TIP3   OH2 2969   3.782   3.658   0.895 -0.1763  0.1674  0.3538
  988TIP3    H1 2970   3.703   3.646   0.948 -0.5267  1.2013  0.0962
  988TIP3    H2 2971   3.773   3.746   0.858  1.4930  0.6681  1.0037
  989TIP3   OH2 2972   4.738   2.812   0.129  0.3973  0.4742 -0.5632
  989TIP3    H1 2973   4.701   2.749   0.067 -0.0978  1.2860 -1.1153
  989TIP3    H2 2974   4.762   2.887   0.074  3.4492 -0.2292 -0.3364
  990TIP3   OH2 2975   4.119   5.356   1.305  0.6692 -0.3432 -0.2113
  990TIP3    H1 2976   4.066   5.304   1.366  1.9656 -3.2554 -1.3830
  990TIP3    H2 2977   4.198   5.376   1.354  0.3320  0.2305  0.1135
  991TIP3   OH2 2978   1.754   3.767   3.517 -0.5824 -0.1060 -0.2932
  991TIP3    H1 2979   1.674   3.796   3.560 -0.4256  0.5921 -0.4553
  991TIP3    H2 2980   1.804   3.847   3.504 -0.4450 -0.3601 -1.3982
  992TIP3   OH2 2981   2.852   2.991   4.853 -0.0139 -0.3439 -0.5807
  992TIP3    H1 2982   2.930   3.045   4.842  0.0534 -0.3241 -0.0698
  992TIP3    H2 2983   2.881   2.920   4.910 -0.0346 -1.0674 -1.4541
  993TIP3   OH2 2984   3.552   0.438   3.778 -0.0869 -0.3781 -0.1176
  993TIP3    H1 2985   3.635   0.482   3.796 -0.6375  0.7814 -0.3193
  993TIP3    H2 2986   3.541   0.444   3.684 -0.8326  0.2871  0.0024
  994TIP3   OH2 2987   4.509   4.476   1.677  0.2494  0.5979 -0.3348
  994TIP3    H1 2988   4.507   4.508   1.587  0.0838  0.2145 -0.4703
  994TIP3    H2 2989   4.598   4.495   1.707  1.4331 -2.2311 -1.6834
  995TIP3   OH2 2990   4.935   0.971   0.781 -0.2503 -0.0583 -0.7893
  995TIP3    H1 2991   4.920   0.908   0.711 -2.5377  1.1246 -1.4587
  995TIP3    H2 2992   4.848   1.002   0.805  0.6085  0.9295  1.3378
  996TIP3   OH2 2993   5.308   1.884   3.385 -0.2580  0.1497  0.3902
  996TIP3    H1 2994   5.267   1.821   3.325 -1.0605 -1.6648  2.6766
  996TIP3    H2 2995   5.367   1.831   3.439  0.1126  1.6053  1.4844
  997TIP3   OH2 2996   3.304   2.517   3.056  0.0347 -0.6979 -0.2650
  997TIP3    H1 2997   3.225   2.465   3.070  0.4208 -1.0771  0.5256
  997TIP3    H2 2998   3.318   2.514   2.961 -0.7352 -0.8576 -0.3803
  998TIP3   OH2 2999   3.310   5.419   5.092 -0.5137  0.2688  0.6052
  998TIP3    H1 3000   3.385   5.437   5.036  0.1371 -0.7088  1.1446
  998TIP3    H2 3001   3.342   5.358   5.158 -1.2376  1.4526  2.1285
  999TIP3   OH2 3002   4.059   5.167   2.961  0.0774 -0.2232  0.3637
  999TIP3    H1 3003   4.084   5.258   2.979  0.2322 -0.4677  1.4521
  999TIP3    H2 3004   4.105   5.116   3.028  0.8514 -1.2267 -0.8721
 1000TIP3   OH2 3005   3.154   3.641   1.115  0.5886  0.4064 -0.1722
 1000TIP3    H1 3006   3.130   3.715   1.171  1.8949  0.5623  0.2219
 1000TIP3    H2 3007   3.241   3.662   1.083  0.9591 -0.9116 -0.1156
 1001TIP3   OH2 3008   3.210   0.979   3.328 -0.0874  0.2747 -0.1689
 1001TIP3    H1 3009   3.184   1.043   3.262 -0.5805 -0.4884 -0.7478
 1001TIP3    H2 3010   3.247   1.030   3.400 -1.5654  1.3023 -0.0958
 1002TIP3   OH2 3011   2.488   2.624   2.737 -0.2172 -0.4459  0.4601
 1002TIP3    H1 3012   2.542   2.677   2.679 -0.3798 -0.7951 -0.0113
 1002TIP3    H2 3013   2.531   2.632   2.823  0.4109 -0.4815  0.1534
 1003TIP3   OH2 3014   0.084   0.032   0.910 -0.6558 -0.1640  1.0112
 1003TIP3    H1 3015   0.035   0.004   0.987  0.9795 -1.3152  1.6834
 1003TIP3    H2 3016   0.160   0.077   0.945 -0.7755  0.8610  0.0056
 1004TIP3   OH2 3017   5.724   2.640   1.352  0.0440  0.5604  0.0720
 1004TIP3    H1 3018   5.748   2.730   1.374  0.6837 -0.0982  2.3598
 1004TIP3    H2 3019   5.682   2.606   1.432 -1.4070 -0.7805 -1.1939
 1005TIP3   OH2 3020   2.007   5.206   3.880  0.2455 -0.2202  0.3445
 1005TIP3    H1 3021   1.968   5.283   3.920  0.4903  0.6941 -1.1047
 1005TIP3    H2 3022   2.094   5.235   3.850  0.0364 -0.8137 -0.9150
 1006TIP3   OH2 3023   6.064   2.299   3.510 -0.6433 -0.3835  0.1225
 1006TIP3    H1 3024   6.058   2.259   3.597  0.6871 -0.5228  0.1738
 1006TIP3    H2 3025   6.031   2.232   3.450  0.9596 -1.3552  0.2739
 1007TIP3   OH2 3026   0.265   0.563   4.360 -0.0079  0.0571 -0.5527
 1007TIP3    H1 3027   0.350   0.524   4.380 -0.9391 -1.4755  0.6868
 1007TIP3    H2 3028   0.232   0.511   4.286 -0.7169 -0.7505  0.2999
 1008TIP3   OH2 3029   1.581   2.406   4.125 -0.3845 -0.3892 -0.1327
 1008TIP3    H1 3030   1.513   2.441   4.182 -0.6398  0.6585 -1.0470
 1008TIP3    H2 3031   1.663   2.429   4.168 -0.5467  1.3453 -0.6856
 1009TIP3   OH2 3032   0.833   1.775   2.766 -0.8650  0.1207 -0.2448
 1009TIP3    H1 3033   0.756   1.738   2.723 -0.6046 -0.3937 -0.2627
 1009TIP3    H2 3034   0.837   1.729   2.850 -0.4267 -0.0342 -0.3507
 1010TIP3   OH2 3035   2.793   1.970   4.469 -0.2937  0.1806 -0.5812
 1010TIP3    H1 3036   2.769   2.059   4.442 -0.5725  0.0849 -0.6486
 1010TIP3    H2 3037   2.715   1.936   4.513 -0.0510  0.1121 -0.1996
 1011TIP3   OH2 3038   4.274   2.454   0.030  0.4552 -0.4525  0.6281
 1011TIP3    H1 3039   4.337   2.526   0.040 -0.0485  0.4437 -1.7671
 1011TIP3    H2 3040   4.196   2.484   0.078  0.2592  0.6348 -0.3206
 1012TIP3   OH2 3041   1.082   4.418   3.215 -0.6319 -0.2315  0.1444
 1012TIP3    H1 3042   1.071   4.341   3.158 -0.9956 -0.2222  0.1978
 1012TIP3    H2 3043   1.176   4.434   3.217 -0.5824 -0.4912 -0.1157
 1013TIP3   OH2 3044   1.672   4.604   0.742 -0.2531  0.3807  0.5346
 1013TIP3    H1 3045   1.643   4.516   0.719  1.1669  0.0781 -0.2211
 1013TIP3    H2 3046   1.611   4.662   0.698  0.1495 -0.2291 -0.9046
 1014TIP3   OH2 3047   0.236   5.696   1.662  0.5013 -0.1847  0.0976
 1014TIP3    H1 3048   0.307   5.757   1.640  0.2383  0.0980  0.0231
 1014TIP3    H2 3049   0.275   5.609   1.651  0.6331 -0.0455 -0.6510
 1015TIP3   OH2 3050   6.088   2.497   2.370 -0.2171  0.5361  0.2687
 1015TIP3    H1 3051   6.009   2.469   2.322 -0.6681  0.0689  1.2579
 1015TIP3    H2 3052   6.059   2.574   2.419 -0.0351  0.4067  0.5754
 1016TIP3   OH2 3053   2.282   3.591   0.483  0.0031 -0.0187 -0.0663
 1016TIP3    H1 3054   2.209   3.541   0.446 -1.1825  2.3446 -1.1820
 1016TIP3    H2 3055   2.247   3.680   0.492  2.4885  1.0064  0.2196
 1017TIP3   OH2 3056   2.251   2.254   1.773  0.2717 -0.2054 -0.5040
 1017TIP3    H1 3057   2.295   2.202   1.840 -0.8516 -1.3275 -0.5952
 1017TIP3    H2 3058   2.202   2.190   1.721 -0.8371  0.9034 -0.8766
 1018TIP3   OH2 3059   1.898   3.416   0.560  0.1333 -0.3186  0.4744
 1018TIP3    H1 3060   1.849   3.345   0.601 -0.9777 -0.9902 -1.8753
 1018TIP3    H2 3061   1.926   3.381   0.476 -0.9512  2.1635 -1.0427
 1019TIP3   OH2 3062   4.179   2.501   3.986 -0.2464 -0.4221 -0.3933
 1019TIP3    H1 3063   4.249   2.566   3.993 -1.4938  0.8240  1.6313
 1019TIP3    H2 3064   4.200   2.452   3.906  2.6214  0.2007 -0.1416
 1020TIP3   OH2 3065   1.263   1.895   2.626  0.0484  1.0948 -0.5300
 1020TIP3    H1 3066   1.300   1.807   2.626 -0.4948  0.8526 -1.2612
 1020TIP3    H2 3067   1.170   1.882   2.609  0.0555  1.8377 -1.2082
 1021TIP3   OH2 3068   2.937   3.886   4.698  0.3488  0.9587  0.7175
 1021TIP3    H1 3069   2.866   3.875   4.634 -0.2080 -0.1104  1.4894
 1021TIP3    H2 3070   2.892   3.900   4.781  1.0669  3.6904  0.7206
 1022TIP3   OH2 3071   1.539   5.008   3.191 -0.1939 -0.1227 -0.2049
 1022TIP3    H1 3072   1.522   4.914   3.183 -1.5784 -0.0252  1.0992
 1022TIP3    H2 3073   1.465   5.041   3.242 -0.3729  1.9026 -1.6857
 1023TIP3   OH2 3074   4.455   5.594   4.552 -0.2588 -0.3725 -0.3688
 1023TIP3    H1 3075   4.545   5.624   4.539 -0.3243 -0.8649 -2.1967
 1023TIP3    H2 3076   4.403   5.674   4.553 -0.1909 -0.2046 -3.1006
 1024TIP3   OH2 3077   0.243   1.357   1.175  0.0954  0.3192 -0.2760
 1024TIP3    H1 3078   0.217   1.313   1.256 -0.7063  0.6590 -0.3376
 1024TIP3    H2 3079   0.303   1.426   1.203  1.0891 -0.5663 -0.1437
 1025TIP3   OH2 3080   1.638   5.325   0.940 -0.0260  0.2024  0.6584
 1025TIP3    H1 3081   1.680   5.385   1.002 -1.3458 -0.2722  2.0982
 1025TIP3    H2 3082   1.588   5.265   0.996 -0.1757 -1.1211 -0.8316
 1026TIP3   OH2 3083   2.525   2.733   2.167  0.0992  0.5595  0.4319
 1026TIP3    H1 3084   2.504   2.762   2.256  0.4898  1.1161  0.3458
 1026TIP3    H2 3085   2.571   2.650   2.179 -0.6315  0.1766  0.6982
 1027TIP3   OH2 3086   2.941   0.588   0.192  0.1191  0.2511 -0.6392
 1027TIP3    H1 3087   3.003   0.564   0.261 -3.5215  2.7004  4.0588
 1027TIP3    H2 3088   2.976   0.671   0.157 -0.1694  1.4503  1.7233
 1028TIP3   OH2 3089   4.174   5.387   1.706 -0.4383  0.3293 -0.2404
 1028TIP3    H1 3090   4.116   5.414   1.777  0.6538  0.0946  0.7690
 1028TIP3    H2 3091   4.206   5.300   1.733  0.3703  0.4514 -0.7700
 1029TIP3   OH2 3092   5.798   2.910   3.165 -0.3289  0.4783  0.1541
 1029TIP3    H1 3093   5.726   2.960   3.203 -0.9613 -2.4913  3.4046
 1029TIP3    H2 3094   5.835   2.861   3.238  1.1725 -2.6189 -2.3909
 1030TIP3   OH2 3095   3.509   4.470   0.290  0.1764 -0.2830 -0.2109
 1030TIP3    H1 3096   3.460   4.517   0.223  0.6676  1.9138  0.8757
 1030TIP3    H2 3097   3.558   4.403   0.242  0.4449  1.1513 -2.0517
 1031TIP3   OH2 3098   4.968   4.721   3.229 -0.6862  0.0712  0.4874
 1031TIP3    H1 3099   4.874   4.722   3.248 -1.1052 -1.3271 -1.2895
 1031TIP3    H2 3100   4.986   4.806   3.191 -0.5565  1.5168  3.4964
 1032TIP3   OH2 3101   1.300   5.258   2.981 -0.3817 -0.3691  0.0290
 1032TIP3    H1 3102   1.229   5.321   2.969 -0.7402 -0.6641  0.5587
 1032TIP3    H2 3103   1.256   5.176   3.003  0.0825 -0.8137 -0.6753
 1033TIP3   OH2 3104   5.118   2.775   4.785 -0.0516 -0.3421 -0.0600
 1033TIP3    H1 3105   5.183   2.833   4.824 -1.7284  0.2777  2.0090
 1033TIP3    H2 3106   5.044   2.778   4.846 -1.4107 -2.2305 -1.5071
 1034TIP3   OH2 3107   5.635   2.392   1.978  0.0371  0.0761  0.0986
 1034TIP3    H1 3108   5.593   2.410   2.062  0.4780  0.1308  0.3080
 1034TIP3    H2 3109   5.684   2.311   1.993  0.5955  0.4008  0.0699
 1035TIP3   OH2 3110   2.282   1.352   3.557  0.2181 -0.2185 -0.5483
 1035TIP3    H1 3111   2.228   1.430   3.566 -0.9771 -1.1714  1.0324
 1035TIP3    H2 3112   2.223   1.285   3.523  0.7871 -0.8717 -0.2822
 1036TIP3   OH2 3113   0.217   3.403   2.667  0.1261 -0.1462  0.1044
 1036TIP3    H1 3114   0.261   3.456   2.733  0.5391 -0.6088  0.2094
 1036TIP3    H2 3115   0.252   3.315   2.680 -0.3460 -0.3903 -0.2436
 1037TIP3   OH2 3116   4.147   5.509   3.924  0.5364  0.4638 -0.2104
 1037TIP3    H1 3117   4.126   5.450   3.996  0.0590  0.4039 -0.3900
 1037TIP3    H2 3118   4.238   5.533   3.937  1.1360 -1.3225 -0.8492
 1038TIP3   OH2 3119   2.102   4.292   3.904 -0.1811  0.0303  0.1191
 1038TIP3    H1 3120   2.051   4.372   3.887 -0.2727  0.2309  1.2573
 1038TIP3    H2 3121   2.192   4.317   3.885 -0.2250  0.3636  0.3383
 1039TIP3   OH2 3122   0.896   0.050   4.209 -0.3018  0.1286  0.0143
 1039TIP3    H1 3123   0.876   0.121   4.149 -1.6779  0.1663  0.4863
 1039TIP3    H2 3124   0.959   0.088   4.271  0.0893  0.4849 -0.5979
 1040TIP3   OH2 3125   0.621   1.583   2.478 -0.0196 -0.3041 -1.0013
 1040TIP3    H1 3126   0.585   1.544   2.558 -3.1461  0.0512 -2.1030
 1040TIP3    H2 3127   0.599   1.676   2.485  1.2846  0.0679 -1.5067
 1041TIP3   OH2 3128   4.473   5.967   0.567  0.4686  0.3305 -0.1153
 1041TIP3    H1 3129   4.412   6.039   0.583 -1.0632 -0.4766 -1.8767
 1041TIP3    H2 3130   4.439   5.925   0.488  1.8093 -1.8038  0.3741
 1042TIP3   OH2 3131   4.333   5.938   3.900 -0.2443 -0.5945 -0.0563
 1042TIP3    H1 3132   4.269   5.895   3.956 -0.8443  1.1213  0.6569
 1042TIP3    H2 3133   4.368   5.869   3.845 -3.5027 -1.4460 -1.2590
 1043TIP3   OH2 3134   5.019   5.154   3.620  0.7866  0.6035  0.0670
 1043TIP3    H1 3135   5.040   5.246   3.636  0.0945  0.6093  1.0226
 1043TIP3    H2 3136   4.946   5.135   3.679  1.8425 -0.9406  0.9728
 1044TIP3   OH2 3137   2.265   3.637   1.253  0.0311  0.4171  0.5903
 1044TIP3    H1 3138   2.225   3.599   1.331 -0.5410  1.4846  0.8333
 1044TIP3    H2 3139   2.191   3.657   1.195  0.3825  0.4018  0.1322
 1045TIP3   OH2 3140   5.643   2.555   3.093 -0.0522 -0.5410  0.2524
 1045TIP3    H1 3141   5.691   2.494   3.037 -0.0408 -0.6740  0.4080
 1045TIP3    H2 3142   5.603   2.617   3.031  0.0558 -0.6186  0.1039
 1046TIP3   OH2 3143   2.593   4.198   1.283 -0.1020 -0.1880 -0.5723
 1046TIP3    H1 3144   2.545   4.250   1.218  1.3879  0.0521 -1.5512
 1046TIP3    H2 3145   2.528   4.174   1.348 -0.9923  2.4171 -0.3897
 1047TIP3   OH2 3146   4.334   2.905   1.940 -0.4579  0.1028 -0.2975
 1047TIP3    H1 3147   4.347   2.862   1.856 -1.0671 -0.9156  0.1082
 1047TIP3    H2 3148   4.306   2.835   1.999  0.0185  0.7808  0.7728
 1048TIP3   OH2 3149   4.414   3.484   4.751  0.4739  0.2737  0.1939
 1048TIP3    H1 3150   4.347   3.483   4.819 -0.0828  2.6900 -0.2132
 1048TIP3    H2 3151   4.404   3.400   4.706  0.1473 -0.9256  2.3681
 1049TIP3   OH2 3152   1.393   2.766   5.123  0.1505  0.4781 -0.0333
 1049TIP3    H1 3153   1.313   2.817   5.109  0.8246  1.8902  1.0480
 1049TIP3    H2 3154   1.447   2.822   5.179  1.8129 -0.5356 -0.5817
 1050TIP3   OH2 3155   0.358   5.180   4.525  0.0858 -0.1639  0.1114
 1050TIP3    H1 3156   0.263   5.171   4.532 -0.2107  2.2765 -0.0046
 1050TIP3    H2 3157   0.373   5.208   4.435  0.8234  0.3436  0.3843
 1051TIP3   OH2 3158   3.118   1.905   4.604 -0.0286  0.1960  0.2536
 1051TIP3    H1 3159   3.038   1.936   4.560  0.5796  0.0667 -0.9607
 1051TIP3    H2 3160   3.189   1.940   4.552  0.7202 -0.0703  1.0785
 1052TIP3   OH2 3161   6.089   2.804   5.111  0.6444 -0.0645 -0.5533
 1052TIP3    H1 3162   6.108   2.738   5.045 -1.4945 -1.5650  0.2455
 1052TIP3    H2 3163   6.014   2.852   5.077 -0.7045 -1.0799  0.8505
 1053TIP3   OH2 3164   1.364   2.520   1.365  0.0754  0.2754  0.2579
 1053TIP3    H1 3165   1.288   2.532   1.423 -0.2728 -0.0321 -0.1239
 1053TIP3    H2 3166   1.403   2.607   1.358  0.2760  0.2637  1.1630
 1054TIP3   OH2 3167   3.550   3.811   4.467  0.3462  0.2899  0.3286
 1054TIP3    H1 3168   3.584   3.898   4.446 -0.7688  0.3287 -1.5456
 1054TIP3    H2 3169   3.456   3.825   4.483  0.2732 -0.4937  0.6338
 1055TIP3   OH2 3170   6.026   2.139   3.738  0.2133 -0.4506  0.1629
 1055TIP3    H1 3171   6.117   2.110   3.741  0.6572  0.8594  0.3984
 1055TIP3    H2 3172   5.978   2.072   3.786  0.9447 -1.5178 -0.5617
 1056TIP3   OH2 3173   0.080   1.655   0.549 -0.2384  0.4174  0.0207
 1056TIP3    H1 3174   0.097   1.587   0.483 -0.6426  1.4191 -1.1485
 1056TIP3    H2 3175   0.031   1.722   0.502 -0.1583  1.3653  1.2512
 1057TIP3   OH2 3176   2.362   4.405   2.576 -0.0142  0.2704 -0.0140
 1057TIP3    H1 3177   2.305   4.381   2.502  0.5063 -1.2488  0.0309
 1057TIP3    H2 3178   2.382   4.321   2.618  0.6036  0.9995  1.1907
 1058TIP3   OH2 3179   3.335   4.763   0.739  0.3828 -0.1294  0.8609
 1058TIP3    H1 3180   3.324   4.688   0.681  0.8610  0.0495  0.5346
 1058TIP3    H2 3181   3.249   4.773   0.782 -0.7637  1.1788 -1.5537
 1059TIP3   OH2 3182   2.133   0.508   1.387 -0.0694  0.4636  0.7618
 1059TIP3    H1 3183   2.040   0.494   1.373  0.1568 -0.4816  0.0732
 1059TIP3    H2 3184   2.170   0.515   1.299  0.8132 -1.4709  0.9193
 1060TIP3   OH2 3185   4.268   0.945   3.571 -0.0969 -0.3493 -0.4526
 1060TIP3    H1 3186   4.350   0.986   3.543  0.3815  2.0598  3.5284
 1060TIP3    H2 3187   4.200   1.008   3.548  0.2919  1.6118  2.9891
 1061TIP3   OH2 3188   0.896   0.120   3.113  0.6320 -0.0254  0.0551
 1061TIP3    H1 3189   0.937   0.136   3.028  0.6327 -0.4535 -0.0241
 1061TIP3    H2 3190   0.901   0.026   3.125  0.8591  0.0591  0.6494
 1062TIP3   OH2 3191   0.787   2.927   0.235 -0.5315  0.0845  0.0983
 1062TIP3    H1 3192   0.828   2.854   0.281 -1.4995 -0.3283  0.3461
 1062TIP3    H2 3193   0.795   2.905   0.142  0.3377  0.3160  0.1093
 1063TIP3   OH2 3194   0.518   4.626   2.564 -0.5125  0.3641  0.2415
 1063TIP3    H1 3195   0.482   4.540   2.586  0.2498 -0.2214 -0.7031
 1063TIP3    H2 3196   0.600   4.607   2.518 -1.0270  1.5387 -1.2600
 1064TIP3   OH2 3197   3.129   0.010   4.431  0.4644  0.6343 -0.3076
 1064TIP3    H1 3198   3.191   0.075   4.467  0.7116  0.4083 -0.3241
 1064TIP3    H2 3199   3.148  -0.070   4.480  0.0665  0.6060 -0.1949
 1065TIP3   OH2 3200   5.489   1.581   4.306 -0.1065  0.1920  0.1528
 1065TIP3    H1 3201   5.581   1.587   4.329 -0.3197 -0.8022  1.3736
 1065TIP3    H2 3202   5.474   1.488   4.291 -0.7316  0.4445 -0.8904
 1066TIP3   OH2 3203   3.359   1.108   2.086 -0.1268 -0.0814  0.0451
 1066TIP3    H1 3204   3.351   1.033   2.145 -0.6985  0.6494  0.9225
 1066TIP3    H2 3205   3.272   1.116   2.045 -0.8733  1.5595  1.7993
 1067TIP3   OH2 3206   6.155   5.451   0.289  0.0102  0.1253  0.0307
 1067TIP3    H1 3207   6.118   5.526   0.336 -0.1235  0.9307 -1.3003
 1067TIP3    H2 3208   6.101   5.377   0.316  1.3629  0.0477  2.9142
 1068TIP3   OH2 3209   0.948   4.692   3.500 -0.6896 -0.3228  0.9237
 1068TIP3    H1 3210   0.976   4.604   3.525 -0.4550 -0.4877  0.0975
 1068TIP3    H2 3211   0.995   4.751   3.560 -0.0127 -0.6997  0.7692
 1069TIP3   OH2 3212   5.482   2.156   4.719  0.2843 -0.5173  0.5928
 1069TIP3    H1 3213   5.443   2.156   4.806 -0.0287 -2.2009  0.4814
 1069TIP3    H2 3214   5.419   2.109   4.664  0.5570  0.3646 -0.5209
 1070TIP3   OH2 3215   4.673   2.671   1.317  0.3241 -0.3229 -0.2092
 1070TIP3    H1 3216   4.740   2.683   1.249 -1.1682  0.4015 -1.6347
 1070TIP3    H2 3217   4.595   2.644   1.268 -0.7489  0.0498  1.2452
 1071TIP3   OH2 3218   6.214   2.148   2.458 -0.0124 -0.0760 -0.3990
 1071TIP3    H1 3219   6.150   2.103   2.403  0.6643  0.4813 -1.6674
 1071TIP3    H2 3220   6.280   2.082   2.478  0.3366  0.0191 -1.2234
 1072TIP3   OH2 3221   2.698   1.070   2.445 -0.4484  0.5515 -0.0644
 1072TIP3    H1 3222   2.622   1.016   2.425  0.5214 -1.2503  0.9493
 1072TIP3    H2 3223   2.661   1.150   2.483 -2.0112  1.5797 -3.3645
 1073TIP3   OH2 3224   0.657   0.067   0.972 -0.3147  0.0913 -0.3646
 1073TIP3    H1 3225   0.636   0.038   1.061  0.9845  1.7334  0.5524
 1073TIP3    H2 3226   0.573   0.094   0.935 -1.0069 -1.4361  0.0205
 1074TIP3   OH2 3227   4.954   1.061   1.192 -0.6387 -0.6221  0.1062
 1074TIP3    H1 3228   4.864   1.083   1.166 -0.0012  0.7532 -1.1211
 1074TIP3    H2 3229   4.991   1.144   1.223  0.3128 -1.0922  0.2668
 1075TIP3   OH2 3230   1.036   2.397   3.519  0.8303  0.0529  0.1194
 1075TIP3    H1 3231   1.121   2.437   3.500  0.2117  1.0348 -0.7617
 1075TIP3    H2 3232   0.973   2.469   3.508  0.1072  0.1094  3.5729
 1076TIP3   OH2 3233   2.776   4.490   0.662 -0.4566 -0.2074 -0.7959
 1076TIP3    H1 3234   2.789   4.585   0.657  0.7880  0.3923  5.6368
 1076TIP3    H2 3235   2.683   4.479   0.681 -0.3116 -0.0479  0.0563
 1077TIP3   OH2 3236   1.325   5.027   1.334 -0.2821  0.5026 -0.0242
 1077TIP3    H1 3237   1.398   4.993   1.282  1.7895  1.8001  1.8394
 1077TIP3    H2 3238   1.269   5.071   1.270  1.7696  1.4020 -1.3195
 1078TIP3   OH2 3239   5.101   3.724   2.955  0.3188  0.3203  0.1011
 1078TIP3    H1 3240   5.045   3.731   3.032 -0.3208  0.8967 -0.3963
 1078TIP3    H2 3241   5.060   3.782   2.891  0.9589  0.0144 -0.6002
 1079TIP3   OH2 3242   5.477   0.484   2.657  0.9472  0.0410 -0.1926
 1079TIP3    H1 3243   5.428   0.565   2.646  0.8827  0.0059 -0.1624
 1079TIP3    H2 3244   5.431   0.437   2.727  0.8035 -0.1568 -0.4182
 1080TIP3   OH2 3245   3.076   5.964   4.874  0.0668 -0.0858  0.4335
 1080TIP3    H1 3246   3.036   5.887   4.835 -1.4443  1.3274 -0.9110
 1080TIP3    H2 3247   3.157   5.976   4.825 -0.0317 -0.4013  0.1911
 1081TIP3   OH2 3248   3.597   0.903   2.541 -0.4732 -0.2171  0.1283
 1081TIP3    H1 3249   3.669   0.966   2.539 -1.6931  1.2201 -0.6826
 1081TIP3    H2 3250   3.578   0.893   2.634  0.6943 -0.5455  0.3495
 1082TIP3   OH2 3251   3.150   1.622   2.919 -0.4403  0.4353  0.3777
 1082TIP3    H1 3252   3.099   1.668   2.852  0.4365  2.2019  0.8494
 1082TIP3    H2 3253   3.240   1.624   2.886 -0.2233  0.0118  0.9269
 1083TIP3   OH2 3254   0.673   2.057   2.029  0.1403 -0.2226 -0.2181
 1083TIP3    H1 3255   0.716   2.002   1.964 -1.6098 -0.7365 -0.9940
 1083TIP3    H2 3256   0.665   2.002   2.106 -1.7203 -1.1765 -1.0332
 1084TIP3   OH2 3257   5.104   3.969   1.400  0.1600 -0.0268  0.4366
 1084TIP3    H1 3258   5.123   3.967   1.494  1.7388  1.0743  0.1838
 1084TIP3    H2 3259   5.069   3.882   1.381 -1.1824  0.0693  2.2074
 1085TIP3   OH2 3260   1.317   3.163   2.047  0.2295  0.5574  0.1166
 1085TIP3    H1 3261   1.345   3.248   2.080  1.5243  0.0268  0.4418
 1085TIP3    H2 3262   1.386   3.103   2.073 -0.4721 -0.5371 -0.4482
 1086TIP3   OH2 3263   2.904   1.176   3.468 -0.1945 -0.4771 -0.0471
 1086TIP3    H1 3264   2.862   1.175   3.382 -1.5254  3.8026  0.3206
 1086TIP3    H2 3265   2.840   1.137   3.527 -0.8327 -0.0494 -0.4558
 1087TIP3   OH2 3266   0.362   0.018   4.016  0.3511 -0.7646  0.0897
 1087TIP3    H1 3267   0.290  -0.019   3.965 -0.4148 -1.3671  1.5362
 1087TIP3    H2 3268   0.394   0.092   3.964 -0.4529 -1.2835 -1.1814
 1088TIP3   OH2 3269   5.571   2.098   2.211 -0.0535 -0.2930  0.4738
 1088TIP3    H1 3270   5.572   2.055   2.126 -1.2095  1.5211 -0.5325
 1088TIP3    H2 3271   5.649   2.153   2.211 -0.1262 -0.1899  0.5308
 1089TIP3   OH2 3272   0.788   2.675   4.037  0.4246 -0.3905 -0.1274
 1089TIP3    H1 3273   0.816   2.662   4.128  1.1149 -1.3009 -0.4451
 1089TIP3    H2 3274   0.747   2.592   4.013  0.9029 -0.4255 -0.8628
 1090TIP3   OH2 3275   4.107   1.624   3.107 -0.2947 -0.0256 -0.1902
 1090TIP3    H1 3276   4.196   1.599   3.131 -0.4708 -0.7785 -0.3033
 1090TIP3    H2 3277   4.054   1.603   3.184 -0.4212  0.1659 -0.2234
 1091TIP3   OH2 3278   2.983   1.949   0.045 -0.3266 -0.5733  0.3534
 1091TIP3    H1 3279   2.944   1.965  -0.041 -1.9626 -0.9143  0.9975
 1091TIP3    H2 3280   3.060   1.895   0.027 -1.3948 -1.7800 -0.7920
 1092TIP3   OH2 3281   5.370   2.702   0.182  0.1260  0.0501  0.4851
 1092TIP3    H1 3282   5.317   2.751   0.246  0.5128  0.5001  0.4634
 1092TIP3    H2 3283   5.306   2.648   0.135 -0.4455  1.2337 -0.1342
 1093TIP3   OH2 3284   5.586   1.735   1.488  0.6333  0.0788 -0.2987
 1093TIP3    H1 3285   5.681   1.725   1.475  0.9991  0.8153  1.5402
 1093TIP3    H2 3286   5.574   1.828   1.509 -0.2324 -0.3650  1.3250
 1094TIP3   OH2 3287   1.016   3.149   4.101  0.9197  0.1036  0.4408
 1094TIP3    H1 3288   1.087   3.179   4.158  1.7641 -1.4277  0.2704
 1094TIP3    H2 3289   1.060   3.107   4.028 -0.1514 -0.7391  0.2409
 1095TIP3   OH2 3290   2.113   0.657   1.671  0.5095  0.2740  0.0400
 1095TIP3    H1 3291   2.184   0.638   1.609  0.0354 -2.1945  0.1498
 1095TIP3    H2 3292   2.148   0.630   1.756  0.3653  1.5803  0.5358
 1096TIP3   OH2 3293   5.751   5.507   1.259  0.4163  0.2827  0.6220
 1096TIP3    H1 3294   5.686   5.515   1.188  0.1392  1.9108  1.0132
 1096TIP3    H2 3295   5.752   5.414   1.280 -1.4075  0.1303  0.2227
 1097TIP3   OH2 3296   1.973   3.592   2.454 -0.5900 -0.0346  0.2950
 1097TIP3    H1 3297   2.003   3.517   2.401 -0.0590  0.5016 -0.1745
 1097TIP3    H2 3298   1.899   3.627   2.404 -0.3288  0.2420  0.1029
 1098TIP3   OH2 3299   5.996   4.899   0.395  0.0406  0.3487 -0.3477
 1098TIP3    H1 3300   5.927   4.892   0.461  0.4985 -0.8590  0.0440
 1098TIP3    H2 3301   6.070   4.937   0.441  0.8002 -1.7111  0.2583
 1099TIP3   OH2 3302   2.439   2.612   3.578  0.1762 -0.4540  0.3638
 1099TIP3    H1 3303   2.428   2.670   3.653  0.8103  0.7254 -0.4282
 1099TIP3    H2 3304   2.484   2.665   3.512 -1.2348 -1.1253 -1.2377
 1100TIP3   OH2 3305   0.137   4.096   4.896  0.0639  0.6086  0.4279
 1100TIP3    H1 3306   0.186   4.173   4.923  0.7502  0.2483  0.2255
 1100TIP3    H2 3307   0.090   4.124   4.818  0.3278  0.8142  0.3409
 1101TIP3   OH2 3308   0.807   1.084   2.923  0.4175 -0.2086 -0.3311
 1101TIP3    H1 3309   0.787   1.029   2.848  0.8300 -2.2524  0.9616
 1101TIP3    H2 3310   0.880   1.138   2.895  0.7445 -1.1251 -1.3045
 1102TIP3   OH2 3311   4.495   2.930   1.329 -0.0761 -0.4080 -0.3159
 1102TIP3    H1 3312   4.445   2.899   1.253 -1.6521 -1.0644  0.9297
 1102TIP3    H2 3313   4.569   2.869   1.334  1.5987  1.2493 -2.8448
 1103TIP3   OH2 3314   4.650   3.222   1.159  0.1979 -0.4552  0.1720
 1103TIP3    H1 3315   4.576   3.279   1.178  0.8549  0.5422 -0.2009
 1103TIP3    H2 3316   4.686   3.200   1.245  0.1706  0.0086  0.3042
 1104TIP3   OH2 3317   3.262   0.882   4.472 -0.1497 -0.3073  0.3071
 1104TIP3    H1 3318   3.327   0.951   4.485  0.1094 -0.8201  1.8772
 1104TIP3    H2 3319   3.191   0.925   4.424  0.5519  0.7222  0.1674
 1105TIP3   OH2 3320   1.961   3.493   4.106  0.3239  0.0008  0.5030
 1105TIP3    H1 3321   1.870   3.515   4.123  0.4957  2.0287 -0.9223
 1105TIP3    H2 3322   1.957   3.432   4.032  0.1671  0.8688 -0.2068
 1106TIP3   OH2 3323   4.844   5.938   1.979 -0.3351 -0.5889  0.0916
 1106TIP3    H1 3324   4.769   5.956   2.035 -0.6629  0.4001 -0.6268
 1106TIP3    H2 3325   4.821   5.859   1.932 -0.0788 -1.4022  1.2817
 1107TIP3   OH2 3326   0.051   2.066   1.075 -0.1045  0.0207  0.1891
 1107TIP3    H1 3327   0.066   2.032   1.163 -0.1882 -0.3720  0.0519
 1107TIP3    H2 3328   0.137   2.096   1.046  0.3883 -1.8581 -0.4352
 1108TIP3   OH2 3329   5.556   3.158   4.779  0.5623  0.0057  0.0911
 1108TIP3    H1 3330   5.464   3.129   4.779  0.0656  1.4547 -0.5254
 1108TIP3    H2 3331   5.584   3.149   4.870  0.2669 -1.7919  0.0338
 1109TIP3   OH2 3332   2.962   2.815   2.108 -0.0763 -0.1412 -0.4714
 1109TIP3    H1 3333   2.934   2.728   2.137 -0.5212 -0.4829 -1.8808
 1109TIP3    H2 3334   3.047   2.828   2.151 -0.5738 -0.7238  0.7530
 1110TIP3   OH2 3335   3.578   2.639   2.420 -0.2656 -0.7275  0.1745
 1110TIP3    H1 3336   3.590   2.563   2.364 -0.0832 -0.5605 -0.0156
 1110TIP3    H2 3337   3.654   2.695   2.402 -0.6875 -0.2351 -0.1110
 1111TIP3   OH2 3338   4.195   5.749   4.574 -0.4685  0.1300  0.1295
 1111TIP3    H1 3339   4.145   5.788   4.502  0.2231  1.0787  0.1395
 1111TIP3    H2 3340   4.245   5.822   4.610 -1.6048 -0.0468  2.2819
 1112TIP3   OH2 3341   5.250   1.692   0.399 -0.2334  0.4469  0.0586
 1112TIP3    H1 3342   5.234   1.757   0.331 -2.0852  0.3810  0.3766
 1112TIP3    H2 3343   5.289   1.618   0.353 -2.5609 -0.0758 -1.2284
 1113TIP3   OH2 3344   1.537   4.720   3.173  0.3839  0.2067 -0.1305
 1113TIP3    H1 3345   1.446   4.747   3.164  0.9940  2.4008 -0.2756
 1113TIP3    H2 3346   1.532   4.631   3.207 -1.8046  0.1724 -0.3872
 1114TIP3   OH2 3347   4.330   5.981   4.289  0.5067  0.0457  0.6178
 1114TIP3    H1 3348   4.271   5.913   4.258 -0.6574  1.3919 -0.2762
 1114TIP3    H2 3349   4.417   5.951   4.264 -0.1037 -0.5016 -0.9294
 1115TIP3   OH2 3350   5.925   2.051   1.023 -0.3292 -0.3507  0.3936
 1115TIP3    H1 3351   5.923   1.972   1.077  1.1682  0.1138  1.2070
 1115TIP3    H2 3352   6.003   2.040   0.967 -0.2997  0.3902  0.2758
 1116TIP3   OH2 3353   2.823   5.496   5.009  0.3484  0.0924  0.0673
 1116TIP3    H1 3354   2.881   5.440   5.060 -1.3080 -2.8537 -1.0555
 1116TIP3    H2 3355   2.810   5.449   4.926 -1.5384  1.9157 -0.7728
 1117TIP3   OH2 3356   4.809   2.824   3.811 -0.3549  0.0564  0.2094
 1117TIP3    H1 3357   4.858   2.898   3.848  1.2513 -0.5483 -0.5808
 1117TIP3    H2 3358   4.800   2.763   3.883  0.9494 -0.2284  0.1607
 1118TIP3   OH2 3359   5.655   1.686   1.740  0.0704  0.1317  0.0573
 1118TIP3    H1 3360   5.602   1.614   1.773  0.7391  0.8262  2.9013
 1118TIP3    H2 3361   5.617   1.707   1.655 -0.9041 -2.7168 -0.3051
 1119TIP3   OH2 3362   3.370   0.886   1.528  0.2987 -0.6006  0.0494
 1119TIP3    H1 3363   3.423   0.807   1.534  0.6389 -0.2740  2.7051
 1119TIP3    H2 3364   3.428   0.951   1.488  0.8694 -1.0548  0.1307
 1120TIP3   OH2 3365   3.332   0.945   3.016  0.0392 -0.6355  0.3998
 1120TIP3    H1 3366   3.357   0.854   3.034  1.8091 -0.1306  0.6432
 1120TIP3    H2 3367   3.251   0.938   2.965  0.2437 -2.3435  0.2583
 1121TIP3   OH2 3368   1.177   0.596   0.609  0.3984 -0.0361  0.3622
 1121TIP3    H1 3369   1.113   0.535   0.571 -0.3277  0.5474  0.6066
 1121TIP3    H2 3370   1.143   0.613   0.697  0.4861  0.8680  0.2281
 1122TIP3   OH2 3371   5.490   5.531   0.544  0.0156 -0.0077  0.3893
 1122TIP3    H1 3372   5.571   5.482   0.553 -0.0669 -0.7349 -2.1961
 1122TIP3    H2 3373   5.516   5.614   0.504 -0.6555 -1.1485 -2.6604
 1123TIP3   OH2 3374   0.800   4.402   3.285 -0.3128  0.0331 -0.4433
 1123TIP3    H1 3375   0.750   4.483   3.281 -1.9672 -0.7773  1.5418
 1123TIP3    H2 3376   0.880   4.419   3.235 -1.3811  2.2791 -1.4943
 1124TIP3   OH2 3377   4.465   0.631   2.176 -0.0390  0.6271  0.4866
 1124TIP3    H1 3378   4.382   0.638   2.222  0.4272  1.2022  1.2575
 1124TIP3    H2 3379   4.463   0.702   2.112 -0.3604  0.2983  0.1197
 1125TIP3   OH2 3380   0.966   0.708   1.232 -0.9698 -0.5339  0.3466
 1125TIP3    H1 3381   1.048   0.739   1.192 -0.6850  1.1764  2.0743
 1125TIP3    H2 3382   0.951   0.622   1.193  1.5560 -0.8201 -0.1820
 1126TIP3   OH2 3383   4.149   4.683   4.550 -0.0948 -0.7424  0.1058
 1126TIP3    H1 3384   4.129   4.776   4.540  0.5334 -0.7363 -1.4589
 1126TIP3    H2 3385   4.087   4.639   4.492  0.0676 -1.2444  0.3075
 1127TIP3   OH2 3386   1.899   0.187   4.910  0.1021  0.8092  0.4277
 1127TIP3    H1 3387   1.972   0.126   4.922 -0.4122 -0.0865 -0.8324
 1127TIP3    H2 3388   1.848   0.150   4.838 -1.6840  1.3448  1.3611
 1128TIP3   OH2 3389   0.534   0.538   4.809 -0.1825 -0.2459 -0.5423
 1128TIP3    H1 3390   0.611   0.589   4.836 -0.6860 -0.1606  0.8150
 1128TIP3    H2 3391   0.567   0.479   4.742  1.9557 -2.6314  2.3083
 1129TIP3   OH2 3392   0.919   4.509   4.143  0.6681 -0.1468 -0.2292
 1129TIP3    H1 3393   0.901   4.437   4.204 -0.6308 -0.3149 -0.7813
 1129TIP3    H2 3394   0.918   4.588   4.197 -0.6948 -0.2738 -0.0524
 1130TIP3   OH2 3395   1.263   1.445   5.092  0.0438 -0.0977  0.1860
 1130TIP3    H1 3396   1.241   1.517   5.152  2.0703  0.9562 -0.2555
 1130TIP3    H2 3397   1.335   1.400   5.135  1.8163  0.9192 -1.5728
 1131TIP3   OH2 3398   1.211   3.957   0.140  0.5326 -0.1891 -0.1225
 1131TIP3    H1 3399   1.293   3.966   0.188  0.1838 -1.3127  0.7128
 1131TIP3    H2 3400   1.178   4.047   0.132  0.4728  0.0157  1.9774
 1132TIP3   OH2 3401   4.631   1.373   1.360  0.3633  0.2654 -0.4006
 1132TIP3    H1 3402   4.547   1.373   1.406  0.3174 -0.8552 -0.4453
 1132TIP3    H2 3403   4.636   1.286   1.321  2.2537 -0.2761  0.9182
 1133TIP3   OH2 3404   5.689   3.747   1.352  0.2133  0.8051  0.2223
 1133TIP3    H1 3405   5.718   3.655   1.348 -1.5334  0.1726  1.2114
 1133TIP3    H2 3406   5.696   3.770   1.444 -1.8238  0.7876  0.4200
 1134TIP3   OH2 3407   5.711   3.070   3.486  0.1158  0.3379  0.1571
 1134TIP3    H1 3408   5.729   3.001   3.550  1.4647  0.0599 -0.4811
 1134TIP3    H2 3409   5.797   3.107   3.466 -0.2454  0.2659 -1.6500
 1135TIP3   OH2 3410   4.048   3.388   0.488 -0.2975 -0.0629 -0.2349
 1135TIP3    H1 3411   3.971   3.418   0.536  1.3395  3.1591  0.6083
 1135TIP3    H2 3412   4.076   3.463   0.437  2.8065 -0.7888  0.2026
 1136TIP3   OH2 3413   3.522   5.254   0.057 -0.8185  0.3442 -0.5319
 1136TIP3    H1 3414   3.616   5.270   0.071 -0.8063 -0.7327  0.8312
 1136TIP3    H2 3415   3.519   5.171   0.009 -1.0739  0.7051 -1.1546
 1137TIP3   OH2 3416   1.557   2.580   3.480  0.2969  0.6536  0.0237
 1137TIP3    H1 3417   1.585   2.657   3.530  1.5291 -0.2972  0.8722
 1137TIP3    H2 3418   1.638   2.531   3.465 -0.3378 -0.0534 -1.2532
 1138TIP3   OH2 3419   3.384   5.827   1.095  0.3446 -0.2898  0.2748
 1138TIP3    H1 3420   3.317   5.796   1.156  1.0061 -2.6037 -0.0634
 1138TIP3    H2 3421   3.369   5.775   1.016  2.0185 -0.2898 -0.0719
 1139TIP3   OH2 3422   5.886   2.971   2.914 -0.1021  0.1703  0.1433
 1139TIP3    H1 3423   5.867   2.959   3.007  0.1230 -0.3770  0.1228
 1139TIP3    H2 3424   5.802   2.955   2.870  0.0278 -0.6252  0.1750
 1140TIP3   OH2 3425   3.901   1.829   2.968  0.0639 -0.2350  0.0027
 1140TIP3    H1 3426   3.829   1.821   2.906  0.5550  2.0720 -0.9573
 1140TIP3    H2 3427   3.859   1.856   3.050 -0.2620  0.0750 -0.2661
 1141TIP3   OH2 3428   5.166   1.663   3.619 -0.5107 -0.2339  0.4979
 1141TIP3    H1 3429   5.153   1.747   3.662 -0.3207 -0.4926  1.0728
 1141TIP3    H2 3430   5.203   1.606   3.687 -0.2534 -0.6655  0.0069
 1142TIP3   OH2 3431   0.687   4.572   1.722 -0.2136  0.4170  0.0340
 1142TIP3    H1 3432   0.635   4.642   1.682  1.0458  1.1140 -0.4304
 1142TIP3    H2 3433   0.773   4.611   1.735 -0.2808 -0.0876  2.5358
 1143TIP3   OH2 3434   3.301   4.267   1.482  0.1166  0.4030 -0.0458
 1143TIP3    H1 3435   3.352   4.309   1.413  1.1209 -1.0616 -0.2561
 1143TIP3    H2 3436   3.300   4.330   1.553  0.8447  1.1174 -0.6530
 1144TIP3   OH2 3437   5.410   3.957   3.734  0.4424  0.1987 -0.3690
 1144TIP3    H1 3438   5.431   4.048   3.716  1.7881  0.0657  0.3985
 1144TIP3    H2 3439   5.494   3.912   3.732 -0.2233 -1.0893 -0.9866
 1145TIP3   OH2 3440   5.508   1.194   1.231 -0.0846  0.5133  0.5925
 1145TIP3    H1 3441   5.568   1.121   1.216  0.8365  1.2005  0.8538
 1145TIP3    H2 3442   5.491   1.192   1.325  1.2615  1.6235  0.8797
 1146TIP3   OH2 3443   3.815   0.238   0.337  0.1753  0.6081  0.8902
 1146TIP3    H1 3444   3.832   0.260   0.429 -0.4145  0.0721  1.1351
 1146TIP3    H2 3445   3.835   0.145   0.331 -0.1295  0.5632  0.5600
 1147TIP3   OH2 3446   5.876   5.751   1.911 -0.2797  0.0498 -0.5071
 1147TIP3    H1 3447   5.795   5.735   1.862  0.8804 -0.8448 -2.2329
 1147TIP3    H2 3448   5.903   5.664   1.940 -0.6390  0.4992  1.3256
 1148TIP3   OH2 3449   3.339   4.411   1.925 -0.4309  1.1897  0.3205
 1148TIP3    H1 3450   3.410   4.472   1.946  0.5215 -0.2294  1.3905
 1148TIP3    H2 3451   3.353   4.337   1.984 -1.2187 -0.3233 -1.3205
 1149TIP3   OH2 3452   1.388   2.660   4.881  0.0019  0.4839  0.2826
 1149TIP3    H1 3453   1.390   2.688   4.973 -1.8977 -0.0448  0.5258
 1149TIP3    H2 3454   1.335   2.727   4.837  0.9062  0.7339 -0.4353
 1150TIP3   OH2 3455   4.139   5.912   1.958 -0.2018  0.6456  0.3486
 1150TIP3    H1 3456   4.046   5.888   1.948 -0.4324  0.9238  1.6932
 1150TIP3    H2 3457   4.180   5.834   1.994 -0.1212  0.8753  0.7535
 1151TIP3   OH2 3458   3.589   4.153   4.743 -0.3922  0.2635  0.6124
 1151TIP3    H1 3459   3.606   4.179   4.652 -1.1672  0.0329  0.4012
 1151TIP3    H2 3460   3.494   4.144   4.749 -0.2523 -1.2505  1.0212
 1152TIP3   OH2 3461   4.860   4.009   4.575 -0.3070 -0.2453 -0.2600
 1152TIP3    H1 3462   4.864   3.945   4.646 -0.7946  1.6949  1.6338
 1152TIP3    H2 3463   4.766   4.020   4.558 -0.2360  0.1250 -0.4161
 1153TIP3   OH2 3464   1.539   4.054   4.397 -0.0985  0.1780 -0.2285
 1153TIP3    H1 3465   1.564   3.995   4.326  1.0440 -0.9088  1.0375
 1153TIP3    H2 3466   1.454   4.023   4.425 -1.2254  1.4646 -1.9600
 1154TIP3   OH2 3467   4.954   0.974   3.346  0.2114 -0.5122 -0.3642
 1154TIP3    H1 3468   5.020   0.986   3.414 -0.2782 -1.9954  0.4199
 1154TIP3    H2 3469   5.002   0.933   3.273  0.4108 -0.4289 -0.2799
 1155TIP3   OH2 3470   5.542   4.104   2.952 -0.0831  0.4286 -0.1608
 1155TIP3    H1 3471   5.525   4.029   2.894  0.5651  1.3548 -1.6093
 1155TIP3    H2 3472   5.628   4.086   2.989  0.0146  0.3799 -0.4036
 1156TIP3   OH2 3473   5.005   0.254   3.379 -0.1370 -0.1589 -0.3696
 1156TIP3    H1 3474   4.936   0.210   3.330 -0.7047 -0.5308  0.7337
 1156TIP3    H2 3475   4.983   0.238   3.471  1.0707  0.2516  0.0062
 1157TIP3   OH2 3476   2.167   1.977   3.871  0.4328  0.5577 -0.1148
 1157TIP3    H1 3477   2.261   1.988   3.887  0.6913 -1.3347 -0.1637
 1157TIP3    H2 3478   2.144   2.051   3.814  2.1991  0.3201 -1.2164
 1158TIP3   OH2 3479   2.152   3.209   2.248 -0.1512 -0.3910  0.1313
 1158TIP3    H1 3480   2.221   3.256   2.200 -0.6849  1.4112  1.0517
 1158TIP3    H2 3481   2.198   3.170   2.323 -0.0765  0.7810  0.7279
 1159TIP3   OH2 3482   1.156   3.240   4.332 -0.0258 -0.4371 -0.4257
 1159TIP3    H1 3483   1.075   3.218   4.379  0.1925 -0.3620 -0.0063
 1159TIP3    H2 3484   1.224   3.238   4.399 -0.0643  2.0950 -0.1948
 1160TIP3   OH2 3485   6.187   0.217   3.248  0.3671 -0.3816 -0.3048
 1160TIP3    H1 3486   6.168   0.302   3.210  3.0638  0.7299  0.5949
 1160TIP3    H2 3487   6.105   0.190   3.289 -0.8939  1.1722 -1.6639
 1161TIP3   OH2 3488   4.853   2.148   0.403  0.3752  0.3869 -0.1617
 1161TIP3    H1 3489   4.866   2.072   0.347 -0.0643  0.5750 -0.5251
 1161TIP3    H2 3490   4.886   2.222   0.352  0.2104  0.5241 -0.0718
 1162TIP3   OH2 3491   1.576   3.615   1.592  0.0012  0.2387  0.4057
 1162TIP3    H1 3492   1.600   3.602   1.683 -1.1843  0.3858  0.7615
 1162TIP3    H2 3493   1.539   3.704   1.590  0.1137  0.2746 -0.2425
 1163TIP3   OH2 3494   3.386   2.137   1.648 -0.0553  0.2935 -0.5934
 1163TIP3    H1 3495   3.330   2.152   1.573 -0.3719 -0.1836 -0.4586
 1163TIP3    H2 3496   3.351   2.058   1.689 -0.0005  0.6513  0.1588
 1164TIP3   OH2 3497   0.655   1.483   5.006  0.2475  0.1084 -0.5191
 1164TIP3    H1 3498   0.747   1.455   5.000  0.6664  0.7483  1.8531
 1164TIP3    H2 3499   0.617   1.426   5.072 -0.8253  0.4881 -0.7960
 1165TIP3   OH2 3500   3.964   3.841   4.063 -0.0922 -0.2923  0.6624
 1165TIP3    H1 3501   4.054   3.821   4.089 -0.5297 -0.2014  2.3694
 1165TIP3    H2 3502   3.932   3.761   4.021  0.9447 -0.1278 -0.4944
 1166TIP3   OH2 3503   0.074   5.705   1.457 -0.1361  0.1318  0.7285
 1166TIP3    H1 3504   0.140   5.656   1.408 -0.6992 -1.3370  1.3722
 1166TIP3    H2 3505   0.117   5.725   1.540 -0.2934 -0.3054  0.9178
 1167TIP3   OH2 3506   4.054   5.488   3.357 -0.1805  0.2012 -0.5774
 1167TIP3    H1 3507   4.093   5.505   3.443 -1.7101 -0.4134  0.2823
 1167TIP3    H2 3508   4.088   5.403   3.332 -0.1101  0.1593 -0.3425
 1168TIP3   OH2 3509   5.639   5.192   3.048 -0.5975 -0.2428 -0.8654
 1168TIP3    H1 3510   5.626   5.110   3.001 -1.5999 -0.6967  0.1548
 1168TIP3    H2 3511   5.693   5.169   3.123 -0.1253  0.2208 -1.0542
 1169TIP3   OH2 3512   2.585   5.154   0.704 -0.6289  0.0122 -0.2570
 1169TIP3    H1 3513   2.508   5.186   0.656  0.2032  1.2659 -0.7970
 1169TIP3    H2 3514   2.656   5.210   0.675 -0.1244  1.0687  2.7055
 1170TIP3   OH2 3515   2.997   2.138   4.900 -0.0572 -0.0614 -0.1769
 1170TIP3    H1 3516   2.963   2.060   4.946 -1.2857  0.5046 -0.0756
 1170TIP3    H2 3517   3.086   2.147   4.932 -0.1699 -0.9456  0.4537
 1171TIP3   OH2 3518   0.401   3.703   4.114  0.2887 -0.1647 -0.4604
 1171TIP3    H1 3519   0.349   3.668   4.186  2.9780 -1.9268  0.8105
 1171TIP3    H2 3520   0.477   3.742   4.156  2.2316 -1.7414 -2.2659
 1172TIP3   OH2 3521   3.520   1.161   2.660 -0.5024  0.3135 -0.1207
 1172TIP3    H1 3522   3.572   1.173   2.580  1.0296 -0.2983  0.7311
 1172TIP3    H2 3523   3.497   1.249   2.688 -1.4389  0.5231 -1.4460
 1173TIP3   OH2 3524   0.258   3.506   0.695 -0.2111  0.0138  0.1136
 1173TIP3    H1 3525   0.184   3.449   0.675  0.3414 -0.1204 -1.7442
 1173TIP3    H2 3526   0.305   3.462   0.766 -2.0841  0.2967  1.5915
 1174TIP3   OH2 3527   4.032   3.635   0.737  0.4101  0.1878 -0.5208
 1174TIP3    H1 3528   4.085   3.672   0.808  1.1781 -1.7744 -0.0142
 1174TIP3    H2 3529   3.942   3.648   0.766  0.6809  0.6264  0.1617
 1175TIP3   OH2 3530   0.178   5.125   4.889  0.1508  0.1756  0.3113
 1175TIP3    H1 3531   0.187   5.057   4.822 -1.2626  0.2682 -0.0178
 1175TIP3    H2 3532   0.223   5.089   4.965 -0.5073 -1.1231  0.1296
 1176TIP3   OH2 3533   2.759   1.622   2.846  0.2095  0.5880  0.2973
 1176TIP3    H1 3534   2.784   1.667   2.927 -1.1852  0.0537  1.0471
 1176TIP3    H2 3535   2.759   1.692   2.780 -0.6041  1.4529  1.1714
 1177TIP3   OH2 3536   0.559   5.650   1.724 -0.3049 -0.2967  0.2400
 1177TIP3    H1 3537   0.553   5.745   1.714 -0.4628 -0.0411  2.2483
 1177TIP3    H2 3538   0.522   5.614   1.643 -0.4438  1.3455 -0.4533
 1178TIP3   OH2 3539   2.972   0.289   0.263 -0.0372  0.1584 -0.6191
 1178TIP3    H1 3540   2.889   0.325   0.296  0.3008  0.9482 -0.6098
 1178TIP3    H2 3541   2.995   0.346   0.189 -1.3364 -2.1784 -3.0180
 1179TIP3   OH2 3542   2.542   0.828   2.707 -0.7401 -0.1310 -0.2893
 1179TIP3    H1 3543   2.491   0.778   2.771 -0.3284 -0.1587  0.0217
 1179TIP3    H2 3544   2.481   0.843   2.635 -1.3490  0.2875  0.2978
 1180TIP3   OH2 3545   2.038   2.900   2.434  0.1890 -0.5418  0.4478
 1180TIP3    H1 3546   2.078   2.817   2.459  0.2394 -0.5034  0.4936
 1180TIP3    H2 3547   1.997   2.882   2.349  1.8363 -0.1123 -0.4781
 1181TIP3   OH2 3548   4.379   3.576   3.985  0.2759 -0.6734 -0.0662
 1181TIP3    H1 3549   4.388   3.633   3.909  0.9884  1.1854  1.3202
 1181TIP3    H2 3550   4.305   3.520   3.965 -0.3326  0.6080 -1.6223
 1182TIP3   OH2 3551   4.649   4.616   3.852  1.1193 -1.0549 -0.3143
 1182TIP3    H1 3552   4.712   4.620   3.923  0.4171 -2.2546  0.4105
 1182TIP3    H2 3553   4.674   4.688   3.793  1.7680 -0.1018  1.0764
 1183TIP3   OH2 3554   3.980   0.567   2.182 -0.0825  0.2183  0.2033
 1183TIP3    H1 3555   3.977   0.486   2.131  0.5195  0.2550  0.1098
 1183TIP3    H2 3556   3.941   0.544   2.266 -0.2314 -0.0787  0.0532
 1184TIP3   OH2 3557   3.393   2.356   1.862 -0.2795 -0.2360  0.2453
 1184TIP3    H1 3558   3.308   2.381   1.897  0.9609  0.6824  2.9082
 1184TIP3    H2 3559   3.376   2.279   1.808 -2.6921 -0.4013  1.1484
 1185TIP3   OH2 3560   5.010   1.804   3.039  0.0863  0.5438  0.1186
 1185TIP3    H1 3561   5.082   1.742   3.054 -0.1061  0.4780  0.7840
 1185TIP3    H2 3562   4.997   1.847   3.124  0.7189  2.0517 -0.5117
 1186TIP3   OH2 3563   2.423   4.929   1.100  0.5925 -0.0807 -0.0114
 1186TIP3    H1 3564   2.487   4.888   1.158  0.4574  1.7346  1.5339
 1186TIP3    H2 3565   2.475   4.982   1.040  0.6461  2.4281  2.0594
 1187TIP3   OH2 3566   0.069   0.681   2.927 -0.7615  0.7882 -0.5378
 1187TIP3    H1 3567   0.121   0.713   3.001 -1.2305 -1.1882  0.7402
 1187TIP3    H2 3568   0.113   0.716   2.850 -1.0243  4.0255  0.6516
 1188TIP3   OH2 3569   0.487   1.631   4.039  0.4102  0.5355  0.6056
 1188TIP3    H1 3570   0.404   1.642   3.994 -0.0715 -0.5351  1.1986
 1188TIP3    H2 3571   0.465   1.638   4.132  0.5892 -1.8601  0.8821
 1189TIP3   OH2 3572   1.582   4.764   4.452 -0.8814 -0.0373  0.0335
 1189TIP3    H1 3573   1.598   4.735   4.362 -0.1572  0.2798  0.0540
 1189TIP3    H2 3574   1.659   4.817   4.474 -0.8366 -0.4832  0.9930
 1190TIP3   OH2 3575   4.694   3.821   2.886  0.0624  0.0452 -0.5656
 1190TIP3    H1 3576   4.700   3.736   2.930 -1.0896  0.3660  0.2704
 1190TIP3    H2 3577   4.779   3.832   2.845  1.2320 -0.2999  1.5918
 1191TIP3   OH2 3578   2.933   5.084   2.963  0.3204 -0.1467  0.3209
 1191TIP3    H1 3579   2.885   5.095   2.881  0.4081  0.3967  0.3385
 1191TIP3    H2 3580   3.025   5.096   2.939  0.3447  0.0349  0.5030
 1192TIP3   OH2 3581   3.818   5.639   4.782  0.2140 -0.2218 -0.6079
 1192TIP3    H1 3582   3.913   5.632   4.788  0.4868  1.1844 -2.3116
 1192TIP3    H2 3583   3.803   5.729   4.753 -1.7434  0.1534  1.3137
 1193TIP3   OH2 3584   3.826   4.912   0.031  0.5938  0.0196 -0.1490
 1193TIP3    H1 3585   3.834   4.858   0.109  1.2318  0.6517  0.2319
 1193TIP3    H2 3586   3.856   4.999   0.059 -0.3464  0.5576 -0.7607
 1194TIP3   OH2 3587   3.883   5.249   5.154 -0.2943  0.1109  0.4847
 1194TIP3    H1 3588   3.825   5.220   5.084 -0.8555  0.2483  0.8864
 1194TIP3    H2 3589   3.972   5.231   5.121 -0.4763  1.4740 -0.8397
 1195TIP3   OH2 3590   3.957   2.928   5.038  0.6855  0.0967  0.7125
 1195TIP3    H1 3591   4.015   2.859   5.071  0.6190 -0.8708 -1.0806
 1195TIP3    H2 3592   3.983   2.940   4.947 -0.0025  1.7369  0.6945
 1196TIP3   OH2 3593   0.305   5.858   4.762  0.2640 -0.3652 -0.4173
 1196TIP3    H1 3594   0.335   5.797   4.829 -0.6932  0.5375  0.8741
 1196TIP3    H2 3595   0.210   5.855   4.767  0.1421 -0.8958 -2.3442
 1197TIP3   OH2 3596   0.549   2.880   1.011 -0.4237  0.3320 -0.5119
 1197TIP3    H1 3597   0.570   2.826   1.087  0.1480  2.2757  0.8101
 1197TIP3    H2 3598   0.454   2.883   1.008 -0.4562  0.8627  0.6354
 1198TIP3   OH2 3599   4.335   1.673   1.932  0.6157  0.2867  0.2223
 1198TIP3    H1 3600   4.255   1.699   1.977  0.3339  0.3654 -0.3231
 1198TIP3    H2 3601   4.321   1.580   1.910 -0.1523  0.7895 -1.5979
 1199TIP3   OH2 3602   1.094   2.491   0.480  0.4656  0.4554 -0.0849
 1199TIP3    H1 3603   1.029   2.483   0.550 -0.3837  0.7400 -0.8177
 1199TIP3    H2 3604   1.066   2.427   0.414  0.9979  0.4976 -0.3514
 1200TIP3   OH2 3605   3.448   1.151   1.821 -0.0127 -0.2827  0.6095
 1200TIP3    H1 3606   3.367   1.177   1.776 -0.0593 -1.0064  0.2715
 1200TIP3    H2 3607   3.419   1.094   1.892  0.2075 -0.6231  0.4280
 1201TIP3   OH2 3608   2.814   3.756   3.720  0.7372  0.6851 -0.2227
 1201TIP3    H1 3609   2.820   3.664   3.745 -0.2738  0.3898 -1.0046
 1201TIP3    H2 3610   2.892   3.772   3.668  0.7447  0.1731 -0.3757
 1202TIP3   OH2 3611   0.684   1.627   1.593 -0.5149  0.0315 -0.7139
 1202TIP3    H1 3612   0.677   1.628   1.689 -0.2490  2.4990 -0.6534
 1202TIP3    H2 3613   0.646   1.544   1.567 -0.9424 -0.5382  1.5172
 1203TIP3   OH2 3614   0.806   1.521   3.707 -0.0526 -0.7342 -0.0518
 1203TIP3    H1 3615   0.797   1.580   3.782 -0.5982 -1.2364  0.2804
 1203TIP3    H2 3616   0.839   1.439   3.744 -2.3591 -1.7263  0.0159
 1204TIP3   OH2 3617   4.156   5.595   0.951  0.0707 -0.7167  0.1711
 1204TIP3    H1 3618   4.175   5.512   0.908 -2.0202 -0.7556 -0.7847
 1204TIP3    H2 3619   4.115   5.571   1.034  1.6004 -0.6106  1.0000
 1205TIP3   OH2 3620   5.334   0.278   1.227 -0.2666 -0.2167  0.2757
 1205TIP3    H1 3621   5.391   0.236   1.163  0.8837 -1.9891  2.3255
 1205TIP3    H2 3622   5.387   0.281   1.307 -1.7579  1.5731  1.2645
 1206TIP3   OH2 3623   1.468   0.332   2.654 -0.0042 -0.0833 -0.0654
 1206TIP3    H1 3624   1.458   0.261   2.717  0.8822 -1.7796 -1.7258
 1206TIP3    H2 3625   1.562   0.336   2.637 -0.2264  0.2579 -1.3375
 1207TIP3   OH2 3626   3.083   5.968   3.549  0.1172  0.4813 -0.1161
 1207TIP3    H1 3627   3.012   5.959   3.486 -0.1767  0.1533  0.2578
 1207TIP3    H2 3628   3.043   6.012   3.624  0.6089  1.4053 -0.3895
 1208TIP3   OH2 3629   5.266   0.240   1.561 -0.4602  0.4888 -0.0556
 1208TIP3    H1 3630   5.221   0.168   1.517 -0.8102  1.8098 -1.9963
 1208TIP3    H2 3631   5.347   0.201   1.595 -1.5308 -1.2074  0.6636
 1209TIP3   OH2 3632   1.737   3.202   5.085 -0.1923  0.9756  0.8650
 1209TIP3    H1 3633   1.670   3.190   5.017  0.7644 -5.4905  0.4539
 1209TIP3    H2 3634   1.811   3.240   5.039 -0.3416 -1.1525 -1.3280
 1210TIP3   OH2 3635   0.456   3.155   0.364 -0.2268  0.7316 -0.4068
 1210TIP3    H1 3636   0.533   3.198   0.402  0.1308 -0.3144  0.1242
 1210TIP3    H2 3637   0.465   3.169   0.270  0.3693  1.0272 -0.3132
 1211TIP3   OH2 3638   2.332   2.555   0.566 -0.2077 -0.2889  0.4997
 1211TIP3    H1 3639   2.398   2.553   0.635 -0.1343 -2.0126  0.4146
 1211TIP3    H2 3640   2.360   2.488   0.504 -2.0641 -1.1297  0.4973
 1212TIP3   OH2 3641   4.837   0.416   2.878 -0.1403  0.2612  0.4946
 1212TIP3    H1 3642   4.869   0.424   2.967  0.6766  0.3982  0.1994
 1212TIP3    H2 3643   4.827   0.321   2.865 -1.0082  0.2736  0.9720
 1213TIP3   OH2 3644   0.530   0.273   0.321  0.2184  0.0550  0.0774
 1213TIP3    H1 3645   0.467   0.201   0.315  0.6227 -0.2270 -0.9502
 1213TIP3    H2 3646   0.614   0.233   0.296  0.4925  0.8305 -0.2591
 1214TIP3   OH2 3647   3.637   0.906   0.127  0.1112 -0.7587  0.7268
 1214TIP3    H1 3648   3.662   0.940   0.213  0.3082 -0.8648  0.7120
 1214TIP3    H2 3649   3.564   0.847   0.144 -0.2714 -0.2930  0.7491
 1215TIP3   OH2 3650   1.063   1.884   4.822  0.7320 -0.4034  0.7648
 1215TIP3    H1 3651   1.034   1.941   4.751 -0.1492 -0.4783  1.0491
 1215TIP3    H2 3652   1.092   1.944   4.891  0.2102 -0.2945  0.8971
 1216TIP3   OH2 3653   6.163   4.930   4.319 -0.1083 -0.0295  0.4398
 1216TIP3    H1 3654   6.240   4.988   4.324 -1.1027  1.2653  1.3557
 1216TIP3    H2 3655   6.138   4.931   4.227 -0.1653  1.0922  0.4574
 1217TIP3   OH2 3656   1.813   5.030   2.626 -0.0868  0.0016  0.6999
 1217TIP3    H1 3657   1.839   5.095   2.692  0.6102 -0.6418  1.0743
 1217TIP3    H2 3658   1.819   4.946   2.671 -0.2779 -0.3894  0.0096
 1218TIP3   OH2 3659   5.962   3.353   2.120  0.0119  0.8549 -0.7712
 1218TIP3    H1 3660   6.039   3.409   2.110  1.1919  0.0399  2.3748
 1218TIP3    H2 3661   5.966   3.293   2.045  2.0893  1.2804 -1.0686
 1219TIP3   OH2 3662  -0.012   5.719   4.458 -0.1293  0.1667  0.3914
 1219TIP3    H1 3663   0.080   5.739   4.475 -0.8256  3.2310  1.1473
 1219TIP3    H2 3664  -0.018   5.625   4.471  3.5224 -0.7920 -2.9116
 1220TIP3   OH2 3665   0.793   4.215   3.926 -0.2113  0.0321  0.0598
 1220TIP3    H1 3666   0.865   4.261   3.883  0.9933 -0.6074  1.3241
 1220TIP3    H2 3667   0.777   4.138   3.871  0.5913 -0.2261  0.1865
 1221TIP3   OH2 3668   0.550   2.529   2.613  1.0463  0.5521 -0.1745
 1221TIP3    H1 3669   0.596   2.613   2.606 -0.3845  1.4497  0.7670
 1221TIP3    H2 3670   0.583   2.491   2.694 -0.8219  1.8679  1.2912
 1222TIP3   OH2 3671   1.067   0.729   1.787  0.4884 -0.1790  0.3401
 1222TIP3    H1 3672   1.027   0.802   1.833 -0.0258 -0.3279  0.1346
 1222TIP3    H2 3673   1.046   0.652   1.841  0.7294 -0.2194  0.3758
 1223TIP3   OH2 3674   0.288   2.238   1.426  0.7893 -0.2829 -0.2144
 1223TIP3    H1 3675   0.235   2.275   1.355  1.0767  0.8316  0.1252
 1223TIP3    H2 3676   0.344   2.173   1.383  1.3074  0.7110 -1.1166
 1224TIP3   OH2 3677   4.521   2.431   4.659 -0.0949  0.0215  0.1068
 1224TIP3    H1 3678   4.481   2.370   4.720  0.3216 -2.2764 -1.7701
 1224TIP3    H2 3679   4.599   2.463   4.705 -0.2859 -0.9033  1.1154
 1225TIP3   OH2 3680   0.945   1.337   0.156  0.3556  0.5668 -0.5727
 1225TIP3    H1 3681   0.934   1.394   0.233 -0.5965  1.2746 -1.2005
 1225TIP3    H2 3682   1.035   1.352   0.127  0.5911  0.5976  0.1624
 1226TIP3   OH2 3683   2.363   2.067   0.043 -0.0149 -0.2943 -0.1787
 1226TIP3    H1 3684   2.314   2.148   0.061  0.2684 -0.4245  1.2845
 1226TIP3    H2 3685   2.435   2.069   0.106  0.4418 -1.3095 -0.6653
 1227TIP3   OH2 3686   1.539   4.403   0.593 -0.7062 -0.4213 -0.5708
 1227TIP3    H1 3687   1.444   4.404   0.602 -0.7251 -0.4710 -0.7708
 1227TIP3    H2 3688   1.558   4.464   0.522 -0.4373  1.2926  0.9087
 1228TIP3   OH2 3689   5.104   4.652   0.333  0.3907 -0.1747  0.1843
 1228TIP3    H1 3690   5.111   4.647   0.238  2.2949  0.6692  0.2469
 1228TIP3    H2 3691   5.049   4.577   0.357  1.8192 -1.8227 -1.3821
 1229TIP3   OH2 3692   1.004   1.099   2.637 -0.1466 -0.4433  0.4307
 1229TIP3    H1 3693   1.017   1.049   2.556  1.6357 -2.4339  1.8236
 1229TIP3    H2 3694   1.092   1.113   2.671 -0.8668 -0.1298  2.2882
 1230TIP3   OH2 3695   0.576   1.673   2.820  0.0068  0.6239 -0.3819
 1230TIP3    H1 3696   0.621   1.593   2.847  0.3508  1.2390  0.9284
 1230TIP3    H2 3697   0.483   1.654   2.831 -0.0364 -0.2520 -1.9811
 1231TIP3   OH2 3698   0.065   5.543   3.846  0.9129 -0.4002 -0.0542
 1231TIP3    H1 3699   0.012   5.622   3.847  0.9682 -0.3453 -0.6485
 1231TIP3    H2 3700   0.057   5.507   3.934 -0.5517 -0.6877 -0.2781
 1232TIP3   OH2 3701   5.881   3.896   0.223 -0.2437 -0.2061  0.4713
 1232TIP3    H1 3702   5.855   3.810   0.190 -0.6474  0.4613 -1.0276
 1232TIP3    H2 3703   5.941   3.931   0.157  0.0876  0.5870  1.1644
 1233TIP3   OH2 3704   3.559   5.474   0.494 -0.6125  0.3524 -0.3863
 1233TIP3    H1 3705   3.649   5.440   0.492 -0.7784 -0.0295 -2.0472
 1233TIP3    H2 3706   3.510   5.417   0.435 -1.9286  0.6635  0.3685
 1234TIP3   OH2 3707   5.449   2.640   1.198  0.0473  0.6162 -0.3803
 1234TIP3    H1 3708   5.486   2.607   1.116 -1.8255 -1.4587 -0.5067
 1234TIP3    H2 3709   5.519   2.628   1.263  1.1941  1.3141 -1.4522
 1235TIP3   OH2 3710   1.292   2.600   0.169 -0.2232  0.7622 -0.2395
 1235TIP3    H1 3711   1.256   2.674   0.121 -1.3160  0.1354 -0.4243
 1235TIP3    H2 3712   1.344   2.553   0.105 -0.4299  0.7719 -0.4166
 1236TIP3   OH2 3713   6.164   2.278   1.578  0.1270  0.0732 -0.1859
 1236TIP3    H1 3714   6.108   2.280   1.656  1.8055  0.4466  1.0683
 1236TIP3    H2 3715   6.151   2.363   1.537  1.0850  0.8941  1.1156
 1237TIP3   OH2 3716   2.163   4.247   4.180  0.8263  0.0318 -0.2819
 1237TIP3    H1 3717   2.247   4.201   4.179  0.7083 -0.1875 -1.6029
 1237TIP3    H2 3718   2.141   4.260   4.088 -1.4300 -1.4438 -0.0490
 1238TIP3   OH2 3719   4.662   3.178   0.049 -0.3666  0.3571 -0.5925
 1238TIP3    H1 3720   4.749   3.163   0.012 -0.4896  0.0070 -0.7362
 1238TIP3    H2 3721   4.674   3.167   0.144 -0.3237 -0.0079 -0.6404
 1239TIP3   OH2 3722   1.876   2.548   4.726  0.2169 -0.2473 -0.1730
 1239TIP3    H1 3723   1.807   2.613   4.712  0.5043 -0.0378 -0.6637
 1239TIP3    H2 3724   1.855   2.476   4.666 -1.2022 -1.5353  1.7654
 1240TIP3   OH2 3725   1.682   5.022   5.116 -0.0508  0.1733 -0.2657
 1240TIP3    H1 3726   1.698   4.957   5.049  0.7991  0.6423 -0.5357
 1240TIP3    H2 3727   1.589   5.012   5.138  0.1423 -1.3560 -0.0396
 1241TIP3   OH2 3728   0.309   2.600   2.522 -0.1093  0.1835  0.1193
 1241TIP3    H1 3729   0.252   2.579   2.596 -1.6602 -0.2201 -1.1227
 1241TIP3    H2 3730   0.397   2.575   2.551 -0.1384  2.8292  2.8958
 1242TIP3   OH2 3731   3.034   1.768   2.693  0.0907  0.3120  0.2909
 1242TIP3    H1 3732   2.940   1.785   2.680  0.2497 -0.1777 -2.1460
 1242TIP3    H2 3733   3.075   1.801   2.613  1.7948 -0.9246  0.5887
 1243TIP3   OH2 3734   0.546   4.227   4.087  0.2786  0.5000 -0.5889
 1243TIP3    H1 3735   0.634   4.205   4.118  0.1142  1.9771  1.0560
 1243TIP3    H2 3736   0.518   4.150   4.037  3.0248  0.5304 -2.3620
 1244TIP3   OH2 3737   5.541   4.933   2.887 -0.0614  0.6953  0.2674
 1244TIP3    H1 3738   5.520   4.843   2.865  0.9071  0.5525 -0.1119
 1244TIP3    H2 3739   5.630   4.929   2.923 -0.4725  1.3333  1.3927
 1245TIP3   OH2 3740   4.621   2.143   0.547 -0.4151  0.2023 -0.2262
 1245TIP3    H1 3741   4.692   2.152   0.484 -0.9927 -1.0487 -1.0906
 1245TIP3    H2 3742   4.626   2.223   0.600  1.5607  0.1928 -0.3170
 1246TIP3   OH2 3743   1.561   5.888   3.463  0.1335 -0.0833  0.1173
 1246TIP3    H1 3744   1.532   5.865   3.551  1.0725  1.9908  1.0383
 1246TIP3    H2 3745   1.518   5.971   3.444  0.4778 -0.1658 -1.1045
 1247TIP3   OH2 3746   5.783   5.526   0.700  0.2519 -0.5612 -0.5501
 1247TIP3    H1 3747   5.753   5.441   0.733  2.0198 -0.7827  0.6137
 1247TIP3    H2 3748   5.740   5.590   0.756  0.0601 -0.7484 -0.4781
 1248TIP3   OH2 3749   5.693   4.014   3.274  0.2833  0.1189 -0.6547
 1248TIP3    H1 3750   5.716   4.065   3.351 -0.9113  0.1573 -0.3075
 1248TIP3    H2 3751   5.777   3.987   3.237  0.8992  1.2046 -0.0918
 1249TIP3   OH2 3752   1.351   4.866   2.826 -0.1710  0.0802  0.1993
 1249TIP3    H1 3753   1.331   4.876   2.733  1.2738 -2.1796 -0.4484
 1249TIP3    H2 3754   1.439   4.829   2.827  0.0033  0.4472  2.5015
 1250TIP3   OH2 3755   2.181   4.649   0.190  0.4341 -0.1069 -0.3352
 1250TIP3    H1 3756   2.091   4.676   0.207  0.7273  1.0530 -0.5113
 1250TIP3    H2 3757   2.204   4.690   0.107  1.6704  1.0922  0.5391
 1251TIP3   OH2 3758   1.111   2.071   2.968 -0.1506 -0.3245  0.2330
 1251TIP3    H1 3759   1.081   2.054   2.879  1.7457 -0.4231 -0.4312
 1251TIP3    H2 3760   1.048   2.025   3.024 -1.0322 -0.7465 -1.0708
 1252TIP3   OH2 3761   2.641   1.521   0.290 -0.1723  0.1304  0.2505
 1252TIP3    H1 3762   2.610   1.529   0.200  1.2119 -0.0392 -0.2741
 1252TIP3    H2 3763   2.722   1.572   0.291  0.0168 -0.1825  1.2995
 1253TIP3   OH2 3764   5.369   1.255   1.537  0.3460  0.0067 -0.2512
 1253TIP3    H1 3765   5.409   1.212   1.612  0.7899  0.1094 -0.4224
 1253TIP3    H2 3766   5.333   1.184   1.485 -0.3834 -0.0315  0.2911
 1254TIP3   OH2 3767   5.079   3.101   2.265  0.0600  0.0458  0.1501
 1254TIP3    H1 3768   5.021   3.177   2.271 -0.1826 -0.1729  0.5805
 1254TIP3    H2 3769   5.152   3.121   2.322  1.2279  1.0216 -1.5872
 1255TIP3   OH2 3770   4.932   3.305   3.258  0.0384  0.3165 -0.1767
 1255TIP3    H1 3771   4.893   3.393   3.248  1.2295  0.6430 -3.0587
 1255TIP3    H2 3772   4.881   3.250   3.198  1.6289 -0.0463 -1.2617
 1256TIP3   OH2 3773   2.955   4.953   3.195 -0.2524  0.2797 -0.4256
 1256TIP3    H1 3774   2.913   4.991   3.118 -1.0600  0.6087  0.1578
 1256TIP3    H2 3775   2.920   5.003   3.269 -2.6746 -2.5050  0.5627
 1257TIP3   OH2 3776   4.557   5.303   0.515  0.3757  0.0506 -0.1189
 1257TIP3    H1 3777   4.595   5.383   0.478  2.1601 -0.4001  0.6424
 1257TIP3    H2 3778   4.582   5.306   0.608 -0.7956 -0.6828  0.2399
 1258TIP3   OH2 3779   2.061   4.047   2.629 -0.0388  0.0204 -0.4194
 1258TIP3    H1 3780   1.980   3.996   2.629  1.1348 -1.9322 -0.7086
 1258TIP3    H2 3781   2.127   3.988   2.665  1.1991  1.7199  0.2611
 1259TIP3   OH2 3782   2.047   3.376   1.928 -0.2675  0.3729 -0.3771
 1259TIP3    H1 3783   2.064   3.400   2.019  1.0878 -1.4047 -0.0936
 1259TIP3    H2 3784   1.978   3.310   1.933  0.1547 -0.0910 -0.5798
 1260TIP3   OH2 3785   3.037   3.504   5.143 -0.8828 -0.2014  0.2061
 1260TIP3    H1 3786   3.044   3.585   5.193  1.0566 -0.5000  0.4649
 1260TIP3    H2 3787   2.964   3.519   5.083 -1.5131  1.1595  1.2725
 1261TIP3   OH2 3788   5.092   4.971   0.847  0.3005  0.1393  0.3260
 1261TIP3    H1 3789   5.163   4.946   0.787  0.4943  0.1002  0.5714
 1261TIP3    H2 3790   5.107   5.064   0.864 -0.0654  0.2855 -0.1023
 1262TIP3   OH2 3791   3.758   2.169   3.282 -0.3185  0.1685  0.1371
 1262TIP3    H1 3792   3.747   2.166   3.187 -0.9455  0.5769  0.1891
 1262TIP3    H2 3793   3.669   2.184   3.316 -0.3752 -1.5418  0.8784
 1263TIP3   OH2 3794   4.915   4.250   0.845 -0.1465  0.4287  0.4867
 1263TIP3    H1 3795   4.944   4.316   0.782 -0.7742  0.8594  0.6417
 1263TIP3    H2 3796   4.971   4.174   0.828  0.7707  1.0883  0.4913
 1264TIP3   OH2 3797   3.229   0.452   1.733  0.0325 -0.0423 -0.5152
 1264TIP3    H1 3798   3.193   0.535   1.704  0.2684  0.2162 -0.0910
 1264TIP3    H2 3799   3.197   0.442   1.823 -1.8665 -1.5096 -1.2840
 1265TIP3   OH2 3800   5.334   4.510   0.381  0.5428  0.2440 -0.3745
 1265TIP3    H1 3801   5.317   4.431   0.330  0.2973 -0.0746  0.1920
 1265TIP3    H2 3802   5.258   4.566   0.367  0.1197 -0.1629  0.2333
 1266TIP3   OH2 3803   2.191   5.335   2.152 -0.3875 -0.3160  0.3998
 1266TIP3    H1 3804   2.230   5.328   2.065  1.3709 -0.4943  1.1590
 1266TIP3    H2 3805   2.237   5.408   2.193  2.2117 -3.0100  2.7402
 1267TIP3   OH2 3806   1.279   3.517   2.660  0.3264 -0.2858 -0.0585
 1267TIP3    H1 3807   1.250   3.572   2.732 -1.4756 -1.3562  0.1101
 1267TIP3    H2 3808   1.289   3.577   2.586  1.2688  0.6779  0.8304
 1268TIP3   OH2 3809   5.822   1.467   1.968 -0.2388 -0.5901  0.4470
 1268TIP3    H1 3810   5.778   1.448   2.051 -0.4340  0.3710  0.5772
 1268TIP3    H2 3811   5.816   1.386   1.919  0.4687 -1.3934  1.6343
 1269TIP3   OH2 3812   4.241   1.655   0.639 -0.3099  0.3557  0.0561
 1269TIP3    H1 3813   4.170   1.641   0.701 -1.8271 -1.2402 -1.8993
 1269TIP3    H2 3814   4.259   1.749   0.644 -1.9871  0.6544  1.1817
 1270TIP3   OH2 3815   1.856   1.351   1.910  0.2569 -0.1679 -0.1606
 1270TIP3    H1 3816   1.921   1.384   1.972  0.4906 -0.9954  0.0494
 1270TIP3    H2 3817   1.894   1.369   1.824  1.4392 -1.8615 -0.0441
 1271TIP3   OH2 3818   4.698   3.998   0.482 -0.2014 -0.1711  0.1393
 1271TIP3    H1 3819   4.724   3.982   0.391 -1.4025 -1.2328 -0.0425
 1271TIP3    H2 3820   4.644   4.077   0.479  0.7472  0.4982  0.1332
 1272TIP3   OH2 3821   1.259   4.721   0.467 -0.3990  0.0036 -0.3954
 1272TIP3    H1 3822   1.285   4.797   0.416  0.9547 -1.2134 -1.5954
 1272TIP3    H2 3823   1.338   4.669   0.475 -0.8065 -0.3727  2.1020
 1273TIP3   OH2 3824   5.557   0.380   2.931  0.4130 -0.6100  0.0328
 1273TIP3    H1 3825   5.563   0.290   2.963 -0.7693 -1.2029 -1.3435
 1273TIP3    H2 3826   5.470   0.387   2.893  1.1786  0.5082 -1.6496
 1274TIP3   OH2 3827   6.216   4.507   0.704  0.1333 -0.7167 -0.0405
 1274TIP3    H1 3828   6.150   4.513   0.636 -0.0247 -1.2294  0.0660
 1274TIP3    H2 3829   6.176   4.550   0.780  0.1411 -0.5337 -0.1395
 1275TIP3   OH2 3830   0.717   0.902   1.123  0.0195 -0.5727 -0.3830
 1275TIP3    H1 3831   0.678   0.815   1.133 -3.4818  0.8891  0.2847
 1275TIP3    H2 3832   0.643   0.959   1.103  1.7775  2.6369  1.4034
 1276TIP3   OH2 3833   2.507   2.870   4.028  0.2388  0.0189 -0.1128
 1276TIP3    H1 3834   2.545   2.838   4.109  0.0572 -1.6337 -0.6322
 1276TIP3    H2 3835   2.503   2.965   4.038  2.1530  0.0278  0.9460
 1277TIP3   OH2 3836   3.043   0.243   4.903  0.4812 -0.6214  0.0154
 1277TIP3    H1 3837   2.962   0.238   4.853  0.7110 -1.2025 -0.3104
 1277TIP3    H2 3838   3.082   0.156   4.894  0.6265 -0.6818  1.0393
 1278TIP3   OH2 3839   3.988   0.059   1.576  0.2023 -0.9379 -0.1692
 1278TIP3    H1 3840   3.911   0.025   1.531 -1.1180  1.5724  0.0283
 1278TIP3    H2 3841   3.967   0.048   1.669 -0.8758  1.5143 -0.0595
 1279TIP3   OH2 3842   2.226   0.260   3.677 -0.2156  0.5904  0.2828
 1279TIP3    H1 3843   2.287   0.196   3.639 -0.7011  0.2921 -0.0111
 1279TIP3    H2 3844   2.142   0.213   3.681 -0.7723  1.4680 -0.6795
 1280TIP3   OH2 3845   3.903   3.217   1.341 -0.3653  0.1472  0.3757
 1280TIP3    H1 3846   3.957   3.290   1.311  1.2926 -1.4813 -0.8283
 1280TIP3    H2 3847   3.824   3.222   1.287  1.0136 -0.6031 -1.8394
 1281TIP3   OH2 3848   0.445   3.961   5.057 -0.2410 -0.4105 -0.3117
 1281TIP3    H1 3849   0.461   3.871   5.027 -0.6554 -0.2578 -1.0112
 1281TIP3    H2 3850   0.350   3.965   5.068 -0.2330 -0.0275 -0.3869
 1282TIP3   OH2 3851   0.907   3.743   3.727 -0.1988  0.3176 -0.2566
 1282TIP3    H1 3852   0.850   3.691   3.670  0.6165  0.0186 -0.8317
 1282TIP3    H2 3853   0.979   3.770   3.669  1.7906 -1.7746  1.0713
 1283TIP3   OH2 3854   3.719   0.150   3.838  0.3935  0.1004 -0.9453
 1283TIP3    H1 3855   3.650   0.163   3.904  0.7331 -1.0301 -0.3395
 1283TIP3    H2 3856   3.693   0.206   3.765  0.9525  2.8831  0.7987
 1284TIP3   OH2 3857   3.093   0.863   1.514  0.3920 -0.5826 -0.0967
 1284TIP3    H1 3858   3.185   0.890   1.514  1.3576 -3.4352 -1.8986
 1284TIP3    H2 3859   3.076   0.834   1.425 -2.8197  1.2903 -0.2565
 1285TIP3   OH2 3860   3.499   0.652   1.498  0.2371 -0.9446  0.5113
 1285TIP3    H1 3861   3.523   0.676   1.409  0.3634  0.9140  0.9864
 1285TIP3    H2 3862   3.447   0.573   1.489  1.3189 -1.5339 -1.0812
 1286TIP3   OH2 3863   4.112   5.347   3.720  0.2531 -0.7140  0.1592
 1286TIP3    H1 3864   4.166   5.352   3.641 -0.3192 -0.7234 -0.2374
 1286TIP3    H2 3865   4.132   5.428   3.768  0.3350 -0.5403 -0.1678
 1287TIP3   OH2 3866   0.921   2.586   2.032  0.2010  0.1667 -0.5665
 1287TIP3    H1 3867   1.013   2.602   2.054 -0.5541  2.1559  1.5956
 1287TIP3    H2 3868   0.890   2.668   1.994 -1.3865  0.6351  1.5541
 1288TIP3   OH2 3869   3.602   4.374   0.618  0.2955  0.3799 -0.2750
 1288TIP3    H1 3870   3.692   4.351   0.599  0.4829  0.9480 -0.1054
 1288TIP3    H2 3871   3.607   4.462   0.656 -0.2248 -0.0281  0.7848
 1289TIP3   OH2 3872   2.063   1.860   4.758 -0.3699 -0.2882  0.1175
 1289TIP3    H1 3873   2.148   1.905   4.753 -0.8468  0.6086 -0.0998
 1289TIP3    H2 3874   2.057   1.811   4.676 -0.9073  1.1939 -0.7451
 1290TIP3   OH2 3875   5.338   3.485   3.334  0.2913  0.5641 -0.0116
 1290TIP3    H1 3876   5.278   3.547   3.375 -0.7918 -0.4717  0.0395
 1290TIP3    H2 3877   5.371   3.432   3.406  0.4836  0.4752 -0.1650
 1291TIP3   OH2 3878   0.801   4.159   3.124 -0.2132  0.1206 -0.5181
 1291TIP3    H1 3879   0.768   4.227   3.183 -0.5626 -0.9422  0.5438
 1291TIP3    H2 3880   0.880   4.127   3.166  0.5494  0.5805 -1.5577
 1292TIP3   OH2 3881   2.374   5.545   0.301 -0.5700 -1.0069 -0.8991
 1292TIP3    H1 3882   2.353   5.609   0.233 -0.8825  0.5805  0.6179
 1292TIP3    H2 3883   2.470   5.539   0.301 -0.3887  1.1919  0.4085
 1293TIP3   OH2 3884   4.786   0.691   4.658  0.7647  0.1590  0.1741
 1293TIP3    H1 3885   4.771   0.702   4.752  0.5380  0.4442  0.1019
 1293TIP3    H2 3886   4.881   0.699   4.648  0.7655  0.3639  0.3460
 1294TIP3   OH2 3887   3.751   3.715   0.086 -0.0323 -0.2937 -0.3978
 1294TIP3    H1 3888   3.740   3.761   0.003  1.4508  0.1497 -0.3754
 1294TIP3    H2 3889   3.739   3.622   0.064 -1.3029 -0.0625 -0.7706
 1295TIP3   OH2 3890   5.871   1.878   0.228  0.2510  0.2485  0.0376
 1295TIP3    H1 3891   5.796   1.929   0.196 -0.6908 -2.4558 -2.4775
 1295TIP3    H2 3892   5.834   1.814   0.287  0.7502 -0.2646 -0.1923
 1296TIP3   OH2 3893   0.211   4.475   2.955  0.9294  0.2968  0.7139
 1296TIP3    H1 3894   0.273   4.438   3.017  0.7079 -1.5462 -0.0818
 1296TIP3    H2 3895   0.215   4.416   2.879  0.7378  2.1083 -0.7711
 1297TIP3   OH2 3896   5.297   1.287   2.437  0.2317  0.5724  0.0019
 1297TIP3    H1 3897   5.232   1.331   2.383 -1.3977 -0.2501  1.2077
 1297TIP3    H2 3898   5.254   1.206   2.465  1.6832  0.1267  1.0645
 1298TIP3   OH2 3899   0.663   1.826   2.182  0.4026  0.2633  0.0606
 1298TIP3    H1 3900   0.734   1.776   2.144  0.9130  0.2143  1.0447
 1298TIP3    H2 3901   0.700   1.864   2.262 -0.3032  1.2780 -0.0644
 1299TIP3   OH2 3902   1.662   1.515   3.728  0.2353 -0.7499  0.4827
 1299TIP3    H1 3903   1.594   1.558   3.781 -0.8143 -1.6501 -0.0982
 1299TIP3    H2 3904   1.740   1.569   3.742 -1.0620  1.4950 -0.4094
 1300TIP3   OH2 3905   1.436   5.450   1.791 -0.4363  0.0903 -0.1704
 1300TIP3    H1 3906   1.429   5.410   1.704 -2.5178 -0.5235  0.2161
 1300TIP3    H2 3907   1.445   5.376   1.851 -0.1032  0.4423  0.2204
 1301TIP3   OH2 3908   4.188   1.310   2.382 -0.6135  0.3174 -0.1774
 1301TIP3    H1 3909   4.135   1.389   2.378 -0.4868  0.3644 -1.1004
 1301TIP3    H2 3910   4.257   1.330   2.446 -0.7846  0.8217 -0.1534
 1302TIP3   OH2 3911   4.875   4.026   3.473  0.2694 -0.3882 -0.4126
 1302TIP3    H1 3912   4.936   3.961   3.507  1.5842  0.8248 -0.3612
 1302TIP3    H2 3913   4.879   4.014   3.378  1.5093  0.4327 -0.4912
 1303TIP3   OH2 3914   3.187   4.128   3.753 -0.0642  0.2944 -0.0087
 1303TIP3    H1 3915   3.147   4.131   3.666 -0.3062 -0.0341  0.0881
 1303TIP3    H2 3916   3.248   4.054   3.749  1.5977  1.6427 -0.5968
 1304TIP3   OH2 3917   4.784   4.994   3.359  0.2127  0.6057  0.6908
 1304TIP3    H1 3918   4.879   5.001   3.369  0.1286  1.9364  0.6981
 1304TIP3    H2 3919   4.771   4.905   3.326  1.4401  0.3213  0.9009
 1305TIP3   OH2 3920   2.216   2.003   0.775 -0.0499 -0.6701 -0.0356
 1305TIP3    H1 3921   2.283   1.939   0.748 -0.6878 -1.9294  1.2407
 1305TIP3    H2 3922   2.263   2.064   0.832  0.6343  0.2149 -1.5056
 1306TIP3   OH2 3923   2.521   0.084   0.710 -0.1712 -0.0678 -0.2476
 1306TIP3    H1 3924   2.601   0.039   0.684  0.9471  1.4151  0.4692
 1306TIP3    H2 3925   2.467   0.016   0.749  2.1033 -0.6225  2.2734
 1307TIP3   OH2 3926   6.244   0.606   1.013  0.1281 -0.3909  0.5694
 1307TIP3    H1 3927   6.227   0.666   0.941  0.3412 -0.0736  0.7811
 1307TIP3    H2 3928   6.158   0.586   1.048  0.0748  0.0028  0.6671
 1308TIP3   OH2 3929   0.743   0.776   4.059  0.2771  0.3452  0.4667
 1308TIP3    H1 3930   0.703   0.851   4.103  0.0993  0.7897 -0.4364
 1308TIP3    H2 3931   0.670   0.732   4.016  0.6025  0.5773 -0.3417
 1309TIP3   OH2 3932   3.143   5.158   0.227  0.0026 -0.3698  0.5436
 1309TIP3    H1 3933   3.160   5.241   0.183 -1.0971 -0.5806 -0.3198
 1309TIP3    H2 3934   3.228   5.114   0.229  0.2691  0.0725 -0.4964
 1310TIP3   OH2 3935   2.422   4.315   3.192  0.3654 -0.1538 -0.2617
 1310TIP3    H1 3936   2.502   4.330   3.241 -0.4703  0.4887  0.9649
 1310TIP3    H2 3937   2.436   4.359   3.108  0.3671  2.2177  0.8897
 1311TIP3   OH2 3938   2.920   5.371   4.187  0.5180 -0.3084  0.7050
 1311TIP3    H1 3939   2.833   5.403   4.210  0.2979 -0.8005  0.5521
 1311TIP3    H2 3940   2.927   5.388   4.093  0.5095 -0.4518  0.6785
 1312TIP3   OH2 3941   3.860   5.818   1.793  0.1190  0.4855 -0.3464
 1312TIP3    H1 3942   3.795   5.804   1.725 -2.1497 -0.2534  1.8283
 1312TIP3    H2 3943   3.834   5.902   1.833  0.7813  0.4070  0.2608
 1313TIP3   OH2 3944   5.624   1.771   0.754 -0.2650  0.1848  0.2780
 1313TIP3    H1 3945   5.548   1.715   0.769  0.4547 -0.8998  0.0004
 1313TIP3    H2 3946   5.664   1.736   0.675 -0.1959  1.5589 -0.3148
 1314TIP3   OH2 3947   0.255   3.758   4.917  0.4712  0.0079 -0.3331
 1314TIP3    H1 3948   0.266   3.792   4.828  0.6711  2.0034  0.4017
 1314TIP3    H2 3949   0.174   3.799   4.949  0.8303 -0.0356  0.6748
 1315TIP3   OH2 3950   4.857   5.207   2.706 -0.2512  0.4564 -0.2636
 1315TIP3    H1 3951   4.941   5.245   2.729  1.0087 -1.4660 -1.4504
 1315TIP3    H2 3952   4.841   5.236   2.616 -1.0259  1.0813  0.0682
 1316TIP3   OH2 3953   1.418   3.995   0.307 -0.2905 -0.2960  0.0215
 1316TIP3    H1 3954   1.441   4.077   0.351 -1.5457  0.6005 -0.9091
 1316TIP3    H2 3955   1.444   3.926   0.368 -0.2977  0.8329  1.3413
 1317TIP3   OH2 3956   5.555   4.577   3.400  0.0981  0.5292  0.2786
 1317TIP3    H1 3957   5.562   4.510   3.333 -0.6744  0.6251  0.0891
 1317TIP3    H2 3958   5.639   4.623   3.397 -0.1156  0.8653 -0.9801
 1318TIP3   OH2 3959   3.328   2.295   3.704 -0.3424  0.0635  0.3652
 1318TIP3    H1 3960   3.403   2.236   3.695 -0.6606 -0.3432  0.3581
 1318TIP3    H2 3961   3.257   2.240   3.737 -0.6382  0.4469  0.3855
 1319TIP3   OH2 3962   3.880   3.097   3.798 -0.9699 -0.1018 -0.7633
 1319TIP3    H1 3963   3.912   3.010   3.821 -0.0443  0.7356  1.3046
 1319TIP3    H2 3964   3.791   3.100   3.834 -1.0258 -0.2068 -0.8918
 1320TIP3   OH2 3965   3.276   5.797   4.551  0.4377 -0.0727 -0.1301
 1320TIP3    H1 3966   3.357   5.757   4.519  0.5708  0.6415 -0.7003
 1320TIP3    H2 3967   3.218   5.797   4.475 -0.4570 -1.4568  0.5129
 1321TIP3   OH2 3968   1.194   4.371   2.634 -0.2655 -0.1481  0.0578
 1321TIP3    H1 3969   1.114   4.412   2.666 -0.3902  0.1840 -0.6608
 1321TIP3    H2 3970   1.171   4.280   2.620 -1.1223  0.3410 -2.0810
 1322TIP3   OH2 3971   1.008   5.793   2.676  0.1621  0.0539  0.7571
 1322TIP3    H1 3972   0.941   5.764   2.738  0.4710 -0.3543  0.8987
 1322TIP3    H2 3973   1.003   5.732   2.604 -1.0682  1.2655 -0.2336
 1323TIP3   OH2 3974   5.111   5.815   3.140 -0.2676 -0.0186  0.0409
 1323TIP3    H1 3975   5.182   5.767   3.098 -0.2000 -0.3795  0.5520
 1323TIP3    H2 3976   5.129   5.808   3.233 -0.5353  0.5837  0.1399
 1324TIP3   OH2 3977   3.853   5.552   0.808  0.5137  0.3827  0.2965
 1324TIP3    H1 3978   3.899   5.594   0.880 -0.2891  0.4184  0.8088
 1324TIP3    H2 3979   3.825   5.624   0.752 -1.1791  0.6335  1.3620
 1325TIP3   OH2 3980   0.399   2.330  -0.001 -0.0811  0.1207 -0.2999
 1325TIP3    H1 3981   0.427   2.416   0.030  0.1166  0.0269 -0.2126
 1325TIP3    H2 3982   0.469   2.271   0.026  0.5241  0.1692 -1.6687
 1326TIP3   OH2 3983   2.085   5.356   4.423 -0.2099  0.3146 -0.3172
 1326TIP3    H1 3984   2.028   5.281   4.403  0.9594 -0.5572 -0.4909
 1326TIP3    H2 3985   2.052   5.388   4.507 -0.1296 -1.0439  0.2733
 1327TIP3   OH2 3986   4.170   3.636   1.144 -0.1789  0.1192 -0.2034
 1327TIP3    H1 3987   4.096   3.687   1.176 -1.2371 -0.7849 -1.1574
 1327TIP3    H2 3988   4.139   3.546   1.142  1.5958 -0.6081  1.2622
 1328TIP3   OH2 3989   3.819   0.771   2.732  0.0920  0.4228  1.1783
 1328TIP3    H1 3990   3.808   0.857   2.690  0.6248  0.1520  0.4695
 1328TIP3    H2 3991   3.888   0.784   2.797 -1.3548  1.0725  2.6616
 1329TIP3   OH2 3992   6.068   4.663   4.899  0.2522  0.5678 -0.6202
 1329TIP3    H1 3993   6.037   4.753   4.893 -0.1995  0.7125  2.2152
 1329TIP3    H2 3994   6.156   4.664   4.862  0.0581  2.0504 -1.0911
 1330TIP3   OH2 3995   4.332   5.728   0.705  0.0111 -0.6980  0.3489
 1330TIP3    H1 3996   4.376   5.809   0.732 -0.6938  0.2794 -1.2890
 1330TIP3    H2 3997   4.318   5.680   0.787 -1.2623  1.6827  1.6558
 1331TIP3   OH2 3998   3.126   1.664   0.138  0.1179 -0.3139 -0.2571
 1331TIP3    H1 3999   3.171   1.715   0.206  0.0002 -0.3210 -0.1729
 1331TIP3    H2 4000   3.157   1.701   0.055  0.2050 -0.2559 -0.1987
 1332TIP3   OH2 4001   0.968   3.856   0.228  0.0942  0.5411 -0.1960
 1332TIP3    H1 4002   0.974   3.761   0.238 -2.3073  0.3917  0.3934
 1332TIP3    H2 4003   1.053   3.882   0.191  0.9247 -1.7671 -0.0491
 1333TIP3   OH2 4004   3.061   2.067   1.582 -0.2326  0.2790 -0.1475
 1333TIP3    H1 4005   2.976   2.024   1.592  0.4685 -0.9130  0.8499
 1333TIP3    H2 4006   3.067   2.127   1.657  0.7311 -1.2931  1.0937
 1334TIP3   OH2 4007   5.896   3.381   0.070 -0.2624  0.4191 -0.2278
 1334TIP3    H1 4008   5.912   3.472   0.045 -1.2483  0.3955 -0.9813
 1334TIP3    H2 4009   5.887   3.384   0.165  0.2884  1.0158 -0.1871
 1335TIP3   OH2 4010   2.852   4.731   3.514 -0.3486 -0.0063  0.0170
 1335TIP3    H1 4011   2.872   4.671   3.586  1.3103  0.2533 -0.1904
 1335TIP3    H2 4012   2.931   4.731   3.461 -0.6821  1.6317 -0.5199
 1336TIP3   OH2 4013   0.301   0.365   0.527 -0.3049 -0.4950  0.0819
 1336TIP3    H1 4014   0.240   0.340   0.458 -0.7467  1.4740 -0.3042
 1336TIP3    H2 4015   0.261   0.333   0.607 -3.1049  2.6132  0.1267
 1337TIP3   OH2 4016   5.195   0.667   1.035 -0.1563 -0.1019 -0.3783
 1337TIP3    H1 4017   5.157   0.598   1.091 -0.6067  0.5135  0.0916
 1337TIP3    H2 4018   5.136   0.741   1.045  0.3851  0.3971 -0.7948
 1338TIP3   OH2 4019   5.407   5.961   3.963  0.2777  0.3596 -0.6485
 1338TIP3    H1 4020   5.433   6.023   4.031  1.7575 -0.4191 -0.4579
 1338TIP3    H2 4021   5.488   5.918   3.937 -0.6067 -1.0525 -1.2218
 1339TIP3   OH2 4022   4.726   3.592   4.244  0.3724  0.2199 -0.1954
 1339TIP3    H1 4023   4.737   3.587   4.149  0.3520 -1.5224 -0.1292
 1339TIP3    H2 4024   4.688   3.508   4.269  1.3887  0.2041  1.4914
 1340TIP3   OH2 4025   2.613   0.059   0.082 -0.3053  0.5197  0.3695
 1340TIP3    H1 4026   2.664   0.085   0.005 -0.5514  0.9421  0.3445
 1340TIP3    H2 4027   2.598   0.141   0.129 -0.8145  0.3737  0.4633
 1341TIP3   OH2 4028   6.116   4.486   1.577 -0.1464  0.0383 -1.0346
 1341TIP3    H1 4029   6.140   4.488   1.670 -0.6807 -1.5824 -0.8192
 1341TIP3    H2 4030   6.198   4.465   1.532 -0.2508 -1.1922 -0.7064
 1342TIP3   OH2 4031   3.571   2.850   4.125 -0.1361 -0.8757 -0.4417
 1342TIP3    H1 4032   3.561   2.882   4.215  2.0766 -0.2251 -0.3635
 1342TIP3    H2 4033   3.483   2.824   4.099 -0.6990 -2.0752  2.2755
 1343TIP3   OH2 4034   2.118   4.937   3.692  0.3318  0.1649  0.2770
 1343TIP3    H1 4035   2.208   4.915   3.717 -0.3070 -1.2104  1.4636
 1343TIP3    H2 4036   2.075   4.961   3.774 -1.3821 -2.8893  0.3979
 1344TIP3   OH2 4037   1.129   5.636   1.484  0.3996 -0.6495 -0.3454
 1344TIP3    H1 4038   1.110   5.607   1.574  0.4180 -0.4926 -0.2905
 1344TIP3    H2 4039   1.212   5.595   1.463  0.3394 -0.7791 -0.3315
 1345TIP3   OH2 4040   3.605   4.515   1.563 -0.3200  0.1196  0.5182
 1345TIP3    H1 4041   3.593   4.473   1.477  0.3593 -1.4503  1.1434
 1345TIP3    H2 4042   3.523   4.498   1.609  0.0229 -0.7491  0.8375
 1346TIP3   OH2 4043   5.921   3.406   4.958 -0.3586  0.4169 -0.0192
 1346TIP3    H1 4044   5.856   3.476   4.969 -0.9298  0.0284 -0.7566
 1346TIP3    H2 4045   5.911   3.380   4.867 -1.4261 -1.8435  0.6836
 1347TIP3   OH2 4046   1.959   1.932   0.317 -0.1364  0.0173 -0.4934
 1347TIP3    H1 4047   1.880   1.932   0.263 -0.1586  0.1419 -0.4611
 1347TIP3    H2 4048   1.935   1.880   0.394  0.3859 -1.4940 -1.3102
 1348TIP3   OH2 4049   3.956   2.595   1.689  0.4770 -0.3362 -0.0315
 1348TIP3    H1 4050   3.949   2.578   1.783  1.4143 -0.7820 -0.0354
 1348TIP3    H2 4051   3.927   2.686   1.679  0.7200 -0.1663  0.7399
 1349TIP3   OH2 4052   2.870   0.271   4.701 -0.5106  0.2592  0.3663
 1349TIP3    H1 4053   2.799   0.214   4.673  0.3972 -1.2588  1.0425
 1349TIP3    H2 4054   2.945   0.244   4.649  0.5108 -0.7694  2.2580
 1350TIP3   OH2 4055   1.517   4.446   3.945 -0.8796  0.2109  0.2508
 1350TIP3    H1 4056   1.460   4.486   4.010 -1.8912 -0.0894 -0.4270
 1350TIP3    H2 4057   1.474   4.463   3.861 -0.1079 -0.2521 -0.2557
 1351TIP3   OH2 4058   3.346   3.927   3.742  0.0611 -0.0149 -0.2118
 1351TIP3    H1 4059   3.346   3.876   3.661  0.9390  1.3830 -1.1343
 1351TIP3    H2 4060   3.425   3.898   3.788  0.0729 -0.1369 -0.3088
 1352TIP3   OH2 4061   6.068   2.908   1.702  0.5854  0.3608 -1.2209
 1352TIP3    H1 4062   6.097   2.817   1.707  0.8153  0.4983  0.6546
 1352TIP3    H2 4063   5.973   2.904   1.705  0.6107  0.1939 -0.1214
 1353TIP3   OH2 4064   4.466   1.196   2.337  0.3278 -0.1778 -0.5324
 1353TIP3    H1 4065   4.514   1.244   2.404 -0.3551 -0.8253  0.4490
 1353TIP3    H2 4066   4.422   1.265   2.286 -1.0154  0.2789  1.1458
 1354TIP3   OH2 4067   5.112   4.459   4.788  0.4316 -0.0912  0.0116
 1354TIP3    H1 4068   5.140   4.513   4.715 -1.4808 -1.0688 -1.5436
 1354TIP3    H2 4069   5.117   4.369   4.755  0.6097 -0.6541  1.4831
 1355TIP3   OH2 4070   4.118   0.938   0.396 -0.2991 -0.1565  0.2672
 1355TIP3    H1 4071   4.183   0.938   0.466  0.1860  0.8794 -0.1553
 1355TIP3    H2 4072   4.169   0.931   0.316 -0.5746  1.8477 -0.1378
 1356TIP3   OH2 4073   3.997   3.118   0.642 -0.4607  0.1690  0.1353
 1356TIP3    H1 4074   4.024   3.175   0.570 -1.1756  0.7693  0.3223
 1356TIP3    H2 4075   4.069   3.124   0.706  1.6938 -2.8123 -1.7803
 1357TIP3   OH2 4076   4.922   2.479   1.270 -0.5409  0.3910  0.4249
 1357TIP3    H1 4077   4.915   2.554   1.210 -0.4936 -1.0871 -1.5456
 1357TIP3    H2 4078   4.935   2.518   1.356  1.3263  2.6534 -0.7530
 1358TIP3   OH2 4079   2.199   2.165   1.468 -0.1083  0.1774  0.0690
 1358TIP3    H1 4080   2.212   2.259   1.452  1.2846  0.1155  0.7135
 1358TIP3    H2 4081   2.125   2.161   1.528  0.4830  0.9438  0.8758
 1359TIP3   OH2 4082   4.777   3.815   5.119  0.3623  0.4970  0.3069
 1359TIP3    H1 4083   4.726   3.877   5.171  1.3268  1.0328  0.6160
 1359TIP3    H2 4084   4.826   3.869   5.058  1.6029  0.0931  0.9219
 1360TIP3   OH2 4085   1.684   2.152   0.195 -0.0164 -0.2136  0.4235
 1360TIP3    H1 4086   1.755   2.089   0.209 -0.7086 -0.8168  1.3773
 1360TIP3    H2 4087   1.700   2.189   0.108 -0.2212 -2.5302 -0.6568
 1361TIP3   OH2 4088   2.098   1.402   1.208  0.0346  0.1062 -1.1792
 1361TIP3    H1 4089   2.062   1.338   1.269 -0.9977  0.8744 -0.9482
 1361TIP3    H2 4090   2.111   1.480   1.262 -0.3924  0.6315 -1.8239
 1362TIP3   OH2 4091   6.217   3.655   1.595 -0.1145  0.1568  0.1362
 1362TIP3    H1 4092   6.148   3.632   1.658  0.0055  0.6848  0.4651
 1362TIP3    H2 4093   6.287   3.692   1.649 -0.5095  1.7797 -0.4136
 1363TIP3   OH2 4094   0.177   0.740   2.006 -0.4480 -0.4394 -0.4580
 1363TIP3    H1 4095   0.169   0.757   2.100  1.9997 -0.3945 -0.1697
 1363TIP3    H2 4096   0.173   0.827   1.965 -0.3213 -0.3390 -0.2584
 1364TIP3   OH2 4097   4.093   4.533   4.251 -0.0854 -0.5229  0.6425
 1364TIP3    H1 4098   4.076   4.601   4.186 -1.4909  0.9259  2.4182
 1364TIP3    H2 4099   4.187   4.515   4.243 -0.4571 -1.7209 -2.9187
 1365TIP3   OH2 4100   2.309   2.234   4.011 -0.1273 -0.3551  0.6372
 1365TIP3    H1 4101   2.261   2.302   3.964  0.5410  1.6557  2.6646
 1365TIP3    H2 4102   2.347   2.180   3.942  2.3233  3.4385 -1.3929
 1366TIP3   OH2 4103   0.405   0.411   2.765  0.9219  0.4160  0.5491
 1366TIP3    H1 4104   0.424   0.334   2.819 -0.1672  0.5398  1.1426
 1366TIP3    H2 4105   0.309   0.412   2.758  0.8238  2.2905  1.4347
 1367TIP3   OH2 4106   3.604   4.098   2.580  1.0075 -0.2005  0.1597
 1367TIP3    H1 4107   3.659   4.176   2.586  1.0943 -0.2393 -0.0955
 1367TIP3    H2 4108   3.533   4.113   2.642  1.6047 -0.3916  0.8987
 1368TIP3   OH2 4109   3.196   5.394   3.342 -0.0299 -0.5499 -0.4466
 1368TIP3    H1 4110   3.106   5.402   3.309 -0.6992 -1.2699  1.1040
 1368TIP3    H2 4111   3.246   5.457   3.291 -1.5246  0.2481 -0.9777
 1369TIP3   OH2 4112   5.484   2.869   1.659  0.2566  0.2902  0.0473
 1369TIP3    H1 4113   5.423   2.854   1.731  1.3205 -2.7099  0.4744
 1369TIP3    H2 4114   5.431   2.862   1.580 -0.4033  0.4879  0.4675
 1370TIP3   OH2 4115   4.286   0.941   2.797 -0.1110 -0.0497  0.0515
 1370TIP3    H1 4116   4.370   0.940   2.750 -0.5281 -0.1315 -0.7183
 1370TIP3    H2 4117   4.240   0.863   2.765 -0.5135  0.0383  0.4104
 1371TIP3   OH2 4118   1.827   3.982   5.203  0.0965 -0.1555 -0.2202
 1371TIP3    H1 4119   1.766   3.981   5.129 -0.7954  1.1246  0.4676
 1371TIP3    H2 4120   1.886   3.908   5.186 -1.2749 -1.0736 -1.1992
 1372TIP3   OH2 4121   6.031   1.766   3.737 -0.4556  0.4131  0.0745
 1372TIP3    H1 4122   5.972   1.704   3.694 -0.7879 -0.3985  1.5979
 1372TIP3    H2 4123   6.113   1.717   3.748 -0.3498  0.6346  0.2860
 1373TIP3   OH2 4124   0.944   1.401   3.947 -0.1553  0.0596  0.0593
 1373TIP3    H1 4125   0.888   1.471   3.978 -0.8335 -0.5538  0.2319
 1373TIP3    H2 4126   1.020   1.446   3.910 -0.0903  0.8443  1.1157
 1374TIP3   OH2 4127   1.512   2.161   3.319  0.1399 -0.6707 -0.1882
 1374TIP3    H1 4128   1.550   2.107   3.250 -0.4104 -1.6522  0.2543
 1374TIP3    H2 4129   1.585   2.184   3.376  0.7263  0.7077 -1.4259
 1375TIP3   OH2 4130   5.142   2.485   2.243 -0.0879  0.5237  0.3856
 1375TIP3    H1 4131   5.071   2.541   2.212  0.9296  2.1986  0.9482
 1375TIP3    H2 4132   5.104   2.397   2.243 -2.0367  1.3000  0.2980
 1376TIP3   OH2 4133   5.942   2.491   1.269  0.0900 -0.1115 -0.2926
 1376TIP3    H1 4134   5.917   2.423   1.205 -1.1270  0.0043  0.0273
 1376TIP3    H2 4135   5.859   2.533   1.291  0.4949 -0.1438  1.3753
 1377TIP3   OH2 4136   4.702   1.492   0.344  0.3897 -0.4444  0.5077
 1377TIP3    H1 4137   4.693   1.434   0.420  1.1770 -0.5974  0.4920
 1377TIP3    H2 4138   4.796   1.507   0.337  0.3442 -0.6023 -0.5714
 1378TIP3   OH2 4139   4.424   0.455   3.280 -0.3307  0.4035 -0.4030
 1378TIP3    H1 4140   4.443   0.429   3.190 -1.3466  0.4415 -0.6372
 1378TIP3    H2 4141   4.348   0.403   3.305  0.5874 -0.4274  0.8365
 1379TIP3   OH2 4142   0.251   2.460   0.338 -0.3179  0.2107 -0.0922
 1379TIP3    H1 4143   0.226   2.517   0.266  0.2451 -0.7258 -1.0607
 1379TIP3    H2 4144   0.254   2.517   0.415 -0.8612  1.2361 -0.8256
 1380TIP3   OH2 4145   3.052   0.563   0.473 -0.5713  0.2958 -0.1722
 1380TIP3    H1 4146   3.010   0.486   0.510  0.1302  0.0397  0.0949
 1380TIP3    H2 4147   2.980   0.625   0.460 -1.3886 -0.8911 -1.7271
 1381TIP3   OH2 4148   3.596   0.898   3.996  0.1787 -0.0799 -0.5351
 1381TIP3    H1 4149   3.587   0.966   4.062  0.5610  1.0744 -1.6314
 1381TIP3    H2 4150   3.509   0.859   3.990  0.3829 -0.9261  1.3611
 1382TIP3   OH2 4151   5.887   3.122   2.348  0.0787  0.1273  0.5253
 1382TIP3    H1 4152   5.797   3.151   2.334  0.7006  2.1555  0.4588
 1382TIP3    H2 4153   5.924   3.185   2.409  2.0959  0.6857 -1.1512
 1383TIP3   OH2 4154   4.469   2.675   0.053  0.2688 -0.5187 -0.4260
 1383TIP3    H1 4155   4.418   2.741   0.100 -0.2087 -1.4292  0.3572
 1383TIP3    H2 4156   4.471   2.707  -0.037  1.3205  1.3332  0.1979
 1384TIP3   OH2 4157   3.989   3.788   2.957  0.0136  0.0194  0.2889
 1384TIP3    H1 4158   3.934   3.818   2.884 -1.3499 -0.5672  1.0254
 1384TIP3    H2 4159   3.931   3.793   3.034  0.9778 -0.6935  1.0890
 1385TIP3   OH2 4160   1.081   0.026   4.582  0.4637  0.2185  0.2262
 1385TIP3    H1 4161   0.999   0.032   4.631 -0.4866  1.1063 -1.3714
 1385TIP3    H2 4162   1.149   0.042   4.647 -0.5341 -1.3207  1.7583
 1386TIP3   OH2 4163   4.452   5.519   0.886 -0.5308 -0.1556 -0.4992
 1386TIP3    H1 4164   4.392   5.454   0.849  0.1378 -0.8081 -0.4610
 1386TIP3    H2 4165   4.421   5.530   0.977  0.4110 -1.7643  0.0491
 1387TIP3   OH2 4166   2.550   5.842   2.769  0.1870  0.4160 -0.2633
 1387TIP3    H1 4167   2.610   5.768   2.772 -0.0240  0.1985 -1.2306
 1387TIP3    H2 4168   2.566   5.883   2.684  1.4949  2.5041  0.8961
 1388TIP3   OH2 4169   1.508   0.562   1.714 -0.2620 -0.3954  0.1347
 1388TIP3    H1 4170   1.468   0.557   1.627 -0.9292 -0.8864  0.4646
 1388TIP3    H2 4171   1.481   0.647   1.748 -2.1031 -1.2141  0.8520
 1389TIP3   OH2 4172   0.620   3.565   0.769 -0.7883  0.3276 -0.4452
 1389TIP3    H1 4173   0.590   3.651   0.741 -0.5249  0.5623 -0.0195
 1389TIP3    H2 4174   0.545   3.528   0.816 -0.7823  0.4741 -0.3180
 1390TIP3   OH2 4175   2.792   2.301   1.381  0.3688  0.5502  0.2584
 1390TIP3    H1 4176   2.861   2.247   1.342 -0.1853 -0.2357  0.3311
 1390TIP3    H2 4177   2.800   2.385   1.337  1.6695  0.6260  0.6038
 1391TIP3   OH2 4178   2.370   4.009   3.184  0.2991 -0.5718 -0.0980
 1391TIP3    H1 4179   2.376   3.992   3.278  0.0485 -0.4964 -0.0688
 1391TIP3    H2 4180   2.346   4.102   3.177  1.0904 -0.3686 -0.2467
 1392TIP3   OH2 4181   5.715   4.778   4.941 -0.0505  0.0897  0.1956
 1392TIP3    H1 4182   5.646   4.829   4.899 -0.5866 -1.3093 -0.6779
 1392TIP3    H2 4183   5.790   4.838   4.945 -1.0304  1.3287  0.3263
 1393TIP3   OH2 4184   5.054   0.834   2.358 -0.0573 -0.5855 -0.3602
 1393TIP3    H1 4185   5.026   0.786   2.280 -0.1049 -1.1572  0.0036
 1393TIP3    H2 4186   5.125   0.890   2.327 -0.7725 -0.0238 -1.0343
 1394TIP3   OH2 4187   4.945   2.271   2.682  0.3932  0.5158  0.2106
 1394TIP3    H1 4188   5.009   2.341   2.669  1.5072 -0.3960  0.6938
 1394TIP3    H2 4189   4.987   2.211   2.743 -0.9872 -0.0307  0.6603
 1395TIP3   OH2 4190   0.936   0.443   0.563 -0.0731 -0.2311  0.0017
 1395TIP3    H1 4191   0.858   0.478   0.518 -0.0236  0.1651  0.2254
 1395TIP3    H2 4192   0.902   0.370   0.615 -0.0808 -0.9024 -0.9278
 1396TIP3   OH2 4193   6.156   0.155   0.095  0.0313  0.1843 -0.5735
 1396TIP3    H1 4194   6.081   0.142   0.036  0.4634 -1.9953 -0.7370
 1396TIP3    H2 4195   6.155   0.078   0.152  2.5803 -0.3462 -1.1149
 1397TIP3   OH2 4196   5.851   1.889   4.550  0.0829  0.2499  0.6428
 1397TIP3    H1 4197   5.817   1.936   4.626  1.4176 -0.1507  1.5239
 1397TIP3    H2 4198   5.935   1.932   4.531  1.4633 -1.8851  1.6366
 1398TIP3   OH2 4199   1.527   1.717   1.630  0.8585 -0.3366 -0.5029
 1398TIP3    H1 4200   1.592   1.686   1.694  1.3000 -1.4345 -1.4566
 1398TIP3    H2 4201   1.459   1.757   1.683  1.8688  0.0106  0.5819
 1399TIP3   OH2 4202   3.404   0.614   0.851 -0.1269  0.1348  0.8417
 1399TIP3    H1 4203   3.337   0.571   0.903 -0.9996  0.9675  0.4333
 1399TIP3    H2 4204   3.417   0.556   0.776  0.0922 -0.3516  1.2496
 1400TIP3   OH2 4205   0.095   0.265   0.335  0.0149 -0.1756 -0.0875
 1400TIP3    H1 4206   0.160   0.249   0.266 -0.0725  1.9871 -0.7482
 1400TIP3    H2 4207   0.043   0.185   0.337 -0.1674 -0.2240 -2.7937
 1401TIP3   OH2 4208   1.879   5.180   1.091  0.1726 -0.4146 -0.2222
 1401TIP3    H1 4209   1.875   5.240   1.017  1.2814  0.3874  0.3363
 1401TIP3    H2 4210   1.953   5.212   1.144  0.1045 -1.6263  0.6492
 1402TIP3   OH2 4211   2.218   5.912   3.672  0.1517  0.1005 -0.1622
 1402TIP3    H1 4212   2.245   5.983   3.731  0.2003  0.1945 -0.2983
 1402TIP3    H2 4213   2.147   5.868   3.719  1.4486 -1.0365  0.8487
 1403TIP3   OH2 4214   4.241   3.768   0.911  0.0906 -0.2061  0.0687
 1403TIP3    H1 4215   4.232   3.712   0.988 -0.1185  0.2960  0.4126
 1403TIP3    H2 4216   4.213   3.855   0.940 -0.0712 -0.0263 -0.5960
 1404TIP3   OH2 4217   4.290   5.864   1.620 -0.3661 -0.2493  0.0259
 1404TIP3    H1 4218   4.266   5.933   1.558  2.7783  1.6288  0.6384
 1404TIP3    H2 4219   4.211   5.810   1.628 -2.4508  2.2366 -1.8533
 1405TIP3   OH2 4220   4.470   0.298   3.741 -0.3110 -0.2037 -0.1110
 1405TIP3    H1 4221   4.442   0.356   3.812 -0.4014  0.5669 -0.7617
 1405TIP3    H2 4222   4.565   0.292   3.751  0.0851  2.1852 -1.5448
 1406TIP3   OH2 4223   0.541   2.285   1.992  0.8310  0.2835 -0.2198
 1406TIP3    H1 4224   0.586   2.204   2.014 -1.2109 -0.8763 -0.0362
 1406TIP3    H2 4225   0.460   2.283   2.044 -0.4912  1.1783 -2.1156
 1407TIP3   OH2 4226   6.017   1.461   3.938 -0.2453  0.0726 -0.0425
 1407TIP3    H1 4227   6.000   1.502   4.022  0.6417  1.4001 -0.4719
 1407TIP3    H2 4228   6.009   1.367   3.955 -0.5842  0.3381  1.3894
 1408TIP3   OH2 4229   0.250   4.769   3.616 -0.4051 -0.2929  0.1572
 1408TIP3    H1 4230   0.205   4.833   3.561  0.5392  0.6691  0.4808
 1408TIP3    H2 4231   0.322   4.817   3.656  0.3127 -1.5546  0.4428
 1409TIP3   OH2 4232   1.516   5.848   3.981  0.0277 -0.2191 -0.2763
 1409TIP3    H1 4233   1.454   5.897   4.035 -0.0725  0.5566 -1.0873
 1409TIP3    H2 4234   1.525   5.764   4.026  0.3401  0.5878  1.2454
 1410TIP3   OH2 4235  -0.013   2.021   1.373 -0.3031 -0.2432  0.2172
 1410TIP3    H1 4236   0.066   1.970   1.356  0.1207 -0.3564  2.2844
 1410TIP3    H2 4237  -0.006   2.048   1.465 -1.4198  1.9558 -0.2604
 1411TIP3   OH2 4238   3.026   4.700   0.150  0.4599  0.4318 -0.3546
 1411TIP3    H1 4239   2.981   4.780   0.179  1.5917  1.4636 -1.3496
 1411TIP3    H2 4240   3.114   4.707   0.186  0.1152 -1.2204  0.9540
 1412TIP3   OH2 4241   1.429   0.770   1.044  0.2850 -0.1689  0.0720
 1412TIP3    H1 4242   1.436   0.815   1.129  0.6172 -0.5280  0.2396
 1412TIP3    H2 4243   1.510   0.720   1.037  0.1010 -0.4182 -0.3023
 1413TIP3   OH2 4244   0.964   1.824   0.526 -0.2194 -0.4818  0.1590
 1413TIP3    H1 4245   0.948   1.817   0.432  1.0275  0.7308 -0.1777
 1413TIP3    H2 4246   0.912   1.900   0.553  1.5825  0.9417 -0.1538
 1414TIP3   OH2 4247   3.650   4.028   1.551  0.3096 -0.2721 -0.0625
 1414TIP3    H1 4248   3.623   4.098   1.610  1.9532  2.3814 -2.2380
 1414TIP3    H2 4249   3.612   4.051   1.466  2.4728 -0.8747 -1.2763
 1415TIP3   OH2 4250   0.945   1.708   3.559  0.2390  0.0984 -0.1476
 1415TIP3    H1 4251   0.909   1.628   3.599 -0.9298  0.6073 -0.1494
 1415TIP3    H2 4252   1.015   1.676   3.502  0.7253 -0.7998  0.9090
 1416TIP3   OH2 4253   5.267   1.645   4.560  0.5597  0.1340 -0.9424
 1416TIP3    H1 4254   5.350   1.642   4.513  0.2584 -1.9697 -1.4336
 1416TIP3    H2 4255   5.273   1.573   4.623 -0.9665 -0.1900 -1.1431
 1417TIP3   OH2 4256   4.668   4.247   5.178  1.0086 -0.4434  0.1065
 1417TIP3    H1 4257   4.579   4.272   5.153  1.1226  0.7494  0.8693
 1417TIP3    H2 4258   4.708   4.217   5.096  0.4300  0.6007 -0.5776
 1418TIP3   OH2 4259   3.578   1.504   4.960 -0.5665  0.2115  0.7341
 1418TIP3    H1 4260   3.546   1.572   5.019  0.2974 -0.1119  1.6205
 1418TIP3    H2 4261   3.621   1.441   5.018  1.7126  0.6546 -0.3579
 1419TIP3   OH2 4262   3.317   5.605   3.166 -0.1638 -0.1855  0.1309
 1419TIP3    H1 4263   3.353   5.660   3.236  0.0084  0.7179 -0.6481
 1419TIP3    H2 4264   3.237   5.650   3.138 -0.0116 -0.3074 -0.5283
 1420TIP3   OH2 4265   6.341   4.341   3.355 -0.1118 -0.0432 -0.2892
 1420TIP3    H1 4266   6.250   4.355   3.327 -0.6359 -2.9136 -0.2977
 1420TIP3    H2 4267   6.389   4.325   3.273  0.1207  0.0496 -0.1710
 1421TIP3   OH2 4268   3.764   1.836   3.805  0.1845 -0.0619  0.0981
 1421TIP3    H1 4269   3.840   1.778   3.803  0.1665 -0.1166 -2.3262
 1421TIP3    H2 4270   3.787   1.907   3.744 -1.1484  0.6655  0.4131
 1422TIP3   OH2 4271   5.984   5.534   2.015  0.4428  0.3461  0.5442
 1422TIP3    H1 4272   5.975   5.468   2.084 -0.1776  0.8719  0.9816
 1422TIP3    H2 4273   6.078   5.539   1.999  0.4322 -1.3022 -0.1559
 1423TIP3   OH2 4274   1.125   1.494   3.254 -0.8114 -0.1154 -0.1310
 1423TIP3    H1 4275   1.215   1.478   3.225  0.0660  0.8716  1.8306
 1423TIP3    H2 4276   1.106   1.583   3.224  0.3380  1.1672  2.5838
 1424TIP3   OH2 4277   4.104   1.679   3.496 -0.0513 -0.1904 -0.1514
 1424TIP3    H1 4278   4.081   1.749   3.435  0.6272 -0.9478 -1.3093
 1424TIP3    H2 4279   4.199   1.684   3.504 -0.1577  0.2440  1.3213
 1425TIP3   OH2 4280   1.667   2.033   0.711 -0.0336 -0.6098 -0.0425
 1425TIP3    H1 4281   1.580   1.994   0.719  0.0337 -0.8213 -0.2954
 1425TIP3    H2 4282   1.722   1.981   0.771 -0.5114  0.9001  1.7768
 1426TIP3   OH2 4283   5.810   2.162   2.880 -0.5409  0.2531  0.1207
 1426TIP3    H1 4284   5.807   2.067   2.884 -1.2442  0.2127 -0.9419
 1426TIP3    H2 4285   5.883   2.187   2.937  0.0397 -0.9416 -0.0865
 1427TIP3   OH2 4286   1.927   0.394   4.349  0.4183  0.3944  0.3689
 1427TIP3    H1 4287   1.848   0.448   4.348  0.7706  0.9696 -1.5360
 1427TIP3    H2 4288   1.983   0.433   4.282  1.2646 -1.5130 -0.0998
 1428TIP3   OH2 4289   4.037   5.740   3.795 -0.1176 -0.0243 -0.2356
 1428TIP3    H1 4290   4.061   5.822   3.837  0.8353  0.1256 -1.0331
 1428TIP3    H2 4291   4.072   5.672   3.852  0.8996  0.1738 -0.5968
 1429TIP3   OH2 4292   6.267   5.779   0.390  0.6566 -0.3287 -0.0838
 1429TIP3    H1 4293   6.236   5.865   0.361 -1.0709 -1.1010 -0.6326
 1429TIP3    H2 4294   6.314   5.797   0.471  0.8135  1.1956 -0.4760
 1430TIP3   OH2 4295   1.300   3.608   3.069  0.0193  0.1674 -0.1041
 1430TIP3    H1 4296   1.262   3.646   2.989 -0.1234 -0.2914 -0.2564
 1430TIP3    H2 4297   1.354   3.678   3.105 -2.3711  1.5499  1.1012
 1431TIP3   OH2 4298   0.569   0.213   5.080 -0.0195  0.4844 -0.1585
 1431TIP3    H1 4299   0.569   0.300   5.118  0.4722  0.2879  0.3107
 1431TIP3    H2 4300   0.616   0.222   4.997 -0.5090  0.7813 -0.4083
 1432TIP3   OH2 4301   2.621   3.549   3.150 -0.2414 -0.2823  0.0782
 1432TIP3    H1 4302   2.578   3.481   3.099 -0.6322  0.6209 -0.8276
 1432TIP3    H2 4303   2.579   3.631   3.123  1.3395  0.5199 -0.0845
 1433TIP3   OH2 4304   1.816   5.803   4.373 -0.8499 -0.1405  0.4650
 1433TIP3    H1 4305   1.813   5.881   4.317 -0.8821 -0.2955  0.2472
 1433TIP3    H2 4306   1.903   5.804   4.410 -1.5224  1.1429  2.1240
 1434TIP3   OH2 4307   1.127   1.701   0.963 -0.0649  0.0267 -0.3016
 1434TIP3    H1 4308   1.075   1.655   0.897  1.9114  0.0428 -2.0202
 1434TIP3    H2 4309   1.074   1.776   0.988 -1.2873 -0.5157 -1.1540
 1435TIP3   OH2 4310   2.292   4.850   0.636 -0.3324  0.0829  0.8351
 1435TIP3    H1 4311   2.218   4.883   0.585  0.6377  0.1332 -0.6022
 1435TIP3    H2 4312   2.306   4.916   0.704 -1.7896 -0.0876  1.3209
 1436TIP3   OH2 4313   2.811   3.703   0.050  0.2237  0.4244  0.0766
 1436TIP3    H1 4314   2.721   3.736   0.047  0.3109  0.6997  0.4507
 1436TIP3    H2 4315   2.852   3.750   0.123  0.8156  0.6582 -0.3967
 1437TIP3   OH2 4316   3.643   4.987   4.576 -0.3816 -0.4156  0.0966
 1437TIP3    H1 4317   3.643   4.898   4.611  1.1091 -0.5741 -0.2391
 1437TIP3    H2 4318   3.701   5.035   4.635  2.0444 -0.6423 -1.9568
 1438TIP3   OH2 4319   2.233   3.374   3.501  0.0122 -0.4665 -0.2966
 1438TIP3    H1 4320   2.238   3.423   3.419  0.0219  0.4230  0.2222
 1438TIP3    H2 4321   2.254   3.439   3.569  1.2737 -1.4595  0.3211
 1439TIP3   OH2 4322   4.861   4.937   4.751  0.0139  0.0592 -0.2780
 1439TIP3    H1 4323   4.783   4.981   4.784 -0.8245 -1.0051 -0.7899
 1439TIP3    H2 4324   4.933   4.973   4.803 -0.8500  0.8381  0.4016
 1440TIP3   OH2 4325   3.368   0.456   0.623  0.6216  0.9446 -0.6276
 1440TIP3    H1 4326   3.286   0.497   0.594 -0.6084 -2.4345 -2.5230
 1440TIP3    H2 4327   3.364   0.367   0.588  3.3952 -0.6178  2.4662
 1441TIP3   OH2 4328   5.996   1.820   4.917  0.1044 -0.0700 -0.4995
 1441TIP3    H1 4329   5.933   1.769   4.968  0.3835 -1.2218 -1.2502
 1441TIP3    H2 4330   5.996   1.778   4.830 -0.7998  2.1892 -1.6752
 1442TIP3   OH2 4331   0.299   4.925   1.938 -0.1476 -0.0745 -0.1880
 1442TIP3    H1 4332   0.343   4.952   1.858  0.1306  0.9970  0.3058
 1442TIP3    H2 4333   0.258   4.841   1.917 -0.6320  0.5088 -1.6461
 1443TIP3   OH2 4334   5.137   2.197   3.233 -0.2174 -0.2846  0.2316
 1443TIP3    H1 4335   5.115   2.289   3.247  1.4530 -0.0025  1.2683
 1443TIP3    H2 4336   5.231   2.197   3.215 -0.3303 -1.7344 -0.5300
 1444TIP3   OH2 4337   6.182   5.872   3.494 -1.2079 -0.0670  0.4003
 1444TIP3    H1 4338   6.114   5.900   3.433  0.8391  0.9818 -1.5552
 1444TIP3    H2 4339   6.258   5.854   3.439  0.4543 -0.0967  2.5633
 1445TIP3   OH2 4340   4.838   2.900   1.467 -0.0614  0.1475 -0.3946
 1445TIP3    H1 4341   4.748   2.927   1.485  0.3297  0.0626  2.0836
 1445TIP3    H2 4342   4.885   2.982   1.455 -0.4518  0.1901 -1.7990
 1446TIP3   OH2 4343   0.676   5.097   3.064  0.7165  0.2326  0.4580
 1446TIP3    H1 4344   0.589   5.137   3.074 -0.5817 -1.8163 -1.5655
 1446TIP3    H2 4345   0.659   5.014   3.020  3.8420  0.1526 -0.8392
 1447TIP3   OH2 4346   0.096   5.123   4.533  0.5408  0.2163 -0.5701
 1447TIP3    H1 4347   0.129   5.040   4.499  0.7999  0.6223 -1.3533
 1447TIP3    H2 4348   0.009   5.133   4.493  0.3555  0.1452 -0.1855
 1448TIP3   OH2 4349   5.970   5.295   1.334 -0.1886 -0.1650  0.7651
 1448TIP3    H1 4350   6.011   5.295   1.421 -0.4838 -0.1919  0.9093
 1448TIP3    H2 4351   6.023   5.235   1.282  0.4836  0.4794  0.6867
 1449TIP3   OH2 4352   5.846   0.832   4.653  0.1278 -0.4207 -0.2154
 1449TIP3    H1 4353   5.830   0.897   4.585  0.2280 -2.0470 -1.8820
 1449TIP3    H2 4354   5.934   0.800   4.636  1.7358  1.7212  3.0536
 1450TIP3   OH2 4355   5.913   3.591   3.753  0.6408 -0.3598  0.3347
 1450TIP3    H1 4356   5.943   3.528   3.819  0.3238 -0.6039  0.2497
 1450TIP3    H2 4357   5.914   3.542   3.671  1.0347 -0.0550  0.1571
 1451TIP3   OH2 4358   2.927   0.276   1.791 -0.5732  0.3695 -0.0416
 1451TIP3    H1 4359   3.015   0.239   1.802 -1.6090 -1.9727  0.8575
 1451TIP3    H2 4360   2.913   0.277   1.697  1.0561  2.4907 -0.3380
 1452TIP3   OH2 4361   4.859   3.056   1.047 -0.3379  0.1257 -0.5511
 1452TIP3    H1 4362   4.883   2.973   1.088 -0.7546  0.1386 -0.2860
 1452TIP3    H2 4363   4.813   3.104   1.115  0.6169  0.9150 -0.4352
 1453TIP3   OH2 4364   1.480   5.737   3.063  0.5460  0.0937 -0.5545
 1453TIP3    H1 4365   1.436   5.819   3.086  1.3963  0.3992  0.0209
 1453TIP3    H2 4366   1.484   5.688   3.145  0.1907 -0.4561 -0.8619
 1454TIP3   OH2 4367   1.020   4.079   3.229 -0.4062  0.2633 -0.2860
 1454TIP3    H1 4368   1.105   4.086   3.273 -0.3927  0.7083 -0.3752
 1454TIP3    H2 4369   1.000   3.985   3.231 -0.5073  0.2920  0.8427
 1455TIP3   OH2 4370   5.006   4.825   4.219  0.4154  0.1704 -0.3384
 1455TIP3    H1 4371   4.952   4.858   4.291 -0.8904 -1.4929 -0.5113
 1455TIP3    H2 4372   5.093   4.816   4.257  0.2857  1.5103  0.3550
 1456TIP3   OH2 4373   2.816   3.480   2.527 -0.1758 -0.3532 -0.2462
 1456TIP3    H1 4374   2.803   3.386   2.517 -1.8170 -0.0683 -1.1553
 1456TIP3    H2 4375   2.860   3.507   2.447 -1.9129 -0.0102 -1.1328
 1457TIP3   OH2 4376   5.821   0.304   0.762 -0.3833 -0.1372 -0.0995
 1457TIP3    H1 4377   5.735   0.274   0.791 -0.7796  1.0322 -0.0091
 1457TIP3    H2 4378   5.809   0.398   0.743  1.1590  0.3379  1.0828
 1458TIP3   OH2 4379   0.705   0.658   4.433 -0.2718  0.1428 -0.1101
 1458TIP3    H1 4380   0.702   0.753   4.422 -2.3382  0.0048 -1.2037
 1458TIP3    H2 4381   0.677   0.643   4.524  0.2579  0.5772  0.1284
 1459TIP3   OH2 4382   3.235   2.820   2.178  0.0536  0.5175 -0.5142
 1459TIP3    H1 4383   3.269   2.764   2.248 -1.5042  0.2581  0.0845
 1459TIP3    H2 4384   3.286   2.795   2.100 -1.6486 -3.0438 -0.6911
 1460TIP3   OH2 4385   1.110   4.442   5.089  0.1651  0.0722 -0.1957
 1460TIP3    H1 4386   1.031   4.485   5.056  0.1244 -0.2090 -0.4673
 1460TIP3    H2 4387   1.173   4.514   5.101  0.3846  0.1186 -1.4853
 1461TIP3   OH2 4388   2.520   4.961   0.287 -0.3314  0.1545 -0.9323
 1461TIP3    H1 4389   2.593   4.943   0.346  1.0078 -1.0092 -2.8211
 1461TIP3    H2 4390   2.491   5.049   0.310  2.1069  0.9248 -0.5164
 1462TIP3   OH2 4391   2.004   0.256   1.731 -0.1013 -0.7298  0.3107
 1462TIP3    H1 4392   1.962   0.329   1.686  0.2011 -0.1268  0.9770
 1462TIP3    H2 4393   2.027   0.292   1.817  0.1272 -1.5882  0.6149
 1463TIP3   OH2 4394   3.019   5.096   0.834 -0.4709  0.6251 -0.6177
 1463TIP3    H1 4395   3.037   5.071   0.925  0.0836 -0.8882 -1.1030
 1463TIP3    H2 4396   3.029   5.191   0.832  1.2363  0.5071  0.5476
 1464TIP3   OH2 4397   5.898   4.640   1.594  0.2951  0.4907 -0.0735
 1464TIP3    H1 4398   5.979   4.591   1.577  0.0734 -0.1165  0.5813
 1464TIP3    H2 4399   5.837   4.575   1.627 -0.4484  0.9604 -0.4817
 1465TIP3   OH2 4400   1.647   2.473   2.352 -0.0831 -0.1125  0.0109
 1465TIP3    H1 4401   1.696   2.512   2.279 -1.6428  0.7271 -0.6290
 1465TIP3    H2 4402   1.713   2.459   2.419  1.3329 -0.5497 -1.4023
 1466TIP3   OH2 4403   3.998   4.881   0.386  0.1400 -0.5388  0.3363
 1466TIP3    H1 4404   3.942   4.952   0.417 -1.1706 -1.7369  0.8351
 1466TIP3    H2 4405   4.056   4.862   0.459  0.3768 -0.1060  0.2630
 1467TIP3   OH2 4406   0.244   2.230   1.839  0.3361 -0.7225 -0.1146
 1467TIP3    H1 4407   0.285   2.151   1.874  1.1247 -1.2557 -2.0893
 1467TIP3    H2 4408   0.312   2.271   1.787 -0.0188  1.3899  0.9997
 1468TIP3   OH2 4409   3.456   3.476   3.089 -0.1874 -0.2635  0.0060
 1468TIP3    H1 4410   3.385   3.441   3.144 -0.4763 -0.0524 -0.2267
 1468TIP3    H2 4411   3.536   3.442   3.129 -0.3273  0.5930  1.0925
 1469TIP3   OH2 4412   4.623   4.439   2.661 -0.3766 -0.3654 -0.1065
 1469TIP3    H1 4413   4.650   4.515   2.609 -0.5538  0.0699  0.4233
 1469TIP3    H2 4414   4.699   4.381   2.660  0.0851  0.2234  0.2288
 1470TIP3   OH2 4415   4.778   1.124   2.044 -0.0978 -0.1529  0.3952
 1470TIP3    H1 4416   4.730   1.065   1.986 -0.0252 -0.3570  0.5411
 1470TIP3    H2 4417   4.795   1.072   2.123 -2.4536  0.9157  1.7156
 1471TIP3   OH2 4418   5.214   1.599   3.909  0.0804  0.5328  0.1712
 1471TIP3    H1 4419   5.236   1.532   3.974  1.6103 -0.6589 -1.4797
 1471TIP3    H2 4420   5.229   1.682   3.955 -0.2909 -0.2308  1.7556
 1472TIP3   OH2 4421   3.983   2.825   0.839  0.7505 -0.0977 -0.6641
 1472TIP3    H1 4422   3.918   2.883   0.879  3.3551  0.8063  2.7909
 1472TIP3    H2 4423   3.955   2.736   0.864  0.5956  0.2583  0.5031
 1473TIP3   OH2 4424   6.314   4.268   4.192  0.0683  0.1463  0.2483
 1473TIP3    H1 4425   6.273   4.351   4.167 -2.1093 -0.3300  1.9009
 1473TIP3    H2 4426   6.275   4.204   4.132 -1.4589 -0.2473  1.5781
 1474TIP3   OH2 4427   2.380   5.300   0.605 -0.0786  0.2561 -0.0364
 1474TIP3    H1 4428   2.286   5.298   0.589 -0.1752 -0.5910  0.5603
 1474TIP3    H2 4429   2.392   5.370   0.670 -0.4700 -0.5273  0.8925
 1475TIP3   OH2 4430   2.767   4.440   1.278 -0.3994 -0.4628 -0.2089
 1475TIP3    H1 4431   2.701   4.398   1.333 -0.2180  0.8272  1.0396
 1475TIP3    H2 4432   2.848   4.393   1.297 -0.5259 -0.6406 -0.1064
 1476TIP3   OH2 4433   3.647   0.028   0.696 -0.2776  0.3800  0.7243
 1476TIP3    H1 4434   3.695   0.036   0.778 -1.8075 -2.2677  2.0177
 1476TIP3    H2 4435   3.577   0.093   0.703  1.1088  1.9887  0.2706
 1477TIP3   OH2 4436   6.046   4.002   5.178 -0.4477 -0.1434 -0.5168
 1477TIP3    H1 4437   6.111   4.041   5.119  2.4751  2.0272  3.6613
 1477TIP3    H2 4438   5.970   4.059   5.171  0.8547  1.6995 -0.2736
 1478TIP3   OH2 4439   1.384   4.231   2.159  0.4154 -0.0535 -0.2853
 1478TIP3    H1 4440   1.477   4.242   2.178  0.5523  0.4377 -1.1868
 1478TIP3    H2 4441   1.343   4.312   2.190 -0.1332 -1.1969  2.3648
 1479TIP3   OH2 4442   2.067   5.771   4.120  0.1339 -0.0685 -0.8929
 1479TIP3    H1 4443   2.160   5.749   4.125  0.4197  1.3159  0.5272
 1479TIP3    H2 4444   2.057   5.847   4.176 -1.0165  2.6811 -4.4604
 1480TIP3   OH2 4445   1.426   1.806   3.215  0.7270  0.0163 -0.5826
 1480TIP3    H1 4446   1.458   1.887   3.175  1.6445 -0.2059 -0.3056
 1480TIP3    H2 4447   1.330   1.813   3.210  0.8120  0.8305 -1.1251
 1481TIP3   OH2 4448   2.003   1.725   1.849 -0.5395  0.8036 -0.0462
 1481TIP3    H1 4449   2.003   1.728   1.945 -2.1104 -0.0506  0.0236
 1481TIP3    H2 4450   2.089   1.692   1.826 -0.5839 -0.2034  1.1445
 1482TIP3   OH2 4451   5.655   5.112   1.051 -0.2124  0.1777  0.1067
 1482TIP3    H1 4452   5.619   5.130   0.964 -1.4292  1.8115  0.9108
 1482TIP3    H2 4453   5.747   5.091   1.035  0.1384  2.5372 -1.4021
 1483TIP3   OH2 4454   1.684   1.461   2.807 -0.2604 -0.0095 -0.2847
 1483TIP3    H1 4455   1.688   1.367   2.825 -1.0392 -0.1146 -0.5873
 1483TIP3    H2 4456   1.771   1.494   2.828  0.2004 -0.9049 -0.7566
 1484TIP3   OH2 4457   1.625   2.129   1.279 -0.4027  0.0702  0.1841
 1484TIP3    H1 4458   1.561   2.193   1.249 -0.6526  0.0838  0.7372
 1484TIP3    H2 4459   1.583   2.087   1.354  0.8956  1.2203  1.6112
 1485TIP3   OH2 4460   5.026   1.953   3.271 -0.2689 -0.8847 -0.0643
 1485TIP3    H1 4461   5.111   1.911   3.280  0.2406 -0.0768 -0.9146
 1485TIP3    H2 4462   5.046   2.046   3.257 -1.2445 -0.7807 -0.9642
 1486TIP3   OH2 4463   5.802   5.005   1.451 -0.1522  0.1556  0.6652
 1486TIP3    H1 4464   5.844   4.943   1.391  1.0027  0.1795  1.4103
 1486TIP3    H2 4465   5.820   4.971   1.538 -0.8716  0.6980  1.0398
 1487TIP3   OH2 4466   2.999   2.105   3.534 -0.5852 -0.1100 -0.0240
 1487TIP3    H1 4467   3.058   2.100   3.609 -1.8949  0.6565  1.1132
 1487TIP3    H2 4468   3.022   2.031   3.479 -0.8185 -1.8234  2.0728
 1488TIP3   OH2 4469   4.378   2.160   0.445  0.0461  0.1913 -0.7648
 1488TIP3    H1 4470   4.414   2.217   0.378  1.5887  0.0231 -0.1307
 1488TIP3    H2 4471   4.455   2.116   0.483 -1.0400 -2.2665 -1.1833
 1489TIP3   OH2 4472   2.651   0.952   3.828  0.0801 -0.9817 -0.4435
 1489TIP3    H1 4473   2.702   1.008   3.769 -2.6835 -0.0766 -2.1692
 1489TIP3    H2 4474   2.699   0.869   3.830  2.3811  0.2621 -0.6822
 1490TIP3   OH2 4475   2.946   0.181   5.171  0.3932 -0.0152 -0.1487
 1490TIP3    H1 4476   3.004   0.118   5.128  1.5989  0.7372  0.3288
 1490TIP3    H2 4477   2.880   0.202   5.105  0.7007 -0.8256 -0.7348
 1491TIP3   OH2 4478   1.737   4.088   4.811  1.0064 -0.0623 -0.6504
 1491TIP3    H1 4479   1.818   4.109   4.765  0.1272  2.2248 -1.2902
 1491TIP3    H2 4480   1.724   4.160   4.872 -0.4940 -0.4346 -0.4788
 1492TIP3   OH2 4481   2.086   0.492   4.136 -0.3750  0.7195  0.6720
 1492TIP3    H1 4482   2.040   0.478   4.053  1.7511  2.1906 -0.8650
 1492TIP3    H2 4483   2.070   0.583   4.158  3.3908  2.0723 -1.1801
 1493TIP3   OH2 4484   2.748   1.972   3.404 -0.5037 -0.2336  0.3638
 1493TIP3    H1 4485   2.729   1.888   3.363  0.3314 -0.4409  0.3687
 1493TIP3    H2 4486   2.804   1.950   3.478 -0.4622  0.3040  0.4936
 1494TIP3   OH2 4487   4.624   1.305   0.590 -0.1534 -0.0749  0.2866
 1494TIP3    H1 4488   4.537   1.344   0.601 -0.0718  0.3470 -0.4765
 1494TIP3    H2 4489   4.647   1.273   0.677 -1.0635 -0.1735  0.5012
 1495TIP3   OH2 4490   2.090   1.066   3.101  0.4560  0.1542  0.1030
 1495TIP3    H1 4491   2.086   0.985   3.050  2.6724 -0.1014  0.2378
 1495TIP3    H2 4492   2.086   1.136   3.036 -2.8956  0.0826  0.0633
 1496TIP3   OH2 4493   5.484   1.957   2.657  0.1322  0.2598  0.1500
 1496TIP3    H1 4494   5.470   1.958   2.562  1.0808  1.8213 -0.0243
 1496TIP3    H2 4495   5.484   1.865   2.681  1.5959 -0.2781 -1.6690
 1497TIP3   OH2 4496   4.079   1.500   2.166  0.3869  0.1943  0.1059
 1497TIP3    H1 4497   4.014   1.438   2.133  0.0933  1.0936 -1.0567
 1497TIP3    H2 4498   4.057   1.582   2.124  0.0289  1.4264  2.5080
 1498TIP3   OH2 4499   0.899   4.972   4.166  0.2782  0.4271 -0.5573
 1498TIP3    H1 4500   0.829   4.978   4.231  0.3107  0.8383 -0.5565
 1498TIP3    H2 4501   0.894   5.055   4.118  1.5031  0.9821  0.2008
 1499TIP3   OH2 4502   0.057   0.636   5.150  0.1054  0.0450 -0.1602
 1499TIP3    H1 4503  -0.002   0.617   5.222 -0.6185  0.3826 -0.6542
 1499TIP3    H2 4504   0.003   0.681   5.085  0.4843 -1.1847 -1.3797
 1500TIP3   OH2 4505   1.048   4.421   3.573 -0.2284  0.2329 -0.4784
 1500TIP3    H1 4506   0.997   4.401   3.651  1.2681  0.0301  0.4880
 1500TIP3    H2 4507   1.055   4.337   3.527  1.6397 -0.4290  0.8929
 1501TIP3   OH2 4508   4.472   5.195   3.852  0.0547  0.2538 -0.6666
 1501TIP3    H1 4509   4.530   5.120   3.839  1.3358  0.8640  1.1943
 1501TIP3    H2 4510   4.485   5.248   3.773 -0.3103 -1.0685 -1.6638
 1502TIP3   OH2 4511   1.421   5.320   0.770  0.0549  0.0262 -0.5729
 1502TIP3    H1 4512   1.375   5.397   0.806 -0.8750 -1.2945  1.2127
 1502TIP3    H2 4513   1.514   5.339   0.785 -0.1648  0.7449 -0.0263
 1503TIP3   OH2 4514   3.725   0.023   2.673  0.3363 -0.1178 -0.4640
 1503TIP3    H1 4515   3.804  -0.014   2.711  0.3474 -0.2265 -0.5927
 1503TIP3    H2 4516   3.723   0.114   2.704  1.4946  0.4580 -1.9454
 1504TIP3   OH2 4517   4.973   3.599   4.368 -0.4459  0.0436  0.2074
 1504TIP3    H1 4518   4.996   3.619   4.459 -2.3462  1.3970  0.4440
 1504TIP3    H2 4519   4.886   3.636   4.357  0.2724  1.1512 -2.5938
 1505TIP3   OH2 4520   6.243   4.537   2.748 -0.1490  0.5159  0.2795
 1505TIP3    H1 4521   6.174   4.568   2.689 -0.1665  0.8660  0.4836
 1505TIP3    H2 4522   6.314   4.600   2.736  0.4329 -0.2605 -0.4910
 1506TIP3   OH2 4523   1.224   5.754   4.160 -0.3550  0.2412  0.1144
 1506TIP3    H1 4524   1.247   5.704   4.238  1.0632 -0.8321 -0.9460
 1506TIP3    H2 4525   1.292   5.821   4.154 -0.8726  0.7826  0.1775
 1507TIP3   OH2 4526   3.536   2.140   3.656  0.2027  0.4283 -0.3148
 1507TIP3    H1 4527   3.614   2.108   3.701  0.0166  0.8117  0.2860
 1507TIP3    H2 4528   3.483   2.062   3.642 -0.0199  0.3907  0.6943
 1508TIP3   OH2 4529   5.750   2.985   1.930 -0.2679  0.1421 -0.1482
 1508TIP3    H1 4530   5.679   3.010   1.989  2.0428  3.1197  1.6949
 1508TIP3    H2 4531   5.712   2.988   1.843 -2.8560 -0.4250  0.8834
 1509TIP3   OH2 4532   1.277   5.256   3.871 -0.1094 -0.2590 -0.4640
 1509TIP3    H1 4533   1.306   5.258   3.962 -1.4760 -0.4262  0.0038
 1509TIP3    H2 4534   1.264   5.348   3.848 -1.2870 -0.2699  0.0575
 1510TIP3   OH2 4535   1.015   0.451   1.109 -0.2354 -0.1114 -0.6721
 1510TIP3    H1 4536   0.943   0.400   1.070 -0.1492 -0.7916  0.0359
 1510TIP3    H2 4537   1.039   0.403   1.188 -1.2811  1.9167  0.9741
 1511TIP3   OH2 4538   3.291   2.674   2.392 -0.1564  0.9602  0.4386
 1511TIP3    H1 4539   3.273   2.739   2.461 -2.3528 -1.2426  2.1263
 1511TIP3    H2 4540   3.372   2.631   2.421 -0.2308  1.0816  0.8428
 1512TIP3   OH2 4541   4.378   0.233   2.815  0.2007  0.8812  0.1308
 1512TIP3    H1 4542   4.447   0.235   2.749  0.4707  0.3065  0.3896
 1512TIP3    H2 4543   4.325   0.157   2.791  0.6725  0.2920  0.9460
 1513TIP3   OH2 4544   3.592   0.087   4.660  0.1799  0.1516  0.1976
 1513TIP3    H1 4545   3.688   0.082   4.667  0.1572 -0.1765  0.3064
 1513TIP3    H2 4546   3.561   0.012   4.711 -0.1493  0.4971  0.5049
 1514TIP3   OH2 4547   3.762   4.738   1.554  0.2205  0.0570  0.0763
 1514TIP3    H1 4548   3.825   4.722   1.484  1.1574 -1.6743  1.2504
 1514TIP3    H2 4549   3.715   4.655   1.564 -1.0024  0.7713  0.4281
 1515TIP3   OH2 4550   3.451   5.055   3.619  0.1518  0.2379  0.3186
 1515TIP3    H1 4551   3.375   5.078   3.566  1.1692  0.8698 -0.9107
 1515TIP3    H2 4552   3.468   5.133   3.671  0.7967  0.6202 -0.4470
 1516TIP3   OH2 4553   0.030   5.315   1.288 -0.0907 -0.0815  0.0106
 1516TIP3    H1 4554   0.034   5.382   1.219  1.9853  0.1219  0.2579
 1516TIP3    H2 4555  -0.063   5.310   1.311 -0.3698  2.5808 -0.1650
 1517TIP3   OH2 4556   5.156   5.929   0.587 -0.5910  0.8439 -0.2188
 1517TIP3    H1 4557   5.153   5.962   0.497 -0.4217  1.5583  0.0330
 1517TIP3    H2 4558   5.240   5.884   0.593  0.0422  1.9983 -0.0234
 1518TIP3   OH2 4559   3.675   3.913   2.888 -0.7252 -0.0204  0.2239
 1518TIP3    H1 4560   3.752   3.909   2.831  0.3194 -0.1881  1.5764
 1518TIP3    H2 4561   3.632   3.829   2.877 -0.5550 -0.0368 -0.3362
 1519TIP3   OH2 4562   2.531   1.790   5.098 -0.1561 -0.3324 -0.8237
 1519TIP3    H1 4563   2.517   1.794   5.193  1.6762 -0.7165 -0.5066
 1519TIP3    H2 4564   2.473   1.720   5.068  0.6006 -1.4962  0.3215
 1520TIP3   OH2 4565   1.073   2.122   3.486  0.2750 -0.0837  0.5532
 1520TIP3    H1 4566   1.037   2.209   3.502  0.3764  0.4024 -1.6357
 1520TIP3    H2 4567   1.131   2.106   3.561 -2.2897  0.2497  2.7541
 1521TIP3   OH2 4568   0.714   1.536   0.261  0.6165 -0.0998  0.1871
 1521TIP3    H1 4569   0.703   1.456   0.209  1.7010  0.5256 -1.0705
 1521TIP3    H2 4570   0.625   1.565   0.280  0.2036 -1.0544 -0.2254
 1522TIP3   OH2 4571   0.930   3.473   1.546  0.0917 -0.4103  0.3333
 1522TIP3    H1 4572   0.968   3.548   1.499  1.7139 -0.1962  1.8480
 1522TIP3    H2 4573   0.841   3.500   1.567  0.5657  1.0300  0.6266
 1523TIP3   OH2 4574   4.500   3.726   4.688 -0.4015 -0.2381  0.1420
 1523TIP3    H1 4575   4.474   3.637   4.712 -2.0278  0.4938  1.3131
 1523TIP3    H2 4576   4.503   3.773   4.771 -1.0271  1.1512 -0.5877
 1524TIP3   OH2 4577   4.065   5.162   0.648 -0.5079 -0.6328 -0.0596
 1524TIP3    H1 4578   3.972   5.139   0.656 -0.8061  0.1598 -1.0542
 1524TIP3    H2 4579   4.067   5.231   0.582  0.9578 -1.6779 -1.1640
 1525TIP3   OH2 4580   0.694   4.661   3.170 -0.6213 -0.4526  0.3157
 1525TIP3    H1 4581   0.620   4.720   3.153 -1.7367 -1.5359  1.2981
 1525TIP3    H2 4582   0.708   4.616   3.087 -0.3787  0.4712 -0.1673
 1526TIP3   OH2 4583   1.718   3.387   1.514 -0.0788 -0.3492 -0.3999
 1526TIP3    H1 4584   1.801   3.418   1.551  0.4503  0.8860 -2.4355
 1526TIP3    H2 4585   1.657   3.459   1.528  0.1389  0.1560 -1.8285
 1527TIP3   OH2 4586   3.658   1.410   3.092 -0.3459  0.0977  0.4026
 1527TIP3    H1 4587   3.675   1.331   3.040  0.4226  1.5359 -1.6664
 1527TIP3    H2 4588   3.563   1.422   3.086 -0.4875 -0.7160  0.8368
 1528TIP3   OH2 4589   5.353   2.657   2.145 -0.0008 -0.1118  0.0927
 1528TIP3    H1 4590   5.393   2.735   2.182 -0.2497  0.2388 -0.3661
 1528TIP3    H2 4591   5.293   2.626   2.212  0.8550 -0.5050  0.6905
 1529TIP3   OH2 4592   1.715   3.586   4.217  0.3775 -0.2788  0.2897
 1529TIP3    H1 4593   1.639   3.536   4.245 -0.7374  0.3528 -1.4742
 1529TIP3    H2 4594   1.725   3.653   4.285  0.3504 -1.3156  1.3501
 1530TIP3   OH2 4595   1.950   3.990   4.566  0.6162  0.0498  0.3870
 1530TIP3    H1 4596   1.994   4.036   4.638  1.3613 -0.7779  0.4822
 1530TIP3    H2 4597   1.950   4.053   4.494  0.7864  0.5224  0.7937
 1531TIP3   OH2 4598   4.749   3.902   0.212 -0.0821 -0.3047  0.4043
 1531TIP3    H1 4599   4.705   3.844   0.151  1.7867  0.4223 -1.7906
 1531TIP3    H2 4600   4.840   3.873   0.211  0.1617  0.2397  2.2942
 1532TIP3   OH2 4601   2.908   1.063   1.639  0.5031 -0.9433 -0.2493
 1532TIP3    H1 4602   2.949   1.034   1.558  2.3964 -0.3627  0.4461
 1532TIP3    H2 4603   2.851   1.135   1.613  1.7107 -0.2191 -0.9784
 1533TIP3   OH2 4604   0.494   1.552   0.672  0.8379 -0.0269 -0.3805
 1533TIP3    H1 4605   0.446   1.587   0.597 -0.6935  0.0393  0.5997
 1533TIP3    H2 4606   0.556   1.622   0.695 -0.2250  0.8891 -0.2132
 1534TIP3   OH2 4607   1.176   5.538   0.350  0.3342  0.1031 -0.5898
 1534TIP3    H1 4608   1.139   5.621   0.381  0.9250  0.2090 -0.1505
 1534TIP3    H2 4609   1.139   5.472   0.409  1.8059  0.3552  0.6746
 1535TIP3   OH2 4610   3.010   4.420   4.184 -0.6012  0.0596 -0.0460
 1535TIP3    H1 4611   3.048   4.385   4.264 -0.5596 -0.5538 -0.3213
 1535TIP3    H2 4612   3.044   4.363   4.115 -0.5056  0.6776 -0.5160
 1536TIP3   OH2 4613   4.428   0.183   1.885 -0.2643  0.1010  0.0810
 1536TIP3    H1 4614   4.333   0.188   1.873 -0.0466  0.2931 -1.8845
 1536TIP3    H2 4615   4.447   0.090   1.880 -0.3758  0.0246  0.9088
 1537TIP3   OH2 4616   3.677   0.280   2.797  0.1032 -0.5018  0.6478
 1537TIP3    H1 4617   3.623   0.224   2.854  0.6911 -0.7847  0.9294
 1537TIP3    H2 4618   3.704   0.352   2.853 -1.9776  0.9699 -0.1205
 1538TIP3   OH2 4619   2.851   0.347   3.951 -0.2562  0.0816  0.6698
 1538TIP3    H1 4620   2.881   0.438   3.962 -0.5506  0.1689  0.7684
 1538TIP3    H2 4621   2.927   0.294   3.971  0.2961  0.3349 -0.6427
 1539TIP3   OH2 4622   5.544   3.831   2.456 -0.1458  0.3407 -0.3413
 1539TIP3    H1 4623   5.576   3.921   2.448 -0.0829  0.2987 -0.5659
 1539TIP3    H2 4624   5.485   3.833   2.532 -0.0879  0.5543 -0.3024
 1540TIP3   OH2 4625   0.633   3.639   2.106  0.2995  0.2987  0.3095
 1540TIP3    H1 4626   0.540   3.657   2.089  0.4911  1.5803  0.5151
 1540TIP3    H2 4627   0.636   3.544   2.122 -1.4016  0.5581  2.8635
 1541TIP3   OH2 4628   2.721   1.347   2.881  0.6492 -0.1492 -1.3716
 1541TIP3    H1 4629   2.645   1.314   2.832  0.4886 -0.3234 -1.0144
 1541TIP3    H2 4630   2.718   1.442   2.868 -0.4209  0.0038 -0.2869
 1542TIP3   OH2 4631   0.940   0.756   0.152 -0.3397  0.2604 -0.1318
 1542TIP3    H1 4632   0.935   0.852   0.162 -0.6662  0.2641 -0.3096
 1542TIP3    H2 4633   1.025   0.733   0.187 -0.8230  0.4490  1.2314
 1543TIP3   OH2 4634   2.411   0.436   4.245 -0.3305 -0.1459 -0.3711
 1543TIP3    H1 4635   2.351   0.362   4.255  1.7849 -1.9334  0.1121
 1543TIP3    H2 4636   2.479   0.403   4.185  1.1246  1.0671  0.5264
 1544TIP3   OH2 4637   2.826   3.790   2.425 -0.3024 -0.4008  0.2783
 1544TIP3    H1 4638   2.808   3.709   2.473 -3.1153  1.5151  2.8466
 1544TIP3    H2 4639   2.920   3.804   2.436 -0.1569 -2.1494  1.7272
 1545TIP3   OH2 4640   2.060   1.257   2.886  0.4994 -0.2878  0.3756
 1545TIP3    H1 4641   2.148   1.288   2.908  1.0134  0.1779 -2.0099
 1545TIP3    H2 4642   2.063   1.245   2.791 -2.3478  0.8507  0.0569
 1546TIP3   OH2 4643   0.612   4.897   1.354 -0.0171 -0.7496  0.2778
 1546TIP3    H1 4644   0.665   4.949   1.416 -0.4252  1.3270 -1.0077
 1546TIP3    H2 4645   0.643   4.924   1.268 -2.5667 -0.0427 -0.5139
 1547TIP3   OH2 4646   6.296   1.995   3.914  0.4056  0.6409 -0.0297
 1547TIP3    H1 4647   6.204   1.969   3.913  0.7583 -0.6892 -0.9879
 1547TIP3    H2 4648   6.343   1.918   3.945  1.2980  0.8935 -0.7003
 1548TIP3   OH2 4649   6.006   3.971   3.553 -0.3194  0.6260  0.2747
 1548TIP3    H1 4650   6.070   3.950   3.485  0.3061 -1.3258  1.4047
 1548TIP3    H2 4651   5.924   3.933   3.522 -0.0396 -0.2413  0.5823
 1549TIP3   OH2 4652  -0.016   2.525   4.084  0.2141  0.2526  0.5684
 1549TIP3    H1 4653   0.048   2.551   4.017  0.7829  0.5203  1.1991
 1549TIP3    H2 4654  -0.019   2.430   4.079 -0.5791  0.3307 -0.5854
 1550TIP3   OH2 4655   4.724   4.188   4.082  0.2229 -0.6789 -0.1494
 1550TIP3    H1 4656   4.713   4.213   3.990 -1.0294 -0.6086  0.0125
 1550TIP3    H2 4657   4.737   4.094   4.080 -1.3679 -0.9170 -0.3043
 1551TIP3   OH2 4658   3.196   5.179   2.951 -0.3281 -0.1633 -0.1528
 1551TIP3    H1 4659   3.219   5.259   2.903  1.8922 -1.4760 -1.4671
 1551TIP3    H2 4660   3.202   5.203   3.043  0.5404  1.1410 -0.5233
 1552TIP3   OH2 4661   2.829   3.136   3.131 -0.3228 -0.1578 -0.0103
 1552TIP3    H1 4662   2.845   3.078   3.205 -2.6226  0.6886  1.2368
 1552TIP3    H2 4663   2.914   3.174   3.112 -0.0501  1.8594  4.1919
 1553TIP3   OH2 4664   5.313   2.100   3.536  0.2323 -0.2474 -0.5606
 1553TIP3    H1 4665   5.277   2.040   3.470 -1.2855  0.3447 -0.3168
 1553TIP3    H2 4666   5.364   2.163   3.485  3.1076 -2.4758 -0.7101
 1554TIP3   OH2 4667   4.501   3.900   1.548  0.0929  0.3635  0.4959
 1554TIP3    H1 4668   4.505   3.995   1.550  1.1016  0.3315  0.2713
 1554TIP3    H2 4669   4.443   3.880   1.474  1.0342  0.7844 -0.3707
 1555TIP3   OH2 4670   6.157   1.080   2.046 -0.2453  0.4544 -0.0933
 1555TIP3    H1 4671   6.226   1.043   2.101 -1.6784  2.8072  3.6367
 1555TIP3    H2 4672   6.204   1.117   1.971  2.4717  1.0272  1.7333
 1556TIP3   OH2 4673   0.440   3.837   2.246  0.1539 -0.4091 -0.3918
 1556TIP3    H1 4674   0.463   3.839   2.153 -0.3886 -1.7868 -0.5806
 1556TIP3    H2 4675   0.398   3.922   2.262  0.1145 -0.2190 -1.4486
 1557TIP3   OH2 4676   3.674   4.806   1.164  0.2894 -0.3389  0.2971
 1557TIP3    H1 4677   3.739   4.748   1.203  0.4614 -1.1837 -1.1511
 1557TIP3    H2 4678   3.594   4.753   1.162  0.2943 -0.3270 -0.4895
 1558TIP3   OH2 4679   6.331   1.294   2.437 -0.2745 -0.2632  0.1919
 1558TIP3    H1 4680   6.339   1.344   2.518 -1.8928  2.3590 -1.1363
 1558TIP3    H2 4681   6.305   1.206   2.465 -2.0178  0.8895  2.4771
 1559TIP3   OH2 4682   1.758   2.690   2.600  0.0443  0.2776  0.1207
 1559TIP3    H1 4683   1.801   2.627   2.658  0.4027  1.9113  1.7182
 1559TIP3    H2 4684   1.807   2.685   2.518  0.8603 -0.6207  0.6451
 1560TIP3   OH2 4685   3.843   2.067   4.813 -0.0096  0.0944 -0.5458
 1560TIP3    H1 4686   3.852   1.980   4.852 -0.1327  0.2475 -0.1705
 1560TIP3    H2 4687   3.918   2.116   4.846  0.2861  0.0170 -1.0803
 1561TIP3   OH2 4688   5.841   4.532   4.952  0.2927  0.8030 -0.6749
 1561TIP3    H1 4689   5.799   4.616   4.970  1.3735  0.8374  2.3722
 1561TIP3    H2 4690   5.931   4.554   4.930  1.4795  0.5681  3.1238
 1562TIP3   OH2 4691   6.139   5.097   0.621  0.3508 -0.1178  0.5021
 1562TIP3    H1 4692   6.133   5.157   0.696  0.8280 -0.0912  0.5240
 1562TIP3    H2 4693   6.222   5.051   0.635  0.5633  0.0677 -0.1403
 1563TIP3   OH2 4694   5.863   3.466   2.640  0.1485 -0.3643  0.0544
 1563TIP3    H1 4695   5.920   3.410   2.587  0.2490 -0.8794  0.6924
 1563TIP3    H2 4696   5.901   3.553   2.632  1.3316 -0.7740  0.8460
 1564TIP3   OH2 4697   4.970   4.493   3.665  0.7475 -0.6830 -0.0066
 1564TIP3    H1 4698   4.998   4.509   3.574 -0.0082  1.3697  0.0889
 1564TIP3    H2 4699   4.926   4.408   3.661  0.3320 -0.4340 -1.6750
 1565TIP3   OH2 4700   3.815   2.346   1.347  0.1482  0.0139 -0.4160
 1565TIP3    H1 4701   3.832   2.322   1.438  1.5746  2.1085 -0.0659
 1565TIP3    H2 4702   3.722   2.326   1.334 -0.1371 -0.1352  1.5628
 1566TIP3   OH2 4703   5.726   0.001   0.557 -0.2653  0.1000 -0.3023
 1566TIP3    H1 4704   5.722   0.043   0.472  1.4129  1.5977  0.3054
 1566TIP3    H2 4705   5.771   0.063   0.613  1.0090 -1.9018  1.0305
 1567TIP3   OH2 4706   3.123   1.534   2.437  0.3038 -0.3329 -0.2142
 1567TIP3    H1 4707   3.074   1.502   2.513  2.3329  0.7566  1.6938
 1567TIP3    H2 4708   3.146   1.456   2.388 -2.4996 -0.9399 -0.7209
 1568TIP3   OH2 4709   0.584   2.504   0.324  0.1336  0.4381  0.1520
 1568TIP3    H1 4710   0.532   2.506   0.405 -0.8241 -1.1530 -0.3651
 1568TIP3    H2 4711   0.523   2.533   0.256  0.6761  0.9340 -0.1241
 1569TIP3   OH2 4712   6.262   5.917   2.631 -0.2609 -0.3249 -0.2604
 1569TIP3    H1 4713   6.315   5.987   2.592  0.1209 -0.8280 -0.6640
 1569TIP3    H2 4714   6.174   5.932   2.597 -0.0958 -0.2834 -0.6701
 1570TIP3   OH2 4715   6.384   2.401   1.293 -0.3730  0.0622  0.0408
 1570TIP3    H1 4716   6.328   2.326   1.271  0.8468 -1.6853  2.3941
 1570TIP3    H2 4717   6.325   2.464   1.334 -1.1172 -0.4614 -0.2085
 1571TIP3   OH2 4718   5.779   3.966   2.897  0.1443 -0.1048  0.0402
 1571TIP3    H1 4719   5.817   4.007   2.818  0.9143 -0.0706  0.4164
 1571TIP3    H2 4720   5.825   3.882   2.904 -0.2467 -0.3058  0.2019
 1572TIP3   OH2 4721   3.734   3.625   4.143  0.3099  0.6892 -0.0639
 1572TIP3    H1 4722   3.762   3.629   4.051 -0.7149 -1.1654 -0.5237
 1572TIP3    H2 4723   3.656   3.679   4.147 -0.7558 -0.7071 -0.8058
 1573TIP3   OH2 4724   3.947   3.358   0.130 -0.1824 -0.1510  0.0032
 1573TIP3    H1 4725   3.996   3.419   0.185 -0.1636 -0.7477  0.6515
 1573TIP3    H2 4726   3.909   3.295   0.191 -0.0565 -0.9008 -0.6738
 1574TIP3   OH2 4727   1.540   3.828   0.812  0.0189  0.7274  0.0326
 1574TIP3    H1 4728   1.621   3.829   0.863 -0.1458 -0.0384  0.3221
 1574TIP3    H2 4729   1.492   3.751   0.843 -0.6456  0.9454 -0.4115
 1575TIP3   OH2 4730   4.299   1.709   0.306  0.4961 -0.2829 -0.2245
 1575TIP3    H1 4731   4.358   1.704   0.381  0.2242  0.6022  0.0633
 1575TIP3    H2 4732   4.356   1.729   0.231  0.6505 -0.1396 -0.0692
 1576TIP3   OH2 4733   4.876   5.905   2.985  0.1489 -0.7475 -0.1755
 1576TIP3    H1 4734   4.947   5.866   3.036  0.1069 -0.4086  0.1420
 1576TIP3    H2 4735   4.806   5.920   3.048 -0.2199 -1.1056 -0.4897
 1577TIP3   OH2 4736   2.698   0.268   4.178 -0.0282  0.8299  0.1026
 1577TIP3    H1 4737   2.785   0.263   4.218 -0.7292 -1.3267  1.6172
 1577TIP3    H2 4738   2.713   0.302   4.091  2.2815  0.9871  0.4939
 1578TIP3   OH2 4739   5.955   1.225   2.181 -0.0497  0.5259  0.1973
 1578TIP3    H1 4740   6.020   1.168   2.140 -1.6478 -0.6398 -0.8119
 1578TIP3    H2 4741   5.989   1.241   2.269  1.3264 -0.4837 -0.1210
 1579TIP3   OH2 4742   1.317   2.409   4.279  0.3642 -0.1565  0.3853
 1579TIP3    H1 4743   1.227   2.432   4.257  0.6049 -0.4887 -1.0614
 1579TIP3    H2 4744   1.355   2.489   4.315 -0.5654 -0.0859  1.2390
 1580TIP3   OH2 4745   3.179   0.427   3.773 -0.2887 -0.2085  0.1750
 1580TIP3    H1 4746   3.186   0.522   3.773 -1.2323 -0.1196 -0.8003
 1580TIP3    H2 4747   3.201   0.401   3.863 -0.0808  0.9247  0.4648
 1581TIP3   OH2 4748   3.944   3.535   2.593  0.3555  0.1397 -0.5472
 1581TIP3    H1 4749   4.010   3.551   2.660 -0.4788  1.0003  0.1052
 1581TIP3    H2 4750   3.988   3.553   2.510  0.5413  2.1850 -0.0464
 1582TIP3   OH2 4751   3.629   0.930   5.092  0.3434 -0.2967  0.0730
 1582TIP3    H1 4752   3.534   0.930   5.082  0.3730 -1.3340 -0.3807
 1582TIP3    H2 4753   3.657   1.013   5.053 -0.2297 -0.8421 -1.6308
 1583TIP3   OH2 4754   4.753   4.329   3.031  0.4577  0.2206  0.0829
 1583TIP3    H1 4755   4.808   4.321   3.110  1.3597 -0.8976 -0.6240
 1583TIP3    H2 4756   4.696   4.252   3.035  1.9504 -1.0406 -1.3880
 1584TIP3   OH2 4757   2.513   0.079   4.213  0.1250  0.1690 -0.3809
 1584TIP3    H1 4758   2.524   0.045   4.125 -1.2845  0.4279 -0.6820
 1584TIP3    H2 4759   2.563   0.161   4.214 -1.5256  1.2609 -1.6442
 1585TIP3   OH2 4760   5.587   0.887   0.843 -0.0260 -0.0059  0.1660
 1585TIP3    H1 4761   5.514   0.863   0.900 -0.8208  2.6706  0.4024
 1585TIP3    H2 4762   5.547   0.912   0.760  0.9470 -1.6165 -0.8601
 1586TIP3   OH2 4763   5.363   3.240   2.940 -0.3752  0.2181  0.3705
 1586TIP3    H1 4764   5.273   3.269   2.923 -0.0407  0.5602 -0.9531
 1586TIP3    H2 4765   5.410   3.263   2.860  0.1004 -3.2979 -0.5386
 1587TIP3   OH2 4766   0.738   2.976   5.166  0.2515 -0.1025  0.6760
 1587TIP3    H1 4767   0.770   3.041   5.102 -1.9143 -0.8786 -1.3298
 1587TIP3    H2 4768   0.675   3.024   5.220 -0.0069 -0.1020  0.3762
 1588TIP3   OH2 4769   5.195   0.595   3.243 -0.6716  1.0017 -0.6263
 1588TIP3    H1 4770   5.142   0.669   3.215 -1.9062 -0.1768 -1.4720
 1588TIP3    H2 4771   5.275   0.602   3.190 -1.2259  1.1366 -1.4606
 1589TIP3   OH2 4772   6.152   3.341   4.402  0.1516 -0.2847  0.4125
 1589TIP3    H1 4773   6.114   3.391   4.475 -0.4522  0.6573 -0.5035
 1589TIP3    H2 4774   6.148   3.250   4.430  0.1052  0.0809  1.6314
 1590TIP3   OH2 4775   4.531   5.792   0.302  0.4245 -0.2361  0.1932
 1590TIP3    H1 4776   4.622   5.802   0.273 -0.0289  0.4502 -1.0687
 1590TIP3    H2 4777   4.489   5.741   0.232 -0.5973  1.0687 -0.1876
 1591TIP3   OH2 4778   1.243   1.108   4.826  0.0811 -0.2660 -0.0267
 1591TIP3    H1 4779   1.167   1.084   4.879 -0.4494 -2.0068 -1.4637
 1591TIP3    H2 4780   1.314   1.116   4.889 -0.7360 -1.2540  1.0690
 1592TIP3   OH2 4781   1.642   4.340   2.127  0.0057 -0.1428 -0.1799
 1592TIP3    H1 4782   1.687   4.266   2.168  0.5601 -1.1548 -2.4824
 1592TIP3    H2 4783   1.708   4.408   2.121 -0.4304  0.5056  1.6916
 1593TIP3   OH2 4784   1.226   1.757   2.319  0.4115  0.8895  0.1236
 1593TIP3    H1 4785   1.164   1.687   2.339  1.1147  0.2371  0.0660
 1593TIP3    H2 4786   1.172   1.837   2.315 -0.3272  0.4253  0.6352
 1594TIP3   OH2 4787   4.219   0.430   4.667  0.4410  0.2231  0.1119
 1594TIP3    H1 4788   4.241   0.395   4.581  1.1358 -1.2160  0.8472
 1594TIP3    H2 4789   4.281   0.501   4.681  0.4878  0.2992 -0.4611
 1595TIP3   OH2 4790   4.669   4.772   1.382 -0.2584  0.5386  0.1360
 1595TIP3    H1 4791   4.742   4.823   1.347 -0.3841 -0.9631 -2.5419
 1595TIP3    H2 4792   4.620   4.834   1.436  2.0483  2.0043  0.6831
 1596TIP3   OH2 4793   5.592   5.262   2.490 -0.2296 -0.2975  0.1176
 1596TIP3    H1 4794   5.567   5.189   2.433 -0.0115  0.2460 -0.7045
 1596TIP3    H2 4795   5.587   5.227   2.578  0.2200 -1.4039 -0.2811
 1597TIP3   OH2 4796   6.134   1.024   3.142  0.2047 -0.0618 -0.2196
 1597TIP3    H1 4797   6.186   1.029   3.062 -1.3044 -2.3526 -1.4382
 1597TIP3    H2 4798   6.075   1.099   3.137 -0.3938 -0.6081 -1.6678
 1598TIP3   OH2 4799   0.408   0.476   3.311 -0.6492  0.4524  0.5082
 1598TIP3    H1 4800   0.316   0.500   3.301 -0.0673  2.7900  0.2988
 1598TIP3    H2 4801   0.454   0.529   3.246  0.8592 -0.7175  0.5665
 1599TIP3   OH2 4802   3.624   1.747   3.407  0.1246  0.0639 -0.4664
 1599TIP3    H1 4803   3.678   1.668   3.406 -0.4573 -0.3449  0.1262
 1599TIP3    H2 4804   3.672   1.808   3.350  1.4963 -0.0956  0.4556
 1600TIP3   OH2 4805   0.043   5.046   0.685  0.1282 -0.0141 -0.7725
 1600TIP3    H1 4806   0.056   4.956   0.717 -0.5301  0.0979 -0.1511
 1600TIP3    H2 4807   0.025   5.097   0.765 -0.2181  0.5352 -1.1946
 1601TIP3   OH2 4808   4.138   0.692   1.921  0.2879  0.1560  0.5059
 1601TIP3    H1 4809   4.143   0.704   2.016  0.1793  0.4888  0.4707
 1601TIP3    H2 4810   4.155   0.779   1.885  1.5965 -0.2107  0.1779
 1602TIP3   OH2 4811   4.584   5.044   0.998 -0.4938  0.0844  0.1226
 1602TIP3    H1 4812   4.678   5.026   0.992 -0.4563  0.6436 -1.9011
 1602TIP3    H2 4813   4.543   4.972   0.951 -0.8064  1.4615 -1.8356
 1603TIP3   OH2 4814   4.105   5.426   3.051 -0.9163 -0.3031 -0.9336
 1603TIP3    H1 4815   4.017   5.433   3.088 -1.4565 -0.6670 -2.1025
 1603TIP3    H2 4816   4.110   5.495   2.985 -0.4535 -0.5212 -1.1358
 1604TIP3   OH2 4817   5.956   5.186   0.424  0.2281 -0.3585  0.4789
 1604TIP3    H1 4818   5.989   5.146   0.343  2.0137 -2.3471  2.0613
 1604TIP3    H2 4819   6.013   5.151   0.492 -1.1812  1.2877  2.6142
 1605TIP3   OH2 4820   5.009   5.305   4.341 -0.2577  0.2152  0.2434
 1605TIP3    H1 4821   5.022   5.398   4.359 -1.7010  0.4901  0.0193
 1605TIP3    H2 4822   4.915   5.291   4.354 -0.1627 -1.0833 -0.3065
 1606TIP3   OH2 4823   3.684   5.883   1.610 -0.4795 -0.5729  0.4253
 1606TIP3    H1 4824   3.646   5.819   1.549 -3.1126  1.3128 -0.0683
 1606TIP3    H2 4825   3.697   5.961   1.557  0.4773  0.0446  1.5391
 1607TIP3   OH2 4826   3.774   5.090   3.867 -0.0261  0.3803 -0.1204
 1607TIP3    H1 4827   3.868   5.073   3.872 -0.1751 -0.0782  2.3752
 1607TIP3    H2 4828   3.735   5.031   3.931 -2.2135 -0.4450 -2.0451
 1608TIP3   OH2 4829   3.896   0.315   1.351 -0.0758  0.1838  0.0662
 1608TIP3    H1 4830   3.876   0.383   1.286 -1.4918 -0.7819 -0.5495
 1608TIP3    H2 4831   3.811   0.291   1.388  0.1866 -2.1291 -0.6514
 1609TIP3   OH2 4832   6.295   5.033   0.354 -0.5117 -0.0068 -0.4806
 1609TIP3    H1 4833   6.336   5.018   0.269 -0.3162  2.3577 -0.8884
 1609TIP3    H2 4834   6.363   5.012   0.417  0.2164  0.5988 -1.0370
 1610TIP3   OH2 4835   0.397   5.923   3.074  0.0927  0.2298  0.7972
 1610TIP3    H1 4836   0.474   5.975   3.050 -1.0148  1.4799 -0.2347
 1610TIP3    H2 4837   0.366   5.885   2.992 -0.2327 -0.5064  1.2449
 1611TIP3   OH2 4838   3.897   2.536   4.810  0.3534  0.1172 -0.2241
 1611TIP3    H1 4839   3.976   2.586   4.826  0.6738 -0.3983 -0.1540
 1611TIP3    H2 4840   3.825   2.596   4.831  0.7268 -0.0099  1.6287
 1612TIP3   OH2 4841   5.360  -0.010   2.054 -0.7116 -0.3389 -0.4888
 1612TIP3    H1 4842   5.366   0.065   1.994  1.1859 -1.0843 -1.3166
 1612TIP3    H2 4843   5.445  -0.012   2.098 -0.6001 -2.1505 -0.7144
 1613TIP3   OH2 4844   6.279   3.085   0.735  1.5938  0.2737  0.9391
 1613TIP3    H1 4845   6.190   3.102   0.704  1.1296 -1.1683  1.4038
 1613TIP3    H2 4846   6.273   3.086   0.830  1.5916 -1.9126  1.0114
 1614TIP3   OH2 4847   3.820   4.055   0.092 -0.1286 -0.0827  0.2367
 1614TIP3    H1 4848   3.755   3.984   0.093 -0.4848  0.2400  0.4673
 1614TIP3    H2 4849   3.814   4.091   0.003  0.0504 -0.3412  0.1204
 1615TIP3   OH2 4850   0.392   5.187   1.192  0.2651 -0.5992  0.3715
 1615TIP3    H1 4851   0.354   5.253   1.251  3.9983  1.4372  0.8348
 1615TIP3    H2 4852   0.388   5.106   1.243  2.6561  0.9218  3.3403
 1616TIP3   OH2 4853   2.015   2.193   0.355 -0.5174  0.4748 -0.3614
 1616TIP3    H1 4854   1.953   2.193   0.427  0.1285  1.6309  0.2265
 1616TIP3    H2 4855   2.034   2.101   0.339 -1.4820  0.1668  0.2335
 1617TIP3   OH2 4856   5.931   0.046   2.849 -0.8787  0.6746  0.0995
 1617TIP3    H1 4857   5.850   0.005   2.817 -0.9932  0.3749  0.7646
 1617TIP3    H2 4858   5.992   0.040   2.775 -0.2538 -2.3983  0.7332
 1618TIP3   OH2 4859   1.244   2.277   3.293 -0.2100 -0.5408  0.4547
 1618TIP3    H1 4860   1.333   2.242   3.302 -0.0583  0.0264  1.2978
 1618TIP3    H2 4861   1.195   2.236   3.364  0.0764  1.2203  1.7445
 1619TIP3   OH2 4862   3.496   1.035   1.315  0.1486  0.2219 -0.1207
 1619TIP3    H1 4863   3.505   0.941   1.295 -0.3812  0.5872 -2.4169
 1619TIP3    H2 4864   3.499   1.077   1.229 -1.6212  2.1435  0.6828
 1620TIP3   OH2 4865   1.226   3.221   3.730  0.1027  0.1059  0.0938
 1620TIP3    H1 4866   1.162   3.187   3.668 -0.2004  0.8830 -0.0362
 1620TIP3    H2 4867   1.207   3.315   3.735  0.0044  0.0320  1.4993
 1621TIP3   OH2 4868   5.708   3.426   3.392 -0.6478  0.2164  0.2405
 1621TIP3    H1 4869   5.633   3.369   3.404  0.2450 -0.9812  0.2501
 1621TIP3    H2 4870   5.676   3.497   3.336 -1.9644  0.1166  0.8428
 1622TIP3   OH2 4871   2.808   2.560   3.584  0.2333  0.5892  0.0253
 1622TIP3    H1 4872   2.774   2.555   3.494 -0.9057  0.9026  0.4269
 1622TIP3    H2 4873   2.811   2.469   3.614 -1.4509  0.6266  0.4014
 1623TIP3   OH2 4874   6.018   4.955   4.533 -0.3420  0.1703 -0.3335
 1623TIP3    H1 4875   6.077   4.962   4.608 -1.1182  0.2378  0.2880
 1623TIP3    H2 4876   6.076   4.946   4.457  0.4854  1.4547  0.1183
 1624TIP3   OH2 4877   2.652   4.117   4.032 -0.1934  0.1272  0.2433
 1624TIP3    H1 4878   2.709   4.044   4.008  1.0402  0.5350  1.7433
 1624TIP3    H2 4879   2.692   4.193   3.990 -0.6015  0.1600 -0.0826
 1625TIP3   OH2 4880   1.983   3.634   2.975  0.3852  0.2327  0.2834
 1625TIP3    H1 4881   2.010   3.546   2.948 -0.9508 -0.7871  2.0853
 1625TIP3    H2 4882   1.953   3.623   3.065 -0.6142  2.3824  0.2542
 1626TIP3   OH2 4883   1.182   5.424   2.695 -0.2211  0.0860  0.4950
 1626TIP3    H1 4884   1.124   5.425   2.771 -0.3851 -0.4316  0.3771
 1626TIP3    H2 4885   1.132   5.468   2.626 -1.1432 -1.7621 -0.0839
 1627TIP3   OH2 4886   4.491   4.490   1.956  0.5174  0.2363 -0.1037
 1627TIP3    H1 4887   4.471   4.484   1.863  2.6322 -1.7823 -0.5099
 1627TIP3    H2 4888   4.457   4.408   1.993  1.5794  0.0424  0.4757
 1628TIP3   OH2 4889   1.978   4.672   1.844  0.3704 -0.0499  0.0193
 1628TIP3    H1 4890   1.954   4.603   1.783  1.8691 -0.6182  0.0246
 1628TIP3    H2 4891   1.920   4.659   1.919  1.2929 -2.0126  0.4802
 1629TIP3   OH2 4892   3.942   1.961   0.479 -0.0689  0.1759  0.4480
 1629TIP3    H1 4893   3.949   1.963   0.574 -1.4553 -0.3896  0.5962
 1629TIP3    H2 4894   4.030   1.980   0.447  0.3986  0.4238  1.8396
 1630TIP3   OH2 4895   4.355   2.007   1.252  0.2323  0.1104  0.4168
 1630TIP3    H1 4896   4.373   1.918   1.221  1.1253  0.5184 -0.2990
 1630TIP3    H2 4897   4.262   2.021   1.233  0.4590 -0.1113 -0.9783
 1631TIP3   OH2 4898   2.623   0.060   2.699 -0.3898 -0.4380 -0.1008
 1631TIP3    H1 4899   2.550  -0.000   2.711  0.2953 -0.9001  2.3628
 1631TIP3    H2 4900   2.701   0.009   2.722  0.6333  0.3212 -1.6984
 1632TIP3   OH2 4901   4.635   2.566   3.858 -0.0982 -1.0987 -0.2510
 1632TIP3    H1 4902   4.684   2.544   3.778  0.6874 -1.3971  0.3048
 1632TIP3    H2 4903   4.665   2.502   3.922  0.0135 -0.2295  0.5718
 1633TIP3   OH2 4904   2.494   3.198   2.607 -0.0389 -0.1269  0.4553
 1633TIP3    H1 4905   2.491   3.139   2.682 -0.7434 -2.1850 -1.0802
 1633TIP3    H2 4906   2.576   3.175   2.562 -0.6347 -0.4359 -0.5055
 1634TIP3   OH2 4907   2.855   2.144   0.906  0.0537  0.3565 -0.0795
 1634TIP3    H1 4908   2.795   2.140   0.831 -1.4388 -0.5371  1.1004
 1634TIP3    H2 4909   2.798   2.159   0.982  1.4231  0.3304  0.9945
 1635TIP3   OH2 4910   6.133   0.008   5.017 -0.4107  0.4700  0.2761
 1635TIP3    H1 4911   6.058  -0.047   5.040  0.7896 -1.2007  0.4341
 1635TIP3    H2 4912   6.146   0.064   5.093  0.4823 -1.5571  1.7309
 1636TIP3   OH2 4913   1.544   1.617   5.100  0.5404 -0.2782  0.0031
 1636TIP3    H1 4914   1.545   1.546   5.165 -1.1972 -1.6856 -1.3886
 1636TIP3    H2 4915   1.636   1.640   5.089  1.1066 -1.8072  1.0521
 1637TIP3   OH2 4916   0.133   4.262   1.558  1.0039  0.3762  0.4214
 1637TIP3    H1 4917   0.102   4.314   1.485 -1.0143  0.8519  1.5334
 1637TIP3    H2 4918   0.055   4.215   1.588  2.2296 -1.3922  0.9968
 1638TIP3   OH2 4919   1.355   3.518   1.346  0.0989  0.0358  0.0228
 1638TIP3    H1 4920   1.430   3.470   1.311  0.4099 -0.8788  1.8315
 1638TIP3    H2 4921   1.392   3.573   1.414 -0.5825  1.2631 -0.5709
 1639TIP3   OH2 4922   3.662   2.369   1.772 -0.5110 -0.1672  0.0589
 1639TIP3    H1 4923   3.570   2.359   1.797 -1.1334  1.5385 -1.3418
 1639TIP3    H2 4924   3.699   2.423   1.842 -0.5534 -0.8276  0.6076
 1640TIP3   OH2 4925   4.356   1.862   3.377 -0.2176 -0.0390 -0.2273
 1640TIP3    H1 4926   4.398   1.926   3.435 -0.4665 -1.9997  2.3018
 1640TIP3    H2 4927   4.421   1.792   3.368 -1.0208 -0.7751 -0.4633
 1641TIP3   OH2 4928   3.052   5.734   5.175 -0.2184 -0.4768 -0.2105
 1641TIP3    H1 4929   3.146   5.728   5.189 -0.4513 -1.0003  1.2925
 1641TIP3    H2 4930   3.043   5.785   5.095  1.3016  1.8144  0.9636
 1642TIP3   OH2 4931   4.948   0.669   4.065  0.0015 -0.1709  0.4473
 1642TIP3    H1 4932   4.944   0.764   4.079 -0.4163 -0.2685  1.0466
 1642TIP3    H2 4933   4.889   0.653   3.992  1.2001  0.1962 -0.6470
 1643TIP3   OH2 4934   4.796   3.185   3.053  0.6716 -0.3340  0.2680
 1643TIP3    H1 4935   4.712   3.166   3.096  0.0311 -2.1918 -1.6421
 1643TIP3    H2 4936   4.829   3.099   3.027  1.8307  0.5892 -1.4271
 1644TIP3   OH2 4937   1.597   1.353   1.762 -0.4022 -0.1322 -0.3633
 1644TIP3    H1 4938   1.667   1.373   1.824 -0.6267 -0.8583  0.1287
 1644TIP3    H2 4939   1.559   1.439   1.740 -0.1968  0.1440  0.3471
 1645TIP3   OH2 4940   5.198   2.940   4.206  0.3127 -0.1381  0.0382
 1645TIP3    H1 4941   5.201   2.879   4.280  1.6644  0.2420  0.3140
 1645TIP3    H2 4942   5.288   2.944   4.174  0.0355  0.8785 -0.6751
 1646TIP3   OH2 4943   1.056   2.753   3.967 -0.3274 -0.1115 -0.3134
 1646TIP3    H1 4944   1.102   2.740   4.050  1.0257 -0.0133 -1.0099
 1646TIP3    H2 4945   0.963   2.744   3.988 -0.0387  0.4320  1.3009
 1647TIP3   OH2 4946   1.188   0.055   1.125  0.2205  0.1076  0.2240
 1647TIP3    H1 4947   1.167   0.147   1.105 -0.8181  0.1269  1.3171
 1647TIP3    H2 4948   1.208   0.055   1.219  0.4658 -0.7415  0.1763
 1648TIP3   OH2 4949   0.222   5.233   3.226  0.5885  1.1935 -0.2723
 1648TIP3    H1 4950   0.249   5.299   3.290 -0.6600  1.0163  0.4657
 1648TIP3    H2 4951   0.133   5.259   3.201 -0.5258 -0.9725  1.1409
 1649TIP3   OH2 4952   1.153   3.401   1.730 -0.1005 -0.9928  0.4057
 1649TIP3    H1 4953   1.215   3.355   1.674  0.9088 -0.8975  1.4246
 1649TIP3    H2 4954   1.079   3.421   1.672 -0.6410 -3.9235 -0.0913
 1650TIP3   OH2 4955   5.958   1.780   2.702 -0.1382 -0.0636  0.3866
 1650TIP3    H1 4956   5.919   1.706   2.750  1.1602 -2.1926 -1.6234
 1650TIP3    H2 4957   6.020   1.818   2.764 -0.7952 -0.6893  1.4664
 1651TIP3   OH2 4958   2.312   0.323   3.068  0.1851  0.0643 -0.1528
 1651TIP3    H1 4959   2.342   0.269   3.141 -0.1279 -0.2675 -0.2610
 1651TIP3    H2 4960   2.225   0.353   3.094  0.4625  0.7247  0.0108
 1652TIP3   OH2 4961   4.028   1.145   3.058 -0.3057 -0.0606 -0.5022
 1652TIP3    H1 4962   4.105   1.176   3.012 -0.8836 -0.5747 -1.8902
 1652TIP3    H2 4963   4.055   1.136   3.149  1.5248 -1.0479 -1.0933
 1653TIP3   OH2 4964   2.671   5.262   1.772 -0.9521 -0.0184 -0.2738
 1653TIP3    H1 4965   2.662   5.253   1.677 -1.2780 -1.2828 -0.1340
 1653TIP3    H2 4966   2.614   5.194   1.808  0.7095 -0.8919  0.7957
 1654TIP3   OH2 4967   5.455   0.306   4.140  0.1346 -0.9904 -0.0178
 1654TIP3    H1 4968   5.447   0.361   4.218  0.3464 -1.4891  0.3624
 1654TIP3    H2 4969   5.420   0.360   4.069  0.7809 -0.1876  0.2636
 1655TIP3   OH2 4970   0.222   3.220   0.914 -0.0449  0.3977 -0.1689
 1655TIP3    H1 4971   0.138   3.201   0.955 -0.6691 -1.1032 -2.0015
 1655TIP3    H2 4972   0.272   3.139   0.923  0.6135  0.7723 -0.4086
 1656TIP3   OH2 4973   2.173   4.224   1.789  0.6316 -0.6399 -0.3785
 1656TIP3    H1 4974   2.207   4.150   1.738 -0.4409 -0.7911 -0.9036
 1656TIP3    H2 4975   2.080   4.229   1.764  0.4150  0.1378  0.5493
 1657TIP3   OH2 4976   1.731   1.874   3.507  0.1205  0.3033 -0.3431
 1657TIP3    H1 4977   1.661   1.909   3.561 -0.2432 -1.7105  0.6081
 1657TIP3    H2 4978   1.781   1.950   3.478 -1.6551  1.6763  0.0668
 1658TIP3   OH2 4979   5.802   1.178   1.945  0.6272  0.1924 -0.3145
 1658TIP3    H1 4980   5.860   1.191   2.021  0.8068 -1.5904 -0.1139
 1658TIP3    H2 4981   5.732   1.123   1.978  1.3131 -1.5863 -1.6969
 1659TIP3   OH2 4982   5.092   2.194   5.161  0.2031 -0.5177  0.4953
 1659TIP3    H1 4983   5.051   2.195   5.075 -1.5317 -1.5173  1.2628
 1659TIP3    H2 4984   5.133   2.280   5.169 -0.5704  0.0041 -0.8800
 1660TIP3   OH2 4985   4.409   0.921   2.339 -0.0721 -0.8972 -0.0383
 1660TIP3    H1 4986   4.373   0.887   2.257  0.4552 -1.7473  0.0611
 1660TIP3    H2 4987   4.406   1.016   2.330  0.8777 -0.9690 -1.4550
 1661TIP3   OH2 4988   0.391   5.395   4.326  0.1170 -0.8424 -0.1295
 1661TIP3    H1 4989   0.434   5.476   4.354 -1.2023 -0.5432  1.1301
 1661TIP3    H2 4990   0.464   5.337   4.301  1.1751  0.1275  0.6130
 1662TIP3   OH2 4991   1.931   5.441   0.435  0.0628  0.2090 -0.0201
 1662TIP3    H1 4992   1.848   5.415   0.396  1.2445 -0.6874 -2.1409
 1662TIP3    H2 4993   1.978   5.484   0.364  1.7776 -0.1816  0.8164
 1663TIP3   OH2 4994   3.226   4.968   3.174  0.1491 -0.0988 -0.7178
 1663TIP3    H1 4995   3.133   4.950   3.189 -0.1005 -0.1748 -2.2532
 1663TIP3    H2 4996   3.234   4.978   3.079  2.0633 -2.0346 -0.8310
 1664TIP3   OH2 4997   2.152   5.445   3.246 -0.5165  0.2467  0.4817
 1664TIP3    H1 4998   2.090   5.383   3.209 -0.5936  0.1029  0.8508
 1664TIP3    H2 4999   2.157   5.515   3.181 -0.0957 -0.3492 -0.1494
 1665TIP3   OH2 5000   5.298  -0.009   2.846 -0.6478  0.2627  0.3796
 1665TIP3    H1 5001   5.288   0.043   2.766  0.7974 -1.0859 -0.7337
 1665TIP3    H2 5002   5.383   0.017   2.880 -1.5636  1.3731  1.9527
 1666TIP3   OH2 5003   0.751   3.877   1.427 -0.4095 -0.2033 -0.5543
 1666TIP3    H1 5004   0.720   3.807   1.369  0.5201 -0.7870 -0.3719
 1666TIP3    H2 5005   0.767   3.833   1.510 -2.2700  0.7321  0.3563
 1667TIP3   OH2 5006   1.822   2.687   3.422  0.5208 -0.2142  0.2804
 1667TIP3    H1 5007   1.917   2.695   3.426  0.4974 -0.4774  2.5857
 1667TIP3    H2 5008   1.792   2.706   3.511 -1.3928 -2.1735  0.1497
 1668TIP3   OH2 5009   4.450   2.460   2.351 -0.0686 -0.1020 -0.3014
 1668TIP3    H1 5010   4.403   2.543   2.353  0.7842  0.4312 -1.2834
 1668TIP3    H2 5011   4.411   2.411   2.279  0.1093 -0.1272 -0.3824
 1669TIP3   OH2 5012   5.210   1.530   1.227 -0.1490  0.4736  0.3040
 1669TIP3    H1 5013   5.288   1.547   1.280 -0.1039  0.8960  0.1109
 1669TIP3    H2 5014   5.180   1.617   1.200 -1.2191  0.3699  1.1209
 1670TIP3   OH2 5015   5.504   0.193   1.833 -0.5565 -0.3605  0.4304
 1670TIP3    H1 5016   5.591   0.226   1.809 -1.3474  0.5368 -1.4102
 1670TIP3    H2 5017   5.520   0.103   1.861  1.2088  0.4229  2.1794
 1671TIP3   OH2 5018   1.377   4.681   4.058  0.0090  0.2035 -0.3317
 1671TIP3    H1 5019   1.286   4.680   4.028  0.0105 -0.7958 -0.3444
 1671TIP3    H2 5020   1.372   4.717   4.147 -0.5351 -0.7360  0.0396
 1672TIP3   OH2 5021   3.551   2.907   0.021 -0.0594 -0.0490 -0.0818
 1672TIP3    H1 5022   3.602   2.939  -0.053 -2.9707 -0.1805 -2.3312
 1672TIP3    H2 5023   3.521   2.987   0.066 -1.1976  0.2262 -1.2553
 1673TIP3   OH2 5024   5.458   3.143   1.644  0.0676 -0.0413  0.0477
 1673TIP3    H1 5025   5.467   3.050   1.665 -0.5915  0.1147  1.0361
 1673TIP3    H2 5026   5.419   3.143   1.556  1.3642 -0.6844 -0.5641
 1674TIP3   OH2 5027   5.662   5.123   4.744  0.4431  0.1669 -0.1427
 1674TIP3    H1 5028   5.725   5.182   4.786  0.5314 -0.4970  0.7056
 1674TIP3    H2 5029   5.631   5.067   4.816 -0.2756 -0.2469 -0.7630
 1675TIP3   OH2 5030   0.135   1.476   0.345 -0.3270 -0.0866 -0.7147
 1675TIP3    H1 5031   0.156   1.387   0.375  2.0117  0.1883 -1.3470
 1675TIP3    H2 5032   0.074   1.463   0.273  0.2147 -1.2144 -0.9941
 1676TIP3   OH2 5033   1.238   4.850   4.668  0.8562 -0.1959  0.1837
 1676TIP3    H1 5034   1.279   4.768   4.639 -2.1052 -2.0616  0.7644
 1676TIP3    H2 5035   1.284   4.919   4.621  1.7219 -2.4055 -2.4475
 1677TIP3   OH2 5036   6.034   2.992   1.257  0.3911 -0.3125  0.5852
 1677TIP3    H1 5037   5.992   2.972   1.173 -0.1248 -1.2176  1.0503
 1677TIP3    H2 5038   6.101   2.925   1.267 -0.0239 -0.6457  1.2229
 1678TIP3   OH2 5039   1.431   2.268   1.487 -0.2628 -0.3985 -0.1939
 1678TIP3    H1 5040   1.369   2.227   1.427 -0.4948 -1.5561  0.8157
 1678TIP3    H2 5041   1.464   2.344   1.438  0.1494 -1.7381 -2.0959
 1679TIP3   OH2 5042   2.570   0.707   3.200 -0.0924 -0.2040  0.2010
 1679TIP3    H1 5043   2.505   0.706   3.271 -0.0970  3.0293  0.3808
 1679TIP3    H2 5044   2.648   0.669   3.240 -0.6921 -0.3696  1.2818
 1680TIP3   OH2 5045   1.413   5.888   4.878 -0.1111  0.1240  0.8426
 1680TIP3    H1 5046   1.351   5.818   4.900  0.0291  0.2136  1.5375
 1680TIP3    H2 5047   1.364   5.969   4.894 -0.3566  0.2014 -0.1950
 1681TIP3   OH2 5048   1.147   3.096   1.369 -0.0340  0.4798  0.0009
 1681TIP3    H1 5049   1.130   3.049   1.450 -0.8126  0.8858  0.0812
 1681TIP3    H2 5050   1.067   3.146   1.352 -0.2517 -0.2986 -1.4992
 1682TIP3   OH2 5051   6.014   3.400   1.655  0.0594  0.4463 -0.4055
 1682TIP3    H1 5052   5.971   3.315   1.663  1.4086 -0.3847 -1.4899
 1682TIP3    H2 5053   5.968   3.444   1.584 -0.8683  0.7944  0.3874
 1683TIP3   OH2 5054   5.307   0.227   0.494 -0.0484  0.0243  0.1824
 1683TIP3    H1 5055   5.269   0.313   0.510  1.1549  0.5740  0.2424
 1683TIP3    H2 5056   5.330   0.194   0.581 -1.3582 -0.7856  0.2393
 1684TIP3   OH2 5057   4.673   4.067   3.064 -0.1231 -0.1460  0.2359
 1684TIP3    H1 5058   4.678   3.998   2.998  1.1980 -0.0977  0.2580
 1684TIP3    H2 5059   4.707   4.025   3.144 -0.0413  0.3013  0.4390
 1685TIP3   OH2 5060   3.020   2.850   1.530  0.1749 -0.4366  0.0679
 1685TIP3    H1 5061   3.015   2.791   1.454  1.1971 -0.5515  0.0770
 1685TIP3    H2 5062   3.039   2.936   1.493  0.4170 -0.4434  0.1757
 1686TIP3   OH2 5063   1.097   0.613   0.880 -0.3610  0.2596 -0.3395
 1686TIP3    H1 5064   1.093   0.557   0.957  3.2917  1.7744  1.1899
 1686TIP3    H2 5065   1.046   0.690   0.903 -0.9297 -0.1322 -0.2732
 1687TIP3   OH2 5066   5.722   4.750   0.169  0.1361 -0.4172  0.0955
 1687TIP3    H1 5067   5.715   4.844   0.188  0.5544 -0.2582 -0.4975
 1687TIP3    H2 5068   5.704   4.708   0.253  1.5656  0.2569  0.7847
 1688TIP3   OH2 5069   6.231   0.786   2.273  0.1339 -0.1294  0.1675
 1688TIP3    H1 5070   6.143   0.756   2.252  1.1728 -3.2987 -0.2153
 1688TIP3    H2 5071   6.242   0.866   2.223 -1.8788 -0.6760 -1.2650
 1689TIP3   OH2 5072   0.588   2.279   3.674  0.4052 -0.2602 -0.3622
 1689TIP3    H1 5073   0.614   2.369   3.692  0.2711 -0.2800 -0.0695
 1689TIP3    H2 5074   0.637   2.226   3.737 -0.9803 -0.2277  0.8093
 1690TIP3   OH2 5075   2.886   3.095   4.497 -0.5803  0.0184  0.1405
 1690TIP3    H1 5076   2.906   3.017   4.548 -0.6590  1.2060  2.0880
 1690TIP3    H2 5077   2.802   3.077   4.455 -1.4722 -0.3020  1.9912
 1691TIP3   OH2 5078   4.788   5.190   1.926  0.0501 -0.2922 -0.1665
 1691TIP3    H1 5079   4.732   5.169   2.001  1.7190  0.1517  1.2815
 1691TIP3    H2 5080   4.812   5.105   1.888 -0.4463 -0.5445  0.0863
 1692TIP3   OH2 5081   3.089   3.211   3.859  0.3456 -0.0116  0.1632
 1692TIP3    H1 5082   3.178   3.211   3.895  0.1758 -0.5094  0.5858
 1692TIP3    H2 5083   3.042   3.276   3.912  0.5350  0.5043 -0.2814
 1693TIP3   OH2 5084   0.886   2.111   1.208  0.2029  0.1075  0.0707
 1693TIP3    H1 5085   0.962   2.075   1.164 -0.2195  0.8241 -1.2937
 1693TIP3    H2 5086   0.818   2.045   1.196  0.1210  0.2505 -0.2641
 1694TIP3   OH2 5087   2.363   2.426   1.471  1.0365 -0.2351  0.3208
 1694TIP3    H1 5088   2.403   2.463   1.393  0.1488  0.5971  0.2330
 1694TIP3    H2 5089   2.432   2.373   1.512  1.2658 -1.4003 -1.4716
 1695TIP3   OH2 5090   0.303   0.884   4.312 -0.4175  0.4168  0.3159
 1695TIP3    H1 5091   0.333   0.794   4.321 -0.3091  0.3803 -0.3191
 1695TIP3    H2 5092   0.351   0.932   4.379  2.1536  0.6058 -1.4956
 1696TIP3   OH2 5093   2.557   1.579   0.023 -0.0911  0.2404 -0.3083
 1696TIP3    H1 5094   2.515   1.498  -0.004 -0.1775  0.6041 -1.3125
 1696TIP3    H2 5095   2.494   1.648  -0.001  0.2381  0.6501 -0.0243
 1697TIP3   OH2 5096   3.120   0.823   0.100  0.5285 -0.0467  0.3182
 1697TIP3    H1 5097   3.108   0.918   0.094  2.6214  0.3853  1.7891
 1697TIP3    H2 5098   3.213   0.810   0.083  0.3486 -1.8047  0.5302
 1698TIP3   OH2 5099   0.753   1.913   5.010  0.0652 -0.3012  0.5478
 1698TIP3    H1 5100   0.705   1.928   5.091 -0.8794  0.8506 -0.1881
 1698TIP3    H2 5101   0.798   1.996   4.993  0.1810 -0.4930 -0.1408
 1699TIP3   OH2 5102   4.714   0.221   2.187  0.0748 -0.2888 -0.1285
 1699TIP3    H1 5103   4.662   0.275   2.126  1.1223 -0.1077 -0.8856
 1699TIP3    H2 5104   4.745   0.283   2.253  1.1153  0.0183 -0.8890
 1700TIP3   OH2 5105   2.000   1.708   4.445 -0.0406 -0.0504  0.2167
 1700TIP3    H1 5106   2.006   1.802   4.428 -1.2337 -0.2737 -1.6733
 1700TIP3    H2 5107   2.074   1.671   4.397  0.3836 -0.1025  0.8976
 1701TIP3   OH2 5108   5.316   0.936   2.373  0.1377 -0.6468  0.2417
 1701TIP3    H1 5109   5.405   0.939   2.409  0.8305 -3.2913 -1.0146
 1701TIP3    H2 5110   5.329   0.925   2.279 -1.5810  0.8294 -0.2136
 1702TIP3   OH2 5111   4.709   1.330   0.962 -0.4837 -0.1344  0.0325
 1702TIP3    H1 5112   4.687   1.300   1.050 -1.8725  0.5057 -0.0696
 1702TIP3    H2 5113   4.759   1.410   0.976 -0.3389 -0.2587  0.2403
 1703TIP3   OH2 5114   3.219   5.496   3.598  0.0761 -0.4901  0.6341
 1703TIP3    H1 5115   3.241   5.440   3.523 -1.5894 -2.5124  1.5814
 1703TIP3    H2 5116   3.137   5.539   3.573  0.3421  0.0730  0.6956
 1704TIP3   OH2 5117   2.430   1.692   4.731  0.5333 -0.2305  0.4347
 1704TIP3    H1 5118   2.505   1.749   4.744  0.7589 -0.5493  0.5316
 1704TIP3    H2 5119   2.381   1.733   4.659  1.6997 -0.9386 -0.7961
 1705TIP3   OH2 5120   1.187   4.873   4.948 -0.4958 -0.1266  0.4256
 1705TIP3    H1 5121   1.102   4.914   4.963 -0.2318  0.0832  1.4363
 1705TIP3    H2 5122   1.200   4.879   4.853 -1.0483  0.9594  0.3967
 1706TIP3   OH2 5123   4.365   3.390   4.502  0.0313  0.5485 -0.1372
 1706TIP3    H1 5124   4.429   3.386   4.431  0.9003  0.7104  0.6272
 1706TIP3    H2 5125   4.330   3.479   4.498 -0.1199  0.4727 -0.5272
 1707TIP3   OH2 5126   0.964   5.539   1.268  0.2684  0.0288  0.0408
 1707TIP3    H1 5127   1.053   5.507   1.255 -0.4453 -1.9859 -0.2029
 1707TIP3    H2 5128   0.962   5.569   1.359  1.1803  0.0662  0.0563
 1708TIP3   OH2 5129   2.867   2.772   1.804  0.0379  0.4679 -0.2642
 1708TIP3    H1 5130   2.928   2.826   1.853  3.4782 -1.9872 -1.4246
 1708TIP3    H2 5131   2.897   2.778   1.713 -3.3435  1.3404 -1.4765
 1709TIP3   OH2 5132   3.991   1.538   1.597  0.3723  0.3655 -0.0432
 1709TIP3    H1 5133   4.001   1.574   1.508  2.3311  0.5022  0.1851
 1709TIP3    H2 5134   3.900   1.511   1.602  0.0844  0.8587 -1.9141
 1710TIP3   OH2 5135   4.966   1.796   2.221  0.0485  0.7198 -0.1244
 1710TIP3    H1 5136   4.967   1.745   2.140 -1.7443  1.6472 -0.7650
 1710TIP3    H2 5137   4.951   1.731   2.289  1.2345 -0.0233 -0.5321
 1711TIP3   OH2 5138   0.130   2.354   2.622 -0.2652  0.3076 -0.2640
 1711TIP3    H1 5139   0.070   2.351   2.547 -0.2661 -0.5912 -0.2454
 1711TIP3    H2 5140   0.211   2.315   2.589 -0.7575 -1.5621  0.6025
 1712TIP3   OH2 5141   1.178   0.940   3.801  0.3574 -0.0805  0.1716
 1712TIP3    H1 5142   1.227   0.983   3.871 -1.5455 -0.2295  1.6997
 1712TIP3    H2 5143   1.169   1.007   3.734  0.4042  0.7924  1.0124
 1713TIP3   OH2 5144   5.816   2.754   3.613 -0.2598 -0.0854 -0.7052
 1713TIP3    H1 5145   5.900   2.711   3.630 -1.0434 -1.2847  0.2526
 1713TIP3    H2 5146   5.758   2.722   3.681 -1.0033  2.2665 -0.1606
 1714TIP3   OH2 5147   0.680   4.511   0.158 -0.0583 -0.2232  0.3224
 1714TIP3    H1 5148   0.695   4.603   0.136 -0.8909 -0.6591 -2.3923
 1714TIP3    H2 5149   0.751   4.464   0.115 -1.0509 -1.0335 -0.4847
 1715TIP3   OH2 5150   4.699   2.745   1.825 -0.3088  0.0724 -0.7581
 1715TIP3    H1 5151   4.781   2.765   1.780 -0.3699 -0.9620 -1.3721
 1715TIP3    H2 5152   4.634   2.737   1.754  0.0008 -3.6334 -0.7930
 1716TIP3   OH2 5153   3.323   4.923   1.849  0.8859  0.0749  0.4492
 1716TIP3    H1 5154   3.282   4.857   1.904  0.5064 -1.5847 -1.6577
 1716TIP3    H2 5155   3.250   4.971   1.810  0.8169 -1.9393 -2.1932
 1717TIP3   OH2 5156   4.711   2.484   3.585 -0.0323 -0.2473  0.4875
 1717TIP3    H1 5157   4.677   2.455   3.501  1.3411  1.2320 -0.6485
 1717TIP3    H2 5158   4.806   2.483   3.574  0.1928 -0.5682  2.2269
 1718TIP3   OH2 5159   2.111   4.332   2.652  0.0499  0.5131  0.2171
 1718TIP3    H1 5160   2.117   4.237   2.638 -0.4826  0.4141  0.5985
 1718TIP3    H2 5161   2.157   4.347   2.734  1.8534  0.8761 -0.8264
 1719TIP3   OH2 5162   3.623   0.620   2.867 -0.8704  0.0590  0.3921
 1719TIP3    H1 5163   3.679   0.673   2.810  1.0970 -3.8876 -1.7936
 1719TIP3    H2 5164   3.683   0.558   2.908 -3.1697 -1.8420  1.1095
 1720TIP3   OH2 5165   0.845   5.589   2.796 -0.3752  0.5531  0.2211
 1720TIP3    H1 5166   0.821   5.602   2.888  1.5857  0.2506  0.8302
 1720TIP3    H2 5167   0.855   5.494   2.787 -0.3943  0.5938 -0.2591
 1721TIP3   OH2 5168   1.895   3.802   1.261 -0.4716  1.0967  0.0890
 1721TIP3    H1 5169   1.902   3.865   1.189  1.2680  1.1145  0.2443
 1721TIP3    H2 5170   1.928   3.720   1.224  1.0866  1.2683  1.0423
 1722TIP3   OH2 5171   0.674   2.523   3.781  0.3344  0.1269  0.5912
 1722TIP3    H1 5172   0.657   2.609   3.818 -1.0494 -0.6706  1.9043
 1722TIP3    H2 5173   0.763   2.501   3.808  0.5259  0.9490  0.6283
 1723TIP3   OH2 5174   2.783   5.206   2.774  0.0335  0.1156  0.4313
 1723TIP3    H1 5175   2.842   5.281   2.773 -0.4903  0.5586 -1.2478
 1723TIP3    H2 5176   2.696   5.245   2.766 -0.2055 -0.6632 -1.1570
 1724TIP3   OH2 5177   0.984   5.160   3.657  0.2759 -0.1798  0.4256
 1724TIP3    H1 5178   0.933   5.235   3.627  1.0407  0.2438  0.1573
 1724TIP3    H2 5179   1.075   5.189   3.651  0.8056 -2.0306 -2.3612
 1725TIP3   OH2 5180   6.059   5.008   0.156 -0.3676 -0.5242  0.7262
 1725TIP3    H1 5181   6.036   4.966   0.239 -0.4197 -0.4273  0.7614
 1725TIP3    H2 5182   6.155   5.010   0.156 -0.3751  0.0460  1.0754
 1726TIP3   OH2 5183   3.082   5.905   1.605 -0.7213 -0.0638  0.3570
 1726TIP3    H1 5184   2.995   5.888   1.568 -1.5932  2.8197  0.8239
 1726TIP3    H2 5185   3.132   5.942   1.533  0.0041 -1.2200  0.2346
 1727TIP3   OH2 5186   1.868   2.485   4.984  0.2707  0.5109  0.5659
 1727TIP3    H1 5187   1.789   2.532   5.010  1.4877  2.9414  0.1647
 1727TIP3    H2 5188   1.886   2.515   4.895  2.0380  0.6266  0.9276
 1728TIP3   OH2 5189   5.407   0.467   4.386 -0.0930  0.1986  0.3167
 1728TIP3    H1 5190   5.433   0.550   4.426  1.2105 -0.1589  0.2564
 1728TIP3    H2 5191   5.322   0.486   4.345  0.1720  1.4927  0.3203
 1729TIP3   OH2 5192   5.109   4.015   3.004 -0.7123 -0.6348 -1.0185
 1729TIP3    H1 5193   5.185   4.020   2.946  1.1818 -1.4906  1.2063
 1729TIP3    H2 5194   5.094   4.106   3.031  0.8620 -0.6447  0.0408
 1730TIP3   OH2 5195   1.295   2.887   4.696 -0.0108  0.7045  0.6789
 1730TIP3    H1 5196   1.203   2.898   4.723 -0.3646  1.2550 -0.6537
 1730TIP3    H2 5197   1.303   2.942   4.618  1.3128  0.2115  0.4486
 1731TIP3   OH2 5198   6.315   4.863   2.892 -0.0180  0.4805  0.1048
 1731TIP3    H1 5199   6.397   4.911   2.908 -0.1405 -0.3522  4.2425
 1731TIP3    H2 5200   6.248   4.914   2.939 -1.2032 -0.8126 -0.1194
 1732TIP3   OH2 5201   2.289   3.114   1.906  0.4097  0.2476  0.3438
 1732TIP3    H1 5202   2.356   3.094   1.840  0.4037  0.2717  0.3306
 1732TIP3    H2 5203   2.236   3.034   1.911  0.2594  0.3356  0.1414
 1733TIP3   OH2 5204   5.191   0.303   0.814  0.3039 -0.1460  0.3496
 1733TIP3    H1 5205   5.106   0.325   0.776  0.2689 -2.5227 -1.1716
 1733TIP3    H2 5206   5.255   0.330   0.747  0.2638 -4.0506 -1.5181
 1734TIP3   OH2 5207   2.953   0.290   3.121  0.5740 -0.0499 -0.2763
 1734TIP3    H1 5208   3.009   0.331   3.055  1.0231  1.3393  0.8943
 1734TIP3    H2 5209   2.872   0.342   3.120  0.6862  0.1540  0.4132
 1735TIP3   OH2 5210   4.540   2.080   2.709  0.7151 -0.3735  0.3428
 1735TIP3    H1 5211   4.619   2.071   2.656  0.9219  1.4222  0.3017
 1735TIP3    H2 5212   4.505   2.166   2.686 -0.4375 -0.5187  1.4599
 1736TIP3   OH2 5213   1.243   3.658   0.768 -0.7270 -0.2296 -0.1364
 1736TIP3    H1 5214   1.239   3.580   0.714  0.3883  0.2344 -0.9077
 1736TIP3    H2 5215   1.232   3.626   0.858  0.1929 -1.3292 -0.3991
 1737TIP3   OH2 5216   5.866   5.708   0.101  0.0880 -0.2198  0.1103
 1737TIP3    H1 5217   5.790   5.764   0.082 -0.1230  0.0350  1.5919
 1737TIP3    H2 5218   5.891   5.732   0.190  0.2794 -2.1630  0.6177
 1738TIP3   OH2 5219   0.595   2.767   5.173 -0.2052  0.2426 -0.0355
 1738TIP3    H1 5220   0.610   2.724   5.089  1.0611  0.3162  0.1455
 1738TIP3    H2 5221   0.636   2.853   5.164  0.0654  0.1981  0.7025
 1739TIP3   OH2 5222   6.162   5.206   1.720  0.4288 -0.8891  0.4627
 1739TIP3    H1 5223   6.186   5.153   1.644 -2.7283 -3.9139  1.3144
 1739TIP3    H2 5224   6.117   5.282   1.684 -1.0429 -2.2814 -0.7820
 1740TIP3   OH2 5225   0.555   4.759   0.700 -0.2687 -0.1139  0.5884
 1740TIP3    H1 5226   0.589   4.725   0.617 -1.5351 -1.1429  0.4568
 1740TIP3    H2 5227   0.607   4.838   0.716  0.3764 -0.1904 -0.8955
 1741TIP3   OH2 5228   4.401   0.921   3.944  0.2608 -0.0426 -0.5159
 1741TIP3    H1 5229   4.317   0.924   3.898 -0.0352  2.8007  0.0294
 1741TIP3    H2 5230   4.464   0.894   3.877 -0.5742  1.3216 -1.9139
 1742TIP3   OH2 5231   2.844   4.812   4.618 -0.6246  0.2069  0.1341
 1742TIP3    H1 5232   2.827   4.900   4.652  2.3860  0.9588  0.0186
 1742TIP3    H2 5233   2.902   4.826   4.543 -0.8925 -1.8499 -0.5264
 1743TIP3   OH2 5234   4.879   0.607   1.289  0.0478 -0.2056  0.1284
 1743TIP3    H1 5235   4.921   0.692   1.302 -0.8929  0.4966 -1.3008
 1743TIP3    H2 5236   4.942   0.557   1.237 -0.0368  0.1396 -0.3055
 1744TIP3   OH2 5237   5.215   1.162   5.037 -0.3601  0.3241  0.2998
 1744TIP3    H1 5238   5.278   1.212   5.090 -0.1443  0.6991 -0.3012
 1744TIP3    H2 5239   5.212   1.076   5.078 -0.6052  0.7739  1.2505
 1745TIP3   OH2 5240   2.865   3.225   5.159 -0.0379 -0.2174 -0.1324
 1745TIP3    H1 5241   2.780   3.255   5.127 -0.0786 -1.5495 -1.3467
 1745TIP3    H2 5242   2.929   3.265   5.099  0.1600  0.1543  0.3124
 1746TIP3   OH2 5243   5.241   3.570   1.828 -0.4347 -0.4057  0.1466
 1746TIP3    H1 5244   5.172   3.631   1.855  1.6034  2.3860 -0.4071
 1746TIP3    H2 5245   5.303   3.569   1.901  0.6945  0.0831 -0.7668
 1747TIP3   OH2 5246   1.693   3.794   3.025 -0.4036  0.2440 -0.0658
 1747TIP3    H1 5247   1.611   3.749   3.047  0.5889 -0.9171  1.4756
 1747TIP3    H2 5248   1.761   3.734   3.054  1.0068  1.3346 -1.0175
 1748TIP3   OH2 5249   0.379   5.294   4.779 -0.1125  0.1884 -0.0466
 1748TIP3    H1 5250   0.370   5.285   4.684 -0.6427 -2.7767  0.1923
 1748TIP3    H2 5251   0.321   5.228   4.815  0.9704  0.4422  2.3335
 1749TIP3   OH2 5252   6.000   2.893   0.139 -0.0346 -0.0474 -0.1253
 1749TIP3    H1 5253   5.915   2.936   0.152  0.3633  0.4614  0.8742
 1749TIP3    H2 5254   6.021   2.855   0.224  1.2869  0.8593 -0.0161
 1750TIP3   OH2 5255   0.244   3.030   0.541  0.6498  0.0575 -0.6694
 1750TIP3    H1 5256   0.265   3.066   0.628 -0.7129  2.1074 -1.1178
 1750TIP3    H2 5257   0.312   3.065   0.483  0.7240 -0.1310 -0.6990
 1751TIP3   OH2 5258   5.603   0.076   2.195  0.5024 -0.0953  0.0167
 1751TIP3    H1 5259   5.574   0.113   2.278  1.8388  1.0287  0.0121
 1751TIP3    H2 5260   5.636   0.150   2.145 -2.0665 -0.3859 -2.3766
 1752TIP3   OH2 5261   2.393   0.106   4.633  0.0905  0.4239  0.7385
 1752TIP3    H1 5262   2.302   0.115   4.663 -0.6693 -2.4502 -0.3242
 1752TIP3    H2 5263   2.416   0.016   4.655  2.4113  0.8213  0.1722
 1753TIP3   OH2 5264   3.791   3.442   1.954 -0.3848  0.0336  0.2260
 1753TIP3    H1 5265   3.748   3.394   2.025  0.0976 -0.7932 -0.0269
 1753TIP3    H2 5266   3.850   3.502   1.999 -2.2055  1.6384  0.5970
 1754TIP3   OH2 5267   4.863   0.691   0.916  0.1543 -0.3722  0.6819
 1754TIP3    H1 5268   4.917   0.760   0.954  0.1015  0.1326 -0.1318
 1754TIP3    H2 5269   4.864   0.708   0.822 -0.6274 -0.9301  0.5541
 1755TIP3   OH2 5270   5.123   1.102   4.268  0.2089 -0.1836  0.5067
 1755TIP3    H1 5271   5.107   1.058   4.184 -0.7948 -1.8081  1.5090
 1755TIP3    H2 5272   5.203   1.061   4.301  0.9136  0.8433  0.1221
 1756TIP3   OH2 5273   3.320   1.639   1.975 -0.3722  0.1459  0.2024
 1756TIP3    H1 5274   3.340   1.717   1.922  0.8610 -0.3559 -0.0965
 1756TIP3    H2 5275   3.316   1.568   1.911  2.0295 -0.6273  0.8286
 1757TIP3   OH2 5276   2.201   0.372   3.343  0.0364 -0.3189 -0.0550
 1757TIP3    H1 5277   2.245   0.389   3.427 -1.6742 -0.1864  0.8785
 1757TIP3    H2 5278   2.214   0.453   3.293  2.2775 -0.9067 -0.5445
 1758TIP3   OH2 5279   6.323   5.214   2.911  0.4338  0.2826  0.1406
 1758TIP3    H1 5280   6.392   5.225   2.846 -0.1759 -0.9873 -0.7734
 1758TIP3    H2 5281   6.242   5.218   2.860 -0.0848 -0.0653  0.9235
 1759TIP3   OH2 5282   4.854   0.625   2.004 -0.0043  0.3872 -0.0518
 1759TIP3    H1 5283   4.901   0.545   1.984  0.4090  0.3389  1.0422
 1759TIP3    H2 5284   4.767   0.612   1.966  0.2934 -0.2594 -0.5301
 1760TIP3   OH2 5285   5.852   1.255   3.355  0.1678  0.4950  0.4475
 1760TIP3    H1 5286   5.822   1.242   3.265 -2.3621  1.3199  1.0859
 1760TIP3    H2 5287   5.823   1.177   3.402  1.8363 -0.1236  0.5327
 1761TIP3   OH2 5288   3.814   1.049   2.667 -0.4483  0.0048  0.1050
 1761TIP3    H1 5289   3.884   1.063   2.731 -0.6647  0.2574  0.2904
 1761TIP3    H2 5290   3.782   1.137   2.647 -0.3111 -0.0650 -0.4388
 1762TIP3   OH2 5291   4.430   5.634   3.552  0.0944 -0.1655  0.0061
 1762TIP3    H1 5292   4.472   5.664   3.633 -0.3754  0.0686  0.1660
 1762TIP3    H2 5293   4.365   5.701   3.533  3.6416  2.7798 -3.5125
 1763TIP3   OH2 5294   2.900   2.447   2.780 -0.1306 -0.4400 -0.1492
 1763TIP3    H1 5295   2.864   2.453   2.691 -2.0499 -0.0635  0.6195
 1763TIP3    H2 5296   2.979   2.393   2.770 -1.6359 -2.5123 -1.7235
 1764TIP3   OH2 5297   1.963   4.213   4.371  0.0643 -0.2360 -0.3224
 1764TIP3    H1 5298   2.034   4.198   4.309  0.2022 -0.8359 -0.0247
 1764TIP3    H2 5299   1.899   4.265   4.322  0.8911  0.6660 -0.4522
 1765TIP3   OH2 5300   0.334   5.850   1.265 -0.3755  0.1298  0.2565
 1765TIP3    H1 5301   0.396   5.836   1.193 -0.4057 -2.7966  0.6926
 1765TIP3    H2 5302   0.249   5.825   1.230 -0.6726  0.3110  0.8298
 1766TIP3   OH2 5303   5.021   4.663   2.114 -0.3365 -0.2111  0.0668
 1766TIP3    H1 5304   5.097   4.626   2.070 -1.3007 -2.2037 -0.0521
 1766TIP3    H2 5305   4.979   4.718   2.048  0.0805 -0.4695 -0.4150
 1767TIP3   OH2 5306   4.223   0.796   4.803  0.0233  0.2618  0.1124
 1767TIP3    H1 5307   4.231   0.758   4.891  0.1552  2.8653  1.3426
 1767TIP3    H2 5308   4.202   0.888   4.820 -0.0308  0.8113 -2.6221
 1768TIP3   OH2 5309   2.479   5.316   4.929 -0.6354  0.3580 -0.2243
 1768TIP3    H1 5310   2.555   5.260   4.915 -1.4666 -0.9050  0.0822
 1768TIP3    H2 5311   2.471   5.322   5.024 -0.5908  0.9549 -0.2570
 1769TIP3   OH2 5312   0.339   4.724   2.955  0.4673  0.1342  0.2679
 1769TIP3    H1 5313   0.285   4.646   2.949 -0.3520  0.6531  0.7339
 1769TIP3    H2 5314   0.362   4.745   2.864 -0.4644  0.1576  0.0358
 1770TIP3   OH2 5315   3.548   2.041   0.617  0.1217  0.3571 -0.1182
 1770TIP3    H1 5316   3.596   2.032   0.535  1.0883 -2.9896  0.6733
 1770TIP3    H2 5317   3.615   2.035   0.685 -0.9886 -0.1686  0.9595
 1771TIP3   OH2 5318   5.801   2.256   2.145 -0.1512 -0.1061  0.6097
 1771TIP3    H1 5319   5.866   2.290   2.083  0.2051 -3.3589 -1.0391
 1771TIP3    H2 5320   5.830   2.288   2.230  2.1666  0.6156 -0.3679
 1772TIP3   OH2 5321   4.694   5.705   2.939  0.1708  0.0515  0.0503
 1772TIP3    H1 5322   4.762   5.749   2.990  0.7737 -1.1770  0.3618
 1772TIP3    H2 5323   4.742   5.656   2.872 -0.5465  0.7078 -0.9671
 1773TIP3   OH2 5324   1.910   2.927   1.378 -0.2579 -0.0237 -0.2313
 1773TIP3    H1 5325   1.963   2.968   1.310 -1.2556  1.2518 -0.2848
 1773TIP3    H2 5326   1.961   2.938   1.458 -0.3830  1.0935 -0.2954
 1774TIP3   OH2 5327   6.005   4.302   2.220 -0.5824 -0.0589  0.8386
 1774TIP3    H1 5328   5.956   4.219   2.226  0.1412 -0.4967  0.7737
 1774TIP3    H2 5329   6.095   4.278   2.240 -0.4105  0.7682  1.0848
 1775TIP3   OH2 5330   4.862   0.859   0.331  0.4441  0.5403  0.2893
 1775TIP3    H1 5331   4.811   0.872   0.411  1.0216 -0.6108  0.8827
 1775TIP3    H2 5332   4.833   0.774   0.297  1.1210  0.4213 -0.0082
 1776TIP3   OH2 5333   0.407   3.168   0.091  0.0245  0.5572  0.3097
 1776TIP3    H1 5334   0.338   3.227   0.059 -0.2249 -0.0600 -0.3211
 1776TIP3    H2 5335   0.425   3.110   0.017 -0.3655 -0.7468  1.1954
 1777TIP3   OH2 5336   6.306   2.921   2.376 -0.1849 -0.1719 -0.4540
 1777TIP3    H1 5337   6.265   3.007   2.386 -1.0431 -0.6613  0.5168
 1777TIP3    H2 5338   6.247   2.873   2.318  0.6663  0.1084 -1.5742
 1778TIP3   OH2 5339   5.804   3.911   1.564 -0.0068  0.3496 -0.2569
 1778TIP3    H1 5340   5.879   3.861   1.532 -1.2484 -1.0778 -1.0467
 1778TIP3    H2 5341   5.769   3.859   1.636  0.7319  1.8657  1.2722
 1779TIP3   OH2 5342   0.883   3.500   0.718 -0.4866 -0.6960  0.3615
 1779TIP3    H1 5343   0.877   3.413   0.680 -0.3996 -0.6430  0.2238
 1779TIP3    H2 5344   0.793   3.530   0.726 -0.4703 -0.3623 -0.6160
 1780TIP3   OH2 5345   2.377   1.089   0.924 -0.4195  0.1222 -0.0748
 1780TIP3    H1 5346   2.362   1.149   0.997  0.0224  0.3125 -0.1394
 1780TIP3    H2 5347   2.342   1.136   0.848 -5.8963 -2.0771  0.5734
 1781TIP3   OH2 5348   0.476   1.593   2.237 -0.1068 -0.0339 -0.2764
 1781TIP3    H1 5349   0.545   1.634   2.184 -1.1256  0.5043 -1.2188
 1781TIP3    H2 5350   0.515   1.584   2.324  0.6832  1.5341 -0.4403
 1782TIP3   OH2 5351   5.546   1.870   3.202 -0.4843  0.0772  0.3739
 1782TIP3    H1 5352   5.470   1.913   3.240 -0.6310  0.6663 -0.5566
 1782TIP3    H2 5353   5.556   1.789   3.253 -0.6623  0.8282  1.6576
 1783TIP3   OH2 5354   3.335   3.704   4.077  0.0755 -0.8190  0.1747
 1783TIP3    H1 5355   3.413   3.760   4.071 -0.6244  0.1212 -0.3379
 1783TIP3    H2 5356   3.336   3.653   3.996 -0.4937  0.0718 -0.4015
 1784TIP3   OH2 5357   3.865   4.085   3.486 -0.3548  0.0101  0.2544
 1784TIP3    H1 5358   3.863   4.090   3.390  3.1401 -0.3803  0.0458
 1784TIP3    H2 5359   3.805   4.154   3.514 -3.2026 -1.2619 -2.0974
 1785TIP3   OH2 5360   1.536   3.909   3.632  0.9541 -0.4170  0.2402
 1785TIP3    H1 5361   1.537   3.878   3.723  0.7233 -0.0037  0.3869
 1785TIP3    H2 5362   1.559   4.001   3.638 -0.4388 -0.0288  0.0297
 1786TIP3   OH2 5363   3.860   4.728   3.841 -0.1727  0.7674  0.0562
 1786TIP3    H1 5364   3.801   4.756   3.911  0.9033 -1.1664  1.8645
 1786TIP3    H2 5365   3.809   4.664   3.792 -0.9799  2.2305 -1.0794
 1787TIP3   OH2 5366   5.206   2.402   4.668  0.1782 -0.3179  0.3063
 1787TIP3    H1 5367   5.187   2.448   4.586  0.1132 -0.5141  0.2125
 1787TIP3    H2 5368   5.181   2.311   4.651  1.1164 -0.5614  0.2118
 1788TIP3   OH2 5369   3.467   2.932   4.800 -0.5536 -0.1364 -0.1186
 1788TIP3    H1 5370   3.532   2.940   4.869  0.2089  0.5194 -0.8836
 1788TIP3    H2 5371   3.518   2.920   4.720 -1.4311 -2.3041 -0.4196
 1789TIP3   OH2 5372   4.181   3.925   3.281 -0.5290 -0.3217 -0.2349
 1789TIP3    H1 5373   4.146   3.995   3.227  0.1568 -0.6312 -1.1054
 1789TIP3    H2 5374   4.142   3.845   3.246  1.5416 -0.7553 -1.7171
 1790TIP3   OH2 5375   6.331   4.264   2.672 -0.0400 -0.0069 -0.3301
 1790TIP3    H1 5376   6.318   4.217   2.754 -0.4094  0.6907  0.0170
 1790TIP3    H2 5377   6.289   4.349   2.686 -0.4009 -0.0035 -1.3528
 1791TIP3   OH2 5378   2.130   5.162   3.492 -0.1162 -0.0709 -0.2273
 1791TIP3    H1 5379   2.042   5.193   3.517 -0.1867 -0.8255  0.4693
 1791TIP3    H2 5380   2.140   5.078   3.537  2.2940  1.5047  2.5092
 1792TIP3   OH2 5381   6.336   3.338   1.136 -0.0039  0.1248  0.2875
 1792TIP3    H1 5382   6.301   3.360   1.223  3.0794  0.2470  1.6354
 1792TIP3    H2 5383   6.303   3.407   1.079  0.4641  1.9530  2.0902
 1793TIP3   OH2 5384   3.102   2.181   1.854 -0.2528  0.0128 -0.0864
 1793TIP3    H1 5385   3.095   2.274   1.874 -1.1028 -0.3211  1.2474
 1793TIP3    H2 5386   3.144   2.143   1.931  0.8289 -0.6216 -0.9451
 1794TIP3   OH2 5387   0.187   2.921   2.917 -0.0621 -0.3210 -0.1523
 1794TIP3    H1 5388   0.100   2.934   2.878 -0.6070 -0.9968  0.7859
 1794TIP3    H2 5389   0.174   2.849   2.980  0.9076  0.3373  0.8324
 1795TIP3   OH2 5390   3.345   5.612   1.597  0.2494 -0.0923 -0.3874
 1795TIP3    H1 5391   3.393   5.601   1.680  0.5416 -2.6648 -0.8170
 1795TIP3    H2 5392   3.280   5.680   1.616  0.5671 -0.3226  1.8380
 1796TIP3   OH2 5393   1.157   1.037   0.983 -0.4321  0.1664 -0.4921
 1796TIP3    H1 5394   1.146   1.022   0.889 -0.9263  0.9106 -0.5622
 1796TIP3    H2 5395   1.073   1.071   1.012 -0.9198 -1.8259  0.6074
 1797TIP3   OH2 5396   0.862   2.433   0.643 -0.3645 -0.0436  0.1064
 1797TIP3    H1 5397   0.785   2.376   0.636 -0.1726 -0.3665  0.5552
 1797TIP3    H2 5398   0.841   2.509   0.589 -1.6219  0.5479  1.3745
 1798TIP3   OH2 5399   5.890   1.579   2.881 -0.4881  0.0522 -0.8364
 1798TIP3    H1 5400   5.955   1.579   2.951  1.5321 -2.7573 -2.5215
 1798TIP3    H2 5401   5.815   1.532   2.918 -0.2016  0.2894  0.0565
 1799TIP3   OH2 5402   3.263   1.860   1.581  0.0802 -0.1193  0.6057
 1799TIP3    H1 5403   3.200   1.928   1.601 -1.3467 -1.7352  1.9079
 1799TIP3    H2 5404   3.221   1.808   1.513 -0.7524 -2.0556  2.4762
 1800TIP3   OH2 5405   5.366   4.635   1.413 -0.1891  0.6837 -0.2146
 1800TIP3    H1 5406   5.412   4.712   1.379  0.1122  0.9941  0.8723
 1800TIP3    H2 5407   5.392   4.564   1.354 -1.3070  1.5884 -1.8919
 1801TIP3   OH2 5408   5.247   3.674   1.471  0.2030  0.2584  0.5687
 1801TIP3    H1 5409   5.191   3.715   1.537  1.0954  0.8120  0.9994
 1801TIP3    H2 5410   5.336   3.703   1.493  0.5757  0.0367 -0.5760
 1802TIP3   OH2 5411   0.561   2.329   1.424  0.1761 -0.4580 -0.8191
 1802TIP3    H1 5412   0.556   2.282   1.341 -0.2170 -1.4120 -0.2748
 1802TIP3    H2 5413   0.470   2.338   1.453  0.0983  1.9767 -1.6051
 1803TIP3   OH2 5414   0.203   5.623   4.907 -0.5709 -0.8429  0.2486
 1803TIP3    H1 5415   0.177   5.536   4.879 -0.7107 -0.7601  0.1158
 1803TIP3    H2 5416   0.130   5.679   4.881 -0.8212 -0.8062  1.0117
 1804TIP3   OH2 5417   5.157   0.257   0.229  0.4416 -0.1619  0.0152
 1804TIP3    H1 5418   5.220   0.260   0.301  0.3400 -0.1209  0.1035
 1804TIP3    H2 5419   5.202   0.210   0.159  1.4945  1.9856 -0.8381
 1805TIP3   OH2 5420   2.471   0.634   1.523 -0.6383  0.2361 -0.1408
 1805TIP3    H1 5421   2.506   0.629   1.434 -1.7927  0.4321 -0.6239
 1805TIP3    H2 5422   2.441   0.545   1.542 -2.4948  0.6734 -0.8574
 1806TIP3   OH2 5423   0.398   2.245   2.575 -0.1760 -0.3254  0.6805
 1806TIP3    H1 5424   0.399   2.166   2.521 -0.8541 -0.6168  1.0745
 1806TIP3    H2 5425   0.462   2.303   2.534 -2.4563  0.5244 -2.0511
 1807TIP3   OH2 5426   0.358   1.961   4.029 -0.2379  0.6972  0.7196
 1807TIP3    H1 5427   0.318   1.898   3.969 -0.4161  0.7863  0.7454
 1807TIP3    H2 5428   0.327   2.046   4.000  1.7752  1.0144 -0.7328
 1808TIP3   OH2 5429   2.066   4.025   4.899  0.4890  0.5868 -0.4929
 1808TIP3    H1 5430   2.049   4.109   4.855  2.7572  0.4204 -1.8112
 1808TIP3    H2 5431   2.096   4.050   4.986  0.6200  1.1270 -0.6856
 1809TIP3   OH2 5432   0.566   3.283   4.429  0.1711 -0.3823 -0.8268
 1809TIP3    H1 5433   0.512   3.224   4.483  1.6300 -1.4084 -0.4427
 1809TIP3    H2 5434   0.520   3.288   4.346 -0.8396 -0.7299 -0.3087
 1810TIP3   OH2 5435   5.751   4.295   4.871 -0.3301 -0.1926 -0.3659
 1810TIP3    H1 5436   5.762   4.224   4.935 -1.3945  0.7947  0.9813
 1810TIP3    H2 5437   5.766   4.375   4.922  1.1074  0.5719 -1.9074
 1811TIP3   OH2 5438   2.622   1.995   2.661 -0.0312  0.3012 -0.1244
 1811TIP3    H1 5439   2.669   2.050   2.725  0.6861 -0.1498 -0.2461
 1811TIP3    H2 5440   2.530   2.019   2.672  0.1127  0.4532  0.8632
 1812TIP3   OH2 5441   0.134   0.721   1.246  0.0142 -0.2782  0.0089
 1812TIP3    H1 5442   0.094   0.636   1.230 -0.9723 -0.3390  2.3388
 1812TIP3    H2 5443   0.147   0.724   1.341 -0.5044  2.3513  0.0799
 1813TIP3   OH2 5444   4.187   1.732   4.551  0.2106 -0.0418 -0.4479
 1813TIP3    H1 5445   4.177   1.715   4.645  2.4500  0.3407 -0.0991
 1813TIP3    H2 5446   4.102   1.766   4.524 -0.4807 -0.1621  1.4354
 1814TIP3   OH2 5447   3.257   1.780   0.351 -0.4191 -0.2001 -0.2631
 1814TIP3    H1 5448   3.187   1.740   0.401 -0.2685  0.3945  0.4327
 1814TIP3    H2 5449   3.338   1.748   0.392 -0.2949  0.3151 -0.1051
 1815TIP3   OH2 5450   4.106   0.912   3.920 -0.4775 -0.1311  0.3366
 1815TIP3    H1 5451   4.110   0.816   3.917 -1.1441 -0.2241  1.7636
 1815TIP3    H2 5452   4.035   0.934   3.859 -0.7428 -0.5889  0.4704
 1816TIP3   OH2 5453   3.100   1.195   3.191 -0.3983 -0.3514  1.2524
 1816TIP3    H1 5454   3.034   1.148   3.140 -1.6404 -0.8550  3.2135
 1816TIP3    H2 5455   3.079   1.287   3.177  0.6289 -0.3706 -0.7892
 1817TIP3   OH2 5456   1.508   1.122   4.904  0.5564  0.0719  0.6038
 1817TIP3    H1 5457   1.509   1.216   4.918  2.2051  0.0575  0.7299
 1817TIP3    H2 5458   1.540   1.110   4.815  0.8412 -0.3870  0.7608
 1818TIP3   OH2 5459   5.377   0.326   3.663  0.1964 -0.0912  0.2313
 1818TIP3    H1 5460   5.332   0.377   3.595  1.1634  0.1051 -0.2823
 1818TIP3    H2 5461   5.467   0.320   3.632  0.4427 -0.7939  1.0599
 1819TIP3   OH2 5462   0.300   5.838   0.120 -0.2134  0.6856 -0.1127
 1819TIP3    H1 5463   0.355   5.916   0.114  0.4326  0.1835 -0.9827
 1819TIP3    H2 5464   0.225   5.858   0.063 -0.2396  0.8217 -0.0316
 1820TIP3   OH2 5465   3.176   1.315   0.933  0.5813  0.0122  0.8898
 1820TIP3    H1 5466   3.084   1.288   0.931  0.4534  0.4623  0.2982
 1820TIP3    H2 5467   3.226   1.234   0.920  0.2363 -0.0773  0.1008
 1821TIP3   OH2 5468   4.195   2.342   3.288 -0.1500  0.5615  0.2113
 1821TIP3    H1 5469   4.222   2.379   3.204 -0.0384 -0.3908 -0.1842
 1821TIP3    H2 5470   4.273   2.345   3.342  0.5732 -1.3632 -0.6388
 1822TIP3   OH2 5471   5.471   3.255   3.418 -0.4734  0.3686  0.0634
 1822TIP3    H1 5472   5.398   3.270   3.479  0.2606  1.1147  0.7839
 1822TIP3    H2 5473   5.526   3.189   3.462 -0.1849  0.5624 -0.0067
 1823TIP3   OH2 5474   4.317   0.723   3.693  0.4341  0.2763  0.1252
 1823TIP3    H1 5475   4.376   0.695   3.623  0.7422 -0.4022  0.6471
 1823TIP3    H2 5476   4.294   0.813   3.670 -0.7209 -0.4168 -1.6950
 1824TIP3   OH2 5477   5.475   1.395   3.879  0.4434 -0.5744  0.3690
 1824TIP3    H1 5478   5.410   1.326   3.890 -0.0975 -0.3649 -1.2028
 1824TIP3    H2 5479   5.514   1.406   3.966  0.0259 -2.3249  0.8194
 1825TIP3   OH2 5480   2.804   3.994   4.976 -0.7666 -0.0931 -0.2652
 1825TIP3    H1 5481   2.832   4.073   4.930  0.4318  0.4550  1.3114
 1825TIP3    H2 5482   2.722   4.019   5.019  0.8857  1.2449  2.3745
 1826TIP3   OH2 5483   4.813   4.494   4.782 -0.8305 -0.7422 -0.0605
 1826TIP3    H1 5484   4.881   4.556   4.756 -0.0145 -2.1311 -1.3831
 1826TIP3    H2 5485   4.735   4.548   4.797  0.4722  0.8595  1.2703
 1827TIP3   OH2 5486   3.908   4.416   4.438 -0.5117 -0.9254 -0.2351
 1827TIP3    H1 5487   3.981   4.379   4.487  0.3607 -0.3252 -1.0645
 1827TIP3    H2 5488   3.947   4.454   4.360 -1.6100  0.1340 -0.2994
 1828TIP3   OH2 5489   4.999   0.604   3.666 -0.3884  0.3335 -0.3683
 1828TIP3    H1 5490   5.042   0.608   3.752  1.2006  0.6034 -1.1322
 1828TIP3    H2 5491   5.049   0.538   3.618 -0.4520  1.0837 -1.5011
 1829TIP3   OH2 5492   4.710   2.117   2.938 -0.0097 -0.5347 -0.0751
 1829TIP3    H1 5493   4.646   2.116   2.867  0.1247  0.5375 -0.2327
 1829TIP3    H2 5494   4.795   2.116   2.894  0.1095  2.2785 -0.0717
 1830TIP3   OH2 5495   0.399   3.989   0.588 -0.2443 -0.2328  0.0976
 1830TIP3    H1 5496   0.426   4.079   0.603  1.3474 -0.6973  0.2050
 1830TIP3    H2 5497   0.304   3.989   0.605 -0.1390  1.2372  0.8433
 1831TIP3   OH2 5498   2.782   0.395   2.734  0.2419 -0.1507 -0.4803
 1831TIP3    H1 5499   2.853   0.445   2.774  0.2019 -1.0124  0.7032
 1831TIP3    H2 5500   2.735   0.459   2.680  0.2129  1.1041  0.9530
 1832TIP3   OH2 5501   3.661   1.333   1.836  0.5763 -0.3434  0.1257
 1832TIP3    H1 5502   3.698   1.245   1.829 -0.7723 -0.8321 -1.4496
 1832TIP3    H2 5503   3.568   1.319   1.849  0.3735  0.8641  0.0871
 1833TIP3   OH2 5504   1.688   3.584   0.495  0.0676 -0.0024 -0.3664
 1833TIP3    H1 5505   1.635   3.533   0.557 -0.0814 -0.5509 -0.9312
 1833TIP3    H2 5506   1.777   3.553   0.509  0.3069  1.1527  0.8121
 1834TIP3   OH2 5507   4.398   3.507   1.480  0.4303 -0.2400 -0.3108
 1834TIP3    H1 5508   4.471   3.450   1.505 -0.7765 -1.5341  0.4215
 1834TIP3    H2 5509   4.322   3.467   1.522 -0.2909  2.6816  1.4398
 1835TIP3   OH2 5510   3.595   2.138   2.590  0.1261  0.3041  0.4333
 1835TIP3    H1 5511   3.648   2.193   2.532  0.4556 -0.8730 -0.4221
 1835TIP3    H2 5512   3.643   2.055   2.594  0.2797  0.4563  2.6639
 1836TIP3   OH2 5513   0.785   0.055   2.797  0.2415  0.5753  0.0744
 1836TIP3    H1 5514   0.804   0.144   2.828  0.5090  0.3729  0.4976
 1836TIP3    H2 5515   0.708   0.029   2.847 -1.4271  1.5097 -1.8471
 1837TIP3   OH2 5516   5.118   0.109   1.832  0.6435 -0.4275 -0.1457
 1837TIP3    H1 5517   5.125   0.077   1.743 -0.1851  2.5164 -1.3847
 1837TIP3    H2 5518   5.025   0.100   1.854  0.7886 -0.8435  0.3251
 1838TIP3   OH2 5519   2.417   3.331   0.510  0.1902 -0.6190 -0.0641
 1838TIP3    H1 5520   2.470   3.258   0.478  0.6066 -0.4518  0.2371
 1838TIP3    H2 5521   2.415   3.394   0.437  0.1794 -0.7412 -0.1698
 1839TIP3   OH2 5522   0.373   4.638   3.257 -0.4113  0.0777  0.5197
 1839TIP3    H1 5523   0.328   4.617   3.339 -0.6423  0.5790  0.5297
 1839TIP3    H2 5524   0.312   4.696   3.211 -1.1885 -1.8211 -0.9622
 1840TIP3   OH2 5525   5.363   0.327   4.967 -0.2305  0.2894 -0.4831
 1840TIP3    H1 5526   5.442   0.288   4.929 -0.1105 -0.2333  0.2700
 1840TIP3    H2 5527   5.390   0.357   5.053 -0.3804  1.8836 -0.9571
 1841TIP3   OH2 5528   0.785   1.932   1.765 -0.3101 -0.3233  0.0765
 1841TIP3    H1 5529   0.828   1.888   1.838  3.1943 -0.3178 -1.8006
 1841TIP3    H2 5530   0.853   1.987   1.727 -3.2517  3.3403 -0.4563
 1842TIP3   OH2 5531   3.724   4.541   3.000  0.0881  0.0155  0.0080
 1842TIP3    H1 5532   3.783   4.614   3.017  0.7823 -0.3604 -0.7242
 1842TIP3    H2 5533   3.653   4.552   3.063  0.1047  1.4064 -0.1913
 1843TIP3   OH2 5534   6.139   5.752   2.241  0.0550  0.4454 -0.2917
 1843TIP3    H1 5535   6.087   5.672   2.250  0.0420  0.6776  2.3446
 1843TIP3    H2 5536   6.215   5.726   2.189 -0.4623 -0.9914 -0.3763
 1844TIP3   OH2 5537   0.614   5.238   4.245  0.2783  0.6265 -0.2765
 1844TIP3    H1 5538   0.709   5.233   4.234  0.2051  1.0571 -1.1428
 1844TIP3    H2 5539   0.579   5.181   4.177 -0.0533 -1.4381  1.4985
 1845TIP3   OH2 5540   5.988   3.122   3.501 -0.1478  0.1486 -0.1364
 1845TIP3    H1 5541   5.988   3.027   3.516 -0.1227  0.4694  2.2698
 1845TIP3    H2 5542   6.079   3.142   3.482  0.2279 -0.1060  1.2425
 1846TIP3   OH2 5543   5.821   3.218   3.775  0.5911  0.1505 -0.5310
 1846TIP3    H1 5544   5.917   3.220   3.782  0.5012  2.2797  1.5220
 1846TIP3    H2 5545   5.797   3.132   3.810  1.7030  0.3131  0.7381
 1847TIP3   OH2 5546   3.750   4.779   3.173  0.1818 -0.1329  0.2597
 1847TIP3    H1 5547   3.764   4.773   3.267  0.4326 -1.1734  0.1677
 1847TIP3    H2 5548   3.654   4.777   3.163  0.1653 -0.5101  0.4666
 1848TIP3   OH2 5549   2.836   1.643   0.602 -0.2721  0.4032 -0.5004
 1848TIP3    H1 5550   2.779   1.574   0.633 -0.3783  0.6719 -0.0835
 1848TIP3    H2 5551   2.833   1.710   0.671 -0.3174  0.9024 -0.9759
 1849TIP3   OH2 5552   4.143   2.286   0.485 -0.2594  0.2137 -0.5122
 1849TIP3    H1 5553   4.228   2.242   0.474 -0.7159 -1.1999  1.1716
 1849TIP3    H2 5554   4.108   2.250   0.566 -1.6084  2.2530 -0.1183
 1850TIP3   OH2 5555   4.807   0.188   3.184  0.8614 -0.4346  0.3802
 1850TIP3    H1 5556   4.766   0.137   3.114 -0.9674  0.7983  0.4769
 1850TIP3    H2 5557   4.870   0.244   3.138 -0.3200  0.3664 -0.3459
 1851TIP3   OH2 5558   1.482   5.805   5.136 -0.1433  0.2555 -0.3712
 1851TIP3    H1 5559   1.468   5.808   5.231  1.6770  0.4020 -0.0855
 1851TIP3    H2 5560   1.517   5.892   5.115 -2.0753  0.8261 -1.4760
 1852TIP3   OH2 5561   6.139   4.822   1.649 -0.1232  0.0120  0.8071
 1852TIP3    H1 5562   6.095   4.800   1.567  0.5900  1.2201  0.0692
 1852TIP3    H2 5563   6.076   4.798   1.717  0.5395 -4.1703  0.1688
 1853TIP3   OH2 5564   0.135   4.692   0.365  0.0390  0.0882  0.0877
 1853TIP3    H1 5565   0.121   4.712   0.457  0.6312 -0.5906  0.3380
 1853TIP3    H2 5566   0.051   4.658   0.335 -0.3501  0.9305  0.1980
 1854TIP3   OH2 5567   3.669   3.049   2.591  0.3973  0.5157 -0.6222
 1854TIP3    H1 5568   3.741   3.017   2.537 -0.3386  0.6143 -1.6955
 1854TIP3    H2 5569   3.622   3.110   2.535 -0.1764  0.9167  0.2672
 1855TIP3   OH2 5570   4.530   0.559   2.881  0.0934  0.0114  0.0339
 1855TIP3    H1 5571   4.530   0.494   2.950  1.6351 -0.3260 -0.2465
 1855TIP3    H2 5572   4.546   0.509   2.801  1.5155  0.7175 -0.1599
 1856TIP3   OH2 5573   1.205   1.936   5.163  0.5236 -0.4270 -0.1415
 1856TIP3    H1 5574   1.191   2.027   5.138 -2.7011 -1.3162 -2.2096
 1856TIP3    H2 5575   1.255   1.899   5.090  0.5772 -0.6230 -0.0055
 1857TIP3   OH2 5576   3.794   4.487   0.887  0.5775  0.0096 -0.4528
 1857TIP3    H1 5577   3.841   4.432   0.949  1.1465  2.0876  1.0752
 1857TIP3    H2 5578   3.862   4.542   0.847 -0.1183  0.6165 -0.8361
 1858TIP3   OH2 5579   4.547   4.781   5.017  0.2662 -0.3888  0.0298
 1858TIP3    H1 5580   4.519   4.778   4.925 -0.1993 -0.1827  0.1636
 1858TIP3    H2 5581   4.623   4.839   5.017 -1.4526  2.0175  0.2022
 1859TIP3   OH2 5582   0.108   4.534   0.858 -0.3473 -0.3290 -0.5045
 1859TIP3    H1 5583   0.152   4.503   0.937  1.1662 -0.4041 -1.3403
 1859TIP3    H2 5584   0.104   4.458   0.801 -1.5470 -0.3060 -0.4709
 1860TIP3   OH2 5585   3.862   4.830   2.138 -0.1688  0.8369 -0.6384
 1860TIP3    H1 5586   3.772   4.805   2.117 -0.4298  0.1556  1.1618
 1860TIP3    H2 5587   3.864   4.925   2.127 -1.4241  0.9984  0.3424
 1861TIP3   OH2 5588   0.117   1.799   2.990 -0.1404  0.0148 -0.5789
 1861TIP3    H1 5589   0.103   1.704   2.984 -1.5899  0.2039 -0.3941
 1861TIP3    H2 5590   0.092   1.833   2.905 -0.2828  0.3129 -0.4190
 1862TIP3   OH2 5591   1.379   5.772   4.564 -0.5503 -0.3975  0.0726
 1862TIP3    H1 5592   1.451   5.785   4.626  0.8289 -0.8948 -1.3576
 1862TIP3    H2 5593   1.419   5.726   4.490 -2.3076 -0.4978 -0.8699
 1863TIP3   OH2 5594   5.293   1.666   2.946 -0.1791  0.3640 -0.1598
 1863TIP3    H1 5595   5.379   1.707   2.940  0.1322 -0.1824  0.3741
 1863TIP3    H2 5596   5.306   1.577   2.912 -0.5271  0.2824 -0.0884
 1864TIP3   OH2 5597   3.305   5.638   2.673  0.2152  0.3251 -0.4833
 1864TIP3    H1 5598   3.378   5.630   2.612  0.1656  0.8216 -0.6109
 1864TIP3    H2 5599   3.239   5.688   2.625 -0.4777 -0.6730 -0.6075
 1865TIP3   OH2 5600   0.750   0.614   2.642 -0.8669  0.2882  0.0596
 1865TIP3    H1 5601   0.778   0.694   2.598 -1.0693 -0.6982 -1.9889
 1865TIP3    H2 5602   0.800   0.612   2.724  0.4130  1.6342 -0.6462
 1866TIP3   OH2 5603   1.604   0.126   0.855  0.0433  0.2294  0.3490
 1866TIP3    H1 5604   1.551   0.192   0.811 -0.3222 -0.0606  0.3453
 1866TIP3    H2 5605   1.589   0.141   0.948 -1.5954 -1.0658  0.3377
 1867TIP3   OH2 5606   0.671   3.911   1.036  0.0448  0.1182 -0.1175
 1867TIP3    H1 5607   0.580   3.913   1.065  0.4761 -0.4693  1.3409
 1867TIP3    H2 5608   0.708   3.834   1.079  0.3309 -1.8691 -3.5793
 1868TIP3   OH2 5609   5.369   5.559   3.650 -0.4068  0.0165  0.3791
 1868TIP3    H1 5610   5.446   5.540   3.704 -1.3195  0.7377  1.9714
 1868TIP3    H2 5611   5.318   5.478   3.652 -0.9829  0.3898  1.5568
 1869TIP3   OH2 5612   6.244   3.762   0.166 -0.3340 -0.3029  0.4335
 1869TIP3    H1 5613   6.171   3.805   0.122 -0.2103 -0.5746 -0.0397
 1869TIP3    H2 5614   6.305   3.833   0.187  0.2666 -0.3345 -1.1065
 1870TIP3   OH2 5615   2.802   4.540   2.801 -0.6006  0.1055  0.0972
 1870TIP3    H1 5616   2.756   4.556   2.718  0.5212 -2.0956 -1.0214
 1870TIP3    H2 5617   2.888   4.582   2.789 -0.3700 -0.3723  0.0726
 1871TIP3   OH2 5618   0.876   4.259   4.257  0.1028  0.0921  0.0661
 1871TIP3    H1 5619   0.837   4.197   4.195  1.0601  0.2319 -0.6951
 1871TIP3    H2 5620   0.897   4.207   4.334 -0.6527 -0.1815  0.0956
 1872TIP3   OH2 5621   1.880   1.118   4.937 -0.3801 -0.2610 -0.2297
 1872TIP3    H1 5622   1.930   1.038   4.920  0.0529  0.1351 -0.8393
 1872TIP3    H2 5623   1.905   1.178   4.867 -0.0357  0.7147  0.6883
 1873TIP3   OH2 5624   3.678   1.826   4.579 -0.0423  0.8125 -0.1564
 1873TIP3    H1 5625   3.647   1.915   4.593  1.2418  1.0253  1.6708
 1873TIP3    H2 5626   3.606   1.771   4.610  0.3736  1.2802  1.7936
 1874TIP3   OH2 5627   3.284   3.346   3.249 -0.1786 -0.2010 -0.2501
 1874TIP3    H1 5628   3.292   3.254   3.274 -2.9238 -0.4184  0.1522
 1874TIP3    H2 5629   3.202   3.350   3.200  0.3344  1.9012 -1.0495
 1875TIP3   OH2 5630   2.397   0.903   0.341 -0.8536  0.0397 -0.0585
 1875TIP3    H1 5631   2.400   0.957   0.420  0.2363 -0.5545  0.3294
 1875TIP3    H2 5632   2.436   0.820   0.368 -0.5912 -0.2196 -1.1921
 1876TIP3   OH2 5633   0.256   4.363   4.930 -0.2943  0.3380 -0.4169
 1876TIP3    H1 5634   0.231   4.443   4.978  0.5316 -0.4295  1.4068
 1876TIP3    H2 5635   0.310   4.395   4.858 -0.5291  1.4779 -0.1166
 1877TIP3   OH2 5636   2.082   4.367   0.275  0.2790 -0.6125  0.5596
 1877TIP3    H1 5637   2.011   4.428   0.254 -0.9011 -2.4568 -1.1823
 1877TIP3    H2 5638   2.123   4.348   0.191  1.0003 -1.7390  1.1411
 1878TIP3   OH2 5639   6.139   4.001   1.954  0.3958 -0.1075  0.2983
 1878TIP3    H1 5640   6.162   4.002   2.047  0.1399  2.2535  0.4056
 1878TIP3    H2 5641   6.153   4.091   1.925  1.0513 -0.9159 -2.1290
 1879TIP3   OH2 5642   0.385   0.416   1.234  0.1936  0.3208  0.3749
 1879TIP3    H1 5643   0.292   0.432   1.248 -0.1968 -0.9075 -0.5986
 1879TIP3    H2 5644   0.427   0.440   1.317 -0.9012  1.4738  0.6157
 1880TIP3   OH2 5645   3.209   0.700   3.802 -0.6286  0.7891  0.0880
 1880TIP3    H1 5646   3.209   0.687   3.897 -1.6353 -0.7633 -0.0821
 1880TIP3    H2 5647   3.202   0.795   3.790  3.1429  1.3871  1.5237
 1881TIP3   OH2 5648   5.919   3.708   2.357 -0.0648 -0.0734 -0.1498
 1881TIP3    H1 5649   5.847   3.656   2.324 -3.0688  2.9174  1.0776
 1881TIP3    H2 5650   5.949   3.759   2.281 -0.3249 -0.2145 -0.3475
 1882TIP3   OH2 5651   3.928   1.714   1.808 -0.3039  0.4827  0.3819
 1882TIP3    H1 5652   3.969   1.651   1.750  0.5939  0.7100  0.7434
 1882TIP3    H2 5653   3.886   1.777   1.750 -0.4840  0.0219  0.0079
 1883TIP3   OH2 5654   6.142   3.597   3.061  0.5224  0.4212  0.3889
 1883TIP3    H1 5655   6.131   3.518   3.114 -2.4535  0.4655  0.0137
 1883TIP3    H2 5656   6.134   3.566   2.971  0.3626  1.0321  0.1930
 1884TIP3   OH2 5657   4.405   5.754   3.155  0.0987 -0.1701  0.8832
 1884TIP3    H1 5658   4.391   5.829   3.096 -0.6129 -1.6481 -0.9171
 1884TIP3    H2 5659   4.492   5.722   3.132 -0.7046 -1.5626 -0.4030
 1885TIP3   OH2 5660   4.010   3.975   0.973 -0.1232 -0.2484 -0.2093
 1885TIP3    H1 5661   4.054   4.023   0.903 -1.9764  0.1956 -1.1224
 1885TIP3    H2 5662   4.014   4.033   1.049  0.0644  0.1586 -0.5283
 1886TIP3   OH2 5663   6.237   3.044   1.547 -0.0698  0.1670 -0.1644
 1886TIP3    H1 5664   6.157   3.002   1.579  0.0519  1.3745  1.9364
 1886TIP3    H2 5665   6.291   3.055   1.626  1.6609  0.4488 -1.3494
 1887TIP3   OH2 5666   2.329   5.301   1.077 -0.1613 -0.1869 -0.7664
 1887TIP3    H1 5667   2.272   5.250   1.134  1.6437 -1.1875  0.2357
 1887TIP3    H2 5668   2.284   5.302   0.993 -1.8827 -0.4750  0.1082
 1888TIP3   OH2 5669   3.092   5.897   0.831 -0.5731  0.3110  0.4080
 1888TIP3    H1 5670   3.026   5.842   0.872  0.8692 -1.3037  0.6561
 1888TIP3    H2 5671   3.169   5.889   0.888  0.3521  0.8727 -0.7108
 1889TIP3   OH2 5672   0.637   3.434   2.832  0.1734 -0.9065 -0.4201
 1889TIP3    H1 5673   0.728   3.461   2.842 -0.0290 -0.4741  0.2924
 1889TIP3    H2 5674   0.607   3.413   2.921 -0.9092  0.5558 -0.4027
 1890TIP3   OH2 5675   1.846   1.052   4.439 -0.0246 -0.4225  0.7578
 1890TIP3    H1 5676   1.829   0.959   4.455  0.1135 -0.4380  0.8100
 1890TIP3    H2 5677   1.787   1.075   4.367 -1.7492  0.0006  2.2170
 1891TIP3   OH2 5678   3.575   3.904   4.927  0.0999 -0.2465  0.4037
 1891TIP3    H1 5679   3.506   3.959   4.888  0.3847  0.7934  1.3272
 1891TIP3    H2 5680   3.643   3.901   4.860  0.0922  0.5668  0.3452
 1892TIP3   OH2 5681   2.304   0.074   3.893 -0.0692  0.1667  0.1988
 1892TIP3    H1 5682   2.333   0.142   3.833 -0.0486  0.9190  1.0412
 1892TIP3    H2 5683   2.209   0.085   3.899  0.0483  0.8534  1.1671
 1893TIP3   OH2 5684   0.514   5.481   1.463  0.0680 -0.0256  0.1046
 1893TIP3    H1 5685   0.514   5.511   1.372 -0.5772  1.4093  0.5526
 1893TIP3    H2 5686   0.447   5.412   1.465 -0.1839  0.1942 -0.4356
 1894TIP3   OH2 5687   0.620   5.312   0.473  0.0734 -0.1348 -0.1471
 1894TIP3    H1 5688   0.667   5.376   0.418  0.3688 -0.8161 -0.7064
 1894TIP3    H2 5689   0.528   5.324   0.449 -0.1454  1.5597  1.3186
 1895TIP3   OH2 5690   2.243   3.710   5.000  0.3285  0.3766 -0.1472
 1895TIP3    H1 5691   2.212   3.639   5.057  1.2448 -0.0030 -0.1071
 1895TIP3    H2 5692   2.172   3.722   4.937  0.5303 -1.2167 -0.7268
 1896TIP3   OH2 5693   2.178   1.741   3.730 -0.2662 -0.4803 -0.8053
 1896TIP3    H1 5694   2.152   1.826   3.767 -0.7997 -0.2893 -1.5973
 1896TIP3    H2 5695   2.150   1.677   3.796  2.1853  0.0582  0.8802
 1897TIP3   OH2 5696   0.751   1.788   1.384  0.1600 -0.1024  0.4169
 1897TIP3    H1 5697   0.738   1.741   1.466 -0.7404  0.8729  0.8530
 1897TIP3    H2 5698   0.665   1.789   1.342  0.1788  1.0343  0.3691
 1898TIP3   OH2 5699   4.972   0.757   5.137  0.0148 -0.3310 -0.4339
 1898TIP3    H1 5700   4.917   0.772   5.060 -1.2968  1.5423  0.7802
 1898TIP3    H2 5701   4.989   0.845   5.172  1.3175 -1.0716  0.9166
 1899TIP3   OH2 5702   2.979   4.861   4.367 -0.3845 -0.3564 -0.3464
 1899TIP3    H1 5703   2.970   4.846   4.273 -1.1678  0.6954 -0.4524
 1899TIP3    H2 5704   3.057   4.917   4.375 -1.4381  1.1876 -0.5622
 1900TIP3   OH2 5705   2.346   4.405   3.893  0.0618  0.6710  0.1511
 1900TIP3    H1 5706   2.406   4.411   3.968  2.0498  0.5884 -1.3456
 1900TIP3    H2 5707   2.340   4.495   3.861 -0.7496  0.6966  0.3596
 1901TIP3   OH2 5708   0.013   3.749   4.345 -0.0477  0.5755  1.0168
 1901TIP3    H1 5709  -0.014   3.807   4.274 -0.1918  0.0553  0.6343
 1901TIP3    H2 5710   0.104   3.727   4.325  0.2727  1.3139  1.6103
 1902TIP3   OH2 5711   5.134   1.443   2.624 -0.2414  0.5234  0.4935
 1902TIP3    H1 5712   5.135   1.533   2.657 -1.6145  0.8584 -0.3231
 1902TIP3    H2 5713   5.111   1.451   2.531 -0.2954 -0.6638  0.3824
 1903TIP3   OH2 5714   3.521   5.228   0.690  0.2640 -0.3942  0.3494
 1903TIP3    H1 5715   3.608   5.206   0.724  1.3572  1.1816 -1.2472
 1903TIP3    H2 5716   3.496   5.307   0.738  0.6985  0.3676 -0.6179
 1904TIP3   OH2 5717   5.505   4.245   4.750 -0.1238  0.2291  0.0315
 1904TIP3    H1 5718   5.591   4.287   4.756 -0.1691  0.2488  0.5816
 1904TIP3    H2 5719   5.443   4.316   4.770 -0.2020 -0.1052  0.9748
 1905TIP3   OH2 5720   2.419   4.718   0.852  0.4410 -0.4924 -0.3328
 1905TIP3    H1 5721   2.367   4.752   0.779  2.0565 -0.6155 -1.5866
 1905TIP3    H2 5722   2.474   4.792   0.878 -0.8235 -0.1246  1.4928
 1906TIP3   OH2 5723   5.000   4.288   4.130 -0.3037 -0.0348 -0.0773
 1906TIP3    H1 5724   4.910   4.302   4.099 -0.4182  0.8921  0.6464
 1906TIP3    H2 5725   4.999   4.315   4.222  0.4834 -0.9726  0.2283
 1907TIP3   OH2 5726   4.865   0.153   2.802 -0.6067 -0.0374 -0.0257
 1907TIP3    H1 5727   4.870   0.096   2.726 -1.2666  1.0257 -0.8893
 1907TIP3    H2 5728   4.948   0.138   2.848  0.2835  0.0614 -1.5162
 1908TIP3   OH2 5729   0.322   4.522   4.466  0.5487  0.0460 -0.0022
 1908TIP3    H1 5730   0.259   4.522   4.393  0.0132 -0.6308  0.4531
 1908TIP3    H2 5731   0.389   4.584   4.439 -0.6969  1.3758 -0.1660
 1909TIP3   OH2 5732   5.468   1.490   1.788 -0.4662 -0.4506 -0.1993
 1909TIP3    H1 5733   5.375   1.512   1.792 -0.2909  0.9621 -2.2837
 1909TIP3    H2 5734   5.488   1.454   1.874 -2.5343  0.8574  0.9062
 1910TIP3   OH2 5735   4.936   4.074   1.781 -0.6207  0.6804  0.1965
 1910TIP3    H1 5736   4.880   4.000   1.801  2.1913 -1.2351  1.6424
 1910TIP3    H2 5737   4.969   4.103   1.866  0.1844  2.0851 -0.5440
 1911TIP3   OH2 5738   0.521   3.284   2.630 -0.0361 -0.6771 -0.4944
 1911TIP3    H1 5739   0.494   3.355   2.572 -1.9157 -1.0469 -0.1566
 1911TIP3    H2 5740   0.586   3.323   2.688 -0.9890  0.7734 -0.3442
 1912TIP3   OH2 5741   2.030   3.546   3.689  0.1373  0.2609 -0.3872
 1912TIP3    H1 5742   2.085   3.585   3.621 -1.3624 -0.2364 -1.9912
 1912TIP3    H2 5743   2.078   3.558   3.770  0.6575  3.5940 -1.0716
 1913TIP3   OH2 5744   0.057   0.573   3.729  0.2324  0.2479  0.4274
 1913TIP3    H1 5745  -0.004   0.632   3.684 -1.4976 -2.5833 -1.2788
 1913TIP3    H2 5746   0.010   0.546   3.808  1.2217  1.4323  1.4634
 1914TIP3   OH2 5747   0.796   0.473   5.146 -0.2152  0.0087 -0.0970
 1914TIP3    H1 5748   0.726   0.531   5.175 -0.0415  1.1828 -1.8939
 1914TIP3    H2 5749   0.861   0.531   5.107  0.1987 -1.3202 -1.4948
 1915TIP3   OH2 5750   5.530   5.029   1.533  0.9387 -0.5061 -0.2502
 1915TIP3    H1 5751   5.544   5.047   1.626  0.2793 -2.7209  0.3465
 1915TIP3    H2 5752   5.601   4.970   1.509  1.0374 -0.0464 -1.1336
 1916TIP3   OH2 5753   1.852   4.838   2.281 -0.4528 -0.2934  0.1977
 1916TIP3    H1 5754   1.904   4.782   2.339 -0.9288 -0.9538 -0.0124
 1916TIP3    H2 5755   1.917   4.893   2.237 -0.0416 -0.1350  0.9675
 1917TIP3   OH2 5756   3.405   1.863   2.413 -0.1829  0.2514 -0.5651
 1917TIP3    H1 5757   3.311   1.856   2.428  0.1965 -1.0793  1.6261
 1917TIP3    H2 5758   3.430   1.780   2.372  0.3391 -0.4259  1.0315
 1918TIP3   OH2 5759   2.229   2.520   3.193 -0.2421 -0.2820 -0.4674
 1918TIP3    H1 5760   2.250   2.612   3.176 -0.9549 -0.0443 -0.0723
 1918TIP3    H2 5761   2.223   2.481   3.106 -1.3649  0.3724 -0.7027
 1919TIP3   OH2 5762   5.482   2.623   0.707 -0.4254  0.6380  0.0869
 1919TIP3    H1 5763   5.445   2.631   0.619  2.0310  4.8410 -0.8208
 1919TIP3    H2 5764   5.573   2.596   0.694 -0.6825 -1.2358  1.6275
 1920TIP3   OH2 5765   0.244   2.733   0.333  0.5676 -0.2011 -0.8966
 1920TIP3    H1 5766   0.339   2.741   0.344  0.3049  2.6435  0.5222
 1920TIP3    H2 5767   0.221   2.806   0.275 -1.0155  1.3861  1.5447
 1921TIP3   OH2 5768   6.025   1.948   3.928  0.0569  0.6242  0.3636
 1921TIP3    H1 5769   6.005   1.904   4.011 -1.9610  0.9834  0.0997
 1921TIP3    H2 5770   5.986   1.892   3.861  0.3192  1.1431 -0.2362
 1922TIP3   OH2 5771   6.109   1.441   0.287  0.3671  0.3871 -0.0075
 1922TIP3    H1 5772   6.119   1.526   0.243  2.2616 -0.2120 -0.8426
 1922TIP3    H2 5773   6.094   1.379   0.215 -1.6602  0.0585  0.6409
 1923TIP3   OH2 5774   4.664   1.190   4.603  0.1868  0.2445 -0.1016
 1923TIP3    H1 5775   4.611   1.198   4.682 -0.7146 -0.3171 -0.6256
 1923TIP3    H2 5776   4.642   1.268   4.551  0.4009  0.3598 -0.0205
 1924TIP3   OH2 5777   3.234   1.872   3.753 -0.6060 -0.5120  0.5505
 1924TIP3    H1 5778   3.306   1.877   3.690 -0.3206  1.1440  0.9538
 1924TIP3    H2 5779   3.195   1.786   3.739  1.8274 -1.7266  0.7148
 1925TIP3   OH2 5780   0.492   1.794   3.277  0.2205  0.9788  0.3357
 1925TIP3    H1 5781   0.574   1.764   3.315  0.6557  0.2653 -1.1023
 1925TIP3    H2 5782   0.481   1.741   3.198 -1.3345  1.4629  0.1964
 1926TIP3   OH2 5783   5.089   1.635   4.336  0.3221 -0.2219 -0.1939
 1926TIP3    H1 5784   5.147   1.652   4.410 -0.8744  0.6318  0.6026
 1926TIP3    H2 5785   5.066   1.542   4.344  0.8789 -0.3437  0.0006
 1927TIP3   OH2 5786   2.785   1.500   1.478 -0.1172  0.1633  0.4902
 1927TIP3    H1 5787   2.834   1.524   1.556  0.4244 -0.6944  0.4262
 1927TIP3    H2 5788   2.816   1.561   1.410  1.6841 -1.0333  0.1694
 1928TIP3   OH2 5789   4.736   4.586   0.758 -0.3011  0.0452 -0.7180
 1928TIP3    H1 5790   4.814   4.531   0.758  0.7502  1.3377  2.1416
 1928TIP3    H2 5791   4.752   4.652   0.826 -3.2452  1.3275 -1.0763
 1929TIP3   OH2 5792   2.716   5.658   3.320  0.1709  0.1523  0.0068
 1929TIP3    H1 5793   2.725   5.629   3.230 -0.9947 -1.3217  0.3129
 1929TIP3    H2 5794   2.649   5.601   3.357  0.2123  1.0876  1.6548
 1930TIP3   OH2 5795   5.450   5.816   0.985  0.4214 -0.3588  0.6140
 1930TIP3    H1 5796   5.458   5.901   1.027 -0.8682 -0.7519  1.7016
 1930TIP3    H2 5797   5.533   5.772   1.005  1.1804  0.6778 -0.1268
 1931TIP3   OH2 5798   4.812   3.655   0.692 -0.3517 -0.2724  0.2467
 1931TIP3    H1 5799   4.872   3.715   0.649  0.3654 -0.6377  0.7037
 1931TIP3    H2 5800   4.751   3.627   0.624 -1.4207  1.8315  0.2683
 1932TIP3   OH2 5801   3.682   0.490   3.302 -0.0551  0.0070  0.0802
 1932TIP3    H1 5802   3.689   0.584   3.286 -0.1665  0.0510  0.2774
 1932TIP3    H2 5803   3.638   0.484   3.387 -1.2759 -0.2332 -0.5416
 1933TIP3   OH2 5804   6.257   4.743   2.033  0.2047  0.2849 -0.4075
 1933TIP3    H1 5805   6.184   4.751   2.094 -0.4595 -0.5760 -1.0712
 1933TIP3    H2 5806   6.292   4.832   2.026  1.3714  0.1842  2.4903
 1934TIP3   OH2 5807   5.800   4.184   5.139  0.2553 -0.1733  0.3669
 1934TIP3    H1 5808   5.766   4.253   5.196 -1.8272  0.5748 -1.6054
 1934TIP3    H2 5809   5.764   4.103   5.176 -2.3961  0.4427 -0.6071
 1935TIP3   OH2 5810   0.051   5.206   3.706 -0.1104 -0.0226  0.0372
 1935TIP3    H1 5811   0.045   5.286   3.654 -0.0389  0.9704  1.4962
 1935TIP3    H2 5812   0.145   5.194   3.721  0.0114 -1.3039 -1.4951
 1936TIP3   OH2 5813   5.145   2.013   0.196  0.6252 -0.0585 -0.8392
 1936TIP3    H1 5814   5.171   2.045   0.109  0.3350  0.6947 -0.6505
 1936TIP3    H2 5815   5.051   1.994   0.187  0.8461 -1.1287 -1.0248
 1937TIP3   OH2 5816   5.413   4.100   0.759  0.1976  0.0224 -0.3966
 1937TIP3    H1 5817   5.324   4.094   0.724 -0.0023  0.2730  0.0505
 1937TIP3    H2 5818   5.401   4.143   0.844  0.8344  0.7845 -0.6866
 1938TIP3   OH2 5819   3.291   4.488   1.212 -0.1123 -0.6116 -0.3448
 1938TIP3    H1 5820   3.276   4.495   1.117  1.5495  3.1313 -0.4806
 1938TIP3    H2 5821   3.243   4.561   1.249  1.4826 -0.3663  1.3689
 1939TIP3   OH2 5822   2.988   0.849   1.248  0.6295 -0.0451  0.0235
 1939TIP3    H1 5823   3.035   0.850   1.165  0.2704 -0.7726 -0.1886
 1939TIP3    H2 5824   2.920   0.915   1.238 -0.0287 -0.8089 -0.6237
 1940TIP3   OH2 5825   4.328   0.517   1.815  0.5899 -0.7067 -0.1760
 1940TIP3    H1 5826   4.272   0.567   1.874 -0.0108 -1.7467  0.1461
 1940TIP3    H2 5827   4.270   0.454   1.773  1.4409 -1.5549 -0.1168
 1941TIP3   OH2 5828   4.059   4.932   4.549  0.5907 -0.0107  0.0430
 1941TIP3    H1 5829   4.118   4.984   4.495  1.9722 -2.2016 -0.7007
 1941TIP3    H2 5830   3.972   4.948   4.513  0.8188  2.3667  0.3887
 1942TIP3   OH2 5831   3.701   0.588   0.311 -0.1674 -0.2172 -0.0189
 1942TIP3    H1 5832   3.718   0.678   0.283  0.6442  0.3684  2.1561
 1942TIP3    H2 5833   3.734   0.534   0.240  0.1962  1.1741 -0.9528
 1943TIP3   OH2 5834   2.166   3.304   1.359  0.1815 -0.1934 -0.1076
 1943TIP3    H1 5835   2.157   3.285   1.452  0.2309  0.6125  0.0667
 1943TIP3    H2 5836   2.249   3.265   1.334 -0.2977 -1.2885 -0.0507
 1944TIP3   OH2 5837   3.726   4.951   2.879  0.1937  0.2184 -0.2479
 1944TIP3    H1 5838   3.635   4.947   2.851  0.4548 -0.2045 -1.0683
 1944TIP3    H2 5839   3.724   5.005   2.958 -0.8087 -0.0605 -0.0627
 1945TIP3   OH2 5840   1.083   0.068   0.019  0.1397  0.6916 -0.3407
 1945TIP3    H1 5841   1.069   0.157   0.050 -0.4629  1.4685 -2.6542
 1945TIP3    H2 5842   1.134   0.078  -0.062  1.1141 -1.1515 -0.0148
 1946TIP3   OH2 5843   4.991   0.229   4.510  0.3183 -0.1661 -0.1102
 1946TIP3    H1 5844   5.053   0.218   4.582  1.7863  1.1994 -1.0958
 1946TIP3    H2 5845   4.922   0.284   4.547  0.8161  0.1321  0.4156
 1947TIP3   OH2 5846   0.562   5.036   4.620 -0.6832 -0.0477  0.3262
 1947TIP3    H1 5847   0.495   5.086   4.575  0.4385 -0.3455 -1.7914
 1947TIP3    H2 5848   0.627   5.102   4.646 -0.7085 -0.0318  0.3493
 1948TIP3   OH2 5849   1.001   3.013   3.308  0.5400 -0.2326  0.4337
 1948TIP3    H1 5850   1.025   2.992   3.398 -0.0983 -0.4830  0.5530
 1948TIP3    H2 5851   1.008   2.931   3.260  0.5967 -0.1625  0.3208
 1949TIP3   OH2 5852   3.336   2.165   4.193  0.0118  0.0656 -0.1968
 1949TIP3    H1 5853   3.308   2.255   4.176 -0.5442  0.5143  2.6394
 1949TIP3    H2 5854   3.429   2.172   4.214  0.4400 -0.3328 -1.8400
 1950TIP3   OH2 5855   5.865   1.477   4.803  0.9637  0.1479 -0.1024
 1950TIP3    H1 5856   5.843   1.430   4.723 -0.0036 -0.5437  0.5365
 1950TIP3    H2 5857   5.916   1.552   4.774  1.6397 -0.7253 -1.2470
 1951TIP3   OH2 5858   3.331   3.314   2.910  0.1671  0.1644  0.2805
 1951TIP3    H1 5859   3.312   3.233   2.957 -0.1142  0.7177  1.1411
 1951TIP3    H2 5860   3.384   3.365   2.971 -0.0061  0.7975 -0.0921
 1952TIP3   OH2 5861   1.858   4.501   0.062  0.1046  0.8460 -0.0902
 1952TIP3    H1 5862   1.895   4.420   0.028 -0.9030  1.0744 -1.8443
 1952TIP3    H2 5863   1.876   4.566  -0.006 -2.8910  1.0896 -0.7759
 1953TIP3   OH2 5864   0.825  -0.007   1.737 -0.5270  0.2178  0.5323
 1953TIP3    H1 5865   0.782  -0.068   1.798  0.9623  0.3346  1.7485
 1953TIP3    H2 5866   0.823   0.078   1.783  0.2715  0.3888  0.2664
 1954TIP3   OH2 5867   0.612   5.063   1.871  0.0354 -0.0389 -0.3344
 1954TIP3    H1 5868   0.619   4.972   1.844 -1.3147 -0.9094  1.9910
 1954TIP3    H2 5869   0.674   5.072   1.943 -2.2254 -0.1618  1.7530
 1955TIP3   OH2 5870   0.191   2.123   0.340 -0.4463  0.1244 -0.3732
 1955TIP3    H1 5871   0.191   2.170   0.256  0.0741 -0.2216 -0.5750
 1955TIP3    H2 5872   0.109   2.149   0.382 -0.4795  0.6959 -0.7696
 1956TIP3   OH2 5873   4.375   2.606   0.454 -0.8529 -0.2125  0.0882
 1956TIP3    H1 5874   4.286   2.636   0.436 -0.6383 -0.4707 -1.5044
 1956TIP3    H2 5875   4.432   2.664   0.404 -0.2414 -1.1936 -0.3967
 1957TIP3   OH2 5876   1.407   1.846   1.055  0.1587  0.5402  0.3567
 1957TIP3    H1 5877   1.452   1.859   1.139 -1.4234  1.5568  1.0889
 1957TIP3    H2 5878   1.417   1.930   1.010  1.7507 -0.2671 -0.9068
 1958TIP3   OH2 5879   4.544   4.228   4.354 -0.6692 -0.2909  0.1692
 1958TIP3    H1 5880   4.548   4.140   4.390 -0.8508 -0.0256  0.8581
 1958TIP3    H2 5881   4.622   4.235   4.299 -0.2064 -0.5980  0.7672
 1959TIP3   OH2 5882   4.385   1.775   1.678 -0.0231  0.1298 -0.0122
 1959TIP3    H1 5883   4.369   1.736   1.764 -1.2228  0.0663 -0.2420
 1959TIP3    H2 5884   4.307   1.826   1.660  0.6607  0.9904 -0.6196
 1960TIP3   OH2 5885   0.371   3.413   3.084 -0.3753  0.1977 -0.2002
 1960TIP3    H1 5886   0.444   3.461   3.124  0.1845 -0.5638 -0.2993
 1960TIP3    H2 5887   0.316   3.388   3.158  1.5665 -2.7554  0.3775
 1961TIP3   OH2 5888   0.998   3.889   5.011 -0.1789 -0.5844 -0.4815
 1961TIP3    H1 5889   1.013   3.980   5.036  0.2910 -1.1904  1.6320
 1961TIP3    H2 5890   1.066   3.870   4.947  0.5613  0.1721  0.0636
 1962TIP3   OH2 5891   3.507   5.762   5.053 -0.3901 -0.2209  0.2802
 1962TIP3    H1 5892   3.474   5.713   4.977 -0.5452  0.0569  0.1699
 1962TIP3    H2 5893   3.545   5.841   5.016  1.7297 -1.1706  0.2314
 1963TIP3   OH2 5894   5.904   3.241   0.488  0.2580 -0.0599  0.1678
 1963TIP3    H1 5895   5.908   3.153   0.527  1.4715  0.9029  2.3926
 1963TIP3    H2 5896   5.980   3.243   0.428  2.2044  0.4383  2.4933
 1964TIP3   OH2 5897   5.322   0.294   2.470  0.4480 -0.2376  0.9050
 1964TIP3    H1 5898   5.358   0.356   2.534  1.8774  0.0259 -0.1272
 1964TIP3    H2 5899   5.398   0.261   2.423 -0.5477 -0.7400 -0.3941
 1965TIP3   OH2 5900   4.031   2.319   2.991  0.1667  0.5568  0.3498
 1965TIP3    H1 5901   4.028   2.414   3.001 -1.4939  0.4897  1.0018
 1965TIP3    H2 5902   4.004   2.303   2.900 -0.4970  0.7071  0.5093
 1966TIP3   OH2 5903   1.547   1.975   2.431  0.0973  0.0448 -0.0511
 1966TIP3    H1 5904   1.467   2.025   2.414  0.9511  1.3279 -0.4267
 1966TIP3    H2 5905   1.519   1.883   2.425 -0.9947  0.4436 -1.9096
 1967TIP3   OH2 5906   0.536   2.268   2.325  0.2147  0.3060  0.4435
 1967TIP3    H1 5907   0.584   2.346   2.298  1.3322 -0.1990  0.9021
 1967TIP3    H2 5908   0.456   2.270   2.273  0.4112  1.5388  0.1599
 1968TIP3   OH2 5909   2.325   3.417   4.764  0.3042  0.3396  0.2741
 1968TIP3    H1 5910   2.395   3.472   4.729 -1.9059  1.6215 -2.6399
 1968TIP3    H2 5911   2.354   3.327   4.748  2.1422  0.7596  1.1013
 1969TIP3   OH2 5912   0.575   0.192   2.223 -0.5394 -0.3691  0.0036
 1969TIP3    H1 5913   0.558   0.266   2.165 -2.2263 -0.8143 -0.1005
 1969TIP3    H2 5914   0.663   0.209   2.258  0.2144  0.3021 -2.0719
 1970TIP3   OH2 5915   4.962   4.961   1.983 -0.0850 -0.1906 -0.8663
 1970TIP3    H1 5916   4.922   4.943   2.069 -1.8258  2.5900 -0.9506
 1970TIP3    H2 5917   5.053   4.984   2.004 -0.5847  0.8324  0.3160
 1971TIP3   OH2 5918   3.205   2.872   2.576 -1.0539 -0.0947 -0.3425
 1971TIP3    H1 5919   3.260   2.935   2.623  1.4301 -1.3780 -1.3916
 1971TIP3    H2 5920   3.152   2.926   2.517  1.9582  1.0460 -2.1971
 1972TIP3   OH2 5921   0.689   2.245   0.296  0.3724  0.6984  0.3032
 1972TIP3    H1 5922   0.649   2.330   0.316 -0.0661  0.3614  0.8920
 1972TIP3    H2 5923   0.622   2.198   0.247  0.0290  0.1309  1.2942
 1973TIP3   OH2 5924   5.575   2.328   0.114 -0.3154  0.6054 -0.2889
 1973TIP3    H1 5925   5.596   2.411   0.157  1.8639  0.0508 -0.1753
 1973TIP3    H2 5926   5.635   2.323   0.041  0.4202 -1.3900  0.3829
 1974TIP3   OH2 5927   0.533   4.348   2.386  0.1396  0.2245 -0.5938
 1974TIP3    H1 5928   0.628   4.337   2.373  0.1604  0.1469 -0.3797
 1974TIP3    H2 5929   0.521   4.338   2.480 -0.2566 -1.0662 -0.7593
 1975TIP3   OH2 5930   6.231   0.840   1.734 -0.2551  0.1458 -0.0810
 1975TIP3    H1 5931   6.210   0.769   1.673  0.6114  0.9903 -1.4286
 1975TIP3    H2 5932   6.155   0.846   1.792 -0.2273 -2.0556  0.2700
 1976TIP3   OH2 5933   4.320   1.301   3.067  0.6551 -0.0262  0.0842
 1976TIP3    H1 5934   4.368   1.328   3.145  1.8365  1.6152 -1.1452
 1976TIP3    H2 5935   4.328   1.206   3.065  0.9032 -0.0638  1.7434
 1977TIP3   OH2 5936   3.789   3.016   2.346 -0.1430  0.0447  0.3370
 1977TIP3    H1 5937   3.804   3.108   2.370 -3.1568  0.5232  0.7880
 1977TIP3    H2 5938   3.755   3.020   2.256 -0.1468 -0.6460  0.3015
 1978TIP3   OH2 5939   5.262   2.939   4.971  0.1970  0.4431  0.1826
 1978TIP3    H1 5940   5.187   2.965   5.024 -1.6128 -2.0263 -0.9504
 1978TIP3    H2 5941   5.331   2.923   5.035 -0.5382  1.7566  1.3638
 1979TIP3   OH2 5942   3.470   4.872   2.780 -0.2580 -0.2009  0.0774
 1979TIP3    H1 5943   3.511   4.797   2.736 -0.0033  0.1482 -0.2777
 1979TIP3    H2 5944   3.377   4.850   2.782 -0.2529 -0.2902 -0.5030
 1980TIP3   OH2 5945   2.732   5.226   3.065 -0.0145 -0.3440 -0.2427
 1980TIP3    H1 5946   2.658   5.168   3.046  0.5210 -1.1797  0.1527
 1980TIP3    H2 5947   2.807   5.182   3.023 -0.1008  1.7313 -2.8447
 1981TIP3   OH2 5948   4.608   5.345   4.987 -0.4541 -0.0675 -0.3649
 1981TIP3    H1 5949   4.682   5.370   5.042  1.2038 -1.6681 -1.7775
 1981TIP3    H2 5950   4.532   5.380   5.033  1.0178  0.3471  1.9125
 1982TIP3   OH2 5951   0.021   1.047   0.007  0.3408 -0.1855 -0.2772
 1982TIP3    H1 5952   0.095   1.025   0.063  0.3856  0.1834 -0.1871
 1982TIP3    H2 5953  -0.044   0.979   0.024  1.2969 -1.5173 -1.6212
 1983TIP3   OH2 5954   3.639   0.503   2.156  0.2193  0.1275  0.4177
 1983TIP3    H1 5955   3.672   0.444   2.224 -1.4243 -0.3220  0.8629
 1983TIP3    H2 5956   3.565   0.547   2.196  0.4883  1.4009 -0.4249
 1984TIP3   OH2 5957   2.085   2.223   0.684 -0.1936  0.3817  0.0774
 1984TIP3    H1 5958   2.145   2.149   0.686 -0.3078  0.2937  0.4991
 1984TIP3    H2 5959   2.022   2.203   0.615  1.1496  1.1943 -1.4423
 1985TIP3   OH2 5960   5.186   0.644   3.897 -0.3794  0.6002  0.3211
 1985TIP3    H1 5961   5.253   0.587   3.932 -0.1100  0.6194 -0.1508
 1985TIP3    H2 5962   5.126   0.659   3.970 -0.1899  0.1112  0.5789
 1986TIP3   OH2 5963   2.052   0.145   4.272 -0.4823  0.1392  0.7843
 1986TIP3    H1 5964   2.144   0.159   4.294 -0.3890 -0.0212  0.4984
 1986TIP3    H2 5965   2.010   0.230   4.290 -0.3095  0.1688  1.0552
 1987TIP3   OH2 5966   5.941   5.245   1.904 -0.5298  0.6316 -0.0176
 1987TIP3    H1 5967   5.986   5.330   1.904 -1.1148  0.9582  0.7871
 1987TIP3    H2 5968   5.974   5.200   1.827  0.9573  0.9694  0.3989
 1988TIP3   OH2 5969   6.013   2.395   2.008  0.3000 -0.0372 -0.2109
 1988TIP3    H1 5970   6.095   2.370   2.050 -0.1851  0.9851  1.4142
 1988TIP3    H2 5971   6.005   2.489   2.024 -1.4099 -0.1975  0.0888
 1989TIP3   OH2 5972   5.184   1.951   2.432  0.5541  0.2080 -0.0463
 1989TIP3    H1 5973   5.268   1.924   2.395 -0.5259  0.5646 -3.0673
 1989TIP3    H2 5974   5.196   2.043   2.454  1.2609 -0.0296  0.5982
 1990TIP3   OH2 5975   0.955   1.781   1.212 -0.2879 -0.6491 -0.0034
 1990TIP3    H1 5976   1.013   1.705   1.223 -0.6889 -1.2544 -1.6888
 1990TIP3    H2 5977   0.886   1.769   1.277  1.5939  0.2939  2.3341
 1991TIP3   OH2 5978   3.471   1.028   4.772  0.8478 -0.2678 -0.3359
 1991TIP3    H1 5979   3.412   0.957   4.798  0.1309  0.2935 -0.4202
 1991TIP3    H2 5980   3.510   1.058   4.855  1.4943 -1.0421 -0.3451
 1992TIP3   OH2 5981   2.965   2.775   4.977 -0.1485  0.3863 -0.2926
 1992TIP3    H1 5982   3.052   2.736   4.967  1.0358  2.6551  0.2208
 1992TIP3    H2 5983   2.907   2.702   4.999  2.0014 -0.9745  1.2536
 1993TIP3   OH2 5984   1.832   0.969   1.463  0.1229  0.0277  0.1411
 1993TIP3    H1 5985   1.780   1.047   1.478 -0.0790 -0.2295  0.8064
 1993TIP3    H2 5986   1.793   0.902   1.520  1.3058 -0.1023  0.8397
 1994TIP3   OH2 5987   3.885   4.690   0.248  0.4366  0.6594  0.5660
 1994TIP3    H1 5988   3.819   4.660   0.309 -0.2292  0.7748 -0.0812
 1994TIP3    H2 5989   3.922   4.768   0.288  0.2038  0.5743  0.9477
 1995TIP3   OH2 5990   2.361   4.588   4.417 -0.1998  0.1522  0.4149
 1995TIP3    H1 5991   2.381   4.680   4.398 -0.3011  0.3187  1.0675
 1995TIP3    H2 5992   2.373   4.581   4.512  1.4622 -0.9169  0.1744
 1996TIP3   OH2 5993   1.940   5.231   4.725 -0.2902 -0.2870 -0.1941
 1996TIP3    H1 5994   1.861   5.282   4.745  0.3386  0.0889  1.5228
 1996TIP3    H2 5995   2.011   5.281   4.765  0.3151 -2.6993  1.9833
 1997TIP3   OH2 5996   4.045   0.400   3.973  0.2737 -0.2222 -0.1381
 1997TIP3    H1 5997   4.065   0.482   3.926  0.0340 -0.0594  0.0381
 1997TIP3    H2 5998   3.950   0.405   3.988  0.5354  0.3735  1.5671
 1998TIP3   OH2 5999   3.316   4.650   0.079 -0.2295  0.1536  0.4655
 1998TIP3    H1 6000   3.289   4.667   0.169 -1.1984  0.4058  0.1333
 1998TIP3    H2 6001   3.323   4.736   0.039 -0.6093 -0.0008  0.0668
 1999TIP3   OH2 6002   1.001   5.481   1.951  0.2246  0.4085  0.1388
 1999TIP3    H1 6003   1.022   5.493   1.859  0.4542 -2.1685 -0.2274
 1999TIP3    H2 6004   1.058   5.543   1.997  0.0818  1.7630 -1.4160
 2000TIP3   OH2 6005   1.973   2.458   1.390  0.4841 -0.5408  0.2932
 2000TIP3    H1 6006   1.881   2.464   1.413 -0.5266  1.3166 -3.4307
 2000TIP3    H2 6007   1.981   2.375   1.344  1.1612 -1.5138  2.0644
 2001TIP3   OH2 6008   2.852   2.808   3.069 -0.6946 -0.3267  0.3066
 2001TIP3    H1 6009   2.825   2.835   3.157 -0.6535  2.3836 -0.4319
 2001TIP3    H2 6010   2.947   2.823   3.068 -0.8406  0.6776 -0.4788
 2002TIP3   OH2 6011   0.278   2.912   3.474 -0.4786 -0.3187 -0.1414
 2002TIP3    H1 6012   0.191   2.922   3.434 -0.7271 -0.7549  0.2838
 2002TIP3    H2 6013   0.303   2.822   3.455 -0.3512 -0.3568  0.2139
 2003TIP3   OH2 6014   0.902   5.169   3.954 -0.1727  0.5469  0.0289
 2003TIP3    H1 6015   0.846   5.242   3.981 -0.1878  0.3519  0.5226
 2003TIP3    H2 6016   0.912   5.181   3.860 -1.6730  0.1620 -0.2166
 2004TIP3   OH2 6017   2.179   2.956   5.068  0.2796  0.9735 -0.5031
 2004TIP3    H1 6018   2.275   2.956   5.065  0.3577 -1.8168 -1.9353
 2004TIP3    H2 6019   2.157   2.888   5.132 -0.6585  0.1063 -1.6965
 2005TIP3   OH2 6020   5.986   2.409   0.255  0.3427 -0.2523  0.9036
 2005TIP3    H1 6021   6.001   2.314   0.248  1.5800  0.0804 -2.5424
 2005TIP3    H2 6022   6.073   2.448   0.251 -0.2185  1.1085  1.3103
 2006TIP3   OH2 6023   1.128   4.996   2.092  0.3248  0.1739 -0.1813
 2006TIP3    H1 6024   1.151   5.026   2.005 -1.5788 -0.3621 -0.9149
 2006TIP3    H2 6025   1.079   4.914   2.078 -0.8600  0.5705  1.3000
 2007TIP3   OH2 6026   0.831   1.166   4.053  0.2978 -0.0289  0.1044
 2007TIP3    H1 6027   0.894   1.238   4.050  1.4143 -0.9872  0.1261
 2007TIP3    H2 6028   0.856   1.109   3.980 -0.2496 -0.6794  0.4113
 2008TIP3   OH2 6029   4.730   1.823   1.322 -0.0683 -1.0443 -0.1399
 2008TIP3    H1 6030   4.689   1.828   1.235 -2.3204 -1.9153  0.8069
 2008TIP3    H2 6031   4.780   1.742   1.320  0.9432 -0.4273 -1.0186
 2009TIP3   OH2 6032   0.386   4.686   4.142  1.1943  0.1688  0.0072
 2009TIP3    H1 6033   0.344   4.599   4.142  0.9695  0.2737  0.5999
 2009TIP3    H2 6034   0.455   4.679   4.076  2.3810 -1.0483  1.3171
 2010TIP3   OH2 6035   5.513   3.001   2.059  0.1083  0.6513 -0.3936
 2010TIP3    H1 6036   5.512   2.969   2.149 -0.1907 -1.0108 -0.9535
 2010TIP3    H2 6037   5.505   3.096   2.067 -0.1077  0.5179  1.3177
 2011TIP3   OH2 6038   0.033   0.251   1.382 -0.4366  0.1522  0.1763
 2011TIP3    H1 6039   0.072   0.172   1.347  1.2590  1.2132 -0.4813
 2011TIP3    H2 6040  -0.055   0.225   1.409 -0.1038 -1.8080 -0.4664
 2012TIP3   OH2 6041   1.267   1.469   0.751  0.4597 -0.3722 -0.0102
 2012TIP3    H1 6042   1.258   1.438   0.841  2.3383  1.5931  0.9296
 2012TIP3    H2 6043   1.324   1.545   0.757 -1.8190  1.7560 -2.4647
 2013TIP3   OH2 6044   4.537   2.783   2.202  0.0466  0.3967  0.0319
 2013TIP3    H1 6045   4.546   2.696   2.162 -0.8335 -0.6626  1.9866
 2013TIP3    H2 6046   4.607   2.835   2.163 -0.5310 -0.6047 -2.5717
 2014TIP3   OH2 6047   5.767   3.620   4.882  0.2484  0.2522  0.1646
 2014TIP3    H1 6048   5.795   3.691   4.940 -0.9428  1.2264 -0.4000
 2014TIP3    H2 6049   5.766   3.660   4.795 -4.1758  0.8320  0.2562
 2015TIP3   OH2 6050   0.372   1.312   5.087  0.5171 -0.2134 -0.0621
 2015TIP3    H1 6051   0.398   1.294   5.178 -0.1691  1.2461  0.4533
 2015TIP3    H2 6052   0.344   1.227   5.053 -1.2374 -0.4675  1.7947
 2016TIP3   OH2 6053   3.659   4.747   4.765  0.4749 -0.2514  0.0864
 2016TIP3    H1 6054   3.744   4.760   4.808  0.6220 -1.2768  0.1422
 2016TIP3    H2 6055   3.661   4.655   4.738 -0.7610 -0.3721  0.3777
 2017TIP3   OH2 6056   5.271   3.818   1.204  0.1819 -0.3272 -0.5069
 2017TIP3    H1 6057   5.312   3.874   1.270  2.0104  0.1977 -2.0152
 2017TIP3    H2 6058   5.230   3.748   1.255  0.5285  0.6789  1.2408
 2018TIP3   OH2 6059   4.127   4.161   3.189 -0.0525  1.0040  0.7102
 2018TIP3    H1 6060   4.110   4.252   3.212  2.0778  1.0967  2.2360
 2018TIP3    H2 6061   4.223   4.156   3.183 -0.1848 -0.8416 -0.6906
 2019TIP3   OH2 6062   4.792   4.798   3.658 -0.7552  0.5702 -0.3136
 2019TIP3    H1 6063   4.885   4.810   3.638 -0.0293 -1.3279  1.5691
 2019TIP3    H2 6064   4.764   4.725   3.603 -0.1248 -1.1944  1.5742
 2020TIP3   OH2 6065   0.180   5.827   4.246 -0.2520  0.1254 -0.7048
 2020TIP3    H1 6066   0.219   5.778   4.318 -0.6353  0.6242 -0.1443
 2020TIP3    H2 6067   0.242   5.898   4.229  0.9699 -1.2882 -2.4185
 2021TIP3   OH2 6068   2.156   5.865   1.658  0.0838 -0.0134  0.3918
 2021TIP3    H1 6069   2.144   5.845   1.750  0.7911 -1.4696  0.1952
 2021TIP3    H2 6070   2.091   5.933   1.639 -0.4611 -0.1166  1.8052
 2022TIP3   OH2 6071   6.213   2.782   0.336 -0.3884 -0.1207 -0.3145
 2022TIP3    H1 6072   6.261   2.835   0.399  0.5405 -1.1639 -0.1206
 2022TIP3    H2 6073   6.265   2.785   0.256 -1.6149  1.2786 -1.1101
 2023TIP3   OH2 6074   6.054   2.977   2.684 -0.1224  0.1162 -0.3202
 2023TIP3    H1 6075   5.977   2.945   2.638  1.8276 -2.8904 -1.7793
 2023TIP3    H2 6076   6.035   2.962   2.776 -1.5587  0.2047 -0.5776
 2024TIP3   OH2 6077   2.725   2.569   3.307  0.4376  0.7267 -0.0307
 2024TIP3    H1 6078   2.712   2.515   3.229  0.5437  0.5868  0.0487
 2024TIP3    H2 6079   2.641   2.612   3.320  0.8163  1.8531 -1.0574
 2025TIP3   OH2 6080   4.022   5.558   4.350 -0.2830  0.0166  0.3619
 2025TIP3    H1 6081   4.031   5.494   4.280  0.2398  0.5016 -0.0212
 2025TIP3    H2 6082   4.069   5.520   4.424  0.1256  0.0060  0.0974
 2026TIP3   OH2 6083   1.507   3.519   4.483 -0.3594  0.6862 -0.0499
 2026TIP3    H1 6084   1.530   3.435   4.442  0.3526  1.3977 -1.1612
 2026TIP3    H2 6085   1.580   3.577   4.461 -0.0786  1.1957  2.0363
 2027TIP3   OH2 6086   6.238   5.495   2.916  0.0099  0.2177 -0.6054
 2027TIP3    H1 6087   6.300   5.569   2.915  0.7001 -0.3447 -0.3137
 2027TIP3    H2 6088   6.176   5.518   2.986  0.8712  0.0192  0.2533
 2028TIP3   OH2 6089   2.474   1.120   1.360  0.0601  0.0728  0.7334
 2028TIP3    H1 6090   2.541   1.060   1.393  0.1817 -0.9907 -1.2413
 2028TIP3    H2 6091   2.392   1.072   1.372  0.0659 -0.1568 -0.0463
 2029TIP3   OH2 6092   5.889   4.665   4.253  0.6257 -0.1987  0.1796
 2029TIP3    H1 6093   5.925   4.601   4.314  2.5811  0.2544 -0.4284
 2029TIP3    H2 6094   5.879   4.745   4.305  0.4789 -0.3337  0.3593
 2030TIP3   OH2 6095   2.433   0.829   0.841 -0.1469 -0.2805  0.1104
 2030TIP3    H1 6096   2.494   0.903   0.836  0.3859 -0.6916  0.3313
 2030TIP3    H2 6097   2.351   0.867   0.870 -0.4074  0.5102 -1.5466
 2031TIP3   OH2 6098   5.809   5.328   2.132 -0.4055  0.3155  0.1542
 2031TIP3    H1 6099   5.811   5.308   2.038  4.7443  2.1341 -0.4842
 2031TIP3    H2 6100   5.871   5.266   2.170 -1.1330  0.7298  2.0970
 2032TIP3   OH2 6101   3.654   0.725   3.186 -0.2797  0.0517  0.2941
 2032TIP3    H1 6102   3.627   0.684   3.103  4.0680 -0.0853 -1.3072
 2032TIP3    H2 6103   3.692   0.809   3.160 -0.5505  0.8924  2.4411
 2033TIP3   OH2 6104   3.527   1.370   0.553  0.4178  0.1983 -0.0340
 2033TIP3    H1 6105   3.516   1.323   0.636  1.2065  1.1957  0.6470
 2033TIP3    H2 6106   3.492   1.457   0.569  0.1974  0.2824 -0.8855
 2034TIP3   OH2 6107   1.375   5.035   0.828  0.2956 -0.1861 -0.1518
 2034TIP3    H1 6108   1.330   4.959   0.865  0.1729  0.0941  0.2940
 2034TIP3    H2 6109   1.328   5.110   0.864  0.9452  0.1083  0.1029
 2035TIP3   OH2 6110   1.357   4.946   3.763 -0.2327 -0.6447 -0.1069
 2035TIP3    H1 6111   1.434   4.976   3.812 -2.1361  1.3116  1.8692
 2035TIP3    H2 6112   1.300   4.907   3.829 -1.8355 -0.2014 -1.1862
 2036TIP3   OH2 6113   3.845   0.543   1.214 -0.3746  0.7150  0.1573
 2036TIP3    H1 6114   3.812   0.628   1.183 -0.6199 -0.1851 -2.2644
 2036TIP3    H2 6115   3.889   0.505   1.138 -1.1650 -1.7739  0.8417
 2037TIP3   OH2 6116   2.192   4.447   2.363 -0.1571 -0.1342 -0.2915
 2037TIP3    H1 6117   2.123   4.487   2.417 -0.5943 -0.0786 -0.8840
 2037TIP3    H2 6118   2.197   4.503   2.285 -0.0306 -0.6254 -0.6378
 2038TIP3   OH2 6119   6.265   3.619   1.037  0.1910 -0.0989  0.3831
 2038TIP3    H1 6120   6.275   3.668   0.956 -1.9746 -1.6139 -0.9060
 2038TIP3    H2 6121   6.327   3.659   1.098  0.9404  1.9288 -1.6083
 2039TIP3   OH2 6122   6.237   0.302   3.847  0.0230  0.4615 -0.5159
 2039TIP3    H1 6123   6.259   0.239   3.915 -2.6483 -1.0264 -0.8922
 2039TIP3    H2 6124   6.242   0.387   3.890 -1.0979 -0.3945  1.4450
 2040TIP3   OH2 6125   5.080   0.811   3.122  0.4589  0.1751 -0.0799
 2040TIP3    H1 6126   5.115   0.875   3.060  1.0154 -1.3021 -1.3215
 2040TIP3    H2 6127   5.008   0.769   3.076  1.1492 -1.2424  0.0963
 2041TIP3   OH2 6128   1.427   3.201   2.387 -0.2708 -0.1213  0.3620
 2041TIP3    H1 6129   1.474   3.158   2.458  0.2896 -0.4281 -0.1879
 2041TIP3    H2 6130   1.341   3.223   2.424  0.1661  0.0993  1.2578
 2042TIP3   OH2 6131   1.566   4.351   1.828 -0.5719  0.9712  0.2285
 2042TIP3    H1 6132   1.489   4.368   1.883  1.0986  2.9027  2.1087
 2042TIP3    H2 6133   1.609   4.276   1.870 -1.6106 -0.4418 -1.1177
 2043TIP3   OH2 6134   2.587   4.368   4.726  0.1699 -0.4567 -0.4507
 2043TIP3    H1 6135   2.522   4.421   4.681  0.6283  1.0152  0.5539
 2043TIP3    H2 6136   2.656   4.429   4.751  0.9467 -1.6004  0.3524
 2044TIP3   OH2 6137   3.955   3.798   1.156  0.2763 -0.5465 -0.3474
 2044TIP3    H1 6138   3.956   3.878   1.105  0.3336 -0.3895 -0.1018
 2044TIP3    H2 6139   3.862   3.776   1.165  0.2299 -0.1865  0.0828
 2045TIP3   OH2 6140   0.684   1.653   4.484  0.1947 -0.0782  0.2442
 2045TIP3    H1 6141   0.662   1.660   4.576  0.6340 -0.0074  0.3456
 2045TIP3    H2 6142   0.709   1.561   4.473 -0.6916 -0.3050  0.0039
 2046TIP3   OH2 6143   2.363   4.811   5.039  0.3433 -0.2271 -0.0563
 2046TIP3    H1 6144   2.453   4.798   5.009 -0.5212 -1.9750 -2.1458
 2046TIP3    H2 6145   2.314   4.832   4.960 -1.1411  0.4397  1.0009
 2047TIP3   OH2 6146   0.836   1.232   2.200  0.0589  0.5076 -0.7025
 2047TIP3    H1 6147   0.857   1.291   2.128 -1.1962  2.0388  0.1128
 2047TIP3    H2 6148   0.830   1.289   2.277  0.8790 -0.9993  0.5549
 2048TIP3   OH2 6149   6.328   5.938   4.621 -0.2645  0.2219  0.5851
 2048TIP3    H1 6150   6.255   5.999   4.632 -0.3409  0.0156  1.2801
 2048TIP3    H2 6151   6.301   5.881   4.549 -0.6946  0.2904  0.6867
 2049TIP3   OH2 6152   3.656   2.240   2.081 -0.3655 -0.7583 -0.2775
 2049TIP3    H1 6153   3.615   2.155   2.065 -2.1490 -0.0084  0.0235
 2049TIP3    H2 6154   3.627   2.264   2.169 -0.5659  0.5006 -0.6691
 2050TIP3   OH2 6155   0.139   0.001   2.952 -0.4902 -0.3040  0.2833
 2050TIP3    H1 6156   0.206  -0.023   2.888 -0.5754 -1.6166  0.6591
 2050TIP3    H2 6157   0.065   0.032   2.899 -0.8335 -2.0510 -0.3369
 2051TIP3   OH2 6158   0.242   1.566   4.124 -0.4414  0.3070 -0.2203
 2051TIP3    H1 6159   0.151   1.568   4.096 -0.3148  0.1421 -0.6437
 2051TIP3    H2 6160   0.253   1.481   4.165 -0.3754  0.1778 -0.5088
 2052TIP3   OH2 6161   0.149   4.821   0.829  0.1441 -0.0202 -0.8907
 2052TIP3    H1 6162   0.210   4.797   0.759  0.5624 -0.5551 -0.3556
 2052TIP3    H2 6163   0.090   4.747   0.837  0.0813  0.0497 -0.6979
 2053TIP3   OH2 6164   0.876   5.712   3.875 -0.5912  0.1464 -0.3454
 2053TIP3    H1 6165   0.912   5.674   3.795 -1.0793  0.3801 -0.6841
 2053TIP3    H2 6166   0.932   5.679   3.945  0.5619  0.8571 -0.8937
 2054TIP3   OH2 6167   4.032   1.207   0.152 -0.4128 -0.4907 -0.0167
 2054TIP3    H1 6168   3.995   1.121   0.133 -0.5606 -0.0815 -1.7494
 2054TIP3    H2 6169   3.995   1.265   0.086 -0.7138  1.0478  1.4043
 2055TIP3   OH2 6170   1.784   4.485   2.694 -0.5507 -0.1323  0.4117
 2055TIP3    H1 6171   1.815   4.487   2.784  0.7494 -1.1924  0.0203
 2055TIP3    H2 6172   1.708   4.543   2.693 -1.0225 -0.6616  2.3419
 2056TIP3   OH2 6173   0.933   4.702   1.704  0.4213 -0.1128  0.0234
 2056TIP3    H1 6174   1.022   4.671   1.722 -0.2255 -1.2299  1.4946
 2056TIP3    H2 6175   0.939   4.797   1.718  1.2919 -0.2280  0.5731
 2057TIP3   OH2 6176   2.565   3.992   3.739  0.0843  0.0799  0.1299
 2057TIP3    H1 6177   2.636   4.015   3.679  0.1911 -0.6182 -0.0259
 2057TIP3    H2 6178   2.523   4.075   3.759  0.6941  0.4534 -0.0952
 2058TIP3   OH2 6179   6.142   4.249   1.847  0.4512  0.5922  0.1154
 2058TIP3    H1 6180   6.123   4.242   1.754 -0.6287  0.3575  0.3385
 2058TIP3    H2 6181   6.195   4.328   1.855  0.3626  0.7401 -0.6597
 2059TIP3   OH2 6182   5.094   5.250   0.850  0.1804  0.1365 -0.5274
 2059TIP3    H1 6183   5.122   5.342   0.851  0.1293  0.1692  1.0771
 2059TIP3    H2 6184   5.005   5.252   0.817  0.0910  0.6998 -0.2604
 2060TIP3   OH2 6185   3.372   4.114   0.705 -0.0717  0.0840  0.0221
 2060TIP3    H1 6186   3.294   4.098   0.651 -0.7108 -0.4198  1.0573
 2060TIP3    H2 6187   3.337   4.125   0.794  1.1522 -1.7311  0.7815
 2061TIP3   OH2 6188   1.589   2.096   4.118  0.1447 -0.5005 -0.1921
 2061TIP3    H1 6189   1.582   2.192   4.119  0.9743 -0.4350 -0.0873
 2061TIP3    H2 6190   1.575   2.071   4.209  0.0274 -0.4732 -0.2023
 2062TIP3   OH2 6191   3.232   1.909   4.150  0.2741 -0.0280 -0.9859
 2062TIP3    H1 6192   3.266   1.998   4.149 -0.9293  0.4925  0.5619
 2062TIP3    H2 6193   3.139   1.919   4.170 -0.0831 -1.5980 -1.6543
 2063TIP3   OH2 6194   5.705   5.259   1.369 -0.2108  0.3755 -0.2494
 2063TIP3    H1 6195   5.797   5.287   1.370 -0.5610  1.7114  2.2102
 2063TIP3    H2 6196   5.704   5.174   1.412 -0.1999  0.7931  0.6025
 2064TIP3   OH2 6197   5.418   3.109   2.531  0.3387 -0.2730 -0.3115
 2064TIP3    H1 6198   5.376   3.024   2.517  1.0932 -0.3371 -2.6733
 2064TIP3    H2 6199   5.419   3.120   2.626 -2.3596 -1.5645 -0.0397
 2065TIP3   OH2 6200   1.992   3.383   0.308  0.0999  0.5582 -0.0401
 2065TIP3    H1 6201   2.048   3.328   0.253 -0.5735  0.6954 -0.8791
 2065TIP3    H2 6202   2.006   3.472   0.275  2.1374  1.1430  2.1078
 2066TIP3   OH2 6203   5.760   3.267   2.807  0.5967 -0.4962 -0.1916
 2066TIP3    H1 6204   5.784   3.343   2.755 -0.7528 -0.1921 -0.4066
 2066TIP3    H2 6205   5.827   3.262   2.875  0.4900  1.1110  0.0571
 2067TIP3   OH2 6206   4.206   4.921   4.059  0.0277  0.0383  0.1540
 2067TIP3    H1 6207   4.152   4.977   4.002  1.7504  1.2332 -0.3887
 2067TIP3    H2 6208   4.181   4.947   4.147  0.1355  1.0262 -0.0937
 2068TIP3   OH2 6209   0.112   3.881   3.802 -0.1793  0.2031  0.1347
 2068TIP3    H1 6210   0.085   3.790   3.788 -0.0941  0.1457  0.3438
 2068TIP3    H2 6211   0.207   3.880   3.796 -0.2496  0.7103 -2.4643
 2069TIP3   OH2 6212   1.720   1.836   0.471 -0.1014 -0.5543 -0.4048
 2069TIP3    H1 6213   1.738   1.861   0.562 -1.5208 -1.5882  0.2067
 2069TIP3    H2 6214   1.744   1.744   0.467  0.6883 -0.3257 -1.3267
 2070TIP3   OH2 6215   3.917   0.178   4.973 -0.6439  0.1769  0.0240
 2070TIP3    H1 6216   3.938   0.191   4.880  1.4731 -2.0914  0.1024
 2070TIP3    H2 6217   3.983   0.229   5.020 -1.2384  0.6892  0.3219
 2071TIP3   OH2 6218   2.153   2.163   4.233  0.7664 -0.3144  0.1826
 2071TIP3    H1 6219   2.162   2.242   4.286 -0.3755  0.2256 -0.3894
 2071TIP3    H2 6220   2.207   2.180   4.156  0.8725 -0.2858  0.2617
 2072TIP3   OH2 6221   3.044   4.744   0.827 -0.0272 -0.9707 -0.1088
 2072TIP3    H1 6222   2.992   4.750   0.747  0.0415  1.7278 -0.0411
 2072TIP3    H2 6223   2.987   4.779   0.895  1.0330 -0.1952  0.4039
 2073TIP3   OH2 6224   4.969   0.024   4.342 -0.2696 -0.8085  0.3087
 2073TIP3    H1 6225   4.878   0.004   4.320 -0.0932 -0.1577 -1.0963
 2073TIP3    H2 6226   4.964   0.108   4.387 -0.2240  0.2143 -1.4991
 2074TIP3   OH2 6227   5.304   4.255   2.020 -0.2514  0.1095 -0.5670
 2074TIP3    H1 6228   5.389   4.296   2.004 -0.5952  1.1228  0.0725
 2074TIP3    H2 6229   5.314   4.165   1.990  0.9214  0.3270 -0.8616
 2075TIP3   OH2 6230   1.862   5.812   1.219 -0.3543  0.0867 -0.0982
 2075TIP3    H1 6231   1.869   5.830   1.313  0.6945 -0.4556 -0.0663
 2075TIP3    H2 6232   1.844   5.898   1.180  3.3104  1.1465  0.1876
 2076TIP3   OH2 6233   0.297   0.364   4.755  0.1480 -0.8948  0.1979
 2076TIP3    H1 6234   0.370   0.416   4.787 -0.6313  1.0010 -0.9116
 2076TIP3    H2 6235   0.221   0.394   4.806 -0.4044 -0.5048 -0.8113
 2077TIP3   OH2 6236   1.761   4.969   3.433  0.3185  0.3712  0.4309
 2077TIP3    H1 6237   1.713   4.918   3.497  1.0753 -1.3195 -0.2914
 2077TIP3    H2 6238   1.728   4.939   3.348  0.5753  1.2995 -0.0158
 2078TIP3   OH2 6239   1.300   5.550   4.345 -0.0268 -0.5441 -1.0489
 2078TIP3    H1 6240   1.369   5.507   4.395  0.4602  1.1460 -0.1855
 2078TIP3    H2 6241   1.219   5.529   4.392  0.1262 -0.9938 -0.9854
 2079TIP3   OH2 6242   2.066   3.043   4.444  0.4068 -0.1294  0.2281
 2079TIP3    H1 6243   2.039   2.981   4.511 -1.3548 -0.4583 -0.7321
 2079TIP3    H2 6244   2.132   2.997   4.393 -1.4290 -1.5358 -0.9459
 2080TIP3   OH2 6245   5.177   2.926   4.534  0.4402 -0.3003 -0.3864
 2080TIP3    H1 6246   5.083   2.919   4.519  0.4648  1.0436 -1.3307
 2080TIP3    H2 6247   5.198   2.849   4.586 -0.9938 -1.1993 -1.0589
 2081TIP3   OH2 6248   1.014   1.744   4.450  0.2603 -0.3659  0.2092
 2081TIP3    H1 6249   0.925   1.766   4.475  0.1911 -1.5671  1.0612
 2081TIP3    H2 6250   1.059   1.725   4.532  0.9781 -0.9365 -0.2968
 2082TIP3   OH2 6251   4.863   2.451   4.459  0.3374 -0.3572 -0.1209
 2082TIP3    H1 6252   4.772   2.482   4.452  0.0464 -1.3072 -0.7206
 2082TIP3    H2 6253   4.872   2.427   4.552 -0.4484 -1.4330 -0.2908
 2083TIP3   OH2 6254   6.085   3.186   0.283  0.5608 -0.0892  0.2010
 2083TIP3    H1 6255   6.175   3.188   0.251 -0.3105  0.9644 -2.4012
 2083TIP3    H2 6256   6.045   3.112   0.237 -0.7948  1.6032 -1.4862
 2084TIP3   OH2 6257   0.170   3.719   2.636  0.1496  0.0198 -0.1497
 2084TIP3    H1 6258   0.185   3.797   2.689  0.4896  0.2960 -0.6460
 2084TIP3    H2 6259   0.190   3.646   2.694 -0.5962  0.2880  0.4537
 2085TIP3   OH2 6260   1.971   0.496   3.844  0.1911 -0.3967 -0.0664
 2085TIP3    H1 6261   1.883   0.489   3.881 -0.3637 -1.8544 -1.5601
 2085TIP3    H2 6262   1.988   0.590   3.840 -0.0447 -0.1420  3.0078
 2086TIP3   OH2 6263   2.038   2.006   2.092 -0.0604 -0.4836 -0.5723
 2086TIP3    H1 6264   1.947   1.978   2.098  0.3937 -1.8576  0.4339
 2086TIP3    H2 6265   2.045   2.082   2.149 -0.9503  0.7679 -2.0563
 2087TIP3   OH2 6266   1.520   5.419   3.830  0.5094 -0.6933  0.3912
 2087TIP3    H1 6267   1.584   5.450   3.767 -0.2801 -1.0763 -0.6208
 2087TIP3    H2 6268   1.567   5.418   3.914  1.7819 -0.8937 -0.3073
 2088TIP3   OH2 6269   4.663   3.331   4.911  0.2071  0.7598 -0.5861
 2088TIP3    H1 6270   4.664   3.416   4.867 -0.1186  0.5268 -1.0614
 2088TIP3    H2 6271   4.608   3.344   4.988 -1.8482  0.4057 -1.9063
 2089TIP3   OH2 6272   0.297   2.231   4.059 -0.0605 -0.2259  0.1436
 2089TIP3    H1 6273   0.353   2.177   4.115  1.0618  0.4679 -0.2796
 2089TIP3    H2 6274   0.352   2.306   4.035 -0.7607 -0.1359 -1.2889
 2090TIP3   OH2 6275   3.146   2.304   3.130  0.0237  0.3461 -0.0364
 2090TIP3    H1 6276   3.078   2.244   3.159 -0.7803  0.1287 -2.1519
 2090TIP3    H2 6277   3.218   2.247   3.102  0.5339  0.5232  0.8734
 2091TIP3   OH2 6278   4.423   2.943   0.676  0.0329 -0.0022 -0.2640
 2091TIP3    H1 6279   4.511   2.980   0.683  0.4298 -0.8570 -0.6200
 2091TIP3    H2 6280   4.431   2.855   0.712 -0.5413 -0.2951 -0.8331
 2092TIP3   OH2 6281   2.728   1.225   0.215  0.1419 -0.6607 -0.1633
 2092TIP3    H1 6282   2.733   1.311   0.257  0.1817 -0.9908  0.5351
 2092TIP3    H2 6283   2.673   1.238   0.138  0.4076  0.0554 -0.2393
 2093TIP3   OH2 6284   0.225   3.637   0.461 -0.1599 -0.4669  0.8326
 2093TIP3    H1 6285   0.159   3.706   0.469 -0.3794 -0.7359  1.3637
 2093TIP3    H2 6286   0.235   3.603   0.549 -0.4656 -1.4972  0.4782
 2094TIP3   OH2 6287   6.341   2.389   2.365  0.3264  0.3649 -0.1176
 2094TIP3    H1 6288   6.258   2.435   2.373 -0.6982 -1.6085  1.6010
 2094TIP3    H2 6289   6.320   2.297   2.383  2.9742 -0.1075  1.1334
 2095TIP3   OH2 6290   5.335   4.163   0.409 -0.0626  0.2138 -0.6024
 2095TIP3    H1 6291   5.274   4.178   0.481 -0.2462  0.1904 -0.7497
 2095TIP3    H2 6292   5.352   4.069   0.410  2.4483  0.5840  1.4056
 2096TIP3   OH2 6293   5.541   4.293   0.240  0.3377  0.2978 -0.4361
 2096TIP3    H1 6294   5.506   4.253   0.320  0.6163  1.6096  0.3546
 2096TIP3    H2 6295   5.636   4.285   0.248  0.3567 -0.4750 -1.1438
 2097TIP3   OH2 6296   6.259   0.372   4.879  0.0011  0.0418  0.0716
 2097TIP3    H1 6297   6.328   0.424   4.838  2.4975 -1.7144  1.7087
 2097TIP3    H2 6298   6.193   0.361   4.811  1.4584  1.5856 -1.6975
 2098TIP3   OH2 6299   2.898   2.534   0.133  0.2248 -0.2524  0.1186
 2098TIP3    H1 6300   2.907   2.521   0.227  1.4830 -0.2445  0.0172
 2098TIP3    H2 6301   2.974   2.587   0.108  0.6153 -1.3120 -1.0947
 2099TIP3   OH2 6302   4.094   3.624   1.968  0.3211 -0.2355 -0.1538
 2099TIP3    H1 6303   4.043   3.672   2.033  1.7744  0.6640  0.3838
 2099TIP3    H2 6304   4.166   3.585   2.019  0.7640 -0.5848 -1.0306
 2100TIP3   OH2 6305   4.973   3.841   1.041  0.2968 -0.3608  0.2029
 2100TIP3    H1 6306   4.921   3.768   1.007  1.9080 -0.8163 -1.4982
 2100TIP3    H2 6307   5.058   3.801   1.061  1.0863  0.9606 -0.4031
 2101TIP3   OH2 6308   2.560   4.252   2.401 -0.0083  0.0627  0.2034
 2101TIP3    H1 6309   2.615   4.220   2.329  4.1693  2.6645  1.8482
 2101TIP3    H2 6310   2.557   4.178   2.463  0.4982 -0.5928 -0.5396
 2102TIP3   OH2 6311   4.825   3.693   1.736 -0.8577  0.0286  1.1622
 2102TIP3    H1 6312   4.789   3.609   1.764 -0.7439  0.1737  1.7552
 2102TIP3    H2 6313   4.901   3.707   1.792  0.2300 -0.3414 -0.1686
 2103TIP3   OH2 6314   4.969   1.862   2.567  0.1801 -0.6327 -0.1210
 2103TIP3    H1 6315   4.912   1.938   2.556 -0.7844 -1.0311  1.6957
 2103TIP3    H2 6316   5.047   1.884   2.517 -0.7113  0.8607 -0.9456
 2104TIP3   OH2 6317   0.224   5.310   2.790  0.5476 -0.1548 -0.3133
 2104TIP3    H1 6318   0.218   5.357   2.873  1.2537  0.5782 -0.6636
 2104TIP3    H2 6319   0.186   5.369   2.726  0.5438 -0.4681 -0.6015
 2105TIP3   OH2 6320   1.549   5.231   2.005  0.3035 -0.1919 -0.6820
 2105TIP3    H1 6321   1.583   5.254   2.091 -1.3376 -0.2195 -0.0006
 2105TIP3    H2 6322   1.504   5.148   2.018  0.8545 -0.6896 -1.7957
 2106TIP3   OH2 6323   1.869   0.208   1.069 -0.5835 -0.5997 -0.2355
 2106TIP3    H1 6324   1.963   0.191   1.070 -0.5596 -0.5437 -1.2831
 2106TIP3    H2 6325   1.830   0.121   1.055 -0.6076 -0.3837 -1.6269
 2107TIP3   OH2 6326   2.154   5.440   4.103 -0.1496  0.0271 -0.5537
 2107TIP3    H1 6327   2.227   5.468   4.158 -0.8242  0.5326  0.1004
 2107TIP3    H2 6328   2.192   5.435   4.015  0.7889 -0.1989 -0.1567
 2108TIP3   OH2 6329   4.936   1.301   0.498 -0.5685  0.5715  0.2732
 2108TIP3    H1 6330   4.996   1.227   0.513 -0.6882 -0.0993 -2.1348
 2108TIP3    H2 6331   4.855   1.274   0.540 -0.0126  0.2928  1.2189
 2109TIP3   OH2 6332   2.423   0.089   5.019 -0.3283 -0.2310 -0.9024
 2109TIP3    H1 6333   2.431   0.152   4.948 -0.0252 -0.4429 -1.0594
 2109TIP3    H2 6334   2.457   0.135   5.096  0.5214 -0.4229 -1.1504
 2110TIP3   OH2 6335   0.156   4.815   3.272 -0.4325 -0.1534 -0.3138
 2110TIP3    H1 6336   0.138   4.877   3.343  0.4012 -1.1564  0.8045
 2110TIP3    H2 6337   0.167   4.871   3.195 -0.1355  1.0639  0.5722
 2111TIP3   OH2 6338   0.640   4.331   1.847  0.0950  0.2246 -0.6317
 2111TIP3    H1 6339   0.658   4.410   1.796  0.7476 -0.4984 -1.5741
 2111TIP3    H2 6340   0.705   4.267   1.816 -0.2071 -0.5839  0.3340
 2112TIP3   OH2 6341   2.868   3.542   1.227 -0.5803 -0.0524  0.5484
 2112TIP3    H1 6342   2.816   3.474   1.271 -2.2675  0.3009 -0.7849
 2112TIP3    H2 6343   2.958   3.511   1.233 -1.0734 -1.3715  1.7781
 2113TIP3   OH2 6344   5.156   5.280   0.260  0.5019  0.0419 -0.0807
 2113TIP3    H1 6345   5.117   5.357   0.221  0.5573  0.0044 -0.2095
 2113TIP3    H2 6346   5.223   5.252   0.198 -0.7586 -1.1957 -0.9355
 2114TIP3   OH2 6347   4.547   3.689   2.077 -0.2517 -0.1368 -0.4425
 2114TIP3    H1 6348   4.588   3.775   2.070  2.6244 -1.2099  1.2233
 2114TIP3    H2 6349   4.463   3.705   2.120  0.9187  1.7188  1.3205
 2115TIP3   OH2 6350   0.108   0.514   0.022  0.0295 -0.2391 -0.4654
 2115TIP3    H1 6351   0.070   0.426   0.030 -4.0346  1.4266  0.9081
 2115TIP3    H2 6352   0.095   0.553   0.109  0.0331  2.3253 -1.5534
 2116TIP3   OH2 6353   4.606   4.718   4.765 -0.3714 -0.2578 -0.9750
 2116TIP3    H1 6354   4.539   4.774   4.727 -0.8721  0.4977  0.8981
 2116TIP3    H2 6355   4.559   4.640   4.795  0.0697 -1.0044 -2.1522
 2117TIP3   OH2 6356   0.545   4.515   2.015  0.3056 -0.0429 -0.0905
 2117TIP3    H1 6357   0.553   4.442   2.075 -2.4103  0.5432  1.1492
 2117TIP3    H2 6358   0.604   4.494   1.942  0.9194 -2.5531  1.0494
 2118TIP3   OH2 6359   4.523   5.408   1.154  0.0912 -0.2008 -0.4737
 2118TIP3    H1 6360   4.488   5.488   1.193  0.9061  0.3758 -0.9023
 2118TIP3    H2 6361   4.618   5.414   1.168  0.0994 -1.5237  0.2903
 2119TIP3   OH2 6362   0.820   2.505   0.124  0.4474  0.3537 -0.2576
 2119TIP3    H1 6363   0.798   2.562   0.050 -0.5079  0.1198 -0.1602
 2119TIP3    H2 6364   0.738   2.494   0.172  1.3222  1.7747  1.7398
 2120TIP3   OH2 6365   0.624   5.535   3.839 -0.4837 -0.8691  0.3395
 2120TIP3    H1 6366   0.645   5.602   3.903 -2.2566  0.5401 -0.4740
 2120TIP3    H2 6367   0.532   5.550   3.817 -0.5864 -2.8110 -0.7680
 2121TIP3   OH2 6368   3.305   3.445   2.688 -0.2020  0.0695 -0.0358
 2121TIP3    H1 6369   3.235   3.394   2.646 -1.3886 -0.7491  2.7484
 2121TIP3    H2 6370   3.337   3.390   2.759  1.9400  1.2655  0.0193
 2122TIP3   OH2 6371   3.997   5.919   1.042  0.1536 -0.1271  0.3030
 2122TIP3    H1 6372   3.913   5.883   1.069 -0.5695  2.8943  2.7794
 2122TIP3    H2 6373   3.975   5.984   0.975  0.8424 -0.9007 -0.7039
 2123TIP3   OH2 6374   2.780   1.828   5.000  0.5944 -0.7964  0.3305
 2123TIP3    H1 6375   2.780   1.797   4.909 -0.0662 -1.3849  0.5223
 2123TIP3    H2 6376   2.687   1.835   5.023  0.6033  2.4487 -0.0515
 2124TIP3   OH2 6377   2.246   2.418   2.932  0.2802 -0.0787  0.1588
 2124TIP3    H1 6378   2.186   2.397   2.861  0.5649  0.7697 -0.3549
 2124TIP3    H2 6379   2.317   2.355   2.924 -0.4515 -0.9812  0.6699
 2125TIP3   OH2 6380   3.123   5.556   1.040  0.4519 -0.3562 -0.0454
 2125TIP3    H1 6381   3.084   5.495   1.103 -0.3541 -1.1542 -1.2631
 2125TIP3    H2 6382   3.064   5.631   1.039  0.7980 -0.0706  0.5841
 2126TIP3   OH2 6383   5.998   0.869   1.901  0.5060  0.1314  0.0478
 2126TIP3    H1 6384   6.045   0.937   1.950  0.9135  0.3974 -0.6952
 2126TIP3    H2 6385   5.941   0.918   1.841 -0.2770 -0.1903  0.5131
 2127TIP3   OH2 6386   2.017   3.457   4.510  0.3756 -0.0135  0.2398
 2127TIP3    H1 6387   2.014   3.553   4.513  1.6517  0.0586 -0.3883
 2127TIP3    H2 6388   2.069   3.432   4.587  1.9638 -0.0579 -0.8070
 2128TIP3   OH2 6389   4.944   5.597   3.508  0.6353 -0.0636 -0.2927
 2128TIP3    H1 6390   4.858   5.570   3.475  1.3737 -2.7004 -0.2761
 2128TIP3    H2 6391   4.960   5.538   3.582  2.4758  0.3614 -0.3172
 2129TIP3   OH2 6392   5.788   1.942   2.378 -0.3001 -0.2154  0.2260
 2129TIP3    H1 6393   5.728   2.015   2.366  0.4676  0.1388 -1.7865
 2129TIP3    H2 6394   5.853   1.974   2.441 -0.3307  0.6144 -0.1561
 2130TIP3   OH2 6395   4.570   3.200   0.627  0.5042 -0.2740 -0.3117
 2130TIP3    H1 6396   4.500   3.265   0.633 -0.7924 -1.5036 -1.4202
 2130TIP3    H2 6397   4.561   3.147   0.706 -0.1472 -0.7057 -0.6618
 2131TIP3   OH2 6398   3.190   2.514   0.498  0.6007  0.1137  0.2396
 2131TIP3    H1 6399   3.108   2.491   0.453  0.0982  0.1651  1.1062
 2131TIP3    H2 6400   3.244   2.435   0.492  0.4852  0.0739 -0.3263
 2132TIP3   OH2 6401   4.854   2.204   3.183 -0.0460  0.0962 -0.7220
 2132TIP3    H1 6402   4.912   2.128   3.181 -1.7783 -1.3000 -0.2551
 2132TIP3    H2 6403   4.806   2.199   3.100  0.6047  1.3471 -1.1937
 2133TIP3   OH2 6404   2.398   5.331   3.569 -0.1228  0.6518 -0.6012
 2133TIP3    H1 6405   2.432   5.253   3.525  0.6896  1.2301 -1.0154
 2133TIP3    H2 6406   2.313   5.303   3.604  1.2065 -1.2032  1.4725
 2134TIP3   OH2 6407   4.474   2.065   3.489  0.5270 -0.1351  0.3375
 2134TIP3    H1 6408   4.439   2.128   3.426 -0.2583 -1.4502 -0.5926
 2134TIP3    H2 6409   4.566   2.090   3.499  1.2551 -0.9852 -2.8640
 2135TIP3   OH2 6410   1.589   5.729   0.117 -0.3087  0.3438 -0.0929
 2135TIP3    H1 6411   1.659   5.678   0.076 -0.3787 -0.9867  1.3400
 2135TIP3    H2 6412   1.515   5.667   0.124 -0.7689  0.9637  0.6959
 2136TIP3   OH2 6413   2.643   1.693   3.651  0.1927  0.3848  0.2357
 2136TIP3    H1 6414   2.624   1.661   3.739 -0.6813  1.1150  0.3291
 2136TIP3    H2 6415   2.563   1.738   3.624  0.5717  0.4635 -0.7981
 2137TIP3   OH2 6416   4.416   2.033   0.829 -0.1619  0.5774  0.6222
 2137TIP3    H1 6417   4.470   2.087   0.887  2.3772 -0.6437 -0.4154
 2137TIP3    H2 6418   4.468   1.953   0.816 -1.8355 -0.2976 -1.2148
 2138TIP3   OH2 6419   5.345   4.549   0.673 -1.0061  0.1893  0.4470
 2138TIP3    H1 6420   5.336   4.511   0.586  1.0694 -1.0483  0.7271
 2138TIP3    H2 6421   5.263   4.526   0.718 -0.7316 -2.1112 -0.1106
 2139TIP3   OH2 6422   0.885   3.236   0.600  0.1537 -0.7692  0.0228
 2139TIP3    H1 6423   0.812   3.205   0.547 -0.2179  0.4389 -0.1958
 2139TIP3    H2 6424   0.963   3.205   0.554 -0.1947 -1.1211 -0.3415
 2140TIP3   OH2 6425   4.339   1.416   2.595  0.3954 -0.0313 -0.1694
 2140TIP3    H1 6426   4.413   1.414   2.655 -1.5625 -3.0737  2.4977
 2140TIP3    H2 6427   4.265   1.388   2.648 -1.5820 -2.9227 -3.9907
 2141TIP3   OH2 6428   3.752   1.748   2.022 -0.0285  0.3138 -0.5592
 2141TIP3    H1 6429   3.752   1.667   2.074 -0.9284  0.6629 -0.0084
 2141TIP3    H2 6430   3.804   1.726   1.945  0.8068 -0.4078  0.1829
 2142TIP3   OH2 6431   1.454   1.207   1.455  0.0316  0.4066 -0.1014
 2142TIP3    H1 6432   1.368   1.198   1.495  0.1146  1.3911  0.3358
 2142TIP3    H2 6433   1.460   1.300   1.432  0.9892  0.3610 -0.0836
 2143TIP3   OH2 6434   5.450   3.578   2.011  0.5449 -0.2333 -0.0814
 2143TIP3    H1 6435   5.542   3.599   1.996  0.8137 -1.2979  0.0117
 2143TIP3    H2 6436   5.423   3.638   2.081  1.3867 -0.4430  0.4360
 2144TIP3   OH2 6437   1.770   4.184   0.271 -0.4063 -0.0004  0.0467
 2144TIP3    H1 6438   1.729   4.187   0.185  0.5979  0.8867 -0.4227
 2144TIP3    H2 6439   1.862   4.163   0.252 -0.0776  0.6716  0.8597
 2145TIP3   OH2 6440   1.743   2.295   1.669 -0.9811 -0.3626 -0.3995
 2145TIP3    H1 6441   1.719   2.363   1.607  0.7210  0.4239 -0.2435
 2145TIP3    H2 6442   1.669   2.291   1.730 -1.4593  0.7693 -0.8882
 2146TIP3   OH2 6443   2.056   1.750   3.443  0.0921  0.1316  0.1764
 2146TIP3    H1 6444   2.081   1.761   3.351  1.1025 -3.4282 -0.1109
 2146TIP3    H2 6445   2.104   1.820   3.488  1.4864  0.5033 -1.7205
 2147TIP3   OH2 6446   6.106   0.001   3.069 -0.9256 -0.2358 -0.1037
 2147TIP3    H1 6447   6.062  -0.001   2.984 -0.1470 -0.8733 -0.5137
 2147TIP3    H2 6448   6.154   0.084   3.069 -0.6820 -0.3752 -0.4199
 2148TIP3   OH2 6449   0.349   2.234   2.860  0.2269  0.5227  0.3145
 2148TIP3    H1 6450   0.332   2.146   2.895  0.2268  0.3786 -0.0390
 2148TIP3    H2 6451   0.366   2.219   2.767 -2.4410  1.1924 -0.3519
 2149TIP3   OH2 6452   5.346   0.727   2.885 -0.4906  0.0686 -0.6302
 2149TIP3    H1 6453   5.278   0.667   2.854 -0.2252 -0.5031 -0.1418
 2149TIP3    H2 6454   5.326   0.810   2.843 -0.8850 -0.3569 -1.3033
 2150TIP3   OH2 6455   1.400   1.476   4.560  0.0531 -0.2413 -0.0642
 2150TIP3    H1 6456   1.482   1.459   4.607 -0.8848  1.5966  2.5098
 2150TIP3    H2 6457   1.332   1.470   4.628 -1.9120 -1.1018 -1.9889
 2151TIP3   OH2 6458   4.584   2.799   0.363 -0.1488 -0.1643  0.8559
 2151TIP3    H1 6459   4.628   2.821   0.281 -0.6975 -1.6099  0.1321
 2151TIP3    H2 6460   4.641   2.833   0.432 -0.0742  1.7920 -0.1287
 2152TIP3   OH2 6461   2.291   4.846   2.919  0.2285  0.2101  0.2095
 2152TIP3    H1 6462   2.329   4.784   2.982  0.1533 -2.4443 -2.1667
 2152TIP3    H2 6463   2.367   4.886   2.876  0.5726 -2.9664 -2.5208
 2153TIP3   OH2 6464   0.594   3.194   4.832  0.5409 -0.2683 -0.0318
 2153TIP3    H1 6465   0.552   3.125   4.780  1.3102  0.3756 -1.5711
 2153TIP3    H2 6466   0.531   3.213   4.901 -0.9160 -0.5961 -1.1999
 2154TIP3   OH2 6467   1.927   1.620   3.174  0.3301  0.5524 -0.4138
 2154TIP3    H1 6468   1.953   1.546   3.229  0.1863  0.7923 -0.0100
 2154TIP3    H2 6469   1.838   1.641   3.204 -0.1014  0.1206 -1.3602
 2155TIP3   OH2 6470   3.628   5.961   3.153 -0.7211  0.4042  0.2180
 2155TIP3    H1 6471   3.662   5.988   3.068  0.3650  0.2724  0.5809
 2155TIP3    H2 6472   3.613   5.867   3.144  0.0575  0.2589  0.3680
 2156TIP3   OH2 6473   4.989   1.348   3.238  0.0454  0.4380 -0.2853
 2156TIP3    H1 6474   5.030   1.411   3.297 -0.3291  0.3633  0.0558
 2156TIP3    H2 6475   5.058   1.285   3.219 -0.1285 -0.1559  0.9489
 2157TIP3   OH2 6476   0.017   1.979   4.629  0.2314  0.1112  0.1209
 2157TIP3    H1 6477   0.012   2.017   4.541  0.0736 -0.8072 -0.2716
 2157TIP3    H2 6478  -0.009   2.051   4.687 -2.9047 -0.1181 -0.8092
 2158TIP3   OH2 6479   5.451   1.735   1.235 -0.5749 -0.3340 -0.0589
 2158TIP3    H1 6480   5.361   1.760   1.213 -0.9319 -0.4525  1.1979
 2158TIP3    H2 6481   5.453   1.734   1.331 -0.0313 -3.1354 -0.0055
 2159TIP3   OH2 6482   2.470   5.011   0.015  0.4075  0.1403  0.3808
 2159TIP3    H1 6483   2.378   5.012  -0.010  1.0203 -2.7879 -2.8703
 2159TIP3    H2 6484   2.472   4.966   0.100 -1.1985  1.6905  1.2918
 2160TIP3   OH2 6485   2.305   0.186   4.364 -0.2581 -0.1839  0.5121
 2160TIP3    H1 6486   2.364   0.134   4.309 -1.9062 -0.6112 -0.9609
 2160TIP3    H2 6487   2.338   0.174   4.453  1.7075 -0.5715 -0.2153
 2161TIP3   OH2 6488   5.262   4.176   1.289  0.2446  0.1909  0.6291
 2161TIP3    H1 6489   5.175   4.137   1.298 -0.1927  0.8311 -0.6231
 2161TIP3    H2 6490   5.322   4.105   1.312 -0.5613 -0.8110 -0.2469
 2162TIP3   OH2 6491   5.546   1.843   0.434  0.4486 -0.4994 -0.6641
 2162TIP3    H1 6492   5.582   1.915   0.485  0.0473  0.5356 -1.7926
 2162TIP3    H2 6493   5.592   1.765   0.467 -0.0867  0.0393  1.5306
 2163TIP3   OH2 6494   1.877   4.187   2.811 -0.1615 -0.0480  0.0630
 2163TIP3    H1 6495   1.879   4.121   2.880 -1.5897  0.9085  1.0823
 2163TIP3    H2 6496   1.949   4.163   2.752 -2.6060 -4.5482 -1.5877
 2164TIP3   OH2 6497   1.621   2.119   4.405 -0.3361  0.1454 -0.3165
 2164TIP3    H1 6498   1.711   2.102   4.434 -1.0058 -1.1185  1.1432
 2164TIP3    H2 6499   1.567   2.068   4.464 -2.0742  1.3060 -0.8408
 2165TIP3   OH2 6500   5.341   1.586   2.224  0.2288 -0.0214 -0.7465
 2165TIP3    H1 6501   5.379   1.671   2.200 -1.5343  1.0914  0.1923
 2165TIP3    H2 6502   5.363   1.575   2.316 -1.1170  0.3464 -0.3578
 2166TIP3   OH2 6503   4.997   1.377   4.031  0.3881 -0.0050  0.4102
 2166TIP3    H1 6504   4.916   1.427   4.042 -0.3790 -0.9809 -0.4697
 2166TIP3    H2 6505   5.066   1.434   4.065 -0.4395  1.6217 -0.5057
 2167TIP3   OH2 6506   3.207   2.933   4.541 -0.0577  0.0845  0.2690
 2167TIP3    H1 6507   3.261   3.010   4.557  1.4673 -0.6657 -1.0165
 2167TIP3    H2 6508   3.179   2.906   4.629  1.2904  0.7574  0.9492
 2168TIP3   OH2 6509   4.098   1.785   2.774 -0.2975  0.0215 -0.0351
 2168TIP3    H1 6510   4.048   1.851   2.726 -0.6669 -1.4345 -1.7554
 2168TIP3    H2 6511   4.188   1.797   2.742 -0.4339 -0.5467 -0.6426
 2169TIP3   OH2 6512   0.523   2.964   3.668 -0.0514 -0.8078 -0.1226
 2169TIP3    H1 6513   0.542   2.871   3.679 -0.9320 -0.9451  0.3374
 2169TIP3    H2 6514   0.473   2.969   3.586 -0.3570 -0.7937  0.0634
 2170TIP3   OH2 6515   2.503   5.505   3.404 -0.7207  0.2389 -0.0609
 2170TIP3    H1 6516   2.443   5.578   3.388  0.4200  1.5500  1.3486
 2170TIP3    H2 6517   2.456   5.449   3.466 -1.5638 -0.2350 -1.0787
 2171TIP3   OH2 6518   2.601   0.052   2.266  0.5755 -0.0677  0.0712
 2171TIP3    H1 6519   2.511   0.034   2.239  1.1164 -0.7153 -1.4589
 2171TIP3    H2 6520   2.594   0.123   2.330 -0.8824  1.3008 -1.5136
 2172TIP3   OH2 6521   5.446   2.132   0.374  0.1130  0.4348 -0.1259
 2172TIP3    H1 6522   5.442   2.046   0.416  2.0055 -0.3379 -1.3834
 2172TIP3    H2 6523   5.381   2.185   0.420 -1.8039 -1.9205  0.0795
 2173TIP3   OH2 6524   1.128   5.220   1.462 -0.3275  0.1367  0.1246
 2173TIP3    H1 6525   1.104   5.186   1.376 -1.7851  0.5030  0.3691
 2173TIP3    H2 6526   1.057   5.280   1.485  0.2367  0.3369  1.4183
 2174TIP3   OH2 6527   3.822   2.735   2.317  0.6199  0.0632  0.3015
 2174TIP3    H1 6528   3.816   2.830   2.330 -3.1809  0.0311 -0.1974
 2174TIP3    H2 6529   3.839   2.725   2.224 -1.3580  0.3480 -0.1392
 2175TIP3   OH2 6530   3.680   3.402   0.349 -0.1854 -0.0268  0.7538
 2175TIP3    H1 6531   3.732   3.450   0.414  0.8170  1.1676 -0.8366
 2175TIP3    H2 6532   3.702   3.310   0.364  0.7783  0.3010  1.4690
 2176TIP3   OH2 6533   1.471   4.186   4.697  0.2845 -0.1230 -0.1475
 2176TIP3    H1 6534   1.556   4.226   4.675  0.4236  0.2123  0.9432
 2176TIP3    H2 6535   1.434   4.161   4.612  0.8657  0.9784 -0.7564
 2177TIP3   OH2 6536   0.068   3.349   3.564 -1.1224  0.0917 -0.1772
 2177TIP3    H1 6537   0.143   3.409   3.569 -1.0699  0.0812 -0.8310
 2177TIP3    H2 6538   0.009   3.380   3.632 -0.8601  0.5681 -0.1595
 2178TIP3   OH2 6539   0.109   3.168   2.251 -0.1715  0.2767  0.6794
 2178TIP3    H1 6540   0.164   3.237   2.289  3.3326 -0.9380 -1.6800
 2178TIP3    H2 6541   0.129   3.090   2.303 -0.4493  0.0009  0.3740
 2179TIP3   OH2 6542   5.404   3.912   0.484 -0.2921 -0.2284 -0.0025
 2179TIP3    H1 6543   5.357   3.936   0.563  0.2420  0.3421  0.1518
 2179TIP3    H2 6544   5.480   3.863   0.515 -0.5406 -0.7665 -0.2216
 2180TIP3   OH2 6545   6.003   1.581   1.046 -0.2551 -0.1186 -0.5650
 2180TIP3    H1 6546   5.955   1.516   0.994  1.7389 -1.3121 -1.0361
 2180TIP3    H2 6547   6.022   1.537   1.129 -1.4903  0.9847  0.3434
 2181TIP3   OH2 6548   2.144   1.879   1.351 -0.0709 -0.3653 -0.2319
 2181TIP3    H1 6549   2.201   1.893   1.426  0.8392  0.5760 -1.0639
 2181TIP3    H2 6550   2.057   1.863   1.388  0.3991 -0.0857  1.0115
 2182TIP3   OH2 6551   2.610   1.229   1.034 -0.1725 -0.1369 -0.0866
 2182TIP3    H1 6552   2.547   1.162   1.011 -0.2394 -0.6297  1.4277
 2182TIP3    H2 6553   2.578   1.266   1.116  0.1441  1.3974 -0.6022
 2183TIP3   OH2 6554   2.571   0.674   4.340  0.0122  0.0754 -0.2456
 2183TIP3    H1 6555   2.592   0.620   4.416 -1.0108 -0.5098 -0.3553
 2183TIP3    H2 6556   2.523   0.615   4.282  0.1088  0.7271 -1.0042
 2184TIP3   OH2 6557   0.689   4.938   4.336  0.4708  0.4020 -0.3971
 2184TIP3    H1 6558   0.679   4.956   4.430  0.6517  0.3657 -0.3714
 2184TIP3    H2 6559   0.607   4.970   4.298 -1.0677 -2.5588  0.1753
 2185TIP3   OH2 6560   5.078   0.121   2.965  0.1079  0.1750 -0.2817
 2185TIP3    H1 6561   5.157   0.085   2.923 -0.7171 -1.8771 -0.1781
 2185TIP3    H2 6562   5.035   0.045   3.003 -1.0775  1.5030  1.1166
 2186TIP3   OH2 6563   4.235   4.408   0.294 -0.6154  0.0730  0.3364
 2186TIP3    H1 6564   4.249   4.317   0.319 -1.6860 -1.0762 -2.7788
 2186TIP3    H2 6565   4.144   4.412   0.266 -1.1947  2.6705  2.2165
 2187TIP3   OH2 6566   2.232   2.678   2.820 -0.4000 -0.1330 -0.5932
 2187TIP3    H1 6567   2.310   2.676   2.765  0.3613  1.6070  0.3558
 2187TIP3    H2 6568   2.249   2.614   2.889 -0.3671 -0.6554 -1.0808
 2188TIP3   OH2 6569   4.400   3.112   2.588 -0.1301  0.1076 -0.5291
 2188TIP3    H1 6570   4.316   3.157   2.600  0.4796  0.8940  1.1894
 2188TIP3    H2 6571   4.415   3.066   2.671  1.8572  1.3020 -0.1558
 2189TIP3   OH2 6572   5.866   5.973   1.451 -0.3731 -0.3370  0.3883
 2189TIP3    H1 6573   5.836   6.009   1.368 -1.6107  1.3416  1.4878
 2189TIP3    H2 6574   5.899   5.886   1.429 -0.4192  0.1437 -1.8746
 2190TIP3   OH2 6575   2.593   0.598   1.290  0.0342 -0.6871 -0.1303
 2190TIP3    H1 6576   2.554   0.601   1.203  1.4467 -1.4722 -0.8365
 2190TIP3    H2 6577   2.682   0.567   1.275  0.9169  0.8998  1.4059
 2191TIP3   OH2 6578   5.634   4.600   5.138 -0.4271  0.2666 -0.2164
 2191TIP3    H1 6579   5.567   4.535   5.118 -3.7213  3.4969 -0.7237
 2191TIP3    H2 6580   5.635   4.658   5.061  0.3588  2.3447  1.2626
 2192TIP3   OH2 6581   5.241   1.099   1.025  0.2225 -0.0484 -0.5811
 2192TIP3    H1 6582   5.281   1.182   1.051  0.3634 -0.6582  1.2631
 2192TIP3    H2 6583   5.224   1.110   0.931  1.2388  1.6395 -0.6211
 2193TIP3   OH2 6584   1.287   4.698   3.577 -0.7203  0.0053  0.2445
 2193TIP3    H1 6585   1.281   4.640   3.653 -0.3188  0.4898  0.6509
 2193TIP3    H2 6586   1.279   4.786   3.612 -1.4493  0.2051 -0.3874
 2194TIP3   OH2 6587   0.308   1.534   3.258  0.1378 -0.0670  0.0657
 2194TIP3    H1 6588   0.387   1.553   3.207  0.4131 -1.5696 -0.1256
 2194TIP3    H2 6589   0.335   1.466   3.320 -1.1931 -1.2765 -0.6102
 2195TIP3   OH2 6590   2.513   2.441   0.160  1.1550  0.2563  0.1696
 2195TIP3    H1 6591   2.557   2.524   0.181  0.7335  0.4474  0.2999
 2195TIP3    H2 6592   2.441   2.466   0.102  0.3283  0.1306  1.1222
 2196TIP3   OH2 6593   6.136   3.284   3.111  0.8215 -0.1919 -0.2868
 2196TIP3    H1 6594   6.143   3.341   3.188 -0.2379  1.8647 -1.6350
 2196TIP3    H2 6595   6.098   3.203   3.144 -0.0994  0.8397  1.2780
 2197TIP3   OH2 6596   3.871   3.993   1.777 -0.3253 -0.0294  0.0310
 2197TIP3    H1 6597   3.887   3.901   1.758 -1.5582 -0.0334 -1.1327
 2197TIP3    H2 6598   3.900   4.004   1.868 -0.8892 -1.7445  0.4592
 2198TIP3   OH2 6599   1.766   4.344   3.357 -0.1597 -0.0781  0.2924
 2198TIP3    H1 6600   1.781   4.333   3.451  1.5426  1.0277  0.1911
 2198TIP3    H2 6601   1.837   4.401   3.328 -1.3197  0.5500 -1.4623
 2199TIP3   OH2 6602   3.013   2.717   3.515  0.5061 -0.5765 -0.4901
 2199TIP3    H1 6603   3.095   2.672   3.494  0.5289 -0.7784  0.0242
 2199TIP3    H2 6604   2.958   2.650   3.556  0.2047 -0.3602 -0.5329
 2200TIP3   OH2 6605   4.648   0.099   4.979 -0.1001 -0.0607  0.2628
 2200TIP3    H1 6606   4.616   0.110   4.890  0.5244  0.8916  0.1467
 2200TIP3    H2 6607   4.744   0.104   4.971 -0.0448  0.1979  1.0085
 2201TIP3   OH2 6608   1.449   0.643   4.928  0.3987 -0.4569 -0.1871
 2201TIP3    H1 6609   1.544   0.647   4.916  0.4112 -0.7332 -0.1921
 2201TIP3    H2 6610   1.430   0.705   4.998  0.6854 -1.0320  0.4020
 2202TIP3   OH2 6611   3.032   0.525   3.452  0.0641  0.2330 -0.2806
 2202TIP3    H1 6612   3.110   0.503   3.401 -0.0796  2.2331 -1.4734
 2202TIP3    H2 6613   3.048   0.614   3.483 -0.3722 -0.4840  2.2507
 2203TIP3   OH2 6614   4.468   0.566   1.050  0.0877  0.3957 -0.5345
 2203TIP3    H1 6615   4.515   0.573   1.133 -0.0918 -0.2708 -0.3728
 2203TIP3    H2 6616   4.500   0.485   1.010 -0.6708  0.1120 -0.5820
 2204TIP3   OH2 6617   1.973   5.876   2.114  0.1677  0.1640 -0.1185
 2204TIP3    H1 6618   1.959   5.784   2.134  2.9889 -0.6815 -1.6031
 2204TIP3    H2 6619   1.943   5.887   2.024  1.9318  0.1112 -0.7334
 2205TIP3   OH2 6620   5.765   4.479   1.204  0.2601 -0.1993 -0.3642
 2205TIP3    H1 6621   5.811   4.446   1.282  1.7715  2.4901  0.0172
 2205TIP3    H2 6622   5.832   4.479   1.136  0.0440  1.0730 -0.5981
 2206TIP3   OH2 6623   3.921   1.348   4.095 -0.8844 -0.4243  0.4464
 2206TIP3    H1 6624   4.008   1.363   4.131 -0.8810  1.2047 -0.1677
 2206TIP3    H2 6625   3.937   1.312   4.007 -0.7938  0.7933 -0.0502
 2207TIP3   OH2 6626   0.117   2.825   4.256 -0.0823 -0.6075 -0.3094
 2207TIP3    H1 6627   0.165   2.847   4.176  0.1925  1.3401  0.3379
 2207TIP3    H2 6628   0.030   2.864   4.243  0.0120 -0.1519  0.3861
 2208TIP3   OH2 6629   2.598   2.150   2.442 -0.5514 -0.1792  0.1037
 2208TIP3    H1 6630   2.630   2.081   2.500  0.4948  1.2689  1.3254
 2208TIP3    H2 6631   2.569   2.219   2.501 -0.7338  0.8040 -1.1017
 2209TIP3   OH2 6632   2.102   1.923   4.132 -0.0902  0.8537  0.0825
 2209TIP3    H1 6633   2.136   1.932   4.043 -1.5635  2.0739 -0.4011
 2209TIP3    H2 6634   2.069   2.010   4.154  0.3217  0.5983  1.8752
 2210TIP3   OH2 6635   3.904   0.071   2.266 -0.1310 -0.6319  0.4225
 2210TIP3    H1 6636   3.946  -0.001   2.218 -0.1279 -1.0771  1.0832
 2210TIP3    H2 6637   3.942   0.151   2.228  2.5370 -1.0075  2.0332
 2211TIP3   OH2 6638   3.373   1.128   3.524  0.1585 -0.2044  0.3606
 2211TIP3    H1 6639   3.298   1.187   3.526 -2.0156 -2.7677  1.0154
 2211TIP3    H2 6640   3.417   1.142   3.607  1.0623  2.0206 -0.4313
 2212TIP3   OH2 6641   1.999   5.313   1.932  0.4112  0.0454  0.2558
 2212TIP3    H1 6642   2.066   5.253   1.899  0.1300 -1.8309  2.8068
 2212TIP3    H2 6643   1.920   5.289   1.882  0.5049 -1.1588  0.6549
 2213TIP3   OH2 6644   5.649   4.570   2.423 -0.0873  0.6346  0.1131
 2213TIP3    H1 6645   5.704   4.636   2.380 -1.4130  1.9348  0.3557
 2213TIP3    H2 6646   5.559   4.594   2.401 -0.6543 -0.5403  0.9930
 2214TIP3   OH2 6647   5.028   0.842   2.044  0.7730  0.1310 -0.3444
 2214TIP3    H1 6648   4.974   0.775   2.002  0.8346  0.1272 -0.4199
 2214TIP3    H2 6649   5.110   0.797   2.066  0.3978 -0.0949  0.6075
 2215TIP3   OH2 6650   2.268   5.572   3.732 -0.1453 -0.5557  0.2212
 2215TIP3    H1 6651   2.309   5.611   3.655  0.2966 -0.8524  0.3039
 2215TIP3    H2 6652   2.191   5.627   3.748  0.2174  0.0082  0.0649
 2216TIP3   OH2 6653   5.767   0.977   2.307 -0.7420  0.1048 -0.5245
 2216TIP3    H1 6654   5.845   0.950   2.355 -0.6535  2.3950  0.7622
 2216TIP3    H2 6655   5.778   1.071   2.293 -2.9895  0.3982 -0.8194
 2217TIP3   OH2 6656   5.014   0.494   5.078 -0.5383  0.2864  0.4263
 2217TIP3    H1 6657   5.083   0.478   5.013 -0.1029 -1.1149  1.1782
 2217TIP3    H2 6658   5.004   0.589   5.080  0.8576  0.4762 -0.2318
 2218TIP3   OH2 6659   2.235   5.637   3.453  0.4174  0.0302  0.1520
 2218TIP3    H1 6660   2.155   5.685   3.475  0.8809 -0.2752  2.8249
 2218TIP3    H2 6661   2.205   5.565   3.397 -0.8280  1.1501 -0.6810
 2219TIP3   OH2 6662   5.481   5.178   0.811  0.4431 -0.2884  0.0068
 2219TIP3    H1 6663   5.445   5.159   0.897 -0.2173  0.3571 -0.1137
 2219TIP3    H2 6664   5.429   5.124   0.751 -0.4209  0.7151 -0.1779
 2220TIP3   OH2 6665   0.978   4.805   2.974 -0.3407  0.4397 -0.0654
 2220TIP3    H1 6666   0.978   4.814   3.070 -1.5134  1.9858 -0.1801
 2220TIP3    H2 6667   1.054   4.749   2.956  0.0100  0.2570  1.7476
 2221TIP3   OH2 6668   1.550   1.917   3.898 -0.3944 -0.3491 -0.1823
 2221TIP3    H1 6669   1.540   1.847   3.962  2.0151  0.5401  1.3376
 2221TIP3    H2 6670   1.570   1.995   3.950 -1.7771  1.2372 -1.8700
 2222TIP3   OH2 6671   4.925   3.027   0.784 -0.0334 -0.0789  0.4684
 2222TIP3    H1 6672   4.903   3.047   0.875 -1.8177 -1.7573  0.4760
 2222TIP3    H2 6673   4.970   2.942   0.788  3.4986  1.5832  0.0705
 2223TIP3   OH2 6674   3.922   1.210   2.284  0.0729 -0.8920  0.0652
 2223TIP3    H1 6675   3.886   1.229   2.198  0.3929  1.7590  0.4376
 2223TIP3    H2 6676   3.996   1.270   2.293  0.0388 -1.1062  2.1962
 2224TIP3   OH2 6677   4.691   4.560   2.222  0.2363 -0.4147 -0.5643
 2224TIP3    H1 6678   4.739   4.480   2.243  2.1844  0.7316 -0.4868
 2224TIP3    H2 6679   4.687   4.560   2.126  0.3038 -0.5537 -0.5682
 2225TIP3   OH2 6680   0.879   1.011   3.173 -0.0880  0.0911 -0.3452
 2225TIP3    H1 6681   0.840   1.023   3.087 -0.7397  0.1360 -0.0487
 2225TIP3    H2 6682   0.930   1.091   3.188  0.7356 -0.2846 -1.0449
 2226TIP3   OH2 6683   5.892   5.023   3.647 -0.0809  0.1317  0.1838
 2226TIP3    H1 6684   5.876   5.080   3.722  0.9046  1.4267 -0.5516
 2226TIP3    H2 6685   5.828   4.952   3.657 -0.3561  0.5673  1.9203
 2227TIP3   OH2 6686   1.293   4.686   5.120 -0.2868 -0.4180  0.4913
 2227TIP3    H1 6687   1.270   4.763   5.068  0.8578 -0.1257  0.3905
 2227TIP3    H2 6688   1.325   4.721   5.203 -3.6599 -0.8934  2.2117
 2228TIP3   OH2 6689   3.931   0.672   4.757  0.0091 -0.3265  0.1748
 2228TIP3    H1 6690   3.965   0.683   4.846  0.0942  0.0495  0.0925
 2228TIP3    H2 6691   3.836   0.662   4.770 -0.0236  0.1191  0.2723
 2229TIP3   OH2 6692   0.729   4.062   5.017 -0.1221  0.6467  0.3193
 2229TIP3    H1 6693   0.770   4.054   5.103  0.7167  0.4361 -0.0859
 2229TIP3    H2 6694   0.646   4.015   5.025  1.1894 -1.8816  0.2576
 2230TIP3   OH2 6695   5.094   1.480   1.817 -0.1020 -0.0313 -0.1882
 2230TIP3    H1 6696   5.103   1.414   1.749 -3.2212  1.2112 -1.9996
 2230TIP3    H2 6697   5.131   1.560   1.778  1.2727 -0.0544  0.9840
 2231TIP3   OH2 6698   4.363   4.805   3.302  0.3608 -0.4243  0.6663
 2231TIP3    H1 6699   4.414   4.860   3.361  0.7255  1.6006 -1.3773
 2231TIP3    H2 6700   4.428   4.768   3.242 -0.2318 -0.4340  0.0144
 2232TIP3   OH2 6701   0.347   1.534   2.931 -0.5319  0.0832 -0.1068
 2232TIP3    H1 6702   0.255   1.555   2.949 -0.2803 -0.3159  1.8726
 2232TIP3    H2 6703   0.363   1.454   2.980  0.4542 -0.7937 -1.8027
 2233TIP3   OH2 6704   3.985   1.951   1.396  0.2614  0.8698 -0.5582
 2233TIP3    H1 6705   4.012   2.040   1.419  0.2843  0.6757  0.1760
 2233TIP3    H2 6706   3.899   1.940   1.437  0.8444  0.0896  0.5197
 2234TIP3   OH2 6707   4.241   4.894   1.643 -0.0935 -0.4643 -0.0041
 2234TIP3    H1 6708   4.329   4.860   1.627  0.0082  0.7795 -2.4728
 2234TIP3    H2 6709   4.194   4.880   1.561 -1.1204  2.0221  0.0634
 2235TIP3   OH2 6710   6.162   4.976   3.103 -0.1055  0.5383  0.3025
 2235TIP3    H1 6711   6.160   4.890   3.144 -0.4204  1.2706  1.8971
 2235TIP3    H2 6712   6.198   5.034   3.170  2.1682  1.3149 -1.4593
 2236TIP3   OH2 6713   4.920   5.709   4.795  0.7956 -0.4958  0.2993
 2236TIP3    H1 6714   4.883   5.700   4.883 -0.6534  2.8334  0.1934
 2236TIP3    H2 6715   5.015   5.708   4.808  0.6011 -0.4018  1.8561
 2237TIP3   OH2 6716   3.456   4.828   4.958  1.1160 -0.3375 -0.4835
 2237TIP3    H1 6717   3.511   4.828   4.880  1.8763 -1.7249  0.0166
 2237TIP3    H2 6718   3.435   4.736   4.973  0.0669  0.0125  0.3184
 2238TIP3   OH2 6719   0.426   3.064   2.760  0.3047 -0.3398 -0.2151
 2238TIP3    H1 6720   0.453   3.131   2.697 -1.3066 -0.2733 -0.8942
 2238TIP3    H2 6721   0.411   2.986   2.707 -3.7155  0.4109 -0.5169
 2239TIP3   OH2 6722   3.083   1.627   0.500 -0.5907 -0.0333  0.1797
 2239TIP3    H1 6723   3.118   1.560   0.559 -0.3169  0.6153  0.7751
 2239TIP3    H2 6724   2.991   1.636   0.527 -0.7614 -0.5223 -0.2362
 2240TIP3   OH2 6725   2.662   0.885   4.107  0.2211  0.1000 -0.0063
 2240TIP3    H1 6726   2.633   0.937   4.032 -0.6975  1.3779  1.1525
 2240TIP3    H2 6727   2.644   0.795   4.083 -0.0258  0.4806 -1.3246
 2241TIP3   OH2 6728   5.871   4.068   2.182  0.1535 -0.4523 -0.0152
 2241TIP3    H1 6729   5.882   3.985   2.136 -1.4292  0.7089 -2.7164
 2241TIP3    H2 6730   5.784   4.062   2.222 -0.1489  0.0561 -0.5921
 2242TIP3   OH2 6731   2.883   5.149   4.566  0.2720  0.4447 -0.7065
 2242TIP3    H1 6732   2.923   5.207   4.631  2.1909 -3.4059  1.8993
 2242TIP3    H2 6733   2.789   5.153   4.585  0.2385  2.9239 -1.0105
 2243TIP3   OH2 6734   2.020   0.752   4.226  1.0122 -0.2972 -0.6043
 2243TIP3    H1 6735   2.088   0.815   4.251  1.0599 -1.2538  1.9065
 2243TIP3    H2 6736   1.959   0.752   4.299 -1.3629 -0.0427 -2.4586
 2244TIP3   OH2 6737   4.355   1.757   1.196  0.1310  0.2940 -0.7108
 2244TIP3    H1 6738   4.306   1.722   1.121  1.4702 -1.1460 -0.9574
 2244TIP3    H2 6739   4.357   1.685   1.259  1.9528  0.2695 -0.7405
 2245TIP3   OH2 6740   2.050   5.730   3.853  0.6990  0.6149 -0.3306
 2245TIP3    H1 6741   2.033   5.740   3.947  0.9662 -0.3380 -0.1698
 2245TIP3    H2 6742   1.964   5.721   3.813  0.5807  1.1132 -0.1930
 2246TIP3   OH2 6743   4.454   2.365   3.325 -0.1688  0.4296  0.4081
 2246TIP3    H1 6744   4.524   2.409   3.277  0.6445 -0.6386  0.5697
 2246TIP3    H2 6745   4.473   2.383   3.417 -0.0691  0.1024  0.4542
 2247TIP3   OH2 6746   0.411   1.694   1.773  0.7116 -0.4700 -0.3824
 2247TIP3    H1 6747   0.497   1.656   1.788 -0.6556 -5.2517 -2.6499
 2247TIP3    H2 6748   0.352   1.644   1.829 -0.8629  1.8760  0.2399
 2248TIP3   OH2 6749   1.299   4.650   1.651  0.0582  0.1912  0.0629
 2248TIP3    H1 6750   1.251   4.693   1.721 -0.7706 -1.1781  0.3821
 2248TIP3    H2 6751   1.297   4.711   1.578 -0.7118  0.8458  0.6217
 2249TIP3   OH2 6752   4.955   3.418   0.080  0.2838  0.0546  0.2268
 2249TIP3    H1 6753   5.000   3.340   0.115  0.2534  0.2415  0.6828
 2249TIP3    H2 6754   4.972   3.414  -0.014  0.5749 -0.3185  0.2900
 2250TIP3   OH2 6755   2.858   0.900   4.324  0.2273  0.1171  0.2136
 2250TIP3    H1 6756   2.840   0.832   4.390 -0.3924  0.5155  0.4595
 2250TIP3    H2 6757   2.809   0.873   4.247  0.6750 -0.1648  0.0209
 2251TIP3   OH2 6758   2.358   5.808   4.116 -0.8827  0.2134  0.2976
 2251TIP3    H1 6759   2.371   5.741   4.048 -0.7132 -0.2567  0.7827
 2251TIP3    H2 6760   2.326   5.884   4.068 -0.1437  0.1067 -0.3974
 2252TIP3   OH2 6761   4.162   4.823   0.158 -0.5088 -0.2771 -1.0146
 2252TIP3    H1 6762   4.097   4.834   0.227 -1.0507 -0.0012 -1.5623
 2252TIP3    H2 6763   4.157   4.730   0.135 -1.9502  0.0634 -2.2389
 2253TIP3   OH2 6764   1.390   1.820   4.963  0.5105  0.0490  0.0929
 2253TIP3    H1 6765   1.430   1.796   4.879  2.1616  1.4227  0.4340
 2253TIP3    H2 6766   1.415   1.750   5.022 -1.5833 -1.5039 -0.7541
 2254TIP3   OH2 6767   1.402   3.625   5.105 -0.5641  0.9476 -0.2108
 2254TIP3    H1 6768   1.376   3.533   5.103  1.2830  0.3817  0.1520
 2254TIP3    H2 6769   1.391   3.655   5.015  2.4497 -0.7624 -1.2841
 2255TIP3   OH2 6770   0.502   1.801   1.304  0.0251 -0.4404  0.1087
 2255TIP3    H1 6771   0.507   1.774   1.212  0.3828 -2.1736  0.5925
 2255TIP3    H2 6772   0.471   1.722   1.350 -2.3991  1.0291  1.2158
 2256TIP3   OH2 6773   4.087   1.594   0.407  0.3538  0.7140 -0.6616
 2256TIP3    H1 6774   4.149   1.622   0.339 -0.9330  2.6667 -1.1037
 2256TIP3    H2 6775   4.128   1.619   0.489  1.0509  0.1007 -0.8083
 2257TIP3   OH2 6776   0.502   3.825   1.589 -0.4116 -0.0048  0.3736
 2257TIP3    H1 6777   0.411   3.846   1.611 -0.3144 -0.2065  0.9872
 2257TIP3    H2 6778   0.538   3.906   1.554 -0.4131  0.4887  1.4988
 2258TIP3   OH2 6779   5.636   3.471   0.058 -0.3648  0.1627 -0.4812
 2258TIP3    H1 6780   5.714   3.417   0.069 -0.8464 -1.0671 -2.6041
 2258TIP3    H2 6781   5.576   3.440   0.127 -0.0326 -0.8918 -0.6513
 2259TIP3   OH2 6782   3.152   4.163   0.082 -0.0288 -0.1454 -0.3058
 2259TIP3    H1 6783   3.186   4.216   0.154  1.5682  0.6713 -1.5983
 2259TIP3    H2 6784   3.072   4.123   0.117  0.2027  0.9515  1.5939
 2260TIP3   OH2 6785   1.252   0.284   4.050  0.0759 -0.2210 -0.0422
 2260TIP3    H1 6786   1.174   0.288   3.994 -0.6600 -0.2043  0.9403
 2260TIP3    H2 6787   1.326   0.292   3.990 -0.6251 -1.8298 -1.1765
 2261TIP3   OH2 6788   2.251   3.870   4.616 -0.3290  0.3496 -0.1301
 2261TIP3    H1 6789   2.318   3.934   4.592  0.7026 -0.7698 -0.3407
 2261TIP3    H2 6790   2.256   3.804   4.547 -1.7488  0.2980 -0.2114
 2262TIP3   OH2 6791   2.768   4.381   0.990 -0.3637  0.0048 -0.3124
 2262TIP3    H1 6792   2.788   4.293   1.023  1.2584 -0.0688 -1.4126
 2262TIP3    H2 6793   2.761   4.435   1.068  2.4667 -0.3521  0.2640
 2263TIP3   OH2 6794   4.576   2.654   1.576 -0.3588  0.4332 -0.5298
 2263TIP3    H1 6795   4.543   2.566   1.593 -1.1631  1.2240  2.6565
 2263TIP3    H2 6796   4.619   2.647   1.491 -3.9699 -1.9782 -2.4274
 2264TIP3   OH2 6797   1.991   5.969   4.692 -0.1334  0.5857  0.3048
 2264TIP3    H1 6798   1.902   5.939   4.713 -0.5046  1.5561  0.1577
 2264TIP3    H2 6799   1.978   6.050   4.642  0.7976 -0.1502 -1.1889
 2265TIP3   OH2 6800   5.581   3.697   2.214  0.1536  0.1326  0.0288
 2265TIP3    H1 6801   5.561   3.621   2.269 -1.4022  0.2623 -0.3098
 2265TIP3    H2 6802   5.568   3.772   2.272  0.2172  0.1914 -0.0335
 2266TIP3   OH2 6803   5.824   4.910   0.874  0.3056  0.0355  0.0400
 2266TIP3    H1 6804   5.885   4.948   0.938  1.8477 -2.3047  0.0492
 2266TIP3    H2 6805   5.781   4.839   0.921 -1.1481  0.4793 -0.5423
 2267TIP3   OH2 6806   6.061   3.768   1.796  0.0431  0.2098 -0.6623
 2267TIP3    H1 6807   6.117   3.717   1.855  0.5930  1.6408  0.1037
 2267TIP3    H2 6808   6.051   3.853   1.839 -0.8092  0.7778 -1.9097
 2268TIP3   OH2 6809   3.587   2.862   0.737  0.7241 -0.1385  0.6462
 2268TIP3    H1 6810   3.645   2.797   0.699 -0.6227 -0.6880 -0.5735
 2268TIP3    H2 6811   3.615   2.945   0.698  0.0160 -0.5596 -0.8608
 2269TIP3   OH2 6812   2.563   0.313   0.171  0.3718 -0.2676  0.4640
 2269TIP3    H1 6813   2.505   0.348   0.238 -0.8245 -2.6366  0.7540
 2269TIP3    H2 6814   2.650   0.343   0.197  0.2902 -2.7002  4.3486
 2270TIP3   OH2 6815   1.810   4.611   2.063 -0.1628 -0.3062 -0.0491
 2270TIP3    H1 6816   1.847   4.574   2.144 -0.1166 -0.4726 -0.1455
 2270TIP3    H2 6817   1.771   4.694   2.090 -1.2506 -0.9396  0.3933
 2271TIP3   OH2 6818   4.607   3.578   3.697 -0.0490  0.0387 -0.1841
 2271TIP3    H1 6819   4.612   3.483   3.710  0.4282 -0.2420 -2.0887
 2271TIP3    H2 6820   4.514   3.596   3.687 -0.3625  0.1636  2.4857
 2272TIP3   OH2 6821   4.510   0.769   1.634 -0.0542 -0.1846 -0.7382
 2272TIP3    H1 6822   4.460   0.693   1.605  0.4161 -0.5045 -0.7211
 2272TIP3    H2 6823   4.563   0.736   1.706 -1.0218  0.5371  0.3435
 2273TIP3   OH2 6824   5.619   2.299   3.235  0.0503  0.3038 -0.7119
 2273TIP3    H1 6825   5.711   2.271   3.235 -0.1349 -0.4429  1.1525
 2273TIP3    H2 6826   5.622   2.391   3.210  1.1018 -0.1713 -2.5927
 2274TIP3   OH2 6827   5.743   2.331   4.789  0.2707  0.0499  0.1939
 2274TIP3    H1 6828   5.699   2.249   4.768 -1.6865  1.2142 -0.5428
 2274TIP3    H2 6829   5.734   2.339   4.884 -1.9118  0.6018  0.0040
 2275TIP3   OH2 6830   4.082   3.442   4.566  0.1975 -0.6449  0.4470
 2275TIP3    H1 6831   3.996   3.400   4.560 -0.0191 -0.3279  1.2552
 2275TIP3    H2 6832   4.144   3.369   4.564 -0.0159 -0.8214 -1.2523
 2276TIP3   OH2 6833   1.394   4.697   1.970  0.2216  0.3796  0.3153
 2276TIP3    H1 6834   1.481   4.693   2.010  0.9755  0.0240 -1.2489
 2276TIP3    H2 6835   1.375   4.607   1.945 -1.4871  0.1052  2.3039
 2277TIP3   OH2 6836   2.441   5.002   4.399 -0.0180 -0.2154 -0.0344
 2277TIP3    H1 6837   2.447   4.945   4.476 -0.4785  1.0773  0.9984
 2277TIP3    H2 6838   2.513   4.975   4.343  0.7967 -0.6853  1.2137
 2278TIP3   OH2 6839   4.245   2.158   4.289  0.1494  0.0543  0.3729
 2278TIP3    H1 6840   4.170   2.104   4.263  0.2976  0.6208 -1.3743
 2278TIP3    H2 6841   4.265   2.129   4.377  0.0849 -2.6165 -0.3859
 2279TIP3   OH2 6842   0.578   2.148   3.149 -0.3803  1.0028  0.1587
 2279TIP3    H1 6843   0.616   2.081   3.091  0.8767  0.9135  1.0684
 2279TIP3    H2 6844   0.517   2.195   3.092 -0.4851 -0.2084 -0.7906
 2280TIP3   OH2 6845   5.981   0.825   3.481 -0.0272 -0.5453  0.0992
 2280TIP3    H1 6846   5.933   0.835   3.563  0.1777 -0.8769  0.2597
 2280TIP3    H2 6847   5.922   0.775   3.425  0.0350 -0.7543  0.2185
 2281TIP3   OH2 6848   3.279   4.670   2.682  0.4868 -0.1619 -0.1081
 2281TIP3    H1 6849   3.193   4.632   2.665  0.1960  0.8510 -0.9860
 2281TIP3    H2 6850   3.301   4.716   2.602  0.8686  1.4397  0.8764
 2282TIP3   OH2 6851   4.694   3.912   1.740 -0.1753 -0.0679  0.0514
 2282TIP3    H1 6852   4.734   3.826   1.731 -0.9271 -0.6299  1.7374
 2282TIP3    H2 6853   4.618   3.909   1.682  0.9422  0.2554 -1.5179
 2283TIP3   OH2 6854   1.531   0.139   4.387  0.5461  0.1289 -0.5377
 2283TIP3    H1 6855   1.509   0.231   4.373  0.6745  0.2058 -0.2440
 2283TIP3    H2 6856   1.618   0.141   4.426  1.0222 -0.1739 -1.5632
 2284TIP3   OH2 6857   1.996   1.396   5.190  0.0018  0.8438 -0.4883
 2284TIP3    H1 6858   2.025   1.336   5.121  0.5614  0.3200  0.1819
 2284TIP3    H2 6859   2.043   1.477   5.173 -0.9666  1.2134 -1.5668
 2285TIP3   OH2 6860   3.079   2.693   4.151 -0.1465  0.6957 -0.5745
 2285TIP3    H1 6861   3.155   2.744   4.123 -2.1851  3.2677 -1.7605
 2285TIP3    H2 6862   3.072   2.710   4.245 -1.0588  3.1344 -1.0230
 2286TIP3   OH2 6863   0.006   4.230   4.678 -0.1186 -0.4792 -0.4076
 2286TIP3    H1 6864   0.061   4.273   4.613 -0.2810 -1.2606 -1.0767
 2286TIP3    H2 6865  -0.033   4.302   4.728  2.4836  0.0951  0.9774
 2287TIP3   OH2 6866   5.506   1.173   3.000 -0.2461  0.6767  0.2945
 2287TIP3    H1 6867   5.582   1.133   2.957 -2.3121 -0.5939 -2.4409
 2287TIP3    H2 6868   5.456   1.099   3.035 -1.5122  1.2464 -0.2413
 2288TIP3   OH2 6869   3.589   3.376   1.576  0.4041 -0.3540 -1.0213
 2288TIP3    H1 6870   3.502   3.408   1.553 -0.2438 -0.2957  1.2230
 2288TIP3    H2 6871   3.583   3.281   1.566 -0.5635 -0.5440  0.8343
 2289TIP3   OH2 6872   0.905   4.422   0.012 -0.0004  0.3469  0.8167
 2289TIP3    H1 6873   0.944   4.378   0.087 -0.2601 -2.0455 -0.3235
 2289TIP3    H2 6874   0.901   4.354  -0.056 -1.6712  1.8149 -0.6820
 2290TIP3   OH2 6875   5.189   0.156   3.783 -0.3768  0.1091  0.0042
 2290TIP3    H1 6876   5.181   0.190   3.872 -0.0114  0.0422  0.0647
 2290TIP3    H2 6877   5.265   0.201   3.746  0.1931 -0.7156  0.1333
 2291TIP3   OH2 6878   4.753   2.855   2.061 -0.9768  0.4038 -0.0280
 2291TIP3    H1 6879   4.831   2.906   2.038 -2.2517  2.5548  0.1465
 2291TIP3    H2 6880   4.720   2.822   1.977 -0.8958  1.0117 -0.3003
 2292TIP3   OH2 6881   4.693   1.368   1.996  0.4513 -0.0679  0.9210
 2292TIP3    H1 6882   4.725   1.282   2.024 -0.8299 -0.1742  2.1905
 2292TIP3    H2 6883   4.635   1.349   1.922  1.5901 -0.0844  0.0074
 2293TIP3   OH2 6884   1.745   1.854   4.673 -0.4840  0.4899 -0.6173
 2293TIP3    H1 6885   1.717   1.888   4.758  1.0108 -1.1831  0.6298
 2293TIP3    H2 6886   1.812   1.916   4.643 -0.6402  0.8054 -0.3104
 2294TIP3   OH2 6887   2.243   5.313   3.801 -0.2275 -0.5526 -0.6619
 2294TIP3    H1 6888   2.305   5.290   3.871 -0.8407 -1.7949 -0.4955
 2294TIP3    H2 6889   2.259   5.406   3.785  2.5330 -1.0884 -1.4900
 2295TIP3   OH2 6890   4.233   1.391   3.536 -0.6183  0.1618 -0.0470
 2295TIP3    H1 6891   4.295   1.459   3.564  1.4064 -1.6178  0.0997
 2295TIP3    H2 6892   4.189   1.364   3.617 -0.6549  0.5505  0.0662
 2296TIP3   OH2 6893   0.792   1.166   3.393  0.2515 -0.2249  0.2111
 2296TIP3    H1 6894   0.766   1.079   3.363 -1.1986 -0.2310  1.3814
 2296TIP3    H2 6895   0.848   1.200   3.323 -0.2034 -1.5910 -0.8484
 2297TIP3   OH2 6896   4.849   4.461   1.983 -0.1452 -0.1486 -0.1369
 2297TIP3    H1 6897   4.805   4.509   1.913  0.0484 -0.1300 -0.2466
 2297TIP3    H2 6898   4.941   4.485   1.974 -0.2938  0.9095  0.9573
 2298TIP3   OH2 6899   0.720   1.998   0.440 -0.4615 -0.3892 -0.3986
 2298TIP3    H1 6900   0.628   1.973   0.435 -1.1850  2.1506 -1.3389
 2298TIP3    H2 6901   0.726   2.079   0.389  2.0749  0.1631  0.6108
 2299TIP3   OH2 6902   4.092   4.912   3.793 -0.3003 -0.1660  0.3966
 2299TIP3    H1 6903   4.015   4.855   3.794  0.0266 -0.6205 -0.0308
 2299TIP3    H2 6904   4.065   4.988   3.845 -1.3108  0.0551 -0.4120
 2300TIP3   OH2 6905   5.583   1.153   4.906 -0.3229  0.1318  0.2431
 2300TIP3    H1 6906   5.527   1.089   4.863 -1.1366 -0.0253  1.4726
 2300TIP3    H2 6907   5.621   1.106   4.980  1.5819  0.1974 -0.6287
 2301TIP3   OH2 6908   0.377   3.624   1.091 -0.3036  0.1044 -0.3721
 2301TIP3    H1 6909   0.409   3.713   1.078 -0.1395 -0.0910 -1.3359
 2301TIP3    H2 6910   0.352   3.621   1.184 -0.9795  1.3615 -0.4950
 2302TIP3   OH2 6911   0.802   4.003   0.015  0.6676 -0.8323 -0.0032
 2302TIP3    H1 6912   0.744   4.079   0.008  0.0511 -1.0613  1.8594
 2302TIP3    H2 6913   0.844   4.013   0.101  1.1082 -2.2152 -0.0265
 2303TIP3   OH2 6914   4.483   0.086   3.223 -0.1480 -0.1747 -0.5649
 2303TIP3    H1 6915   4.551   0.044   3.276  1.1148  0.2577 -1.8049
 2303TIP3    H2 6916   4.404   0.077   3.276  0.9657 -0.1608  1.1962
 2304TIP3   OH2 6917   1.366   1.006   1.951 -0.2658 -0.1076  0.2073
 2304TIP3    H1 6918   1.354   0.981   1.859  1.8030 -0.9256  0.1102
 2304TIP3    H2 6919   1.305   0.949   1.999  0.7284 -1.8087 -0.4460
 2305TIP3   OH2 6920   5.125   5.687   0.325  0.9957  0.3338  0.4244
 2305TIP3    H1 6921   5.096   5.632   0.252  1.2023  0.5669  0.1627
 2305TIP3    H2 6922   5.077   5.769   0.314  0.4256  0.0909  1.0146
 2306TIP3   OH2 6923   3.056   5.225   1.322  0.3689  0.2350 -0.2179
 2306TIP3    H1 6924   3.057   5.203   1.415  1.1076  0.8380 -0.0758
 2306TIP3    H2 6925   3.077   5.143   1.278 -1.0666 -0.3227  0.0747
 2307TIP3   OH2 6926   1.677   0.565   4.346  0.0145  0.1214  0.5361
 2307TIP3    H1 6927   1.733   0.626   4.394  0.9056  0.2318 -0.6210
 2307TIP3    H2 6928   1.601   0.617   4.319  0.8264  0.7748 -0.5557
 2308TIP3   OH2 6929   4.441   4.048   0.164 -0.2809 -0.0249  0.2594
 2308TIP3    H1 6930   4.492   4.076   0.240 -1.4635 -0.8990  1.4059
 2308TIP3    H2 6931   4.435   4.127   0.109 -0.5646  0.9984  1.7164
 2309TIP3   OH2 6932   5.912   0.168   4.548  0.4069  0.3123  0.0768
 2309TIP3    H1 6933   5.908   0.076   4.574 -0.3305  0.2583 -0.2171
 2309TIP3    H2 6934   5.839   0.209   4.595 -0.3587  0.3983 -1.1601
 2310TIP3   OH2 6935   2.032   0.981   3.618 -0.0492  0.0090  0.0368
 2310TIP3    H1 6936   1.956   0.999   3.674 -1.0152 -2.3347 -0.3814
 2310TIP3    H2 6937   2.007   0.903   3.568  2.6906 -0.9691 -0.0008
 2311TIP3   OH2 6938   4.511   4.909   2.963 -0.0165  0.1333  0.1657
 2311TIP3    H1 6939   4.577   4.865   2.910 -0.5873 -0.0846 -0.3831
 2311TIP3    H2 6940   4.439   4.927   2.901  0.2862  2.0567  0.3062
 2312TIP3   OH2 6941   3.492   5.214   2.289 -0.0175 -0.0200  0.1748
 2312TIP3    H1 6942   3.576   5.253   2.313 -0.1118  0.0141  0.4580
 2312TIP3    H2 6943   3.428   5.282   2.311 -0.2127 -0.4582  0.9775
 2313TIP3   OH2 6944   3.007   0.793   3.256 -0.2944  0.0804  0.1975
 2313TIP3    H1 6945   3.089   0.841   3.266 -0.9034  1.0792  0.5587
 2313TIP3    H2 6946   3.032   0.711   3.213  1.0389 -0.1317  1.3102
 2314TIP3   OH2 6947   4.707   1.015   1.542  0.2745 -0.1211  0.0439
 2314TIP3    H1 6948   4.782   1.028   1.600 -0.3815  0.8899  0.7096
 2314TIP3    H2 6949   4.634   0.995   1.601 -0.0639 -0.7766 -0.5684
 2315TIP3   OH2 6950   5.773   2.374   3.572  0.1288 -0.6163  0.2054
 2315TIP3    H1 6951   5.867   2.365   3.562  0.4036  0.0250  1.8712
 2315TIP3    H2 6952   5.747   2.433   3.501  0.9137 -1.1071 -0.4996
 2316TIP3   OH2 6953   1.714   0.817   2.015  0.2405  0.5903 -0.0390
 2316TIP3    H1 6954   1.673   0.901   2.033 -0.4536  0.1858  0.3182
 2316TIP3    H2 6955   1.683   0.759   2.085 -2.2787 -0.9526 -2.2314
 2317TIP3   OH2 6956   3.310   5.738   0.847 -0.0362  0.4044  0.0154
 2317TIP3    H1 6957   3.295   5.648   0.874 -1.2364  1.6154  4.2684
 2317TIP3    H2 6958   3.390   5.736   0.796  0.2422 -2.9901  0.4077
 2318TIP3   OH2 6959   2.982   3.880   0.923 -0.1882  0.3400  0.5157
 2318TIP3    H1 6960   2.893   3.915   0.916 -0.4563 -0.5698 -1.0984
 2318TIP3    H2 6961   2.985   3.838   1.009 -1.7392 -0.6966  0.0995
 2319TIP3   OH2 6962   3.787   0.280   2.541 -0.3950  0.3462 -0.1485
 2319TIP3    H1 6963   3.736   0.268   2.621  0.2160 -0.2544  0.1606
 2319TIP3    H2 6964   3.725   0.266   2.470 -0.3684 -1.8958  0.2059
 2320TIP3   OH2 6965   1.946   0.771   1.334  0.4920 -0.4301 -0.1336
 2320TIP3    H1 6966   2.020   0.797   1.279  0.3248  0.9392  0.2714
 2320TIP3    H2 6967   1.919   0.851   1.378  0.6091 -1.4569  1.9480
 2321TIP3   OH2 6968   0.548   4.275   3.764 -0.3701 -0.4289 -0.1086
 2321TIP3    H1 6969   0.610   4.338   3.726 -1.3271  0.8693  0.4114
 2321TIP3    H2 6970   0.590   4.247   3.846 -0.8608  1.2045  0.7495
 2322TIP3   OH2 6971   3.800   3.737   0.539  0.2605 -0.4812  1.3326
 2322TIP3    H1 6972   3.862   3.767   0.473 -0.5467  0.8037  1.1267
 2322TIP3    H2 6973   3.803   3.805   0.607 -1.8888  0.3358  0.6787
 2323TIP3   OH2 6974   4.460   1.899   4.521 -0.5430  0.0738 -0.2027
 2323TIP3    H1 6975   4.392   1.872   4.461 -0.8836  0.7444 -0.1347
 2323TIP3    H2 6976   4.464   1.994   4.511 -3.0645  0.7720  3.2807
 2324TIP3   OH2 6977   3.681   5.328   4.222 -0.0234 -0.5608  0.0296
 2324TIP3    H1 6978   3.592   5.304   4.196 -0.3936  2.5828 -2.1099
 2324TIP3    H2 6979   3.723   5.357   4.141  1.2384  2.7210  1.6526
 2325TIP3   OH2 6980   1.565   2.990   4.739 -0.1190 -0.2314 -0.1411
 2325TIP3    H1 6981   1.563   3.048   4.815  1.1815  0.8043 -0.8553
 2325TIP3    H2 6982   1.481   2.943   4.743 -1.2386  1.6768  0.4694
 2326TIP3   OH2 6983   5.919   0.842   3.033 -0.1302  0.1968  0.1638
 2326TIP3    H1 6984   5.934   0.751   3.058 -0.7737 -0.2746 -1.0681
 2326TIP3    H2 6985   5.835   0.865   3.073 -2.0376 -1.1117 -2.7500
 2327TIP3   OH2 6986   0.401   4.209   3.002 -0.3923  0.3174 -0.2558
 2327TIP3    H1 6987   0.443   4.289   3.034 -1.8272  1.9624 -2.1855
 2327TIP3    H2 6988   0.463   4.172   2.940 -0.9027  1.6917 -1.6654
 2328TIP3   OH2 6989   3.038   0.871   0.402  0.4677  0.1893  0.0672
 2328TIP3    H1 6990   2.963   0.920   0.370 -0.3354 -1.3890 -0.5997
 2328TIP3    H2 6991   3.095   0.861   0.326  0.4386 -0.2248  0.0951
 2329TIP3   OH2 6992   5.276   4.189   4.141  0.6974  0.0050 -0.3531
 2329TIP3    H1 6993   5.209   4.255   4.158  1.5459  1.1884 -1.3760
 2329TIP3    H2 6994   5.325   4.183   4.222 -1.8706 -2.4748  1.1862
 2330TIP3   OH2 6995   5.094   0.602   0.479  0.2963  0.2642 -0.1888
 2330TIP3    H1 6996   5.081   0.549   0.558  0.7280  1.7538  0.9297
 2330TIP3    H2 6997   5.188   0.621   0.477  0.3014  0.2034 -1.1059
 2331TIP3   OH2 6998   5.442   1.961   0.121  0.5599 -0.0064  0.1875
 2331TIP3    H1 6999   5.363   1.985   0.072  1.1117 -1.7193 -1.7066
 2331TIP3    H2 7000   5.439   2.014   0.200 -1.4282  1.4544 -0.7920
 2332TIP3   OH2 7001   2.108   0.329   2.485 -0.3900 -0.2991  0.2728
 2332TIP3    H1 7002   2.204   0.326   2.483 -0.2787  1.8195  0.7742
 2332TIP3    H2 7003   2.083   0.245   2.525  1.3058 -0.4984  1.0137
 2333TIP3   OH2 7004   5.580   3.285   4.524  0.2271 -0.4871 -0.4570
 2333TIP3    H1 7005   5.572   3.254   4.615 -2.2366 -0.3795 -0.5743
 2333TIP3    H2 7006   5.560   3.209   4.471  0.8252 -0.3374 -0.8978
 2334TIP3   OH2 7007   4.836   5.698   5.051 -0.1098 -0.0890 -0.0828
 2334TIP3    H1 7008   4.789   5.632   5.102 -0.8746  0.6104  0.1316
 2334TIP3    H2 7009   4.920   5.707   5.097 -0.6640  0.3001  0.8853
 2335TIP3   OH2 7010   4.038   4.602   2.927  0.1257  0.4075  0.2097
 2335TIP3    H1 7011   3.971   4.643   2.873  0.0815 -0.6449 -0.5634
 2335TIP3    H2 7012   4.057   4.667   2.995 -1.9634  0.5709  0.7068
 2336TIP3   OH2 7013   5.873   0.854   2.739 -0.0498 -0.0311  0.1749
 2336TIP3    H1 7014   5.873   0.846   2.835 -0.1787 -2.9655  0.0110
 2336TIP3    H2 7015   5.822   0.779   2.709  0.1019  0.7512 -2.2473
 2337TIP3   OH2 7016   1.858   4.823   4.477 -0.1819 -0.2655  0.7633
 2337TIP3    H1 7017   1.875   4.820   4.383  0.5705 -0.2865  0.8926
 2337TIP3    H2 7018   1.941   4.796   4.517 -0.6018 -0.5955  1.4254
 2338TIP3   OH2 7019   2.555   5.968   3.022 -0.1703  0.1821  0.5417
 2338TIP3    H1 7020   2.519   5.969   2.934  1.5827 -0.4136 -0.2185
 2338TIP3    H2 7021   2.478   5.964   3.079 -1.3073 -0.6182 -0.9736
 2339TIP3   OH2 7022   4.443   0.116   1.357  0.2258  0.3659  0.0322
 2339TIP3    H1 7023   4.450   0.076   1.270 -0.2768 -1.8042  0.9204
 2339TIP3    H2 7024   4.349   0.130   1.369  0.3344  1.1267  0.0499
 2340TIP3   OH2 7025   2.809   4.070   0.583  0.2813 -0.4976 -0.0135
 2340TIP3    H1 7026   2.799   4.158   0.546  2.7211 -0.2995 -0.3353
 2340TIP3    H2 7027   2.754   4.014   0.528 -0.5856  0.6722 -0.3608
 2341TIP3   OH2 7028   2.901   2.167   0.176 -0.8248  0.1742  0.8167
 2341TIP3    H1 7029   2.930   2.084   0.137 -3.5787 -0.0242 -1.0874
 2341TIP3    H2 7030   2.839   2.202   0.113  0.1495  3.6922  1.6270
 2342TIP3   OH2 7031   5.423   1.026   4.662 -0.4635  0.2386  0.4832
 2342TIP3    H1 7032   5.400   1.008   4.571 -0.6117  0.4713  0.4733
 2342TIP3    H2 7033   5.361   0.974   4.713  1.4923 -2.2620  0.4691
 2343TIP3   OH2 7034   2.696   1.739   2.339  0.3306 -0.0269 -0.2414
 2343TIP3    H1 7035   2.669   1.800   2.270  0.3552 -2.0753 -2.1864
 2343TIP3    H2 7036   2.618   1.727   2.392 -0.5354 -0.4158 -1.5372
 2344TIP3   OH2 7037   2.254   3.529   3.270  0.0417 -0.5263  0.3685
 2344TIP3    H1 7038   2.233   3.619   3.295 -2.4121 -1.2662  1.2325
 2344TIP3    H2 7039   2.333   3.537   3.216  1.6616  1.8227  2.8094
 2345TIP3   OH2 7040   0.681   2.428   4.115  0.6096 -0.1217 -0.4548
 2345TIP3    H1 7041   0.719   2.346   4.082 -1.4705 -1.6014  0.6007
 2345TIP3    H2 7042   0.695   2.424   4.209 -0.8558 -0.0468 -0.2107
 2346TIP3   OH2 7043   4.205   4.582   4.810 -0.4100 -0.4503 -0.2940
 2346TIP3    H1 7044   4.191   4.595   4.716  1.1298  2.5395 -0.2447
 2346TIP3    H2 7045   4.298   4.558   4.817 -0.4142 -0.2706  0.4695
 2347TIP3   OH2 7046   1.875   3.905   1.506  0.0829 -0.1088 -0.0284
 2347TIP3    H1 7047   1.797   3.957   1.526 -1.9354 -3.6802  2.4688
 2347TIP3    H2 7048   1.850   3.854   1.429  1.3827  1.1245 -1.3495
 2348TIP3   OH2 7049   3.355   0.720   3.326 -0.0524 -0.0155  0.5121
 2348TIP3    H1 7050   3.317   0.808   3.328  0.5768  0.4232 -2.4076
 2348TIP3    H2 7051   3.446   0.734   3.300  0.0954 -1.5087  0.1393
 2349TIP3   OH2 7052   2.219   3.299   3.962 -0.5104 -0.2977 -0.2292
 2349TIP3    H1 7053   2.259   3.280   3.877 -1.3987  0.9614 -0.9658
 2349TIP3    H2 7054   2.134   3.255   3.959 -1.2712  1.1760 -0.7041
 2350TIP3   OH2 7055   3.698   3.130   3.283 -0.3170 -0.1135 -0.2912
 2350TIP3    H1 7056   3.750   3.145   3.362 -0.7205  0.5765 -0.1471
 2350TIP3    H2 7057   3.639   3.058   3.308 -0.1949 -0.1415 -0.0787
 2351TIP3   OH2 7058   6.283   4.124   2.944 -0.4554 -0.1125 -0.8089
 2351TIP3    H1 7059   6.240   4.039   2.955 -0.5154 -0.1058 -0.9815
 2351TIP3    H2 7060   6.345   4.129   3.016 -0.3055 -0.3937 -0.9155
 2352TIP3   OH2 7061   4.083   3.601   2.341 -0.3636 -0.3533  0.4979
 2352TIP3    H1 7062   4.022   3.643   2.281 -0.1208  0.4341  0.7906
 2352TIP3    H2 7063   4.127   3.673   2.385  1.4653 -0.8693 -0.3747
 2353TIP3   OH2 7064   3.261   5.551   0.350 -0.2883 -0.1649 -0.1790
 2353TIP3    H1 7065   3.252   5.571   0.257  2.0592  0.7640 -0.2726
 2353TIP3    H2 7066   3.298   5.463   0.352 -1.1106 -0.5187 -0.0700
 2354TIP3   OH2 7067   5.747   0.605   2.196  0.0381 -0.6604  0.0460
 2354TIP3    H1 7068   5.656   0.611   2.167  0.5269  2.4495 -1.3651
 2354TIP3    H2 7069   5.746   0.638   2.286 -0.1705 -0.0280 -0.1835
 2355TIP3   OH2 7070   4.667   1.421   3.840  0.0517  0.5994  0.2585
 2355TIP3    H1 7071   4.713   1.457   3.764 -1.0030 -1.2610 -1.3732
 2355TIP3    H2 7072   4.591   1.479   3.851 -0.2373  0.4217 -0.6814
 2356TIP3   OH2 7073   5.178   1.504   3.404 -0.0913 -0.0117  0.6059
 2356TIP3    H1 7074   5.258   1.459   3.431 -1.7552 -2.2422  2.1885
 2356TIP3    H2 7075   5.156   1.561   3.477  0.9321  2.0322 -0.5824
 2357TIP3   OH2 7076   5.561   3.636   3.577 -0.4072 -0.1798 -0.1636
 2357TIP3    H1 7077   5.579   3.557   3.628 -0.3711  0.2011  0.4285
 2357TIP3    H2 7078   5.583   3.613   3.487 -2.1115 -1.4243 -0.3086
 2358TIP3   OH2 7079   0.770   1.615   4.002 -0.3974 -0.6779 -0.2777
 2358TIP3    H1 7080   0.681   1.648   4.016 -0.6162 -1.5426  0.4934
 2358TIP3    H2 7081   0.810   1.618   4.089  0.1027 -0.9227 -0.4961
 2359TIP3   OH2 7082   4.440   1.052   1.642  0.1214  0.4512 -0.2329
 2359TIP3    H1 7083   4.372   1.107   1.603 -0.3287  0.1855  0.1757
 2359TIP3    H2 7084   4.413   0.963   1.623 -0.4897  0.2836  1.2966
 2360TIP3   OH2 7085   0.694   3.907   2.340 -0.3926  0.2966  0.3523
 2360TIP3    H1 7086   0.754   3.849   2.293 -1.2450 -0.0711 -0.2895
 2360TIP3    H2 7087   0.608   3.891   2.302 -0.6226  2.2044 -0.0615
 2361TIP3   OH2 7088   4.010   3.379   1.794 -0.7978 -0.0562 -0.1968
 2361TIP3    H1 7089   3.976   3.345   1.711 -0.9063  0.6097 -0.4342
 2361TIP3    H2 7090   3.932   3.397   1.846 -0.7227 -0.6765  0.1381
 2362TIP3   OH2 7091   5.075   4.016   0.859 -0.6465 -0.2976 -0.7667
 2362TIP3    H1 7092   5.123   3.978   0.786 -0.7755  0.4686 -1.2578
 2362TIP3    H2 7093   5.045   3.941   0.910  2.0253 -0.8176  0.2129
 2363TIP3   OH2 7094   5.214   4.697   4.657 -0.6005 -0.2518  0.3965
 2363TIP3    H1 7095   5.235   4.784   4.624 -3.7178  0.3675 -0.3654
 2363TIP3    H2 7096   5.282   4.640   4.622  0.9608  1.7009  0.0949
 2364TIP3   OH2 7097   4.068   3.312   3.177 -0.1273 -0.1533  0.6386
 2364TIP3    H1 7098   4.139   3.248   3.166  0.8108  0.6377  1.7428
 2364TIP3    H2 7099   4.038   3.330   3.088  2.3786  0.9055 -0.0889
 2365TIP3   OH2 7100   5.125   1.696   2.714 -0.0131 -0.1950 -0.2806
 2365TIP3    H1 7101   5.054   1.746   2.674  1.0239  0.3756 -1.4922
 2365TIP3    H2 7102   5.143   1.741   2.796  0.3152  0.9200 -0.9454
 2366TIP3   OH2 7103   6.170   1.706   3.355  0.4123  0.6854 -0.2030
 2366TIP3    H1 7104   6.124   1.695   3.272  0.0191 -0.7889  0.1704
 2366TIP3    H2 7105   6.263   1.703   3.331  0.3437 -1.8528 -0.4382
 2367TIP3   OH2 7106   4.148   0.789   2.505 -0.5631 -0.5634  0.1489
 2367TIP3    H1 7107   4.054   0.780   2.491 -0.8250  0.4908  1.0508
 2367TIP3    H2 7108   4.171   0.873   2.465 -0.5157  0.3941  2.0336
 2368TIP3   OH2 7109   2.920   2.510   4.435 -0.1263  0.0974 -0.3421
 2368TIP3    H1 7110   2.991   2.514   4.500 -0.8240 -1.6496  0.6109
 2368TIP3    H2 7111   2.964   2.522   4.351  1.1280  0.3035  0.3156
 2369TIP3   OH2 7112   5.916   5.902   2.123 -0.0202 -0.3771  0.0464
 2369TIP3    H1 7113   5.953   5.855   2.198 -0.3838 -0.2139  0.3320
 2369TIP3    H2 7114   5.905   5.835   2.056 -1.0064 -0.8177  0.6233
 2370TIP3   OH2 7115   0.151   3.149   4.361  0.6508 -0.0707 -0.2645
 2370TIP3    H1 7116   0.205   3.072   4.342  0.4172  0.0269 -1.3440
 2370TIP3    H2 7117   0.145   3.196   4.278  1.2625  1.4369  0.5118
 2371TIP3   OH2 7118   5.222   2.365   0.155  0.5808  0.2421 -0.2040
 2371TIP3    H1 7119   5.196   2.342   0.244 -1.1550  0.2695 -0.6634
 2371TIP3    H2 7120   5.317   2.372   0.158  0.6030 -0.4502  1.4784
 2372TIP3   OH2 7121   0.603   5.524   3.266  0.2062  0.0007 -0.1387
 2372TIP3    H1 7122   0.676   5.509   3.325  1.3878  0.5458 -1.3979
 2372TIP3    H2 7123   0.640   5.508   3.179 -1.0158  0.8893 -0.8366
 2373TIP3   OH2 7124   5.590   1.136   0.042 -0.3486  0.5904  0.0022
 2373TIP3    H1 7125   5.684   1.135   0.062 -0.3314  0.3511 -0.0828
 2373TIP3    H2 7126   5.584   1.097  -0.045 -0.3722  2.1193 -0.7027
 2374TIP3   OH2 7127   0.656   5.388   0.188  0.3944 -0.3025  0.5523
 2374TIP3    H1 7128   0.743   5.356   0.214  1.2191  2.2392  1.2002
 2374TIP3    H2 7129   0.667   5.415   0.097  0.5603  0.8965  0.9224
 2375TIP3   OH2 7130   2.127   3.587   2.702  0.0106 -0.0235 -0.3182
 2375TIP3    H1 7131   2.068   3.525   2.744 -0.3436  0.9401  0.6836
 2375TIP3    H2 7132   2.100   3.588   2.610 -1.8517  0.7003  0.1948
 2376TIP3   OH2 7133   0.451   4.985   0.405  0.0600  0.5199 -0.3355
 2376TIP3    H1 7134   0.438   5.077   0.380 -0.2024 -0.1785 -3.1549
 2376TIP3    H2 7135   0.519   4.954   0.346 -1.2709 -1.5754 -0.8814
 2377TIP3   OH2 7136   5.952   2.062   2.555  0.6586 -0.2203 -0.5284
 2377TIP3    H1 7137   5.939   2.002   2.628  1.6728 -0.7983 -0.8033
 2377TIP3    H2 7138   5.956   2.149   2.596 -1.5488 -0.2118 -0.2088
 2378TIP3   OH2 7139   0.037   5.352   4.074  0.0002  0.0557  0.7090
 2378TIP3    H1 7140  -0.022   5.298   4.022  0.4669  1.0609 -0.9653
 2378TIP3    H2 7141   0.121   5.307   4.070 -0.5429 -1.3520  3.0553
 2379TIP3   OH2 7142   0.072   1.725   2.307 -0.2187  0.1076 -0.5685
 2379TIP3    H1 7143   0.049   1.775   2.228 -1.9941  0.4949  0.1589
 2379TIP3    H2 7144   0.057   1.634   2.282 -2.7278  0.3425 -0.1250
 2380TIP3   OH2 7145   1.122   0.680   1.502 -0.1731  0.1307  0.1452
 2380TIP3    H1 7146   1.047   0.693   1.444  1.1065  0.6323 -1.5029
 2380TIP3    H2 7147   1.090   0.700   1.589 -1.8870  0.5283 -0.5408
 2381TIP3   OH2 7148   4.793   0.787   3.528 -0.0073 -0.2771 -0.0871
 2381TIP3    H1 7149   4.864   0.745   3.576  0.1257  0.9299  0.8188
 2381TIP3    H2 7150   4.837   0.848   3.469 -0.2713  0.0546  0.0597
 2382TIP3   OH2 7151   5.448   3.907   3.326  0.2336  0.3190  0.0903
 2382TIP3    H1 7152   5.396   3.987   3.321  0.2957  0.3755  0.3360
 2382TIP3    H2 7153   5.538   3.935   3.311  0.4898  0.5638  1.8256
 2383TIP3   OH2 7154   5.641   5.463   2.299 -0.0169  0.1897 -0.4802
 2383TIP3    H1 7155   5.696   5.413   2.239 -0.5006 -0.6620 -0.2273
 2383TIP3    H2 7156   5.653   5.421   2.384 -0.6548  0.3199 -0.3178
 2384TIP3   OH2 7157   5.690   4.695   1.023  0.7976  0.3719  0.2959
 2384TIP3    H1 7158   5.659   4.638   0.952  1.9438  0.9146 -0.6821
 2384TIP3    H2 7159   5.710   4.635   1.095 -0.2395 -0.2064  0.1332
 2385TIP3   OH2 7160   4.152   2.263   2.579  0.1468 -0.1545  0.3803
 2385TIP3    H1 7161   4.245   2.242   2.588  0.4955  0.0906 -1.8408
 2385TIP3    H2 7162   4.151   2.358   2.568 -0.0737 -0.3339 -1.6650
 2386TIP3   OH2 7163   3.851   3.816   2.689  0.2878 -0.2711 -0.0089
 2386TIP3    H1 7164   3.828   3.871   2.614  1.4132 -0.3120 -0.4080
 2386TIP3    H2 7165   3.849   3.727   2.654  0.0684 -0.3482  0.2060
 2387TIP3   OH2 7166   3.898   5.760   1.379  0.1305 -0.6938 -0.1884
 2387TIP3    H1 7167   3.823   5.707   1.406  1.4095 -2.3657  0.2331
 2387TIP3    H2 7168   3.943   5.782   1.461 -0.0959  0.6465 -0.4025
 2388TIP3   OH2 7169   2.533   0.691   0.408 -0.3744  0.2206 -0.2307
 2388TIP3    H1 7170   2.569   0.669   0.322 -0.3558 -1.2968  0.1500
 2388TIP3    H2 7171   2.478   0.616   0.431 -1.1169  1.0224  0.6842
 2389TIP3   OH2 7172   4.206   2.503   4.402  0.2784 -0.0535  0.2511
 2389TIP3    H1 7173   4.284   2.492   4.347 -0.3902 -1.8006 -0.3948
 2389TIP3    H2 7174   4.241   2.535   4.485  1.6751 -0.5932 -0.0879
 2390TIP3   OH2 7175   3.875   4.216   0.303 -0.2411 -0.7918 -0.2981
 2390TIP3    H1 7176   3.884   4.158   0.228  0.3910  1.0974 -1.7452
 2390TIP3    H2 7177   3.908   4.300   0.273 -0.2930  0.1226  2.0023
 2391TIP3   OH2 7178   6.043   0.115   3.784 -0.4529 -0.4597  0.1366
 2391TIP3    H1 7179   6.116   0.178   3.782 -0.1288 -0.8483 -0.7571
 2391TIP3    H2 7180   5.967   0.168   3.807 -0.2139  0.3051 -0.7694
 2392TIP3   OH2 7181   1.294   2.514   3.532 -0.0653  0.3464 -0.0871
 2392TIP3    H1 7182   1.383   2.545   3.521 -0.3416  0.7294 -1.4033
 2392TIP3    H2 7183   1.256   2.573   3.597  0.5402  0.3561  0.2690
 2393TIP3   OH2 7184   5.708   0.191   0.360  0.0308 -0.5810  0.8566
 2393TIP3    H1 7185   5.804   0.183   0.361  0.1792  0.8104  0.2042
 2393TIP3    H2 7186   5.690   0.270   0.410 -0.9648 -1.9732  2.8209
 2394TIP3   OH2 7187   1.946   4.288   2.436 -0.2281 -0.5776  0.2597
 2394TIP3    H1 7188   1.947   4.197   2.408  0.3764 -0.6168  0.4063
 2394TIP3    H2 7189   1.975   4.286   2.527 -1.0493 -0.3265  0.5371
 2395TIP3   OH2 7190   0.825   3.098   4.934  0.2345  0.2501  0.0108
 2395TIP3    H1 7191   0.890   3.147   4.882 -0.6853  1.4507 -0.0641
 2395TIP3    H2 7192   0.740   3.128   4.900 -0.3720 -0.2766  1.0198
 2396TIP3   OH2 7193   0.081   3.129   4.898  0.1416  0.4888  0.6021
 2396TIP3    H1 7194   0.006   3.071   4.885 -0.2284  0.6494  1.8541
 2396TIP3    H2 7195   0.070   3.198   4.833 -1.2442  0.9269  1.2502
 2397TIP3   OH2 7196   0.230   1.517   1.898  0.5766 -0.1190 -0.2397
 2397TIP3    H1 7197   0.154   1.560   1.937  0.5752 -0.0497 -0.3189
 2397TIP3    H2 7198   0.194   1.464   1.828  0.3623 -1.6549  0.9826
 2398TIP3   OH2 7199   3.473   2.206   3.298  0.1319 -0.2171  0.2203
 2398TIP3    H1 7200   3.433   2.130   3.341 -1.0734  0.2927  0.0514
 2398TIP3    H2 7201   3.465   2.188   3.205  1.8781 -0.8805  0.1590
 2399TIP3   OH2 7202   0.833   3.186   2.060 -0.2174 -0.2213  0.0855
 2399TIP3    H1 7203   0.914   3.238   2.056  1.1773 -2.2960 -0.1981
 2399TIP3    H2 7204   0.856   3.110   2.113 -2.2936 -0.4255  0.7791
 2400TIP3   OH2 7205   1.465   1.119   2.978  0.0452  0.0885 -0.0680
 2400TIP3    H1 7206   1.557   1.146   2.973 -0.3013  1.0452 -1.8600
 2400TIP3    H2 7207   1.425   1.184   3.035  0.1475  0.6612 -0.6446
 2401TIP3   OH2 7208   0.994   1.743   3.237  0.3846 -0.8696 -0.1388
 2401TIP3    H1 7209   0.910   1.784   3.216 -0.1338 -1.2909  0.9959
 2401TIP3    H2 7210   1.058   1.814   3.234 -0.3862 -0.0693  1.1712
 2402TIP3   OH2 7211   5.491   4.046   1.813  0.2286  0.0419  1.4255
 2402TIP3    H1 7212   5.395   4.048   1.814  0.1806 -0.6141  0.2564
 2402TIP3    H2 7213   5.515   4.009   1.898 -0.6178 -0.9793  1.2439
 2403TIP3   OH2 7214   3.980   1.129   4.292 -0.4029 -0.7123  0.8224
 2403TIP3    H1 7215   3.916   1.187   4.250 -0.0720 -0.3298  0.8403
 2403TIP3    H2 7216   4.042   1.109   4.222  0.2821  0.1163  1.1840
 2404TIP3   OH2 7217   1.657   5.570   2.506  0.2145 -0.0295  0.7170
 2404TIP3    H1 7218   1.568   5.593   2.535  0.0408 -0.5189  0.5870
 2404TIP3    H2 7219   1.674   5.485   2.546  0.0810 -0.5890 -0.3737
 2405TIP3   OH2 7220   3.558   5.894   1.307  0.5595 -0.0275 -0.3907
 2405TIP3    H1 7221   3.500   5.901   1.231  0.9862  0.9052 -0.6467
 2405TIP3    H2 7222   3.543   5.806   1.341 -1.0185  0.2063 -0.4337
 2406TIP3   OH2 7223   3.580   0.880   4.336  0.1028  0.1291  0.3419
 2406TIP3    H1 7224   3.526   0.811   4.297 -0.2589  0.7385 -0.2651
 2406TIP3    H2 7225   3.557   0.959   4.287 -0.0915  0.8512  1.5572
 2407TIP3   OH2 7226   3.750   2.463   3.341  0.3236 -0.4687 -0.4271
 2407TIP3    H1 7227   3.797   2.442   3.260  0.1772  1.1468 -0.9817
 2407TIP3    H2 7228   3.795   2.541   3.375 -1.3784  0.6221 -0.5306
 2408TIP3   OH2 7229   0.180   0.612   1.524  0.1823 -0.2132 -0.0062
 2408TIP3    H1 7230   0.211   0.689   1.571  1.5389 -1.8335  1.9275
 2408TIP3    H2 7231   0.259   0.563   1.503 -0.6446 -1.0987 -1.1876
 2409TIP3   OH2 7232   0.353   5.691   3.257  0.2514  0.0373  0.5034
 2409TIP3    H1 7233   0.447   5.671   3.262  0.1853 -0.6499 -0.7096
 2409TIP3    H2 7234   0.344   5.747   3.180 -0.9225 -4.0311 -2.6543
 2410TIP3   OH2 7235   1.188   2.290   0.157 -0.7825  0.2563 -0.3628
 2410TIP3    H1 7236   1.107   2.271   0.205  0.8245 -1.8201  1.7340
 2410TIP3    H2 7237   1.246   2.330   0.222  0.7776 -0.7353 -1.0925
 2411TIP3   OH2 7238   0.422   1.320   3.492 -0.1358 -0.1721 -0.0628
 2411TIP3    H1 7239   0.513   1.348   3.490  0.3173 -1.0016  3.0595
 2411TIP3    H2 7240   0.426   1.227   3.515 -1.7801 -0.2914 -0.1173
 2412TIP3   OH2 7241   6.322   1.584   1.967 -0.3946  0.5327 -0.5469
 2412TIP3    H1 7242   6.254   1.642   2.001  0.6315  1.9248 -0.7673
 2412TIP3    H2 7243   6.287   1.551   1.885 -0.9181  1.0254 -0.5268
 2413TIP3   OH2 7244   5.838   4.860   0.610  0.5404  0.3766  0.0060
 2413TIP3    H1 7245   5.830   4.862   0.705 -0.4337  1.6192 -0.0705
 2413TIP3    H2 7246   5.748   4.857   0.578  0.8768 -1.3222 -0.8924
 2414TIP3   OH2 7247   4.049   6.008   1.396  0.5166 -0.1475 -0.5763
 2414TIP3    H1 7248   4.003   6.015   1.479  1.3069  0.6386 -0.1863
 2414TIP3    H2 7249   4.012   5.931   1.354 -0.8847  0.2496 -0.1228
 2415TIP3   OH2 7250   4.589   3.990   4.547 -0.1136  0.3215  0.4906
 2415TIP3    H1 7251   4.569   3.924   4.481  2.5355  0.6627 -0.7838
 2415TIP3    H2 7252   4.555   3.954   4.628 -1.1353 -1.3433 -0.6213
 2416TIP3   OH2 7253   1.191   3.154   3.109  0.1164  0.3123 -0.6052
 2416TIP3    H1 7254   1.100   3.171   3.134 -0.5894 -1.3888 -1.8590
 2416TIP3    H2 7255   1.193   3.062   3.085  2.2319  0.2709 -0.4477
 2417TIP3   OH2 7256   0.239   5.488   0.381  0.4407  0.2653 -0.1230
 2417TIP3    H1 7257   0.165   5.490   0.442 -0.0821 -1.8910 -0.6126
 2417TIP3    H2 7258   0.288   5.410   0.406  2.9741  1.9422  0.5731
 2418TIP3   OH2 7259   0.617   1.758   0.748  0.0002 -0.0535  0.3685
 2418TIP3    H1 7260   0.664   1.837   0.720  0.2747  0.1728  1.4489
 2418TIP3    H2 7261   0.536   1.791   0.787 -0.2665 -0.3560  0.0739
 2419TIP3   OH2 7262   0.420   5.811   2.431  0.2094 -0.3130  0.2130
 2419TIP3    H1 7263   0.495   5.781   2.483  0.0977 -1.0486 -0.0291
 2419TIP3    H2 7264   0.455   5.881   2.376 -0.0051  1.5434  2.3154
 2420TIP3   OH2 7265   1.546   5.823   1.716  0.0148 -0.4865 -0.5665
 2420TIP3    H1 7266   1.621   5.772   1.747  0.1151  0.7415  1.3660
 2420TIP3    H2 7267   1.508   5.861   1.795 -0.9151  1.2679 -1.7889
 2421TIP3   OH2 7268   1.028   2.351   4.701  0.1002  0.0682 -0.1975
 2421TIP3    H1 7269   1.121   2.369   4.716  0.0472  1.1885 -1.1144
 2421TIP3    H2 7270   0.982   2.414   4.757 -0.1424 -1.2240  1.1200
 2422TIP3   OH2 7271   2.658   4.970   1.565 -0.3059  0.0579  0.5996
 2422TIP3    H1 7272   2.598   5.010   1.503 -0.4339 -2.0255 -0.7178
 2422TIP3    H2 7273   2.602   4.940   1.636 -0.2582  1.7210  1.3904
 2423TIP3   OH2 7274   0.637   0.953   3.865  0.5820 -0.0901 -0.1201
 2423TIP3    H1 7275   0.605   1.000   3.941 -1.3036 -1.4094 -0.0247
 2423TIP3    H2 7276   0.712   0.902   3.898  0.9715  0.7905  0.3761
 2424TIP3   OH2 7277   3.575   4.400   2.815  0.6566  0.1883  0.3889
 2424TIP3    H1 7278   3.630   4.363   2.746 -0.3369  0.4050 -0.5495
 2424TIP3    H2 7279   3.634   4.411   2.890  1.1236 -3.0402  0.6690
 2425TIP3   OH2 7280   2.056   1.271   4.772 -0.0012  0.3534  0.0355
 2425TIP3    H1 7281   2.139   1.232   4.799  0.2267  0.2762 -0.7526
 2425TIP3    H2 7282   2.064   1.282   4.677 -0.4640  1.3821  0.1074
 2426TIP3   OH2 7283   1.671   4.409   0.365 -0.0865 -0.2252 -0.3092
 2426TIP3    H1 7284   1.745   4.451   0.322  0.1283  0.6317  0.8479
 2426TIP3    H2 7285   1.697   4.317   0.374  0.8867  0.0919  0.1760
 2427TIP3   OH2 7286   1.086   5.205   4.874 -0.1995 -0.3885 -0.5075
 2427TIP3    H1 7287   1.055   5.155   4.799 -0.4964  0.3708 -0.9057
 2427TIP3    H2 7288   1.182   5.200   4.868 -0.2261 -1.4731 -0.1415
 2428TIP3   OH2 7289   4.979   4.233   4.668  0.0766 -0.1690  0.6465
 2428TIP3    H1 7290   4.927   4.167   4.621 -0.4628  0.2148  0.7056
 2428TIP3    H2 7291   4.916   4.297   4.698  0.0717 -1.5110  3.8692
 2429TIP3   OH2 7292   4.123   4.676   3.992  0.2130  0.1192 -0.1491
 2429TIP3    H1 7293   4.155   4.766   3.991  0.0314  0.1834 -0.3154
 2429TIP3    H2 7294   4.046   4.678   3.936 -0.0442 -0.0457  0.1915
 2430TIP3   OH2 7295   3.281   2.841   3.425 -0.2405 -0.8808 -0.2601
 2430TIP3    H1 7296   3.277   2.797   3.510 -1.0311  0.6838  0.5550
 2430TIP3    H2 7297   3.254   2.775   3.362  0.1354 -2.0072  0.7208
 2431TIP3   OH2 7298   0.771   0.325   0.917 -0.0043  0.4795 -0.6202
 2431TIP3    H1 7299   0.711   0.252   0.931 -0.5842  1.1319  0.3882
 2431TIP3    H2 7300   0.834   0.292   0.853 -0.7233 -0.6285 -0.7832
 2432TIP3   OH2 7301   4.139   4.036   1.609 -0.4254 -0.0511  0.2448
 2432TIP3    H1 7302   4.230   4.046   1.582 -0.4575 -0.9497 -0.2428
 2432TIP3    H2 7303   4.109   4.126   1.626  0.8591  0.1725  1.5175
 2433TIP3   OH2 7304   1.209   3.251   2.583  0.4592 -0.3865 -0.6688
 2433TIP3    H1 7305   1.205   3.346   2.571  0.4329 -0.4300 -1.0304
 2433TIP3    H2 7306   1.236   3.239   2.674 -0.7360 -0.0401 -0.2535
 2434TIP3   OH2 7307   5.333   2.176   0.641  0.6753 -0.2351 -0.2622
 2434TIP3    H1 7308   5.421   2.204   0.665  0.8482 -0.8455 -0.1556
 2434TIP3    H2 7309   5.288   2.164   0.724  0.8608 -1.0497 -0.2629
 2435TIP3   OH2 7310   0.457   5.058   2.773 -0.3451  0.3246 -0.6263
 2435TIP3    H1 7311   0.462   5.153   2.783 -0.8274  0.3023 -0.1412
 2435TIP3    H2 7312   0.524   5.037   2.708  0.7583  0.8340  0.3093
 2436TIP3   OH2 7313   4.096   0.040   2.569  0.3790  0.0713 -0.0222
 2436TIP3    H1 7314   4.040   0.064   2.643  2.1291  0.1012  1.3586
 2436TIP3    H2 7315   4.071  -0.050   2.549 -1.6577  0.7777 -0.9105
 2437TIP3   OH2 7316   1.932   0.514   2.522 -0.3632 -0.1274  0.0102
 2437TIP3    H1 7317   1.941   0.521   2.427  2.2112 -0.3942  0.1487
 2437TIP3    H2 7318   2.006   0.460   2.549  0.0448  1.4215  2.3242
 2438TIP3   OH2 7319   3.831   2.107   3.733  0.0660 -0.0226 -0.1089
 2438TIP3    H1 7320   3.905   2.137   3.786  0.6400 -1.8552  0.1903
 2438TIP3    H2 7321   3.821   2.174   3.665  0.3111  1.5842  1.3626
 2439TIP3   OH2 7322   1.348   5.121   2.418 -0.2964 -0.1131  0.3722
 2439TIP3    H1 7323   1.401   5.104   2.495  1.5732  0.7816 -0.6646
 2439TIP3    H2 7324   1.322   5.213   2.425  0.2975  0.1166 -0.2806
 2440TIP3   OH2 7325   1.267   0.111   4.783  0.2755  0.2322  0.0828
 2440TIP3    H1 7326   1.269   0.125   4.878  0.6973  0.8561 -0.0160
 2440TIP3    H2 7327   1.287   0.196   4.745  4.0612 -0.7136 -0.5103
 2441TIP3   OH2 7328   4.810   2.450   2.872  0.2283  0.0555 -0.1467
 2441TIP3    H1 7329   4.716   2.466   2.870 -0.0679 -1.5064  0.2276
 2441TIP3    H2 7330   4.832   2.418   2.784 -0.1846 -2.4205  0.5614
 2442TIP3   OH2 7331   5.998   5.587   3.689  0.1535 -0.1659  0.2382
 2442TIP3    H1 7332   6.088   5.619   3.678  0.3631 -1.0379 -0.7043
 2442TIP3    H2 7333   5.943   5.657   3.654  0.2335  1.6193  3.2762
 2443TIP3   OH2 7334   0.127   5.673   0.662  0.0623 -0.2663  0.1133
 2443TIP3    H1 7335   0.062   5.743   0.674  0.7273  0.1565  1.4494
 2443TIP3    H2 7336   0.184   5.706   0.593 -0.6013 -0.2511 -0.4475
 2444TIP3   OH2 7337   3.121   4.658   1.644  0.5012  0.5871 -0.4269
 2444TIP3    H1 7338   3.083   4.589   1.698  1.1170 -0.2623 -1.0595
 2444TIP3    H2 7339   3.055   4.677   1.578  0.0705  1.0675  0.1313
 2445TIP3   OH2 7340   4.141   0.431   1.395  0.5748 -0.1224 -0.0276
 2445TIP3    H1 7341   4.191   0.407   1.317  1.5768 -1.0514  0.8684
 2445TIP3    H2 7342   4.062   0.377   1.391  0.1566  0.5171 -0.8562
 2446TIP3   OH2 7343   0.465   2.398   3.432  0.3142  0.1656 -0.5046
 2446TIP3    H1 7344   0.493   2.382   3.522  0.3189  0.8473 -0.3842
 2446TIP3    H2 7345   0.444   2.311   3.398 -0.0306 -0.0613  0.2651
 2447TIP3   OH2 7346   6.265   2.219   0.675  0.1736  0.5962  0.2393
 2447TIP3    H1 7347   6.237   2.236   0.585 -2.7236  0.0672  0.9148
 2447TIP3    H2 7348   6.341   2.162   0.667  0.6507  1.4525 -1.8531
 2448TIP3   OH2 7349   2.802   4.559   1.892 -0.0674  0.0643 -0.5945
 2448TIP3    H1 7350   2.885   4.512   1.905  0.8311  1.6263 -0.4229
 2448TIP3    H2 7351   2.758   4.552   1.977  0.0526 -0.4763 -0.5749
 2449TIP3   OH2 7352   1.561   4.386   1.116 -0.4431 -0.6986 -0.1710
 2449TIP3    H1 7353   1.532   4.319   1.054 -0.4037  0.2771 -1.2849
 2449TIP3    H2 7354   1.485   4.402   1.172  0.0697 -2.8628  1.2364
 2450TIP3   OH2 7355   4.530   2.500   1.130 -0.1992 -0.2591  0.4274
 2450TIP3    H1 7356   4.519   2.500   1.035  1.5117 -3.5529  0.0958
 2450TIP3    H2 7357   4.454   2.451   1.163  0.3607 -1.0729  0.5242
 2451TIP3   OH2 7358   1.182   5.618   2.311 -0.1505 -0.3444  0.1195
 2451TIP3    H1 7359   1.235   5.685   2.355  1.4482  0.0380 -2.1867
 2451TIP3    H2 7360   1.245   5.570   2.257 -1.4215 -3.0892  0.9346
 2452TIP3   OH2 7361   1.713   1.299   5.090 -0.8621  0.1085 -0.3884
 2452TIP3    H1 7362   1.731   1.232   5.025 -0.8748 -1.2633  0.9774
 2452TIP3    H2 7363   1.795   1.348   5.098 -0.1935 -1.0579  0.0640
 2453TIP3   OH2 7364   5.531   0.118   1.119 -0.6393 -0.4875  0.1007
 2453TIP3    H1 7365   5.624   0.133   1.105 -0.5673 -1.1738 -0.2313
 2453TIP3    H2 7366   5.518   0.025   1.096 -1.3505 -0.4684  0.3926
 2454TIP3   OH2 7367   6.235   0.205   1.886  0.4352 -0.0868 -0.6319
 2454TIP3    H1 7368   6.260   0.135   1.946  0.7244  0.3018 -0.2938
 2454TIP3    H2 7369   6.311   0.216   1.829  0.3054 -0.1974 -0.8282
 2455TIP3   OH2 7370   3.293   0.361   0.274 -0.0804 -0.0278  0.3432
 2455TIP3    H1 7371   3.204   0.350   0.308 -0.1192 -2.0808 -0.2986
 2455TIP3    H2 7372   3.309   0.282   0.222  0.6301  2.0741 -2.9582
 2456TIP3   OH2 7373   2.631   4.876   3.139  0.1765 -0.3602  0.0888
 2456TIP3    H1 7374   2.586   4.956   3.112  0.4947  0.0137  0.6525
 2456TIP3    H2 7375   2.685   4.853   3.063 -0.2502 -0.2932 -0.2419
 2457TIP3   OH2 7376   2.181   4.871   4.320  0.0783 -0.6774 -0.0240
 2457TIP3    H1 7377   2.232   4.952   4.316  0.2276 -0.7350  0.5771
 2457TIP3    H2 7378   2.171   4.844   4.229 -0.6481  0.4361 -0.2956
 2458TIP3   OH2 7379   3.111   2.246   0.384 -0.4831 -0.2632  0.7795
 2458TIP3    H1 7380   3.160   2.164   0.372  2.5107  1.5913 -1.2253
 2458TIP3    H2 7381   3.071   2.262   0.298 -2.0140 -0.1088  1.4856
 2459TIP3   OH2 7382   4.652   1.722   1.968 -0.1097 -0.4485  0.7579
 2459TIP3    H1 7383   4.655   1.687   2.057  0.1448 -0.2902  0.8131
 2459TIP3    H2 7384   4.559   1.718   1.943 -0.3311  0.3939  1.3867
 2460TIP3   OH2 7385   3.269   4.628   3.345 -0.0782 -0.3426 -0.2082
 2460TIP3    H1 7386   3.195   4.595   3.293 -0.8705  1.3968 -0.2554
 2460TIP3    H2 7387   3.239   4.712   3.378  1.0483 -0.6338  1.7081
 2461TIP3   OH2 7388   4.602   2.519   4.410  0.4252  0.2649  0.1884
 2461TIP3    H1 7389   4.560   2.491   4.492  1.1152  1.8855  1.1485
 2461TIP3    H2 7390   4.563   2.463   4.343 -0.9303 -0.4158  1.4732
 2462TIP3   OH2 7391   0.951   3.886   1.108 -0.0220 -0.6784 -0.5401
 2462TIP3    H1 7392   0.958   3.980   1.090  2.5685 -0.0948  2.5465
 2462TIP3    H2 7393   0.966   3.844   1.023 -2.7486  1.5761 -2.3293
 2463TIP3   OH2 7394   1.211   5.014   3.049 -0.2956 -0.0771  0.4101
 2463TIP3    H1 7395   1.211   4.959   3.128  1.5295  1.0315  1.2610
 2463TIP3    H2 7396   1.243   4.957   2.980  0.9529 -0.2885  1.1375
 2464TIP3   OH2 7397   2.712   5.947   2.170  0.2941 -0.7764 -0.0475
 2464TIP3    H1 7398   2.732   6.040   2.157  0.8275 -0.6673  1.3793
 2464TIP3    H2 7399   2.630   5.947   2.219  0.7939 -1.0075  0.8183
 2465TIP3   OH2 7400   3.197   2.289   1.086  0.3553  0.1212 -0.3780
 2465TIP3    H1 7401   3.234   2.208   1.051 -0.2476 -0.4195  0.2075
 2465TIP3    H2 7402   3.213   2.355   1.018  1.0459 -0.4364 -0.7607
 2466TIP3   OH2 7403   4.348   4.075   2.503  0.1274  0.3071 -0.0304
 2466TIP3    H1 7404   4.277   4.041   2.557  0.1102  0.4771  0.0524
 2466TIP3    H2 7405   4.376   4.155   2.547  0.2078  0.3696 -0.1957
 2467TIP3   OH2 7406   2.505   2.751   4.924  0.0991 -0.3404 -0.1875
 2467TIP3    H1 7407   2.568   2.711   4.983  1.2883 -0.5445 -1.5265
 2467TIP3    H2 7408   2.454   2.678   4.890 -1.6251 -0.0826  1.6581
 2468TIP3   OH2 7409   6.221   2.549   4.580  0.2682  0.1279  0.6302
 2468TIP3    H1 7410   6.162   2.508   4.643 -0.5109  1.2661  0.6879
 2468TIP3    H2 7411   6.163   2.602   4.525  0.9516 -0.6786 -0.9386
 2469TIP3   OH2 7412   5.906   4.385   2.537 -0.2568  0.5223 -0.2827
 2469TIP3    H1 7413   5.972   4.430   2.483  0.2844  0.3633  0.2404
 2469TIP3    H2 7414   5.822   4.415   2.501  0.0627 -0.2962 -1.8366
 2470TIP3   OH2 7415   5.980   2.129   4.851  0.2089 -0.3458  0.1531
 2470TIP3    H1 7416   5.893   2.122   4.812  0.7803 -0.6065 -1.0995
 2470TIP3    H2 7417   5.985   2.056   4.912 -0.3128 -0.5497 -0.0436
 2471TIP3   OH2 7418   2.355   3.559   2.069 -0.1469 -0.0481  0.0184
 2471TIP3    H1 7419   2.337   3.641   2.024 -2.1335 -0.0678  0.6621
 2471TIP3    H2 7420   2.351   3.493   1.999  1.5617  0.3612 -0.5180
 2472TIP3   OH2 7421   3.516   1.422   0.959  0.2027  0.7830  0.0657
 2472TIP3    H1 7422   3.494   1.353   0.896  0.6014  0.2909  0.4594
 2472TIP3    H2 7423   3.436   1.436   1.008 -0.3717  1.7614 -1.0860
 2473TIP3   OH2 7424   4.546   3.425  -0.018 -0.1112 -0.1045  0.1924
 2473TIP3    H1 7425   4.507   3.433   0.069  2.2367  0.0584  1.3003
 2473TIP3    H2 7426   4.593   3.342  -0.016  0.2703  0.0715 -0.8018
 2474TIP3   OH2 7427   5.570   0.931   0.476 -0.0256  0.1857 -0.3620
 2474TIP3    H1 7428   5.598   1.022   0.472  0.0699  0.1188 -1.5375
 2474TIP3    H2 7429   5.649   0.880   0.456 -0.2385 -0.1167 -0.4533
 2475TIP3   OH2 7430   0.624   1.246   1.832 -0.2271 -0.4841  1.0197
 2475TIP3    H1 7431   0.614   1.282   1.920 -0.6856 -0.6582  1.0432
 2475TIP3    H2 7432   0.538   1.258   1.791 -0.7673 -2.5336  1.4212
 2476TIP3   OH2 7433   2.465   5.848   5.191  0.1832 -0.0004 -0.3342
 2476TIP3    H1 7434   2.517   5.910   5.139 -1.5484  0.5919 -1.4573
 2476TIP3    H2 7435   2.443   5.778   5.130  0.6643 -0.8744  0.4666
 2477TIP3   OH2 7436   3.413   1.235   0.785  0.4393  0.2801 -0.1755
 2477TIP3    H1 7437   3.496   1.188   0.776  0.0775 -0.5217  0.4971
 2477TIP3    H2 7438   3.348   1.176   0.747  0.0304  0.4032  0.3252
 2478TIP3   OH2 7439   2.824   5.953   1.221  0.1942  0.0142  0.4209
 2478TIP3    H1 7440   2.806   5.961   1.128  0.1921  0.4455  0.4544
 2478TIP3    H2 7441   2.874   6.031   1.242 -1.6372  1.0387  1.2175
 2479TIP3   OH2 7442   2.422   1.810   1.807 -0.0474 -0.2220  0.3429
 2479TIP3    H1 7443   2.509   1.795   1.769 -0.6152 -1.7970 -0.4536
 2479TIP3    H2 7444   2.374   1.858   1.739 -0.4638 -1.3493 -0.1997
 2480TIP3   OH2 7445   3.286   2.182   2.664 -0.1809 -0.4797  0.3050
 2480TIP3    H1 7446   3.362   2.221   2.707 -0.6419  0.9959 -0.1638
 2480TIP3    H2 7447   3.266   2.105   2.717  1.6342 -0.9107  0.4315
 2481TIP3   OH2 7448   3.558   3.057   3.883 -0.7591 -0.2646  0.5037
 2481TIP3    H1 7449   3.547   2.986   3.946  1.4307 -0.6801  0.5006
 2481TIP3    H2 7450   3.542   3.017   3.798 -1.4628 -0.2613  0.6317
 2482TIP3   OH2 7451   0.498   0.028   0.520  0.4569 -0.3188  0.4839
 2482TIP3    H1 7452   0.404   0.042   0.531  0.5704  1.1267 -0.1845
 2482TIP3    H2 7453   0.511  -0.063   0.547 -1.1203 -0.5427  0.6344
 2483TIP3   OH2 7454   1.455   4.390   4.296  0.6620 -0.2917 -0.3162
 2483TIP3    H1 7455   1.366   4.425   4.293  0.8810  0.2203 -2.4534
 2483TIP3    H2 7456   1.443   4.297   4.317 -0.3557 -0.1524 -0.2312
 2484TIP3   OH2 7457   2.737   2.635   1.444 -0.0564  0.2075 -0.1902
 2484TIP3    H1 7458   2.682   2.611   1.369  1.5866 -0.8694 -1.1159
 2484TIP3    H2 7459   2.711   2.574   1.513 -0.0744 -0.2543 -0.5973
 2485TIP3   OH2 7460   1.130   5.019   3.955  0.7635 -0.1270  0.1700
 2485TIP3    H1 7461   1.184   5.090   3.922  0.7090 -1.0124 -2.0211
 2485TIP3    H2 7462   1.040   5.050   3.946  0.7562 -0.3033 -0.4393
 2486TIP3   OH2 7463   4.068   4.749   1.815  0.2717 -0.4134  0.3064
 2486TIP3    H1 7464   4.128   4.682   1.848 -0.1020 -1.4734 -1.1114
 2486TIP3    H2 7465   4.118   4.796   1.748  0.5497  0.8052  1.3176
 2487TIP3   OH2 7466   3.236   4.409   4.335 -0.2947  0.5075  0.0164
 2487TIP3    H1 7467   3.320   4.397   4.291  0.0265  0.1647  0.6999
 2487TIP3    H2 7468   3.229   4.503   4.349  1.3007  0.3569  2.4138
 2488TIP3   OH2 7469   4.716   5.162   4.559  0.2964 -0.1765 -0.2723
 2488TIP3    H1 7470   4.783   5.222   4.527 -0.9765  0.8598 -1.0828
 2488TIP3    H2 7471   4.718   5.171   4.654 -0.4117  1.7888 -0.4116
 2489TIP3   OH2 7472   3.879   4.044   5.024 -0.3434 -0.3751 -0.6309
 2489TIP3    H1 7473   3.891   3.957   5.062 -0.5580 -0.3965 -0.6113
 2489TIP3    H2 7474   3.968   4.078   5.013 -0.2504 -0.6969 -0.8722
 2490TIP3   OH2 7475   0.145   0.490   1.909 -0.0036  0.0152  0.1886
 2490TIP3    H1 7476   0.129   0.571   1.958  1.5962  0.5664 -0.1369
 2490TIP3    H2 7477   0.062   0.473   1.863 -0.6038  1.0593  0.8363
 2491TIP3   OH2 7478   6.276   3.803   0.857  0.1528  0.2021  0.6644
 2491TIP3    H1 7479   6.363   3.811   0.817 -0.0784 -0.4657 -0.0016
 2491TIP3    H2 7480   6.216   3.800   0.783 -0.3505 -0.3250  1.0848
 2492TIP3   OH2 7481   2.290   5.030   2.584  0.5365  0.8477 -0.3925
 2492TIP3    H1 7482   2.347   4.995   2.653  2.1416  0.4782 -1.8409
 2492TIP3    H2 7483   2.234   4.957   2.561 -0.6294  1.2236  1.0717
 2493TIP3   OH2 7484   5.097   4.378   1.165  0.2376 -0.1668 -1.1529
 2493TIP3    H1 7485   5.023   4.322   1.186 -0.6826  1.1755 -0.6421
 2493TIP3    H2 7486   5.170   4.339   1.213 -0.5140 -0.5803 -0.3000
 2494TIP3   OH2 7487   5.685   1.208   0.401  0.9657  0.4601  0.1374
 2494TIP3    H1 7488   5.732   1.258   0.334 -0.1033  1.2701 -0.0144
 2494TIP3    H2 7489   5.719   1.241   0.484  0.7527  0.9606  0.0269
 2495TIP3   OH2 7490   5.784   0.683   3.336  0.2099  1.1559 -0.1107
 2495TIP3    H1 7491   5.739   0.762   3.306  1.3766  1.5185 -1.0348
 2495TIP3    H2 7492   5.784   0.625   3.259  0.2648  0.6867  0.2408
 2496TIP3   OH2 7493   2.686   1.401   1.887 -0.4835 -0.5530 -0.1805
 2496TIP3    H1 7494   2.668   1.486   1.928 -3.8720 -0.7221 -1.0791
 2496TIP3    H2 7495   2.654   1.337   1.950  0.3172 -1.1224 -0.3364
 2497TIP3   OH2 7496   2.815   2.559   0.873 -0.5014  0.0904  0.1453
 2497TIP3    H1 7497   2.762   2.511   0.810  0.1427 -2.3187  1.3176
 2497TIP3    H2 7498   2.902   2.562   0.834 -1.0033  2.5112 -0.9857
 2498TIP3   OH2 7499   1.494   3.623   1.887  0.3647  0.3448  0.0044
 2498TIP3    H1 7500   1.414   3.615   1.835  1.4844 -1.5247 -1.5619
 2498TIP3    H2 7501   1.499   3.717   1.907 -1.2836  0.7878 -1.3625
 2499TIP3   OH2 7502   1.318   5.167   1.833  0.3380  0.0598  0.4444
 2499TIP3    H1 7503   1.235   5.182   1.877  0.3394  1.0712  0.1381
 2499TIP3    H2 7504   1.305   5.201   1.744  0.9784 -0.0376  0.3070
 2500TIP3   OH2 7505   2.964   1.381   3.760  0.3104  0.0333 -0.0132
 2500TIP3    H1 7506   3.028   1.385   3.832  0.2793  1.2976 -0.0252
 2500TIP3    H2 7507   2.879   1.373   3.804  0.2951  0.7620  0.0999
 2501TIP3   OH2 7508   0.350   3.535   3.884 -0.4563  0.6074 -0.4165
 2501TIP3    H1 7509   0.363   3.595   3.958  0.9679 -1.3135  1.0055
 2501TIP3    H2 7510   0.261   3.553   3.854 -1.2934  1.1336  2.1226
 2502TIP3   OH2 7511   3.438   5.587   4.843 -0.3787  0.2022  0.5516
 2502TIP3    H1 7512   3.426   5.676   4.810 -1.7392 -0.2925 -0.4422
 2502TIP3    H2 7513   3.519   5.557   4.802 -0.7135  0.4864 -0.3700
 2503TIP3   OH2 7514   3.663   1.170   3.911  0.3111  0.3597  0.3218
 2503TIP3    H1 7515   3.683   1.079   3.889 -0.9226  0.4366 -1.3394
 2503TIP3    H2 7516   3.652   1.170   4.006  0.5087 -1.1953  0.3746
 2504TIP3   OH2 7517   0.178   4.561   5.105 -0.2134 -0.2142 -0.4825
 2504TIP3    H1 7518   0.101   4.611   5.132  0.9503  2.1742 -1.3068
 2504TIP3    H2 7519   0.197   4.505   5.180 -2.8463 -1.0562 -0.3590
 2505TIP3   OH2 7520   5.993   0.533   3.171  0.3678  0.0408 -0.2410
 2505TIP3    H1 7521   6.024   0.496   3.253 -2.1488 -2.0771 -0.1223
 2505TIP3    H2 7522   6.042   0.615   3.161  0.6998  0.4270  3.3809
 2506TIP3   OH2 7523   1.180   4.729   0.023 -0.1384 -0.2336  0.2743
 2506TIP3    H1 7524   1.134   4.713   0.105  0.3232 -3.2672  0.0340
 2506TIP3    H2 7525   1.114   4.714  -0.045  0.1874 -0.5819  0.0315
 2507TIP3   OH2 7526   0.466   4.014   3.518 -0.2818 -0.0035  0.9121
 2507TIP3    H1 7527   0.457   4.057   3.433  1.4863  1.1465  1.2400
 2507TIP3    H2 7528   0.560   3.996   3.525 -0.5590 -1.1134  2.1511
 2508TIP3   OH2 7529   2.053   1.326   4.501  0.2175  0.2192 -0.1238
 2508TIP3    H1 7530   2.022   1.237   4.486 -1.3383  0.9747 -1.6773
 2508TIP3    H2 7531   2.058   1.365   4.414  2.1240  1.2883  0.4084
 2509TIP3   OH2 7532   0.287   0.086   0.225  0.7176 -0.4135 -0.0851
 2509TIP3    H1 7533   0.313   0.101   0.134  1.2699  0.2460  0.1756
 2509TIP3    H2 7534   0.276  -0.009   0.231  1.3883 -0.5374 -0.6561
 2510TIP3   OH2 7535   5.651   1.030   5.139  0.0071  0.5436  0.0531
 2510TIP3    H1 7536   5.664   0.937   5.158  1.2164  0.8291  0.6737
 2510TIP3    H2 7537   5.571   1.053   5.188  0.7433  0.2616  1.4489
 2511TIP3   OH2 7538   3.193   5.742   1.280  0.2913 -0.4323  0.4972
 2511TIP3    H1 7539   3.098   5.742   1.270  0.3541  0.4385 -0.2938
 2511TIP3    H2 7540   3.213   5.657   1.319 -0.8757 -0.2969  1.4470
 2512TIP3   OH2 7541   5.815   4.523   4.653 -0.6487 -0.0659 -0.4982
 2512TIP3    H1 7542   5.798   4.543   4.745 -0.4173 -0.3745 -0.3881
 2512TIP3    H2 7543   5.812   4.608   4.609  0.6920  0.2827  0.0282
 2513TIP3   OH2 7544   0.346   1.560   0.917 -0.2732 -0.3502  0.7148
 2513TIP3    H1 7545   0.280   1.503   0.878 -1.6994  0.8944  1.2003
 2513TIP3    H2 7546   0.413   1.570   0.850 -0.7867 -1.3123  0.0438
 2514TIP3   OH2 7547   5.757   5.843   0.533  0.5140 -0.2933  0.3295
 2514TIP3    H1 7548   5.664   5.856   0.513  0.9958  1.4001 -1.0196
 2514TIP3    H2 7549   5.758   5.822   0.627 -1.1301  1.2951  0.7632
 2515TIP3   OH2 7550   1.640   4.661   4.186 -0.2556  0.0737  0.2709
 2515TIP3    H1 7551   1.733   4.639   4.179 -0.8301 -2.2310 -1.5215
 2515TIP3    H2 7552   1.596   4.577   4.200 -2.1360  1.0103  0.3755
 2516TIP3   OH2 7553   1.856   5.132   0.262 -0.0742  0.3020  0.2235
 2516TIP3    H1 7554   1.892   5.077   0.331  0.7546 -0.4442 -0.7685
 2516TIP3    H2 7555   1.777   5.171   0.300 -0.4690 -1.2713  1.0737
 2517TIP3   OH2 7556   5.197   1.699   3.221  0.3708  0.2537 -0.1005
 2517TIP3    H1 7557   5.176   1.629   3.282 -0.0970  0.2871 -0.2159
 2517TIP3    H2 7558   5.239   1.656   3.147 -0.5359 -0.0093 -0.4841
 2518TIP3   OH2 7559   6.181   3.602   1.977 -0.1177  0.3324 -0.6520
 2518TIP3    H1 7560   6.224   3.621   2.061 -0.6003 -1.3428  0.0259
 2518TIP3    H2 7561   6.213   3.515   1.954 -0.6152  0.4429 -1.8221
 2519TIP3   OH2 7562   3.107   5.869   4.331 -0.0509  0.8463  0.5921
 2519TIP3    H1 7563   3.158   5.918   4.266 -1.4927 -0.3468 -1.5822
 2519TIP3    H2 7564   3.018   5.904   4.323 -0.3865  0.2286  1.4703
 2520TIP3   OH2 7565   0.917   3.470   4.174  0.6929  0.1207  0.0690
 2520TIP3    H1 7566   0.998   3.419   4.167  0.6123 -0.0055  0.0453
 2520TIP3    H2 7567   0.848   3.404   4.177  0.5126  0.2368 -0.9953
 2521TIP3   OH2 7568   3.145   3.798   0.217  0.3929  0.2449  0.2606
 2521TIP3    H1 7569   3.206   3.792   0.291  0.6941  0.2176  0.0115
 2521TIP3    H2 7570   3.059   3.783   0.256  0.4338  1.3150  0.7883
 2522TIP3   OH2 7571   3.224   3.262   1.135  0.0517 -0.0460  0.0740
 2522TIP3    H1 7572   3.283   3.231   1.203  4.7584 -1.5823 -4.0898
 2522TIP3    H2 7573   3.160   3.191   1.125  0.8901 -0.9834  1.1456
 2523TIP3   OH2 7574   3.189   2.913   4.807  0.1923  0.1530  0.8844
 2523TIP3    H1 7575   3.285   2.922   4.807  0.3504  0.4013 -2.8482
 2523TIP3    H2 7576   3.157   2.998   4.836  1.1451  0.5267  0.8973
 2524TIP3   OH2 7577   3.713   3.539   5.112  0.0134 -0.4717  0.4146
 2524TIP3    H1 7578   3.717   3.602   5.040 -1.3075  0.6934  1.3068
 2524TIP3    H2 7579   3.766   3.578   5.182  1.0393 -1.4534  0.2270
 2525TIP3   OH2 7580   3.355   0.655   2.928  0.8925  0.6531 -0.2143
 2525TIP3    H1 7581   3.449   0.636   2.926  0.8732  0.2692  1.1832
 2525TIP3    H2 7582   3.336   0.693   2.842  2.4073  1.1416 -0.3682
 2526TIP3   OH2 7583   4.978   1.413   0.032  0.2566  0.3373  0.7515
 2526TIP3    H1 7584   4.884   1.401   0.017  0.0945  0.7555  1.3691
 2526TIP3    H2 7585   5.006   1.333   0.077  0.8481 -1.1471 -2.0478
 2527TIP3   OH2 7586   4.427   2.335   2.601  0.4118 -0.5366  0.0011
 2527TIP3    H1 7587   4.486   2.392   2.649 -1.0101  0.4542  0.6420
 2527TIP3    H2 7588   4.451   2.347   2.509 -1.2527  2.9107 -0.1357
 2528TIP3   OH2 7589   4.536   0.210   4.053 -0.3278 -0.4060 -0.1425
 2528TIP3    H1 7590   4.620   0.256   4.043 -0.2896 -0.8183 -2.2620
 2528TIP3    H2 7591   4.471   0.279   4.058 -0.1219 -0.0424 -1.7734
 2529TIP3   OH2 7592   2.036   5.247   5.016 -0.0405 -0.2560  0.0586
 2529TIP3    H1 7593   2.107   5.237   5.080 -1.1101 -0.0790  1.3114
 2529TIP3    H2 7594   2.081   5.260   4.932  1.4605  2.4849  1.1733
 2530TIP3   OH2 7595   5.312   2.405   0.844 -0.2894  0.0921 -0.1579
 2530TIP3    H1 7596   5.347   2.475   0.789 -0.4675 -0.6369 -1.2233
 2530TIP3    H2 7597   5.372   2.332   0.829 -0.9924 -0.4664 -0.2620
 2531TIP3   OH2 7598   4.296   4.467   3.911  0.5939  0.6934 -0.3045
 2531TIP3    H1 7599   4.241   4.540   3.940  0.6801  0.9940 -0.8887
 2531TIP3    H2 7600   4.305   4.480   3.816 -0.5306 -0.8260 -0.6629
 2532TIP3   OH2 7601   3.840   2.456   1.976 -0.0614 -0.6371 -0.1947
 2532TIP3    H1 7602   3.760   2.459   2.028 -0.6644  0.2627 -1.1358
 2532TIP3    H2 7603   3.908   2.430   2.038 -1.1071 -1.6501  0.5788
 2533TIP3   OH2 7604   0.107   1.555   1.549 -0.8564 -0.5153  0.7465
 2533TIP3    H1 7605   0.144   1.632   1.593 -1.4489 -1.1987  2.5280
 2533TIP3    H2 7606   0.066   1.590   1.470  0.7430  0.6830  0.4053
 2534TIP3   OH2 7607   0.194   4.311   3.848 -0.4665  0.0088 -1.1886
 2534TIP3    H1 7608   0.262   4.287   3.785  0.5311  1.4844 -0.7312
 2534TIP3    H2 7609   0.126   4.353   3.795  0.2767  1.0674 -1.3197
 2535TIP3   OH2 7610   0.693   3.073   2.636  0.6148 -0.3845 -0.3109
 2535TIP3    H1 7611   0.624   3.123   2.593  0.5253 -0.0161  0.2369
 2535TIP3    H2 7612   0.774   3.103   2.595  0.4459 -0.8741 -1.0088
 2536TIP3   OH2 7613   3.494   2.290   2.782 -0.0676  0.1684 -0.8590
 2536TIP3    H1 7614   3.564   2.276   2.846 -0.2364 -0.5964 -0.8291
 2536TIP3    H2 7615   3.529   2.256   2.700  1.1901  3.5216 -1.8913
 2537TIP3   OH2 7616   1.433   5.163   2.702  0.3651  0.5583 -0.2558
 2537TIP3    H1 7617   1.419   5.069   2.685 -0.3304  0.6631 -0.2861
 2537TIP3    H2 7618   1.456   5.168   2.794  1.9365  0.2088 -0.5983
 2538TIP3   OH2 7619   4.835   1.547   1.338 -0.1420  0.0767  0.8048
 2538TIP3    H1 7620   4.758   1.495   1.361 -0.1306  0.0455  0.7739
 2538TIP3    H2 7621   4.876   1.567   1.422  0.6966 -1.2541  0.7549
 2539TIP3   OH2 7622   4.234   3.798   4.135 -0.4363 -0.0976  0.1393
 2539TIP3    H1 7623   4.231   3.775   4.228  1.7786 -0.7900  0.0879
 2539TIP3    H2 7624   4.266   3.720   4.091 -1.9877  0.0249 -1.3378
 2540TIP3   OH2 7625   4.838   0.068   1.829  0.3428 -0.1348  0.1130
 2540TIP3    H1 7626   4.839   0.030   1.741  0.5747 -2.2768  0.9695
 2540TIP3    H2 7627   4.766   0.023   1.873  1.0586 -0.0703  1.3949
 2541TIP3   OH2 7628   5.512   3.376   2.187  0.2664 -0.3869 -0.0154
 2541TIP3    H1 7629   5.487   3.444   2.125 -1.3002 -1.3081 -0.4394
 2541TIP3    H2 7630   5.431   3.327   2.203  0.4417  0.1497  3.2063
 2542TIP3   OH2 7631   1.940   2.761   0.714  0.1028  0.4991  0.0571
 2542TIP3    H1 7632   1.984   2.682   0.683  0.2954  0.6709 -0.1108
 2542TIP3    H2 7633   1.982   2.832   0.665  0.5267  0.7955  0.8348
 2543TIP3   OH2 7634   3.111   1.629   4.060  0.1526 -0.9887  0.5494
 2543TIP3    H1 7635   3.154   1.714   4.068 -1.3475 -0.0960 -0.5298
 2543TIP3    H2 7636   3.086   1.607   4.149 -1.4174  0.7845  0.5989
 2544TIP3   OH2 7637   1.460   4.658   1.004 -0.5487  0.3198  0.1697
 2544TIP3    H1 7638   1.441   4.706   0.923  0.6331  1.8624  0.7638
 2544TIP3    H2 7639   1.534   4.601   0.981  1.2513  2.3270  0.6330
 2545TIP3   OH2 7640   4.206   2.241   1.623  0.4545  0.0938 -0.5273
 2545TIP3    H1 7641   4.270   2.284   1.566  0.6973 -0.0437 -0.3645
 2545TIP3    H2 7642   4.253   2.227   1.705  0.4869 -0.7575 -0.6776
 2546TIP3   OH2 7643   3.981   5.902   0.272  0.4121  0.3159 -0.0187
 2546TIP3    H1 7644   3.918   5.855   0.326 -0.1905  1.0620 -0.0537
 2546TIP3    H2 7645   4.046   5.935   0.334  0.1035  0.5693  0.1746
 2547TIP3   OH2 7646   2.475   0.840   1.759 -0.3149  0.1822 -0.0052
 2547TIP3    H1 7647   2.569   0.850   1.742 -0.2423  0.3472  0.4905
 2547TIP3    H2 7648   2.449   0.764   1.706 -0.5144  1.8151 -2.4382
 2548TIP3   OH2 7649   1.269   0.208   5.063 -0.9409  0.2958 -0.1761
 2548TIP3    H1 7650   1.278   0.176   5.153  0.7004 -0.0646 -0.4349
 2548TIP3    H2 7651   1.353   0.250   5.045 -0.9726 -0.2781 -1.7752
 2549TIP3   OH2 7652   4.862   2.843   4.560 -0.0064  0.1466 -0.4641
 2549TIP3    H1 7653   4.876   2.794   4.480 -0.3735 -1.5143  0.4455
 2549TIP3    H2 7654   4.901   2.789   4.629  0.7590  1.7682  0.4382
 2550TIP3   OH2 7655   4.728   3.557   4.663  0.1073  0.5035  0.8294
 2550TIP3    H1 7656   4.655   3.618   4.654  0.3152  0.6684  0.1991
 2550TIP3    H2 7657   4.714   3.493   4.594 -0.2695 -0.3491  1.6709
 2551TIP3   OH2 7658   0.685   0.319   3.075  0.2777  0.2928  0.0524
 2551TIP3    H1 7659   0.742   0.248   3.105 -1.9377 -1.9103 -0.6457
 2551TIP3    H2 7660   0.721   0.343   2.990  2.1396  1.3796  1.0777
 2552TIP3   OH2 7661   5.147   4.280   3.872  0.6240 -0.3911  0.2372
 2552TIP3    H1 7662   5.078   4.311   3.815  0.4155 -1.6199 -0.2159
 2552TIP3    H2 7663   5.111   4.286   3.960 -0.6708 -2.4074 -0.0935
 2553TIP3   OH2 7664   2.014   5.120   2.931  0.4344  0.0969 -0.1948
 2553TIP3    H1 7665   1.946   5.174   2.891  0.0744 -1.3366 -1.6213
 2553TIP3    H2 7666   1.980   5.097   3.017  0.9076  2.6529  0.7522
 2554TIP3   OH2 7667   2.339   1.592   3.337 -0.0605  0.1640  0.5997
 2554TIP3    H1 7668   2.369   1.616   3.425 -0.3292 -0.8837  0.9979
 2554TIP3    H2 7669   2.318   1.675   3.295  0.9955  0.7516  1.1848
 2555TIP3   OH2 7670   1.413   3.047   1.364 -0.3844 -0.3683 -0.0495
 2555TIP3    H1 7671   1.435   3.008   1.448 -0.4118  0.7157  0.4736
 2555TIP3    H2 7672   1.318   3.054   1.365 -0.4606 -1.2287 -0.5769
 2556TIP3   OH2 7673   3.066   0.669   1.704 -0.1619 -0.2991  0.1654
 2556TIP3    H1 7674   3.009   0.616   1.649 -2.4295  0.3469  1.7382
 2556TIP3    H2 7675   3.088   0.745   1.649 -1.0790 -0.4267 -0.4029
 2557TIP3   OH2 7676   2.829   3.804   2.970 -0.1875  0.2964 -0.1131
 2557TIP3    H1 7677   2.750   3.845   3.005 -0.4560  0.4377 -0.8840
 2557TIP3    H2 7678   2.798   3.752   2.896  0.3049 -0.4318  0.1769
 2558TIP3   OH2 7679   4.918   0.450   3.130 -0.8557 -0.5552  1.5407
 2558TIP3    H1 7680   4.894   0.517   3.194  2.1648  1.5044  0.7051
 2558TIP3    H2 7681   4.999   0.412   3.163 -0.1308 -0.6283 -0.1988
 2559TIP3   OH2 7682   2.752   5.585   3.030 -0.3310 -0.4615  0.1335
 2559TIP3    H1 7683   2.718   5.497   3.012 -0.2381 -0.6953  1.0742
 2559TIP3    H2 7684   2.772   5.621   2.943 -2.2559 -0.6069 -0.4330
 2560TIP3   OH2 7685   4.237   5.282   2.303 -0.3623 -0.5243  0.5416
 2560TIP3    H1 7686   4.171   5.351   2.298  0.2144 -0.0198 -0.9240
 2560TIP3    H2 7687   4.220   5.237   2.386  0.1349  2.2878  2.2959
 2561TIP3   OH2 7688   5.476   5.311   1.224 -0.2945  0.1463  0.0072
 2561TIP3    H1 7689   5.428   5.236   1.190 -1.1004 -0.2409  1.8794
 2561TIP3    H2 7690   5.562   5.276   1.248 -1.1913 -0.6217  2.3549
 2562TIP3   OH2 7691   0.974   2.963   1.108  0.4430  0.1353  0.3411
 2562TIP3    H1 7692   0.907   2.980   1.042  1.0773  1.3575 -0.0076
 2562TIP3    H2 7693   0.929   2.977   1.192  0.0448  0.1209  0.1294
 2563TIP3   OH2 7694   1.435   2.930   4.325 -0.7257 -0.6055  0.5622
 2563TIP3    H1 7695   1.419   3.011   4.374 -2.5352 -0.9786  0.6823
 2563TIP3    H2 7696   1.417   2.954   4.234  0.0968 -0.5461  0.4103
 2564TIP3   OH2 7697   2.446   0.787   3.699  0.1514  0.2174  0.0808
 2564TIP3    H1 7698   2.502   0.830   3.764  1.1219  0.0154 -0.5836
 2564TIP3    H2 7699   2.431   0.855   3.632  0.9819 -0.1977 -0.5492
 2565TIP3   OH2 7700   2.768   4.153   2.672 -0.6087  0.0406 -0.6192
 2565TIP3    H1 7701   2.744   4.071   2.628 -0.2099 -0.0891 -0.5965
 2565TIP3    H2 7702   2.687   4.204   2.674 -1.0675 -0.7061  0.1363
 2566TIP3   OH2 7703   0.110   3.638   3.233  0.4649 -0.4398 -0.4362
 2566TIP3    H1 7704   0.202   3.664   3.227  0.0208  1.0773 -1.2785
 2566TIP3    H2 7705   0.066   3.714   3.271 -0.2129 -1.8045  1.6721
 2567TIP3   OH2 7706   5.068   0.413   1.170 -0.3811  0.7888 -0.3237
 2567TIP3    H1 7707   5.159   0.382   1.167 -1.1439 -1.6549 -0.3768
 2567TIP3    H2 7708   5.024   0.354   1.231 -2.0785  1.5250 -0.7758
 2568TIP3   OH2 7709   1.675   5.487   3.609  0.3592  0.6062 -0.2625
 2568TIP3    H1 7710   1.756   5.437   3.621 -0.5477 -1.0282 -0.5544
 2568TIP3    H2 7711   1.629   5.442   3.538 -0.5145  1.8923 -0.5512
 2569TIP3   OH2 7712   5.910   4.381   1.407  0.3118  0.3936 -0.2534
 2569TIP3    H1 7713   5.952   4.412   1.487  1.7468 -2.3234  0.1756
 2569TIP3    H2 7714   5.874   4.295   1.430 -1.5481  0.6501 -1.8751
 2570TIP3   OH2 7715   3.790   4.693   1.854  0.3719  0.6384  0.1822
 2570TIP3    H1 7716   3.807   4.738   1.771  2.0515  0.4781  0.4107
 2570TIP3    H2 7717   3.876   4.685   1.895 -0.1197 -1.2697  0.9312
 2571TIP3   OH2 7718   1.530   0.385   0.937  0.1263 -0.9179  0.3751
 2571TIP3    H1 7719   1.602   0.437   0.974 -1.6926  1.2528  1.1075
 2571TIP3    H2 7720   1.476   0.448   0.891 -1.4097 -2.4542 -0.0341
 2572TIP3   OH2 7721   0.759   0.685   4.760 -0.2813  0.0272  0.5114
 2572TIP3    H1 7722   0.815   0.611   4.734 -0.9360 -0.9067  1.6866
 2572TIP3    H2 7723   0.810   0.731   4.826 -0.0183  0.4381  0.0287
 2573TIP3   OH2 7724   4.268   2.563   1.799 -0.2568  0.1384 -0.5747
 2573TIP3    H1 7725   4.205   2.572   1.728  1.0454  2.1352 -1.5669
 2573TIP3    H2 7726   4.344   2.521   1.759 -0.1041 -0.1804  0.0380
 2574TIP3   OH2 7727   3.354   4.570   4.998  0.2366  0.6366 -0.0321
 2574TIP3    H1 7728   3.318   4.509   5.062  1.3264  0.1774  0.1724
 2574TIP3    H2 7729   3.305   4.551   4.918  0.0691 -0.0150  0.2111
 2575TIP3   OH2 7730   3.801   0.352   1.695 -0.3731 -0.1396  0.2148
 2575TIP3    H1 7731   3.775   0.267   1.732 -0.5140  0.7053  2.1759
 2575TIP3    H2 7732   3.828   0.404   1.770 -1.7689  2.1093 -0.7175
 2576TIP3   OH2 7733   0.690   1.111   0.466 -0.0206 -0.1822  0.2466
 2576TIP3    H1 7734   0.629   1.169   0.511 -0.5140 -0.6302  0.1677
 2576TIP3    H2 7735   0.634   1.053   0.414  0.4735 -0.5704  0.1378
 2577TIP3   OH2 7736   5.232   4.867   2.784  0.0582  0.0287  0.3887
 2577TIP3    H1 7737   5.243   4.920   2.863 -0.7351  0.1909  0.3902
 2577TIP3    H2 7738   5.222   4.778   2.817 -0.4891  0.1228  0.4903
 2578TIP3   OH2 7739   6.300   4.498   3.991 -0.6364 -0.1513  0.5012
 2578TIP3    H1 7740   6.206   4.501   4.006 -0.5351 -2.5414  2.2945
 2578TIP3    H2 7741   6.309   4.471   3.900 -1.6450  1.0356  0.0328
 2579TIP3   OH2 7742   4.028   1.771   2.447  0.2941 -0.0736  0.2050
 2579TIP3    H1 7743   3.962   1.782   2.378 -0.1871  0.0684  0.6816
 2579TIP3    H2 7744   4.021   1.851   2.499 -1.2144 -1.2907  2.0052
 2580TIP3   OH2 7745   5.413   3.379   4.905  0.4022  0.5572 -0.1877
 2580TIP3    H1 7746   5.382   3.312   4.967 -0.0659  0.2692 -0.7179
 2580TIP3    H2 7747   5.411   3.335   4.820 -0.9005  1.5301 -0.7055
 2581TIP3   OH2 7748   3.925   0.567   0.824 -0.2333 -0.0300  0.1611
 2581TIP3    H1 7749   4.019   0.580   0.811 -0.3686 -0.9053 -2.0990
 2581TIP3    H2 7750   3.907   0.481   0.787 -2.0383  0.3864 -0.0095
 2582TIP3   OH2 7751   5.666   0.361  -0.010 -0.1108 -0.5448 -0.0510
 2582TIP3    H1 7752   5.654   0.266  -0.001  2.1166 -0.7677  1.1415
 2582TIP3    H2 7753   5.737   0.382   0.050 -0.6521  1.9383 -0.1864
 2583TIP3   OH2 7754   1.927   1.904   1.035 -0.0636 -0.4378  0.1671
 2583TIP3    H1 7755   1.850   1.960   1.044  0.6366  1.0911 -2.2922
 2583TIP3    H2 7756   2.001   1.961   1.057  0.5639 -0.8627 -0.7655
 2584TIP3   OH2 7757   1.036   0.025   2.483 -0.0534 -0.0784  0.1930
 2584TIP3    H1 7758   1.065   0.093   2.544 -0.2299  0.8853 -0.7656
 2584TIP3    H2 7759   1.117  -0.009   2.444  0.1016 -1.1299  1.3880
 2585TIP3   OH2 7760   6.364   0.480   4.495  0.1108 -0.1721  0.1439
 2585TIP3    H1 7761   6.355   0.397   4.447  0.6273  0.0248 -0.3039
 2585TIP3    H2 7762   6.327   0.546   4.436 -0.7776 -0.1385  0.7117
 2586TIP3   OH2 7763   6.139   4.269   1.218  0.3267 -0.5045  0.1440
 2586TIP3    H1 7764   6.199   4.337   1.246  0.8909 -0.1290 -1.8279
 2586TIP3    H2 7765   6.052   4.303   1.241  0.4872  1.5403 -1.9426
 2587TIP3   OH2 7766   0.759   3.465   3.704  0.1770 -0.1103 -0.2925
 2587TIP3    H1 7767   0.698   3.421   3.645 -0.6978  1.4375 -0.5950
 2587TIP3    H2 7768   0.784   3.397   3.767 -1.2914 -0.9822 -0.5895
 2588TIP3   OH2 7769   4.607   4.137   3.448 -0.2722 -0.4769  0.6233
 2588TIP3    H1 7770   4.696   4.101   3.445  0.3386  0.7802  2.2368
 2588TIP3    H2 7771   4.553   4.064   3.478  0.2817 -1.1055  0.1382
 2589TIP3   OH2 7772   5.866   5.058   2.370  0.2224 -0.4900  0.5911
 2589TIP3    H1 7773   5.911   5.127   2.321 -1.0363 -0.0948 -0.0629
 2589TIP3    H2 7774   5.867   5.088   2.461 -1.8193  1.3204  0.1056
 2590TIP3   OH2 7775   4.882   4.288   2.748  0.7164  0.1118 -0.4203
 2590TIP3    H1 7776   4.868   4.196   2.729 -0.7549  0.0328  0.8893
 2590TIP3    H2 7777   4.892   4.293   2.843  0.8556  1.2886 -0.4733
 2591TIP3   OH2 7778   1.170   1.132   3.587  0.1827 -0.4685 -0.0242
 2591TIP3    H1 7779   1.156   1.093   3.501 -0.9560  1.5051 -0.8169
 2591TIP3    H2 7780   1.254   1.178   3.579  0.0513 -0.2412 -0.1034
 2592TIP3   OH2 7781   2.170   2.440   3.575 -0.0260 -0.2663  0.1265
 2592TIP3    H1 7782   2.257   2.440   3.535 -0.2328 -1.5307 -0.3725
 2592TIP3    H2 7783   2.126   2.516   3.537  0.5543 -0.1419 -0.3065
 2593TIP3   OH2 7784   2.072   1.994   2.512 -0.4798 -0.0282 -0.5320
 2593TIP3    H1 7785   2.016   1.918   2.529  1.1263 -1.2262 -0.3978
 2593TIP3    H2 7786   2.139   1.962   2.451  0.7885  0.9974  0.2673
 2594TIP3   OH2 7787   0.473   0.178   2.899  0.8455  0.6025 -0.0728
 2594TIP3    H1 7788   0.421   0.103   2.926 -0.0404  1.2304  0.0138
 2594TIP3    H2 7789   0.514   0.210   2.979  1.6402 -0.0838 -0.1927
 2595TIP3   OH2 7790   3.506   3.186   3.560  0.1569 -0.3022 -0.3719
 2595TIP3    H1 7791   3.509   3.107   3.613 -0.2130 -0.3163 -0.3686
 2595TIP3    H2 7792   3.451   3.163   3.485  0.2292 -0.1171 -0.4834
 2596TIP3   OH2 7793   4.231   5.791   1.137  0.2835  0.0425  0.6645
 2596TIP3    H1 7794   4.227   5.717   1.078  0.0204  0.6746 -0.1291
 2596TIP3    H2 7795   4.155   5.844   1.114  2.4286  2.5128 -1.4403
 2597TIP3   OH2 7796   5.963   5.172   2.596  0.0012  0.0610  0.1980
 2597TIP3    H1 7797   5.941   5.246   2.653 -0.8946  0.1261 -0.2061
 2597TIP3    H2 7798   6.058   5.169   2.596  0.0131 -0.1035  1.8870
 2598TIP3   OH2 7799   3.318   2.122   2.101 -0.3316  0.5103  0.2938
 2598TIP3    H1 7800   3.393   2.106   2.044  0.4627 -0.0330  1.4580
 2598TIP3    H2 7801   3.266   2.042   2.095  0.0984  0.1884  0.8461
 2599TIP3   OH2 7802   1.551   5.343   3.409 -0.2864  0.0112  0.5161
 2599TIP3    H1 7803   1.473   5.288   3.421  0.1922 -1.0603 -0.9573
 2599TIP3    H2 7804   1.527   5.403   3.339 -0.4936  1.1370  1.5202
 2600TIP3   OH2 7805   2.704   1.414   5.168  0.0203  0.6001 -0.4301
 2600TIP3    H1 7806   2.706   1.504   5.201  0.5549  0.9522 -1.4019
 2600TIP3    H2 7807   2.767   1.413   5.096  1.5072 -1.0421  0.8051
 2601TIP3   OH2 7808   2.171   0.145   1.430 -0.2085  0.2414 -0.5068
 2601TIP3    H1 7809   2.149   0.237   1.441 -2.0455 -0.2217  0.1910
 2601TIP3    H2 7810   2.221   0.122   1.509  1.7645  1.0069 -1.4851
 2602TIP3   OH2 7811   6.168   3.154   4.603 -0.7343  0.3430 -0.0395
 2602TIP3    H1 7812   6.151   3.202   4.684  0.3292  0.3568  0.1850
 2602TIP3    H2 7813   6.178   3.063   4.631 -1.6491  0.1472 -0.3255
 2603TIP3   OH2 7814   4.461   3.639   0.540 -0.3406 -0.0801  0.1478
 2603TIP3    H1 7815   4.506   3.557   0.522 -0.3023 -0.1045  0.3555
 2603TIP3    H2 7816   4.451   3.680   0.454 -2.0391 -1.1630 -0.2335
 2604TIP3   OH2 7817   3.149   4.823   2.951 -0.8036 -0.0495  0.1061
 2604TIP3    H1 7818   3.108   4.738   2.966  1.0301 -0.7973  1.2972
 2604TIP3    H2 7819   3.112   4.854   2.869 -2.5437 -1.3449  0.3403
 2605TIP3   OH2 7820   4.849   1.303   2.648  0.1058 -0.3384  0.1697
 2605TIP3    H1 7821   4.861   1.268   2.559  1.7440 -2.4209  1.1425
 2605TIP3    H2 7822   4.925   1.360   2.661  0.2145 -0.5538  0.4719
 2606TIP3   OH2 7823   5.598   5.001   1.804  0.1809  0.5657 -0.5434
 2606TIP3    H1 7824   5.541   4.933   1.840 -1.8011  2.0025 -0.8334
 2606TIP3    H2 7825   5.678   4.954   1.780 -1.0844 -1.6462 -0.7040
 2607TIP3   OH2 7826   3.700   3.984   0.376 -0.3902  0.3454 -0.2557
 2607TIP3    H1 7827   3.681   3.998   0.469 -2.3541  1.3286 -0.7393
 2607TIP3    H2 7828   3.770   4.047   0.356 -0.5386  0.7214  0.3773
 2608TIP3   OH2 7829   4.659   5.352   4.136 -0.6533  0.4547  0.2465
 2608TIP3    H1 7830   4.587   5.289   4.143  0.4054 -0.7952  0.3686
 2608TIP3    H2 7831   4.737   5.297   4.121 -0.0220  1.8681 -2.1251
 2609TIP3   OH2 7832   2.283   5.736   0.644 -0.4517 -0.2473  0.2179
 2609TIP3    H1 7833   2.352   5.743   0.578 -0.6944 -0.5967 -0.0748
 2609TIP3    H2 7834   2.212   5.791   0.611 -0.3756 -0.0182  0.4381
 2610TIP3   OH2 7835   1.827   3.621   4.924  0.1279 -0.0915 -0.3060
 2610TIP3    H1 7836   1.874   3.684   4.869  1.8217 -0.7680  0.2761
 2610TIP3    H2 7837   1.796   3.554   4.863 -2.1195  1.4608 -1.0006
 2611TIP3   OH2 7838   2.822   2.010   4.123  0.6958  0.2178 -0.2682
 2611TIP3    H1 7839   2.869   1.938   4.166  0.4385 -0.1348 -0.5718
 2611TIP3    H2 7840   2.884   2.082   4.123  1.0176 -0.0557 -0.1079
 2612TIP3   OH2 7841   4.285   2.379   1.169  0.2004  0.3526  0.2607
 2612TIP3    H1 7842   4.257   2.385   1.078  1.6693  0.3355 -0.2065
 2612TIP3    H2 7843   4.203   2.376   1.219 -0.6609  2.2420 -0.9166
 2613TIP3   OH2 7844   6.273   4.838   2.415  0.2217 -0.5090  0.4572
 2613TIP3    H1 7845   6.304   4.878   2.497 -0.4917 -0.3995  0.6789
 2613TIP3    H2 7846   6.260   4.912   2.356  1.6096 -0.6532 -0.0800
 2614TIP3   OH2 7847   5.363   0.778   5.028  0.4967 -0.1962 -0.4527
 2614TIP3    H1 7848   5.457   0.790   5.010  0.3287  2.0671 -0.1210
 2614TIP3    H2 7849   5.356   0.779   5.123  0.2857 -2.0450 -0.4255
 2615TIP3   OH2 7850   4.259   2.948   4.084  0.1110 -0.5872 -0.2767
 2615TIP3    H1 7851   4.189   2.896   4.045 -0.4528 -0.6476  0.7905
 2615TIP3    H2 7852   4.253   2.930   4.177  2.4658 -1.7275 -0.2714
 2616TIP3   OH2 7853   1.986   1.447   0.619  0.0524  0.3913  0.0769
 2616TIP3    H1 7854   2.046   1.453   0.693  1.1253 -1.4556 -0.5695
 2616TIP3    H2 7855   2.022   1.507   0.554  0.5756  0.1391  0.1260
 2617TIP3   OH2 7856   4.767   5.436   4.392  0.2511 -0.2591  0.4126
 2617TIP3    H1 7857   4.701   5.419   4.325  1.3694 -1.8856 -0.3339
 2617TIP3    H2 7858   4.743   5.521   4.429 -0.8004  0.3458 -1.5629
 2618TIP3   OH2 7859   2.498   4.582   3.390 -0.5487  0.9432 -0.0880
 2618TIP3    H1 7860   2.492   4.625   3.305  1.3269  1.5392  0.0388
 2618TIP3    H2 7861   2.532   4.650   3.449 -0.0718  0.0288  0.7200
 2619TIP3   OH2 7862   0.974   3.347   4.874  0.2257 -0.0499  0.5256
 2619TIP3    H1 7863   0.997   3.428   4.831 -0.2677  0.6628  1.5543
 2619TIP3    H2 7864   0.952   3.373   4.964  0.5124 -1.3752  1.0040
 2620TIP3   OH2 7865   1.281   4.490   3.397 -0.3394  0.4658  0.2672
 2620TIP3    H1 7866   1.188   4.474   3.386 -0.5727  2.4993 -1.3454
 2620TIP3    H2 7867   1.286   4.566   3.456  0.4745 -1.4319  2.8343
 2621TIP3   OH2 7868   4.680   0.348   0.088  0.5342  0.4013 -0.0766
 2621TIP3    H1 7869   4.636   0.273   0.049  0.6742 -0.6949  1.7835
 2621TIP3    H2 7870   4.765   0.314   0.116  1.1275  1.5929 -0.3603
 2622TIP3   OH2 7871   5.459   1.065   3.833  0.4498  0.2765 -0.2898
 2622TIP3    H1 7872   5.471   0.970   3.839 -1.4224  0.1004  1.7003
 2622TIP3    H2 7873   5.401   1.078   3.758  0.0915 -0.2050 -0.0927
 2623TIP3   OH2 7874   1.781   0.169   3.173 -0.3159 -0.0248  0.1120
 2623TIP3    H1 7875   1.831   0.145   3.095 -0.7278  0.2379 -0.2336
 2623TIP3    H2 7876   1.830   0.243   3.210  1.5050 -1.9005  1.7149
 2624TIP3   OH2 7877   5.140   4.255   0.247 -0.5201 -0.3393  0.2331
 2624TIP3    H1 7878   5.130   4.205   0.166  0.4864 -1.3171  0.6948
 2624TIP3    H2 7879   5.223   4.224   0.284 -0.9375  0.1431  1.6076
 2625TIP3   OH2 7880   1.462   2.892   0.616 -0.1176  0.5114  0.1909
 2625TIP3    H1 7881   1.489   2.973   0.659  1.6120 -0.5022  1.1216
 2625TIP3    H2 7882   1.443   2.832   0.688  0.7350 -0.5589 -0.4369
 2626TIP3   OH2 7883   2.980   5.534   3.199  0.2787  0.1750 -0.1076
 2626TIP3    H1 7884   2.904   5.515   3.143 -0.4187  0.9887  0.5386
 2626TIP3    H2 7885   3.026   5.604   3.154 -0.5062  1.1139  0.5019
 2627TIP3   OH2 7886   0.834   1.357   1.678 -0.5162  0.4630 -0.4610
 2627TIP3    H1 7887   0.815   1.352   1.584  0.3147 -0.0633 -0.6132
 2627TIP3    H2 7888   0.767   1.303   1.720 -0.1359 -0.3380 -0.8669
 2628TIP3   OH2 7889   6.132   0.801   1.368  0.7922 -0.1179  0.2627
 2628TIP3    H1 7890   6.169   0.826   1.283  0.1371 -0.8115 -0.2447
 2628TIP3    H2 7891   6.127   0.705   1.364 -0.3126 -0.0825  0.6245
 2629TIP3   OH2 7892   5.335   0.914   2.100 -0.4771  0.1344  0.1609
 2629TIP3    H1 7893   5.294   1.000   2.087 -0.4470 -0.1089 -1.9833
 2629TIP3    H2 7894   5.324   0.871   2.015 -0.8901 -2.1635  1.3188
 2630TIP3   OH2 7895   4.394   3.397   0.225 -0.1156 -0.2686  0.3997
 2630TIP3    H1 7896   4.321   3.336   0.230 -0.0648 -0.3835 -0.1827
 2630TIP3    H2 7897   4.356   3.481   0.252 -0.3668 -0.4085  0.4877
 2631TIP3   OH2 7898   4.142   4.822   2.405 -0.6274 -0.0058 -0.0706
 2631TIP3    H1 7899   4.170   4.754   2.466 -0.6560 -0.0686 -0.1285
 2631TIP3    H2 7900   4.092   4.776   2.338 -3.0216  0.3650  1.3193
 2632TIP3   OH2 7901   6.055   5.571   4.260  0.1538  0.5744  0.1047
 2632TIP3    H1 7902   6.029   5.632   4.329  0.9738  1.3684 -0.2678
 2632TIP3    H2 7903   6.146   5.594   4.240  0.5065 -0.8388  0.0115
 2633TIP3   OH2 7904   0.721   2.231   1.790 -0.4106 -0.0651  0.3349
 2633TIP3    H1 7905   0.634   2.242   1.828 -1.1805 -1.4274 -0.9071
 2633TIP3    H2 7906   0.729   2.136   1.775  1.1202  0.0768  0.0240
 2634TIP3   OH2 7907   5.557   4.486   0.909 -0.4625 -0.7093  0.5124
 2634TIP3    H1 7908   5.633   4.428   0.900 -0.7376 -1.0533  0.3671
 2634TIP3    H2 7909   5.505   4.470   0.830  0.3246  1.0322 -0.4274
 2635TIP3   OH2 7910   0.624   2.831   1.975 -0.2314  0.2874  0.0538
 2635TIP3    H1 7911   0.603   2.834   1.881 -1.3377  0.3701  0.2881
 2635TIP3    H2 7912   0.583   2.750   2.006 -0.9521  0.8762  0.6963
 2636TIP3   OH2 7913   1.322   2.436   0.710  0.1729  0.0855 -0.0659
 2636TIP3    H1 7914   1.294   2.365   0.651 -2.6922  1.9297 -1.1582
 2636TIP3    H2 7915   1.385   2.486   0.658  1.2960 -0.9410  0.2695
 2637TIP3   OH2 7916   3.512   4.397   1.328 -0.0223  0.3904  0.7812
 2637TIP3    H1 7917   3.592   4.413   1.278 -0.2299  0.7326  0.5479
 2637TIP3    H2 7918   3.441   4.423   1.268 -0.3743 -1.1352  0.4990
 2638TIP3   OH2 7919   6.202   5.573   0.759 -0.2200 -0.3343 -0.1777
 2638TIP3    H1 7920   6.287   5.616   0.756  0.2551 -1.2401 -0.0147
 2638TIP3    H2 7921   6.155   5.617   0.830 -0.5135  1.2586 -1.2976
 2639TIP3   OH2 7922   0.412   4.606   2.265 -0.0330  0.4131 -0.1867
 2639TIP3    H1 7923   0.417   4.693   2.227 -0.5515  0.7143  0.4181
 2639TIP3    H2 7924   0.501   4.589   2.296  0.3333  0.2675 -1.2743
 2640TIP3   OH2 7925   2.215   4.827   1.235 -0.0518 -0.1331  0.6539
 2640TIP3    H1 7926   2.288   4.880   1.203 -0.7951  2.0353  2.2298
 2640TIP3    H2 7927   2.139   4.861   1.188 -1.0030  2.4457  3.6955
 2641TIP3   OH2 7928   0.817   5.580   3.455  0.1106 -0.6140 -0.3956
 2641TIP3    H1 7929   0.774   5.661   3.480 -0.6361 -1.3819  0.9355
 2641TIP3    H2 7930   0.893   5.574   3.514  3.4124  1.6784 -3.9162
 2642TIP3   OH2 7931   4.427   0.813   3.178 -0.1539  0.1967  0.5278
 2642TIP3    H1 7932   4.495   0.879   3.188 -0.2207  0.4032 -0.2689
 2642TIP3    H2 7933   4.424   0.768   3.262  1.2050 -0.0433  0.4715
 2643TIP3   OH2 7934   0.295   0.391   0.875 -0.4188  0.2334  0.1201
 2643TIP3    H1 7935   0.219   0.353   0.919 -0.9076 -0.9918 -1.6685
 2643TIP3    H2 7936   0.272   0.483   0.863 -0.9347  0.2310  1.0011
 2644TIP3   OH2 7937   3.874   1.957   1.664  0.2204 -0.0600  0.6539
 2644TIP3    H1 7938   3.914   2.032   1.709  0.2089  0.4444 -0.1518
 2644TIP3    H2 7939   3.782   1.981   1.655 -0.0978 -0.8183  1.6804
 2645TIP3   OH2 7940   4.864   5.150   3.844  0.0069  0.1684  0.2467
 2645TIP3    H1 7941   4.795   5.085   3.863  0.2379 -0.4402 -0.9246
 2645TIP3    H2 7942   4.935   5.127   3.903  0.5609 -1.4423 -0.9803
 2646TIP3   OH2 7943   2.592   2.802   3.421 -0.1476  0.0830  0.3305
 2646TIP3    H1 7944   2.603   2.869   3.488  0.8777 -1.6505  2.0024
 2646TIP3    H2 7945   2.667   2.813   3.363  0.6258 -0.2963  1.2428
 2647TIP3   OH2 7946   1.552   2.593   4.658 -0.2731  0.1220 -0.3096
 2647TIP3    H1 7947   1.508   2.597   4.743  0.4573  1.1762  0.0436
 2647TIP3    H2 7948   1.530   2.506   4.624  1.4897 -1.4042  2.1012
 2648TIP3   OH2 7949   1.955   2.799   4.174 -0.9699 -0.3828 -0.1009
 2648TIP3    H1 7950   1.876   2.810   4.226 -0.3193 -0.5897  0.9508
 2648TIP3    H2 7951   2.008   2.876   4.193  0.1528 -1.4207  1.1594
 2649TIP3   OH2 7952   2.870   5.132   3.422  0.2513 -0.0796  0.1368
 2649TIP3    H1 7953   2.853   5.138   3.517 -1.6114 -0.9202 -0.1106
 2649TIP3    H2 7954   2.806   5.192   3.383  0.8582  0.0864 -0.6213
 2650TIP3   OH2 7955   1.785   4.803   2.792  0.4013  0.2717  0.0379
 2650TIP3    H1 7956   1.848   4.800   2.864  1.0244  1.1765 -0.4384
 2650TIP3    H2 7957   1.700   4.818   2.834  0.6547  0.0647  0.6266
 2651TIP3   OH2 7958   0.482   4.339   5.103  1.0607 -0.2623 -0.3014
 2651TIP3    H1 7959   0.449   4.361   5.190  0.0587 -0.4022 -0.6203
 2651TIP3    H2 7960   0.403   4.315   5.054  1.6635 -0.6394 -1.1088
 2652TIP3   OH2 7961   2.765   5.655   2.773  0.0997 -0.3535  0.0415
 2652TIP3    H1 7962   2.748   5.588   2.707  0.1763  0.0033 -0.3389
 2652TIP3    H2 7963   2.854   5.685   2.756  0.0057 -0.0338  0.1084
 2653TIP3   OH2 7964   4.827   3.426   3.812 -0.2702 -1.1569  0.0361
 2653TIP3    H1 7965   4.873   3.443   3.894  1.3591 -3.0597 -0.3849
 2653TIP3    H2 7966   4.738   3.405   3.837  0.5680 -3.2682  1.5488
 2654TIP3   OH2 7967   3.215   0.325   4.029  0.3569 -0.6534 -0.0284
 2654TIP3    H1 7968   3.241   0.342   4.119 -0.4738 -0.8633  0.2576
 2654TIP3    H2 7969   3.156   0.250   4.035 -1.2423  0.5356 -0.5210
 2655TIP3   OH2 7970   1.730   0.840   4.713  0.6617  0.2299 -0.6506
 2655TIP3    H1 7971   1.731   0.804   4.801 -0.5988 -0.5515 -0.9350
 2655TIP3    H2 7972   1.659   0.904   4.714 -0.9452 -1.4286 -1.6781
 2656TIP3   OH2 7973   1.675   1.535   0.830  0.5345 -0.5034 -0.4926
 2656TIP3    H1 7974   1.589   1.577   0.830  0.2869 -1.0016 -0.1206
 2656TIP3    H2 7975   1.656   1.441   0.833  1.0438 -0.6284  2.7666
 2657TIP3   OH2 7976   5.015   5.408   3.779  0.2996  0.3909  0.1133
 2657TIP3    H1 7977   5.012   5.348   3.854  2.6290 -1.7709 -1.3742
 2657TIP3    H2 7978   5.103   5.445   3.782  0.0490  1.1174 -0.9882
 2658TIP3   OH2 7979   2.244   5.967   0.850 -0.2685  0.1706  0.3950
 2658TIP3    H1 7980   2.203   5.891   0.891 -1.0630  0.5677  0.3431
 2658TIP3    H2 7981   2.216   5.964   0.758  1.8522 -0.9650 -0.2947
 2659TIP3   OH2 7982   1.951   2.438   4.019 -0.1951  0.0944 -0.0787
 2659TIP3    H1 7983   1.929   2.457   4.110  0.7722 -1.8101  0.5916
 2659TIP3    H2 7984   1.881   2.380   3.989  1.2155 -2.0704  0.5776
 2660TIP3   OH2 7985   0.584   0.942   1.531 -0.6707 -0.0888  0.1359
 2660TIP3    H1 7986   0.658   0.913   1.478 -0.3805  1.5776 -0.4365
 2660TIP3    H2 7987   0.615   0.935   1.621 -0.2681 -0.5852 -0.0351
 2661TIP3   OH2 7988   5.235   4.877   3.243  0.4624  0.6160 -0.2045
 2661TIP3    H1 7989   5.193   4.930   3.312 -0.4168 -1.4952  0.9734
 2661TIP3    H2 7990   5.172   4.877   3.171  0.1340  0.5609  0.0808
 2662TIP3   OH2 7991   2.484   0.069   0.413  0.2333  0.1396 -0.1615
 2662TIP3    H1 7992   2.494   0.067   0.508 -1.7875  1.3629  0.1423
 2662TIP3    H2 7993   2.439   0.152   0.395  1.8387  0.6351 -2.3570
 2663TIP3   OH2 7994   1.599   2.549   1.928  0.3128 -0.0507  0.1302
 2663TIP3    H1 7995   1.528   2.523   1.988  0.8769  1.1480  1.3705
 2663TIP3    H2 7996   1.679   2.522   1.973  0.7094 -0.4663 -0.7906
 2664TIP3   OH2 7997   2.443   4.790   2.455 -0.3154 -0.9974  0.3082
 2664TIP3    H1 7998   2.499   4.769   2.529  0.1869  0.4014  0.3419
 2664TIP3    H2 7999   2.367   4.833   2.494 -0.0305 -0.2188  0.0224
 2665TIP3   OH2 8000   1.449   0.879   3.115  0.3575 -0.6118 -0.3897
 2665TIP3    H1 8001   1.440   0.959   3.064  1.0282  0.2436  0.7592
 2665TIP3    H2 8002   1.372   0.826   3.093 -1.7784  1.6572  1.0369
 2666TIP3   OH2 8003   1.630   3.648   3.941 -0.0145  0.3877 -0.3566
 2666TIP3    H1 8004   1.636   3.743   3.950 -0.2812  0.3147  0.6892
 2666TIP3    H2 8005   1.655   3.614   4.027 -0.6917 -0.4523 -0.4735
 2667TIP3   OH2 8006   0.198   2.329   0.655 -0.4178 -0.4382 -0.5855
 2667TIP3    H1 8007   0.189   2.240   0.688  2.4493  0.1162  2.0511
 2667TIP3    H2 8008   0.273   2.326   0.595  0.8317  0.4354  0.8578
 2668TIP3   OH2 8009   0.021   0.697   0.534  0.2554 -0.4470  0.1633
 2668TIP3    H1 8010   0.106   0.656   0.522  0.9620  0.5350  1.6173
 2668TIP3    H2 8011   0.020   0.726   0.625 -0.2528  2.5482 -0.6645
 2669TIP3   OH2 8012   2.471   3.482   1.624 -0.8140 -0.4413  0.3215
 2669TIP3    H1 8013   2.450   3.575   1.636  0.0734 -0.1332 -0.3813
 2669TIP3    H2 8014   2.451   3.442   1.708  1.4574  0.9139  1.6066
 2670TIP3   OH2 8015   1.256   3.634   1.750  0.0595  0.2071 -0.7746
 2670TIP3    H1 8016   1.190   3.694   1.784 -0.6550 -0.5010 -0.8752
 2670TIP3    H2 8017   1.211   3.550   1.744  1.4807 -0.7459  0.9464
 2671TIP3   OH2 8018   5.826   4.808   1.245 -0.0138  0.4408  0.1464
 2671TIP3    H1 8019   5.808   4.790   1.153 -0.8989 -2.1861  0.7563
 2671TIP3    H2 8020   5.896   4.748   1.268  0.1634  1.0315  1.2289
 2672TIP3   OH2 8021   4.627   1.117   2.890 -0.5837 -0.0728  0.0914
 2672TIP3    H1 8022   4.579   1.080   2.816 -1.0586  0.5257  0.0949
 2672TIP3    H2 8023   4.616   1.053   2.960 -0.1923 -0.6090 -0.3285
 2673TIP3   OH2 8024   4.381   2.432   3.603 -0.0829  0.2231  0.4278
 2673TIP3    H1 8025   4.364   2.526   3.604  0.1237  0.3802 -2.4331
 2673TIP3    H2 8026   4.300   2.393   3.635 -0.4789  1.3370  0.8450
 2674TIP3   OH2 8027   1.841   1.189   0.119  0.6202  0.0244 -0.3375
 2674TIP3    H1 8028   1.815   1.122   0.055  0.8441 -0.6246  0.2425
 2674TIP3    H2 8029   1.784   1.264   0.099  0.7018 -0.1582 -1.3051
 2675TIP3   OH2 8030   3.014   5.075   4.998 -0.4384 -0.3810 -0.1391
 2675TIP3    H1 8031   3.101   5.075   4.959  0.7048  0.0108  2.2063
 2675TIP3    H2 8032   3.005   5.162   5.036 -2.2154 -0.1466 -1.0186
 2676TIP3   OH2 8033   4.158   0.568   0.194  0.1547 -0.0999  0.3259
 2676TIP3    H1 8034   4.210   0.577   0.274  1.1262  0.0809 -0.3062
 2676TIP3    H2 8035   4.210   0.510   0.138  0.1526  0.8416 -0.6934
 2677TIP3   OH2 8036   0.302   3.191   4.603 -0.1274 -0.2230 -0.2884
 2677TIP3    H1 8037   0.264   3.265   4.649 -2.3491 -0.8746 -0.9833
 2677TIP3    H2 8038   0.233   3.160   4.544  2.1411 -0.1929 -3.2011
 2678TIP3   OH2 8039   4.968   5.871   2.236  0.4180 -0.3725  0.1463
 2678TIP3    H1 8040   4.916   5.791   2.232  0.7805 -0.6759  1.1240
 2678TIP3    H2 8041   4.946   5.918   2.156 -1.2860 -0.5325  0.4722
 2679TIP3   OH2 8042   5.486  -0.021   3.642  0.4378 -0.0448 -0.5784
 2679TIP3    H1 8043   5.400  -0.040   3.606  1.1739 -0.6218 -2.1435
 2679TIP3    H2 8044   5.492   0.075   3.639 -0.1766  0.0048 -0.3564
 2680TIP3   OH2 8045   0.623   0.600   1.127 -0.2419 -0.4663  0.1927
 2680TIP3    H1 8046   0.680   0.589   1.051 -0.5420  1.9060 -0.4380
 2680TIP3    H2 8047   0.535   0.587   1.093 -0.2401 -2.3871  0.8094
 2681TIP3   OH2 8048   1.508   0.948   2.189 -0.0195 -0.5770 -0.5543
 2681TIP3    H1 8049   1.443   0.946   2.120  0.9630  0.1772 -1.5310
 2681TIP3    H2 8050   1.527   0.855   2.207  1.7022 -0.8300 -3.2509
 2682TIP3   OH2 8051   5.777   3.746   1.775 -0.8448  0.0731 -0.2619
 2682TIP3    H1 8052   5.872   3.744   1.779 -0.8268 -0.1294 -0.7147
 2682TIP3    H2 8053   5.748   3.675   1.832 -0.7568  0.8268  0.7379
 2683TIP3   OH2 8054   5.481   1.568   3.656  0.1563 -0.4117  0.0725
 2683TIP3    H1 8055   5.450   1.482   3.685  0.3600 -0.5193 -0.0231
 2683TIP3    H2 8056   5.473   1.623   3.734 -0.1935 -0.4577  0.0694
 2684TIP3   OH2 8057   5.446   5.335   4.012  0.2919 -0.4591 -0.3920
 2684TIP3    H1 8058   5.431   5.241   4.009 -1.5703 -0.1881 -0.4631
 2684TIP3    H2 8059   5.359   5.374   4.000  1.1052  1.2717 -0.9675
 2685TIP3   OH2 8060   2.153   4.663   4.836 -0.0846  0.8653  0.0862
 2685TIP3    H1 8061   2.088   4.596   4.853  0.8969 -0.2422 -0.3369
 2685TIP3    H2 8062   2.142   4.728   4.905  0.5722 -0.9923  2.0157
 2686TIP3   OH2 8063   3.607   3.637   4.687  0.2657 -0.2264 -0.2670
 2686TIP3    H1 8064   3.557   3.695   4.630 -1.4617 -0.8584  0.5441
 2686TIP3    H2 8065   3.687   3.686   4.707 -0.6817  1.4529 -0.4009
 2687TIP3   OH2 8066   2.969   1.182   5.160  0.2482  0.1901  0.0244
 2687TIP3    H1 8067   2.885   1.140   5.143  0.2355  0.4919 -0.6858
 2687TIP3    H2 8068   2.970   1.258   5.102  0.6613  0.6564  0.6328
 2688TIP3   OH2 8069   1.077   0.707   2.632  0.5518  0.0950  0.3477
 2688TIP3    H1 8070   1.020   0.676   2.702 -3.5985 -1.9081 -3.4124
 2688TIP3    H2 8071   1.107   0.626   2.589 -0.4048  1.1003 -2.4388
 2689TIP3   OH2 8072   2.289   1.646   1.305 -0.1106  0.3184 -0.5266
 2689TIP3    H1 8073   2.309   1.621   1.395  0.3570 -0.1289 -0.7542
 2689TIP3    H2 8074   2.230   1.722   1.314  0.1087  0.4130  0.1501
 2690TIP3   OH2 8075   6.211   5.444   2.489 -0.0658 -0.4851 -0.0174
 2690TIP3    H1 8076   6.210   5.424   2.396  0.6837  0.1091 -0.1678
 2690TIP3    H2 8077   6.133   5.499   2.503  0.5667  0.5801 -0.5807
 2691TIP3   OH2 8078   0.888   3.155   4.422  0.4547  0.1153 -0.4721
 2691TIP3    H1 8079   0.878   3.073   4.470 -0.6394  0.8634  0.6305
 2691TIP3    H2 8080   0.799   3.187   4.410  0.7997  0.6726 -1.7511
 2692TIP3   OH2 8081   1.834   5.624   0.904 -0.0983  0.1588 -0.9221
 2692TIP3    H1 8082   1.798   5.592   0.821 -1.3661 -0.9177  0.0011
 2692TIP3    H2 8083   1.796   5.567   0.971  0.1571  1.5609  0.4960
 2693TIP3   OH2 8084   0.449   0.722   0.751  0.3910 -0.2338  0.0566
 2693TIP3    H1 8085   0.403   0.700   0.670 -2.1149  0.8803  1.0733
 2693TIP3    H2 8086   0.509   0.649   0.765  0.9364 -0.4430 -2.7739
 2694TIP3   OH2 8087   2.014   2.871   4.651  0.5147  0.6841 -0.0202
 2694TIP3    H1 8088   1.942   2.807   4.649  0.1928  1.0521 -1.6704
 2694TIP3    H2 8089   2.010   2.908   4.739  0.8322 -1.6782  1.0490
 2695TIP3   OH2 8090   3.252   1.968   1.204  0.0390 -0.2346 -0.2691
 2695TIP3    H1 8091   3.171   1.954   1.154  1.2384 -0.1182 -2.3698
 2695TIP3    H2 8092   3.293   1.881   1.208  0.7942  0.0709 -1.0707
 2696TIP3   OH2 8093   4.133   1.456   3.808 -0.3772 -0.1711 -0.0518
 2696TIP3    H1 8094   4.185   1.523   3.852 -1.5606  0.2526  0.7616
 2696TIP3    H2 8095   4.142   1.378   3.863  0.7618 -0.6218 -0.8407
 2697TIP3   OH2 8096   3.841   2.635   3.660 -0.0932  0.6332  0.1061
 2697TIP3    H1 8097   3.753   2.632   3.622 -0.0604  0.5576  0.0349
 2697TIP3    H2 8098   3.861   2.543   3.681 -0.6098  0.7977  1.4564
 2698TIP3   OH2 8099   4.170   3.226   2.708  0.3114  0.1769  0.2559
 2698TIP3    H1 8100   4.137   3.250   2.794 -3.3177  1.2604 -1.2464
 2698TIP3    H2 8101   4.213   3.305   2.676 -1.1395  0.8610 -0.0833
 2699TIP3   OH2 8102   5.706   1.400   1.637  0.4103 -0.1870  0.7353
 2699TIP3    H1 8103   5.699   1.371   1.547 -0.8131  1.3014  0.3073
 2699TIP3    H2 8104   5.616   1.406   1.668  0.5796  2.3520  0.9948
 2700TIP3   OH2 8105   4.487   5.102   2.558 -0.1910 -0.1412  0.1423
 2700TIP3    H1 8106   4.482   5.043   2.633 -1.3984 -0.2223  0.0075
 2700TIP3    H2 8107   4.429   5.175   2.579 -0.1124  0.1080 -0.4659
 2701TIP3   OH2 8108   4.274   0.469   4.346  0.5840 -0.5151  0.5656
 2701TIP3    H1 8109   4.244   0.553   4.309 -0.1916 -0.6841  0.8013
 2701TIP3    H2 8110   4.368   0.482   4.360  0.1032  1.1252  2.7103
 2702TIP3   OH2 8111   1.375   3.052   0.420 -0.1085 -0.1874  0.3571
 2702TIP3    H1 8112   1.423   3.008   0.489  1.2764 -0.5357 -0.7885
 2702TIP3    H2 8113   1.425   3.036   0.340 -1.8354 -0.0977 -0.8203
 2703TIP3   OH2 8114   5.836   0.996   4.050  0.3147 -0.3258  0.2098
 2703TIP3    H1 8115   5.877   1.047   4.119  0.1441 -0.8813  0.7370
 2703TIP3    H2 8116   5.805   1.060   3.986  0.4919  0.1921  0.6445
 2704TIP3   OH2 8117   4.513   0.667   2.620  0.6068  0.2534  0.4924
 2704TIP3    H1 8118   4.494   0.761   2.615  0.7553  0.3539  1.5535
 2704TIP3    H2 8119   4.427   0.627   2.634  0.7705  0.4308  2.1499
 2705TIP3   OH2 8120   1.874   4.532   1.571  0.1155  0.2055 -0.3254
 2705TIP3    H1 8121   1.930   4.556   1.498  0.8397 -0.7855 -0.1209
 2705TIP3    H2 8122   1.795   4.496   1.531 -0.2670  1.3289 -0.6130
 2706TIP3   OH2 8123   0.221   2.525   2.810  0.3151  0.1142 -0.1158
 2706TIP3    H1 8124   0.273   2.513   2.889 -0.3956  2.3027  0.7548
 2706TIP3    H2 8125   0.223   2.440   2.767  1.7378 -0.7964  1.6234
 2707TIP3   OH2 8126   1.692   4.145   2.333  0.4441  0.1228 -0.0250
 2707TIP3    H1 8127   1.715   4.194   2.412  1.0671  0.0139 -0.1337
 2707TIP3    H2 8128   1.775   4.107   2.303  0.0918 -0.4115 -0.3416
 2708TIP3   OH2 8129   5.068   1.236   0.196 -0.4069  0.4431  0.0402
 2708TIP3    H1 8130   5.106   1.230   0.284 -1.4086  1.6155  0.5797
 2708TIP3    H2 8131   4.991   1.180   0.201 -0.0407 -0.0996 -0.3398
 2709TIP3   OH2 8132   4.592   2.834   2.890 -0.0310 -0.1961  0.1462
 2709TIP3    H1 8133   4.631   2.750   2.864 -0.1349 -0.4172  0.6877
 2709TIP3    H2 8134   4.665   2.884   2.927  0.2945  0.4352 -1.2522
 2710TIP3   OH2 8135   3.877   4.002   4.522 -0.6124  0.3585 -0.1745
 2710TIP3    H1 8136   3.963   4.027   4.557  0.2334 -1.3840 -0.9122
 2710TIP3    H2 8137   3.883   4.021   4.429 -1.4423  1.2271 -0.0666
 2711TIP3   OH2 8138   3.394   2.487   0.967 -0.7857  1.1554 -0.1161
 2711TIP3    H1 8139   3.418   2.539   1.044 -2.2510  2.5048 -0.5245
 2711TIP3    H2 8140   3.402   2.547   0.894 -1.4761  0.4894 -0.7588
 2712TIP3   OH2 8141   5.736   4.147   1.440 -0.4616  0.1807 -0.3191
 2712TIP3    H1 8142   5.654   4.160   1.486  1.0089  1.3179  2.1732
 2712TIP3    H2 8143   5.762   4.057   1.461 -0.0307  0.5410  0.7379
 2713TIP3   OH2 8144   0.255   2.926   1.006 -0.1435 -0.0537  0.7001
 2713TIP3    H1 8145   0.170   2.937   1.047  0.3267 -0.1138  1.7311
 2713TIP3    H2 8146   0.238   2.875   0.927 -1.0706  0.0439  0.8329
 2714TIP3   OH2 8147   5.231   5.483   3.963  0.0586 -0.2406 -0.1012
 2714TIP3    H1 8148   5.160   5.461   4.024 -0.1647  0.3081 -0.1545
 2714TIP3    H2 8149   5.260   5.570   3.991 -1.3216  0.8792 -1.9179
 2715TIP3   OH2 8150   6.176   0.048   4.745  0.0263  0.1412 -0.1675
 2715TIP3    H1 8151   6.180   0.138   4.714  0.1530  0.7465  1.4709
 2715TIP3    H2 8152   6.164   0.056   4.840 -1.9819 -1.5688 -0.1914
 2716TIP3   OH2 8153   2.599   3.288   0.935 -0.2819  0.2958  0.7217
 2716TIP3    H1 8154   2.600   3.264   1.027  1.2337  1.9567  1.1906
 2716TIP3    H2 8155   2.687   3.319   0.917  0.1277 -2.0236 -1.8964
 2717TIP3   OH2 8156   0.191   4.422   4.245 -0.1754  0.3342  0.2356
 2717TIP3    H1 8157   0.217   4.411   4.153 -0.5689 -1.9590  0.3512
 2717TIP3    H2 8158   0.121   4.358   4.258 -1.5937  2.0568  1.6136
 2718TIP3   OH2 8159   3.842   2.480   5.115 -0.1234  0.0187  0.1786
 2718TIP3    H1 8160   3.811   2.568   5.136 -0.0445  0.0612  0.1192
 2718TIP3    H2 8161   3.779   2.422   5.157 -0.0147  0.1028  0.4542
 2719TIP3   OH2 8162   0.514   3.008   4.658 -0.2203  0.3440  0.2517
 2719TIP3    H1 8163   0.492   2.915   4.667  0.3352  0.2667  0.9407
 2719TIP3    H2 8164   0.430   3.052   4.646 -0.5661 -0.1597  0.7987
 2720TIP3   OH2 8165   2.869   4.015   3.225  0.2622  0.2949 -0.2822
 2720TIP3    H1 8166   2.901   3.981   3.141 -0.2272  1.0275 -0.7769
 2720TIP3    H2 8167   2.792   3.961   3.244  0.9609 -0.5617  0.2331
 2721TIP3   OH2 8168   1.594   1.292   3.868  0.0500 -0.2965 -0.7390
 2721TIP3    H1 8169   1.615   1.358   3.802 -1.4633  0.7163 -0.2660
 2721TIP3    H2 8170   1.592   1.341   3.951 -1.6213 -0.7996 -0.4559
 2722TIP3   OH2 8171   5.037   5.011   4.948 -0.2340  0.2529 -0.0329
 2722TIP3    H1 8172   5.129   5.020   4.921  0.2228  0.7941  1.5855
 2722TIP3    H2 8173   5.011   5.100   4.972 -1.0163  0.0056  0.0558
 2723TIP3   OH2 8174   2.911   1.402   4.978  0.1400  0.5764  0.5954
 2723TIP3    H1 8175   2.880   1.368   4.895 -0.6371 -0.3703  1.2597
 2723TIP3    H2 8176   2.981   1.464   4.954  0.5090 -0.3157 -0.7012
 2724TIP3   OH2 8177   2.633   3.636   1.869  0.7265  0.0473  0.1881
 2724TIP3    H1 8178   2.612   3.725   1.896 -1.8773 -0.2078 -0.6992
 2724TIP3    H2 8179   2.640   3.586   1.950  1.7129  0.9401  0.6682
 2725TIP3   OH2 8180   4.254   3.452   2.565  0.1443  0.1504 -0.5030
 2725TIP3    H1 8181   4.341   3.447   2.525 -0.2417  1.9348 -1.6685
 2725TIP3    H2 8182   4.226   3.542   2.551 -2.1856 -0.5448 -0.7718
 2726TIP3   OH2 8183   3.579   3.400   0.835 -0.3137  0.4628 -0.6011
 2726TIP3    H1 8184   3.579   3.456   0.757  2.4780 -2.2978 -2.8259
 2726TIP3    H2 8185   3.671   3.389   0.857 -0.8846 -1.3614  1.1711
 2727TIP3   OH2 8186   0.508   0.901   0.311 -0.0769  0.3151 -0.2533
 2727TIP3    H1 8187   0.432   0.917   0.366 -0.1058  1.1475 -0.5166
 2727TIP3    H2 8188   0.476   0.909   0.221  0.5245  1.8865 -0.3719
 2728TIP3   OH2 8189   2.611   3.516   0.774 -0.1408  0.1259 -0.5726
 2728TIP3    H1 8190   2.606   3.601   0.731 -0.2467 -0.3770 -1.5903
 2728TIP3    H2 8191   2.697   3.481   0.750  0.5067  0.5134  0.9979
 2729TIP3   OH2 8192   1.346   1.572   3.063  0.6033 -0.1699  0.3885
 2729TIP3    H1 8193   1.357   1.667   3.074 -1.5736 -0.0475  2.1417
 2729TIP3    H2 8194   1.379   1.535   3.145 -0.5602 -0.7119  0.6295
 2730TIP3   OH2 8195   3.944   0.782   0.262  0.0740  0.0117 -0.1329
 2730TIP3    H1 8196   3.989   0.699   0.249 -1.9760 -1.4850  1.5809
 2730TIP3    H2 8197   3.999   0.831   0.322  1.0929 -0.2797 -0.8123
 2731TIP3   OH2 8198   1.409   3.755   4.470 -0.4368  0.0446  0.2175
 2731TIP3    H1 8199   1.488   3.797   4.504 -0.7733  0.2524  0.7534
 2731TIP3    H2 8200   1.428   3.661   4.472 -0.5524  0.0415  1.2354
 2732TIP3   OH2 8201   4.704   4.779   2.807  0.2160 -0.1234  0.1469
 2732TIP3    H1 8202   4.746   4.712   2.861 -0.4443  0.1012  0.9581
 2732TIP3    H2 8203   4.728   4.756   2.717  1.3479 -0.4964  0.5243
 2733TIP3   OH2 8204   2.572   1.160   2.006 -0.2966  0.6465  0.3472
 2733TIP3    H1 8205   2.507   1.135   1.941 -0.1086  1.1311 -0.0371
 2733TIP3    H2 8206   2.650   1.109   1.983 -0.2980  0.6557  0.3215
 2734TIP3   OH2 8207   4.429   3.157   1.015  0.0079 -0.4461 -0.2411
 2734TIP3    H1 8208   4.433   3.141   0.921  2.2355  1.6073 -0.5941
 2734TIP3    H2 8209   4.520   3.151   1.045 -0.3327  1.1325  1.3270
 2735TIP3   OH2 8210   0.912   1.106   1.073  0.1230  0.4139 -0.1751
 2735TIP3    H1 8211   0.859   1.126   0.996 -1.4702  1.5003  1.1276
 2735TIP3    H2 8212   0.877   1.022   1.104  0.0528  0.4849 -0.0599
 2736TIP3   OH2 8213   1.007   5.095   1.211  0.6097  0.0762  0.4715
 2736TIP3    H1 8214   0.950   5.157   1.165 -1.5634 -1.0629  1.4820
 2736TIP3    H2 8215   1.068   5.065   1.144  0.2453  1.5976 -0.5987
 2737TIP3   OH2 8216   6.314   2.601   2.867  0.1818 -0.8305  0.4324
 2737TIP3    H1 8217   6.293   2.670   2.803 -0.4938 -2.1520 -0.8463
 2737TIP3    H2 8218   6.399   2.567   2.838 -0.0179 -1.2819  0.3752
 2738TIP3   OH2 8219   1.576   2.500   0.600 -0.4294 -0.0227 -0.1025
 2738TIP3    H1 8220   1.633   2.502   0.677 -2.3072 -0.1548  1.3785
 2738TIP3    H2 8221   1.610   2.428   0.547 -0.1550 -1.1292  1.5112
 2739TIP3   OH2 8222   2.212   3.522   4.269 -0.1232 -0.0483 -0.2055
 2739TIP3    H1 8223   2.212   3.445   4.325 -1.3681  0.3383  0.3676
 2739TIP3    H2 8224   2.132   3.514   4.217 -1.5632  2.0132  1.5539
 2740TIP3   OH2 8225   2.869   2.263   3.828  0.2201 -0.5056 -0.0763
 2740TIP3    H1 8226   2.849   2.250   3.736 -0.3190  0.3885 -0.0993
 2740TIP3    H2 8227   2.783   2.268   3.871  0.4493 -0.2080  0.3628
 2741TIP3   OH2 8228   2.361   0.136   1.640  0.2736  0.7591  0.3487
 2741TIP3    H1 8229   2.450   0.110   1.665  0.4224  0.3227 -0.5747
 2741TIP3    H2 8230   2.314   0.143   1.723  1.1184  0.8080  0.8375
 2742TIP3   OH2 8231   5.844   0.530   3.902 -0.8244  0.1087 -0.6145
 2742TIP3    H1 8232   5.837   0.536   3.806  0.5159 -1.5737 -0.8720
 2742TIP3    H2 8233   5.796   0.606   3.934 -0.8180  1.0452 -2.6424
 2743TIP3   OH2 8234   0.284   1.437   4.846  0.6143  0.2471 -0.3224
 2743TIP3    H1 8235   0.217   1.468   4.906 -0.3627 -2.2034 -0.0174
 2743TIP3    H2 8236   0.360   1.421   4.901 -0.1156 -1.4960  0.2388
 2744TIP3   OH2 8237   3.314   0.090   0.443 -0.8195  0.1290  0.4793
 2744TIP3    H1 8238   3.269   0.056   0.366 -1.5656 -0.4283  1.1455
 2744TIP3    H2 8239   3.400   0.118   0.411 -0.6146 -1.3287 -0.3145
 2745TIP3   OH2 8240   1.548   3.311   1.294 -0.6900  0.2178  0.0628
 2745TIP3    H1 8241   1.596   3.339   1.372  0.0590 -0.3783 -0.1747
 2745TIP3    H2 8242   1.516   3.224   1.316  1.6357 -1.0382 -1.1497
 2746TIP3   OH2 8243   2.273   0.637   3.808 -0.0724  0.4414 -0.0953
 2746TIP3    H1 8244   2.297   0.658   3.899  1.9445  0.1342 -0.5068
 2746TIP3    H2 8245   2.332   0.690   3.755 -0.7764  0.1160 -1.2375
 2747TIP3   OH2 8246   6.289   4.414   3.713  0.1369  0.2179 -1.0266
 2747TIP3    H1 8247   6.245   4.334   3.744 -0.6277  0.4273 -1.5432
 2747TIP3    H2 8248   6.249   4.432   3.628  2.2611 -0.4007 -2.2279
 2748TIP3   OH2 8249   5.254   0.029   5.144 -0.3146 -0.2887  0.1190
 2748TIP3    H1 8250   5.188   0.092   5.173  0.4970  0.2775  0.7975
 2748TIP3    H2 8251   5.235   0.014   5.051 -1.0953  0.2204  0.1902
 2749TIP3   OH2 8252   4.993   0.648   2.551 -0.9698 -0.0673 -0.4701
 2749TIP3    H1 8253   4.899   0.628   2.547 -1.0583 -0.1059  1.0242
 2749TIP3    H2 8254   5.003   0.728   2.500 -1.6630 -0.5183 -1.3434
 2750TIP3   OH2 8255   1.449   1.094   0.113  0.2546 -0.1911 -0.4200
 2750TIP3    H1 8256   1.459   1.127   0.023 -0.0661 -0.1547 -0.4406
 2750TIP3    H2 8257   1.502   1.013   0.114 -0.0823 -0.4207 -0.7632
 2751TIP3   OH2 8258   3.717   1.499   4.032  0.0048  0.1134 -0.3100
 2751TIP3    H1 8259   3.792   1.446   4.060 -1.0316 -0.3825  1.7012
 2751TIP3    H2 8260   3.754   1.586   4.017  0.9506  0.0033  1.1141
 2752TIP3   OH2 8261   1.690   2.992   3.854 -0.2326 -0.1576 -0.2423
 2752TIP3    H1 8262   1.781   2.964   3.839 -1.0797 -2.4093 -1.8174
 2752TIP3    H2 8263   1.691   3.086   3.838  2.2270  0.3289  2.0685
 2753TIP3   OH2 8264   1.598   2.198   3.589 -0.5678  0.3182  0.0783
 2753TIP3    H1 8265   1.557   2.120   3.627  0.3451  0.5624  1.6385
 2753TIP3    H2 8266   1.531   2.266   3.598 -0.4259  0.3332  1.1559
 2754TIP3   OH2 8267   1.072   4.000   1.581 -0.1112 -0.0653  0.5506
 2754TIP3    H1 8268   1.025   4.063   1.527 -0.0153 -0.8136 -0.4347
 2754TIP3    H2 8269   1.004   3.957   1.633 -0.0963  1.3448  1.7881
 2755TIP3   OH2 8270   0.127   0.635   4.047  0.2559 -0.0838  0.2709
 2755TIP3    H1 8271   0.202   0.637   3.988  0.9382  0.5776  1.1488
 2755TIP3    H2 8272   0.136   0.551   4.094 -0.1706 -0.5117 -0.3990
 2756TIP3   OH2 8273   6.014   2.961   4.331  0.0055  0.2688  0.5075
 2756TIP3    H1 8274   6.079   3.030   4.314  0.6772 -0.0910  1.5273
 2756TIP3    H2 8275   5.959   2.996   4.401  0.4463 -0.2711  1.1370
 2757TIP3   OH2 8276   4.640   0.307   1.293  0.2566 -0.3714  0.2676
 2757TIP3    H1 8277   4.616   0.342   1.208  1.8537  0.5858  0.1617
 2757TIP3    H2 8278   4.569   0.248   1.316 -0.5709 -0.0705 -1.3759
 2758TIP3   OH2 8279   3.496   5.694   4.423  0.2342 -0.0693 -0.5015
 2758TIP3    H1 8280   3.478   5.656   4.337 -1.5544 -0.5842  0.0515
 2758TIP3    H2 8281   3.588   5.672   4.441  0.0290 -1.8277 -1.3718
 2759TIP3   OH2 8282   2.356   5.454   1.817 -0.2214  0.0129  0.3408
 2759TIP3    H1 8283   2.386   5.363   1.822 -0.0007  0.1274  1.2760
 2759TIP3    H2 8284   2.342   5.470   1.724 -0.0538 -0.9126  0.1513
 2760TIP3   OH2 8285   4.166   3.213   0.305  0.7172 -0.1348  0.3255
 2760TIP3    H1 8286   4.212   3.142   0.351  1.4892 -0.2851 -0.6267
 2760TIP3    H2 8287   4.113   3.255   0.372  1.2007 -0.8405  1.1767
 2761TIP3   OH2 8288   5.051   3.301   4.282  0.1928  0.0396 -0.2161
 2761TIP3    H1 8289   5.136   3.286   4.325 -0.5834 -0.6849  1.1296
 2761TIP3    H2 8290   5.019   3.383   4.319 -0.7114 -0.8429  1.0526
 2762TIP3   OH2 8291   5.982   0.114   4.094 -0.2637  1.0130  0.0954
 2762TIP3    H1 8292   5.941   0.138   4.011 -0.1897  0.3702 -0.1333
 2762TIP3    H2 8293   5.930   0.157   4.161 -1.3108  0.2285 -0.1857
 2763TIP3   OH2 8294   1.914   5.371   4.191  0.3214  0.0970  0.5497
 2763TIP3    H1 8295   1.994   5.412   4.158  1.8324 -1.3128  2.3218
 2763TIP3    H2 8296   1.879   5.434   4.254  1.3710 -0.2657  1.5341
 2764TIP3   OH2 8297   1.029   4.364   0.243  0.2713 -0.0958 -0.0888
 2764TIP3    H1 8298   1.048   4.457   0.255  3.5376 -0.7331  0.9614
 2764TIP3    H2 8299   0.990   4.336   0.326 -0.3190  0.2448 -0.2497
 2765TIP3   OH2 8300   5.665   5.780   1.238  0.1162  0.2057 -0.0026
 2765TIP3    H1 8301   5.648   5.686   1.226 -0.1224 -0.1783  2.7412
 2765TIP3    H2 8302   5.760   5.785   1.252 -0.2254 -0.1367  3.0265
 2766TIP3   OH2 8303   0.925   4.724   4.303  0.8394  0.1587  0.9066
 2766TIP3    H1 8304   0.899   4.809   4.266 -0.3262  0.1839  1.7096
 2766TIP3    H2 8305   0.968   4.746   4.386  1.5602  0.0057  0.5809
 2767TIP3   OH2 8306   2.586   4.927   0.894  0.1102  0.4004 -0.2976
 2767TIP3    H1 8307   2.645   4.957   0.963 -1.5027  1.0178  0.8884
 2767TIP3    H2 8308   2.592   4.994   0.826 -1.2569  2.0188  1.0527
 2768TIP3   OH2 8309   0.678   3.867   1.955 -0.3470  0.0803 -0.0010
 2768TIP3    H1 8310   0.697   3.779   1.987 -1.3446 -0.3575 -0.5726
 2768TIP3    H2 8311   0.750   3.920   1.989  0.7098 -1.0935 -0.3226
 2769TIP3   OH2 8312   3.749   5.135   2.641 -0.2926  0.0251 -0.1202
 2769TIP3    H1 8313   3.753   5.059   2.698  0.6475  0.2850  0.1702
 2769TIP3    H2 8314   3.691   5.196   2.686  0.0318  0.0196  0.3068
 2770TIP3   OH2 8315   1.922   5.121   4.389  0.2933 -0.0432  0.1556
 2770TIP3    H1 8316   1.893   5.087   4.474 -0.9176  0.5201 -0.0119
 2770TIP3    H2 8317   1.889   5.057   4.326  1.0798 -0.3933  0.0892
 2771TIP3   OH2 8318   5.502   4.774   4.106  0.1794  0.2305  0.0771
 2771TIP3    H1 8319   5.470   4.684   4.101  0.2840  0.1140  1.2235
 2771TIP3    H2 8320   5.565   4.781   4.034 -1.1765 -0.0284 -1.1886
 2772TIP3   OH2 8321   2.939   0.304   3.627  0.1758  0.0396 -0.0605
 2772TIP3    H1 8322   3.012   0.337   3.680  0.1862  0.0721 -0.0947
 2772TIP3    H2 8323   2.928   0.370   3.558  0.4437 -0.2192 -0.3515
 2773TIP3   OH2 8324   2.100   1.276   3.874 -0.0370 -0.0168 -0.0587
 2773TIP3    H1 8325   2.142   1.194   3.850 -0.4917 -1.0796  2.5352
 2773TIP3    H2 8326   2.006   1.258   3.866 -0.1889  1.3279 -2.5841
 2774TIP3   OH2 8327   1.636   4.746   4.738 -0.2955 -0.4881  0.2044
 2774TIP3    H1 8328   1.674   4.658   4.743 -1.7601 -1.2219 -0.8988
 2774TIP3    H2 8329   1.592   4.749   4.653 -1.4739  0.8153  0.8160
 2775TIP3   OH2 8330   4.163   2.729   0.339 -0.3131 -0.4554 -0.1707
 2775TIP3    H1 8331   4.114   2.717   0.420  1.6418 -0.3512  1.0951
 2775TIP3    H2 8332   4.125   2.666   0.278 -3.1758  0.8686  0.1124
 2776TIP3   OH2 8333   4.884   3.697   3.148  0.2935 -0.1730 -0.1663
 2776TIP3    H1 8334   4.817   3.632   3.171  1.3297 -0.6854  1.5554
 2776TIP3    H2 8335   4.947   3.694   3.220  1.5967  1.1019 -1.1842
 2777TIP3   OH2 8336   2.500   3.545   1.360 -0.1802  0.5233 -0.2004
 2777TIP3    H1 8337   2.417   3.570   1.321 -0.0568  1.1226 -0.0849
 2777TIP3    H2 8338   2.477   3.514   1.448 -0.2042  1.3726  0.0967
 2778TIP3   OH2 8339   2.694   3.335   1.290 -0.1590 -0.2498  0.2992
 2778TIP3    H1 8340   2.692   3.248   1.329  1.8867  1.1669  4.0423
 2778TIP3    H2 8341   2.613   3.376   1.319 -0.8389 -0.6051 -0.9780
 2779TIP3   OH2 8342   5.386   5.449   0.024  0.1485 -0.0943 -0.2040
 2779TIP3    H1 8343   5.475   5.443  -0.011  0.5556 -2.3320  1.0122
 2779TIP3    H2 8344   5.386   5.527   0.078  1.6413 -0.4793  0.4020
 2780TIP3   OH2 8345   4.045   4.310   1.685  0.0315 -0.4003 -0.2307
 2780TIP3    H1 8346   4.060   4.290   1.778  1.0793 -1.6707 -0.6402
 2780TIP3    H2 8347   3.951   4.300   1.673  0.1524 -2.5515  0.2123
 2781TIP3   OH2 8348   2.223   5.861   1.993 -0.3905 -0.1317 -0.7231
 2781TIP3    H1 8349   2.279   5.900   2.060 -0.8738 -0.4580 -0.1153
 2781TIP3    H2 8350   2.134   5.878   2.023 -0.6135 -0.6671 -1.0585
 2782TIP3   OH2 8351   6.324   5.327   0.468 -0.5067  0.0620  0.4977
 2782TIP3    H1 8352   6.276   5.249   0.495  0.2059 -1.0329 -1.2103
 2782TIP3    H2 8353   6.285   5.352   0.384  1.2202 -0.3238 -0.4814
 2783TIP3   OH2 8354   4.771   5.587   1.543  0.4656  0.2097  0.0217
 2783TIP3    H1 8355   4.759   5.494   1.561  1.1933 -0.5514 -2.9339
 2783TIP3    H2 8356   4.802   5.624   1.626  1.3573 -2.3969  0.9338
 2784TIP3   OH2 8357   4.117   5.061   5.111  0.4281  0.3492  0.9201
 2784TIP3    H1 8358   4.188   5.009   5.147 -1.8991 -1.5835  3.1173
 2784TIP3    H2 8359   4.104   5.025   5.023  1.3909 -0.0858  0.9391
 2785TIP3   OH2 8360   5.223   5.533   0.527 -0.4598  0.0921 -0.0966
 2785TIP3    H1 8361   5.217   5.582   0.444 -1.2066 -1.2317 -0.8578
 2785TIP3    H2 8362   5.315   5.511   0.535 -0.3056  0.6347 -0.3356
 2786TIP3   OH2 8363   2.018   1.692   2.440 -0.1021  0.1133 -0.1045
 2786TIP3    H1 8364   2.089   1.648   2.393 -0.6184 -0.9066  0.0365
 2786TIP3    H2 8365   2.036   1.673   2.532  0.7829  1.9129  0.1326
 2787TIP3   OH2 8366   3.780   0.860   1.711  0.1826  0.5673 -0.3585
 2787TIP3    H1 8367   3.821   0.843   1.796 -2.5254 -2.0145  0.6255
 2787TIP3    H2 8368   3.783   0.776   1.666 -0.4758  1.3111 -1.8670
 2788TIP3   OH2 8369   4.845   1.154   4.229  0.2860 -0.1729 -0.0945
 2788TIP3    H1 8370   4.783   1.212   4.186  0.9883  1.2506  0.7423
 2788TIP3    H2 8371   4.931   1.190   4.207  0.7142 -0.4480  1.0272
 2789TIP3   OH2 8372   5.833   2.316   0.566  0.2993 -0.1899  0.0428
 2789TIP3    H1 8373   5.799   2.315   0.476  0.5071 -1.0577 -0.0322
 2789TIP3    H2 8374   5.902   2.250   0.566  0.3846 -0.1019  0.8091
 2790TIP3   OH2 8375   1.762   0.570   0.545  0.5646 -0.3297  0.0248
 2790TIP3    H1 8376   1.683   0.545   0.593 -0.3399 -0.6379 -1.5634
 2790TIP3    H2 8377   1.770   0.664   0.559 -1.2995  0.0970 -1.4625
 2791TIP3   OH2 8378   1.960   5.792   3.458  0.5387  0.2462  0.3205
 2791TIP3    H1 8379   1.919   5.877   3.442  0.5587  0.1557 -0.2318
 2791TIP3    H2 8380   1.916   5.758   3.536  1.0988  1.1245  1.0356
 2792TIP3   OH2 8381   4.967   3.299   0.984  0.2895 -0.3579 -0.4887
 2792TIP3    H1 8382   5.030   3.329   1.049  0.4162  1.8954 -1.5564
 2792TIP3    H2 8383   4.945   3.210   1.011  0.7799  0.2712  2.2670
 2793TIP3   OH2 8384   4.403   4.193   4.056 -0.9133 -0.4190  0.4296
 2793TIP3    H1 8385   4.483   4.228   4.096  0.1723 -1.0593 -1.0605
 2793TIP3    H2 8386   4.375   4.260   3.995 -0.9441 -0.5927  0.2497
 2794TIP3   OH2 8387   3.707   5.467   1.733  0.8628 -0.0215 -0.2913
 2794TIP3    H1 8388   3.632   5.527   1.737  0.5685 -0.3947 -0.1230
 2794TIP3    H2 8389   3.696   5.410   1.809  0.1528 -1.4319 -1.3951
 2795TIP3   OH2 8390   4.908   1.763   3.419  0.7514 -0.6996 -0.2776
 2795TIP3    H1 8391   4.967   1.831   3.387 -0.3130  0.4154  0.0162
 2795TIP3    H2 8392   4.898   1.703   3.345  0.9282  0.0187 -0.9004
 2796TIP3   OH2 8393   4.067   1.262   3.333  0.4079 -0.6708 -0.3449
 2796TIP3    H1 8394   4.012   1.321   3.282  0.3189 -1.5328 -1.2853
 2796TIP3    H2 8395   4.135   1.318   3.370  1.5603 -0.2131 -2.9164
 2797TIP3   OH2 8396   2.260   2.736   4.615  0.1455 -0.5224 -0.5059
 2797TIP3    H1 8397   2.183   2.761   4.666 -0.6734 -0.6118 -1.6538
 2797TIP3    H2 8398   2.279   2.647   4.643  0.8495  0.0631  0.9683
 2798TIP3   OH2 8399   6.125   3.992   4.309 -0.3071 -0.2173 -0.5386
 2798TIP3    H1 8400   6.043   3.956   4.275 -1.0112  0.0844  0.7923
 2798TIP3    H2 8401   6.191   3.926   4.287 -0.9903 -0.7100 -1.1622
 2799TIP3   OH2 8402   0.219   5.173   2.381 -0.5064  0.5228 -0.1085
 2799TIP3    H1 8403   0.205   5.261   2.345 -0.3382  0.2924 -0.7422
 2799TIP3    H2 8404   0.290   5.136   2.329 -2.4782 -1.0916 -1.8369
 2800TIP3   OH2 8405   6.345   2.487   0.749 -0.3665  0.2674  0.1254
 2800TIP3    H1 8406   6.426   2.456   0.707 -0.5861  0.1766 -0.2441
 2800TIP3    H2 8407   6.278   2.426   0.718 -1.1671  2.1387 -2.0990
 2801TIP3   OH2 8408   5.725   5.648   4.508 -0.3039  0.6153  0.8423
 2801TIP3    H1 8409   5.806   5.622   4.552  0.1069 -0.1734 -0.3189
 2801TIP3    H2 8410   5.694   5.725   4.555  0.5300  0.2550  1.9951
 2802TIP3   OH2 8411   3.118   0.101   0.679 -0.6911 -0.0455 -0.6055
 2802TIP3    H1 8412   3.148   0.103   0.588 -0.6910  0.6349 -0.5981
 2802TIP3    H2 8413   3.162   0.026   0.718  1.0871  0.9745 -0.5618
 2803TIP3   OH2 8414   6.201   3.124   1.033 -0.0187  0.0018 -0.0381
 2803TIP3    H1 8415   6.108   3.136   1.052 -0.0692 -0.3623 -0.0483
 2803TIP3    H2 8416   6.245   3.194   1.083 -0.1093 -1.2488  1.8955
 2804TIP3   OH2 8417   3.367   0.422   1.477  0.9030  0.3209  0.3989
 2804TIP3    H1 8418   3.322   0.359   1.420  1.9020 -0.6942  0.7102
 2804TIP3    H2 8419   3.316   0.422   1.558  1.4430 -0.8376  0.7579
 2805TIP3   OH2 8420   1.554   5.321   1.267 -0.4216  0.2850 -0.2979
 2805TIP3    H1 8421   1.635   5.274   1.286  0.2544  0.7815 -1.8420
 2805TIP3    H2 8422   1.497   5.300   1.341  0.3556 -1.7668 -0.2196
 2806TIP3   OH2 8423   4.288   3.727   1.641  0.5805 -0.6703 -0.2254
 2806TIP3    H1 8424   4.321   3.642   1.614 -0.9260 -1.1414 -0.6825
 2806TIP3    H2 8425   4.305   3.785   1.567  1.1183 -0.6990 -0.1266
 2807TIP3   OH2 8426   1.509   0.310   4.960  0.0858  0.3198 -0.1453
 2807TIP3    H1 8427   1.520   0.361   4.880  0.0561  1.3499  0.4922
 2807TIP3    H2 8428   1.544   0.365   5.029  0.7197 -0.8273  0.4866
 2808TIP3   OH2 8429   1.329   4.449   0.015 -0.0541 -0.3414 -0.2608
 2808TIP3    H1 8430   1.290   4.530   0.048  1.4594  0.3824 -0.1931
 2808TIP3    H2 8431   1.419   4.451   0.045  0.1095 -1.9150 -0.5355
 2809TIP3   OH2 8432   1.648   5.702   4.951  0.9106 -0.1445 -0.0783
 2809TIP3    H1 8433   1.724   5.744   4.989  0.7633 -0.3436  0.4418
 2809TIP3    H2 8434   1.577   5.719   5.014  0.5734 -0.1312 -0.4563
 2810TIP3   OH2 8435   4.520   2.995   4.274 -0.2986  0.1891 -0.1638
 2810TIP3    H1 8436   4.511   2.900   4.261 -1.1157  0.4030 -1.2911
 2810TIP3    H2 8437   4.460   3.014   4.347 -0.6088 -0.0702 -0.3450
 2811TIP3   OH2 8438   2.201   4.958   4.781  0.6030 -0.1644  0.5639
 2811TIP3    H1 8439   2.115   4.920   4.766 -0.1157  1.2720  0.8373
 2811TIP3    H2 8440   2.186   5.053   4.781  1.8451  0.0999  2.5729
 2812TIP3   OH2 8441   1.191   2.833   0.056  0.1444 -0.0802 -0.5737
 2812TIP3    H1 8442   1.134   2.909   0.048 -0.3004 -0.3801 -0.2899
 2812TIP3    H2 8443   1.260   2.848  -0.008  0.6224  1.0529  0.1650
 2813TIP3   OH2 8444   1.294   0.087   4.235 -0.1768  0.3644 -0.1726
 2813TIP3    H1 8445   1.385   0.087   4.263  0.4310 -1.8942 -1.8325
 2813TIP3    H2 8446   1.290   0.152   4.165  0.1797  0.4241 -0.1387
 2814TIP3   OH2 8447   3.430   2.474   3.381 -0.1060  0.1015 -0.4241
 2814TIP3    H1 8448   3.446   2.384   3.354  0.1756  0.0349 -0.0457
 2814TIP3    H2 8449   3.344   2.473   3.422 -0.4259  0.1536 -1.0927
 2815TIP3   OH2 8450   6.097   4.812   3.828  0.0131  0.3596  0.3890
 2815TIP3    H1 8451   6.078   4.735   3.881  2.0358  0.3958  1.2805
 2815TIP3    H2 8452   6.193   4.821   3.833  0.1695  1.0659 -2.3081
 2816TIP3   OH2 8453   3.980   2.855   0.085 -0.5156 -0.1358  0.5703
 2816TIP3    H1 8454   3.976   2.940   0.040  1.6467 -0.9866 -1.4360
 2816TIP3    H2 8455   3.989   2.878   0.178  1.3537  1.9296 -0.0250
 2817TIP3   OH2 8456   2.872   3.397   0.730  0.6553 -0.0202  0.1459
 2817TIP3    H1 8457   2.920   3.314   0.735  1.1688  0.3046  0.8143
 2817TIP3    H2 8458   2.876   3.432   0.820 -2.4425 -0.8782  0.7300
 2818TIP3   OH2 8459   2.671   1.517   2.173 -0.2364 -0.1198  0.1338
 2818TIP3    H1 8460   2.661   1.602   2.215 -1.9035 -1.2448  2.2573
 2818TIP3    H2 8461   2.703   1.460   2.243 -1.1564 -1.6699 -0.6516
 2819TIP3   OH2 8462   5.924   3.015   1.007 -0.7147  0.4713  0.5782
 2819TIP3    H1 8463   5.864   3.089   0.994  0.8783  1.7758  0.2359
 2819TIP3    H2 8464   5.942   2.983   0.919  0.4561  1.2919  0.4789
 2820TIP3   OH2 8465   0.156   4.341   2.321 -0.1736  0.6454  0.0963
 2820TIP3    H1 8466   0.074   4.298   2.343 -0.6929  0.1722 -2.4479
 2820TIP3    H2 8467   0.224   4.277   2.343 -0.3284  1.3373  2.9598
 2821TIP3   OH2 8468   0.225   4.587   2.471 -0.1628 -0.1042 -0.0089
 2821TIP3    H1 8469   0.296   4.649   2.485  0.6949 -1.2972  1.0750
 2821TIP3    H2 8470   0.179   4.582   2.555 -2.2002  1.3956 -0.9467
 2822TIP3   OH2 8471   5.972   1.766   0.485 -0.8624 -0.1332 -0.5553
 2822TIP3    H1 8472   6.031   1.762   0.409 -1.4373 -0.6264 -0.9931
 2822TIP3    H2 8473   6.019   1.818   0.550  0.6024 -1.5206 -0.4228
 2823TIP3   OH2 8474   6.182   0.590   2.853  0.4718 -0.0712 -0.2437
 2823TIP3    H1 8475   6.273   0.592   2.882  0.7456 -1.2381 -0.9720
 2823TIP3    H2 8476   6.184   0.538   2.773 -0.8909 -0.3876 -0.0862
 2824TIP3   OH2 8477   3.920   0.528   1.855 -0.1903 -0.8659 -0.1886
 2824TIP3    H1 8478   3.860   0.590   1.896 -0.1246 -0.1914 -1.0787
 2824TIP3    H2 8479   4.007   0.567   1.868  0.0630 -1.7940  1.0190
 2825TIP3   OH2 8480   2.080   3.705   1.525 -0.4956  0.4288  0.1916
 2825TIP3    H1 8481   2.040   3.642   1.585  0.6718 -2.6708 -2.0089
 2825TIP3    H2 8482   2.009   3.765   1.503 -2.2927 -1.2797  0.9554
 2826TIP3   OH2 8483   4.456   1.438   4.088 -0.6172  0.0961  0.3867
 2826TIP3    H1 8484   4.493   1.383   4.157 -0.6517  0.0121  0.3389
 2826TIP3    H2 8485   4.528   1.495   4.061 -1.4834  2.5991  2.9147
 2827TIP3   OH2 8486   4.207   1.353   1.000  0.9082 -0.5998  0.2029
 2827TIP3    H1 8487   4.257   1.277   1.029  0.6173 -0.7501  0.3178
 2827TIP3    H2 8488   4.117   1.321   0.992  0.0832  0.5160  3.5584
 2828TIP3   OH2 8489   5.051   0.500   0.236 -0.3493 -0.5229 -0.1436
 2828TIP3    H1 8490   5.070   0.549   0.316 -1.0535  1.6993 -1.2397
 2828TIP3    H2 8491   5.093   0.416   0.249  1.4106  0.5401  1.6606
 2829TIP3   OH2 8492   1.338   3.820   1.126  0.0326  0.0131  0.3789
 2829TIP3    H1 8493   1.366   3.730   1.142 -0.5029 -0.0205  1.1635
 2829TIP3    H2 8494   1.320   3.823   1.032  0.2297 -0.6485  0.3150
 2830TIP3   OH2 8495   3.796   1.913   0.089  0.4508  0.1575 -0.1571
 2830TIP3    H1 8496   3.833   1.828   0.112  0.3770  0.0160 -0.5489
 2830TIP3    H2 8497   3.871   1.972   0.081  0.3727  0.7992  2.6825
 2831TIP3   OH2 8498   1.582   5.950   2.404 -0.5683 -0.2514  0.1703
 2831TIP3    H1 8499   1.580   5.968   2.498 -0.7590 -0.6018  0.2371
 2831TIP3    H2 8500   1.660   5.994   2.372 -0.9123  0.5106  0.3595
 2832TIP3   OH2 8501   5.476   2.043   3.977 -0.1334  0.6508 -0.2012
 2832TIP3    H1 8502   5.443   2.106   3.914  0.7444  0.1760 -1.1569
 2832TIP3    H2 8503   5.567   2.069   3.991 -0.4367  1.0303  1.2381
 2833TIP3   OH2 8504   1.560   0.247   1.609  0.0129  0.4699 -0.0479
 2833TIP3    H1 8505   1.551   0.336   1.642 -1.4630  0.7131 -1.0137
 2833TIP3    H2 8506   1.476   0.206   1.629  0.7275 -0.7588  0.5192
 2834TIP3   OH2 8507   3.713   1.378   5.149  1.1046  0.6564  0.2614
 2834TIP3    H1 8508   3.693   1.360   5.241  0.6489 -0.6596 -0.0677
 2834TIP3    H2 8509   3.791   1.326   5.131  0.4550 -0.1299 -0.4091
 2835TIP3   OH2 8510   5.084   3.706   4.944 -0.2976 -0.0855 -0.3883
 2835TIP3    H1 8511   5.174   3.674   4.946 -0.8696 -1.8175  2.2633
 2835TIP3    H2 8512   5.089   3.796   4.978  0.2826 -0.8521  1.7072
 2836TIP3   OH2 8513   4.629   0.847   1.104  0.4330 -0.0417 -0.0779
 2836TIP3    H1 8514   4.686   0.802   1.041  0.8767 -1.4392  1.2695
 2836TIP3    H2 8515   4.592   0.777   1.158  0.5835  1.1461  1.6452
 2837TIP3   OH2 8516   2.966   1.618   1.024 -0.2291 -0.0917 -0.0028
 2837TIP3    H1 8517   2.908   1.588   0.954 -0.2100 -0.7017  0.2379
 2837TIP3    H2 8518   3.034   1.669   0.980 -0.0467 -0.7283 -0.4529
 2838TIP3   OH2 8519   1.454   0.230   1.346  0.0663  0.5217  0.3488
 2838TIP3    H1 8520   1.405   0.209   1.425 -0.7798 -0.3522 -0.3876
 2838TIP3    H2 8521   1.423   0.317   1.320 -0.4261  0.3611  0.3978
 2839TIP3   OH2 8522   0.879   5.371   4.938 -0.7649  0.3052  0.1886
 2839TIP3    H1 8523   0.949   5.313   4.907 -0.9371 -0.4159  1.0989
 2839TIP3    H2 8524   0.801   5.342   4.890 -0.9563 -0.5750  0.9860
 2840TIP3   OH2 8525   1.719   5.174   1.505 -0.0206 -0.3679 -0.4283
 2840TIP3    H1 8526   1.665   5.131   1.571  2.1710  1.1938  2.6259
 2840TIP3    H2 8527   1.760   5.102   1.457 -2.2757 -1.5472 -0.6981
 2841TIP3   OH2 8528   0.906   2.371   3.789  0.0628 -0.0977 -0.3691
 2841TIP3    H1 8529   0.956   2.392   3.711  1.7815  0.0179  0.7125
 2841TIP3    H2 8530   0.971   2.365   3.859 -1.3058 -1.0705  0.8998
 2842TIP3   OH2 8531   2.786   5.514   1.886  0.1780  0.6125  1.1781
 2842TIP3    H1 8532   2.732   5.586   1.918 -0.0560  0.7137  0.5740
 2842TIP3    H2 8533   2.723   5.446   1.862  0.1837  1.3006 -0.9695
 2843TIP3   OH2 8534   5.302   2.962   1.878 -0.1248 -0.6780  0.1545
 2843TIP3    H1 8535   5.330   2.873   1.899 -2.4870 -1.1636  1.5775
 2843TIP3    H2 8536   5.362   3.018   1.925 -0.1886 -1.6010  1.3769
 2844TIP3   OH2 8537   0.579   4.649   3.471  0.5554  0.1366  0.0799
 2844TIP3    H1 8538   0.505   4.589   3.468  1.7950 -1.5073  0.8802
 2844TIP3    H2 8539   0.579   4.691   3.385 -0.3208 -1.0651 -0.5375
 2845TIP3   OH2 8540   5.617   4.967   3.896 -0.2451 -0.1491 -0.2538
 2845TIP3    H1 8541   5.677   4.991   3.967 -0.4278 -0.3207 -0.0407
 2845TIP3    H2 8542   5.658   4.892   3.854 -0.1111 -0.0151 -0.3613
 2846TIP3   OH2 8543   2.627   3.927   0.406 -0.6314 -0.5148 -0.7562
 2846TIP3    H1 8544   2.567   3.998   0.382 -1.9338 -1.2969  0.0239
 2846TIP3    H2 8545   2.574   3.848   0.399 -0.2263 -1.0893  1.5802
 2847TIP3   OH2 8546   0.860   4.845   2.453 -0.4674 -0.4298  0.2663
 2847TIP3    H1 8547   0.879   4.807   2.539 -1.1701  1.4229  1.3125
 2847TIP3    H2 8548   0.938   4.897   2.432 -0.7729  0.0869  0.3799
 2848TIP3   OH2 8549   5.576   0.967   1.532  0.3309 -0.1697 -0.2181
 2848TIP3    H1 8550   5.555   1.024   1.605 -2.2437 -0.2308 -0.8196
 2848TIP3    H2 8551   5.575   0.878   1.569  0.2127 -0.1203 -0.1058
 2849TIP3   OH2 8552   4.344   4.904   2.716  0.1414 -0.1781  0.1376
 2849TIP3    H1 8553   4.390   4.835   2.668  0.4330 -0.6514  1.0769
 2849TIP3    H2 8554   4.264   4.863   2.747  0.2020 -0.0295  0.4964
 2850TIP3   OH2 8555   2.138   0.781   0.443  0.1391 -0.1927 -0.2602
 2850TIP3    H1 8556   2.218   0.821   0.408 -0.4442 -0.0178 -1.4490
 2850TIP3    H2 8557   2.137   0.694   0.403 -1.1846  0.4592 -1.7430
 2851TIP3   OH2 8558   5.311   1.390   2.928  0.2720  0.6688  0.1410
 2851TIP3    H1 8559   5.230   1.340   2.932 -1.0347  2.7026  0.7874
 2851TIP3    H2 8560   5.372   1.341   2.983 -0.7160 -0.5793  0.1650
 2852TIP3   OH2 8561   2.207   5.617   4.985  0.3539 -0.4039  0.0050
 2852TIP3    H1 8562   2.226   5.711   4.976  3.1144 -0.6234  2.3667
 2852TIP3    H2 8563   2.124   5.606   4.937 -0.2826  3.2732 -0.0913
 2853TIP3   OH2 8564   0.300   0.056   4.850  0.1839 -0.0044 -0.0272
 2853TIP3    H1 8565   0.235   0.039   4.782  1.5822  3.0142 -2.3055
 2853TIP3    H2 8566   0.282   0.145   4.879  0.7105 -0.6175  2.4632
 2854TIP3   OH2 8567   6.087   1.092   0.632  0.5110 -0.0524 -0.2454
 2854TIP3    H1 8568   6.122   1.177   0.606 -0.4803  0.5166  0.2093
 2854TIP3    H2 8569   6.039   1.061   0.556  1.7934 -0.7435 -0.8018
 2855TIP3   OH2 8570   4.251   4.212   3.510  0.4167 -0.2287 -0.0703
 2855TIP3    H1 8571   4.195   4.147   3.553 -0.2235 -0.0114 -0.5708
 2855TIP3    H2 8572   4.205   4.295   3.521  0.5094 -0.0871 -0.7002
 2856TIP3   OH2 8573   3.968   3.804   5.164 -0.1267 -0.3115 -0.4075
 2856TIP3    H1 8574   4.038   3.791   5.228  0.0408  1.3734 -0.2024
 2856TIP3    H2 8575   3.980   3.732   5.101  0.5924 -1.1535  0.6508
 2857TIP3   OH2 8576   2.677   2.486   2.097 -0.3752 -0.0775 -0.2799
 2857TIP3    H1 8577   2.730   2.408   2.080  1.6962  1.2205 -0.1345
 2857TIP3    H2 8578   2.671   2.530   2.013 -0.6691  0.1052 -0.1630
 2858TIP3   OH2 8579   6.083   4.320   2.870  0.1221  0.3496 -0.1342
 2858TIP3    H1 8580   6.139   4.260   2.920  0.1347  1.1632  0.8587
 2858TIP3    H2 8581   6.142   4.390   2.842 -0.0895  0.4045 -0.4487
 2859TIP3   OH2 8582   5.987   2.967   3.850  0.4855 -0.0307 -0.1097
 2859TIP3    H1 8583   6.025   2.930   3.770 -0.0365  1.6268 -1.1670
 2859TIP3    H2 8584   5.906   2.918   3.863  1.9219 -2.2977  1.1057
 2860TIP3   OH2 8585   6.197   0.696   4.977  0.4944  0.0536 -0.1606
 2860TIP3    H1 8586   6.149   0.769   5.015  0.1653 -1.0098  1.5721
 2860TIP3    H2 8587   6.154   0.618   5.012  0.6997 -0.9970 -2.1363
 2861TIP3   OH2 8588   2.988   2.190   2.938  0.6012 -0.3600 -0.2151
 2861TIP3    H1 8589   3.033   2.258   2.989  0.1008 -0.2624  0.0968
 2861TIP3    H2 8590   3.059   2.133   2.907  0.9578 -0.1085  0.1293
 2862TIP3   OH2 8591   4.165   0.876   0.108 -0.0849 -0.0085 -0.2947
 2862TIP3    H1 8592   4.158   0.785   0.081  0.1918  0.1124 -0.7989
 2862TIP3    H2 8593   4.083   0.916   0.079  0.3591  0.2007 -1.3067
 2863TIP3   OH2 8594   6.185   1.710   5.114 -0.1047 -0.1682  0.3815
 2863TIP3    H1 8595   6.275   1.726   5.087 -0.2678 -0.2352 -0.2200
 2863TIP3    H2 8596   6.132   1.758   5.050 -0.5141 -0.7507  0.2748
 2864TIP3   OH2 8597   5.559   5.127   3.678 -0.3635 -0.3778  0.0207
 2864TIP3    H1 8598   5.584   5.091   3.763 -0.8920 -0.4913  0.1295
 2864TIP3    H2 8599   5.596   5.216   3.678  2.2355 -1.3702 -0.8432
 2865TIP3   OH2 8600   0.413   5.041   3.308 -0.1500 -0.7488 -0.7723
 2865TIP3    H1 8601   0.357   5.117   3.293  0.7884  0.0580 -0.3349
 2865TIP3    H2 8602   0.486   5.076   3.359  0.7881 -1.7510 -1.3995
 2866TIP3   OH2 8603   3.079   3.157   4.836  0.1767 -0.1430 -0.1474
 2866TIP3    H1 8604   3.100   3.218   4.907 -4.5029  0.6297  0.9186
 2866TIP3    H2 8605   3.056   3.214   4.762 -1.0305 -0.6829 -0.2084
 2867TIP3   OH2 8606   5.653   0.217   3.630 -0.2070  0.2975  0.0490
 2867TIP3    H1 8607   5.685   0.130   3.604  1.2472 -0.3827  3.5201
 2867TIP3    H2 8608   5.704   0.278   3.577  0.1326 -0.9017 -1.0745
 2868TIP3   OH2 8609   4.348   2.937   2.321 -0.3431  0.2437 -0.4139
 2868TIP3    H1 8610   4.431   2.908   2.284  0.7357  1.0935  1.2623
 2868TIP3    H2 8611   4.301   2.977   2.247  1.3872  1.1526 -1.0670
 2869TIP3   OH2 8612   2.924   5.195   2.311 -0.4559  0.1430 -0.0069
 2869TIP3    H1 8613   2.964   5.131   2.252  0.8488  0.8668  0.0557
 2869TIP3    H2 8614   2.899   5.267   2.254  3.1227  2.0116  0.4455
 2870TIP3   OH2 8615   3.994   0.094   3.625 -0.2610 -0.2144  0.3969
 2870TIP3    H1 8616   3.978   0.082   3.532 -3.1489 -1.9901  0.9892
 2870TIP3    H2 8617   3.934   0.165   3.651 -0.2264 -0.4126  1.0472
 2871TIP3   OH2 8618   1.210   4.236   0.857  0.0899  0.1822  0.0562
 2871TIP3    H1 8619   1.198   4.321   0.901 -1.6688  0.0601 -0.1530
 2871TIP3    H2 8620   1.138   4.182   0.889  0.6540 -0.9440 -0.5359
 2872TIP3   OH2 8621   0.933   5.631   0.773  0.1411  0.3639 -0.3897
 2872TIP3    H1 8622   0.945   5.560   0.711  0.6301  0.2934 -0.2234
 2872TIP3    H2 8623   0.994   5.611   0.845 -1.9376 -0.7348  1.1832
 2873TIP3   OH2 8624  -0.029   4.718   4.803 -0.2023  0.1622 -0.2473
 2873TIP3    H1 8625   0.012   4.639   4.769  0.2132 -0.4828  1.6011
 2873TIP3    H2 8626   0.038   4.758   4.858 -1.3575  0.1689  1.2248
 2874TIP3   OH2 8627   2.214   0.934   4.299  0.7151 -0.3409 -0.3638
 2874TIP3    H1 8628   2.304   0.924   4.332 -0.0652  0.0350  2.0591
 2874TIP3    H2 8629   2.217   1.014   4.247  1.6257  0.1633  0.4079
 2875TIP3   OH2 8630   2.397   5.407   4.310  0.2110 -0.5059  0.4445
 2875TIP3    H1 8631   2.428   5.380   4.396  0.4691 -2.6478 -0.2850
 2875TIP3    H2 8632   2.303   5.390   4.312 -0.1781  1.4278  0.9742
 2876TIP3   OH2 8633   5.611   5.539   3.838  0.4063  0.1387  0.5045
 2876TIP3    H1 8634   5.692   5.488   3.841  1.5016  1.7478 -0.0945
 2876TIP3    H2 8635   5.557   5.504   3.909  0.8785 -2.1345 -0.1656
 2877TIP3   OH2 8636   4.254   5.816   2.640 -0.2345  0.0509 -0.2936
 2877TIP3    H1 8637   4.333   5.852   2.680 -0.8307  0.9646  0.0861
 2877TIP3    H2 8638   4.287   5.759   2.570  0.7401  1.4899 -1.0470
 2878TIP3   OH2 8639   2.029   0.436   0.586 -0.1858 -0.0802 -0.0447
 2878TIP3    H1 8640   1.937   0.462   0.592 -0.0297  1.2071 -2.1752
 2878TIP3    H2 8641   2.073   0.489   0.652 -0.6779  1.0512 -0.5957
 2879TIP3   OH2 8642   5.824   5.335   3.779 -0.5232 -0.7862 -0.5116
 2879TIP3    H1 8643   5.903   5.328   3.832 -1.1196  0.3609  0.5799
 2879TIP3    H2 8644   5.831   5.422   3.739 -1.6043 -0.3268  0.2589
 2880TIP3   OH2 8645   4.461   5.174   2.982  0.6372  0.2612 -0.0151
 2880TIP3    H1 8646   4.378   5.150   2.940 -0.4377  0.5213  1.8766
 2880TIP3    H2 8647   4.504   5.090   2.998  0.4249  0.0822 -0.3529
 2881TIP3   OH2 8648   5.169   1.204   2.761  0.6866  0.4220 -0.3961
 2881TIP3    H1 8649   5.170   1.294   2.727  1.3059 -0.1110 -1.9080
 2881TIP3    H2 8650   5.143   1.151   2.685 -0.0885 -0.6431  0.5912
 2882TIP3   OH2 8651   0.532   0.812   2.246 -0.1962  0.5167  0.6713
 2882TIP3    H1 8652   0.504   0.761   2.170  1.4376  0.7944 -0.1579
 2882TIP3    H2 8653   0.452   0.851   2.279 -0.9068  0.8194 -1.2451
 2883TIP3   OH2 8654   2.779   0.276   0.757  0.0209  0.1980 -0.5909
 2883TIP3    H1 8655   2.685   0.260   0.746  0.0892 -0.9609  0.3400
 2883TIP3    H2 8656   2.809   0.205   0.814  1.1750  1.4109  0.3695
 2884TIP3   OH2 8657   1.150   3.845   1.880 -0.1359 -0.2541 -0.2921
 2884TIP3    H1 8658   1.197   3.925   1.904 -0.1326 -0.2471 -0.3224
 2884TIP3    H2 8659   1.173   3.783   1.949  1.1702 -0.7365 -1.1145
 2885TIP3   OH2 8660   0.043   1.439   2.657  0.2773  0.4442 -0.6909
 2885TIP3    H1 8661   0.098   1.503   2.610 -0.2761  1.8831  0.5463
 2885TIP3    H2 8662  -0.036   1.487   2.680 -0.6688 -1.0402 -0.6977
 2886TIP3   OH2 8663   4.051   4.473   0.539 -0.6466 -0.9201 -0.3086
 2886TIP3    H1 8664   3.957   4.455   0.536 -1.2553  1.8188  0.2090
 2886TIP3    H2 8665   4.080   4.460   0.448 -1.6652 -1.0901 -0.6265
 2887TIP3   OH2 8666   2.346   1.989   4.673 -0.2402  0.1786 -0.0709
 2887TIP3    H1 8667   2.436   1.956   4.672  0.0992  0.9261 -2.8408
 2887TIP3    H2 8668   2.324   1.994   4.766  1.9838 -1.5380  0.6595
 2888TIP3   OH2 8669   2.982   3.216   0.042  0.5021 -0.1944  0.1903
 2888TIP3    H1 8670   2.939   3.298   0.019 -1.6522 -1.1193  0.6856
 2888TIP3    H2 8671   2.981   3.213   0.137  0.5360 -0.7827  0.1803
 2889TIP3   OH2 8672   0.748   0.474   1.351 -0.2317  0.8155  0.1363
 2889TIP3    H1 8673   0.726   0.543   1.289  0.6102  0.5511 -0.4891
 2889TIP3    H2 8674   0.774   0.400   1.296 -0.1228  0.3482  0.8002
 2890TIP3   OH2 8675   3.913   3.317   4.090  0.8386 -0.1811  0.1829
 2890TIP3    H1 8676   3.903   3.229   4.127 -0.5137 -0.7262 -1.3682
 2890TIP3    H2 8677   3.895   3.306   3.997 -2.6468  2.2468  0.4057
 2891TIP3   OH2 8678   4.111   5.847   4.074  0.2461  0.6251  0.0239
 2891TIP3    H1 8679   4.155   5.786   4.134 -0.6648  0.5156  0.5967
 2891TIP3    H2 8680   4.022   5.855   4.109  0.0753  1.5449 -0.5987
 2892TIP3   OH2 8681   1.200   3.733   2.838  0.3158 -0.3604 -0.2064
 2892TIP3    H1 8682   1.192   3.822   2.805  1.2379  0.8777  2.6149
 2892TIP3    H2 8683   1.110   3.707   2.860 -0.3897 -1.3657 -3.6599
 2893TIP3   OH2 8684   1.460   4.185   2.640  0.0829 -0.2532  0.0580
 2893TIP3    H1 8685   1.423   4.153   2.558 -0.2824 -1.1900  0.5818
 2893TIP3    H2 8686   1.554   4.183   2.626  0.0145  0.0707 -0.5075
 2894TIP3   OH2 8687   4.777   0.939   2.480  0.5424  0.2876  0.4722
 2894TIP3    H1 8688   4.844   0.958   2.415  1.8288 -2.2122  0.9392
 2894TIP3    H2 8689   4.699   0.916   2.428  1.1580 -0.3846 -0.1741
 2895TIP3   OH2 8690   4.536   0.562   5.022 -0.3368 -0.2584  0.2909
 2895TIP3    H1 8691   4.512   0.493   4.960  0.2642  0.2959 -0.5928
 2895TIP3    H2 8692   4.597   0.520   5.082 -0.9785 -0.8254  0.5536
 2896TIP3   OH2 8693   1.082   0.454   5.139 -0.1135  0.0592  0.7012
 2896TIP3    H1 8694   1.157   0.397   5.126  0.7193  0.8246  1.8989
 2896TIP3    H2 8695   1.014   0.398   5.176  0.9232 -0.0554  2.5250
 2897TIP3   OH2 8696   3.988   5.221   1.516  0.2083 -0.3094  0.3395
 2897TIP3    H1 8697   3.919   5.190   1.574  0.4654  1.4082  1.6236
 2897TIP3    H2 8698   3.991   5.315   1.530  1.0849  0.0098 -1.6184
 2898TIP3   OH2 8699   1.294   1.530   4.195 -0.4261  0.0691 -0.5581
 2898TIP3    H1 8700   1.231   1.464   4.225  0.8290 -1.0858 -0.3688
 2898TIP3    H2 8701   1.265   1.611   4.236 -0.6729 -0.8250  1.1061
 2899TIP3   OH2 8702   1.609   5.661   2.801  0.0629  0.7244  0.4528
 2899TIP3    H1 8703   1.541   5.658   2.869 -0.8775  2.6326 -0.3205
 2899TIP3    H2 8704   1.560   5.668   2.719  1.2052  1.0108 -0.2203
 2900TIP3   OH2 8705   0.211   0.136   2.560 -0.0398 -0.1388  0.4547
 2900TIP3    H1 8706   0.230   0.199   2.630  0.1396  0.0619  0.2276
 2900TIP3    H2 8707   0.296   0.106   2.530 -0.1332 -1.3797  1.3431
 2901TIP3   OH2 8708   2.288   2.933   4.321 -0.1142  0.4995  0.0623
 2901TIP3    H1 8709   2.348   2.930   4.246 -1.0008  0.8793 -0.6936
 2901TIP3    H2 8710   2.343   2.920   4.397  0.8483  0.3072 -0.6509
 2902TIP3   OH2 8711   6.236   1.733   4.555 -0.1561  0.3672  0.1764
 2902TIP3    H1 8712   6.275   1.812   4.591 -0.7337  0.6056  0.2821
 2902TIP3    H2 8713   6.311   1.682   4.523  0.5049 -0.3972  2.7399
 2903TIP3   OH2 8714   0.434   0.169   0.847 -0.2361  0.3423 -0.2896
 2903TIP3    H1 8715   0.468   0.212   0.769  0.4310  0.3920  0.0240
 2903TIP3    H2 8716   0.379   0.234   0.889 -0.0265  0.5500 -0.3391
 2904TIP3   OH2 8717   1.407   4.525   4.924 -0.0991  0.3720 -1.1077
 2904TIP3    H1 8718   1.392   4.586   4.996  0.0758  0.3074 -1.0181
 2904TIP3    H2 8719   1.396   4.579   4.845  0.2016  0.5511 -1.0267
 2905TIP3   OH2 8720   5.456   1.936   2.394 -0.2874  0.1278  0.4949
 2905TIP3    H1 8721   5.474   1.857   2.343 -2.0705  0.2938 -0.4761
 2905TIP3    H2 8722   5.482   2.008   2.336  0.1013  0.2714  0.8497
 2906TIP3   OH2 8723   6.100   5.795   1.720 -0.2244  1.4155 -0.0597
 2906TIP3    H1 8724   6.017   5.789   1.767 -0.8971 -0.7347 -1.3969
 2906TIP3    H2 8725   6.165   5.813   1.789 -1.6759  2.5586  1.0873
 2907TIP3   OH2 8726   2.762   3.130   4.027  0.0184  1.2526  0.4616
 2907TIP3    H1 8727   2.796   3.048   4.062  0.3089  0.5187 -1.4165
 2907TIP3    H2 8728   2.674   3.109   3.996  1.3165  0.5813 -3.2806
 2908TIP3   OH2 8729   1.833   0.931   3.811  0.2243 -0.0115  0.5407
 2908TIP3    H1 8730   1.874   0.866   3.869  2.2942  1.4839  0.8851
 2908TIP3    H2 8731   1.743   0.900   3.800  0.2515 -1.2980  3.1232
 2909TIP3   OH2 8732   5.662   5.043   0.274  0.1664 -0.7282  0.1398
 2909TIP3    H1 8733   5.723   5.072   0.206 -0.9104  2.3684  0.3287
 2909TIP3    H2 8734   5.689   5.092   0.352 -1.9474  0.0311  0.4478
 2910TIP3   OH2 8735   5.739   1.839   1.941 -0.3374  0.0403  0.3493
 2910TIP3    H1 8736   5.829   1.808   1.951 -0.4896 -0.3319  0.6297
 2910TIP3    H2 8737   5.700   1.779   1.877 -0.6383 -0.3664  0.9041
 2911TIP3   OH2 8738   4.757   5.275   2.454  0.1506  0.4138 -0.2332
 2911TIP3    H1 8739   4.669   5.311   2.440 -0.2707 -1.0672 -1.5722
 2911TIP3    H2 8740   4.806   5.300   2.376 -0.3002 -2.2535 -1.4516
 2912TIP3   OH2 8741   5.731   3.610   0.616  0.2580 -0.1059 -0.7408
 2912TIP3    H1 8742   5.692   3.591   0.530 -2.5519  0.9154  0.1846
 2912TIP3    H2 8743   5.743   3.705   0.615 -0.8827  0.0758  0.3478
 2913TIP3   OH2 8744   4.212   1.901   3.006 -0.2456 -0.3971  0.4197
 2913TIP3    H1 8745   4.200   1.991   3.036  1.6194  0.1788 -0.4576
 2913TIP3    H2 8746   4.295   1.902   2.958  0.7330 -2.9454  1.8651
 2914TIP3   OH2 8747   3.428   0.673   4.229  0.1176  0.1075  0.0043
 2914TIP3    H1 8748   3.467   0.586   4.229 -0.7290 -0.2934  0.6925
 2914TIP3    H2 8749   3.366   0.671   4.302 -1.9390  0.3488 -1.6156
 2915TIP3   OH2 8750   6.186   2.122   2.075  0.0855 -0.1283  0.1706
 2915TIP3    H1 8751   6.186   2.065   2.152  1.9875  0.0447  0.3468
 2915TIP3    H2 8752   6.152   2.067   2.004 -1.6239 -0.3091  1.0887
 2916TIP3   OH2 8753   3.309   5.619   0.097 -0.2115 -0.3386 -0.0304
 2916TIP3    H1 8754   3.383   5.670   0.129 -0.1756 -0.1403 -0.4250
 2916TIP3    H2 8755   3.268   5.675   0.031 -1.5247  0.1374  1.1417
 2917TIP3   OH2 8756   2.851   4.221   2.243  0.1313  0.3216 -0.0299
 2917TIP3    H1 8757   2.924   4.172   2.206 -1.2858 -1.4016 -0.7131
 2917TIP3    H2 8758   2.773   4.185   2.200 -1.2685  1.0239  1.7443
 2918TIP3   OH2 8759   4.065   1.205   3.913 -0.3341  0.4781 -0.2424
 2918TIP3    H1 8760   4.038   1.115   3.895 -0.2085  0.4863 -0.4774
 2918TIP3    H2 8761   4.155   1.210   3.882 -0.5380  0.8498 -0.7889
 2919TIP3   OH2 8762   0.769   0.386   2.243  0.3278  0.4278  0.1349
 2919TIP3    H1 8763   0.803   0.449   2.179 -1.9593  1.7776  0.1570
 2919TIP3    H2 8764   0.726   0.440   2.309 -1.2790 -1.1277  0.4247
 2920TIP3   OH2 8765   0.093   4.662   2.217 -0.4292  0.0592  0.0409
 2920TIP3    H1 8766   0.037   4.726   2.262 -1.0550 -0.0835 -0.5111
 2920TIP3    H2 8767   0.057   4.657   2.128  0.0061 -0.5870 -0.1080
 2921TIP3   OH2 8768   2.669   3.305   4.998 -0.5882  0.3651 -0.2455
 2921TIP3    H1 8769   2.579   3.334   5.012 -0.8219 -0.2881 -0.3560
 2921TIP3    H2 8770   2.679   3.301   4.903 -0.8136 -0.6657 -0.2345
 2922TIP3   OH2 8771   1.958   1.362   3.269  0.0650  0.4426 -0.2271
 2922TIP3    H1 8772   1.896   1.338   3.200 -1.7818  1.8783  0.8640
 2922TIP3    H2 8773   1.983   1.278   3.309 -2.7011 -0.1074  0.5545
 2923TIP3   OH2 8774   0.336   0.653   0.501 -0.2212  0.2882 -0.2952
 2923TIP3    H1 8775   0.347   0.566   0.537  0.9106  0.8448  0.7792
 2923TIP3    H2 8776   0.365   0.645   0.410  0.2011 -0.3861 -0.1098
 2924TIP3   OH2 8777   1.559   6.003   0.077  0.4208 -0.4261 -0.4312
 2924TIP3    H1 8778   1.568   5.908   0.068  2.5433 -0.2071 -1.1634
 2924TIP3    H2 8779   1.639   6.030   0.121  0.2940  1.1421 -1.1184
 2925TIP3   OH2 8780   5.544   4.398   2.024 -0.0751 -0.2928 -0.1189
 2925TIP3    H1 8781   5.615   4.392   2.088 -0.5325  0.2337  0.4543
 2925TIP3    H2 8782   5.583   4.443   1.949 -0.0395  0.8636  0.5664
 2926TIP3   OH2 8783   0.843   3.684   2.244 -0.1747  0.1504 -0.1879
 2926TIP3    H1 8784   0.750   3.669   2.227 -0.6911  0.9324  1.6696
 2926TIP3    H2 8785   0.856   3.654   2.334  1.4578 -0.2483 -0.5298
 2927TIP3   OH2 8786   5.646   4.563   0.359  0.5842 -0.0574 -0.2769
 2927TIP3    H1 8787   5.665   4.486   0.412 -1.1480 -0.4357 -0.1457
 2927TIP3    H2 8788   5.552   4.557   0.342  0.5494  1.6772 -0.8299
 2928TIP3   OH2 8789   4.576   3.166   2.353 -0.1688  0.5282 -0.1641
 2928TIP3    H1 8790   4.533   3.111   2.287  0.8972 -1.2548  0.5605
 2928TIP3    H2 8791   4.530   3.146   2.434  0.9143 -0.1668  0.3073
 2929TIP3   OH2 8792   0.711   0.926   5.041  0.4497  0.6315  0.1230
 2929TIP3    H1 8793   0.702   0.996   5.105 -1.5912 -0.1230  0.7381
 2929TIP3    H2 8794   0.687   0.847   5.088  2.4009 -0.4804 -0.6348
 2930TIP3   OH2 8795   2.087   0.220   2.750  0.6590 -0.4888  0.4660
 2930TIP3    H1 8796   2.124   0.179   2.828  1.5286  0.7546  0.7438
 2930TIP3    H2 8797   2.131   0.305   2.745 -1.6294  0.7598  0.3750
 2931TIP3   OH2 8798   4.559   2.121   1.114  0.6776  0.6782 -0.3023
 2931TIP3    H1 8799   4.476   2.112   1.162 -0.4636 -0.3824 -2.3359
 2931TIP3    H2 8800   4.592   2.032   1.106  0.9069  0.8550 -1.3535
 2932TIP3   OH2 8801   4.543   2.971   3.455  0.1591  0.4734  0.4622
 2932TIP3    H1 8802   4.580   2.912   3.521  0.7803 -0.7708 -0.9417
 2932TIP3    H2 8803   4.508   3.044   3.506 -0.0584 -0.7812  2.2264
 2933TIP3   OH2 8804   3.867   2.146   1.902 -0.1335 -0.1242  0.1305
 2933TIP3    H1 8805   3.782   2.178   1.933  0.0050  0.2774  0.0981
 2933TIP3    H2 8806   3.911   2.224   1.867  0.2004 -0.3520  0.0386
 2934TIP3   OH2 8807   2.096   5.821   0.038 -0.3343  0.1274  0.4365
 2934TIP3    H1 8808   2.000   5.818   0.039 -0.3242 -0.1533  1.0670
 2934TIP3    H2 8809   2.119   5.821  -0.055 -0.9467  0.1689  0.2818
 2935TIP3   OH2 8810   5.940   5.914   3.343 -0.1700  0.6416  0.2620
 2935TIP3    H1 8811   5.867   5.883   3.290 -0.9218  0.5436  1.3182
 2935TIP3    H2 8812   5.972   5.992   3.298 -2.5305  2.1626  1.0488
 2936TIP3   OH2 8813   2.277   5.188   2.960 -0.0652  0.3234  0.2073
 2936TIP3    H1 8814   2.264   5.282   2.969 -0.4582  0.5825 -2.3191
 2936TIP3    H2 8815   2.188   5.152   2.951  0.0377 -0.4138  1.7560
 2937TIP3   OH2 8816   5.006   5.273   4.948 -0.0874  0.2955 -0.2987
 2937TIP3    H1 8817   5.009   5.324   4.867  0.8629 -0.7298 -0.9307
 2937TIP3    H2 8818   4.949   5.324   5.006  0.0833  1.5906 -1.2268
 2938TIP3   OH2 8819   3.458   0.316   3.208 -0.2451 -0.3607 -0.3483
 2938TIP3    H1 8820   3.489   0.264   3.133  0.1840 -2.9971  1.5336
 2938TIP3    H2 8821   3.537   0.355   3.244 -0.4267  0.7305 -1.0666
 2939TIP3   OH2 8822   3.172   3.634   2.161 -0.1740  0.6829 -0.3107
 2939TIP3    H1 8823   3.217   3.643   2.245  0.1988 -1.5005 -0.2246
 2939TIP3    H2 8824   3.236   3.594   2.103 -1.0457  0.3747 -1.0872
 2940TIP3   OH2 8825   2.949   1.886   2.214 -1.0822 -0.2617 -0.3066
 2940TIP3    H1 8826   2.856   1.878   2.236 -0.6026  0.3882  2.3366
 2940TIP3    H2 8827   2.960   1.979   2.192 -1.1712 -0.4928 -1.3724
 2941TIP3   OH2 8828   0.679   5.894   0.273  0.9367  0.3053 -0.0491
 2941TIP3    H1 8829   0.633   5.926   0.195 -1.3661 -0.0938  1.0653
 2941TIP3    H2 8830   0.694   5.801   0.256 -1.5048 -0.3001  0.7819
 2942TIP3   OH2 8831   4.836   1.088   0.179 -0.6063 -0.0950 -0.0774
 2942TIP3    H1 8832   4.741   1.097   0.184 -0.5151  0.6502  0.4388
 2942TIP3    H2 8833   4.857   1.015   0.237 -0.6183  1.4963  2.0456
 2943TIP3   OH2 8834   1.924   1.541   4.670  0.1751 -0.8338  0.0645
 2943TIP3    H1 8835   1.936   1.594   4.592  0.9006  0.6918  1.1553
 2943TIP3    H2 8836   1.992   1.474   4.664  0.4745 -0.4905 -0.4354
 2944TIP3   OH2 8837   6.243   2.956   4.135 -0.4261  0.1844  0.3772
 2944TIP3    H1 8838   6.167   3.014   4.141 -0.4349  0.1833  0.2875
 2944TIP3    H2 8839   6.292   2.989   4.059 -0.7375 -0.2841 -0.0301
 2945TIP3   OH2 8840   5.372   4.239   3.716 -0.6297 -0.1562 -0.1838
 2945TIP3    H1 8841   5.332   4.303   3.657  0.0178  1.5256  1.1154
 2945TIP3    H2 8842   5.305   4.222   3.782 -0.1596  0.6446  0.5166
 2946TIP3   OH2 8843   3.704   5.886   0.059 -0.8888 -0.3665 -0.0532
 2946TIP3    H1 8844   3.731   5.855   0.145 -2.4131 -0.6346  0.3500
 2946TIP3    H2 8845   3.774   5.855   0.000 -0.7045 -1.7111  0.8181
 2947TIP3   OH2 8846   2.595   4.445   2.132  0.2248  0.4433  0.4063
 2947TIP3    H1 8847   2.580   4.488   2.217  0.2330  0.1660  0.5468
 2947TIP3    H2 8848   2.568   4.511   2.068 -2.6485 -0.3912  0.6381
 2948TIP3   OH2 8849   3.914   1.239   5.016  0.3226  0.1009 -0.1723
 2948TIP3    H1 8850   3.981   1.265   4.953 -1.0862 -0.5885 -2.0343
 2948TIP3    H2 8851   3.883   1.154   4.984 -1.1744  0.2297  0.8510
 2949TIP3   OH2 8852   1.349   0.818   3.397  0.1579 -0.6967  0.4367
 2949TIP3    H1 8853   1.439   0.828   3.365 -0.1000 -0.1325 -0.1329
 2949TIP3    H2 8854   1.340   0.724   3.414  1.2646 -0.5847  1.7715
 2950TIP3   OH2 8855   4.287   3.735   4.504 -0.0537 -0.5679 -0.6776
 2950TIP3    H1 8856   4.318   3.759   4.417 -2.3431  1.8179 -0.9556
 2950TIP3    H2 8857   4.363   3.749   4.561  0.6506  0.7987 -1.8799
 2951TIP3   OH2 8858   4.478   3.144   4.821  0.1543 -0.2395 -0.4328
 2951TIP3    H1 8859   4.547   3.209   4.834  0.3385 -0.5866  0.3480
 2951TIP3    H2 8860   4.492   3.080   4.891  1.6183 -2.5568 -2.6452
 2952TIP3   OH2 8861   3.038   3.185   4.246  0.1173 -0.4465 -0.0954
 2952TIP3    H1 8862   2.991   3.165   4.327 -1.6235  0.4542 -0.8263
 2952TIP3    H2 8863   3.010   3.117   4.185  2.6153 -2.0484  0.4164
 2953TIP3   OH2 8864   5.651   0.966   1.125 -0.9346  0.2052 -0.0725
 2953TIP3    H1 8865   5.695   0.984   1.043 -2.2161  4.1645 -0.1004
 2953TIP3    H2 8866   5.568   0.925   1.100  0.1243 -1.8077 -0.4210
 2954TIP3   OH2 8867   4.278   3.957   1.880 -0.6536  0.2567 -0.2473
 2954TIP3    H1 8868   4.293   3.903   1.802 -1.0620 -1.7838  1.0387
 2954TIP3    H2 8869   4.184   3.976   1.879 -1.5494 -3.2805  1.8149
 2955TIP3   OH2 8870   4.063   5.405   0.074  0.0035  1.0012  0.5778
 2955TIP3    H1 8871   4.151   5.375   0.096 -0.1147  0.1401 -0.0632
 2955TIP3    H2 8872   4.064   5.414  -0.022 -1.1628 -0.9283  0.3323
 2956TIP3   OH2 8873   5.998   3.411   3.941 -0.3279  0.0494  0.3067
 2956TIP3    H1 8874   5.983   3.471   4.014 -0.8716 -0.7121  0.8372
 2956TIP3    H2 8875   6.012   3.326   3.983 -0.4733 -0.3677 -0.4762
 2957TIP3   OH2 8876   5.816   0.486   1.335 -0.7465  0.8627 -0.3578
 2957TIP3    H1 8877   5.846   0.564   1.380 -0.4140  0.7963 -0.4553
 2957TIP3    H2 8878   5.722   0.498   1.324 -0.6162  1.4844 -0.8371
 2958TIP3   OH2 8879   3.962   5.003   3.341 -0.1143  0.5113  0.2961
 2958TIP3    H1 8880   3.934   4.916   3.371  1.0121 -0.3636 -1.0315
 2958TIP3    H2 8881   3.883   5.057   3.345 -1.0711 -0.8327  0.2143
 2959TIP3   OH2 8882   3.523   1.413   2.787  0.4783 -0.3317 -0.6792
 2959TIP3    H1 8883   3.613   1.433   2.812  0.7144 -0.8958 -1.0511
 2959TIP3    H2 8884   3.472   1.489   2.816  1.0778  0.0065 -0.4989
 2960TIP3   OH2 8885   1.099   2.911   1.688  0.0678  0.7999 -0.2285
 2960TIP3    H1 8886   1.080   2.879   1.777 -1.0832 -0.8972 -1.0217
 2960TIP3    H2 8887   1.034   2.979   1.673 -0.6620  0.1051 -0.2658
 2961TIP3   OH2 8888   4.198   1.326   4.159  0.2989 -0.4687  0.0007
 2961TIP3    H1 8889   4.287   1.359   4.147  0.6102 -1.4038 -0.3545
 2961TIP3    H2 8890   4.206   1.231   4.150 -0.5443 -0.6689  1.1429
 2962TIP3   OH2 8891   5.835   3.461   0.316  0.1078 -0.3328 -0.8805
 2962TIP3    H1 8892   5.833   3.390   0.380  0.6197  0.7603  0.4116
 2962TIP3    H2 8893   5.760   3.517   0.340  1.3881  1.0898  0.0334
 2963TIP3   OH2 8894   5.139   2.418   4.146  0.1670  0.0166  0.2853
 2963TIP3    H1 8895   5.217   2.447   4.194 -0.6552  1.5450  0.7846
 2963TIP3    H2 8896   5.154   2.446   4.056  1.7198 -2.8669 -0.4434
 2964TIP3   OH2 8897   6.071   4.994   4.064 -0.2844  0.4597  0.1929
 2964TIP3    H1 8898   6.101   5.073   4.019  2.4357 -0.7630 -0.4004
 2964TIP3    H2 8899   6.092   4.923   4.004 -0.4285 -0.8999  1.6728
 2965TIP3   OH2 8900   3.618   4.637   0.705  0.4909  0.5950  0.7482
 2965TIP3    H1 8901   3.574   4.711   0.747 -0.1794  1.7300 -1.7541
 2965TIP3    H2 8902   3.666   4.594   0.776  1.1856  3.6110  2.2700
 2966TIP3   OH2 8903   5.393   5.960   3.382 -0.0179  0.1560 -0.2133
 2966TIP3    H1 8904   5.323   5.896   3.383 -0.6118  0.7839 -0.5976
 2966TIP3    H2 8905   5.420   5.969   3.474 -0.0343 -0.5185 -0.1441
 2967TIP3   OH2 8906   5.878   0.285   4.293  0.2292  0.0496  0.5999
 2967TIP3    H1 8907   5.899   0.245   4.378  2.6499  2.8950  1.5135
 2967TIP3    H2 8908   5.802   0.340   4.310  0.2072 -0.0190  0.7239
 2968TIP3   OH2 8909   3.958   0.425   3.392 -1.0364 -0.2074 -0.4328
 2968TIP3    H1 8910   3.869   0.413   3.361 -0.7875 -1.1083 -0.8246
 2968TIP3    H2 8911   3.997   0.489   3.332 -1.4629  0.3251 -0.1511
 2969TIP3   OH2 8912   4.572   1.674   0.200 -0.2602  0.1020  0.5445
 2969TIP3    H1 8913   4.555   1.655   0.108  0.5352 -0.9480  0.5921
 2969TIP3    H2 8914   4.623   1.599   0.231 -1.6929 -0.2565  2.2000
 2970TIP3   OH2 8915   3.508   0.791   2.100  0.2155 -0.0111 -0.1262
 2970TIP3    H1 8916   3.463   0.809   2.017 -0.2873 -1.1322 -0.1106
 2970TIP3    H2 8917   3.483   0.701   2.122  1.7500 -0.3406  0.3587
 2971TIP3   OH2 8918   5.331   0.699   2.573  0.2484 -0.3421  0.6310
 2971TIP3    H1 8919   5.290   0.693   2.487 -1.6279 -0.4773  1.4869
 2971TIP3    H2 8920   5.283   0.770   2.617  3.4301  2.1696  0.4368
 2972TIP3   OH2 8921   4.152   5.759   3.265 -0.4070  0.2239 -0.2817
 2972TIP3    H1 8922   4.247   5.759   3.256 -0.3799  2.3333 -0.2855
 2972TIP3    H2 8923   4.131   5.669   3.289  1.4819 -0.5393 -1.2354
 2973TIP3   OH2 8924   1.884   5.856   0.261 -0.0197  0.2450  0.0750
 2973TIP3    H1 8925   1.831   5.793   0.311  1.3533 -1.0612 -0.0550
 2973TIP3    H2 8926   1.974   5.825   0.271  0.6824  2.0725 -0.2047
 2974TIP3   OH2 8927   1.315   1.601   1.148  0.6288 -0.2590  0.3323
 2974TIP3    H1 8928   1.278   1.577   1.063 -0.4801 -0.3395  0.8300
 2974TIP3    H2 8929   1.362   1.683   1.131 -0.7420  0.4630 -0.0841
 2975TIP3   OH2 8930   3.909   0.085   1.112  0.0060 -0.7657 -0.0414
 2975TIP3    H1 8931   3.899   0.056   1.021 -0.2219 -1.7654  0.2851
 2975TIP3    H2 8932   3.893   0.179   1.110 -1.1532 -0.9642 -0.8592
 2976TIP3   OH2 8933   1.973   2.155   1.646  0.1780  0.2978  0.0899
 2976TIP3    H1 8934   1.909   2.225   1.658 -0.7748 -0.6082  0.4434
 2976TIP3    H2 8935   1.931   2.077   1.682  1.3401 -0.4034 -0.0037
 2977TIP3   OH2 8936   2.378   0.680   4.057  0.1423  0.3641 -0.1696
 2977TIP3    H1 8937   2.474   0.684   4.056  0.1347  0.7616 -1.4107
 2977TIP3    H2 8938   2.357   0.618   4.127  1.4333 -2.2690 -1.9583
 2978TIP3   OH2 8939   3.874   4.085   3.171  0.1214 -0.3178 -0.1384
 2978TIP3    H1 8940   3.948   4.140   3.146  0.1430  0.1735  0.9399
 2978TIP3    H2 8941   3.807   4.103   3.105  0.5126  0.1866 -0.4040
 2979TIP3   OH2 8942   4.870   2.934   2.611 -0.0418 -0.4374 -0.0017
 2979TIP3    H1 8943   4.880   2.911   2.518  2.6203  1.4505 -0.3079
 2979TIP3    H2 8944   4.902   2.857   2.658  1.6381 -0.2682 -0.7833
 2980TIP3   OH2 8945   6.099   4.174   0.156 -0.1929 -0.6948  0.3425
 2980TIP3    H1 8946   6.108   4.221   0.239 -0.2670  0.1793 -0.1388
 2980TIP3    H2 8947   6.134   4.234   0.090 -0.1754 -1.3635 -0.2714
 2981TIP3   OH2 8948   0.514   4.634   0.954 -0.1607  0.2962 -0.8550
 2981TIP3    H1 8949   0.508   4.698   0.882  2.8885 -1.7436 -3.1696
 2981TIP3    H2 8950   0.496   4.550   0.912 -1.9812 -0.7145  1.6763
 2982TIP3   OH2 8951   0.069   0.903   4.130  0.0119  1.1178 -0.2634
 2982TIP3    H1 8952   0.074   0.908   4.226 -3.6165 -1.1543  0.2389
 2982TIP3    H2 8953   0.081   0.810   4.111  2.0230  1.7046 -2.2389
 2983TIP3   OH2 8954   5.378   1.103   0.211  0.3945  0.4089  0.6272
 2983TIP3    H1 8955   5.455   1.086   0.156 -0.1917  2.3805 -0.8992
 2983TIP3    H2 8956   5.312   1.040   0.180  0.1571  1.3228 -0.8057
 2984TIP3   OH2 8957   0.509   2.515   1.681 -0.3824  0.3880 -0.0370
 2984TIP3    H1 8958   0.559   2.450   1.632 -1.2587  0.1504 -0.6416
 2984TIP3    H2 8959   0.457   2.560   1.614 -1.3823  0.2648  0.6397
 2985TIP3   OH2 8960   3.684   4.636   0.421 -0.2524  0.4887 -0.0337
 2985TIP3    H1 8961   3.634   4.559   0.394  1.7146 -1.4738  1.5100
 2985TIP3    H2 8962   3.672   4.640   0.516  0.5964  1.4154  0.0489
 2986TIP3   OH2 8963   2.825   4.327   0.438  0.4748 -0.3475 -0.0721
 2986TIP3    H1 8964   2.825   4.392   0.508  0.1723 -1.6898  1.2071
 2986TIP3    H2 8965   2.813   4.379   0.358 -0.4930  1.1009  0.9594
 2987TIP3   OH2 8966   0.944   0.211   0.749 -0.5617 -0.2402  0.0786
 2987TIP3    H1 8967   1.029   0.221   0.706  0.3728 -1.3615  1.5687
 2987TIP3    H2 8968   0.909   0.129   0.715 -0.7230 -0.1389 -0.0013
 2988TIP3   OH2 8969   4.056   0.692   1.536 -0.0210 -0.0084 -0.2006
 2988TIP3    H1 8970   3.964   0.674   1.516  0.2277 -1.2497 -0.2946
 2988TIP3    H2 8971   4.089   0.611   1.574  1.0580  0.4048 -0.2187
 2989TIP3   OH2 8972   2.143   4.608   1.397 -0.2893 -0.1502  0.2922
 2989TIP3    H1 8973   2.239   4.600   1.400 -0.2492  0.5390  1.3003
 2989TIP3    H2 8974   2.128   4.685   1.343 -0.1991  0.7690  1.5458
 2990TIP3   OH2 8975   1.730   1.194   2.836 -0.1424  0.4638  0.4499
 2990TIP3    H1 8976   1.820   1.189   2.869 -0.4071 -0.1627  1.0818
 2990TIP3    H2 8977   1.730   1.135   2.760 -0.2080 -0.1240  0.8989
 2991TIP3   OH2 8978   4.782   5.094   4.226  0.6842 -0.9225  0.3959
 2991TIP3    H1 8979   4.808   5.043   4.148 -0.3650 -0.6492 -0.1522
 2991TIP3    H2 8980   4.796   5.034   4.299  1.4537 -1.2718 -0.0284
 2992TIP3   OH2 8981   0.504   3.356   1.864 -0.3265  0.1436  0.2536
 2992TIP3    H1 8982   0.438   3.307   1.815 -0.5863  1.4707 -0.7805
 2992TIP3    H2 8983   0.497   3.445   1.831  0.8911  0.6506  1.2895
 2993TIP3   OH2 8984   3.035   0.810   0.688 -0.2066  0.1570 -0.1564
 2993TIP3    H1 8985   2.998   0.891   0.722 -1.6385  0.0011 -1.2403
 2993TIP3    H2 8986   3.058   0.830   0.597  1.9699  0.0827  0.3128
 2994TIP3   OH2 8987   5.311   5.476   3.298 -0.2380  0.3685  0.2198
 2994TIP3    H1 8988   5.267   5.452   3.216 -0.6967 -1.6090  0.9754
 2994TIP3    H2 8989   5.404   5.462   3.280 -0.4385 -1.6050  0.4352
 2995TIP3   OH2 8990   5.370   1.841   0.986  0.3910 -0.2727 -0.4096
 2995TIP3    H1 8991   5.411   1.768   1.033  0.8346 -0.2616 -0.7764
 2995TIP3    H2 8992   5.410   1.919   1.022  0.3218 -0.2346 -0.4140
 2996TIP3   OH2 8993   3.512   3.933   3.456 -0.1226  0.8103  0.1101
 2996TIP3    H1 8994   3.590   3.969   3.498 -0.5246  2.4019 -0.4537
 2996TIP3    H2 8995   3.545   3.886   3.379  0.3438  0.6436  0.4079
 2997TIP3   OH2 8996   1.990   1.398   0.306  0.4121 -0.3942 -0.4590
 2997TIP3    H1 8997   2.077   1.436   0.312  0.1154  0.1651  0.3552
 2997TIP3    H2 8998   1.943   1.454   0.244 -0.9086  2.4005  2.7756
 2998TIP3   OH2 8999   3.166   2.661   3.237  0.0530  0.3757 -0.7423
 2998TIP3    H1 9000   3.221   2.602   3.186  0.2719  0.4000 -0.5410
 2998TIP3    H2 9001   3.095   2.607   3.270  1.1027 -0.1478  0.7540
 2999TIP3   OH2 9002   1.042   5.015   0.650 -0.2239 -0.4702 -0.1397
 2999TIP3    H1 9003   1.104   5.004   0.722 -2.2049  0.6769  1.8723
 2999TIP3    H2 9004   1.028   5.110   0.644 -1.3870 -0.6659 -0.8905
 3000TIP3   OH2 9005   0.024   5.890   1.256 -0.6960 -0.3195 -0.1954
 3000TIP3    H1 9006   0.043   5.980   1.284  0.7898 -0.6491 -0.0354
 3000TIP3    H2 9007   0.034   5.838   1.335 -0.0206 -0.8091 -0.5939
 3001TIP3   OH2 9008   4.078   1.782   2.030  0.2949  0.0374  0.0183
 3001TIP3    H1 9009   4.046   1.866   2.066 -0.1538  0.4695 -1.3334
 3001TIP3    H2 9010   4.026   1.769   1.951  0.6035 -1.3657  0.0299
 3002TIP3   OH2 9011   4.845   2.633   2.426  0.2525  0.4166  0.2260
 3002TIP3    H1 9012   4.861   2.727   2.418 -0.8860  0.8063  1.8755
 3002TIP3    H2 9013   4.782   2.613   2.357  0.9212  0.7371 -0.4892
 3003TIP3   OH2 9014   4.700   5.638   0.894 -0.7540 -0.4183 -0.1183
 3003TIP3    H1 9015   4.672   5.727   0.871  0.0366  0.0671  0.7475
 3003TIP3    H2 9016   4.620   5.586   0.891 -1.1572  0.2300 -1.0533
 3004TIP3   OH2 9017   1.190   1.466   1.765 -0.0675  0.0156 -0.3571
 3004TIP3    H1 9018   1.215   1.554   1.793  1.3348 -0.4103 -0.2178
 3004TIP3    H2 9019   1.205   1.411   1.842 -2.1137 -0.1889 -0.0383
 3005TIP3   OH2 9020   2.798   1.960   1.269 -0.1376 -0.4015  0.4116
 3005TIP3    H1 9021   2.770   2.028   1.208 -1.2858 -0.3433  0.9724
 3005TIP3    H2 9022   2.860   2.004   1.328 -0.6112  0.0708  0.5623
 3006TIP3   OH2 9023   1.957   4.246   2.024 -0.5480  0.9401  0.0942
 3006TIP3    H1 9024   1.964   4.302   1.947 -0.0393  1.2410  0.3528
 3006TIP3    H2 9025   2.043   4.204   2.032 -0.4130  1.3380  0.8161
 3007TIP3   OH2 9026   1.861   0.507   1.410  0.1975 -0.1885  0.1139
 3007TIP3    H1 9027   1.867   0.500   1.505 -0.1996  0.3165  0.1820
 3007TIP3    H2 9028   1.883   0.598   1.391 -0.6453 -0.0424 -0.1939
 3008TIP3   OH2 9029   3.386   5.509   1.148 -0.3570 -0.0120  0.2193
 3008TIP3    H1 9030   3.361   5.544   1.234 -2.1060  0.2464 -0.3692
 3008TIP3    H2 9031   3.305   5.507   1.098  0.7896  0.7567 -1.7764
 3009TIP3   OH2 9032   3.178   4.925   0.491 -0.5026  0.3852  0.0879
 3009TIP3    H1 9033   3.107   4.987   0.508  1.0382  2.1780  0.2197
 3009TIP3    H2 9034   3.242   4.942   0.560  0.5236 -0.4891 -0.6218
 3010TIP3   OH2 9035   5.145   2.501   0.447 -0.4767 -0.1994 -0.1392
 3010TIP3    H1 9036   5.133   2.414   0.408  0.0145 -1.7960  2.9626
 3010TIP3    H2 9037   5.057   2.529   0.472 -0.6354  0.2489 -1.1419
 3011TIP3   OH2 9038   5.240   1.435   4.152 -0.9578 -0.2632  0.3025
 3011TIP3    H1 9039   5.210   1.421   4.242  0.2516 -1.6267  0.5349
 3011TIP3    H2 9040   5.270   1.349   4.123  0.1618  0.4686 -0.8378
 3012TIP3   OH2 9041   2.162   2.396   4.424  0.2227  0.5833 -0.2894
 3012TIP3    H1 9042   2.194   2.486   4.415  1.5695  0.1967  0.4333
 3012TIP3    H2 9043   2.223   2.354   4.485 -2.7067  0.2834  2.6614
 3013TIP3   OH2 9044   5.641   5.446   2.946  0.7152  0.0968 -0.0459
 3013TIP3    H1 9045   5.672   5.363   2.982  0.7228  0.4554  0.7965
 3013TIP3    H2 9046   5.554   5.426   2.911  0.4394 -0.1319  0.7442
 3014TIP3   OH2 9047   4.880   2.313   4.707  0.0830 -0.3029  0.0374
 3014TIP3    H1 9048   4.799   2.265   4.724 -0.2645  1.2544  3.5701
 3014TIP3    H2 9049   4.950   2.250   4.724 -0.2730 -1.5726 -2.7571
 3015TIP3   OH2 9050   5.086   2.013   1.896 -0.4636 -0.5560  0.3214
 3015TIP3    H1 9051   4.991   2.020   1.902 -0.6073 -0.6164 -1.4011
 3015TIP3    H2 9052   5.114   1.989   1.985 -1.9338  0.5354  1.1229
 3016TIP3   OH2 9053   1.263   0.486   0.228 -0.1891 -0.0331  0.1426
 3016TIP3    H1 9054   1.257   0.580   0.246  0.8186 -0.1120  1.0118
 3016TIP3    H2 9055   1.354   0.464   0.249 -0.2592 -1.0955 -0.6006
 3017TIP3   OH2 9056   0.138   5.096   2.632  0.1130 -0.4754  0.4906
 3017TIP3    H1 9057   0.172   5.106   2.543 -1.5999  0.1749 -0.1242
 3017TIP3    H2 9058   0.198   5.147   2.686  0.4720  0.1521 -0.4759
 3018TIP3   OH2 9059   4.376   4.674   2.529  0.3252  0.1670 -0.5156
 3018TIP3    H1 9060   4.418   4.705   2.448  0.3879  0.4021 -0.3952
 3018TIP3    H2 9061   4.380   4.579   2.524 -1.2344  0.1202 -1.6271
 3019TIP3   OH2 9062   0.133   4.285   0.801 -0.2067  0.4769 -0.2487
 3019TIP3    H1 9063   0.068   4.302   0.868  0.0453  0.6344 -0.0399
 3019TIP3    H2 9064   0.160   4.194   0.814 -0.7030  0.2762 -0.6160
 3020TIP3   OH2 9065   3.485   5.583   3.624 -0.3498  0.4202  0.0315
 3020TIP3    H1 9066   3.521   5.556   3.709  0.2479 -1.7225 -0.8395
 3020TIP3    H2 9067   3.392   5.559   3.629 -0.9557  2.7072  0.9795
 3021TIP3   OH2 9068   2.535   3.559   4.683  0.1433  0.8825  0.3078
 3021TIP3    H1 9069   2.581   3.576   4.601 -0.1545  0.3818  0.0286
 3021TIP3    H2 9070   2.572   3.622   4.745  1.2623  0.4255  0.1245
 3022TIP3   OH2 9071   4.303   4.932   1.215 -0.0328 -0.0832  0.6553
 3022TIP3    H1 9072   4.284   5.016   1.173  0.6476 -0.7325 -1.0278
 3022TIP3    H2 9073   4.369   4.891   1.159 -2.3328 -2.9737 -0.2252
 3023TIP3   OH2 9074   2.228   3.881   3.008  0.0152 -0.0400 -0.6324
 3023TIP3    H1 9075   2.284   3.935   3.064  1.0071 -1.1950 -0.4697
 3023TIP3    H2 9076   2.145   3.877   3.054  0.1257  0.7980 -0.3292
 3024TIP3   OH2 9077   3.737   5.143   3.085  0.0114  0.1090  0.4992
 3024TIP3    H1 9078   3.822   5.170   3.050  1.0600 -3.8126 -0.4567
 3024TIP3    H2 9079   3.746   5.154   3.180  1.1039  0.8475  0.3359
 3025TIP3   OH2 9080   3.590   5.496   5.165  0.7826 -0.2285 -0.0764
 3025TIP3    H1 9081   3.580   5.585   5.130 -0.8834 -0.8742 -1.4199
 3025TIP3    H2 9082   3.672   5.464   5.127  0.6015  0.2042 -0.8626
 3026TIP3   OH2 9083   3.768   5.134   0.752  0.0288 -0.3692 -0.2505
 3026TIP3    H1 9084   3.805   5.139   0.840  1.2233 -3.5044 -0.4721
 3026TIP3    H2 9085   3.724   5.050   0.748 -2.2011  0.7659 -1.9167
 3027TIP3   OH2 9086   0.861   0.360   4.439  0.5106 -0.2540 -0.4012
 3027TIP3    H1 9087   0.836   0.425   4.374  0.0208 -1.3321 -1.3213
 3027TIP3    H2 9088   0.922   0.302   4.393  1.9320  0.2326  0.7651
 3028TIP3   OH2 9089   2.807   1.343   4.741  0.4346  0.2344 -0.9074
 3028TIP3    H1 9090   2.714   1.365   4.744 -0.2705 -2.5006  0.5671
 3028TIP3    H2 9091   2.810   1.263   4.689  1.7807 -0.3904  0.0818
 3029TIP3   OH2 9092   0.638   2.573   4.966 -0.2267  0.0573 -0.0552
 3029TIP3    H1 9093   0.690   2.572   4.885  0.7427 -0.8380  0.5438
 3029TIP3    H2 9094   0.652   2.486   5.004 -0.1365  0.6771  1.3850
 3030TIP3   OH2 9095   4.431   1.710   4.738  0.4550 -0.6854 -0.0644
 3030TIP3    H1 9096   4.435   1.780   4.673  0.0508 -1.2348 -0.6928
 3030TIP3    H2 9097   4.356   1.656   4.711  0.4691 -1.0959  0.6794
 3031TIP3   OH2 9098   2.523   0.524   2.997 -0.5918 -0.0391  0.0541
 3031TIP3    H1 9099   2.591   0.590   2.983  0.0056 -0.8834 -1.1190
 3031TIP3    H2 9100   2.487   0.546   3.083 -0.4126  1.8164 -0.2893
 3032TIP3   OH2 9101   2.407   4.939   1.752 -0.0649  0.1855  0.0902
 3032TIP3    H1 9102   2.397   4.847   1.779  0.2309  0.2045  0.2744
 3032TIP3    H2 9103   2.453   4.980   1.825  0.5311  0.2945 -0.3382
 3033TIP3   OH2 9104   4.581   5.611   2.676  0.3235  0.1841  0.0539
 3033TIP3    H1 9105   4.664   5.571   2.651  0.5440  1.2481 -1.0167
 3033TIP3    H2 9106   4.533   5.620   2.593 -1.7414 -2.2636  0.8667
 3034TIP3   OH2 9107   3.829   5.796   5.114 -0.1081 -0.6904  0.2857
 3034TIP3    H1 9108   3.831   5.786   5.209  0.5810 -0.6476  0.2761
 3034TIP3    H2 9109   3.757   5.739   5.085  0.1050 -1.2055  0.7657
 3035TIP3   OH2 9110   5.828   5.216   3.371  0.3245  0.5149 -0.2429
 3035TIP3    H1 9111   5.818   5.126   3.340 -1.4991  1.0985 -1.4854
 3035TIP3    H2 9112   5.799   5.213   3.462  0.5888 -0.2095 -0.1755
 3036TIP3   OH2 9113   6.077   1.814   1.597  0.3561 -0.0609  0.3405
 3036TIP3    H1 9114   6.027   1.736   1.621 -1.3183  0.7109 -0.4388
 3036TIP3    H2 9115   6.157   1.809   1.649 -0.2319 -1.6969  1.1497
 3037TIP3   OH2 9116   3.040   4.559   2.954 -0.6883 -0.2706 -0.3165
 3037TIP3    H1 9117   3.086   4.490   2.906  0.2592  0.2884 -0.2430
 3037TIP3    H2 9118   3.054   4.537   3.046  0.7909  0.7245 -0.2636
 3038TIP3   OH2 9119   3.293   0.784   2.469 -0.2056 -0.1589  0.3007
 3038TIP3    H1 9120   3.262   0.820   2.552 -1.2065 -0.3227  0.0127
 3038TIP3    H2 9121   3.349   0.853   2.432  1.6263 -0.7479  1.8680
 3039TIP3   OH2 9122   5.121   4.791   1.399 -0.4374 -0.5703  0.5947
 3039TIP3    H1 9123   5.150   4.882   1.405 -0.5721 -0.5053  0.3014
 3039TIP3    H2 9124   5.200   4.739   1.419 -0.5077 -0.3908  1.3643
 3040TIP3   OH2 9125   5.982   0.474   1.093 -0.4493 -0.5875 -0.1227
 3040TIP3    H1 9126   5.969   0.452   1.186  1.8482  0.0021  0.3946
 3040TIP3    H2 9127   5.896   0.460   1.053 -1.3036 -1.6524  1.9279
 3041TIP3   OH2 9128   4.456   5.663   1.256  0.3014  0.2499  0.0281
 3041TIP3    H1 9129   4.479   5.656   1.349  0.9231  0.4485 -0.1051
 3041TIP3    H2 9130   4.374   5.713   1.256  0.5436  0.6686  0.4517
 3042TIP3   OH2 9131   0.792   5.564   4.658 -0.8448  0.3823 -0.4660
 3042TIP3    H1 9132   0.780   5.623   4.732  0.7174  0.3319 -0.1306
 3042TIP3    H2 9133   0.838   5.488   4.695 -1.2255 -0.2403 -1.2374
 3043TIP3   OH2 9134   2.122   5.275   0.564  0.2292 -0.3769  0.3069
 3043TIP3    H1 9135   2.054   5.308   0.623  1.5312  3.3393 -0.0113
 3043TIP3    H2 9136   2.088   5.294   0.476  0.4687 -1.1955  0.0292
 3044TIP3   OH2 9137   2.291   1.565   1.568 -0.4003 -0.3105 -0.1619
 3044TIP3    H1 9138   2.258   1.598   1.651 -0.5056  0.6770 -0.5724
 3044TIP3    H2 9139   2.311   1.473   1.584 -0.6942 -0.2061  0.8661
 3045TIP3   OH2 9140   4.778   1.135   3.924  0.1440 -0.6196  0.2080
 3045TIP3    H1 9141   4.718   1.106   3.993 -0.1819  0.3576  0.3397
 3045TIP3    H2 9142   4.792   1.228   3.941 -0.3937 -0.2235 -1.3756
 3046TIP3   OH2 9143   1.250   4.493   3.819 -0.3283  0.5342  0.3798
 3046TIP3    H1 9144   1.231   4.404   3.848  0.9925  0.2084  0.2978
 3046TIP3    H2 9145   1.196   4.548   3.876  1.4373 -0.1488  2.9123
 3047TIP3   OH2 9146   3.034   3.301   4.591  0.3211  0.2771  0.0918
 3047TIP3    H1 9147   2.994   3.382   4.558  0.6098  0.1262 -0.6365
 3047TIP3    H2 9148   3.002   3.233   4.533  1.2630  0.0862 -0.2136
 3048TIP3   OH2 9149   2.476   1.274   2.767  0.1377  0.5016 -0.1334
 3048TIP3    H1 9150   2.429   1.191   2.761  0.8612 -0.0068  0.9948
 3048TIP3    H2 9151   2.511   1.288   2.679  1.2818 -1.1719 -0.0047
 3049TIP3   OH2 9152   2.638   5.520   0.284 -0.1658  0.1911  0.4882
 3049TIP3    H1 9153   2.657   5.434   0.322 -1.1571  0.8101  2.5016
 3049TIP3    H2 9154   2.707   5.577   0.317 -0.8101  0.6535  1.0510
 3050TIP3   OH2 9155   6.058   0.268   2.137 -0.1710 -0.1534 -0.0566
 3050TIP3    H1 9156   6.135   0.269   2.193  0.2883 -1.4056 -0.6231
 3050TIP3    H2 9157   6.062   0.351   2.089  1.3472 -0.5996 -0.7406
 3051TIP3   OH2 9158   1.642   0.265   4.120 -0.0244 -0.1164  0.4515
 3051TIP3    H1 9159   1.722   0.317   4.130 -0.2494 -0.0870  2.4094
 3051TIP3    H2 9160   1.591   0.283   4.199 -1.3545 -1.2043 -0.1156
 3052TIP3   OH2 9161   6.155   1.265   5.146 -0.3690 -0.2770  0.4317
 3052TIP3    H1 9162   6.112   1.277   5.061 -1.9107 -1.3342  0.9999
 3052TIP3    H2 9163   6.225   1.202   5.129  0.4730  0.8289 -0.3569
 3053TIP3   OH2 9164   4.854   2.738   0.684 -0.5626  0.3366  0.0801
 3053TIP3    H1 9165   4.834   2.830   0.666 -3.0898 -0.1551 -0.0609
 3053TIP3    H2 9166   4.899   2.707   0.606  0.2742  1.4073  0.1076
 3054TIP3   OH2 9167   1.794   2.675   3.908  0.1609  0.2153 -0.4640
 3054TIP3    H1 9168   1.842   2.599   3.943  0.4568  0.9621  0.8329
 3054TIP3    H2 9169   1.841   2.750   3.944 -1.2400  0.9860 -0.1878
 3055TIP3   OH2 9170   5.364   4.766   1.708 -0.2628  0.0173  0.0810
 3055TIP3    H1 9171   5.274   4.799   1.707  0.1615  1.5735  2.9863
 3055TIP3    H2 9172   5.414   4.831   1.658 -0.6102 -0.5927 -1.1118
 3056TIP3   OH2 9173   3.700   2.638   1.561 -0.3206  0.5367  0.4241
 3056TIP3    H1 9174   3.750   2.566   1.600 -2.0150 -0.8798  0.1138
 3056TIP3    H2 9175   3.614   2.600   1.541 -0.6596  2.1409 -1.5220
 3057TIP3   OH2 9176   1.483   2.765   3.926 -0.3440 -0.6998  0.2252
 3057TIP3    H1 9177   1.569   2.803   3.907 -0.6575  0.2268  0.6272
 3057TIP3    H2 9178   1.437   2.832   3.975 -1.1620 -1.3481  0.3688
 3058TIP3   OH2 9179   6.157   5.895   4.347 -0.2894 -0.0522  0.3058
 3058TIP3    H1 9180   6.233   5.843   4.373 -0.0606 -0.6014 -1.3492
 3058TIP3    H2 9181   6.194   5.977   4.314 -0.2780 -0.7500 -1.5455
 3059TIP3   OH2 9182   5.624   1.000   2.028 -0.3008  0.0532 -0.0353
 3059TIP3    H1 9183   5.625   0.998   2.124  2.2180 -1.6764 -0.0134
 3059TIP3    H2 9184   5.567   0.927   2.003 -1.2075  0.6956  0.1123
 3060TIP3   OH2 9185   0.043   4.634   1.618 -0.5230  0.2446 -0.7009
 3060TIP3    H1 9186   0.031   4.559   1.561  0.6092 -0.1283 -0.4732
 3060TIP3    H2 9187  -0.008   4.704   1.577  1.0387  0.2756 -2.7213
 3061TIP3   OH2 9188   3.774   0.426   4.127  0.0428 -0.3977 -0.5123
 3061TIP3    H1 9189   3.834   0.481   4.178 -2.1133 -0.0393  1.7984
 3061TIP3    H2 9190   3.766   0.472   4.043  0.1674  1.5460  0.4819
 3062TIP3   OH2 9191   3.168   1.622   3.699  0.3636  0.1917  0.2601
 3062TIP3    H1 9192   3.241   1.590   3.646  1.9998  0.8072  1.9972
 3062TIP3    H2 9193   3.093   1.570   3.671  0.8839  1.0583 -3.1862
 3063TIP3   OH2 9194   0.979   5.438   3.247 -0.1150  0.1653  0.1275
 3063TIP3    H1 9195   0.939   5.351   3.242  0.8500 -0.2686 -0.5359
 3063TIP3    H2 9196   0.967   5.465   3.337 -2.6992  0.4796 -0.2369
 3064TIP3   OH2 9197   1.649   1.422   3.474  0.1561 -0.7530 -0.0482
 3064TIP3    H1 9198   1.652   1.455   3.564  2.0571 -0.2985 -0.2446
 3064TIP3    H2 9199   1.716   1.355   3.470  2.1211  1.1487 -1.7993
 3065TIP3   OH2 9200   1.366   5.229   4.825 -0.0621 -0.1870 -0.1576
 3065TIP3    H1 9201   1.345   5.322   4.816  0.9078  0.1116  0.4475
 3065TIP3    H2 9202   1.392   5.202   4.736 -3.6297 -0.8160 -1.1624
 3066TIP3   OH2 9203   3.114   3.942   0.523 -0.3440  0.2468  0.1139
 3066TIP3    H1 9204   3.192   3.898   0.490  0.5623  0.6679  1.5810
 3066TIP3    H2 9205   3.060   3.872   0.558 -0.3856  0.0019 -0.4370
 3067TIP3   OH2 9206   1.400   2.086   0.112 -0.6580 -0.3556  0.0702
 3067TIP3    H1 9207   1.469   2.089   0.179 -1.0423 -1.0894  0.5127
 3067TIP3    H2 9208   1.327   2.134   0.150 -1.8796 -3.0186  1.4055
 3068TIP3   OH2 9209   0.170   4.560   4.707  0.7192  0.3627 -0.0151
 3068TIP3    H1 9210   0.237   4.544   4.641 -0.5530 -1.4261 -0.9504
 3068TIP3    H2 9211   0.165   4.478   4.757  0.0200  0.8646  0.7802
 3069TIP3   OH2 9212   1.305   4.432   1.926 -0.1355 -0.8166  0.3248
 3069TIP3    H1 9213   1.261   4.394   1.850  0.9528 -0.8554 -0.3105
 3069TIP3    H2 9214   1.248   4.412   1.999 -1.9498  0.4798 -0.6571
 3070TIP3   OH2 9215   3.607   3.228   4.547 -0.1081 -0.7315  0.2288
 3070TIP3    H1 9216   3.572   3.298   4.602  0.0983 -0.9966  0.6992
 3070TIP3    H2 9217   3.552   3.229   4.469 -0.6540 -0.6173  0.6112
 3071TIP3   OH2 9218   0.920   3.967   4.475 -0.0030 -0.0510 -0.3153
 3071TIP3    H1 9219   0.971   3.886   4.476 -1.1715 -0.8122 -0.2971
 3071TIP3    H2 9220   0.946   4.013   4.555  0.3027 -0.6424 -0.0666
 3072TIP3   OH2 9221   1.723   4.116   1.925  0.5489  0.6696 -0.0213
 3072TIP3    H1 9222   1.773   4.059   1.866  0.4933  0.4790  0.1160
 3072TIP3    H2 9223   1.789   4.173   1.966  0.6737  0.3059  0.2868
 3073TIP3   OH2 9224   4.162   0.121   1.330  0.2459 -0.3144 -0.4323
 3073TIP3    H1 9225   4.094   0.115   1.263  0.3929 -1.3925 -0.4949
 3073TIP3    H2 9226   4.114   0.137   1.412  0.0563  0.8269 -0.7489
 3074TIP3   OH2 9227   4.331   0.730   4.575  0.3352 -0.0365 -0.2658
 3074TIP3    H1 9228   4.276   0.755   4.648 -0.3754  1.2367 -1.1920
 3074TIP3    H2 9229   4.414   0.776   4.589 -0.1857  1.1048 -0.7997
 3075TIP3   OH2 9230   1.063   0.487   1.961 -0.8913 -0.1911  0.0290
 3075TIP3    H1 9231   1.142   0.440   1.934  0.0925  1.6300 -0.4741
 3075TIP3    H2 9232   1.063   0.483   2.056  0.9095  1.3650  0.1536
 3076TIP3   OH2 9233   5.068   3.255   1.867 -0.2702  0.0913 -0.7893
 3076TIP3    H1 9234   5.127   3.286   1.797  4.3748  2.1164  3.3743
 3076TIP3    H2 9235   5.046   3.334   1.915 -2.3382 -1.3357  0.7427
 3077TIP3   OH2 9236   4.086   3.570   2.838  0.0150 -0.1926 -0.3514
 3077TIP3    H1 9237   4.057   3.645   2.890  0.6266 -1.0559  1.2940
 3077TIP3    H2 9238   4.179   3.560   2.860  0.3450 -0.5158 -1.7504
 3078TIP3   OH2 9239   3.471   5.273   4.820 -0.3142 -0.0677 -0.2628
 3078TIP3    H1 9240   3.410   5.324   4.766 -0.3817 -0.6731 -0.7658
 3078TIP3    H2 9241   3.557   5.312   4.800 -0.1931 -0.9856 -1.6656
 3079TIP3   OH2 9242   1.876   3.699   3.232  0.2961  0.0557  0.3440
 3079TIP3    H1 9243   1.823   3.731   3.305  0.7579  0.4266  0.5277
 3079TIP3    H2 9244   1.859   3.605   3.229  0.3125  0.0258  0.9765
 3080TIP3   OH2 9245   1.143   5.868   1.336  0.0344  0.0603  0.4134
 3080TIP3    H1 9246   1.047   5.876   1.342  0.2293  1.4726  2.6866
 3080TIP3    H2 9247   1.163   5.788   1.384  0.0653  0.1944  0.6214
 3081TIP3   OH2 9248   5.735   0.885   3.686 -0.0206  0.1681 -0.3559
 3081TIP3    H1 9249   5.689   0.849   3.762 -2.5059  0.4683 -1.5932
 3081TIP3    H2 9250   5.762   0.973   3.714  0.6262 -0.3523  0.7006
 3082TIP3   OH2 9251   3.909   3.439   4.874 -0.4664 -0.2789  0.4253
 3082TIP3    H1 9252   3.847   3.415   4.805 -0.3013 -0.3450  0.2998
 3082TIP3    H2 9253   3.898   3.370   4.940 -0.7512 -0.1178  0.5458
 3083TIP3   OH2 9254   3.056   5.694   3.736  0.0437  0.2776  0.5972
 3083TIP3    H1 9255   3.007   5.776   3.738  0.2512  0.5927 -2.6507
 3083TIP3    H2 9256   2.990   5.627   3.715  0.5358  0.3331 -1.2604
 3084TIP3   OH2 9257   1.261   5.180   1.119  0.1634  0.3834  0.1530
 3084TIP3    H1 9258   1.352   5.169   1.093 -0.1135  0.4747 -0.9059
 3084TIP3    H2 9259   1.220   5.224   1.044 -0.8485 -0.0786  0.4157
 3085TIP3   OH2 9260   2.948   5.711   2.142 -0.2682 -0.5881 -0.0460
 3085TIP3    H1 9261   2.916   5.704   2.052  0.5032  1.0580 -0.4932
 3085TIP3    H2 9262   2.929   5.802   2.168 -0.5583 -1.0579  1.4869
 3086TIP3   OH2 9263   2.070   4.808   5.091 -0.1366 -0.3807 -0.7966
 3086TIP3    H1 9264   2.138   4.769   5.146  0.2018  0.7142 -0.4178
 3086TIP3    H2 9265   2.065   4.900   5.119 -1.9439 -0.4834 -0.6234
 3087TIP3   OH2 9266   5.734   1.665   0.520 -1.0180  0.5949 -0.5814
 3087TIP3    H1 9267   5.745   1.570   0.511 -1.7336  0.5070 -0.5921
 3087TIP3    H2 9268   5.823   1.699   0.518 -0.7212 -0.1134 -0.1767
 3088TIP3   OH2 9269   2.362   2.243   4.561  0.2929 -0.0010 -0.4594
 3088TIP3    H1 9270   2.432   2.211   4.504 -0.8698  0.1872 -2.0788
 3088TIP3    H2 9271   2.322   2.163   4.596  0.6990 -0.1338 -0.2846
 3089TIP3   OH2 9272   4.184   3.839   3.627  0.0278 -0.2706 -0.0750
 3089TIP3    H1 9273   4.144   3.889   3.698 -1.0150 -0.3058 -0.6104
 3089TIP3    H2 9274   4.116   3.835   3.559  0.0467 -2.4130 -0.0488
 3090TIP3   OH2 9275   5.375   0.163   0.036 -0.0791  0.0297 -0.5892
 3090TIP3    H1 9276   5.464   0.156   0.071 -0.3898  1.4455  0.6058
 3090TIP3    H2 9277   5.388   0.174  -0.059  0.9893 -0.2096 -0.4914
 3091TIP3   OH2 9278   5.261   3.479   0.242  0.4632 -0.4162  0.2857
 3091TIP3    H1 9279   5.328   3.429   0.288  0.5679  1.0192  1.8296
 3091TIP3    H2 9280   5.275   3.569   0.272 -2.3948 -0.1104  1.0366
 3092TIP3   OH2 9281   1.198   0.839   0.472 -0.5285 -0.6649 -0.3810
 3092TIP3    H1 9282   1.111   0.877   0.485  0.1169  0.1082  2.1636
 3092TIP3    H2 9283   1.187   0.746   0.492 -0.2647 -0.0736  3.2012
 3093TIP3   OH2 9284   1.113   0.350   1.352 -0.1180 -0.1219  0.0667
 3093TIP3    H1 9285   1.170   0.289   1.397 -1.6561 -0.8725  1.0864
 3093TIP3    H2 9286   1.089   0.414   1.419 -0.3203  0.2918 -0.3954
 3094TIP3   OH2 9287   1.803   5.915   3.878  0.1516  0.2250  0.0535
 3094TIP3    H1 9288   1.726   5.964   3.905 -0.4711  0.5327 -2.0858
 3094TIP3    H2 9289   1.864   5.982   3.847  1.7099  0.0718  2.4556
 3095TIP3   OH2 9290   3.428   0.033   2.749 -0.0227  0.4312 -0.3019
 3095TIP3    H1 9291   3.416  -0.060   2.770 -2.7023  0.6617 -0.5035
 3095TIP3    H2 9292   3.515   0.037   2.709  0.8840 -1.6856  1.2431
 3096TIP3   OH2 9293   0.631   0.568   2.392 -0.1164 -0.1606 -0.1568
 3096TIP3    H1 9294   0.625   0.654   2.349  2.1794 -0.2626 -0.8524
 3096TIP3    H2 9295   0.695   0.582   2.462 -0.4871 -1.0746  0.3692
 3097TIP3   OH2 9296   0.196   4.652   1.831 -0.1146  0.3550  0.2562
 3097TIP3    H1 9297   0.252   4.581   1.798  1.1740  1.6182 -0.3567
 3097TIP3    H2 9298   0.128   4.661   1.764 -0.8600 -0.8908  0.7934
 3098TIP3   OH2 9299   4.488   2.023   4.988 -0.5684 -0.5871 -0.2852
 3098TIP3    H1 9300   4.519   1.942   5.030  1.4827 -0.2237 -0.9702
 3098TIP3    H2 9301   4.397   2.031   5.016  0.2988 -1.0188  3.0502
 3099TIP3   OH2 9302   3.454   2.246   4.605 -0.3224  0.2684  0.2175
 3099TIP3    H1 9303   3.403   2.180   4.654  1.3499  0.2820  2.0887
 3099TIP3    H2 9304   3.538   2.203   4.588  0.6750  1.7505  1.1739
 3100TIP3   OH2 9305   5.938   5.607   3.950 -0.2914 -0.5012  0.6243
 3100TIP3    H1 9306   5.939   5.608   3.855 -1.9489 -0.5446  0.5751
 3100TIP3    H2 9307   5.966   5.519   3.974 -3.3813 -1.7614  0.0119
 3101TIP3   OH2 9308   3.521   4.956   0.626  0.3096 -0.5302 -0.0266
 3101TIP3    H1 9309   3.451   4.917   0.678 -0.0602 -0.7286 -0.6590
 3101TIP3    H2 9310   3.511   5.050   0.639 -1.6268 -0.3789 -1.9930
 3102TIP3   OH2 9311   2.611   2.937   4.764 -0.5995 -0.0616  0.0816
 3102TIP3    H1 9312   2.575   2.883   4.834  0.3234 -0.8495 -0.0406
 3102TIP3    H2 9313   2.687   2.980   4.804 -1.3744  1.2722  0.2132
 3103TIP3   OH2 9314   4.629   4.599   3.497 -0.2791  0.1938 -0.0792
 3103TIP3    H1 9315   4.568   4.650   3.549  0.2076  0.2655  0.4370
 3103TIP3    H2 9316   4.597   4.509   3.505  1.9925 -0.5090  3.7809
 3104TIP3   OH2 9317   3.293   1.411   2.218  0.2527 -0.0267 -0.1480
 3104TIP3    H1 9318   3.349   1.334   2.212 -2.2834 -1.9076 -1.3079
 3104TIP3    H2 9319   3.212   1.386   2.174 -0.9957  3.0502  0.1349
 3105TIP3   OH2 9320   2.838   1.052   4.672 -0.2345 -0.3122  0.0064
 3105TIP3    H1 9321   2.814   0.961   4.692  1.7692 -0.6577  1.1520
 3105TIP3    H2 9322   2.912   1.070   4.730  0.8615  1.3201 -1.7837
 3106TIP3   OH2 9323   1.063   3.314   1.975 -0.3308  0.2467 -0.6081
 3106TIP3    H1 9324   1.084   3.341   1.885 -1.1087 -1.2226 -1.2709
 3106TIP3    H2 9325   1.136   3.258   2.000 -0.2740  0.3899 -0.4580
 3107TIP3   OH2 9326   6.046   4.321   3.266  0.0218  0.2192  0.6690
 3107TIP3    H1 9327   5.972   4.262   3.254 -0.4705  0.8161  0.7570
 3107TIP3    H2 9328   6.048   4.374   3.186 -0.1828  0.7970  1.0409
 3108TIP3   OH2 9329   5.962   1.364   0.804 -0.8044  0.2001  0.0979
 3108TIP3    H1 9330   6.024   1.315   0.857 -1.1872 -0.1156  0.2643
 3108TIP3    H2 9331   6.006   1.375   0.719 -1.2199 -1.6203 -0.4055
 3109TIP3   OH2 9332   1.530   4.861   1.179  0.6976 -0.4190  0.2063
 3109TIP3    H1 9333   1.564   4.819   1.258  0.6072 -1.3498 -0.2339
 3109TIP3    H2 9334   1.526   4.790   1.114 -2.1437 -0.4114  0.2560
 3110TIP3   OH2 9335   0.604   2.607   4.395  0.6570 -0.6928  0.6181
 3110TIP3    H1 9336   0.611   2.512   4.385 -0.6842 -0.7064 -0.4127
 3110TIP3    H2 9337   0.511   2.623   4.410  0.1730  0.7086 -2.8682
 3111TIP3   OH2 9338   2.928   3.455   2.277 -0.3803 -0.0526 -0.6647
 3111TIP3    H1 9339   3.005   3.511   2.275 -0.3041  0.0737  1.9946
 3111TIP3    H2 9340   2.957   3.373   2.237  0.9856  0.1880 -0.2311
 3112TIP3   OH2 9341   3.350   1.495   4.814 -0.1344 -0.0600  0.1113
 3112TIP3    H1 9342   3.434   1.497   4.861 -0.9062  1.9110  1.6089
 3112TIP3    H2 9343   3.306   1.416   4.846 -0.2472  0.7408  2.1595
 3113TIP3   OH2 9344   5.382   3.313   3.881  0.5263 -0.3909 -0.2378
 3113TIP3    H1 9345   5.387   3.247   3.950 -0.2374  0.1071  0.3053
 3113TIP3    H2 9346   5.313   3.372   3.909  1.4243  0.8412 -0.5555
 3114TIP3   OH2 9347   1.242   4.891   1.556  0.5100 -0.1451  0.5514
 3114TIP3    H1 9348   1.174   4.865   1.493 -0.8838 -1.7553  2.5946
 3114TIP3    H2 9349   1.285   4.966   1.515 -0.5538 -0.8891 -2.1360
 3115TIP3   OH2 9350   5.137   0.632   1.830 -0.7104 -0.4127 -0.5420
 3115TIP3    H1 9351   5.122   0.631   1.735  0.5651 -0.8108 -0.7459
 3115TIP3    H2 9352   5.190   0.555   1.847  0.5297  0.5770  0.2435
 3116TIP3   OH2 9353   1.482   5.066   0.546 -0.4694 -0.2533  0.0015
 3116TIP3    H1 9354   1.570   5.099   0.563 -0.3965 -0.1931 -0.4788
 3116TIP3    H2 9355   1.436   5.076   0.629  0.3551 -1.5115  0.6494
 3117TIP3   OH2 9356  -0.015   0.852   3.841  0.2624  0.0437  0.4322
 3117TIP3    H1 9357   0.044   0.797   3.892  0.9071  0.8145  0.5356
 3117TIP3    H2 9358   0.038   0.928   3.816 -0.2829  0.0793 -0.6718
 3118TIP3   OH2 9359   0.997   4.462   2.949 -0.4153  0.0284 -0.4309
 3118TIP3    H1 9360   1.009   4.508   3.032 -0.9430  0.6380 -0.6881
 3118TIP3    H2 9361   1.066   4.395   2.949  0.6579  1.1000 -0.2660
 3119TIP3   OH2 9362   2.861   3.230   1.096 -0.3329  0.5741  0.3109
 3119TIP3    H1 9363   2.811   3.261   1.171 -0.9307 -0.8284  0.5293
 3119TIP3    H2 9364   2.849   3.135   1.097  1.5203  0.2991 -0.2311
 3120TIP3   OH2 9365   2.185   3.895   4.094 -0.0979 -0.9520  0.4859
 3120TIP3    H1 9366   2.213   3.976   4.052 -3.1635  0.6306  1.1431
 3120TIP3    H2 9367   2.254   3.833   4.075  2.0887  1.6133 -0.6572
 3121TIP3   OH2 9368   1.791   5.700   4.064 -0.2966  0.2985 -0.6561
 3121TIP3    H1 9369   1.878   5.705   4.103 -0.0178  0.1359 -1.2493
 3121TIP3    H2 9370   1.782   5.782   4.016  0.0589 -0.2514 -1.6801
 3122TIP3   OH2 9371   0.241   4.325   2.716 -0.4370 -0.0171 -0.1977
 3122TIP3    H1 9372   0.254   4.230   2.718 -1.6182 -0.1960 -0.0949
 3122TIP3    H2 9373   0.154   4.336   2.678 -1.1458  0.9421  1.5852
 3123TIP3   OH2 9374   5.895   0.337   3.503 -0.1434 -0.4074 -0.1246
 3123TIP3    H1 9375   5.885   0.283   3.424  1.9225 -1.4752  0.2887
 3123TIP3    H2 9376   5.981   0.379   3.493 -0.6715  0.9424  0.7137
 3124TIP3   OH2 9377   4.756   4.956   0.691 -0.1762 -0.3831  0.7673
 3124TIP3    H1 9378   4.722   5.045   0.692 -1.0480 -0.7050  1.8131
 3124TIP3    H2 9379   4.805   4.948   0.773  1.3285 -0.3649 -0.0870
 3125TIP3   OH2 9380   3.050   3.716   0.671 -0.1708  0.4947  0.3727
 3125TIP3    H1 9381   2.969   3.693   0.715 -1.0980  1.3730 -0.8116
 3125TIP3    H2 9382   3.095   3.775   0.731 -0.4453  0.0967  0.9762
 3126TIP3   OH2 9383   0.862   2.294   4.334 -0.7755  0.6358 -0.5212
 3126TIP3    H1 9384   0.901   2.207   4.320 -1.8485 -0.0637  0.6419
 3126TIP3    H2 9385   0.850   2.300   4.428 -0.0870  2.3581 -0.5123
 3127TIP3   OH2 9386   2.957   5.469   0.172  0.5748 -0.3908  0.0369
 3127TIP3    H1 9387   2.881   5.418   0.200 -0.8796  1.3420 -0.5377
 3127TIP3    H2 9388   2.963   5.540   0.236  1.9796 -0.7283  0.3048
 3128TIP3   OH2 9389   0.130   0.875   4.785 -0.3667  0.4773 -0.6737
 3128TIP3    H1 9390   0.112   0.832   4.701  2.3837 -0.0592 -1.0839
 3128TIP3    H2 9391   0.192   0.944   4.764  3.0000 -1.6959  1.1873
 3129TIP3   OH2 9392   5.867   3.749   4.652 -0.3432 -0.2118 -0.3750
 3129TIP3    H1 9393   5.961   3.768   4.648 -0.0933 -1.3258 -0.0376
 3129TIP3    H2 9394   5.830   3.797   4.577  0.4248  0.5797 -0.2571
 3130TIP3   OH2 9395   3.461   0.593   2.336  0.3706  0.0715 -0.3676
 3130TIP3    H1 9396   3.495   0.546   2.412 -0.3014  0.3026  0.0822
 3130TIP3    H2 9397   3.414   0.668   2.373 -0.0489  0.1333 -1.0086
 3131TIP3   OH2 9398   1.483   3.368   4.206  0.0833 -0.2788  0.0662
 3131TIP3    H1 9399   1.454   3.305   4.271  1.4429 -1.2478 -0.2161
 3131TIP3    H2 9400   1.497   3.317   4.126 -0.2929  0.6568 -0.6259
 3132TIP3   OH2 9401   0.443   0.393   2.485  0.1211  0.4144  0.0816
 3132TIP3    H1 9402   0.496   0.466   2.453 -0.0259  0.4429 -0.0945
 3132TIP3    H2 9403   0.452   0.398   2.581 -1.8916  2.1968  0.2370
 3133TIP3   OH2 9404   1.456   5.291   4.434  0.1052  0.1283 -0.1902
 3133TIP3    H1 9405   1.533   5.321   4.482  0.1672 -0.6909  0.2375
 3133TIP3    H2 9406   1.491   5.251   4.355  0.1847 -0.9041  0.3481
 3134TIP3   OH2 9407   3.014   5.778   4.676 -0.0124  0.2325 -0.4947
 3134TIP3    H1 9408   2.960   5.700   4.661 -1.5603  1.2548 -0.4866
 3134TIP3    H2 9409   3.082   5.773   4.609 -0.4892 -0.7805 -0.9301
 3135TIP3   OH2 9410   3.448   5.788   0.308 -0.1016  0.2169 -0.2058
 3135TIP3    H1 9411   3.389   5.716   0.330 -0.3372 -0.2696 -2.2421
 3135TIP3    H2 9412   3.427   5.857   0.371  1.4550 -2.0648  3.0952
 3136TIP3   OH2 9413   0.253   5.475   3.004 -0.5197  0.2415  0.0217
 3136TIP3    H1 9414   0.234   5.486   3.097  1.4807 -1.4530  0.7008
 3136TIP3    H2 9415   0.311   5.548   2.982 -0.0024 -0.0356  0.4428
 3137TIP3   OH2 9416   4.214   4.546   1.944 -0.1321  0.5629  0.3858
 3137TIP3    H1 9417   4.180   4.457   1.938 -0.8092  0.8334  0.0661
 3137TIP3    H2 9418   4.306   4.536   1.968  0.3482 -0.3242 -1.5983
 3138TIP3   OH2 9419   2.172   4.093   1.185 -0.2265  0.1861 -0.1050
 3138TIP3    H1 9420   2.244   4.031   1.169  0.9734  1.4228  0.3696
 3138TIP3    H2 9421   2.092   4.040   1.172  0.7472 -1.4110  0.1294
 3139TIP3   OH2 9422   2.462   1.584   2.843  0.5932 -0.5620 -0.4135
 3139TIP3    H1 9423   2.477   1.492   2.821  0.6153 -0.6247 -0.1415
 3139TIP3    H2 9424   2.550   1.621   2.850  0.6120 -0.7286  0.3387
 3140TIP3   OH2 9425   4.706   1.879   0.799 -0.2260 -0.1919 -0.0015
 3140TIP3    H1 9426   4.779   1.938   0.782  0.6249 -0.5360  2.0331
 3140TIP3    H2 9427   4.709   1.816   0.727 -0.3001  1.4011 -1.4593
 3141TIP3   OH2 9428   3.478   0.497   3.474 -0.9399  0.2891  0.2823
 3141TIP3    H1 9429   3.404   0.437   3.480 -0.5620 -0.2364 -0.1158
 3141TIP3    H2 9430   3.444   0.573   3.427 -1.8042  1.0351  2.0538
 3142TIP3   OH2 9431   4.922   3.786   3.973  0.0164 -0.2128  0.1376
 3142TIP3    H1 9432   4.988   3.842   3.934 -0.9228  1.1757  0.4791
 3142TIP3    H2 9433   4.860   3.768   3.902 -0.2570  0.0853  0.2972
 3143TIP3   OH2 9434   2.970   1.454   2.652  0.0325 -0.5783 -0.1767
 3143TIP3    H1 9435   2.979   1.368   2.692  1.2768 -0.8227 -0.9235
 3143TIP3    H2 9436   2.958   1.514   2.727 -0.3019 -1.3219  0.3747
 3144TIP3   OH2 9437   0.334   3.010   4.132  0.0158  0.6191  0.3814
 3144TIP3    H1 9438   0.347   3.003   4.037  0.6595 -0.1926  0.5175
 3144TIP3    H2 9439   0.402   2.955   4.170 -0.2834  0.8713  1.3207
 3145TIP3   OH2 9440   3.117   2.503   4.623 -0.6756 -0.1310 -0.1957
 3145TIP3    H1 9441   3.209   2.482   4.609 -0.7669  0.6460 -2.3829
 3145TIP3    H2 9442   3.096   2.464   4.708  2.2743  1.7671  1.6036
 3146TIP3   OH2 9443   4.199   0.327   3.654 -0.4349  0.3799  0.5257
 3146TIP3    H1 9444   4.290   0.299   3.659 -0.0700  1.6267  1.3144
 3146TIP3    H2 9445   4.200   0.402   3.595 -0.9798  0.3104  0.4201
 3147TIP3   OH2 9446   6.122   1.356   3.303 -0.8857 -0.5974 -0.2906
 3147TIP3    H1 9447   6.123   1.415   3.227  0.3395  1.4206  1.1912
 3147TIP3    H2 9448   6.030   1.331   3.312 -1.1949 -0.1669 -1.8883
 3148TIP3   OH2 9449   3.750   0.939   3.021 -0.7323  0.3159  0.4032
 3148TIP3    H1 9450   3.679   0.916   2.961 -2.1135  0.6778  1.8340
 3148TIP3    H2 9451   3.829   0.905   2.979 -1.7947 -0.4589 -1.0522
 3149TIP3   OH2 9452   0.026   3.705   1.290  0.1812  0.1692  0.1094
 3149TIP3    H1 9453   0.119   3.702   1.309  0.3682  1.6407 -0.4975
 3149TIP3    H2 9454  -0.002   3.613   1.292  1.9684 -0.4481 -1.3433
 3150TIP3   OH2 9455   0.731   3.860   2.723  0.5033 -0.2788  0.0658
 3150TIP3    H1 9456   0.704   3.808   2.647  1.5804  0.4289 -0.8405
 3150TIP3    H2 9457   0.770   3.797   2.783 -1.2724 -1.0028  0.5151
 3151TIP3   OH2 9458   2.671   5.215   4.026 -0.6226  0.1667 -0.2500
 3151TIP3    H1 9459   2.730   5.272   3.977 -1.7444  2.6982  1.1685
 3151TIP3    H2 9460   2.700   5.224   4.117 -0.7290 -1.7367  0.0138
 3152TIP3   OH2 9461   0.397   3.892   1.952  0.6976  0.7292  0.3480
 3152TIP3    H1 9462   0.348   3.958   1.905 -1.2816 -1.0901 -0.3121
 3152TIP3    H2 9463   0.489   3.917   1.941  0.1424  1.9622 -1.9676
 3153TIP3   OH2 9464   1.729   2.760   0.546 -0.2376  0.3961 -0.3722
 3153TIP3    H1 9465   1.667   2.699   0.586  0.4122 -0.7352 -1.0583
 3153TIP3    H2 9466   1.794   2.777   0.615 -0.3056  0.1476 -0.2482
 3154TIP3   OH2 9467   2.478   0.911   2.342  0.3826 -0.4527 -0.4686
 3154TIP3    H1 9468   2.440   0.979   2.287  0.5650 -0.0564 -0.1117
 3154TIP3    H2 9469   2.422   0.908   2.419  1.2650  0.3983  0.2343
 3155TIP3   OH2 9470   1.025   0.650   2.213 -0.0165 -0.0624 -0.4684
 3155TIP3    H1 9471   1.035   0.731   2.262  3.4920  0.4011 -1.6340
 3155TIP3    H2 9472   1.067   0.584   2.268 -1.2353 -0.7703 -0.3422
 3156TIP3   OH2 9473   2.490   1.999   1.015 -0.6311 -0.0832  0.2724
 3156TIP3    H1 9474   2.556   2.043   1.069 -2.2287  1.2388  1.2759
 3156TIP3    H2 9475   2.434   2.071   0.984  0.2131 -0.7661 -3.2653
 3157TIP3   OH2 9476   6.087   0.434   1.906 -0.1440 -0.1192 -0.2907
 3157TIP3    H1 9477   6.137   0.354   1.889  0.7033  0.2053  0.5799
 3157TIP3    H2 9478   6.150   0.495   1.944 -1.0490  0.5287  0.2385
 3158TIP3   OH2 9479   0.232   1.837   4.277 -0.3784 -0.2866  0.1918
 3158TIP3    H1 9480   0.278   1.757   4.302 -0.7419 -0.7660 -0.6238
 3158TIP3    H2 9481   0.281   1.872   4.203 -0.2394  0.2331  0.5235
 3159TIP3   OH2 9482   4.672   0.912   2.230  0.2516 -0.3120  0.3402
 3159TIP3    H1 9483   4.578   0.919   2.244 -0.0089  1.5157 -1.7203
 3159TIP3    H2 9484   4.684   0.829   2.184 -0.1071 -1.2589  1.8621
 3160TIP3   OH2 9485   5.536   5.394   1.552 -0.1575  0.9607 -0.1256
 3160TIP3    H1 9486   5.582   5.360   1.629 -1.1940 -0.8846 -0.2504
 3160TIP3    H2 9487   5.580   5.351   1.478  0.1589  1.9093 -0.4961
 3161TIP3   OH2 9488   0.972   4.760   2.058 -0.6649  0.0137  0.0917
 3161TIP3    H1 9489   0.971   4.680   2.112 -0.3495  1.4607  2.3602
 3161TIP3    H2 9490   0.889   4.757   2.011 -1.1176 -1.1657  0.9041
 3162TIP3   OH2 9491  -0.021   1.116   4.896  0.5963  0.0644 -0.5733
 3162TIP3    H1 9492   0.042   1.187   4.887 -0.7520  1.5086  0.8249
 3162TIP3    H2 9493   0.027   1.038   4.866  1.9856  1.5637 -2.5632
 3163TIP3   OH2 9494   1.152   5.904   3.424  0.3054 -0.1345 -0.6020
 3163TIP3    H1 9495   1.057   5.915   3.434  0.4297  0.1355  0.3816
 3163TIP3    H2 9496   1.177   5.849   3.498  1.1433  1.0631  0.0278
 3164TIP3   OH2 9497   2.122   0.870   4.552  0.3192  0.0906  0.3627
 3164TIP3    H1 9498   2.087   0.959   4.557 -0.1134 -0.0915  0.6640
 3164TIP3    H2 9499   2.164   0.865   4.466 -0.4786  0.2846 -0.0430
 3165TIP3   OH2 9500   1.613   1.126   1.943 -0.1259  0.0570  0.4772
 3165TIP3    H1 9501   1.608   1.194   1.877  1.0421 -0.6498 -0.3799
 3165TIP3    H2 9502   1.527   1.084   1.942 -0.3740  0.5723 -0.0135
 3166TIP3   OH2 9503   3.905   1.287   0.926 -0.5550 -0.3193  0.2324
 3166TIP3    H1 9504   3.891   1.321   0.838 -0.5556 -0.6359  0.1086
 3166TIP3    H2 9505   3.894   1.363   0.984 -0.8096 -0.1645 -0.0199
 3167TIP3   OH2 9506   0.776   1.977   3.503 -0.0739 -0.4090  0.6903
 3167TIP3    H1 9507   0.784   2.066   3.470 -3.9763 -0.2351 -0.3206
 3167TIP3    H2 9508   0.854   1.932   3.471  0.3158  1.8027 -1.7922
 3168TIP3   OH2 9509   4.810   1.444   4.630  0.4630  0.1665  0.0705
 3168TIP3    H1 9510   4.751   1.471   4.560  0.4732  0.6444  0.2372
 3168TIP3    H2 9511   4.798   1.350   4.637  1.2853 -0.0686 -1.3254
 3169TIP3   OH2 9512   2.874   0.209   1.075 -0.0014 -0.3008 -0.3892
 3169TIP3    H1 9513   2.892   0.156   1.152 -2.2166 -0.0868  0.3507
 3169TIP3    H2 9514   2.872   0.146   1.003 -0.1096 -0.8335  0.0729
 3170TIP3   OH2 9515   2.431   2.215   2.908 -0.8356  0.1094 -0.0103
 3170TIP3    H1 9516   2.514   2.197   2.953  1.2196  2.9608 -2.2501
 3170TIP3    H2 9517   2.442   2.178   2.820 -2.2975 -0.1766 -0.1023
 3171TIP3   OH2 9518   4.371   1.045   4.392  0.6721 -0.0964 -0.2027
 3171TIP3    H1 9519   4.288   1.037   4.439  0.7440 -1.1250 -0.2328
 3171TIP3    H2 9520   4.438   1.031   4.459  0.7790 -1.2264 -0.5233
 3172TIP3   OH2 9521   4.757   5.087   0.049 -0.0688 -0.6644  0.4977
 3172TIP3    H1 9522   4.679   5.070   0.103  0.2447  1.3658  1.6921
 3172TIP3    H2 9523   4.828   5.044   0.096 -0.0864 -0.4583  0.7140
 3173TIP3   OH2 9524   0.783   5.968   2.082 -0.1111 -0.2260 -0.2686
 3173TIP3    H1 9525   0.720   6.009   2.023 -1.3169  0.4793  1.4257
 3173TIP3    H2 9526   0.739   5.889   2.113  0.2321 -0.2446  0.1860
 3174TIP3   OH2 9527   1.005   1.829   2.542 -0.4399  0.0316  0.2766
 3174TIP3    H1 9528   0.993   1.751   2.487  0.8795 -1.1186  1.5088
 3174TIP3    H2 9529   0.937   1.821   2.608 -1.1468  0.6649 -0.3614
 3175TIP3   OH2 9530   1.601   3.253   4.481  0.1885  0.0035 -0.5696
 3175TIP3    H1 9531   1.613   3.237   4.574 -0.1880  0.2216 -0.4818
 3175TIP3    H2 9532   1.689   3.248   4.444  0.5676  1.5470  0.0532
 3176TIP3   OH2 9533   3.448   2.539   1.578 -0.1348 -0.2649  0.2445
 3176TIP3    H1 9534   3.456   2.449   1.610 -1.0699 -0.6728 -0.6283
 3176TIP3    H2 9535   3.375   2.575   1.626 -0.7741 -0.4937 -0.5365
 3177TIP3   OH2 9536   4.339   4.947  -0.015  0.3572 -0.6626 -0.0497
 3177TIP3    H1 9537   4.416   4.911   0.029  0.5906  0.7582  0.7843
 3177TIP3    H2 9538   4.265   4.920   0.040  0.5202  0.0180  0.5196
 3178TIP3   OH2 9539   3.022   4.299   1.243  0.0679 -0.3457  0.0294
 3178TIP3    H1 9540   3.013   4.217   1.194 -1.6867  0.9938 -2.0155
 3178TIP3    H2 9541   3.117   4.313   1.248  0.3380 -1.3614 -1.5855
 3179TIP3   OH2 9542   0.245   3.365   2.380 -0.4123  0.2528  0.0724
 3179TIP3    H1 9543   0.237   3.390   2.472 -0.4192 -0.6424  0.3207
 3179TIP3    H2 9544   0.299   3.434   2.341 -1.3136  1.2124  0.5020
 3180TIP3   OH2 9545   1.052   1.218   1.295  0.6065  0.5361 -0.0737
 3180TIP3    H1 9546   1.143   1.202   1.270  0.2460 -0.2707 -0.9056
 3180TIP3    H2 9547   1.000   1.168   1.232 -0.3498 -1.9150  2.4995
 3181TIP3   OH2 9548   1.580   0.832   3.676 -0.6890 -0.4228 -0.4410
 3181TIP3    H1 9549   1.534   0.751   3.701  0.4417 -0.8844  0.2047
 3181TIP3    H2 9550   1.590   0.825   3.581  2.7919 -3.0031 -0.0931
 3182TIP3   OH2 9551   3.576   3.111   1.784 -0.1480  0.8229  0.4255
 3182TIP3    H1 9552   3.630   3.155   1.718  1.5763  0.3435  1.4465
 3182TIP3    H2 9553   3.601   3.019   1.778 -0.4123  0.6787  1.3350
 3183TIP3   OH2 9554   4.606   1.231   2.610 -0.0567 -0.5302  0.3098
 3183TIP3    H1 9555   4.569   1.292   2.674  0.2168  1.6065 -1.4434
 3183TIP3    H2 9556   4.701   1.239   2.621  0.0875  1.5225 -1.6836
 3184TIP3   OH2 9557   5.780   3.381   3.091  0.0252  0.0110  0.4053
 3184TIP3    H1 9558   5.826   3.347   3.168 -2.2790 -1.9522  1.0311
 3184TIP3    H2 9559   5.697   3.334   3.090  0.2246 -0.6257 -3.7082
 3185TIP3   OH2 9560   5.684   2.968   3.820 -0.1222  0.4474  0.2347
 3185TIP3    H1 9561   5.687   2.877   3.851  1.6484  0.8934  1.5981
 3185TIP3    H2 9562   5.620   3.010   3.877 -0.0955  0.2884  0.3851
 3186TIP3   OH2 9563   3.604   3.550   1.805 -0.2309 -0.2413  0.5596
 3186TIP3    H1 9564   3.634   3.499   1.730 -0.1801 -0.3206  0.6347
 3186TIP3    H2 9565   3.674   3.542   1.869  1.2968  2.4841 -0.5845
 3187TIP3   OH2 9566   2.201   3.143   2.773  0.1769 -0.7752 -0.0112
 3187TIP3    H1 9567   2.261   3.216   2.785 -2.0571  1.1478  0.1791
 3187TIP3    H2 9568   2.201   3.128   2.678  1.7428 -1.5764  0.0823
 3188TIP3   OH2 9569   1.029   1.891   3.770 -0.2480  0.0651 -0.1357
 3188TIP3    H1 9570   1.076   1.969   3.738  0.1633  0.3703  1.1549
 3188TIP3    H2 9571   0.987   1.855   3.692 -2.6882  3.0688 -0.3773
 3189TIP3   OH2 9572   3.906   1.058   1.956  0.7463  0.2991  0.0672
 3189TIP3    H1 9573   3.952   0.996   1.900 -0.8674 -0.9182  0.0090
 3189TIP3    H2 9574   3.896   1.013   2.040  0.5378  0.9173  0.3813
 3190TIP3   OH2 9575   5.628   5.689   1.805 -0.5894 -0.3398 -0.0567
 3190TIP3    H1 9576   5.543   5.655   1.777 -0.5073 -1.2644  0.7549
 3190TIP3    H2 9577   5.609   5.778   1.837 -1.2603 -0.5666  0.1915
 3191TIP3   OH2 9578   4.612   3.426   0.946  0.2274 -0.2559 -0.2603
 3191TIP3    H1 9579   4.635   3.491   1.012 -1.1019  1.1213 -1.0825
 3191TIP3    H2 9580   4.643   3.343   0.982 -0.6516  0.3947  2.2039
 3192TIP3   OH2 9581   0.158   0.826   1.746 -0.0137 -0.2654 -0.1870
 3192TIP3    H1 9582   0.162   0.735   1.773 -0.0247 -0.5506 -1.1242
 3192TIP3    H2 9583   0.065   0.848   1.747 -0.0038 -0.2266  0.1330
 3193TIP3   OH2 9584   3.700   1.614   0.803  0.6864  0.7653 -0.1487
 3193TIP3    H1 9585   3.750   1.624   0.884 -0.4585  2.8881  0.3789
 3193TIP3    H2 9586   3.651   1.532   0.815  1.9683  0.0557  0.4460
 3194TIP3   OH2 9587   1.172   4.695   1.226  0.0082 -0.2901  0.0926
 3194TIP3    H1 9588   1.098   4.734   1.271  0.1663 -0.5515  0.5843
 3194TIP3    H2 9589   1.211   4.766   1.176  0.3053  0.1793  0.9878
 3195TIP3   OH2 9590   3.437   2.752   0.195 -0.2103 -0.1850 -0.1658
 3195TIP3    H1 9591   3.454   2.812   0.123 -0.5915  1.5621  1.1308
 3195TIP3    H2 9592   3.342   2.752   0.205 -0.1663 -0.4582  0.2942
 3196TIP3   OH2 9593   2.493   5.141   1.374  0.3295  0.1452 -0.4772
 3196TIP3    H1 9594   2.400   5.126   1.358  0.2692  0.7343 -0.6923
 3196TIP3    H2 9595   2.524   5.188   1.296  0.4450  1.3821  0.2846
 3197TIP3   OH2 9596   1.286   5.612   1.958 -0.1739  0.1881 -0.1360
 3197TIP3    H1 9597   1.310   5.556   1.885  0.6615  0.9781 -0.4809
 3197TIP3    H2 9598   1.345   5.587   2.029  0.9797  1.3628 -0.6377
 3198TIP3   OH2 9599   6.045   1.946   0.689  0.6143 -0.0173  0.2917
 3198TIP3    H1 9600   5.983   1.888   0.733  1.4845 -0.4692  0.9341
 3198TIP3    H2 9601   6.078   2.003   0.758  0.9808  0.1667 -0.0336
 3199TIP3   OH2 9602   5.497   3.728   0.155  0.4777 -0.5773  0.2966
 3199TIP3    H1 9603   5.517   3.681   0.074 -3.2594 -0.0582 -1.1491
 3199TIP3    H2 9604   5.491   3.819   0.129 -0.8860 -0.4129  1.0584
 3200TIP3   OH2 9605   6.145   3.732   4.711  0.0935 -0.5508 -0.5285
 3200TIP3    H1 9606   6.232   3.734   4.670  0.8447 -0.7640  0.9815
 3200TIP3    H2 9607   6.128   3.824   4.735  1.3317 -0.8824  1.9410
 3201TIP3   OH2 9608   0.574   5.579   5.113  0.2065  0.0143 -0.3406
 3201TIP3    H1 9609   0.513   5.546   5.178  1.0953 -0.5063  0.2396
 3201TIP3    H2 9610   0.655   5.532   5.130  0.1093 -1.1513 -2.6746
 3202TIP3   OH2 9611   0.116   2.739   3.108 -0.6586  0.6142  0.4227
 3202TIP3    H1 9612   0.025   2.711   3.118 -1.4178  2.3373 -1.1502
 3202TIP3    H2 9613   0.165   2.657   3.098 -2.1191 -0.3239  0.5809
 3203TIP3   OH2 9614   5.423   5.736   4.829 -0.3800  0.2133 -0.6895
 3203TIP3    H1 9615   5.457   5.647   4.838  0.3895  0.5731  0.1216
 3203TIP3    H2 9616   5.500   5.790   4.814 -0.6049  1.0047  0.8298
 3204TIP3   OH2 9617   2.626   4.148   2.090  0.0783  0.5167  0.3260
 3204TIP3    H1 9618   2.633   4.155   1.995  0.4820 -0.2773  0.2915
 3204TIP3    H2 9619   2.571   4.223   2.115 -1.7349 -0.3684 -0.7434
 3205TIP3   OH2 9620   0.847   0.174   3.418 -0.4134  0.3690 -0.0869
 3205TIP3    H1 9621   0.871   0.112   3.349 -0.0721  1.3543 -0.8788
 3205TIP3    H2 9622   0.836   0.120   3.496 -0.7990 -0.7741 -0.9064
 3206TIP3   OH2 9623   0.598   1.236   3.085 -0.0545 -0.7147 -0.0310
 3206TIP3    H1 9624   0.583   1.141   3.093 -0.3619 -0.6808 -0.1824
 3206TIP3    H2 9625   0.680   1.243   3.037  1.0445 -0.9163  1.7074
 3207TIP3   OH2 9626   4.854   2.541   0.871  0.3030 -0.1628  0.0236
 3207TIP3    H1 9627   4.911   2.476   0.832 -2.1647 -1.8287 -1.0937
 3207TIP3    H2 9628   4.842   2.607   0.803  1.6252  0.7477  0.6283
 3208TIP3   OH2 9629   6.075   2.576  -0.028  0.6845  0.5255  0.1932
 3208TIP3    H1 9630   6.144   2.613   0.027  0.9622  1.8482 -0.9816
 3208TIP3    H2 9631   6.060   2.488   0.007  1.8824  0.7918  1.4280
 3209TIP3   OH2 9632   0.783   5.429   5.176  0.0928  0.0153 -0.5706
 3209TIP3    H1 9633   0.863   5.442   5.226  0.3217 -0.0689 -0.9155
 3209TIP3    H2 9634   0.812   5.394   5.092 -0.2365  0.7727 -1.0123
 3210TIP3   OH2 9635   0.765   2.615   2.796  0.0916 -0.0893  0.3928
 3210TIP3    H1 9636   0.733   2.540   2.847 -0.4729 -0.4084 -0.4156
 3210TIP3    H2 9637   0.827   2.578   2.734  2.1767  0.5439  2.0092
 3211TIP3   OH2 9638   5.599   0.694   1.589 -0.4977 -0.3872  0.2625
 3211TIP3    H1 9639   5.516   0.663   1.552 -1.0753  2.6061 -1.2582
 3211TIP3    H2 9640   5.663   0.679   1.520 -0.3118 -0.2894  0.4151
 3212TIP3   OH2 9641   2.973   2.725   1.299  0.5185  0.0959 -0.8624
 3212TIP3    H1 9642   3.019   2.654   1.254  0.1290  1.0904 -2.9371
 3212TIP3    H2 9643   2.894   2.684   1.333  0.4681 -0.5591 -1.7205
 3213TIP3   OH2 9644   5.310   5.282   3.744  0.1956 -0.5924 -0.0796
 3213TIP3    H1 9645   5.296   5.221   3.817  1.6821 -0.4972  0.3130
 3213TIP3    H2 9646   5.395   5.258   3.708  0.5934  0.9380 -0.2368
 3214TIP3   OH2 9647   0.618   2.680   3.518  0.0868  0.2381  0.1680
 3214TIP3    H1 9648   0.625   2.645   3.608  0.8731 -0.1288 -0.0236
 3214TIP3    H2 9649   0.529   2.659   3.491  0.1845 -0.6223  0.4811
 3215TIP3   OH2 9650   3.192   5.447   4.829 -0.5623  0.0250  0.1127
 3215TIP3    H1 9651   3.197   5.490   4.744 -0.5781  0.6254  0.4146
 3215TIP3    H2 9652   3.271   5.474   4.874 -0.8970  0.2702  0.5559
 3216TIP3   OH2 9653   4.426   2.390   0.289 -0.8369 -0.1884  0.9968
 3216TIP3    H1 9654   4.368   2.405   0.214 -0.6051  0.4410  0.9444
 3216TIP3    H2 9655   4.418   2.469   0.342 -0.1628 -0.1804  1.0869
 3217TIP3   OH2 9656   1.885   3.227   0.026  0.0401 -0.1454  0.2771
 3217TIP3    H1 9657   1.972   3.241   0.063  0.1586  1.6390 -0.5539
 3217TIP3    H2 9658   1.828   3.212   0.102  0.4944  2.1311  1.1503
 3218TIP3   OH2 9659   4.689   0.828   0.541  0.0109 -0.1100 -0.2150
 3218TIP3    H1 9660   4.651   0.908   0.505  0.6623  0.1006 -0.4475
 3218TIP3    H2 9661   4.613   0.778   0.574 -0.3014  1.2316  1.2553
 3219TIP3   OH2 9662   3.273   5.053   0.731  0.2499  0.1278 -0.0652
 3219TIP3    H1 9663   3.322   5.123   0.774  2.2281 -2.1917  1.7671
 3219TIP3    H2 9664   3.191   5.047   0.780 -0.2058  1.4358 -0.6028
 3220TIP3   OH2 9665   3.643   5.522   3.849 -0.3288 -0.3408  0.1389
 3220TIP3    H1 9666   3.613   5.543   3.938 -0.2492 -0.5957  0.2267
 3220TIP3    H2 9667   3.720   5.467   3.862 -0.9562 -1.2942 -0.0827
 3221TIP3   OH2 9668   4.076   0.648   3.814  0.0983 -0.0732 -0.6366
 3221TIP3    H1 9669   4.169   0.645   3.790 -0.0862 -0.1068 -1.3579
 3221TIP3    H2 9670   4.032   0.680   3.736 -0.4133  0.7678 -0.0149
 3222TIP3   OH2 9671   3.243   5.458   4.530  0.2095  0.5314 -0.2990
 3222TIP3    H1 9672   3.181   5.386   4.516  0.3190 -0.0635  1.8771
 3222TIP3    H2 9673   3.199   5.534   4.492 -1.2864 -0.1272  0.0023
 3223TIP3   OH2 9674   5.235   5.048   1.995 -0.3148  0.4054  0.0125
 3223TIP3    H1 9675   5.194   5.122   1.951  0.8410  0.2871 -1.3392
 3223TIP3    H2 9676   5.294   5.011   1.929  0.2184 -0.8257  1.1371
 3224TIP3   OH2 9677   2.388   4.120   4.175  0.1153 -0.3102  0.1458
 3224TIP3    H1 9678   2.465   4.112   4.118  0.1688  2.3952 -0.3196
 3224TIP3    H2 9679   2.413   4.074   4.255  1.5359 -0.9547 -0.6237
 3225TIP3   OH2 9680   4.146   1.147   0.681  0.1562  0.2844  0.2395
 3225TIP3    H1 9681   4.210   1.083   0.648  0.0637 -0.5742  1.6528
 3225TIP3    H2 9682   4.062   1.100   0.677  0.0219  0.4696  0.8927
 3226TIP3   OH2 9683   0.487   0.783   4.694 -0.4833 -0.2259  0.0793
 3226TIP3    H1 9684   0.451   0.709   4.743  0.3976 -2.5699 -2.5520
 3226TIP3    H2 9685   0.581   0.781   4.713 -0.2699 -0.6061 -0.9701
 3227TIP3   OH2 9686   2.789   0.006   3.162 -0.0408 -0.3935 -1.1467
 3227TIP3    H1 9687   2.841   0.078   3.196  2.6544 -3.2892  1.5869
 3227TIP3    H2 9688   2.717  -0.004   3.224  0.7743 -1.2462 -0.3058
 3228TIP3   OH2 9689   4.912   5.698   1.254 -0.3627  0.0262 -0.1721
 3228TIP3    H1 9690   4.993   5.662   1.219  1.1545  2.3231  0.7642
 3228TIP3    H2 9691   4.922   5.692   1.349 -1.5430 -0.1630 -0.0436
 3229TIP3   OH2 9692   0.168   4.883   4.441  0.3728  0.6233  0.0308
 3229TIP3    H1 9693   0.225   4.868   4.517  3.0779 -0.7402 -2.0724
 3229TIP3    H2 9694   0.102   4.814   4.448  0.0933  1.0076  1.5316
 3230TIP3   OH2 9695   0.678   0.955   2.687  0.0051  0.1830  0.2293
 3230TIP3    H1 9696   0.604   0.997   2.642  0.4514  1.2922  0.4963
 3230TIP3    H2 9697   0.725   0.909   2.618 -0.8348 -0.4019  0.0265
 3231TIP3   OH2 9698   0.921   4.918   0.038 -0.0727  0.3886 -0.1671
 3231TIP3    H1 9699   0.917   4.858  -0.037 -0.9638  0.0027  0.1769
 3231TIP3    H2 9700   0.906   5.004   0.001  0.7915  0.3535 -0.6102
 3232TIP3   OH2 9701   4.706   2.380   2.353  0.3164 -0.5617  0.3288
 3232TIP3    H1 9702   4.619   2.411   2.379 -0.1540 -0.0305 -1.7026
 3232TIP3    H2 9703   4.767   2.428   2.409 -0.6033  0.7626  0.2296
 3233TIP3   OH2 9704   3.498   0.104   3.429  0.2496  0.2322 -0.4188
 3233TIP3    H1 9705   3.418   0.053   3.412  0.4941 -0.5600  0.7249
 3233TIP3    H2 9706   3.467   0.186   3.466 -0.0341 -0.0629 -0.0014
 3234TIP3   OH2 9707   3.273   5.061   4.863 -0.2384 -0.0263 -0.3795
 3234TIP3    H1 9708   3.334   5.013   4.918 -0.4145 -0.5928 -0.6698
 3234TIP3    H2 9709   3.300   5.153   4.871 -0.0713 -0.1356  0.3969
 3235TIP3   OH2 9710   4.429   4.323   5.074 -0.2247 -0.1081 -0.3401
 3235TIP3    H1 9711   4.354   4.292   5.125 -0.3595 -0.9136 -1.0156
 3235TIP3    H2 9712   4.417   4.418   5.069 -0.8166 -0.1549  0.1642
 3236TIP3   OH2 9713   5.796   4.845   3.018 -0.0335  0.4162  0.3747
 3236TIP3    H1 9714   5.862   4.781   2.993 -0.3805 -0.3942  1.4364
 3236TIP3    H2 9715   5.831   4.887   3.097  0.6648  2.3160 -0.8666
 3237TIP3   OH2 9716   5.608   4.593   0.650  0.4901 -0.3885 -0.9682
 3237TIP3    H1 9717   5.514   4.589   0.667  0.7500 -0.1238  0.6573
 3237TIP3    H2 9718   5.617   4.660   0.582 -0.4517 -0.1019 -0.8279
 3238TIP3   OH2 9719   1.742   3.474   0.149  0.2776  0.6180 -0.2205
 3238TIP3    H1 9720   1.743   3.379   0.161  0.4175  0.7543  1.0226
 3238TIP3    H2 9721   1.667   3.504   0.200  1.3975  1.3349  1.1049
 3239TIP3   OH2 9722   1.565   3.652   4.743  0.0934  0.0964  0.3755
 3239TIP3    H1 9723   1.621   3.582   4.709 -0.7053 -0.5714  0.3901
 3239TIP3    H2 9724   1.625   3.713   4.786  1.1991  1.1348 -2.4404
 3240TIP3   OH2 9725   2.489   1.994   3.607  0.0922 -0.4853  0.0764
 3240TIP3    H1 9726   2.567   1.998   3.552 -0.7331 -0.9754 -1.2045
 3240TIP3    H2 9727   2.426   1.944   3.554 -0.1903 -2.5729  2.1991
 3241TIP3   OH2 9728   3.850   0.120   3.128  0.2921 -0.4232 -0.3320
 3241TIP3    H1 9729   3.838   0.055   3.059  1.3133 -2.3045  1.1491
 3241TIP3    H2 9730   3.925   0.172   3.098  0.3420 -0.8205 -0.9198
 3242TIP3   OH2 9731   5.094   5.763   5.166  0.0241  0.4362 -0.0584
 3242TIP3    H1 9732   5.186   5.766   5.194  0.1188  0.4853 -0.3715
 3242TIP3    H2 9733   5.076   5.851   5.133 -0.1416  0.4324  0.0220
 3243TIP3   OH2 9734   2.857   5.466   3.622 -0.2264 -0.2692 -0.2510
 3243TIP3    H1 9735   2.842   5.379   3.587  1.2828 -0.3551 -0.7420
 3243TIP3    H2 9736   2.864   5.522   3.545  0.0483  0.0727  0.0198
 3244TIP3   OH2 9737   5.858   5.766   3.571  0.5464 -0.1576 -0.3904
 3244TIP3    H1 9738   5.763   5.765   3.561  0.3623  1.7285  0.6891
 3244TIP3    H2 9739   5.890   5.817   3.497  0.6661 -0.3590 -0.4773
 3245TIP3   OH2 9740   5.576   1.242   3.522 -0.1389  0.1533  0.1363
 3245TIP3    H1 9741   5.486   1.251   3.552  0.2897 -0.7907  1.8070
 3245TIP3    H2 9742   5.628   1.287   3.588  0.6099  1.1901 -1.1111
 3246TIP3   OH2 9743   2.210   1.252   1.585  0.5737  0.5734  0.5002
 3246TIP3    H1 9744   2.196   1.164   1.550  0.4248  1.5002 -2.0042
 3246TIP3    H2 9745   2.216   1.240   1.680 -3.3117 -1.6685  0.6764
 3247TIP3   OH2 9746   5.866   3.171   1.663 -0.6249 -0.1362  0.1241
 3247TIP3    H1 9747   5.813   3.208   1.593  0.1836 -0.7824 -0.8702
 3247TIP3    H2 9748   5.829   3.084   1.677  0.6669 -0.9541 -1.2129
 3248TIP3   OH2 9749   3.314   0.932   2.699 -0.7233  0.1775 -0.1939
 3248TIP3    H1 9750   3.243   0.921   2.762  0.3016  2.0069  1.3937
 3248TIP3    H2 9751   3.316   1.026   2.680  0.8582  0.0887 -0.6863
 3249TIP3   OH2 9752   1.454   4.778   0.689  0.6595  0.1586  0.7104
 3249TIP3    H1 9753   1.416   4.859   0.722  0.0902  0.1050  0.1920
 3249TIP3    H2 9754   1.401   4.755   0.613  1.2795 -0.3018  0.4029
 3250TIP3   OH2 9755   4.688   1.805   4.846 -0.0171 -0.0701 -0.1189
 3250TIP3    H1 9756   4.747   1.740   4.808  0.4170 -0.9835  1.9435
 3250TIP3    H2 9757   4.601   1.772   4.827  0.1962 -1.4911  1.1532
 3251TIP3   OH2 9758   1.960   4.803   0.198  0.1341  0.4544  0.0509
 3251TIP3    H1 9759   1.956   4.778   0.106 -2.4244 -1.3181  0.5230
 3251TIP3    H2 9760   1.870   4.826   0.221  0.1244 -1.6575  2.6593
 3252TIP3   OH2 9761   5.190   2.642   1.313 -0.4969 -0.1639  0.5331
 3252TIP3    H1 9762   5.162   2.553   1.294 -1.3056  0.3372 -0.6867
 3252TIP3    H2 9763   5.263   2.658   1.253 -2.0489  0.8719 -1.1966
 3253TIP3   OH2 9764   0.083   5.429   3.547  0.0998  0.0871  0.2828
 3253TIP3    H1 9765   0.141   5.424   3.471  0.6178 -0.1547  0.6922
 3253TIP3    H2 9766   0.125   5.492   3.605  0.8864 -1.3721  1.3595
 3254TIP3   OH2 9767   4.337   1.510   4.525  0.4710  0.3070  0.5448
 3254TIP3    H1 9768   4.263   1.452   4.507  0.3598  0.5187  0.3046
 3254TIP3    H2 9769   4.297   1.596   4.536  0.5490  0.2203  1.6551
 3255TIP3   OH2 9770   4.898   2.952   4.260 -0.7746 -0.0078 -0.1983
 3255TIP3    H1 9771   4.845   3.022   4.297 -1.2296 -0.4048 -0.0778
 3255TIP3    H2 9772   4.988   2.983   4.266 -0.8196 -0.1272  1.3809
 3256TIP3   OH2 9773   1.478   1.373   0.205  0.3945 -0.6546 -0.1234
 3256TIP3    H1 9774   1.454   1.436   0.137  1.1850  0.6569  0.7818
 3256TIP3    H2 9775   1.552   1.413   0.251  0.2085 -1.7339  1.1873
 3257TIP3   OH2 9776   2.425   0.573   4.728  0.5007  0.0211  0.6429
 3257TIP3    H1 9777   2.383   0.580   4.814 -0.4275 -1.2790  0.3212
 3257TIP3    H2 9778   2.475   0.654   4.720 -0.8838  1.0253  1.6263
 3258TIP3   OH2 9779   2.731   0.302   0.419 -0.3655 -0.1730  0.5833
 3258TIP3    H1 9780   2.651   0.324   0.467 -0.5056 -0.4849  0.4994
 3258TIP3    H2 9781   2.751   0.212   0.447  0.5092  0.2525  1.3546
 3259TIP3   OH2 9782   3.849   2.933   1.075  0.1599  0.4797 -0.2466
 3259TIP3    H1 9783   3.826   2.895   1.160 -1.4433 -0.3773 -1.0220
 3259TIP3    H2 9784   3.936   2.971   1.089  0.4817 -0.7492  1.4230
 3260TIP3   OH2 9785   4.365   2.841   1.084 -0.1992 -0.1343 -0.7237
 3260TIP3    H1 9786   4.322   2.896   1.018 -1.5926  2.1266  1.8579
 3260TIP3    H2 9787   4.293   2.791   1.123  0.2637  0.0767  0.4217
 3261TIP3   OH2 9788   6.220   5.443   2.206 -0.2807  0.2373 -0.2779
 3261TIP3    H1 9789   6.206   5.453   2.112 -1.3844  1.4190 -0.0157
 3261TIP3    H2 9790   6.313   5.464   2.218 -0.1384  0.1111 -1.1010
 3262TIP3   OH2 9791   0.855   5.166   0.875  0.4809 -0.9171  0.2851
 3262TIP3    H1 9792   0.806   5.219   0.813 -1.0406 -1.5843  0.8547
 3262TIP3    H2 9793   0.833   5.204   0.961  2.4974 -0.0408  0.4736
 3263TIP3   OH2 9794   3.274   0.981   0.794 -0.0855 -0.7775  0.3283
 3263TIP3    H1 9795   3.206   0.932   0.749  0.0463  1.2065 -2.2529
 3263TIP3    H2 9796   3.356   0.945   0.759  0.0131  1.0803 -1.5801
 3264TIP3   OH2 9797   2.763   2.995   0.066 -0.7731 -0.3845  0.2721
 3264TIP3    H1 9798   2.805   3.081   0.066 -0.7145 -0.3909 -0.9120
 3264TIP3    H2 9799   2.709   2.996  -0.014  0.3843 -1.9882 -0.5719
 3265TIP3   OH2 9800   0.580   4.779   4.732 -0.0847  0.0740  0.1934
 3265TIP3    H1 9801   0.641   4.800   4.803  1.0809  0.3292 -0.8383
 3265TIP3    H2 9802   0.574   4.860   4.681 -1.3831  0.0788  0.3191
 3266TIP3   OH2 9803   0.344   5.577   3.812 -0.4386 -0.0640  0.5623
 3266TIP3    H1 9804   0.254   5.547   3.828 -0.4534 -0.1271  0.3729
 3266TIP3    H2 9805   0.334   5.669   3.786 -0.5885 -0.4617 -0.8737
 3267TIP3   OH2 9806   4.611   5.890   0.817  0.2376 -0.1917  0.5951
 3267TIP3    H1 9807   4.644   5.979   0.828  1.4746 -0.5042 -0.3526
 3267TIP3    H2 9808   4.569   5.892   0.730  3.4793 -1.3897 -1.1462
 3268TIP3   OH2 9809   3.010   4.701   4.099 -0.0832 -0.6091  0.4137
 3268TIP3    H1 9810   2.947   4.696   4.026 -0.7598  2.0233  0.6833
 3268TIP3    H2 9811   3.003   4.616   4.142  0.0616 -2.1452 -2.3154
 3269TIP3   OH2 9812   0.226   4.407   0.365 -0.0602 -0.0505 -0.0585
 3269TIP3    H1 9813   0.304   4.424   0.313 -0.3538  0.1680 -0.4367
 3269TIP3    H2 9814   0.207   4.491   0.408  1.3982 -0.7431  2.1198
 3270TIP3   OH2 9815   5.886   0.276   2.991  0.3639  0.2656  0.3865
 3270TIP3    H1 9816   5.980   0.292   3.003  0.5717 -1.4257  1.2800
 3270TIP3    H2 9817   5.881   0.192   2.946 -0.7186 -0.7269  2.2416
 3271TIP3   OH2 9818   2.090   2.896   0.992 -0.5777  0.1451  0.0335
 3271TIP3    H1 9819   2.071   2.925   1.081 -1.9226  0.1715 -0.2395
 3271TIP3    H2 9820   2.004   2.879   0.953  0.0491 -1.6193 -0.6858
 3272TIP3   OH2 9821   0.046   1.023   2.172 -0.1228  0.1459 -0.0925
 3272TIP3    H1 9822   0.095   1.082   2.114  0.2121 -0.6458 -0.6378
 3272TIP3    H2 9823   0.065   1.055   2.260 -0.5630  1.3207 -0.3965
 3273TIP3   OH2 9824   2.390   3.654   3.030  0.1741  0.0571  0.1205
 3273TIP3    H1 9825   2.310   3.706   3.023  0.7683  0.8279 -1.3808
 3273TIP3    H2 9826   2.383   3.591   2.958  0.5362 -0.4111  0.4934
 3274TIP3   OH2 9827   4.460   5.111   4.470  0.2331 -0.3564  0.8958
 3274TIP3    H1 9828   4.555   5.121   4.483  0.3869 -0.7953  0.1723
 3274TIP3    H2 9829   4.432   5.195   4.433  0.4113 -0.3674  0.7339
 3275TIP3   OH2 9830   5.013   4.734   3.840  0.0693  0.4283 -0.1719
 3275TIP3    H1 9831   5.002   4.699   3.751 -0.2421  1.7868 -0.7002
 3275TIP3    H2 9832   4.944   4.691   3.891  0.1915 -0.2978 -0.6101
 3276TIP3   OH2 9833   4.091   4.452   3.207 -0.0022 -0.3052 -0.2607
 3276TIP3    H1 9834   4.059   4.517   3.269 -0.0122 -0.5001 -0.0601
 3276TIP3    H2 9835   4.083   4.494   3.122  0.4911  0.1554 -0.0842
 3277TIP3   OH2 9836   4.908   3.876   2.478  0.5160  0.3664  0.0956
 3277TIP3    H1 9837   4.884   3.819   2.405  0.0979 -0.0530  0.5529
 3277TIP3    H2 9838   4.910   3.964   2.440 -2.0744  0.4893  0.0638
 3278TIP3   OH2 9839   5.337   0.038   4.128  0.1652  0.1725 -0.2094
 3278TIP3    H1 9840   5.359  -0.001   4.043 -0.0938 -0.3847 -0.0263
 3278TIP3    H2 9841   5.384   0.122   4.129 -2.7208  2.0089 -2.4941
 3279TIP3   OH2 9842   3.215   0.292   1.310  0.2176 -0.2041  0.1388
 3279TIP3    H1 9843   3.182   0.337   1.233 -0.1622  0.6303  0.7755
 3279TIP3    H2 9844   3.225   0.201   1.282  0.8949  0.2394 -1.1352
 3280TIP3   OH2 9845   3.359   4.445   0.758  1.0207  0.1878  0.3234
 3280TIP3    H1 9846   3.381   4.409   0.844 -0.4394  0.0654  0.6812
 3280TIP3    H2 9847   3.419   4.402   0.698  1.1702 -0.7516  1.1104
 3281TIP3   OH2 9848   2.970   4.556   5.025 -0.3216  0.7572  0.4591
 3281TIP3    H1 9849   2.987   4.505   5.105  0.3808 -0.8807 -0.6859
 3281TIP3    H2 9850   3.005   4.643   5.045  0.4798  0.1842  1.6837
 3282TIP3   OH2 9851   3.469   1.529   3.911 -0.6441  0.0336  0.3917
 3282TIP3    H1 9852   3.458   1.608   3.965  2.9858  2.2565 -1.6761
 3282TIP3    H2 9853   3.558   1.499   3.931 -0.8786 -1.7851 -1.0652
 3283TIP3   OH2 9854   4.453   3.174   1.776 -0.1698  0.0456 -0.1469
 3283TIP3    H1 9855   4.406   3.162   1.694 -0.7475  2.1083 -0.1580
 3283TIP3    H2 9856   4.389   3.213   1.835  0.7082  0.1392  0.7742
 3284TIP3   OH2 9857   2.119   2.239   4.772  0.1583 -0.0710  0.0057
 3284TIP3    H1 9858   2.107   2.333   4.761 -1.5653 -0.2085  0.4301
 3284TIP3    H2 9859   2.214   2.227   4.774  0.4543  1.9146  1.9056
 3285TIP3   OH2 9860   1.946   1.640   4.144  0.2867  0.1709 -0.6316
 3285TIP3    H1 9861   1.973   1.610   4.057 -0.7177 -0.1313 -0.8419
 3285TIP3    H2 9862   2.003   1.715   4.161  1.1897 -0.3801 -1.1084
 3286TIP3   OH2 9863   0.661   5.050   5.060  0.2006 -0.3173 -0.0441
 3286TIP3    H1 9864   0.643   5.017   5.148 -1.1082 -2.1370 -0.9196
 3286TIP3    H2 9865   0.717   4.983   5.020  2.3129  1.3704 -0.0512
 3287TIP3   OH2 9866   3.782   5.503   2.227  0.2372 -0.0322 -0.4816
 3287TIP3    H1 9867   3.845   5.431   2.219 -0.5210 -0.6186 -1.5181
 3287TIP3    H2 9868   3.824   5.565   2.286  0.4625 -1.8181  1.3720
 3288TIP3   OH2 9869   3.659   0.490   0.556  0.2951 -0.7103  0.2100
 3288TIP3    H1 9870   3.676   0.506   0.463  0.3015  1.9052  0.5829
 3288TIP3    H2 9871   3.571   0.524   0.571 -0.4488 -2.7713  0.8451
 3289TIP3   OH2 9872   3.036   5.560   1.789 -1.2332 -0.1606 -0.3900
 3289TIP3    H1 9873   3.046   5.485   1.729 -0.4931 -0.1358 -0.3106
 3289TIP3    H2 9874   2.946   5.554   1.820 -1.1485 -1.0935 -0.2923
 3290TIP3   OH2 9875   2.586   4.698   4.953  0.1998 -0.0865 -0.0025
 3290TIP3    H1 9876   2.646   4.681   4.880 -0.4169 -1.4316 -0.2354
 3290TIP3    H2 9877   2.620   4.645   5.025  1.2228  1.7934  0.9704
 3291TIP3   OH2 9878   2.195   3.127   0.514  0.2864 -0.4825  0.2409
 3291TIP3    H1 9879   2.221   3.219   0.507  2.3918 -1.0354  0.0464
 3291TIP3    H2 9880   2.221   3.089   0.430 -1.9400 -0.9847 -0.2818
 3292TIP3   OH2 9881   4.355   4.003   4.831  0.2356  0.1094  0.6722
 3292TIP3    H1 9882   4.263   4.005   4.856 -0.4297 -0.4762 -1.4799
 3292TIP3    H2 9883   4.397   3.947   4.896 -0.8214  0.7518  1.9408
 3293TIP3   OH2 9884   1.951   5.340   3.086  0.0680  0.2610  0.1736
 3293TIP3    H1 9885   1.896   5.417   3.070  0.0429 -0.0295 -1.3133
 3293TIP3    H2 9886   1.891   5.272   3.114 -0.6634 -0.4616 -2.7383
 3294TIP3   OH2 9887   5.483   2.913   0.720 -0.5620  0.6384  0.0251
 3294TIP3    H1 9888   5.492   2.818   0.728 -2.1937  0.3727 -0.9287
 3294TIP3    H2 9889   5.530   2.935   0.640 -1.0189  0.4817 -0.2908
 3295TIP3   OH2 9890   5.395   5.435   1.971  0.2473  0.3382  0.8520
 3295TIP3    H1 9891   5.388   5.521   1.930  2.4128  0.6025  0.8855
 3295TIP3    H2 9892   5.485   5.408   1.951 -0.6858 -2.3886 -0.0354
 3296TIP3   OH2 9893   6.046   1.086   2.677  0.3566 -0.1268 -0.0865
 3296TIP3    H1 9894   6.035   1.148   2.749  0.5462  0.9574 -0.9527
 3296TIP3    H2 9895   5.999   1.008   2.705  1.4696 -0.2040  1.7422
 3297TIP3   OH2 9896   3.004   0.653   2.125 -0.3542  0.2586 -0.1570
 3297TIP3    H1 9897   2.950   0.593   2.177 -1.1305  0.6347 -0.5024
 3297TIP3    H2 9898   2.977   0.740   2.154 -1.4290  0.5088 -1.7434
 3298TIP3   OH2 9899   5.979   1.239   2.449 -0.0836  0.3059  0.1949
 3298TIP3    H1 9900   6.018   1.178   2.512 -0.8731 -1.1969 -0.7236
 3298TIP3    H2 9901   5.927   1.298   2.503 -1.6018 -1.5939  0.9317
 3299TIP3   OH2 9902   4.351   5.670   3.988 -0.3222 -0.1648 -0.1107
 3299TIP3    H1 9903   4.422   5.704   3.933  0.4266  0.1513  1.0199
 3299TIP3    H2 9904   4.395   5.639   4.067 -1.6066  1.9461  1.5428
 3300TIP3   OH2 9905   3.710   1.239   2.444 -0.2424 -0.2687  0.2643
 3300TIP3    H1 9906   3.798   1.209   2.422  0.3802  1.0059  0.9090
 3300TIP3    H2 9907   3.664   1.243   2.360 -0.1604 -2.3068  0.0724
 3301TIP3   OH2 9908   5.357   5.544   2.304 -0.0199  0.0707 -0.3124
 3301TIP3    H1 9909   5.450   5.523   2.296 -0.2775 -1.4646  0.4074
 3301TIP3    H2 9910   5.319   5.516   2.221 -0.2977 -2.1383  0.4993
 3302TIP3   OH2 9911   5.802   5.035   4.074 -0.4679  0.1228 -0.2852
 3302TIP3    H1 9912   5.802   5.120   4.116 -0.5833  0.2492 -0.5381
 3302TIP3    H2 9913   5.895   5.013   4.065 -0.4207  0.4722 -0.7122
 3303TIP3   OH2 9914   2.920   4.434   2.424 -0.2446  0.2473 -0.2778
 3303TIP3    H1 9915   2.836   4.472   2.448  0.1884  1.4872 -0.6492
 3303TIP3    H2 9916   2.898   4.367   2.359 -1.0249 -0.1751  0.4033
 3304TIP3   OH2 9917   0.442   3.259   4.200  0.0188  0.2175  0.1409
 3304TIP3    H1 9918   0.399   3.175   4.188  2.3400 -0.8087 -2.0787
 3304TIP3    H2 9919   0.409   3.313   4.128  0.2455  0.4068  0.1780
 3305TIP3   OH2 9920   2.586   3.068   3.816  0.3305  0.5096  0.2035
 3305TIP3    H1 9921   2.608   2.976   3.804  1.2802  0.7059  0.3504
 3305TIP3    H2 9922   2.507   3.081   3.763  1.0395 -0.0433 -1.0337
 3306TIP3   OH2 9923   0.682   2.496   2.228 -0.6466  0.1176 -0.0216
 3306TIP3    H1 9924   0.769   2.459   2.210  0.5123  0.7711  3.3285
 3306TIP3    H2 9925   0.648   2.522   2.143  1.8199 -1.4756 -1.6232
 3307TIP3   OH2 9926   1.688   5.320   4.794 -0.0183  0.3177 -0.1516
 3307TIP3    H1 9927   1.690   5.405   4.752 -0.2419 -0.1489 -1.1330
 3307TIP3    H2 9928   1.673   5.339   4.887 -2.1053  1.2631 -0.6269
 3308TIP3   OH2 9929   3.234   5.469   1.370  0.0445  0.5282  0.3658
 3308TIP3    H1 9930   3.292   5.501   1.440  0.9822  0.8452 -0.5385
 3308TIP3    H2 9931   3.213   5.379   1.396  1.5491  0.1510  0.3468
 3309TIP3   OH2 9932   6.259   4.408   4.441  0.9694 -0.1292 -0.4461
 3309TIP3    H1 9933   6.267   4.334   4.380 -1.6544 -0.5228 -0.4300
 3309TIP3    H2 9934   6.166   4.430   4.439  1.3308  1.7695  1.2311
 3310TIP3   OH2 9935   6.300   3.906   2.188  0.4493 -0.4760 -0.2970
 3310TIP3    H1 9936   6.358   3.965   2.236  1.1101 -0.2525 -1.3304
 3310TIP3    H2 9937   6.244   3.867   2.255  0.9019  0.3138  0.5622
 3311TIP3   OH2 9938   0.400   3.259   1.456  0.0877  0.5502  0.1053
 3311TIP3    H1 9939   0.440   3.210   1.384  1.0405  2.6828 -0.9003
 3311TIP3    H2 9940   0.312   3.280   1.424 -0.4768 -0.7721  0.7072
 3312TIP3   OH2 9941   3.144   0.487   2.445  0.2930  0.0026  0.2381
 3312TIP3    H1 9942   3.194   0.546   2.389  1.1192  0.1446  1.0977
 3312TIP3    H2 9943   3.210   0.441   2.498 -0.4470 -0.2072  1.0144
 3313TIP3   OH2 9944   4.810   5.976   1.206 -0.1313  0.0312 -0.2100
 3313TIP3    H1 9945   4.860   5.942   1.281 -0.0046  0.6890  0.0073
 3313TIP3    H2 9946   4.745   5.908   1.188  0.5189 -0.6082 -0.1774
 3314TIP3   OH2 9947   2.180   1.624   0.522 -0.0253 -1.0241 -0.2324
 3314TIP3    H1 9948   2.273   1.627   0.547 -0.1720 -0.4163  0.2567
 3314TIP3    H2 9949   2.139   1.692   0.575 -0.8197 -1.5452 -0.1757
 3315TIP3   OH2 9950   0.772   4.898   3.440 -0.1472 -0.5692 -0.4227
 3315TIP3    H1 9951   0.811   4.837   3.502 -1.7241 -1.5347 -0.3408
 3315TIP3    H2 9952   0.839   4.908   3.371  1.7610  0.7816  1.5045
 3316TIP3   OH2 9953   3.315   4.818   1.173  0.1095 -0.3750 -0.0069
 3316TIP3    H1 9954   3.368   4.820   1.253 -0.0432 -1.7002  0.1385
 3316TIP3    H2 9955   3.357   4.753   1.118 -1.9719 -2.3557  0.5801
 3317TIP3   OH2 9956   3.585   3.796   3.756  0.2968 -0.1326  0.0922
 3317TIP3    H1 9957   3.652   3.822   3.820 -1.2465 -0.2086  1.8410
 3317TIP3    H2 9958   3.588   3.864   3.689  1.6443  0.2231  0.4817
 3318TIP3   OH2 9959   3.757   2.262   0.263  0.1480  0.2709  0.0617
 3318TIP3    H1 9960   3.739   2.184   0.315  1.1614  0.2666  0.4237
 3318TIP3    H2 9961   3.810   2.318   0.319  1.3640  0.2184 -0.9756
 3319TIP3   OH2 9962   0.646   4.697   5.162  0.2964  0.6205 -0.5737
 3319TIP3    H1 9963   0.607   4.635   5.101  0.6384  0.9929 -1.1901
 3319TIP3    H2 9964   0.740   4.679   5.157  0.1635 -1.6414  2.3996
 3320TIP3   OH2 9965   6.178   5.057   3.585  0.3125  0.6068  0.3756
 3320TIP3    H1 9966   6.204   5.149   3.578 -0.7067  0.8571 -0.3624
 3320TIP3    H2 9967   6.083   5.059   3.597  0.0200 -0.3643 -1.3483
 3321TIP3   OH2 9968   5.894   3.694   2.896  0.6363  0.2043 -0.0239
 3321TIP3    H1 9969   5.944   3.639   2.957  1.7515  1.7699  0.5614
 3321TIP3    H2 9970   5.940   3.685   2.813  0.9781  0.4233  0.1358
 3322TIP3   OH2 9971   1.868   3.929   3.775 -0.1480 -0.4619 -0.1958
 3322TIP3    H1 9972   1.960   3.906   3.789  0.3353  1.5805  0.3070
 3322TIP3    H2 9973   1.867   3.973   3.690 -0.4352  0.5083  0.2939
 3323TIP3   OH2 9974   5.492   3.947   4.660  0.0580  0.4097 -0.4843
 3323TIP3    H1 9975   5.496   3.851   4.655 -0.4342  0.2354  1.5496
 3323TIP3    H2 9976   5.584   3.975   4.657  0.2397 -0.1744 -0.4821
 3324TIP3   OH2 9977   6.298   4.723   0.550  0.0455 -0.1905 -0.1418
 3324TIP3    H1 9978   6.315   4.655   0.615 -0.8360 -0.7414 -0.4676
 3324TIP3    H2 9979   6.223   4.771   0.586  0.3010  0.2500 -0.1917
 3325TIP3   OH2 9980   1.443   3.323   0.137  0.5576 -0.0778 -0.5265
 3325TIP3    H1 9981   1.394   3.328   0.220  0.7367 -0.0609 -0.4217
 3325TIP3    H2 9982   1.386   3.273   0.079 -0.0314  0.7933 -0.7164
 3326TIP3   OH2 9983   2.309   2.791   3.323  0.3846  0.0483  0.1313
 3326TIP3    H1 9984   2.383   2.850   3.333  0.2605  0.2022  0.1428
 3326TIP3    H2 9985   2.309   2.768   3.229  0.1529  0.4338  0.0356
 3327TIP3   OH2 9986   1.502   2.270   1.776 -0.6111 -0.5699 -0.5232
 3327TIP3    H1 9987   1.462   2.316   1.702 -2.2944 -2.2068 -0.7326
 3327TIP3    H2 9988   1.430   2.218   1.813  1.0072 -2.4855  0.0928
 3328TIP3   OH2 9989   0.266   3.792   0.797  0.7678 -0.1117 -0.2893
 3328TIP3    H1 9990   0.360   3.807   0.792  0.9036 -1.0311 -0.7139
 3328TIP3    H2 9991   0.254   3.702   0.766 -0.5144  0.7983 -2.6995
 3329TIP3   OH2 9992   2.236   2.643   0.934  0.1015  0.7218  0.3313
 3329TIP3    H1 9993   2.184   2.585   0.988 -1.6931  2.3657  0.4833
 3329TIP3    H2 9994   2.176   2.714   0.911  1.6479  1.5435 -1.4050
 3330TIP3   OH2 9995   4.846   4.956   0.949  0.4645  0.6648 -1.0713
 3330TIP3    H1 9996   4.829   4.878   1.002  0.2297  0.9324 -0.7471
 3330TIP3    H2 9997   4.940   4.952   0.932  0.2431 -0.3870 -2.1783
 3331TIP3   OH2 9998   2.616   1.768   0.944 -0.1427 -0.0741 -0.6504
 3331TIP3    H1 9999   2.593   1.710   1.017 -1.2375  0.0877 -0.8431
 3331TIP3    H210000   2.570   1.850   0.964  1.3356  0.7253 -0.4153
 3332TIP3   OH210001   1.506   3.216   4.925  0.1282  0.6827  0.4933
 3332TIP3    H110002   1.437   3.250   4.982  1.1598  1.8598  1.0933
 3332TIP3    H210003   1.489   3.257   4.840  0.4159  1.4557  0.7958
 3333TIP3   OH210004   1.279   4.008   4.500  0.2314 -0.4737 -0.2922
 3333TIP3    H110005   1.238   3.996   4.586  2.2376 -1.3528  0.6094
 3333TIP3    H210006   1.276   3.921   4.460 -0.0812 -0.2152 -0.8361
 3334TIP3   OH210007   2.806   0.468   2.069 -0.1536  0.1037  0.1486
 3334TIP3    H110008   2.770   0.535   2.011  2.3813 -0.3956 -2.1896
 3334TIP3    H210009   2.845   0.403   2.010  1.0559 -1.3544  2.3937
 3335TIP3   OH210010   3.628   3.051   1.411 -0.2438 -0.3344 -0.3087
 3335TIP3    H110011   3.585   2.978   1.456  0.8116 -0.4242  0.6119
 3335TIP3    H210012   3.718   3.021   1.398 -0.5316 -0.3590 -2.6633
 3336TIP3   OH210013   3.176   3.849   2.928  0.4600 -0.3506  0.4715
 3336TIP3    H110014   3.112   3.817   2.865 -0.6890  0.0720  1.3972
 3336TIP3    H210015   3.260   3.840   2.883 -0.0569 -2.4287 -0.1656
 3337TIP3   OH210016   0.816   4.249   3.531  0.2042  0.0840  0.5477
 3337TIP3    H110017   0.776   4.308   3.595 -0.2052  0.4589 -0.0446
 3337TIP3    H210018   0.801   4.291   3.447  2.2355  0.4559  0.3239
 3338TIP3   OH210019   6.247   1.099   3.711 -0.8652  0.3370 -0.6325
 3338TIP3    H110020   6.226   1.073   3.621 -0.6872 -0.2843 -0.4995
 3338TIP3    H210021   6.195   1.040   3.766  0.0492 -0.1822 -0.3161
 3339TIP3   OH210022   3.580   4.552   1.976  0.0643  0.0423  0.4765
 3339TIP3    H110023   3.620   4.585   2.057 -0.0507  2.1025 -0.2607
 3339TIP3    H210024   3.628   4.596   1.906 -2.9369  2.1136 -0.4694
 3340TIP3   OH210025   5.084   0.503   4.400  0.2113  0.3380 -0.7757
 3340TIP3    H110026   5.041   0.461   4.475  1.1081  0.9964  0.1228
 3340TIP3    H210027   5.015   0.508   4.333 -0.1216 -1.9341 -0.6902
 3341TIP3   OH210028   1.506   5.301   5.092  0.0300  0.1027 -0.3407
 3341TIP3    H110029   1.601   5.295   5.089 -0.0083 -0.1575 -1.2892
 3341TIP3    H210030   1.476   5.247   5.018 -0.8397  0.4333 -0.2399
 3342TIP3   OH210031   2.676   2.706   2.467  0.0163 -0.2262 -0.2217
 3342TIP3    H110032   2.654   2.623   2.424  2.1759 -0.8506 -0.2121
 3342TIP3    H210033   2.767   2.696   2.493  0.2199  2.0333  0.0997
 3343TIP3   OH210034   0.326   4.277   0.573  0.4327 -0.2208 -0.1985
 3343TIP3    H110035   0.255   4.288   0.636  1.3439  0.0628  0.7955
 3343TIP3    H210036   0.284   4.291   0.488 -0.6283  0.2794  0.3843
 3344TIP3   OH210037   6.219   0.730   0.772  0.1548 -0.1886  0.1217
 3344TIP3    H110038   6.156   0.705   0.705  0.7112 -0.9381 -0.1317
 3344TIP3    H210039   6.244   0.820   0.749 -1.5910  0.5398  0.8421
 3345TIP3   OH210040   6.271   4.195   0.981 -0.4627 -0.2102 -0.7035
 3345TIP3    H110041   6.222   4.116   0.957  1.1777 -1.6237  0.3292
 3345TIP3    H210042   6.224   4.230   1.057 -0.5824 -0.8565 -0.4687
 3346TIP3   OH210043   3.601   1.923   1.506 -0.3293 -0.2918 -0.5995
 3346TIP3    H110044   3.609   1.962   1.418  0.6246  1.0487  0.0520
 3346TIP3    H210045   3.515   1.950   1.536  0.7266  2.3583  0.2758
 3347TIP3   OH210046   1.237   3.502   3.739  0.4407  0.4710 -0.4468
 3347TIP3    H110047   1.187   3.545   3.808  0.8204  2.2956 -1.2553
 3347TIP3    H210048   1.195   3.529   3.658  1.4608  0.3297 -1.0464
 3348TIP3   OH210049   0.258   2.222   4.889  0.1431  0.3131 -0.4088
 3348TIP3    H110050   0.320   2.293   4.872  1.9769 -1.4252 -1.4605
 3348TIP3    H210051   0.306   2.143   4.865 -2.0191 -1.2507  0.1574
 3349TIP3   OH210052   5.316   2.833   2.516 -0.3833  0.6732  0.2233
 3349TIP3    H110053   5.286   2.848   2.606 -1.7634 -0.0224 -0.1012
 3349TIP3    H210054   5.272   2.753   2.488  0.8266  0.3071 -0.7422
 3350TIP3   OH210055   3.673   0.333   4.583 -0.4648  0.2406 -0.7844
 3350TIP3    H110056   3.766   0.334   4.606 -0.3804 -3.6515 -0.2682
 3350TIP3    H210057   3.639   0.256   4.628 -4.0444  1.6517 -0.8055
 3351TIP3   OH210058   2.734   0.463   4.817 -0.3603 -0.0276 -0.2168
 3351TIP3    H110059   2.793   0.410   4.763 -0.1952  0.3908 -0.4495
 3351TIP3    H210060   2.647   0.450   4.777 -0.6931 -1.7319  0.9348
 3352TIP3   OH210061   5.615   5.636   3.488  0.0703 -0.3992  0.2900
 3352TIP3    H110062   5.695   5.595   3.455  0.7187  0.3367  0.8912
 3352TIP3    H210063   5.561   5.563   3.518 -0.3870 -1.0683 -1.9818
 3353TIP3   OH210064   1.570   5.198   2.967  0.1017 -0.1970 -0.0874
 3353TIP3    H110065   1.594   5.134   3.035 -1.9082 -1.5142 -0.5342
 3353TIP3    H210066   1.478   5.218   2.985 -0.3906 -0.3612 -2.2685
 3354TIP3   OH210067   4.291   2.586   3.157 -0.3317  0.6558  0.2931
 3354TIP3    H110068   4.315   2.664   3.206 -0.6980  1.7636 -1.1862
 3354TIP3    H210069   4.368   2.530   3.161  0.3442  1.5706  0.4863
 3355TIP3   OH210070   5.021   2.240   2.252  0.1049  0.2406  0.0566
 3355TIP3    H110071   4.960   2.282   2.191  1.4527  0.7084 -1.0303
 3355TIP3    H210072   4.974   2.163   2.284 -1.3760  1.0605 -0.0611
 3356TIP3   OH210073   0.962   2.134   2.559 -0.0191  0.5965  0.2612
 3356TIP3    H110074   1.036   2.180   2.599  0.4133  1.4808 -1.4491
 3356TIP3    H210075   0.997   2.102   2.476 -0.9099 -1.0651  0.4919
 3357TIP3   OH210076   3.176   2.447   1.498  0.0873  0.0398  0.4269
 3357TIP3    H110077   3.140   2.494   1.423  0.6004  0.0405  0.1780
 3357TIP3    H210078   3.269   2.439   1.479 -0.1247 -1.9278 -0.0224
 3358TIP3   OH210079   2.787   1.206   4.466  0.0982  0.7834 -0.0469
 3358TIP3    H110080   2.792   1.127   4.520 -1.7278  1.1667  0.7513
 3358TIP3    H210081   2.860   1.198   4.405  1.1809 -0.5148  1.3522
 3359TIP3   OH210082   2.800   5.317   0.609 -0.6984  0.1034  0.5344
 3359TIP3    H110083   2.889   5.351   0.608 -0.2412 -1.0738  0.4600
 3359TIP3    H210084   2.746   5.391   0.581  0.4437  0.2947 -1.3243
 3360TIP3   OH210085   1.789   3.874   0.263  0.0560 -0.1119  0.7209
 3360TIP3    H110086   1.701   3.900   0.238 -0.1789  0.1951  1.8187
 3360TIP3    H210087   1.830   3.955   0.295  1.3426  0.1358 -1.3724
 3361TIP3   OH210088   3.794   3.607   4.397  0.5082 -0.4651  0.0375
 3361TIP3    H110089   3.768   3.611   4.305  1.1172  0.1001 -0.1109
 3361TIP3    H210090   3.738   3.671   4.440  0.5852 -0.3554 -0.0253
 3362TIP3   OH210091   5.220   1.225   3.218  0.0219  0.0479 -0.1880
 3362TIP3    H110092   5.299   1.264   3.256  0.9371 -0.5009 -1.4493
 3362TIP3    H210093   5.204   1.147   3.272  2.0570 -1.4462 -1.5709
 3363TIP3   OH210094   2.360   4.529   4.701  0.0495 -0.4184  0.4694
 3363TIP3    H110095   2.301   4.458   4.676  0.0997 -0.1335 -0.4805
 3363TIP3    H210096   2.306   4.584   4.759 -0.0821 -1.0570  0.9628
 3364TIP3   OH210097   2.058   1.100   5.166 -0.1661  0.1671 -0.0876
 3364TIP3    H110098   2.149   1.118   5.146  0.6616 -3.3438 -0.0357
 3364TIP3    H210099   2.010   1.127   5.088  0.9098  1.6595 -0.2701
 3365TIP3   OH210100   5.073   2.465   5.100 -0.2280 -0.0901 -0.2761
 3365TIP3    H110101   5.147   2.524   5.110  0.2463 -0.2436 -2.3932
 3365TIP3    H210102   5.020   2.505   5.031 -0.0066 -1.9783 -1.6169
 3366TIP3   OH210103   1.750   4.769   4.997 -0.1179 -0.2051 -0.3354
 3366TIP3    H110104   1.711   4.756   4.910 -1.0719  0.6102 -0.0470
 3366TIP3    H210105   1.833   4.813   4.979 -0.1597 -0.3229 -0.8521
 3367TIP3   OH210106   1.717   3.496   1.854 -0.0197  0.0819  0.5712
 3367TIP3    H110107   1.715   3.421   1.913  0.0441  0.1839  0.7013
 3367TIP3    H210108   1.638   3.547   1.877 -0.3410 -0.2125  0.1375
 3368TIP3   OH210109   4.883   4.910   1.298  0.7001  0.6581 -0.1277
 3368TIP3    H110110   4.920   4.995   1.274  0.0922  0.8108 -0.5537
 3368TIP3    H210111   4.959   4.852   1.305  1.3134  1.6150  1.8883
 3369TIP3   OH210112   6.138   4.009   4.629 -0.1437 -0.0170  0.8914
 3369TIP3    H110113   6.212   4.067   4.647  2.0070 -2.5216  0.7650
 3369TIP3    H210114   6.121   4.021   4.536  0.3211  0.3767  0.8499
 3370TIP3   OH210115   0.454   2.702   1.233  0.5034  0.1014 -0.1492
 3370TIP3    H110116   0.416   2.624   1.192  0.8010  0.1846 -0.5933
 3370TIP3    H210117   0.535   2.671   1.273 -0.7118 -0.3871  2.0757
 3371TIP3   OH210118   1.085   1.528   1.269  0.2426 -0.0368 -0.0223
 3371TIP3    H110119   1.080   1.434   1.283  0.6415  0.0763  0.9904
 3371TIP3    H210120   1.167   1.541   1.222 -0.1929 -0.2558 -0.8629
 3372TIP3   OH210121   4.809   5.563   2.538 -0.0289 -0.0711 -0.3327
 3372TIP3    H110122   4.798   5.656   2.555  0.7459  0.1762 -1.1084
 3372TIP3    H210123   4.800   5.555   2.443  0.2395 -0.7308 -0.3073
 3373TIP3   OH210124   1.030   3.508   0.444 -0.4386 -0.2939 -0.3221
 3373TIP3    H110125   1.077   3.589   0.462  0.2772 -0.4261 -1.4947
 3373TIP3    H210126   1.007   3.473   0.531  2.2502 -0.5830  0.3506
 3374TIP3   OH210127   0.177   5.702   2.210  0.2627  0.0685  0.3574
 3374TIP3    H110128   0.170   5.698   2.305  1.5078 -0.3397  0.4403
 3374TIP3    H210129   0.214   5.788   2.192  0.6366 -0.1066  0.2826
 3375TIP3   OH210130   4.946   3.921   4.227 -0.8080  0.2506  0.7586
 3375TIP3    H110131   5.027   3.880   4.258 -1.7561 -1.2931  1.3209
 3375TIP3    H210132   4.937   3.891   4.136 -0.5234  0.7835  0.5540
 3376TIP3   OH210133   6.045   3.236   2.573 -0.1856  0.0558 -0.1425
 3376TIP3    H110134   6.032   3.163   2.633  0.7878 -0.6949 -0.8144
 3376TIP3    H210135   6.097   3.200   2.502  1.4018  1.6824  0.1071
 3377TIP3   OH210136   2.207   4.430   0.020  0.3401  0.3289 -0.5435
 3377TIP3    H110137   2.202   4.477  -0.063 -0.2199  1.2354 -0.0133
 3377TIP3    H210138   2.250   4.492   0.080 -2.5973  1.2291  0.8392
 3378TIP3   OH210139   1.074   2.527   1.257 -0.0075 -0.1074 -0.4902
 3378TIP3    H110140   1.107   2.533   1.347  0.2673 -0.1623 -0.5861
 3378TIP3    H210141   1.010   2.455   1.260 -2.5456  2.0368  0.4262
 3379TIP3   OH210142   1.620   2.010   1.576 -0.0027 -0.3971  0.3357
 3379TIP3    H110143   1.645   1.997   1.667  0.6187 -2.6163 -0.0983
 3379TIP3    H210144   1.527   2.031   1.579  0.5960  2.6161  1.6261
 3380TIP3   OH210145   4.986   1.016   4.637 -0.1094  0.1562  0.1104
 3380TIP3    H110146   4.915   1.030   4.575 -0.1865 -0.1858  0.1176
 3380TIP3    H210147   4.948   0.962   4.707  0.0228  0.3906  0.3677
 3381TIP3   OH210148   0.083   0.466   1.235  0.6169  0.8784  0.5862
 3381TIP3    H110149   0.078   0.380   1.277 -0.9562  0.3870 -0.4964
 3381TIP3    H210150  -0.006   0.501   1.241  0.4973  1.1097 -1.5955
 3382TIP3   OH210151   4.790   6.007   0.038 -0.3543  0.0088 -0.3092
 3382TIP3    H110152   4.762   5.919   0.065 -0.8480 -0.1554 -1.3192
 3382TIP3    H210153   4.881   5.995   0.011 -0.4409 -0.2105 -0.5131
 3383TIP3   OH210154   5.212   1.994   4.038  0.1891  0.7051  0.3636
 3383TIP3    H110155   5.223   1.914   4.089 -0.1614  0.0312 -0.5939
 3383TIP3    H210156   5.301   2.021   4.017  0.2801 -0.4881 -0.8945
 3384TIP3   OH210157   3.615   5.579   1.007 -0.3544  0.0971 -0.4115
 3384TIP3    H110158   3.680   5.512   1.028 -0.5751  0.3517  1.1717
 3384TIP3    H210159   3.542   5.561   1.066 -0.4988  1.6124 -0.0879
 3385TIP3   OH210160   3.659   4.140   2.260 -0.6229  0.1463 -0.1612
 3385TIP3    H110161   3.702   4.137   2.175 -0.2242  0.9658  0.0022
 3385TIP3    H210162   3.710   4.204   2.311  0.3317 -1.6887  1.3314
 3386TIP3   OH210163   4.899   0.928   4.107 -0.0112 -0.2190 -0.0168
 3386TIP3    H110164   4.956   0.982   4.052  2.0152  0.4395  2.5372
 3386TIP3    H210165   4.866   0.988   4.174 -1.7356 -1.1560  0.0385
 3387TIP3   OH210166   2.717   1.412   0.661 -0.9443 -0.3972 -0.1811
 3387TIP3    H110167   2.711   1.322   0.630 -2.6975 -0.5396  0.4207
 3387TIP3    H210168   2.702   1.406   0.756  1.9627  0.2460  0.4058
 3388TIP3   OH210169   3.842   4.627   1.276 -0.1275 -0.0161  0.2953
 3388TIP3    H110170   3.928   4.653   1.244 -0.2796  0.9934  0.6614
 3388TIP3    H210171   3.840   4.532   1.266  1.9990 -0.3881  2.5905
 3389TIP3   OH210172   2.078   1.445   2.081  0.4841 -0.1330 -0.2600
 3389TIP3    H110173   2.113   1.443   2.170 -0.8845  0.7361  0.3233
 3389TIP3    H210174   2.096   1.533   2.050  1.0289 -0.4555 -0.8952
 3390TIP3   OH210175   3.519   5.169   1.880 -0.1878 -0.0461  0.3172
 3390TIP3    H110176   3.487   5.079   1.881  2.4425 -1.0608  0.0087
 3390TIP3    H210177   3.564   5.178   1.796  0.9991  1.0136  1.0343
 3391TIP3   OH210178   3.983   2.363   4.567  0.2381  0.1151 -0.2292
 3391TIP3    H110179   3.960   2.413   4.645  0.2724 -1.0851  0.5922
 3391TIP3    H210180   4.033   2.423   4.513  1.2510  0.6474  1.2321
 3392TIP3   OH210181   4.491   0.765   0.765 -0.3756 -0.2797  0.0962
 3392TIP3    H110182   4.480   0.837   0.826 -1.8383 -0.7414  0.4295
 3392TIP3    H210183   4.491   0.687   0.820  2.4651 -0.5219 -0.1280
 3393TIP3   OH210184   0.374   2.492   4.861 -0.5970  0.2290 -0.7148
 3393TIP3    H110185   0.390   2.473   4.769 -0.4847  1.4871 -0.9822
 3393TIP3    H210186   0.459   2.518   4.896 -0.9136  1.3169 -0.6875
 3394TIP3   OH210187   0.246   0.949   2.418  0.0835  0.0449 -0.1211
 3394TIP3    H110188   0.206   0.874   2.374 -0.5975  0.0735  0.4250
 3394TIP3    H210189   0.191   0.963   2.495 -0.5926  1.9374 -0.9078
 3395TIP3   OH210190   4.955   2.876   5.051 -0.2385 -0.0492 -0.3843
 3395TIP3    H110191   4.897   2.828   5.110  0.8152  0.1221  0.8443
 3395TIP3    H210192   4.903   2.950   5.020 -0.3656  0.7187  1.5461
 3396TIP3   OH210193   2.242   3.825   2.028 -0.4373  0.0107 -0.8141
 3396TIP3    H110194   2.318   3.870   2.064 -0.6879  1.3688 -1.8911
 3396TIP3    H210195   2.186   3.809   2.103  0.9590 -1.1630  0.0245
 3397TIP3   OH210196   2.723   0.392   3.139 -0.2282  0.1652 -0.8126
 3397TIP3    H110197   2.656   0.337   3.179  0.1667 -0.5663 -1.1268
 3397TIP3    H210198   2.690   0.411   3.051  0.1515 -0.5376 -1.1143
 3398TIP3   OH210199   3.672   2.779   1.979 -0.2542 -0.0184 -0.2250
 3398TIP3    H110200   3.623   2.856   2.006 -0.2194  0.5935 -1.8328
 3398TIP3    H210201   3.631   2.750   1.898 -0.0495 -1.4995  0.1569
 3399TIP3   OH210202   2.902   3.693   2.058  0.3681  0.0326  0.5842
 3399TIP3    H110203   2.991   3.690   2.092  0.0569  0.6258  1.4730
 3399TIP3    H210204   2.854   3.627   2.109 -0.3653  1.6895  2.1481
 3400TIP3   OH210205   4.558   2.334   4.036  0.2807 -0.0437 -0.4313
 3400TIP3    H110206   4.536   2.332   3.943 -1.0903  0.3037 -0.1377
 3400TIP3    H210207   4.533   2.247   4.069  1.6445 -0.4990 -0.5606
 3401TIP3   OH210208   5.397   0.198   4.465 -0.8275 -0.3424 -0.2616
 3401TIP3    H110209   5.406   0.286   4.429 -1.1119 -0.4981 -0.7273
 3401TIP3    H210210   5.334   0.155   4.407  0.8131 -1.5046 -1.2657
 3402TIP3   OH210211   3.797   1.217   2.930 -0.0274 -0.4544 -0.6688
 3402TIP3    H110212   3.871   1.184   2.980 -1.1400  0.9431  2.1011
 3402TIP3    H210213   3.742   1.140   2.914  0.6602 -1.0318 -0.2800
 3403TIP3   OH210214   3.804   3.137   0.222  0.8348 -1.0879 -0.0918
 3403TIP3    H110215   3.823   3.105   0.133  1.4896 -0.5273 -0.1627
 3403TIP3    H210216   3.849   3.075   0.279  1.2427 -0.8860 -0.1910
 3404TIP3   OH210217   1.759   4.056   0.509 -0.6721  0.2514 -0.2865
 3404TIP3    H110218   1.668   4.066   0.536 -0.6969  1.5238 -0.8065
 3404TIP3    H210219   1.773   4.122   0.442  0.7733  0.4065  0.1232
 3405TIP3   OH210220   5.266   4.634   4.004  0.2886 -0.2585  0.0159
 3405TIP3    H110221   5.261   4.548   3.963 -1.4809 -0.6062  0.8631
 3405TIP3    H210222   5.196   4.685   3.962  0.0937  0.1617  0.8253
 3406TIP3   OH210223   3.197   3.440   0.949 -0.3340 -0.2367 -0.2013
 3406TIP3    H110224   3.219   3.369   1.009 -0.1594  0.3095  0.3954
 3406TIP3    H210225   3.151   3.504   1.004 -0.9202 -0.0997 -0.8320
 3407TIP3   OH210226   1.008   6.001   1.660 -0.2923 -0.1307  0.0942
 3407TIP3    H110227   0.989   5.966   1.747 -1.8269 -1.2401 -0.6381
 3407TIP3    H210228   0.967   5.939   1.600  1.7083 -0.0318 -1.4959
 3408TIP3   OH210229   3.861   3.273   2.343 -0.0319  0.3211  0.7915
 3408TIP3    H110230   3.910   3.282   2.261 -0.3769 -2.0396  0.2504
 3408TIP3    H210231   3.808   3.353   2.348  0.1616  0.6242 -1.1893
 3409TIP3   OH210232   2.405   4.687   1.908 -0.2124  0.0533  0.6247
 3409TIP3    H110233   2.393   4.593   1.921 -1.8215 -0.0963 -1.3861
 3409TIP3    H210234   2.487   4.707   1.953  1.2279 -2.7129 -0.4887
 3410TIP3   OH210235   5.263   2.604   4.498  0.6147  0.3661  0.4839
 3410TIP3    H110236   5.333   2.659   4.464  1.3870 -0.6019  0.4463
 3410TIP3    H210237   5.184   2.634   4.453  0.9317  1.7117  0.7920
 3411TIP3   OH210238   2.390   4.219   3.699 -0.3454 -0.3182  0.2101
 3411TIP3    H110239   2.445   4.272   3.641 -0.1663  0.4483  1.0607
 3411TIP3    H210240   2.369   4.277   3.772 -0.9524 -1.1224  0.6914
 3412TIP3   OH210241   4.012   3.302   2.114 -0.5612  0.8080 -0.1765
 3412TIP3    H110242   4.066   3.378   2.136  0.9577 -0.3119  0.1594
 3412TIP3    H210243   4.058   3.261   2.041 -1.0919 -0.0529 -0.0368
 3413TIP3   OH210244   5.529   5.784   4.255  0.3377  0.0744  0.0573
 3413TIP3    H110245   5.622   5.763   4.251  0.2340 -0.7397  1.5298
 3413TIP3    H210246   5.524   5.876   4.227  1.6060  0.1990  0.1884
 3414TIP3   OH210247   1.635   3.878   4.223  0.1548 -1.5303 -0.6713
 3414TIP3    H110248   1.730   3.886   4.225  0.1373 -1.0344 -1.5395
 3414TIP3    H210249   1.610   3.907   4.136 -0.9428  0.1419  0.1422
 3415TIP3   OH210250   6.156   3.488   0.387  0.2410  1.0293  0.1409
 3415TIP3    H110251   6.127   3.483   0.477 -1.6245  0.4448 -0.4511
 3415TIP3    H210252   6.075   3.494   0.335  1.2822  3.5965 -1.3832
 3416TIP3   OH210253   1.225   1.419   4.806  0.0675 -0.1631 -0.2203
 3416TIP3    H110254   1.203   1.406   4.899 -1.3069  0.3560 -0.4406
 3416TIP3    H210255   1.194   1.339   4.763  1.9956 -1.0439 -0.0832
 3417TIP3   OH210256   1.895   0.390   0.852 -0.7989  0.2694  0.3912
 3417TIP3    H110257   1.921   0.351   0.769  2.2797  0.0942  1.3112
 3417TIP3    H210258   1.866   0.316   0.905 -1.0685  0.1356  0.0605
 3418TIP3   OH210259   4.881   3.569   5.040 -0.7455  0.3879  0.3028
 3418TIP3    H110260   4.949   3.631   5.013  0.7361 -0.8252  1.1148
 3418TIP3    H210261   4.816   3.624   5.084  0.9231  1.3357  1.7457
 3419TIP3   OH210262   3.457   4.660   0.984  0.2427 -0.2196  0.8145
 3419TIP3    H110263   3.489   4.571   0.969  0.6424  0.1560 -0.6971
 3419TIP3    H210264   3.410   4.683   0.904  0.3532  1.0257  1.0883
 3420TIP3   OH210265   2.878   2.010   1.841 -0.2491  0.8400 -0.1962
 3420TIP3    H110266   2.911   1.935   1.891  0.2861  0.9629 -0.3630
 3420TIP3    H210267   2.950   2.073   1.843  0.3356  0.3017 -2.2980
 3421TIP3   OH210268   2.491   3.885   4.517  0.2729 -0.0789 -0.0106
 3421TIP3    H110269   2.443   3.829   4.455  0.3947 -0.2252  0.0243
 3421TIP3    H210270   2.582   3.857   4.508  0.2554 -0.2832  0.4255
 3422TIP3   OH210271   4.230   0.692   2.997 -0.9576  0.7604  0.4745
 3422TIP3    H110272   4.253   0.602   2.972 -0.9482  1.6176 -3.0790
 3422TIP3    H210273   4.312   0.730   3.029 -0.3434  0.2126 -0.4047
 3423TIP3   OH210274   2.150   4.160   3.349  1.0393 -0.3844  0.4151
 3423TIP3    H110275   2.129   4.173   3.256 -1.7653 -1.2867  0.8112
 3423TIP3    H210276   2.175   4.246   3.380  2.3705 -0.1236 -1.2353
 3424TIP3   OH210277   4.028   2.041   0.092  0.2001 -0.7684  0.1404
 3424TIP3    H110278   4.050   2.026   0.184 -0.3439  1.1804  0.6157
 3424TIP3    H210279   4.081   2.115   0.065 -1.6177  0.4459 -0.3020
 3425TIP3   OH210280   5.731   5.399   4.831  0.6941  0.0691 -0.3151
 3425TIP3    H110281   5.683   5.479   4.810  0.2336 -0.4965 -1.5060
 3425TIP3    H210282   5.701   5.375   4.918 -1.0050 -0.1348 -0.9315
 3426TIP3   OH210283   3.934   4.965   1.432  0.0409  0.3206  0.1510
 3426TIP3    H110284   3.968   5.044   1.473  0.3448  0.6743 -0.7502
 3426TIP3    H210285   4.012   4.917   1.402 -0.1320 -0.3895  0.7966
 3427TIP3   OH210286   0.640   5.250   4.874 -0.0897  0.5322 -0.0007
 3427TIP3    H110287   0.548   5.238   4.852  0.2217 -0.0731 -1.0648
 3427TIP3    H210288   0.657   5.186   4.942  0.1361 -1.1715 -1.5884
 3428TIP3   OH210289   1.268   4.060   1.976 -0.3026  0.7388  0.2383
 3428TIP3    H110290   1.329   4.070   1.902 -1.3199 -0.2015 -0.7670
 3428TIP3    H210291   1.302   4.119   2.043  1.4503  0.5877 -0.4637
 3429TIP3   OH210292   0.677   2.616   4.705 -0.6103 -0.5504  0.1156
 3429TIP3    H110293   0.676   2.560   4.627  0.5744  0.7789 -0.8945
 3429TIP3    H210294   0.587   2.647   4.712 -0.5772 -0.1150 -1.1674
 3430TIP3   OH210295   5.071   3.250   4.674 -0.1732 -0.1549 -0.6104
 3430TIP3    H110296   4.992   3.208   4.641 -1.2299 -0.1704  1.7563
 3430TIP3    H210297   5.040   3.329   4.718  1.1819  0.0965 -0.0408
 3431TIP3   OH210298   1.695   2.771   3.669 -0.1874 -0.4556  0.0230
 3431TIP3    H110299   1.689   2.711   3.743 -0.6674  1.0199  1.2462
 3431TIP3    H210300   1.725   2.853   3.708  2.8241 -0.4862 -1.9571
 3432TIP3   OH210301   2.353   4.016   3.477  0.6324 -0.0672  0.0641
 3432TIP3    H110302   2.415   4.068   3.526 -0.1122  1.3451 -0.4490
 3432TIP3    H210303   2.288   4.078   3.445 -1.6899 -1.6042  1.4825
 3433TIP3   OH210304   5.867   5.593   2.948 -0.0666  0.6829 -0.0716
 3433TIP3    H110305   5.863   5.649   2.871 -1.4910 -0.1444 -0.6299
 3433TIP3    H210306   5.778   5.559   2.958  0.2650  0.1923  1.5019
 3434TIP3   OH210307   3.353   1.564   2.581 -0.2705  0.0412  0.2896
 3434TIP3    H110308   3.271   1.556   2.532 -0.9525 -0.2320  1.4312
 3434TIP3    H210309   3.418   1.516   2.530 -1.3183 -1.6098  0.4396
 3435TIP3   OH210310   5.825   5.489   3.360  0.1518  0.0719 -0.1302
 3435TIP3    H110311   5.921   5.498   3.356  0.5335 -0.6488  3.6428
 3435TIP3    H210312   5.810   5.395   3.362 -0.5684  0.1872  0.0023
 3436TIP3   OH210313   0.925   2.566   4.837 -0.5111 -0.1795 -0.2232
 3436TIP3    H110314   0.873   2.646   4.849 -0.1039 -0.0979  1.1998
 3436TIP3    H210315   0.938   2.533   4.925 -1.2673 -2.2459 -0.8300
 3437TIP3   OH210316   4.190   5.399   4.623 -0.0382 -0.2574 -0.1513
 3437TIP3    H110317   4.243   5.409   4.544 -0.4532  0.5212 -0.3400
 3437TIP3    H210318   4.225   5.321   4.666 -0.7803 -1.6382 -1.8830
 3438TIP3   OH210319   3.086   5.164   1.591 -0.6473  0.0293 -0.1330
 3438TIP3    H110320   3.157   5.198   1.644 -0.7478  0.8971 -0.5272
 3438TIP3    H210321   3.076   5.073   1.618 -0.8681  0.5079  1.5155
 3439TIP3   OH210322   2.146   0.899   2.051 -0.1229 -0.5576  0.0091
 3439TIP3    H110323   2.164   0.874   2.141 -3.0809 -2.3591  0.2288
 3439TIP3    H210324   2.115   0.990   2.057  0.9912 -0.2041  0.5874
 3440TIP3   OH210325   5.886   2.970   4.973 -0.0312 -0.6438  0.6090
 3440TIP3    H110326   5.792   2.982   4.965 -0.0001 -1.3180 -1.1859
 3440TIP3    H210327   5.923   3.056   4.954 -0.2394 -0.6493  0.1744
 3441TIP3   OH210328   3.213   4.869   3.457  0.2478  0.1358  0.2479
 3441TIP3    H110329   3.194   4.920   3.379  0.9041  0.3884  0.2436
 3441TIP3    H210330   3.161   4.909   3.526  0.6611  0.7327  0.2164
 3442TIP3   OH210331   5.537   1.866   4.515  0.3407 -0.5311 -0.2307
 3442TIP3    H110332   5.627   1.834   4.513  0.5349 -0.3744  2.7442
 3442TIP3    H210333   5.542   1.954   4.477  1.5623 -0.3137  0.3977
 3443TIP3   OH210334   5.386   1.557   1.448 -0.2465 -0.4319 -0.1104
 3443TIP3    H110335   5.390   1.463   1.470  1.3085 -0.7057 -1.4023
 3443TIP3    H210336   5.474   1.589   1.465 -0.9996  1.0684  1.2266
 3444TIP3   OH210337   3.247   3.234   0.218 -0.6529 -0.2859  0.0814
 3444TIP3    H110338   3.153   3.232   0.239 -1.3870  1.3377 -2.5939
 3444TIP3    H210339   3.271   3.326   0.225  0.5419 -0.5760 -0.1110
 3445TIP3   OH210340   4.266   1.255   1.517  0.0684 -0.3965  0.1361
 3445TIP3    H110341   4.288   1.345   1.538  1.7953 -1.0516  1.3552
 3445TIP3    H210342   4.175   1.259   1.489  0.2138  1.7616 -0.2108
 3446TIP3   OH210343   1.495   2.937   2.483  0.4604 -0.7986  0.6906
 3446TIP3    H110344   1.468   2.884   2.407  0.5046 -1.1593  0.9224
 3446TIP3    H210345   1.497   2.874   2.555 -0.7811 -0.2175  1.2536
 3447TIP3   OH210346   3.729   3.554   3.338  0.3427 -0.6831  0.4649
 3447TIP3    H110347   3.750   3.473   3.292  0.5492 -0.9281  0.9845
 3447TIP3    H210348   3.755   3.538   3.429  1.2523  0.2934  0.4000
 3448TIP3   OH210349   4.955   3.479   4.776 -0.2363  0.3012 -0.5045
 3448TIP3    H110350   4.938   3.518   4.862 -2.1508  0.7145 -1.0135
 3448TIP3    H210351   4.871   3.486   4.730  0.4999 -0.7346 -2.0882
 3449TIP3   OH210352   4.734   0.373   3.368  0.2213 -0.1855  0.0959
 3449TIP3    H110353   4.650   0.387   3.325  1.2332  0.5281 -1.7297
 3449TIP3    H210354   4.768   0.293   3.329 -0.3699 -1.5541  2.1842
 3450TIP3   OH210355   0.453   3.052   2.067 -0.0214  0.3930  0.0942
 3450TIP3    H110356   0.486   2.981   2.012 -1.3940  0.5459 -0.9802
 3450TIP3    H210357   0.496   3.130   2.032 -0.4270  0.4112 -0.3677
 3451TIP3   OH210358   6.210   0.816   0.308 -0.0648  0.0383 -0.4286
 3451TIP3    H110359   6.116   0.827   0.298 -0.1431 -0.2025  0.0439
 3451TIP3    H210360   6.224   0.806   0.402  0.2261 -1.9006 -0.6461
 3452TIP3   OH210361   6.185   2.205   1.209 -0.9024  0.0401  0.4607
 3452TIP3    H110362   6.247   2.160   1.152  1.1715  2.7049  0.4054
 3452TIP3    H210363   6.153   2.138   1.269  1.2887 -1.6475 -0.1623
 3453TIP3   OH210364   1.122   4.691   2.670 -0.3793 -0.0139 -0.1953
 3453TIP3    H110365   1.201   4.699   2.617  1.7535  0.4675  2.7617
 3453TIP3    H210366   1.083   4.779   2.668 -0.2562  0.0303 -0.8378
 3454TIP3   OH210367   0.350   3.995   4.386 -0.0930  0.5385 -0.5746
 3454TIP3    H110368   0.294   3.991   4.309 -0.0662  1.6744 -0.6788
 3454TIP3    H210369   0.436   3.967   4.355 -0.1700  0.6235 -0.8682
 3455TIP3   OH210370   0.211   1.010   3.774  0.1029 -0.7515 -0.5796
 3455TIP3    H110371   0.217   0.984   3.682  1.0603 -1.1039 -0.4242
 3455TIP3    H210372   0.260   1.092   3.778  0.0122 -0.7077 -0.3964
 3456TIP3   OH210373   2.294   1.313   2.997  0.2156 -0.5158 -0.3004
 3456TIP3    H110374   2.369   1.349   2.951  0.1866 -0.6299 -0.4373
 3456TIP3    H210375   2.327   1.288   3.084  0.0044  0.8255  0.1881
 3457TIP3   OH210376   5.940   2.027   4.229  0.0310 -0.2641  0.2333
 3457TIP3    H110377   6.010   1.968   4.258  0.8910  0.9835  0.7409
 3457TIP3    H210378   5.901   2.059   4.310 -0.1596  0.1898 -0.0379
 3458TIP3   OH210379   6.019   2.692   1.974  0.1793  0.4053 -0.4048
 3458TIP3    H110380   6.095   2.675   1.918  0.9224 -1.0575  0.9851
 3458TIP3    H210381   6.055   2.735   2.051 -0.1691 -1.4010  0.8166
 3459TIP3   OH210382   1.661   1.436   4.669 -0.2729  0.5100 -0.2655
 3459TIP3    H110383   1.648   1.402   4.758  0.9517 -0.8236 -0.5482
 3459TIP3    H210384   1.750   1.472   4.671 -0.9027  2.1556 -0.4796
 3460TIP3   OH210385   5.534   1.688   3.435  0.3322 -0.4514  0.3787
 3460TIP3    H110386   5.567   1.776   3.455 -0.8693  0.7772 -2.4696
 3460TIP3    H210387   5.505   1.654   3.520 -1.9941  3.1748  1.2964
 3461TIP3   OH210388   4.176   0.752   0.689 -0.2759  0.3312 -0.1751
 3461TIP3    H110389   4.220   0.699   0.755 -1.0204 -1.2773 -0.9196
 3461TIP3    H210390   4.092   0.774   0.728 -1.0807 -1.3603 -0.8613
 3462TIP3   OH210391   5.441   2.728   3.929  0.8295 -0.4518 -0.5578
 3462TIP3    H110392   5.363   2.750   3.877  0.9965 -1.2876 -1.1766
 3462TIP3    H210393   5.461   2.809   3.976 -0.3963 -0.2094 -0.4030
 3463TIP3   OH210394   4.447   0.998   0.979 -0.4924  0.0747  0.1212
 3463TIP3    H110395   4.503   0.946   1.037  0.3122  0.6461 -0.1215
 3463TIP3    H210396   4.439   1.083   1.022  1.3775  1.0379 -1.2609
 3464TIP3   OH210397   0.888   2.821   4.959 -0.4579  0.6399  0.3911
 3464TIP3    H110398   0.918   2.775   5.038 -1.5696  1.7279  1.4991
 3464TIP3    H210399   0.856   2.905   4.992 -1.6393  0.8143 -1.1434
 3465TIP3   OH210400   1.526   3.028   3.558  0.3139  0.2809 -0.0570
 3465TIP3    H110401   1.510   2.961   3.492 -0.1725 -2.5054  2.6389
 3465TIP3    H210402   1.616   3.012   3.587 -0.2149 -0.1602  1.4771
 3466TIP3   OH210403   2.105   1.719   2.121  0.3523  0.4423  0.2753
 3466TIP3    H110404   2.068   1.797   2.163 -1.5287 -1.3557  2.2651
 3466TIP3    H210405   2.144   1.670   2.193  0.8431 -0.7999 -0.7984
 3467TIP3   OH210406   5.963   2.326   1.738 -0.5223  0.4525  0.2766
 3467TIP3    H110407   5.880   2.373   1.726  0.2299  2.0644  1.0871
 3467TIP3    H210408   6.000   2.362   1.819 -0.3774 -2.3341  1.5880
 3468TIP3   OH210409   4.203   0.222   0.883 -0.6131 -0.1017  0.3348
 3468TIP3    H110410   4.285   0.182   0.912 -0.0078  0.2651 -0.8050
 3468TIP3    H210411   4.151   0.150   0.849  0.0804 -0.0840 -0.8170
 3469TIP3   OH210412   2.596   3.778   3.885  0.1471  0.7101  0.1098
 3469TIP3    H110413   2.671   3.756   3.829  0.9736 -0.4764  1.5971
 3469TIP3    H210414   2.575   3.869   3.863  1.1693  0.6369 -1.2892
 3470TIP3   OH210415   2.982   4.417   0.192 -0.1179  0.0377 -0.6808
 3470TIP3    H110416   3.067   4.402   0.232 -0.9268  1.7990  2.0641
 3470TIP3    H210417   2.987   4.507   0.159 -1.2469  0.7098  0.8162
 3471TIP3   OH210418   4.284   3.847   1.407  0.2493 -0.6355  0.2938
 3471TIP3    H110419   4.191   3.826   1.411 -0.0406  0.7654  1.6962
 3471TIP3    H210420   4.288   3.930   1.360  0.9342 -1.2506 -0.8006
 3472TIP3   OH210421   4.450   2.684   5.063 -0.3614 -0.2082  0.1138
 3472TIP3    H110422   4.499   2.647   4.990 -0.5063 -1.2876  0.5432
 3472TIP3    H210423   4.369   2.632   5.066 -0.3245 -0.2231  1.0799
 3473TIP3   OH210424   4.992   4.049   2.264 -0.1290  0.1603 -0.1755
 3473TIP3    H110425   5.054   4.123   2.261 -1.8319  1.6250 -1.5860
 3473TIP3    H210426   4.966   4.036   2.173 -0.7880 -1.4241  0.2074
 3474TIP3   OH210427   0.424   4.109   1.536 -0.3136  0.5813  0.2154
 3474TIP3    H110428   0.368   4.115   1.614  0.6242  0.4932  0.9172
 3474TIP3    H210429   0.364   4.116   1.463 -1.4504 -1.0517  0.9237
 3475TIP3   OH210430   5.813   4.240   3.098  0.5841  0.4153  0.5198
 3475TIP3    H110431   5.827   4.146   3.094 -2.9856 -0.3544  2.4018
 3475TIP3    H210432   5.805   4.267   3.006  3.0472 -0.7691 -0.1068
 3476TIP3   OH210433   1.459   1.064   0.992 -0.3045 -0.1729 -0.0723
 3476TIP3    H110434   1.499   1.083   1.078 -2.8510  0.5509  1.0423
 3476TIP3    H210435   1.420   0.978   1.002 -1.3806  0.2869 -0.1639
 3477TIP3   OH210436   1.499   4.293   1.449  0.1758 -0.3223  0.0235
 3477TIP3    H110437   1.476   4.336   1.367  2.2139 -1.1972 -1.1078
 3477TIP3    H210438   1.423   4.304   1.505 -1.0080  0.9326 -1.7334
 3478TIP3   OH210439   1.854   3.110   3.182 -0.3073 -0.0262  0.0187
 3478TIP3    H110440   1.811   3.026   3.200  1.0723 -1.1622 -1.6657
 3478TIP3    H210441   1.946   3.089   3.173  0.0064  1.5910 -1.0063
 3479TIP3   OH210442   0.558   4.341   2.675  0.1484 -0.1949  0.3766
 3479TIP3    H110443   0.500   4.335   2.750  2.3291  0.3349  2.2368
 3479TIP3    H210444   0.630   4.281   2.696  0.1188 -1.1853 -2.0226
 3480TIP3   OH210445   4.952   4.187   2.038  0.4427 -0.5488  0.2125
 3480TIP3    H110446   4.911   4.264   1.998 -1.3340 -0.9350  1.1920
 3480TIP3    H210447   5.035   4.219   2.073 -0.8092  1.2378  1.7055
 3481TIP3   OH210448   6.209   0.632   2.507  0.2002 -0.3813  0.0170
 3481TIP3    H110449   6.185   0.720   2.476  0.7913 -0.0772  0.4077
 3481TIP3    H210450   6.253   0.592   2.432  1.7098  0.3857  0.4456
 3482TIP3   OH210451   2.766   1.389   3.970 -0.0524  0.2983 -0.1931
 3482TIP3    H110452   2.835   1.411   4.032 -0.6686 -0.6473  0.8581
 3482TIP3    H210453   2.712   1.468   3.966  0.2416  0.5184  0.1387
 3483TIP3   OH210454   2.520   1.573   1.179  0.3157 -0.4447  0.2320
 3483TIP3    H110455   2.444   1.598   1.230 -1.9784 -2.2924 -2.0125
 3483TIP3    H210456   2.538   1.482   1.205  2.3506  0.1780  1.2806
 3484TIP3   OH210457   1.464   5.457   0.474  0.6532  0.4547 -0.2366
 3484TIP3    H110458   1.370   5.464   0.458  0.6128 -0.2264 -0.3142
 3484TIP3    H210459   1.478   5.502   0.558  0.3602  1.1100 -0.5357
 3485TIP3   OH210460   5.208   4.342   0.861  0.1916  0.1005  0.0421
 3485TIP3    H110461   5.134   4.294   0.899  0.9910 -1.9052 -0.7889
 3485TIP3    H210462   5.236   4.402   0.931 -1.2890 -0.1366  0.8848
 3486TIP3   OH210463   5.196   0.978   3.456  0.2871 -0.1143  0.0951
 3486TIP3    H110464   5.189   0.966   3.551  0.2591  2.5938  0.4972
 3486TIP3    H210465   5.275   0.929   3.432  1.2205  0.4798  1.7835
 3487TIP3   OH210466   5.130   2.464   2.723 -0.6990 -0.2211  0.1204
 3487TIP3    H110467   5.211   2.426   2.757 -0.2672  0.1078 -0.5275
 3487TIP3    H210468   5.159   2.528   2.657 -1.5376 -1.2904 -1.3334
 3488TIP3   OH210469   1.871   2.504   0.138  0.0071  0.0212 -0.0173
 3488TIP3    H110470   1.823   2.428   0.108 -1.5551  0.7887  0.4468
 3488TIP3    H210471   1.866   2.566   0.065  0.4213  0.0565 -0.0199
 3489TIP3   OH210472   4.526   1.385   2.828  0.3857  0.2398  0.4098
 3489TIP3    H110473   4.540   1.474   2.862  1.0916 -0.3596  1.7478
 3489TIP3    H210474   4.482   1.339   2.899  1.6802 -0.9991  0.4427
 3490TIP3   OH210475   1.895   0.499   1.684  0.2643 -0.7615  0.4981
 3490TIP3    H110476   1.969   0.560   1.685 -0.0444 -0.3347 -1.0836
 3490TIP3    H210477   1.859   0.504   1.773 -0.2310  1.9525  0.2215
 3491TIP3   OH210478   3.972   1.456   2.929  0.0761  0.4658 -0.1820
 3491TIP3    H110479   3.988   1.470   3.023  4.1937 -1.4352 -0.3669
 3491TIP3    H210480   3.929   1.371   2.925  2.2423 -0.7083  0.0201
 3492TIP3   OH210481   1.210   4.004   1.318  0.3293  0.1389  0.4736
 3492TIP3    H110482   1.151   3.972   1.386 -0.2205  0.0650 -0.0250
 3492TIP3    H210483   1.247   3.924   1.279 -0.1000  0.1486  0.0447
 3493TIP3   OH210484   0.824   0.871   1.376  0.4159 -0.0704 -0.5148
 3493TIP3    H110485   0.769   0.901   1.304  0.8062  0.6355 -0.5316
 3493TIP3    H210486   0.894   0.822   1.334 -0.1109 -0.8465 -0.5042
 3494TIP3   OH210487   3.452   4.312   4.155  0.4392  0.0929 -0.7091
 3494TIP3    H110488   3.508   4.286   4.228  1.0833  0.1508 -1.1756
 3494TIP3    H210489   3.457   4.239   4.093 -0.5049 -0.1802 -0.4864
 3495TIP3   OH210490   5.232   3.570   1.005  0.2256  0.7654 -0.1763
 3495TIP3    H110491   5.315   3.524   1.020 -1.2918 -1.9229  0.5396
 3495TIP3    H210492   5.199   3.590   1.093 -2.0478 -2.4733 -0.1445
 3496TIP3   OH210493   4.545   2.532   2.803 -0.7649  0.0204  0.3191
 3496TIP3    H110494   4.502   2.478   2.870  1.0481  1.3511  2.7026
 3496TIP3    H210495   4.481   2.599   2.782 -0.6195  0.9485  2.5261
 3497TIP3   OH210496   4.842   3.107   4.580  0.3574 -0.0390 -0.4879
 3497TIP3    H110497   4.792   3.116   4.662 -0.6812  0.3449 -1.1440
 3497TIP3    H210498   4.844   3.013   4.564  1.5599 -0.2148  0.5640
 3498TIP3   OH210499   5.233   2.762   3.713  0.2767  0.2073 -0.2061
 3498TIP3    H110500   5.189   2.722   3.638 -1.4463  0.4424  0.6236
 3498TIP3    H210501   5.184   2.730   3.789 -0.0185  2.3828  0.6098
 3499TIP3   OH210502   0.899   5.845   1.444 -0.7956  0.1364  0.0716
 3499TIP3    H110503   0.847   5.884   1.374  1.7008  0.0833 -1.9531
 3499TIP3    H210504   0.864   5.756   1.454  0.0070 -0.5607 -2.5870
 3500TIP3   OH210505   3.247   1.175   2.786 -0.4194 -0.6322  0.1781
 3500TIP3    H110506   3.303   1.238   2.832  0.6339 -1.8621  0.6247
 3500TIP3    H210507   3.158   1.205   2.805  0.0362  1.1845 -0.2940
 3501TIP3   OH210508   3.483   4.770   1.406 -0.2872  0.6982  0.6679
 3501TIP3    H110509   3.539   4.718   1.463 -1.2183 -0.6634  0.3921
 3501TIP3    H210510   3.514   4.860   1.417  1.4446  0.0849  1.0689
 3502TIP3   OH210511   1.472   1.999   0.385 -0.3872  0.3067 -0.2681
 3502TIP3    H110512   1.556   1.965   0.417 -0.5445  0.4574  0.3040
 3502TIP3    H210513   1.424   1.921   0.357 -0.8880 -0.0045  1.3659
 3503TIP3   OH210514   3.583   3.851   4.094 -0.2944 -0.2553 -0.1097
 3503TIP3    H110515   3.641   3.891   4.030  1.2422 -1.4614  0.4710
 3503TIP3    H210516   3.591   3.906   4.172 -1.7251  0.8785 -0.7066
 3504TIP3   OH210517   3.875   1.274   3.669 -0.5017  0.1027  0.2954
 3504TIP3    H110518   3.784   1.272   3.698 -0.2918  1.3787  1.0976
 3504TIP3    H210519   3.923   1.315   3.741  0.3071  1.7629 -1.1017
 3505TIP3   OH210520   4.102   1.944   4.808  0.2819 -1.2604  0.5100
 3505TIP3    H110521   4.052   1.912   4.733 -1.0092  0.9308  0.3462
 3505TIP3    H210522   4.040   1.939   4.882 -0.5195  1.9272  0.2111
 3506TIP3   OH210523   2.717   0.612   1.819  0.5995  0.1891 -0.3948
 3506TIP3    H110524   2.753   0.563   1.746  3.2568  0.8625  0.3648
 3506TIP3    H210525   2.705   0.701   1.786  1.8923  0.5173 -0.0544
 3507TIP3   OH210526   1.499   3.506   3.699 -0.5110 -0.2319 -0.3146
 3507TIP3    H110527   1.405   3.504   3.716 -0.1873  2.4732  2.6608
 3507TIP3    H210528   1.538   3.537   3.780  2.8016  0.7035 -2.0713
 3508TIP3   OH210529   5.774   3.038   0.273 -0.1118  0.1185  0.3282
 3508TIP3    H110530   5.719   3.096   0.326 -0.2429 -1.2134  1.6977
 3508TIP3    H210531   5.721   2.960   0.259  1.4381 -1.3346  1.9389
 3509TIP3   OH210532   0.608   0.209   1.516  0.5064 -0.3468  0.4841
 3509TIP3    H110533   0.609   0.132   1.460  0.2314  0.1909 -0.2663
 3509TIP3    H210534   0.540   0.191   1.581  1.0787 -1.1299  0.8870
 3510TIP3   OH210535   5.431   3.874   0.992 -0.1117 -0.2523 -0.5732
 3510TIP3    H110536   5.381   3.844   1.067 -1.0404  1.1961 -0.5684
 3510TIP3    H210537   5.412   3.968   0.987  1.3202  0.0170 -1.5659
 3511TIP3   OH210538   1.005   4.925   2.695  0.0404 -0.2446  0.2679
 3511TIP3    H110539   0.945   4.911   2.768 -1.5462 -1.2011 -1.1387
 3511TIP3    H210540   1.045   5.010   2.713 -2.5748  0.9836  0.7500
 3512TIP3   OH210541   5.271   4.324   1.523 -0.5531  0.1168  0.4937
 3512TIP3    H110542   5.184   4.287   1.535 -0.9375  0.8398  0.0142
 3512TIP3    H210543   5.287   4.319   1.428  0.0547 -0.2751  0.6061
 3513TIP3   OH210544   5.063   4.562   2.654 -0.1974 -0.0331 -0.3290
 3513TIP3    H110545   4.985   4.521   2.693  0.2404 -3.1877 -2.3627
 3513TIP3    H210546   5.032   4.594   2.569 -0.1744  2.7865  0.6388
 3514TIP3   OH210547   3.254   3.719   1.745 -0.5986 -0.2750 -0.4106
 3514TIP3    H110548   3.276   3.642   1.797 -0.9846  0.6978  1.2600
 3514TIP3    H210549   3.289   3.700   1.658 -1.3931 -2.6739 -0.2830
 3515TIP3   OH210550   1.498   5.432   3.137  0.6165 -0.1991  0.2932
 3515TIP3    H110551   1.416   5.393   3.108  0.9698 -1.0142  0.3691
 3515TIP3    H210552   1.562   5.406   3.070  0.8329  0.3819  0.2621
 3516TIP3   OH210553   0.827   5.192   3.272 -0.2027 -0.2458  0.4123
 3516TIP3    H110554   0.777   5.165   3.195  0.4355 -1.7460  0.4915
 3516TIP3    H210555   0.769   5.174   3.346 -0.2013 -0.3319  0.3922
 3517TIP3   OH210556   3.644   3.813   3.271  0.7070  0.4119  0.2223
 3517TIP3    H110557   3.631   3.719   3.264 -2.5714  0.8596 -1.7222
 3517TIP3    H210558   3.721   3.830   3.216  0.2787 -0.9706 -0.8734
 3518TIP3   OH210559   3.294   1.860   3.082 -0.4237 -0.3907  0.1891
 3518TIP3    H110560   3.332   1.823   3.162  2.2222  0.5357 -0.5330
 3518TIP3    H210561   3.313   1.794   3.015 -3.4833 -1.6185  0.3711
 3519TIP3   OH210562   0.404   5.351   3.656  0.4275 -0.5778 -0.4398
 3519TIP3    H110563   0.386   5.409   3.582 -1.2337 -0.8178 -0.2637
 3519TIP3    H210564   0.403   5.408   3.733 -0.9912 -0.7582 -0.2907
 3520TIP3   OH210565   2.054   2.169   2.732  0.1549  0.7855 -0.5806
 3520TIP3    H110566   1.988   2.146   2.798  0.3432  1.3510 -0.1877
 3520TIP3    H210567   2.047   2.100   2.667  1.8214 -1.3677  1.3466
 3521TIP3   OH210568   2.910   2.472   0.394  0.1314 -0.3203  0.3330
 3521TIP3    H110569   2.874   2.386   0.416 -2.6579  0.5325 -0.4204
 3521TIP3    H210570   2.846   2.534   0.430  0.1482  1.3130 -2.2438
 3522TIP3   OH210571   5.495   1.109   1.752  0.0083 -0.1558 -0.1051
 3522TIP3    H110572   5.559   1.086   1.820  1.0010  2.1348 -0.1791
 3522TIP3    H210573   5.417   1.133   1.801 -0.5620 -2.1255  0.0220
 3523TIP3   OH210574   2.378   3.892   1.169 -0.0314  0.2165  0.2184
 3523TIP3    H110575   2.352   3.805   1.199  2.8988 -1.0800 -0.6402
 3523TIP3    H210576   2.421   3.932   1.245  0.0142  0.2985  0.1498
 3524TIP3   OH210577   3.125   2.130   3.795  0.4383  0.0606 -0.1637
 3524TIP3    H110578   3.161   2.041   3.801  0.5784  0.1859  1.5511
 3524TIP3    H210579   3.036   2.122   3.831  0.9847  0.8475  1.4719
 3525TIP3   OH210580   2.836   1.749   0.250 -0.1252 -0.1541 -0.5495
 3525TIP3    H110581   2.930   1.729   0.244  0.1552  1.0840 -0.4391
 3525TIP3    H210582   2.832   1.828   0.304 -1.3319 -0.9578  0.5928
 3526TIP3   OH210583   2.095   3.792   2.283  0.0005 -0.3395 -0.0863
 3526TIP3    H110584   2.095   3.716   2.341 -0.2104 -1.8659 -1.9811
 3526TIP3    H210585   2.002   3.815   2.273 -0.0502 -0.7888 -0.6834
 3527TIP3   OH210586   2.758   2.905   1.207 -0.3508  0.5477  0.3541
 3527TIP3    H110587   2.834   2.853   1.231 -0.8966  0.2575  1.5111
 3527TIP3    H210588   2.740   2.880   1.116  0.4104 -0.0211  0.3518
 3528TIP3   OH210589   3.988   2.266   4.927  0.2213 -0.0654  0.5700
 3528TIP3    H110590   3.964   2.320   5.002 -0.5995 -0.8217  0.8741
 3528TIP3    H210591   4.010   2.328   4.858  0.6544  0.6396  1.3327
 3529TIP3   OH210592   0.988   1.038   2.353  0.1998  0.6105  0.5387
 3529TIP3    H110593   0.942   1.111   2.312 -0.3607 -0.6534 -1.2023
 3529TIP3    H210594   1.080   1.051   2.328  0.0928  0.6860  0.1781
 3530TIP3   OH210595   3.903   4.853   0.686 -0.1491 -0.4135  0.4014
 3530TIP3    H110596   3.832   4.866   0.749 -0.7777  1.1958 -0.5990
 3530TIP3    H210597   3.916   4.938   0.646  3.7670 -0.0486  1.9499
 3531TIP3   OH210598   0.848   4.319   2.471  0.8663 -0.2600  0.4840
 3531TIP3    H110599   0.851   4.371   2.552 -4.3042 -2.5104  2.5655
 3531TIP3    H210600   0.866   4.230   2.499  1.2872 -0.7858 -1.3529
 3532TIP3   OH210601   5.052   3.073   2.771  0.1364  0.1899 -0.5715
 3532TIP3    H110602   5.082   3.152   2.726  1.3966 -0.3265 -0.6525
 3532TIP3    H210603   4.994   3.031   2.707  1.6632 -0.3748 -1.6350
 3533TIP3   OH210604   5.052   5.025   4.022  0.3680 -0.1009  0.2536
 3533TIP3    H110605   5.036   4.943   4.070 -0.8163  1.4571  2.7498
 3533TIP3    H210606   5.107   4.999   3.948  0.9813 -2.9690  1.5656
 3534TIP3   OH210607   3.881   0.076   1.874  0.5974  0.1526 -0.5029
 3534TIP3    H110608   3.815   0.125   1.923  0.2333 -0.6037 -0.2149
 3534TIP3    H210609   3.861  -0.016   1.892  0.4205 -0.1586 -2.0949
 3535TIP3   OH210610   1.068   0.787   4.662 -0.2048  0.6355  0.2961
 3535TIP3    H110611   0.986   0.834   4.651 -1.1261 -0.9031  0.3261
 3535TIP3    H210612   1.045   0.707   4.709  1.3729  0.3321  0.6357
 3536TIP3   OH210613   4.975   1.637   0.247 -0.1110  0.0445  0.6875
 3536TIP3    H110614   5.065   1.670   0.250 -0.0554  0.2395 -1.4539
 3536TIP3    H210615   4.963   1.609   0.156 -1.8363 -1.0951  1.2243
 3537TIP3   OH210616   0.250   3.239   2.924 -0.0957 -0.0366  0.1550
 3537TIP3    H110617   0.163   3.270   2.950 -0.2624  1.2614 -1.7903
 3537TIP3    H210618   0.310   3.300   2.965 -0.2057  0.2223 -0.0665
 3538TIP3   OH210619   6.121   1.355   1.359 -0.0289  0.3245 -0.2908
 3538TIP3    H110620   6.217   1.353   1.354  0.1788  0.1924  2.2003
 3538TIP3    H210621   6.094   1.264   1.351  0.4103 -0.1343  2.3400
 3539TIP3   OH210622   5.022   2.668   4.368  0.2777 -0.5324 -0.0344
 3539TIP3    H110623   5.003   2.574   4.366 -0.8400 -0.3313  0.4533
 3539TIP3    H210624   5.007   2.698   4.279  1.1578 -0.9027 -0.3160
 3540TIP3   OH210625   1.320   0.845   1.729  0.5101  0.2191 -0.2234
 3540TIP3    H110626   1.240   0.792   1.726  0.4732  0.3012 -0.9624
 3540TIP3    H210627   1.338   0.866   1.637  2.0321 -0.7829 -0.1986
 3541TIP3   OH210628   1.176   2.218   1.009  0.3868 -0.2287 -0.1192
 3541TIP3    H110629   1.102   2.227   0.950  1.7247 -0.3579 -1.8835
 3541TIP3    H210630   1.155   2.140   1.062 -0.3774 -0.7333 -1.1285
 3542TIP3   OH210631   4.924   1.181   2.333  0.1102 -0.0680 -0.2028
 3542TIP3    H110632   4.873   1.180   2.251 -0.4537  1.8483  0.0544
 3542TIP3    H210633   4.992   1.247   2.318 -0.0830  0.4094  0.9054
 3543TIP3   OH210634   2.222   4.189   0.427  0.1353 -0.3520  0.2843
 3543TIP3    H110635   2.170   4.109   0.437 -0.0952 -0.1846  0.4403
 3543TIP3    H210636   2.168   4.246   0.372  0.6987 -0.6532 -0.5955
 3544TIP3   OH210637   0.264   0.833   3.100 -0.0307  0.0695  0.2543
 3544TIP3    H110638   0.292   0.911   3.146 -1.0261  0.3204  0.4646
 3544TIP3    H210639   0.279   0.852   3.007 -0.8847  0.7777  0.2527
 3545TIP3   OH210640   4.828   3.588   0.273 -0.2301 -0.1946  0.6931
 3545TIP3    H110641   4.857   3.654   0.210 -3.3585 -1.1150 -2.0195
 3545TIP3    H210642   4.855   3.505   0.235 -2.7142 -0.8022  0.0840
 3546TIP3   OH210643   5.433   4.797   2.277  0.0631  0.0805 -0.0718
 3546TIP3    H110644   5.459   4.884   2.246 -1.3312  0.5026 -0.1371
 3546TIP3    H210645   5.370   4.815   2.347 -1.9203 -0.8389 -1.5238
 3547TIP3   OH210646   4.691   5.741   1.785 -0.1125  0.2893  0.2745
 3547TIP3    H110647   4.671   5.652   1.814 -1.8172 -0.5226 -2.9464
 3547TIP3    H210648   4.615   5.792   1.812 -0.3006  0.1834 -0.0385
 3548TIP3   OH210649   3.854   3.379   0.895 -0.5724  0.3363 -0.8888
 3548TIP3    H110650   3.885   3.459   0.938 -1.7578  0.3232  0.0341
 3548TIP3    H210651   3.933   3.339   0.859  0.1852  1.3568 -0.3962
 3549TIP3   OH210652   5.926   5.068   1.072  0.3659 -0.1788 -0.9669
 3549TIP3    H110653   5.964   5.144   1.028 -1.1336  0.7561 -0.7093
 3549TIP3    H210654   5.956   5.076   1.163  0.8095 -0.3224 -1.0951
 3550TIP3   OH210655   3.897   4.421   2.026 -0.4710 -0.2602  0.2558
 3550TIP3    H110656   3.963   4.363   1.987  0.2151 -0.3692  1.5005
 3550TIP3    H210657   3.813   4.384   1.999 -0.0481 -1.7469  0.8596
 3551TIP3   OH210658   5.485   0.534   3.355 -0.4689 -0.0715  0.2633
 3551TIP3    H110659   5.517   0.448   3.330 -1.9335 -0.3345 -0.8586
 3551TIP3    H210660   5.487   0.585   3.274 -0.8910  0.5160  0.6151
 3552TIP3   OH210661   3.511   3.137   0.163 -0.0008 -0.0142  0.0579
 3552TIP3    H110662   3.560   3.093   0.232  0.1513  0.0818  0.0097
 3552TIP3    H210663   3.456   3.200   0.209  2.7690  2.7476 -0.1067
 3553TIP3   OH210664   3.788   5.356   1.094  0.2421  0.2351 -0.0911
 3553TIP3    H110665   3.875   5.367   1.056  0.4495 -0.1658  0.2595
 3553TIP3    H210666   3.759   5.270   1.063  0.8286 -0.5542  1.4276
 3554TIP3   OH210667   5.198   5.495   1.263  0.3359  0.5845 -0.7014
 3554TIP3    H110668   5.206   5.534   1.176 -1.5297  1.1452 -0.6548
 3554TIP3    H210669   5.279   5.444   1.273  1.3780  1.8546 -2.0571
 3555TIP3   OH210670   1.120   0.726   4.394 -0.0854  0.7420  0.1624
 3555TIP3    H110671   1.126   0.810   4.347  0.3713  0.7165  0.1728
 3555TIP3    H210672   1.089   0.750   4.481 -2.5952  0.6283 -0.6303
 3556TIP3   OH210673   1.626   1.150   4.263  0.0198 -0.6154 -0.2398
 3556TIP3    H110674   1.663   1.218   4.206 -0.2091  0.5023  0.9088
 3556TIP3    H210675   1.539   1.182   4.286  0.7960 -0.0953  2.2380
 3557TIP3   OH210676   0.552   4.557   4.926  0.5426  0.4481 -0.6920
 3557TIP3    H110677   0.567   4.473   4.969  1.3900  0.1249 -1.5842
 3557TIP3    H210678   0.620   4.563   4.860  1.5808  2.6242  0.4673
 3558TIP3   OH210679   5.661   2.172   2.512  0.4354 -0.2537  0.0354
 3558TIP3    H110680   5.580   2.183   2.463  1.0243 -1.0253 -1.1486
 3558TIP3    H210681   5.647   2.096   2.567  0.9449 -1.5021 -1.4933
 3559TIP3   OH210682   2.011   5.047   2.122 -0.6870  0.2876  0.3533
 3559TIP3    H110683   2.046   5.005   2.044  0.2618  1.4557  0.1208
 3559TIP3    H210684   2.075   5.115   2.144 -1.9613  1.3650  0.9256
 3560TIP3   OH210685   3.912   3.711   3.201 -0.3609  0.6056  0.1276
 3560TIP3    H110686   3.866   3.639   3.244 -0.2304  0.5868  0.2358
 3560TIP3    H210687   4.004   3.683   3.199 -0.6948 -0.7184 -2.7149
 3561TIP3   OH210688   4.632   2.805   0.977 -0.5719  0.0237 -0.2676
 3561TIP3    H110689   4.557   2.804   1.036  0.8513  1.1332  1.6839
 3561TIP3    H210690   4.602   2.758   0.899 -2.9300 -0.4429  0.8330
 3562TIP3   OH210691   4.412   4.461   1.158 -0.6053 -0.2806  0.2506
 3562TIP3    H110692   4.330   4.416   1.177 -0.2303 -1.0348  0.1241
 3562TIP3    H210693   4.411   4.474   1.063 -0.3385 -0.8015  0.1673
 3563TIP3   OH210694   4.414   4.601   0.353  0.1564 -0.0526  0.4466
 3563TIP3    H110695   4.344   4.543   0.321 -0.0626  0.3298  0.2170
 3563TIP3    H210696   4.408   4.595   0.448 -0.4321  0.2611  0.4315
 3564TIP3   OH210697   3.038   1.057   4.859  0.1263 -0.0997  0.3517
 3564TIP3    H110698   3.087   0.997   4.803 -0.3684  1.5273 -1.9815
 3564TIP3    H210699   3.094   1.135   4.865 -1.1152  0.8908 -0.4310
 3565TIP3   OH210700   4.638   4.199   2.011 -0.3763  0.1669  0.5139
 3565TIP3    H110701   4.681   4.246   1.940 -1.2054 -0.6127 -0.5320
 3565TIP3    H210702   4.686   4.225   2.089 -0.0804  1.8401 -0.1798
 3566TIP3   OH210703   1.064   3.546   3.503  0.3725 -1.0898 -0.5470
 3566TIP3    H110704   1.061   3.502   3.418 -2.1585  0.6847 -1.4927
 3566TIP3    H210705   1.095   3.634   3.484  0.6215 -0.9305  0.5192
 3567TIP3   OH210706   4.075   3.631   4.335  0.6590 -0.4976 -0.7555
 3567TIP3    H110707   3.982   3.634   4.356  0.7487  0.2405 -0.4614
 3567TIP3    H210708   4.114   3.576   4.403  0.2395 -1.9904 -1.6694
 3568TIP3   OH210709   5.728   1.891   2.963 -0.1518 -0.2461  0.4468
 3568TIP3    H110710   5.782   1.815   2.985 -1.2866 -1.0669  0.4950
 3568TIP3    H210711   5.676   1.906   3.042 -1.8233 -1.0832 -0.4495
 3569TIP3   OH210712   0.892   0.107   2.264  0.4579 -0.2528  0.6696
 3569TIP3    H110713   0.948   0.088   2.189  0.1090  0.2909  0.2616
 3569TIP3    H210714   0.888   0.203   2.267  1.4660 -0.2124  2.1371
 3570TIP3   OH210715   0.108   0.939   0.245 -0.4658 -0.1613  0.3043
 3570TIP3    H110716   0.023   0.904   0.274 -0.3123 -0.3684  0.5070
 3570TIP3    H210717   0.157   0.861   0.217  0.2718 -0.2558  1.7447
 3571TIP3   OH210718   2.541   2.399   0.967  0.4609 -0.1285 -0.3404
 3571TIP3    H110719   2.613   2.378   0.908  0.4121  0.6884 -0.7125
 3571TIP3    H210720   2.468   2.422   0.908  0.5519  1.1547  0.0092
 3572TIP3   OH210721   5.993   2.832   4.736 -0.1269  0.2336  0.9094
 3572TIP3    H110722   5.983   2.741   4.709 -0.6126  1.0371 -1.9109
 3572TIP3    H210723   5.931   2.842   4.809 -1.3232 -1.2703  0.1616
 3573TIP3   OH210724   1.885   1.621   0.180 -0.2802 -0.7930  0.1656
 3573TIP3    H110725   1.816   1.612   0.114 -1.4840  0.2286  1.2288
 3573TIP3    H210726   1.916   1.712   0.170  0.3744 -1.0036  0.2151
 3574TIP3   OH210727   3.531   5.738   0.658  0.3523  0.0198  0.0988
 3574TIP3    H110728   3.585   5.809   0.623  0.3334  0.3419  0.7196
 3574TIP3    H210729   3.551   5.663   0.601  1.5633  0.0892  0.3882
 3575TIP3   OH210730   5.359   5.675   0.160  0.1813  0.2654  0.4876
 3575TIP3    H110731   5.290   5.688   0.225 -0.7998 -1.9505 -0.0302
 3575TIP3    H210732   5.412   5.754   0.166 -1.0780  1.0391  2.5039
 3576TIP3   OH210733   5.364   3.409   1.332  0.1719 -0.6243  0.5666
 3576TIP3    H110734   5.435   3.444   1.279 -0.1520 -0.7956  0.0076
 3576TIP3    H210735   5.331   3.485   1.380 -1.8492  0.3848 -2.1299
 3577TIP3   OH210736   0.414   1.074   2.241 -0.0314  0.2219 -0.2366
 3577TIP3    H110737   0.354   1.037   2.306  0.2517 -0.1295 -0.1784
 3577TIP3    H210738   0.485   1.112   2.293 -1.2818  2.6663 -0.1516
 3578TIP3   OH210739   5.762   3.462   2.279  0.2192  0.2539 -0.1291
 3578TIP3    H110740   5.818   3.404   2.228  1.2300  1.6864 -0.7064
 3578TIP3    H210741   5.673   3.434   2.258  0.5021  1.5345 -3.7623
 3579TIP3   OH210742   0.853   2.301   2.837  0.3577 -0.6058 -0.2025
 3579TIP3    H110743   0.817   2.227   2.789 -1.7870 -0.0652  0.4935
 3579TIP3    H210744   0.925   2.332   2.781 -1.1353 -0.8734 -2.4152
 3580TIP3   OH210745   0.883   5.562   4.230 -0.4234 -0.4428 -0.4644
 3580TIP3    H110746   0.964   5.570   4.180  0.2975 -0.5127  0.6424
 3580TIP3    H210747   0.815   5.591   4.170  0.5613  0.8408 -1.0288
 3581TIP3   OH210748   4.916   0.725   0.650  0.2251 -0.1384  0.2868
 3581TIP3    H110749   4.838   0.756   0.604  1.2436  0.6918 -0.9707
 3581TIP3    H210750   4.976   0.700   0.580  1.2439 -0.3824  1.2189
 3582TIP3   OH210751   3.019   3.369   1.467 -0.2396  0.0897 -0.2637
 3582TIP3    H110752   3.109   3.382   1.494 -0.5852  0.7643  0.5967
 3582TIP3    H210753   3.013   3.277   1.444  1.1041  0.3925 -2.0349
 3583TIP3   OH210754   0.709   4.483   3.672  0.8351 -0.2223 -0.0896
 3583TIP3    H110755   0.673   4.558   3.625 -0.0172 -0.1116  0.7146
 3583TIP3    H210756   0.726   4.515   3.760  1.5662 -0.6680 -0.0608
 3584TIP3   OH210757   4.835   2.227   1.105 -0.0146  0.4540  0.2752
 3584TIP3    H110758   4.741   2.208   1.112 -0.6420  3.2357  0.4708
 3584TIP3    H210759   4.845   2.315   1.141  2.9285 -0.2438  1.4826
 3585TIP3   OH210760   4.198   0.024   4.248  0.4076 -0.7836  0.4517
 3585TIP3    H110761   4.175   0.115   4.227 -0.2251 -1.2084 -0.8226
 3585TIP3    H210762   4.277   0.031   4.302  0.4906  0.5127  0.1995
 3586TIP3   OH210763   3.642   3.879   1.998  0.0344  0.3642 -0.4988
 3586TIP3    H110764   3.729   3.854   2.030 -0.7379 -2.2593 -0.1745
 3586TIP3    H210765   3.627   3.821   1.923 -1.2546  1.1073 -0.8348
 3587TIP3   OH210766   6.107   5.751   4.612  0.5245 -0.6048 -0.2570
 3587TIP3    H110767   6.087   5.845   4.603 -2.1291 -1.0836 -0.1987
 3587TIP3    H210768   6.193   5.741   4.572 -0.1142  1.5023 -2.4043
 3588TIP3   OH210769   0.288   1.965   2.651 -0.7584  0.4856  0.3408
 3588TIP3    H110770   0.197   1.995   2.641 -0.6850  0.7952  0.5613
 3588TIP3    H210771   0.310   1.987   2.742 -0.0762  1.5106 -0.0499
 3589TIP3   OH210772   2.865   2.935   2.431  0.2208  0.5336  0.2061
 3589TIP3    H110773   2.890   2.924   2.523 -0.0543 -0.2839  0.1877
 3589TIP3    H210774   2.805   2.863   2.413  1.1889 -0.0305 -0.9521
 3590TIP3   OH210775   1.367   4.782   4.298 -0.4177 -0.2905 -0.3985
 3590TIP3    H110776   1.329   4.866   4.272 -0.5927 -0.3071 -0.1994
 3590TIP3    H210777   1.400   4.797   4.386 -1.1333 -0.6403 -0.0592
 3591TIP3   OH210778   3.065   2.008   1.013  0.1629  1.2089  0.0705
 3591TIP3    H110779   3.060   1.928   0.962  1.8942 -0.3553  2.1742
 3591TIP3    H210780   2.975   2.040   1.017 -0.4246 -0.1502 -1.5022
 3592TIP3   OH210781   0.964   3.929   2.959 -0.0718  0.5043 -0.0010
 3592TIP3    H110782   0.890   3.870   2.972 -0.7422  1.5203  0.9458
 3592TIP3    H210783   0.958   3.956   2.867  0.0386 -0.6083 -0.3434
 3593TIP3   OH210784   2.989   0.249   4.276  0.3500 -0.3553  0.3158
 3593TIP3    H110785   3.007   0.163   4.315  2.3881 -0.7230 -1.2657
 3593TIP3    H210786   3.069   0.300   4.293  0.1365  0.4099 -0.8377
 3594TIP3   OH210787   1.274   3.409   0.348  0.1510  0.1767 -0.2679
 3594TIP3    H110788   1.184   3.438   0.340 -0.4717 -1.5669 -0.0186
 3594TIP3    H210789   1.278   3.364   0.433  0.3801 -2.4391 -1.5533
 3595TIP3   OH210790   0.632   1.164   2.411  0.4945  0.6384  0.4229
 3595TIP3    H110791   0.724   1.189   2.411 -0.0070  2.7634 -1.0550
 3595TIP3    H210792   0.594   1.212   2.485  0.3112  0.9829  0.1104
 3596TIP3   OH210793   5.132   3.869   1.687 -0.8005 -0.2445  1.0766
 3596TIP3    H110794   5.108   3.814   1.762 -2.4198 -0.9567  0.1024
 3596TIP3    H210795   5.081   3.949   1.700  0.3923  0.4240  1.7098
 3597TIP3   OH210796   5.948   4.056   4.876 -0.1478  0.2035  0.1453
 3597TIP3    H110797   6.042   4.069   4.892 -0.1363 -0.2593  0.4789
 3597TIP3    H210798   5.919   4.001   4.949 -0.0105 -2.3799 -1.6392
 3598TIP3   OH210799   6.250   3.440   2.489  0.1102  0.7849  0.2189
 3598TIP3    H110800   6.343   3.424   2.477  0.2072  1.8789 -0.6513
 3598TIP3    H210801   6.209   3.354   2.474  0.8435  0.6517 -1.1430
 3599TIP3   OH210802   5.444   0.888   3.427 -0.3351 -0.1709  0.4038
 3599TIP3    H110803   5.509   0.958   3.422 -0.1750 -0.3663 -0.5526
 3599TIP3    H210804   5.489   0.811   3.393 -0.8315 -0.4901  0.4538
 3600TIP3   OH210805   5.447   4.351   2.951  0.1891  0.2689  0.1571
 3600TIP3    H110806   5.508   4.279   2.938  0.3114  0.0978  1.4775
 3600TIP3    H210807   5.443   4.361   3.046 -2.6138 -0.3816  0.1839
 3601TIP3   OH210808   2.884   4.799   1.065 -0.2381 -0.4494 -0.6739
 3601TIP3    H110809   2.819   4.826   1.129  0.2222  0.7597 -0.6897
 3601TIP3    H210810   2.909   4.711   1.092 -2.7037 -1.4226 -1.3559
 3602TIP3   OH210811   0.565   4.794   3.703  0.1772  0.4158  0.0231
 3602TIP3    H110812   0.636   4.855   3.684 -1.5001  2.0062 -1.5472
 3602TIP3    H210813   0.561   4.738   3.625  0.4632 -0.4821  0.6355
 3603TIP3   OH210814   4.979   0.388   0.635 -0.5866  0.6271  0.2319
 3603TIP3    H110815   4.903   0.421   0.683 -1.4913 -0.0914 -0.6904
 3603TIP3    H210816   4.948   0.310   0.590  0.8546 -0.0133  0.2909
 3604TIP3   OH210817   1.859   5.186   3.578 -0.1976  0.1041 -0.0514
 3604TIP3    H110818   1.854   5.168   3.672 -1.3663  0.9896  0.0766
 3604TIP3    H210819   1.825   5.107   3.536 -0.2531 -0.0565  0.2943
 3605TIP3   OH210820   6.010   1.684   4.665  0.2005  0.0612  0.5221
 3605TIP3    H110821   6.101   1.684   4.635  0.5228 -0.4503  1.4418
 3605TIP3    H210822   5.961   1.730   4.597  0.7632 -1.6728 -1.1111
 3606TIP3   OH210823   5.505   5.795   0.456 -0.0929 -0.5634 -0.5498
 3606TIP3    H110824   5.452   5.813   0.378 -1.2347 -2.1671 -0.1967
 3606TIP3    H210825   5.454   5.830   0.529  0.7353  0.4787 -0.4455
 3607TIP3   OH210826   4.895   1.921   0.129  0.2171 -0.1881  0.0648
 3607TIP3    H110827   4.895   1.841   0.077 -0.4907 -0.2794  0.1902
 3607TIP3    H210828   4.823   1.909   0.191  1.3182 -0.2865  1.3815
 3608TIP3   OH210829   1.600   4.188   3.993  0.1879  0.0095 -0.2100
 3608TIP3    H110830   1.584   4.280   3.968  0.3343  0.0771 -0.0535
 3608TIP3    H210831   1.527   4.166   4.050 -0.0295 -0.0762 -0.5207
 3609TIP3   OH210832   3.770   2.451   4.276 -0.1142 -0.1970  0.2866
 3609TIP3    H110833   3.864   2.435   4.271 -0.1925 -1.1926  1.4410
 3609TIP3    H210834   3.731   2.384   4.221 -0.1519  0.2309 -0.2119
 3610TIP3   OH210835   2.780   4.452   3.055 -0.4682 -0.6294  0.0376
 3610TIP3    H110836   2.804   4.455   2.962  0.6248  0.7619  0.3192
 3610TIP3    H210837   2.841   4.513   3.097 -1.8848 -0.1346  1.4626
 3611TIP3   OH210838   3.951   0.893   2.184 -0.1193  0.1661  0.3313
 3611TIP3    H110839   4.035   0.927   2.214  0.3392  0.2847 -0.9999
 3611TIP3    H210840   3.927   0.827   2.249  0.8666  0.3335  0.8853
 3612TIP3   OH210841   2.701   5.668   3.723  0.4790 -0.8699  0.3618
 3612TIP3    H110842   2.709   5.583   3.679  0.7146 -0.0560 -1.2171
 3612TIP3    H210843   2.608   5.689   3.718  0.0315 -1.9654  2.6518
 3613TIP3   OH210844   4.832   0.490   4.227 -0.4896  0.3833 -0.1882
 3613TIP3    H110845   4.880   0.551   4.171 -0.6896 -0.3322 -1.1719
 3613TIP3    H210846   4.777   0.440   4.166 -0.1821 -0.9149  0.5521
 3614TIP3   OH210847   5.354   5.940   0.261  0.3012 -0.5063  0.3356
 3614TIP3    H110848   5.410   6.012   0.289  0.8555 -1.1744  0.9690
 3614TIP3    H210849   5.310   5.973   0.183 -0.9081  1.2201  1.6843
 3615TIP3   OH210850   3.466   1.685   4.634 -0.3581  0.0150  0.1913
 3615TIP3    H110851   3.411   1.636   4.695  1.3995 -2.0238  0.2783
 3615TIP3    H210852   3.419   1.681   4.551 -0.9308 -0.6055  0.5386
 3616TIP3   OH210853   4.962   2.178   4.918 -0.6243  0.1697 -1.1382
 3616TIP3    H110854   4.907   2.255   4.932 -0.6127  0.2461 -1.4959
 3616TIP3    H210855   4.900   2.105   4.915 -0.4561 -0.1627  1.5222
 3617TIP3   OH210856   1.387   2.196   0.540  0.1312 -0.2335  0.0327
 3617TIP3    H110857   1.480   2.210   0.524  0.6193 -1.4264  1.5466
 3617TIP3    H210858   1.366   2.114   0.494  0.0279 -0.3552  0.2889
 3618TIP3   OH210859   0.871   0.364   2.576  0.2916 -0.3176 -0.2288
 3618TIP3    H110860   0.813   0.433   2.608  2.0124  1.8274 -1.4131
 3618TIP3    H210861   0.929   0.345   2.650  0.6006  0.4716 -0.2522
 3619TIP3   OH210862   0.827   0.215   1.171  0.0526 -0.0846 -0.3302
 3619TIP3    H110863   0.824   0.184   1.081 -0.9054 -0.5728 -0.1360
 3619TIP3    H210864   0.756   0.170   1.215 -0.6986  1.5495  0.2275
 3620TIP3   OH210865   3.056   0.105   3.944 -0.5929 -0.3013  0.6279
 3620TIP3    H110866   2.997   0.049   3.895 -0.0564 -0.7017  0.4271
 3620TIP3    H210867   3.098   0.047   4.008 -1.2235  0.1976  1.5128
 3621TIP3   OH210868   2.802   1.042   1.238  0.7075  0.1022 -0.1775
 3621TIP3    H110869   2.805   0.996   1.154  3.7476  0.5743 -0.4186
 3621TIP3    H210870   2.741   0.991   1.291  1.8265 -2.6002 -1.3276
 3622TIP3   OH210871   0.284   0.949   0.460  0.2400 -0.9954  0.0417
 3622TIP3    H110872   0.222   0.913   0.396  0.1528 -4.5504  1.8493
 3622TIP3    H210873   0.239   0.940   0.544  2.2481 -1.3676  1.1375
 3623TIP3   OH210874   3.958   3.828   3.485 -0.1825 -0.1623  0.0705
 3623TIP3    H110875   3.956   3.923   3.479  0.4608 -0.2349 -2.5471
 3623TIP3    H210876   3.907   3.798   3.409  1.0323 -1.8675 -0.1406
 3624TIP3   OH210877   1.489   1.963   3.646  0.0524  0.1240 -0.4690
 3624TIP3    H110878   1.526   1.940   3.731  1.1002 -1.9438 -1.3984
 3624TIP3    H210879   1.436   1.887   3.621  0.3983  0.3371 -1.9730
 3625TIP3   OH210880   5.958   3.490   4.248  0.5621  0.0879  0.1283
 3625TIP3    H110881   5.993   3.432   4.315  0.7684 -1.2825 -1.1055
 3625TIP3    H210882   5.870   3.455   4.230  0.4140  0.5912 -0.1314
 3626TIP3   OH210883   1.988   1.656   1.200 -0.8259 -0.0985 -0.3466
 3626TIP3    H110884   1.977   1.620   1.112 -0.5229 -0.0798 -0.3944
 3626TIP3    H210885   2.018   1.745   1.187 -1.2928  0.0793 -0.2249
 3627TIP3   OH210886   3.413   1.506   3.621 -0.2918  0.0867 -0.0810
 3627TIP3    H110887   3.498   1.514   3.578 -1.3812  0.8980 -2.2100
 3627TIP3    H210888   3.432   1.523   3.713  1.9779 -0.6935 -0.3339
 3628TIP3   OH210889   6.057   1.764   2.458  0.1509 -0.5810  0.1473
 3628TIP3    H110890   6.029   1.714   2.381  0.6738  1.2097 -1.2705
 3628TIP3    H210891   5.986   1.752   2.521 -1.0271 -0.8893 -1.1779
 3629TIP3   OH210892   4.127   4.206   2.791  0.4030 -0.1559 -0.1343
 3629TIP3    H110893   4.204   4.250   2.829  0.0812  0.3352 -0.0451
 3629TIP3    H210894   4.052   4.248   2.832  0.0794 -2.0986  1.4292
 3630TIP3   OH210895   5.098   4.525   0.104  0.0886  0.3176 -0.2313
 3630TIP3    H110896   5.139   4.446   0.139  1.5123  0.7773 -0.7882
 3630TIP3    H210897   5.125   4.528   0.012 -0.8194  0.9033 -0.5013
 3631TIP3   OH210898   1.927   1.173   4.145 -0.0246  0.2100 -0.2748
 3631TIP3    H110899   1.923   1.078   4.158 -0.4829  0.2259 -0.2912
 3631TIP3    H210900   1.887   1.187   4.059  1.0722  0.3087 -0.7842
 3632TIP3   OH210901   1.676   5.003   2.400  0.1843  0.2294 -0.0501
 3632TIP3    H110902   1.734   5.010   2.476  1.2333 -0.4733 -0.7766
 3632TIP3    H210903   1.723   4.949   2.338 -1.1667 -0.1875 -0.7517
 3633TIP3   OH210904   2.642   0.244   2.469  0.2339  0.5658 -0.7878
 3633TIP3    H110905   2.731   0.274   2.452  0.2353  1.8615  1.2529
 3633TIP3    H210906   2.648   0.193   2.549 -0.7404 -0.1208 -1.1268
 3634TIP3   OH210907   5.615   0.230   4.912 -0.1125 -0.0086 -0.0207
 3634TIP3    H110908   5.676   0.289   4.957  2.0132 -0.3038 -2.3239
 3634TIP3    H210909   5.662   0.201   4.835 -1.8962 -3.0902 -0.1024
 3635TIP3   OH210910   5.043   0.379   2.062  0.3332 -0.3007 -0.1915
 3635TIP3    H110911   4.963   0.366   2.011  0.2322 -1.1253  0.1732
 3635TIP3    H210912   5.113   0.371   1.998  0.1562 -0.1800 -0.4036
 3636TIP3   OH210913   3.082   4.331   4.549 -0.4191 -0.1739  0.1895
 3636TIP3    H110914   3.138   4.338   4.472 -0.5461 -0.8954  0.0162
 3636TIP3    H210915   2.999   4.298   4.515 -0.2055 -1.3460  0.7202
 3637TIP3   OH210916   6.073   4.690   2.557 -0.1097  0.1959 -0.0167
 3637TIP3    H110917   6.145   4.725   2.505 -2.1054 -0.6595 -3.7533
 3637TIP3    H210918   6.016   4.766   2.572  0.3882  0.4126  0.8098
 3638TIP3   OH210919   5.936   3.390   3.549  0.4496  0.5484 -0.0177
 3638TIP3    H110920   5.857   3.391   3.496  1.1975  0.7980 -1.1654
 3638TIP3    H210921   5.959   3.297   3.556 -1.6628  0.1027  3.0610
 3639TIP3   OH210922   4.861   3.811   4.768  0.1491  0.4765 -0.2950
 3639TIP3    H110923   4.949   3.792   4.802  0.5995  0.7147 -1.3160
 3639TIP3    H210924   4.817   3.725   4.767  0.5505  0.2695 -0.3019
 3640TIP3   OH210925   1.206   4.402   2.262  0.6205  0.1318 -0.2240
 3640TIP3    H110926   1.167   4.329   2.310  1.4206 -0.7652 -0.9007
 3640TIP3    H210927   1.140   4.471   2.266 -1.0515 -1.3266 -1.3092
 3641TIP3   OH210928   4.408   2.420   0.716 -0.2554 -0.0629 -0.5362
 3641TIP3    H110929   4.360   2.430   0.634  0.7608  0.3230 -1.0974
 3641TIP3    H210930   4.499   2.409   0.690 -0.1441 -1.9065  0.4659
 3642TIP3   OH210931   3.281   3.099   3.351 -0.2965  0.5131 -0.3329
 3642TIP3    H110932   3.230   3.146   3.417 -2.4359 -1.0463 -0.7815
 3642TIP3    H210933   3.271   3.007   3.374  2.6977  0.1005 -0.2504
 3643TIP3   OH210934   5.238   5.389   5.065 -0.5144  0.0878  0.1900
 3643TIP3    H110935   5.278   5.320   5.118 -0.5100  0.1147  0.2210
 3643TIP3    H210936   5.165   5.345   5.020  0.3464 -0.2913 -0.8946
 3644TIP3   OH210937   3.433   1.582   1.460  0.1416  0.5138 -0.2991
 3644TIP3    H110938   3.515   1.582   1.410 -0.1243  3.8286 -0.9208
 3644TIP3    H210939   3.366   1.603   1.396 -0.5249  2.5134  0.9753
 3645TIP3   OH210940   6.331   5.011   1.836  0.2381 -0.0051 -0.0316
 3645TIP3    H110941   6.257   5.071   1.823  0.6331  0.5389  0.1557
 3645TIP3    H210942   6.355   4.983   1.748  0.5164  0.7002 -0.1890
 3646TIP3   OH210943   2.228   1.523   0.221 -0.2845  0.1673 -0.0069
 3646TIP3    H110944   2.221   1.617   0.240  2.4853  0.5550 -0.4894
 3646TIP3    H210945   2.211   1.516   0.127 -1.6918 -0.0430  0.2318
 3647TIP3   OH210946   2.406   5.265   4.017 -0.4183 -0.2075 -0.1018
 3647TIP3    H110947   2.499   5.248   4.003  0.2465  2.0598  0.9401
 3647TIP3    H210948   2.391   5.244   4.109 -0.3588  1.4322  0.3154
 3648TIP3   OH210949   2.170   0.063   5.109  0.0066  0.0043  0.2122
 3648TIP3    H110950   2.160  -0.004   5.041 -0.9332  0.5310 -0.1886
 3648TIP3    H210951   2.258   0.099   5.094 -0.5597  0.8249 -1.4275
 3649TIP3   OH210952   5.996   1.096   0.314 -0.3417  0.0165  0.1899
 3649TIP3    H110953   5.974   1.185   0.285  1.7562  0.4712 -0.1541
 3649TIP3    H210954   6.015   1.049   0.233 -0.7939 -0.5695  0.4208
 3650TIP3   OH210955   4.853   3.726   2.206  0.2536  0.1918  0.4606
 3650TIP3    H110956   4.933   3.734   2.154 -0.3678  0.9623 -0.4008
 3650TIP3    H210957   4.789   3.782   2.162 -0.2498  1.0255  2.1484
 3651TIP3   OH210958   2.580   4.095   5.052  0.2752 -0.0579 -0.1919
 3651TIP3    H110959   2.546   4.105   5.141  0.1707 -0.3930 -0.1912
 3651TIP3    H210960   2.523   4.028   5.013  0.8680 -0.5436 -0.2289
 3652TIP3   OH210961   4.705   3.483   2.170 -0.5145  0.0117  0.2941
 3652TIP3    H110962   4.631   3.521   2.122 -0.5692  0.2959  0.5996
 3652TIP3    H210963   4.754   3.559   2.203  0.2010 -0.1645 -0.3372
 3653TIP3   OH210964   5.017   2.965   0.255  0.4961 -0.1669  0.2111
 3653TIP3    H110965   4.983   3.055   0.262 -0.8819 -0.7152  1.0707
 3653TIP3    H210966   4.989   2.937   0.168 -4.0045 -1.5450  1.8160
 3654TIP3   OH210967   3.630   0.170   1.843  0.0558 -0.1903 -0.0638
 3654TIP3    H110968   3.585   0.250   1.872 -0.0954 -0.2167 -0.2234
 3654TIP3    H210969   3.564   0.123   1.792 -0.0459 -0.7039  0.5288
 3655TIP3   OH210970   3.533   2.993   2.047  0.3027  0.4251 -0.2524
 3655TIP3    H110971   3.481   3.022   2.122  0.7575  0.5102  0.0272
 3655TIP3    H210972   3.609   3.051   2.045 -1.3334  2.7761 -2.8307
 3656TIP3   OH210973   2.540   5.462   0.028 -0.1527 -0.7694  0.3829
 3656TIP3    H110974   2.582   5.502   0.104  1.0279 -1.6245  0.2080
 3656TIP3    H210975   2.477   5.528  -0.002  0.0313 -0.0405  1.5286
 3657TIP3   OH210976   0.415   5.276   0.294 -0.3388  1.0511 -0.2916
 3657TIP3    H110977   0.477   5.324   0.240 -0.5997  1.0313 -0.6081
 3657TIP3    H210978   0.362   5.226   0.233 -0.3833  0.7279  0.0063
 3658TIP3   OH210979   1.414   0.595   2.015  0.3705  0.0401 -0.1198
 3658TIP3    H110980   1.353   0.668   2.010 -1.3683 -1.3307 -0.0045
 3658TIP3    H210981   1.473   0.618   2.087 -1.2299  0.5617  1.0748
 3659TIP3   OH210982   4.614   4.249   0.803  0.0366 -0.5186 -0.7722
 3659TIP3    H110983   4.586   4.278   0.716  0.8842  1.5695 -0.3978
 3659TIP3    H210984   4.699   4.209   0.789  1.2222  1.8123 -0.6887
 3660TIP3   OH210985   0.238   4.076   1.311 -0.4581  0.3493  0.8414
 3660TIP3    H110986   0.202   4.045   1.393 -0.3179  0.6551  1.0223
 3660TIP3    H210987   0.186   4.033   1.243  1.7083 -2.7683  0.9862
 3661TIP3   OH210988   3.464   5.172   4.135  0.0850 -0.4453  0.3712
 3661TIP3    H110989   3.463   5.102   4.199 -1.6487 -0.5325  0.3031
 3661TIP3    H210990   3.373   5.200   4.129  0.5757  1.1128 -0.3698
 3662TIP3   OH210991   3.304   1.438   1.142 -0.0055 -0.2996 -0.6480
 3662TIP3    H110992   3.244   1.386   1.090 -0.1797 -0.2090 -0.5381
 3662TIP3    H210993   3.275   1.425   1.233  0.3043 -0.4722 -0.5712
 3663TIP3   OH210994   3.376   1.504   4.395  0.3672  0.2404  0.0351
 3663TIP3    H110995   3.308   1.550   4.346  0.4649  0.4360  0.0792
 3663TIP3    H210996   3.340   1.417   4.412  1.5084 -1.0372 -3.1736
 3664TIP3   OH210997   1.570   4.813   3.568 -0.8959 -0.4288 -0.5603
 3664TIP3    H110998   1.597   4.736   3.618 -0.1522  0.5375  0.5798
 3664TIP3    H210999   1.476   4.801   3.555 -0.9845 -1.0396  0.5085
 3665TIP3   OH211000   3.821   1.927   1.059  0.4047 -0.0397  0.3727
 3665TIP3    H111001   3.902   1.978   1.065 -0.2469  1.3990 -2.0550
 3665TIP3    H211002   3.851   1.836   1.053  1.9450  0.5218 -1.4728
 3666TIP3   OH211003   6.246   0.654   4.283 -0.1917  0.3982  0.1449
 3666TIP3    H111004   6.201   0.735   4.308 -1.2949 -0.2883  0.4727
 3666TIP3    H211005   6.176   0.598   4.250  0.4052 -0.7704  0.8269
 3667TIP3   OH211006   4.698   5.925   1.582 -0.8838  0.8706  0.3079
 3667TIP3    H111007   4.785   5.907   1.544 -0.9511  2.6043 -0.7691
 3667TIP3    H211008   4.691   5.863   1.654  0.4264 -0.6794 -0.8023
 3668TIP3   OH211009   4.854   4.671   0.144 -0.4412  0.3010  0.1296
 3668TIP3    H111010   4.810   4.638   0.222 -1.1878  0.3452 -0.2620
 3668TIP3    H211011   4.931   4.614   0.134 -1.1504 -0.6754  0.0526
 3669TIP3   OH211012   3.895   1.033   0.976  0.0621 -0.1528  0.0048
 3669TIP3    H111013   3.984   0.998   0.976  0.2408  0.0943  2.7413
 3669TIP3    H211014   3.906   1.127   0.960  0.9751  0.8537  4.8900
 3670TIP3   OH211015   4.696   5.511   3.427  0.3773  0.4344  0.0312
 3670TIP3    H111016   4.687   5.423   3.465  0.1912  0.6327  0.4607
 3670TIP3    H211017   4.623   5.561   3.465 -0.5553  0.3309 -1.5267
 3671TIP3   OH211018   5.534   0.123   5.151  0.1906 -0.1112 -0.0697
 3671TIP3    H111019   5.560   0.148   5.062  0.3327  1.6111  0.4357
 3671TIP3    H211020   5.439   0.128   5.150  0.1714 -0.4410 -0.2085
 3672TIP3   OH211021   4.466   2.091   2.390 -0.1833 -0.1512 -0.0114
 3672TIP3    H111022   4.394   2.043   2.432 -1.0789 -0.3105 -1.6253
 3672TIP3    H211023   4.423   2.142   2.321  1.2458 -0.2448 -1.0127
 3673TIP3   OH211024   3.254   4.334   0.310  0.0117 -0.6589 -0.3078
 3673TIP3    H111025   3.337   4.371   0.341 -0.4913 -0.0848  0.3844
 3673TIP3    H211026   3.215   4.294   0.388 -0.7396 -0.2037 -0.4428
 3674TIP3   OH211027   6.121   0.475   3.487 -0.5442 -0.4578  0.3881
 3674TIP3    H111028   6.210   0.439   3.488 -0.3916 -0.1283  2.0123
 3674TIP3    H211029   6.127   0.556   3.538 -1.4703  0.4206 -0.8170
 3675TIP3   OH211030   1.266   4.166   4.287  0.2435 -0.1490 -0.4475
 3675TIP3    H111031   1.190   4.120   4.251  1.4085 -3.1231  0.5784
 3675TIP3    H211032   1.282   4.124   4.371  1.5478  2.1412  0.5551
 3676TIP3   OH211033   3.715   4.888   0.892 -0.1232 -0.0969 -0.3161
 3676TIP3    H111034   3.668   4.954   0.943 -0.6907 -0.1976 -0.6982
 3676TIP3    H211035   3.705   4.807   0.943 -0.2841 -0.0963 -0.3454
 3677TIP3   OH211036   2.934   1.063   0.107  0.2896 -0.4508  0.0112
 3677TIP3    H111037   2.877   1.138   0.123  0.8769 -0.2361  1.2581
 3677TIP3    H211038   2.893   0.990   0.154  1.8877  0.1148  2.4342
 3678TIP3   OH211039   3.744   1.551   0.371  0.0107 -0.8051  0.1318
 3678TIP3    H111040   3.741   1.618   0.439 -0.5869  0.5867 -1.1979
 3678TIP3    H211041   3.807   1.487   0.403  1.7522  1.1431  0.8112
 3679TIP3   OH211042   1.774   4.418   5.075  0.0050 -0.1690  0.5326
 3679TIP3    H111043   1.732   4.491   5.121 -0.7763  0.2479 -0.7966
 3679TIP3    H211044   1.703   4.358   5.056  0.4616 -0.7351  0.5902
 3680TIP3   OH211045   0.050   3.110   1.779 -0.0987  0.1516 -0.5147
 3680TIP3    H111046  -0.027   3.100   1.835  0.3287  1.8769  0.4590
 3680TIP3    H211047   0.124   3.108   1.840  0.4303  1.2730 -1.0969
 3681TIP3   OH211048   1.821   1.591   0.457  0.3727  0.2200  0.2451
 3681TIP3    H111049   1.862   1.560   0.376 -0.4698  0.8982 -0.4538
 3681TIP3    H211050   1.857   1.534   0.525  2.7794  0.9920 -0.2529
 3682TIP3   OH211051   5.419   1.854   4.760  0.1152 -0.3104  0.4399
 3682TIP3    H111052   5.475   1.868   4.684  1.3121 -0.4172  1.2817
 3682TIP3    H211053   5.360   1.782   4.733 -0.0807  0.2477 -0.6795
 3683TIP3   OH211054   0.315   2.884   1.639  0.1716 -0.4153  0.3216
 3683TIP3    H111055   0.288   2.801   1.679 -1.3485 -0.7486 -1.2991
 3683TIP3    H211056   0.292   2.875   1.547  0.6381  1.5485 -0.0271
 3684TIP3   OH211057   4.411   2.857   1.669  0.4185  0.1202 -0.2019
 3684TIP3    H111058   4.457   2.929   1.626  1.3726 -1.6148 -2.2738
 3684TIP3    H211059   4.458   2.778   1.642 -1.6095 -1.4469  0.5375
 3685TIP3   OH211060   2.327   1.242   1.150 -0.2394 -0.4581 -0.0886
 3685TIP3    H111061   2.249   1.293   1.174  0.5117 -0.0334  1.5195
 3685TIP3    H211062   2.370   1.222   1.233  1.1888 -1.0023 -0.9230
 3686TIP3   OH211063   3.996   3.122   2.544  0.8196  0.3547 -0.5363
 3686TIP3    H111064   4.041   3.183   2.602  0.9052  0.3288 -0.5761
 3686TIP3    H211065   3.969   3.176   2.469  1.3017  0.2515 -0.7909
 3687TIP3   OH211066   0.442   1.666   4.371  0.3643 -0.4022 -0.0100
 3687TIP3    H111067   0.403   1.618   4.444 -0.5301  0.5252  0.1536
 3687TIP3    H211068   0.535   1.674   4.395  0.0244  0.1641  1.1992
 3688TIP3   OH211069   4.423   2.369   4.273  0.4768 -0.3010 -0.1337
 3688TIP3    H111070   4.363   2.294   4.268  0.9331 -0.6914  0.1594
 3688TIP3    H211071   4.442   2.389   4.181 -0.8583  0.4525 -0.2661
 3689TIP3   OH211072   1.345   2.396   0.367 -0.0686  0.0517 -0.4386
 3689TIP3    H111073   1.431   2.418   0.332  0.6642  0.9943  1.8048
 3689TIP3    H211074   1.361   2.321   0.425 -0.5227  0.9397  0.8695
 3690TIP3   OH211075   1.807   4.317   3.635  0.1049 -0.3983  0.5649
 3690TIP3    H111076   1.867   4.334   3.708 -0.6923  1.1256  0.8959
 3690TIP3    H211077   1.741   4.258   3.671  0.5724 -0.9017  0.6150
 3691TIP3   OH211078   3.420   1.209   3.126  0.7214 -0.5181  0.1561
 3691TIP3    H111079   3.334   1.223   3.164  0.3694  0.2919 -0.8935
 3691TIP3    H211080   3.410   1.131   3.072 -0.3631  1.4610 -2.7145
 3692TIP3   OH211081   3.699   2.722   4.767  0.1088  0.5675 -0.1923
 3692TIP3    H111082   3.707   2.671   4.687 -1.5450  1.4531 -0.9786
 3692TIP3    H211083   3.702   2.813   4.738 -0.3252  0.9043  0.7537
 3693TIP3   OH211084   0.650   1.370   4.395 -0.1911  0.3627  0.0585
 3693TIP3    H111085   0.591   1.356   4.321  0.1329 -1.2379  0.0499
 3693TIP3    H211086   0.737   1.371   4.356 -0.1556  2.2907  0.1206
 3694TIP3   OH211087   4.120   5.355   4.971  0.5773  0.3053  0.1099
 3694TIP3    H111088   4.124   5.298   4.895  0.0140 -0.4605  0.6387
 3694TIP3    H211089   4.155   5.438   4.941  0.7074 -0.0996 -0.8800
 3695TIP3   OH211090   5.400   4.123   2.510 -0.2478  0.9557  0.5002
 3695TIP3    H111091   5.332   4.156   2.568 -0.2571  0.5437  0.7233
 3695TIP3    H211092   5.482   4.139   2.557 -0.3463 -0.9429  1.4264
 3696TIP3   OH211093   2.627   1.349   1.302  0.0793 -0.1705 -0.1656
 3696TIP3    H111094   2.572   1.287   1.350 -0.0764 -0.6537 -0.9495
 3696TIP3    H211095   2.674   1.397   1.370 -0.3799 -0.6161  0.4760
 3697TIP3   OH211096   0.294   0.064   3.392  0.3250 -0.4563  0.4039
 3697TIP3    H111097   0.231   0.119   3.346  1.0321 -0.7449 -0.9762
 3697TIP3    H211098   0.376   0.076   3.344  0.8871 -1.4482  1.0635
 3698TIP3   OH211099   3.876   2.834   3.010 -0.4948 -0.0043  0.4531
 3698TIP3    H111100   3.920   2.790   3.083  3.5574 -0.6561 -2.0342
 3698TIP3    H211101   3.846   2.917   3.047 -0.8478 -1.2782  3.3432
 3699TIP3   OH211102   0.506   2.830   0.317 -0.3069 -0.3965 -0.4794
 3699TIP3    H111103   0.534   2.893   0.251 -0.0459  0.4425  0.4036
 3699TIP3    H211104   0.547   2.861   0.398 -1.4249 -0.8222  0.2712
 3700TIP3   OH211105   0.535   5.742  -0.000  0.1953 -0.3369  0.5020
 3700TIP3    H111106   0.446   5.759   0.032  0.2265 -1.5283  1.2993
 3700TIP3    H211107   0.544   5.647   0.007  1.5594 -0.2195  0.4789
 3701TIP3   OH211108   2.858   0.757   4.701  0.4453 -0.1484  0.0166
 3701TIP3    H111109   2.872   0.673   4.657  0.2203 -1.6357  2.5783
 3701TIP3    H211110   2.944   0.779   4.738  0.1223 -0.1242  0.7632
 3702TIP3   OH211111   4.071   5.134   3.931  0.0971  0.3883 -0.0066
 3702TIP3    H111112   4.084   5.194   4.004 -0.9456 -0.8826  1.2845
 3702TIP3    H211113   4.088   5.187   3.853  1.4233  1.7339  1.1351
 3703TIP3   OH211114   4.745   0.402   4.572 -0.4809 -0.0938  0.7691
 3703TIP3    H111115   4.748   0.365   4.660  1.2900 -0.1689  0.7101
 3703TIP3    H211116   4.751   0.496   4.586 -0.4737 -0.0900  0.7395
 3704TIP3   OH211117   2.411   2.783   0.101 -0.1628  0.0101  0.4967
 3704TIP3    H111118   2.362   2.718   0.049 -1.4099  0.6594  0.8187
 3704TIP3    H211119   2.456   2.837   0.036  1.3643 -1.4805  0.2297
 3705TIP3   OH211120   6.113   5.926   1.124  0.1758 -0.1138  0.1310
 3705TIP3    H111121   6.186   5.944   1.183  0.4355 -0.7004 -0.0058
 3705TIP3    H211122   6.056   5.867   1.173 -0.2274  0.3648  0.2490
 3706TIP3   OH211123   5.773   5.823   0.798 -0.6109 -0.1146  0.2343
 3706TIP3    H111124   5.775   5.918   0.792  0.6298 -0.2173 -2.5037
 3706TIP3    H211125   5.855   5.800   0.843 -0.6437  0.0994  0.4025
 3707TIP3   OH211126   2.218   5.277   4.788  0.2174 -0.0262 -0.1544
 3707TIP3    H111127   2.255   5.282   4.699  0.9964 -1.8742  0.0235
 3707TIP3    H211128   2.291   5.302   4.845  0.4004 -0.9966  0.0552
 3708TIP3   OH211129   4.122   5.195   1.076  0.3066  0.1865  0.4725
 3708TIP3    H111130   4.109   5.252   1.152  2.0695  1.8129 -0.3661
 3708TIP3    H211131   4.217   5.186   1.068  0.1147 -1.4845 -0.4738
 3709TIP3   OH211132   3.151   2.421   4.172 -0.4797  0.5280 -0.1534
 3709TIP3    H111133   3.222   2.443   4.231 -1.0211  0.6529  0.4592
 3709TIP3    H211134   3.116   2.506   4.144 -0.2140  0.4703 -0.6679
 3710TIP3   OH211135   3.114   1.697   1.418  0.0094  0.2181 -0.1314
 3710TIP3    H111136   3.150   1.609   1.405  1.7898  1.0938 -1.5950
 3710TIP3    H211137   3.035   1.698   1.365  0.3934 -0.2695 -0.7304
 3711TIP3   OH211138   1.834   0.492   4.765  0.0232 -0.5239 -0.1567
 3711TIP3    H111139   1.772   0.492   4.692 -0.3589  0.9300  0.1312
 3711TIP3    H211140   1.914   0.528   4.728  0.4538 -1.6113 -0.3182
 3712TIP3   OH211141   5.152  -0.013   0.470  0.1163  0.1800  0.2346
 3712TIP3    H111142   5.110   0.006   0.387  0.3820 -1.2672 -0.2603
 3712TIP3    H211143   5.212   0.060   0.485  0.9547 -0.1384 -1.4418
 3713TIP3   OH211144   3.493   1.667   5.146  0.0362  0.2111  0.1284
 3713TIP3    H111145   3.518   1.690   5.236  2.1547  0.6724 -0.5251
 3713TIP3    H211146   3.468   1.751   5.107 -0.4799  0.0731  0.1588
 3714TIP3   OH211147   1.910   2.063   3.429  0.1038 -0.0220  0.2625
 3714TIP3    H111148   1.924   2.090   3.520 -0.8354  0.4051  0.2859
 3714TIP3    H211149   1.985   2.099   3.382 -0.1403  0.9932  0.6263
 3715TIP3   OH211150   6.225   5.473   0.023 -0.1073  0.3059 -0.0483
 3715TIP3    H111151   6.216   5.509   0.111  0.2644 -0.3978  0.2906
 3715TIP3    H211152   6.136   5.453  -0.005 -0.3850  2.1148 -0.5310
 3716TIP3   OH211153   5.607   4.866   2.560  0.2732  0.6835  0.0741
 3716TIP3    H111154   5.536   4.817   2.602  0.9850  1.0549  1.7733
 3716TIP3    H211155   5.583   4.867   2.467 -0.5553 -1.5060  0.2083
 3717TIP3   OH211156   0.118   5.162   0.990  0.7549 -0.1055  0.6508
 3717TIP3    H111157   0.172   5.092   1.025 -0.1774 -0.3981  1.5719
 3717TIP3    H211158   0.157   5.242   1.025  0.1709 -0.3613  1.9577
 3718TIP3   OH211159   5.706   5.263   4.179 -0.1182 -0.3538 -0.0311
 3718TIP3    H111160   5.751   5.344   4.203  0.1138 -0.5532  0.2175
 3718TIP3    H211161   5.620   5.292   4.148  0.0986  0.0137 -0.2993
 3719TIP3   OH211162   0.596   3.142   0.959  0.1348  0.4820  0.2385
 3719TIP3    H111163   0.591   3.178   1.048 -0.0808  1.0824 -0.0143
 3719TIP3    H211164   0.571   3.051   0.969 -0.6683  0.7448  0.6761
 3720TIP3   OH211165   5.342   3.642   4.895  0.0793 -0.2844  0.2644
 3720TIP3    H111166   5.433   3.664   4.916  0.0555 -1.3261  1.5539
 3720TIP3    H211167   5.347   3.554   4.857 -0.3045  0.0495 -0.5924
 3721TIP3   OH211168   3.348   5.519   4.234  0.1535  0.4437 -0.0555
 3721TIP3    H111169   3.295   5.473   4.299  1.0145 -0.6416 -0.0969
 3721TIP3    H211170   3.288   5.535   4.161  0.1409 -1.9268 -0.6488
 3722TIP3   OH211171   0.838   2.905   2.140  0.0493 -0.7977 -0.1215
 3722TIP3    H111172   0.803   2.874   2.224 -0.9258 -0.1335 -0.2675
 3722TIP3    H211173   0.766   2.890   2.078  0.2736 -0.0361 -0.5700
 3723TIP3   OH211174   0.991   2.043   4.365  0.3608  0.0856  0.0601
 3723TIP3    H111175   1.034   1.998   4.292  0.9151  1.0465 -0.2188
 3723TIP3    H211176   0.913   1.990   4.383 -0.4088  0.4614 -1.9944
 3724TIP3   OH211177   4.419   2.952   5.014  0.2742 -0.5293  0.2287
 3724TIP3    H111178   4.382   2.987   5.095  1.7402  1.5952  0.0639
 3724TIP3    H211179   4.467   2.874   5.041 -1.2775 -1.2677  0.9769
 3725TIP3   OH211180   0.119   1.293   3.573 -0.2636  0.0223 -0.2487
 3725TIP3    H111181   0.212   1.293   3.550 -0.3923 -0.8646 -0.7988
 3725TIP3    H211182   0.073   1.311   3.491 -0.6731 -2.0596 -0.5363
 3726TIP3   OH211183   3.243   3.103   3.080 -0.3634 -0.4319 -0.1117
 3726TIP3    H111184   3.202   3.026   3.041 -1.2968  0.6176 -1.2848
 3726TIP3    H211185   3.238   3.088   3.174 -1.7405 -1.1968 -0.2881
 3727TIP3   OH211186   5.524   3.508   5.129  0.2666 -0.4659 -0.4204
 3727TIP3    H111187   5.588   3.449   5.168  1.4395  0.9587 -0.1147
 3727TIP3    H211188   5.525   3.486   5.036  1.2988 -0.3812 -0.4392
 3728TIP3   OH211189   6.045   0.011   0.621 -0.0954  0.0340 -0.7570
 3728TIP3    H111190   6.031   0.057   0.704 -0.1372 -0.2324 -0.6147
 3728TIP3    H211191   5.989  -0.067   0.627  1.4921 -1.1099 -0.1297
 3729TIP3   OH211192   2.493   3.746   2.589 -0.0610  0.4250 -0.0961
 3729TIP3    H111193   2.453   3.671   2.545 -2.1027  1.7794 -0.7059
 3729TIP3    H211194   2.426   3.775   2.651  2.1506 -0.5104  2.9939
 3730TIP3   OH211195   1.237   4.989   0.046  1.1838  0.0735 -0.4084
 3730TIP3    H111196   1.225   4.895   0.037 -1.0852  0.3587 -0.9007
 3730TIP3    H211197   1.173   5.015   0.112  0.1339  1.5552 -1.9154
 3731TIP3   OH211198   3.590   1.258   2.155  0.2299 -0.1387  0.0767
 3731TIP3    H111199   3.612   1.312   2.079 -1.6600  0.2353 -0.2459
 3731TIP3    H211200   3.521   1.199   2.124 -1.7151  1.0724  1.8506
 3732TIP3   OH211201   5.550   2.206   5.015 -0.0762 -0.4710  0.4001
 3732TIP3    H111202   5.584   2.117   5.005 -0.2493 -0.5886  0.8338
 3732TIP3    H211203   5.465   2.194   5.057  0.1515 -0.0711  0.9882
 3733TIP3   OH211204   1.546   5.052   1.680 -0.1071  0.2656  0.1579
 3733TIP3    H111205   1.473   5.064   1.741 -1.2027  0.0747 -1.0704
 3733TIP3    H211206   1.559   4.957   1.676  0.2072  0.2962  0.3483
 3734TIP3   OH211207   1.435   0.211   0.107 -0.0951  0.2399 -0.0084
 3734TIP3    H111208   1.406   0.252   0.025 -0.9730  0.3865  0.3645
 3734TIP3    H211209   1.497   0.143   0.079  0.2956  0.8848 -0.7266
 3735TIP3   OH211210   0.841   3.874   3.943  0.4115 -0.4245  0.1027
 3735TIP3    H111211   0.862   3.824   3.864  0.5864 -1.0303  0.5280
 3735TIP3    H211212   0.808   3.809   4.005  2.2457 -0.3121  1.2730
 3736TIP3   OH211213   2.532   3.883   2.050 -0.0760 -0.1382  0.0064
 3736TIP3    H111214   2.569   3.820   2.111 -0.4309 -0.8338 -0.4781
 3736TIP3    H211215   2.541   3.968   2.094 -1.8060 -0.7873  1.7267
 3737TIP3   OH211216   2.801   0.911   2.808  0.5937 -0.1680 -0.5720
 3737TIP3    H111217   2.817   0.967   2.731 -0.8250  2.7172  1.0461
 3737TIP3    H211218   2.706   0.895   2.806  0.5082  0.1203  0.6320
 3738TIP3   OH211219   3.761   0.790   0.738  0.2448  0.2624 -0.2547
 3738TIP3    H111220   3.805   0.720   0.786 -0.2653 -1.1449 -1.7535
 3738TIP3    H211221   3.831   0.854   0.720  0.8968 -0.2450  0.4079
 3739TIP3   OH211222   5.749   5.201   0.761  0.2495 -0.5071 -0.8292
 3739TIP3    H111223   5.744   5.110   0.735 -0.5746 -0.4254 -0.9914
 3739TIP3    H211224   5.662   5.236   0.743 -0.1634 -0.2579  1.2917
 3740TIP3   OH211225   0.761   3.271   4.150 -0.1439 -0.3006  0.1082
 3740TIP3    H111226   0.799   3.189   4.182  2.8880  0.8807 -0.1415
 3740TIP3    H211227   0.667   3.263   4.169  0.5080 -2.3991  3.1659
 3741TIP3   OH211228   2.602   2.440   1.659 -0.1106  0.0762  0.9633
 3741TIP3    H111229   2.656   2.362   1.675 -0.9609 -0.9784 -0.8900
 3741TIP3    H211230   2.592   2.481   1.745  2.0974 -0.6807  1.6583
 3742TIP3   OH211231   0.401   2.584   0.559  0.1140  0.1421 -0.4363
 3742TIP3    H111232   0.410   2.567   0.653 -1.4614 -1.8558 -0.5714
 3742TIP3    H211233   0.405   2.679   0.551 -0.9966  0.4501  1.8331
 3743TIP3   OH211234   4.167   4.345   1.084 -0.4504 -0.3116  0.4479
 3743TIP3    H111235   4.165   4.370   0.992 -2.4338 -0.9884  0.2450
 3743TIP3    H211236   4.188   4.251   1.083 -2.3400 -0.7745  0.5020
 3744TIP3   OH211237   1.295   0.601   2.836 -0.6126  0.2300  0.0890
 3744TIP3    H111238   1.285   0.637   2.925 -0.9135  3.5715 -1.1479
 3744TIP3    H211239   1.253   0.665   2.779  1.7115 -0.5130 -2.7015
 3745TIP3   OH211240   2.491   3.425   4.197 -0.2912  0.6258 -0.6536
 3745TIP3    H111241   2.473   3.449   4.106 -0.2358  1.0833 -0.5463
 3745TIP3    H211242   2.414   3.457   4.245 -0.3991  0.2341 -0.5617
 3746TIP3   OH211243   3.724   3.347   3.142 -0.5889 -0.1628  0.3542
 3746TIP3    H111244   3.799   3.320   3.087 -0.6554  0.2907  0.0331
 3746TIP3    H211245   3.701   3.268   3.191 -0.3731 -0.5144 -0.0974
 3747TIP3   OH211246   4.311   1.211   0.135  0.7229 -0.0554  0.1393
 3747TIP3    H111247   4.330   1.144   0.070  0.0516  0.8598 -1.0559
 3747TIP3    H211248   4.215   1.209   0.143  0.6089  1.3067 -0.5749
 3748TIP3   OH211249   5.241   1.070   1.339  0.4617  0.2952 -0.0982
 3748TIP3    H111250   5.285   1.050   1.256  1.8387 -0.6428  0.8038
 3748TIP3    H211251   5.171   1.130   1.316  1.1866  0.5139 -1.8580
 3749TIP3   OH211252   5.608   3.666   3.296  0.6099  0.6040  0.6091
 3749TIP3    H111253   5.613   3.673   3.200  2.0070  0.2577  0.6353
 3749TIP3    H211254   5.540   3.729   3.321 -0.9550 -0.4678 -0.7314
 3750TIP3   OH211255   1.708   4.463   4.712 -0.0575 -0.1316 -0.0653
 3750TIP3    H111256   1.623   4.441   4.751  0.4569 -0.3772  0.9494
 3750TIP3    H211257   1.720   4.397   4.643  0.3527 -1.5685  1.3274
 3751TIP3   OH211258   3.311   2.503   2.778  0.3446 -0.6642  0.5038
 3751TIP3    H111259   3.339   2.413   2.762 -2.0622 -0.9999 -2.8860
 3751TIP3    H211260   3.377   2.558   2.735  1.0488 -0.8275  1.3426
 3752TIP3   OH211261   5.324   2.875   3.444 -0.0274 -0.3033 -0.9200
 3752TIP3    H111262   5.313   2.781   3.429 -1.0665 -0.5367  1.0311
 3752TIP3    H211263   5.334   2.883   3.539  1.0928  1.4770 -1.1451
 3753TIP3   OH211264   5.462   5.459   0.838 -0.0266 -0.2199  0.1538
 3753TIP3    H111265   5.391   5.511   0.799  1.1656  0.7454 -0.8205
 3753TIP3    H211266   5.442   5.369   0.811  0.5271  0.3556 -2.4738
 3754TIP3   OH211267   1.585   4.756   1.444  0.4095 -0.1953 -0.5511
 3754TIP3    H111268   1.648   4.810   1.491 -0.1185  0.4473 -0.5692
 3754TIP3    H211269   1.576   4.677   1.498  0.2251  0.2947  0.1424
 3755TIP3   OH211270   0.030   2.720   4.931 -0.4491  0.1587 -0.0422
 3755TIP3    H111271   0.065   2.709   4.842  1.5317  2.4180  0.3613
 3755TIP3    H211272   0.080   2.657   4.984 -3.1336 -2.8014 -0.7065
 3756TIP3   OH211273   1.428   1.451   3.295  0.0010 -0.5801 -0.2041
 3756TIP3    H111274   1.410   1.357   3.297 -2.0431 -0.2273  1.0948
 3756TIP3    H211275   1.506   1.462   3.350  0.8492 -1.6033 -1.1809
 3757TIP3   OH211276   5.368   1.344   1.057  0.8526  0.1194  0.1709
 3757TIP3    H111277   5.415   1.283   1.115  0.0255 -1.2162 -0.5212
 3757TIP3    H211278   5.321   1.402   1.117  1.0632 -0.3956  0.8475
 3758TIP3   OH211279   3.612   5.479   4.674 -0.0905 -0.1805  0.8156
 3758TIP3    H111280   3.693   5.531   4.669 -1.2303  1.6220  0.0708
 3758TIP3    H211281   3.595   5.454   4.583 -2.2470  2.6386  0.2844
 3759TIP3   OH211282   3.324   1.914   5.145  0.2858 -0.0222 -0.1178
 3759TIP3    H111283   3.302   1.979   5.078 -0.1208 -0.6095 -0.5713
 3759TIP3    H211284   3.241   1.868   5.162  0.7129 -0.8943 -0.3390
 3760TIP3   OH211285   4.056   0.714   4.490  0.1893  0.2868 -0.3574
 3760TIP3    H111286   4.022   0.701   4.579  0.2972 -0.8473 -0.4679
 3760TIP3    H211287   4.149   0.693   4.497  0.1769  0.0844 -0.7573
 3761TIP3   OH211288   6.049   4.701   2.218  0.7757  0.7263  0.3256
 3761TIP3    H111289   6.040   4.629   2.156 -1.0798  1.6986 -0.6053
 3761TIP3    H211290   5.960   4.716   2.251  1.5608  0.8537  2.5637
 3762TIP3   OH211291   2.590   3.703   2.255  0.5134 -0.4162  0.4258
 3762TIP3    H111292   2.649   3.723   2.328 -1.6631  0.1820  2.1279
 3762TIP3    H211293   2.578   3.608   2.259  0.7600 -0.4419  0.5600
 3763TIP3   OH211294   0.934   1.909   0.907 -0.7811 -0.3750 -0.6110
 3763TIP3    H111295   0.884   1.953   0.839 -0.6006  1.3404  0.3027
 3763TIP3    H211296   0.874   1.902   0.981 -0.0219  0.8539  0.1726
 3764TIP3   OH211297   1.210   4.352   4.081 -0.0611 -0.1467  0.0229
 3764TIP3    H111298   1.241   4.303   4.156 -1.0637 -0.5944  0.1548
 3764TIP3    H211299   1.185   4.438   4.116 -0.6338 -0.3934  0.2319
 3765TIP3   OH211300   1.156   3.396   0.030  0.4927  0.5175 -0.5863
 3765TIP3    H111301   1.171   3.477   0.078 -0.6766  0.7527 -0.5966
 3765TIP3    H211302   1.089   3.350   0.079 -1.4904  1.2271 -2.4442
 3766TIP3   OH211303   1.541   3.853   2.012  0.4953 -0.2602  0.1435
 3766TIP3    H111304   1.488   3.933   2.014 -0.7328 -1.0492  2.3859
 3766TIP3    H211305   1.631   3.885   2.005  0.0264  1.3595  0.9081
 3767TIP3   OH211306   0.089   3.777   4.596  0.0602  0.2268  0.2834
 3767TIP3    H111307   0.079   3.745   4.507  1.5101 -1.8264  0.7801
 3767TIP3    H211308   0.116   3.868   4.586 -0.4424  0.2259 -1.3404
 3768TIP3   OH211309   0.729   4.610   2.415 -0.5229 -0.1484 -0.0707
 3768TIP3    H111310   0.775   4.694   2.423  0.2326 -0.6880  1.7729
 3768TIP3    H211311   0.778   4.562   2.348  0.0649  0.2312  0.0828
 3769TIP3   OH211312   3.541   2.802   1.709 -0.4242  0.1393  0.4268
 3769TIP3    H111313   3.486   2.834   1.638  2.1054  3.0825 -0.4028
 3769TIP3    H211314   3.595   2.733   1.669 -1.2060 -0.4600  0.3886
 3770TIP3   OH211315   2.068   2.475   1.063 -0.1910 -0.6526  0.3503
 3770TIP3    H111316   1.997   2.433   1.014 -0.6850 -0.2157  0.6885
 3770TIP3    H211317   2.030   2.492   1.149  0.0324  0.4152  0.2437
 3771TIP3   OH211318   3.665   5.442   1.329 -0.0557 -0.5535 -0.5561
 3771TIP3    H111319   3.715   5.408   1.255  0.0502 -1.6311 -0.0158
 3771TIP3    H211320   3.581   5.395   1.323 -0.0300 -0.6739  0.0209
 3772TIP3   OH211321   3.992   0.065   0.655 -0.4096 -0.6016 -0.2844
 3772TIP3    H111322   3.989   0.157   0.628 -3.7554 -0.3765  0.4412
 3772TIP3    H211323   3.924   0.023   0.603 -0.9170 -2.0524  1.4647
 3773TIP3   OH211324   6.288   5.063   3.330  0.0033  0.5531 -0.0217
 3773TIP3    H111325   6.245   5.065   3.416 -0.2101 -2.0451  0.0311
 3773TIP3    H211326   6.382   5.062   3.352 -0.0502 -0.1665  0.2062
 3774TIP3   OH211327   2.176   4.839   1.925  0.5048  0.4007  0.0337
 3774TIP3    H111328   2.248   4.777   1.915  1.0045  0.7335  1.3744
 3774TIP3    H211329   2.100   4.793   1.888  1.0979 -0.5439 -0.0526
 3775TIP3   OH211330   6.141   0.863   2.844  0.2180  0.0977 -0.2849
 3775TIP3    H111331   6.074   0.873   2.911  1.8390  0.2874  1.4137
 3775TIP3    H211332   6.164   0.770   2.847  1.0119  0.2964  0.1942
 3776TIP3   OH211333   0.471   4.995   0.955  0.4461 -0.2866  0.3859
 3776TIP3    H111334   0.391   4.979   1.004  0.0982 -2.0759 -0.6735
 3776TIP3    H211335   0.443   5.046   0.879  0.2319 -1.1572 -0.1345
 3777TIP3   OH211336   1.188   3.185   4.959 -0.4472  0.9530 -0.1350
 3777TIP3    H111337   1.216   3.134   4.882 -0.2571 -1.2860  1.3270
 3777TIP3    H211338   1.152   3.266   4.922 -1.9737 -0.7490 -2.7184
 3778TIP3   OH211339   0.724   0.198   1.937 -0.0511 -0.2777 -0.5682
 3778TIP3    H111340   0.812   0.162   1.947 -0.0494 -0.3132 -0.7131
 3778TIP3    H211341   0.667   0.136   1.982  0.2377  0.9076  1.6039
 3779TIP3   OH211342   4.491   4.473   4.826  0.2974 -0.1828  0.0323
 3779TIP3    H111343   4.460   4.401   4.880 -0.8176 -0.5221 -1.0249
 3779TIP3    H211344   4.498   4.436   4.738 -0.5759  1.0664 -0.5805
 3780TIP3   OH211345   4.917   0.863   1.397  0.2309 -0.0970 -0.1954
 3780TIP3    H111346   4.845   0.925   1.408  0.8264  0.9486 -1.8464
 3780TIP3    H211347   4.981   0.909   1.343  0.7949 -2.0470 -1.3288
 3781TIP3   OH211348   0.752   4.038   4.150 -0.3009  0.3512  1.1027
 3781TIP3    H111349   0.798   4.011   4.070  0.1931  0.2274  1.4233
 3781TIP3    H211350   0.676   3.981   4.154 -0.2830  0.3021  0.7601
 3782TIP3   OH211351   4.325   1.170   1.206  0.4126  0.6635  0.1718
 3782TIP3    H111352   4.242   1.124   1.218  0.9743 -0.5170 -0.3608
 3782TIP3    H211353   4.367   1.166   1.292 -0.4184  2.0045  0.6755
 3783TIP3   OH211354   4.202   1.980   0.323  0.3564 -0.1327 -0.6074
 3783TIP3    H111355   4.250   1.899   0.307  0.1462 -0.5701  0.8126
 3783TIP3    H211356   4.268   2.042   0.353  0.0102 -1.0583  2.4514
 3784TIP3   OH211357   2.495   4.986   2.768  0.1963 -0.5739 -0.0951
 3784TIP3    H111358   2.545   4.929   2.710  0.0818  1.2054 -2.0507
 3784TIP3    H211359   2.559   5.051   2.799  0.0567 -0.9752  1.0845
 3785TIP3   OH211360   3.171   0.197   0.938 -0.0066  0.1670  0.4589
 3785TIP3    H111361   3.212   0.143   1.005 -0.8804  1.2188  1.8819
 3785TIP3    H211362   3.127   0.135   0.880  0.4590 -0.7329  1.0536
 3786TIP3   OH211363   0.573   2.391   2.853 -0.1672  0.3041  0.7463
 3786TIP3    H111364   0.653   2.344   2.873 -0.3387 -0.3910 -0.1457
 3786TIP3    H211365   0.505   2.323   2.849 -0.5524  0.7097  0.1701
 3787TIP3   OH211366   5.098   3.500   3.635  0.2412 -0.3182 -0.5580
 3787TIP3    H111367   5.150   3.560   3.687 -1.0426  0.2804  0.0580
 3787TIP3    H211368   5.012   3.499   3.676 -0.1320 -1.6336 -1.2843
 3788TIP3   OH211369   5.579   2.810   4.898  0.0557  0.2143  0.1016
 3788TIP3    H111370   5.634   2.755   4.953  1.1108  0.5779 -0.5535
 3788TIP3    H211371   5.507   2.753   4.871 -0.0813 -0.1711  1.2440
 3789TIP3   OH211372   2.961   1.371   0.023  0.0406  0.1804 -0.0223
 3789TIP3    H111373   2.868   1.360   0.001 -0.0680  0.8289  0.0862
 3789TIP3    H211374   2.987   1.452  -0.021 -0.3356  1.8243  2.5559
 3790TIP3   OH211375   3.763   3.961   3.923 -0.1202  0.3027  0.1355
 3790TIP3    H111376   3.828   3.913   3.974  0.3799  1.2328  0.3870
 3790TIP3    H211377   3.814   4.017   3.865 -0.6768  1.2766  0.5545
 3791TIP3   OH211378   4.449   4.170   1.568 -0.0082 -0.1778  0.2362
 3791TIP3    H111379   4.467   4.224   1.645  1.4391 -0.5874  0.2219
 3791TIP3    H211380   4.482   4.221   1.494 -0.1841 -0.3507  0.0351
 3792TIP3   OH211381   4.041   5.993   2.662  0.0510  0.3397  0.1514
 3792TIP3    H111382   4.118   5.937   2.660  0.5294  0.9803  0.1070
 3792TIP3    H211383   4.023   6.011   2.570  0.5641  1.1314  0.1948
 3793TIP3   OH211384   5.158   0.458   3.481 -0.0128 -0.3707  0.3405
 3793TIP3    H111385   5.176   0.527   3.417  1.2195 -0.9594  0.0122
 3793TIP3    H211386   5.093   0.402   3.439  1.8854 -1.6110 -1.0970
 3794TIP3   OH211387   5.310   2.576   5.168 -0.0042 -0.2242 -0.3313
 3794TIP3    H111388   5.326   2.514   5.239  0.5805  1.0572  0.6999
 3794TIP3    H211389   5.353   2.536   5.092  1.2017 -0.6433  0.5267
 3795TIP3   OH211390   4.561   4.777   0.938  0.3582  0.4711 -0.3381
 3795TIP3    H111391   4.633   4.716   0.950 -0.0754  0.0757  0.2804
 3795TIP3    H211392   4.493   4.726   0.894 -0.1072  0.4279  0.4257
 3796TIP3   OH211393   2.598   0.239   4.500  0.5252  0.1619 -0.6475
 3796TIP3    H111394   2.682   0.193   4.509  0.8850 -0.0576 -3.8476
 3796TIP3    H211395   2.532   0.174   4.525  1.2091  0.0789  1.1193
 3797TIP3   OH211396   3.122   1.502   0.746  0.1991 -0.0553 -0.1614
 3797TIP3    H111397   3.174   1.443   0.801  0.2473 -0.1448 -0.3041
 3797TIP3    H211398   3.070   1.444   0.691  0.1918  0.0351 -0.2497
 3798TIP3   OH211399   3.757   4.355   2.618 -0.1751  0.0438 -0.4885
 3798TIP3    H111400   3.846   4.327   2.597  0.5173  1.1164  0.8586
 3798TIP3    H211401   3.731   4.408   2.543  1.6208  2.4497  0.4472
 3799TIP3   OH211402   6.051   5.856   4.063 -0.0927 -0.6497  0.2117
 3799TIP3    H111403   6.145   5.844   4.073  0.1106  0.8880  0.3997
 3799TIP3    H211404   6.021   5.777   4.019  1.2376 -1.2890  0.4176
 3800TIP3   OH211405   5.818   0.473   1.878 -0.0277 -0.1177 -0.2613
 3800TIP3    H111406   5.800   0.559   1.914 -1.0114 -0.4082 -0.0533
 3800TIP3    H211407   5.912   0.461   1.891  0.1523  0.9851 -0.4464
 3801TIP3   OH211408   0.196   5.445   2.310  0.0521  0.2928 -0.5124
 3801TIP3    H111409   0.239   5.515   2.261 -1.7980  1.1985 -0.9606
 3801TIP3    H211410   0.191   5.478   2.400  0.6393  0.0126 -0.3755
 3802TIP3   OH211411   2.388   1.471   2.109  0.0064 -0.2072 -0.0779
 3802TIP3    H111412   2.357   1.494   2.196  1.7525 -0.8120  0.7388
 3802TIP3    H211413   2.482   1.460   2.118  0.1198 -1.1649 -1.8524
 3803TIP3   OH211414   5.523   4.866   3.220  0.1775 -0.3700  0.0403
 3803TIP3    H111415   5.534   4.809   3.144 -2.9751  1.6662 -2.1885
 3803TIP3    H211416   5.429   4.864   3.238  0.3732  1.8206  1.7214
 3804TIP3   OH211417   2.148   4.024   3.694 -0.6797 -0.5030 -0.0430
 3804TIP3    H111418   2.114   4.102   3.738  0.3283 -0.5552  0.8637
 3804TIP3    H211419   2.236   4.049   3.666 -0.6017 -1.1017 -0.3458
 3805TIP3   OH211420   3.451   0.893   0.441  0.3224  0.3201  0.4040
 3805TIP3    H111421   3.398   0.847   0.376  1.4237 -1.8992  0.9616
 3805TIP3    H211422   3.428   0.853   0.525  2.1271 -0.0637  0.7752
 3806TIP3   OH211423   6.279   5.147   3.934  0.2280  0.1655 -0.0744
 3806TIP3    H111424   6.320   5.075   3.983 -0.9981 -1.0745 -0.7871
 3806TIP3    H211425   6.337   5.161   3.860  0.2151 -0.4658 -0.2142
 3807TIP3   OH211426   3.900   1.323   2.041 -0.4400  0.0427 -0.3486
 3807TIP3    H111427   3.925   1.257   1.976 -0.4566  0.7296 -1.0640
 3807TIP3    H211428   3.831   1.373   1.998 -2.3650 -1.1470  1.1800
 3808TIP3   OH211429   4.015   2.555   1.345  0.1121 -0.2917 -0.8931
 3808TIP3    H111430   3.986   2.634   1.391 -0.2032 -0.5320 -0.6685
 3808TIP3    H211431   3.950   2.488   1.369  1.6705 -1.2683  0.8617
 3809TIP3   OH211432   5.958   0.791   5.189 -0.0397  0.0040  0.2587
 3809TIP3    H111433   5.942   0.835   5.105 -0.7905 -1.7980 -0.5919
 3809TIP3    H211434   6.043   0.823   5.217  0.2531  0.6033 -1.2225
 3810TIP3   OH211435   5.203   2.857   0.630  0.0266 -0.2076 -0.4169
 3810TIP3    H111436   5.288   2.869   0.671  0.5449 -1.4087 -1.0802
 3810TIP3    H211437   5.218   2.875   0.537 -0.2145 -1.3293 -0.6875
 3811TIP3   OH211438   3.761   4.937   4.094  0.0115  0.0695  0.0901
 3811TIP3    H111439   3.694   4.869   4.088  0.4335 -0.5406  1.6184
 3811TIP3    H211440   3.777   4.947   4.188  2.2891 -0.0669 -0.2081
 3812TIP3   OH211441   6.166   0.015   3.536 -0.5866  0.9196  0.0086
 3812TIP3    H111442   6.110   0.038   3.610 -0.8200  0.7383 -0.1097
 3812TIP3    H211443   6.243   0.071   3.546 -0.6550  0.9579  0.3387
 3813TIP3   OH211444   4.368   1.104   4.851 -0.3927  0.6713 -0.0893
 3813TIP3    H111445   4.289   1.067   4.811 -1.2358  1.7821  0.5061
 3813TIP3    H211446   4.342   1.126   4.940  1.0955 -0.5462  0.7034
 3814TIP3   OH211447   0.438   3.036   3.066 -0.0726 -0.0440 -0.1483
 3814TIP3    H111448   0.451   3.061   3.158 -0.4750  1.1217 -0.3939
 3814TIP3    H211449   0.526   3.022   3.033  0.1727  0.8676  0.0714
 3815TIP3   OH211450   3.779   4.360   1.190 -0.4940  0.1937 -0.1099
 3815TIP3    H111451   3.842   4.342   1.260 -0.0558 -0.0924 -0.5759
 3815TIP3    H211452   3.816   4.317   1.113 -0.4978  1.2897 -0.7391
 3816TIP3   OH211453   0.891   2.923   3.597 -0.0490 -0.4652  0.5033
 3816TIP3    H111454   0.887   2.917   3.693  1.8125  1.0857  0.7491
 3816TIP3    H211455   0.843   3.003   3.576  1.1893  0.2565  0.3553
 3817TIP3   OH211456   6.314   3.421   1.795  0.2327 -0.1744 -0.2220
 3817TIP3    H111457   6.364   3.347   1.759 -0.4433 -1.2241  0.8786
 3817TIP3    H211458   6.227   3.411   1.758  0.7935  1.7665 -2.2896
 3818TIP3   OH211459   0.470   5.831   1.515 -0.7165  0.1733  0.1248
 3818TIP3    H111460   0.452   5.834   1.421 -1.3670 -0.1869  0.2325
 3818TIP3    H211461   0.489   5.921   1.539 -0.2251  0.2186 -0.4108
 3819TIP3   OH211462   3.507   3.522   0.574 -0.0901  0.3914  0.2925
 3819TIP3    H111463   3.431   3.468   0.595  0.6130 -0.5516  0.4919
 3819TIP3    H211464   3.569   3.462   0.533  0.8184  0.9874  0.7463
 3820TIP3   OH211465   6.355   5.839   4.872  0.4372 -0.2007 -0.1236
 3820TIP3    H111466   6.347   5.882   4.787 -1.7863  0.2290  0.2361
 3820TIP3    H211467   6.274   5.788   4.881  1.8480 -2.4475  0.5825
 3821TIP3   OH211468   5.354   5.501   2.596 -0.0494  0.3186  0.0722
 3821TIP3    H111469   5.295   5.427   2.581  0.9196 -0.1565 -1.5838
 3821TIP3    H211470   5.389   5.522   2.510  3.4666 -0.4815  1.1384
 3822TIP3   OH211471   6.032   3.834   3.811  0.2049  0.5566 -0.0547
 3822TIP3    H111472   5.992   3.753   3.778  1.5721 -0.4220  0.5992
 3822TIP3    H211473   6.044   3.888   3.733  0.2736 -0.3286 -0.6764
 3823TIP3   OH211474   5.330   5.035   4.187 -0.6656  0.1878  0.0320
 3823TIP3    H111475   5.344   5.025   4.093  1.2780  0.4874  0.2560
 3823TIP3    H211476   5.313   5.129   4.198 -0.9898  0.1373 -0.0145
 3824TIP3   OH211477   0.719   5.884   2.403  0.1620  0.0578 -0.3623
 3824TIP3    H111478   0.711   5.815   2.336 -3.0269 -0.3564  0.2617
 3824TIP3    H211479   0.666   5.956   2.369 -0.7054  0.2163  1.2527
 3825TIP3   OH211480   0.314   3.666   0.197  0.0135 -0.1907 -0.5260
 3825TIP3    H111481   0.275   3.606   0.260 -1.7388  0.6996 -0.6932
 3825TIP3    H211482   0.312   3.619   0.114 -0.4259 -0.2868 -0.4660
 3826TIP3   OH211483   1.924   1.507   2.927 -0.3910 -0.2242  0.4567
 3826TIP3    H111484   1.922   1.537   3.018  2.0381 -0.5176  0.6715
 3826TIP3    H211485   1.975   1.426   2.930  0.5325  0.2448 -1.2599
 3827TIP3   OH211486   1.737   2.266   1.973  0.2251 -0.6111 -0.7412
 3827TIP3    H111487   1.801   2.239   1.907  0.9904  2.1148 -1.2788
 3827TIP3    H211488   1.656   2.280   1.923  0.7974  1.4266 -1.2011
 3828TIP3   OH211489   4.410   4.570   4.568  0.1529 -0.6306 -0.2102
 3828TIP3    H111490   4.342   4.633   4.591  1.1143  0.6991 -0.8699
 3828TIP3    H211491   4.373   4.520   4.495  0.8225  1.9523 -2.4792
 3829TIP3   OH211492   3.732   1.475   1.613  0.7477  0.3254  0.0633
 3829TIP3    H111493   3.717   1.429   1.696  0.2223 -0.3471 -0.4016
 3829TIP3    H211494   3.731   1.407   1.546  0.1847  0.9809 -0.6119
 3830TIP3   OH211495   1.511   1.697   4.726 -0.4165 -1.0867  0.3569
 3830TIP3    H111496   1.602   1.706   4.698 -0.4698 -0.4266  0.3787
 3830TIP3    H211497   1.475   1.627   4.671  0.1230 -1.3962  0.3998
 3831TIP3   OH211498   3.180   2.440   3.532  0.6062  0.0667 -1.1021
 3831TIP3    H111499   3.215   2.370   3.587  1.0734 -0.6138 -2.2346
 3831TIP3    H211500   3.116   2.397   3.476 -1.7479  1.2012  0.5675
 3832TIP3   OH211501   5.793   0.575   3.619  0.2819  0.0419  0.4327
 3832TIP3    H111502   5.827   0.499   3.572 -1.6298 -0.8615  0.4130
 3832TIP3    H211503   5.782   0.643   3.551  0.7338 -0.1167  0.2007
 3833TIP3   OH211504   2.865   3.080   2.868  0.0810  0.1677 -0.0405
 3833TIP3    H111505   2.930   3.150   2.862 -2.3398  2.4872 -0.8620
 3833TIP3    H211506   2.833   3.085   2.959 -0.4612  0.5290 -0.2430
 3834TIP3   OH211507   0.034   1.305   3.902  0.0442  0.3403 -0.2032
 3834TIP3    H111508   0.019   1.397   3.925 -1.5184  0.0000  0.2584
 3834TIP3    H211509   0.066   1.265   3.982 -0.0885  0.3141 -0.1622
 3835TIP3   OH211510   6.099   2.990   0.513 -0.2922 -0.3194 -0.5968
 3835TIP3    H111511   6.105   2.920   0.448  2.9363 -0.2032 -0.5653
 3835TIP3    H211512   6.142   3.065   0.472 -2.5892  1.3883 -0.1452
 3836TIP3   OH211513   3.467   1.650   0.455 -0.1066  0.0642 -0.8101
 3836TIP3    H111514   3.533   1.696   0.507  1.0376 -0.9545 -1.3038
 3836TIP3    H211515   3.514   1.575   0.418 -1.3662 -0.2828 -1.7752
 3837TIP3   OH211516   4.259   3.738   2.497 -0.0814  0.2118 -0.0285
 3837TIP3    H111517   4.350   3.759   2.476 -0.4914  2.6815  0.2673
 3837TIP3    H211518   4.224   3.819   2.535 -1.7501 -1.3909  2.1630
 3838TIP3   OH211519   2.659   1.833   0.504  0.1333 -0.5903  0.5734
 3838TIP3    H111520   2.697   1.747   0.518  1.7140 -0.0075  0.1128
 3838TIP3    H211521   2.728   1.883   0.461 -0.8982  0.7798  0.4292
 3839TIP3   OH211522   2.311   5.691   1.479  0.0973  0.2221  0.3403
 3839TIP3    H111523   2.240   5.735   1.526 -0.9812 -1.2244  0.1329
 3839TIP3    H211524   2.325   5.743   1.400 -1.7292 -0.2272 -0.3210
 3840TIP3   OH211525   1.720   4.227   2.596  0.0342  0.2517  0.6780
 3840TIP3    H111526   1.776   4.201   2.669  0.9524 -1.0608 -0.4457
 3840TIP3    H211527   1.737   4.321   2.586  1.4396  0.0495  0.8879
 3841TIP3   OH211528   0.451   3.962   4.021  0.0526  0.5505  0.4221
 3841TIP3    H111529   0.433   3.940   3.930  1.1277 -0.6561  0.4689
 3841TIP3    H211530   0.434   3.881   4.069  3.0570  0.0291  0.7690
 3842TIP3   OH211531   3.281   4.833   2.097 -0.2324  0.4153  0.0302
 3842TIP3    H111532   3.300   4.749   2.139  1.1649 -0.0782 -1.4836
 3842TIP3    H211533   3.366   4.878   2.093 -0.5933  1.0491 -0.9577
 3843TIP3   OH211534   1.872   4.899   4.186  0.2895 -0.0900 -0.5464
 3843TIP3    H111535   1.944   4.952   4.154 -0.8458  1.4233 -0.7088
 3843TIP3    H211536   1.795   4.934   4.141 -0.4797 -2.1812 -1.0043
 3844TIP3   OH211537   2.420   5.233   4.576 -0.0554  0.5677  0.1702
 3844TIP3    H111538   2.428   5.180   4.497 -1.5961  0.3003  0.1631
 3844TIP3    H211539   2.479   5.192   4.639 -0.5680 -0.6472 -0.1129
 3845TIP3   OH211540   2.645   4.107   4.715 -0.5854 -0.2230 -0.3431
 3845TIP3    H111541   2.598   4.057   4.649 -2.0734  1.1472 -0.3646
 3845TIP3    H211542   2.607   4.194   4.711 -0.9109 -0.1540  2.4928
 3846TIP3   OH211543   1.487   2.387   4.509  0.2507 -0.8999  0.7761
 3846TIP3    H111544   1.420   2.367   4.444 -0.2932 -0.2918  1.1452
 3846TIP3    H211545   1.525   2.302   4.532 -0.1105 -1.1994  0.2689
 3847TIP3   OH211546   0.422   1.902   0.883 -0.3465  0.3796 -0.1457
 3847TIP3    H111547   0.444   1.995   0.880  0.8982  0.1483  1.0277
 3847TIP3    H211548   0.382   1.890   0.970 -0.5361 -0.1766 -0.3086
 3848TIP3   OH211549   5.252   2.906   0.371  0.2712 -0.0698 -0.4640
 3848TIP3    H111550   5.313   2.971   0.338  1.4902 -0.2267  1.2905
 3848TIP3    H211551   5.168   2.927   0.330  0.9723  1.6619 -1.0834
 3849TIP3   OH211552   5.698   0.494   4.714 -0.2518  0.0501  0.5187
 3849TIP3    H111553   5.765   0.543   4.763 -0.1054  1.3159 -0.8629
 3849TIP3    H211554   5.624   0.555   4.708 -1.3026 -1.0863  1.4524
 3850TIP3   OH211555   2.675   1.945   3.056 -0.2219 -0.0352  0.0989
 3850TIP3    H111556   2.598   1.892   3.039 -0.6376  0.2693  0.9309
 3850TIP3    H211557   2.726   1.894   3.119  0.8468 -0.7530 -1.2884
 3851TIP3   OH211558   5.237   0.589   4.880  0.0649  0.3094 -0.2340
 3851TIP3    H111559   5.288   0.652   4.930 -0.5861  0.7179 -0.0771
 3851TIP3    H211560   5.276   0.504   4.901  2.3837  0.8179 -2.1567
 3852TIP3   OH211561   0.871   3.130   0.847  1.0762  0.4369  0.3947
 3852TIP3    H111562   0.781   3.125   0.880  1.0789  2.4387  0.8500
 3852TIP3    H211563   0.863   3.174   0.762  1.7173  1.9566  1.0837
 3853TIP3   OH211564   2.170   0.039   2.993 -0.1166 -0.6499  0.0000
 3853TIP3    H111565   2.219  -0.042   3.006  0.8665 -0.3595 -1.6773
 3853TIP3    H211566   2.203   0.098   3.061 -1.2303 -1.7837  1.5860
 3854TIP3   OH211567   0.829   1.420   2.415 -0.5408  0.2675  0.2602
 3854TIP3    H111568   0.756   1.481   2.430  1.0830  1.7832  2.8649
 3854TIP3    H211569   0.860   1.398   2.503  0.5508 -2.4029 -0.6918
 3855TIP3   OH211570   2.332   2.769   3.068  0.4068 -0.3612  0.0642
 3855TIP3    H111571   2.419   2.770   3.029  0.7448  2.5034  0.7101
 3855TIP3    H211572   2.281   2.832   3.017 -0.4108  0.1989  1.4968
 3856TIP3   OH211573   1.233   2.158   1.305 -1.0164  0.3934 -0.1381
 3856TIP3    H111574   1.224   2.084   1.245  0.9043 -0.2516  0.2917
 3856TIP3    H211575   1.253   2.232   1.248  0.9741 -0.2494 -0.3654
 3857TIP3   OH211576   5.083   3.618   1.260 -0.4142 -0.4445 -0.0146
 3857TIP3    H111577   4.988   3.611   1.273 -0.2180 -0.9647  1.2538
 3857TIP3    H211578   5.120   3.599   1.346  0.7967  0.9617 -0.1947
 3858TIP3   OH211579   5.270   5.281   1.545 -0.1172  0.6465  0.5387
 3858TIP3    H111580   5.205   5.342   1.509 -0.8296 -0.1037  0.5049
 3858TIP3    H211581   5.354   5.326   1.536 -0.8027  2.4172  2.2285
 3859TIP3   OH211582   5.391   6.002   2.841 -0.4965 -0.2845 -0.1108
 3859TIP3    H111583   5.307   6.042   2.817 -1.1793 -1.1937  0.6903
 3859TIP3    H211584   5.382   5.910   2.816  1.0942  0.0178 -2.0184
 3860TIP3   OH211585   4.065   1.120   2.751 -0.0806  0.6405 -0.4392
 3860TIP3    H111586   4.077   1.214   2.739 -0.1198  0.7429  0.2895
 3860TIP3    H211587   4.146   1.080   2.717 -0.4107  0.8619 -1.5430
 3861TIP3   OH211588   0.095   3.278   0.639  0.2771 -0.7670  0.3847
 3861TIP3    H111589   0.033   3.213   0.671 -1.0507  0.4052  0.3075
 3861TIP3    H211590   0.098   3.264   0.544 -0.4382 -0.3785  0.2969
 3862TIP3   OH211591   3.477   4.460   3.440  0.2201 -0.1390  0.4119
 3862TIP3    H111592   3.421   4.524   3.395  1.1748  1.5359  1.5099
 3862TIP3    H211593   3.416   4.394   3.472 -1.0847  1.2642  0.9670
 3863TIP3   OH211594   3.793   2.762   3.935 -0.0851  0.6934  0.9298
 3863TIP3    H111595   3.791   2.750   4.030 -0.2197 -1.8380  0.6591
 3863TIP3    H211596   3.770   2.677   3.899  1.2599  1.2224 -1.4110
 3864TIP3   OH211597   5.047   3.432   0.750  0.1114 -1.1097  0.1253
 3864TIP3    H111598   4.965   3.406   0.707  0.0785 -3.8794  1.6236
 3864TIP3    H211599   5.035   3.407   0.842  1.5655  1.1943  1.0423
 3865TIP3   OH211600   2.732   3.793   3.299 -0.3288 -0.5029 -0.1142
 3865TIP3    H111601   2.812   3.742   3.313 -0.2901 -0.4079  0.0040
 3865TIP3    H211602   2.663   3.727   3.292 -0.2142 -0.5941 -0.3983
 3866TIP3   OH211603   4.552   4.477   2.919  0.6013  0.2830 -0.1901
 3866TIP3    H111604   4.609   4.424   2.974  1.5559  0.3636 -1.0800
 3866TIP3    H211605   4.578   4.456   2.830 -0.4921  0.6321 -0.6083
 3867TIP3   OH211606   4.170   3.417   3.834 -0.0873  0.2083  0.4110
 3867TIP3    H111607   4.204   3.334   3.802  0.3062 -0.3942  2.2256
 3867TIP3    H211608   4.118   3.452   3.762  1.0503 -0.8245 -0.9640
 3868TIP3   OH211609   5.156   1.053   2.982 -0.1597  0.4033 -0.0879
 3868TIP3    H111610   5.189   1.095   2.902  0.7623 -0.5704 -0.2420
 3868TIP3    H211611   5.064   1.079   2.986 -0.2155  0.5104 -1.4384
 3869TIP3   OH211612   6.017   0.458   4.125 -0.2966  0.2235 -0.3573
 3869TIP3    H111613   5.981   0.402   4.194 -1.6340 -0.7652 -1.7935
 3869TIP3    H211614   5.950   0.459   4.057  0.4423  2.2093 -1.1335
 3870TIP3   OH211615   5.178   3.973   3.938  0.0590 -0.3549 -0.0925
 3870TIP3    H111616   5.220   4.002   3.857  0.1356 -1.0495 -0.3025
 3870TIP3    H211617   5.177   4.052   3.993  1.6838 -0.3184 -0.0583
 3871TIP3   OH211618   6.240   2.513   0.246 -0.4760 -0.3894  0.4947
 3871TIP3    H111619   6.237   2.594   0.297 -1.4161  0.3442 -0.6669
 3871TIP3    H211620   6.313   2.527   0.185 -0.5776 -0.4420  0.3604
 3872TIP3   OH211621   5.095   5.558   4.392  0.3671  0.0557 -0.1967
 3872TIP3    H111622   5.144   5.596   4.465 -0.9995  1.2613  0.1406
 3872TIP3    H211623   5.073   5.633   4.337 -0.8345 -0.4918 -0.4852
 3873TIP3   OH211624   3.602   1.190   4.946 -0.7156 -0.2102  0.5417
 3873TIP3    H111625   3.628   1.247   4.874 -0.9893  0.0859  0.6724
 3873TIP3    H211626   3.589   1.250   5.020 -0.7114 -0.4776  0.7605
 3874TIP3   OH211627   3.601   2.006   1.247  0.2268  0.3567 -0.1161
 3874TIP3    H111628   3.681   2.004   1.194 -0.0259  0.4119 -0.5028
 3874TIP3    H211629   3.530   1.995   1.184 -0.0518 -0.1384  0.2745
 3875TIP3   OH211630   5.353   4.484   2.500  0.0950 -0.7459  0.1593
 3875TIP3    H111631   5.358   4.502   2.406  3.5863  0.3143  0.4082
 3875TIP3    H211632   5.344   4.570   2.540 -3.2184 -1.2844  0.9030
 3876TIP3   OH211633   4.623   3.053   0.849 -0.4840  0.5636  0.0203
 3876TIP3    H111634   4.646   2.979   0.906  0.2868  2.4655  2.3582
 3876TIP3    H211635   4.708   3.092   0.826 -0.8518  0.4939 -1.5617
 3877TIP3   OH211636   2.725   0.782   2.280 -0.1126  0.0210  0.2200
 3877TIP3    H111637   2.712   0.692   2.251 -1.2927  1.4631 -4.6936
 3877TIP3    H211638   2.641   0.809   2.316 -0.0744 -0.4862  0.6979
 3878TIP3   OH211639   6.294   1.072   2.876 -0.0824 -0.5155  0.0123
 3878TIP3    H111640   6.373   1.075   2.822  0.5517  2.7343  0.9015
 3878TIP3    H211641   6.237   1.009   2.832  1.7568 -0.5962 -2.4581
 3879TIP3   OH211642   0.473   3.298   3.915 -0.7382  0.3143  0.1078
 3879TIP3    H111643   0.438   3.387   3.912 -0.9835  0.2678  1.2007
 3879TIP3    H211644   0.549   3.300   3.858 -1.2396  0.9998 -0.5457
 3880TIP3   OH211645   4.886   0.715   2.953 -0.3982  0.7651 -0.1952
 3880TIP3    H111646   4.870   0.781   2.886 -0.2538  2.0668  0.9924
 3880TIP3    H211647   4.851   0.634   2.917  0.1763  1.3058 -2.0531
 3881TIP3   OH211648   2.498   3.606   1.012 -0.1330 -0.0806  0.6678
 3881TIP3    H111649   2.518   3.592   1.105 -3.1650 -1.3241  1.2695
 3881TIP3    H211650   2.443   3.685   1.012  1.0897  0.7954 -0.2979
 3882TIP3   OH211651   5.901   0.710   4.284  0.1972  0.4355 -0.5205
 3882TIP3    H111652   5.844   0.639   4.255  1.8149 -0.6845 -1.1430
 3882TIP3    H211653   5.922   0.688   4.375 -0.2978  0.8033 -0.3168
 3883TIP3   OH211654   2.546   2.124   2.001  0.0685 -0.9440 -0.1935
 3883TIP3    H111655   2.452   2.137   2.010  0.5105  2.5646  0.5039
 3883TIP3    H211656   2.567   2.152   1.912  0.3911 -2.8142 -0.7680
 3884TIP3   OH211657   4.383   1.860   2.778 -0.8855 -0.0953 -0.2944
 3884TIP3    H111658   4.397   1.786   2.719  2.3222 -2.1666  2.6450
 3884TIP3    H211659   4.439   1.929   2.743 -3.4158  0.8950 -2.7053
 3885TIP3   OH211660   4.493   0.076   1.092 -0.2813  0.5109 -0.5686
 3885TIP3    H111661   4.589   0.069   1.092 -0.4041 -2.8303  0.0748
 3885TIP3    H211662   4.466   0.036   1.010 -1.1165 -3.7170  1.4458
 3886TIP3   OH211663   1.078   5.027   2.346 -0.5330  0.0818  0.4112
 3886TIP3    H111664   1.160   5.039   2.394  0.2836 -1.9375 -0.3770
 3886TIP3    H211665   1.105   5.022   2.254 -1.3089 -1.9896  0.2408
 3887TIP3   OH211666   2.460   5.265   2.370 -0.1866 -0.6115  0.2385
 3887TIP3    H111667   2.406   5.307   2.437 -1.9645 -0.6389 -1.0997
 3887TIP3    H211668   2.536   5.233   2.417  0.6389  2.8547  1.6184
 3888TIP3   OH211669   5.117   1.254   4.802 -0.3088 -0.2121  0.4070
 3888TIP3    H111670   5.036   1.205   4.789 -1.0416  1.0555 -0.0059
 3888TIP3    H211671   5.150   1.224   4.887 -0.4595 -1.7579 -0.0531
 3889TIP3   OH211672   4.039   0.139   2.824  0.6105  0.7658  0.3406
 3889TIP3    H111673   4.038   0.194   2.902 -0.3556 -0.9760  1.6486
 3889TIP3    H211674   4.010   0.053   2.855 -0.3017  0.1238 -2.0465
 3890TIP3   OH211675   3.413   3.514   4.420  0.3458 -0.2639 -0.1723
 3890TIP3    H111676   3.448   3.602   4.427  1.0797 -0.3549 -2.0731
 3890TIP3    H211677   3.382   3.493   4.508  0.8470  1.5844  0.4860
 3891TIP3   OH211678   6.260   0.062   2.223  0.4268 -0.4934 -0.5038
 3891TIP3    H111679   6.204  -0.003   2.266 -0.3748  0.5084  0.0098
 3891TIP3    H211680   6.253   0.040   2.130 -1.0149 -0.2780 -0.4764
 3892TIP3   OH211681   5.338   0.658   0.807  0.2750 -0.5106 -0.3283
 3892TIP3    H111682   5.331   0.735   0.750 -1.0741 -0.2901  0.0857
 3892TIP3    H211683   5.282   0.678   0.882  1.5707 -1.0368  0.8181
 3893TIP3   OH211684   5.726   3.213   0.945 -0.5011  0.3410 -0.1894
 3893TIP3    H111685   5.642   3.167   0.949 -0.0903 -0.4061  0.0134
 3893TIP3    H211686   5.703   3.302   0.916 -1.2531 -0.1322 -1.1108
 3894TIP3   OH211687   4.400   3.115   2.097 -0.2281  0.2812  0.0386
 3894TIP3    H111688   4.389   3.051   2.027  0.3394  0.0109  0.1851
 3894TIP3    H211689   4.374   3.199   2.058 -1.4511 -0.1039 -0.0040
 3895TIP3   OH211690   0.081   5.403   4.333  0.1841  0.4958 -0.1318
 3895TIP3    H111691   0.169   5.438   4.317 -0.2826  1.4571 -0.6873
 3895TIP3    H211692   0.046   5.386   4.245 -0.3764  0.6049  0.0706
 3896TIP3   OH211693   6.206   4.758   3.315  0.0226 -0.4786  0.6061
 3896TIP3    H111694   6.258   4.784   3.391 -0.4565 -1.1168  1.1588
 3896TIP3    H211695   6.268   4.709   3.260 -0.2467 -2.3075  1.8375
 3897TIP3   OH211696   0.411   4.485   0.164 -0.2162  0.2730 -0.6079
 3897TIP3    H111697   0.382   4.574   0.184  0.6910  0.2485  1.0153
 3897TIP3    H211698   0.506   4.493   0.152 -0.1044 -0.4833 -0.2940
 3898TIP3   OH211699   3.073   5.056   2.515 -0.8715  0.8617  0.0539
 3898TIP3    H111700   3.160   5.093   2.524 -0.5644  0.0572  0.5475
 3898TIP3    H211701   3.019   5.127   2.481 -0.0644  1.4164 -0.0766
 3899TIP3   OH211702   5.060   5.797   2.506  0.1359  0.4646  0.2714
 3899TIP3    H111703   5.055   5.709   2.469  0.2237  1.1349 -1.4184
 3899TIP3    H211704   5.076   5.783   2.600 -1.0844 -1.3074  0.2558
 3900TIP3   OH211705   6.316   1.879   2.519  0.5091  0.2412  0.2968
 3900TIP3    H111706   6.231   1.840   2.500  0.1788  1.5559 -1.2120
 3900TIP3    H211707   6.374   1.842   2.452  1.1693 -0.7063  1.3654
 3901TIP3   OH211708   1.747   4.108   0.968 -0.0504 -0.1269  0.2206
 3901TIP3    H111709   1.772   4.186   0.918  0.2326 -0.0146  0.5329
 3901TIP3    H211710   1.658   4.088   0.940  0.4517 -0.6562 -1.0914
 3902TIP3   OH211711   0.425   2.311   0.486  0.3473  0.5628 -0.0141
 3902TIP3    H111712   0.362   2.350   0.425 -1.2609 -0.2204  1.0505
 3902TIP3    H211713   0.425   2.218   0.463 -0.0321  0.3168  0.9414
 3903TIP3   OH211714   3.018   2.789   4.392 -0.0202 -0.5220 -0.4581
 3903TIP3    H111715   3.087   2.853   4.410  0.7425 -1.1018 -1.2521
 3903TIP3    H211716   2.995   2.753   4.478 -1.0254  1.3526  0.1115
 3904TIP3   OH211717   1.174   4.237   0.052  0.4926 -0.1678 -0.0362
 3904TIP3    H111718   1.233   4.301   0.012 -0.5211 -0.3125 -1.8682
 3904TIP3    H211719   1.137   4.283   0.129  2.3226  0.1973  0.6702
 3905TIP3   OH211720   1.119   4.144   5.045 -0.3489 -0.2415  0.3681
 3905TIP3    H111721   1.086   4.207   5.109 -1.8617  0.0696 -0.6829
 3905TIP3    H211722   1.163   4.198   4.979  1.2590 -0.5662  1.1062
 3906TIP3   OH211723   3.201   1.237   1.682 -0.1770 -0.3441 -0.2769
 3906TIP3    H111724   3.130   1.302   1.685  1.3271  1.3492 -0.1007
 3906TIP3    H211725   3.251   1.261   1.604  2.2507  0.7909  1.5175
 3907TIP3   OH211726   0.226   2.606   5.072  0.3553  0.1089  0.1885
 3907TIP3    H111727   0.185   2.522   5.093 -0.4850  0.2560 -0.7617
 3907TIP3    H211728   0.277   2.588   4.993  0.1234  0.5011 -0.0540
 3908TIP3   OH211729   1.725   5.204   3.234 -0.1288 -0.1543  0.1366
 3908TIP3    H111730   1.670   5.228   3.308  1.0304 -0.9074  1.2795
 3908TIP3    H211731   1.699   5.114   3.212 -0.2127 -0.0672 -0.1241
 3909TIP3   OH211732   5.607   4.023   4.250  0.1380 -0.6534  0.4648
 3909TIP3    H111733   5.574   3.933   4.241 -0.5063 -0.3629 -0.2654
 3909TIP3    H211734   5.538   4.068   4.299  0.9972 -0.8269  1.8640
 3910TIP3   OH211735   3.790   3.894   0.785  0.2029  0.4970  0.0833
 3910TIP3    H111736   3.855   3.934   0.844 -0.4861  0.1656  1.0949
 3910TIP3    H211737   3.748   3.969   0.743  1.1578  0.7205 -0.5113
 3911TIP3   OH211738   4.401   4.144   3.213 -0.5460  0.1706 -0.2423
 3911TIP3    H111739   4.424   4.112   3.300  0.3207  1.1540 -0.0962
 3911TIP3    H211740   4.482   4.135   3.162 -0.8167  0.3829 -0.7154
 3912TIP3   OH211741   4.693   3.930   2.040  0.0091  0.5122 -0.5054
 3912TIP3    H111742   4.654   4.017   2.040 -0.5135  0.3092 -1.8221
 3912TIP3    H211743   4.738   3.924   1.956  0.5072 -0.2840 -0.1958
 3913TIP3   OH211744   0.300   3.937   2.489 -0.6080  0.0509 -0.2741
 3913TIP3    H111745   0.286   4.021   2.447 -2.4685 -0.7262 -1.3350
 3913TIP3    H211746   0.274   3.951   2.580  0.0596  0.8512 -0.1949
 3914TIP3   OH211747   4.465   5.930   1.882  0.5972 -0.5124  0.2036
 3914TIP3    H111748   4.425   5.961   1.963  0.0636  0.5063 -0.4344
 3914TIP3    H211749   4.391   5.910   1.824  0.9660 -1.5050  0.0498
 3915TIP3   OH211750   3.460   3.273   4.309  0.5479  0.1051 -0.7146
 3915TIP3    H111751   3.535   3.275   4.250  0.9754  0.4370 -0.1565
 3915TIP3    H211752   3.448   3.364   4.336  1.2437 -0.2377  0.8306
 3916TIP3   OH211753   5.172   5.769   1.959 -0.1856  0.0460  0.3083
 3916TIP3    H111754   5.248   5.728   1.917  0.6076 -0.4494  2.1287
 3916TIP3    H211755   5.185   5.863   1.947  0.0191 -0.0879 -0.5320
 3917TIP3   OH211756   3.032   2.970   4.001 -0.4892  0.2768  0.5101
 3917TIP3    H111757   3.025   2.919   3.920 -1.9706  0.8503  0.2364
 3917TIP3    H211758   3.067   3.054   3.972 -0.3373  0.2361  0.5779
 3918TIP3   OH211759   5.883   2.570   4.653  0.2079 -0.0802 -0.0205
 3918TIP3    H111760   5.845   2.608   4.574 -3.4847 -1.2459  0.9776
 3918TIP3    H211761   5.828   2.493   4.671  2.3143 -1.1676  2.4656
 3919TIP3   OH211762   1.480   1.163   0.750  0.0355  0.5359 -0.1262
 3919TIP3    H111763   1.471   1.139   0.842 -1.6943 -1.2734 -0.6697
 3919TIP3    H211764   1.572   1.188   0.740  0.2968  0.6381  2.0320
 3920TIP3   OH211765   2.714   2.415   4.639 -0.3820  0.2911  0.5376
 3920TIP3    H111766   2.657   2.478   4.683 -0.4834  1.1840 -0.8068
 3920TIP3    H211767   2.760   2.467   4.573  2.1071 -0.3534  1.6352
 3921TIP3   OH211768   4.555   1.685   3.919  0.0298 -0.2102 -0.4383
 3921TIP3    H111769   4.539   1.768   3.874 -0.2401  0.5119  0.9214
 3921TIP3    H211770   4.571   1.710   4.010  0.3415 -1.6303 -0.0750
 3922TIP3   OH211771   4.731   4.680   2.502  0.3281  0.1070 -0.2746
 3922TIP3    H111772   4.679   4.646   2.428 -2.0715 -0.7268  1.6707
 3922TIP3    H211773   4.731   4.775   2.490 -0.8494  0.0529 -0.8343
 3923TIP3   OH211774   2.137   0.023   0.063  0.2630 -0.3074  0.0276
 3923TIP3    H111775   2.113   0.047   0.152 -1.9256 -0.1210 -0.5691
 3923TIP3    H211776   2.103  -0.065   0.051 -1.0142  0.3143 -1.1521
 3924TIP3   OH211777   5.723   1.399   0.621 -0.5345  0.5455  0.2109
 3924TIP3    H111778   5.680   1.447   0.692  0.8618  1.3903  0.5280
 3924TIP3    H211779   5.801   1.362   0.662  0.4465  1.2738 -0.9233
 3925TIP3   OH211780   1.037   1.242   2.943 -0.2706 -0.1875 -0.4111
 3925TIP3    H111781   1.123   1.211   2.914  0.0466 -0.5823  0.8689
 3925TIP3    H211782   1.036   1.335   2.921  0.2993 -0.2808 -0.8520
 3926TIP3   OH211783   0.245   3.901   1.688 -0.2245  0.2028 -0.2156
 3926TIP3    H111784   0.177   3.911   1.622  0.0156 -0.0393 -0.5033
 3926TIP3    H211785   0.199   3.874   1.767 -0.6025  1.1866 -0.0793
 3927TIP3   OH211786   4.087   5.395   2.604  0.0424  0.3976 -0.0961
 3927TIP3    H111787   4.036   5.314   2.611 -0.7320  0.7562 -1.1819
 3927TIP3    H211788   4.178   5.366   2.598 -0.3153 -0.5119 -1.9131
 3928TIP3   OH211789   4.562   4.418   0.576  0.5357 -0.5067 -0.0969
 3928TIP3    H111790   4.614   4.461   0.644  0.6994 -0.7410 -0.0712
 3928TIP3    H211791   4.571   4.474   0.499  0.0673 -0.0572  0.1676
 3929TIP3   OH211792   4.159   2.961   1.660 -0.1285 -0.2640  0.3374
 3929TIP3    H111793   4.235   2.903   1.674  1.9518  2.2718  0.3340
 3929TIP3    H211794   4.174   2.998   1.573 -1.3505  0.3479  0.3789
 3930TIP3   OH211795   4.533   3.820   4.962  0.2789 -0.1992  0.6159
 3930TIP3    H111796   4.485   3.749   5.004  2.2710 -0.6436  2.3210
 3930TIP3    H211797   4.617   3.822   5.007  1.6769  0.8849 -1.8464
 3931TIP3   OH211798   1.351   2.191   2.934 -0.4364 -0.0747 -0.4743
 3931TIP3    H111799   1.339   2.266   2.875 -1.1898 -0.4217 -0.7732
 3931TIP3    H211800   1.265   2.149   2.937 -0.3427 -0.2184  0.6646
 3932TIP3   OH211801   1.926   3.003   0.608 -0.3511  0.1270  0.0558
 3932TIP3    H111802   1.881   3.056   0.673 -0.8438  0.3905 -0.4978
 3932TIP3    H211803   1.998   3.059   0.577  0.0688 -0.1126  0.5891
 3933TIP3   OH211804   0.524   2.126   1.244  0.1463 -0.1164  0.0817
 3933TIP3    H111805   0.527   2.033   1.223  1.4910  0.4342 -2.7571
 3933TIP3    H211806   0.522   2.170   1.159  0.0062  2.4815  1.3050
 3934TIP3   OH211807   1.475   1.698   2.466  0.3349  0.6556  1.0040
 3934TIP3    H111808   1.493   1.604   2.467 -0.8764  0.4011  2.3661
 3934TIP3    H211809   1.401   1.709   2.407 -0.2982  0.5718  1.7651
 3935TIP3   OH211810   2.963   2.234   4.090 -0.1763  0.2798 -0.0297
 3935TIP3    H111811   2.947   2.280   4.008 -2.0751  0.6333  0.4879
 3935TIP3    H211812   3.032   2.284   4.133 -1.7595  2.3682  0.2506
 3936TIP3   OH211813   1.536   1.843   1.308  0.1340 -0.3179 -0.1467
 3936TIP3    H111814   1.606   1.779   1.294  1.3075  0.2787  2.5192
 3936TIP3    H211815   1.518   1.840   1.402 -1.2328  1.7996 -0.2664
 3937TIP3   OH211816   5.993   2.416   4.361 -0.1864 -0.4511  0.6100
 3937TIP3    H111817   6.072   2.366   4.340  1.0992  1.3410  0.9466
 3937TIP3    H211818   6.024   2.507   4.370 -2.7859  0.9368 -2.5668
 3938TIP3   OH211819   3.697   0.086   5.168 -0.5719  0.0012 -0.7164
 3938TIP3    H111820   3.765   0.129   5.117 -0.9798  1.2303 -0.2734
 3938TIP3    H211821   3.710   0.118   5.258  0.1845 -2.1699  0.0144
 3939TIP3   OH211822   0.136   0.319   2.814  0.4976  0.1421 -0.1569
 3939TIP3    H111823   0.087   0.250   2.858  0.4740 -2.2194 -3.4858
 3939TIP3    H211824   0.070   0.385   2.791 -0.2291 -0.6130 -0.2890
 3940TIP3   OH211825   5.710   5.371   5.094 -0.3915 -0.2465  0.1268
 3940TIP3    H111826   5.710   5.282   5.131  1.2457 -0.3615 -0.0359
 3940TIP3    H211827   5.770   5.420   5.151 -0.4691  0.4640 -0.3986
 3941TIP3   OH211828   4.789   0.678   3.849 -0.0228  0.8135  0.2352
 3941TIP3    H111829   4.855   0.647   3.788  0.3487 -0.7831  1.3579
 3941TIP3    H211830   4.756   0.759   3.811 -0.7173 -0.7165 -2.7040
 3942TIP3   OH211831   3.359   3.850   0.906 -0.1716  0.0796 -0.4024
 3942TIP3    H111832   3.274   3.893   0.903 -0.1842  0.1024  0.2308
 3942TIP3    H211833   3.395   3.862   0.818  0.8538  3.4862  0.3241
 3943TIP3   OH211834   5.947   5.528   4.616 -0.2300  0.4297 -0.2171
 3943TIP3    H111835   6.014   5.597   4.616  0.8561 -0.6071 -0.4012
 3943TIP3    H211836   5.995   5.447   4.632 -1.7545 -0.0682  2.6479
 3944TIP3   OH211837   4.857   2.121   1.544 -0.2474 -0.5133 -0.0606
 3944TIP3    H111838   4.829   2.169   1.466  1.7291 -3.2850 -2.7183
 3944TIP3    H211839   4.781   2.067   1.567 -0.4008 -0.6969 -0.9668
 3945TIP3   OH211840   1.031   2.488   4.234  0.1542  0.2384  0.2598
 3945TIP3    H111841   0.963   2.422   4.245 -0.5346  0.6236 -1.4757
 3945TIP3    H211842   0.999   2.564   4.283  1.1317 -0.7449  2.6032
 3946TIP3   OH211843   4.976   4.523   4.414 -0.0127  0.4604  0.5808
 3946TIP3    H111844   4.890   4.513   4.374 -0.7350 -1.7316  2.4656
 3946TIP3    H211845   4.967   4.599   4.471 -0.2979  0.9757 -0.1298
 3947TIP3   OH211846   1.041   3.615   3.935 -0.2094  0.2248 -0.5426
 3947TIP3    H111847   0.970   3.633   3.873 -0.2285  0.5227 -0.4329
 3947TIP3    H211848   0.997   3.593   4.017 -0.1738  0.3697 -0.4855
 3948TIP3   OH211849   3.953   1.365   0.381 -0.1736 -0.0665 -0.1963
 3948TIP3    H111850   3.984   1.305   0.314  0.2619  0.5695 -0.5712
 3948TIP3    H211851   4.020   1.433   0.386 -1.5139  1.3928 -1.0806
 3949TIP3   OH211852   0.502   2.234   5.133  0.4669  0.2933  0.3212
 3949TIP3    H111853   0.453   2.314   5.149  0.3546  0.4318 -0.6924
 3949TIP3    H211854   0.445   2.164   5.165 -0.1536  0.4962 -0.3319
 3950TIP3   OH211855   1.171   5.264   4.358  0.2333 -0.1267 -0.3263
 3950TIP3    H111856   1.159   5.322   4.282  3.1058  2.3560  0.8872
 3950TIP3    H211857   1.260   5.284   4.388 -0.3771 -1.8752  2.9962
 3951TIP3   OH211858   5.828   1.693   3.416 -0.0360 -0.7053 -0.2578
 3951TIP3    H111859   5.788   1.767   3.462  1.8464  1.1688 -1.4155
 3951TIP3    H211860   5.884   1.651   3.482  0.7834  0.4716 -0.1748
 3952TIP3   OH211861   0.576   3.679   2.537 -0.2659 -0.1115 -0.2389
 3952TIP3    H111862   0.505   3.724   2.491  0.9579  0.5435 -1.5719
 3952TIP3    H211863   0.595   3.602   2.484  0.0300 -0.2919  0.1204
 3953TIP3   OH211864   6.003   5.754   0.928 -0.0081  0.5737 -0.1252
 3953TIP3    H111865   6.046   5.823   0.978  1.4479 -0.2552 -0.1626
 3953TIP3    H211866   6.019   5.674   0.978 -0.1528  0.0116 -0.9476
 3954TIP3   OH211867   0.750   1.920   4.387  0.0437 -0.0030 -0.1198
 3954TIP3    H111868   0.736   1.834   4.427 -2.6209  0.7415  0.7626
 3954TIP3    H211869   0.691   1.921   4.312  0.8600  0.7037 -0.7758
 3955TIP3   OH211870   1.900   2.272   0.885 -0.5949 -0.2244 -0.1778
 3955TIP3    H111871   1.863   2.192   0.922 -1.3865  0.0776 -0.2865
 3955TIP3    H211872   1.976   2.243   0.835 -3.1655 -1.5482 -3.7255
 3956TIP3   OH211873   1.235   0.223   2.156  0.0287 -0.5745  0.3591
 3956TIP3    H111874   1.254   0.257   2.069 -1.1525 -0.2386  0.2177
 3956TIP3    H211875   1.224   0.300   2.210  2.1392 -0.7731  1.1589
 3957TIP3   OH211876   4.473   4.075   2.770 -0.1766 -0.0825 -0.2237
 3957TIP3    H111877   4.404   4.029   2.818 -1.6891  0.3522 -1.8695
 3957TIP3    H211878   4.437   4.163   2.757  2.4661  1.5852  2.5132
 3958TIP3   OH211879   0.985   2.773   1.451 -0.5619  0.6531  0.4698
 3958TIP3    H111880   0.932   2.851   1.435 -0.6237  0.5958  0.3932
 3958TIP3    H211881   0.932   2.701   1.417 -0.3248  0.6203  0.1596
 3959TIP3   OH211882   4.761   0.400   3.649 -0.1703  0.1809 -0.8717
 3959TIP3    H111883   4.750   0.380   3.556  0.1885 -2.3941 -0.4571
 3959TIP3    H211884   4.822   0.473   3.652 -0.3138  0.4022 -2.6550
 3960TIP3   OH211885   3.061   5.749   3.057 -0.3208  0.3511 -0.3816
 3960TIP3    H111886   2.970   5.772   3.075 -0.5757 -1.3649  0.7890
 3960TIP3    H211887   3.110   5.830   3.072 -1.5839  1.1579 -0.5030
 3961TIP3   OH211888   0.960   1.754   0.013  0.0341 -0.4650 -0.6132
 3961TIP3    H111889   0.952   1.776   0.106 -0.6545 -2.0143 -0.2792
 3961TIP3    H211890   1.024   1.817  -0.021  0.5999 -0.1238  0.9998
 3962TIP3   OH211891   2.924   2.580   2.495 -0.3142  0.0663  0.1576
 3962TIP3    H111892   2.985   2.507   2.506 -0.7034 -0.4932 -1.1729
 3962TIP3    H211893   2.940   2.611   2.406 -0.2695  1.5237  0.6559
 3963TIP3   OH211894   5.353   3.627   2.787 -0.0400 -0.2074  0.0594
 3963TIP3    H111895   5.329   3.687   2.716 -0.4367 -2.1736 -1.5445
 3963TIP3    H211896   5.448   3.618   2.778 -0.0921 -0.4711 -0.2514
 3964TIP3   OH211897   2.562   4.949   3.922  0.3096 -0.3113  0.4183
 3964TIP3    H111898   2.586   5.035   3.955 -1.3274  0.8971 -1.3102
 3964TIP3    H211899   2.602   4.887   3.983  2.3324  1.6265  1.1717
 3965TIP3   OH211900   4.159   3.417   4.182  0.1622  0.3339 -0.2730
 3965TIP3    H111901   4.131   3.495   4.229 -0.1906 -1.2972  2.4579
 3965TIP3    H211902   4.077   3.371   4.161  0.3092  0.9798 -2.6041
 3966TIP3   OH211903   2.393   1.322   0.356  0.3200 -0.3891 -0.3934
 3966TIP3    H111904   2.459   1.388   0.335 -0.8773  0.2284 -2.4895
 3966TIP3    H211905   2.310   1.363   0.331 -0.5269 -2.4109 -1.0756
 3967TIP3   OH211906   1.847   3.258   4.421 -0.2370  0.1875 -0.0639
 3967TIP3    H111907   1.891   3.175   4.439 -0.0091  0.0394 -1.2233
 3967TIP3    H211908   1.911   3.325   4.443 -0.4726  0.0759  1.0186
 3968TIP3   OH211909   6.243   3.422   3.315 -0.2452  0.2278 -0.0533
 3968TIP3    H111910   6.270   3.508   3.284 -0.2645  0.3999  0.4088
 3968TIP3    H211911   6.289   3.411   3.399  1.3217 -1.0157 -1.0118
 3969TIP3   OH211912   2.449   2.399   3.769  0.3252 -0.1687  0.3724
 3969TIP3    H111913   2.465   2.472   3.709  0.5537 -0.5844 -0.0698
 3969TIP3    H211914   2.376   2.429   3.823 -1.8481 -0.8756 -1.9800
 3970TIP3   OH211915   1.775   3.168   0.791  0.1967  0.0856  0.1233
 3970TIP3    H111916   1.815   3.197   0.874  0.3569 -0.9339  0.4088
 3970TIP3    H211917   1.693   3.127   0.817  1.1461 -1.9942 -0.0062
 3971TIP3   OH211918   0.731   2.193   3.978  0.1604 -0.2522 -0.3988
 3971TIP3    H111919   0.816   2.195   3.934 -0.7059 -0.5112 -2.1959
 3971TIP3    H211920   0.708   2.100   3.982  1.1675 -0.4563  2.6579
 3972TIP3   OH211921   2.017   4.862   1.028  0.0325  0.1681  0.4668
 3972TIP3    H111922   1.934   4.872   1.074 -0.8161  0.8503 -1.1469
 3972TIP3    H211923   1.997   4.804   0.955  1.4534 -1.2482  1.1508
 3973TIP3   OH211924   4.176   4.128   0.310  0.1416  0.4631 -0.4715
 3973TIP3    H111925   4.137   4.110   0.224 -0.2761  1.9472 -0.6165
 3973TIP3    H211926   4.267   4.099   0.301 -0.0757 -0.0356 -1.1846
 3974TIP3   OH211927   4.413   3.941   4.313  0.3267  0.1374  0.2993
 3974TIP3    H111928   4.506   3.923   4.296  0.0780 -0.9325  0.0326
 3974TIP3    H211929   4.371   3.935   4.227 -0.2227 -0.8833  0.6232
 3975TIP3   OH211930   1.007   3.290   0.243  0.0578 -0.1797 -0.1418
 3975TIP3    H111931   1.030   3.223   0.308  2.1237  0.1802 -0.4186
 3975TIP3    H211932   0.968   3.360   0.295 -0.7865 -0.9825  0.3446
 3976TIP3   OH211933   6.109   1.608   1.316  0.4804  0.6540 -0.1979
 3976TIP3    H111934   6.036   1.637   1.371  1.5131  0.3577  1.3970
 3976TIP3    H211935   6.118   1.514   1.335  0.6141  0.4562 -1.1823
 3977TIP3   OH211936   6.035   0.166   0.867 -0.5665 -0.1831  0.1722
 3977TIP3    H111937   5.982   0.222   0.811  1.3429 -0.2233 -1.8398
 3977TIP3    H211938   6.113   0.218   0.887 -0.2697 -0.9328  1.0618
 3978TIP3   OH211939   6.333   2.895   1.107  0.1865 -0.0236  0.2834
 3978TIP3    H111940   6.281   2.827   1.149 -1.3026  1.8985  1.7669
 3978TIP3    H211941   6.269   2.956   1.071  1.4211 -0.8667 -3.7678
 3979TIP3   OH211942   2.777   3.183   2.439 -0.0286 -0.0294 -0.0952
 3979TIP3    H111943   2.758   3.216   2.351 -2.4868 -0.3479  0.2301
 3979TIP3    H211944   2.793   3.090   2.427 -0.3977 -0.0803 -0.2256
 3980TIP3   OH211945   5.735   4.376   2.234  0.9738 -0.3214  0.1735
 3980TIP3    H111946   5.737   4.461   2.277  0.6161 -0.0556 -0.3182
 3980TIP3    H211947   5.826   4.345   2.238  1.0312 -0.0927  0.6967
 3981TIP3   OH211948   3.053   3.281   2.923 -0.2246  0.8696 -0.7560
 3981TIP3    H111949   3.141   3.313   2.905  0.4624  0.1398  1.0806
 3981TIP3    H211950   3.040   3.299   3.016 -0.8581 -1.6830 -0.2996
 3982TIP3   OH211951   3.397   0.724   0.087 -0.0822 -0.1207 -0.3187
 3982TIP3    H111952   3.388   0.644   0.034 -0.4159  1.0299 -2.0831
 3982TIP3    H211953   3.370   0.697   0.175  0.7165 -2.1741 -0.6232
 3983TIP3   OH211954   5.052   5.885   0.030 -0.2937  0.1430 -0.3331
 3983TIP3    H111955   5.130   5.936   0.055 -1.0020  0.4100  1.5239
 3983TIP3    H211956   5.065   5.865  -0.062  0.9699  1.9848 -0.6197
 3984TIP3   OH211957   4.609   3.332   1.538  0.3168 -0.2365 -0.0916
 3984TIP3    H111958   4.632   3.352   1.629 -1.1008  0.4702  0.1557
 3984TIP3    H211959   4.552   3.256   1.544 -0.6922  0.4823 -0.2508
 3985TIP3   OH211960   1.036   4.942   0.938 -0.0387 -0.6905  0.5617
 3985TIP3    H111961   0.993   5.023   0.912 -0.7582 -0.2317  2.9480
 3985TIP3    H211962   0.966   4.876   0.939 -0.2669 -0.4642  2.2057
 3986TIP3   OH211963   4.053   1.065   1.242 -0.1505 -0.3857 -0.0306
 3986TIP3    H111964   4.018   1.028   1.324  0.5736  1.1498  1.0228
 3986TIP3    H211965   3.990   1.133   1.218 -0.4521 -0.9444 -0.8885
 3987TIP3   OH211966   4.612   0.334   1.011  0.4564  0.1782  0.2108
 3987TIP3    H111967   4.705   0.313   0.996  0.7628  2.4027 -1.6481
 3987TIP3    H211968   4.576   0.347   0.923 -0.0991  4.9543  0.8942
 3988TIP3   OH211969   5.808   4.116   0.991 -0.0916  0.0519  0.3921
 3988TIP3    H111970   5.863   4.194   0.994  1.4613 -0.9379 -1.0666
 3988TIP3    H211971   5.867   4.043   1.010 -0.9447 -1.0066 -0.8210
 3989TIP3   OH211972   5.255   2.367   1.628  0.0269 -0.6143  0.1825
 3989TIP3    H111973   5.329   2.316   1.597 -0.2257 -0.6080 -0.4416
 3989TIP3    H211974   5.199   2.304   1.673 -0.0397 -0.7893 -0.1470
 3990TIP3   OH211975   6.072   3.175   4.925 -0.0417  0.3344  0.4066
 3990TIP3    H111976   6.037   3.264   4.932 -1.3940 -0.0079 -1.3821
 3990TIP3    H211977   6.103   3.155   5.013  1.7641  3.1310  0.5429
 3991TIP3   OH211978   2.234   3.262   4.366 -0.1119 -0.4022 -0.9036
 3991TIP3    H111979   2.177   3.194   4.401  0.8319 -0.8008 -0.1210
 3991TIP3    H211980   2.323   3.235   4.391  0.1808  2.0092  1.0253
 3992TIP3   OH211981   0.332   4.694   1.185  0.1260 -0.2880  0.2546
 3992TIP3    H111982   0.387   4.680   1.108  0.7323 -1.3389  0.8559
 3992TIP3    H211983   0.290   4.609   1.201 -0.7665  0.1815  0.5122
 3993TIP3   OH211984   4.373   2.202   2.157  0.0990 -0.1797 -0.2176
 3993TIP3    H111985   4.359   2.143   2.083 -0.9053  0.0575 -0.2352
 3993TIP3    H211986   4.389   2.288   2.116  1.2816 -0.3718 -0.1866
 3994TIP3   OH211987   0.609   4.732   3.967  0.1458  0.2721  0.3877
 3994TIP3    H111988   0.640   4.645   3.995 -1.1300 -0.0537  0.8628
 3994TIP3    H211989   0.595   4.722   3.872  1.9234  0.5856  0.0529
 3995TIP3   OH211990   1.130   1.494   2.887 -0.0520  0.9014 -0.5697
 3995TIP3    H111991   1.153   1.497   2.794  2.2328  0.2113 -0.0871
 3995TIP3    H211992   1.211   1.515   2.933  0.2680 -3.2869  1.3176
 3996TIP3   OH211993   1.548   5.132   3.837  0.7112  0.3419  0.0017
 3996TIP3    H111994   1.538   5.106   3.745 -1.0809  1.1986 -0.0829
 3996TIP3    H211995   1.527   5.225   3.838 -1.0249 -0.0084  1.5090
 3997TIP3   OH211996   0.501   5.845   1.026 -0.1147  0.5949 -0.3832
 3997TIP3    H111997   0.578   5.876   1.073 -0.9935  0.2268  1.3966
 3997TIP3    H211998   0.535   5.784   0.961  1.0933  0.3142  0.4769
 3998TIP3   OH211999   0.666   1.427   3.482 -0.0276  0.4560  0.2499
 3998TIP3    H112000   0.690   1.437   3.574 -0.2480 -1.0009  0.4931
 3998TIP3    H212001   0.726   1.360   3.449 -0.7810  0.0457 -0.3202
 3999TIP3   OH212002   5.787   1.908   3.598  0.5264 -0.5665 -0.0094
 3999TIP3    H112003   5.746   1.973   3.655 -1.3061 -1.9285  0.2974
 3999TIP3    H212004   5.878   1.903   3.629  0.5363  1.3173  0.3928
 4000TIP3   OH212005   4.342   3.633   3.693  0.1853  0.5247 -0.5374
 4000TIP3    H112006   4.268   3.691   3.676  0.5516  0.9517 -0.6892
 4000TIP3    H212007   4.302   3.546   3.699 -0.3779  0.7989 -0.2029
 4001TIP3   OH212008   4.669   3.947   3.959  0.0601 -1.0897 -0.4364
 4001TIP3    H112009   4.584   3.944   3.915 -0.0456 -0.0563 -0.3231
 4001TIP3    H212010   4.671   3.867   4.012 -2.0924  0.1923  1.8014
 4002TIP3   OH212011   5.033   5.102   4.562 -0.0672  0.5535 -0.0191
 4002TIP3    H112012   5.117   5.078   4.601  0.2574  0.9482 -0.4661
 4002TIP3    H212013   5.056   5.151   4.483 -0.7209  0.2003 -0.4332
 4003TIP3   OH212014   1.028   5.841   1.021  0.3196 -0.0892 -0.0456
 4003TIP3    H112015   1.103   5.866   0.967 -0.7858  1.2768 -1.0507
 4003TIP3    H212016   1.032   5.745   1.024  1.5460 -0.0954 -0.8799
 4004TIP3   OH212017   2.839   5.388   2.148 -0.1574  0.0434  0.1342
 4004TIP3    H112018   2.815   5.386   2.055  0.0792  1.3058  0.0255
 4004TIP3    H212019   2.866   5.479   2.163 -0.7623  0.0007  1.5808
 4005TIP3   OH212020   5.732   1.123   3.787  0.1632 -0.3257 -0.6136
 4005TIP3    H112021   5.639   1.126   3.809  0.0880 -1.4870 -0.7145
 4005TIP3    H212022   5.753   1.211   3.757 -1.0287 -0.1876 -1.0653
 4006TIP3   OH212023   5.490   5.973   2.314  0.4423 -0.4922 -0.3977
 4006TIP3    H112024   5.454   5.914   2.248 -0.8007 -0.0563 -0.1403
 4006TIP3    H212025   5.499   6.057   2.270  0.1288 -0.3364 -0.1693
 4007TIP3   OH212026   1.045   1.629   5.037  0.5067  0.8524 -0.3052
 4007TIP3    H112027   1.123   1.670   5.001  1.4494  0.3120  1.0475
 4007TIP3    H212028   1.032   1.670   5.122 -0.0637  0.2084 -0.0653
 4008TIP3   OH212029   2.647   2.888   1.592 -0.3382  0.7383  0.4651
 4008TIP3    H112030   2.572   2.830   1.577 -0.5746  1.2995 -0.5824
 4008TIP3    H212031   2.723   2.834   1.569 -0.4838  0.4780  0.5887
 4009TIP3   OH212032   1.026   5.971   4.898 -0.7010  0.1353 -0.0623
 4009TIP3    H112033   1.101   5.938   4.849 -0.1034  0.1500  0.8232
 4009TIP3    H212034   1.046   5.950   4.989 -1.3450  0.9572  0.2767
 4010TIP3   OH212035   2.491   5.214   0.378 -0.1036  0.1270  0.4010
 4010TIP3    H112036   2.470   5.247   0.465 -1.5101  2.0733 -0.6045
 4010TIP3    H212037   2.583   5.237   0.365 -0.1134  0.5679  1.0783
 4011TIP3   OH212038   0.671   3.747   4.597 -0.3204  0.3529  0.2220
 4011TIP3    H112039   0.727   3.742   4.674  2.0255  2.8661 -1.1438
 4011TIP3    H212040   0.619   3.826   4.609  0.0886  0.7888 -0.7250
 4012TIP3   OH212041   2.096   2.907   1.584  0.2652  0.1319 -0.1122
 4012TIP3    H112042   2.101   2.812   1.577 -0.0759  0.1237 -0.2633
 4012TIP3    H212043   2.094   2.924   1.678  0.3995 -0.0070 -0.0842
 4013TIP3   OH212044   0.630   2.267   0.645  0.3455 -0.4936  0.1722
 4013TIP3    H112045   0.564   2.259   0.575 -0.2498  2.6762  0.2356
 4013TIP3    H212046   0.581   2.249   0.725 -0.2631  0.8169  0.1291
 4014TIP3   OH212047   0.248   2.362   0.945 -0.4469 -0.2643 -0.1917
 4014TIP3    H112048   0.196   2.354   0.866  0.4831 -0.2961 -0.8125
 4014TIP3    H212049   0.327   2.311   0.928  0.4492  0.9330  0.1614
 4015TIP3   OH212050   0.593   5.401   2.180 -0.2749 -0.0846 -0.2869
 4015TIP3    H112051   0.656   5.439   2.242 -0.3095 -0.5274  0.0232
 4015TIP3    H212052   0.603   5.454   2.101  2.6939 -1.9769 -1.3699
 4016TIP3   OH212053   2.401   3.169   1.231  0.2456  0.2880  0.0903
 4016TIP3    H112054   2.471   3.139   1.289 -0.0378 -0.2548  0.1536
 4016TIP3    H212055   2.405   3.109   1.156 -0.1564  0.2498  0.0969
 4017TIP3   OH212056   4.003   0.645   5.035 -0.0794 -0.7887  0.1631
 4017TIP3    H112057   4.094   0.672   5.024 -0.8006  1.5509 -0.4290
 4017TIP3    H212058   3.973   0.693   5.112 -1.2538 -0.2933 -0.5777
 4018TIP3   OH212059   0.844   2.572   3.391 -0.7123  0.2634  0.1828
 4018TIP3    H112060   0.908   2.643   3.391  0.1360 -0.4848 -0.1165
 4018TIP3    H212061   0.761   2.614   3.412 -0.0220  1.1554  1.1987
 4019TIP3   OH212062   4.797   1.597   1.022 -0.0178  0.1105  0.2745
 4019TIP3    H112063   4.736   1.670   1.025 -0.5531 -0.3452  1.5698
 4019TIP3    H212064   4.831   1.591   1.112  1.0345 -0.3794 -0.1433
 4020TIP3   OH212065   5.960   3.721   1.096  0.0792 -0.3937 -0.1625
 4020TIP3    H112066   5.989   3.632   1.116 -0.4640 -0.3746  0.8157
 4020TIP3    H212067   5.867   3.711   1.074  0.0752 -0.1026 -0.2770
 4021TIP3   OH212068   2.752   0.251   5.000 -0.0846 -0.2467  0.0585
 4021TIP3    H112069   2.694   0.182   4.969 -1.0521  0.7962 -0.5567
 4021TIP3    H212070   2.726   0.328   4.949  1.2572  0.4604  0.4135
 4022TIP3   OH212071   3.785   5.483   3.269 -0.3543 -0.4567  0.3730
 4022TIP3    H112072   3.736   5.427   3.329  0.1187 -0.6446  0.5926
 4022TIP3    H212073   3.869   5.496   3.313  0.3595 -1.3773 -0.6661
 4023TIP3   OH212074   2.916   1.811   3.020  0.1123  0.5136  0.3831
 4023TIP3    H112075   2.884   1.894   2.986 -0.0216  0.6460  0.8284
 4023TIP3    H212076   2.999   1.832   3.061  0.5244  0.2625 -0.3064
 4024TIP3   OH212077   5.497   4.495   1.202 -0.1585 -0.3642  0.4565
 4024TIP3    H112078   5.483   4.446   1.121 -1.0539  0.3999  0.1376
 4024TIP3    H212079   5.592   4.495   1.213  0.0145 -0.1667 -0.8138
 4025TIP3   OH212080   2.048   0.760   3.949 -0.3344  0.7814 -0.6283
 4025TIP3    H112081   2.083   0.831   3.895  0.1419  1.7082  0.8471
 4025TIP3    H212082   2.097   0.766   4.031  0.5876 -2.0321 -0.8589
 4026TIP3   OH212083   1.016   5.889   1.931  0.4585  0.3747  0.0568
 4026TIP3    H112084   1.090   5.931   1.975 -0.0537  0.9116  0.4271
 4026TIP3    H212085   0.939   5.915   1.983 -0.0925  0.5595 -0.8244
 4027TIP3   OH212086   3.052   5.346   0.766 -0.4027 -0.2801 -0.3608
 4027TIP3    H112087   2.983   5.407   0.793 -0.6739 -1.1435  0.9905
 4027TIP3    H212088   3.092   5.387   0.689 -1.2382  1.0958 -0.0874
 4028TIP3   OH212089   1.420   2.689   1.762 -0.0276  0.1000 -0.3560
 4028TIP3    H112090   1.333   2.648   1.761 -0.1008 -0.4737  4.7494
 4028TIP3    H212091   1.480   2.617   1.780  1.1579  0.9502 -0.7836
 4029TIP3   OH212092   0.822   1.303   4.738 -0.1175 -0.4351 -0.1217
 4029TIP3    H112093   0.857   1.357   4.809  0.2134 -0.2617 -0.4190
 4029TIP3    H212094   0.811   1.216   4.777 -1.8782  0.1240  0.7517
 4030TIP3   OH212095   5.459   5.451   4.914  0.1892 -0.5775 -0.2811
 4030TIP3    H112096   5.510   5.479   4.990 -1.0752  0.6444  0.1549
 4030TIP3    H212097   5.376   5.421   4.951  0.5501 -2.5831 -0.9739
 4031TIP3   OH212098   3.829   0.812   1.195  0.4630 -0.0258  0.0766
 4031TIP3    H112099   3.840   0.891   1.141  2.2877 -0.7058 -0.6242
 4031TIP3    H212100   3.869   0.835   1.278 -2.2888  0.9974  1.2473
 4032TIP3   OH212101   3.729   0.694   3.639 -0.4537 -0.0928  0.6369
 4032TIP3    H112102   3.805   0.712   3.583 -0.5006  0.9598  0.8883
 4032TIP3    H212103   3.656   0.737   3.595 -0.6744 -0.0753  1.0168
 4033TIP3   OH212104   3.835   3.362   3.787 -0.4196  0.6353  0.2679
 4033TIP3    H112105   3.874   3.274   3.782 -1.9750 -0.0823 -0.0030
 4033TIP3    H212106   3.767   3.361   3.719  0.7900  2.7382 -1.0730
 4034TIP3   OH212107   5.189   5.779   1.368  0.7043  0.4260  0.0516
 4034TIP3    H112108   5.204   5.722   1.292 -1.2525  1.5766 -1.3175
 4034TIP3    H212109   5.261   5.842   1.365  0.2988  0.8678 -1.3216
 4035TIP3   OH212110   2.026   4.584   2.575  0.4092  0.6059 -0.4279
 4035TIP3    H112111   1.933   4.564   2.586  0.5803 -0.7711 -1.2458
 4035TIP3    H212112   2.072   4.508   2.610  1.2238  1.1178 -0.3526
 4036TIP3   OH212113   2.746   3.826   4.490 -0.0978 -0.0393  0.4385
 4036TIP3    H112114   2.819   3.856   4.435 -0.3236  0.2557  0.2984
 4036TIP3    H212115   2.730   3.737   4.460 -1.1239  0.5707 -0.9450
 4037TIP3   OH212116   0.732   4.488   3.947  0.6963  0.3535 -0.3645
 4037TIP3    H112117   0.814   4.508   3.992  0.4399 -0.8952  0.7229
 4037TIP3    H212118   0.702   4.405   3.986 -1.4631  1.1391 -0.2025
 4038TIP3   OH212119   0.939   0.933   0.533  0.0023  0.6136  0.3173
 4038TIP3    H112120   0.884   1.002   0.495 -0.1992  1.7327  2.4630
 4038TIP3    H212121   0.888   0.853   0.522 -0.6835  1.1391 -0.4176
 4039TIP3   OH212122   1.095   4.633   3.989  0.2966 -0.0394 -0.1110
 4039TIP3    H112123   1.042   4.562   4.026  0.4557 -0.4233 -0.5996
 4039TIP3    H212124   1.033   4.702   3.970 -0.1878 -0.8091 -1.4766
 4040TIP3   OH212125   4.481   3.723   3.323  0.6695 -0.4210 -0.2222
 4040TIP3    H112126   4.486   3.752   3.232 -0.4992 -0.5736 -0.3567
 4040TIP3    H212127   4.483   3.804   3.374 -1.3193 -0.1204 -0.5372
 4041TIP3   OH212128   4.868   1.205   5.138 -0.4851  0.1774  0.4066
 4041TIP3    H112129   4.788   1.177   5.182 -0.7911 -1.8929 -1.3275
 4041TIP3    H212130   4.839   1.239   5.054  0.3887  0.3655  0.1720
 4042TIP3   OH212131   2.049   1.166   0.715 -0.6706  0.0057 -0.4818
 4042TIP3    H112132   2.066   1.213   0.633 -1.1080  0.3308 -0.3887
 4042TIP3    H212133   2.073   1.228   0.784  0.2591 -0.4781 -0.3595
 4043TIP3   OH212134   6.115   0.757   3.237  0.1864 -0.4122  0.7852
 4043TIP3    H112135   6.103   0.843   3.196 -1.2042 -1.2455 -0.6539
 4043TIP3    H212136   6.117   0.776   3.331  5.0415  1.7413  0.5010
 4044TIP3   OH212137   1.683   5.936   4.792 -0.1489 -0.6413  0.6877
 4044TIP3    H112138   1.619   5.879   4.837 -1.9601  0.6515 -0.1261
 4044TIP3    H212139   1.704   6.003   4.857 -0.1791 -0.6712  0.7288
 4045TIP3   OH212140   5.475   2.735   2.945  0.0608  0.1240 -0.0710
 4045TIP3    H112141   5.503   2.817   2.985  1.1030 -0.0986 -0.3210
 4045TIP3    H212142   5.383   2.750   2.921  0.1190  1.0618  0.2536
 4046TIP3   OH212143   6.048   1.080   1.398  0.7763  0.7018  0.2749
 4046TIP3    H112144   6.082   1.016   1.460  0.9124 -0.2425 -0.7443
 4046TIP3    H212145   5.956   1.057   1.387  0.9727  0.2769 -0.5641
 4047TIP3   OH212146   2.587   5.292   2.129 -0.0073  0.3976  0.3070
 4047TIP3    H112147   2.661   5.278   2.187  0.1221 -0.8044 -0.1264
 4047TIP3    H212148   2.510   5.286   2.186  0.2018  2.9180  1.0058
 4048TIP3   OH212149   3.733   3.972   1.230 -0.0080 -0.7506  0.1419
 4048TIP3    H112150   3.794   3.960   1.303  0.1949 -2.2702 -0.2579
 4048TIP3    H212151   3.666   4.030   1.265  0.1921 -1.2826  1.4758
 4049TIP3   OH212152   1.779   2.211   5.012 -0.0448  0.5221 -0.1213
 4049TIP3    H112153   1.795   2.302   4.986  0.1085 -0.1010 -2.4206
 4049TIP3    H212154   1.864   2.180   5.042 -0.3509  1.4365  1.8406
 4050TIP3   OH212155   2.136   1.241   0.086 -0.9780  0.0006 -0.1601
 4050TIP3    H112156   2.052   1.214   0.123 -1.6903  2.0478 -0.1463
 4050TIP3    H212157   2.189   1.264   0.163 -1.1507  0.6797 -0.2353
 4051TIP3   OH212158   3.879   2.848   1.808  0.1687  0.1096  0.3348
 4051TIP3    H112159   3.936   2.910   1.854  1.5937 -2.9998  3.1021
 4051TIP3    H212160   3.805   2.834   1.867  0.1597 -1.2298  0.0376
 4052TIP3   OH212161   5.397   2.181   3.117 -0.1608  0.5577 -0.2086
 4052TIP3    H112162   5.486   2.201   3.144 -0.5479  1.2804  0.6014
 4052TIP3    H212163   5.400   2.179   3.022  0.9009 -0.3411 -0.1757
 4053TIP3   OH212164   5.214   3.488   4.023 -0.3331 -0.2409  0.5582
 4053TIP3    H112165   5.251   3.423   4.083 -1.3311 -0.7254  0.6866
 4053TIP3    H212166   5.275   3.561   4.026  0.5892 -0.9996  0.7516
 4054TIP3   OH212167   4.239   2.908   3.368 -0.0669 -0.6528 -0.4363
 4054TIP3    H112168   4.298   2.833   3.368  1.1531  0.2695  0.1072
 4054TIP3    H212169   4.231   2.932   3.461  1.1437  1.0564 -0.7284
 4055TIP3   OH212170   5.955   0.895   4.893  0.0495 -0.3589  0.4520
 4055TIP3    H112171   6.022   0.945   4.846  0.1421 -1.5894 -0.8110
 4055TIP3    H212172   5.884   0.886   4.829  0.0845 -1.9015  0.6001
 4056TIP3   OH212173   6.251   3.427   4.130  0.2267 -0.8204 -0.3400
 4056TIP3    H112174   6.182   3.380   4.084 -1.4330 -0.0218  1.1977
 4056TIP3    H212175   6.213   3.448   4.216 -0.0208  4.8858 -1.4292
 4057TIP3   OH212176   4.804   1.293   4.883 -0.1458  0.1613 -0.0551
 4057TIP3    H112177   4.714   1.325   4.876  0.1771  0.7340 -2.4024
 4057TIP3    H212178   4.858   1.370   4.863  0.7574 -0.8215 -1.5611
 4058TIP3   OH212179   2.198   3.260   0.136  0.3654 -0.7451 -0.0413
 4058TIP3    H112180   2.221   3.190   0.197  1.2993  1.4712  2.3412
 4058TIP3    H212181   2.276   3.271   0.082  2.3781  1.7369  3.0322
 4059TIP3   OH212182   5.871   3.370   1.153 -0.4399 -0.0126  0.5291
 4059TIP3    H112183   5.955   3.382   1.108  0.4333 -0.9531  1.8280
 4059TIP3    H212184   5.838   3.286   1.120 -0.5442  0.0296  0.5250
 4060TIP3   OH212185   5.090   4.289   3.057 -0.0028 -0.1852  0.2217
 4060TIP3    H112186   5.171   4.334   3.036 -0.4906  0.5723 -0.0733
 4060TIP3    H212187   5.075   4.306   3.150  0.8669 -1.4594  0.6148
 4061TIP3   OH212188   3.131   2.993   2.332  0.1613  0.5015 -0.1415
 4061TIP3    H112189   3.038   2.970   2.337 -1.0241  4.5938 -0.0217
 4061TIP3    H212190   3.166   2.935   2.265 -2.9391  0.0589 -1.5542
 4062TIP3   OH212191   0.807   1.779   4.774 -0.2436  0.2920 -0.0603
 4062TIP3    H112192   0.900   1.757   4.775 -0.6025 -1.3949 -0.3679
 4062TIP3    H212193   0.790   1.816   4.861  1.0666  2.4639 -0.6327
 4063TIP3   OH212194   4.040   3.452   1.319 -0.3201  0.0430 -0.0688
 4063TIP3    H112195   3.945   3.455   1.329 -0.2787 -0.6208  0.6145
 4063TIP3    H212196   4.070   3.538   1.348 -0.7610  0.5234 -0.9984
 4064TIP3   OH212197   3.799   4.781   3.459 -0.2368 -0.1847  0.3175
 4064TIP3    H112198   3.812   4.839   3.534  0.7760  0.2785 -0.1992
 4064TIP3    H212199   3.736   4.716   3.490  0.4473 -0.2246  1.6932
 4065TIP3   OH212200   5.365   0.990   3.134  0.6014 -0.5521 -0.1130
 4065TIP3    H112201   5.349   0.976   3.228  1.1473 -0.4846 -0.0094
 4065TIP3    H212202   5.283   1.027   3.102  0.9556  1.0396  0.6891
 4066TIP3   OH212203   4.443   4.727   3.667  0.2752  0.3956 -0.1978
 4066TIP3    H112204   4.466   4.662   3.734  1.1574 -1.0471 -1.8045
 4066TIP3    H212205   4.396   4.795   3.715 -1.5443 -1.8514  1.4558
 4067TIP3   OH212206   5.651   2.622   2.236 -0.6507  0.1701  0.0876
 4067TIP3    H112207   5.678   2.639   2.146  0.0320 -0.0096  0.2449
 4067TIP3    H212208   5.631   2.529   2.238  1.1281 -0.2575  0.5211
 4068TIP3   OH212209   0.635   4.610   1.216  0.0033  0.1265 -0.2339
 4068TIP3    H112210   0.607   4.632   1.127 -0.1199  0.8636 -0.0194
 4068TIP3    H212211   0.571   4.653   1.273 -0.7610 -1.5161  0.2008
 4069TIP3   OH212212   4.187   1.958   1.649 -0.3514 -0.3852 -0.0445
 4069TIP3    H112213   4.209   2.029   1.588  0.1912 -1.0689 -0.6795
 4069TIP3    H212214   4.104   1.923   1.616 -0.2306 -0.5344 -0.1940
 4070TIP3   OH212215   0.323   0.904   4.003 -0.0483  0.0579  0.0251
 4070TIP3    H112216   0.266   0.890   4.078 -1.2400 -0.6805 -0.9899
 4070TIP3    H212217   0.266   0.943   3.937  0.3712 -1.5912 -1.3499
 4071TIP3   OH212218   4.557   0.074   0.069 -0.4810  0.0548  0.0439
 4071TIP3    H112219   4.477   0.109   0.031  0.2837 -1.7161 -3.6146
 4071TIP3    H212220   4.544  -0.021   0.068  1.3010 -0.2257  0.2531
 4072TIP3   OH212221   6.136   2.733   1.187  0.2279  0.4013 -0.1164
 4072TIP3    H112222   6.182   2.673   1.129 -1.4032  1.3498 -2.5615
 4072TIP3    H212223   6.047   2.697   1.192 -0.3522  1.7517 -0.3639
 4073TIP3   OH212224   2.802   3.574   4.936  0.1467  0.0040  0.3843
 4073TIP3    H112225   2.776   3.649   4.882  2.3723 -0.2388 -1.1737
 4073TIP3    H212226   2.784   3.498   4.881 -0.1136 -0.4800  1.1188
 4074TIP3   OH212227   1.659   0.823   0.380 -0.3390  0.1452  0.3283
 4074TIP3    H112228   1.624   0.839   0.467 -1.9890  0.9703 -0.4400
 4074TIP3    H212229   1.741   0.872   0.378 -0.8914  1.1327  1.0215
 4075TIP3   OH212230   4.860   1.557   3.648 -0.3561  0.0725 -0.3602
 4075TIP3    H112231   4.859   1.602   3.732 -1.1073  1.7175 -1.1987
 4075TIP3    H212232   4.913   1.614   3.591 -0.2458 -0.7656 -1.1194
 4076TIP3   OH212233   3.904   0.652   0.004  0.7381 -0.7176 -0.3101
 4076TIP3    H112234   3.908   0.683   0.094  0.5759 -1.5106 -0.0219
 4076TIP3    H212235   3.858   0.569   0.009 -0.0331 -0.3711 -1.2371
 4077TIP3   OH212236   0.933   0.904   3.913 -0.5398  0.2863 -0.2995
 4077TIP3    H112237   1.023   0.897   3.882 -0.1545  1.3406  0.5175
 4077TIP3    H212238   0.921   0.828   3.970 -0.0288  0.3770 -0.0716
 4078TIP3   OH212239   3.455   2.611   1.254  0.2921 -0.7896  0.1699
 4078TIP3    H112240   3.475   2.677   1.188  0.9765 -0.7431  0.4153
 4078TIP3    H212241   3.508   2.535   1.228 -0.2368 -1.1321  0.0759
 4079TIP3   OH212242   6.146   3.226   1.359 -0.1368 -0.0418 -0.4320
 4079TIP3    H112243   6.085   3.155   1.337  0.5963 -0.6980 -0.4026
 4079TIP3    H212244   6.196   3.192   1.432  0.0605  0.6134 -0.2597
 4080TIP3   OH212245   4.149   5.663   3.551 -0.5691  0.3465  0.2414
 4080TIP3    H112246   4.175   5.748   3.514 -0.8938  0.6358  0.6574
 4080TIP3    H212247   4.102   5.686   3.631 -2.1135 -0.1465 -0.4839
 4081TIP3   OH212248   6.044   2.718   4.064  0.4071 -0.0712  0.0704
 4081TIP3    H112249   6.108   2.788   4.048  2.7187 -1.8553  0.8624
 4081TIP3    H212250   6.097   2.644   4.094 -1.9142 -2.2017 -0.7387
 4082TIP3   OH212251   1.466   1.947   4.579  0.2090 -0.2900 -0.1654
 4082TIP3    H112252   1.510   1.903   4.651  1.5935  0.7360 -0.3339
 4082TIP3    H212253   1.451   1.879   4.514  0.9173 -0.8055  0.2038
 4083TIP3   OH212254   5.158   1.797   1.220 -0.0408  0.2818  0.8241
 4083TIP3    H112255   5.130   1.847   1.297  1.3977  1.5581  0.5712
 4083TIP3    H212256   5.090   1.814   1.155 -1.0145 -0.4057  1.6297
 4084TIP3   OH212257   4.483   0.710   0.345 -0.2659 -0.5838 -0.5176
 4084TIP3    H112258   4.494   0.631   0.293 -0.5437  0.0972 -1.6607
 4084TIP3    H212259   4.516   0.781   0.289 -1.2627  0.2630 -0.0757
 4085TIP3   OH212260   2.348   2.297   3.267 -0.4544  0.1685 -0.1860
 4085TIP3    H112261   2.419   2.324   3.326  0.2233 -0.2165 -0.8102
 4085TIP3    H212262   2.297   2.377   3.253 -0.5881  0.2852  0.8549
 4086TIP3   OH212263   4.337   2.655   4.594 -0.2517  0.2947  0.0802
 4086TIP3    H112264   4.325   2.747   4.619 -1.1291  0.8203 -2.0307
 4086TIP3    H212265   4.425   2.633   4.624 -0.8284  1.1055  2.6098
 4087TIP3   OH212266   3.230   3.971   1.774 -0.3373 -0.3873  0.0899
 4087TIP3    H112267   3.225   3.876   1.785 -1.2228 -0.2619  0.8357
 4087TIP3    H212268   3.281   4.001   1.849  0.0841 -0.2830 -0.2345
 4088TIP3   OH212269   5.817   4.702   3.406 -0.6369  0.0618 -0.7685
 4088TIP3    H112270   5.887   4.719   3.469  0.1080 -1.3952 -1.1494
 4088TIP3    H212271   5.863   4.664   3.331 -1.8022 -0.5453 -1.1862
 4089TIP3   OH212272   1.745   0.309   2.621 -0.1694 -0.1020  0.1567
 4089TIP3    H112273   1.797   0.388   2.607 -2.2555  1.1250 -1.3068
 4089TIP3    H212274   1.747   0.295   2.716 -0.0851  1.9801  0.5110
 4090TIP3   OH212275   4.850   3.534   2.679  0.2091  0.5134  0.0768
 4090TIP3    H112276   4.893   3.469   2.623  0.2279  0.5655  0.0314
 4090TIP3    H212277   4.802   3.481   2.743  0.3454  0.4570  0.1312
 4091TIP3   OH212278   1.653   5.882   1.476  0.5568  0.4032  0.2350
 4091TIP3    H112279   1.584   5.894   1.411 -0.2091  3.0087  1.4247
 4091TIP3    H212280   1.606   5.862   1.558  1.3076  0.4748  0.6933
 4092TIP3   OH212281   5.588   4.312   2.553 -0.0221 -0.2283  0.6256
 4092TIP3    H112282   5.623   4.397   2.580 -0.5000  0.2098 -0.0857
 4092TIP3    H212283   5.494   4.327   2.542 -0.1833 -0.9688  0.9387
 4093TIP3   OH212284   2.616   5.562   1.284 -0.2018  0.3783  0.3088
 4093TIP3    H112285   2.663   5.618   1.345 -0.4743 -0.6174  1.4818
 4093TIP3    H212286   2.524   5.589   1.292  0.1032  2.3534 -2.0113
 4094TIP3   OH212287   5.313   2.079   1.521  0.3418 -0.5568  0.2802
 4094TIP3    H112288   5.283   2.051   1.608 -0.5842  0.4679  0.2956
 4094TIP3    H212289   5.234   2.104   1.475  0.9236 -0.2676 -0.5791
 4095TIP3   OH212290   5.966   4.005   3.147  0.7376  0.1424  0.3697
 4095TIP3    H112291   6.001   3.978   3.062 -0.1632  1.9266 -0.6111
 4095TIP3    H212292   6.025   3.964   3.211 -0.0443 -3.3955 -0.9387
 4096TIP3   OH212293   4.701   2.186   5.087 -0.1654  0.0435 -0.1391
 4096TIP3    H112294   4.620   2.138   5.070 -0.1599 -0.7835  1.8287
 4096TIP3    H212295   4.768   2.118   5.093  0.8643  0.7563 -2.3562
 4097TIP3   OH212296   6.252   0.413   2.644 -0.1443  0.2487 -0.3922
 4097TIP3    H112297   6.223   0.493   2.601  1.4620  1.0993  0.0582
 4097TIP3    H212298   6.293   0.362   2.574  3.5426  2.1454  0.1861
 4098TIP3   OH212299   2.388   4.063   2.605  0.1408 -0.4174  0.5892
 4098TIP3    H112300   2.394   4.050   2.510  0.0529  0.1061  0.5112
 4098TIP3    H212301   2.348   3.982   2.637  0.9877 -0.9664  0.2902
 4099TIP3   OH212302   2.655   3.078   1.390  0.1455 -0.0680  0.3305
 4099TIP3    H112303   2.670   3.035   1.474  2.1989 -0.2125 -0.0359
 4099TIP3    H212304   2.699   3.020   1.326  0.9928  1.3851 -0.4612
 4100TIP3   OH212305   4.903   3.598   0.952  0.0225  0.1735  0.2255
 4100TIP3    H112306   4.948   3.520   0.985 -1.9393 -0.5208  1.4996
 4100TIP3    H212307   4.910   3.592   0.857  0.1947 -1.3997  0.3061
 4101TIP3   OH212308   1.799   4.476   3.925  0.7063 -0.0017  0.1523
 4101TIP3    H112309   1.727   4.448   3.981  0.3298 -0.4579 -0.5577
 4101TIP3    H212310   1.854   4.530   3.982  0.6109 -0.8938  1.1100
 4102TIP3   OH212311   0.922   4.499   2.239 -1.0286 -0.6409 -0.3870
 4102TIP3    H112312   0.893   4.433   2.301 -0.6379 -0.2309  0.2511
 4102TIP3    H212313   0.933   4.452   2.156 -2.5626 -0.9897 -0.4196
 4103TIP3   OH212314   0.160   2.069   0.715 -0.3233 -0.5190  0.4659
 4103TIP3    H112315   0.223   2.015   0.667  0.3067 -0.1175  0.8253
 4103TIP3    H212316   0.120   2.010   0.778  1.4858 -0.2419  1.9245
 4104TIP3   OH212317   0.958   1.471   0.411  0.2958 -0.4920 -0.3722
 4104TIP3    H112318   0.867   1.488   0.384  0.0059 -1.7330 -0.2286
 4104TIP3    H212319   0.953   1.391   0.463  1.9773 -3.1496 -3.8849
 4105TIP3   OH212320   2.122   0.946   0.154 -0.1383  0.5988 -0.1240
 4105TIP3    H112321   2.050   0.926   0.214  1.2641 -2.4963  0.7664
 4105TIP3    H212322   2.191   0.981   0.211  0.3249  0.0195 -0.3174
 4106TIP3   OH212323   0.509   2.733   2.884  0.2531  0.4995  0.0372
 4106TIP3    H112324   0.583   2.731   2.823  0.5406 -0.7401  0.4009
 4106TIP3    H212325   0.449   2.666   2.850 -0.9772  1.8241 -0.5514
 4107TIP3   OH212326   0.370   2.169   3.330 -0.0771 -0.0116 -0.0887
 4107TIP3    H112327   0.456   2.146   3.295  0.9413  2.0431  0.9390
 4107TIP3    H212328   0.350   2.098   3.391  1.0023 -0.3904 -0.1504
 4108TIP3   OH212329   0.230   1.083   3.225 -0.3096 -0.0222 -0.3227
 4108TIP3    H112330   0.206   1.035   3.304  0.5878  0.2297  0.1134
 4108TIP3    H212331   0.182   1.165   3.231 -1.0209 -0.4164 -0.5415
 4109TIP3   OH212332   3.426   4.253   2.142  0.4014 -0.4701 -0.4631
 4109TIP3    H112333   3.513   4.236   2.177 -0.8512 -2.5701  1.9195
 4109TIP3    H212334   3.374   4.277   2.219 -2.2841 -4.3560 -0.7833
 4110TIP3   OH212335   2.564   5.915   3.391  0.2844  0.4314 -0.4482
 4110TIP3    H112336   2.607   5.837   3.356 -0.6248  0.3220 -1.3767
 4110TIP3    H212337   2.634   5.980   3.399  0.5918  0.3666 -2.2155
 4111TIP3   OH212338   3.847   4.589   2.471  0.5274  0.0892 -0.1948
 4111TIP3    H112339   3.857   4.681   2.496  0.8424 -0.1186  0.4635
 4111TIP3    H212340   3.928   4.547   2.500 -0.0840 -0.6155  0.5478
 4112TIP3   OH212341   4.390   3.467   3.390  0.2655  0.9143 -0.9457
 4112TIP3    H112342   4.397   3.557   3.359  1.4899  0.5799 -1.7054
 4112TIP3    H212343   4.470   3.453   3.441 -1.0280  0.9998  1.2439
 4113TIP3   OH212344   1.087   3.214   4.618  0.1752 -0.2304 -0.7768
 4113TIP3    H112345   1.054   3.268   4.690  1.3372  0.7841 -0.9688
 4113TIP3    H212346   1.012   3.201   4.561 -0.6622 -0.6865  0.3851
 4114TIP3   OH212347   1.529   4.458   3.290 -0.4158  0.1747  0.1736
 4114TIP3    H112348   1.453   4.437   3.344  1.3121  0.9985  3.1292
 4114TIP3    H212349   1.593   4.390   3.309  0.6962  1.1749  0.1794
 4115TIP3   OH212350   2.927   1.210   0.978  0.2924 -0.3452 -0.0997
 4115TIP3    H112351   2.836   1.185   0.964  0.2518  0.0026 -0.4756
 4115TIP3    H212352   2.924   1.269   1.054  0.1387  0.0323 -0.3931
 4116TIP3   OH212353   3.497   2.312   1.310 -0.5815 -0.1655 -0.4114
 4116TIP3    H112354   3.417   2.261   1.321 -0.9357  0.7801  1.9566
 4116TIP3    H212355   3.535   2.316   1.397  1.1632  0.8682 -1.1639
 4117TIP3   OH212356   2.150   2.867   1.850  0.4292 -0.6453  0.0261
 4117TIP3    H112357   2.086   2.797   1.862 -0.1813  0.2402  2.5651
 4117TIP3    H212358   2.233   2.829   1.878  0.4070 -0.7977 -0.1116
 4118TIP3   OH212359   5.194   1.947   2.148  0.1979  0.2887  0.6171
 4118TIP3    H112360   5.139   1.887   2.197  0.1429  0.5404  0.8643
 4118TIP3    H212361   5.223   2.012   2.212  1.9164 -0.6109  0.8155
 4119TIP3   OH212362   1.597   5.649   2.237 -0.2345 -0.0634 -0.7837
 4119TIP3    H112363   1.592   5.739   2.206  0.3833 -0.1027 -1.0163
 4119TIP3    H212364   1.622   5.656   2.329 -1.3946  0.0304 -0.4555
 4120TIP3   OH212365   1.859   2.156   4.167  0.6260  0.7971  0.5034
 4120TIP3    H112366   1.918   2.133   4.238  2.3156 -0.1408 -1.1301
 4120TIP3    H212367   1.780   2.105   4.184  0.3586  1.7745  2.4988
 4121TIP3   OH212368   1.007   5.037   5.136 -0.2194 -0.1997 -0.2496
 4121TIP3    H112369   1.043   5.086   5.062  0.4179 -0.1712  0.0769
 4121TIP3    H212370   0.929   4.993   5.100 -0.3276  0.3887 -0.7479
 4122TIP3   OH212371   0.667   5.319   4.506 -0.4132 -0.7598 -0.4030
 4122TIP3    H112372   0.626   5.278   4.429 -1.2513 -1.2798  0.3084
 4122TIP3    H212373   0.706   5.400   4.472 -1.2796 -0.6880 -1.2713
 4123TIP3   OH212374   1.438   2.119   0.937  0.0469 -0.3204  0.6791
 4123TIP3    H112375   1.348   2.121   0.905  0.6112 -0.6014 -1.0376
 4123TIP3    H212376   1.463   2.211   0.945  0.4911 -0.1753 -1.6389
 4124TIP3   OH212377   3.889   3.614   3.911 -0.4014 -0.1257 -0.0448
 4124TIP3    H112378   3.901   3.520   3.897 -0.1268  0.1029 -1.5103
 4124TIP3    H212379   3.917   3.654   3.829  1.2883  1.4058  1.2013
 4125TIP3   OH212380   5.249   2.714   1.564  0.3766  0.0434  0.4045
 4125TIP3    H112381   5.168   2.731   1.610  0.0546  2.0637 -0.7914
 4125TIP3    H212382   5.223   2.699   1.473  1.0312 -3.3933  0.6551
 4126TIP3   OH212383   5.434   5.224   0.483 -0.6114  0.2228  0.4153
 4126TIP3    H112384   5.524   5.254   0.474 -0.8353  0.4835 -1.1819
 4126TIP3    H212385   5.380   5.301   0.466 -1.1466 -0.3572 -0.6331
 4127TIP3   OH212386   2.774   5.762   4.904  0.6191  0.4705 -0.4673
 4127TIP3    H112387   2.808   5.720   4.825 -0.6118  0.1828 -0.8684
 4127TIP3    H212388   2.765   5.690   4.967 -1.7362 -0.0004 -1.2383
 4128TIP3   OH212389   3.852   5.850   4.191  0.0214 -0.0137 -0.6325
 4128TIP3    H112390   3.764   5.814   4.176 -1.4357  1.9885  2.0573
 4128TIP3    H212391   3.848   5.938   4.155  0.8292  0.1953 -0.2305
 4129TIP3   OH212392   3.379   0.067   3.745 -0.4099 -0.2338 -0.3958
 4129TIP3    H112393   3.431   0.126   3.800 -0.1313  0.0256 -0.9323
 4129TIP3    H212394   3.351   0.121   3.672  0.6679 -1.0065 -1.4066
 4130TIP3   OH212395   2.993   2.133   2.169 -0.4133  0.2778  0.2411
 4130TIP3    H112396   3.050   2.205   2.141  1.3536 -1.4130 -0.8335
 4130TIP3    H212397   2.906   2.171   2.173  0.0843  1.9707 -2.4350
 4131TIP3   OH212398   0.355   1.929   3.488 -0.2733 -0.3714  0.7519
 4131TIP3    H112399   0.415   1.929   3.562  0.5260  2.3074  0.2176
 4131TIP3    H212400   0.392   1.866   3.427  0.3888 -0.8530  1.6401
 4132TIP3   OH212401   3.686   3.741   1.546 -1.0061 -0.5054 -0.3825
 4132TIP3    H112402   3.663   3.833   1.563 -1.3237 -0.6441 -0.0639
 4132TIP3    H212403   3.755   3.722   1.610 -1.3225 -0.6495 -0.0795
 4133TIP3   OH212404   5.282   3.224   2.076 -0.0096 -0.1706  0.3529
 4133TIP3    H112405   5.252   3.208   2.166  1.3574  0.1527  0.8952
 4133TIP3    H212406   5.213   3.186   2.021 -0.5017 -1.0857  1.5380
 4134TIP3   OH212407   4.551   0.896   3.464 -0.1363  0.1282  0.1606
 4134TIP3    H112408   4.503   0.815   3.446  1.5979 -0.8834 -0.1532
 4134TIP3    H212409   4.640   0.867   3.486  1.2655  2.0286 -2.4332
 4135TIP3   OH212410   3.163   1.892   2.018 -0.2796 -0.8372 -0.3432
 4135TIP3    H112411   3.195   1.801   2.014  1.5656 -0.2955  0.5756
 4135TIP3    H212412   3.084   1.887   2.071 -0.1240 -1.8959 -0.1841
 4136TIP3   OH212413   4.880   0.426   0.901 -0.0403  0.4091 -0.2730
 4136TIP3    H112414   4.959   0.397   0.948 -0.1857 -0.3656 -0.4902
 4136TIP3    H212415   4.885   0.521   0.902  0.9730  0.3696 -0.4062
 4137TIP3   OH212416   0.542   2.118   0.108  0.1039  0.0045  0.6437
 4137TIP3    H112417   0.612   2.055   0.094 -0.1436 -0.3755  1.0742
 4137TIP3    H212418   0.462   2.067   0.100 -0.0969  0.2353  1.1349
 4138TIP3   OH212419   4.562   2.283   3.748 -0.3095  0.2165 -0.1453
 4138TIP3    H112420   4.499   2.322   3.688  0.2056 -0.3517 -1.0756
 4138TIP3    H212421   4.636   2.258   3.693 -0.8362 -2.5643  0.2826
 4139TIP3   OH212422   4.749   2.301   1.364 -0.2702  0.3545 -0.3816
 4139TIP3    H112423   4.677   2.364   1.370  0.1489  0.8087 -0.0423
 4139TIP3    H212424   4.824   2.354   1.336  0.0629 -0.0134 -0.1880
 4140TIP3   OH212425   4.278   1.724   5.024  0.2489  0.2659 -0.0494
 4140TIP3    H112426   4.339   1.681   4.965 -1.0167  0.3962 -1.4980
 4140TIP3    H212427   4.216   1.769   4.967 -0.9317  0.5243  1.3676
 4141TIP3   OH212428   0.687   1.944   1.042  0.0158  0.5135  0.3323
 4141TIP3    H112429   0.628   2.002   0.994  0.5974  0.8958  0.0686
 4141TIP3    H212430   0.639   1.862   1.050 -0.4425  0.7346 -0.1111
 4142TIP3   OH212431   6.325   0.486   1.666 -0.3651 -0.2677 -0.0354
 4142TIP3    H112432   6.334   0.391   1.667 -0.6535 -0.3327 -1.4352
 4142TIP3    H212433   6.395   0.517   1.608  0.9488  0.5592  1.9044
 4143TIP3   OH212434   1.497   2.349   1.202  0.8268  0.2050 -0.1255
 4143TIP3    H112435   1.460   2.425   1.247  1.6459  1.1971 -1.0636
 4143TIP3    H212436   1.465   2.358   1.112 -1.7641 -2.3666  0.3644
 4144TIP3   OH212437   4.708   3.906   1.245 -0.0150 -0.0167 -0.2962
 4144TIP3    H112438   4.783   3.956   1.214 -0.9719  1.1714 -0.7769
 4144TIP3    H212439   4.739   3.865   1.326  0.7884  1.4638  0.1971
 4145TIP3   OH212440   2.060   5.201   0.846  0.1022  0.0080  0.3433
 4145TIP3    H112441   2.135   5.147   0.870  1.3224  1.3734 -0.2284
 4145TIP3    H212442   1.994   5.139   0.817  0.7856 -1.2721  1.4026
 4146TIP3   OH212443   5.964   2.030   1.734 -0.1094 -0.3102  0.0082
 4146TIP3    H112444   5.969   2.124   1.717 -3.8664 -0.0779 -0.6283
 4146TIP3    H212445   6.016   1.990   1.664 -0.1723  1.2261 -0.9650
 4147TIP3   OH212446   3.110   2.244   5.154  0.3937 -0.1622 -0.3831
 4147TIP3    H112447   3.161   2.170   5.122  2.3648  1.0789 -0.2580
 4147TIP3    H212448   3.174   2.302   5.194 -1.2562  1.0777  0.5772
 4148TIP3   OH212449   1.837   1.232   0.483 -0.6248 -0.0673 -0.6973
 4148TIP3    H112450   1.857   1.284   0.561 -1.5774  1.1901 -1.2461
 4148TIP3    H212451   1.882   1.278   0.411 -1.2810 -0.1162 -1.1531
 4149TIP3   OH212452   1.200   2.779   4.236 -0.2813  0.5581 -0.0203
 4149TIP3    H112453   1.216   2.873   4.239 -0.8857  0.6785 -0.3648
 4149TIP3    H212454   1.280   2.739   4.270  0.8286  1.1205 -1.8943
 4150TIP3   OH212455   3.793   5.115   4.800 -0.3782  0.3048 -0.1656
 4150TIP3    H112456   3.840   5.194   4.773 -1.0223  0.8587  0.3028
 4150TIP3    H212457   3.754   5.138   4.884  0.1325 -0.8073  0.3872
 4151TIP3   OH212458   0.789   2.913   3.866  0.3569 -0.6025  0.2206
 4151TIP3    H112459   0.801   2.895   3.959 -0.3154 -0.9022  0.2582
 4151TIP3    H212460   0.694   2.905   3.852  0.1611  1.5037 -0.0567
 4152TIP3   OH212461   5.061   0.700   4.708 -0.3908  0.2323 -0.2446
 4152TIP3    H112462   5.115   0.753   4.650 -0.2288  0.9367  0.5298
 4152TIP3    H212463   5.123   0.648   4.758 -0.3807  1.2581  0.8544
 4153TIP3   OH212464   5.779   2.704   4.453  0.6972 -0.2742 -0.0644
 4153TIP3    H112465   5.762   2.751   4.372 -2.2361 -1.6496 -0.3744
 4153TIP3    H212466   5.740   2.759   4.521 -1.1129 -1.3113 -0.2145
 4154TIP3   OH212467   4.393   3.383   3.131  0.1867  0.2020  0.3497
 4154TIP3    H112468   4.381   3.399   3.225  0.3058 -1.4556  0.6664
 4154TIP3    H212469   4.344   3.303   3.114 -1.1694  1.3042 -1.3570
 4155TIP3   OH212470   1.887   0.732   3.580 -0.1024 -0.0855  0.7927
 4155TIP3    H112471   1.799   0.709   3.609 -0.8273  1.4152 -0.0851
 4155TIP3    H212472   1.922   0.651   3.543 -1.0722 -0.7259  1.2326
 4156TIP3   OH212473   5.614   2.595   5.066  0.2644  0.1930 -0.6542
 4156TIP3    H112474   5.627   2.609   5.160  1.5446  1.7154 -0.9930
 4156TIP3    H212475   5.644   2.506   5.050 -0.7429 -0.3752  0.4870
 4157TIP3   OH212476   5.424   1.394   3.327  0.1962 -0.1442 -0.8696
 4157TIP3    H112477   5.504   1.341   3.332  0.3262  0.0791 -0.5187
 4157TIP3    H212478   5.456   1.484   3.323 -0.0397  0.0711  0.9617
 4158TIP3   OH212479   5.857   3.481   1.424  0.0844 -0.1852  0.2388
 4158TIP3    H112480   5.802   3.418   1.471 -0.2111  1.2042  1.8681
 4158TIP3    H212481   5.870   3.441   1.338 -0.3812 -2.2787  1.0587
 4159TIP3   OH212482   4.813   2.061   1.947 -0.0279  0.0037  0.2428
 4159TIP3    H112483   4.768   2.101   2.022  1.2274 -2.0539  2.2115
 4159TIP3    H212484   4.780   1.971   1.945 -0.2315  0.0791 -1.8986
 4160TIP3   OH212485   4.459   3.162   3.625 -0.1565  0.1376 -0.0692
 4160TIP3    H112486   4.445   3.107   3.702 -1.1045  0.9459  0.3536
 4160TIP3    H212487   4.377   3.210   3.614  0.3290  0.7987 -0.9747
 4161TIP3   OH212488   6.079   3.440   0.969  0.2566 -0.1967 -0.2417
 4161TIP3    H112489   6.129   3.512   1.008 -0.0947 -0.4246  0.6667
 4161TIP3    H212490   6.117   3.429   0.882  1.8295 -0.3830  0.4304
 4162TIP3   OH212491   3.898   1.458   3.212  0.0247 -0.3464 -0.1991
 4162TIP3    H112492   3.883   1.476   3.305  1.4017 -1.0974  0.1904
 4162TIP3    H212493   3.810   1.457   3.173 -0.5294  0.5511  0.9707
 4163TIP3   OH212494   3.014   5.626   3.450 -0.2389 -0.3189 -0.2905
 4163TIP3    H112495   2.988   5.715   3.426  1.2830  0.4743  0.7784
 4163TIP3    H212496   3.030   5.582   3.366 -1.3423  0.2851 -0.8409
 4164TIP3   OH212497   1.779   2.896   1.865 -0.0237  0.1419 -0.0885
 4164TIP3    H112498   1.752   2.958   1.798  2.2397  1.1812 -0.1145
 4164TIP3    H212499   1.792   2.814   1.818 -0.0804  0.4243 -0.6056
 4165TIP3   OH212500   1.370   0.503   1.208  0.2168 -0.5388  0.6432
 4165TIP3    H112501   1.336   0.439   1.146  1.3430 -0.2382 -0.3160
 4165TIP3    H212502   1.380   0.583   1.157  3.0895 -0.8079  0.6241
 4166TIP3   OH212503   2.471   5.088   3.103 -0.0025 -0.2382 -0.2088
 4166TIP3    H112504   2.446   5.127   3.187  0.1642  1.4747 -0.9067
 4166TIP3    H212505   2.392   5.096   3.049 -0.3033 -1.8884 -0.0624
 4167TIP3   OH212506   4.648   1.985   3.832  0.1303  0.5933 -0.2849
 4167TIP3    H112507   4.595   2.059   3.861 -1.4854 -1.1359  1.4909
 4167TIP3    H212508   4.720   1.982   3.896  0.2819  0.7122 -0.4494
 4168TIP3   OH212509   6.103   3.030   3.226  0.1861  0.0324 -0.6681
 4168TIP3    H112510   6.157   3.052   3.301 -0.4251 -0.3724 -0.0991
 4168TIP3    H212511   6.030   2.980   3.263  0.1566 -0.6273 -1.5940
 4169TIP3   OH212512   2.495   3.250   4.427  0.3491 -0.5565 -0.5413
 4169TIP3    H112513   2.566   3.203   4.384  0.2430 -0.0111 -1.3316
 4169TIP3    H212514   2.472   3.320   4.366 -1.1482 -0.9694 -0.4823
 4170TIP3   OH212515   0.642   5.744   4.892  0.3481  0.1327 -0.3270
 4170TIP3    H112516   0.593   5.698   4.824 -1.1239  0.8802  0.1821
 4170TIP3    H212517   0.617   5.701   4.974  1.1281  0.0457 -0.1309
 4171TIP3   OH212518   1.719   3.653   0.936 -0.3406 -0.1453 -0.8579
 4171TIP3    H112519   1.800   3.628   0.892 -0.4965  0.8691 -1.7438
 4171TIP3    H212520   1.748   3.691   1.019  0.0807  0.1323 -1.1307
 4172TIP3   OH212521   0.044   4.695   4.153  0.0157  0.7589  0.1363
 4172TIP3    H112522   0.016   4.671   4.241  0.5989 -0.8606 -0.0830
 4172TIP3    H212523   0.003   4.631   4.096 -0.3589  1.7882 -0.8003
 4173TIP3   OH212524   3.611   4.957   1.692  0.5199  0.3666  0.7823
 4173TIP3    H112525   3.550   4.905   1.745 -0.0469 -0.6134 -0.7870
 4173TIP3    H212526   3.664   4.892   1.645 -0.2743  1.1556 -1.2981
 4174TIP3   OH212527   1.202   0.806   2.366 -0.1969  0.0240 -0.2590
 4174TIP3    H112528   1.193   0.785   2.458  0.1912 -1.7461 -0.5893
 4174TIP3    H212529   1.295   0.794   2.347 -0.0652  1.4389 -0.6615
 4175TIP3   OH212530   1.645   5.678   0.402 -0.0239  0.2594  0.3214
 4175TIP3    H112531   1.593   5.603   0.431  1.4490 -0.6408  0.7507
 4175TIP3    H212532   1.613   5.696   0.313 -1.6666  0.3447  0.8936
 4176TIP3   OH212533   1.394   3.265   3.505  0.0325 -0.1914 -0.0362
 4176TIP3    H112534   1.365   3.299   3.590  0.6951  0.1202  0.0704
 4176TIP3    H212535   1.427   3.177   3.524  0.9682  0.1937  0.1882
 4177TIP3   OH212536   2.143   2.397   3.845 -0.0357  0.4919  0.3847
 4177TIP3    H112537   2.131   2.448   3.765  0.0816  1.9960  1.2953
 4177TIP3    H212538   2.072   2.425   3.903  0.2095 -0.1565  1.0234
 4178TIP3   OH212539   2.966   2.723   4.667  0.3961  0.6806 -0.0636
 4178TIP3    H112540   3.027   2.650   4.670 -2.1525 -1.5916  0.3749
 4178TIP3    H212541   2.968   2.761   4.755  2.3102  1.7420 -0.5166
 4179TIP3   OH212542   3.101   2.507   0.766 -0.1478  0.4576 -0.2829
 4179TIP3    H112543   3.159   2.548   0.702 -0.0609 -0.4721 -0.8166
 4179TIP3    H212544   3.094   2.416   0.737  0.8947 -0.3216  1.7060
 4180TIP3   OH212545   4.418   5.220   4.119  0.0973 -0.4382 -0.0857
 4180TIP3    H112546   4.335   5.257   4.150  1.2574  2.1132  0.2931
 4180TIP3    H212547   4.414   5.229   4.024 -0.5290 -1.4621 -0.1661
 4181TIP3   OH212548   1.489   2.370   2.548 -0.4088  0.5238  0.3833
 4181TIP3    H112549   1.558   2.405   2.604 -1.4096 -1.2760  2.9582
 4181TIP3    H212550   1.527   2.368   2.460  1.6775  2.3885  1.1666
 4182TIP3   OH212551   4.863   4.580   2.903 -0.2392 -0.0335 -0.2666
 4182TIP3    H112552   4.925   4.591   2.975  0.1806 -1.5252 -0.3559
 4182TIP3    H212553   4.841   4.487   2.905 -2.9990  0.5576  0.1608
 4183TIP3   OH212554   2.104   0.157   3.235 -0.1194  0.6197 -0.2541
 4183TIP3    H112555   2.122   0.215   3.310  1.3215  0.2356 -0.2845
 4183TIP3    H212556   2.047   0.209   3.178  0.9188  1.9228 -0.1533
 4184TIP3   OH212557   2.848   1.754   1.953  0.4665  0.4800 -0.1808
 4184TIP3    H112558   2.924   1.728   2.003  0.3455  0.7103  0.1263
 4184TIP3    H212559   2.793   1.802   2.015  0.9181  1.9074 -0.8317
 4185TIP3   OH212560   0.754   1.444   2.827  0.3036 -0.3318 -0.2689
 4185TIP3    H112561   0.834   1.405   2.792 -0.3791 -0.5180 -1.6871
 4185TIP3    H212562   0.784   1.505   2.894  1.7091  0.4642 -1.5795
 4186TIP3   OH212563   4.888   5.078   1.577  0.6950  0.3527  0.1045
 4186TIP3    H112564   4.871   5.053   1.486  1.6061 -0.8643  0.2541
 4186TIP3    H212565   4.850   5.166   1.585  0.1171  0.2526 -1.2883
 4187TIP3   OH212566   2.247   2.529   2.233  0.1423  0.5782 -0.3553
 4187TIP3    H112567   2.173   2.474   2.257  1.9165 -1.6736  0.2599
 4187TIP3    H212568   2.280   2.563   2.316  1.8108 -1.2168 -0.2256
 4188TIP3   OH212569   1.199   3.638   0.175 -0.1450  0.3218  0.1859
 4188TIP3    H112570   1.193   3.678   0.262 -2.6477  2.4750 -0.8585
 4188TIP3    H212571   1.279   3.674   0.138 -1.2640  2.9154  0.0759
 4189TIP3   OH212572   2.293   1.123   4.786 -0.5758  0.0654 -1.1027
 4189TIP3    H112573   2.339   1.132   4.702 -0.1106  1.8634 -0.7016
 4189TIP3    H212574   2.362   1.123   4.852 -0.8794 -2.1483 -0.6984
 4190TIP3   OH212575   5.969   0.565   4.550  0.0712 -0.1724 -0.0124
 4190TIP3    H112576   5.913   0.511   4.605 -2.8623  1.9006 -0.7162
 4190TIP3    H212577   6.020   0.617   4.612  0.2175 -1.1059  0.6688
 4191TIP3   OH212578   0.716   0.997   2.122  0.4337  0.2623 -0.1212
 4191TIP3    H112579   0.645   0.957   2.173 -0.2465  0.0811 -1.1774
 4191TIP3    H212580   0.727   1.084   2.160  0.8407 -0.3273  1.1682
 4192TIP3   OH212581   2.151   4.504   4.270  0.1118  0.6668  0.2248
 4192TIP3    H112582   2.227   4.534   4.321 -0.3809  1.1437  0.6954
 4192TIP3    H212583   2.169   4.412   4.253  1.1166  0.9267 -0.2550
 4193TIP3   OH212584   2.881   3.482   3.791  0.3338  0.2368 -0.0784
 4193TIP3    H112585   2.908   3.446   3.876 -0.3734 -1.4540 -0.5226
 4193TIP3    H212586   2.794   3.446   3.776  0.7458 -0.1306 -1.8503
 4194TIP3   OH212587   2.561   5.415   3.807  0.1710  0.1116 -0.0939
 4194TIP3    H112588   2.627   5.349   3.783 -0.4160 -0.1358 -1.1063
 4194TIP3    H212589   2.497   5.411   3.736 -0.2109  1.3382  0.1594
 4195TIP3   OH212590   5.139   3.630   4.602 -0.0256 -0.0413 -0.3009
 4195TIP3    H112591   5.142   3.722   4.628 -1.4477 -0.2022  0.5443
 4195TIP3    H212592   5.103   3.585   4.679 -1.1512 -1.0310 -1.3743
 4196TIP3   OH212593   0.649   2.906   3.352  0.6152  0.0964  0.1463
 4196TIP3    H112594   0.650   2.859   3.270 -0.9852  1.7166 -0.8888
 4196TIP3    H212595   0.652   2.838   3.420 -1.6351 -1.5265 -1.2407
 4197TIP3   OH212596   5.766   4.603   2.695  0.4197 -0.0982 -0.2685
 4197TIP3    H112597   5.793   4.688   2.730 -2.9142  0.9316  0.1268
 4197TIP3    H212598   5.752   4.620   2.601 -0.9456  0.0442 -0.0592
 4198TIP3   OH212599   0.938   0.317   3.749 -0.2418 -0.4008 -0.1772
 4198TIP3    H112600   0.858   0.282   3.789 -0.1252 -1.2734 -0.6761
 4198TIP3    H212601   0.985   0.357   3.822 -0.9942 -0.1391  0.1783
 4199TIP3   OH212602   2.409   4.696   4.048 -0.1314  0.2279 -0.4039
 4199TIP3    H112603   2.452   4.761   3.994  0.5614  0.5533  0.5021
 4199TIP3    H212604   2.318   4.724   4.054  0.2599  1.4145  0.3766
 4200TIP3   OH212605   1.630   0.459   4.578 -0.0068 -0.7417 -0.4634
 4200TIP3    H112606   1.604   0.470   4.486 -0.1358  1.4452 -0.2290
 4200TIP3    H212607   1.563   0.507   4.627  0.6819 -0.9241  0.6967
 4201TIP3   OH212608   4.341   2.884   0.149 -1.0516 -0.3232  0.1414
 4201TIP3    H112609   4.252   2.869   0.181 -0.8424  2.4503  2.4880
 4201TIP3    H212610   4.335   2.966   0.100  0.0912 -0.4798 -0.2951
 4202TIP3   OH212611   4.065   3.005   2.262  0.5401 -0.1164 -0.0344
 4202TIP3    H112612   4.116   3.082   2.288 -0.0768  0.3230 -0.1012
 4202TIP3    H212613   4.000   2.995   2.331  0.0753 -0.0619 -0.4547
 4203TIP3   OH212614   5.717   2.391   4.298 -0.1288  0.5567  0.0481
 4203TIP3    H112615   5.714   2.484   4.274 -0.6012  0.0681 -1.9827
 4203TIP3    H212616   5.799   2.382   4.347 -0.0067  2.0101  0.1611
 4204TIP3   OH212617   0.331   0.939   3.515  0.1758 -0.2402 -0.8097
 4204TIP3    H112618   0.247   0.918   3.473 -1.0610  1.5164  0.6403
 4204TIP3    H212619   0.383   0.859   3.504 -1.3966 -1.1354 -2.3829
 4205TIP3   OH212620   4.386   5.376   4.407  1.1417  0.2306  0.2422
 4205TIP3    H112621   4.440   5.428   4.467  1.5046  1.2445 -0.9110
 4205TIP3    H212622   4.401   5.416   4.321 -0.2003 -0.5005 -0.3598
 4206TIP3   OH212623   0.261   3.600   4.336  0.3007 -0.0229  0.1406
 4206TIP3    H112624   0.352   3.573   4.349  0.4306 -0.3281 -1.2807
 4206TIP3    H212625   0.210   3.520   4.351  0.3340 -0.0468  0.1259
 4207TIP3   OH212626   5.773   1.622   5.031 -0.3141 -0.2617  0.8432
 4207TIP3    H112627   5.813   1.573   4.959 -2.6838 -1.4672  0.2202
 4207TIP3    H212628   5.800   1.575   5.110  0.2782 -0.4442  0.5352
 4208TIP3   OH212629   5.927   0.060   1.933  0.0976 -0.2203 -0.0170
 4208TIP3    H112630   5.958   0.131   1.989  1.7281  0.0062 -1.1461
 4208TIP3    H212631   5.846   0.094   1.895  0.7758  0.9953 -0.4238
 4209TIP3   OH212632   1.870   5.769   2.511 -1.0335 -0.2142  0.2649
 4209TIP3    H112633   1.912   5.730   2.588 -0.2802 -1.0545 -0.5439
 4209TIP3    H212634   1.780   5.738   2.514 -0.3525 -2.5093 -0.5985
 4210TIP3   OH212635   1.298   2.930   3.359  0.3337  0.4356 -0.2222
 4210TIP3    H112636   1.346   2.848   3.377  1.1656  1.1523  0.9674
 4210TIP3    H212637   1.254   2.913   3.276 -1.1750 -1.9693  0.9388
 4211TIP3   OH212638   6.006   3.010   2.114  0.1120 -0.3359 -0.1425
 4211TIP3    H112639   5.971   3.005   2.203  1.1471 -0.4879  0.2661
 4211TIP3    H212640   5.929   3.008   2.058 -0.5400 -0.5101  0.7423
 4212TIP3   OH212641   4.439   1.880   3.686  0.1789 -0.5414 -0.1073
 4212TIP3    H112642   4.425   1.957   3.631  1.1045 -2.0703 -2.6838
 4212TIP3    H212643   4.530   1.888   3.715  0.6841 -1.2240 -1.4240
 4213TIP3   OH212644   2.936   1.669   1.633  0.1814  0.0579  0.1568
 4213TIP3    H112645   3.017   1.699   1.591 -0.3573 -0.4163 -1.2574
 4213TIP3    H212646   2.965   1.609   1.701  1.0766  0.8916  0.5328
 4214TIP3   OH212647   1.202   0.754   3.085  0.3174  0.3071  0.3668
 4214TIP3    H112648   1.158   0.712   3.159 -0.2576  0.1376 -0.0629
 4214TIP3    H212649   1.132   0.801   3.039  0.7610  0.8500  0.2252
 4215TIP3   OH212650   1.297   0.292   1.043  0.3571  0.4976 -0.3931
 4215TIP3    H112651   1.223   0.313   0.985 -0.0621 -1.2380 -0.5247
 4215TIP3    H212652   1.374   0.305   0.988  0.0491  0.4671 -0.8479
 4216TIP3   OH212653   0.283   1.864   4.715  0.2163 -0.5066 -0.0023
 4216TIP3    H112654   0.192   1.893   4.717  1.2391  3.5737 -2.1534
 4216TIP3    H212655   0.310   1.866   4.807 -1.1518  1.0652  0.4276
 4217TIP3   OH212656   4.123   3.982   2.624 -0.2835 -0.2067 -0.4225
 4217TIP3    H112657   4.040   3.942   2.600 -0.5889  1.0599 -1.6345
 4217TIP3    H212658   4.099   4.049   2.689  0.0286 -0.9691  0.4981
 4218TIP3   OH212659   5.351   1.203   1.969 -0.3016  0.3416 -0.4815
 4218TIP3    H112660   5.389   1.285   2.000 -1.0997 -0.1493  1.9939
 4218TIP3    H212661   5.257   1.211   1.987 -0.3117 -1.3304  0.4139
 4219TIP3   OH212662   0.859   2.670   4.337  0.4077 -0.6004  0.1981
 4219TIP3    H112663   0.765   2.669   4.355  0.1028  3.5067 -0.1128
 4219TIP3    H212664   0.900   2.675   4.423  0.0486  0.9025  0.3211
 4220TIP3   OH212665   5.582   5.622   5.138  0.3651 -0.3821 -0.0791
 4220TIP3    H112666   5.650   5.687   5.123  0.4272 -0.5249 -0.4392
 4220TIP3    H212667   5.625   5.554   5.189  0.7435 -0.8808 -1.0326
 4221TIP3   OH212668   2.994   3.634   1.522  0.0953 -0.2109 -0.5004
 4221TIP3    H112669   2.962   3.547   1.495 -0.2081 -1.1871  2.6215
 4221TIP3    H212670   2.971   3.640   1.614 -0.0281  3.3259 -0.6373
 4222TIP3   OH212671   0.136   1.273   1.784 -0.5890 -0.3198 -0.3861
 4222TIP3    H112672   0.135   1.249   1.877 -0.4718  0.1616 -0.2577
 4222TIP3    H212673   0.062   1.225   1.746 -1.9441  1.0673  0.3717
 4223TIP3   OH212674   0.840   1.803   0.278  0.2518  0.1098 -0.2915
 4223TIP3    H112675   0.806   1.715   0.258 -2.0014  1.2246 -1.8640
 4223TIP3    H212676   0.790   1.831   0.354  1.5760 -0.2484  0.7396
 4224TIP3   OH212677   5.951   0.804   0.200 -0.2415 -0.4561 -0.2649
 4224TIP3    H112678   5.859   0.818   0.177 -0.1649 -0.2415 -0.4484
 4224TIP3    H212679   5.994   0.786   0.116  0.0583  0.4217 -0.3053
 4225TIP3   OH212680   4.531   4.822   0.191  0.4086 -0.1460  0.2880
 4225TIP3    H112681   4.476   4.752   0.226  1.5895 -0.3145  1.8950
 4225TIP3    H212682   4.497   4.902   0.231  0.2905 -0.0274 -0.0399
 4226TIP3   OH212683   3.817   2.712   4.214 -0.3288 -0.2551  0.5957
 4226TIP3    H112684   3.729   2.750   4.220 -1.0941 -1.6135 -1.0725
 4226TIP3    H212685   3.803   2.618   4.225  0.8604 -0.5224 -0.0762
 4227TIP3   OH212686   0.706   0.889   3.380 -0.2039  0.3767  0.2527
 4227TIP3    H112687   0.788   0.896   3.429 -0.2008 -0.2906  0.3623
 4227TIP3    H212688   0.651   0.831   3.434 -1.3140  1.9980  0.9350
 4228TIP3   OH212689   2.389   4.939   3.719  0.2952  0.2628 -0.2359
 4228TIP3    H112690   2.432   4.975   3.642  0.2359 -1.5189 -1.1540
 4228TIP3    H212691   2.448   4.960   3.792  0.2512  2.1421 -0.6922
 4229TIP3   OH212692   2.569   1.081   4.324 -0.0550  0.2095  0.0561
 4229TIP3    H112693   2.601   1.039   4.244  0.3758  2.1601 -0.8433
 4229TIP3    H212694   2.648   1.109   4.370 -0.3278 -0.0606  0.6974
 4230TIP3   OH212695   4.113   4.250   1.939  0.0926 -0.2827 -0.1885
 4230TIP3    H112696   4.086   4.159   1.955  1.9149 -0.8330 -0.0354
 4230TIP3    H212697   4.208   4.249   1.950  0.5074  1.0728 -2.8425
 4231TIP3   OH212698   5.861   1.383   4.555  0.1382 -0.2033 -0.0773
 4231TIP3    H112699   5.941   1.358   4.508  1.2934  0.7168  1.3028
 4231TIP3    H212700   5.797   1.317   4.529  0.6925  0.2039 -2.8669
 4232TIP3   OH212701   5.485   0.536   2.098  0.2924  0.4393  0.2603
 4232TIP3    H112702   5.392   0.545   2.120 -0.2049 -1.0317 -1.0664
 4232TIP3    H212703   5.487   0.539   2.002  1.5823  0.1290  0.2609
 4233TIP3   OH212704   4.767   5.841   2.503  0.2905  0.3324 -0.2601
 4233TIP3    H112705   4.698   5.907   2.514  0.5226  0.4962  0.2400
 4233TIP3    H212706   4.846   5.892   2.483  0.1700  0.1166 -1.3657
 4234TIP3   OH212707   3.502   2.844   1.103  0.1740  0.1617 -0.2165
 4234TIP3    H112708   3.442   2.888   1.042  0.1815 -0.5027 -0.7084
 4234TIP3    H212709   3.589   2.874   1.076  0.1875 -0.2318 -0.6212
 4235TIP3   OH212710   3.530   5.263   2.753 -0.3245 -0.5093  0.3379
 4235TIP3    H112711   3.517   5.271   2.848 -2.7474 -2.2730  0.2420
 4235TIP3    H212712   3.442   5.269   2.716  0.6147  0.6963 -1.8941
 4236TIP3   OH212713   2.703   0.948   3.179 -0.3351  0.2438 -0.5882
 4236TIP3    H112714   2.622   0.998   3.170 -0.9644 -0.8357 -1.0718
 4236TIP3    H212715   2.675   0.858   3.196  0.7725  0.1378  0.9791
 4237TIP3   OH212716   1.237   5.176   0.411  0.0218 -0.1962 -0.4810
 4237TIP3    H112717   1.197   5.235   0.476  1.5955 -0.6396  0.9660
 4237TIP3    H212718   1.163   5.125   0.376 -0.9951  0.7231  0.2515
 4238TIP3   OH212719   0.840   4.466   4.956  0.8319 -0.3125 -0.3108
 4238TIP3    H112720   0.838   4.442   5.048  0.4880  0.7503 -0.0319
 4238TIP3    H212721   0.814   4.386   4.910  0.2415 -0.6265  0.5558
 4239TIP3   OH212722   5.257   5.437   3.008  0.0486 -0.1588  0.3177
 4239TIP3    H112723   5.322   5.385   2.961  0.2419 -1.6693  2.1243
 4239TIP3    H212724   5.174   5.392   2.990 -0.3249  0.9200 -0.8110
 4240TIP3   OH212725   2.918   5.753   0.988  0.7356  0.0833 -0.2655
 4240TIP3    H112726   2.903   5.700   0.910  3.2607 -2.4608  0.7997
 4240TIP3    H212727   2.830   5.771   1.022 -0.3365 -2.7804 -1.1940
 4241TIP3   OH212728   3.637   2.846   4.409 -0.1159  0.3630  0.1150
 4241TIP3    H112729   3.652   2.756   4.436  0.8027  0.6492  0.5845
 4241TIP3    H212730   3.669   2.899   4.482 -0.1631  1.0798 -0.3719
 4242TIP3   OH212731   5.087   1.907   3.745 -0.4169 -0.1690  0.0002
 4242TIP3    H112732   5.098   1.948   3.831 -1.0217 -1.0222  0.5056
 4242TIP3    H212733   4.998   1.932   3.718 -0.4907 -0.4900 -0.0538
 4243TIP3   OH212734   4.616   5.105   1.342  0.2337  0.1410 -0.1524
 4243TIP3    H112735   4.689   5.068   1.292 -0.3981 -0.1796 -0.8454
 4243TIP3    H212736   4.594   5.186   1.297  0.3254  0.3702  0.2091
 4244TIP3   OH212737   2.040   1.687   2.738 -0.3569 -0.5796 -0.3332
 4244TIP3    H112738   1.975   1.757   2.734  0.5761  0.2940 -0.7412
 4244TIP3    H212739   2.001   1.621   2.796 -0.8514  0.7156  0.8832
 4245TIP3   OH212740   4.013   5.580   1.172  0.2335  0.0767 -0.2726
 4245TIP3    H112741   3.992   5.627   1.253 -0.1595 -0.2790 -0.1662
 4245TIP3    H212742   4.064   5.504   1.201 -2.2195 -1.5925 -0.0376
 4246TIP3   OH212743   1.483   4.192   3.157 -0.0753  0.1080  0.1978
 4246TIP3    H112744   1.416   4.196   3.090  0.0084 -2.0337 -0.0985
 4246TIP3    H212745   1.548   4.257   3.131 -1.4323  1.3629 -0.1510
 4247TIP3   OH212746   5.010   3.101   0.530  0.4922 -0.4624  0.0872
 4247TIP3    H112747   4.977   3.092   0.620 -1.3299  0.5368 -0.4238
 4247TIP3    H212748   5.105   3.109   0.540  0.2861  0.1720  1.9730
 4248TIP3   OH212749   0.212   3.505   5.067 -0.1100  0.0808  0.2060
 4248TIP3    H112750   0.117   3.516   5.058 -0.2225 -1.0817 -0.1811
 4248TIP3    H212751   0.250   3.573   5.012 -0.6645  2.0790  2.1417
 4249TIP3   OH212752   5.203   5.983   3.790 -0.2959 -0.0448 -0.0186
 4249TIP3    H112753   5.261   5.980   3.714 -0.0640 -1.3688  0.1824
 4249TIP3    H212754   5.261   5.972   3.865 -0.6484  0.0964  0.2756
 4250TIP3   OH212755   1.236   0.813   2.082  0.3267 -0.0303  0.5110
 4250TIP3    H112756   1.197   0.802   2.169 -0.3175 -2.9556 -0.0435
 4250TIP3    H212757   1.163   0.839   2.026  0.4837  0.6071  0.5954
 4251TIP3   OH212758   5.942   2.833   3.383 -0.3478 -0.3054 -0.6564
 4251TIP3    H112759   6.017   2.776   3.399 -0.0149  0.0244 -1.0375
 4251TIP3    H212760   5.871   2.794   3.435 -0.2375 -1.3008 -1.2138
 4252TIP3   OH212761   5.402   4.485   0.022 -0.1017 -0.2383  0.2973
 4252TIP3    H112762   5.454   4.558  -0.013  0.5738 -0.9958 -0.2992
 4252TIP3    H212763   5.442   4.468   0.108  0.9677 -1.1272 -0.3564
 4253TIP3   OH212764   1.643   5.772   1.069  0.0452 -0.3346 -0.6505
 4253TIP3    H112765   1.676   5.854   1.032 -2.0973  2.1585  2.3645
 4253TIP3    H212766   1.691   5.761   1.151 -0.2367 -1.7086 -0.6415
 4254TIP3   OH212767   0.405   4.980   1.685  0.4412 -0.2012  0.2098
 4254TIP3    H112768   0.458   5.048   1.726  0.6034  0.2886 -0.7895
 4254TIP3    H212769   0.469   4.922   1.644  0.2641 -0.5390  0.4048
 4255TIP3   OH212770   1.855   1.197   3.888  0.2353  0.3243 -0.4787
 4255TIP3    H112771   1.839   1.103   3.878 -0.2028  0.5594 -2.4068
 4255TIP3    H212772   1.773   1.238   3.861  0.7715  1.2895 -0.6884
 4256TIP3   OH212773   6.237   5.027   1.482  0.0816 -0.1965  0.3409
 4256TIP3    H112774   6.176   4.970   1.529 -0.9834 -0.3914 -1.1750
 4256TIP3    H212775   6.323   4.991   1.500 -0.4977 -1.7101  0.1972
 4257TIP3   OH212776   1.138   1.848   4.222  0.1702 -0.2259  0.4233
 4257TIP3    H112777   1.095   1.808   4.297 -1.5305  2.1882  0.8512
 4257TIP3    H212778   1.221   1.881   4.257  0.0876 -0.4673  0.8579
 4258TIP3   OH212779   3.100   0.800   3.527  0.2426  0.3604  0.2342
 4258TIP3    H112780   3.144   0.872   3.482 -0.2165  1.2989  1.2468
 4258TIP3    H212781   3.150   0.788   3.607  0.2380 -0.3800  0.1324
 4259TIP3   OH212782   3.855   1.602   4.906  0.1794  0.5347  0.3269
 4259TIP3    H112783   3.786   1.564   4.959 -0.6652  1.2225 -0.2361
 4259TIP3    H212784   3.822   1.597   4.816  0.6191  1.3482  0.1034
 4260TIP3   OH212785   1.946   5.673   1.469  0.8248  0.2924 -0.1635
 4260TIP3    H112786   1.883   5.602   1.486  1.8086 -0.4225  0.6646
 4260TIP3    H212787   2.020   5.653   1.527  2.5939  0.1111 -2.3664
 4261TIP3   OH212788   6.160   0.386   0.288  0.3063  0.2038 -0.4660
 4261TIP3    H112789   6.180   0.313   0.229  0.7190 -0.3294  0.3169
 4261TIP3    H212790   6.231   0.449   0.273 -0.0016  0.4186 -1.0761
 4262TIP3   OH212791   1.660   5.088   4.678 -0.4732  0.1543  0.1324
 4262TIP3    H112792   1.666   5.170   4.726 -1.7165  0.4908 -0.2515
 4262TIP3    H212793   1.658   5.020   4.745  2.6606  0.2385  0.4257
 4263TIP3   OH212794   3.628   3.420   0.043  0.3723 -0.2466  0.5851
 4263TIP3    H112795   3.668   3.333   0.051  0.3163 -0.2691  0.6207
 4263TIP3    H212796   3.580   3.431   0.125 -0.4759 -0.6115  0.1438
 4264TIP3   OH212797   5.013   3.604   3.365 -0.3969  0.1438  0.1179
 4264TIP3    H112798   5.049   3.521   3.398  0.6054  0.0542 -1.1236
 4264TIP3    H212799   5.074   3.671   3.395 -1.4549  0.5300  1.5183
 4265TIP3   OH212800   1.401   4.331   3.625  0.0385 -0.0388 -0.1470
 4265TIP3    H112801   1.366   4.372   3.546 -0.0671  0.6656  0.2581
 4265TIP3    H212802   1.347   4.365   3.696 -0.1117 -0.9601  0.1933
 4266TIP3   OH212803   5.725   3.535   4.466  0.1878  0.0750 -0.0681
 4266TIP3    H112804   5.681   3.526   4.381  1.2779 -0.8652 -0.5575
 4266TIP3    H212805   5.705   3.454   4.512  0.4403  0.1456  0.1670
 4267TIP3   OH212806   4.778   1.556   0.749 -0.3860 -0.4784  0.0666
 4267TIP3    H112807   4.729   1.563   0.830 -0.6538  0.6003 -0.1712
 4267TIP3    H212808   4.826   1.474   0.757 -0.2037 -0.2617  1.4235
 4268TIP3   OH212809   1.134   1.184   2.167  0.4507 -0.0868 -0.1019
 4268TIP3    H112810   1.044   1.182   2.136  0.4754 -3.1147 -0.3322
 4268TIP3    H212811   1.186   1.209   2.090 -0.1499  2.2071  0.1676
 4269TIP3   OH212812   2.808   1.192   2.223 -0.1623  0.4490 -0.0657
 4269TIP3    H112813   2.736   1.176   2.162 -0.5142 -2.1784  0.8982
 4269TIP3    H212814   2.784   1.142   2.301  1.7532  1.1914  1.0599
 4270TIP3   OH212815   2.207   4.140   0.030 -0.8262 -0.1331 -0.2929
 4270TIP3    H112816   2.210   4.235   0.018  0.1320 -0.0319  0.6525
 4270TIP3    H212817   2.294   4.117   0.062 -1.0587 -1.3349 -0.4766
 4271TIP3   OH212818   4.634   1.919   1.568  0.1371 -0.3618 -0.2314
 4271TIP3    H112819   4.657   1.862   1.495 -1.5068 -0.6862 -0.5208
 4271TIP3    H212820   4.551   1.885   1.601 -0.6371  1.5043 -0.0759
 4272TIP3   OH212821   0.552   1.663   5.186  0.1284 -0.5655  0.4165
 4272TIP3    H112822   0.612   1.735   5.203 -0.1486 -0.2890  0.2431
 4272TIP3    H212823   0.593   1.613   5.116 -0.7925  0.7848 -1.1526
 4273TIP3   OH212824   2.993   0.714   4.978 -0.6518  0.1811  0.0620
 4273TIP3    H112825   2.927   0.664   4.930  0.4944 -0.2346 -1.1192
 4273TIP3    H212826   3.048   0.648   5.020 -0.1772  0.4879 -0.0722
 4274TIP3   OH212827   3.992   0.658   4.224  0.7965  0.1054  0.1387
 4274TIP3    H112828   4.014   0.731   4.166 -1.5442 -0.1037 -1.1566
 4274TIP3    H212829   4.012   0.689   4.312  0.4542  2.0745 -0.4300
 4275TIP3   OH212830   3.918   3.977   1.464  0.6069 -0.5025  0.0769
 4275TIP3    H112831   3.844   3.991   1.523  0.2853 -0.4332 -0.3383
 4275TIP3    H212832   3.995   3.989   1.520  0.3070 -1.0608  0.6230
 4276TIP3   OH212833   5.193   0.613   2.087 -0.1591 -0.0655 -0.1753
 4276TIP3    H112834   5.140   0.539   2.117 -1.1297  1.3539  1.8830
 4276TIP3    H212835   5.159   0.634   2.001 -1.4594 -0.5905  0.1880
 4277TIP3   OH212836   3.461   5.711   2.263  0.6385  0.0635 -0.3046
 4277TIP3    H112837   3.392   5.702   2.197  0.2178  1.1615 -0.0293
 4277TIP3    H212838   3.537   5.742   2.213  0.6490 -0.1791 -0.4441
 4278TIP3   OH212839   0.287   4.244   0.102  0.1284  1.0331 -0.1221
 4278TIP3    H112840   0.361   4.197   0.142 -0.5049  1.0083  1.0960
 4278TIP3    H212841   0.307   4.336   0.116  1.2041  1.1692 -2.2078
 4279TIP3   OH212842   0.306   0.348   2.070  0.1454  0.1050  0.0358
 4279TIP3    H112843   0.258   0.384   1.995 -0.5842 -0.1914  0.3484
 4279TIP3    H212844   0.398   0.357   2.046 -0.0709 -1.4461 -1.5933
 4280TIP3   OH212845   1.628   0.746   3.401 -1.2159 -0.2829  0.3872
 4280TIP3    H112846   1.642   0.660   3.441  0.3103 -0.1177  0.2565
 4280TIP3    H212847   1.713   0.771   3.366 -1.6179  1.3036  0.4433
 4281TIP3   OH212848   4.963   5.782   0.889  0.7807  0.4868 -0.2598
 4281TIP3    H112849   4.999   5.856   0.937  1.6675  0.2793 -0.5900
 4281TIP3    H212850   4.920   5.729   0.956  1.8082  0.3145  0.2753
 4282TIP3   OH212851   3.621   4.176   5.033 -0.0593 -0.6391  0.5623
 4282TIP3    H112852   3.593   4.199   4.944  0.9402  2.7144  0.9746
 4282TIP3    H212853   3.684   4.106   5.020  0.0225 -0.2789 -1.3965
 4283TIP3   OH212854   4.212   1.369   2.834  0.5050  0.3691  0.4468
 4283TIP3    H112855   4.140   1.426   2.860  1.4055  1.4293  0.7054
 4283TIP3    H212856   4.260   1.353   2.916 -0.4974 -1.9526  0.6718
 4284TIP3   OH212857   1.843   0.206   2.866  0.0231 -0.4064 -0.3906
 4284TIP3    H112858   1.932   0.200   2.833  1.0102 -0.2507  2.0078
 4284TIP3    H212859   1.811   0.116   2.866  1.3923 -0.9718  1.5958
 4285TIP3   OH212860   0.462   0.534   0.294  0.7224  0.0827  0.1934
 4285TIP3    H112861   0.469   0.441   0.315 -2.1266 -1.1119 -3.0998
 4285TIP3    H212862   0.542   0.554   0.245  1.9297 -0.1810  1.9585
 4286TIP3   OH212863   5.476   0.648   3.119  0.4486  0.2527  0.4693
 4286TIP3    H112864   5.558   0.601   3.103 -0.1894 -0.7170 -0.0807
 4286TIP3    H212865   5.438   0.661   3.032 -0.2776  0.1300  0.7569
 4287TIP3   OH212866   5.227   2.054   0.858 -0.4120  0.0889  0.6372
 4287TIP3    H112867   5.135   2.081   0.861 -0.7771 -1.0187  0.0590
 4287TIP3    H212868   5.265   2.089   0.938 -1.0702  1.4897  0.3573
 4288TIP3   OH212869   3.296   5.419   2.334 -0.0923  0.0960  0.1613
 4288TIP3    H112870   3.300   5.427   2.239  1.4721  0.0911  0.1913
 4288TIP3    H212871   3.205   5.435   2.357 -1.1090 -2.6113 -1.5838
 4289TIP3   OH212872   5.496   0.623   1.825 -0.4472 -0.3450 -0.4314
 4289TIP3    H112873   5.462   0.713   1.817  1.3854  0.5858  1.3698
 4289TIP3    H212874   5.564   0.617   1.758 -0.1873 -0.2019 -0.1793
 4290TIP3   OH212875   1.139   5.319   0.139 -0.3091  0.4926 -0.0244
 4290TIP3    H112876   1.084   5.242   0.156 -0.1540  0.9585  3.0712
 4290TIP3    H212877   1.227   5.292   0.167  0.1251  1.2346 -0.6480
 4291TIP3   OH212878   2.137   4.300   4.546  0.7584  0.5817 -0.6187
 4291TIP3    H112879   2.221   4.287   4.502 -0.1729  0.4552 -2.4391
 4291TIP3    H212880   2.071   4.276   4.480 -0.7130 -1.0029  1.2887
 4292TIP3   OH212881   1.485   0.889   5.078 -0.4720 -0.1861 -0.1164
 4292TIP3    H112882   1.524   0.940   5.007 -0.5936  0.4647  0.2757
 4292TIP3    H212883   1.420   0.947   5.116  0.0010 -0.3035  0.9054
 4293TIP3   OH212884   3.016   4.382   3.350  0.3603  0.1180  0.4641
 4293TIP3    H112885   3.091   4.355   3.296  0.2191  1.2357 -0.3194
 4293TIP3    H212886   2.942   4.382   3.291 -0.1668 -0.4423  1.1106
 4294TIP3   OH212887   2.148   0.245   0.444  0.2845 -0.1980 -0.5180
 4294TIP3    H112888   2.236   0.282   0.445  0.8741 -1.4985  0.8909
 4294TIP3    H212889   2.098   0.301   0.503  0.4810 -0.1193 -0.4251
 4295TIP3   OH212890   4.479   1.641   0.876  0.4178  0.1934 -0.3119
 4295TIP3    H112891   4.440   1.570   0.826 -0.0442  0.1105  0.1628
 4295TIP3    H212892   4.407   1.677   0.927  0.8679  0.3235  0.2420
 4296TIP3   OH212893   0.586   1.490   3.152  0.7247 -0.8257  0.8882
 4296TIP3    H112894   0.644   1.504   3.227  1.2511 -0.6882  0.4561
 4296TIP3    H212895   0.592   1.397   3.134  1.6404 -0.6390  0.1782
 4297TIP3   OH212896   3.246   1.405   0.087  0.2889  0.1400 -0.6740
 4297TIP3    H112897   3.164   1.374   0.047 -1.3033  0.6213  1.9574
 4297TIP3    H212898   3.226   1.495   0.114  1.2490 -0.1503  1.1032
 4298TIP3   OH212899   5.973   3.496   4.572 -0.0112 -0.0801 -0.4228
 4298TIP3    H112900   5.902   3.543   4.529  0.4716  0.4931 -0.6194
 4298TIP3    H212901   6.017   3.563   4.625  0.7946 -0.2653 -0.8364
 4299TIP3   OH212902   5.791   3.917   0.735  0.3178  0.0627  0.0820
 4299TIP3    H112903   5.802   3.988   0.800 -0.3978 -0.3908  0.7136
 4299TIP3    H212904   5.701   3.888   0.747  0.8869 -1.6184  0.5188
 4300TIP3   OH212905   2.353   2.021   2.682 -0.2427  0.3532 -0.3138
 4300TIP3    H112906   2.269   2.061   2.658  0.1193  0.0146 -2.3546
 4300TIP3    H212907   2.330   1.931   2.706 -0.7611  1.0255  1.8740
 4301TIP3   OH212908   0.486   1.093   3.650 -0.1105  0.2344 -0.1951
 4301TIP3    H112909   0.545   1.034   3.694 -0.1514  0.1302 -0.2802
 4301TIP3    H212910   0.428   1.036   3.599 -0.5690  0.3094  0.2386
 4302TIP3   OH212911   0.977   1.263   3.202 -0.2840 -0.1517  0.3778
 4302TIP3    H112912   1.027   1.341   3.228 -0.5542  0.2925 -0.4022
 4302TIP3    H212913   1.005   1.245   3.112 -0.0156 -1.1369  0.6471
 4303TIP3   OH212914   3.401   4.134   1.090  0.1362 -0.8711  0.0153
 4303TIP3    H112915   3.458   4.083   1.033  0.8554 -1.0575  0.8731
 4303TIP3    H212916   3.315   4.129   1.049  0.7123 -0.6241 -1.2875
 4304TIP3   OH212917   5.057   1.433   2.338  0.4442  0.2865 -0.0341
 4304TIP3    H112918   5.074   1.496   2.269 -0.8592  1.1829  0.4272
 4304TIP3    H212919   4.973   1.460   2.375  1.2113 -0.0180  2.0592
 4305TIP3   OH212920   0.651   1.608   1.876  0.4646  0.9826 -0.0321
 4305TIP3    H112921   0.619   1.525   1.913  0.1351  1.9010  1.8201
 4305TIP3    H212922   0.728   1.630   1.928  0.2383  2.1014 -0.1482
 4306TIP3   OH212923   0.566   1.257   4.632  0.1002  0.1163 -0.7115
 4306TIP3    H112924   0.599   1.272   4.543  0.3118  0.2463 -0.6112
 4306TIP3    H212925   0.629   1.301   4.689  0.6589 -1.0521 -0.4126
 4307TIP3   OH212926   6.051   2.091   0.162 -0.0338 -0.6079 -0.4822
 4307TIP3    H112927   5.999   2.072   0.085 -0.7232 -1.9192  0.2754
 4307TIP3    H212928   6.022   2.027   0.227  0.9688  0.0609  0.6632
 4308TIP3   OH212929   4.687   1.421   3.443 -0.0118  0.0977  0.5926
 4308TIP3    H112930   4.731   1.462   3.517  1.3763 -1.8891  0.9590
 4308TIP3    H212931   4.731   1.337   3.433 -1.3944 -0.4663 -1.3467
 4309TIP3   OH212932   5.490   2.772   4.408 -0.5214 -0.2355  0.6530
 4309TIP3    H112933   5.516   2.782   4.500 -0.1201  0.6430  0.4521
 4309TIP3    H212934   5.567   2.732   4.367  0.2738  1.6724  0.2094
 4310TIP3   OH212935   5.541   1.392   0.192 -0.1259  0.4082 -0.1085
 4310TIP3    H112936   5.543   1.303   0.158 -1.0303 -0.3070  1.5742
 4310TIP3    H212937   5.448   1.412   0.200  0.0711  1.5321 -0.4986
 4311TIP3   OH212938   6.016   0.918   3.783 -0.5559  0.3652  0.1484
 4311TIP3    H112939   5.922   0.900   3.786 -0.1697 -1.8075  0.9014
 4311TIP3    H212940   6.047   0.896   3.871  1.0148 -1.3212 -0.7548
 4312TIP3   OH212941   1.100   4.364   1.289 -0.0110  0.3956  0.3543
 4312TIP3    H112942   1.030   4.427   1.304  1.4777  2.3135 -0.4537
 4312TIP3    H212943   1.153   4.366   1.369 -0.2275 -0.2196  0.5207
 4313TIP3   OH212944   2.560   0.981   0.123 -0.1217 -0.3407 -0.1585
 4313TIP3    H112945   2.497   0.966   0.193 -0.9932  0.5568 -0.7271
 4313TIP3    H212946   2.525   1.055   0.074  1.7711  0.7120 -0.0333
 4314TIP3   OH212947   1.502   1.427   1.223 -0.3161  0.3119  0.1774
 4314TIP3    H112948   1.438   1.491   1.191 -1.9562 -1.4087 -0.1678
 4314TIP3    H212949   1.508   1.445   1.317  0.3933  1.9008 -0.1384
 4315TIP3   OH212950   1.096   5.588   0.999  0.1397 -0.2475 -0.5071
 4315TIP3    H112951   1.110   5.525   1.069 -1.1705 -0.3123 -0.2769
 4315TIP3    H212952   1.167   5.571   0.937  0.8763 -0.6947  0.4286
 4316TIP3   OH212953   0.054   5.713   2.813  0.1170  0.4295  0.3098
 4316TIP3    H112954  -0.002   5.762   2.753  0.4585  2.0420  1.2602
 4316TIP3    H212955   0.083   5.638   2.761 -1.8835  0.2167 -0.6072
 4317TIP3   OH212956   5.855   3.042   4.548 -0.1265 -0.5097  0.5031
 4317TIP3    H112957   5.912   2.984   4.598  0.4389  0.6470  1.2398
 4317TIP3    H212958   5.843   3.119   4.604  1.2063  1.2140 -1.4150
 4318TIP3   OH212959   6.204   4.503   1.840 -0.3652  0.2304  0.3742
 4318TIP3    H112960   6.196   4.554   1.920  1.7835 -0.8907  1.3933
 4318TIP3    H212961   6.285   4.534   1.799 -0.0674 -0.9625  0.0040
 4319TIP3   OH212962   1.286   2.823   2.123  0.0382  0.2845 -0.0982
 4319TIP3    H112963   1.307   2.823   2.216 -1.7571  0.3042  0.3431
 4319TIP3    H212964   1.371   2.831   2.079  0.9545 -0.2384  1.5094
 4320TIP3   OH212965   6.033   0.210   2.471  0.3277 -0.5215 -0.3603
 4320TIP3    H112966   6.122   0.240   2.486 -0.0548  0.6280 -0.2341
 4320TIP3    H212967   5.978   0.271   2.521 -0.5733 -0.6084 -1.1878
 4321TIP3   OH212968   0.572   1.382   3.968  0.5422  0.5818  0.2210
 4321TIP3    H112969   0.569   1.475   3.991  1.1315  0.6333  0.0898
 4321TIP3    H212970   0.663   1.357   3.982  0.6145  0.2720 -0.7403
 4322TIP3   OH212971   4.938   0.230   1.347  0.4424 -0.9259 -0.1808
 4322TIP3    H112972   4.848   0.260   1.338 -0.1907 -2.6936 -0.2021
 4322TIP3    H212973   4.968   0.267   1.429 -0.4392 -0.6321  0.0201
 4323TIP3   OH212974   3.010   4.276   2.746 -0.5585  0.0739  0.1405
 4323TIP3    H112975   3.013   4.220   2.824 -1.8150  0.2816  0.3661
 4323TIP3    H212976   2.921   4.263   2.711 -0.7600  1.6444  0.0011
 4324TIP3   OH212977   3.079   1.867   3.446  0.3829  0.3092  0.0731
 4324TIP3    H112978   3.062   1.824   3.529 -3.0853  2.2653  0.5582
 4324TIP3    H212979   3.034   1.813   3.381 -2.6785  2.1066  0.4932
 4325TIP3   OH212980   1.616   2.662   1.008 -0.3577  0.4033 -0.2982
 4325TIP3    H112981   1.527   2.640   1.035  0.1493  0.3246  1.4147
 4325TIP3    H212982   1.637   2.597   0.940 -0.9613 -0.7460  0.5770
 4326TIP3   OH212983   5.020   1.274   1.555  0.3538  0.3092  0.2999
 4326TIP3    H112984   5.073   1.311   1.485 -0.0872 -1.4624 -1.0431
 4326TIP3    H212985   4.973   1.349   1.592  0.9895  1.3559 -0.9529
 4327TIP3   OH212986   1.201   2.582   2.976 -0.2956  0.6558 -0.0555
 4327TIP3    H112987   1.266   2.525   2.936 -0.3553  0.3081  0.3355
 4327TIP3    H212988   1.118   2.559   2.935 -0.2730  0.6614 -0.1036
 4328TIP3   OH212989   4.169   4.397   0.787 -0.2246 -0.5932  0.1344
 4328TIP3    H112990   4.187   4.485   0.822  0.1507 -1.4186  2.1644
 4328TIP3    H212991   4.143   4.412   0.696 -1.4689  1.7384  0.7964
 4329TIP3   OH212992   4.406   5.501   5.147  0.0406  0.2385 -0.2498
 4329TIP3    H112993   4.344   5.428   5.153 -2.0983  1.9416 -0.0990
 4329TIP3    H212994   4.355   5.572   5.107  1.2810  2.3356  1.6482
 4330TIP3   OH212995   0.098  -0.011   4.675  0.0787  0.5568  0.1094
 4330TIP3    H112996   0.097   0.031   4.589 -2.6980 -1.3557 -0.9092
 4330TIP3    H212997   0.014   0.014   4.715  0.6842  0.2067  1.6694
 4331TIP3   OH212998   5.571   5.406   4.549  0.5409 -0.1766 -0.3005
 4331TIP3    H112999   5.613   5.477   4.597  2.2329 -1.8125  0.7648
 4331TIP3    H213000   5.526   5.450   4.476  0.5519  2.0570  0.9519
 4332TIP3   OH213001   3.196   3.336   5.012  0.3278 -0.4998 -0.6469
 4332TIP3    H113002   3.266   3.394   4.985 -1.2544  0.6090 -2.6627
 4332TIP3    H213003   3.141   3.389   5.070 -0.8078 -0.0730 -2.0379
 4333TIP3   OH213004   0.683   3.586   1.641 -0.2377  0.2389  0.1591
 4333TIP3    H113005   0.614   3.651   1.654 -0.8138 -0.7336  2.7113
 4333TIP3    H213006   0.728   3.582   1.726 -0.2243 -2.6416  0.1174
 4334TIP3   OH213007   0.846   5.110   0.399 -0.1992  0.0530  0.0897
 4334TIP3    H113008   0.773   5.165   0.428  0.2773  0.3781  0.7195
 4334TIP3    H213009   0.893   5.090   0.480 -0.0288 -0.7922 -0.2152
 4335TIP3   OH213010   1.122   0.978   4.229  0.2128  0.3108  0.0154
 4335TIP3    H113011   1.055   1.043   4.207 -0.0451  0.4947  1.2928
 4335TIP3    H213012   1.203   1.013   4.190 -0.3371  0.2850 -1.1901
 4336TIP3   OH213013   5.109   4.953   1.747 -0.4325 -0.1030 -0.2923
 4336TIP3    H113014   5.044   4.969   1.816  0.6111  0.1097  0.6783
 4336TIP3    H213015   5.073   4.997   1.670 -0.1815  2.4222  0.9202
 4337TIP3   OH213016   4.821   1.772   1.760  0.2048 -0.1105 -0.2327
 4337TIP3    H113017   4.780   1.744   1.842  0.8078 -0.7006 -0.1250
 4337TIP3    H213018   4.763   1.840   1.726  1.5508  2.5512  2.3240
 4338TIP3   OH213019   2.384   2.685   3.854  0.3711 -0.0378 -0.2003
 4338TIP3    H113020   2.324   2.653   3.921 -0.8051  1.0169 -0.7086
 4338TIP3    H213021   2.450   2.734   3.903 -0.1977  0.3056  0.2369
 4339TIP3   OH213022   3.844   5.327   0.342  0.2323 -0.2825  0.3987
 4339TIP3    H113023   3.822   5.406   0.294 -1.8807 -0.8595  0.3018
 4339TIP3    H213024   3.859   5.356   0.432 -1.5236  0.1384  0.5814
 4340TIP3   OH213025   2.673   2.503   2.948 -0.2976  0.4643 -0.1629
 4340TIP3    H113026   2.641   2.414   2.935  0.4242  0.2278 -0.3413
 4340TIP3    H213027   2.763   2.501   2.918 -0.3612  1.3336 -0.4441
 4341TIP3   OH213028   4.528   1.380   0.147  0.0398 -0.5042  0.7772
 4341TIP3    H113029   4.443   1.338   0.146  0.0733 -0.5914 -0.3686
 4341TIP3    H213030   4.544   1.402   0.239 -0.9139 -1.0778  1.0884
 4342TIP3   OH213031   2.376   1.732   3.553  0.2458 -0.4296  0.0814
 4342TIP3    H113032   2.330   1.697   3.629 -0.6211 -2.4737 -1.2544
 4342TIP3    H213033   2.318   1.800   3.519  0.6597  0.5213  1.2327
 4343TIP3   OH213034   1.966   3.981   1.057 -0.3883 -0.2955  0.0316
 4343TIP3    H113035   1.895   4.042   1.038  0.0096  0.5076  1.0361
 4343TIP3    H213036   2.019   3.981   0.978  1.9951  4.0205  1.3137
 4344TIP3   OH213037   0.728   5.198   1.309  0.2903 -0.1969 -0.4653
 4344TIP3    H113038   0.748   5.167   1.220 -2.8055 -0.0355 -1.3360
 4344TIP3    H213039   0.667   5.271   1.296  0.6083  0.5594  1.7968
 4345TIP3   OH213040   6.107   5.316   0.802 -0.3353 -0.1056  0.2110
 4345TIP3    H113041   6.041   5.338   0.869 -0.7973 -1.0738  0.0825
 4345TIP3    H213042   6.142   5.401   0.775 -1.2847  0.4048  0.5319
 4346TIP3   OH213043   3.021   0.068   2.956  0.0723  0.0589  0.8047
 4346TIP3    H113044   2.946   0.094   3.009 -0.8020 -1.3327  0.3015
 4346TIP3    H213045   3.013   0.119   2.876 -1.4434 -1.3832 -0.0366
 4347TIP3   OH213046   3.516   3.388   4.775 -0.1118 -0.5146 -0.7440
 4347TIP3    H113047   3.560   3.472   4.757  3.1478 -2.4105 -2.6236
 4347TIP3    H213048   3.429   3.398   4.737  0.1966  1.9893 -0.9664
 4348TIP3   OH213049   0.034   5.626   0.177 -0.3624 -0.1464 -0.1203
 4348TIP3    H113050  -0.002   5.661   0.259 -0.2401  0.3780 -0.2819
 4348TIP3    H213051   0.125   5.657   0.177 -0.6215  0.6727 -0.8960
 4349TIP3   OH213052   1.006   2.663   2.295  0.0793 -0.5220 -0.1166
 4349TIP3    H113053   0.995   2.573   2.327  2.6439 -0.6831  0.4827
 4349TIP3    H213054   0.922   2.683   2.253 -1.9284 -1.8901  2.8241
 4350TIP3   OH213055   0.054   1.846   0.869  0.2952  0.0220  0.5190
 4350TIP3    H113056   0.085   1.870   0.957 -1.3065  1.7632  0.6482
 4350TIP3    H213057  -0.010   1.777   0.885  0.8568 -0.5031  0.5852
 4351TIP3   OH213058   1.615   0.872   4.313  0.0109 -0.0320  0.0773
 4351TIP3    H113059   1.603   0.967   4.309  2.1447  0.2442 -1.3422
 4351TIP3    H213060   1.533   0.839   4.350 -1.5977  2.1933 -1.2327
 4352TIP3   OH213061   0.077   5.329   1.807 -0.1037  1.2146 -0.5890
 4352TIP3    H113062   0.140   5.301   1.874  1.4264 -1.6386 -2.9824
 4352TIP3    H213063   0.015   5.257   1.799  1.2510  0.1973 -3.8224
 4353TIP3   OH213064   5.828   0.989   0.907 -0.0722  0.4329 -0.2801
 4353TIP3    H113065   5.741   0.975   0.870 -0.6672  2.4262  0.2684
 4353TIP3    H213066   5.883   1.008   0.831 -0.3992  0.4935 -0.5039
 4354TIP3   OH213067   2.287   5.786   2.828  0.4135 -0.1730  0.3624
 4354TIP3    H113068   2.268   5.869   2.785  0.4240  1.8792  3.9111
 4354TIP3    H213069   2.379   5.768   2.806  0.2591  0.4378 -0.8719
 4355TIP3   OH213070   3.380   0.554   1.201  0.1617  0.2573  0.1145
 4355TIP3    H113071   3.326   0.513   1.133 -0.1628 -0.6934  0.9175
 4355TIP3    H213072   3.352   0.511   1.282  0.5887  1.3195  0.8395
 4356TIP3   OH213073   5.497   0.716   4.479  0.3220  0.0737 -0.4108
 4356TIP3    H113074   5.526   0.733   4.569  0.2821  1.1206 -0.5783
 4356TIP3    H213075   5.480   0.803   4.443  1.5908 -0.2453 -1.8597
 4357TIP3   OH213076   4.821   1.423   3.024  0.0532  0.0965  0.4359
 4357TIP3    H113077   4.895   1.395   3.077  0.9606  0.4039 -0.6313
 4357TIP3    H213078   4.795   1.345   2.976 -0.6019 -0.1166  1.1177
 4358TIP3   OH213079   1.923   3.421   1.165  0.0124  0.5045 -0.5979
 4358TIP3    H113080   1.961   3.506   1.140  0.1986  1.1305  1.5942
 4358TIP3    H213081   1.985   3.385   1.228 -0.0119 -1.3509 -1.5789
 4359TIP3   OH213082   6.029   2.544   3.606  0.0345 -0.1892 -0.4272
 4359TIP3    H113083   6.063   2.462   3.570 -0.6614 -0.2137 -1.0545
 4359TIP3    H213084   6.104   2.584   3.650  0.3916 -1.1547 -0.1184
 4360TIP3   OH213085   4.584   1.008   0.127  0.0155 -0.3012  0.3217
 4360TIP3    H113086   4.659   0.981   0.074 -1.4338 -2.5510 -0.7172
 4360TIP3    H213087   4.510   1.009   0.066 -1.0838  0.4794  1.5997
 4361TIP3   OH213088   5.183   5.760   1.653 -0.0158  0.1623  0.2892
 4361TIP3    H113089   5.170   5.827   1.721  0.2728 -0.4816  0.9993
 4361TIP3    H213090   5.161   5.804   1.571 -0.2211  1.0072  0.7851
 4362TIP3   OH213091   4.057   2.591   2.983  0.6411 -0.2953 -0.0444
 4362TIP3    H113092   4.140   2.585   3.030  0.9550 -1.3988 -0.6907
 4362TIP3    H213093   4.062   2.674   2.936  1.3107 -0.2773  0.0477
 4363TIP3   OH213094   5.839   3.949   4.434  0.1409  0.2877  0.0292
 4363TIP3    H113095   5.796   3.995   4.362  1.4453  0.6050 -0.5743
 4363TIP3    H213096   5.807   3.995   4.513 -2.0972 -0.7239 -0.2107
 4364TIP3   OH213097   2.792   3.563   0.449 -0.2786 -0.0409 -0.1114
 4364TIP3    H113098   2.718   3.618   0.475 -0.0327 -0.6153  2.0001
 4364TIP3    H213099   2.785   3.486   0.505  0.9816 -0.8734 -1.0505
 4365TIP3   OH213100   0.797   3.241   3.873  0.1716  0.4420  0.0020
 4365TIP3    H113101   0.809   3.275   3.962 -0.4900  0.5707  0.0459
 4365TIP3    H213102   0.843   3.158   3.873  0.0011  0.3441  0.5288
 4366TIP3   OH213103   2.080   3.686   1.050  0.3360  0.5868 -0.0107
 4366TIP3    H113104   2.115   3.643   0.971 -0.5121 -0.4939  0.1792
 4366TIP3    H213105   2.061   3.776   1.021 -0.4695  0.0669 -1.2213
 4367TIP3   OH213106   1.412   5.575   1.261  0.7664 -0.2733 -1.0596
 4367TIP3    H113107   1.472   5.500   1.266  0.1822 -0.7823 -1.5025
 4367TIP3    H213108   1.430   5.625   1.340  1.6876 -0.4866 -1.1214
 4368TIP3   OH213109   0.302   4.919   4.713  0.2466  0.4923  0.4190
 4368TIP3    H113110   0.393   4.945   4.697  0.1981  0.5237  0.1984
 4368TIP3    H213111   0.309   4.843   4.771  0.5455 -1.3762 -1.9433
 4369TIP3   OH213112   1.406   1.900   0.692 -0.2181 -0.5157 -0.3633
 4369TIP3    H113113   1.364   1.904   0.606 -0.6831 -1.1639 -0.1804
 4369TIP3    H213114   1.351   1.955   0.748 -1.6024 -2.3293  0.1654
 4370TIP3   OH213115   0.278   3.630   2.069  0.7120  0.1582 -0.3444
 4370TIP3    H113116   0.187   3.631   2.098  1.0479  2.1864  0.8808
 4370TIP3    H213117   0.295   3.718   2.038  2.3872 -0.0094 -0.0497
 4371TIP3   OH213118   1.847   2.483   2.115  0.3391 -0.4708  0.2675
 4371TIP3    H113119   1.840   2.396   2.075  0.1061 -0.6779  0.7614
 4371TIP3    H213120   1.937   2.511   2.096 -0.0392 -0.1618 -1.2337
 4372TIP3   OH213121   3.850   3.353   4.538 -0.1308  0.1890 -0.3734
 4372TIP3    H113122   3.828   3.438   4.499 -0.9657  2.0634  3.6160
 4372TIP3    H213123   3.769   3.302   4.532 -0.5871  0.8640 -0.1342
 4373TIP3   OH213124   5.570   3.562   3.947 -0.4954 -0.3041  0.0158
 4373TIP3    H113125   5.655   3.606   3.952  0.5184 -1.9787 -1.3723
 4373TIP3    H213126   5.575   3.511   3.866 -2.6279 -0.8892  0.2040
 4374TIP3   OH213127   2.796   4.133   1.126 -0.8817  0.3749 -0.4128
 4374TIP3    H113128   2.762   4.044   1.115  0.1088  0.0302 -0.7424
 4374TIP3    H213129   2.734   4.174   1.187 -1.0223 -0.7239  0.2122
 4375TIP3   OH213130   1.003   1.053   0.183 -0.2477 -0.2533 -0.4709
 4375TIP3    H113131   0.976   1.145   0.186 -2.4870 -0.7871 -1.8901
 4375TIP3    H213132   0.988   1.027   0.092  1.9291 -1.6111 -0.5012
 4376TIP3   OH213133   5.567   3.678   4.641 -0.5307  0.2150 -0.0730
 4376TIP3    H113134   5.653   3.637   4.644  0.0303  1.4013  0.5304
 4376TIP3    H213135   5.523   3.637   4.567  0.7606  0.0031 -0.7369
 4377TIP3   OH213136   2.996   0.503   2.877 -0.1003 -0.0908  0.1914
 4377TIP3    H113137   3.047   0.527   2.954 -1.4189 -0.7823  1.3323
 4377TIP3    H213138   3.042   0.543   2.804  1.9755 -0.5641  1.1701
 4378TIP3   OH213139   0.379   5.005   5.046  0.5222 -0.8948 -0.3774
 4378TIP3    H113140   0.470   5.036   5.050  0.7608 -1.3500 -1.6794
 4378TIP3    H213141   0.386   4.915   5.016 -0.3641 -0.9298 -0.4944
 4379TIP3   OH213142   4.662   0.144   4.491 -0.0129 -0.1764  0.3320
 4379TIP3    H113143   4.706   0.228   4.507 -0.9812  0.0819  1.8629
 4379TIP3    H213144   4.709   0.082   4.546 -0.9998 -0.0579  1.3510
 4380TIP3   OH213145   3.139   0.982   3.757  0.2357 -0.7119  0.1268
 4380TIP3    H113146   3.077   1.047   3.789 -0.7372 -1.3787 -0.3522
 4380TIP3    H213147   3.219   1.032   3.738 -1.0329  0.6883 -1.9352
 4381TIP3   OH213148   3.408   0.326   4.747  0.1398  0.4871  0.1711
 4381TIP3    H113149   3.420   0.285   4.832 -0.4535 -0.5108 -0.2082
 4381TIP3    H213150   3.484   0.383   4.737  0.9431 -0.4533  0.7665
 4382TIP3   OH213151   0.776   5.932   3.780  0.4989 -0.1311  0.1407
 4382TIP3    H113152   0.695   5.914   3.731 -0.7887 -0.6303  2.2987
 4382TIP3    H213153   0.818   5.847   3.790  0.7408 -0.0364 -0.0618
 4383TIP3   OH213154   2.650   2.352   3.963 -0.1611 -0.1177  0.2686
 4383TIP3    H113155   2.681   2.437   3.994 -1.2026 -0.2546  1.7952
 4383TIP3    H213156   2.596   2.373   3.887  3.1632  0.1536 -2.2422
 4384TIP3   OH213157   3.667   1.995   0.391  0.1412 -0.4903 -0.4263
 4384TIP3    H113158   3.615   1.948   0.326 -0.1590  0.8467 -1.1889
 4384TIP3    H213159   3.756   1.960   0.380  0.5212  1.0060 -2.9322
 4385TIP3   OH213160   3.790   1.172   4.542 -0.0787 -0.2734 -0.2299
 4385TIP3    H113161   3.714   1.230   4.534 -0.6528 -1.1067 -0.9514
 4385TIP3    H213162   3.813   1.151   4.451  0.6150 -0.5420  0.0036
 4386TIP3   OH213163   1.711   1.647   1.260  0.9814 -0.3201 -0.2866
 4386TIP3    H113164   1.804   1.645   1.239  0.9409  0.1589 -0.5233
 4386TIP3    H213165   1.681   1.556   1.247  1.2967 -0.3606 -0.7373
 4387TIP3   OH213166   5.810   1.374   0.228 -0.3281 -0.2227  0.7552
 4387TIP3    H113167   5.873   1.427   0.181  0.1384  0.8396  2.5052
 4387TIP3    H213168   5.725   1.410   0.203 -0.0979  0.2771  0.6903
 4388TIP3   OH213169   4.663   3.618   2.484  0.5701 -0.1431  0.1446
 4388TIP3    H113170   4.623   3.698   2.519  1.5360  0.2746  0.3101
 4388TIP3    H213171   4.744   3.608   2.534  1.0765 -0.5363 -0.7307
 4389TIP3   OH213172   1.453   2.030   2.131 -0.4311 -0.4131  0.4272
 4389TIP3    H113173   1.413   2.070   2.208 -0.2798  0.4295  0.0807
 4389TIP3    H213174   1.410   2.072   2.057 -0.0486 -0.6725  0.0537
 4390TIP3   OH213175   3.460   5.251   1.346 -0.6933  0.3302  0.1862
 4390TIP3    H113176   3.526   5.182   1.338 -0.3058  0.6011  0.9590
 4390TIP3    H213177   3.393   5.228   1.281 -0.3069 -0.4754  0.0638
 4391TIP3   OH213178   4.751   4.858   2.220  0.2027 -0.4037  0.0780
 4391TIP3    H113179   4.700   4.898   2.291  2.4120  1.3508  0.7901
 4391TIP3    H213180   4.710   4.772   2.207 -1.2884 -0.1366  2.3563
 4392TIP3   OH213181   1.037   0.075   2.029 -0.8158 -0.2136 -0.1994
 4392TIP3    H113182   1.098   0.139   2.063 -0.2279 -0.8047 -0.1186
 4392TIP3    H213183   1.052   0.075   1.934 -0.0864 -0.9528 -0.0958
 4393TIP3   OH213184   6.273   5.271   3.178  0.1756 -1.1523  0.6824
 4393TIP3    H113185   6.270   5.185   3.220 -0.2362 -1.6615 -0.3664
 4393TIP3    H213186   6.283   5.253   3.085 -0.6569 -0.0831  0.3610
 4394TIP3   OH213187   5.070   4.939   2.557 -0.3292 -0.1183  0.1033
 4394TIP3    H113188   4.984   4.898   2.565  0.3779 -2.0220 -1.3190
 4394TIP3    H213189   5.127   4.886   2.613  0.2134  0.2246 -0.1241
 4395TIP3   OH213190   0.103   1.696   3.308  0.3796  0.5083 -0.2277
 4395TIP3    H113191   0.087   1.757   3.236  1.2854  2.4742  1.1561
 4395TIP3    H213192   0.187   1.656   3.287  0.5407  0.9213 -0.3781
 4396TIP3   OH213193   0.348   4.808   2.644  0.4854  0.4462  0.4875
 4396TIP3    H113194   0.411   4.751   2.600 -0.2109 -0.7743  1.0025
 4396TIP3    H213195   0.401   4.878   2.682  1.4669 -0.2700  0.4786
 4397TIP3   OH213196   3.170   5.891   0.205 -0.1803 -0.4659 -0.2758
 4397TIP3    H113197   3.239   5.934   0.255  0.1919 -0.9710 -0.3563
 4397TIP3    H213198   3.095   5.890   0.265  0.0588 -0.4521  0.0247
 4398TIP3   OH213199   6.081   2.007   3.343 -0.1524  0.1340 -0.5712
 4398TIP3    H113200   6.063   1.913   3.341  0.0337  0.1020 -0.8970
 4398TIP3    H213201   6.105   2.026   3.434 -0.0455 -0.1601 -0.5380
 4399TIP3   OH213202   1.874   5.397   3.356 -0.0355 -0.3983 -0.1541
 4399TIP3    H113203   1.883   5.350   3.438  0.3075  0.7023  0.4625
 4399TIP3    H213204   1.823   5.338   3.300 -1.9439 -0.4026  1.4671
 4400TIP3   OH213205   6.265   2.625   3.779  0.1656  0.1481  0.0344
 4400TIP3    H113206   6.241   2.617   3.871  0.3444 -0.0411  0.0661
 4400TIP3    H213207   6.309   2.542   3.759 -1.1773 -0.4461 -0.6150
 4401TIP3   OH213208   0.437   1.400   0.202  0.2683 -0.2966 -0.3609
 4401TIP3    H113209   0.388   1.380   0.282  0.3787  0.2388 -0.1534
 4401TIP3    H213210   0.488   1.321   0.184 -1.9395 -1.5665 -1.5404
 4402TIP3   OH213211   2.014   1.554   3.875  0.5455 -0.4509 -0.0144
 4402TIP3    H113212   2.051   1.470   3.848  1.5809  0.5917 -2.0682
 4402TIP3    H213213   1.950   1.576   3.807 -0.2482  0.1120  0.8775
 4403TIP3   OH213214   1.428   1.744   4.416 -0.0683 -0.3867 -0.3248
 4403TIP3    H113215   1.517   1.716   4.435  0.1001 -0.1151 -0.6959
 4403TIP3    H213216   1.385   1.666   4.381 -0.4189 -0.9296  1.2344
 4404TIP3   OH213217   3.926   1.974   2.601 -0.2413 -0.0767 -0.3457
 4404TIP3    H113218   3.835   1.961   2.577 -0.1892 -1.3341  0.0738
 4404TIP3    H213219   3.926   2.056   2.651 -1.0915  0.0541 -0.5498
 4405TIP3   OH213220   2.080   0.576   5.213  0.0790 -0.5622 -0.2440
 4405TIP3    H113221   2.087   0.512   5.142  1.0966 -0.0798 -0.5941
 4405TIP3    H213222   2.045   0.654   5.171 -0.8991 -0.7751  0.1317
 4406TIP3   OH213223   0.119   0.144   3.199  0.5508 -0.1183 -0.0248
 4406TIP3    H113224   0.032   0.150   3.238  0.7239 -0.5546  0.4426
 4406TIP3    H213225   0.105   0.109   3.111  0.1898  0.5339 -0.2336
 4407TIP3   OH213226   0.547   1.220   0.902  0.1958  0.0760  0.0156
 4407TIP3    H113227   0.540   1.235   0.808 -1.1563  2.7437  0.4412
 4407TIP3    H213228   0.612   1.284   0.932  0.2533 -0.4131  0.9758
 4408TIP3   OH213229   0.949   1.369   2.656  0.7267 -1.0611 -0.0826
 4408TIP3    H113230   0.964   1.275   2.654  1.1684 -0.9958  0.2033
 4408TIP3    H213231   1.034   1.408   2.639  0.6488 -0.7045  0.3249
 4409TIP3   OH213232   0.702   5.781   2.996  0.3710  0.1004 -0.1334
 4409TIP3    H113233   0.756   5.721   3.047 -0.8678  0.1862  1.3677
 4409TIP3    H213234   0.699   5.861   3.048 -0.1091  0.5461 -0.8339
 4410TIP3   OH213235   3.212   3.934   3.226  0.3475  0.3713  0.5407
 4410TIP3    H113236   3.220   3.911   3.133 -1.1157  1.7122  0.0210
 4410TIP3    H213237   3.211   3.850   3.272 -0.6862 -0.4138 -0.8351
 4411TIP3   OH213238   4.655   5.212   3.428 -0.2108 -0.3940 -0.0872
 4411TIP3    H113239   4.563   5.190   3.447 -0.7953  0.3360 -1.8469
 4411TIP3    H213240   4.694   5.128   3.404 -0.5427 -0.6373  0.2045
 4412TIP3   OH213241   1.294   3.970   2.729  0.2915 -0.3440 -0.1280
 4412TIP3    H113242   1.366   4.032   2.715  1.6911 -1.7122  0.6043
 4412TIP3    H213243   1.269   3.983   2.820  0.6831 -0.9198  0.0680
 4413TIP3   OH213244   2.650   3.790   4.820  0.1181  0.0804  0.0370
 4413TIP3    H113245   2.669   3.880   4.794  0.1399  0.2323  0.5648
 4413TIP3    H213246   2.564   3.796   4.863 -0.1779 -0.2573 -0.4914
 4414TIP3   OH213247   0.142   4.942   1.608  0.2996 -0.3434  0.3590
 4414TIP3    H113248   0.225   4.977   1.575 -0.6388  1.1377 -0.5767
 4414TIP3    H213249   0.159   4.850   1.624  1.4855 -0.6075 -2.0433
 4415TIP3   OH213250   5.500   4.607   4.381 -0.5494  0.1913  0.2151
 4415TIP3    H113251   5.522   4.577   4.293 -0.6340  0.2028  0.1894
 4415TIP3    H213252   5.579   4.650   4.412 -0.8375  1.0977 -0.2563
 4416TIP3   OH213253   1.266   4.799   0.894  0.4563 -0.0618 -0.1295
 4416TIP3    H113254   1.182   4.835   0.925  0.4647 -0.7002  0.6848
 4416TIP3    H213255   1.244   4.750   0.815 -0.1623 -1.1552  0.6772
 4417TIP3   OH213256   0.563   0.414   1.983 -0.2079  0.2245  0.0626
 4417TIP3    H113257   0.646   0.458   2.001 -0.0416 -0.3252  0.6864
 4417TIP3    H213258   0.588   0.339   1.928 -0.2012 -0.3127  0.7917
 4418TIP3   OH213259   1.530   3.546   0.293 -0.0441 -0.3761  0.0159
 4418TIP3    H113260   1.441   3.516   0.312 -0.7896  1.6865  0.0023
 4418TIP3    H213261   1.572   3.554   0.378 -0.6119  0.7212  0.2128
 4419TIP3   OH213262   0.856   4.164   1.814 -0.2444 -0.3828  0.2524
 4419TIP3    H113263   0.868   4.073   1.840  0.4082 -0.1751  0.7183
 4419TIP3    H213264   0.820   4.159   1.725 -1.1607 -1.0913  0.6446
 4420TIP3   OH213265   0.621   4.908   0.194  0.3328 -0.2061 -0.2006
 4420TIP3    H113266   0.713   4.932   0.201  0.5442 -0.8378 -0.6957
 4420TIP3    H213267   0.598   4.928   0.103 -0.7513  2.4110  0.5463
 4421TIP3   OH213268   1.827   2.194   0.562 -0.1476  0.3068 -0.0675
 4421TIP3    H113269   1.745   2.235   0.537 -0.2361  1.0132  1.2386
 4421TIP3    H213270   1.802   2.125   0.623  0.1197 -0.6055 -0.9800
 4422TIP3   OH213271   0.425   2.323   4.634  0.0837 -0.7013  0.5201
 4422TIP3    H113272   0.465   2.259   4.693 -0.1089 -1.3372 -0.0315
 4422TIP3    H213273   0.487   2.329   4.561  1.4198  1.6811  1.7342
 4423TIP3   OH213274   5.656   0.757   5.000 -0.1007  0.1170  0.0568
 4423TIP3    H113275   5.666   0.727   5.091 -1.0495 -3.1381 -0.7976
 4423TIP3    H213276   5.715   0.702   4.950 -0.6202  0.9211 -1.5001
 4424TIP3   OH213277   0.869   4.812   3.947 -0.2547 -0.3525 -0.1846
 4424TIP3    H113278   0.895   4.864   4.023  0.8838  0.8740 -1.3505
 4424TIP3    H213279   0.781   4.782   3.967 -0.4445  0.9406  1.0953
 4425TIP3   OH213280   4.524   0.160   4.745  0.1184  0.5443 -0.4268
 4425TIP3    H113281   4.497   0.247   4.775 -3.3697 -0.0485 -1.4555
 4425TIP3    H213282   4.543   0.172   4.652  1.8916  0.5695 -0.1032
 4426TIP3   OH213283   0.446   5.179   2.230  0.0377 -0.2522 -0.4404
 4426TIP3    H113284   0.466   5.272   2.223 -0.8080 -0.0245  0.0881
 4426TIP3    H213285   0.531   5.136   2.216  0.6266  0.6324  0.2791
 4427TIP3   OH213286   6.089   1.858   2.922  0.5347  0.3571 -0.3392
 4427TIP3    H113287   6.145   1.927   2.958  0.1435 -0.2197  1.4785
 4427TIP3    H213288   6.109   1.781   2.975 -1.7346  0.0534  0.1946
 4428TIP3   OH213289   0.311   5.750   0.449 -0.7911 -0.3412  0.0007
 4428TIP3    H113290   0.332   5.827   0.395 -0.5469 -1.2430 -1.2179
 4428TIP3    H213291   0.323   5.676   0.390  0.9046 -1.4842  1.6595
 4429TIP3   OH213292   0.325   1.226   2.995  0.2880  0.4815  0.4464
 4429TIP3    H113293   0.257   1.182   3.046 -0.7084  1.3428 -0.1008
 4429TIP3    H213294   0.407   1.200   3.037 -0.3843 -0.3743  1.2813
 4430TIP3   OH213295   5.828   0.153   1.057 -0.0284 -0.4249 -0.2691
 4430TIP3    H113296   5.829   0.057   1.055 -1.5484 -0.4409 -0.8865
 4430TIP3    H213297   5.899   0.179   0.998 -0.6815 -1.1664 -1.3992
 4431TIP3   OH213298   2.971   1.517   1.838  0.4774 -0.2903  0.1042
 4431TIP3    H113299   2.909   1.446   1.855  1.2788 -0.9291  0.4379
 4431TIP3    H213300   2.953   1.581   1.907  2.4894 -2.0559  2.4555
 4432TIP3   OH213301   5.981   4.603   3.209 -0.3891  0.9870  0.1123
 4432TIP3    H113302   6.061   4.627   3.255 -0.1584 -0.1109  0.3120
 4432TIP3    H213303   5.998   4.626   3.118  0.3340  0.3670  0.0788
 4433TIP3   OH213304   1.758   2.072   2.550  0.1962 -0.2693 -0.1573
 4433TIP3    H113305   1.705   2.027   2.484  0.5609 -0.9857  0.0373
 4433TIP3    H213306   1.695   2.104   2.614 -0.2142  0.8312 -1.0658
 4434TIP3   OH213307   3.434   4.085   2.784  0.3030  0.3176  0.6126
 4434TIP3    H113308   3.432   4.070   2.878 -0.2105  0.8245  0.6901
 4434TIP3    H213309   3.444   3.998   2.745 -2.0992 -0.2010  1.0483
 4435TIP3   OH213310   2.548   2.376   5.063 -0.1760  0.1314 -0.0708
 4435TIP3    H113311   2.561   2.341   5.151  1.2634  1.0970  0.1289
 4435TIP3    H213312   2.542   2.298   5.007  0.5003 -0.4784  0.6759
 4436TIP3   OH213313   1.722   0.608   0.164  0.1616  0.5455 -0.6426
 4436TIP3    H113314   1.713   0.621   0.258  0.3157 -0.0086 -0.5441
 4436TIP3    H213315   1.812   0.635   0.144 -0.4109  2.3506 -0.9486
 4437TIP3   OH213316   5.230   5.699   1.076  0.8256 -0.5622 -0.5712
 4437TIP3    H113317   5.272   5.779   1.044  0.8789 -1.2933 -2.4735
 4437TIP3    H213318   5.234   5.639   1.002  0.2094 -2.1172  0.6071
 4438TIP3   OH213319   4.136   0.960   1.811 -0.5033  0.3265 -0.0508
 4438TIP3    H113320   4.146   1.055   1.824  0.4361  0.3564 -0.8859
 4438TIP3    H213321   4.147   0.947   1.717  1.1870 -0.8026  0.2614
 4439TIP3   OH213322   2.905   3.484   4.410 -0.2737 -0.1886 -0.0727
 4439TIP3    H113323   2.973   3.542   4.376 -0.4649 -0.6800 -1.3610
 4439TIP3    H213324   2.875   3.435   4.333 -2.2517  0.1639  0.4255
 4440TIP3   OH213325   3.368   1.243   1.448 -0.6184  0.9446  0.2967
 4440TIP3    H113326   3.418   1.174   1.405  0.1645  3.3100 -3.0297
 4440TIP3    H213327   3.428   1.281   1.511 -0.5459 -0.3968  1.0627
 4441TIP3   OH213328   1.441   4.874   2.560  0.0430 -0.3646 -0.1332
 4441TIP3    H113329   1.428   4.786   2.525 -0.6625 -0.6354  0.7648
 4441TIP3    H213330   1.528   4.899   2.530 -0.3835 -0.7041 -1.7650
 4442TIP3   OH213331   6.116   3.969   0.477  0.6178 -0.3679 -0.0918
 4442TIP3    H113332   6.035   4.019   0.465  0.5964  0.0250  1.4697
 4442TIP3    H213333   6.181   4.034   0.501  1.4259 -0.6864 -1.3518
 4443TIP3   OH213334   0.536   3.812   0.741 -0.2829  0.2866 -0.0014
 4443TIP3    H113335   0.528   3.872   0.666 -0.6521  0.2048 -0.0331
 4443TIP3    H213336   0.597   3.855   0.800  0.1447  0.2767 -0.4232
 4444TIP3   OH213337   1.619   2.299   0.413 -0.4315 -0.2180 -0.3276
 4444TIP3    H113338   1.642   2.222   0.361 -1.3537 -0.2137 -0.7663
 4444TIP3    H213339   1.618   2.371   0.350  2.1376  0.5242  0.3687
 4445TIP3   OH213340   4.645   5.918   5.086  0.2204 -0.3730 -0.1111
 4445TIP3    H113341   4.705   5.848   5.060 -0.4086 -1.1978  0.6110
 4445TIP3    H213342   4.605   5.947   5.004 -0.2812 -1.5792 -0.3094
 4446TIP3   OH213343   0.087   4.709   2.695 -0.6017  0.4828  0.2001
 4446TIP3    H113344   0.045   4.758   2.765  1.1500  1.1590  0.8451
 4446TIP3    H213345   0.154   4.769   2.661  2.3414 -1.6903  1.6879
 4447TIP3   OH213346   1.917   5.782   1.857  0.3163  0.3514 -0.4744
 4447TIP3    H113347   1.900   5.756   1.766 -1.3427 -0.4567  0.0275
 4447TIP3    H213348   1.896   5.705   1.909 -0.2834  1.2685  0.7073
 4448TIP3   OH213349   2.147   3.071   3.209  0.0211 -0.4540  0.0910
 4448TIP3    H113350   2.229   3.049   3.252  1.1521  0.5597 -1.4318
 4448TIP3    H213351   2.157   3.037   3.119 -0.3959  1.3699 -0.6932
 4449TIP3   OH213352   6.037   2.711   2.520 -0.1215 -0.2640 -0.4799
 4449TIP3    H113353   5.965   2.773   2.534 -0.4289 -0.5368 -0.8328
 4449TIP3    H213354   6.111   2.749   2.568 -1.1698 -1.2594  2.1321
 4450TIP3   OH213355   4.610   1.534   2.191 -0.2516  0.0025  0.1777
 4450TIP3    H113356   4.635   1.465   2.130 -0.9985  0.7749 -1.0635
 4450TIP3    H213357   4.514   1.537   2.185 -0.2787  0.5907  0.8309
 4451TIP3   OH213358   2.093   1.175   2.047  0.6201  0.2020  0.2597
 4451TIP3    H113359   2.077   1.267   2.068 -1.9655 -0.4223  1.4227
 4451TIP3    H213360   2.040   1.160   1.968 -2.0218 -1.0760  2.1369
 4452TIP3   OH213361   2.643   5.579   5.168  0.5273 -0.3059  0.0561
 4452TIP3    H113362   2.591   5.610   5.094  0.3474  0.8311  0.6423
 4452TIP3    H213363   2.729   5.558   5.129  0.3869  0.1198 -0.5026
 4453TIP3   OH213364   0.575   2.490   3.199 -0.0613 -0.2740  0.7574
 4453TIP3    H113365   0.653   2.450   3.161 -0.1388 -0.7466  1.0884
 4453TIP3    H213366   0.567   2.450   3.285 -0.7280 -0.3058  0.6858
 4454TIP3   OH213367   0.515   1.372   2.047  0.2257 -0.3184 -0.2497
 4454TIP3    H113368   0.435   1.320   2.045  0.1236 -0.2115  0.5498
 4454TIP3    H213369   0.535   1.381   2.140  0.8889  0.0847 -0.4243
 4455TIP3   OH213370   3.454   5.104   4.425  0.0458 -0.1880  0.7902
 4455TIP3    H113371   3.501   5.046   4.485 -2.0148 -0.9531  1.7390
 4455TIP3    H213372   3.478   5.192   4.452 -1.1253 -0.5052  3.0169
 4456TIP3   OH213373   0.238   1.499   2.171 -0.6142  0.4198 -0.2461
 4456TIP3    H113374   0.238   1.520   2.077 -0.0090 -0.1669 -0.3950
 4456TIP3    H213375   0.320   1.537   2.204 -0.3362 -0.2232 -0.1737
 4457TIP3   OH213376   3.393   4.592   2.195 -0.2528 -0.1976  0.2703
 4457TIP3    H113377   3.414   4.528   2.127  1.1788  0.7184 -0.1833
 4457TIP3    H213378   3.474   4.600   2.246 -0.6254  0.7484  0.7281
 4458TIP3   OH213379   1.724   0.538   1.900 -0.5837  0.2905 -0.0888
 4458TIP3    H113380   1.677   0.556   1.982 -1.5831 -0.9654 -0.3579
 4458TIP3    H213381   1.658   0.550   1.831 -0.3947 -0.9331 -0.5170
 4459TIP3   OH213382   4.517   1.336   1.732  0.1136  0.1026  0.0996
 4459TIP3    H113383   4.541   1.407   1.672 -0.9398 -0.7382 -1.3813
 4459TIP3    H213384   4.539   1.256   1.684  1.5058 -0.6197  1.8373
 4460TIP3   OH213385   2.538   0.306   3.953  0.4534 -0.4350  0.0260
 4460TIP3    H113386   2.584   0.390   3.943  1.0697 -0.7955 -0.2325
 4460TIP3    H213387   2.446   0.328   3.936  0.7614 -0.0188 -1.2462
 4461TIP3   OH213388   2.686   2.402   0.668 -0.0251  0.0859 -0.2259
 4461TIP3    H113389   2.761   2.361   0.625 -0.1297  0.2243 -0.5481
 4461TIP3    H213390   2.623   2.416   0.597 -0.7189 -0.8547  0.1963
 4462TIP3   OH213391   0.056   3.928   1.480  0.1704 -0.3819 -0.5946
 4462TIP3    H113392  -0.029   3.970   1.490 -0.5203 -2.1002  1.3981
 4462TIP3    H213393   0.038   3.847   1.433  0.4513 -1.3416  0.8803
 4463TIP3   OH213394   4.258   2.914   4.374 -0.2250  0.2362 -0.3287
 4463TIP3    H113395   4.257   3.000   4.417 -0.6970  0.1178 -0.0900
 4463TIP3    H213396   4.173   2.875   4.397  0.8698 -1.2266  1.4772
 4464TIP3   OH213397   5.251   2.091   2.806  0.1155  0.0655 -0.0284
 4464TIP3    H113398   5.315   2.150   2.847  0.4541 -0.2666 -0.0698
 4464TIP3    H213399   5.303   2.036   2.748 -0.1246 -0.5913  0.3677
 4465TIP3   OH213400   0.720   5.383   0.710 -0.2981 -0.0232  0.5050
 4465TIP3    H113401   0.806   5.381   0.667  0.9177 -0.5180  2.7795
 4465TIP3    H213402   0.663   5.332   0.652  1.8190 -2.6987  0.5540
 4466TIP3   OH213403   2.357   0.491   3.569 -0.5382  0.7502  1.0359
 4466TIP3    H113404   2.348   0.403   3.607  0.4112  0.0660 -0.2259
 4466TIP3    H213405   2.315   0.549   3.632  0.6280 -0.3608  2.9428
 4467TIP3   OH213406   2.420   4.648   2.717 -0.0017  0.3019  0.5657
 4467TIP3    H113407   2.357   4.665   2.788  0.0341 -0.2690  0.7419
 4467TIP3    H213408   2.372   4.593   2.656 -0.4747  1.8745 -0.5408
 4468TIP3   OH213409   6.183   0.530   1.363  0.0942  0.4318 -0.1583
 4468TIP3    H113410   6.147   0.456   1.314 -0.1972 -0.3186  1.1481
 4468TIP3    H213411   6.173   0.505   1.455  2.3425  0.9727  0.2811
 4469TIP3   OH213412   4.532   1.229   4.275 -0.2984  0.3868 -0.0848
 4469TIP3    H113413   4.546   1.168   4.202  1.2692  0.5151  0.0725
 4469TIP3    H213414   4.474   1.182   4.335 -0.6848 -0.1686 -0.8703
 4470TIP3   OH213415   2.585   3.223   3.222 -0.4655  0.5303  0.2169
 4470TIP3    H113416   2.657   3.211   3.160 -0.2076 -0.6242  0.7075
 4470TIP3    H213417   2.514   3.260   3.170 -0.7067 -1.6179 -1.1058
 4471TIP3   OH213418   5.414   2.241   3.792 -0.1346 -0.2554  0.6030
 4471TIP3    H113419   5.387   2.318   3.842 -0.4267 -0.4253  0.7088
 4471TIP3    H213420   5.377   2.254   3.705 -0.7647 -0.6026  0.8162
 4472TIP3   OH213421   0.802   3.774   4.827 -0.5037  0.4886 -0.2687
 4472TIP3    H113422   0.740   3.758   4.898  0.5515  0.8163  0.7584
 4472TIP3    H213423   0.850   3.852   4.854 -0.1121  0.6363 -1.3641
 4473TIP3   OH213424   3.208   5.225   4.100  0.1757 -0.9054 -0.0549
 4473TIP3    H113425   3.204   5.284   4.025  0.6625 -1.5842 -0.6235
 4473TIP3    H213426   3.179   5.279   4.174 -0.9516 -0.4021 -0.8244
 4474TIP3   OH213427   3.190   5.172   3.537  0.6208 -0.0948  0.4908
 4474TIP3    H113428   3.148   5.181   3.622  1.0058 -0.1485  0.6850
 4474TIP3    H213429   3.170   5.254   3.492 -1.5524 -0.9411 -0.2574
 4475TIP3   OH213430   1.228   4.478   0.981  0.7138 -0.0002 -0.4192
 4475TIP3    H113431   1.174   4.494   1.059  2.2922  1.3274  0.4592
 4475TIP3    H213432   1.282   4.557   0.973 -0.1491  0.4096 -3.5211
 4476TIP3   OH213433   6.048   4.391   3.520 -0.1385 -0.7024  0.4962
 4476TIP3    H113434   5.970   4.446   3.508  0.6033  0.2051 -0.3471
 4476TIP3    H213435   6.063   4.352   3.434 -0.1773 -1.5977  0.8858
 4477TIP3   OH213436   0.350   4.435   1.747 -0.1868  0.1192 -0.2643
 4477TIP3    H113437   0.369   4.435   1.653 -0.4314  0.1865 -0.3147
 4477TIP3    H213438   0.421   4.384   1.786 -1.4351 -2.1822 -0.7757
 4478TIP3   OH213439   3.025   3.373   1.766 -0.3654 -0.7155  0.3665
 4478TIP3    H113440   2.990   3.462   1.768  0.2879 -0.4674  1.1998
 4478TIP3    H213441   2.966   3.326   1.706 -1.5609 -0.0849  1.0098
 4479TIP3   OH213442   3.142   0.448   1.987  0.1436  0.1425 -0.0278
 4479TIP3    H113443   3.086   0.520   2.017 -1.7437 -1.1122 -0.3541
 4479TIP3    H213444   3.101   0.369   2.024  2.7347 -0.7406  1.1827
 4480TIP3   OH213445   4.733   5.699   4.547  0.1558  0.1878  0.2206
 4480TIP3    H113446   4.799   5.714   4.614  0.0423  0.8563  0.1976
 4480TIP3    H213447   4.672   5.773   4.558 -0.7003 -0.5258  0.3855
 4481TIP3   OH213448   3.803   0.608   1.529  0.1372  0.6040 -0.2267
 4481TIP3    H113449   3.780   0.572   1.444  0.1580  0.4163 -0.1515
 4481TIP3    H213450   3.770   0.545   1.593 -0.3726  1.0163 -0.0751
 4482TIP3   OH213451   2.347   2.506   1.795 -0.6096 -0.3361 -0.5020
 4482TIP3    H113452   2.260   2.542   1.780 -0.3994  0.2475 -0.3300
 4482TIP3    H213453   2.338   2.412   1.776 -1.2274 -0.2457 -0.6592
 4483TIP3   OH213454   5.418   5.320   2.821  0.3221  0.4705  0.2541
 4483TIP3    H113455   5.429   5.236   2.776 -0.2074  0.0564  0.8778
 4483TIP3    H213456   5.419   5.385   2.751 -1.7090 -0.2554 -0.5036
 4484TIP3   OH213457   5.739   5.539   4.246 -0.3130 -0.2630 -0.1363
 4484TIP3    H113458   5.750   5.562   4.338  0.3582 -0.6705 -0.1079
 4484TIP3    H213459   5.794   5.600   4.199 -0.3914 -0.2738 -0.2427
 4485TIP3   OH213460   5.122   0.841   2.715  0.5362  0.4316 -0.2310
 4485TIP3    H113461   5.069   0.865   2.639  1.4850  3.0789 -0.1437
 4485TIP3    H213462   5.059   0.819   2.783 -0.3603  0.4559 -1.0385
 4486TIP3   OH213463   0.265   4.502   2.064 -0.0765  0.6580 -0.4572
 4486TIP3    H113464   0.218   4.556   2.001 -0.0558  1.3555  0.1145
 4486TIP3    H213465   0.356   4.507   2.037 -0.1835  0.1673 -0.9358
 4487TIP3   OH213466   4.659   1.907   0.328 -0.0102  0.1230  0.5976
 4487TIP3    H113467   4.622   1.905   0.416 -0.9561  0.4237  0.2212
 4487TIP3    H213468   4.612   1.838   0.281  1.7471 -1.2748  0.7877
 4488TIP3   OH213469   3.376   2.885   4.328  0.1188 -0.1669 -0.0967
 4488TIP3    H113470   3.455   2.866   4.378  0.1748 -0.9199 -0.4508
 4488TIP3    H213471   3.306   2.885   4.393  0.2650 -0.5743  0.0661
 4489TIP3   OH213472   4.205   2.536   2.524 -0.0227 -0.3000 -0.2508
 4489TIP3    H113473   4.115   2.558   2.501  0.5167  3.6969  0.7731
 4489TIP3    H213474   4.257   2.565   2.450  0.7017  1.4771  0.8909
 4490TIP3   OH213475   0.554   0.957   3.157  0.4737 -0.1324 -0.1860
 4490TIP3    H113476   0.615   0.953   3.231  1.5847  0.3888 -1.0499
 4490TIP3    H213477   0.602   0.919   3.084 -0.3332  0.0613 -0.8331
 4491TIP3   OH213478   5.625   3.603   2.995  0.0141  0.3075  0.3449
 4491TIP3    H113479   5.674   3.653   2.930  0.3512  2.2735  2.0047
 4491TIP3    H213480   5.690   3.543   3.032 -0.1791 -0.8246 -1.0597
 4492TIP3   OH213481   3.472   0.238   0.795  0.1184  0.2393 -0.1785
 4492TIP3    H113482   3.397   0.185   0.821  0.5782 -0.8529 -1.0236
 4492TIP3    H213483   3.434   0.323   0.772 -0.8306 -0.2119 -0.3429
 4493TIP3   OH213484   5.775   1.035   1.372 -0.1637  0.4291 -0.1242
 4493TIP3    H113485   5.759   0.993   1.287  2.0080 -0.6630 -0.0570
 4493TIP3    H213486   5.706   1.000   1.429 -0.5970 -0.1804 -0.9989
 4494TIP3   OH213487   3.705   5.498   2.722 -0.3738  0.3793  0.4275
 4494TIP3    H113488   3.655   5.439   2.666  1.0566 -1.5472  1.0873
 4494TIP3    H213489   3.712   5.451   2.805  0.1548  1.8334  1.2377
 4495TIP3   OH213490   3.682   2.111   4.596  0.1975  0.8262 -0.0428
 4495TIP3    H113491   3.739   2.139   4.667  0.7321  1.3025 -0.6503
 4495TIP3    H213492   3.735   2.120   4.517 -0.5309  0.7377 -0.5566
 4496TIP3   OH213493   6.160   5.345   5.052 -0.4342 -0.2013  0.8648
 4496TIP3    H113494   6.081   5.307   5.013  1.1659 -0.7253 -2.1952
 4496TIP3    H213495   6.134   5.434   5.076 -1.7302 -0.0210 -0.9841
 4497TIP3   OH213496   3.425   1.844   1.802 -0.5246  0.5466  0.1987
 4497TIP3    H113497   3.513   1.822   1.774 -1.0467  0.2502 -1.3535
 4497TIP3    H213498   3.368   1.793   1.744 -1.7946 -2.2382  3.5382
 4498TIP3   OH213499   4.531   1.125   3.646  0.0511 -0.2026  0.1963
 4498TIP3    H113500   4.600   1.191   3.640  1.7754 -1.4696  3.4966
 4498TIP3    H213501   4.557   1.058   3.583  1.3471 -0.2247  0.7324
 4499TIP3   OH213502   3.557   3.712   1.041  0.1685 -0.0182  0.1793
 4499TIP3    H113503   3.557   3.739   1.133 -1.2298  1.0492 -0.0922
 4499TIP3    H213504   3.491   3.768   1.000  0.2572 -0.9673 -1.3331
 4500TIP3   OH213505   2.352   3.489   2.818 -0.3183  0.0108 -0.2548
 4500TIP3    H113506   2.402   3.495   2.737  0.1650  0.9505  0.0938
 4500TIP3    H213507   2.267   3.527   2.797  0.6152  2.5662  0.2755
 4501TIP3   OH213508   1.726   2.901   2.265 -0.0424 -0.0219 -0.1010
 4501TIP3    H113509   1.675   2.955   2.204 -0.8647 -1.0075 -0.3149
 4501TIP3    H213510   1.689   2.920   2.351  0.1684  0.2995 -0.0779
 4502TIP3   OH213511   1.070   2.911   1.968  0.3375 -0.2008 -0.2536
 4502TIP3    H113512   1.141   2.885   2.026 -0.3488 -0.0114  0.6900
 4502TIP3    H213513   0.994   2.922   2.025 -0.1201  0.9455 -1.0335
 4503TIP3   OH213514   5.602   2.133   1.237  0.1513  0.7558 -0.0651
 4503TIP3    H113515   5.693   2.160   1.224  0.8030 -0.6108  1.2512
 4503TIP3    H213516   5.600   2.098   1.326 -1.7691  1.0913  0.0683
 4504TIP3   OH213517   1.370   4.597   2.546 -0.0689 -0.6508 -0.0852
 4504TIP3    H113518   1.437   4.572   2.483 -0.2678  0.2712 -0.6802
 4504TIP3    H213519   1.335   4.513   2.579  1.0821 -1.1366 -0.0541
 4505TIP3   OH213520   2.974   4.582   1.182  0.5895 -0.2138 -0.3060
 4505TIP3    H113521   2.911   4.527   1.229  0.4551  0.1193 -0.1005
 4505TIP3    H213522   3.019   4.520   1.124  0.9997 -0.6862  0.5039
 4506TIP3   OH213523   1.163   1.546   3.842  0.3958 -0.0966  0.0734
 4506TIP3    H113524   1.191   1.546   3.750  0.9451  0.2789  0.2409
 4506TIP3    H213525   1.175   1.636   3.871  0.2341 -0.2173  0.5248
 4507TIP3   OH213526   3.445   2.536   2.062  0.0078 -0.5085 -0.2108
 4507TIP3    H113527   3.418   2.511   1.974  0.0082 -0.3533 -0.2544
 4507TIP3    H213528   3.476   2.626   2.054  1.6179 -1.0413 -0.3975
 4508TIP3   OH213529   4.256   3.136   4.494 -0.0074  0.7368  0.2809
 4508TIP3    H113530   4.223   3.144   4.583  0.6191  1.0072  0.4962
 4508TIP3    H213531   4.286   3.224   4.471  2.6548  0.1081  0.9567
 4509TIP3   OH213532   2.490   1.568   4.389 -0.1145  0.1605  0.2744
 4509TIP3    H113533   2.440   1.502   4.342 -0.3100  0.6214 -0.1767
 4509TIP3    H213534   2.578   1.532   4.397  0.2193  0.5254 -1.4030
 4510TIP3   OH213535   4.279   1.895   2.431  0.6748  0.1351 -0.6020
 4510TIP3    H113536   4.193   1.854   2.426  0.1866  0.9631  0.5068
 4510TIP3    H213537   4.340   1.822   2.439 -0.1955 -0.4340  1.8122
 4511TIP3   OH213538   5.848   1.023   1.711  0.0555  0.2487 -0.8106
 4511TIP3    H113539   5.817   1.035   1.621  0.8166 -0.5390 -1.1969
 4511TIP3    H213540   5.824   1.103   1.756 -0.9226  0.3861 -1.5522
 4512TIP3   OH213541   2.416   3.151   4.108  0.7350 -0.3544 -0.2113
 4512TIP3    H113542   2.320   3.149   4.112  0.7314  0.6929  0.5357
 4512TIP3    H213543   2.438   3.244   4.106  1.6822 -0.5486 -2.4534
 4513TIP3   OH213544   2.831   5.556   4.653  0.1548 -0.1105 -0.7556
 4513TIP3    H113545   2.740   5.536   4.673  0.1657  0.3326 -0.2436
 4513TIP3    H213546   2.830   5.577   4.559 -0.4389  0.8176 -0.5557
 4514TIP3   OH213547   3.384   4.078   3.051  0.0499  0.1577  0.0374
 4514TIP3    H113548   3.397   4.000   3.103 -1.9513  0.1707  0.6377
 4514TIP3    H213549   3.378   4.149   3.114 -3.0326  0.0896 -0.0523
 4515TIP3   OH213550   4.120   2.443   0.258  0.9337 -0.6992  0.3835
 4515TIP3    H113551   4.160   2.397   0.332  1.1464 -2.0695 -0.5474
 4515TIP3    H213552   4.027   2.423   0.264  1.1633 -2.2905 -0.6674
 4516TIP3   OH213553   5.788   0.385   2.659  0.3013  0.3990 -0.2923
 4516TIP3    H113554   5.795   0.391   2.754  0.5292 -1.2769 -0.1853
 4516TIP3    H213555   5.694   0.394   2.641  0.2586  0.7228  0.0734
 4517TIP3   OH213556   6.088   5.261   4.619 -0.1507  0.0270 -0.6745
 4517TIP3    H113557   6.130   5.255   4.533 -1.3377  0.3533 -1.2907
 4517TIP3    H213558   6.128   5.190   4.670  0.8991  0.1140 -1.3338
 4518TIP3   OH213559   1.383   3.381   4.713  0.3255  0.6945 -0.0465
 4518TIP3    H113560   1.373   3.457   4.770 -3.0625 -0.3746  1.0557
 4518TIP3    H213561   1.416   3.416   4.630  1.8127  2.8284  1.3634
 4519TIP3   OH213562   5.638   2.023   1.784 -0.6095  0.3953  0.4377
 4519TIP3    H113563   5.722   1.990   1.818 -0.2299  0.7447 -0.1444
 4519TIP3    H213564   5.574   1.999   1.852 -0.4133 -1.8021 -0.0788
 4520TIP3   OH213565   6.201   4.126   4.988  0.2036 -0.5882 -0.2690
 4520TIP3    H113566   6.276   4.100   4.934 -0.3370 -1.4843 -0.6194
 4520TIP3    H213567   6.220   4.215   5.015  1.0794 -0.5700 -0.9168
 4521TIP3   OH213568   5.154   2.610   1.906  0.1706  0.0254 -0.1531
 4521TIP3    H113569   5.221   2.617   1.974 -0.5123 -3.6215  1.0702
 4521TIP3    H213570   5.202   2.578   1.829  0.3070  0.5841 -0.3129
 4522TIP3   OH213571   0.422   5.236   3.034 -0.7853  0.4386  0.4852
 4522TIP3    H113572   0.347   5.242   3.092 -1.5051 -1.7673 -0.0971
 4522TIP3    H213573   0.403   5.297   2.963 -1.3634  0.8977  1.0259
 4523TIP3   OH213574  -0.016   5.060   2.236  0.0217  0.2149  0.3584
 4523TIP3    H113575   0.041   5.100   2.301  1.0832  0.5822 -0.7598
 4523TIP3    H213576   0.016   5.093   2.152 -1.1607 -0.4245 -0.3771
 4524TIP3   OH213577   1.162   0.401   1.647  0.3222  0.4103 -0.0325
 4524TIP3    H113578   1.209   0.319   1.639 -2.4704 -1.1293 -3.7326
 4524TIP3    H213579   1.225   0.468   1.621  1.5365 -1.0816 -1.0966
 4525TIP3   OH213580   2.203   2.443   2.576 -0.2388 -0.0557 -0.6985
 4525TIP3    H113581   2.261   2.370   2.597  0.7450  0.6164 -1.0489
 4525TIP3    H213582   2.148   2.410   2.505 -0.6396 -0.8559 -0.0427
 4526TIP3   OH213583   4.727   0.388   3.936 -0.5806 -0.0698  0.7136
 4526TIP3    H113584   4.731   0.482   3.925 -2.6485  0.0875  0.8369
 4526TIP3    H213585   4.737   0.352   3.848 -2.4529  0.4385  0.2462
 4527TIP3   OH213586   6.223   1.174   1.748 -0.0799  0.1347 -0.1960
 4527TIP3    H113587   6.130   1.193   1.736  0.2812  1.4761 -1.1057
 4527TIP3    H213588   6.241   1.103   1.687 -0.0510  1.4048 -1.7347
 4528TIP3   OH213589   5.101   0.525   2.798  0.1716  0.3601  0.1740
 4528TIP3    H113590   5.068   0.563   2.717  1.5695  0.5703 -0.3355
 4528TIP3    H213591   5.029   0.471   2.831 -1.2943  2.1605  0.0803
 4529TIP3   OH213592   0.535   3.561   4.406 -0.0170 -0.4305 -0.5427
 4529TIP3    H113593   0.548   3.470   4.431 -2.1782 -0.1343  2.0675
 4529TIP3    H213594   0.579   3.612   4.475 -1.2280  0.4697 -0.3987
 4530TIP3   OH213595   0.674   5.530   1.959 -0.0165  0.6685  0.2373
 4530TIP3    H113596   0.765   5.516   1.932 -0.6917  0.8285 -2.3952
 4530TIP3    H213597   0.625   5.532   1.877 -2.4284  0.5248  1.5904
 4531TIP3   OH213598   4.224   0.200   2.324 -0.1428  0.0499  0.2837
 4531TIP3    H113599   4.276   0.254   2.384 -1.6523  1.6097  0.2654
 4531TIP3    H213600   4.171   0.144   2.382 -0.0634  0.0539  0.3601
 4532TIP3   OH213601   3.907   4.278   4.774 -1.0009 -0.2679  0.2176
 4532TIP3    H113602   3.995   4.256   4.741 -1.1867 -0.3554 -0.2263
 4532TIP3    H213603   3.855   4.199   4.760 -1.5262  0.2495 -0.8826
 4533TIP3   OH213604   3.810   3.934   2.428  0.1935 -0.2261 -0.1932
 4533TIP3    H113605   3.723   3.973   2.440 -0.3732 -1.9103  1.8557
 4533TIP3    H213606   3.798   3.871   2.356  0.1012  0.5361 -0.8553
 4534TIP3   OH213607   2.801   2.588   3.982  0.1609  0.1826  0.3789
 4534TIP3    H113608   2.772   2.656   3.921  1.2890 -1.0574 -1.6287
 4534TIP3    H213609   2.888   2.615   4.010 -0.5708  1.0405  1.9871
 4535TIP3   OH213610   5.496   0.774   4.124 -0.1229  0.3502 -0.3450
 4535TIP3    H113611   5.432   0.706   4.147  1.6812 -0.6588  2.2072
 4535TIP3    H213612   5.469   0.850   4.175 -0.3965  0.5713 -0.8144
 4536TIP3   OH213613   4.625   0.354   0.410  0.0098  0.2063 -0.3226
 4536TIP3    H113614   4.617   0.411   0.333  1.1982 -0.7410 -1.1965
 4536TIP3    H213615   4.669   0.408   0.475  0.8398  0.4223 -1.0333
 4537TIP3   OH213616   4.265   5.318   3.233  0.5679  0.3280  0.4772
 4537TIP3    H113617   4.230   5.370   3.160  0.5823  0.5345  0.6158
 4537TIP3    H213618   4.282   5.232   3.195  2.6065  1.0112 -0.3471
 4538TIP3   OH213619   1.075   5.578   3.994 -0.1961 -0.0892  0.4513
 4538TIP3    H113620   1.146   5.631   4.028 -0.5492 -0.0158  1.0867
 4538TIP3    H213621   1.115   5.525   3.925  0.2634  0.6266  0.1583
 4539TIP3   OH213622   5.498   3.239   1.877 -0.0947  0.1976 -0.0104
 4539TIP3    H113623   5.462   3.224   1.790 -1.9585 -0.3171  0.7886
 4539TIP3    H213624   5.423   3.270   1.928  1.3321  2.2215  0.9943
 4540TIP3   OH213625   1.953   5.642   4.894  0.0632  0.1803 -0.3225
 4540TIP3    H113626   1.946   5.727   4.937  3.5209 -0.3243  1.6206
 4540TIP3    H213627   1.917   5.580   4.958 -0.0146 -0.0787 -0.6132
 4541TIP3   OH213628   3.624   5.193   5.058 -0.2009 -0.2066 -0.0506
 4541TIP3    H113629   3.559   5.222   4.995 -0.5304 -1.7197 -0.4465
 4541TIP3    H213630   3.573   5.160   5.132  0.1510  0.0405  0.3073
 4542TIP3   OH213631   5.837   1.626   1.448  0.0111  0.7507  0.2677
 4542TIP3    H113632   5.848   1.606   1.541 -0.0268  0.6282  0.2465
 4542TIP3    H213633   5.823   1.541   1.407 -0.5243  0.8529  0.2268
 4543TIP3   OH213634   4.854   3.153   5.034 -0.3221  0.2749  0.4436
 4543TIP3    H113635   4.924   3.208   5.068  0.1265 -0.2287  0.3414
 4543TIP3    H213636   4.804   3.211   4.976  0.0531  0.6153  0.4589
 4544TIP3   OH213637   6.189   1.967   3.583 -0.3266  0.0399  0.1666
 4544TIP3    H113638   6.163   1.875   3.588 -2.5486  0.6730  1.2538
 4544TIP3    H213639   6.275   1.965   3.542 -1.1491 -2.3800 -1.6480
 4545TIP3   OH213640   6.261   4.263   0.539  0.0779 -0.1599  0.0176
 4545TIP3    H113641   6.275   4.278   0.633 -1.5559 -0.4099  0.3366
 4545TIP3    H213642   6.178   4.307   0.520  0.0980 -0.6016 -1.1877
 4546TIP3   OH213643   2.436   4.669   3.089  0.2075 -0.4240  0.1041
 4546TIP3    H113644   2.449   4.586   3.043  0.6700  0.1116 -0.7561
 4546TIP3    H213645   2.521   4.713   3.084 -0.4322  0.7828 -0.8661
 4547TIP3   OH213646   3.473   5.585   1.869  0.4261 -0.3464  0.3400
 4547TIP3    H113647   3.492   5.674   1.900  0.1163  0.0857 -0.6822
 4547TIP3    H213648   3.382   5.571   1.893 -0.4009  0.6986 -1.9230
 4548TIP3   OH213649   0.504   0.457   5.195  0.3981  0.1966 -0.0408
 4548TIP3    H113650   0.533   0.547   5.181 -0.6474  0.5165 -0.2414
 4548TIP3    H213651   0.424   0.450   5.143  1.3164 -1.3428 -1.3362
 4549TIP3   OH213652   2.337   0.279   2.251 -0.1405  0.1430  0.3614
 4549TIP3    H113653   2.325   0.365   2.211 -0.8873  0.4449  1.2063
 4549TIP3    H213654   2.367   0.297   2.340 -2.7634 -0.3283  1.4476
 4550TIP3   OH213655   2.550   1.401   3.658  0.1697 -0.1699 -0.1298
 4550TIP3    H113656   2.536   1.458   3.734 -0.2545  1.2406 -1.2019
 4550TIP3    H213657   2.466   1.401   3.612  0.2056 -1.5889 -0.2354
 4551TIP3   OH213658   2.845   4.953   5.175 -0.4414 -0.6638 -0.1165
 4551TIP3    H113659   2.907   5.004   5.123  0.3454  0.6787  2.0197
 4551TIP3    H213660   2.884   4.866   5.180 -0.2208 -0.6480 -1.1691
 4552TIP3   OH213661   4.553   0.837   2.925  0.3589 -0.3597 -0.4104
 4552TIP3    H113662   4.545   0.821   3.019 -0.1903 -1.0610 -0.5715
 4552TIP3    H213663   4.562   0.750   2.886 -0.5512 -0.1581 -1.1120
 4553TIP3   OH213664   1.062   5.884   3.711  0.3903 -0.0876  0.0053
 4553TIP3    H113665   1.011   5.861   3.788  0.5872 -2.1692 -0.4261
 4553TIP3    H213666   1.132   5.940   3.744 -1.0592  1.3358  0.8728
 4554TIP3   OH213667   5.707   4.110   3.730 -0.2384  0.0604 -0.3268
 4554TIP3    H113668   5.769   4.045   3.763 -1.1849 -0.2325  0.9868
 4554TIP3    H213669   5.661   4.141   3.809 -0.0928  2.0312 -0.9761
 4555TIP3   OH213670   0.364   3.952   4.721 -0.2926  0.5296 -0.0679
 4555TIP3    H113671   0.371   3.968   4.627  1.2981 -0.5751 -0.1979
 4555TIP3    H213672   0.403   4.029   4.762  0.2319  0.4393 -0.3822
 4556TIP3   OH213673   6.348   3.349   2.963  0.2989 -0.1877  0.0228
 4556TIP3    H113674   6.297   3.402   2.903  0.0674  0.4064  0.7300
 4556TIP3    H213675   6.284   3.290   3.003 -0.0190  1.0770  1.4820
 4557TIP3   OH213676   0.082   5.338   0.186 -0.2011  0.4121 -0.0013
 4557TIP3    H113677   0.016   5.383   0.133  0.1702  0.6506 -0.2602
 4557TIP3    H213678   0.115   5.405   0.245 -0.6665  0.1300  0.5932
 4558TIP3   OH213679   1.188   1.190   3.994 -0.3869 -0.1185 -0.0913
 4558TIP3    H113680   1.251   1.259   3.975 -1.3138  0.4007 -1.5319
 4558TIP3    H213681   1.103   1.235   3.996 -0.8947 -1.0478  0.0175
 4559TIP3   OH213682   3.135   4.047   1.227  0.4505 -0.2028 -0.0684
 4559TIP3    H113683   3.193   4.022   1.299  1.8161 -0.9987 -1.3754
 4559TIP3    H213684   3.047   4.032   1.261  0.9971  0.3673  1.7404
 4560TIP3   OH213685   3.661   1.890   2.516 -0.0664 -0.3664 -0.0164
 4560TIP3    H113686   3.567   1.892   2.500  0.1184  0.0291 -1.1697
 4560TIP3    H213687   3.700   1.884   2.429  1.0099  1.4690  0.2698
 4561TIP3   OH213688   4.372   4.314   2.648 -0.2434  0.2655  0.2907
 4561TIP3    H113689   4.333   4.374   2.711  0.5440 -0.6757  1.7339
 4561TIP3    H213690   4.464   4.340   2.645  0.2759 -1.2824  1.5070
 4562TIP3   OH213691   3.082   0.645   2.674 -0.2403 -0.2344  0.1402
 4562TIP3    H113692   3.012   0.697   2.637  0.5031  1.7314  1.3773
 4562TIP3    H213693   3.130   0.612   2.597 -0.6482  1.0260 -0.6892
 4563TIP3   OH213694   1.923   3.842   2.774 -0.2498 -1.3264  0.0260
 4563TIP3    H113695   1.978   3.773   2.812 -0.9831 -1.4209  0.9797
 4563TIP3    H213696   1.834   3.807   2.782 -0.5037 -0.9146 -0.9178
 4564TIP3   OH213697   0.125   1.149   2.658  0.5404  0.5377 -0.3862
 4564TIP3    H113698   0.108   1.216   2.591  0.7261  0.2505 -0.7256
 4564TIP3    H213699   0.216   1.162   2.682  0.9271 -0.3298 -1.3022
 4565TIP3   OH213700   3.831   5.349   3.968  0.2016 -0.1116 -0.2260
 4565TIP3    H113701   3.907   5.354   4.026 -0.4685  1.1206  0.6014
 4565TIP3    H213702   3.833   5.260   3.933  0.6484 -0.9178  1.6871
 4566TIP3   OH213703   0.749   5.827   3.448  0.1152  0.0855  0.1339
 4566TIP3    H113704   0.790   5.914   3.453  0.3129  0.1312 -1.6111
 4566TIP3    H213705   0.660   5.841   3.482  0.8348  0.4346  2.0128
 4567TIP3   OH213706   4.357   1.410   0.714 -0.3494  0.0756  0.2504
 4567TIP3    H113707   4.307   1.483   0.677 -0.1010  0.9278  1.5330
 4567TIP3    H213708   4.291   1.347   0.743 -0.6371  0.6162  0.7761
 4568TIP3   OH213709   4.560   0.888   4.640  0.1385  0.2599  0.3738
 4568TIP3    H113710   4.645   0.861   4.605 -0.0399  1.3077 -0.9180
 4568TIP3    H213711   4.580   0.917   4.729  1.3463  1.4402 -0.2384
 4569TIP3   OH213712   0.338   5.458   3.394 -0.0552 -0.5528 -0.4274
 4569TIP3    H113713   0.300   5.535   3.351 -1.5433  0.2381  2.0216
 4569TIP3    H213714   0.425   5.450   3.357  0.1809  2.3724 -0.7733
 4570TIP3   OH213715   0.605   4.299   0.979 -0.2996  0.5814 -0.0193
 4570TIP3    H113716   0.567   4.338   0.901 -2.1381 -0.4221  0.3034
 4570TIP3    H213717   0.530   4.278   1.034  0.7021 -1.6246  0.6376
 4571TIP3   OH213718   0.034   0.177   3.624 -0.3737 -0.5086 -0.2394
 4571TIP3    H113719   0.013   0.212   3.711  2.8539 -1.3889  1.0363
 4571TIP3    H213720   0.068   0.253   3.575  0.5475 -0.5473  0.3140
 4572TIP3   OH213721   1.315   0.174   0.703 -0.1274  0.5106  0.4280
 4572TIP3    H113722   1.236   0.199   0.656  0.2901  1.7372  0.3288
 4572TIP3    H213723   1.383   0.171   0.636 -0.4108 -2.5923  0.1237
 4573TIP3   OH213724   1.587   2.091   2.779  0.3982 -0.2544 -0.2132
 4573TIP3    H113725   1.533   2.017   2.752 -0.5912  0.3360  0.0839
 4573TIP3    H213726   1.525   2.153   2.818  1.3482  0.2702  0.5182
 4574TIP3   OH213727   6.014   5.564   0.524  0.3960  0.3930 -0.4891
 4574TIP3    H113728   6.074   5.575   0.597 -0.9323 -3.0641  1.3213
 4574TIP3    H213729   5.929   5.545   0.564 -0.2695 -2.2918 -2.8145
 4575TIP3   OH213730   6.044   4.741   3.564 -0.3816 -0.2785 -0.0891
 4575TIP3    H113731   6.139   4.738   3.550 -0.4500 -1.1493 -0.4015
 4575TIP3    H213732   6.034   4.779   3.651  0.2921 -0.9408  0.2909
 4576TIP3   OH213733   6.152   1.052   3.458 -0.2427  0.3277  0.1627
 4576TIP3    H113734   6.156   1.084   3.367  1.3842 -0.2964 -0.0258
 4576TIP3    H213735   6.093   0.978   3.454  2.3831 -1.8868 -1.2010
 4577TIP3   OH213736   1.612   4.167   3.720 -0.0219 -0.1812 -0.0488
 4577TIP3    H113737   1.537   4.212   3.682  0.4627 -0.1638 -1.0225
 4577TIP3    H213738   1.617   4.199   3.810 -3.0956 -2.5572  1.1328
 4578TIP3   OH213739   4.113   1.297   1.782  0.4376  0.1981  0.0676
 4578TIP3    H113740   4.099   1.238   1.708  0.1487 -1.4607  1.3818
 4578TIP3    H213741   4.066   1.376   1.758 -1.1577 -0.9391 -0.7684
 4579TIP3   OH213742   4.637   3.186   1.946  0.5494  0.1473  0.0451
 4579TIP3    H113743   4.576   3.199   2.020 -0.0142 -1.0311 -0.1982
 4579TIP3    H213744   4.581   3.156   1.874  1.3530 -0.4516 -0.3374
 4580TIP3   OH213745   0.808   0.514   4.197 -0.1315  0.2612 -0.8170
 4580TIP3    H113746   0.801   0.569   4.119  1.4043  0.9455 -0.5122
 4580TIP3    H213747   0.776   0.569   4.268 -0.0325  0.2056 -0.7304
 4581TIP3   OH213748   6.231   0.897   4.417 -0.2288 -0.3534 -0.0573
 4581TIP3    H113749   6.283   0.841   4.476  1.3710  0.3164 -0.7706
 4581TIP3    H213750   6.224   0.980   4.464 -0.9960 -0.5501  0.1911
 4582TIP3   OH213751   4.866   2.439   2.023  0.4334  0.5415  0.0225
 4582TIP3    H113752   4.902   2.375   1.962  3.0138  0.3592  1.5843
 4582TIP3    H213753   4.923   2.516   2.014  0.0018  1.0274  1.1822
 4583TIP3   OH213754   1.790   5.020   3.938 -0.3659 -0.6215 -0.1183
 4583TIP3    H113755   1.866   5.073   3.913  0.8342 -1.0483  2.3163
 4583TIP3    H213756   1.714   5.075   3.917  0.7197  0.8055 -0.4207
 4584TIP3   OH213757   3.308   5.756   3.398  0.1326 -0.2576 -0.2521
 4584TIP3    H113758   3.375   5.775   3.463  0.3594  1.2205 -0.8700
 4584TIP3    H213759   3.231   5.730   3.449  0.4930  0.2664  0.5806
 4585TIP3   OH213760   5.195   0.136   2.662 -0.3620 -0.2104 -0.0434
 4585TIP3    H113761   5.241   0.191   2.598 -1.2611  1.6783  0.8541
 4585TIP3    H213762   5.111   0.116   2.621 -0.7218  0.5535  0.2950
 4586TIP3   OH213763   5.446   1.309   4.357 -0.6947  0.3434  0.3174
 4586TIP3    H113764   5.404   1.226   4.382  0.0175 -0.2548 -0.3954
 4586TIP3    H213765   5.451   1.359   4.438  1.3603 -1.4364  1.3886
 4587TIP3   OH213766   1.837   3.120   3.537 -0.6427 -0.2252  0.6429
 4587TIP3    H113767   1.792   3.199   3.510 -0.8185 -0.5590 -0.0746
 4587TIP3    H213768   1.930   3.142   3.530 -0.6881 -0.1942  0.0791
 4588TIP3   OH213769   1.388   2.655   0.475 -0.2113  0.4510 -0.1408
 4588TIP3    H113770   1.377   2.744   0.506  0.6599  0.2966  0.6700
 4588TIP3    H213771   1.456   2.618   0.532 -0.8842 -0.8721 -0.1472
 4589TIP3   OH213772   0.197   2.225   4.499 -0.7621 -0.5720 -0.0763
 4589TIP3    H113773   0.158   2.309   4.476 -0.3456 -0.7115 -1.3804
 4589TIP3    H213774   0.282   2.247   4.536 -0.8034 -0.4133 -0.0756
 4590TIP3   OH213775   1.124   2.163   4.993  0.3908  0.6236  0.2548
 4590TIP3    H113776   1.064   2.209   5.051 -0.2676 -0.5145  0.4990
 4590TIP3    H213777   1.184   2.231   4.962 -0.2159  1.5342  1.0262
 4591TIP3   OH213778   3.982   3.309   2.897  0.0107  0.4566  0.6585
 4591TIP3    H113779   3.994   3.385   2.841  1.1752  0.7157  1.2306
 4591TIP3    H213780   3.908   3.262   2.858  0.8239  0.5777 -1.1318
 4592TIP3   OH213781   4.536   0.488   4.397 -0.2769  0.0126  0.1833
 4592TIP3    H113782   4.600   0.511   4.330 -0.9790  1.0556 -0.1479
 4592TIP3    H213783   4.583   0.427   4.454  0.2865 -1.0454 -1.3371
 4593TIP3   OH213784   3.348   3.720   2.370  0.3660  0.1032  0.4976
 4593TIP3    H113785   3.406   3.787   2.335  1.4182 -0.0264  1.9271
 4593TIP3    H213786   3.396   3.681   2.443 -1.3631 -0.2484  1.5224
 4594TIP3   OH213787   5.524   3.840   0.735 -0.1458  0.0524 -0.2369
 4594TIP3    H113788   5.487   3.927   0.724  0.2322  0.1654 -0.6599
 4594TIP3    H213789   5.490   3.810   0.819  0.9429  1.2139  0.6455
 4595TIP3   OH213790   6.078   4.562   0.311  0.0735  0.5366  0.4691
 4595TIP3    H113791   6.160   4.589   0.268  0.9309 -0.8055  1.1849
 4595TIP3    H213792   6.075   4.615   0.391 -0.2239  1.2306  0.0011
 4596TIP3   OH213793   5.434   5.884   1.351 -0.6401  0.3777  0.5389
 4596TIP3    H113794   5.440   5.946   1.424 -1.2327 -0.3409  1.2181
 4596TIP3    H213795   5.525   5.860   1.332 -0.5178 -0.2904  1.8166
 4597TIP3   OH213796   0.774   5.713   1.120  0.6008  0.5400 -0.0445
 4597TIP3    H113797   0.848   5.674   1.167 -0.4692  0.0584  1.3335
 4597TIP3    H213798   0.760   5.656   1.045 -1.3914 -2.3642  2.3078
 4598TIP3   OH213799   0.710   3.935   0.282 -0.1153  0.2408 -0.5531
 4598TIP3    H113800   0.805   3.926   0.291  0.2854  2.5449 -1.6565
 4598TIP3    H213801   0.683   3.857   0.234  1.0275 -0.9335  0.6072
 4599TIP3   OH213802   0.759   3.135   3.396  0.1769  0.1229 -0.7040
 4599TIP3    H113803   0.846   3.110   3.365  1.1384  0.3309  1.6287
 4599TIP3    H213804   0.702   3.063   3.367  0.8975  0.3983 -3.0163
 4600TIP3   OH213805   0.917   0.817   0.913  0.4807  0.0852  0.3489
 4600TIP3    H113806   0.854   0.825   0.985 -0.9634 -1.8331 -0.5809
 4600TIP3    H213807   0.866   0.837   0.834  1.5067  0.2068 -0.3103
 4601TIP3   OH213808   4.906   5.542   2.855  0.4357 -0.3476 -0.3096
 4601TIP3    H113809   4.938   5.631   2.841 -2.1272  0.7263  0.0935
 4601TIP3    H213810   4.978   5.486   2.826  2.3024  1.8220 -0.1707
 4602TIP3   OH213811   1.096   3.512   2.372 -0.0362  0.4882 -0.1458
 4602TIP3    H113812   1.037   3.561   2.431 -0.7951 -3.4441  2.7904
 4602TIP3    H213813   1.184   3.536   2.401 -0.3950 -0.0412  1.4906
 4603TIP3   OH213814   5.718   1.393   3.703 -0.4315 -0.0166  0.0837
 4603TIP3    H113815   5.778   1.454   3.746 -0.2861 -0.0862 -0.0194
 4603TIP3    H213816   5.631   1.418   3.735 -0.6076  1.5798 -1.5224
 4604TIP3   OH213817   5.384   0.027   4.703 -0.9389  0.1574  0.4172
 4604TIP3    H113818   5.391   0.107   4.650  1.9964 -1.0783 -1.2930
 4604TIP3    H213819   5.392  -0.044   4.640  1.5114 -1.4160  2.3201
 4605TIP3   OH213820   2.426   2.028   3.868 -0.4338  0.0446  0.0470
 4605TIP3    H113821   2.516   2.031   3.901 -1.0046  1.7410  1.6682
 4605TIP3    H213822   2.435   2.018   3.774  1.4479 -0.1212  0.2036
 4606TIP3   OH213823   0.245   0.175   1.058  0.0777  0.4029 -0.3467
 4606TIP3    H113824   0.272   0.252   1.107 -2.0424 -0.0088  1.6016
 4606TIP3    H213825   0.316   0.112   1.072  0.0026  0.6630  1.3949
 4607TIP3   OH213826   3.486   4.280   3.217 -0.8864  0.2856  0.5688
 4607TIP3    H113827   3.486   4.368   3.254 -0.4502  0.8783 -0.7577
 4607TIP3    H213828   3.579   4.259   3.204 -1.0234  0.4521 -0.8962
 4608TIP3   OH213829   0.051   0.481   3.470  0.6962 -0.1106 -0.4185
 4608TIP3    H113830   0.065   0.508   3.560 -1.5818 -0.3390  0.0822
 4608TIP3    H213831   0.074   0.558   3.418  2.2223 -0.0465  0.3087
 4609TIP3   OH213832   2.699   2.145   4.687  0.4748  0.3999 -0.0949
 4609TIP3    H113833   2.692   2.238   4.667  1.0819 -0.1342 -3.3026
 4609TIP3    H213834   2.780   2.117   4.644 -1.5078 -2.2538 -2.4364
 4610TIP3   OH213835   0.469   4.444   3.096  0.2560  0.0023 -0.5485
 4610TIP3    H113836   0.444   4.513   3.158 -1.3744 -0.9831 -0.0418
 4610TIP3    H213837   0.531   4.486   3.037  0.4242  1.4895  0.6254
 4611TIP3   OH213838   5.737   1.613   4.429  0.4660 -0.8765 -0.1550
 4611TIP3    H113839   5.777   1.541   4.478 -1.4695 -0.0909  2.8486
 4611TIP3    H213840   5.773   1.692   4.470  0.7180 -0.1331 -1.7617
 4612TIP3   OH213841   3.927   5.284   4.645  0.3279 -0.3780 -0.2248
 4612TIP3    H113842   4.020   5.303   4.636  0.2800  0.2738  0.4954
 4612TIP3    H213843   3.895   5.275   4.555  1.4161 -2.4216 -0.4786
 4613TIP3   OH213844   0.424   4.414   4.715 -0.6262  0.0371  0.2469
 4613TIP3    H113845   0.413   4.413   4.620 -1.7408  0.3615  0.3587
 4613TIP3    H213846   0.486   4.485   4.731  1.7175 -1.7255 -0.3984
 4614TIP3   OH213847   1.628   0.883   0.099 -0.0546 -0.8582  0.0922
 4614TIP3    H113848   1.710   0.853   0.059 -0.1145 -1.8297  0.6673
 4614TIP3    H213849   1.628   0.844   0.186 -1.0617 -0.7442  0.1563
 4615TIP3   OH213850   1.630   4.288   4.509  0.2106 -0.1371  0.8767
 4615TIP3    H113851   1.571   4.347   4.462 -2.3076 -0.1154  3.7599
 4615TIP3    H213852   1.622   4.204   4.463 -0.9177  0.2426  0.3494
 4616TIP3   OH213853   5.229   3.723   3.765  0.1697  0.3659 -0.2717
 4616TIP3    H113854   5.227   3.702   3.858  1.1527  1.2112 -0.0392
 4616TIP3    H213855   5.282   3.803   3.760  0.5732  0.0375 -1.6141
 4617TIP3   OH213856   4.221   5.132   0.301 -0.0654  0.3967  0.3039
 4617TIP3    H113857   4.162   5.057   0.306 -0.8348  1.0661  3.0903
 4617TIP3    H213858   4.168   5.203   0.266  0.2274  0.0683 -0.8516
 4618TIP3   OH213859   0.280   5.231   1.464 -0.0136 -0.2703 -0.4999
 4618TIP3    H113860   0.307   5.143   1.439 -1.1995 -0.4431 -1.2409
 4618TIP3    H213861   0.188   5.237   1.436 -0.2470  0.8559  0.4275
 4619TIP3   OH213862   3.082   4.187   3.069 -0.0228 -0.0897  0.3039
 4619TIP3    H113863   3.094   4.129   3.145  1.6988 -0.3389 -0.1333
 4619TIP3    H213864   3.034   4.133   3.006 -3.0878  0.6664  1.7857
 4620TIP3   OH213865   5.032   3.739   0.475 -0.2533 -0.4286 -0.1955
 4620TIP3    H113866   5.095   3.718   0.407 -0.7603 -2.1833 -0.1514
 4620TIP3    H213867   4.947   3.718   0.437 -0.5806 -0.9917  0.8024
 4621TIP3   OH213868   0.456   0.647   1.412  0.1474 -0.4473  0.0749
 4621TIP3    H113869   0.429   0.671   1.324 -0.4888 -1.2104  0.0463
 4621TIP3    H213870   0.551   0.659   1.413 -0.0330  1.3162 -0.1412
 4622TIP3   OH213871   4.281   2.069   1.925  0.0401  0.3684  0.2422
 4622TIP3    H113872   4.213   2.042   1.863 -0.1223 -0.4127  0.7512
 4622TIP3    H213873   4.282   2.000   1.992  1.4584  0.2563  0.1460
 4623TIP3   OH213874   0.958   3.812   3.269 -0.6355 -0.2367  0.0506
 4623TIP3    H113875   0.877   3.805   3.218  0.5037  0.2289 -1.9606
 4623TIP3    H213876   1.002   3.728   3.254 -0.0523  0.1051 -0.1995
 4624TIP3   OH213877   0.411   3.634   1.840  0.2004 -0.4416  0.5784
 4624TIP3    H113878   0.389   3.723   1.867 -0.8909 -0.3491 -0.5314
 4624TIP3    H213879   0.356   3.578   1.894 -0.6029 -0.3351 -0.1033
 4625TIP3   OH213880   1.505   2.752   1.306  0.3167  0.2690  0.6780
 4625TIP3    H113881   1.597   2.744   1.282  0.2743 -0.1472  0.6501
 4625TIP3    H213882   1.470   2.817   1.245 -0.3431 -2.3885 -2.0430
 4626TIP3   OH213883   4.782   0.879   2.749 -0.2892  0.2589  0.1003
 4626TIP3    H113884   4.688   0.890   2.766 -0.1541  0.0424  1.0575
 4626TIP3    H213885   4.789   0.876   2.654 -1.3357 -0.3722  0.0248
 4627TIP3   OH213886   0.696   0.725   0.438 -0.2683 -0.0889  0.2015
 4627TIP3    H113887   0.655   0.799   0.392  3.3156  0.6277 -2.2605
 4627TIP3    H213888   0.657   0.647   0.397 -0.2874  0.5272 -0.9939
 4628TIP3   OH213889   3.912   3.813   0.298  0.0094  0.4240 -0.0972
 4628TIP3    H113890   3.837   3.859   0.335 -2.3238 -1.9942 -1.3937
 4628TIP3    H213891   3.887   3.797   0.207  1.1460 -2.2375 -0.0448
 4629TIP3   OH213892   2.624   2.037   0.207 -0.4659 -0.3472  0.5673
 4629TIP3    H113893   2.715   2.041   0.238 -0.9007  0.3703  1.7954
 4629TIP3    H213894   2.631   1.998   0.120  0.9116 -1.3675  1.0831
 4630TIP3   OH213895   5.088   5.364   2.564 -0.2330 -0.3917  0.3981
 4630TIP3    H113896   5.075   5.310   2.486 -0.3403  0.5946 -0.2878
 4630TIP3    H213897   5.036   5.443   2.547 -0.0019 -0.0280  1.3336
 4631TIP3   OH213898   0.069   0.209   1.678  0.5315  0.1249  0.4162
 4631TIP3    H113899  -0.001   0.148   1.654  0.6232 -0.7093  2.1268
 4631TIP3    H213900   0.109   0.233   1.594 -1.3257  0.0675 -0.5380
 4632TIP3   OH213901   0.900   4.612   4.752  0.3049 -0.0717 -0.2072
 4632TIP3    H113902   0.899   4.538   4.812  1.2101  0.9526  1.1357
 4632TIP3    H213903   0.889   4.689   4.808 -0.1231  0.8580 -1.5006
 4633TIP3   OH213904   0.664   5.660   4.113  0.2305 -0.0147  0.1723
 4633TIP3    H113905   0.702   5.742   4.082  0.4839  0.8403  2.5614
 4633TIP3    H213906   0.592   5.686   4.170 -2.5965 -1.5712 -2.4121
 4634TIP3   OH213907   2.262   0.575   1.164  0.6350 -0.5734  0.7626
 4634TIP3    H113908   2.346   0.580   1.118 -0.4051 -0.8668 -1.2849
 4634TIP3    H213909   2.218   0.499   1.126 -1.0938  0.3639  0.7672
 4635TIP3   OH213910   2.094   0.588   0.879 -0.1906  0.6844 -0.1903
 4635TIP3    H113911   2.180   0.554   0.853 -0.2045  1.4028 -1.2795
 4635TIP3    H213912   2.046   0.511   0.909  1.1714  0.4308  1.4810
 4636TIP3   OH213913   0.538   5.868   3.640  0.2833 -0.5708 -0.3179
 4636TIP3    H113914   0.483   5.857   3.563  0.0683 -0.5661 -0.1661
 4636TIP3    H213915   0.479   5.900   3.708  0.8872  1.6393 -0.7404
 4637TIP3   OH213916   3.284   4.333   5.148  0.0899  0.5024  0.3697
 4637TIP3    H113917   3.358   4.281   5.117 -0.6092 -0.1889 -0.1747
 4637TIP3    H213918   3.207   4.277   5.134 -0.3384  0.3518  2.8719
 4638TIP3   OH213919   1.402   5.636   2.589 -0.4065  0.0743  0.3416
 4638TIP3    H113920   1.332   5.632   2.654  1.7445  1.1970  2.9106
 4638TIP3    H213921   1.369   5.696   2.522 -1.7481  0.9177  1.6817
 4639TIP3   OH213922   1.743   0.775   0.694 -0.3691 -0.6221 -1.0322
 4639TIP3    H113923   1.651   0.794   0.677 -0.1893  0.1990 -1.1268
 4639TIP3    H213924   1.742   0.712   0.767 -0.9670  0.7837  0.2158
 4640TIP3   OH213925   0.192   1.645   2.537  1.3703 -0.4407  0.5191
 4640TIP3    H113926   0.257   1.715   2.542  1.1812 -0.2657  0.5564
 4640TIP3    H213927   0.143   1.664   2.457  0.6001  0.1093  1.0983
 4641TIP3   OH213928   2.744   4.014   0.890 -0.0846  0.5848  0.3935
 4641TIP3    H113929   2.741   4.101   0.930 -1.7884  0.2121  1.1488
 4641TIP3    H213930   2.739   4.031   0.796  1.4001  1.3555  0.4215
 4642TIP3   OH213931   2.382   4.681   1.533 -0.1358  0.0295  0.0529
 4642TIP3    H113932   2.476   4.698   1.539  0.1171 -1.2707  0.0242
 4642TIP3    H213933   2.361   4.630   1.612 -0.5780 -0.6624 -0.4960
 4643TIP3   OH213934   2.770   0.561   3.360 -0.2245 -0.0558 -0.0033
 4643TIP3    H113935   2.857   0.535   3.392 -0.4143 -1.5332 -0.5657
 4643TIP3    H213936   2.761   0.515   3.277 -1.1082  0.9800 -0.5056
 4644TIP3   OH213937   2.389   0.316   2.520 -0.0371  0.4757 -0.3686
 4644TIP3    H113938   2.389   0.374   2.597  0.1832 -0.4131  0.3169
 4644TIP3    H213939   2.481   0.302   2.500 -0.0172 -1.1267  0.6479
 4645TIP3   OH213940   5.459   3.779   4.293  0.4233 -0.1222 -0.1856
 4645TIP3    H113941   5.371   3.794   4.328 -0.8371 -1.1948 -2.6926
 4645TIP3    H213942   5.486   3.695   4.330 -0.6604 -0.9725 -1.2565
 4646TIP3   OH213943   5.489   3.524   1.696 -0.3535 -0.2444 -0.1319
 4646TIP3    H113944   5.512   3.470   1.771 -0.6915 -2.2050 -1.3782
 4646TIP3    H213945   5.402   3.558   1.717 -0.7899 -1.4210  0.0522
 4647TIP3   OH213946   2.383   3.932   2.345  0.0505  0.5153  0.2073
 4647TIP3    H113947   2.444   3.862   2.322 -0.4932 -0.1607  0.8058
 4647TIP3    H213948   2.299   3.903   2.309  0.0107  1.3223 -0.3845
 4648TIP3   OH213949   6.301   4.962   5.023  0.8209  0.0684 -0.1783
 4648TIP3    H113950   6.233   4.975   5.090  1.1560  0.7266  0.0483
 4648TIP3    H213951   6.352   5.043   5.025  0.9843 -0.0028 -1.0744
 4649TIP3   OH213952   0.790   2.689   0.599 -0.2638  0.1526  0.1760
 4649TIP3    H113953   0.783   2.692   0.695  1.1237 -2.4062  0.4105
 4649TIP3    H213954   0.734   2.762   0.570 -1.2058  0.6368  2.8796
 4650TIP3   OH213955   2.681   0.237   3.711  0.3082  0.1456  0.4792
 4650TIP3    H113956   2.775   0.237   3.695  0.2423 -1.6497 -0.1739
 4650TIP3    H213957   2.667   0.308   3.773  1.9497  1.0563 -0.1350
 4651TIP3   OH213958   5.124   4.857   0.555  0.5103 -0.4684 -0.2133
 4651TIP3    H113959   5.068   4.933   0.539  2.5259  1.0255 -0.6172
 4651TIP3    H213960   5.113   4.801   0.478 -0.8748 -0.5326  0.0130
 4652TIP3   OH213961   4.780   1.017   4.450 -0.3941 -0.2099 -0.4066
 4652TIP3    H113962   4.795   1.088   4.388 -0.8356  0.7234  0.5230
 4652TIP3    H213963   4.732   1.058   4.522  2.3120 -0.6139  1.7964
 4653TIP3   OH213964   0.578   2.102   4.795 -0.5929 -0.7357  0.2751
 4653TIP3    H113965   0.535   2.026   4.833 -1.6726 -0.1164  0.3577
 4653TIP3    H213966   0.656   2.115   4.848 -1.2057 -0.8771  1.2399
 4654TIP3   OH213967   2.961   0.922   2.206 -0.4078  0.2131 -0.4725
 4654TIP3    H113968   2.989   0.984   2.274  0.0306 -1.6635  1.1274
 4654TIP3    H213969   2.869   0.906   2.225  0.1199 -1.6115  0.8274
 4655TIP3   OH213970  -0.008   4.621   3.092  0.3690 -0.1642 -0.2347
 4655TIP3    H113971   0.062   4.568   3.053 -0.1787  0.2615 -1.8738
 4655TIP3    H213972   0.007   4.709   3.057 -1.5894 -0.2807 -1.4944
 4656TIP3   OH213973   0.785   3.635   3.496 -0.0030  0.1900 -0.5138
 4656TIP3    H113974   0.755   3.556   3.541 -0.0680 -0.2432 -1.2922
 4656TIP3    H213975   0.876   3.616   3.472  0.2706  0.7141  0.0896
 4657TIP3   OH213976   1.865   4.773   3.863  0.1929  0.0548 -0.4560
 4657TIP3    H113977   1.813   4.848   3.892 -1.1799 -1.2692  0.6684
 4657TIP3    H213978   1.814   4.734   3.792 -0.1828 -1.0264  0.3842
 4658TIP3   OH213979   4.653   3.615   1.205  0.2439  0.4911  0.0504
 4658TIP3    H113980   4.713   3.579   1.271 -0.9679  2.2524  2.2775
 4658TIP3    H213981   4.576   3.558   1.211  0.8218 -0.4503 -1.2168
 4659TIP3   OH213982   5.574   0.257   3.241 -0.3983  0.3228 -0.3082
 4659TIP3    H113983   5.633   0.189   3.272  1.0976  1.5724 -0.3086
 4659TIP3    H213984   5.519   0.213   3.176  0.3475 -0.9342 -0.1213
 4660TIP3   OH213985   3.152   4.016   2.291 -0.2283  0.0985 -0.4027
 4660TIP3    H113986   3.239   3.977   2.282  0.9650  1.9222  1.8731
 4660TIP3    H213987   3.141   4.026   2.386 -1.9190  2.0629 -0.7468
 4661TIP3   OH213988   5.861   2.170   3.308 -0.6258 -0.1745  0.0038
 4661TIP3    H113989   5.935   2.112   3.293 -1.7279 -1.6167 -0.1339
 4661TIP3    H213990   5.803   2.120   3.367 -2.8121 -0.3263 -2.1117
 4662TIP3   OH213991   1.796   5.262   2.801 -0.1207 -0.6695  0.3377
 4662TIP3    H113992   1.724   5.266   2.864  0.4775 -2.0485  1.1771
 4662TIP3    H213993   1.766   5.314   2.727 -0.8825  0.9626  1.7119
 4663TIP3   OH213994   1.798   0.267   1.989 -0.0944 -0.5265 -0.6876
 4663TIP3    H113995   1.803   0.342   1.930 -1.8299 -0.5784 -0.9594
 4663TIP3    H213996   1.771   0.305   2.073  1.6893 -0.5387 -0.0734
 4664TIP3   OH213997   0.298   0.898   1.426  0.5072 -0.2174  0.1489
 4664TIP3    H113998   0.338   0.867   1.346  0.1331 -0.8902  0.2173
 4664TIP3    H213999   0.371   0.920   1.484  0.8216  1.7665 -0.9060
 4665TIP3   OH214000   4.599   5.430   3.167 -0.1982  0.3403  0.1038
 4665TIP3    H114001   4.662   5.440   3.238  0.2022  0.1376 -0.2193
 4665TIP3    H214002   4.521   5.476   3.198 -0.1401 -0.0217  0.8089
 4666TIP3   OH214003   0.464   4.860   2.172  0.7215  0.5712 -0.7131
 4666TIP3    H114004   0.532   4.927   2.170  2.1414 -0.7808 -0.0890
 4666TIP3    H214005   0.393   4.895   2.118  2.1178  1.8230 -1.8079
 4667TIP3   OH214006   5.653   0.253   4.622  0.4531 -0.4564 -0.3410
 4667TIP3    H114007   5.588   0.252   4.551  1.2404  3.4202 -1.3373
 4667TIP3    H214008   5.646   0.341   4.660  2.0428 -1.4462  2.5790
 4668TIP3   OH214009   1.775   4.977   2.011 -0.3329 -0.7859 -1.3612
 4668TIP3    H114010   1.795   4.987   1.919  1.1890  1.2327 -0.8697
 4668TIP3    H214011   1.830   5.041   2.056 -1.1752 -1.5397  0.9451
 4669TIP3   OH214012   2.105   5.536   1.704 -0.0222  1.0915  0.2696
 4669TIP3    H114013   2.141   5.516   1.790  0.7945 -1.1109 -0.5200
 4669TIP3    H214014   2.066   5.454   1.675 -1.4854  2.1492 -0.9272
 4670TIP3   OH214015   1.998   4.743   3.533  0.0546 -0.1668  0.2753
 4670TIP3    H114016   2.047   4.803   3.588  0.1861  0.3404 -0.3845
 4670TIP3    H214017   1.920   4.792   3.508 -0.0363 -0.4165  0.0657
 4671TIP3   OH214018   2.261   2.080   1.993 -0.2627  0.3774 -0.4374
 4671TIP3    H114019   2.265   2.017   2.065  0.4206 -1.1107 -1.7479
 4671TIP3    H214020   2.168   2.088   1.972 -0.4941  1.0023  0.7222
 4672TIP3   OH214021   3.130   5.626   4.085 -0.3096 -0.3667  0.0645
 4672TIP3    H114022   3.179   5.688   4.031 -0.9972 -0.1341 -0.3011
 4672TIP3    H214023   3.079   5.575   4.022  0.0794 -1.1599  0.3792
 4673TIP3   OH214024   5.836   4.915   1.714  0.0657 -0.3085 -0.8453
 4673TIP3    H114025   5.844   4.821   1.697 -0.6158 -0.7274  0.9974
 4673TIP3    H214026   5.907   4.935   1.774 -0.2581  0.1883 -0.6193
 4674TIP3   OH214027   1.591   4.475   0.076 -0.0845  0.4184  0.6344
 4674TIP3    H114028   1.685   4.487   0.091  0.3623 -0.5431 -1.2016
 4674TIP3    H214029   1.581   4.382   0.059 -0.6349  1.0633 -3.5056
 4675TIP3   OH214030   6.223   3.510   3.717 -0.2996  0.1987 -0.0178
 4675TIP3    H114031   6.151   3.477   3.771  0.1595  1.7906  1.6932
 4675TIP3    H214032   6.181   3.553   3.643 -0.9969 -1.0094 -0.3392
 4676TIP3   OH214033   3.476   4.880   3.304 -0.0055  0.2694 -0.1369
 4676TIP3    H114034   3.426   4.941   3.251  0.1439 -0.1669 -0.7891
 4676TIP3    H214035   3.422   4.866   3.382  0.9652  2.9647  1.1469
 4677TIP3   OH214036   1.074   0.939   2.907  0.2195 -0.3147 -0.0483
 4677TIP3    H114037   0.990   0.931   2.864 -2.3542 -1.4578  4.5409
 4677TIP3    H214038   1.096   1.032   2.901 -1.4224  0.0254 -1.2539
 4678TIP3   OH214039   4.523   5.159   1.589  0.0634 -0.4178 -0.2889
 4678TIP3    H114040   4.443   5.202   1.561 -0.3078 -0.5017  0.5864
 4678TIP3    H214041   4.557   5.116   1.511 -0.5542 -0.0850 -0.7434
 4679TIP3   OH214042   0.712   4.767   2.038  0.0041 -0.2356  0.6722
 4679TIP3    H114043   0.708   4.829   2.111 -1.8557  1.0278 -0.4427
 4679TIP3    H214044   0.631   4.716   2.044  0.4015 -0.9502  0.1878
 4680TIP3   OH214045   4.363   3.278   4.075  0.0103 -0.0943 -0.5829
 4680TIP3    H114046   4.331   3.191   4.098  0.8175  0.4017  3.0893
 4680TIP3    H214047   4.299   3.338   4.114  2.3923  0.8438  2.3223
 4681TIP3   OH214048   2.708   2.926   2.087 -0.5116 -0.0818  0.0318
 4681TIP3    H114049   2.788   2.875   2.076 -1.3880 -1.2324 -1.3479
 4681TIP3    H214050   2.637   2.863   2.076 -1.6305  1.1713 -0.3057
 4682TIP3   OH214051   0.749   2.102   1.496  0.5068 -0.2350 -0.7238
 4682TIP3    H114052   0.755   2.010   1.469 -0.6878 -0.4975 -0.1335
 4682TIP3    H214053   0.656   2.123   1.490  0.5670  0.4984  0.5548
 4683TIP3   OH214054   0.682   5.451   3.003 -0.0551  0.0232 -1.0111
 4683TIP3    H114055   0.626   5.410   2.937  0.8484 -0.6920 -1.3597
 4683TIP3    H214056   0.764   5.401   2.999 -0.6507 -1.4567  2.0734
 4684TIP3   OH214057   4.363   0.019   2.656 -0.2827  0.4024 -0.2823
 4684TIP3    H114058   4.429   0.014   2.586  0.4681  0.0868  0.4329
 4684TIP3    H214059   4.279   0.005   2.611 -0.1376  3.0876 -1.5775
 4685TIP3   OH214060   4.724   2.195   3.499 -0.4832 -0.3019 -0.2083
 4685TIP3    H114061   4.744   2.179   3.407  2.4943 -0.0358  0.2927
 4685TIP3    H214062   4.771   2.126   3.546 -1.8011 -0.3262  1.1544
 4686TIP3   OH214063   4.084   0.253   3.078  0.4679 -0.0100 -0.7236
 4686TIP3    H114064   4.115   0.262   3.168  1.8084 -0.8570 -1.0782
 4686TIP3    H214065   4.137   0.314   3.028 -0.5017  0.7034 -0.9249
 4687TIP3   OH214066   0.608   3.335   2.120  0.4536  0.1747 -0.0174
 4687TIP3    H114067   0.579   3.343   2.030  0.6842 -0.0618 -0.1137
 4687TIP3    H214068   0.687   3.281   2.116  0.2065 -0.2247  0.3762
 4688TIP3   OH214069   0.272   3.531   3.581  0.0637  0.1142  0.5748
 4688TIP3    H114070   0.347   3.554   3.636  0.8005  1.0828 -0.7924
 4688TIP3    H214071   0.299   3.555   3.492 -1.3750 -0.7403 -0.1219
 4689TIP3   OH214072   4.972   5.443   4.699  0.6216 -0.4972 -0.0473
 4689TIP3    H114073   4.934   5.529   4.716 -2.5048 -1.4302 -1.5370
 4689TIP3    H214074   5.002   5.448   4.609 -1.1922 -1.3904 -0.7538
 4690TIP3   OH214075   1.333   2.253   4.033 -0.2527 -0.3544 -0.0504
 4690TIP3    H114076   1.333   2.274   4.126  0.1061 -0.0904 -0.1083
 4690TIP3    H214077   1.341   2.158   4.030  2.6787 -0.2020  0.1732
 4691TIP3   OH214078   1.597   5.909   2.089 -0.3699 -0.1095 -0.0546
 4691TIP3    H114079   1.515   5.913   2.040  1.3029  2.2477 -2.9559
 4691TIP3    H214080   1.594   5.985   2.147  0.0199  0.3567 -0.6399
 4692TIP3   OH214081   1.290   3.292   0.601 -0.2783 -0.1984 -0.0466
 4692TIP3    H114082   1.298   3.200   0.573  0.5558 -0.1086 -0.1339
 4692TIP3    H214083   1.209   3.294   0.652 -0.9485 -0.7231 -1.0598
 4693TIP3   OH214084   3.564   1.119   4.163  0.1261 -0.2179  0.3251
 4693TIP3    H114085   3.487   1.173   4.181  0.6400  0.0941  1.6732
 4693TIP3    H214086   3.638   1.173   4.190  0.7920 -0.7283 -0.4420
 4694TIP3   OH214087   3.638   1.237   0.325  0.5922  0.5234  0.0048
 4694TIP3    H114088   3.603   1.284   0.401  0.8611  0.4654  0.1667
 4694TIP3    H214089   3.663   1.306   0.263  0.1017  0.5615 -0.1532
 4695TIP3   OH214090   1.436   0.944   4.523 -0.6844  0.1473 -0.1185
 4695TIP3    H114091   1.440   0.874   4.587  0.0111  1.9431  1.9010
 4695TIP3    H214092   1.345   0.974   4.526 -0.6260  0.3009  0.1046
 4696TIP3   OH214093   0.970   2.705   4.597  0.3819  0.0245 -0.2926
 4696TIP3    H114094   0.943   2.637   4.659 -0.2143  0.2897 -0.2560
 4696TIP3    H214095   1.022   2.767   4.649  0.1153  0.1024 -0.1201
 4697TIP3   OH214096   1.875   4.634   0.907  0.0662  0.3240 -0.1373
 4697TIP3    H114097   1.830   4.597   0.983 -1.2755  1.9451 -0.0833
 4697TIP3    H214098   1.812   4.627   0.836  1.3457 -1.2631 -1.1861
 4698TIP3   OH214099   4.292   0.777   4.293 -0.4699  0.3118  0.9966
 4698TIP3    H114100   4.306   0.778   4.387 -0.8737  1.1039  1.0563
 4698TIP3    H214101   4.380   0.783   4.256 -0.1661 -1.7893  1.2889
 4699TIP3   OH214102   1.874   2.167   3.687 -0.3735  0.4453 -0.3528
 4699TIP3    H114103   1.849   2.201   3.773 -1.7024 -3.0209  0.8182
 4699TIP3    H214104   1.799   2.185   3.631  0.3603  2.4112 -0.7807
 4700TIP3   OH214105   1.537   3.386   0.636  0.3766 -0.0110  0.5068
 4700TIP3    H114106   1.593   3.309   0.650  1.8235  0.8129 -0.5187
 4700TIP3    H214107   1.448   3.351   0.639  0.9936 -1.7515 -0.0217
 4701TIP3   OH214108   2.176   1.870   0.011 -0.4256  0.0735 -0.2664
 4701TIP3    H114109   2.192   1.813   0.086 -2.2825 -0.6586 -0.3633
 4701TIP3    H214110   2.256   1.921   0.002  1.1053 -2.1157  0.1666
 4702TIP3   OH214111   2.651   0.125   1.232 -0.4403 -0.0536  0.7613
 4702TIP3    H114112   2.561   0.145   1.207  0.3124 -0.4234 -2.8938
 4702TIP3    H214113   2.705   0.184   1.179  1.5001 -2.1963  0.1524
 4703TIP3   OH214114   5.266   3.288   4.460  0.2520  0.3101 -0.1846
 4703TIP3    H114115   5.276   3.198   4.492  2.0769  0.7811  0.6856
 4703TIP3    H214116   5.207   3.329   4.524 -0.5444 -0.2260 -0.5521
 4704TIP3   OH214117   5.620   2.884   4.627 -0.8768  0.1348 -0.2672
 4704TIP3    H114118   5.680   2.958   4.632  0.8460 -1.2705  0.9827
 4704TIP3    H214119   5.594   2.868   4.717 -0.9652 -0.9655 -0.4723
 4705TIP3   OH214120   2.022   0.335   3.045  0.1103  0.0500 -0.1602
 4705TIP3    H114121   1.958   0.319   2.976  0.4119 -0.7498 -0.2620
 4705TIP3    H214122   2.041   0.429   3.039 -0.9709  0.2748 -0.1927
 4706TIP3   OH214123   2.605   2.757   2.975  0.0202 -0.2057  0.1321
 4706TIP3    H114124   2.687   2.800   3.000 -0.8062  0.4103  1.9868
 4706TIP3    H214125   2.615   2.667   3.007 -0.4229  0.1695  1.4065
 4707TIP3   OH214126   2.275   0.395   3.936  0.0201  0.2066  0.2437
 4707TIP3    H114127   2.212   0.440   3.993 -1.5472 -1.4760 -0.0976
 4707TIP3    H214128   2.281   0.451   3.858 -1.9778 -0.1541 -0.2227
 4708TIP3   OH214129   0.451   0.032   4.516 -0.4963  0.4670  0.5214
 4708TIP3    H114130   0.432  -0.004   4.430 -0.3816 -2.1593  1.4956
 4708TIP3    H214131   0.373   0.082   4.539 -0.5717  1.0985 -1.0332
 4709TIP3   OH214132   1.635   0.050   3.954  0.1844 -0.2967  0.4723
 4709TIP3    H114133   1.691  -0.022   3.984  2.4581  0.5695 -1.3584
 4709TIP3    H214134   1.645   0.118   4.020  1.0832 -0.2821  0.3317
 4710TIP3   OH214135   3.293   3.150   4.108 -0.2197 -0.3653  0.0771
 4710TIP3    H114136   3.217   3.179   4.159 -0.5266  1.5292 -1.3267
 4710TIP3    H214137   3.368   3.187   4.154 -0.5619  2.2744 -1.2921
 4711TIP3   OH214138   6.164   4.489   2.395 -0.1570  0.4144 -0.8636
 4711TIP3    H114139   6.172   4.564   2.455 -0.7129  0.8736 -1.3510
 4711TIP3    H214140   6.141   4.528   2.311 -3.5696 -0.4434 -0.4962
 4712TIP3   OH214141   1.837   1.979   3.144  0.7265  0.2449 -0.0461
 4712TIP3    H114142   1.853   2.001   3.236 -0.0573  0.4549  0.0405
 4712TIP3    H214143   1.825   1.884   3.144 -1.4727  0.4782  0.4133
 4713TIP3   OH214144   5.862   0.885   0.446 -0.1469 -0.2908  0.6855
 4713TIP3    H114145   5.891   0.976   0.437 -1.7276  0.2896  1.0289
 4713TIP3    H214146   5.869   0.849   0.358  0.7841  0.0591  0.6016
 4714TIP3   OH214147   1.772   3.461   4.710  0.7000 -0.2197  0.0553
 4714TIP3    H114148   1.764   3.368   4.728 -3.2709  0.1193  0.9916
 4714TIP3    H214149   1.800   3.466   4.619  1.6218 -2.2743  0.1851
 4715TIP3   OH214150   3.548   2.924   3.652  0.3608 -0.4865  0.1246
 4715TIP3    H114151   3.513   2.856   3.595  1.5236 -0.6481 -0.4169
 4715TIP3    H214152   3.627   2.887   3.689  0.3583  0.1347  0.7741
 4716TIP3   OH214153   3.494   0.393   1.874  0.4120 -0.3941  0.1320
 4716TIP3    H114154   3.567   0.451   1.897 -0.7843  1.0260  0.4583
 4716TIP3    H214155   3.432   0.449   1.827 -0.8325 -1.3865  0.5430
 4717TIP3   OH214156   2.146   4.792   2.223 -0.1264  0.0687 -0.2432
 4717TIP3    H114157   2.186   4.836   2.148  1.6094 -2.3653 -0.8826
 4717TIP3    H214158   2.116   4.708   2.187  0.5863 -1.0819  1.7138
 4718TIP3   OH214159   4.746   5.337   1.641  0.0543  0.6780  0.4026
 4718TIP3    H114160   4.669   5.284   1.617  1.4852 -0.8107 -1.1197
 4718TIP3    H214161   4.741   5.343   1.737 -1.9308  0.5974  0.3476
 4719TIP3   OH214162   1.265   4.207   1.513  0.4169 -0.3802  0.6930
 4719TIP3    H114163   1.242   4.152   1.438 -0.7317  1.0808 -0.0654
 4719TIP3    H214164   1.252   4.150   1.589  1.1901 -1.7509 -0.1583
 4720TIP3   OH214165   4.592   1.415   4.471  0.1803 -0.3124 -0.2143
 4720TIP3    H114166   4.514   1.468   4.482  1.3418  1.4145  0.0226
 4720TIP3    H214167   4.577   1.368   4.389 -0.6488  0.8176 -0.7395
 4721TIP3   OH214168   5.594   2.754   2.645 -0.0966 -0.3330  0.1648
 4721TIP3    H114169   5.545   2.745   2.727 -1.6433  0.6929 -0.5924
 4721TIP3    H214170   5.632   2.842   2.650 -0.8302  0.0303 -0.5257
 4722TIP3   OH214171   4.300   3.880   2.142 -0.1374 -0.1974 -0.1010
 4722TIP3    H114172   4.273   3.908   2.055 -0.0986  0.1666  0.0011
 4722TIP3    H214173   4.230   3.913   2.200  1.1947  2.0445  0.3552
 4723TIP3   OH214174   0.556   4.772   1.584  0.1122  0.0137  0.1436
 4723TIP3    H114175   0.595   4.798   1.501  0.1666 -0.5062  0.0048
 4723TIP3    H214176   0.471   4.736   1.561 -0.0386  0.2324  0.3533
 4724TIP3   OH214177   2.985   4.811   2.729  0.3625  0.5181  0.1062
 4724TIP3    H114178   2.991   4.876   2.659  2.1004 -0.2472 -0.5078
 4724TIP3    H214179   3.022   4.731   2.691 -0.5639 -0.4867  1.2489
 4725TIP3   OH214180   5.426   2.126   1.023 -0.3299  0.2999 -0.2526
 4725TIP3    H114181   5.486   2.083   0.962 -1.3780 -1.5280 -0.0497
 4725TIP3    H214182   5.479   2.142   1.101  0.0151 -0.9570 -0.2064
 4726TIP3   OH214183   5.746   4.780   3.716 -0.1405 -0.0556 -0.3871
 4726TIP3    H114184   5.795   4.726   3.778 -0.5092  0.9964  0.8810
 4726TIP3    H214185   5.686   4.719   3.673 -0.5136 -0.7013  0.9703
 4727TIP3   OH214186   2.563   4.455   4.057 -0.0349  0.6255 -0.0116
 4727TIP3    H114187   2.612   4.423   4.133  0.8567  1.3633 -0.2565
 4727TIP3    H214188   2.510   4.527   4.092  0.4007  0.9867 -0.0934
 4728TIP3   OH214189   4.351   2.962   2.954  0.4463  0.7298 -0.1691
 4728TIP3    H114190   4.414   2.900   2.918  0.1791 -1.2619  2.4499
 4728TIP3    H214191   4.269   2.944   2.908  0.6852  0.0235 -0.3209
 4729TIP3   OH214192   2.330   1.479   3.989  0.1446 -0.1945  0.2185
 4729TIP3    H114193   2.316   1.453   4.080 -1.5327  1.8028  0.6073
 4729TIP3    H214194   2.252   1.448   3.942 -1.3648  2.8099  0.4868
 4730TIP3   OH214195   1.412   4.278   2.897 -0.0963  0.3113 -0.4145
 4730TIP3    H114196   1.504   4.282   2.922 -0.1451 -0.1064 -0.1665
 4730TIP3    H214197   1.414   4.258   2.803  0.0844  1.9077 -0.7958
 4731TIP3   OH214198   5.968   1.700   2.029  0.1077  0.5261 -0.0163
 4731TIP3    H114199   5.911   1.630   1.998 -0.0218  1.3108 -1.6862
 4731TIP3    H214200   5.974   1.687   2.123  0.4725 -1.9905 -0.3220
 4732TIP3   OH214201   2.170   3.581   3.941  0.4443  0.1934  0.4075
 4732TIP3    H114202   2.181   3.486   3.944 -0.8854 -0.1083 -1.8417
 4732TIP3    H214203   2.110   3.600   4.014  0.3821 -0.7544  0.6153
 4733TIP3   OH214204   1.965   0.707   0.216  0.2314 -0.1071  0.0726
 4733TIP3    H114205   2.040   0.648   0.214  0.8171  0.6313 -1.6366
 4733TIP3    H214206   1.968   0.747   0.303  3.3834  1.7908 -0.7580
 4734TIP3   OH214207   3.065   5.480   0.513 -0.0691  1.3694 -0.0507
 4734TIP3    H114208   3.046   5.572   0.535  2.5701  1.8650  0.5486
 4734TIP3    H214209   3.128   5.485   0.442  0.1848  0.0194  0.0538
 4735TIP3   OH214210   5.742   2.705   1.993  0.1364 -0.6173 -0.3955
 4735TIP3    H114211   5.722   2.797   1.974  1.3400  0.3866  2.6485
 4735TIP3    H214212   5.837   2.700   1.989  0.1592 -1.3949  0.7106
 4736TIP3   OH214213   4.852   3.081   1.816 -0.6766  0.0184  0.0323
 4736TIP3    H114214   4.927   3.133   1.843 -0.6864  0.8311 -1.4086
 4736TIP3    H214215   4.781   3.108   1.875 -0.1815  0.1855  0.5579
 4737TIP3   OH214216   0.324   2.889   2.566 -0.0163  0.7366  0.5826
 4737TIP3    H114217   0.288   2.802   2.549  0.8715  0.5337 -0.3564
 4737TIP3    H214218   0.322   2.933   2.481  3.1322  0.2332  0.1417
 4738TIP3   OH214219   3.443   1.749   4.072 -0.0119  0.1520 -0.2114
 4738TIP3    H114220   3.487   1.819   4.024 -2.3353  2.0043  0.1952
 4738TIP3    H214221   3.367   1.791   4.112 -0.5469 -2.2576  1.5232
 4739TIP3   OH214222   5.051   5.518   0.103  0.5050 -0.2656  0.5612
 4739TIP3    H114223   5.014   5.456   0.040 -0.0929 -1.9816  2.5037
 4739TIP3    H214224   5.136   5.542   0.065  1.2076 -3.0223  0.1122
 4740TIP3   OH214225   3.691   4.540   2.241 -0.3836  0.4787 -0.0819
 4740TIP3    H114226   3.756   4.491   2.190  0.1214  1.4857 -0.4420
 4740TIP3    H214227   3.741   4.581   2.311 -0.6830  0.9543 -0.1375
 4741TIP3   OH214228   4.479   3.607   5.159 -0.5697 -0.7510  0.5153
 4741TIP3    H114229   4.401   3.591   5.212  0.2433 -1.4857  1.5074
 4741TIP3    H214230   4.523   3.522   5.155 -0.7163 -0.7815 -1.5332
 4742TIP3   OH214231   4.680   2.153   2.166  0.0128  0.1099  0.1000
 4742TIP3    H114232   4.701   2.236   2.207  0.3038  1.4081 -2.4725
 4742TIP3    H214233   4.596   2.128   2.205 -1.0907  2.6476 -0.4603
 4743TIP3   OH214234   1.547   1.438   4.128 -0.1742  0.1994 -0.0066
 4743TIP3    H114235   1.583   1.510   4.180 -0.1367  0.2053 -0.0404
 4743TIP3    H214236   1.470   1.410   4.176 -0.8949  1.0729 -0.6173
 4744TIP3   OH214237   0.460   4.305   4.336  0.4565 -0.1582  0.1070
 4744TIP3    H114238   0.406   4.384   4.346  0.5352  0.2227 -2.0541
 4744TIP3    H214239   0.484   4.304   4.244  2.6083 -1.3343  0.6088
 4745TIP3   OH214240   5.934   1.706   4.055  0.6951  0.2355 -0.0743
 4745TIP3    H114241   5.839   1.718   4.062  0.7325  0.5806 -0.1519
 4745TIP3    H214242   5.949   1.685   3.963  0.5971 -0.7317  0.1196
 4746TIP3   OH214243   5.782   2.360   0.909 -0.2618 -0.7599 -0.2767
 4746TIP3    H114244   5.849   2.354   0.977 -0.9872 -0.4066  0.4851
 4746TIP3    H214245   5.812   2.432   0.853 -0.5025  0.0638  0.6317
 4747TIP3   OH214246   3.597   4.668   2.664 -0.1671 -0.3390 -0.4076
 4747TIP3    H114247   3.607   4.620   2.581 -2.5859  1.0377 -1.6021
 4747TIP3    H214248   3.557   4.605   2.724  0.4276 -0.9650 -0.6444
 4748TIP3   OH214249   3.116   3.101   1.481 -0.4392  0.2557 -0.2440
 4748TIP3    H114250   3.171   3.081   1.404 -0.1642 -2.2967  0.5409
 4748TIP3    H214251   3.178   3.134   1.546 -0.2837  0.0375 -0.2808
 4749TIP3   OH214252   5.942   5.781   0.347  0.0977 -0.4497  0.0342
 4749TIP3    H114253   5.877   5.821   0.405  0.5582 -0.4850  0.5748
 4749TIP3    H214254   5.989   5.719   0.402  0.5897 -0.4283 -0.3555
 4750TIP3   OH214255   5.059   3.986   5.037 -0.4452 -0.6036  0.7135
 4750TIP3    H114256   4.990   4.036   4.994 -1.5173 -1.7995  0.9769
 4750TIP3    H214257   5.055   4.013   5.129  1.7621  1.8579  0.1968
 4751TIP3   OH214258   5.682   3.283   1.490  0.6343 -0.2660 -0.8369
 4751TIP3    H114259   5.640   3.293   1.404 -0.1369  0.2821 -0.4102
 4751TIP3    H214260   5.615   3.240   1.544  1.6654 -2.0677 -0.9113
 4752TIP3   OH214261   2.282   5.573   2.266 -0.5090 -0.3733 -0.1007
 4752TIP3    H114262   2.315   5.571   2.356  0.6899  1.6678 -0.4298
 4752TIP3    H214263   2.202   5.625   2.271 -0.6539 -0.5894 -0.1587
 4753TIP3   OH214264   3.313   0.322   4.299 -0.1628  0.0870 -0.6170
 4753TIP3    H114265   3.321   0.265   4.375  1.1059  2.0712  0.8335
 4753TIP3    H214266   3.383   0.386   4.309 -0.9958  1.4288 -2.5898
 4754TIP3   OH214267   3.523   1.491   2.379 -0.0332 -0.2560  0.2548
 4754TIP3    H114268   3.486   1.542   2.308 -1.8284 -0.3203  1.0792
 4754TIP3    H214269   3.502   1.400   2.358 -1.4975 -0.2008  1.3159
 4755TIP3   OH214270   2.647   3.335   3.757 -0.1328 -0.3066 -0.1176
 4755TIP3    H114271   2.659   3.241   3.771 -2.3731 -0.4323  1.5386
 4755TIP3    H214272   2.612   3.341   3.668  0.6048 -0.9603 -0.4653
 4756TIP3   OH214273   3.280   2.587   4.336  0.1325  0.2264  0.2096
 4756TIP3    H114274   3.349   2.638   4.295  1.3316 -1.0314  0.5602
 4756TIP3    H214275   3.305   2.582   4.429 -0.8975  0.4764  0.5166
 4757TIP3   OH214276   4.653   1.897   3.127 -0.2651  0.4421 -0.2538
 4757TIP3    H114277   4.725   1.835   3.139 -0.3470  0.4729  0.4733
 4757TIP3    H214278   4.692   1.970   3.079 -0.0801 -0.0097 -0.7994
 4758TIP3   OH214279   2.387   4.425   0.620  0.3071 -0.3662  0.1159
 4758TIP3    H114280   2.314   4.457   0.673 -0.5543 -1.9824 -0.0221
 4758TIP3    H214281   2.450   4.391   0.683 -0.9659 -2.8076  0.1906
 4759TIP3   OH214282   5.461   4.007   5.151 -0.5099 -0.1918 -0.0592
 4759TIP3    H114283   5.457   4.057   5.233 -0.0553 -0.3675  0.0743
 4759TIP3    H214284   5.518   3.933   5.171  1.9219  1.2101 -1.2922
 4760TIP3   OH214285   3.352   3.811   2.719 -0.2992 -0.1175  0.4051
 4760TIP3    H114286   3.379   3.721   2.737  0.9989 -0.1145 -1.3218
 4760TIP3    H214287   3.343   3.815   2.624 -3.3739  0.7876  0.6104
 4761TIP3   OH214288   3.496   4.486   2.470  0.2289 -0.4501 -0.2473
 4761TIP3    H114289   3.501   4.397   2.436  0.7782 -0.9500  1.0625
 4761TIP3    H214290   3.404   4.510   2.461  0.4874 -0.1407 -2.9432
 4762TIP3   OH214291   0.296   1.979   0.080 -0.3106 -0.2971 -0.1746
 4762TIP3    H114292   0.273   1.954  -0.010  0.2787 -0.6088 -0.2490
 4762TIP3    H214293   0.258   1.910   0.134 -1.0657  0.1376 -0.1380
 4763TIP3   OH214294   3.624   4.904   0.355 -0.1786  0.1085 -0.0681
 4763TIP3    H114295   3.608   4.810   0.354  0.0588  0.0258  1.4983
 4763TIP3    H214296   3.586   4.934   0.437  1.8165  0.9658  0.6048
 4764TIP3   OH214297   4.899   5.705   3.853 -0.2408  0.0227 -0.5201
 4764TIP3    H114298   4.828   5.644   3.832 -0.7143  0.9115 -1.6459
 4764TIP3    H214299   4.979   5.659   3.826 -0.6574  0.1826 -2.1517
 4765TIP3   OH214300   1.894   1.098   1.828  0.2650 -0.0818  0.3145
 4765TIP3    H114301   1.837   1.166   1.863  1.2308  0.9466 -0.0459
 4765TIP3    H214302   1.839   1.020   1.824 -0.6981  0.5211  1.3070
 4766TIP3   OH214303   0.945   2.379   2.329 -0.2419  0.0554 -0.1120
 4766TIP3    H114304   1.040   2.390   2.322  0.0296 -2.6771 -2.2175
 4766TIP3    H214305   0.933   2.315   2.398 -0.6325  0.8184  0.5446
 4767TIP3   OH214306   0.375   1.256   1.686 -0.5355  0.2629 -0.1291
 4767TIP3    H114307   0.385   1.163   1.706 -0.4922  0.6725  1.9639
 4767TIP3    H214308   0.297   1.283   1.735  1.4451  2.0601  2.2573
 4768TIP3   OH214309   4.439   4.100   2.259  0.1142  0.2317  0.2557
 4768TIP3    H114310   4.419   4.017   2.216  1.2718  0.7144 -1.3033
 4768TIP3    H214311   4.396   4.095   2.344 -0.3231 -1.7162 -0.0563
 4769TIP3   OH214312   3.403   0.309   2.176 -1.0188 -0.9876  0.0571
 4769TIP3    H114313   3.447   0.305   2.092 -1.3544 -2.6042 -0.0718
 4769TIP3    H214314   3.331   0.371   2.163  0.8614  1.3764  0.1626
 4770TIP3   OH214315   4.734   2.964   0.532  0.1777 -0.0591  0.6262
 4770TIP3    H114316   4.821   2.973   0.493 -0.2148 -0.1898 -0.3015
 4770TIP3    H214317   4.710   3.053   0.557  0.3512  0.0543  0.3919
 4771TIP3   OH214318   2.392   5.576   3.978 -0.2926 -0.3693 -0.0619
 4771TIP3    H114319   2.352   5.597   3.893 -2.0550 -0.9227  0.6031
 4771TIP3    H214320   2.468   5.522   3.955 -0.4176 -0.0621 -1.3029
 4772TIP3   OH214321   6.273   4.230   2.396  0.0769 -0.4621 -0.4385
 4772TIP3    H114322   6.250   4.322   2.403  0.2787 -0.4128 -0.3960
 4772TIP3    H214323   6.286   4.201   2.487 -1.2670 -0.8745 -0.3565
 4773TIP3   OH214324   1.164   3.848   2.514 -0.3948 -0.0871 -0.5823
 4773TIP3    H114325   1.235   3.806   2.466 -1.0849 -0.1742 -1.5407
 4773TIP3    H214326   1.208   3.891   2.588  0.5882 -0.5732 -0.8632
 4774TIP3   OH214327   5.132   1.066   3.968  0.1785  0.4830  0.2598
 4774TIP3    H114328   5.086   1.148   3.948 -0.0115 -0.1054 -2.0198
 4774TIP3    H214329   5.223   1.092   3.980  0.2782  0.9921 -1.3082
 4775TIP3   OH214330   5.989   4.315   4.698 -0.6349 -0.0124  0.6322
 4775TIP3    H114331   5.976   4.234   4.747 -1.4159  1.3384  2.7949
 4775TIP3    H214332   5.906   4.362   4.705 -0.4947  0.6365 -1.3363
 4776TIP3   OH214333   2.589   2.726   4.293  0.1975 -0.1905  0.1049
 4776TIP3    H114334   2.590   2.631   4.280 -0.1699 -0.0312 -1.2045
 4776TIP3    H214335   2.614   2.738   4.384 -1.2389 -1.6215  0.7359
 4777TIP3   OH214336   2.735   3.681   2.732  0.8319 -0.3283  0.1149
 4777TIP3    H114337   2.770   3.602   2.691  1.0006 -0.2191  0.0472
 4777TIP3    H214338   2.652   3.696   2.688  1.7359  0.6969 -1.3311
 4778TIP3   OH214339   4.978   2.520   3.529 -0.6208 -0.1304  0.1043
 4778TIP3    H114340   5.062   2.480   3.553 -1.3591 -1.7227  0.2125
 4778TIP3    H214341   5.001   2.598   3.479  0.9170 -0.4339  0.2984
 4779TIP3   OH214342   5.424   2.472   4.203  0.5480 -0.4253  0.0584
 4779TIP3    H114343   5.474   2.554   4.209  2.3654 -1.1549 -2.8708
 4779TIP3    H214344   5.458   2.418   4.273  0.2889  0.8268  1.1832
 4780TIP3   OH214345   1.019   4.874   3.710  0.2487  0.5742  0.0208
 4780TIP3    H114346   1.009   4.845   3.801 -0.2504  1.2783  0.2034
 4780TIP3    H214347   1.006   4.969   3.714 -1.7459  0.3877 -1.0658
 4781TIP3   OH214348   3.669   4.616   3.634  0.2599  0.5786 -0.2687
 4781TIP3    H114349   3.592   4.577   3.593 -0.1138  0.5338  0.4575
 4781TIP3    H214350   3.633   4.685   3.691  0.7379  0.3765  0.2768
 4782TIP3   OH214351   2.438   1.156   0.591  0.2983  0.1799  0.1267
 4782TIP3    H114352   2.421   1.203   0.509 -0.2298 -0.0792  0.0828
 4782TIP3    H214353   2.530   1.171   0.609  0.1231  1.2774  0.1425
 4783TIP3   OH214354   1.561   0.094   1.952 -0.0319  0.3682  0.3543
 4783TIP3    H114355   1.612   0.174   1.938  0.6557 -0.0031  0.6476
 4783TIP3    H214356   1.607   0.049   2.022  0.8103 -1.2657 -1.1548
 4784TIP3   OH214357   4.785   4.033   4.942 -0.2250  0.0393  0.8364
 4784TIP3    H114358   4.722   4.096   4.907  0.5392  0.7178  0.6492
 4784TIP3    H214359   4.808   3.978   4.868  0.1004  0.3787  0.6874
 4785TIP3   OH214360   1.628   0.458   3.359 -0.1588  0.3765  0.4908
 4785TIP3    H114361   1.695   0.392   3.344  0.9140  1.4529  0.3737
 4785TIP3    H214362   1.645   0.491   3.447  0.5720  1.8313 -0.1479
 4786TIP3   OH214363   2.610   2.987   2.787 -0.3045 -0.2053 -0.6426
 4786TIP3    H114364   2.699   3.016   2.769 -0.5252  1.0036  0.0564
 4786TIP3    H214365   2.620   2.904   2.834  0.6283  1.3216  2.0842
 4787TIP3   OH214366   1.435   2.653   4.362  0.3808 -0.6281  0.4175
 4787TIP3    H114367   1.472   2.599   4.431  0.4960 -0.4847  0.4710
 4787TIP3    H214368   1.463   2.742   4.384  1.5454 -0.7346 -0.5261
 4788TIP3   OH214369   1.782   5.888   2.848 -0.1322 -0.7087  0.3470
 4788TIP3    H114370   1.713   5.822   2.852 -0.0230 -0.8716 -0.3882
 4788TIP3    H214371   1.851   5.855   2.906 -0.2574 -1.0300  0.3123
 4789TIP3   OH214372   3.995   0.837   3.271  0.2823  0.0724 -0.2717
 4789TIP3    H114373   3.948   0.918   3.293  1.9960  0.3900  2.8139
 4789TIP3    H214374   4.052   0.861   3.198 -0.3169  1.2116 -0.3970
 4790TIP3   OH214375   1.271   5.932   3.180  0.4040 -0.6950  0.1231
 4790TIP3    H114376   1.232   5.935   3.267  0.6301  0.0136  0.2073
 4790TIP3    H214377   1.202   5.895   3.125 -0.3046  0.2552  0.3247
 4791TIP3   OH214378   5.492   4.678   2.715  0.0688  0.0599 -0.3000
 4791TIP3    H114379   5.584   4.654   2.729  0.0268  0.3988  0.6273
 4791TIP3    H214380   5.445   4.636   2.787 -0.3471  0.7857 -0.1413
 4792TIP3   OH214381   5.176   0.853   4.504 -0.2653  0.5795 -0.0828
 4792TIP3    H114382   5.249   0.901   4.464  0.1408 -1.2592 -1.6678
 4792TIP3    H214383   5.115   0.922   4.532  0.7001  2.0602 -1.4455
 4793TIP3   OH214384   5.206   3.842   0.697  0.4001  0.0485  0.2624
 4793TIP3    H114385   5.268   3.773   0.721  1.8151  0.8126 -0.9941
 4793TIP3    H214386   5.148   3.801   0.634  0.0456 -0.4979  0.9396
 4794TIP3   OH214387   3.488   0.164   4.991 -0.3011 -1.2516  0.1498
 4794TIP3    H114388   3.561   0.220   4.965 -1.5237  0.1059 -0.5149
 4794TIP3    H214389   3.499   0.153   5.086 -0.8525  1.4704  0.6240
 4795TIP3   OH214390   5.017   2.202   4.031  0.1777  0.5413  0.4113
 4795TIP3    H114391   5.071   2.124   4.045 -0.9981 -0.4927 -0.5652
 4795TIP3    H214392   5.048   2.265   4.097  1.2181 -0.7006  1.1552
 4796TIP3   OH214393   4.955   5.297   0.005  0.3630 -0.1402  0.2076
 4796TIP3    H114394   5.044   5.266  -0.015 -0.0180  0.4748 -2.8582
 4796TIP3    H214395   4.906   5.217   0.025  1.2108 -0.6533  0.2726
 4797TIP3   OH214396   3.794   0.418   0.102 -0.1113 -0.1082 -0.4417
 4797TIP3    H114397   3.715   0.383   0.061  0.1861  0.1783 -1.2995
 4797TIP3    H214398   3.828   0.346   0.155  0.2831 -1.0216 -1.8725
 4798TIP3   OH214399   3.033   3.841   3.577 -0.1895 -0.4056 -0.5242
 4798TIP3    H114400   3.048   3.926   3.535  1.5536 -1.0450 -1.3008
 4798TIP3    H214401   3.120   3.814   3.607 -1.0847 -0.8637  1.8477
 4799TIP3   OH214402   0.093   3.922   1.919 -0.0650 -0.0826  0.4480
 4799TIP3    H114403   0.003   3.936   1.949 -0.3397 -0.6046 -0.1192
 4799TIP3    H214404   0.135   4.007   1.930  0.1493 -0.4681  3.2932
 4800TIP3   OH214405   2.308   1.781   4.427 -0.1560 -0.3344  0.1241
 4800TIP3    H114406   2.378   1.715   4.425  1.7748  1.5784  1.0181
 4800TIP3    H214407   2.324   1.836   4.351 -1.1734 -0.2971 -0.0786
 4801TIP3   OH214408   0.508   1.139   1.141 -0.4105  0.9715  0.8939
 4801TIP3    H114409   0.454   1.069   1.104 -2.2234  2.2535  1.0095
 4801TIP3    H214410   0.536   1.190   1.065 -0.6687  1.2204  0.9685
 4802TIP3   OH214411   3.682   4.897   5.144 -0.7703 -0.3333 -0.2148
 4802TIP3    H114412   3.641   4.943   5.218  1.2043  1.4544 -0.1555
 4802TIP3    H214413   3.611   4.886   5.081 -1.8210  0.7891  0.7212
 4803TIP3   OH214414   2.947   5.323   4.776 -0.0240 -0.4314  0.3096
 4803TIP3    H114415   2.916   5.392   4.717 -0.8657 -1.0550 -0.0065
 4803TIP3    H214416   3.026   5.359   4.816  0.8446 -0.1758 -1.5544
 4804TIP3   OH214417   1.231   2.881   3.070  0.5743 -0.1524  0.3346
 4804TIP3    H114418   1.194   2.869   2.983  2.1802  0.1985 -0.4282
 4804TIP3    H214419   1.211   2.799   3.116 -0.7129 -0.1486 -0.1779
 4805TIP3   OH214420   5.397   2.599   3.231 -0.2967 -0.0321  0.0217
 4805TIP3    H114421   5.475   2.555   3.262 -0.6653 -0.1564  0.7798
 4805TIP3    H214422   5.413   2.614   3.137  1.1868  1.1378  0.4246
 4806TIP3   OH214423   0.931   6.015   2.516  0.5241 -0.6869  0.0847
 4806TIP3    H114424   0.976   5.953   2.575  1.0134 -0.6853 -0.2774
 4806TIP3    H214425   0.887   5.959   2.452 -2.0167 -0.8102  1.7834
 4807TIP3   OH214426   3.257   3.690   3.600 -0.3173  0.2680 -0.4861
 4807TIP3    H114427   3.231   3.640   3.678 -3.2230 -0.8223 -2.0099
 4807TIP3    H214428   3.301   3.627   3.544  0.3089  0.6597 -0.4551
 4808TIP3   OH214429   2.384   0.307   0.831  0.1354  0.2406  0.3660
 4808TIP3    H114430   2.351   0.381   0.780 -0.5360 -0.3016 -0.0084
 4808TIP3    H214431   2.431   0.252   0.767  0.8788  0.4801  0.6956
 4809TIP3   OH214432   1.448   0.536   3.776 -0.2743  0.2511  0.7173
 4809TIP3    H114433   1.364   0.580   3.761 -0.5644 -0.2465  0.8915
 4809TIP3    H214434   1.425   0.449   3.807  0.2596 -0.5950 -1.0749
 4810TIP3   OH214435   6.211   0.967   5.114  0.7362  0.4498  0.1146
 4810TIP3    H114436   6.204   1.035   5.047 -1.8302  1.9330  1.7124
 4810TIP3    H214437   6.300   0.977   5.149  0.0311  4.1239  1.3050
 4811TIP3   OH214438   3.145   2.800   0.563 -0.4627 -0.2523  0.0174
 4811TIP3    H114439   3.109   2.856   0.495 -2.5701 -1.6282 -0.0791
 4811TIP3    H214440   3.186   2.728   0.515  2.8609  1.3490  0.1057
 4812TIP3   OH214441   3.611   3.597   2.248  0.4125  0.3738  0.4084
 4812TIP3    H114442   3.571   3.684   2.252  1.2976  0.8560 -0.7699
 4812TIP3    H214443   3.703   3.614   2.226  0.5550 -0.8701 -0.0059
 4813TIP3   OH214444   4.926   1.581   1.593  0.0885  0.2316  0.1666
 4813TIP3    H114445   5.014   1.613   1.611 -0.5534  2.6949 -0.6409
 4813TIP3    H214446   4.869   1.635   1.648 -1.0522  0.3269 -1.0537
 4814TIP3   OH214447   2.025   1.652   5.114  0.3174  0.6905 -0.5148
 4814TIP3    H114448   1.950   1.678   5.060 -1.0109 -0.6696  0.5781
 4814TIP3    H214449   2.093   1.716   5.092 -0.8773  1.4952 -2.1458
 4815TIP3   OH214450   2.691   2.697   4.611  0.5630  0.4751  0.4177
 4815TIP3    H114451   2.786   2.703   4.625  1.0171  0.5995 -2.1619
 4815TIP3    H214452   2.654   2.763   4.669  2.4127  2.9369 -0.9968
 4816TIP3   OH214453   1.731   3.369   2.555 -0.5726 -0.6069  0.2319
 4816TIP3    H114454   1.806   3.315   2.576 -0.1403  0.3077  1.1618
 4816TIP3    H214455   1.655   3.316   2.581 -0.1570 -0.7385  1.2394
 4817TIP3   OH214456   2.095   3.133   3.503  0.0510  0.1164 -0.5399
 4817TIP3    H114457   2.111   3.226   3.492 -1.5200  0.2492 -2.0798
 4817TIP3    H214458   2.142   3.092   3.431 -1.4685 -0.0101 -1.4942
 4818TIP3   OH214459   2.231   3.144   0.793  0.0959 -0.0560 -0.2735
 4818TIP3    H114460   2.192   3.061   0.821 -1.1871  1.0828  1.5877
 4818TIP3    H214461   2.208   3.151   0.700 -1.9321 -0.6917  0.1198
 4819TIP3   OH214462   0.658   0.913   4.424 -0.1893  0.2297  0.3664
 4819TIP3    H114463   0.602   0.943   4.496  1.0076  1.4949  0.8054
 4819TIP3    H214464   0.616   0.947   4.345 -0.8075 -0.0702  0.5575
 4820TIP3   OH214465   3.131   5.379   3.846 -0.3908  0.2514 -0.3124
 4820TIP3    H114466   3.218   5.406   3.877 -0.2375 -2.1998  1.7539
 4820TIP3    H214467   3.124   5.416   3.759  2.3529  1.3270 -0.1818
 4821TIP3   OH214468   0.388   1.002   1.733 -0.1194  0.8086 -0.2551
 4821TIP3    H114469   0.464   0.945   1.744  0.9322  2.0346 -0.9072
 4821TIP3    H214470   0.313   0.945   1.748  0.9098 -0.5294  0.0040
 4822TIP3   OH214471   1.106   2.412   3.964  0.0707  0.1998 -0.5237
 4822TIP3    H114472   1.090   2.474   4.036  0.6823 -0.1834 -0.0447
 4822TIP3    H214473   1.183   2.362   3.993 -1.4771 -2.0457 -0.0674
 4823TIP3   OH214474   0.031   5.764   1.002  0.1376  0.2541  0.1472
 4823TIP3    H114475   0.020   5.818   1.081  0.6311 -2.6175  2.3835
 4823TIP3    H214476   0.112   5.795   0.963  0.2507  1.3314  1.1663
 4824TIP3   OH214477   2.111   2.455   1.968  0.3372  0.2892 -0.1886
 4824TIP3    H114478   2.144   2.386   1.910  0.8275 -1.5198  2.0980
 4824TIP3    H214479   2.178   2.463   2.036 -1.6442 -0.0061  1.8992
 4825TIP3   OH214480   3.928   5.161   0.154 -0.1235  0.6217 -0.6129
 4825TIP3    H114481   3.962   5.227   0.094 -1.6053  1.9041 -0.1016
 4825TIP3    H214482   3.895   5.210   0.229 -0.3553 -0.7799  0.2529
 4826TIP3   OH214483   1.946   4.002   3.002  0.4052 -0.5317 -0.2716
 4826TIP3    H114484   1.927   3.930   2.943 -1.2868  1.0346 -1.7783
 4826TIP3    H214485   1.877   3.998   3.068 -1.1969  1.0459 -1.7481
 4827TIP3   OH214486   0.568   3.662   3.738  0.3703 -0.2315  0.0657
 4827TIP3    H114487   0.632   3.599   3.706 -1.1009 -0.9541 -1.6588
 4827TIP3    H214488   0.530   3.622   3.815  2.1743  0.3632  1.3226
 4828TIP3   OH214489   5.541   4.932   1.227 -0.2714 -0.8093 -0.4347
 4828TIP3    H114490   5.615   4.941   1.288 -0.9575  1.1450  0.1773
 4828TIP3    H214491   5.555   5.000   1.162 -1.4763 -0.4843 -0.3654
 4829TIP3   OH214492   2.320   0.968   3.490 -0.4271  0.1349 -0.6451
 4829TIP3    H114493   2.226   0.975   3.507 -0.4843  1.7345 -1.4304
 4829TIP3    H214494   2.352   1.058   3.495  0.9991 -0.3382 -0.7867
 4830TIP3   OH214495   5.126   4.303   2.217  0.4668  0.0571  0.3245
 4830TIP3    H114496   5.146   4.372   2.281  0.9618 -0.7095  1.0216
 4830TIP3    H214497   5.201   4.304   2.157 -0.1070  0.9303 -0.3946
 4831TIP3   OH214498   5.179   1.932   4.376 -0.0114 -0.0364 -0.1107
 4831TIP3    H114499   5.216   1.975   4.453  0.1565  2.1692 -1.3375
 4831TIP3    H214500   5.246   1.871   4.348  0.2507 -0.2850  1.0220
 4832TIP3   OH214501   2.623   0.032   3.928  0.0431 -0.3890 -0.1445
 4832TIP3    H114502   2.703   0.028   3.875 -1.2787  0.6996 -2.4032
 4832TIP3    H214503   2.608   0.125   3.943 -1.0243 -0.5371 -0.1651
 4833TIP3   OH214504   1.050   4.118   2.729  0.3985  0.7774  0.4910
 4833TIP3    H114505   1.127   4.063   2.713  0.1400 -0.2771  2.4438
 4833TIP3    H214506   0.995   4.105   2.652  0.3027 -1.8872  0.8849
 4834TIP3   OH214507   1.010   0.677   3.558 -0.0039  0.1820 -0.0406
 4834TIP3    H114508   0.949   0.604   3.547  1.4159 -0.9139 -1.0039
 4834TIP3    H214509   0.955   0.755   3.561 -1.3650 -0.4264 -4.0243
 4835TIP3   OH214510   1.217   3.991   3.001 -0.3333  0.5324 -0.4939
 4835TIP3    H114511   1.262   3.983   3.085 -0.2007  0.4895 -0.5689
 4835TIP3    H214512   1.136   3.941   3.013  0.3805 -0.7739 -0.8816
 4836TIP3   OH214513   5.228   2.907   0.011  0.1670 -0.4251 -0.3014
 4836TIP3    H114514   5.155   2.850   0.034 -0.8721  0.6953 -0.7130
 4836TIP3    H214515   5.288   2.850  -0.038 -0.3396 -1.3962  0.1644
 4837TIP3   OH214516   0.607   4.964   2.550 -0.0513 -0.0737  0.4198
 4837TIP3    H114517   0.647   4.885   2.586  0.4792  0.3494  0.7765
 4837TIP3    H214518   0.546   4.932   2.483 -1.2705 -0.8949  1.8741
 4838TIP3   OH214519   1.292   3.247   2.847  0.2827  0.4794 -0.4126
 4838TIP3    H114520   1.275   3.341   2.853 -1.0305  0.1985  1.0834
 4838TIP3    H214521   1.225   3.207   2.903  0.0351 -1.4482 -1.9699
 4839TIP3   OH214522   0.794   5.760   4.435  0.1614 -0.6287  0.2336
 4839TIP3    H114523   0.835   5.713   4.363  0.2037  0.1789 -0.2939
 4839TIP3    H214524   0.860   5.762   4.504  0.0227 -1.6449  0.4090
 4840TIP3   OH214525   3.913   1.640   0.128  0.1326 -0.4581 -0.5703
 4840TIP3    H114526   3.934   1.599   0.212 -1.7036  1.6526  1.0372
 4840TIP3    H214527   3.997   1.648   0.084  1.2374 -1.1764  1.2823
 4841TIP3   OH214528   3.998   1.628   0.794  0.0837  0.3697  0.4698
 4841TIP3    H114529   3.948   1.626   0.876  0.8350  1.5615  0.9725
 4841TIP3    H214530   3.982   1.542   0.755  0.1895 -0.4459  2.1433
 4842TIP3   OH214531   4.408   0.373   2.452  0.1607 -0.0133 -0.3203
 4842TIP3    H114532   4.365   0.453   2.482  0.8693 -0.2692  1.5489
 4842TIP3    H214533   4.480   0.403   2.397  0.6744  0.6833  0.7051
 4843TIP3   OH214534   0.884   1.365   1.980 -0.6342 -0.1170 -0.2265
 4843TIP3    H114535   0.900   1.456   2.005 -0.1296 -0.0188 -0.8683
 4843TIP3    H214536   0.874   1.368   1.885 -1.7400 -0.5807 -0.1422
 4844TIP3   OH214537   6.016   2.420   0.740 -0.2795  0.0755  0.3817
 4844TIP3    H114538   6.012   2.354   0.809 -2.6332  1.7737  2.0153
 4844TIP3    H214539   5.959   2.387   0.671 -0.4755 -0.1756  0.6640
 4845TIP3   OH214540   1.866   5.026   0.736  0.0699  0.4264 -0.5414
 4845TIP3    H114541   1.865   4.941   0.779 -0.6633  0.0956 -1.1840
 4845TIP3    H214542   1.921   5.013   0.658 -0.4735  0.3824 -0.9265
 4846TIP3   OH214543   5.768   2.899   4.230  0.0623 -0.0184  0.3260
 4846TIP3    H114544   5.864   2.898   4.233  0.0770 -1.8533  0.0312
 4846TIP3    H214545   5.745   2.992   4.242  1.8997  0.6599 -0.9980
 4847TIP3   OH214546   0.107   0.779   4.527 -0.4520  0.0168  0.1603
 4847TIP3    H114547   0.149   0.811   4.448 -0.8536 -1.1702 -0.5649
 4847TIP3    H214548   0.097   0.685   4.512 -0.0065 -0.3404  1.8617
 4848TIP3   OH214549   4.707   4.729   3.290 -0.1197 -1.0789  0.0880
 4848TIP3    H114550   4.670   4.681   3.364 -1.4027 -0.0153  0.1693
 4848TIP3    H214551   4.649   4.709   3.217  0.6250 -1.4089 -0.4242
 4849TIP3   OH214552   4.593   1.015   1.874 -0.0624 -0.4281 -0.2305
 4849TIP3    H114553   4.535   1.029   1.800 -0.7807  0.4304  0.4793
 4849TIP3    H214554   4.633   0.930   1.857  0.1263 -0.0468 -1.8182
 4850TIP3   OH214555   5.534   0.283   1.437 -0.3565  0.9902 -0.1590
 4850TIP3    H114556   5.617   0.236   1.436 -1.3469 -0.8677 -0.6180
 4850TIP3    H214557   5.558   0.376   1.436  1.6999  0.5696 -3.4926
 4851TIP3   OH214558   0.107   3.803   2.983 -0.1373 -0.1805 -0.5058
 4851TIP3    H114559   0.017   3.834   2.969 -0.2837 -0.1017  0.5200
 4851TIP3    H214560   0.101   3.750   3.063  0.7566 -0.0378 -0.3378
 4852TIP3   OH214561   3.686   1.241   1.463 -0.0746  0.1222  0.4436
 4852TIP3    H114562   3.670   1.160   1.512 -1.0883  1.0640  1.7317
 4852TIP3    H214563   3.641   1.227   1.380  0.2519 -0.8475  0.4083
 4853TIP3   OH214564   6.090   2.383   4.741 -0.1947  0.1537 -0.1194
 4853TIP3    H114565   6.060   2.304   4.785  0.5268  0.1786  0.4421
 4853TIP3    H214566   6.012   2.437   4.731 -0.4882 -0.1452  0.5314
 4854TIP3   OH214567   0.741   0.135   2.522  0.1239 -0.4798 -0.1415
 4854TIP3    H114568   0.768   0.102   2.607  1.0335  0.8980  0.1347
 4854TIP3    H214569   0.784   0.220   2.514 -0.6107 -0.2073 -1.6223
 4855TIP3   OH214570   3.692   1.438   0.124  0.2416  0.0595 -0.0076
 4855TIP3    H114571   3.710   1.498   0.196  0.5924 -0.5949  0.4640
 4855TIP3    H214572   3.641   1.490   0.061  0.5712  0.8500  0.3658
 4856TIP3   OH214573   3.709   2.243   2.994  0.2582  0.4968  0.1094
 4856TIP3    H114574   3.721   2.338   3.005  0.9417  0.3980  0.2951
 4856TIP3    H214575   3.798   2.210   2.979  0.0050 -0.0985 -0.0775
 4857TIP3   OH214576   1.049   5.509   4.480  0.0279 -0.5101  0.6553
 4857TIP3    H114577   1.036   5.419   4.509  0.3261 -1.2630 -1.3800
 4857TIP3    H214578   0.979   5.525   4.417 -0.2404  0.8452  1.2425
 4858TIP3   OH214579   5.050   2.230   1.726  0.0558 -0.1236  0.4586
 4858TIP3    H114580   5.061   2.156   1.787  0.2461 -1.0990 -0.7124
 4858TIP3    H214581   4.991   2.196   1.659 -0.3878  1.0317  0.2580
 4859TIP3   OH214582   1.873   5.547   2.001 -0.1365  0.1912 -0.3908
 4859TIP3    H114583   1.800   5.529   2.060  0.3438  1.3852  0.6115
 4859TIP3    H214584   1.931   5.472   2.009 -1.7371 -1.3406 -2.0674
 4860TIP3   OH214585   2.938   4.662   3.191 -0.2947 -0.5887  0.1753
 4860TIP3    H114586   2.895   4.741   3.157 -0.3816 -1.3276 -1.5337
 4860TIP3    H214587   2.951   4.680   3.284 -0.3973  1.3971 -0.1491
 4861TIP3   OH214588   2.781   0.006   1.731  0.2614  0.7187  0.3722
 4861TIP3    H114589   2.777   0.052   1.647  1.1949 -2.1999 -1.4234
 4861TIP3    H214590   2.768   0.074   1.797  2.0711  3.5901 -1.9995
 4862TIP3   OH214591   3.629   4.982   2.399 -0.3071 -0.1295  0.0864
 4862TIP3    H114592   3.602   4.922   2.469  1.9070 -0.5373  0.6904
 4862TIP3    H214593   3.556   4.982   2.337 -1.8631 -0.6478  1.8278
 4863TIP3   OH214594   2.818   1.926   1.537  0.1968  0.3694 -0.4389
 4863TIP3    H114595   2.761   1.900   1.610  1.8466  2.7823  1.9238
 4863TIP3    H214596   2.868   1.847   1.516  0.4918 -0.1409  1.9173
 4864TIP3   OH214597   3.436   2.933   2.718  0.5262  0.0226 -0.7694
 4864TIP3    H114598   3.418   2.969   2.805 -0.8375  2.5743 -2.0189
 4864TIP3    H214599   3.526   2.960   2.699  1.1368 -1.2523  0.0958
 4865TIP3   OH214600   4.658   5.911   4.255 -0.3193 -0.3343  0.0187
 4865TIP3    H114601   4.629   5.967   4.183  0.4040  0.1007  0.0587
 4865TIP3    H214602   4.703   5.839   4.212 -1.1505 -0.8372 -0.0268
 4866TIP3   OH214603   5.394   5.569   4.401  0.2039 -0.0583  0.3821
 4866TIP3    H114604   5.349   5.604   4.478 -0.0476 -0.2118  0.3055
 4866TIP3    H214605   5.442   5.644   4.365 -0.4293  0.2466  0.1480
 4867TIP3   OH214606   2.382   2.490   4.697  0.5099 -0.4648  0.5681
 4867TIP3    H114607   2.445   2.539   4.644  1.7110 -0.8841  1.5722
 4867TIP3    H214608   2.372   2.407   4.651 -0.3960  0.1254 -0.3401
 4868TIP3   OH214609   2.957   2.372   1.648  0.1634  0.0402  0.1058
 4868TIP3    H114610   2.894   2.347   1.580  0.0357 -1.5691  0.7775
 4868TIP3    H214611   3.042   2.368   1.605  0.1707 -1.8507  0.2303
 4869TIP3   OH214612   5.696   4.899   4.285  0.2849 -0.2761  0.8019
 4869TIP3    H114613   5.739   4.954   4.219 -1.2792  0.1680  0.1141
 4869TIP3    H214614   5.626   4.855   4.237 -1.6375  0.9184  2.3766
 4870TIP3   OH214615   4.667   4.960   3.862  0.3207 -0.2624  0.2207
 4870TIP3    H114616   4.609   4.899   3.907 -1.2379  0.6873 -0.4343
 4870TIP3    H214617   4.700   4.911   3.787 -1.3965 -0.1645 -0.6448
 4871TIP3   OH214618   4.760   4.602   1.761  0.3761 -0.4118  0.3288
 4871TIP3    H114619   4.815   4.610   1.683 -0.7980  0.2594 -0.4640
 4871TIP3    H214620   4.726   4.691   1.774 -1.3241 -1.0083  0.1735
 4872TIP3   OH214621   1.911   2.125   4.602  0.3104 -0.0123  0.4803
 4872TIP3    H114622   1.966   2.056   4.563 -1.0100  0.1383 -1.8325
 4872TIP3    H214623   1.954   2.146   4.684  0.9676 -3.3859  1.1768
 4873TIP3   OH214624   3.320   2.752   1.920 -0.3834 -0.4128  0.5194
 4873TIP3    H114625   3.380   2.793   1.857  0.9367  1.2712  2.6931
 4873TIP3    H214626   3.235   2.789   1.899 -0.1907 -0.7170 -0.9173
 4874TIP3   OH214627   5.269   3.298   2.339 -0.0919 -0.4582 -0.0378
 4874TIP3    H114628   5.322   3.252   2.404 -1.0211 -1.1807  0.2458
 4874TIP3    H214629   5.269   3.389   2.369  1.0844 -0.4162 -0.1287
 4875TIP3   OH214630   0.945   1.382   5.030 -0.6898 -0.0558 -0.3417
 4875TIP3    H114631   0.985   1.354   5.113 -2.9188  0.1444  0.8777
 4875TIP3    H214632   0.983   1.469   5.014 -0.6062  0.1233  0.7472
 4876TIP3   OH214633   1.396   2.989   4.069 -0.2003  0.4913  0.0760
 4876TIP3    H114634   1.437   3.059   4.019 -0.5579  0.0305 -0.8959
 4876TIP3    H214635   1.311   2.977   4.026  0.4613 -1.5540 -0.7506
 4877TIP3   OH214636   1.253   3.812   3.990  0.8246 -0.0669 -0.3575
 4877TIP3    H114637   1.232   3.748   3.921  2.0046 -0.5457 -0.2930
 4877TIP3    H214638   1.244   3.762   4.072 -2.7378  1.0314  0.1010
 4878TIP3   OH214639   3.132   0.509   5.134 -0.3470 -0.0936  0.0112
 4878TIP3    H114640   3.086   0.426   5.126 -0.4009  0.0011 -0.6839
 4878TIP3    H214641   3.149   0.518   5.228  0.4987 -1.3338 -0.0106
 4879TIP3   OH214642   1.504   2.710   2.314  0.5820 -0.2940  0.1021
 4879TIP3    H114643   1.558   2.638   2.350  0.7238 -1.0436 -1.5348
 4879TIP3    H214644   1.511   2.700   2.219 -0.5366  1.0595 -0.1485
 4880TIP3   OH214645   3.287   5.273   0.906  0.1263  0.0154 -0.6254
 4880TIP3    H114646   3.343   5.342   0.871 -0.2708  1.7469  1.8903
 4880TIP3    H214647   3.200   5.293   0.873  0.4311 -1.0218 -2.2003
 4881TIP3   OH214648   0.330   4.405   1.425 -0.1910  0.5271  0.2106
 4881TIP3    H114649   0.326   4.323   1.475  0.8956  0.4820  0.2510
 4881TIP3    H214650   0.408   4.395   1.371  1.1239  2.3321  1.6586
 4882TIP3   OH214651   4.001   4.020   2.037 -0.1017 -0.0370  0.1585
 4882TIP3    H114652   4.035   4.057   2.118  0.0864  0.6582 -0.2289
 4882TIP3    H214653   3.967   3.934   2.062  1.2790 -0.4510  0.6880
 4883TIP3   OH214654   5.603   2.025   0.623 -0.4924 -0.1795 -0.5157
 4883TIP3    H114655   5.605   2.101   0.681  1.7718 -0.6603  0.1378
 4883TIP3    H214656   5.585   1.951   0.682  1.4202 -0.6180 -0.3974
 4884TIP3   OH214657   0.996   2.820   0.821  0.5630 -0.5304  0.4586
 4884TIP3    H114658   1.050   2.753   0.863 -0.6861 -0.9390  1.4589
 4884TIP3    H214659   0.906   2.788   0.829  0.1694 -0.1373 -1.6725
 4885TIP3   OH214660   3.352   1.973   4.773 -0.2575 -0.6443  0.3065
 4885TIP3    H114661   3.422   1.915   4.743 -0.4667 -0.1607 -1.1970
 4885TIP3    H214662   3.273   1.937   4.734 -0.4948  0.1984  0.0022
 4886TIP3   OH214663   1.456   5.821   3.712  0.9808  0.1113  0.0845
 4886TIP3    H114664   1.383   5.882   3.717  0.5629 -0.3049 -0.7393
 4886TIP3    H214665   1.488   5.813   3.802  0.0262  0.3115  0.4427
 4887TIP3   OH214666   1.710   1.955   2.085 -0.6142  0.1016 -0.4368
 4887TIP3    H114667   1.769   1.939   2.159  0.9315  0.1227 -1.5936
 4887TIP3    H214668   1.624   1.966   2.124 -0.0564 -1.0976  1.2511
 4888TIP3   OH214669   4.885   0.682   1.582 -0.3073 -0.3755  0.6842
 4888TIP3    H114670   4.886   0.729   1.499  3.3122  0.2342  0.9257
 4888TIP3    H214671   4.893   0.589   1.557  3.1420 -0.0761  0.2187
 4889TIP3   OH214672   1.455   4.131   0.972 -0.2241  0.2208  0.1985
 4889TIP3    H114673   1.395   4.073   1.019 -1.6645 -0.5476 -2.4008
 4889TIP3    H214674   1.399   4.177   0.910  1.6970  0.5182 -1.3788
 4890TIP3   OH214675   0.582   1.611   4.738 -0.1690  0.4414  0.4232
 4890TIP3    H114676   0.618   1.699   4.753  1.0522 -0.0564  0.5367
 4890TIP3    H214677   0.611   1.560   4.814  0.8494 -0.5485 -0.5828
 4891TIP3   OH214678   3.660   3.357   4.176  0.6920 -0.0660 -0.1683
 4891TIP3    H114679   3.662   3.449   4.203  0.4327 -0.0935 -0.0528
 4891TIP3    H214680   3.751   3.336   4.155  0.8591  0.0271  0.4420
 4892TIP3   OH214681   4.429   3.427   1.219 -0.5969 -0.4602  0.1929
 4892TIP3    H114682   4.401   3.462   1.303  0.5492  0.1712  0.3343
 4892TIP3    H214683   4.350   3.389   1.181 -1.2720 -0.1507  1.2521
 4893TIP3   OH214684   3.045   1.460   3.155 -0.4154 -0.2909 -0.2433
 4893TIP3    H114685   3.049   1.532   3.217  0.2070 -0.8237  0.3519
 4893TIP3    H214686   3.079   1.496   3.073  2.9407 -0.6795  0.8396
 4894TIP3   OH214687   0.143   0.269   5.007  0.4583  0.0703  0.1804
 4894TIP3    H114688   0.054   0.299   4.990  0.4023  0.5281  1.1992
 4894TIP3    H214689   0.132   0.177   5.033  0.4866 -0.4385 -1.4793
 4895TIP3   OH214690   0.946   1.638   2.326 -0.3754 -0.2595  0.2432
 4895TIP3    H114691   0.901   1.558   2.352  2.1859 -1.7925  0.3034
 4895TIP3    H214692   0.914   1.657   2.238 -1.4599 -0.9837  0.4659
 4896TIP3   OH214693   3.210   4.421   3.132  0.0974  0.3227  0.4361
 4896TIP3    H114694   3.269   4.448   3.061 -0.9446  0.4836 -0.3887
 4896TIP3    H214695   3.186   4.331   3.111  1.8794 -0.6061  2.0480
 4897TIP3   OH214696   6.307   3.721   2.447 -0.4012  0.3777 -0.1264
 4897TIP3    H114697   6.400   3.713   2.469 -0.0966  3.0283 -0.1207
 4897TIP3    H214698   6.269   3.637   2.472  2.0043 -0.8178 -0.2373
 4898TIP3   OH214699   5.572   3.443   1.172 -0.1298 -0.2944  0.3054
 4898TIP3    H114700   5.535   3.411   1.090 -1.0310 -0.8554  0.9144
 4898TIP3    H214701   5.664   3.459   1.152 -0.3873 -0.1968 -0.8719
 4899TIP3   OH214702   2.408   1.822   0.686 -0.2789  0.2154 -0.1322
 4899TIP3    H114703   2.446   1.810   0.773 -0.5324  1.1481  0.1226
 4899TIP3    H214704   2.470   1.779   0.627  0.5331  0.6236  0.3974
 4900TIP3   OH214705   5.999   0.687   0.605 -0.4793 -0.4110  0.1467
 4900TIP3    H114706   5.972   0.768   0.563 -0.6092 -1.0046 -0.9501
 4900TIP3    H214707   5.973   0.618   0.543  1.0158 -1.1878  0.3470
 4901TIP3   OH214708   3.285   0.990   4.011  0.5204 -0.4054  0.1060
 4901TIP3    H114709   3.284   1.057   4.079  0.1188  0.9897 -1.2372
 4901TIP3    H214710   3.195   0.958   4.007  0.1342  0.7454 -0.9201
 4902TIP3   OH214711   5.394   0.459   3.929 -0.2100 -0.1217  0.0638
 4902TIP3    H114712   5.466   0.505   3.886  1.2556 -0.8678  1.6169
 4902TIP3    H214713   5.356   0.405   3.860 -0.0408  1.1112 -1.0538
 4903TIP3   OH214714   4.938   4.603   1.521  0.6083 -0.0642  0.5346
 4903TIP3    H114715   4.974   4.669   1.462  1.3260 -1.9311 -1.2480
 4903TIP3    H214716   5.010   4.585   1.583  1.4491 -1.0698 -0.6768
 4904TIP3   OH214717   4.767   1.601   3.223 -0.8377 -0.1784 -0.0816
 4904TIP3    H114718   4.776   1.555   3.139  1.0438  1.2060 -0.7167
 4904TIP3    H214719   4.778   1.533   3.289 -0.5788 -1.0309 -0.9848
 4905TIP3   OH214720   4.689   5.352   2.841 -0.3800  0.4935  0.3792
 4905TIP3    H114721   4.722   5.314   2.760  0.6877 -1.2631  1.5964
 4905TIP3    H214722   4.746   5.427   2.857 -0.6626  0.9193 -0.5111
 4906TIP3   OH214723   5.609   2.667   4.162  0.8504 -0.4919  0.1088
 4906TIP3    H114724   5.573   2.663   4.073 -0.0317  1.4918  0.3109
 4906TIP3    H214725   5.663   2.747   4.162  1.6714 -1.0235  1.0809
 4907TIP3   OH214726   3.066   1.603   4.912  0.9790 -0.2422 -0.0747
 4907TIP3    H114727   3.053   1.632   4.821 -0.5020  1.0198  0.4938
 4907TIP3    H214728   3.104   1.679   4.956 -0.7990  0.1399  0.9201
 4908TIP3   OH214729   0.363   3.560   2.818 -0.1064  0.1127 -0.0598
 4908TIP3    H114730   0.449   3.561   2.775 -0.3496 -1.0931 -0.6277
 4908TIP3    H214731   0.382   3.541   2.910  0.2786  0.5696 -0.0443
 4909TIP3   OH214732   2.879   3.117   3.687 -0.2236 -0.3865 -0.2546
 4909TIP3    H114733   2.960   3.127   3.737 -0.5428 -1.1664  0.4456
 4909TIP3    H214734   2.810   3.128   3.752 -0.6632 -0.4395 -0.7127
 4910TIP3   OH214735   2.382   5.196   1.695  0.2662  0.1358  0.0533
 4910TIP3    H114736   2.363   5.220   1.605 -1.2167 -0.4997  0.1795
 4910TIP3    H214737   2.380   5.100   1.696 -0.4127  0.1446  0.8841
 4911TIP3   OH214738   6.355   2.712   1.440  0.6393 -0.6266  0.7955
 4911TIP3    H114739   6.266   2.676   1.443  0.4552 -0.3120 -0.4016
 4911TIP3    H214740   6.373   2.738   1.530 -0.6058 -0.4134  1.0030
 4912TIP3   OH214741   3.316   1.215   4.230  0.0710  0.5345  0.2009
 4912TIP3    H114742   3.318   1.180   4.319  0.3818 -3.6537 -1.2428
 4912TIP3    H214743   3.223   1.231   4.213 -0.2328 -0.6902  0.6245
 4913TIP3   OH214744   4.607   0.571   1.816  0.4113 -0.3615 -0.1505
 4913TIP3    H114745   4.647   0.503   1.762 -0.0104 -1.0373  0.3759
 4913TIP3    H214746   4.514   0.547   1.820 -0.0652  1.1063 -1.2391
 4914TIP3   OH214747   3.144   3.703   4.717 -0.2858 -0.1842 -0.0251
 4914TIP3    H114748   3.173   3.735   4.802  1.4792 -0.4701 -0.4935
 4914TIP3    H214749   3.057   3.742   4.705 -0.4182  0.1326  1.7365
 4915TIP3   OH214750   5.224   2.906   1.066 -0.2084  0.5037  0.4026
 4915TIP3    H114751   5.180   2.832   1.025 -1.4436  1.5234 -0.2195
 4915TIP3    H214752   5.193   2.905   1.157  1.7129 -1.1463  1.0909
 4916TIP3   OH214753   1.419   3.831   3.184 -0.1061 -0.2575 -0.5955
 4916TIP3    H114754   1.506   3.870   3.186 -0.3696  0.5772 -2.5756
 4916TIP3    H214755   1.392   3.828   3.275  1.5035  0.6204 -0.0507
 4917TIP3   OH214756   4.758   0.060   1.017  0.0343  0.2905 -0.6377
 4917TIP3    H114757   4.834   0.104   0.980  1.9637 -1.5517  0.9283
 4917TIP3    H214758   4.741  -0.014   0.958 -0.3082  0.4746 -0.7730
 4918TIP3   OH214759   1.778   5.292   5.076 -0.7054  0.3161  0.1320
 4918TIP3    H114760   1.868   5.285   5.047 -0.6789  0.2101  0.2406
 4918TIP3    H214761   1.752   5.203   5.099 -0.9579  0.2889 -0.2532
 4919TIP3   OH214762   0.302   4.256   3.604  0.4012  0.2188 -0.2809
 4919TIP3    H114763   0.381   4.243   3.656  0.2655 -1.9087 -0.4806
 4919TIP3    H214764   0.319   4.209   3.522 -1.0046 -0.2223 -0.3569
 4920TIP3   OH214765   2.776   3.179   2.153  0.2487 -0.2379  0.5422
 4920TIP3    H114766   2.731   3.095   2.149 -1.1449  0.5463 -1.0439
 4920TIP3    H214767   2.864   3.160   2.121  0.8386 -1.5736  2.7108
 4921TIP3   OH214768   0.912   3.984   2.053 -0.1004  0.0150 -0.0360
 4921TIP3    H114769   0.978   4.036   2.006 -0.0831  1.1416  1.1785
 4921TIP3    H214770   0.963   3.933   2.117 -0.3552  0.4775  0.5362
 4922TIP3   OH214771   5.499   3.043   4.367 -0.1819  0.0664  0.3326
 4922TIP3    H114772   5.503   2.955   4.404 -0.8145 -0.0037  0.2481
 4922TIP3    H214773   5.488   3.028   4.273 -1.4406  0.2107  0.4328
 4923TIP3   OH214774   0.654   4.454   0.535 -0.2794 -0.0610  0.2596
 4923TIP3    H114775   0.616   4.371   0.506 -0.6123  0.5276 -1.0443
 4923TIP3    H214776   0.744   4.432   0.560 -1.2372 -1.3999  2.9899
 4924TIP3   OH214777   3.657   1.745   1.702 -0.2241 -0.1470  0.7061
 4924TIP3    H114778   3.664   1.795   1.621 -0.0761  0.1658  0.9108
 4924TIP3    H214779   3.680   1.655   1.677  0.5008  0.0772  0.5358
 4925TIP3   OH214780   3.987   4.395   1.384 -0.5747 -0.6116  0.3008
 4925TIP3    H114781   4.053   4.457   1.352 -0.2933 -1.4883 -0.8533
 4925TIP3    H214782   4.020   4.368   1.470  0.4257 -0.8113 -0.1314
 4926TIP3   OH214783   1.776   1.624   1.718  0.0262 -0.5696 -0.0831
 4926TIP3    H114784   1.806   1.608   1.628 -0.7684  1.3262 -0.7382
 4926TIP3    H214785   1.848   1.670   1.760 -1.5132  3.6295 -1.5378
 4927TIP3   OH214786   3.052   2.752   3.824 -0.5491 -0.0327  0.2583
 4927TIP3    H114787   3.089   2.757   3.735 -1.7521 -0.5874 -0.2912
 4927TIP3    H214788   3.070   2.662   3.852  0.9222  0.4854  1.0983
 4928TIP3   OH214789   0.121   3.243   4.098  0.0035 -0.5518 -0.2196
 4928TIP3    H114790   0.049   3.305   4.091  0.3191 -0.2562 -0.9285
 4928TIP3    H214791   0.095   3.170   4.042  0.8140  0.1166 -1.5011
 4929TIP3   OH214792   1.052   4.124   1.114  0.3879 -0.1086 -1.2357
 4929TIP3    H114793   1.049   4.215   1.143 -0.2916 -0.5509  0.1728
 4929TIP3    H214794   1.102   4.078   1.181 -1.0900 -1.1389 -0.7629
 4930TIP3   OH214795   2.119   4.302   1.366  0.0733  0.3530  0.1809
 4930TIP3    H114796   2.159   4.385   1.341  0.7983 -0.2195 -0.6189
 4930TIP3    H214797   2.156   4.238   1.305 -1.6110 -0.3057 -0.2107
 4931TIP3   OH214798   0.511   1.961   1.713  0.5833 -0.5306 -0.0710
 4931TIP3    H114799   0.607   1.959   1.723  0.6485 -0.3303 -0.6051
 4931TIP3    H214800   0.488   1.871   1.688  0.8034 -0.2639 -1.3111
 4932TIP3   OH214801   3.476   0.572   4.581 -0.1875  0.3531 -0.0549
 4932TIP3    H114802   3.513   0.487   4.556 -0.0652  0.7499 -1.2941
 4932TIP3    H214803   3.549   0.634   4.570  0.1182  0.4458  2.1520
 4933TIP3   OH214804   0.046   0.976   1.002 -0.7770  0.5030 -0.0557
 4933TIP3    H114805   0.065   0.896   1.051 -1.5094  1.1634  1.3514
 4933TIP3    H214806  -0.018   1.023   1.055  0.4990  2.5956 -0.2559
 4934TIP3   OH214807   4.191   4.723   0.955 -0.5888 -0.1330  0.3145
 4934TIP3    H114808   4.127   4.711   0.886  0.3360 -1.4396 -0.3673
 4934TIP3    H214809   4.239   4.802   0.930 -0.8286 -0.1088 -0.0758
 4935TIP3   OH214810   1.500   2.734   2.707 -0.0388  0.1699 -0.1540
 4935TIP3    H114811   1.588   2.712   2.677  0.1143  0.7663 -0.1619
 4935TIP3    H214812   1.493   2.693   2.793  0.0038 -0.4400 -0.4396
 4936TIP3   OH214813   1.558   2.015   3.077  0.2993  0.3001  0.5025
 4936TIP3    H114814   1.521   2.087   3.027 -1.0662 -0.3785  0.4878
 4936TIP3    H214815   1.649   2.011   3.049  1.1361  3.5568  2.3054
 4937TIP3   OH214816   4.427   2.118   3.130  0.1621  0.6311 -0.4767
 4937TIP3    H114817   4.387   2.049   3.181 -0.6705 -0.1989 -2.1679
 4937TIP3    H214818   4.517   2.089   3.116  0.3179  0.7407  0.2534
 4938TIP3   OH214819   3.548   0.275   2.394  0.5815 -0.1830  0.1206
 4938TIP3    H114820   3.490   0.293   2.468  1.6931  1.8308  0.5746
 4938TIP3    H214821   3.494   0.293   2.317 -0.1266 -0.7676  0.4712
 4939TIP3   OH214822   4.025   2.203   0.732 -0.6906 -0.5503 -0.0923
 4939TIP3    H114823   3.979   2.119   0.734 -0.6688 -0.6003  2.6419
 4939TIP3    H214824   3.955   2.269   0.730 -0.7812 -0.6374  0.1541
 4940TIP3   OH214825   1.262   2.801   1.440  0.4179  0.4472  0.5018
 4940TIP3    H114826   1.208   2.807   1.361 -0.1222  2.0689  0.9610
 4940TIP3    H214827   1.352   2.810   1.409  0.4230 -1.4164 -0.1748
 4941TIP3   OH214828   3.264   3.446   4.654 -0.4932  0.2466  0.0972
 4941TIP3    H114829   3.190   3.388   4.635 -1.2823  0.5396  2.0276
 4941TIP3    H214830   3.228   3.510   4.715  0.6218  2.1972 -1.2094
 4942TIP3   OH214831   2.164   1.817   3.186 -0.7103  0.2396  0.3233
 4942TIP3    H114832   2.093   1.766   3.148  1.0099 -0.9824 -1.4571
 4942TIP3    H214833   2.153   1.905   3.149 -1.8233  0.3178  0.8232
 4943TIP3   OH214834   0.573   2.553   1.945  0.0390  0.0455 -0.0636
 4943TIP3    H114835   0.537   2.466   1.960 -0.2147  0.3807  1.4769
 4943TIP3    H214836   0.605   2.551   1.855 -0.1873 -1.5490 -0.1351
 4944TIP3   OH214837   5.094   2.652   3.917 -0.1357 -0.4698 -0.1092
 4944TIP3    H114838   5.042   2.582   3.879 -0.1713 -0.7113  0.3793
 4944TIP3    H214839   5.043   2.681   3.993  0.5308 -0.8406  0.4894
 4945TIP3   OH214840   3.114   2.709   2.802  0.3975  0.1792 -0.4531
 4945TIP3    H114841   3.162   2.626   2.805  0.5691  0.3074  1.0641
 4945TIP3    H214842   3.156   2.759   2.731  1.1946 -0.4902 -0.4608
 4946TIP3   OH214843   3.554   5.940   2.776 -0.0268 -0.1706  0.1372
 4946TIP3    H114844   3.544   5.853   2.813 -1.7608  0.6447  1.7354
 4946TIP3    H214845   3.523   5.932   2.686 -2.8944 -0.6703  1.0819
 4947TIP3   OH214846   1.902   0.371   3.315 -0.1376  0.0625  0.1487
 4947TIP3    H114847   1.893   0.371   3.410  0.5910 -1.3230  0.2377
 4947TIP3    H214848   1.996   0.379   3.300 -0.1970 -0.3001 -0.4411
 4948TIP3   OH214849   2.651   2.171   1.732  0.2338  0.3950 -0.4381
 4948TIP3    H114850   2.719   2.105   1.742 -0.5832 -0.5241 -0.7523
 4948TIP3    H214851   2.621   2.161   1.641  0.9358  2.0544 -0.9025
 4949TIP3   OH214852   4.847   1.948   5.058 -0.5318 -0.1760  0.0686
 4949TIP3    H114853   4.927   1.921   5.012 -0.4881 -0.6227  0.3978
 4949TIP3    H214854   4.784   1.879   5.036 -0.7208 -0.0108  0.0983
 4950TIP3   OH214855   0.632   5.582   0.890  0.1118 -0.7747  0.9673
 4950TIP3    H114856   0.546   5.598   0.852  1.2059 -0.1266 -1.5077
 4950TIP3    H214857   0.671   5.515   0.834  0.5029 -2.6100  3.3078
 4951TIP3   OH214858   3.353   0.151   4.543  0.1582 -0.1315  0.5177
 4951TIP3    H114859   3.438   0.111   4.526  0.2418  0.0090  0.5984
 4951TIP3    H214860   3.365   0.198   4.626 -0.4623 -1.4345  1.3723
 4952TIP3   OH214861   2.403   2.831   0.543  0.2781 -0.0264  0.6659
 4952TIP3    H114862   2.456   2.797   0.615  0.7338  0.8971  0.7901
 4952TIP3    H214863   2.343   2.760   0.522 -1.0579  0.2690  3.1181
 4953TIP3   OH214864   5.813   0.154   1.365 -0.4136 -0.2681 -0.4476
 4953TIP3    H114865   5.766   0.072   1.347  0.4614 -1.1296  0.9441
 4953TIP3    H214866   5.819   0.198   1.280 -1.8125 -1.1515 -1.0343
 4954TIP3   OH214867   0.533   0.753   3.563  0.7137 -0.5639 -0.0195
 4954TIP3    H114868   0.535   0.659   3.548  0.0162 -0.5513 -0.2153
 4954TIP3    H214869   0.519   0.761   3.658 -0.6165 -0.6775 -0.1844
 4955TIP3   OH214870   5.203   0.004   2.291  0.0638 -0.1014  0.6262
 4955TIP3    H114871   5.117   0.045   2.280 -1.0917 -2.8722 -2.1268
 4955TIP3    H214872   5.249   0.022   2.209  1.6771  0.2325  1.5509
 4956TIP3   OH214873   3.936   5.369   1.878  0.7878 -0.1549 -0.0101
 4956TIP3    H114874   3.914   5.282   1.848 -1.0067 -0.8842  2.9868
 4956TIP3    H214875   3.855   5.419   1.874  1.3499  0.8103  0.0524
 4957TIP3   OH214876   4.103   2.910   2.855  0.0477 -0.4258  0.3633
 4957TIP3    H114877   4.072   2.915   2.765  2.2753  0.3611 -0.4320
 4957TIP3    H214878   4.033   2.867   2.903 -0.9683 -1.3483 -1.8474
 4958TIP3   OH214879   0.942   5.049   4.678  0.2684  1.0357 -0.4966
 4958TIP3    H114880   0.951   4.969   4.626  1.9460 -0.1685  1.5134
 4958TIP3    H214881   0.900   5.020   4.759 -0.8103  2.5779 -0.4549
 4959TIP3   OH214882   0.039   0.564   0.277  0.0172  0.3186  0.0765
 4959TIP3    H114883  -0.010   0.607   0.347  1.1229 -0.1593  1.1809
 4959TIP3    H214884   0.053   0.475   0.309 -0.7872 -0.4016 -1.4477
 4960TIP3   OH214885   5.964   0.565   0.372 -0.2833  0.3185  0.1521
 4960TIP3    H114886   5.935   0.624   0.302 -3.3029  1.4676  2.1873
 4960TIP3    H214887   6.012   0.496   0.326 -0.9863  1.6600 -2.8845
 4961TIP3   OH214888   0.693   4.327   4.545 -0.2481 -0.0170  0.2633
 4961TIP3    H114889   0.681   4.421   4.550  2.0569  0.3494 -0.2131
 4961TIP3    H214890   0.636   4.299   4.473  1.9727  1.6590 -2.3406
 4962TIP3   OH214891   0.467   5.669   0.699 -0.4137  0.1688  0.3984
 4962TIP3    H114892   0.525   5.745   0.700  0.4665 -0.4889  0.3723
 4962TIP3    H214893   0.413   5.681   0.622  0.6946  0.0616 -0.4229
 4963TIP3   OH214894   4.193   5.003   0.833  0.2152 -0.6625  0.4107
 4963TIP3    H114895   4.151   5.054   0.764  1.5444  0.0606  0.0996
 4963TIP3    H214896   4.166   5.046   0.915  1.2448  0.5286  0.1577
 4964TIP3   OH214897   5.582   1.728   2.815  0.1228  0.6761  0.2247
 4964TIP3    H114898   5.608   1.661   2.878  2.8541  1.0897 -0.3414
 4964TIP3    H214899   5.635   1.804   2.837 -1.5607  2.0607 -0.3151
 4965TIP3   OH214900   4.017   0.389   1.044  0.6458  0.4260 -0.2770
 4965TIP3    H114901   4.087   0.332   1.013  1.1141  0.9038 -0.1197
 4965TIP3    H214902   4.044   0.477   1.015 -0.1836  0.5389 -0.7387
 4966TIP3   OH214903   3.616   5.400   3.490 -0.3706  0.8034  0.1701
 4966TIP3    H114904   3.692   5.382   3.545  0.1465 -1.2757 -1.0979
 4966TIP3    H214905   3.574   5.476   3.530  0.6390  0.1202  2.6751
 4967TIP3   OH214906   3.082   2.988   1.809  0.3290 -0.2780 -0.0829
 4967TIP3    H114907   3.118   2.955   1.727 -0.7516  0.2999 -0.8195
 4967TIP3    H214908   3.000   3.029   1.784 -1.0718 -1.8842  1.5687
 4968TIP3   OH214909   0.899   0.447   1.626  0.1382 -0.4265 -0.4953
 4968TIP3    H114910   0.994   0.443   1.636  0.5282  1.5803 -2.4846
 4968TIP3    H214911   0.871   0.515   1.687 -0.1774 -1.5988  0.7030
 4969TIP3   OH214912   3.585   3.055   2.987 -0.0767 -0.3159 -0.6602
 4969TIP3    H114913   3.563   3.076   3.078  0.5766 -0.5649 -0.4419
 4969TIP3    H214914   3.606   2.962   2.988  2.7641  0.2630 -0.4916
 4970TIP3   OH214915   2.677   0.519   4.518  0.0222  0.2987 -0.5135
 4970TIP3    H114916   2.637   0.433   4.509 -0.5914  0.7401 -2.3134
 4970TIP3    H214917   2.764   0.509   4.479 -0.4915  0.7670 -1.8246
 4971TIP3   OH214918   2.589   0.505   2.572 -0.4655 -0.5581  0.3072
 4971TIP3    H114919   2.616   0.596   2.583 -0.0253 -0.6590  0.0689
 4971TIP3    H214920   2.600   0.488   2.479 -4.1593  0.2967 -0.4269
 4972TIP3   OH214921   3.908   1.848   4.986  0.9465  0.0310  0.3598
 4972TIP3    H114922   3.926   1.843   5.080  4.7236 -1.4890 -0.2676
 4972TIP3    H214923   3.898   1.758   4.957 -0.4497  0.4848 -0.7122
 4973TIP3   OH214924   2.596   4.778   1.254  0.0380 -0.3238  0.9789
 4973TIP3    H114925   2.625   4.763   1.345  0.4684 -0.7871  0.7737
 4973TIP3    H214926   2.556   4.695   1.228  0.0689 -0.2491  0.6916
 4974TIP3   OH214927   2.367   4.605   1.126 -0.4176  0.0375  0.1324
 4974TIP3    H114928   2.295   4.658   1.159  0.2674  0.8328  0.3959
 4974TIP3    H214929   2.399   4.653   1.049  0.8932  0.6141  0.9943
 4975TIP3   OH214930   0.054   0.443   0.657 -0.0008  0.2747 -0.0513
 4975TIP3    H114931  -0.032   0.485   0.661  0.3517  0.9299  0.9669
 4975TIP3    H214932   0.114   0.508   0.691  1.4615  1.1182 -3.7671
 4976TIP3   OH214933   4.245   0.545   2.631  0.3948  0.3234  0.0642
 4976TIP3    H114934   4.206   0.632   2.625 -1.1749 -0.2619  1.2111
 4976TIP3    H214935   4.174   0.485   2.611  1.8247 -0.7194 -2.3152
 4977TIP3   OH214936   5.723   1.057   2.893 -0.3039 -0.2044 -0.3565
 4977TIP3    H114937   5.713   0.961   2.892  1.4437 -0.4220 -0.4719
 4977TIP3    H214938   5.727   1.081   2.801  0.0333 -0.1155 -0.3177
 4978TIP3   OH214939   4.021   2.366   4.201 -0.3283  0.4678 -0.1245
 4978TIP3    H114940   4.077   2.380   4.125  0.4415 -0.9385  0.1523
 4978TIP3    H214941   4.081   2.340   4.271 -1.0723  1.3106  0.8592
 4979TIP3   OH214942   5.376   4.620   4.948 -0.4234 -0.2555 -0.2963
 4979TIP3    H114943   5.291   4.604   4.989 -0.3753  1.8236  0.7913
 4979TIP3    H214944   5.355   4.659   4.863 -0.5171 -2.3894 -1.3013
 4980TIP3   OH214945   2.009   4.833   2.959  0.3950 -0.6407 -0.1590
 4980TIP3    H114946   2.096   4.857   2.927 -0.4682  2.1931 -0.7176
 4980TIP3    H214947   1.991   4.895   3.029 -1.9153  0.2850 -1.4348
 4981TIP3   OH214948   4.861   0.382   4.821 -0.5100  0.0038 -0.2888
 4981TIP3    H114949   4.889   0.460   4.869 -0.7838 -0.2201  0.2477
 4981TIP3    H214950   4.935   0.322   4.827  0.6232  1.0376 -2.6492
 4982TIP3   OH214951   3.867   2.471   0.445 -0.3053  0.7369 -0.7310
 4982TIP3    H114952   3.948   2.486   0.493  1.3295  1.7419 -3.5288
 4982TIP3    H214953   3.798   2.504   0.503  1.3929  1.1337  1.1900
 4983TIP3   OH214954   1.295   4.558   2.841 -1.0594 -0.0931  0.0670
 4983TIP3    H114955   1.259   4.487   2.787 -0.8864  0.3830 -0.6989
 4983TIP3    H214956   1.255   4.637   2.806 -0.4010  0.2937  0.1677
 4984TIP3   OH214957   6.064   4.620   4.037  0.0115  0.3401 -0.8456
 4984TIP3    H114958   6.018   4.660   4.111  0.7616  0.6404 -0.5277
 4984TIP3    H214959   6.006   4.550   4.008 -0.2978  0.2088  0.0426
 4985TIP3   OH214960   0.860   1.956   3.115 -0.0188  0.0537  0.1003
 4985TIP3    H114961   0.836   2.014   3.187 -0.1834  0.3172 -0.1618
 4985TIP3    H214962   0.787   1.963   3.053  0.8118  1.0652 -0.8258
 4986TIP3   OH214963   4.687   5.539   3.867 -0.0908  0.0346  0.0129
 4986TIP3    H114964   4.653   5.462   3.824 -1.7679  0.6685  0.1330
 4986TIP3    H214965   4.701   5.512   3.958  1.5434 -0.7382 -0.4326
 4987TIP3   OH214966   1.268   4.364   4.545  0.0815 -0.0590  0.2561
 4987TIP3    H114967   1.233   4.338   4.460 -0.3951  1.5092 -0.0703
 4987TIP3    H214968   1.191   4.386   4.597  0.4100 -0.2184  0.8240
 4988TIP3   OH214969   2.527   0.290   2.834  0.1933  0.1998 -0.1544
 4988TIP3    H114970   2.536   0.201   2.798  0.5123 -0.6593  1.9028
 4988TIP3    H214971   2.617   0.323   2.841  0.2169  0.0105  0.5917
 4989TIP3   OH214972   0.590   3.458   2.383  0.0473  0.1748 -0.3450
 4989TIP3    H114973   0.555   3.428   2.299  0.3425 -1.8628  0.2237
 4989TIP3    H214974   0.683   3.438   2.379  0.0260 -0.1382  0.5568
 4990TIP3   OH214975   5.355   4.750   1.131 -0.3326  0.3067  0.1277
 4990TIP3    H114976   5.420   4.815   1.157 -0.1968  0.2028  0.0488
 4990TIP3    H214977   5.402   4.666   1.136 -0.6152  0.1704  0.6280
 4991TIP3   OH214978   6.339   2.804   0.096 -0.4624  0.2223 -1.0701
 4991TIP3    H114979   6.391   2.884   0.096  0.6095 -0.4506 -0.9121
 4991TIP3    H214980   6.268   2.822   0.034 -1.2174  1.8809  0.1985
 4992TIP3   OH214981   1.774   0.501   4.049  0.0043 -0.1377 -1.2361
 4992TIP3    H114982   1.681   0.480   4.049  0.1780 -1.2710  1.2413
 4992TIP3    H214983   1.778   0.593   4.074 -0.4515 -0.5722  0.5855
 4993TIP3   OH214984   4.933   1.908   1.055  0.4280 -0.3704  0.7793
 4993TIP3    H114985   4.849   1.953   1.059 -0.0749 -1.2841  0.9059
 4993TIP3    H214986   4.998   1.978   1.048 -0.2582  0.3984  1.7672
 4994TIP3   OH214987   1.935   4.060   2.287  0.0138  0.3183 -0.4933
 4994TIP3    H114988   2.015   4.019   2.319  0.0679 -1.7272 -2.8896
 4994TIP3    H214989   1.960   4.098   2.202 -0.8843  2.4246  0.1116
 4995TIP3   OH214990   2.468   4.112   0.130 -0.2424 -0.0603 -0.0579
 4995TIP3    H114991   2.521   4.158   0.195 -2.1206  1.2709  0.5813
 4995TIP3    H214992   2.528   4.045   0.094  0.6780 -1.4032  3.5502
 4996TIP3   OH214993   0.831   3.213   0.008 -0.2495 -0.9847 -0.1192
 4996TIP3    H114994   0.856   3.231   0.099 -0.5385 -0.4767 -0.1382
 4996TIP3    H214995   0.841   3.297  -0.037 -0.8773 -1.0442 -0.3827
 4997TIP3   OH214996   5.117   3.084   5.175 -0.1651 -0.1824  0.0373
 4997TIP3    H114997   5.047   3.021   5.156 -1.2248  1.1067 -0.5428
 4997TIP3    H214998   5.072   3.169   5.177  1.3696  0.6736 -0.2268
 4998TIP3   OH214999   1.204   1.456   2.605  0.1671  0.3414  0.7876
 4998TIP3    H115000   1.293   1.473   2.635  0.9019 -1.4663 -0.1874
 4998TIP3    H215001   1.213   1.440   2.511 -0.4767 -3.6467  1.2249
 4999TIP3   OH215002   4.458   3.816   3.050  0.3172 -0.3820 -0.4377
 4999TIP3    H115003   4.381   3.861   3.015  0.2220 -0.6530 -0.5734
 4999TIP3    H215004   4.532   3.869   3.020  0.0859  1.3868  1.8502
 5000TIP3   OH215005   4.843   2.693   1.100  0.2564  0.1741  0.7727
 5000TIP3    H115006   4.882   2.635   1.035 -1.2610  0.2835 -0.2873
 5000TIP3    H215007   4.764   2.728   1.057  0.1479  1.6070  2.0401
 5001TIP3   OH215008   4.032   2.865   4.635 -0.4140 -0.4565  0.2395
 5001TIP3    H115009   4.027   2.842   4.542  0.8585 -1.0165  0.2909
 5001TIP3    H215010   4.126   2.866   4.654 -0.6642 -0.3647  1.5291
 5002TIP3   OH215011   5.447   4.673   3.746 -0.2674  0.2270  0.4628
 5002TIP3    H115012   5.404   4.705   3.825 -2.0498  1.2510 -0.8327
 5002TIP3    H215013   5.405   4.722   3.675  0.8175 -1.1028 -1.1710
 5003TIP3   OH215014   2.224   2.813   3.669 -0.6607  0.0217 -0.5833
 5003TIP3    H115015   2.149   2.859   3.705 -1.1375 -0.6713 -0.6612
 5003TIP3    H215016   2.254   2.755   3.739 -1.3453 -1.0383 -1.1314
 5004TIP3   OH215017   6.161   1.549   2.745  0.3901 -0.3026 -0.1600
 5004TIP3    H115018   6.152   1.570   2.838  1.2519 -0.4166 -0.0445
 5004TIP3    H215019   6.106   1.614   2.701  0.0419 -0.1946  0.4202
 5005TIP3   OH215020   2.262   1.656   0.977  0.1102  0.4101  0.6116
 5005TIP3    H115021   2.286   1.636   1.067  1.1604  0.2754  0.3173
 5005TIP3    H215022   2.167   1.668   0.979 -0.2487 -2.1183  1.2663
 5006TIP3   OH215023   1.085   3.771   4.586 -0.0369  0.6394 -0.1022
 5006TIP3    H115024   1.038   3.704   4.636 -2.7221  0.4589 -2.6009
 5006TIP3    H215025   1.178   3.750   4.599 -0.7242 -2.2411  0.9367
 5007TIP3   OH215026   4.843   3.455   1.388 -0.3105  0.2098 -0.2280
 5007TIP3    H115027   4.883   3.384   1.337  1.9415 -0.3123  2.0631
 5007TIP3    H215028   4.772   3.413   1.437  0.9469 -0.5180  1.0408
 5008TIP3   OH215029   4.085   3.091   1.083 -0.3201 -0.1266  0.6715
 5008TIP3    H115030   4.165   3.060   1.041 -0.3090 -0.5638  1.0109
 5008TIP3    H215031   4.100   3.185   1.095 -0.2894 -0.0093 -0.2077
 5009TIP3   OH215032   3.538   0.311   0.077  0.2021 -0.2113 -0.3422
 5009TIP3    H115033   3.509   0.245   0.014 -0.9130 -1.0857  1.0269
 5009TIP3    H215034   3.511   0.277   0.162  0.3590  1.6241  0.4944
 5010TIP3   OH215035  -0.019   5.919   4.061  0.3973  0.1420 -0.1342
 5010TIP3    H115036   0.046   5.862   4.103  0.0625 -0.7743 -0.8039
 5010TIP3    H215037  -0.018   5.999   4.113  0.1319 -0.8574  1.4996
 5011TIP3   OH215038   0.876   4.527   1.341 -0.0138  0.1103  0.3613
 5011TIP3    H115039   0.811   4.588   1.306 -0.0255 -0.0774  0.0584
 5011TIP3    H215040   0.837   4.497   1.423  0.0756  0.6508  0.6088
 5012TIP3   OH215041   5.343   2.459   3.946  0.1389 -0.3865  0.1825
 5012TIP3    H115042   5.370   2.549   3.930  0.1371 -0.4078  0.0578
 5012TIP3    H215043   5.358   2.446   4.039 -0.4105 -0.0713  0.3206
 5013TIP3   OH215044   2.163   4.808   2.488  0.2021  0.5848  0.4764
 5013TIP3    H115045   2.144   4.806   2.395  0.2207  2.3914  0.3990
 5013TIP3    H215046   2.117   4.731   2.524 -1.8851  1.2311 -0.6547
 5014TIP3   OH215047   2.329   5.777   4.381 -0.0529  0.1448  0.2775
 5014TIP3    H115048   2.344   5.867   4.353  0.6167  0.1136  0.5213
 5014TIP3    H215049   2.336   5.725   4.301 -1.8291  0.4414 -0.1122
 5015TIP3   OH215050   1.825   0.030   4.688  0.0876  0.6809 -0.5760
 5015TIP3    H115051   1.799   0.099   4.627 -0.3561 -0.2904 -1.5040
 5015TIP3    H215052   1.747  -0.024   4.697  0.5335  0.1112 -0.1026
 5016TIP3   OH215053   5.152   3.060   3.958  0.5775 -0.3243  0.7712
 5016TIP3    H115054   5.128   3.023   4.043 -0.3069  1.4189  1.3321
 5016TIP3    H215055   5.244   3.083   3.967  0.0110  1.6794  2.0178
 5017TIP3   OH215056   2.268   3.809   2.757 -0.6015  0.3847 -0.4638
 5017TIP3    H115057   2.215   3.731   2.742 -0.9847  0.6578 -0.5240
 5017TIP3    H215058   2.249   3.834   2.847 -0.0703  0.1029 -0.2666
 5018TIP3   OH215059   3.443   0.961   2.318  0.2209  0.0568  0.0147
 5018TIP3    H115060   3.482   0.920   2.240 -0.3444 -0.1244 -0.1795
 5018TIP3    H215061   3.494   0.927   2.391  0.4029 -0.2106 -0.2314
 5019TIP3   OH215062   6.270   2.242   0.393  0.1291  0.1865  0.0521
 5019TIP3    H115063   6.288   2.331   0.364 -0.5190  0.4238  0.3592
 5019TIP3    H215064   6.182   2.223   0.359 -0.1528  0.0387  0.8503
 5020TIP3   OH215065   1.190   4.813   1.858 -0.4289 -0.3380  0.7034
 5020TIP3    H115066   1.123   4.816   1.926  0.3849  0.2661  1.4856
 5020TIP3    H215067   1.261   4.762   1.896  0.1473  0.2398  0.4158
 5021TIP3   OH215068   6.330   4.588   0.167  0.5760 -0.1748  0.0770
 5021TIP3    H115069   6.322   4.657   0.101  0.9438 -0.4690 -0.2807
 5021TIP3    H215070   6.326   4.507   0.118 -0.9207 -0.4482  0.6084
 5022TIP3   OH215071   5.290   1.800   0.652  0.4986 -0.1086  0.0258
 5022TIP3    H115072   5.326   1.874   0.605  0.8492  0.0066  0.4747
 5022TIP3    H215073   5.270   1.736   0.584  1.6862 -0.2337 -0.2211
 5023TIP3   OH215074   6.346   4.676   4.439 -0.7908 -0.1187  0.5172
 5023TIP3    H115075   6.327   4.586   4.465 -2.0743 -0.0311 -0.0338
 5023TIP3    H215076   6.259   4.716   4.426 -0.2412  1.1460  0.5966
 5024TIP3   OH215077   4.856   5.654   2.081  0.9125  0.1358  0.1176
 5024TIP3    H115078   4.915   5.642   2.007  0.7464  0.2939 -0.0412
 5024TIP3    H215079   4.773   5.615   2.054  1.3292 -1.3197  0.8611
 5025TIP3   OH215080   3.689   5.097   3.374  0.5274  0.6745  0.1300
 5025TIP3    H115081   3.623   5.029   3.361 -0.3073  0.6146  3.6921
 5025TIP3    H215082   3.638   5.174   3.400  1.7092  1.5494 -0.1069
 5026TIP3   OH215083   1.025   5.621   3.638 -0.0826  0.5599  0.1688
 5026TIP3    H115084   1.034   5.715   3.626  0.3295  0.9498  2.8428
 5026TIP3    H215085   1.109   5.585   3.609 -0.0312  1.0740 -0.3355
 5027TIP3   OH215086   2.101   1.974   4.447  0.1635  0.1813  0.4636
 5027TIP3    H115087   2.108   2.027   4.367  1.8254 -1.7700 -0.7845
 5027TIP3    H215088   2.191   1.950   4.469 -0.2885  0.3374  2.7371
 5028TIP3   OH215089   2.488   0.719   5.206  0.0250  0.5619  0.1968
 5028TIP3    H115090   2.430   0.646   5.187  0.1135  0.3356  0.7752
 5028TIP3    H215091   2.561   0.709   5.144 -0.4770  0.7732 -0.4423
 5029TIP3   OH215092   0.098   5.742   3.077  0.4011 -0.3279  0.0039
 5029TIP3    H115093   0.086   5.726   2.983  1.4525 -1.0714 -0.0249
 5029TIP3    H215094   0.077   5.658   3.118  1.5927 -0.5214  0.2645
 5030TIP3   OH215095   0.879   1.567   4.254  0.5336 -0.2455 -0.3132
 5030TIP3    H115096   0.923   1.624   4.317 -0.1331 -0.1498  0.0891
 5030TIP3    H215097   0.918   1.480   4.269  1.2566  0.0201 -0.6384
 5031TIP3   OH215098   4.043   0.275   2.127  0.0958  0.1608  0.4537
 5031TIP3    H115099   4.088   0.232   2.054 -0.5329 -1.2559  0.8805
 5031TIP3    H215100   4.103   0.265   2.201  0.7747  1.6786  0.1502
 5032TIP3   OH215101   4.026   4.372   3.546  0.1518 -0.4595 -0.5868
 5032TIP3    H115102   4.071   4.390   3.629 -1.3553  0.5154  0.0543
 5032TIP3    H215103   4.045   4.448   3.491  1.2329 -1.1503 -1.2055
 5033TIP3   OH215104   0.277   2.641   1.767 -0.2117 -0.3172 -0.4965
 5033TIP3    H115105   0.218   2.581   1.812  0.6782 -1.6004 -0.9711
 5033TIP3    H215106   0.361   2.596   1.766  0.5402  1.0216 -0.7339
 5034TIP3   OH215107   3.638   3.416   3.610  0.0333 -0.3294 -0.6492
 5034TIP3    H115108   3.570   3.483   3.601 -1.8989 -2.0047  0.5329
 5034TIP3    H215109   3.598   3.336   3.575  0.8266 -1.6804  1.3143
 5035TIP3   OH215110   3.263   3.548   3.830 -0.3910  0.4012  0.1642
 5035TIP3    H115111   3.250   3.455   3.850 -0.4269  0.4120  0.1907
 5035TIP3    H215112   3.358   3.559   3.831 -0.4249  0.8320  2.2774
 5036TIP3   OH215113   2.065   2.365   2.340  0.3344 -0.3273 -0.0913
 5036TIP3    H115114   1.987   2.332   2.294 -0.2544 -0.2280  0.8164
 5036TIP3    H215115   2.114   2.286   2.363  0.3699 -0.4042 -0.4183
 5037TIP3   OH215116   5.990   3.156   4.055 -0.3842  0.7599 -0.3189
 5037TIP3    H115117   5.899   3.178   4.076 -0.6253 -1.1566  0.8256
 5037TIP3    H215118   5.983   3.088   3.988  0.1167 -0.6179  0.9736
 5038TIP3   OH215119   5.124   2.686   3.121 -0.4284  0.1277 -0.3720
 5038TIP3    H115120   5.161   2.773   3.131 -0.1131  0.0966 -1.1748
 5038TIP3    H215121   5.196   2.626   3.140 -1.0504 -0.0025  1.7547
 5039TIP3   OH215122   0.142   5.732   2.498 -0.7084 -0.1776  0.4197
 5039TIP3    H115123   0.082   5.804   2.521 -1.1098 -0.5988  0.7125
 5039TIP3    H215124   0.225   5.775   2.480 -0.7463  0.3033  1.3274
 5040TIP3   OH215125   4.892   2.940   2.333 -0.4316 -0.1645 -0.0951
 5040TIP3    H115126   4.826   2.968   2.269  1.6482  3.1731 -1.0657
 5040TIP3    H215127   4.968   2.995   2.314  1.5103 -1.4586  3.0973
 5041TIP3   OH215128   3.935   4.353   2.950 -0.4117  0.6403 -0.3893
 5041TIP3    H115129   3.844   4.372   2.976 -0.2823  1.9493 -0.8108
 5041TIP3    H215130   3.972   4.439   2.931  0.8876  0.1012 -0.3498
 5042TIP3   OH215131   1.926   4.450   3.064  0.6428 -0.1221  0.2842
 5042TIP3    H115132   1.998   4.510   3.083  0.9662  0.3410 -2.0662
 5042TIP3    H215133   1.958   4.364   3.091  1.2614  0.3504  1.1185
 5043TIP3   OH215134   2.009   0.667   1.995 -0.0832  0.5599  0.5881
 5043TIP3    H115135   2.052   0.750   2.012 -0.2016  0.4860  1.2973
 5043TIP3    H215136   1.919   0.690   1.974  0.1228  0.6695 -0.1964
 5044TIP3   OH215137   0.867   0.916   3.628  0.3878  0.5116 -0.2788
 5044TIP3    H115138   0.835   1.004   3.608  0.3169  0.4241 -0.5622
 5044TIP3    H215139   0.881   0.916   3.722 -1.6604  0.1696  0.0646
 5045TIP3   OH215140   1.497   4.612   0.366  0.3676  0.3957 -0.1558
 5045TIP3    H115141   1.545   4.544   0.318  2.4263  0.6025  1.4669
 5045TIP3    H215142   1.500   4.688   0.309 -0.4733 -0.3518 -1.2509
 5046TIP3   OH215143   2.624   4.176   1.817  0.1360  0.5530  0.1678
 5046TIP3    H115144   2.629   4.093   1.769  1.2021 -0.5414  2.0196
 5046TIP3    H215145   2.646   4.243   1.752  0.6194 -0.7553 -1.0777
 5047TIP3   OH215146   4.448   5.597   0.126 -0.0496  0.7492  0.1786
 5047TIP3    H115147   4.517   5.595   0.060  0.9181 -0.9308  1.1865
 5047TIP3    H215148   4.418   5.506   0.133 -1.8324  1.3059  0.3409
 5048TIP3   OH215149   4.115   0.290   4.214  0.5960 -0.2157  0.3310
 5048TIP3    H115150   4.107   0.332   4.129 -1.9717 -0.0447  0.5949
 5048TIP3    H215151   4.158   0.356   4.269  1.3362  0.0515 -0.5362
 5049TIP3   OH215152   6.013   5.775   4.903  0.6384  0.0124 -0.1429
 5049TIP3    H115153   6.061   5.750   4.824 -0.0409 -1.0876 -0.2353
 5049TIP3    H215154   5.998   5.692   4.949  0.9657  0.6210  1.1168
 5050TIP3   OH215155   3.785   2.258   4.067 -0.7848 -0.3142 -0.0852
 5050TIP3    H115156   3.868   2.236   4.110 -0.5086  1.1079  0.1826
 5050TIP3    H215157   3.751   2.175   4.035  0.8481 -0.9163 -0.3742
 5051TIP3   OH215158   5.858   0.707   1.501 -0.2062 -0.4516  0.2261
 5051TIP3    H115159   5.917   0.760   1.447 -0.2063  0.0524  0.7130
 5051TIP3    H215160   5.897   0.710   1.589 -0.9453 -0.1061  0.5571
 5052TIP3   OH215161   0.765   1.895   3.890 -0.1915 -0.1666  0.2987
 5052TIP3    H115162   0.759   1.805   3.860  1.5354 -0.4283  0.6156
 5052TIP3    H215163   0.857   1.919   3.876 -0.2471  1.0136  1.6533
 5053TIP3   OH215164   5.117   2.226   1.384  0.3263 -0.2833  0.6454
 5053TIP3    H115165   5.129   2.264   1.296 -2.6308 -0.5103  0.0516
 5053TIP3    H215166   5.064   2.290   1.430 -0.1412 -1.2543  1.4753
 5054TIP3   OH215167   2.936   4.749   0.591 -0.1821  0.2671  0.0719
 5054TIP3    H115168   2.894   4.813   0.533 -0.2830  0.1154 -0.0240
 5054TIP3    H215169   3.015   4.721   0.545  0.5538  1.2799  0.6836
 5055TIP3   OH215170   5.255   0.220   3.242  0.4540 -0.3321  0.4798
 5055TIP3    H115171   5.256   0.314   3.258 -0.5860 -0.1747 -0.2703
 5055TIP3    H215172   5.164   0.193   3.259 -0.3551 -0.4311 -3.2334
 5056TIP3   OH215173   1.309   2.093   4.777  0.0952  0.3710 -0.1486
 5056TIP3    H115174   1.376   2.049   4.724  2.4733  1.1206  2.0128
 5056TIP3    H215175   1.226   2.061   4.743  1.5457 -0.9925 -2.6783
 5057TIP3   OH215176   5.621   2.590   3.741  0.0782  0.0738 -0.0642
 5057TIP3    H115177   5.571   2.638   3.807 -0.4203  0.5455 -0.7750
 5057TIP3    H215178   5.637   2.504   3.781  0.9936  0.8155  1.2266
 5058TIP3   OH215179   1.260   5.598   3.305  0.1325  0.3191  0.1329
 5058TIP3    H115180   1.225   5.686   3.313  1.5775  0.7290  3.1824
 5058TIP3    H215181   1.350   5.610   3.276  0.4319 -0.1291  0.8593
 5059TIP3   OH215182   3.396   1.700   2.831  0.1133  0.4467 -0.2907
 5059TIP3    H115183   3.376   1.676   2.740 -0.8297  0.5865 -0.1361
 5059TIP3    H215184   3.484   1.737   2.828 -0.0903  0.8941 -1.2401
 5060TIP3   OH215185   3.479   4.587   3.158 -0.0285  0.0398 -0.1348
 5060TIP3    H115186   3.441   4.550   3.079 -0.1858 -1.2653  0.5228
 5060TIP3    H215187   3.405   4.630   3.202 -0.2081 -0.2983 -0.1023
 5061TIP3   OH215188   5.703   5.319   0.442 -0.3922 -0.3201  0.7459
 5061TIP3    H115189   5.718   5.372   0.364  0.2601  1.4206  1.9858
 5061TIP3    H215190   5.784   5.269   0.453 -0.3584 -0.3205  0.4922
 5062TIP3   OH215191   4.879   3.959   3.206 -0.2188  0.6361 -0.6642
 5062TIP3    H115192   4.859   3.871   3.175 -1.2305  0.8302 -0.5950
 5062TIP3    H215193   4.958   3.984   3.158  1.0429 -0.9021  0.4608
 5063TIP3   OH215194   1.355   3.138   4.517  0.1833  0.2996 -0.0811
 5063TIP3    H115195   1.311   3.195   4.580  1.2351 -0.9160  1.8777
 5063TIP3    H215196   1.442   3.177   4.507  0.3765 -0.0838  0.0672
 5064TIP3   OH215197   6.139   2.858   3.638  0.3503 -0.2516  0.0219
 5064TIP3    H115198   6.208   2.924   3.634 -0.0388  0.1969  0.5712
 5064TIP3    H215199   6.186   2.776   3.653  0.8338 -0.1031 -0.6396
 5065TIP3   OH215200   3.529   1.845   3.644  0.5066  0.2587 -0.7882
 5065TIP3    H115201   3.540   1.804   3.558  0.5327 -1.6422  0.0639
 5065TIP3    H215202   3.612   1.831   3.689 -0.0010 -0.1257  0.0671
 5066TIP3   OH215203   0.854   4.736   0.956 -0.1434  0.2125 -0.2253
 5066TIP3    H115204   0.861   4.672   1.027  0.4049  1.4182  0.8374
 5066TIP3    H215205   0.786   4.700   0.899 -0.3770 -0.9406  0.7344
 5067TIP3   OH215206   2.433   5.762   0.081 -0.5161 -0.0204  0.3499
 5067TIP3    H115207   2.387   5.723   0.007 -0.1829  1.0051 -0.4211
 5067TIP3    H215208   2.525   5.763   0.054 -0.3482  0.0984  0.9052
 5068TIP3   OH215209   5.387   0.870   1.041  0.0743  0.2444  0.0907
 5068TIP3    H115210   5.328   0.945   1.049  0.2633  0.3401  0.6665
 5068TIP3    H215211   5.329   0.794   1.037 -0.0930  0.3255  0.8079
 5069TIP3   OH215212   1.910   1.623   1.488 -0.0477 -0.0144  0.1261
 5069TIP3    H115213   1.942   1.627   1.398  2.0617 -0.6995  0.7869
 5069TIP3    H215214   1.888   1.713   1.510 -2.3766 -0.0500 -1.6110
 5070TIP3   OH215215   5.645   5.277   1.778  0.0598 -0.2478  0.6887
 5070TIP3    H115216   5.615   5.188   1.801  0.6162 -0.4283  0.7377
 5070TIP3    H215217   5.737   5.278   1.804 -0.2484  0.7497  1.8338
 5071TIP3   OH215218   1.354   0.369   4.692  0.6558  0.1303  0.0864
 5071TIP3    H115219   1.310   0.383   4.608 -1.1099 -1.7792  0.6113
 5071TIP3    H215220   1.317   0.435   4.750  0.7697  0.4872 -0.2397
 5072TIP3   OH215221   5.286   5.186   3.239  0.4431 -0.6557 -0.6421
 5072TIP3    H115222   5.353   5.142   3.291  0.6666 -0.9600 -1.1763
 5072TIP3    H215223   5.298   5.279   3.256  0.9270 -0.7189 -0.6441
 5073TIP3   OH215224   2.515   4.703   0.544  0.4558 -0.0603 -0.0135
 5073TIP3    H115225   2.487   4.622   0.501  0.2239  0.7295 -1.4127
 5073TIP3    H215226   2.437   4.733   0.591  0.0713  0.1414 -0.7654
 5074TIP3   OH215227   2.136   5.874   2.375  0.2966  0.3480  0.2224
 5074TIP3    H115228   2.091   5.794   2.402 -0.6685  1.2093  1.2807
 5074TIP3    H215229   2.091   5.900   2.295 -0.1124  0.4014  0.4649
 5075TIP3   OH215230   5.386   1.178   4.069 -0.3330 -0.1540 -0.1355
 5075TIP3    H115231   5.434   1.136   3.998 -1.5881 -0.9951 -0.5175
 5075TIP3    H215232   5.434   1.152   4.148  1.1676  0.9262 -0.6367
 5076TIP3   OH215233   1.871   0.738   4.470  0.0596 -0.0770 -0.0825
 5076TIP3    H115234   1.838   0.790   4.543  0.9972  0.5504 -0.0848
 5076TIP3    H215235   1.930   0.674   4.510 -0.3033 -0.4794 -0.1836
 5077TIP3   OH215236   0.814   0.449   3.420 -0.0561 -1.0331  0.5529
 5077TIP3    H115237   0.826   0.357   3.443  1.1746 -1.4420 -1.4462
 5077TIP3    H215238   0.869   0.462   3.342 -0.5274  1.2884  0.5194
 5078TIP3   OH215239   4.263   5.317   0.492  0.4412 -0.0813  0.4290
 5078TIP3    H115240   4.253   5.229   0.455  1.2710  0.4423 -1.1649
 5078TIP3    H215241   4.358   5.328   0.502  0.2608 -0.1048  2.6153
 5079TIP3   OH215242   6.362   3.977   1.185  0.2526  0.2367 -0.4729
 5079TIP3    H115243   6.356   3.890   1.225 -0.9824  1.3580  1.9997
 5079TIP3    H215244   6.274   3.993   1.149  0.3838  0.5952 -0.6369
 5080TIP3   OH215245   2.466   2.064   0.433 -0.4519  0.2087 -0.1644
 5080TIP3    H115246   2.533   2.057   0.364  1.7576  1.2901  1.7380
 5080TIP3    H215247   2.465   1.978   0.474 -0.1164  0.2301 -0.1070
 5081TIP3   OH215248   0.158   1.290   0.912 -0.4381 -0.2660  0.0056
 5081TIP3    H115249   0.183   1.335   0.993  0.3481 -0.1827 -0.2678
 5081TIP3    H215250   0.182   1.199   0.927 -1.9461 -0.6073  0.5240
 5082TIP3   OH215251   1.520   3.052   0.851 -0.1656  0.2488  0.4316
 5082TIP3    H115252   1.505   2.979   0.911  0.6252 -0.0721  0.2444
 5082TIP3    H215253   1.471   3.124   0.890  0.8351  0.2279  1.8228
 5083TIP3   OH215254   2.522   1.895   1.403  0.3079 -0.1140 -0.0290
 5083TIP3    H115255   2.499   1.886   1.310  1.9940 -0.3339 -0.4655
 5083TIP3    H215256   2.613   1.866   1.408  0.7476  1.3500  1.4328
 5084TIP3   OH215257   2.453   2.699   0.783 -0.5391 -0.0853  0.2821
 5084TIP3    H115258   2.513   2.737   0.846 -0.9752  0.2949  0.4762
 5084TIP3    H215259   2.374   2.679   0.834 -1.3008  1.2044 -0.3277
 5085TIP3   OH215260   1.384   4.624   4.579  0.3766 -0.5811  0.0888
 5085TIP3    H115261   1.333   4.544   4.564 -1.0239  0.3180 -0.0816
 5085TIP3    H215262   1.447   4.627   4.506 -2.1362  0.4537 -2.1965
 5086TIP3   OH215263   3.539   3.535   3.856  0.0167 -0.0170  0.3226
 5086TIP3    H115264   3.563   3.611   3.803  0.7769 -0.0032  0.6798
 5086TIP3    H215265   3.619   3.482   3.861  0.4386  0.7148  2.6728
 5087TIP3   OH215266   2.201   0.724   2.282 -0.3295 -0.0214 -0.1386
 5087TIP3    H115267   2.234   0.684   2.362  0.9968  0.6637 -0.3213
 5087TIP3    H215268   2.106   0.725   2.293 -0.2908 -1.5337  0.6518
 5088TIP3   OH215269   6.349   1.179   0.709  0.0755 -0.0295 -0.4461
 5088TIP3    H115270   6.403   1.208   0.782 -1.4369 -1.0789  1.1778
 5088TIP3    H215271   6.301   1.258   0.682 -2.8243 -0.3823  2.8902
 5089TIP3   OH215272   0.304   5.871   2.778  0.3483  0.4441  0.7528
 5089TIP3    H115273   0.359   5.792   2.785 -0.1283  0.0976  0.6660
 5089TIP3    H215274   0.214   5.837   2.784  0.1436  0.9950  0.8036
 5090TIP3   OH215275   0.815   2.047   2.749  0.6360  0.2328 -0.0361
 5090TIP3    H115276   0.868   2.067   2.672  3.2649  1.2835  1.8940
 5090TIP3    H215277   0.812   1.952   2.752  0.7431  0.1730 -1.2427
 5091TIP3   OH215278   3.735   1.293   4.289  0.0698 -0.0677  0.6813
 5091TIP3    H115279   3.669   1.348   4.331  0.4403  1.0596 -0.1567
 5091TIP3    H215280   3.784   1.353   4.232 -2.4278 -1.8779 -3.9423
 5092TIP3   OH215281   0.107   1.617   4.468  0.5120  0.1259 -0.3844
 5092TIP3    H115282   0.173   1.552   4.490  0.3646  0.8418  2.6167
 5092TIP3    H215283   0.157   1.691   4.432  1.2178  0.1210  0.5492
 5093TIP3   OH215284   4.508   5.034   1.850 -0.7166 -0.1304 -0.2265
 5093TIP3    H115285   4.577   4.969   1.833 -0.4105 -0.4122  1.8577
 5093TIP3    H215286   4.505   5.086   1.770  1.3000 -0.6815 -0.7300
 5094TIP3   OH215287   1.355   2.412   2.788  0.5608 -0.1909  0.2712
 5094TIP3    H115288   1.434   2.461   2.810  0.1482 -0.1121  1.6769
 5094TIP3    H215289   1.362   2.396   2.694  2.0380  0.1745  0.2957
 5095TIP3   OH215290   2.807   5.875   3.018  0.2418  0.2451  0.8248
 5095TIP3    H115291   2.787   5.804   2.957  2.2776  2.1022 -2.2558
 5095TIP3    H215292   2.728   5.930   3.017  0.1768  0.1505  0.0041
 5096TIP3   OH215293   0.883   1.289   0.590  0.6641  0.1485  0.2831
 5096TIP3    H115294   0.894   1.269   0.683 -0.3233 -0.2169  0.3398
 5096TIP3    H215295   0.802   1.244   0.566 -0.4913  2.3121 -0.1129
 5097TIP3   OH215296   6.120   1.731   0.181  0.0650  0.0937  0.4733
 5097TIP3    H115297   6.032   1.764   0.166 -0.1666 -0.6698  0.1196
 5097TIP3    H215298   6.158   1.723   0.093  0.1810 -0.4013  0.5659
 5098TIP3   OH215299   0.936   2.820   3.152  0.2296  0.0315  0.4691
 5098TIP3    H115300   0.848   2.785   3.159  1.0021 -1.7931  1.8385
 5098TIP3    H215301   0.954   2.824   3.058 -0.1991 -2.5811  0.2220
 5099TIP3   OH215302   2.713   5.668   4.427 -0.3081  0.6187  0.3227
 5099TIP3    H115303   2.696   5.589   4.375 -0.1859  1.8548 -1.6675
 5099TIP3    H215304   2.691   5.741   4.369 -1.0340  2.0727  2.3346
 5100TIP3   OH215305   5.822   5.197   4.502  0.4691 -0.2663  0.0511
 5100TIP3    H115306   5.858   5.109   4.505 -0.4487 -0.7858 -2.0040
 5100TIP3    H215307   5.898   5.254   4.493  1.0289 -0.9024  0.6378
 5101TIP3   OH215308   3.080   4.978   1.091 -0.2531 -0.0543 -0.8738
 5101TIP3    H115309   3.136   4.919   1.141  1.2797  1.4914 -0.6913
 5101TIP3    H215310   3.001   4.926   1.072  0.1093 -1.4216  1.1047
 5102TIP3   OH215311   0.598   2.495   0.910  0.4272  0.5679 -0.0885
 5102TIP3    H115312   0.509   2.527   0.897  0.3191  2.5532  3.8867
 5102TIP3    H215313   0.598   2.408   0.871 -2.8855  0.9377 -1.2351
 5103TIP3   OH215314   3.638   4.038   0.981  0.1958  0.4390  0.4415
 5103TIP3    H115315   3.682   3.968   0.932  2.6285  1.5281  0.9026
 5103TIP3    H215316   3.657   4.017   1.073 -0.3460  0.9056  0.6599
 5104TIP3   OH215317   6.300   3.385   2.153  0.4046  0.6640 -0.2201
 5104TIP3    H115318   6.338   3.473   2.146  0.7282  0.6540  1.1913
 5104TIP3    H215319   6.376   3.327   2.145  0.0061  0.3898 -2.9113
 5105TIP3   OH215320   6.208   3.488   4.802  0.2869  0.1032  0.0822
 5105TIP3    H115321   6.146   3.470   4.872  0.8941 -0.4304  0.4857
 5105TIP3    H215322   6.173   3.567   4.759 -0.1533  0.3642  0.8981
 5106TIP3   OH215323   2.637   5.655   0.568  0.1180 -0.2084 -0.0338
 5106TIP3    H115324   2.567   5.679   0.508 -0.1976  0.7438  0.6762
 5106TIP3    H215325   2.621   5.709   0.646  0.0719 -1.9191  1.2070
 5107TIP3   OH215326   2.400   1.298   3.253 -0.2929  0.5426  0.1649
 5107TIP3    H115327   2.480   1.341   3.284 -0.6735  0.2699  1.5477
 5107TIP3    H215328   2.328   1.348   3.291 -0.7646 -0.0308  0.0448
 5108TIP3   OH215329   2.320   1.359   4.233 -0.5668 -0.1684 -0.0508
 5108TIP3    H115330   2.233   1.396   4.243 -0.7529  0.5402 -3.3879
 5108TIP3    H215331   2.305   1.268   4.207 -0.2442 -0.3709  0.4395
 5109TIP3   OH215332   2.655   5.737   1.068 -0.3785 -0.2395  0.2370
 5109TIP3    H115333   2.657   5.641   1.073  0.7833 -0.2211  0.3917
 5109TIP3    H215334   2.604   5.764   1.144 -0.9974 -0.7384  0.0100
 5110TIP3   OH215335   3.394   3.427   2.271 -0.3365  0.3241  0.0160
 5110TIP3    H115336   3.469   3.486   2.266  0.5487 -0.7961 -0.2615
 5110TIP3    H215337   3.383   3.395   2.182 -0.3293 -0.4914  0.3008
 5111TIP3   OH215338   1.319   3.061   1.768  0.1447 -0.3714  0.0894
 5111TIP3    H115339   1.313   3.112   1.849  0.5138  1.8075 -1.1572
 5111TIP3    H215340   1.229   3.034   1.751 -0.1921  0.4531  0.4796
 5112TIP3   OH215341   4.230   2.965   0.880 -0.3146  0.4303 -0.4803
 5112TIP3    H115342   4.290   2.959   0.805  0.8174 -0.0877  0.4397
 5112TIP3    H215343   4.162   2.901   0.861 -1.1052  1.6391 -1.9607
 5113TIP3   OH215344   3.306   1.687   0.708 -0.0742 -0.4245  0.2371
 5113TIP3    H115345   3.342   1.651   0.627  0.9666  0.4669  0.2861
 5113TIP3    H215346   3.226   1.637   0.723  0.3017 -1.3500 -0.7461
 5114TIP3   OH215347   1.276   5.018   4.222 -0.3386 -0.1405 -0.8416
 5114TIP3    H115348   1.231   5.084   4.274  1.6837  1.4577 -0.9607
 5114TIP3    H215349   1.235   5.023   4.136 -1.3892 -0.3398 -0.3675
 5115TIP3   OH215350   3.367   4.529   2.918  0.2175 -0.0882 -0.1287
 5115TIP3    H115351   3.434   4.484   2.867 -0.7953 -1.5026 -0.2561
 5115TIP3    H215352   3.339   4.602   2.862  2.3543  1.2033  0.3674
 5116TIP3   OH215353   1.574   3.867   2.378  0.5538  0.1341 -0.6587
 5116TIP3    H115354   1.594   3.959   2.398 -0.4223  0.4597 -1.1116
 5116TIP3    H215355   1.564   3.826   2.464  0.4159  0.5828 -0.4566
 5117TIP3   OH215356   5.818   1.115   4.752  0.2029  0.4552  0.0752
 5117TIP3    H115357   5.737   1.132   4.800  0.1997  1.9669 -0.4286
 5117TIP3    H215358   5.794   1.126   4.660  0.9662  0.9105 -0.0763
 5118TIP3   OH215359   2.419   5.838   2.433  0.0285  0.5884 -0.4192
 5118TIP3    H115360   2.341   5.876   2.393 -0.0220  2.4155  1.2197
 5118TIP3    H215361   2.400   5.745   2.440 -1.0261  0.6339 -2.1231
 5119TIP3   OH215362   0.059   4.084   3.459 -0.3341 -0.0375 -0.0404
 5119TIP3    H115363   0.071   4.175   3.432  0.5067 -0.4147 -1.0094
 5119TIP3    H215364   0.089   4.082   3.550  3.1205 -0.0152 -1.0254
 5120TIP3   OH215365   1.530   2.701   3.220 -0.6802  0.1869 -0.1224
 5120TIP3    H115366   1.544   2.657   3.304 -0.1760  3.1214  1.5064
 5120TIP3    H215367   1.499   2.633   3.161 -0.0786 -2.2198  2.1650
 5121TIP3   OH215368   1.050   1.051   5.005  0.2523 -0.2429  0.3169
 5121TIP3    H115369   1.011   1.114   5.066 -0.5235  0.0280 -0.4273
 5121TIP3    H215370   1.083   0.981   5.061 -0.9898 -0.3036  1.0226
 5122TIP3   OH215371   0.610   4.605   4.535 -0.2007  0.2656  0.1491
 5122TIP3    H115372   0.590   4.663   4.608 -0.8663  0.2320 -0.0026
 5122TIP3    H215373   0.647   4.662   4.467 -0.7248  0.4938  0.0529
 5123TIP3   OH215374   4.182   2.683   2.022  0.5443 -0.4457 -0.2888
 5123TIP3    H115375   4.227   2.636   1.951  0.9246 -0.2240 -0.1964
 5123TIP3    H215376   4.103   2.717   1.981  0.2541 -1.1732 -0.3569
 5124TIP3   OH215377   1.281   5.525   3.799  0.1367 -0.4972 -0.5972
 5124TIP3    H115378   1.370   5.501   3.826  0.0775 -0.2098 -0.1354
 5124TIP3    H215379   1.293   5.565   3.713  0.7491  1.5200  0.3556
 5125TIP3   OH215380   2.376   5.580   1.140 -0.5593  0.4872 -0.0684
 5125TIP3    H115381   2.301   5.634   1.167 -1.0306  0.5796 -1.4812
 5125TIP3    H215382   2.336   5.497   1.112 -0.1576  0.5858 -0.9564
 5126TIP3   OH215383   3.856   3.190   5.022  0.0370 -0.3684  0.5066
 5126TIP3    H115384   3.878   3.119   4.961 -1.3837 -0.5360  0.1582
 5126TIP3    H215385   3.761   3.198   5.017  0.2310  2.6313 -0.6679
 5127TIP3   OH215386   0.938   1.629   1.700  0.2180 -0.0497 -0.4974
 5127TIP3    H115387   0.939   1.534   1.696 -1.0170 -0.1642  1.1489
 5127TIP3    H215388   0.853   1.654   1.662  0.4833  0.4037 -0.8117
 5128TIP3   OH215389   0.288   4.926   4.194 -0.4559 -0.1909  0.4378
 5128TIP3    H115390   0.313   4.841   4.158  1.8700 -0.2634  1.9680
 5128TIP3    H215391   0.239   4.905   4.273 -1.3839 -0.0834 -0.1051
 5129TIP3   OH215392   3.040   1.961   0.622  0.0499  0.1146  0.2987
 5129TIP3    H115393   3.133   1.939   0.624 -0.0941 -0.6954 -0.5978
 5129TIP3    H215394   2.998   1.894   0.676  0.0270  0.7844  1.1286
 5130TIP3   OH215395   5.860   4.042   0.470 -0.2384 -0.1388 -0.6207
 5130TIP3    H115396   5.845   3.963   0.522 -1.2616  0.5935  0.2276
 5130TIP3    H215397   5.875   4.009   0.381  0.2302 -1.3277 -0.1240
 5131TIP3   OH215398   6.128   2.548   1.446 -0.2401 -0.3249 -0.1261
 5131TIP3    H115399   6.057   2.579   1.503  0.3932 -0.8981  1.0206
 5131TIP3    H215400   6.083   2.504   1.374 -1.0633 -0.7863  0.6391
 5132TIP3   OH215401   2.078   0.606   4.671 -0.2847 -0.7998  0.4709
 5132TIP3    H115402   2.133   0.537   4.633 -1.9076 -1.9412  0.1213
 5132TIP3    H215403   2.126   0.687   4.651  0.6375 -1.6388 -0.9611
 5133TIP3   OH215404   5.229   3.356   1.677 -0.7895  0.3023  0.3392
 5133TIP3    H115405   5.286   3.340   1.602 -0.9729 -1.0764  0.4677
 5133TIP3    H215406   5.269   3.430   1.723 -0.2894  0.7006 -0.7216
 5134TIP3   OH215407   4.539   5.888   2.778  0.9364  0.1931 -0.0374
 5134TIP3    H115408   4.561   5.872   2.686 -0.6077 -0.4323 -0.3173
 5134TIP3    H215409   4.574   5.811   2.823 -0.7261 -0.8944 -0.5083
 5135TIP3   OH215410   0.284   3.676   1.380  0.4799  0.0796 -0.0627
 5135TIP3    H115411   0.375   3.690   1.405  1.0128 -2.7150 -0.0973
 5135TIP3    H215412   0.245   3.632   1.456 -0.6879  0.7200 -0.2730
 5136TIP3   OH215413   0.166   1.841   1.621 -0.3614  0.5729 -0.3220
 5136TIP3    H115414   0.115   1.910   1.663  0.4165  0.6587  0.5210
 5136TIP3    H215415   0.250   1.843   1.667 -0.7807 -1.8557  0.6542
 5137TIP3   OH215416   0.871   5.411   3.751  0.3088 -0.1518 -0.4218
 5137TIP3    H115417   0.947   5.465   3.727  0.8397 -0.8446 -0.3154
 5137TIP3    H215418   0.798   5.472   3.748  0.8096  0.4514 -0.8884
 5138TIP3   OH215419   3.001   1.090   2.449  0.4656 -0.3157 -0.0605
 5138TIP3    H115420   2.922   1.139   2.473  0.4764 -0.0929 -0.4589
 5138TIP3    H215421   3.073   1.146   2.477  0.4930 -0.7419  0.7510
 5139TIP3   OH215422   4.477   4.187   0.436  0.0956 -0.1079  0.4853
 5139TIP3    H115423   4.517   4.273   0.451  1.0396 -0.3558 -0.4932
 5139TIP3    H215424   4.417   4.175   0.510  0.8775  0.8489  1.2973
 5140TIP3   OH215425   0.689   4.978   1.111 -0.6152 -0.4973 -0.4845
 5140TIP3    H115426   0.759   4.932   1.065  0.5692 -1.2562  1.9145
 5140TIP3    H215427   0.616   4.980   1.049  0.6693 -1.9954 -2.1255
 5141TIP3   OH215428   4.986   4.421   0.644  0.2149 -0.7662  0.1555
 5141TIP3    H115429   5.038   4.501   0.645  2.6539 -2.2513 -0.6027
 5141TIP3    H215430   4.948   4.418   0.555  1.4763 -1.2400 -0.3840
 5142TIP3   OH215431   5.990   1.522   2.243  0.2995 -0.0853  0.0391
 5142TIP3    H115432   6.085   1.516   2.254  1.0235 -0.7679 -4.6149
 5142TIP3    H215433   5.963   1.433   2.219 -0.8708  0.7109 -1.8306
 5143TIP3   OH215434   6.056   0.578   1.660 -0.2867 -0.2116 -0.4947
 5143TIP3    H115435   6.035   0.548   1.748  0.2522  0.8485  0.0160
 5143TIP3    H215436   6.148   0.554   1.647 -0.2004  0.1312 -0.5421
 5144TIP3   OH215437   5.960   2.626   1.658 -0.3893 -0.7015 -0.7150
 5144TIP3    H115438   5.874   2.593   1.681  0.1367 -0.1992  2.3723
 5144TIP3    H215439   6.019   2.590   1.724  1.5385  0.1173 -1.8806
 5145TIP3   OH215440   4.105   3.995   2.336  0.0504  0.6925  0.2492
 5145TIP3    H115441   4.134   4.049   2.409  0.5357 -0.5071  0.9774
 5145TIP3    H215442   4.011   3.980   2.353 -0.5512  2.7562 -0.9334
 5146TIP3   OH215443   2.674   1.473   0.936 -0.4070  0.1091 -0.1666
 5146TIP3    H115444   2.660   1.379   0.950 -1.7817  0.1391 -1.0795
 5146TIP3    H215445   2.667   1.511   1.023  0.3170 -0.6428  0.2350
 5147TIP3   OH215446   2.315   0.405   1.579 -0.4525  0.2374 -0.2736
 5147TIP3    H115447   2.330   0.313   1.599  0.1778  0.1932 -0.9092
 5147TIP3    H215448   2.254   0.404   1.506  0.4213  0.2820 -1.0229
 5148TIP3   OH215449   0.778   0.669   1.767  0.2544  0.7933  0.2521
 5148TIP3    H115450   0.800   0.753   1.728  1.8675  0.6494  0.7577
 5148TIP3    H215451   0.795   0.681   1.861  0.5453 -0.0883  0.3256
 5149TIP3   OH215452   4.576   5.518   1.918  0.2097  0.0273  0.5462
 5149TIP3    H115453   4.549   5.570   1.994 -0.4484 -0.7671  0.8792
 5149TIP3    H215454   4.515   5.443   1.918 -0.0514  0.2126 -0.9983
 5150TIP3   OH215455   0.728   2.720   0.875 -0.4407  0.1008 -0.7548
 5150TIP3    H115456   0.673   2.641   0.875 -0.1514 -0.1671  1.6834
 5150TIP3    H215457   0.672   2.788   0.914  0.3543  0.2646  0.1337
 5151TIP3   OH215458   3.441   2.838   1.456  0.0389 -0.0011  0.0855
 5151TIP3    H115459   3.383   2.849   1.381  0.1447 -0.5238 -0.0812
 5151TIP3    H215460   3.490   2.758   1.437  2.8863  1.8692 -1.1288
 5152TIP3   OH215461   2.799   2.290   3.567  0.2381 -0.7837 -0.1167
 5152TIP3    H115462   2.867   2.233   3.530 -0.1848 -0.0416 -2.1902
 5152TIP3    H215463   2.732   2.294   3.499 -0.9897  0.0575  1.0989
 5153TIP3   OH215464   3.612   1.545   4.274 -0.3618 -0.7231  0.3065
 5153TIP3    H115465   3.528   1.539   4.319  0.1643  1.1530  1.6204
 5153TIP3    H215466   3.589   1.559   4.182 -1.4555 -1.3271  0.4707
 5154TIP3   OH215467   4.071   2.107   3.923  0.2191  0.1821  0.3387
 5154TIP3    H115468   4.142   2.044   3.909 -0.6191 -0.9723  1.0278
 5154TIP3    H215469   4.028   2.076   4.003 -2.8389 -0.9739 -1.5746
 5155TIP3   OH215470   4.021   0.354   2.640  0.0145 -0.1588  0.0666
 5155TIP3    H115471   3.945   0.327   2.589 -0.7988  0.6645  0.7912
 5155TIP3    H215472   4.023   0.293   2.714 -0.5042  0.3617  0.5267
 5156TIP3   OH215473   2.232   0.064   2.515 -0.1475 -0.0799  0.1059
 5156TIP3    H115474   2.281   0.133   2.559 -0.3516 -1.0164  1.8779
 5156TIP3    H215475   2.278   0.051   2.432  0.6346  1.2954  0.2972
 5157TIP3   OH215476   0.508   1.848   2.507 -0.1826  0.0940  0.3924
 5157TIP3    H115477   0.561   1.913   2.463  0.0286  0.1882  0.7839
 5157TIP3    H215478   0.441   1.898   2.553  1.0467  0.1860  2.1731
 5158TIP3   OH215479   4.230   0.633   2.301 -0.3509 -0.0769 -0.1819
 5158TIP3    H115480   4.137   0.616   2.286 -0.0935 -0.0867 -1.8819
 5158TIP3    H215481   4.231   0.692   2.377 -1.7033 -0.5392  0.2237
 5159TIP3   OH215482   3.852   3.029   4.146 -0.1354 -0.1635 -0.4033
 5159TIP3    H115483   3.843   2.955   4.206 -0.3476 -1.6294 -2.1561
 5159TIP3    H215484   3.767   3.037   4.104  0.1832  0.4427 -0.9524
 5160TIP3   OH215485   5.605   4.163   3.986  0.0996 -0.1045  0.2171
 5160TIP3    H115486   5.519   4.122   3.980 -0.7156  1.5386  0.2233
 5160TIP3    H215487   5.639   4.137   4.072 -0.5613 -0.4250  0.3826
 5161TIP3   OH215488   2.414   3.112   5.115 -0.5097  0.3955 -0.2365
 5161TIP3    H115489   2.390   3.184   5.056  0.8033  0.6341 -0.5140
 5161TIP3    H215490   2.506   3.095   5.096 -0.3133 -0.1701  1.0862
 5162TIP3   OH215491   0.910   2.844   2.888 -0.0380  0.0067  0.2729
 5162TIP3    H115492   0.955   2.878   2.811 -2.0727  1.8209 -0.1834
 5162TIP3    H215493   0.872   2.761   2.858  1.6984 -0.8466  0.2722
 5163TIP3   OH215494   2.241   5.314   0.272  0.3824  0.1057  0.1418
 5163TIP3    H115495   2.286   5.396   0.292  0.8790  0.0281 -0.6162
 5163TIP3    H215496   2.310   5.248   0.273  0.3805  0.0494 -1.4521
 5164TIP3   OH215497   2.657   3.333   3.454  0.0785 -0.2951  0.0079
 5164TIP3    H115498   2.620   3.412   3.495 -0.3242  0.0763 -1.0429
 5164TIP3    H215499   2.611   3.325   3.371  1.1032 -0.8551 -0.5287
 5165TIP3   OH215500   2.969   1.238   2.840  0.6486  0.0620  0.3126
 5165TIP3    H115501   2.883   1.279   2.851 -0.0235 -0.4950 -2.2226
 5165TIP3    H215502   2.980   1.184   2.918 -1.8065 -0.6846  0.2241
 5166TIP3   OH215503   1.209   2.663   3.258  0.7477 -0.0435  0.4802
 5166TIP3    H115504   1.169   2.684   3.343  1.8050 -1.2299  1.2969
 5166TIP3    H215505   1.172   2.578   3.235  0.2116  0.4233 -0.4388
 5167TIP3   OH215506   1.423   5.673   1.508 -0.5528 -0.5448  0.0764
 5167TIP3    H115507   1.443   5.657   1.600  0.1597 -0.3778 -0.0444
 5167TIP3    H215508   1.402   5.767   1.504  0.4642 -0.3174 -0.1051
 5168TIP3   OH215509   1.057   3.511   3.224 -0.4587  0.1550  0.6570
 5168TIP3    H115510   1.127   3.553   3.175  1.2455 -0.4496  2.4671
 5168TIP3    H215511   1.032   3.435   3.170  2.1242 -1.1298  1.1145
 5169TIP3   OH215512   4.968   3.342   2.504 -0.1869  0.5089 -0.7590
 5169TIP3    H115513   4.967   3.366   2.411 -1.7555  1.0437 -0.6379
 5169TIP3    H215514   4.889   3.290   2.517  0.1137  0.2700  0.2469
 5170TIP3   OH215515   5.567   4.628   1.843  0.5339 -0.1593 -1.0497
 5170TIP3    H115516   5.634   4.601   1.779  0.0028 -1.0407 -1.2486
 5170TIP3    H215517   5.489   4.645   1.789  0.1710 -0.6109 -0.6731
 5171TIP3   OH215518   2.438   1.044   3.190  0.1674  0.5915  0.7596
 5171TIP3    H115519   2.374   1.001   3.247 -1.2826  1.4667 -0.1645
 5171TIP3    H215520   2.434   1.136   3.216  0.5389  0.7656  0.2036
 5172TIP3   OH215521   5.719   4.470   3.180 -0.0796 -0.3734 -0.2996
 5172TIP3    H115522   5.739   4.379   3.159  0.0758  0.0400 -2.0562
 5172TIP3    H215523   5.805   4.509   3.198  0.2666  0.1688 -2.7865
 5173TIP3   OH215524   1.628   3.813   5.080  0.1215  0.3020  0.2585
 5173TIP3    H115525   1.545   3.768   5.099 -1.2214  2.3902 -0.2741
 5173TIP3    H215526   1.668   3.761   5.010 -0.3173 -1.1999  1.0818
 5174TIP3   OH215527   4.165   2.904   2.536 -0.1361 -0.1609 -0.0022
 5174TIP3    H115528   4.231   2.936   2.474 -0.0711 -1.1457 -0.4666
 5174TIP3    H215529   4.097   2.971   2.535  1.1190  1.1816  0.9476
 5175TIP3   OH215530   0.810   4.060   2.578  0.4835 -0.1023 -0.1487
 5175TIP3    H115531   0.765   4.033   2.498  1.1479 -2.1732  0.1062
 5175TIP3    H215532   0.786   3.994   2.643  1.6513  0.3210  0.7535
 5176TIP3   OH215533   3.985   4.053   3.784  0.0096  0.8607 -0.3576
 5176TIP3    H115534   4.032   4.131   3.813  1.1586  0.5995 -1.3910
 5176TIP3    H215535   3.958   4.073   3.694 -4.2754  2.0157  0.9556
 5177TIP3   OH215536   2.742   1.478   4.424 -0.1417 -0.0906 -0.5168
 5177TIP3    H115537   2.829   1.499   4.390 -0.0401 -0.0104 -0.2075
 5177TIP3    H215538   2.754   1.396   4.472  0.0969  0.7117  0.8522
 5178TIP3   OH215539   4.117   2.049   1.046  0.0352  0.7750  0.1420
 5178TIP3    H115540   4.154   2.137   1.039 -1.1404  1.2857  0.1308
 5178TIP3    H215541   4.101   2.023   0.956 -2.0474  1.6518  0.1869
 5179TIP3   OH215542   2.685   5.330   1.459  0.1259  0.4772  0.1714
 5179TIP3    H115543   2.765   5.316   1.409  1.2428  0.1222  1.9420
 5179TIP3    H215544   2.623   5.267   1.424  0.9909 -0.0431 -0.4623
 5180TIP3   OH215545   1.606   5.211   4.196 -0.4891  0.0265  0.0822
 5180TIP3    H115546   1.621   5.127   4.153 -0.4957 -0.4435  0.9698
 5180TIP3    H215547   1.692   5.254   4.196 -0.1913 -0.5565  0.8048
 5181TIP3   OH215548   5.944   4.214   4.274 -0.2384  0.5450 -0.6078
 5181TIP3    H115549   5.892   4.194   4.196 -0.3606  2.1279 -0.9807
 5181TIP3    H215550   6.000   4.138   4.286  0.9811  0.9148 -3.2549
 5182TIP3   OH215551   6.333   1.531   4.054 -0.0691  0.1150  0.0829
 5182TIP3    H115552   6.283   1.612   4.043  1.4218  1.1973  0.9672
 5182TIP3    H215553   6.309   1.499   4.141 -1.0708 -0.7402 -0.4747
 5183TIP3   OH215554   4.241   3.322   1.061 -0.3934 -0.2533  0.7733
 5183TIP3    H115555   4.210   3.327   0.970  0.5001  1.0311  0.5253
 5183TIP3    H215556   4.316   3.262   1.057  1.8355  2.4132 -0.0228
 5184TIP3   OH215557   4.276   1.612   3.976 -0.3291 -0.1770  0.6428
 5184TIP3    H115558   4.349   1.654   3.929 -0.4865 -1.4734 -0.8615
 5184TIP3    H215559   4.319   1.550   4.035 -0.1708  0.2058  0.9325
 5185TIP3   OH215560   0.715   1.654   3.342 -0.1758  0.1294  0.4664
 5185TIP3    H115561   0.695   1.589   3.409  0.9548  0.1641  0.8721
 5185TIP3    H215562   0.799   1.691   3.370  0.2933  0.1869 -0.9385
 5186TIP3   OH215563   0.602   3.486   1.390  0.1552  0.4189 -0.2312
 5186TIP3    H115564   0.625   3.524   1.475  0.6886 -0.6198  0.1085
 5186TIP3    H215565   0.535   3.421   1.410  1.0789 -0.6230 -0.4330
 5187TIP3   OH215566   5.768   2.579   0.658  0.5215 -0.6406 -0.4486
 5187TIP3    H115567   5.790   2.490   0.631  1.4855 -0.1157 -1.4615
 5187TIP3    H215568   5.848   2.630   0.642  0.3494  0.2042  1.1404
 5188TIP3   OH215569   4.988   4.643   2.406 -0.1476 -0.4741  0.0836
 5188TIP3    H115570   4.967   4.614   2.317 -1.2098 -0.8658  0.4424
 5188TIP3    H215571   4.904   4.674   2.440  0.1121 -0.9632  1.1862
 5189TIP3   OH215572   1.191   0.200   3.223 -0.4793 -0.2877 -0.4754
 5189TIP3    H115573   1.188   0.133   3.292 -1.3675  0.2318  0.0143
 5189TIP3    H215574   1.134   0.270   3.256  1.5170  1.3569 -0.3211
 5190TIP3   OH215575   5.007   3.095   1.562  0.0383  0.4789  0.1792
 5190TIP3    H115576   5.084   3.145   1.587  0.7346 -0.1112 -0.7338
 5190TIP3    H215577   4.970   3.064   1.645  0.0728  1.7722  0.6967
 5191TIP3   OH215578   3.456   5.473   0.772  0.2144  0.4440  0.0173
 5191TIP3    H115579   3.460   5.492   0.679 -1.3135  2.1374  0.2408
 5191TIP3    H215580   3.525   5.528   0.810  2.1611 -1.6871 -0.2424
 5192TIP3   OH215581   5.004   0.192   2.275  0.2644 -0.1988  0.1105
 5192TIP3    H115582   5.074   0.251   2.303  0.8152  0.1310 -1.8075
 5192TIP3    H215583   4.961   0.238   2.202 -0.6939 -1.2328 -0.0171
 5193TIP3   OH215584   2.617   3.579   3.586  0.1472 -0.3548  0.5392
 5193TIP3    H115585   2.529   3.618   3.590 -0.1043 -0.1140 -3.4426
 5193TIP3    H215586   2.676   3.655   3.590 -0.0699 -0.0815 -0.8828
 5194TIP3   OH215587   1.211   1.434   2.340  0.5739  0.0213 -0.3557
 5194TIP3    H115588   1.168   1.373   2.280 -0.0561 -0.2360  0.3381
 5194TIP3    H215589   1.304   1.412   2.334  0.1797 -3.0439  2.0074
 5195TIP3   OH215590   3.708   1.026   0.515  0.1766  0.1631  0.2201
 5195TIP3    H115591   3.636   0.964   0.507  0.8256 -0.8019  1.5413
 5195TIP3    H215592   3.686   1.096   0.453 -1.8988 -0.0850  0.6107
 5196TIP3   OH215593   3.454   5.921   1.826  0.2378 -0.1619 -0.3973
 5196TIP3    H115594   3.378   5.878   1.787  0.4097 -0.8461 -0.0113
 5196TIP3    H215595   3.524   5.908   1.762  0.1695 -0.0239 -0.5009
 5197TIP3   OH215596   3.174   3.572   4.283  0.2703  0.2539  0.6154
 5197TIP3    H115597   3.237   3.632   4.242  0.3645  0.9102  1.6769
 5197TIP3    H215598   3.222   3.531   4.354  0.1373 -0.9492  0.0349
 5198TIP3   OH215599   0.075   3.981   4.208 -0.1269  0.1099 -0.1836
 5198TIP3    H115600   0.074   3.986   4.113 -1.7674 -1.0095 -0.2510
 5198TIP3    H215601   0.027   4.059   4.237 -0.0584  0.1852 -0.2716
 5199TIP3   OH215602   6.094   5.203   2.303  0.5834 -0.0491  0.1857
 5199TIP3    H115603   6.171   5.147   2.313  2.4719  2.3610  0.1603
 5199TIP3    H215604   6.129   5.292   2.302 -2.2076  1.1602 -0.1489
 5200TIP3   OH215605   0.180   2.994   0.187  0.1467 -0.2178 -0.1341
 5200TIP3    H115606   0.248   2.963   0.127 -0.9034  0.2510 -1.6110
 5200TIP3    H215607   0.182   3.089   0.177  1.3863  0.0730  2.2058
 5201TIP3   OH215608   3.048   3.177   0.821 -0.2755 -0.0925 -0.3237
 5201TIP3    H115609   3.070   3.106   0.881 -2.5091 -0.5191  0.1085
 5201TIP3    H215610   3.098   3.252   0.851 -0.0932 -0.7427  1.0491
 5202TIP3   OH215611   4.911   3.302   2.249 -0.0280 -0.3805  0.2774
 5202TIP3    H115612   4.966   3.345   2.184 -1.0200  0.3562 -0.0969
 5202TIP3    H215613   4.830   3.352   2.249 -0.4425 -1.0166  1.3262
 5203TIP3   OH215614   4.153   2.755   5.131  0.2870  0.3193 -0.6801
 5203TIP3    H115615   4.169   2.694   5.203 -0.2026  0.0464 -0.8022
 5203TIP3    H215616   4.129   2.700   5.057 -1.5813  0.7166 -0.4109
 5204TIP3   OH215617   3.527   3.892   2.265  0.0974  0.2204  0.1098
 5204TIP3    H115618   3.573   3.974   2.281  0.2599 -0.1124  1.4224
 5204TIP3    H215619   3.549   3.869   2.175  0.0048  1.6388 -0.2895
 5205TIP3   OH215620   4.229   5.384   0.766  0.7863 -0.4718 -0.5181
 5205TIP3    H115621   4.166   5.319   0.796 -1.0982  0.7755 -1.5720
 5205TIP3    H215622   4.232   5.372   0.671  2.6195 -0.8725 -0.4484
 5206TIP3   OH215623   2.628   4.533   0.247 -0.1190  0.1591  0.3686
 5206TIP3    H115624   2.625   4.615   0.199  0.7736 -0.8880 -1.5917
 5206TIP3    H215625   2.540   4.522   0.282 -0.8859  0.8755 -1.2498
 5207TIP3   OH215626   2.386   1.129   2.230  0.1497  0.5156  0.5566
 5207TIP3    H115627   2.439   1.206   2.209  1.2852 -0.4730 -0.3721
 5207TIP3    H215628   2.339   1.110   2.149 -1.8045  1.4462  1.3944
 5208TIP3   OH215629   4.930   0.165   3.639  0.0749 -0.4331 -0.5683
 5208TIP3    H115630   4.991   0.159   3.712  0.4776  0.8565 -0.7598
 5208TIP3    H215631   4.859   0.222   3.671  0.6553  0.8217 -1.4046
 5209TIP3   OH215632   0.275   2.318   3.694  0.1864  0.5842 -0.3598
 5209TIP3    H115633   0.366   2.291   3.701 -0.0172  0.1647  1.1046
 5209TIP3    H215634   0.225   2.242   3.724 -0.6411  0.8853 -0.9242
 5210TIP3   OH215635   1.504   2.373   0.931 -0.3118  0.3800  0.2862
 5210TIP3    H115636   1.418   2.414   0.921  0.5489  1.8957 -1.4778
 5210TIP3    H215637   1.537   2.365   0.841  1.2268 -0.5572  0.9002
 5211TIP3   OH215638   4.072   3.691   4.678  0.3458  0.0967  0.3716
 5211TIP3    H115639   4.141   3.726   4.621 -0.3756  2.8841  1.0385
 5211TIP3    H215640   4.057   3.602   4.647  2.9717  0.0386 -0.9476
 5212TIP3   OH215641   4.511   4.278   1.320 -0.0521  0.3492  0.0029
 5212TIP3    H115642   4.494   4.368   1.291 -1.5030 -0.2827 -1.2302
 5212TIP3    H215643   4.602   4.261   1.295  0.4952  1.6969  0.9493
 5213TIP3   OH215644   4.637   1.011   4.911 -0.1385 -0.0785 -0.1736
 5213TIP3    H115645   4.678   1.095   4.890  0.0455 -0.3717 -1.0541
 5213TIP3    H215646   4.550   1.034   4.943 -0.5911  0.4093 -1.6776
 5214TIP3   OH215647   2.339   3.785   1.597  0.7876  0.2152  0.2042
 5214TIP3    H115648   2.259   3.741   1.568  1.0952  1.4211 -2.7321
 5214TIP3    H215649   2.308   3.861   1.646  0.0908  0.9922 -1.4067
 5215TIP3   OH215650   6.111   1.350   0.567  0.0278 -0.0093  0.2247
 5215TIP3    H115651   6.120   1.368   0.474  0.8463  2.7464  0.7372
 5215TIP3    H215652   6.148   1.427   0.610 -1.4288 -0.6411  2.8351
 5216TIP3   OH215653   3.070   1.631   2.077  0.4206  0.6302  0.8929
 5216TIP3    H115654   3.028   1.562   2.129 -0.2766  1.4041  1.3907
 5216TIP3    H215655   3.160   1.602   2.065 -0.0799 -0.7704  0.3623
 5217TIP3   OH215656   3.077   4.925   1.699 -0.2990 -0.1567  0.2109
 5217TIP3    H115657   3.139   4.862   1.662  0.7601  1.2583 -0.5191
 5217TIP3    H215658   2.992   4.880   1.695  0.5184 -1.8017  0.4121
 5218TIP3   OH215659   1.268   1.248   0.596 -0.1471 -0.1397 -0.0659
 5218TIP3    H115660   1.344   1.216   0.645 -0.0195  0.9369  0.4512
 5218TIP3    H215661   1.237   1.324   0.645 -1.0247 -0.0332 -0.7582
 5219TIP3   OH215662   5.620   5.884   4.613  0.3828  0.6305 -0.3469
 5219TIP3    H115663   5.599   5.968   4.654  1.7891  1.0405 -0.4268
 5219TIP3    H215664   5.597   5.896   4.521  0.9519  1.0694 -0.4342
 5220TIP3   OH215665   1.374   2.393   2.110 -0.4716 -0.3189  0.6490
 5220TIP3    H115666   1.332   2.326   2.056 -0.3788  1.4766 -1.8294
 5220TIP3    H215667   1.343   2.476   2.075  5.3394  1.2924 -2.0086
 5221TIP3   OH215668   0.290   3.538   4.628 -0.2307 -0.7767  0.6172
 5221TIP3    H115669   0.254   3.622   4.601  0.6810 -0.8218 -0.8377
 5221TIP3    H215670   0.230   3.473   4.593  0.8163 -0.8251 -1.1895
 5222TIP3   OH215671   5.310   5.096   2.979  0.0032  0.5121  0.0534
 5222TIP3    H115672   5.300   5.080   3.073 -1.5362 -1.7006 -0.4188
 5222TIP3    H215673   5.403   5.083   2.962  0.3143  1.0066  1.2700
 5223TIP3   OH215674   1.644   4.796   1.753 -0.1388  0.0246  0.1591
 5223TIP3    H115675   1.650   4.799   1.849  0.5625 -0.8075  0.1632
 5223TIP3    H215676   1.645   4.702   1.733  0.8995  0.2069 -0.7129
 5224TIP3   OH215677   5.453   5.156   2.109  0.6076 -0.1301 -0.2838
 5224TIP3    H115678   5.374   5.105   2.092 -0.8105  1.5912  0.7440
 5224TIP3    H215679   5.439   5.238   2.062  0.7732  1.0344  1.5731
 5225TIP3   OH215680   0.453   2.488   3.975  0.2680  0.1617 -0.3915
 5225TIP3    H115681   0.508   2.494   4.053 -0.0510  0.4620 -0.1908
 5225TIP3    H215682   0.516   2.473   3.903  0.4694 -1.4343  0.0722
 5226TIP3   OH215683   4.739   0.524   2.613  0.1407  0.0192 -0.3097
 5226TIP3    H115684   4.774   0.490   2.695 -0.9229 -2.7096 -0.8866
 5226TIP3    H215685   4.685   0.599   2.639  1.1416  0.2430  1.2567
 5227TIP3   OH215686   4.487   4.514   4.087  0.5329  0.5785 -0.6450
 5227TIP3    H115687   4.437   4.461   4.025 -0.9604 -0.3583  1.2452
 5227TIP3    H215688   4.494   4.600   4.045 -0.3962 -0.0062 -2.0841
 5228TIP3   OH215689   4.942   3.545   4.050  0.5825 -0.4360 -0.1051
 5228TIP3    H115690   5.036   3.531   4.060  0.6288  0.2295  0.4119
 5228TIP3    H215691   4.933   3.640   4.038  0.1149 -0.6556 -1.7825
 5229TIP3   OH215692   4.336   0.966   0.569  0.3272  0.3704  0.5201
 5229TIP3    H115693   4.414   0.996   0.522  0.2754 -1.2078 -0.6460
 5229TIP3    H215694   4.360   0.880   0.604 -0.9839 -0.2857 -0.1296
 5230TIP3   OH215695   5.282   5.311   4.333 -0.2276 -0.4222  0.2894
 5230TIP3    H115696   5.187   5.296   4.335 -0.3823 -0.3267 -2.5545
 5230TIP3    H215697   5.291   5.406   4.342 -0.5305 -0.2599 -0.9881
 5231TIP3   OH215698   3.284   0.085   1.180  0.3276  0.2951  0.2457
 5231TIP3    H115699   3.278  -0.006   1.208 -0.6397  0.0714 -0.6486
 5231TIP3    H215700   3.366   0.116   1.219  0.9770 -1.1129  0.0765
 5232TIP3   OH215701   0.254   3.385   0.347  0.1676 -0.4612 -0.9955
 5232TIP3    H115702   0.233   3.468   0.389 -1.4449 -0.8711 -0.9256
 5232TIP3    H215703   0.316   3.344   0.406  1.4570  0.9247 -1.3260
 5233TIP3   OH215704   2.352   1.180   3.784  0.9117  0.3516 -0.0701
 5233TIP3    H115705   2.422   1.205   3.844  0.7453  0.4090  0.1034
 5233TIP3    H215706   2.345   1.253   3.722  0.1929  0.9058  0.6452
 5234TIP3   OH215707   3.906   2.918   0.335 -0.7087  0.2507 -0.0850
 5234TIP3    H115708   3.936   2.894   0.422 -0.5085  1.0061  0.0612
 5234TIP3    H215709   3.813   2.894   0.335 -1.1680  1.8436  0.9683
 5235TIP3   OH215710   0.144   2.372   3.277 -0.6717 -0.1540  0.0394
 5235TIP3    H115711   0.079   2.410   3.336 -1.6779  1.0998 -1.7625
 5235TIP3    H215712   0.203   2.322   3.334 -0.8370  1.9811  2.2603
 5236TIP3   OH215713   2.500   4.178   0.394  0.0026 -0.2054 -0.2441
 5236TIP3    H115714   2.526   4.253   0.449 -0.1589 -1.1063  1.1070
 5236TIP3    H215715   2.405   4.182   0.391 -0.1034 -1.1489  1.0431
 5237TIP3   OH215716   0.286   2.468   1.223  0.3144  0.7297  0.0537
 5237TIP3    H115717   0.206   2.475   1.275 -0.1911  1.8668 -0.8385
 5237TIP3    H215718   0.265   2.402   1.156  0.8924 -0.5763  1.1216
 5238TIP3   OH215719   3.463   5.269   0.339  0.1734  0.0819  0.6382
 5238TIP3    H115720   3.405   5.195   0.355  0.2435 -0.0830  0.1291
 5238TIP3    H215721   3.499   5.254   0.252 -1.3372  1.7174 -0.3398
 5239TIP3   OH215722   3.497   3.418   1.092  1.1703 -0.3967 -0.4726
 5239TIP3    H115723   3.509   3.512   1.105  1.6736 -0.3544 -1.1854
 5239TIP3    H215724   3.481   3.409   0.998 -1.0363 -0.8174 -0.1051
 5240TIP3   OH215725   3.995   0.859   2.910 -0.4567  0.2063 -0.4718
 5240TIP3    H115726   4.061   0.798   2.942 -0.5943  0.6463  0.7414
 5240TIP3    H215727   4.039   0.943   2.908 -0.7956  0.3921 -0.2576
 5241TIP3   OH215728   4.004   1.068   3.541  0.0482 -0.3839 -0.0205
 5241TIP3    H115729   3.959   1.138   3.589  1.1778  0.1878  0.2271
 5241TIP3    H215730   3.979   1.082   3.450 -1.2308 -0.8170  0.2325
 5242TIP3   OH215731   0.531   5.613   4.436 -0.0861 -0.0081 -0.2474
 5242TIP3    H115732   0.571   5.584   4.517  1.6009 -2.6247 -1.8606
 5242TIP3    H215733   0.596   5.670   4.396  0.0169 -0.4666 -0.7402
 5243TIP3   OH215734   5.115   4.594   5.026  0.5951 -0.1444  0.7340
 5243TIP3    H115735   5.045   4.658   5.032 -0.7510 -1.5576  0.7839
 5243TIP3    H215736   5.097   4.545   4.945  0.1749 -1.9873  1.8736
 5244TIP3   OH215737   4.411   0.898   2.071  0.2259 -0.9281 -0.2221
 5244TIP3    H115738   4.331   0.951   2.067  0.0018 -1.3033 -0.9543
 5244TIP3    H215739   4.464   0.929   1.998  1.2014 -0.0110  0.8357
 5245TIP3   OH215740   1.719   3.605   2.708 -0.6296  0.4814 -0.0133
 5245TIP3    H115741   1.746   3.562   2.627 -0.5763  2.0729 -0.8784
 5245TIP3    H215742   1.713   3.534   2.772  0.4621 -0.6507 -1.1098
 5246TIP3   OH215743   4.879   2.600   1.510  0.5838  0.4278 -0.8023
 5246TIP3    H115744   4.858   2.688   1.481 -0.9472  0.8270  1.3272
 5246TIP3    H215745   4.925   2.612   1.593  1.6515 -0.7504 -1.1983
 5247TIP3   OH215746   2.597   5.473   4.698  0.1409 -0.6310 -0.5633
 5247TIP3    H115747   2.541   5.545   4.669  1.6558  0.5966 -0.5034
 5247TIP3    H215748   2.540   5.420   4.754 -0.9369  0.6593 -0.3844
 5248TIP3   OH215749   4.631   3.786   0.947 -0.2116 -0.0775 -0.3371
 5248TIP3    H115750   4.688   3.710   0.936 -0.9779 -1.0950  2.0979
 5248TIP3    H215751   4.592   3.799   0.861  1.0778 -1.4758 -1.1946
 5249TIP3   OH215752   3.139   0.584   3.080  0.5325  0.3616  0.1951
 5249TIP3    H115753   3.195   0.506   3.074 -1.2443 -0.8770 -1.4080
 5249TIP3    H215754   3.186   0.650   3.029  1.5010  0.0054  0.5946
 5250TIP3   OH215755   5.214   5.271   1.833  0.1547 -0.2247 -0.1470
 5250TIP3    H115756   5.236   5.234   1.747  0.5959 -2.0354  0.6969
 5250TIP3    H215757   5.269   5.348   1.841  2.6933 -1.9254 -0.1223
 5251TIP3   OH215758   0.379   0.804   1.183  0.4150 -0.2252 -0.4590
 5251TIP3    H115759   0.359   0.834   1.094  0.0700  2.0002  0.3126
 5251TIP3    H215760   0.296   0.770   1.217  0.2009  0.2253 -0.5222
 5252TIP3   OH215761   4.735   4.980   2.519 -0.3945  0.0135 -0.1084
 5252TIP3    H115762   4.796   5.053   2.508 -0.7190  0.1640 -0.9821
 5252TIP3    H215763   4.648   5.022   2.518 -0.5448 -0.2841  0.3320
 5253TIP3   OH215764   0.313   5.833   3.855  0.5582 -0.0903 -0.3681
 5253TIP3    H115765   0.257   5.909   3.869 -0.8426 -1.2835  0.7814
 5253TIP3    H215766   0.394   5.853   3.903 -0.0235  0.4346  0.4156
 5254TIP3   OH215767   5.632   5.824   3.880  0.1721  0.4457  0.2498
 5254TIP3    H115768   5.600   5.735   3.868  0.8286  0.0722  1.1182
 5254TIP3    H215769   5.711   5.814   3.933 -0.9492  1.6933  2.3210
 5255TIP3   OH215770   0.257   5.568   1.319 -0.2435 -0.0283  0.5464
 5255TIP3    H115771   0.260   5.555   1.224 -0.5280 -1.2363  0.6961
 5255TIP3    H215772   0.349   5.574   1.345 -0.0959 -1.5384  0.4260
 5256TIP3   OH215773   4.278   1.518   1.314 -0.6851 -0.3087 -0.5291
 5256TIP3    H115774   4.200   1.568   1.337  0.8360  1.8940  0.1143
 5256TIP3    H215775   4.244   1.440   1.269 -3.3088 -0.4382  1.4703
 5257TIP3   OH215776   2.823   5.730   0.276 -0.2261  0.5552 -0.2675
 5257TIP3    H115777   2.788   5.799   0.333  0.1416  0.2989  0.2787
 5257TIP3    H215778   2.823   5.769   0.189 -1.8381  0.5679 -0.2900
 5258TIP3   OH215779   5.850   3.662   0.025 -0.5544 -0.2884  0.0060
 5258TIP3    H115780   5.818   3.729  -0.036  0.0641  0.2267  0.2432
 5258TIP3    H215781   5.774   3.605   0.038 -1.1228  0.4144 -0.1279
 5259TIP3   OH215782   5.598   4.650   3.017 -0.1546 -0.4040  0.0766
 5259TIP3    H115783   5.673   4.709   3.005  0.8648 -2.0801 -2.6035
 5259TIP3    H215784   5.633   4.574   3.063 -0.1307 -1.2424 -1.2777
 5260TIP3   OH215785   4.008   4.625   0.778 -0.4607  0.2581  0.2624
 5260TIP3    H115786   3.972   4.708   0.748  0.0595  0.6499  0.6893
 5260TIP3    H215787   4.031   4.578   0.698  0.9629  1.3045  0.0125
 5261TIP3   OH215788   2.988   2.467   3.310 -0.3775  0.1325 -0.3407
 5261TIP3    H115789   3.016   2.411   3.237 -0.1164  0.8741 -0.8332
 5261TIP3    H215790   2.893   2.469   3.304 -0.4337 -0.8522  0.1419
 5262TIP3   OH215791   2.514   2.387   2.569 -0.3319  0.0375 -0.2132
 5262TIP3    H115792   2.544   2.432   2.491  2.2127 -1.2719 -0.0969
 5262TIP3    H215793   2.511   2.454   2.637 -0.4696  0.7710 -0.9392
 5263TIP3   OH215794   1.952   3.314   4.961 -0.3071  0.1674 -0.1486
 5263TIP3    H115795   2.037   3.313   5.005 -0.4056  0.2222  0.0474
 5263TIP3    H215796   1.966   3.366   4.882 -0.2280  0.4206  0.0293
 5264TIP3   OH215797   1.456   2.961   0.143  0.1460 -0.2847 -0.5418
 5264TIP3    H115798   1.409   3.011   0.077  0.8488 -0.7685 -1.4302
 5264TIP3    H215799   1.399   2.887   0.162 -0.7576  0.6456  0.5517
 5265TIP3   OH215800   0.934   0.758   4.945 -0.4092 -0.3113 -0.1045
 5265TIP3    H115801   1.020   0.753   4.986 -0.7432  1.5447  0.9255
 5265TIP3    H215802   0.881   0.809   5.006 -1.3521  1.3009 -2.1560
 5266TIP3   OH215803   4.283   2.174   0.007  0.5652 -0.2057 -0.1855
 5266TIP3    H115804   4.377   2.169   0.023  0.5311  1.5375  0.7877
 5266TIP3    H215805   4.262   2.268   0.013 -1.4443 -0.6726  0.9205
 5267TIP3   OH215806   2.535   2.285   3.475  0.0034 -0.3583 -0.2360
 5267TIP3    H115807   2.507   2.357   3.533 -1.0160 -0.7465 -0.2231
 5267TIP3    H215808   2.507   2.206   3.521 -2.6568 -0.6367 -2.1350
 5268TIP3   OH215809   1.723   1.203   1.546  0.0667 -0.4706  0.4473
 5268TIP3    H115810   1.751   1.231   1.633  1.1359  0.0563 -0.0442
 5268TIP3    H215811   1.633   1.236   1.539  0.3070  0.3440  0.9849
 5269TIP3   OH215812   4.985   2.535   4.824 -0.5266  0.0334  0.2148
 5269TIP3    H115813   5.057   2.596   4.810  0.4598 -0.4566  2.6261
 5269TIP3    H215814   5.002   2.463   4.762  1.8773 -0.7055  1.6172
 5270TIP3   OH215815   1.912   2.151   1.355 -0.2822 -0.7424 -0.1319
 5270TIP3    H115816   1.911   2.149   1.451 -1.1524 -2.7108 -0.1251
 5270TIP3    H215817   1.822   2.175   1.332  0.2202  0.9186 -0.4992
 5271TIP3   OH215818   1.298   3.908   0.696 -0.0849 -0.2859 -0.5614
 5271TIP3    H115819   1.388   3.902   0.729  0.3384 -3.1355 -1.9489
 5271TIP3    H215820   1.259   3.823   0.715 -3.5082  1.6403  2.4014
 5272TIP3   OH215821   4.690   0.388   1.629  0.2134 -0.4727 -0.1027
 5272TIP3    H115822   4.630   0.359   1.560 -1.0456 -0.6939  1.0378
 5272TIP3    H215823   4.777   0.365   1.597 -0.4653 -2.0614 -0.8980
 5273TIP3   OH215824   2.193   1.792   0.270 -0.0880 -0.1855  0.1876
 5273TIP3    H115825   2.130   1.861   0.289 -2.1817 -1.6783 -1.0083
 5273TIP3    H215826   2.182   1.728   0.340 -0.3733 -0.7520 -0.3610
 5274TIP3   OH215827   2.369   4.538   5.125  0.2690  0.1647  0.4541
 5274TIP3    H115828   2.348   4.623   5.088 -0.0684 -0.7246 -1.5192
 5274TIP3    H215829   2.464   4.538   5.136  0.6767 -0.2088 -2.3664
 5275TIP3   OH215830   1.910   4.612   0.410 -0.2295 -0.4395  0.2960
 5275TIP3    H115831   1.893   4.667   0.486  0.8999  0.8297 -0.3317
 5275TIP3    H215832   1.940   4.673   0.342 -0.6502 -1.6064 -0.9936
 5276TIP3   OH215833   4.352   1.909   2.138 -0.0635 -0.0933 -0.6890
 5276TIP3    H115834   4.407   1.834   2.116 -1.0124 -1.4412  1.2830
 5276TIP3    H215835   4.359   1.918   2.233 -0.1389  2.2265 -0.8382
 5277TIP3   OH215836   5.046   1.308   1.265 -0.0992 -0.2696 -0.3641
 5277TIP3    H115837   5.117   1.364   1.237  0.9832 -0.7466  1.2650
 5277TIP3    H215838   4.974   1.368   1.284 -0.1090  0.2323 -1.8544
 5278TIP3   OH215839   2.217   0.990   1.446  0.3929  0.4515 -0.4886
 5278TIP3    H115840   2.216   0.922   1.378 -1.8052 -0.7566  0.6340
 5278TIP3    H215841   2.176   0.949   1.522  0.9017  2.4120  0.9427
 5279TIP3   OH215842   4.793   1.682   2.881 -0.0646  0.3938 -0.1681
 5279TIP3    H115843   4.812   1.596   2.919 -0.7845 -0.4415 -1.6073
 5279TIP3    H215844   4.860   1.740   2.917  1.4411 -1.1216 -0.4134
 5280TIP3   OH215845   5.944   4.080   3.957 -0.7493 -0.5541 -0.6881
 5280TIP3    H115846   5.984   4.069   3.870 -2.2853  1.3606 -1.7137
 5280TIP3    H215847   5.986   4.012   4.011  2.6066  0.2042 -2.0634
 5281TIP3   OH215848   2.864   1.485   3.538  0.2523 -0.4652 -0.1000
 5281TIP3    H115849   2.896   1.421   3.602 -0.6074 -0.8659 -0.0646
 5281TIP3    H215850   2.797   1.534   3.584 -0.6998 -1.0566 -0.8200
 5282TIP3   OH215851   1.001   5.572   2.502  0.2309 -0.3836  0.1728
 5282TIP3    H115852   0.941   5.509   2.464  0.5570 -0.4814 -0.1908
 5282TIP3    H215853   1.066   5.588   2.433  0.2766  0.1752  0.3417
 5283TIP3   OH215854   6.309   0.212   2.469 -0.1030 -0.1697 -0.2361
 5283TIP3    H115855   6.309   0.166   2.386 -1.0531 -1.3553  0.4050
 5283TIP3    H215856   6.384   0.176   2.517 -1.8240 -2.3973  0.9446
 5284TIP3   OH215857   4.342   1.404   1.906  0.1442 -0.3638 -0.3079
 5284TIP3    H115858   4.262   1.357   1.882  0.0389 -0.7852  0.7951
 5284TIP3    H215859   4.406   1.376   1.840 -0.9357  1.0439 -2.0332
 5285TIP3   OH215860   0.390   1.119   2.747 -0.2945 -0.4775  0.0700
 5285TIP3    H115861   0.369   1.187   2.811 -0.9429  1.6775 -2.2691
 5285TIP3    H215862   0.455   1.159   2.689 -0.0692 -2.1602 -0.9085
 5286TIP3   OH215863   5.921   0.942   4.418  0.9457 -0.4095  0.3776
 5286TIP3    H115864   5.928   0.887   4.340 -0.4155  0.0191 -0.0714
 5286TIP3    H215865   5.994   1.004   4.410  0.9089 -0.4643 -0.4669
 5287TIP3   OH215866   1.235   2.412   4.881  0.1407  0.1690 -0.1063
 5287TIP3    H115867   1.262   2.502   4.861 -0.9096  0.3005 -0.9847
 5287TIP3    H215868   1.315   2.371   4.915  0.3005  1.8056  1.6400
 5288TIP3   OH215869   1.100   0.198   0.487 -0.2494  0.6656 -0.2783
 5288TIP3    H115870   1.059   0.283   0.476 -2.3271 -0.2378  0.1145
 5288TIP3    H215871   1.171   0.197   0.422 -2.0519  1.5846 -2.3671
 5289TIP3   OH215872   5.354   5.804   5.112  0.0810 -0.0998  0.1317
 5289TIP3    H115873   5.376   5.828   5.021 -1.9343 -0.5527 -0.5298
 5289TIP3    H215874   5.414   5.732   5.133 -0.6550 -1.2521 -1.5293
 5290TIP3   OH215875   1.507   3.834   0.500  0.4228 -0.2891 -0.3287
 5290TIP3    H115876   1.505   3.871   0.588 -1.1874  0.4229 -0.6399
 5290TIP3    H215877   1.583   3.775   0.501  2.3267  2.0186  0.5646
 5291TIP3   OH215878   5.030   4.216   1.557  0.2908 -0.4494 -0.9147
 5291TIP3    H115879   5.005   4.166   1.635  1.0218  2.2145  1.1996
 5291TIP3    H215880   4.953   4.269   1.536  1.0377  1.1285  0.0456
 5292TIP3   OH215881   3.864   0.920   3.828 -0.0009  0.1721 -0.6091
 5292TIP3    H115882   3.820   0.857   3.771  1.1112 -0.4589 -0.7853
 5292TIP3    H215883   3.814   0.918   3.909  1.1465 -2.4391  0.1340
 5293TIP3   OH215884   5.670   1.582   1.195 -0.4178 -0.0879 -0.0050
 5293TIP3    H115885   5.585   1.625   1.199 -0.0102  1.0697 -2.2228
 5293TIP3    H215886   5.733   1.651   1.214  0.1087 -0.4510 -0.4002
 5294TIP3   OH215887   2.708   2.053   0.687  0.2102 -0.0680  0.2943
 5294TIP3    H115888   2.675   2.134   0.647  1.0320  0.5279  0.7905
 5294TIP3    H215889   2.666   1.983   0.637  0.5252  0.6560 -1.0488
 5295TIP3   OH215890   0.389   3.891   3.750 -0.0481 -0.3348 -0.0242
 5295TIP3    H115891   0.412   3.961   3.689  1.0244 -0.0075  0.7276
 5295TIP3    H215892   0.442   3.816   3.723  0.8280 -0.0301  0.8061
 5296TIP3   OH215893   5.255   5.021   1.450  0.3510 -0.5959 -0.0177
 5296TIP3    H115894   5.248   5.109   1.487 -0.8030  0.1844 -1.9617
 5296TIP3    H215895   5.349   5.005   1.445  0.8359  2.1170 -3.0031
 5297TIP3   OH215896   1.899   0.966   0.427  0.1594  0.1177 -0.3375
 5297TIP3    H115897   1.896   1.060   0.445  0.8475  0.1168 -0.1597
 5297TIP3    H215898   1.955   0.930   0.496 -1.2641 -0.6524  0.4696
 5298TIP3   OH215899   1.944   0.006   2.000  0.2957  0.0705 -0.5985
 5298TIP3    H115900   1.915   0.095   1.980 -1.7626 -0.4020  0.0115
 5298TIP3    H215901   1.867  -0.036   2.039  1.4516 -1.7482 -0.1523
 5299TIP3   OH215902   4.979   5.281   2.246 -0.0979 -0.5482  0.2119
 5299TIP3    H115903   5.007   5.291   2.155 -2.5065 -0.5319 -0.5879
 5299TIP3    H215904   4.976   5.186   2.260  1.6304 -0.5605  0.7869
 5300TIP3   OH215905   1.841   1.955   1.830  0.3209 -0.4617 -0.3233
 5300TIP3    H115906   1.795   1.949   1.914  0.8065  0.0230 -0.0134
 5300TIP3    H215907   1.911   1.890   1.837  2.1218  1.4786  0.8057
 5301TIP3   OH215908   2.492   0.399   1.853  0.2780  0.1878  0.6747
 5301TIP3    H115909   2.443   0.436   1.780 -0.5281  0.6259  1.4204
 5301TIP3    H215910   2.563   0.461   1.869  1.0285 -0.3939 -0.3386
 5302TIP3   OH215911   2.283   1.773   2.732 -0.0688  0.0509 -0.3683
 5302TIP3    H115912   2.324   1.709   2.789  0.9507  1.4090  0.4894
 5302TIP3    H215913   2.192   1.745   2.726  0.1730 -1.0124  0.6154
 5303TIP3   OH215914   1.250   4.314   0.594 -0.2809 -0.2175  0.7462
 5303TIP3    H115915   1.248   4.292   0.688 -1.3852 -0.1795  0.7433
 5303TIP3    H215916   1.174   4.269   0.557  0.7531 -1.1284 -0.3576
 5304TIP3   OH215917   2.736   0.140   1.490  0.2559  0.7559 -0.1576
 5304TIP3    H115918   2.823   0.177   1.472 -0.3382  2.4763  0.3454
 5304TIP3    H215919   2.690   0.147   1.407  1.2170 -2.2293 -1.0934
 5305TIP3   OH215920   1.128   5.165   2.763  0.2474 -0.3441 -0.0854
 5305TIP3    H115921   1.061   5.229   2.791 -0.0721 -0.6600 -0.1185
 5305TIP3    H215922   1.198   5.219   2.727  0.5173  0.0671  1.0060
 5306TIP3   OH215923   5.796   2.902   1.383  0.2000 -0.1404 -0.4433
 5306TIP3    H115924   5.750   2.903   1.299 -1.2500  3.0844  0.2536
 5306TIP3    H215925   5.886   2.925   1.361  0.3866 -1.5607 -1.2983
 5307TIP3   OH215926   1.401   0.417   3.212 -0.1642 -0.2772 -0.2601
 5307TIP3    H115927   1.482   0.437   3.259  0.7837 -0.0374 -1.8948
 5307TIP3    H215928   1.336   0.476   3.249  0.1596 -1.1106  1.7243
 5308TIP3   OH215929   2.416   4.590   2.277  0.4960 -0.3102  0.1567
 5308TIP3    H115930   2.351   4.546   2.332  0.8390 -2.2282 -0.8932
 5308TIP3    H215931   2.419   4.679   2.311 -3.1314  0.0878 -0.1308
 5309TIP3   OH215932   2.559   4.341   3.527 -0.0186  0.4234  0.3062
 5309TIP3    H115933   2.547   4.421   3.475 -0.3561  0.4923  0.4868
 5309TIP3    H215934   2.641   4.305   3.496  0.5085  1.2262  0.7264
 5310TIP3   OH215935   0.575   5.956   5.103 -0.1492 -0.3858  0.3656
 5310TIP3    H115936   0.627   5.915   5.034  0.3396  0.5418  0.1694
 5310TIP3    H215937   0.495   5.985   5.058  0.7863  1.5288 -0.1803
 5311TIP3   OH215938   4.754   3.186   2.584  0.1121  0.4635  0.1442
 5311TIP3    H115939   4.789   3.101   2.609  1.2410  0.9041  0.1380
 5311TIP3    H215940   4.735   3.178   2.491  0.8499  0.4088 -0.0104
 5312TIP3   OH215941   3.970   0.937   5.191 -0.1462 -0.5651 -0.0169
 5312TIP3    H115942   3.984   1.025   5.225 -0.5991  0.2548 -1.8343
 5312TIP3    H215943   3.990   0.944   5.098 -1.2748 -2.1065 -0.4151
 5313TIP3   OH215944   1.746   5.456   1.149 -0.0062  0.2160  0.0752
 5313TIP3    H115945   1.783   5.510   1.219 -0.5576  0.2264  0.3695
 5313TIP3    H215946   1.664   5.422   1.186 -0.6996  0.8416 -0.8276
 5314TIP3   OH215947   3.595   3.318   5.033 -0.1202 -0.3849  0.0856
 5314TIP3    H115948   3.645   3.385   5.080  0.3521  0.2127 -1.2162
 5314TIP3    H215949   3.557   3.364   4.958 -0.4802 -1.3987 -0.3765
 5315TIP3   OH215950   5.915   5.568   2.312 -0.2263  0.1593  0.3343
 5315TIP3    H115951   5.926   5.558   2.407  2.0707 -1.3827 -0.0185
 5315TIP3    H215952   5.821   5.561   2.298 -0.5671 -0.2287  2.4372
 5316TIP3   OH215953   0.399   3.310   4.981 -0.3712 -0.2793  0.4707
 5316TIP3    H115954   0.344   3.232   4.970 -1.7606  0.8005 -0.7809
 5316TIP3    H215955   0.339   3.376   5.018  0.0566  0.9231 -0.8844
 5317TIP3   OH215956   0.049   0.765   2.654 -0.7630  0.7125 -0.5147
 5317TIP3    H115957  -0.011   0.825   2.698 -1.8055  0.2085 -1.2349
 5317TIP3    H215958  -0.007   0.703   2.608  0.2966  0.7270 -1.8931
 5318TIP3   OH215959   1.112   4.163   2.390 -0.1743  0.4690 -0.5348
 5318TIP3    H115960   1.058   4.105   2.336 -1.3390  1.6860 -0.7293
 5318TIP3    H215961   1.198   4.122   2.391 -0.8307 -0.9944 -1.0779
 5319TIP3   OH215962   1.151   4.255   2.983  0.6711  0.6925 -0.4347
 5319TIP3    H115963   1.139   4.160   2.980 -0.4489  0.8506 -1.4499
 5319TIP3    H215964   1.241   4.268   2.956  0.5776 -0.0404 -1.1630
 5320TIP3   OH215965   5.673   3.831   3.742 -0.1717  0.2713  0.0424
 5320TIP3    H115966   5.682   3.802   3.832 -1.3619  1.6665  0.6586
 5320TIP3    H215967   5.633   3.757   3.697 -1.2857  0.1932  1.1090
 5321TIP3   OH215968   0.023   1.867   2.084  0.1012  0.3579  0.0329
 5321TIP3    H115969   0.093   1.927   2.063 -0.3217  1.1284  0.7686
 5321TIP3    H215970  -0.054   1.902   2.040  0.2200 -0.6772 -1.0683
 5322TIP3   OH215971   5.711   1.005   3.438  0.4985  0.0824  0.5584
 5322TIP3    H115972   5.731   0.939   3.504 -1.6398 -0.0229  1.1665
 5322TIP3    H215973   5.677   1.079   3.488 -1.6803 -0.1989 -0.3977
 5323TIP3   OH215974   1.950   3.177   3.891 -0.6530 -0.1905  0.0240
 5323TIP3    H115975   1.890   3.152   3.961 -2.5292  0.4984 -1.2646
 5323TIP3    H215976   1.920   3.263   3.863  0.1513 -0.3787 -1.5143
 5324TIP3   OH215977   5.719   0.772   3.979  0.7863  0.0165 -0.1107
 5324TIP3    H115978   5.784   0.837   4.007  0.2089  0.2560  0.6926
 5324TIP3    H215979   5.644   0.787   4.036 -0.0774 -0.0980 -1.1921
 5325TIP3   OH215980   3.144   1.280   3.542 -0.4023 -0.0641  0.3931
 5325TIP3    H115981   3.101   1.297   3.626 -0.6641 -0.2117  0.2876
 5325TIP3    H215982   3.079   1.235   3.490  0.3895 -1.7024  0.7659
 5326TIP3   OH215983   0.008   2.221   4.051 -0.5115  0.6358 -0.1391
 5326TIP3    H115984   0.098   2.211   4.081 -0.6587  0.6086  0.2985
 5326TIP3    H215985  -0.009   2.142   3.999 -0.4138  0.4437  0.1160
 5327TIP3   OH215986   2.790   0.886   0.276  0.1209 -0.0570  0.6662
 5327TIP3    H115987   2.721   0.953   0.267 -0.6365 -0.4241  2.9585
 5327TIP3    H215988   2.744   0.803   0.264  0.8712 -0.2564 -1.1593
 5328TIP3   OH215989   0.996   3.956   0.730  0.3310 -0.1674 -0.4309
 5328TIP3    H115990   1.085   3.984   0.755 -0.0044 -1.5904  2.9064
 5328TIP3    H215991   0.940   4.030   0.756  0.2407 -0.6565  0.8417
 5329TIP3   OH215992   1.012   3.266   1.054 -0.6710 -0.2453  0.5550
 5329TIP3    H115993   1.070   3.201   1.093 -2.0661 -1.0295  1.4022
 5329TIP3    H215994   0.955   3.215   0.997  1.0227  0.8097 -2.3110
 5330TIP3   OH215995   2.803   0.056   4.534 -0.2347  0.5701 -0.8424
 5330TIP3    H115996   2.772  -0.011   4.473 -0.5173  1.9673 -2.2879
 5330TIP3    H215997   2.862   0.009   4.593 -1.1530 -1.1301 -1.2173
 5331TIP3   OH215998   2.416   4.185   4.481 -0.1429 -0.1435  0.5036
 5331TIP3    H115999   2.421   4.183   4.577  1.4276 -0.4516  0.4344
 5331TIP3    H216000   2.436   4.095   4.454 -3.8767 -0.9906 -0.0681
 5332TIP3   OH216001   2.557   5.091   3.513  0.0159  0.1446  0.5084
 5332TIP3    H116002   2.585   5.153   3.446 -2.1230  0.1967 -0.4085
 5332TIP3    H216003   2.569   5.005   3.473 -0.3925  0.1347  0.4036
 5333TIP3   OH216004   4.349   4.124   0.996  0.3736  0.4641  0.4895
 5333TIP3    H116005   4.331   4.093   0.907 -0.7420 -0.9817  1.1674
 5333TIP3    H216006   4.432   4.170   0.989  1.2652 -1.2256 -0.9558
 5334TIP3   OH216007   5.882   5.323   0.985 -0.3394  0.5036  0.1593
 5334TIP3    H116008   5.811   5.300   1.045  0.2146  1.4161  1.1990
 5334TIP3    H216009   5.846   5.306   0.898 -1.8476  0.9563  0.6592
 5335TIP3   OH216010   4.608   1.078   1.316  0.3829  0.3452 -0.3476
 5335TIP3    H116011   4.574   0.993   1.289  0.2201  0.4638 -0.5222
 5335TIP3    H216012   4.650   1.062   1.400  2.6596 -0.4461 -1.5530
 5336TIP3   OH216013   4.706   5.309   3.683  0.5902  0.0716  0.0074
 5336TIP3    H116014   4.704   5.262   3.600  0.4442 -1.3714  0.8091
 5336TIP3    H216015   4.764   5.257   3.739  1.4188  1.5130  0.5439
 5337TIP3   OH216016   3.398   5.179   3.228 -0.0741  0.0933 -0.1313
 5337TIP3    H116017   3.356   5.253   3.273  1.0724 -0.4378  1.9909
 5337TIP3    H216018   3.331   5.112   3.224 -1.0106  1.0649 -1.7207
 5338TIP3   OH216019   3.267   4.310   2.357  0.2400 -0.4687  0.3716
 5338TIP3    H116020   3.277   4.296   2.452 -2.6511 -1.1652  0.6821
 5338TIP3    H216021   3.204   4.243   2.330 -0.5693  1.0264 -1.6546
 5339TIP3   OH216022   4.445   1.359   3.301 -1.0658  0.5051  0.1937
 5339TIP3    H116023   4.527   1.364   3.351 -0.7070 -0.8278 -0.2248
 5339TIP3    H216024   4.384   1.414   3.350  0.2618  2.1187  0.1173
 5340TIP3   OH216025   1.302   1.317   0.989 -0.1602 -0.6161 -0.3848
 5340TIP3    H116026   1.377   1.317   1.048 -0.7758 -2.1372  0.4755
 5340TIP3    H216027   1.304   1.230   0.948 -1.9852 -1.0703  0.3991
 5341TIP3   OH216028   0.855   4.782   0.365 -0.1166  0.3685 -0.1194
 5341TIP3    H116029   0.829   4.874   0.375 -0.0466  0.6210 -1.8377
 5341TIP3    H216030   0.777   4.732   0.388 -0.5790  0.9207 -0.4486
 5342TIP3   OH216031   1.838   4.989   1.743 -0.0755  0.2635 -0.2635
 5342TIP3    H116032   1.873   4.977   1.655  1.1918  0.2175  0.2170
 5342TIP3    H216033   1.770   4.922   1.752 -0.3263  0.3721 -1.2463
 5343TIP3   OH216034   0.179   4.993   3.037  0.2179 -0.3466  0.0880
 5343TIP3    H116035   0.205   5.075   3.080 -0.3592  0.0047 -0.2193
 5343TIP3    H216036   0.242   4.983   2.966  0.2524 -0.1339  0.0872
 5344TIP3   OH216037   5.198   1.650   5.054 -0.5268  0.3693  0.3054
 5344TIP3    H116038   5.168   1.571   5.100 -0.9987  0.9683  1.0409
 5344TIP3    H216039   5.223   1.619   4.967  0.5362 -0.8228  1.0025
 5345TIP3   OH216040   6.160   3.092   1.915  0.6588 -0.1444  0.0503
 5345TIP3    H116041   6.107   3.081   1.994 -0.2327 -1.1584 -0.6517
 5345TIP3    H216042   6.106   3.054   1.845  0.6196  2.3663 -1.3983
 5346TIP3   OH216043   4.068   2.777   3.885 -0.4040  0.1053 -0.1452
 5346TIP3    H116044   3.974   2.792   3.900 -0.3721 -0.8636  1.2251
 5346TIP3    H216045   4.083   2.689   3.919  1.3591  0.9477  1.4079
 5347TIP3   OH216046   0.609   4.693   0.425 -0.2053  0.3090 -0.4028
 5347TIP3    H116047   0.526   4.696   0.377  0.4818  0.6611 -1.6099
 5347TIP3    H216048   0.612   4.605   0.463 -0.8129  0.0514 -0.9313
 5348TIP3   OH216049   3.977   2.762   3.267 -0.4349 -0.2404 -0.5090
 5348TIP3    H116050   4.015   2.690   3.317  0.0408 -0.1743 -0.7660
 5348TIP3    H216051   4.032   2.837   3.288 -0.7950 -0.0018 -0.4151
 5349TIP3   OH216052   0.472   4.430   0.755  0.4205 -0.8371  0.3079
 5349TIP3    H116053   0.441   4.367   0.690  0.2889 -2.3292  1.7439
 5349TIP3    H216054   0.508   4.503   0.703 -1.4233 -1.0516 -1.4156
 5350TIP3   OH216055   0.135   2.045   3.158 -0.4581 -0.6208 -0.5526
 5350TIP3    H116056   0.215   2.099   3.160  1.2778 -3.0063 -1.2179
 5350TIP3    H216057   0.143   1.993   3.078 -2.8448 -0.7752 -0.7653
 5351TIP3   OH216058   5.664   1.557   2.600  0.2083 -0.1959 -0.0728
 5351TIP3    H116059   5.615   1.614   2.658  1.3306 -0.0037  0.7164
 5351TIP3    H216060   5.612   1.476   2.597 -0.7656  0.4244 -0.2349
 5352TIP3   OH216061   4.832   0.356   1.894 -0.8022 -0.0704  0.1053
 5352TIP3    H116062   4.818   0.266   1.866 -1.3946  0.3627 -1.0871
 5352TIP3    H216063   4.744   0.390   1.910 -0.5971  0.3393  0.3703
 5353TIP3   OH216064   5.881   4.876   2.647 -0.2998  0.0381 -0.7496
 5353TIP3    H116065   5.789   4.885   2.622 -0.4442  0.0071 -0.2481
 5353TIP3    H216066   5.909   4.964   2.669  0.1427  0.2450 -2.0497
 5354TIP3   OH216067   4.502   2.414   1.715 -0.0867 -0.1136  0.0220
 5354TIP3    H116068   4.494   2.338   1.658 -0.5199  0.4979 -0.7543
 5354TIP3    H216069   4.592   2.410   1.748 -0.6463 -1.9864  1.5078
 5355TIP3   OH216070   2.941   1.656   3.336  0.6204 -1.1452 -0.5907
 5355TIP3    H116071   2.864   1.667   3.279  1.2250 -0.8247 -1.3678
 5355TIP3    H216072   2.917   1.585   3.395 -0.9353  0.0816  0.3312
 5356TIP3   OH216073   2.931   3.942   4.353 -0.6554  0.6390  0.4291
 5356TIP3    H116074   2.915   4.037   4.357  0.4233  0.8340  0.5545
 5356TIP3    H216075   2.979   3.930   4.271 -2.8299 -0.1526 -0.7984
 5357TIP3   OH216076   0.771   1.502   0.901  0.3533 -0.0742 -0.8128
 5357TIP3    H116077   0.707   1.566   0.870  0.5092  0.9512  0.8411
 5357TIP3    H216078   0.856   1.542   0.883  0.4585  1.0690  1.7144
 5358TIP3   OH216079   6.171   3.880   2.977 -0.0569 -0.2359 -0.1610
 5358TIP3    H116080   6.159   3.845   2.889 -0.5543  0.7357 -0.4946
 5358TIP3    H216081   6.177   3.803   3.033 -1.5793 -0.8664 -0.8067
 5359TIP3   OH216082   3.719   4.385   3.827  0.4479  0.4342  0.5232
 5359TIP3    H116083   3.759   4.432   3.754 -0.9636  0.8033 -0.0571
 5359TIP3    H216084   3.679   4.308   3.788  1.7035 -0.6341  1.2911
 5360TIP3   OH216085   3.901   2.505   2.509  0.4103 -0.3997 -0.1751
 5360TIP3    H116086   3.850   2.506   2.591  0.7785  0.7365  0.0657
 5360TIP3    H216087   3.871   2.583   2.462 -0.6142 -1.6385 -1.6763
 5361TIP3   OH216088   0.071   3.015   1.335  0.2509 -0.2538 -0.7113
 5361TIP3    H116089   0.005   2.984   1.397  0.2182 -0.4150 -0.8257
 5361TIP3    H216090   0.039   2.986   1.250  0.8417 -1.0029 -0.6956
 5362TIP3   OH216091   4.320   3.580   2.951  0.0293  0.1170 -0.5142
 5362TIP3    H116092   4.373   3.651   2.987 -1.0261  1.0095 -0.6640
 5362TIP3    H216093   4.350   3.502   2.997 -0.2502  0.9899  1.2577
 5363TIP3   OH216094   3.215   4.873   4.640 -0.2243 -0.2218 -0.6786
 5363TIP3    H116095   3.210   4.949   4.581  1.0616  0.6375  0.2459
 5363TIP3    H216096   3.228   4.912   4.727 -0.4540 -1.4979 -0.0563
 5364TIP3   OH216097   4.831   4.727   1.080  0.2121 -0.7210  0.2611
 5364TIP3    H116098   4.922   4.701   1.068 -0.5053 -3.6072  0.3444
 5364TIP3    H216099   4.817   4.723   1.174  0.5827  2.2711  0.5471
 5365TIP3   OH216100   4.417   3.762   1.205  0.2521  0.3722  0.2765
 5365TIP3    H116101   4.349   3.705   1.169  1.1058 -0.6050  0.1561
 5365TIP3    H216102   4.377   3.800   1.283 -0.3122 -0.4881  0.4257
 5366TIP3   OH216103   0.579   1.292   2.636  0.2401  0.1986  0.0795
 5366TIP3    H116104   0.515   1.363   2.646 -1.1631 -0.8106 -1.1683
 5366TIP3    H216105   0.655   1.320   2.686 -0.3040  2.5288 -0.2914
 5367TIP3   OH216106   6.060   2.507   2.837 -0.5498 -0.1178 -0.3000
 5367TIP3    H116107   6.148   2.531   2.864 -0.6151 -0.8379  0.5995
 5367TIP3    H216108   6.070   2.466   2.751  0.0179 -0.4626 -0.0663
 5368TIP3   OH216109   2.008   0.081   0.299 -0.1696  0.3750 -0.4414
 5368TIP3    H116110   2.048   0.147   0.355 -0.3403  0.2141 -0.1213
 5368TIP3    H216111   1.916   0.078   0.327 -0.1042 -0.1857 -0.2568
 5369TIP3   OH216112   4.992   5.230   3.100  0.5148  0.1232 -0.6914
 5369TIP3    H116113   4.994   5.307   3.156  0.0972 -0.3106 -0.0644
 5369TIP3    H216114   5.060   5.246   3.035 -0.4174  1.5834 -1.3521
 5370TIP3   OH216115   0.928   2.454   5.097  0.2693  0.3689 -0.1659
 5370TIP3    H116116   0.997   2.400   5.135 -1.9036 -2.8701 -0.3338
 5370TIP3    H216117   0.873   2.478   5.172 -1.0414 -1.3545 -0.5122
 5371TIP3   OH216118   3.592   1.315   1.228  0.0478  0.0617 -0.0007
 5371TIP3    H116119   3.589   1.401   1.184  2.0194 -0.5370 -1.4617
 5371TIP3    H216120   3.591   1.252   1.156 -0.1259 -1.0976  0.9975
 5372TIP3   OH216121   3.057   3.409   4.053  0.0925 -0.6291 -0.5170
 5372TIP3    H116122   3.116   3.477   4.086  0.2999 -0.5549 -1.0369
 5372TIP3    H216123   3.047   3.349   4.127  0.9097 -0.7072 -0.4568
 5373TIP3   OH216124   1.081   2.376   2.681  0.1243  0.5111  0.1765
 5373TIP3    H116125   1.038   2.446   2.632 -0.2020  0.7240  0.7498
 5373TIP3    H216126   1.165   2.414   2.709  0.5963  0.1740 -0.7444
 5374TIP3   OH216127   5.333   3.487   2.520  0.1832 -0.0155 -0.0242
 5374TIP3    H116128   5.267   3.553   2.500  1.0142  0.5839 -0.8788
 5374TIP3    H216129   5.416   3.534   2.517  0.8035 -1.1133 -0.7922
 5375TIP3   OH216130   2.429   3.936   0.898 -0.0441 -0.0570 -0.0761
 5375TIP3    H116131   2.524   3.932   0.886 -0.0086  0.3020  0.0518
 5375TIP3    H216132   2.418   3.933   0.993 -0.1031  0.8491 -0.0458
 5376TIP3   OH216133   3.242   4.718   0.323 -0.2300 -0.2349  0.0811
 5376TIP3    H116134   3.244   4.810   0.350  0.2291 -0.3010  0.2718
 5376TIP3    H216135   3.264   4.669   0.403 -0.4091 -0.5077 -0.0362
 5377TIP3   OH216136   0.427   0.011   3.685 -0.3023 -0.1539 -0.0580
 5377TIP3    H116137   0.367   0.060   3.740 -0.9591  0.9083 -1.6636
 5377TIP3    H216138   0.399   0.030   3.596  2.9716  1.1906 -0.9456
 5378TIP3   OH216139   2.072   5.173   0.090 -0.4263 -0.0029  0.2891
 5378TIP3    H116140   2.134   5.221   0.145 -0.5727  0.3510  0.1487
 5378TIP3    H216141   1.992   5.170   0.142 -0.3869 -0.1754  0.3376
 5379TIP3   OH216142   2.666   4.662   1.503 -0.0621 -0.2577 -0.0885
 5379TIP3    H116143   2.675   4.571   1.531  0.5851 -0.3737 -0.6678
 5379TIP3    H216144   2.755   4.693   1.492 -0.2565 -0.3131 -2.2929
 5380TIP3   OH216145   5.326   2.441   4.912  0.1380 -0.4423 -0.0807
 5380TIP3    H116146   5.275   2.421   4.833 -2.6132 -0.7335  1.6248
 5380TIP3    H216147   5.388   2.369   4.919 -1.4833 -1.9729 -0.5195
 5381TIP3   OH216148   2.022   4.120   0.654 -0.1624  0.2847  0.2356
 5381TIP3    H116149   1.944   4.078   0.619 -0.2436  0.5765  0.0657
 5381TIP3    H216150   2.005   4.214   0.646 -0.2949  0.3664  1.2884
 5382TIP3   OH216151   5.943   4.137   2.700 -0.0223  0.3443 -0.2590
 5382TIP3    H116152   5.926   4.210   2.640  0.5329 -0.3938 -1.3421
 5382TIP3    H216153   5.965   4.180   2.783 -1.6155  1.3812 -0.3083
 5383TIP3   OH216154   0.319   1.973   1.953 -0.6671 -1.0099  0.2403
 5383TIP3    H116155   0.364   1.953   2.036 -1.0724 -0.9404  0.4790
 5383TIP3    H216156   0.384   1.953   1.886  0.6176  1.4146  0.6474
 5384TIP3   OH216157   1.294   0.576   2.524  0.1052 -0.4127 -0.2166
 5384TIP3    H116158   1.355   0.600   2.454  0.0218  0.9688  0.1589
 5384TIP3    H216159   1.349   0.560   2.600 -0.0095  1.8967  0.4168
 5385TIP3   OH216160   3.000   2.973   0.410  0.3916  0.3081  0.3379
 5385TIP3    H116161   2.916   3.012   0.433 -0.9995 -1.6287 -1.1959
 5385TIP3    H216162   3.032   3.026   0.337 -0.2480  0.1479 -0.0651
 5386TIP3   OH216163   0.076   3.979   0.156  0.1708  0.1559 -0.3245
 5386TIP3    H116164   0.044   4.053   0.208 -0.0677  0.3343 -0.7179
 5386TIP3    H216165   0.168   3.969   0.181  0.1899  0.5570 -0.2370
 5387TIP3   OH216166   4.878   3.190   0.306  0.1220  0.0497 -0.4592
 5387TIP3    H116167   4.897   3.155   0.392  2.3708 -0.6306 -1.1622
 5387TIP3    H216168   4.794   3.235   0.316 -0.3840 -1.2491  1.6889
 5388TIP3   OH216169   2.116   2.149   3.298  0.5089 -0.5768  0.3404
 5388TIP3    H116170   2.191   2.209   3.307  1.1802 -1.4626  0.7818
 5388TIP3    H216171   2.132   2.101   3.217  1.0804 -1.6394  1.0584
 5389TIP3   OH216172   4.064   2.374   2.105 -0.0223  0.4156 -0.1411
 5389TIP3    H116173   4.062   2.332   2.192  0.5433 -0.3439 -0.4763
 5389TIP3    H216174   4.157   2.375   2.082 -0.2327 -0.0620 -1.0494
 5390TIP3   OH216175   0.850   2.367   1.273  0.0334 -1.0291 -0.0410
 5390TIP3    H116176   0.861   2.277   1.244  0.4647 -1.6946  2.0561
 5390TIP3    H216177   0.797   2.408   1.204 -0.7345 -3.0415 -0.7152
 5391TIP3   OH216178   1.621   1.026   3.255  0.3156 -0.3028 -0.2767
 5391TIP3    H116179   1.555   0.968   3.218 -0.0248 -0.0238 -0.1108
 5391TIP3    H216180   1.705   0.984   3.234  0.0768 -0.7964 -0.2498
 5392TIP3   OH216181   1.739   5.343   4.451  0.1729 -0.5050 -0.2012
 5392TIP3    H116182   1.810   5.377   4.505  0.3560 -0.4896 -0.4540
 5392TIP3    H216183   1.775   5.266   4.408 -0.1519 -0.8562  0.1375
 5393TIP3   OH216184   2.659   5.480   2.528  0.1421 -0.4433 -0.3188
 5393TIP3    H116185   2.651   5.500   2.435 -0.0637  1.0316 -0.0011
 5393TIP3    H216186   2.708   5.397   2.530  0.4468 -0.3248 -1.7212
 5394TIP3   OH216187   1.430   1.667   0.831  0.3648  0.0339  0.6805
 5394TIP3    H116188   1.446   1.711   0.914 -0.1309  2.5727 -0.4618
 5394TIP3    H216189   1.423   1.739   0.767  0.3525 -1.7824 -1.4901
 5395TIP3   OH216190   1.745   5.420   3.980 -0.4647  0.2402 -0.0959
 5395TIP3    H116191   1.813   5.380   4.034  0.7507 -0.0290 -1.7406
 5395TIP3    H216192   1.780   5.507   3.958 -0.8820  0.3109 -0.5090
 5396TIP3   OH216193   5.829   4.491   0.758 -0.4215  0.2715 -0.1390
 5396TIP3    H116194   5.809   4.406   0.719 -0.0266 -0.5207  1.3039
 5396TIP3    H216195   5.764   4.551   0.720 -0.8270 -0.6996 -1.0379
 5397TIP3   OH216196   3.635   5.705   3.098  0.0914  0.9647  0.0785
 5397TIP3    H116197   3.640   5.620   3.143  0.1949  1.0140  0.1604
 5397TIP3    H216198   3.589   5.686   3.016  1.0083  0.6368 -0.3664
 5398TIP3   OH216199   5.843   1.363   2.687  0.3728  0.3680  0.0263
 5398TIP3    H116200   5.816   1.442   2.640  1.7083 -0.3080 -2.0007
 5398TIP3    H216201   5.905   1.394   2.753  0.2641  1.1085 -0.2129
 5399TIP3   OH216202   0.902   3.831   1.735 -0.5731 -0.5741 -0.1802
 5399TIP3    H116203   0.854   3.760   1.777 -0.5825 -0.3683  0.1641
 5399TIP3    H216204   0.993   3.818   1.762 -0.8456  0.6949  1.5846
 5400TIP3   OH216205   5.922   5.710   1.378  0.0342  0.0013  0.3578
 5400TIP3    H116206   5.858   5.638   1.374 -0.5446  0.4407  1.3571
 5400TIP3    H216207   5.987   5.681   1.442 -0.5568  0.6221  1.2648
 5401TIP3   OH216208   2.777   4.277   5.029  0.7417 -0.5465  0.1924
 5401TIP3    H116209   2.688   4.255   4.999  0.9370 -0.9137 -0.1208
 5401TIP3    H216210   2.821   4.311   4.951  0.3566  1.3027  0.7193
 5402TIP3   OH216211   1.607   1.108   4.656 -0.2361 -0.1441 -0.7133
 5402TIP3    H116212   1.648   1.176   4.603  0.0719  0.5208  0.3540
 5402TIP3    H216213   1.551   1.061   4.594  0.3175  0.4348 -1.6830
 5403TIP3   OH216214   2.306   5.314   2.627  0.1771  0.3395  0.1272
 5403TIP3    H116215   2.278   5.226   2.605 -0.6750  0.4966  0.5379
 5403TIP3    H216216   2.252   5.338   2.703  1.8068  0.4565  1.3013
 5404TIP3   OH216217   1.485   3.863   1.545  0.3776  0.0419 -0.3265
 5404TIP3    H116218   1.402   3.866   1.498 -0.7246  0.9358  1.5535
 5404TIP3    H216219   1.540   3.929   1.502 -1.1483  1.9563  0.5167
 5405TIP3   OH216220   1.094   4.019   3.857 -0.2967 -0.1125  0.6995
 5405TIP3    H116221   1.014   3.971   3.875 -1.4162  1.1156 -0.7178
 5405TIP3    H216222   1.162   3.971   3.904 -1.5212 -2.3489  0.3366
 5406TIP3   OH216223   2.969   5.487   1.239 -0.0412 -0.0571 -0.4040
 5406TIP3    H116224   3.032   5.446   1.298  0.9139  1.2808 -0.4576
 5406TIP3    H216225   2.938   5.564   1.286 -1.1959 -0.3686 -0.6269
 5407TIP3   OH216226   5.720   4.426   1.681 -0.3285 -0.2659 -0.0432
 5407TIP3    H116227   5.664   4.366   1.632  0.0615 -0.0090 -0.8235
 5407TIP3    H216228   5.763   4.371   1.746 -2.7922 -0.1856  1.8152
 5408TIP3   OH216229   3.127   4.192   4.873  0.4133  0.4242 -0.3248
 5408TIP3    H116230   3.043   4.189   4.828 -0.3933 -0.0272  1.1250
 5408TIP3    H216231   3.160   4.280   4.857 -0.7168  0.8747 -0.2954
 5409TIP3   OH216232   0.720   0.856   0.735  0.3228 -0.2032 -0.4113
 5409TIP3    H116233   0.648   0.796   0.753  0.7840 -0.5995  0.1617
 5409TIP3    H216234   0.724   0.862   0.640 -0.3519 -0.3076 -0.4538
 5410TIP3   OH216235   4.940   2.714   2.777  0.1463  0.2182  0.2557
 5410TIP3    H116236   5.029   2.680   2.786 -0.2234 -0.6698  0.7062
 5410TIP3    H216237   4.884   2.636   2.780 -0.5968  0.6544 -1.0060
 5411TIP3   OH216238   4.634   2.496   0.126  0.1123  0.3521 -0.0291
 5411TIP3    H116239   4.564   2.556   0.100  1.4043  1.7521 -0.4297
 5411TIP3    H216240   4.604   2.458   0.209 -1.3185  0.5414 -0.4408
 5412TIP3   OH216241   0.865   0.017   5.044  0.1373 -0.3834 -0.2901
 5412TIP3    H116242   0.847   0.091   5.103 -1.8800 -0.2993 -0.9396
 5412TIP3    H216243   0.960   0.013   5.041  0.3322  2.1205 -0.1090
 5413TIP3   OH216244   2.244   4.950   0.894 -0.2709  0.1694  0.2362
 5413TIP3    H116245   2.326   4.942   0.942 -0.2143  0.9876  0.2799
 5413TIP3    H216246   2.176   4.928   0.958 -0.0358 -2.1781 -0.2178
 5414TIP3   OH216247   5.515   2.398   4.540  0.5796  0.3155  0.1389
 5414TIP3    H116248   5.518   2.328   4.605 -1.4013 -1.0546 -1.1083
 5414TIP3    H216249   5.438   2.450   4.565  1.1063  1.1002  0.1467
 5415TIP3   OH216250   0.407   3.130   3.319  0.3143 -0.0666 -0.1033
 5415TIP3    H116251   0.360   3.058   3.360  1.3493  0.0867  1.4170
 5415TIP3    H216252   0.340   3.196   3.301  0.1790  1.5495  4.9606
 5416TIP3   OH216253   2.724   2.201   2.186 -0.3481 -0.4895  0.0770
 5416TIP3    H116254   2.692   2.189   2.275  0.5865 -1.8379  0.2732
 5416TIP3    H216255   2.647   2.192   2.130 -1.0841  1.2351  0.7769
 5417TIP3   OH216256   5.179   4.198   0.623 -0.1258 -0.0709 -0.2347
 5417TIP3    H116257   5.089   4.226   0.605 -0.1306  0.3557  0.3930
 5417TIP3    H216258   5.208   4.257   0.693 -0.7711 -2.7150  2.4713
 5418TIP3   OH216259   2.475   3.191   4.705 -0.7389  0.5601 -0.9338
 5418TIP3    H116260   2.517   3.109   4.732  0.2507  1.2195 -0.3822
 5418TIP3    H216261   2.506   3.206   4.616 -0.4850  0.6021 -0.8400
 5419TIP3   OH216262   5.988   0.848   2.442 -0.0218  0.4691  0.0636
 5419TIP3    H116263   5.967   0.762   2.405 -2.2806  1.4961 -1.2984
 5419TIP3    H216264   5.971   0.839   2.535  0.5214 -0.7519  0.0664
 5420TIP3   OH216265   3.556   2.621   3.141  0.2020  0.5597  0.6731
 5420TIP3    H116266   3.560   2.585   3.230 -1.0292  0.2722  0.6290
 5420TIP3    H216267   3.470   2.596   3.109  0.3570  1.2773 -0.3479
 5421TIP3   OH216268   6.219   1.467   1.744 -0.1228 -0.0099  0.1750
 5421TIP3    H116269   6.294   1.486   1.688  1.3807 -1.5810  1.5385
 5421TIP3    H216270   6.188   1.382   1.714 -1.1360  0.4325 -0.0904
 5422TIP3   OH216271   1.270   3.539   1.008 -0.1755 -0.2555  0.2116
 5422TIP3    H116272   1.253   3.523   1.101  0.5050 -0.3910  0.3223
 5422TIP3    H216273   1.360   3.509   0.995 -0.3224 -0.3968 -0.5317
 5423TIP3   OH216274   0.373   2.645   3.347  0.4813  0.0457  0.3033
 5423TIP3    H116275   0.375   2.646   3.252 -0.4358  1.1993  0.2620
 5423TIP3    H216276   0.372   2.552   3.371 -1.7191 -0.3150 -0.9092
 5424TIP3   OH216277   6.064   3.951   0.965 -0.5065  0.5119 -0.6873
 5424TIP3    H116278   6.025   3.891   1.028  2.5937  1.1766  2.1877
 5424TIP3    H216279   6.136   3.902   0.926 -1.9079  0.3774 -3.2724
 5425TIP3   OH216280   5.818   4.776   4.529  0.1810  0.2209  0.0199
 5425TIP3    H116281   5.780   4.819   4.452 -0.2511  1.8729  1.0953
 5425TIP3    H216282   5.902   4.820   4.542  0.1708  0.0859  0.5709
 5426TIP3   OH216283   1.535   3.426   1.009  0.6447  0.0382 -0.5216
 5426TIP3    H116284   1.617   3.452   0.967  1.9655 -1.5531  0.9078
 5426TIP3    H216285   1.562   3.388   1.093 -1.4230 -1.7662 -0.5760
 5427TIP3   OH216286   1.515   5.607   0.738  0.8747 -0.1660 -0.1363
 5427TIP3    H116287   1.604   5.603   0.702  1.1020 -0.8780  0.4869
 5427TIP3    H216288   1.499   5.700   0.751  1.0228  0.0713 -1.4849
 5428TIP3   OH216289   5.780   3.722   4.018 -0.4577  0.1001 -0.2583
 5428TIP3    H116290   5.814   3.762   4.097 -2.3728 -2.0729  1.8464
 5428TIP3    H216291   5.857   3.691   3.971  0.7253  1.3823  0.7605
 5429TIP3   OH216292   1.210   1.503   3.551  0.0386  0.6002 -0.2761
 5429TIP3    H116293   1.159   1.476   3.475  2.4205 -0.4282 -1.6005
 5429TIP3    H216294   1.254   1.423   3.580  1.6602  1.6119  0.1881
 5430TIP3   OH216295   3.923   1.486   3.495  0.1904  0.0663  0.0070
 5430TIP3    H116296   4.005   1.536   3.492  0.1182  0.1566 -1.8317
 5430TIP3    H216297   3.949   1.399   3.526  0.9580  0.1379 -0.4050
 5431TIP3   OH216298   1.427   2.443   3.098  0.2574  0.0190  0.5438
 5431TIP3    H116299   1.348   2.491   3.123  0.9558  0.9499  1.0397
 5431TIP3    H216300   1.426   2.364   3.152 -0.6142 -0.2718  0.1318
 5432TIP3   OH216301   5.964   1.611   1.727  0.3606  0.1873  0.1694
 5432TIP3    H116302   6.032   1.559   1.770  0.9134  2.0769  1.7488
 5432TIP3    H216303   5.888   1.602   1.784 -0.4502 -1.1281 -1.0725
 5433TIP3   OH216304   5.277   1.739   4.162  0.1266 -0.5921 -0.1730
 5433TIP3    H116305   5.201   1.697   4.202  0.4959 -0.1030  1.1039
 5433TIP3    H216306   5.353   1.698   4.204  0.5198  2.4635  2.5828
 5434TIP3   OH216307   3.673   4.279   4.336 -0.3106  0.7394  0.1269
 5434TIP3    H116308   3.659   4.307   4.426  0.8343  0.3919  0.4345
 5434TIP3    H216309   3.763   4.304   4.317 -0.7466  1.4024 -1.1584
 5435TIP3   OH216310   0.285   3.659   2.397 -0.0076  0.0618 -0.5506
 5435TIP3    H116311   0.261   3.701   2.479 -1.8356  0.3349 -1.1822
 5435TIP3    H216312   0.334   3.726   2.350  0.2231  0.2334 -0.0703
 5436TIP3   OH216313   3.196   1.353   4.582 -0.1247 -0.1695 -0.3939
 5436TIP3    H116314   3.159   1.413   4.518  0.0435 -0.9640 -1.2480
 5436TIP3    H216315   3.164   1.386   4.667  0.9397  1.8352 -0.7087
 5437TIP3   OH216316   3.731   5.765   0.352  0.1987 -0.4869  0.0893
 5437TIP3    H116317   3.636   5.771   0.352  0.2393  0.5418  1.2130
 5437TIP3    H216318   3.751   5.692   0.294 -1.2652 -0.6385 -0.2497
 5438TIP3   OH216319   3.402   0.030   1.698 -0.1425  0.4448 -0.3959
 5438TIP3    H116320   3.307   0.043   1.701 -0.2040  0.1286 -0.8262
 5438TIP3    H216321   3.420   0.007   1.607  0.0843 -1.3642  0.0549
 5439TIP3   OH216322   1.163   1.959   1.130  0.5956 -0.5744 -0.1333
 5439TIP3    H116323   1.219   1.890   1.095  0.1162 -0.2148 -1.6528
 5439TIP3    H216324   1.080   1.914   1.149 -0.1069 -0.2336 -2.2125
 5440TIP3   OH216325   3.787   0.745   1.965  0.1222  0.3778  0.2102
 5440TIP3    H116326   3.832   0.770   2.045  1.2068 -0.4617 -0.1050
 5440TIP3    H216327   3.695   0.733   1.990  0.4562  0.1045  1.3253
 5441TIP3   OH216328   1.229   1.782   3.954  0.2087 -0.4749  0.2609
 5441TIP3    H116329   1.187   1.838   3.888  1.7307  0.5361  0.1052
 5441TIP3    H216330   1.206   1.822   4.038 -0.3323 -0.7709  0.2542
 5442TIP3   OH216331   5.587   4.195   3.505  0.0454  0.1335  0.3828
 5442TIP3    H116332   5.641   4.156   3.574 -1.1953  0.1583  1.4025
 5442TIP3    H216333   5.510   4.229   3.551 -0.2208  1.2897 -0.8549
 5443TIP3   OH216334   3.136   2.542   4.951 -0.1769  0.4006  0.0556
 5443TIP3    H116335   3.091   2.465   4.919  1.4774 -1.3718  1.7490
 5443TIP3    H216336   3.183   2.512   5.029  2.7979  2.3981 -0.7999
 5444TIP3   OH216337   4.793   0.623   0.190 -0.2529  0.0841 -0.1732
 5444TIP3    H116338   4.878   0.578   0.193 -0.6565 -0.7107 -0.4593
 5444TIP3    H216339   4.741   0.572   0.128 -0.4910  1.3751 -1.0824
 5445TIP3   OH216340   0.818   5.130   2.045 -0.6010 -0.3025  0.0510
 5445TIP3    H116341   0.859   5.180   2.115 -0.5526  2.0067 -1.5118
 5445TIP3    H216342   0.890   5.101   1.990 -0.7523 -0.5383 -0.0272
 5446TIP3   OH216343   3.310   2.262   0.583  0.2639  0.0767  0.0210
 5446TIP3    H116344   3.348   2.198   0.523  0.4997  0.4872 -0.2704
 5446TIP3    H216345   3.215   2.249   0.574  0.3103 -1.2443  1.0675
 5447TIP3   OH216346   1.908   4.615   4.148  0.3015 -0.5394 -0.4710
 5447TIP3    H116347   1.902   4.708   4.127  2.1489 -0.1231  0.6475
 5447TIP3    H216348   1.988   4.607   4.200 -1.8212 -2.1088  2.9125
 5448TIP3   OH216349   3.262   4.245   2.644  0.3342 -0.1660  0.0909
 5448TIP3    H116350   3.184   4.264   2.697  2.3287  1.0883  2.8228
 5448TIP3    H216351   3.321   4.200   2.704  1.9274 -0.6837 -1.7772
 5449TIP3   OH216352   0.320   0.840   2.823  0.2117  0.1538 -0.0076
 5449TIP3    H116353   0.337   0.928   2.787 -1.0428  0.1181 -0.7542
 5449TIP3    H216354   0.404   0.794   2.814  0.9375  1.3099  0.5486
 5450TIP3   OH216355   2.604   0.573   3.747 -0.3029  0.1673 -0.1024
 5450TIP3    H116356   2.638   0.538   3.665 -0.3752 -1.3207  0.4571
 5450TIP3    H216357   2.545   0.644   3.722  1.5593  1.4001 -1.1973
 5451TIP3   OH216358   5.658   4.237   0.758  0.5300 -0.6991  0.0258
 5451TIP3    H116359   5.692   4.216   0.845 -0.4042 -1.2438  0.2759
 5451TIP3    H216360   5.582   4.180   0.748 -0.6661  0.8786 -0.2710
 5452TIP3   OH216361   0.092   1.057   1.576 -0.6610  0.3516 -0.0017
 5452TIP3    H116362   0.166   1.094   1.624 -0.0281  1.3960 -1.7150
 5452TIP3    H216363   0.129   0.982   1.529 -1.2056 -0.4672  0.8392
 5453TIP3   OH216364   3.878   3.129   3.531 -0.0623 -0.3298 -0.0815
 5453TIP3    H116365   3.875   3.143   3.626  1.9154  0.5589 -0.1063
 5453TIP3    H216366   3.849   3.039   3.519 -1.4684 -0.0973  1.2447
 5454TIP3   OH216367   4.165   4.172   4.187  0.3181  0.9516  0.1988
 5454TIP3    H116368   4.187   4.257   4.225  2.1887 -0.7541  3.3724
 5454TIP3    H216369   4.245   4.146   4.140  0.4210  0.2052  0.7784
 5455TIP3   OH216370   3.737   5.421   2.984  0.1565  0.3258 -0.2149
 5455TIP3    H116371   3.761   5.454   3.070  1.7960  1.1593 -0.9455
 5455TIP3    H216372   3.678   5.347   3.002 -0.3044  1.0791  1.5645
 5456TIP3   OH216373   6.245   3.827   2.686 -0.4181  0.3921 -0.3259
 5456TIP3    H116374   6.223   3.889   2.615 -1.0778  0.8151  0.2311
 5456TIP3    H216375   6.300   3.761   2.644  1.4734  2.0896 -0.6458
 5457TIP3   OH216376   5.742   4.041   4.679 -0.2813 -0.8852 -0.0407
 5457TIP3    H116377   5.800   3.998   4.741 -1.1347  0.3316  1.6809
 5457TIP3    H216378   5.791   4.118   4.649 -0.9276  0.1284  1.3939
 5458TIP3   OH216379   1.669   4.091   1.506 -0.3606 -0.0184 -0.5864
 5458TIP3    H116380   1.724   4.123   1.434  0.8747 -0.0238  0.3204
 5458TIP3    H216381   1.598   4.155   1.513 -1.5360 -0.9309 -2.9335
 5459TIP3   OH216382   1.778   5.507   0.666  0.2436 -0.2482 -0.6460
 5459TIP3    H116383   1.760   5.416   0.689 -0.4498 -0.0358 -0.3492
 5459TIP3    H216384   1.839   5.500   0.592  1.5406 -0.9328  0.4416
 5460TIP3   OH216385   4.694   5.917   3.186  0.5579  0.0211  0.0779
 5460TIP3    H116386   4.634   5.867   3.242  0.0672  0.1919 -0.2870
 5460TIP3    H216387   4.678   6.008   3.210  2.1350  0.0009  1.4338
 5461TIP3   OH216388   0.191   2.581   2.283 -0.1499  0.2681  0.3315
 5461TIP3    H116389   0.256   2.588   2.353  0.1062 -0.7109  0.2048
 5461TIP3    H216390   0.124   2.523   2.319  0.6651 -1.4045 -0.7099
 5462TIP3   OH216391   4.397   0.557   1.486  0.1296  0.3505 -0.5673
 5462TIP3    H116392   4.376   0.533   1.577 -2.0411  4.5974  0.3337
 5462TIP3    H216393   4.366   0.483   1.434 -2.3808 -0.5515  1.9531
 5463TIP3   OH216394   4.473   4.370   3.467 -0.8819 -0.5004  0.0864
 5463TIP3    H116395   4.423   4.367   3.386  1.4895  0.0793 -1.5153
 5463TIP3    H216396   4.490   4.279   3.489 -1.4959 -0.6578 -0.0696
 5464TIP3   OH216397   5.884   0.209   3.278 -0.4642  0.3121 -0.5685
 5464TIP3    H116398   5.860   0.245   3.192 -1.2209  0.8530 -0.1436
 5464TIP3    H216399   5.849   0.119   3.276 -0.4273  0.3011 -0.8468
 5465TIP3   OH216400   1.151   2.771   0.337 -0.6663  0.4399  0.3739
 5465TIP3    H116401   1.057   2.776   0.350 -0.6020  0.7177  0.7593
 5465TIP3    H216402   1.167   2.829   0.262 -0.7990  0.4235  0.3325
 5466TIP3   OH216403   1.242   1.149   2.826  0.1708  0.3945  0.4043
 5466TIP3    H116404   1.261   1.108   2.741 -0.8771 -0.3431  0.5023
 5466TIP3    H216405   1.319   1.131   2.879  1.9182  2.8600 -1.0289
 5467TIP3   OH216406   4.510   4.547   1.408 -0.1911 -0.1511  0.3099
 5467TIP3    H116407   4.440   4.529   1.346 -0.0259 -0.4229  0.2010
 5467TIP3    H216408   4.572   4.602   1.360  1.1158 -2.2563 -0.5700
 5468TIP3   OH216409   0.953   2.595   2.594 -0.6546  0.2506  0.4855
 5468TIP3    H116410   0.908   2.639   2.522 -0.1112  0.3991  0.2368
 5468TIP3    H216411   1.033   2.646   2.607 -2.3596  2.4932  3.6134
 5469TIP3   OH216412   5.898   3.947   1.235 -0.0265  0.6026 -0.0208
 5469TIP3    H116413   5.907   3.856   1.209 -1.4997  0.7610 -1.2656
 5469TIP3    H216414   5.835   3.945   1.308 -1.9290  0.7486 -1.5649
 5470TIP3   OH216415   5.737   2.145   4.103 -0.3313  0.4723 -0.6744
 5470TIP3    H116416   5.734   2.214   4.170 -0.9425 -0.2094  0.0227
 5470TIP3    H216417   5.810   2.089   4.130 -0.8648 -0.0587 -0.3027
 5471TIP3   OH216418   6.156   3.479   2.782  0.1929  0.3910  0.1621
 5471TIP3    H116419   6.190   3.477   2.692  0.6756 -0.3841  0.3554
 5471TIP3    H216420   6.106   3.398   2.790 -0.8538  1.0225  0.2226
 5472TIP3   OH216421   0.733   4.173   2.205 -0.2815  0.1870  0.3202
 5472TIP3    H116422   0.716   4.121   2.283  0.2220  0.6807  0.7603
 5472TIP3    H216423   0.811   4.132   2.166 -0.0666  0.4156  0.5035
 5473TIP3   OH216424   5.825   5.123   0.061  0.3321 -0.0021  0.0141
 5473TIP3    H116425   5.811   5.094  -0.029  1.1164 -0.3509 -0.0094
 5473TIP3    H216426   5.912   5.089   0.083 -1.1582 -2.8782  2.0551
 5474TIP3   OH216427   1.046   0.333   0.132 -0.2262  0.1688 -0.3300
 5474TIP3    H116428   1.123   0.380   0.163 -0.4657 -0.3153  1.0981
 5474TIP3    H216429   0.999   0.396   0.078  0.3220  1.0183  0.1635
 5475TIP3   OH216430   2.721   0.534   0.889  0.0298 -0.2359  0.6381
 5475TIP3    H116431   2.745   0.456   0.839 -1.5735  0.5796 -1.5743
 5475TIP3    H216432   2.746   0.607   0.832 -0.2738  0.8206  1.8227
 5476TIP3   OH216433   4.948   5.572   1.786  0.0921  0.0158 -0.0782
 5476TIP3    H116434   4.997   5.542   1.709 -3.0637 -0.5000 -2.0799
 5476TIP3    H216435   4.953   5.498   1.847  0.1101 -0.8689 -1.1102
 5477TIP3   OH216436   5.540   2.171   2.827 -0.0055  0.0108  0.5034
 5477TIP3    H116437   5.545   2.101   2.763  0.2774  1.2288 -0.8685
 5477TIP3    H216438   5.618   2.159   2.882 -0.4756 -1.2879  0.9231
 5478TIP3   OH216439   0.600   0.438   1.652 -0.3679 -0.2756  0.1246
 5478TIP3    H116440   0.510   0.449   1.682 -0.3112 -0.5684  0.4049
 5478TIP3    H216441   0.648   0.511   1.693 -0.4499 -0.2022  0.0895
 5479TIP3   OH216442   1.994   0.801   0.984  0.2851  0.4579 -0.3099
 5479TIP3    H116443   2.033   0.718   0.958 -1.5091 -0.0719 -1.4867
 5479TIP3    H216444   2.010   0.859   0.909  0.0607  0.6750 -0.1904
 5480TIP3   OH216445   0.249   0.202   4.560 -0.1892 -0.3409  0.0668
 5480TIP3    H116446   0.207   0.276   4.516  0.6755 -0.5987 -1.2617
 5480TIP3    H216447   0.277   0.237   4.644 -1.5329  0.2870  0.2841
 5481TIP3   OH216448   0.634   0.155   4.272  0.0597 -0.6327 -0.5341
 5481TIP3    H116449   0.722   0.119   4.257 -0.0400 -1.2883  0.3267
 5481TIP3    H216450   0.583   0.080   4.303 -1.2059 -0.5836 -2.3486
 5482TIP3   OH216451   4.850   5.379   0.953 -0.5298 -0.0303 -0.3901
 5482TIP3    H116452   4.820   5.412   1.038  0.9156  0.4411 -0.0281
 5482TIP3    H216453   4.834   5.452   0.893  0.7848  0.6139  0.0056
 5483TIP3   OH216454   3.713   1.958   4.039  0.1823  0.2192 -0.0920
 5483TIP3    H116455   3.780   1.900   4.076 -1.1551 -2.2451 -1.2693
 5483TIP3    H216456   3.717   1.941   3.944 -0.0708  2.3142 -0.5134
 5484TIP3   OH216457   4.203   0.304   3.344  0.0974 -0.0581  0.2255
 5484TIP3    H116458   4.226   0.219   3.379  1.0529  1.0622  2.5273
 5484TIP3    H216459   4.119   0.325   3.384  0.3607  0.4990  0.5012
 5485TIP3   OH216460   3.317   1.951   0.703  0.9185  0.2276 -0.2514
 5485TIP3    H116461   3.334   1.857   0.709  0.3130  0.1179 -0.1466
 5485TIP3    H216462   3.400   1.989   0.677  2.1194  0.0260  2.7898
 5486TIP3   OH216463   4.993   5.495   3.252  0.2953 -0.2309  0.0224
 5486TIP3    H116464   4.951   5.566   3.203 -0.3635 -0.9069 -0.4106
 5486TIP3    H216465   5.017   5.534   3.335  0.0032  0.5229 -0.2384
 5487TIP3   OH216466   5.083   2.251   4.367 -0.0076 -0.4764 -0.0436
 5487TIP3    H116467   5.060   2.193   4.294  0.3632  0.9900 -1.3791
 5487TIP3    H216468   5.081   2.338   4.330  1.5765  0.2248  1.3643
 5488TIP3   OH216469   4.475   2.719   4.265 -0.2840  0.4466  0.5090
 5488TIP3    H116470   4.404   2.757   4.316 -1.7486 -1.4281 -0.0212
 5488TIP3    H216471   4.520   2.660   4.325 -0.9955 -0.5231  0.1237
 5489TIP3   OH216472   0.327   4.742   4.950  0.5513 -0.4791 -0.2802
 5489TIP3    H116473   0.401   4.683   4.964 -0.3468 -1.5765 -0.0356
 5489TIP3    H216474   0.255   4.703   4.999 -1.3879 -1.7839 -3.8005
 5490TIP3   OH216475   0.664   5.716   2.162  0.2239  0.1921  0.3770
 5490TIP3    H116476   0.569   5.729   2.159  0.0007 -1.1770  0.8997
 5490TIP3    H216477   0.683   5.658   2.089  0.7449  0.8079  0.0035
 5491TIP3   OH216478   5.755   2.557   0.308 -0.0439  0.2681  0.1729
 5491TIP3    H116479   5.822   2.501   0.269  0.4721  1.4606 -0.7262
 5491TIP3    H216480   5.703   2.498   0.361  2.2618 -0.5705  1.6638
 5492TIP3   OH216481   5.676   0.761   0.185 -0.0955  0.1330  0.5156
 5492TIP3    H116482   5.647   0.698   0.119 -1.3266 -0.2123  1.3408
 5492TIP3    H216483   5.596   0.805   0.212  0.7377  2.0713 -0.0197
 5493TIP3   OH216484   5.198   4.554   1.656 -0.5780  0.0870  0.2012
 5493TIP3    H116485   5.279   4.604   1.657 -0.2208 -0.4855  0.4685
 5493TIP3    H216486   5.207   4.494   1.582 -1.5355  1.2384 -0.9170
 5494TIP3   OH216487   1.582   4.537   2.357 -0.0405 -0.0664 -0.3316
 5494TIP3    H116488   1.598   4.606   2.293  0.7710  0.6009  0.5501
 5494TIP3    H216489   1.549   4.463   2.306  2.3560 -0.2268 -1.8172
 5495TIP3   OH216490   1.517   0.407   0.273 -0.3261 -0.4569 -0.0866
 5495TIP3    H116491   1.608   0.410   0.243 -0.0746  1.0847  0.7264
 5495TIP3    H216492   1.474   0.346   0.213  1.8108 -3.4898  1.2175
 5496TIP3   OH216493   5.597   3.561   0.352 -0.1062  0.0757 -0.3605
 5496TIP3    H116494   5.560   3.626   0.292  0.2405 -0.0322 -0.6901
 5496TIP3    H216495   5.556   3.478   0.326 -0.7093  0.1816  0.1936
 5497TIP3   OH216496   4.022   1.675   1.366  0.0735 -0.5805 -0.2879
 5497TIP3    H116497   4.014   1.769   1.382  0.3050 -0.7837  1.0861
 5497TIP3    H216498   4.022   1.667   1.270 -0.7835  0.7353 -0.4161
 5498TIP3   OH216499   4.701   1.711   2.625  0.1608 -0.1458  0.2391
 5498TIP3    H116500   4.756   1.788   2.612 -0.0890  0.3424  1.8519
 5498TIP3    H216501   4.725   1.679   2.712 -1.1905 -0.6662  0.4471
 5499TIP3   OH216502   0.402   1.023   4.545 -0.4873 -0.3747 -0.0448
 5499TIP3    H116503   0.421   0.946   4.598 -0.3799 -0.0351  0.4170
 5499TIP3    H216504   0.435   1.097   4.597 -1.8946  0.1224  0.1893
 5500TIP3   OH216505   6.143   4.754   0.868 -0.0801 -1.2462  0.0508
 5500TIP3    H116506   6.145   4.678   0.927  3.9108 -0.7729  0.7544
 5500TIP3    H216507   6.163   4.828   0.924  1.2163 -0.4144 -1.4432
 5501TIP3   OH216508   6.032   3.225   2.852 -0.0155  0.2288 -0.6382
 5501TIP3    H116509   6.061   3.239   2.942  0.8109  0.2492 -0.8995
 5501TIP3    H216510   5.974   3.148   2.857 -0.8823  0.9085  0.0726
 5502TIP3   OH216511   1.684   1.610   4.319  0.0976 -0.3233 -0.1540
 5502TIP3    H116512   1.727   1.597   4.404  0.2653  0.5299 -0.0946
 5502TIP3    H216513   1.756   1.624   4.258 -0.0536  1.7155  0.0494
 5503TIP3   OH216514   2.942   3.898   1.431  0.1072  0.4687 -0.7983
 5503TIP3    H116515   2.986   3.813   1.444  0.2034  0.4935 -0.9543
 5503TIP3    H216516   2.898   3.915   1.514 -0.1104  0.1515 -0.8449
 5504TIP3   OH216517   5.576   2.006   1.478 -0.8284  0.1619  0.1509
 5504TIP3    H116518   5.481   2.017   1.485 -0.6763  0.8120  1.8500
 5504TIP3    H216519   5.610   2.042   1.561  0.8264 -0.9254 -0.0123
 5505TIP3   OH216520   3.319   2.097   0.943  0.2482 -0.3606 -0.3357
 5505TIP3    H116521   3.247   2.053   0.988 -0.2493 -0.0227 -0.7850
 5505TIP3    H216522   3.330   2.047   0.861 -0.0258  0.0789 -0.6433
 5506TIP3   OH216523   2.866   3.940   3.948  0.2500  0.1822 -0.1131
 5506TIP3    H116524   2.866   3.879   3.874 -0.6725  0.6238 -0.4824
 5506TIP3    H216525   2.938   3.910   4.003 -0.6214 -1.7174  0.0807
 5507TIP3   OH216526   1.768   2.852   3.185 -0.0032  0.0893  0.0205
 5507TIP3    H116527   1.795   2.798   3.260  1.0994 -1.2822 -1.2903
 5507TIP3    H216528   1.681   2.820   3.162  0.3113 -0.5865 -0.2480
 5508TIP3   OH216529   6.254   3.121   3.447 -0.0265  0.5617  0.2018
 5508TIP3    H116530   6.312   3.049   3.419 -1.2274 -0.5578  0.4952
 5508TIP3    H216531   6.313   3.184   3.487  1.1604  0.0629 -0.6659
 5509TIP3   OH216532   6.157   1.418   4.727 -0.1775  0.2017  0.1523
 5509TIP3    H116533   6.065   1.408   4.751 -0.2185  1.1898  0.4853
 5509TIP3    H216534   6.163   1.382   4.639 -1.0872  0.9374 -0.2291
 5510TIP3   OH216535   1.145   5.402   3.484 -0.5186 -0.2027  0.1342
 5510TIP3    H116536   1.180   5.314   3.470 -1.7785 -0.5056 -1.4934
 5510TIP3    H216537   1.184   5.454   3.414 -1.1818  0.0819 -0.0342
 5511TIP3   OH216538   2.241   5.152   4.271  0.6607  0.0187  0.4512
 5511TIP3    H116539   2.175   5.200   4.319 -0.7255 -1.0980 -0.2544
 5511TIP3    H216540   2.305   5.126   4.337  1.0925  2.1593  0.9507
 5512TIP3   OH216541   4.132   0.389   1.677  0.2087  0.0325  0.4381
 5512TIP3    H116542   4.139   0.391   1.581  1.6919 -2.2432  0.4252
 5512TIP3    H216543   4.047   0.429   1.696 -0.9320 -1.0614 -1.9546
 5513TIP3   OH216544   3.479   5.865   4.799 -0.4530  0.2611  0.1568
 5513TIP3    H116545   3.520   5.892   4.717 -0.7276  3.3869  0.9291
 5513TIP3    H216546   3.399   5.917   4.805 -1.0254 -0.7240  1.9143
 5514TIP3   OH216547   2.803   3.846   1.191 -0.7429  0.1602  0.8447
 5514TIP3    H116548   2.833   3.892   1.269 -1.4277 -1.0088  1.8282
 5514TIP3    H216549   2.776   3.760   1.222  0.5502 -0.9602 -0.9479
 5515TIP3   OH216550   2.731   5.219   2.515  0.3387  0.1898  0.8583
 5515TIP3    H116551   2.796   5.176   2.458 -0.2625 -2.0545  1.7490
 5515TIP3    H216552   2.764   5.204   2.603  0.0451  1.5463  1.2090
 5516TIP3   OH216553   1.553   0.182   0.524 -0.0954 -0.0936 -0.5502
 5516TIP3    H116554   1.626   0.173   0.462  0.0109  0.5150 -0.5229
 5516TIP3    H216555   1.570   0.266   0.568  0.7958 -1.2663  1.5370
 5517TIP3   OH216556   2.630   5.859   4.210  0.0556 -0.3634  0.7174
 5517TIP3    H116557   2.535   5.859   4.200  0.1588  0.1181 -0.2889
 5517TIP3    H216558   2.663   5.828   4.126  0.8959  2.7533 -0.2313
 5518TIP3   OH216559   2.598   4.426   4.357 -0.2275  0.2051 -0.3382
 5518TIP3    H116560   2.515   4.460   4.390 -0.2522  0.3285 -0.5233
 5518TIP3    H216561   2.603   4.336   4.390 -1.4071 -0.5259 -2.0190
 5519TIP3   OH216562   3.608   5.088   1.140  0.3064  0.1358 -0.1861
 5519TIP3    H116563   3.641   5.032   1.210  1.3161 -1.1122 -1.6012
 5519TIP3    H216564   3.513   5.075   1.141  0.5044 -1.5094 -0.3781
 5520TIP3   OH216565   4.280   1.141   2.074  0.5960 -0.0133  0.1938
 5520TIP3    H116566   4.340   1.194   2.021 -0.5190 -0.0358 -1.1592
 5520TIP3    H216567   4.266   1.193   2.153  0.6492  1.0551 -0.4725
 5521TIP3   OH216568   0.971   3.673   1.378  0.2647 -0.6666 -0.6403
 5521TIP3    H116569   0.940   3.668   1.287 -1.2715 -1.6427 -0.1010
 5521TIP3    H216570   1.000   3.764   1.388 -0.1694 -0.3640 -1.9106
 5522TIP3   OH216571   4.914   2.024   0.666 -0.5548  0.0153 -0.1014
 5522TIP3    H116572   4.897   2.090   0.599  1.0767  1.4868  0.8587
 5522TIP3    H216573   4.953   1.951   0.619  2.3118  1.7363 -0.6777
 5523TIP3   OH216574   5.471   0.051   0.374 -0.1639 -0.1809  0.0692
 5523TIP3    H116575   5.541   0.111   0.346  0.0009 -0.1098  0.6273
 5523TIP3    H216576   5.426   0.098   0.444 -0.5384 -0.3833 -0.0344
 5524TIP3   OH216577   0.050   2.392   4.972  0.3039  0.2107  0.2913
 5524TIP3    H116578  -0.022   2.329   4.975  0.6800 -0.3120 -0.9500
 5524TIP3    H216579   0.122   2.344   4.931  1.9937  0.1338  3.0992
 5525TIP3   OH216580   5.967   1.256   4.940  0.0867 -0.0511 -0.2175
 5525TIP3    H116581   5.910   1.331   4.924 -0.3323 -0.3321 -0.0520
 5525TIP3    H216582   5.935   1.188   4.881  1.8772  0.5862 -2.0336
 5526TIP3   OH216583   4.420   4.862   4.624 -0.4583  0.7196  0.4406
 5526TIP3    H116584   4.414   4.953   4.593  3.3124  1.4248  1.1813
 5526TIP3    H216585   4.437   4.811   4.545  1.0941  1.3084  0.3456
 5527TIP3   OH216586   1.796   4.192   1.279  0.3767  0.2668 -0.0855
 5527TIP3    H116587   1.781   4.171   1.187 -1.5101 -0.7237  0.3873
 5527TIP3    H216588   1.783   4.286   1.285 -1.0333  0.1319 -0.6108
 5528TIP3   OH216589   5.008   3.819   3.564 -0.0096 -0.7528 -0.2740
 5528TIP3    H116590   4.942   3.796   3.629  1.7806 -0.0482  1.8887
 5528TIP3    H216591   5.088   3.777   3.595  0.9718 -0.1410 -1.8676
 5529TIP3   OH216592   3.909   0.954   4.908  0.6525 -0.8589 -0.3334
 5529TIP3    H116593   3.833   0.967   4.852  1.5320  1.5649 -1.0666
 5529TIP3    H216594   3.982   0.938   4.848  1.0707 -1.2629  0.2598
 5530TIP3   OH216595   4.844   2.490   0.429  0.1628 -0.1773 -0.3524
 5530TIP3    H116596   4.819   2.582   0.421 -0.6905 -0.4595 -1.1958
 5530TIP3    H216597   4.858   2.460   0.339  1.2100 -0.6778 -0.0408
 5531TIP3   OH216598   0.986   0.396   3.221 -0.1301 -0.2298  0.0299
 5531TIP3    H116599   0.985   0.415   3.127 -1.0487  0.7601  0.2196
 5531TIP3    H216600   0.946   0.310   3.228 -0.4481 -0.1258 -0.4539
 5532TIP3   OH216601   1.863   0.892   3.223  0.3711  0.2121 -0.2757
 5532TIP3    H116602   1.904   0.820   3.174  2.9535  0.1497  1.7588
 5532TIP3    H216603   1.927   0.963   3.220  0.4200  0.3864  2.4746
 5533TIP3   OH216604   3.784   4.390   5.011  0.3911 -0.4739 -0.1628
 5533TIP3    H116605   3.814   4.360   4.925 -1.7165  0.7015 -1.3811
 5533TIP3    H216606   3.710   4.333   5.032  0.1584  0.0034  0.3312
 5534TIP3   OH216607   5.378   4.486   4.598 -0.0984  0.5365  0.4070
 5534TIP3    H116608   5.439   4.517   4.531  1.8764 -0.9702  1.4115
 5534TIP3    H216609   5.318   4.428   4.550 -0.0591  1.1653 -0.4190
 5535TIP3   OH216610   3.655   1.447   3.481  0.2607 -0.2167 -0.1410
 5535TIP3    H116611   3.750   1.447   3.491  0.2453 -0.2867  0.0069
 5535TIP3    H216612   3.635   1.368   3.431  0.2982 -0.0966 -0.3468
 5536TIP3   OH216613   6.017   4.326   0.423 -0.1142  0.1000 -0.3098
 5536TIP3    H116614   6.028   4.418   0.399  0.7429  0.0983  0.0755
 5536TIP3    H216615   5.935   4.325   0.473  0.0704  0.7071  0.0090
 5537TIP3   OH216616   1.422   4.970   5.132 -0.5777  0.7468  0.4052
 5537TIP3    H116617   1.396   4.962   5.040 -0.8083 -0.6462  0.5694
 5537TIP3    H216618   1.346   4.942   5.182 -0.1353  0.5786  1.0003
 5538TIP3   OH216619   5.979   4.621   0.573 -0.1038 -0.2283  0.0880
 5538TIP3    H116620   5.938   4.707   0.565  1.4630  0.7159  1.4296
 5538TIP3    H216621   5.955   4.590   0.660  1.5501  0.1524  0.7303
 5539TIP3   OH216622   4.883   4.979   2.847  0.2750  0.1190  0.1360
 5539TIP3    H116623   4.869   5.066   2.810  1.4582 -0.0919 -0.8741
 5539TIP3    H216624   4.800   4.933   2.831 -0.3563  1.0390  0.6736
 5540TIP3   OH216625   1.637   3.920   3.931  0.2569 -0.1191 -0.0371
 5540TIP3    H116626   1.606   4.010   3.946 -0.1095 -0.4735  1.4842
 5540TIP3    H216627   1.721   3.931   3.887  0.4269  0.9877  0.5250
 5541TIP3   OH216628   2.301   1.116   4.111 -0.3313 -0.3360 -0.5849
 5541TIP3    H116629   2.237   1.109   4.039 -1.3092 -0.4709  0.2707
 5541TIP3    H216630   2.386   1.116   4.068 -0.8582 -1.5468 -1.6773
 5542TIP3   OH216631   0.925   5.383   1.565 -0.6621 -0.1161  0.3682
 5542TIP3    H116632   0.878   5.437   1.501  0.3258  0.2742 -0.0637
 5542TIP3    H216633   0.866   5.377   1.640 -1.2333  0.6693 -0.0009
 5543TIP3   OH216634   2.835   2.865   3.323 -0.3704  0.1048 -0.7615
 5543TIP3    H116635   2.820   2.938   3.384  2.3625  0.3387 -0.2281
 5543TIP3    H216636   2.865   2.793   3.378  1.5844  0.1351 -1.7009
 5544TIP3   OH216637   3.318   3.800   0.432  0.0367 -0.1082  0.4755
 5544TIP3    H116638   3.386   3.771   0.370 -0.3793 -0.5557  0.2275
 5544TIP3    H216639   3.359   3.792   0.518 -0.2710 -2.0672  0.4830
 5545TIP3   OH216640   3.442   5.335   3.002  0.0453 -0.1483 -0.1435
 5545TIP3    H116641   3.453   5.276   3.077 -1.8014 -0.4212 -0.0497
 5545TIP3    H216642   3.422   5.420   3.040  0.8591  0.1305 -0.3160
 5546TIP3   OH216643   5.053   5.046   3.388 -0.8310  0.5537  0.1401
 5546TIP3    H116644   5.043   5.071   3.479 -2.1335  1.1721 -0.1457
 5546TIP3    H216645   5.089   5.123   3.345  1.3229 -0.2416  0.3626
 5547TIP3   OH216646   1.211   4.239   4.801  0.3522 -0.8233  0.0020
 5547TIP3    H116647   1.231   4.328   4.831  1.3153 -1.6821  2.1226
 5547TIP3    H216648   1.294   4.205   4.769 -0.3623 -0.4460 -2.4814
 5548TIP3   OH216649   4.632   3.259   0.338  0.0637  0.1985  0.1418
 5548TIP3    H116650   4.547   3.289   0.305 -0.6767  0.2986  2.0285
 5548TIP3    H216651   4.611   3.181   0.389  1.0935  0.3048  0.7496
 5549TIP3   OH216652   4.290   5.157   4.708 -0.3083 -0.2040 -0.2736
 5549TIP3    H116653   4.354   5.136   4.640 -0.4381 -0.4845 -0.3104
 5549TIP3    H216654   4.314   5.100   4.782 -1.5882 -1.6064 -0.9058
 5550TIP3   OH216655   3.286   2.171   1.410  0.0007  0.0850  0.3200
 5550TIP3    H116656   3.280   2.112   1.335  1.0670  0.9139 -0.4524
 5550TIP3    H216657   3.195   2.195   1.428 -0.3128 -0.4707 -0.4285
 5551TIP3   OH216658   2.882   3.626   1.758  0.5600  0.0013  0.2832
 5551TIP3    H116659   2.793   3.641   1.726  1.3290  2.0110 -1.0677
 5551TIP3    H216660   2.883   3.666   1.845  0.2787  0.4054  0.1046
 5552TIP3   OH216661   3.725   4.207   1.977  0.4117 -0.3704  0.6104
 5552TIP3    H116662   3.636   4.220   1.946  1.6220  2.8517 -2.1984
 5552TIP3    H216663   3.766   4.150   1.912  1.0959  0.5138  0.2357
 5553TIP3   OH216664   1.338   3.637   2.418 -0.1214 -0.3364 -0.2120
 5553TIP3    H116665   1.349   3.621   2.325  2.0354  0.6638 -0.1898
 5553TIP3    H216666   1.425   3.663   2.449 -0.7669 -0.6539  2.0856
 5554TIP3   OH216667   5.176   4.347   4.418 -0.2033  0.0585 -0.2580
 5554TIP3    H116668   5.101   4.406   4.405  1.0457  1.6303 -0.7380
 5554TIP3    H216669   5.137   4.261   4.431 -2.1331  0.9984  0.6358
 5555TIP3   OH216670   1.303   4.569   3.100  0.4903 -0.5257  0.6596
 5555TIP3    H116671   1.395   4.550   3.118  0.7938 -0.5744 -0.7857
 5555TIP3    H216672   1.295   4.558   3.005 -0.9972 -0.4664  0.7614
 5556TIP3   OH216673   6.073   4.187   3.695  0.5154  0.3936  0.2032
 5556TIP3    H116674   6.046   4.259   3.638 -1.5785  1.1796  2.0578
 5556TIP3    H216675   6.054   4.108   3.644 -1.1848  1.0669 -0.2776
 5557TIP3   OH216676   4.922   3.263   3.571 -1.0999 -0.1939 -0.0496
 5557TIP3    H116677   4.878   3.312   3.641 -2.4355 -0.9165 -0.3413
 5557TIP3    H216678   4.905   3.313   3.492 -0.4381  0.0976 -0.0152
 5558TIP3   OH216679   4.593   2.540   1.999 -0.9798 -0.4140  0.3670
 5558TIP3    H116680   4.627   2.602   1.934 -2.1608 -1.5752 -1.4621
 5558TIP3    H216681   4.660   2.472   2.004 -1.4674 -0.9934 -0.6798
 5559TIP3   OH216682   5.282   3.743   3.472 -0.4996  0.5880  0.4381
 5559TIP3    H116683   5.343   3.795   3.420  1.5770 -1.0234  1.1315
 5559TIP3    H216684   5.324   3.735   3.557 -0.5468 -2.3996  0.2880
 5560TIP3   OH216685   4.635   5.138   0.281  0.1878  0.5615  0.0523
 5560TIP3    H116686   4.708   5.195   0.259  0.1906  0.4849 -0.1455
 5560TIP3    H216687   4.599   5.173   0.362 -0.6239  1.6316 -0.7366
 5561TIP3   OH216688   4.628   0.019   1.547 -0.5404 -0.1123  0.4636
 5561TIP3    H116689   4.585  -0.031   1.617 -1.3340  1.6994  1.3422
 5561TIP3    H216690   4.557   0.067   1.505  0.4868  2.8853  1.8852
 5562TIP3   OH216691   0.722   3.117   1.815 -0.0699  0.1627  0.2615
 5562TIP3    H116692   0.755   3.137   1.902  1.2312  0.2123 -0.2157
 5562TIP3    H216693   0.675   3.196   1.788  0.1225  0.4092  0.6476
 5563TIP3   OH216694   1.992   5.672   2.758 -0.5912  0.6023  0.8575
 5563TIP3    H116695   2.084   5.691   2.777  0.3142 -0.7810 -1.6623
 5563TIP3    H216696   1.954   5.652   2.844  1.6628  0.3600  1.8839
 5564TIP3   OH216697   0.435   2.714   4.654  0.1462  0.2427  0.1082
 5564TIP3    H116698   0.393   2.690   4.571  1.3040  0.6230 -0.5990
 5564TIP3    H216699   0.369   2.692   4.721 -0.7216 -0.2596 -0.8827
 5565TIP3   OH216700   3.535   5.600   2.508 -0.0222  0.3422  0.2155
 5565TIP3    H116701   3.576   5.514   2.498  0.2670  0.4182  0.7094
 5565TIP3    H216702   3.512   5.626   2.419 -2.7668 -1.5302  0.2471
 5566TIP3   OH216703   5.636   1.481   2.983  0.1100 -0.1504  0.4696
 5566TIP3    H116704   5.641   1.497   3.078 -2.3183  2.4056  0.2979
 5566TIP3    H216705   5.613   1.388   2.976 -0.6315 -0.1762  2.4644
 5567TIP3   OH216706   1.400   1.272   4.373  0.3076  0.4101  0.2767
 5567TIP3    H116707   1.406   1.354   4.421 -1.1028  0.7514 -0.0825
 5567TIP3    H216708   1.350   1.214   4.430 -1.6677  0.9217 -0.8337
 5568TIP3   OH216709   2.150   0.527   0.298 -0.2417 -0.1498  0.0177
 5568TIP3    H116710   2.094   0.462   0.342  1.0636  0.3896  2.6877
 5568TIP3    H216711   2.239   0.504   0.326  0.5355  1.0609 -1.3559
 5569TIP3   OH216712   5.484   5.824   2.080  0.1762 -1.0024  0.4938
 5569TIP3    H116713   5.523   5.877   2.010 -1.6971  0.2327  0.3238
 5569TIP3    H216714   5.553   5.761   2.103  2.1372  0.8364  0.0046
 5570TIP3   OH216715   4.126   1.623   4.789  0.0102  0.2568 -0.5789
 5570TIP3    H116716   4.043   1.617   4.836 -0.2633  0.0185 -1.0848
 5570TIP3    H216717   4.163   1.535   4.794 -0.0849  0.1948 -0.9173
 5571TIP3   OH216718   5.501   3.044   0.959  0.4629 -0.3441  0.0119
 5571TIP3    H116719   5.505   3.001   0.874  1.2172  0.4676 -0.3784
 5571TIP3    H216720   5.417   3.089   0.960 -0.5972 -2.2460  0.6541
 5572TIP3   OH216721   0.114   0.920   0.728 -0.4813 -0.7866  0.0357
 5572TIP3    H116722   0.116   0.928   0.823  0.9985  2.2520 -0.1205
 5572TIP3    H216723   0.074   1.001   0.698  3.4744  0.7196 -1.9417
 5573TIP3   OH216724   0.880   0.749   3.111 -0.0055 -0.4411 -0.2053
 5573TIP3    H116725   0.802   0.750   3.055  0.5298 -2.1456 -1.0560
 5573TIP3    H216726   0.884   0.837   3.148 -3.1334 -0.6833  1.0293
 5574TIP3   OH216727   0.722   3.430   0.259  0.1062 -0.1813  0.1532
 5574TIP3    H116728   0.702   3.519   0.231 -0.9516 -0.4177  0.1192
 5574TIP3    H216729   0.668   3.416   0.336  0.6982 -0.6042  0.5046
 5575TIP3   OH216730   2.770   0.565   0.517 -0.5143  0.1506  0.0507
 5575TIP3    H116731   2.685   0.606   0.504 -0.1578  0.9938  0.3286
 5575TIP3    H216732   2.770   0.491   0.456 -1.2911  0.3615 -0.2224
 5576TIP3   OH216733   1.698   3.034   0.464  0.4244 -0.9042 -0.0701
 5576TIP3    H116734   1.654   2.951   0.481 -1.3100  0.4667  2.7798
 5576TIP3    H216735   1.768   3.039   0.529  1.2280 -0.5345 -0.9213
 5577TIP3   OH216736   0.350   4.964   1.370  0.0553 -0.2160  0.3121
 5577TIP3    H116737   0.437   4.929   1.349 -0.2272 -0.4292 -0.5283
 5577TIP3    H216738   0.297   4.886   1.386  0.0408 -0.0822  0.9419
 5578TIP3   OH216739   2.124   2.614   1.572  0.2300  0.3669  0.6380
 5578TIP3    H116740   2.038   2.580   1.548  0.6589  0.3017 -0.9858
 5578TIP3    H216741   2.185   2.564   1.517  1.4611 -0.5354  2.7091
 5579TIP3   OH216742   3.021   0.356   0.656 -0.2198  0.4577  0.1264
 5579TIP3    H116743   2.930   0.340   0.682 -0.3168 -1.5505 -1.2015
 5579TIP3    H216744   3.063   0.270   0.664  0.6948  0.6045 -2.4159
 5580TIP3   OH216745   2.169   2.956   2.944 -0.1452 -0.0941  0.1425
 5580TIP3    H116746   2.133   2.886   2.890  0.5877 -0.8952  0.6620
 5580TIP3    H216747   2.189   3.026   2.882  0.1112 -0.7578 -0.5439
 5581TIP3   OH216748   3.543   0.139   0.284  0.9410  0.1465 -0.2486
 5581TIP3    H116749   3.628   0.173   0.313  0.7153  0.7111 -0.2475
 5581TIP3    H216750   3.562   0.098   0.199  0.9039  1.8319 -1.1158
 5582TIP3   OH216751   0.532   0.423   4.284  0.0247 -0.7815 -0.1904
 5582TIP3    H116752   0.600   0.470   4.333  2.9010  0.6705 -4.9393
 5582TIP3    H216753   0.561   0.332   4.282  2.0708 -0.1627 -2.2320
 5583TIP3   OH216754   0.076   2.462   4.413 -0.2568 -0.7798 -0.0273
 5583TIP3    H116755   0.023   2.444   4.335 -1.4738 -0.0922  0.6201
 5583TIP3    H216756   0.014   2.491   4.479  0.5744 -2.4960  1.6200
 5584TIP3   OH216757   5.143   2.634   2.481 -0.2734 -0.0842 -0.1648
 5584TIP3    H116758   5.141   2.591   2.396  0.0420 -2.1414  0.7944
 5584TIP3    H216759   5.052   2.634   2.511 -0.1410 -1.0643  0.2693
 5585TIP3   OH216760   4.798   4.822   0.455 -0.2747 -0.0480 -0.2251
 5585TIP3    H116761   4.712   4.781   0.463 -0.1777 -0.2485 -0.1896
 5585TIP3    H216762   4.814   4.861   0.541 -1.3498  2.0584 -0.9037
 5586TIP3   OH216763   4.316   6.006   5.080 -0.3170 -0.3998  0.3754
 5586TIP3    H116764   4.263   5.964   5.148 -1.0247  0.4603  0.3730
 5586TIP3    H216765   4.305   5.950   5.004  1.5294 -2.1091  1.2656
 5587TIP3   OH216766   6.059   3.779   0.697  0.4292  0.6822 -0.0393
 5587TIP3    H116767   6.070   3.808   0.607 -0.9400 -0.9652 -0.7999
 5587TIP3    H216768   5.971   3.806   0.721  0.7872  1.1210  0.8295
 5588TIP3   OH216769   4.038   3.111  -0.002  0.3868  0.1404  0.1854
 5588TIP3    H116770   4.034   3.189   0.053  0.1106  1.5883 -1.7828
 5588TIP3    H216771   4.129   3.107  -0.032 -0.1887  1.3799 -1.9175
 5589TIP3   OH216772   5.267   5.084   1.176 -0.0043  0.5866  0.0216
 5589TIP3    H116773   5.249   5.059   1.266  1.5466  2.1811  0.8508
 5589TIP3    H216774   5.290   5.002   1.132  0.0633 -0.1026  1.2993
 5590TIP3   OH216775   1.051   5.160   1.877 -0.4780 -0.1701  0.3943
 5590TIP3    H116776   1.006   5.239   1.846 -0.0350  0.1047  0.4285
 5590TIP3    H216777   1.034   5.094   1.810 -0.5405  0.0669  0.1751
 5591TIP3   OH216778   0.065   3.685   1.811 -0.2936 -0.3462  0.3557
 5591TIP3    H116779  -0.007   3.646   1.862 -1.7419  0.5552 -0.9089
 5591TIP3    H216780   0.087   3.765   1.859  1.2066 -1.5187  1.7625
 5592TIP3   OH216781   1.341   5.878   1.946  0.5743 -0.6055 -0.2333
 5592TIP3    H116782   1.309   5.790   1.928 -0.6601 -0.3647  0.6436
 5592TIP3    H216783   1.306   5.931   1.874 -1.9250 -0.1712  1.1876
 5593TIP3   OH216784   0.329   3.925   0.296  0.1927 -0.3372 -0.5085
 5593TIP3    H116785   0.344   3.924   0.390  1.5101 -0.1845 -0.7051
 5593TIP3    H216786   0.316   3.833   0.272  2.3447 -0.6878 -0.5298
 5594TIP3   OH216787   4.662   3.845   4.266 -0.0142 -0.5768 -0.2435
 5594TIP3    H116788   4.752   3.876   4.258 -0.4420  0.4333 -1.3253
 5594TIP3    H216789   4.667   3.751   4.249  0.5177 -0.1478 -2.7887
 5595TIP3   OH216790   4.538   2.086   0.136  0.0891 -0.1879 -0.2173
 5595TIP3    H116791   4.604   2.137   0.184  0.4239 -1.0545  0.2509
 5595TIP3    H216792   4.587   2.048   0.063  0.0223 -0.5247 -0.0845
 5596TIP3   OH216793   5.069   2.207   3.668 -0.0674  0.0107  0.0189
 5596TIP3    H116794   5.137   2.145   3.642  0.2062 -0.0598  0.8752
 5596TIP3    H216795   4.987   2.163   3.644  0.1782  0.4071 -1.6854
 5597TIP3   OH216796   5.613   4.082   1.197  0.1819 -0.0517 -0.2583
 5597TIP3    H116797   5.661   4.133   1.263  1.0244  0.4911 -1.2568
 5597TIP3    H216798   5.681   4.049   1.138 -0.3006 -2.6280  0.5092
 5598TIP3   OH216799   5.791   0.176   3.878 -0.0123 -0.2147 -0.5527
 5598TIP3    H116800   5.700   0.163   3.907  0.3012 -1.9129 -0.2039
 5598TIP3    H216801   5.784   0.240   3.808 -1.3019  0.8173  0.4554
 5599TIP3   OH216802   4.482   0.975   2.609  0.2356  0.9569  0.5631
 5599TIP3    H116803   4.526   1.058   2.593  1.4040  0.4459  1.0706
 5599TIP3    H216804   4.461   0.941   2.521 -0.8086  2.0577  0.3636
 5600TIP3   OH216805   0.405   1.491   2.650  0.2873  0.7653  0.0424
 5600TIP3    H116806   0.343   1.535   2.592  0.5202  1.5075  0.3441
 5600TIP3    H216807   0.355   1.476   2.731  0.1666  0.3357 -0.1065
 5601TIP3   OH216808   5.236   5.814   2.262  0.3489 -0.2879  0.7399
 5601TIP3    H116809   5.264   5.722   2.267 -0.4867 -0.7504 -1.7355
 5601TIP3    H216810   5.201   5.823   2.174  0.9182  2.5897  0.7336
 5602TIP3   OH216811   3.644   4.070   0.638  0.8039  0.0659  0.1783
 5602TIP3    H116812   3.679   4.158   0.620  0.0885 -0.2510 -3.4150
 5602TIP3    H216813   3.553   4.085   0.662  1.0190  0.3385  0.8686
 5603TIP3   OH216814   5.402   1.394   2.674  0.3268 -0.3348  0.2835
 5603TIP3    H116815   5.374   1.383   2.765  0.2215  0.4009  0.3488
 5603TIP3    H216816   5.339   1.344   2.623  1.5887 -2.5141  0.7394
 5604TIP3   OH216817   1.741   5.251   1.828  0.0134 -0.1321  0.7595
 5604TIP3    H116818   1.728   5.170   1.778 -0.7139  0.1591  0.4592
 5604TIP3    H216819   1.659   5.262   1.876 -0.1502  0.7613  0.3008
 5605TIP3   OH216820   1.634   3.217   3.330  0.2359  0.7309 -0.0022
 5605TIP3    H116821   1.717   3.169   3.322 -0.0112  0.1679  0.6624
 5605TIP3    H216822   1.570   3.163   3.284  0.0168  0.5722  0.4821
 5606TIP3   OH216823   3.130   1.113   1.944  0.8185  0.0412  0.3605
 5606TIP3    H116824   3.150   1.133   1.852  1.1433 -0.0272  0.4142
 5606TIP3    H216825   3.110   1.019   1.944 -1.5747  0.4959 -0.0396
 5607TIP3   OH216826   3.101   1.641   4.654  0.6184  0.6006 -0.4388
 5607TIP3    H116827   3.155   1.720   4.651  1.9395 -0.2842 -2.5376
 5607TIP3    H216828   3.084   1.620   4.562 -4.0338  1.1878  0.0732
 5608TIP3   OH216829   5.052   0.156   4.082 -0.3645  0.1425 -0.1696
 5608TIP3    H116830   5.109   0.079   4.075  0.2021  0.5499 -0.1046
 5608TIP3    H216831   5.022   0.156   4.173 -0.3816 -0.0187 -0.1760
 5609TIP3   OH216832   3.171   0.438   1.062  0.5375 -0.8460  0.6357
 5609TIP3    H116833   3.147   0.485   0.982  0.6554 -1.1793  0.4027
 5609TIP3    H216834   3.171   0.346   1.036  2.2652 -0.8611  0.5588
 5610TIP3   OH216835   2.066   5.781   4.489 -0.4348  0.2869 -0.7641
 5610TIP3    H116836   2.035   5.828   4.567 -1.2759 -1.0459 -0.2559
 5610TIP3    H216837   2.161   5.789   4.493 -0.4149 -0.3546  0.8170
 5611TIP3   OH216838   2.454   1.715   2.486 -0.1983 -0.1508  0.2718
 5611TIP3    H116839   2.419   1.628   2.468 -0.0739 -0.0385 -0.5450
 5611TIP3    H216840   2.420   1.737   2.572  0.7288 -1.4947  1.0128
 5612TIP3   OH216841   1.672   5.585   1.803 -0.1108 -0.0105  0.0656
 5612TIP3    H116842   1.731   5.573   1.877  0.2946 -0.2013 -0.2881
 5612TIP3    H216843   1.596   5.531   1.824 -0.1010  0.1223  0.4525
 5613TIP3   OH216844   4.506   1.553   1.546  0.6446  0.2021 -0.3463
 5613TIP3    H116845   4.434   1.616   1.550  0.2622 -0.2640  0.1944
 5613TIP3    H216846   4.583   1.603   1.572  0.2079  0.2540  0.9083
 5614TIP3   OH216847   4.211   2.944   3.689  0.5548  0.1237  0.1246
 5614TIP3    H116848   4.153   2.883   3.735 -1.4563  2.0190  0.2918
 5614TIP3    H216849   4.264   2.984   3.758  0.7863 -0.3480  0.2165
 5615TIP3   OH216850   2.851   5.398   3.928 -0.0762 -0.0059 -0.0162
 5615TIP3    H116851   2.800   5.436   3.856  0.0032  0.5137  0.1959
 5615TIP3    H216852   2.938   5.383   3.890 -0.5830 -1.6042 -0.5960
 5616TIP3   OH216853   0.495   0.642   3.113  0.2975  0.0172  0.3541
 5616TIP3    H116854   0.571   0.692   3.142 -0.1055  0.1825  1.1945
 5616TIP3    H216855   0.432   0.709   3.085 -0.4122  0.0613  1.8996
 5617TIP3   OH216856   1.439   4.060   1.753 -0.3091 -0.4574  0.1463
 5617TIP3    H116857   1.509   4.123   1.735  0.1419 -0.8353  0.5468
 5617TIP3    H216858   1.465   3.982   1.705 -0.6679 -0.4620 -0.0361
 5618TIP3   OH216859   3.142   1.423   1.390 -0.0789 -0.5278 -0.0284
 5618TIP3    H116860   3.072   1.364   1.362  0.9971 -0.2612 -3.8740
 5618TIP3    H216861   3.219   1.366   1.400 -0.1735 -0.4335  1.3491
 5619TIP3   OH216862   1.819   2.853   0.997 -0.0140 -0.4675 -0.0193
 5619TIP3    H116863   1.746   2.800   0.963  0.1094 -2.0331  1.9540
 5619TIP3    H216864   1.776   2.926   1.041 -0.3168 -0.4025 -0.4129
 5620TIP3   OH216865   5.539   3.315   3.155  0.2714 -0.1512  0.1608
 5620TIP3    H116866   5.480   3.283   3.087 -0.7556 -0.9023  1.3392
 5620TIP3    H216867   5.488   3.307   3.236  2.1708 -1.3242  1.3138
 5621TIP3   OH216868   0.808   5.898   4.735  0.3540  0.4167 -0.2686
 5621TIP3    H116869   0.888   5.927   4.778 -0.0494 -0.6030  1.2442
 5621TIP3    H216870   0.762   5.848   4.801 -2.7881  3.0350 -0.2362
 5622TIP3   OH216871   2.205   0.979   3.865  0.0628 -0.1059  0.1292
 5622TIP3    H116872   2.289   1.021   3.845 -0.0934  0.4619  0.6077
 5622TIP3    H216873   2.164   0.964   3.780  0.9288 -1.0005 -0.1512
 5623TIP3   OH216874   6.089   0.111   1.656  0.3001 -0.4279  0.1408
 5623TIP3    H116875   6.072   0.117   1.750 -1.8650 -0.3914 -0.1967
 5623TIP3    H216876   6.009   0.146   1.616  1.5613  0.4438 -1.7141
 5624TIP3   OH216877   3.294   2.220   2.349 -0.7759  0.0517 -0.2954
 5624TIP3    H116878   3.313   2.154   2.416  1.9112  0.0072 -1.0001
 5624TIP3    H216879   3.309   2.175   2.266  2.3029  1.7234 -0.7945
 5625TIP3   OH216880   5.830   2.899   2.518 -0.2539  0.1547  0.4936
 5625TIP3    H116881   5.853   2.960   2.449  0.7656 -1.4231 -0.6483
 5625TIP3    H216882   5.736   2.910   2.531 -0.4777  0.4635 -1.1938
 5626TIP3   OH216883   2.552   3.892   3.013 -0.6802  0.0385  0.1324
 5626TIP3    H116884   2.504   3.812   2.991  0.9156 -1.3334  1.3197
 5626TIP3    H216885   2.495   3.937   3.075 -1.0933 -0.8261  0.4092
 5627TIP3   OH216886   3.644   1.655   1.253  0.0075  0.4458 -0.5603
 5627TIP3    H116887   3.650   1.750   1.250  0.2364  0.4066 -1.7103
 5627TIP3    H216888   3.727   1.624   1.219  0.6924 -0.2060  1.5366
 5628TIP3   OH216889   3.567   0.890   3.458 -0.1121 -0.4801  0.1720
 5628TIP3    H116890   3.641   0.897   3.399  0.1829  0.4393  0.6199
 5628TIP3    H216891   3.536   0.981   3.467  0.4732 -0.4304  2.1805
 5629TIP3   OH216892   3.639   0.205   1.001  0.5190  0.1838 -0.0733
 5629TIP3    H116893   3.595   0.221   0.918 -0.4936  1.9659  0.7709
 5629TIP3    H216894   3.654   0.292   1.038  1.1549 -0.5611  1.5164
 5630TIP3   OH216895   0.164   2.490   3.883 -0.5168  0.8398  0.2062
 5630TIP3    H116896   0.186   2.444   3.802  0.7043 -0.2120  1.0969
 5630TIP3    H216897   0.249   2.514   3.920 -1.0881  2.5111  0.5301
 5631TIP3   OH216898   4.082   3.990   0.541  0.1192 -0.4496  0.0337
 5631TIP3    H116899   4.097   3.904   0.503 -1.4408 -0.2554 -1.1304
 5631TIP3    H216900   4.102   4.052   0.470  1.0496  0.1619  0.7982
 5632TIP3   OH216901   1.731   3.402   2.898 -0.1928 -0.4501  0.3388
 5632TIP3    H116902   1.655   3.348   2.874  0.2069 -0.7972 -0.1724
 5632TIP3    H216903   1.806   3.345   2.883  0.2120  0.1170  0.1911
 5633TIP3   OH216904   0.359   3.155   1.738 -0.1500 -0.1645 -0.1647
 5633TIP3    H116905   0.316   3.069   1.744 -1.5714  0.5679  0.6497
 5633TIP3    H216906   0.357   3.176   1.645  0.3375 -1.0624 -0.3928
 5634TIP3   OH216907   4.966   5.399   0.616  0.4430 -0.1953  0.0834
 5634TIP3    H116908   4.899   5.463   0.593 -0.4451 -1.4582 -0.9750
 5634TIP3    H216909   5.048   5.435   0.581  0.1952  0.9796  0.6864
 5635TIP3   OH216910   5.719   1.419   2.237 -0.3087 -0.4596 -0.2892
 5635TIP3    H116911   5.759   1.357   2.299 -1.0506 -2.3395 -1.5855
 5635TIP3    H216912   5.738   1.505   2.274 -1.7068 -1.4432  3.2460
 5636TIP3   OH216913   0.080   5.365   4.898 -0.1932 -0.1991 -1.0337
 5636TIP3    H116914   0.131   5.284   4.891  2.2246  1.1992 -0.9088
 5636TIP3    H216915   0.049   5.366   4.989  1.5812 -0.0605 -0.3732
 5637TIP3   OH216916   4.229   1.051   4.152 -0.4030  0.1280 -0.3189
 5637TIP3    H116917   4.281   0.999   4.213 -1.2384 -0.9435 -0.4849
 5637TIP3    H216918   4.205   0.989   4.082 -2.2938  0.4268  0.0059
 5638TIP3   OH216919   2.021   2.510   2.751  0.2067 -0.2200  0.4800
 5638TIP3    H116920   2.065   2.583   2.793 -0.3184  0.8544 -0.7630
 5638TIP3    H216921   2.073   2.493   2.672 -0.0458 -0.7693  0.4246
 5639TIP3   OH216922   4.364   1.874   0.073  0.3731  0.9361  0.4862
 5639TIP3    H116923   4.430   1.943   0.082 -1.2960  2.3840  2.7813
 5639TIP3    H216924   4.283   1.920   0.051 -0.4816 -0.4515  0.5997
 5640TIP3   OH216925   2.444   3.178   2.140  0.3687  0.1958 -1.0286
 5640TIP3    H116926   2.368   3.140   2.096 -0.8297 -1.2453  1.9867
 5640TIP3    H216927   2.520   3.140   2.095 -0.7005 -0.3487 -2.4510
 5641TIP3   OH216928   2.590   3.908   1.713  0.4355 -0.4481  0.2494
 5641TIP3    H116929   2.606   3.814   1.724  2.2277 -0.2820 -0.5673
 5641TIP3    H216930   2.556   3.917   1.624  0.8217 -0.2694  0.1182
 5642TIP3   OH216931   1.206   2.389   2.379  0.4518 -0.2722  0.1791
 5642TIP3    H116932   1.241   2.417   2.295 -0.8886  0.4907 -0.1481
 5642TIP3    H216933   1.283   2.369   2.432  1.3274 -0.0426 -0.9776
 5643TIP3   OH216934   2.252   4.929   0.308  0.4282 -0.5164  0.3922
 5643TIP3    H116935   2.346   4.914   0.320  1.6323  2.4408 -3.1792
 5643TIP3    H216936   2.214   4.842   0.297  2.9832 -1.7440  0.6173
 5644TIP3   OH216937   3.118   3.988   2.559  0.1179 -0.2400 -0.1310
 5644TIP3    H116938   3.159   4.063   2.601  1.1036 -1.3421  0.9476
 5644TIP3    H216939   3.061   3.951   2.627  0.3130 -0.9777 -0.3640
 5645TIP3   OH216940   6.102   1.287   2.863  0.4465  0.2129  0.2964
 5645TIP3    H116941   6.181   1.237   2.883  0.0870 -1.0673 -1.2180
 5645TIP3    H216942   6.134   1.373   2.838  1.3339 -0.1376  0.1708
 5646TIP3   OH216943   1.327   0.151   0.359 -0.2647 -0.3462 -0.1738
 5646TIP3    H116944   1.353   0.177   0.271 -1.6705 -0.3769 -0.6283
 5646TIP3    H216945   1.409   0.125   0.402  0.7894  1.9502 -0.6655
 5647TIP3   OH216946   2.368   0.134   1.245  0.1258 -0.1491  0.0087
 5647TIP3    H116947   2.399   0.046   1.266  1.3919  0.1652 -0.4547
 5647TIP3    H216948   2.301   0.151   1.311  0.6547 -1.0252  0.8154
 5648TIP3   OH216949   4.641   4.177   2.471 -0.1979 -0.0914 -0.3301
 5648TIP3    H116950   4.684   4.116   2.530 -2.1120  1.2815  2.7634
 5648TIP3    H216951   4.579   4.123   2.422  0.2462 -1.0531  0.1452
 5649TIP3   OH216952   0.240   5.142   4.031  0.4317 -0.0260  0.5799
 5649TIP3    H116953   0.258   5.065   4.084  1.9857  0.7462  1.2343
 5649TIP3    H216954   0.306   5.140   3.962  0.1845  0.4661  0.3194
 5650TIP3   OH216955   3.834   5.136   1.715 -0.4723  0.1043 -0.2728
 5650TIP3    H116956   3.902   5.095   1.769  0.5097 -1.4784 -2.5541
 5650TIP3    H216957   3.766   5.069   1.707 -0.3486  0.1039 -1.4259
 5651TIP3   OH216958   5.252   3.592   0.731  0.1795  0.0495  0.1692
 5651TIP3    H116959   5.239   3.600   0.825 -1.2480  0.3488 -0.0417
 5651TIP3    H216960   5.183   3.532   0.702 -0.9825  1.8778 -1.0394
 5652TIP3   OH216961   0.973   3.120   2.516 -0.3629 -0.1975 -0.3893
 5652TIP3    H116962   1.049   3.174   2.536 -1.7568  2.0904 -0.9727
 5652TIP3    H216963   1.009   3.043   2.473  1.8278 -0.5279  1.8053
 5653TIP3   OH216964   0.778   6.011   0.883  0.3938 -0.2729  0.4324
 5653TIP3    H116965   0.843   5.974   0.943  1.6964  2.2320  0.7044
 5653TIP3    H216966   0.801   5.976   0.797  1.3789 -0.3382  0.7132
 5654TIP3   OH216967   0.911   0.305   4.037  0.1967  0.1034  0.1519
 5654TIP3    H116968   0.846   0.362   4.077  1.2659  0.9268  0.7388
 5654TIP3    H216969   0.982   0.363   4.011 -0.3311 -0.3956 -2.7904
 5655TIP3   OH216970   3.477   0.244   3.937 -0.1863 -0.4000  0.4148
 5655TIP3    H116971   3.503   0.318   3.882 -0.1931 -2.0509 -1.9501
 5655TIP3    H216972   3.382   0.251   3.944 -0.2847 -0.6554 -0.5552
 5656TIP3   OH216973   2.683   4.426   1.621 -0.0383  0.1747 -0.0780
 5656TIP3    H116974   2.745   4.359   1.592  0.4978 -0.6802  2.7500
 5656TIP3    H216975   2.715   4.453   1.707 -2.8149  0.6479  0.9224
 5657TIP3   OH216976   3.733   0.974   4.715 -0.0174  0.9590  0.2461
 5657TIP3    H116977   3.766   1.039   4.653 -2.1360  2.1706  0.3104
 5657TIP3    H216978   3.638   0.985   4.713 -0.3099 -0.8827  1.6704
 5658TIP3   OH216979   4.219   0.735   1.282  0.1803 -0.0916  0.0131
 5658TIP3    H116980   4.199   0.649   1.246  1.4036 -0.4515  0.1712
 5658TIP3    H216981   4.247   0.718   1.372 -0.6231  0.5884  0.4177
 5659TIP3   OH216982   5.174   3.779   4.288 -0.1652  0.0266  0.0672
 5659TIP3    H116983   5.121   3.707   4.320 -0.4688  0.5406  0.7430
 5659TIP3    H216984   5.222   3.743   4.213 -2.1886 -0.2165 -1.2000
 5660TIP3   OH216985   1.178   0.230   2.622  0.4560 -0.2615  0.4546
 5660TIP3    H116986   1.273   0.233   2.617  0.4554  2.4119  0.6483
 5660TIP3    H216987   1.158   0.230   2.716  0.1975 -2.5959  0.4720
 5661TIP3   OH216988   4.007   1.688   3.765 -0.2235 -0.0002  0.2289
 5661TIP3    H116989   4.023   1.594   3.779 -0.2097  0.0656  0.6662
 5661TIP3    H216990   4.030   1.702   3.673 -1.0310 -0.5971 -0.0846
 5662TIP3   OH216991   5.362   5.080   3.914 -0.3110 -0.8193  0.6824
 5662TIP3    H116992   5.294   5.033   3.865 -0.2746 -0.1085 -0.0818
 5662TIP3    H216993   5.437   5.022   3.911 -1.1340 -2.0482  2.3622
 5663TIP3   OH216994   5.239   2.929   3.050 -0.5289 -0.1433 -0.3498
 5663TIP3    H116995   5.202   3.012   3.078 -0.8214  0.3763 -2.1102
 5663TIP3    H216996   5.315   2.915   3.105  0.3772  2.0334 -0.9878
 5664TIP3   OH216997   0.083   0.926   3.418  0.4437  0.0949 -0.0924
 5664TIP3    H116998   0.005   0.957   3.464 -0.6276 -1.6554 -0.6273
 5664TIP3    H216999   0.048   0.873   3.346  2.1323 -1.2387  0.0255
 5665TIP3   OH217000   5.221   2.425   3.658  0.6438  0.5038  0.6321
 5665TIP3    H117001   5.228   2.451   3.750 -0.6659  0.4135  0.7673
 5665TIP3    H217002   5.183   2.337   3.661 -0.4780  0.9546 -0.0354
 5666TIP3   OH217003   5.675   0.539   4.297 -0.3719  0.3622 -0.7404
 5666TIP3    H117004   5.649   0.616   4.246 -0.5072  1.6619  1.1942
 5666TIP3    H217005   5.631   0.550   4.381  1.7412 -0.4380  0.5340
 5667TIP3   OH217006   5.135   3.310   1.205  0.4397 -0.1314 -0.1359
 5667TIP3    H117007   5.207   3.351   1.251 -0.8974  1.3520  0.7364
 5667TIP3    H217008   5.130   3.221   1.241  1.7519 -0.2435 -0.1834
 5668TIP3   OH217009   1.223   2.785   2.682 -0.4828  0.3446  0.1861
 5668TIP3    H117010   1.303   2.753   2.723  0.5128  0.9754 -1.1860
 5668TIP3    H217011   1.252   2.855   2.624 -1.9901  0.3680 -0.5926
 5669TIP3   OH217012   4.644   4.439   0.295 -0.1019  0.1902  0.3433
 5669TIP3    H117013   4.579   4.501   0.262 -0.6271 -0.4606  0.1272
 5669TIP3    H217014   4.638   4.364   0.236  0.9383  0.1675  0.2505
 5670TIP3   OH217015   0.557   2.345   4.373 -0.3025  0.3490  0.1038
 5670TIP3    H117016   0.493   2.302   4.316 -1.1305  0.9173  0.5900
 5670TIP3    H217017   0.628   2.281   4.382 -0.7761 -0.2709 -0.4827
 5671TIP3   OH217018   3.383   2.697   0.819 -0.0817  0.0408 -0.3682
 5671TIP3    H117019   3.298   2.714   0.779  0.0816 -0.2435 -0.8391
 5671TIP3    H217020   3.433   2.778   0.804  0.0167 -0.1033 -0.8516
 5672TIP3   OH217021   2.393   1.255   4.549 -0.1227 -1.0281 -0.2534
 5672TIP3    H117022   2.364   1.325   4.490 -1.6592 -0.6959  0.8506
 5672TIP3    H217023   2.441   1.194   4.492  0.9883  0.7455 -1.2882
 5673TIP3   OH217024   3.210   5.448   2.848 -0.2050 -0.3255 -0.4185
 5673TIP3    H117025   3.212   5.521   2.910 -0.9780 -0.6847  0.0520
 5673TIP3    H217026   3.257   5.480   2.771  0.9049  0.0807  0.3963
 5674TIP3   OH217027   1.128   3.662   2.096 -0.0552 -0.0196  0.2958
 5674TIP3    H117028   1.135   3.571   2.124  1.4079 -0.0561 -0.0992
 5674TIP3    H217029   1.050   3.695   2.141  0.1595 -1.0863  1.5199
 5675TIP3   OH217030   2.042   1.403   4.252 -0.3236  0.5314  0.0113
 5675TIP3    H117031   1.997   1.478   4.213 -1.2648  0.8457  1.5807
 5675TIP3    H217032   1.988   1.327   4.230  0.3670  0.3712 -1.1688
 5676TIP3   OH217033   1.996   5.647   2.318 -0.0054  0.1117  0.0072
 5676TIP3    H117034   1.964   5.557   2.309 -0.3908  0.0605  1.5018
 5676TIP3    H217035   1.923   5.694   2.359  0.8048  0.6702  0.8526
 5677TIP3   OH217036   5.551   0.311   0.830  0.1845  0.2125 -0.0843
 5677TIP3    H117037   5.541   0.345   0.919  1.5477 -2.6332  1.2865
 5677TIP3    H217038   5.477   0.251   0.818  0.5165 -0.1161 -0.5187
 5678TIP3   OH217039   0.933   4.482   2.673  0.7149 -0.4224 -0.1625
 5678TIP3    H117040   0.948   4.473   2.767  0.3083 -0.7615 -0.1258
 5678TIP3    H217041   0.942   4.576   2.656 -1.1011 -0.0879  0.5520
 5679TIP3   OH217042   3.174   4.129   0.924  0.5784  0.0100  0.6515
 5679TIP3    H117043   3.105   4.170   0.873  1.7610  0.1243 -0.9322
 5679TIP3    H217044   3.129   4.067   0.982 -0.8299  0.1328 -0.2920
 5680TIP3   OH217045   5.293   3.312   3.597 -0.8006 -0.0279  0.3156
 5680TIP3    H117046   5.311   3.290   3.688 -0.7768 -0.4501  0.2121
 5680TIP3    H217047   5.220   3.374   3.601  0.0008  0.9050  0.6785
 5681TIP3   OH217048   2.975   4.102   0.303 -0.0894  0.0117  0.1497
 5681TIP3    H117049   2.949   4.185   0.343  2.7465  1.9739 -1.6984
 5681TIP3    H217050   3.008   4.050   0.375  0.0644  1.3568  1.0924
 5682TIP3   OH217051   5.191   4.932   3.778  0.3472 -0.1987 -0.5893
 5682TIP3    H117052   5.137   4.855   3.798  1.6802 -1.4029 -1.3938
 5682TIP3    H217053   5.158   4.964   3.695 -0.3090  0.2182 -0.1803
 5683TIP3   OH217054   2.593   2.156   4.135 -0.0391  0.0237  0.0212
 5683TIP3    H117055   2.613   2.226   4.074  1.5956  0.2246  0.7328
 5683TIP3    H217056   2.668   2.097   4.129 -1.1474 -1.4117 -0.1903
 5684TIP3   OH217057   0.709   2.559   1.140  0.0020  0.0883 -0.1596
 5684TIP3    H117058   0.655   2.516   1.075  0.4416 -0.8103  0.0619
 5684TIP3    H217059   0.771   2.611   1.090  0.0517 -0.2471 -0.4446
 5685TIP3   OH217060   0.074   1.532   2.966 -0.1530  0.3562 -0.1082
 5685TIP3    H117061   0.011   1.561   3.032  0.7705  1.3319  0.3747
 5685TIP3    H217062   0.021   1.486   2.901 -1.1374 -0.2930  1.1088
 5686TIP3   OH217063   5.980   2.533   5.189  0.0131 -0.1109  0.4884
 5686TIP3    H117064   5.912   2.475   5.154  0.0204 -0.2373  0.6792
 5686TIP3    H217065   6.051   2.529   5.125  0.4934 -1.2234  1.0601
 5687TIP3   OH217066   3.843   4.621   5.154  0.4852 -0.4892 -0.3042
 5687TIP3    H117067   3.895   4.669   5.089  1.9128 -1.0680  0.3708
 5687TIP3    H217068   3.835   4.533   5.118 -0.4337 -0.2905 -0.6099
 5688TIP3   OH217069   2.492   1.557   0.540  0.0179  0.0421  0.0180
 5688TIP3    H117070   2.544   1.570   0.461 -0.0212 -0.3953 -0.0817
 5688TIP3    H217071   2.535   1.485   0.587  0.6718  1.0049  0.9427
 5689TIP3   OH217072   5.580   0.551   0.958  0.0502  0.3535 -0.8868
 5689TIP3    H117073   5.660   0.566   0.908 -0.4321  2.4512 -1.1227
 5689TIP3    H217074   5.510   0.590   0.906 -1.3232 -2.1681 -1.0866
 5690TIP3   OH217075   0.723   4.503   2.960  0.0744  0.5725 -0.2313
 5690TIP3    H117076   0.686   4.446   2.893  1.6008  0.1305 -0.7361
 5690TIP3    H217077   0.817   4.487   2.956  0.1510 -0.4170  2.8634
 5691TIP3   OH217078   5.511   1.910   3.599  0.0351 -0.1243 -0.2866
 5691TIP3    H117079   5.585   1.970   3.603  0.2097 -0.2273 -1.6768
 5691TIP3    H217080   5.435   1.966   3.587  0.1252 -0.1275 -0.9099
 5692TIP3   OH217081   4.858   1.950   3.989 -0.7128 -0.4101  0.2461
 5692TIP3    H117082   4.858   1.906   4.075 -1.4333  2.3912  1.8112
 5692TIP3    H217083   4.930   2.013   3.995 -1.5718  0.6850 -0.7432
 5693TIP3   OH217084   2.905   4.056   2.899  0.3340  0.1182 -0.3474
 5693TIP3    H117085   2.914   3.961   2.898 -0.3115 -0.0499  2.2762
 5693TIP3    H217086   2.853   4.076   2.821 -0.1507 -1.7359 -0.5521
 5694TIP3   OH217087   4.914   4.350   4.984  0.3180 -0.3696  0.0401
 5694TIP3    H117088   4.855   4.390   4.920 -0.1020  0.8511  1.1603
 5694TIP3    H217089   5.001   4.361   4.946 -0.0579 -1.2399 -1.1312
 5695TIP3   OH217090   5.315   0.803   0.071  0.2549  0.0820 -0.6090
 5695TIP3    H117091   5.352   0.718   0.048  2.0933  0.4529  0.7708
 5695TIP3    H217092   5.286   0.839  -0.012 -0.8991 -2.0098 -1.1894
 5696TIP3   OH217093   5.993   4.450   4.408 -0.1087 -0.4479 -0.2333
 5696TIP3    H117094   5.965   4.387   4.342 -0.7094 -1.7562  1.2049
 5696TIP3    H217095   5.951   4.420   4.489  2.8243 -0.5944  1.3779
 5697TIP3   OH217096   3.887   5.087   0.992 -0.0919 -1.0991 -0.2643
 5697TIP3    H117097   3.880   5.039   1.075  1.7907 -1.8511 -0.4791
 5697TIP3    H217098   3.975   5.125   0.993 -0.3865 -0.3062 -1.5032
 5698TIP3   OH217099   6.239   5.558   4.858  0.4906  0.3637  0.2995
 5698TIP3    H117100   6.221   5.478   4.907 -0.6020  0.7472  0.5497
 5698TIP3    H217101   6.290   5.529   4.783  1.1602 -0.3907  1.0316
 5699TIP3   OH217102   5.087   3.151   3.102  0.7929 -0.1132  0.1760
 5699TIP3    H117103   5.057   3.227   3.152 -1.7364 -1.7115  1.2974
 5699TIP3    H217104   5.030   3.148   3.026  3.1375  0.9776 -1.7719
 5700TIP3   OH217105   3.198   2.455   2.251 -0.0236  0.5444  0.5843
 5700TIP3    H117106   3.222   2.535   2.297 -0.0909  0.2746  1.0944
 5700TIP3    H217107   3.242   2.385   2.300  1.9703  0.4519 -1.1955
 5701TIP3   OH217108   4.363   2.693   3.622  0.4106 -0.2167 -0.3951
 5701TIP3    H117109   4.447   2.686   3.576  0.4439 -0.8001 -0.2532
 5701TIP3    H217110   4.385   2.729   3.707  0.3138  1.1451 -0.9222
 5702TIP3   OH217111   5.034   4.499   3.401 -0.1767  0.7298 -0.2755
 5702TIP3    H117112   5.012   4.564   3.335 -0.4796  1.0347  0.1252
 5702TIP3    H217113   5.102   4.445   3.360  0.5078  1.6610 -0.3927
 5703TIP3   OH217114   1.917   5.879   5.086 -0.3341  0.1787 -0.0107
 5703TIP3    H117115   1.872   5.885   5.170  1.4074  0.4989  0.9437
 5703TIP3    H217116   1.896   5.960   5.041 -0.2462  0.5858  0.6735
 5704TIP3   OH217117   4.899   5.780   0.604 -0.1993  0.4493 -0.2317
 5704TIP3    H117118   4.978   5.827   0.577 -1.0600  2.0702 -0.1014
 5704TIP3    H217119   4.900   5.784   0.700  1.1787 -2.4099 -0.0457
 5705TIP3   OH217120   5.499   1.408   4.890  0.2115  0.2361 -0.4619
 5705TIP3    H117121   5.550   1.331   4.914 -0.1399 -0.1995 -1.0695
 5705TIP3    H217122   5.520   1.473   4.957  1.2385 -0.0688 -0.4679
 5706TIP3   OH217123   2.242   5.894   4.850  0.1364 -0.5721 -0.5978
 5706TIP3    H117124   2.153   5.911   4.818  0.2907  0.8419 -0.3675
 5706TIP3    H217125   2.297   5.958   4.803  0.8342 -0.5928  0.1665
 5707TIP3   OH217126   0.202   1.592   3.670  0.2874 -0.5603  0.1755
 5707TIP3    H117127   0.249   1.515   3.702 -0.4572 -1.4602 -0.8268
 5707TIP3    H217128   0.242   1.611   3.585 -1.8405 -2.0589 -1.2575
 5708TIP3   OH217129   0.846   5.320   2.784 -0.0330  0.4759 -0.1123
 5708TIP3    H117130   0.853   5.246   2.843 -2.2465  1.2632  1.2349
 5708TIP3    H217131   0.806   5.285   2.705  0.4323 -0.0545 -0.1157
 5709TIP3   OH217132   2.165   4.460   0.769  0.1460 -0.4415  0.1154
 5709TIP3    H117133   2.170   4.433   0.861  1.4774  2.2468  0.9560
 5709TIP3    H217134   2.074   4.447   0.745 -0.1105 -1.7293  1.6295
 5710TIP3   OH217135   2.247   3.095   2.494 -0.1995 -0.1039 -0.1118
 5710TIP3    H117136   2.325   3.041   2.507  0.3703  0.8416  0.5325
 5710TIP3    H217137   2.179   3.033   2.471  0.6644 -0.9906 -0.3506
 5711TIP3   OH217138   5.666   0.313   2.078 -0.8773  1.0352  0.2847
 5711TIP3    H117139   5.682   0.313   1.984 -0.4197 -1.9617  0.2763
 5711TIP3    H217140   5.620   0.396   2.094  2.5997  3.6744 -1.8420
 5712TIP3   OH217141   4.076   2.608   3.467 -0.1682 -0.3616 -0.2907
 5712TIP3    H117142   4.163   2.627   3.503 -0.1174 -0.8975 -0.1265
 5712TIP3    H217143   4.029   2.566   3.539 -0.6553  0.1664 -0.2948
 5713TIP3   OH217144   1.720   0.759   1.177  0.1373  0.2780 -0.0796
 5713TIP3    H117145   1.801   0.738   1.224 -0.3286 -0.9222  0.2281
 5713TIP3    H217146   1.733   0.849   1.145  0.8102  0.8213  1.6170
 5714TIP3   OH217147   4.082   3.576   0.271  0.0510 -0.1894  0.1123
 5714TIP3    H117148   4.111   3.573   0.180 -1.5869 -0.3015 -0.4488
 5714TIP3    H217149   4.055   3.667   0.285 -1.7086 -0.6154 -0.2299
 5715TIP3   OH217150   3.355   4.174   3.432 -0.2594 -0.5142 -0.5939
 5715TIP3    H117151   3.389   4.204   3.348  0.0603  0.0155 -0.2719
 5715TIP3    H217152   3.401   4.092   3.448  1.1983  0.4000  0.0413
 5716TIP3   OH217153   5.801   5.852   3.108 -0.1700 -0.5006 -0.3528
 5716TIP3    H117154   5.835   5.768   3.077 -1.3820 -1.1161 -0.0965
 5716TIP3    H217155   5.719   5.829   3.153 -0.7671  0.8671 -0.6925
 5717TIP3   OH217156   1.382   5.262   1.563  0.1788 -0.6402 -0.3148
 5717TIP3    H117157   1.292   5.240   1.540  0.7064 -2.0521 -1.2368
 5717TIP3    H217158   1.428   5.178   1.560  1.4136 -0.0421  0.7207
 5718TIP3   OH217159   4.371   4.967   4.934  0.2147  0.1573 -0.0386
 5718TIP3    H117160   4.280   4.968   4.961 -0.1390  0.1333 -1.1729
 5718TIP3    H217161   4.416   4.915   5.001 -0.7386 -0.4928  0.1087
 5719TIP3   OH217162   2.918   5.740   1.348 -0.4015  0.5249 -0.0625
 5719TIP3    H117163   2.851   5.719   1.414 -0.1507  0.3620  0.1465
 5719TIP3    H217164   2.883   5.814   1.300 -0.4831  0.8047  0.4185
 5720TIP3   OH217165   1.360   1.764   3.502  0.5057 -0.1541  0.3275
 5720TIP3    H117166   1.329   1.684   3.546 -1.4646 -0.8042 -2.0287
 5720TIP3    H217167   1.391   1.735   3.417 -1.6420  1.6695 -1.2001
 5721TIP3   OH217168   3.451   2.604   4.847  0.0614  0.6472 -0.2122
 5721TIP3    H117169   3.537   2.646   4.855  0.0688  0.5685  0.1496
 5721TIP3    H217170   3.389   2.670   4.878 -0.0297  0.7805 -0.6746
 5722TIP3   OH217171   0.026   0.152   0.659 -0.1002 -0.1360 -0.1724
 5722TIP3    H117172   0.009   0.119   0.747 -0.9106 -0.1796 -0.3378
 5722TIP3    H217173   0.029   0.247   0.669 -3.3969  0.1261 -0.5579
 5723TIP3   OH217174   2.665   4.832   2.634 -0.0598  0.1817  0.3422
 5723TIP3    H117175   2.724   4.773   2.681 -0.7317 -0.5121  0.3427
 5723TIP3    H217176   2.711   4.851   2.552  0.3524 -0.0005  0.5279
 5724TIP3   OH217177   5.931   4.394   0.998 -0.0019  0.0608 -0.4872
 5724TIP3    H117178   6.025   4.413   1.003 -0.6483  3.8454  0.3402
 5724TIP3    H217179   5.903   4.431   0.915 -0.9598  0.0692 -0.1739
 5725TIP3   OH217180   3.524   4.384   4.552  0.0231  0.6866  0.6334
 5725TIP3    H117181   3.591   4.435   4.598 -2.3539  1.4202  3.5689
 5725TIP3    H217182   3.456   4.448   4.530 -0.8048 -0.4161 -0.1159
 5726TIP3   OH217183   3.962   2.753   0.554 -0.1400 -0.0791 -0.1193
 5726TIP3    H117184   3.870   2.735   0.573 -0.1200  0.4388  0.5266
 5726TIP3    H217185   4.002   2.769   0.640  0.1433  1.4961 -0.5039
 5727TIP3   OH217186   3.487   1.673   2.186  0.0438  0.2927 -0.1177
 5727TIP3    H117187   3.544   1.717   2.123 -1.5374  0.1416 -1.7469
 5727TIP3    H217188   3.409   1.649   2.135 -1.2312 -0.0177  1.8556
 5728TIP3   OH217189   2.475   5.088   1.977 -0.3001  0.1844  0.1136
 5728TIP3    H117190   2.514   5.036   2.048  2.0812  0.6184 -0.7828
 5728TIP3    H217191   2.493   5.179   2.001 -0.8162  0.4048 -0.3186
 5729TIP3   OH217192   2.944   0.621   3.983  0.7030 -0.4226 -0.3706
 5729TIP3    H117193   2.933   0.687   3.915 -1.1846 -1.4778 -1.1545
 5729TIP3    H217194   3.034   0.633   4.014  1.5869  0.1637 -2.9694
 5730TIP3   OH217195   5.377   1.639   2.521  0.1688  0.2253 -0.6648
 5730TIP3    H117196   5.296   1.648   2.570  1.0770  0.7868  0.8038
 5730TIP3    H217197   5.425   1.569   2.567  2.5021  3.0070  1.4976
 5731TIP3   OH217198   3.416   3.210   0.677 -0.3388  0.2780  0.2197
 5731TIP3    H117199   3.503   3.219   0.717 -0.0127 -0.1612 -0.3748
 5731TIP3    H217200   3.373   3.293   0.696  0.8023  1.1636 -0.8472
 5732TIP3   OH217201   0.819   5.822   0.644 -0.1646  0.0848  0.6335
 5732TIP3    H117202   0.893   5.826   0.583 -1.2752  0.4800 -0.7499
 5732TIP3    H217203   0.838   5.749   0.702  1.1031 -0.0798  0.0274
 5733TIP3   OH217204   3.626   1.049   1.626 -0.2150  0.1177 -0.2168
 5733TIP3    H117205   3.673   0.972   1.657 -0.9650 -0.0910  0.4284
 5733TIP3    H217206   3.573   1.077   1.701 -1.3107  0.1992 -0.9941
 5734TIP3   OH217207   3.396   3.128   5.018  0.1465  0.2566  0.0937
 5734TIP3    H117208   3.456   3.174   4.959 -0.4381  0.1661 -0.5890
 5734TIP3    H217209   3.322   3.188   5.028  1.1030  1.1701  2.3857
 5735TIP3   OH217210   4.582   3.353   3.898 -0.6225  0.4458  0.4386
 5735TIP3    H117211   4.606   3.263   3.917  0.9093  0.9409  1.0241
 5735TIP3    H217212   4.508   3.372   3.956 -1.2450 -0.5412 -0.0091
 5736TIP3   OH217213   2.312   0.695   1.919  0.0959 -0.6697  0.1365
 5736TIP3    H117214   2.276   0.770   1.965  0.5131 -0.3203 -0.1020
 5736TIP3    H217215   2.382   0.731   1.864 -0.6158 -1.0239 -1.0451
 5737TIP3   OH217216   5.642   2.147   3.670 -0.3200 -0.2835  0.1736
 5737TIP3    H117217   5.674   2.231   3.636 -1.0332 -0.2233 -0.3717
 5737TIP3    H217218   5.557   2.167   3.709 -1.2854 -1.0078 -1.4485
 5738TIP3   OH217219   0.744   2.545   1.481 -0.4563 -0.4138 -0.5985
 5738TIP3    H117220   0.705   2.476   1.427 -1.4680 -0.9006  0.6974
 5738TIP3    H217221   0.669   2.592   1.517  0.1627 -0.3663  0.6879
 5739TIP3   OH217222   1.368   2.719   0.803 -0.5094 -0.3664 -0.0596
 5739TIP3    H117223   1.397   2.711   0.894 -0.2555 -1.0069 -0.1869
 5739TIP3    H217224   1.299   2.654   0.794 -1.3795  0.5360 -0.0051
 5740TIP3   OH217225   6.270   0.144   2.868 -0.3307  0.8703  0.0459
 5740TIP3    H117226   6.224   0.216   2.910  2.9130  2.6251  0.9071
 5740TIP3    H217227   6.220   0.127   2.788 -2.8977  1.9535  1.3146
 5741TIP3   OH217228   2.355   4.191   4.745  0.0252  0.3132 -0.4117
 5741TIP3    H117229   2.264   4.218   4.742 -0.1157 -0.1447 -0.2822
 5741TIP3    H217230   2.382   4.210   4.835 -0.5789 -1.5852  0.2008
 5742TIP3   OH217231   4.773   2.331   1.776 -0.6030 -0.4740 -0.0938
 5742TIP3    H117232   4.762   2.243   1.812  0.0921 -0.8829 -0.8317
 5742TIP3    H217233   4.862   2.331   1.740  0.6166  1.5127  2.5803
 5743TIP3   OH217234   3.501   4.215   1.761 -0.0003  0.2723 -0.1115
 5743TIP3    H117235   3.441   4.216   1.686 -0.8256 -0.6013  0.5217
 5743TIP3    H217236   3.444   4.218   1.838  0.8614  1.8864  0.5154
 5744TIP3   OH217237   6.081   1.996   2.288  0.0428 -0.1386  0.2316
 5744TIP3    H117238   6.002   2.035   2.253 -0.2479 -0.4926  0.4874
 5744TIP3    H217239   6.050   1.929   2.349  0.5385 -0.5064  0.0824
 5745TIP3   OH217240   1.448   1.492   1.469  0.2652 -0.0714 -0.6705
 5745TIP3    H117241   1.479   1.568   1.517 -0.0323 -0.1483 -0.3487
 5745TIP3    H217242   1.353   1.503   1.466  0.0957 -1.0168  0.4205
 5746TIP3   OH217243   2.153   3.337   3.079 -0.5896 -0.1408  0.6294
 5746TIP3    H117244   2.142   3.255   3.127  0.6803 -0.2247  0.8284
 5746TIP3    H217245   2.165   3.403   3.147 -1.9694  0.3007  0.4806
 5747TIP3   OH217246   0.943   3.577   4.712 -0.1487 -0.4118  0.0207
 5747TIP3    H117247   0.872   3.520   4.681  0.2705  0.2255 -2.3154
 5747TIP3    H217248   0.901   3.637   4.772 -0.9828 -1.9166  1.0202
 5748TIP3   OH217249   4.034   2.750   4.385  0.3251 -0.5636 -0.6244
 5748TIP3    H117250   4.085   2.676   4.352  0.7146 -0.3265 -0.5605
 5748TIP3    H217251   3.951   2.744   4.338 -1.1010 -3.1682  1.9376
 5749TIP3   OH217252   5.260   1.248   3.557 -0.0480 -0.3037  0.2388
 5749TIP3    H117253   5.187   1.289   3.604 -0.7169  2.2099 -2.6873
 5749TIP3    H217254   5.221   1.170   3.516 -0.3087 -0.6112  1.0482
 5750TIP3   OH217255   5.030   2.376   0.709 -0.0043 -0.0432 -0.4484
 5750TIP3    H117256   5.098   2.413   0.652  0.2337 -1.5839 -1.2214
 5750TIP3    H217257   5.079   2.331   0.778 -0.2435 -0.8452 -0.7995
 5751TIP3   OH217258   4.411   2.646   4.002 -0.7648  0.2455 -0.3550
 5751TIP3    H117259   4.438   2.685   4.085  0.2694  0.6700 -0.8730
 5751TIP3    H217260   4.485   2.590   3.976 -1.1205  0.0349 -0.9402
 5752TIP3   OH217261   4.216   2.082   5.078 -0.3761 -0.2082 -0.4146
 5752TIP3    H117262   4.188   2.027   5.151  0.2605 -2.9311 -2.0423
 5752TIP3    H217263   4.135   2.123   5.046 -0.9525 -0.4830  0.6479
 5753TIP3   OH217264   4.562   1.038   0.458  0.5036 -0.1877  0.2542
 5753TIP3    H117265   4.619   1.109   0.489 -0.8785  0.2159  2.0168
 5753TIP3    H217266   4.555   1.054   0.364  0.2794  2.0038  0.5742
 5754TIP3   OH217267   3.600   4.362   0.034  0.8080  0.5229  0.5763
 5754TIP3    H117268   3.568   4.280   0.069  0.7241  1.2289  2.2281
 5754TIP3    H217269   3.682   4.339  -0.011 -1.0073 -1.0102 -2.2097
 5755TIP3   OH217270   4.433   0.353   0.783  0.6309  0.1237 -0.1289
 5755TIP3    H117271   4.349   0.333   0.824  0.7626 -0.6286 -0.2175
 5755TIP3    H217272   4.429   0.311   0.697  0.8112  0.7112 -0.4310
 5756TIP3   OH217273   4.204   5.735   2.151 -0.0706 -0.2992  0.1915
 5756TIP3    H117274   4.115   5.710   2.178  0.1238 -1.2549  0.0052
 5756TIP3    H217275   4.255   5.655   2.164  1.5867  1.0875  3.7234
 5757TIP3   OH217276   3.541   2.907   3.254  0.2509  0.4553 -0.0064
 5757TIP3    H117277   3.582   2.823   3.238  1.2616  0.8991  0.2172
 5757TIP3    H217278   3.466   2.887   3.310  1.4988 -0.0887  1.5339
 5758TIP3   OH217279   6.253   2.518   1.037  0.3760  0.0852 -0.1605
 5758TIP3    H117280   6.301   2.444   1.073  1.9484  0.5618 -1.1706
 5758TIP3    H217281   6.305   2.546   0.962 -0.7646  1.5287 -0.4590
 5759TIP3   OH217282   0.576   0.320   0.596  0.6039  0.1132  0.3073
 5759TIP3    H117283   0.586   0.240   0.543  0.6602  0.4312 -0.1717
 5759TIP3    H217284   0.486   0.348   0.580  1.1155  1.1364 -0.9657
 5760TIP3   OH217285   2.028   5.537   0.205  0.3386  0.2039 -0.1132
 5760TIP3    H117286   1.966   5.493   0.147  1.2124  0.5633 -1.3487
 5760TIP3    H217287   2.100   5.475   0.216  1.4381  1.1650 -1.6260
 5761TIP3   OH217288   3.138   3.265   3.572  0.2171  0.2264  0.8387
 5761TIP3    H117289   3.056   3.305   3.543  0.1164 -1.1762 -1.0095
 5761TIP3    H217290   3.118   3.231   3.659 -1.6035 -1.1465 -0.0282
 5762TIP3   OH217291   5.503   3.000   3.257 -0.5418 -0.1660 -0.0199
 5762TIP3    H117292   5.531   3.078   3.305  0.1944 -0.8811  0.7490
 5762TIP3    H217293   5.472   2.940   3.325 -1.3149 -0.4708 -0.6248
 5763TIP3   OH217294   3.295   4.811   2.424 -0.0148 -0.2001  0.0001
 5763TIP3    H117295   3.223   4.874   2.414 -1.7476 -2.1047 -0.1741
 5763TIP3    H217296   3.297   4.764   2.340 -1.0953 -2.6566  1.2608
 5764TIP3   OH217297   0.747   3.706   3.107  0.0660 -0.2973  0.1248
 5764TIP3    H117298   0.816   3.684   3.045 -0.0168  3.5667 -1.6044
 5764TIP3    H217299   0.694   3.626   3.113  3.2351 -2.6460 -0.2766
 5765TIP3   OH217300   4.911   4.703   4.642  0.5616  0.0644 -0.3563
 5765TIP3    H117301   5.007   4.710   4.643  0.6558 -0.9887  0.9342
 5765TIP3    H217302   4.881   4.784   4.682  0.9772 -0.2061  0.5234
 5766TIP3   OH217303   0.473   5.572   4.769 -0.8869 -0.4598 -0.9058
 5766TIP3    H117304   0.394   5.580   4.821  0.3663 -1.6627  1.3219
 5766TIP3    H217305   0.481   5.478   4.751 -0.8623 -0.1650 -2.6705
 5767TIP3   OH217306  -0.008   4.870   0.081 -0.3885  0.1072 -0.4878
 5767TIP3    H117307   0.067   4.910   0.124 -1.2739  0.0178  1.2492
 5767TIP3    H217308   0.027   4.831   0.001  0.9409  2.1786 -0.9872
 5768TIP3   OH217309   5.581   5.049   2.318  0.0033 -0.3132  0.5378
 5768TIP3    H117310   5.563   5.056   2.224  0.9858 -2.3528  0.1383
 5768TIP3    H217311   5.676   5.051   2.324 -0.0724  1.1668  1.6627
 5769TIP3   OH217312   1.947   4.383   0.554  0.3495 -0.1294  0.0829
 5769TIP3    H117313   2.019   4.392   0.491  1.1603 -0.4097  0.9431
 5769TIP3    H217314   1.877   4.439   0.519  0.9330  0.0537 -0.8346
 5770TIP3   OH217315   1.706   3.120   1.655  0.1501 -0.0560  0.3468
 5770TIP3    H117316   1.615   3.100   1.635  0.3363 -0.9814  0.4072
 5770TIP3    H217317   1.731   3.186   1.590 -0.5385  0.1734  0.3022
 5771TIP3   OH217318   4.397   3.038   0.386 -0.5242  0.0047  0.4903
 5771TIP3    H117319   4.402   2.992   0.470 -0.2261 -0.6264  0.1382
 5771TIP3    H217320   4.419   2.971   0.321  1.9002  1.0857  0.0740
 5772TIP3   OH217321   2.376   5.548   2.523  0.2210 -0.1879 -0.1027
 5772TIP3    H117322   2.344   5.474   2.574  0.1376 -1.2797 -1.6884
 5772TIP3    H217323   2.471   5.547   2.537  0.2820 -0.9168 -0.5106
 5773TIP3   OH217324   4.715   4.193   0.119  0.3021 -0.0214  0.2477
 5773TIP3    H117325   4.775   4.119   0.126 -0.0498 -0.2378  1.0088
 5773TIP3    H217326   4.766   4.260   0.073  0.6000 -0.7493 -0.5118
 5774TIP3   OH217327   0.522   1.286   0.606 -0.1602 -0.2954 -0.0737
 5774TIP3    H117328   0.529   1.375   0.641  1.2791 -0.6008  0.5080
 5774TIP3    H217329   0.448   1.289   0.545 -0.2219  1.2533  0.0490
 5775TIP3   OH217330   0.660   2.019   2.386 -0.3558  0.0283 -0.0666
 5775TIP3    H117331   0.609   2.090   2.347  0.7343  0.1850 -1.2647
 5775TIP3    H217332   0.740   2.062   2.417 -1.0361 -0.1484  2.1002
 5776TIP3   OH217333   6.127   1.851   4.321  0.1981  0.2301 -0.2910
 5776TIP3    H117334   6.119   1.774   4.264 -0.3372  1.0320 -1.3288
 5776TIP3    H217335   6.165   1.816   4.402 -0.2528 -1.1679 -0.6437
 5777TIP3   OH217336   3.243   1.212   2.523 -0.5896  0.3703  0.2581
 5777TIP3    H117337   3.308   1.156   2.482 -0.1888  1.5150 -0.7348
 5777TIP3    H217338   3.257   1.201   2.617  0.7467  0.2747  0.0631
 5778TIP3   OH217339   4.347   0.019   3.969  0.0234  0.6797 -0.1395
 5778TIP3    H117340   4.261   0.062   3.971 -0.3219  0.0772  2.6863
 5778TIP3    H217341   4.409   0.088   3.994  0.2595  0.8771 -1.2287
 5779TIP3   OH217342   3.983   0.582   3.159  0.1404  0.0341 -0.1922
 5779TIP3    H117343   4.045   0.597   3.087 -0.5164  0.9029 -0.5857
 5779TIP3    H217344   3.963   0.669   3.193 -2.0926 -0.0539 -1.1297
 5780TIP3   OH217345   4.579   0.263   2.628 -0.3609 -0.5796  0.7245
 5780TIP3    H117346   4.507   0.279   2.567  0.4460 -2.1195 -0.7297
 5780TIP3    H217347   4.645   0.328   2.606 -0.5436 -0.3790  0.7690
 5781TIP3   OH217348   0.644   5.662   2.617  0.6472  0.6268  0.2044
 5781TIP3    H117349   0.689   5.716   2.553  0.4881 -1.1381 -1.4599
 5781TIP3    H217350   0.710   5.644   2.684  1.7215  0.0517 -0.9820
 5782TIP3   OH217351   4.653   0.473   2.334  0.0166 -0.3042  0.2885
 5782TIP3    H117352   4.602   0.545   2.297  0.2152 -0.5922 -0.5769
 5782TIP3    H217353   4.695   0.511   2.411  0.7572  0.7574 -0.6034
 5783TIP3   OH217354   0.698   0.625   0.166 -0.2357 -0.0969  0.9376
 5783TIP3    H117355   0.657   0.686   0.104 -0.0059 -1.4672 -0.6418
 5783TIP3    H217356   0.780   0.667   0.190  0.1645  0.0247 -0.5290
 5784TIP3   OH217357   0.789   4.117   0.873  0.6865  0.1292 -0.2021
 5784TIP3    H117358   0.744   4.190   0.915  0.7753 -0.2192  0.5127
 5784TIP3    H217359   0.761   4.040   0.923  0.5474 -0.3400 -0.9775
 5785TIP3   OH217360   2.732   4.913   0.078 -0.3158  0.6534  0.5103
 5785TIP3    H117361   2.660   4.959   0.122  0.2231  0.0737  2.0356
 5785TIP3    H217362   2.811   4.947   0.120  0.1938 -0.2230  0.2684
 5786TIP3   OH217363   1.896   3.907   1.836  0.2749 -0.4168 -0.2629
 5786TIP3    H117364   1.914   3.867   1.751 -0.9385  1.1016 -1.3057
 5786TIP3    H217365   1.913   3.838   1.900  0.7073 -1.7635 -1.7701
 5787TIP3   OH217366   5.409   1.321   4.627 -0.4526 -0.0113 -0.6642
 5787TIP3    H117367   5.461   1.328   4.706 -2.0456 -0.1770  0.4428
 5787TIP3    H217368   5.404   1.227   4.609  0.7847  0.0760 -1.6066
 5788TIP3   OH217369   3.664   4.172   3.011 -0.2463  0.1904  0.2528
 5788TIP3    H117370   3.672   4.097   2.952  0.4553  0.0205  0.5543
 5788TIP3    H217371   3.569   4.184   3.023 -0.3522 -1.3426  1.0825
 5789TIP3   OH217372   3.951   4.735   4.934  0.3051 -0.2520 -0.1588
 5789TIP3    H117373   4.018   4.680   4.894  1.8827  0.5967  1.1891
 5789TIP3    H217374   3.965   4.822   4.897 -1.2678 -0.3862 -1.2092
 5790TIP3   OH217375   4.351   0.071   5.073  0.0217 -0.0363  0.1067
 5790TIP3    H117376   4.350  -0.014   5.030 -0.7812  0.5192 -1.0246
 5790TIP3    H217377   4.434   0.111   5.045 -0.2636  0.1185 -0.5378
 5791TIP3   OH217378   1.964   4.773   0.671  0.3564  0.0090 -0.3373
 5791TIP3    H117379   2.049   4.743   0.639  1.4498  0.7694  1.7197
 5791TIP3    H217380   1.948   4.721   0.749 -1.1269 -0.1457 -0.7126
 5792TIP3   OH217381   1.342   3.365   3.222  0.1842  0.6546  0.0953
 5792TIP3    H117382   1.284   3.300   3.181 -1.4979  1.8652  0.4413
 5792TIP3    H217383   1.327   3.445   3.171 -0.9919  1.8650  2.1899
 5793TIP3   OH217384   1.776   2.732   1.586  0.6525  0.5382  0.1960
 5793TIP3    H117385   1.818   2.780   1.515  1.2796 -0.0508  0.1546
 5793TIP3    H217386   1.687   2.766   1.589  1.1873  1.9975  0.4394
 5794TIP3   OH217387   5.833   3.770   3.471 -0.3414 -0.3940  0.3135
 5794TIP3    H117388   5.759   3.782   3.531 -1.3759 -3.4804 -0.1803
 5794TIP3    H217389   5.793   3.736   3.391  1.5543 -1.7158 -0.1323
 5795TIP3   OH217390   0.228   0.436   2.328 -0.0195 -0.3006 -0.0572
 5795TIP3    H117391   0.311   0.433   2.375  0.1761  2.4984 -0.0484
 5795TIP3    H217392   0.253   0.439   2.235 -0.1350 -0.0788 -0.0821
 5796TIP3   OH217393   1.358   4.054   4.059 -0.3751 -0.1198 -0.2417
 5796TIP3    H117394   1.304   4.061   4.138 -0.9456  0.2297 -0.6509
 5796TIP3    H217395   1.353   3.962   4.034 -0.4261 -0.1754 -0.0255
 5797TIP3   OH217396   1.747   3.835   4.759 -0.2962  0.0190  0.4329
 5797TIP3    H117397   1.750   3.931   4.769  1.5055 -0.0682  1.1250
 5797TIP3    H217398   1.834   3.812   4.728 -1.0238 -1.3308 -0.6687
 5798TIP3   OH217399   3.275   1.204   0.467 -0.1005 -0.6635 -0.0816
 5798TIP3    H117400   3.289   1.162   0.382  1.2724  1.8646 -1.2213
 5798TIP3    H217401   3.363   1.228   0.496 -0.7887  1.7164  0.2701
 5799TIP3   OH217402   3.623   6.014   3.429  0.3871 -0.6009  0.3836
 5799TIP3    H117403   3.619   6.001   3.334 -0.8631  0.4244  0.2655
 5799TIP3    H217404   3.635   5.927   3.465  1.5782 -0.9339 -0.7409
 5800TIP3   OH217405   0.298   4.677   1.519 -0.0747  0.3304 -0.3170
 5800TIP3    H117406   0.315   4.592   1.476  0.2322  0.3225 -0.1869
 5800TIP3    H217407   0.217   4.663   1.568  0.3041 -0.0830  0.2061
 5801TIP3   OH217408   4.210   1.642   1.012  0.4353 -0.4692  0.0980
 5801TIP3    H117409   4.118   1.659   1.030  0.6443  1.5220 -0.5275
 5801TIP3    H217410   4.218   1.547   1.016 -1.5175 -0.6435  0.7225
 5802TIP3   OH217411   3.064   0.600   1.303 -0.2568 -0.0558 -0.3393
 5802TIP3    H117412   3.113   0.585   1.222  0.5892  0.1447  0.1228
 5802TIP3    H217413   3.041   0.693   1.301  2.0365  0.6184  0.8324
 5803TIP3   OH217414   2.060   5.040   0.467 -0.4333 -0.0728 -0.2623
 5803TIP3    H117415   2.096   5.119   0.507 -0.4516 -0.2484  0.1059
 5803TIP3    H217416   2.131   5.007   0.412  0.3632 -0.9631  1.2142
 5804TIP3   OH217417   5.791   0.396   5.093  0.2284  0.0536  0.5311
 5804TIP3    H117418   5.873   0.439   5.120 -0.5205  0.4180  2.4585
 5804TIP3    H217419   5.750   0.370   5.176 -1.8017  0.2624 -0.3416
 5805TIP3   OH217420   0.312   5.124   0.786  0.4655 -0.1616  0.4093
 5805TIP3    H117421   0.262   5.116   0.705  1.7764 -0.7648 -0.3833
 5805TIP3    H217422   0.263   5.186   0.840 -1.2154 -0.8942 -0.2288
 5806TIP3   OH217423   1.371   5.549   0.162  0.2950  0.5403 -0.2636
 5806TIP3    H117424   1.417   5.468   0.187  1.1215  0.9842 -0.2949
 5806TIP3    H217425   1.293   5.550   0.218  0.2150 -0.3281 -0.3335
 5807TIP3   OH217426   0.119   2.096   3.738  0.5893 -0.4297 -0.7286
 5807TIP3    H117427   0.063   2.052   3.802  0.2518 -0.8712 -1.3241
 5807TIP3    H217428   0.105   2.048   3.656  2.2467 -0.8998 -0.7730
 5808TIP3   OH217429   4.617   0.890   3.779  0.3298 -0.2613  0.4254
 5808TIP3    H117430   4.657   0.977   3.781  0.5165 -0.3237 -0.4611
 5808TIP3    H217431   4.607   0.869   3.686  1.0024 -1.5247  0.6131
 5809TIP3   OH217432   2.113   0.954   4.880  0.1651 -0.4374  0.7415
 5809TIP3    H117433   2.180   0.981   4.944 -0.2912 -0.4859  1.2401
 5809TIP3    H217434   2.151   0.979   4.795  0.3776  0.4789  1.0905
 5810TIP3   OH217435   3.690   2.294   4.882  0.1848 -0.5192  0.7044
 5810TIP3    H117436   3.769   2.348   4.877 -0.1500 -0.0353  0.5409
 5810TIP3    H217437   3.722   2.204   4.885  0.7891 -0.2921  1.7256
 5811TIP3   OH217438   1.024   2.090   2.309  0.5829 -0.0431 -0.5354
 5811TIP3    H117439   1.011   2.025   2.240  1.5086  0.2082 -0.9603
 5811TIP3    H217440   1.014   2.174   2.265 -2.4625  0.2005  0.3462
 5812TIP3   OH217441   4.958   5.921   1.444 -0.1116  0.1147 -0.2722
 5812TIP3    H117442   5.005   5.968   1.512 -0.1765  0.0615 -0.1901
 5812TIP3    H217443   5.019   5.853   1.415  0.7720  1.4843 -1.8043
 5813TIP3   OH217444   5.741   1.857   1.201 -0.0498  0.0600 -0.1290
 5813TIP3    H117445   5.656   1.888   1.170  0.0270 -0.8820 -1.3775
 5813TIP3    H217446   5.764   1.917   1.272 -1.2058  1.0591 -0.5576
 5814TIP3   OH217447   6.300   1.495   0.708 -0.1362  0.2219  0.2269
 5814TIP3    H117448   6.350   1.552   0.649  1.5881 -2.9342 -1.6291
 5814TIP3    H217449   6.319   1.529   0.795  1.4982  1.9614 -0.7261
 5815TIP3   OH217450   5.767   2.436   2.876 -0.0285 -0.8424  0.2794
 5815TIP3    H117451   5.860   2.460   2.874 -0.4175  0.8212 -1.8070
 5815TIP3    H217452   5.767   2.340   2.877  1.7082 -0.8693  0.2498
 5816TIP3   OH217453   4.850   2.900   3.016  0.5415 -0.3340 -0.1856
 5816TIP3    H117454   4.925   2.861   2.971  0.6849  0.2572 -0.4613
 5816TIP3    H217455   4.870   2.891   3.109  0.0655 -1.9290 -0.1940
 5817TIP3   OH217456   4.296   1.033   3.037  0.2719 -0.4946 -0.1970
 5817TIP3    H117457   4.296   1.004   2.946 -1.1875 -2.0131  0.2420
 5817TIP3    H217458   4.339   0.962   3.085 -1.6186 -1.1474  0.6454
 5818TIP3   OH217459   4.185   3.229   2.335  0.2169  0.0077 -0.0657
 5818TIP3    H117460   4.161   3.322   2.326 -1.3756 -0.4777 -1.2544
 5818TIP3    H217461   4.280   3.229   2.338  0.2342  1.7591  0.9694
 5819TIP3   OH217462   0.502   4.161   4.795  0.6485 -0.8797  0.7164
 5819TIP3    H117463   0.503   4.162   4.891  0.3800 -0.7832  0.7202
 5819TIP3    H217464   0.469   4.247   4.770 -0.3879 -1.2996  0.5659
 5820TIP3   OH217465   3.282   3.492   0.302 -0.3068 -0.0762 -0.9470
 5820TIP3    H117466   3.201   3.537   0.324 -1.1398 -0.8011 -2.3989
 5820TIP3    H217467   3.347   3.562   0.294 -0.5825  0.4416  0.9665
 5821TIP3   OH217468   3.129   2.696   0.256 -0.0500  0.3743 -0.3229
 5821TIP3    H117469   3.074   2.699   0.334  1.5659  2.0567  0.8294
 5821TIP3    H217470   3.127   2.786   0.222  3.6555  1.1935  1.0968
 5822TIP3   OH217471   4.449   5.905   2.356  0.0791  0.0909 -0.1715
 5822TIP3    H117472   4.516   5.923   2.290 -0.3872 -0.7443 -0.8954
 5822TIP3    H217473   4.415   5.991   2.379 -0.5315  0.3452 -1.8678
 5823TIP3   OH217474   0.828   1.094   4.317 -0.1206  0.8612 -0.1216
 5823TIP3    H117475   0.807   1.081   4.225  0.7527 -0.1642 -0.2010
 5823TIP3    H217476   0.784   1.021   4.362  2.6968 -1.0946 -0.2445
 5824TIP3   OH217477   2.680   2.674   0.448 -0.0143 -0.0269  0.0983
 5824TIP3    H117478   2.655   2.705   0.535 -1.1706  0.2513 -0.3087
 5824TIP3    H217479   2.645   2.740   0.388  2.1061  0.6038 -0.5353
 5825TIP3   OH217480   0.463   5.479   2.492 -0.3460  0.0239 -0.2737
 5825TIP3    H117481   0.533   5.529   2.534  0.1670 -1.0849  0.2301
 5825TIP3    H217482   0.449   5.523   2.409  0.8110  0.3989 -0.2921
 5826TIP3   OH217483   4.863   3.274   4.072 -0.0731 -0.6372  0.0810
 5826TIP3    H117484   4.837   3.347   4.017 -1.2450 -0.3305  1.0158
 5826TIP3    H217485   4.950   3.298   4.105 -0.4770  0.3688  0.4349
 5827TIP3   OH217486   1.575   4.580   2.875  0.3649  0.0261 -0.5919
 5827TIP3    H117487   1.480   4.571   2.868  0.2354  0.7967  0.0368
 5827TIP3    H217488   1.605   4.492   2.898 -0.3173 -0.0080  0.2473
 5828TIP3   OH217489   5.147   3.096   3.389 -0.0102  0.4538 -0.9057
 5828TIP3    H117490   5.158   3.118   3.297 -0.3127  0.5255 -0.9247
 5828TIP3    H217491   5.227   3.050   3.412  0.3231  0.9492 -1.0524
 5829TIP3   OH217492   4.213   5.052   4.309 -0.1065 -0.4762 -0.5234
 5829TIP3    H117493   4.305   5.042   4.284  0.2358  1.3784 -0.1232
 5829TIP3    H217494   4.184   5.132   4.265 -1.2013 -0.4228  0.2512
 5830TIP3   OH217495   6.262   1.496   4.305  0.2160 -0.3256  0.8730
 5830TIP3    H117496   6.315   1.508   4.384 -0.3242  1.6738  0.9952
 5830TIP3    H217497   6.198   1.429   4.330 -0.0465  0.3808  2.1968
 5831TIP3   OH217498   1.115   0.764   5.149  0.3038  0.4731 -0.2724
 5831TIP3    H117499   1.165   0.682   5.154  0.0374  0.2793 -0.7340
 5831TIP3    H217500   1.109   0.794   5.240  1.2861  0.5160 -0.2130
 5832TIP3   OH217501   4.189   3.235   3.615 -0.1027 -0.1629 -0.2291
 5832TIP3    H117502   4.154   3.268   3.532  0.6050 -0.9461 -0.8654
 5832TIP3    H217503   4.163   3.143   3.617  1.8851 -0.7735 -0.7375
 5833TIP3   OH217504   2.439   0.891   4.463 -1.2166 -0.1536 -0.4898
 5833TIP3    H117505   2.481   0.962   4.416 -1.2032 -0.8928 -1.6326
 5833TIP3    H217506   2.476   0.811   4.425 -0.6780 -0.7898  1.2529
 5834TIP3   OH217507   2.667   1.731   3.234  0.3581 -0.0803  0.3966
 5834TIP3    H117508   2.622   1.736   3.150  1.4564  0.6643 -0.1753
 5834TIP3    H217509   2.624   1.660   3.281  0.4755 -1.2739 -1.2475
 5835TIP3   OH217510   0.663   1.196   1.374 -0.1183  0.4849  0.0105
 5835TIP3    H117511   0.626   1.114   1.408 -0.5957  0.7283  0.0976
 5835TIP3    H217512   0.621   1.208   1.289  0.5278  0.2521 -0.3487
 5836TIP3   OH217513   0.205   4.007   0.970 -0.2342 -0.2841  0.0009
 5836TIP3    H117514   0.196   3.942   0.901 -0.8113 -2.1819  1.7660
 5836TIP3    H217515   0.119   4.013   1.010  0.0608  0.8386  0.5216
 5837TIP3   OH217516   3.296   0.056   2.143 -0.0568 -0.3856 -0.1944
 5837TIP3    H117517   3.339   0.133   2.182  0.7445 -1.1148  0.4122
 5837TIP3    H217518   3.369   0.001   2.113 -0.6327 -0.5743 -1.3062
 5838TIP3   OH217519   3.110   3.243   2.223 -0.2550  0.5384 -0.6337
 5838TIP3    H117520   3.119   3.156   2.262 -0.5444  1.1103  0.7949
 5838TIP3    H217521   3.076   3.227   2.135  0.0703 -0.8006 -0.5449
 5839TIP3   OH217522   5.933   0.387   0.094 -0.4759 -0.1346  0.0573
 5839TIP3    H117523   5.994   0.366   0.164 -1.4379 -0.2421  0.8986
 5839TIP3    H217524   5.955   0.327   0.023  1.2324  0.7233 -0.1757
 5840TIP3   OH217525   0.406   5.962   1.824  0.3461  0.2997 -0.5615
 5840TIP3    H117526   0.387   5.905   1.898  0.7893 -0.2611 -0.8792
 5840TIP3    H217527   0.484   6.011   1.850  0.0061  0.7202 -0.3173
 5841TIP3   OH217528   4.560   1.803   4.157 -0.4225 -0.0311  0.4083
 5841TIP3    H117529   4.493   1.790   4.223 -0.9130 -0.3067 -0.1344
 5841TIP3    H217530   4.585   1.895   4.165  0.2425 -0.2921  1.6369
 5842TIP3   OH217531   3.968   2.031   2.154 -0.1906  0.0577 -0.5677
 5842TIP3    H117532   3.936   2.071   2.073  0.8929  1.5689 -0.3038
 5842TIP3    H217533   4.008   2.104   2.201  1.3404 -1.2538  0.2293
 5843TIP3   OH217534   5.442   2.828   5.160 -0.1367  0.1503 -0.0177
 5843TIP3    H117535   5.400   2.757   5.209  1.5524 -1.4564 -0.7922
 5843TIP3    H217536   5.491   2.784   5.091  1.4515  2.0470 -0.1871
 5844TIP3   OH217537   3.259   4.980   3.901  0.9675 -0.6870  0.0782
 5844TIP3    H117538   3.278   5.048   3.965  0.0784  0.3408 -0.6984
 5844TIP3    H217539   3.268   4.897   3.950  1.2404  0.0149  1.2584
 5845TIP3   OH217540   6.157   0.990   4.072  0.2263 -0.3956  0.5007
 5845TIP3    H117541   6.110   0.907   4.067  0.7503 -0.7599  1.3134
 5845TIP3    H217542   6.249   0.964   4.078  0.4086  0.2527  0.5642
 5846TIP3   OH217543   3.723   4.320   3.482  0.2330 -0.1191  0.0617
 5846TIP3    H117544   3.807   4.363   3.495  0.6277 -1.1205  1.0407
 5846TIP3    H217545   3.664   4.390   3.455  1.0531  0.8661  0.7311
 5847TIP3   OH217546   5.612   3.397   3.745  0.2931  0.1688  0.2325
 5847TIP3    H117547   5.539   3.348   3.781 -1.5038  1.5851 -1.2974
 5847TIP3    H217548   5.688   3.341   3.759 -1.2993 -2.0196  0.5387
 5848TIP3   OH217549   3.622   0.708   4.846  0.5583 -0.3211 -0.3929
 5848TIP3    H117550   3.622   0.735   4.754 -1.2401  0.0188 -0.3393
 5848TIP3    H217551   3.630   0.789   4.895  0.4310 -0.3916 -0.2540
 5849TIP3   OH217552   5.130   1.346   4.375  0.4136  0.6195 -0.7141
 5849TIP3    H117553   5.130   1.326   4.468 -1.5531  0.5894 -0.6813
 5849TIP3    H217554   5.127   1.261   4.331 -0.9021  0.6407 -0.7206
 5850TIP3   OH217555   1.130   2.882   5.118 -0.1307 -0.5171 -0.2554
 5850TIP3    H117556   1.106   2.961   5.069  2.2768 -0.4678 -1.4570
 5850TIP3    H217557   1.130   2.911   5.210  3.1303  1.6933 -0.7856
 5851TIP3   OH217558   1.736   0.134   0.321  0.0670  0.0553  0.3650
 5851TIP3    H117559   1.688   0.052   0.327  1.3592 -0.9422 -1.6737
 5851TIP3    H217560   1.762   0.140   0.228  1.9842  1.5964  0.9176
 5852TIP3   OH217561   6.033   0.750   4.034 -0.7224  0.8017  0.4159
 5852TIP3    H117562   5.989   0.741   4.118 -1.7473 -0.1556 -0.1965
 5852TIP3    H217563   6.016   0.667   3.989  1.8714  0.2957  0.1914
 5853TIP3   OH217564   5.447   2.320   3.439  0.3478 -0.0770 -0.4643
 5853TIP3    H117565   5.480   2.404   3.472 -1.2680  0.4538 -0.1196
 5853TIP3    H217566   5.503   2.300   3.364  1.8632  0.4317  0.4919
 5854TIP3   OH217567   1.558   2.530   5.133  0.2095 -0.3318  0.1873
 5854TIP3    H117568   1.538   2.492   5.047 -0.7447 -1.4875  0.8958
 5854TIP3    H217569   1.495   2.601   5.142 -0.1085 -0.6082  0.1868
 5855TIP3   OH217570   0.326   1.225   0.434 -0.1935  0.5875 -0.2388
 5855TIP3    H117571   0.340   1.136   0.467 -0.1622  0.5463 -0.3608
 5855TIP3    H217572   0.237   1.223   0.398  0.0931  0.3745 -0.9683
 5856TIP3   OH217573   3.829   5.675   2.461  0.4720 -0.3803 -0.1977
 5856TIP3    H117574   3.769   5.646   2.530 -1.4055 -0.4223 -1.7316
 5856TIP3    H217575   3.822   5.770   2.461  3.9295  0.0675  2.5032
 5857TIP3   OH217576   0.565   4.344   1.283 -0.6114 -0.2354 -0.1447
 5857TIP3    H117577   0.625   4.395   1.228 -2.6436  0.5409 -1.7927
 5857TIP3    H217578   0.600   4.255   1.280 -0.2304 -0.0702 -2.1644
 5858TIP3   OH217579   2.541   1.424   4.723  0.3311  0.0569  0.3014
 5858TIP3    H117580   2.507   1.511   4.701  0.0668  0.1180  0.9246
 5858TIP3    H217581   2.476   1.363   4.689  1.9165 -0.0997 -2.8604
 5859TIP3   OH217582   1.745   1.012   1.070 -0.6293  0.6655  0.4883
 5859TIP3    H117583   1.770   0.999   0.979 -1.8295 -0.3256  0.2731
 5859TIP3    H217584   1.815   1.065   1.107  0.0870  0.7239 -0.8994
 5860TIP3   OH217585   3.107   2.868   3.062 -0.3741 -0.0303 -0.2544
 5860TIP3    H117586   3.105   2.813   2.983 -0.2951 -1.5851  0.7717
 5860TIP3    H217587   3.125   2.806   3.133 -1.5349  1.1422  1.1267
 5861TIP3   OH217588   3.043   5.111   2.092 -0.1114 -0.1693  0.4452
 5861TIP3    H117589   3.133   5.085   2.069  0.0361  0.6133  0.0964
 5861TIP3    H217590   3.008   5.149   2.011 -0.2122  0.9621  0.9943
 5862TIP3   OH217591   5.291   2.219   2.402 -0.3690 -0.0316 -0.2368
 5862TIP3    H117592   5.352   2.289   2.425 -0.1790 -0.0601 -0.6322
 5862TIP3    H217593   5.205   2.257   2.413 -0.2724  0.7627 -1.8547
 5863TIP3   OH217594   1.065   4.305   3.859 -0.0274  0.0729  0.1528
 5863TIP3    H117595   1.097   4.315   3.949  2.2824 -0.5323 -0.5225
 5863TIP3    H217596   1.081   4.213   3.838 -0.3229  0.2525 -0.9310
 5864TIP3   OH217597   0.233   1.909   1.361  0.2295 -0.0904  0.2971
 5864TIP3    H117598   0.325   1.888   1.348 -0.1553 -3.9248  2.1697
 5864TIP3    H217599   0.219   1.896   1.455 -2.2350  0.3065  0.0594
 5865TIP3   OH217600   5.278   3.148   4.815  0.1965  0.4482 -0.1901
 5865TIP3    H117601   5.264   3.060   4.850  2.6044  0.2621  0.5109
 5865TIP3    H217602   5.193   3.174   4.779 -0.3309 -2.5534 -1.3793
 5866TIP3   OH217603   0.594   3.836   4.310  0.0720 -0.0380 -0.3449
 5866TIP3    H117604   0.585   3.748   4.346 -0.0204 -0.3337 -1.0701
 5866TIP3    H217605   0.624   3.889   4.384  2.4777 -1.1537 -0.4086
 5867TIP3   OH217606   3.802   3.092   2.083 -0.3096  0.0145  0.0744
 5867TIP3    H117607   3.823   3.005   2.049 -0.2917  0.6962 -1.7715
 5867TIP3    H217608   3.886   3.136   2.090 -0.3547  0.0125  0.6535
 5868TIP3   OH217609   0.472   1.238   4.191 -0.4184  0.4920 -0.6145
 5868TIP3    H117610   0.487   1.298   4.118 -1.4761  0.8879 -0.5161
 5868TIP3    H217611   0.381   1.252   4.216  0.6688  2.6779  2.8071
 5869TIP3   OH217612   2.748   5.168   4.906  0.1962 -0.2148  0.4881
 5869TIP3    H117613   2.794   5.093   4.944 -0.3160 -1.0106 -0.4213
 5869TIP3    H217614   2.816   5.219   4.863  0.5422 -0.1807  1.0661
 5870TIP3   OH217615   3.843   5.009   3.602 -0.2503  0.5899  0.1131
 5870TIP3    H117616   3.767   5.014   3.545 -0.6757 -1.2096  0.4470
 5870TIP3    H217617   3.814   5.050   3.684 -0.6033  0.5985 -0.0143
 5871TIP3   OH217618   2.833   1.644   4.126  0.1207 -0.5627  0.2767
 5871TIP3    H117619   2.765   1.700   4.165 -0.3058 -0.8930  0.0149
 5871TIP3    H217620   2.884   1.612   4.200  0.7473  0.6436  0.3961
 5872TIP3   OH217621   2.867   5.890   3.753  0.5243  0.6154 -0.4446
 5872TIP3    H117622   2.819   5.807   3.752  0.8968  0.3875 -1.7319
 5872TIP3    H217623   2.808   5.953   3.713  0.1793  1.0307  0.6796
 5873TIP3   OH217624   6.182   1.065   1.154  0.4052 -0.1350 -0.4753
 5873TIP3    H117625   6.148   1.028   1.235 -0.0739 -0.8328 -0.9823
 5873TIP3    H217626   6.152   1.156   1.155  1.1910  0.1228  0.5601
 5874TIP3   OH217627   5.043   1.810   4.636  0.2608 -0.1708 -0.0908
 5874TIP3    H117628   5.118   1.758   4.606 -0.7693 -1.0873 -1.1412
 5874TIP3    H217629   5.013   1.856   4.558 -0.0998  0.4344  0.3970
 5875TIP3   OH217630   1.147   5.426   5.117 -0.4471 -0.8562  0.7817
 5875TIP3    H117631   1.132   5.343   5.162  0.1078 -0.6342  1.3926
 5875TIP3    H217632   1.240   5.445   5.131 -0.3898 -0.5041  0.0001
 5876TIP3   OH217633   1.529   3.786   2.628 -0.0507  0.1569  0.3044
 5876TIP3    H117634   1.591   3.733   2.679 -1.9059 -3.7422 -1.0801
 5876TIP3    H217635   1.469   3.821   2.693  1.9310  1.7436  1.3899
 5877TIP3   OH217636   0.156   4.139   3.126 -0.0222 -0.4905  0.8647
 5877TIP3    H117637   0.190   4.180   3.206 -0.7340 -0.6356  1.2540
 5877TIP3    H217638   0.225   4.152   3.061 -0.4753  1.9360  0.7672
 5878TIP3   OH217639   5.879   0.579   2.447  0.0728 -0.1506 -0.3608
 5878TIP3    H117640   5.866   0.495   2.403 -0.9438  0.8031 -1.9912
 5878TIP3    H217641   5.862   0.561   2.539 -1.1158 -1.5351 -0.8100
 5879TIP3   OH217642   5.183   0.488   1.584 -0.4964  0.3575 -0.3169
 5879TIP3    H117643   5.220   0.546   1.517  0.4462  1.3486  1.0290
 5879TIP3    H217644   5.227   0.405   1.571  1.0346  1.0539  0.1936
 5880TIP3   OH217645   4.383   5.202   1.073  0.2945 -0.0532 -0.5700
 5880TIP3    H117646   4.424   5.273   1.122  0.0063 -0.8590  0.9142
 5880TIP3    H217647   4.456   5.155   1.034  0.5853  0.2257 -0.3680
 5881TIP3   OH217648   2.091   2.038   3.050 -0.1372 -0.2531 -0.2905
 5881TIP3    H117649   2.095   2.067   2.959 -0.2575 -1.8833 -0.8402
 5881TIP3    H217650   1.999   2.016   3.065  0.0109 -0.6844 -0.0025
 5882TIP3   OH217651   5.344   0.668   0.351  0.4660 -0.3061  0.0771
 5882TIP3    H117652   5.331   0.629   0.265  0.5562  0.3598 -0.2464
 5882TIP3    H217653   5.312   0.757   0.342  1.0350 -0.0470  0.5589
 5883TIP3   OH217654   5.299   4.772   2.515  0.3487 -0.0892  0.6033
 5883TIP3    H117655   5.316   4.805   2.604 -0.8485 -0.3702  0.9568
 5883TIP3    H217656   5.204   4.776   2.506  0.3589 -1.3206 -0.1851
 5884TIP3   OH217657   4.139   0.197   1.857 -0.4612 -0.1602  0.1457
 5884TIP3    H117658   4.050   0.174   1.834 -0.9091  0.0003  1.5952
 5884TIP3    H217659   4.162   0.268   1.797 -1.2163 -0.3419 -0.3738
 5885TIP3   OH217660   2.544   5.842   1.318 -0.5878 -0.5439  0.0350
 5885TIP3    H117661   2.512   5.920   1.273  2.1662 -0.0271 -1.2205
 5885TIP3    H217662   2.595   5.876   1.391 -1.2381 -1.2828  0.8649
 5886TIP3   OH217663   5.668   4.748   1.492 -0.6055  0.1135 -0.0614
 5886TIP3    H117664   5.755   4.717   1.516 -1.0277 -1.3275 -0.3020
 5886TIP3    H217665   5.672   4.762   1.397 -1.1177 -1.6724 -0.3690
 5887TIP3   OH217666   2.684   5.319   3.348  0.2321 -0.0976  0.0711
 5887TIP3    H117667   2.613   5.379   3.375 -0.2383 -0.8421  0.5274
 5887TIP3    H217668   2.677   5.316   3.253 -0.6603 -0.5277  0.1420
 5888TIP3   OH217669   3.224   5.701   2.116 -0.5804  1.0413 -0.9154
 5888TIP3    H117670   3.234   5.794   2.096 -2.4200  1.9404  1.7175
 5888TIP3    H217671   3.131   5.690   2.133 -0.1597 -0.8851  0.5157
 5889TIP3   OH217672   2.943   2.392   4.816  0.6102 -0.5274 -0.0175
 5889TIP3    H117673   2.882   2.386   4.743  0.5680 -0.4088  0.0080
 5889TIP3    H217674   2.950   2.303   4.849  1.4545 -0.7886 -0.8385
 5890TIP3   OH217675   1.553   2.544   2.889  0.3195  0.7427  0.0593
 5890TIP3    H117676   1.507   2.494   2.956  1.9777 -1.0091 -0.0324
 5890TIP3    H217677   1.640   2.506   2.886  0.5052  1.1827 -2.6621
 5891TIP3   OH217678   3.168   0.869   4.717  0.8671  0.7000 -0.0025
 5891TIP3    H117679   3.204   0.787   4.749 -0.2351  0.8949  1.8823
 5891TIP3    H217680   3.201   0.877   4.628  3.1066 -0.5090  0.6395
 5892TIP3   OH217681   5.737   1.678   2.361 -0.0522 -0.5169  0.1796
 5892TIP3    H117682   5.734   1.773   2.364  1.3787 -0.4678  1.0826
 5892TIP3    H217683   5.714   1.650   2.450  0.7587 -0.9382  0.2768
 5893TIP3   OH217684   4.328   1.243   3.799 -0.2430  0.2422 -0.5834
 5893TIP3    H117685   4.344   1.212   3.710  0.7143 -1.3577  0.1068
 5893TIP3    H217686   4.395   1.200   3.852  0.1378  2.2919  0.7229
 5894TIP3   OH217687   5.984   5.994   3.692  0.0219  0.3566 -0.0127
 5894TIP3    H117688   5.963   5.903   3.671 -0.4484  0.1800  1.1449
 5894TIP3    H217689   5.959   6.004   3.783  2.3799  0.9701  0.6295
 5895TIP3   OH217690   1.877   1.008   0.832 -0.0266 -0.0395  0.3685
 5895TIP3    H117691   1.835   0.947   0.771  0.4391 -1.7967  1.7059
 5895TIP3    H217692   1.954   1.040   0.785 -0.1206 -0.7233 -0.2736
 5896TIP3   OH217693   2.217   0.306   1.106 -0.3920  0.3287 -0.6395
 5896TIP3    H117694   2.255   0.309   1.018 -2.0175  2.1794 -1.3421
 5896TIP3    H217695   2.269   0.241   1.152  1.1220  0.0019 -2.6799
 5897TIP3   OH217696   2.560   1.285   2.503 -0.0422 -0.0588 -0.2608
 5897TIP3    H117697   2.622   1.357   2.492 -1.6079  1.2751 -1.0048
 5897TIP3    H217698   2.482   1.315   2.456 -1.4682 -1.3533  1.1753
 5898TIP3   OH217699   1.941   2.614   2.386  0.2664 -0.1000  0.0979
 5898TIP3    H117700   1.984   2.530   2.372  1.5380  0.7022 -1.0530
 5898TIP3    H217701   1.977   2.671   2.318  0.4418  1.7689  1.6929
 5899TIP3   OH217702   2.489   4.934   2.197  0.0894  0.2569 -0.0936
 5899TIP3    H117703   2.486   4.879   2.275  0.7915  0.3149 -0.0184
 5899TIP3    H217704   2.412   4.991   2.204 -0.8722 -0.9710 -0.3766
 5900TIP3   OH217705   2.932   1.757   3.886 -0.4459 -0.0823  0.4569
 5900TIP3    H117706   2.872   1.729   3.956 -0.8163 -2.2723 -0.6655
 5900TIP3    H217707   3.018   1.727   3.915 -0.3889  0.1656  0.5510
 5901TIP3   OH217708   0.366   4.144   2.285 -0.0388 -0.0628 -0.0249
 5901TIP3    H117709   0.424   4.200   2.337  0.5664 -1.0294  0.3831
 5901TIP3    H217710   0.404   4.145   2.197  0.5612 -0.6217  0.2208
 5902TIP3   OH217711   1.471   3.244   3.968 -0.1846 -0.0657 -0.1516
 5902TIP3    H117712   1.401   3.270   3.909  1.0158  0.1173 -1.5576
 5902TIP3    H217713   1.547   3.232   3.911  0.5986 -1.6097  1.1237
 5903TIP3   OH217714   0.028   2.889   3.350  0.3635 -0.2480 -0.4710
 5903TIP3    H117715   0.008   2.800   3.379  1.8385 -0.6303 -0.5504
 5903TIP3    H217716   0.059   2.878   3.260 -0.4500  0.4803 -0.8499
 5904TIP3   OH217717   1.719   2.867   4.321 -0.5036  0.5211 -0.7951
 5904TIP3    H117718   1.733   2.840   4.412  0.7148 -0.5607 -1.2679
 5904TIP3    H217719   1.625   2.882   4.315 -0.5301  1.2007  0.7947
 5905TIP3   OH217720   0.509   4.101   0.183  0.0718 -0.1778  0.0612
 5905TIP3    H117721   0.589   4.079   0.231 -1.0595  0.0586  2.1978
 5905TIP3    H217722   0.440   4.052   0.227 -1.2643  1.2176 -0.3674
 5906TIP3   OH217723   1.266   5.730   2.787  0.3359 -0.3010  0.0735
 5906TIP3    H117724   1.177   5.757   2.761  0.0234  0.1555  1.5160
 5906TIP3    H217725   1.266   5.738   2.883  1.6856 -1.0925  0.1580
 5907TIP3   OH217726   3.003   0.083   3.465  0.3397  0.3443 -0.0907
 5907TIP3    H117727   2.986   0.126   3.549 -0.3401 -1.9211  1.0355
 5907TIP3    H217728   3.072   0.135   3.425  0.9456  1.3275  2.0515
 5908TIP3   OH217729   2.482   4.414   2.949  0.1832  0.0615 -0.0180
 5908TIP3    H117730   2.572   4.446   2.946  0.8197 -1.6489 -0.0046
 5908TIP3    H217731   2.488   4.322   2.923 -1.7154  0.2138 -1.1902
 5909TIP3   OH217732   1.706   3.295   2.022  0.3103 -0.8964 -0.2457
 5909TIP3    H117733   1.682   3.304   2.114  1.0365 -0.8699 -0.0528
 5909TIP3    H217734   1.757   3.213   2.018 -0.5089 -1.3894 -0.7899
 5910TIP3   OH217735   2.273   0.573   4.978 -0.7228  0.2696  0.2026
 5910TIP3    H117736   2.308   0.507   5.037 -0.8286 -0.2141 -0.2669
 5910TIP3    H217737   2.179   0.555   4.974 -0.5742 -0.3534 -0.9046
 5911TIP3   OH217738   2.450   0.292   4.827 -0.3096 -0.0540  0.0328
 5911TIP3    H117739   2.467   0.223   4.763 -0.7810  0.4129 -0.6127
 5911TIP3    H217740   2.401   0.359   4.778  0.7364  1.0575  0.4652
 5912TIP3   OH217741   0.198   0.399   4.154 -0.0280  0.3761 -0.4832
 5912TIP3    H117742   0.162   0.354   4.230  1.2855  3.2373  2.0529
 5912TIP3    H217743   0.254   0.334   4.111 -0.1522 -1.1185  1.4888
 5913TIP3   OH217744   0.982   1.608   0.745  0.4945 -0.3719 -0.3938
 5913TIP3    H117745   1.043   1.552   0.697 -2.5841 -1.8477 -2.8894
 5913TIP3    H217746   0.963   1.680   0.685  1.4482  1.3943  1.2963
 5914TIP3   OH217747   0.937   2.323   0.889  0.2363 -0.6473 -0.1506
 5914TIP3    H117748   0.859   2.272   0.910 -0.9743  1.7695  1.7756
 5914TIP3    H217749   0.925   2.348   0.797 -1.9304  0.6110  0.4068
 5915TIP3   OH217750   3.520   0.114   2.992  0.4743 -0.3225  0.3516
 5915TIP3    H117751   3.467   0.085   2.918  0.8281 -0.5938  0.2024
 5915TIP3    H217752   3.494   0.058   3.065  0.6521 -0.5482  0.2429
 5916TIP3   OH217753   2.343   4.020   0.632 -0.5153  0.5021  0.0863
 5916TIP3    H117754   2.282   4.090   0.611 -0.5413  0.2522 -0.7065
 5916TIP3    H217755   2.385   4.049   0.713  1.0586  2.5110 -1.3310
 5917TIP3   OH217756   2.223   2.613   4.054 -0.0910 -0.1810  1.0236
 5917TIP3    H117757   2.143   2.562   4.039 -0.0459  0.1869 -0.7932
 5917TIP3    H217758   2.213   2.649   4.142 -2.1381  0.2022  0.6809
 5918TIP3   OH217759   3.702   2.481   3.923 -0.5026  0.1263 -0.3479
 5918TIP3    H117760   3.696   2.434   3.840  3.6935 -0.0577 -0.7508
 5918TIP3    H217761   3.729   2.415   3.987 -1.6716  0.6660  0.7664
 5919TIP3   OH217762   1.439   5.235   0.229 -0.1295 -0.2086  0.1534
 5919TIP3    H117763   1.527   5.235   0.267 -0.0963  0.9881  0.1348
 5919TIP3    H217764   1.381   5.206   0.299  0.1560  0.0896  0.5119
 5920TIP3   OH217765   5.279   3.174   0.543 -0.1926 -0.1590  0.1295
 5920TIP3    H117766   5.303   3.181   0.635  0.8767  0.1584 -0.1567
 5920TIP3    H217767   5.358   3.139   0.501 -0.5250  0.1050 -0.7308
 5921TIP3   OH217768   5.765   5.531   1.558 -0.1418 -0.0626  1.2338
 5921TIP3    H117769   5.742   5.590   1.631 -1.4384  1.5766 -0.4076
 5921TIP3    H217770   5.681   5.498   1.527  0.3292 -0.1685  0.0303
 5922TIP3   OH217771   2.425   2.886   2.534  0.6171  0.4385 -0.3260
 5922TIP3    H117772   2.468   2.920   2.612  0.3172 -0.4452  0.2305
 5922TIP3    H217773   2.492   2.833   2.491 -0.3212 -2.3035  1.4021
 5923TIP3   OH217774   0.667   3.451   3.168  0.3012  0.2134 -0.1021
 5923TIP3    H117775   0.698   3.364   3.145 -0.4718  0.1188 -0.8691
 5923TIP3    H217776   0.693   3.463   3.259  2.8104  0.2690 -0.7403
 5924TIP3   OH217777   0.194   1.333   4.252 -0.7209 -0.5194 -0.5685
 5924TIP3    H117778   0.171   1.376   4.335 -0.7988 -0.3935 -0.6542
 5924TIP3    H217779   0.118   1.280   4.231 -0.8585 -0.2538 -0.7534
 5925TIP3   OH217780   4.319   2.710   2.731 -0.4413 -0.2134 -0.1850
 5925TIP3    H117781   4.278   2.646   2.673 -2.4726  0.7788  0.0770
 5925TIP3    H217782   4.302   2.794   2.688 -0.3767  0.3807  0.9266
 5926TIP3   OH217783   5.564   4.477   4.144 -0.8495 -0.6779  0.5789
 5926TIP3    H117784   5.569   4.455   4.051 -0.7117  1.4878  0.0034
 5926TIP3    H217785   5.551   4.394   4.188  0.8041 -1.9758 -1.2307
 5927TIP3   OH217786   2.396   3.735   4.082  0.3956  0.5508 -0.4563
 5927TIP3    H117787   2.345   3.674   4.029 -0.5844  1.5958 -0.7590
 5927TIP3    H217788   2.461   3.771   4.021 -0.7363  1.7573 -0.9856
 5928TIP3   OH217789   4.524   4.685   3.114  0.2055  0.0599 -0.7619
 5928TIP3    H117790   4.517   4.765   3.061  0.4581  0.7750  0.2390
 5928TIP3    H217791   4.490   4.616   3.058  0.3271  0.8112 -1.7952
 5929TIP3   OH217792   3.237   5.775   1.789  0.2952 -0.3716 -0.3481
 5929TIP3    H117793   3.174   5.711   1.822 -0.6653  1.9372  2.8069
 5929TIP3    H217794   3.183   5.843   1.750  0.9323  0.6073  0.4318
 5930TIP3   OH217795   3.060   2.466   3.869 -0.0358 -0.2917 -0.0396
 5930TIP3    H117796   3.015   2.398   3.819 -0.4236  0.8948 -1.3811
 5930TIP3    H217797   3.133   2.421   3.911  1.1066 -1.1674 -2.7481
 5931TIP3   OH217798   2.314   2.426   0.807 -0.2916 -0.2172 -0.5518
 5931TIP3    H117799   2.285   2.427   0.716  0.8691  1.1550 -0.9481
 5931TIP3    H217800   2.265   2.496   0.849 -0.3442 -0.4184 -0.2705
 5932TIP3   OH217801   1.544   0.157   4.737  0.2049  0.2921 -0.0044
 5932TIP3    H117802   1.550   0.163   4.832  0.9729  2.3807 -0.1354
 5932TIP3    H217803   1.503   0.239   4.709  1.6490  0.5518 -1.5708
 5933TIP3   OH217804   3.037   1.331   0.539  0.1220 -0.6809 -0.1326
 5933TIP3    H117805   2.984   1.361   0.466 -0.2747 -1.3499 -0.1278
 5933TIP3    H217806   3.103   1.274   0.499 -0.8583 -2.0539  0.1448
 5934TIP3   OH217807   0.452   0.765   5.175  0.1593  0.3563  0.6173
 5934TIP3    H117808   0.388   0.784   5.244  0.6397 -0.3234  1.2666
 5934TIP3    H217809   0.401   0.767   5.094 -0.1284  2.7181  0.7896
 5935TIP3   OH217810   0.124   2.556   0.103  0.2082  1.2808 -0.4378
 5935TIP3    H117811   0.153   2.534   0.015  2.8252  2.4013  0.0509
 5935TIP3    H217812   0.101   2.648   0.099 -2.4121  0.7023 -0.5158
 5936TIP3   OH217813   0.993   4.412   4.524  0.0078  0.6104  0.4023
 5936TIP3    H117814   0.972   4.455   4.607 -0.3873 -0.0565  0.6575
 5936TIP3    H217815   0.910   4.373   4.495  0.2273  0.5098 -0.1156
 5937TIP3   OH217816   3.720   2.361   3.615  0.0233  0.2662 -0.4825
 5937TIP3    H117817   3.639   2.310   3.617  0.7653 -1.0572 -1.6207
 5937TIP3    H217818   3.731   2.384   3.523  1.3540 -0.3200 -0.4905
 5938TIP3   OH217819   2.887   4.234   4.772  0.0650 -0.3983 -0.5437
 5938TIP3    H117820   2.911   4.277   4.690 -1.0914  0.2200 -0.5744
 5938TIP3    H217821   2.803   4.193   4.753 -1.1877  1.3803  0.8598
 5939TIP3   OH217822   6.102   4.025   1.414 -0.3853  0.1892 -0.0137
 5939TIP3    H117823   6.058   3.946   1.382  0.3317 -0.8372  1.4131
 5939TIP3    H217824   6.092   4.089   1.343 -2.4926 -0.6096 -0.5085
 5940TIP3   OH217825   0.516   3.480   0.008 -0.5674  0.2203 -0.1953
 5940TIP3    H117826   0.533   3.438   0.092 -1.2081 -1.7815 -1.0038
 5940TIP3    H217827   0.599   3.475  -0.039  0.0045  2.0177  0.5438
 5941TIP3   OH217828   2.877   4.005   1.666 -0.1862  0.3118 -0.1712
 5941TIP3    H117829   2.786   4.012   1.695 -0.3129  0.0123 -0.4861
 5941TIP3    H217830   2.926   4.063   1.724 -0.6690  0.9573 -0.3976
 5942TIP3   OH217831   5.201   4.022   3.376  0.4416  0.1629 -0.3203
 5942TIP3    H117832   5.175   3.972   3.453  1.0784 -0.0703 -0.2576
 5942TIP3    H217833   5.191   3.960   3.303  0.9965  0.0123 -0.2726
 5943TIP3   OH217834   5.294   0.347   2.818 -0.4839 -0.2570  0.1351
 5943TIP3    H117835   5.241   0.271   2.794 -1.1970 -0.4371  2.1425
 5943TIP3    H217836   5.233   0.420   2.818 -0.1067  0.0615 -0.3723
 5944TIP3   OH217837   1.211   1.127   4.549  0.3618  0.2031  0.0410
 5944TIP3    H117838   1.230   1.134   4.643  0.7893 -1.3421  0.1034
 5944TIP3    H217839   1.121   1.092   4.546  0.7588 -0.8417 -0.0817
 5945TIP3   OH217840   1.775   5.922   0.871  0.4384  0.1441  0.0953
 5945TIP3    H117841   1.803   5.832   0.888  0.6673  0.1534 -0.2159
 5945TIP3    H217842   1.831   5.951   0.799  1.0383  0.8719  0.8470
 5946TIP3   OH217843   2.636   4.514   2.563  0.0041 -0.3360 -0.1572
 5946TIP3    H117844   2.579   4.551   2.630  0.6593 -0.4526  0.4807
 5946TIP3    H217845   2.581   4.453   2.515 -0.5612 -0.0010  0.0627
 5947TIP3   OH217846   3.499   4.832   3.759  0.1422 -0.1310  0.4781
 5947TIP3    H117847   3.430   4.870   3.814  0.5196 -1.1253  1.6872
 5947TIP3    H217848   3.495   4.883   3.678  0.9943  2.8848  2.1650
 5948TIP3   OH217849   3.270   0.648   0.328 -0.1432 -0.1380 -0.3636
 5948TIP3    H117850   3.301   0.559   0.309 -3.9389 -1.2035 -2.8496
 5948TIP3    H217851   3.194   0.635   0.384  0.0610  1.6936  0.3868
 5949TIP3   OH217852   2.744   4.373   0.066 -0.6520 -0.2304  0.2873
 5949TIP3    H117853   2.699   4.440   0.118  0.0558  2.0251 -1.7796
 5949TIP3    H217854   2.836   4.382   0.089 -0.7893 -2.5273  2.0440
 5950TIP3   OH217855   3.274   5.348   0.028  0.0619 -0.1946  0.0172
 5950TIP3    H117856   3.367   5.324   0.030 -0.0069 -0.7944 -1.8565
 5950TIP3    H217857   3.273   5.441   0.050  0.8006 -0.7534  2.7503
 5951TIP3   OH217858   4.087   5.604   4.794  0.2764 -0.8002 -0.0219
 5951TIP3    H117859   4.099   5.527   4.739 -2.3973 -2.3132  1.3263
 5951TIP3    H217860   4.116   5.677   4.739  0.5445 -2.4956 -2.2871
 5952TIP3   OH217861   2.438   4.333   1.098 -0.3128  0.2142 -0.4160
 5952TIP3    H117862   2.386   4.406   1.132  0.9528 -0.0861  2.4768
 5952TIP3    H217863   2.457   4.356   1.007 -0.9139  2.9046  0.0734
 5953TIP3   OH217864   4.695   3.507   0.501 -0.2862 -0.0451 -0.5453
 5953TIP3    H117865   4.733   3.546   0.422  1.8179  0.6480  0.7249
 5953TIP3    H217866   4.672   3.418   0.474  0.7165  0.0544 -1.8776
 5954TIP3   OH217867   1.092   4.629   0.282 -0.1946  0.7113 -0.1030
 5954TIP3    H117868   1.009   4.675   0.292  0.1891  1.0289  2.2577
 5954TIP3    H217869   1.147   4.663   0.353  1.3424 -0.7635 -0.5168
 5955TIP3   OH217870   3.493   2.482   0.550 -0.2513  0.5592  0.5500
 5955TIP3    H117871   3.442   2.407   0.580 -0.6055  1.0208  1.1142
 5955TIP3    H217872   3.429   2.551   0.536 -0.0057  0.5795 -0.5880
 5956TIP3   OH217873   4.986   2.045   2.894  0.7705 -0.1980 -0.3552
 5956TIP3    H117874   5.078   2.070   2.885  0.6642  0.0154 -0.9005
 5956TIP3    H217875   4.988   1.955   2.925  1.1614  0.3221  1.2288
 5957TIP3   OH217876   3.076   1.046   4.249  0.0581  0.1084 -0.4552
 5957TIP3    H117877   3.037   1.134   4.251  2.6559  1.3547  1.0337
 5957TIP3    H217878   3.008   0.989   4.284 -1.0733  1.8186  0.2938
 5958TIP3   OH217879   4.981   5.137   1.190 -0.0349  0.2860 -0.2541
 5958TIP3    H117880   4.936   5.137   1.106  0.8661 -1.8696 -0.8155
 5958TIP3    H217881   5.074   5.142   1.168  0.1649  0.9949  0.6889
 5959TIP3   OH217882   4.540   1.642   2.935 -0.6802  0.1606 -0.2644
 5959TIP3    H117883   4.629   1.677   2.928 -0.4075 -0.4375  0.1082
 5959TIP3    H217884   4.485   1.707   2.892 -0.0045  0.3296 -0.8954
 5960TIP3   OH217885   5.349   0.851   1.801 -0.6183  0.2111 -0.1956
 5960TIP3    H117886   5.259   0.821   1.814 -0.3551 -0.0922  1.0051
 5960TIP3    H217887   5.341   0.926   1.742 -1.2961 -2.2264 -3.4631
 5961TIP3   OH217888   1.503   0.161   3.114 -0.4937 -0.2698  0.4250
 5961TIP3    H117889   1.510   0.065   3.119 -1.8478 -0.5304 -1.4580
 5961TIP3    H217890   1.591   0.192   3.131  0.5895 -2.0234 -1.4654
 5962TIP3   OH217891   0.413   3.405   0.906  0.1703  0.1231 -0.5492
 5962TIP3    H117892   0.393   3.467   0.977 -0.1466  2.1490 -2.2837
 5962TIP3    H217893   0.355   3.331   0.921  0.6710  0.1325  1.7249
 5963TIP3   OH217894   2.196   0.879   1.204 -0.4442  0.0828  0.8514
 5963TIP3    H117895   2.189   0.901   1.111 -1.4063 -0.0565  0.8829
 5963TIP3    H217896   2.215   0.785   1.205 -1.7533 -0.2017  0.8035
 5964TIP3   OH217897   1.978   0.046   2.330 -0.4292  0.5267 -0.4818
 5964TIP3    H117898   1.972  -0.034   2.277  0.8540  0.7776 -1.0341
 5964TIP3    H217899   1.899   0.043   2.385 -1.0687 -0.4592 -1.3894
 5965TIP3   OH217900   3.881   1.653   4.342 -0.4961  0.6026  0.1112
 5965TIP3    H117901   3.893   1.711   4.266 -0.4085  0.8871  0.3418
 5965TIP3    H217902   3.788   1.629   4.339 -0.4838  0.5739 -0.1131
 5966TIP3   OH217903   3.055   1.874   5.053  0.2127 -0.0492 -0.4794
 5966TIP3    H117904   2.966   1.856   5.025 -0.0286 -0.0621  0.2845
 5966TIP3    H217905   3.046   1.913   5.140  0.9995 -1.3031  0.1979
 5967TIP3   OH217906   2.896   4.242   1.514  0.6325  0.3465 -0.1493
 5967TIP3    H117907   2.921   4.149   1.517  0.4451  0.2765 -0.6093
 5967TIP3    H217908   2.941   4.276   1.437  0.6086  0.6073 -0.0470
 5968TIP3   OH217909   0.224   1.189   4.757  0.5568  0.2763 -0.1106
 5968TIP3    H117910   0.184   1.190   4.670  2.1944  0.5697 -0.9121
 5968TIP3    H217911   0.235   1.282   4.778 -0.2810  0.2139  0.6476
 5969TIP3   OH217912   1.057   3.992   4.215 -0.9435  0.3921  0.0200
 5969TIP3    H117913   1.039   3.926   4.148  0.2568  1.6928 -1.6716
 5969TIP3    H217914   0.980   3.990   4.272 -2.2952 -0.3605 -1.7332
 5970TIP3   OH217915   3.477   3.608   2.578 -0.3383  0.1081  0.3544
 5970TIP3    H117916   3.544   3.574   2.637  1.2115  0.4764 -1.1435
 5970TIP3    H217917   3.398   3.560   2.603  1.1597 -2.7165  0.0584
 5971TIP3   OH217918   0.649   2.934   0.530  0.1137 -0.0654 -0.2066
 5971TIP3    H117919   0.711   2.973   0.468  0.0745  0.0323 -0.1856
 5971TIP3    H217920   0.616   3.009   0.580  1.6374 -0.3345  1.3106
 5972TIP3   OH217921   2.419   5.899   1.789 -0.2660 -0.2235  0.6316
 5972TIP3    H117922   2.341   5.863   1.748  0.6272 -1.0788 -0.3879
 5972TIP3    H217923   2.445   5.834   1.854  1.1594 -1.3614 -0.9825
 5973TIP3   OH217924   3.745   5.540   4.392 -0.3626  0.1493 -0.2002
 5973TIP3    H117925   3.711   5.451   4.388 -0.3981  0.1065  0.9320
 5973TIP3    H217926   3.832   5.534   4.353  0.0920 -0.6167  0.8898
 5974TIP3   OH217927   2.436   3.789   3.599 -0.1022  0.0509  0.3823
 5974TIP3    H117928   2.384   3.836   3.534  2.2393 -0.0845 -1.7998
 5974TIP3    H217929   2.486   3.857   3.644  1.4467 -0.0352 -1.0624
 5975TIP3   OH217930   4.035   2.532   0.948 -0.3824 -0.0679  0.5069
 5975TIP3    H117931   3.960   2.473   0.941 -0.3207 -0.2846  1.5400
 5975TIP3    H217932   4.109   2.481   0.916 -0.0976 -1.0410  2.5689
 5976TIP3   OH217933   6.142   3.850   3.295 -0.1554 -0.0675  0.0524
 5976TIP3    H117934   6.131   3.755   3.295 -1.0093  0.0145 -0.8078
 5976TIP3    H217935   6.233   3.863   3.321 -0.2614 -1.0750  0.9893
 5977TIP3   OH217936   0.835  -0.003   4.761 -0.2363  0.0408 -0.6125
 5977TIP3    H117937   0.844  -0.021   4.854 -0.6147 -0.9566 -0.7533
 5977TIP3    H217938   0.745   0.027   4.750  0.2231  1.5474 -0.4659
 5978TIP3   OH217939   2.377   4.537   0.358 -0.0789 -0.2554  0.0149
 5978TIP3    H117940   2.335   4.487   0.428  0.3790 -2.8392 -1.4311
 5978TIP3    H217941   2.303   4.568   0.304 -0.3165 -0.8135  0.0136
 5979TIP3   OH217942   2.927   5.212   1.843 -0.5358  0.2601 -0.2165
 5979TIP3    H117943   2.962   5.207   1.755 -1.2979 -1.0297 -0.4676
 5979TIP3    H217944   2.832   5.215   1.831 -0.9086 -3.4288  0.5591
 5980TIP3   OH217945   2.580   2.576   1.189 -0.1075 -0.3117  0.2229
 5980TIP3    H117946   2.517   2.647   1.191  0.1623 -0.0740  0.3409
 5980TIP3    H217947   2.557   2.524   1.112  0.9743  1.0739 -1.0820
 5981TIP3   OH217948   4.551   1.413   4.763  0.1887  0.3479  0.3125
 5981TIP3    H117949   4.484   1.384   4.702 -0.1329  0.6002  0.5432
 5981TIP3    H217950   4.519   1.497   4.797  1.2275  1.1360 -0.5563
 5982TIP3   OH217951   4.560   5.876   1.107 -0.2179 -0.0090  0.1977
 5982TIP3    H117952   4.553   5.873   1.012 -0.7934 -0.4022  0.2461
 5982TIP3    H217953   4.541   5.786   1.135  0.7616 -0.0926  0.6386
 5983TIP3   OH217954   3.357   3.566   5.017  0.3059  0.1137  0.4049
 5983TIP3    H117955   3.434   3.587   5.070  1.6101  1.0478 -1.6878
 5983TIP3    H217956   3.308   3.648   5.012  0.5623  0.2352 -0.3361
 5984TIP3   OH217957   3.719   2.544   1.130 -0.5182  0.5361 -0.2470
 5984TIP3    H117958   3.733   2.520   1.038  0.0414  0.7604 -0.2244
 5984TIP3    H217959   3.778   2.487   1.178  0.8339  1.9285 -0.1914
 5985TIP3   OH217960   3.001   3.311   0.306  0.1051  0.0784  0.3500
 5985TIP3    H117961   2.935   3.279   0.367 -1.5355 -0.0485 -1.3936
 5985TIP3    H217962   3.042   3.385   0.352 -0.6792 -0.3390  1.7844
 5986TIP3   OH217963   2.359   1.025   2.871  0.4324 -0.5915 -0.1378
 5986TIP3    H117964   2.403   0.951   2.913  1.7060 -0.9463 -1.9885
 5986TIP3    H217965   2.365   1.096   2.935  4.9208 -0.2095 -0.6684
 5987TIP3   OH217966   4.337   2.443   2.030  0.2422  0.0947 -0.6919
 5987TIP3    H117967   4.311   2.465   1.940 -0.9509  1.5471 -0.0337
 5987TIP3    H217968   4.416   2.495   2.045  0.6207 -0.3852 -0.9877
 5988TIP3   OH217969   6.027   5.402   1.616 -0.0596  0.0940  0.2993
 5988TIP3    H117970   5.937   5.434   1.626 -0.2119 -0.3606  0.3864
 5988TIP3    H217971   6.077   5.480   1.590 -0.0910  0.7976  2.1879
 5989TIP3   OH217972   2.427   0.771   2.959  0.2997 -0.2236 -0.1251
 5989TIP3    H117973   2.471   0.774   3.044  1.2892  1.1529 -0.6502
 5989TIP3    H217974   2.359   0.705   2.969  1.8258 -1.6757  1.0456
 5990TIP3   OH217975   0.678   4.177   1.602 -0.1585  0.6861 -0.6751
 5990TIP3    H117976   0.589   4.142   1.609 -0.5068  1.4780 -0.9569
 5990TIP3    H217977   0.699   4.170   1.509 -0.1619  1.0307 -0.7050
 5991TIP3   OH217978   5.262   4.787   4.324  0.0633 -0.3722  0.4049
 5991TIP3    H117979   5.234   4.698   4.304  0.2519 -0.5837  1.0715
 5991TIP3    H217980   5.309   4.815   4.246 -2.9830  0.4359 -1.2987
 5992TIP3   OH217981   2.149   3.239   5.167 -0.1606  0.1270 -0.2648
 5992TIP3    H117982   2.195   3.159   5.143  0.1844  0.7495 -1.8371
 5992TIP3    H217983   2.071   3.210   5.213  0.1752 -1.0895 -0.4371
 5993TIP3   OH217984   0.619   3.953   3.107 -0.3143  0.3671 -0.1270
 5993TIP3    H117985   0.686   3.887   3.125  0.0620  0.8576  0.3054
 5993TIP3    H217986   0.668   4.033   3.088 -0.7793  0.8404  0.6341
 5994TIP3   OH217987   3.827   2.170   4.375  0.2856  0.1844  0.6273
 5994TIP3    H117988   3.883   2.115   4.319  0.0585 -0.8162  1.3549
 5994TIP3    H217989   3.872   2.254   4.379 -0.4275  0.8531 -2.2945
 5995TIP3   OH217990   0.203   3.030   2.005 -0.1551  0.5129  0.2529
 5995TIP3    H117991   0.173   3.080   2.081  0.1835 -0.8839  1.3522
 5995TIP3    H217992   0.297   3.019   2.019  0.0276  0.7608 -0.7008
 5996TIP3   OH217993   3.547   0.771   1.235 -0.4240  0.5021  0.4098
 5996TIP3    H117994   3.512   0.684   1.216  1.6628 -0.8866  2.3586
 5996TIP3    H217995   3.633   0.772   1.193 -0.1657  1.3816  0.9336
 5997TIP3   OH217996   4.930   1.574   2.032  0.2146  0.5256  0.1232
 5997TIP3    H117997   4.861   1.525   1.988  0.2724  0.3050  0.2803
 5997TIP3    H217998   5.011   1.539   1.996  0.2269  1.8784 -1.2544
 5998TIP3   OH217999   2.687   2.179   1.135 -0.0006  0.0932  0.4184
 5998TIP3    H118000   2.699   2.220   1.221 -1.4462 -0.5036  0.9414
 5998TIP3    H218001   2.632   2.240   1.086 -0.2395 -0.1618  0.3702
 5999TIP3   OH218002   2.977   4.314   0.762  0.1908  0.0201  0.6470
 5999TIP3    H118003   2.979   4.373   0.838 -1.8625 -1.4917  1.9948
 5999TIP3    H218004   2.896   4.337   0.716  0.3010 -0.5353  0.1744
 6000TIP3   OH218005   5.571   3.173   0.481 -0.4882  0.0743  0.3817
 6000TIP3    H118006   5.571   3.246   0.542  2.4571  0.8150 -0.3524
 6000TIP3    H218007   5.614   3.101   0.528 -1.7577 -0.6393  0.4899
 6001TIP3   OH218008   4.363   0.263   0.482 -0.3579  0.5228  0.5955
 6001TIP3    H118009   4.340   0.216   0.402  2.8281  0.3794 -0.3574
 6001TIP3    H218010   4.456   0.283   0.473 -0.3213  2.2364  3.4287
 6002TIP3   OH218011   4.502   3.819   2.624 -0.2034  0.2683 -0.0940
 6002TIP3    H118012   4.494   3.782   2.712  1.3122  0.4245  0.1425
 6002TIP3    H218013   4.484   3.912   2.636 -1.1071  0.1146 -0.1675
 6003TIP3   OH218014   3.683   5.750   3.534 -0.4880  0.2290 -0.3638
 6003TIP3    H118015   3.704   5.791   3.618  0.3508  1.9725 -1.3738
 6003TIP3    H218016   3.608   5.694   3.553 -1.6541  2.1647  1.1788
 6004TIP3   OH218017   4.727   4.032   2.692  0.3986 -0.6138 -0.5787
 6004TIP3    H118018   4.723   3.941   2.720 -0.2312 -0.4656 -0.1681
 6004TIP3    H218019   4.655   4.075   2.738  0.8231  0.1391 -0.5943
 6005TIP3   OH218020   4.671   2.393   0.652  0.2546 -0.4505 -0.7524
 6005TIP3    H118021   4.711   2.438   0.726 -1.9198  0.3606 -0.0007
 6005TIP3    H218022   4.719   2.427   0.576  0.6679  0.8468  0.0503
 6006TIP3   OH218023   2.673   1.773   1.703  0.1193  0.7414  0.2837
 6006TIP3    H118024   2.713   1.692   1.670 -0.1214  0.4316  0.7228
 6006TIP3    H218025   2.724   1.793   1.782  1.7882  2.4106 -1.1414
 6007TIP3   OH218026   4.732   5.434   0.167  0.0028 -0.3088  0.5623
 6007TIP3    H118027   4.744   5.503   0.231 -0.2798 -0.3847  0.7017
 6007TIP3    H218028   4.819   5.417   0.132  0.0654  0.1504  0.4926
 6008TIP3   OH218029   1.086   2.910   2.393 -0.6675  0.4423  0.1105
 6008TIP3    H118030   1.076   2.828   2.345 -0.0975  0.0191  0.6836
 6008TIP3    H218031   1.171   2.944   2.366 -0.0109 -0.1608  1.3054
 6009TIP3   OH218032   2.774   2.557   4.996  0.2094 -0.1047  0.0147
 6009TIP3    H118033   2.843   2.492   4.980 -0.8774 -1.2226 -0.3682
 6009TIP3    H218034   2.695   2.504   5.009 -0.9002  1.1644 -1.2035
 6010TIP3   OH218035   0.044   1.344   3.308  0.7227  0.3565 -0.1726
 6010TIP3    H118036  -0.050   1.356   3.301  0.8458  0.4984 -1.8288
 6010TIP3    H218037   0.082   1.411   3.251  1.8680  0.7767  1.0272
 6011TIP3   OH218038   4.272   0.033   3.422 -0.2562 -0.2033 -0.1352
 6011TIP3    H118039   4.303   0.007   3.509  2.2663 -0.7784 -1.1408
 6011TIP3    H218040   4.218  -0.040   3.393 -0.5012 -0.3386  0.6164
 6012TIP3   OH218041   6.143   2.583   4.954 -0.4283 -0.0853  0.1652
 6012TIP3    H118042   6.139   2.512   4.890 -0.1222 -1.5871  1.7561
 6012TIP3    H218043   6.234   2.612   4.953  0.1883 -1.7627  1.5713
 6013TIP3   OH218044   5.839   3.281   4.674  0.0398  0.0972  0.5714
 6013TIP3    H118045   5.747   3.307   4.670 -0.1286 -0.5938 -1.8046
 6013TIP3    H218046   5.886   3.350   4.628  0.7327  0.4783  1.8323
 6014TIP3   OH218047   0.416   3.598   3.359  0.5684 -0.3220  0.0032
 6014TIP3    H118048   0.385   3.668   3.301 -0.2196 -0.3712  0.3561
 6014TIP3    H218049   0.486   3.638   3.409 -0.7513  0.6470  1.1521
 6015TIP3   OH218050   2.093   4.614   2.834 -0.0696  0.0672 -0.4441
 6015TIP3    H118051   2.079   4.640   2.743  1.1798  2.0295 -0.1342
 6015TIP3    H218052   2.060   4.688   2.885  0.6968 -0.3121  0.6342
 6016TIP3   OH218053   2.729   2.378  -0.018 -0.1590  0.0709  0.7737
 6016TIP3    H118054   2.678   2.367   0.063 -0.5610  2.1626  0.8553
 6016TIP3    H218055   2.794   2.444   0.004  0.4191 -0.1191 -0.3287
 6017TIP3   OH218056   3.586   1.218   3.340 -0.0063 -0.0720  0.5631
 6017TIP3    H118057   3.513   1.182   3.390 -0.9574 -0.9158 -1.3034
 6017TIP3    H218058   3.545   1.258   3.263  1.2929  2.2162  0.9578
 6018TIP3   OH218059   3.026   0.025   0.387 -0.4452  0.6051 -0.2243
 6018TIP3    H118060   3.039   0.103   0.333 -0.0784  0.1596 -0.7945
 6018TIP3    H218061   2.943  -0.011   0.357  0.2325 -0.1929 -1.2129
 6019TIP3   OH218062   1.059   5.571   4.800 -0.1220 -0.4777  0.2811
 6019TIP3    H118063   1.038   5.501   4.862  0.3861 -1.7187 -0.9111
 6019TIP3    H218064   1.001   5.556   4.726  0.6674 -0.2167 -0.4022
 6020TIP3   OH218065   4.478   3.879   3.763 -0.6303  0.0501  0.0675
 6020TIP3    H118066   4.439   3.814   3.705 -0.7246  0.9597 -0.9156
 6020TIP3    H218067   4.403   3.925   3.802 -0.5716 -0.6527  1.0445
 6021TIP3   OH218068   1.256   5.790   0.599 -0.2770 -0.1798  0.3667
 6021TIP3    H118069   1.299   5.869   0.566  1.6403 -1.8435 -1.4483
 6021TIP3    H218070   1.179   5.779   0.544  0.6620 -0.6975 -0.9011
 6022TIP3   OH218071   1.162   4.634   0.697  0.1886  0.1526 -0.5647
 6022TIP3    H118072   1.183   4.655   0.606 -0.5489  0.3361 -0.7014
 6022TIP3    H218073   1.072   4.602   0.693  0.4954 -0.8129 -0.0396
 6023TIP3   OH218074   2.637   0.614   4.018 -0.0934  0.1407 -0.2623
 6023TIP3    H118075   2.728   0.591   4.038 -0.3187 -0.5360  0.0078
 6023TIP3    H218076   2.630   0.605   3.923 -0.7997 -3.3846 -0.0008
 6024TIP3   OH218077   5.368   5.599   1.754  0.1438  0.0438  0.5623
 6024TIP3    H118078   5.368   5.541   1.677  2.3145  0.7741 -0.0717
 6024TIP3    H218079   5.290   5.654   1.743 -0.7530 -1.2722  0.0412
 6025TIP3   OH218080   4.848   3.749   1.443 -0.0942 -0.9410  0.2865
 6025TIP3    H118081   4.814   3.774   1.529 -0.6745 -0.3099 -0.1108
 6025TIP3    H218082   4.886   3.662   1.456  0.1155 -0.7133  1.2513
 6026TIP3   OH218083   2.049   2.162   5.061  0.7985  0.0766 -0.7293
 6026TIP3    H118084   2.089   2.086   5.104  1.9692  0.5075 -1.0146
 6026TIP3    H218085   2.097   2.172   4.979 -0.5690  0.0328 -1.5636
 6027TIP3   OH218086   2.025   1.822   0.631  0.3855 -0.0801  0.4722
 6027TIP3    H118087   2.081   1.876   0.687  0.4522 -1.6053  1.9509
 6027TIP3    H218088   1.949   1.802   0.684  0.2466 -1.2172 -0.1195
 6028TIP3   OH218089   6.367   1.160   4.161  0.9135 -0.3812 -0.3227
 6028TIP3    H118090   6.393   1.073   4.132 -0.0991 -1.0354  0.6178
 6028TIP3    H218091   6.283   1.146   4.205  0.2870  1.2123 -0.9346
 6029TIP3   OH218092   4.224   5.654   2.874  0.2192 -0.0208  0.2624
 6029TIP3    H118093   4.237   5.742   2.837  3.0180 -0.7390 -0.7105
 6029TIP3    H218094   4.144   5.622   2.831  0.1994  1.3325 -0.8042
 6030TIP3   OH218095   4.677   2.065   4.273 -0.1406  0.5539  0.2809
 6030TIP3    H118096   4.634   2.118   4.340 -2.9355  0.1204 -1.0294
 6030TIP3    H218097   4.640   2.096   4.191 -0.3182 -1.9967 -0.6925
 6031TIP3   OH218098   1.471   2.034   5.111 -0.0696 -0.2034  0.1388
 6031TIP3    H118099   1.553   1.998   5.144  0.0743 -0.4194 -0.4349
 6031TIP3    H218100   1.444   1.974   5.042 -0.9672 -0.3988  0.6378
 6032TIP3   OH218101   4.569   3.867   0.691  0.1573  0.6018  0.3125
 6032TIP3    H118102   4.630   3.907   0.630 -0.8774  0.5111 -0.8255
 6032TIP3    H218103   4.554   3.779   0.657 -1.8910  1.1781 -0.4532
 6033TIP3   OH218104   5.685   2.494   2.610  0.6685  0.2509  0.2347
 6033TIP3    H118105   5.715   2.487   2.701 -1.4497  0.5941  1.0295
 6033TIP3    H218106   5.667   2.587   2.598  0.4619  0.1375 -0.3611
 6034TIP3   OH218107   5.804   2.744   3.911  0.2290  0.6000  0.1602
 6034TIP3    H118108   5.783   2.651   3.919  2.2788  0.0571 -0.2483
 6034TIP3    H218109   5.885   2.755   3.961 -1.1055  2.6681  2.0953
 6035TIP3   OH218110   3.042   1.305   2.136 -0.5368  0.1215  0.3744
 6035TIP3    H118111   3.041   1.257   2.053 -0.4483  0.2396  0.3068
 6035TIP3    H218112   2.962   1.276   2.180  0.3827 -1.4355  1.0969
 6036TIP3   OH218113   4.369   1.410   2.177  0.2518  0.0501  0.0756
 6036TIP3    H118114   4.369   1.416   2.081 -0.5960  1.9451  0.1546
 6036TIP3    H218115   4.277   1.413   2.202  0.4023 -1.6292  0.9197
 6037TIP3   OH218116   3.881   0.966   1.431  0.3058  0.2497 -0.0501
 6037TIP3    H118117   3.787   0.958   1.446  0.1355  1.2952 -0.5257
 6037TIP3    H218118   3.921   0.930   1.510 -0.4145 -2.8454 -0.9624
 6038TIP3   OH218119   5.528   4.987   4.984  0.4403  0.3041  0.7608
 6038TIP3    H118120   5.460   5.054   4.974 -0.3634 -0.6570 -0.6468
 6038TIP3    H218121   5.579   5.015   5.060  0.5294  2.8292 -0.1352
 6039TIP3   OH218122   2.973   1.092   0.736  0.2452 -0.5305 -0.4171
 6039TIP3    H118123   2.960   1.137   0.820 -0.8375 -0.5538 -0.5632
 6039TIP3    H218124   3.006   1.160   0.677 -0.8605 -0.0355 -0.4895
 6040TIP3   OH218125   2.849   3.120   1.711 -0.1915  0.2136  0.1857
 6040TIP3    H118126   2.797   3.190   1.750  0.3631  0.6012  0.2342
 6040TIP3    H218127   2.801   3.096   1.632 -1.5926 -0.9150  1.3131
 6041TIP3   OH218128   3.994   1.286   4.688  0.5963 -0.3807 -0.2066
 6041TIP3    H118129   4.013   1.333   4.607 -0.0956 -1.2255 -0.8786
 6041TIP3    H218130   3.899   1.292   4.698  0.8283  1.4339  1.6417
 6042TIP3   OH218131   0.689   3.680   1.210  0.5148 -0.0156 -0.9517
 6042TIP3    H118132   0.638   3.621   1.265 -1.1469  3.2329  1.3647
 6042TIP3    H218133   0.763   3.627   1.180  0.0788 -2.7904  2.2344
 6043TIP3   OH218134   0.104   0.565   4.744  0.4842  0.6047 -0.0577
 6043TIP3    H118135   0.095   0.512   4.665  0.9170 -0.7185  0.7565
 6043TIP3    H218136   0.087   0.655   4.715 -2.1340 -0.1404 -1.1120
 6044TIP3   OH218137   0.634   5.236   3.724 -0.3598  0.5508 -0.8505
 6044TIP3    H118138   0.673   5.298   3.785 -2.8971  0.9170  0.5451
 6044TIP3    H218139   0.553   5.279   3.695 -0.9295 -1.0802 -1.8164
 6045TIP3   OH218140   2.839   4.226   3.873 -0.2084  0.2226  0.1411
 6045TIP3    H118141   2.848   4.240   3.779  2.2789  1.4652  0.4815
 6045TIP3    H218142   2.919   4.179   3.898 -0.7916 -0.0277  1.6676
 6046TIP3   OH218143   0.938   0.616   2.853  0.5108  0.0265 -0.5471
 6046TIP3    H118144   0.937   0.664   2.936  0.1426  2.0385 -1.6485
 6046TIP3    H218145   0.960   0.527   2.877  0.4367  0.5632  1.7138
 6047TIP3   OH218146   6.276   4.661   5.124  0.4779  0.3848  0.3082
 6047TIP3    H118147   6.234   4.631   5.043 -0.2504  1.5488  0.2321
 6047TIP3    H218148   6.268   4.756   5.121  1.9129  0.5514  0.9732
 6048TIP3   OH218149   2.763   1.182   3.679 -0.9008  0.1381  0.4220
 6048TIP3    H118150   2.847   1.224   3.663 -1.3425  0.9528  0.1846
 6048TIP3    H218151   2.699   1.254   3.675 -1.7567 -0.6473 -0.7195
 6049TIP3   OH218152   0.121   3.993   0.635 -0.3175 -0.2821  0.2403
 6049TIP3    H118153   0.058   3.929   0.604 -0.2792 -0.2249  0.0431
 6049TIP3    H218154   0.073   4.076   0.637 -0.4099 -0.3443  0.6412
 6050TIP3   OH218155   3.068   0.189   2.108 -0.3104 -0.0773  0.4923
 6050TIP3    H118156   3.161   0.168   2.099  0.1525  1.0678  2.0842
 6050TIP3    H218157   3.024   0.104   2.109  0.6711 -0.6301 -0.4610
 6051TIP3   OH218158   6.222   2.618   1.781 -0.0950 -0.2656 -0.6964
 6051TIP3    H118159   6.281   2.681   1.741  0.2537 -0.4987 -0.5530
 6051TIP3    H218160   6.268   2.534   1.776  0.5304 -0.1037  1.3115
 6052TIP3   OH218161   5.406   5.755   2.740  0.4111 -0.2755  0.4563
 6052TIP3    H118162   5.387   5.726   2.829  2.0447 -1.3129  0.5013
 6052TIP3    H218163   5.407   5.674   2.688 -0.3356  0.2951 -0.4912
 6053TIP3   OH218164   3.874   5.113   2.353  0.1924  0.3027  0.2247
 6053TIP3    H118165   3.949   5.079   2.403 -0.0314  1.3178  1.3092
 6053TIP3    H218166   3.798   5.088   2.405 -0.1588  0.1689 -0.3469
 6054TIP3   OH218167   3.684   2.064   0.861  0.2374 -0.3811 -0.0062
 6054TIP3    H118168   3.730   2.023   0.934 -2.3748 -0.0471  1.9357
 6054TIP3    H218169   3.631   2.133   0.900 -0.3093  0.6890 -2.4102
 6055TIP3   OH218170   2.417   2.039   3.166  0.0618 -0.1616  0.0518
 6055TIP3    H118171   2.386   2.111   3.110 -3.1789  0.2928  2.1404
 6055TIP3    H218172   2.447   2.083   3.246 -0.2587 -1.0264  0.6605
 6056TIP3   OH218173   4.120   1.021   2.351  0.0348 -0.2482  0.5355
 6056TIP3    H118174   4.035   1.058   2.325 -0.1887 -0.4092  1.0379
 6056TIP3    H218175   4.172   1.097   2.377 -0.5658 -0.3028  1.9799
 6057TIP3   OH218176   0.340   5.077   3.660 -0.3344  0.6040  0.3168
 6057TIP3    H118177   0.423   5.036   3.683  1.0248  2.0233 -1.6777
 6057TIP3    H218178   0.357   5.171   3.665 -2.3559  0.9748  1.4948
 6058TIP3   OH218179   4.331   4.646   0.661  0.8742 -0.5015 -0.5498
 6058TIP3    H118180   4.421   4.674   0.643  0.4829  2.0388  0.9493
 6058TIP3    H218181   4.277   4.715   0.621 -0.3306 -0.9514  0.2662
 6059TIP3   OH218182   2.302   0.928   5.090 -0.1971  0.0226  0.2424
 6059TIP3    H118183   2.324   0.962   5.177 -0.9919 -0.5665  0.6804
 6059TIP3    H218184   2.300   0.833   5.101 -0.0923 -0.0679 -0.4751
 6060TIP3   OH218185   4.168   0.940   0.951 -0.1274  0.1774 -0.5598
 6060TIP3    H118186   4.224   0.898   0.886  0.6922 -0.1322  0.3274
 6060TIP3    H218187   4.228   0.995   1.003 -0.4498 -0.9073  1.0269
 6061TIP3   OH218188   1.945   3.497   1.656  0.1785 -0.4203  0.4858
 6061TIP3    H118189   1.996   3.417   1.645 -1.3466 -1.3808  0.0363
 6061TIP3    H218190   1.889   3.480   1.732 -0.5808 -0.0183  0.0279
 6062TIP3   OH218191   5.689   0.438   0.469 -0.3203  0.4513 -0.4279
 6062TIP3    H118192   5.768   0.483   0.438  1.9430 -0.4603  3.3959
 6062TIP3    H218193   5.636   0.508   0.509  0.7978  0.5296  1.0139
 6063TIP3   OH218194   3.656   0.431   4.904 -0.2189  0.3147  0.2247
 6063TIP3    H118195   3.649   0.520   4.869  0.0382  1.2240  2.3883
 6063TIP3    H218196   3.713   0.439   4.980  1.0049 -1.9827 -0.3445
 6064TIP3   OH218197   5.240   2.154   4.859 -0.1555  0.1351  0.2676
 6064TIP3    H118198   5.204   2.118   4.778 -0.1972 -0.2381  0.4510
 6064TIP3    H218199   5.163   2.169   4.914  0.0389 -2.3539  1.3643
 6065TIP3   OH218200   2.942   5.074   0.555 -0.3735 -0.0700 -0.2983
 6065TIP3    H118201   2.883   5.147   0.575  0.0244  0.6347 -1.6122
 6065TIP3    H218202   2.982   5.053   0.640 -2.0523 -0.1919  0.5180
 6066TIP3   OH218203   4.155   4.470   2.363 -0.4839  0.6149  0.4831
 6066TIP3    H118204   4.251   4.465   2.361 -0.5569 -3.1790  0.3904
 6066TIP3    H218205   4.131   4.496   2.274  0.4247  0.5525  0.2082
 6067TIP3   OH218206   1.058   3.888   2.271 -0.1270  0.1010 -0.2198
 6067TIP3    H118207   1.149   3.870   2.246  0.3422  1.0003  0.7804
 6067TIP3    H218208   1.049   3.847   2.358 -0.7230 -0.0928 -0.3685
 6068TIP3   OH218209   5.458   2.149   4.413  0.4031 -0.3627  0.0225
 6068TIP3    H118210   5.472   2.123   4.322 -1.2505 -0.1958 -0.3187
 6068TIP3    H218211   5.482   2.241   4.415  1.9645 -0.7490  0.1570
 6069TIP3   OH218212   3.367   3.268   3.824  0.2203  0.5590  0.0906
 6069TIP3    H118213   3.431   3.211   3.865 -0.3020  1.1026  1.7352
 6069TIP3    H218214   3.414   3.309   3.751  0.4537 -2.3174 -1.5082
 6070TIP3   OH218215   3.909   5.931   2.379  0.0171  0.4182 -0.2644
 6070TIP3    H118216   3.847   5.913   2.309  1.0209 -0.1933 -1.0376
 6070TIP3    H218217   3.903   6.025   2.394  0.3347  0.6925 -1.7290
 6071TIP3   OH218218   1.857   0.117   0.756 -0.3251  0.0614 -0.4894
 6071TIP3    H118219   1.850   0.078   0.669  1.9414 -0.6478 -0.4111
 6071TIP3    H218220   1.773   0.096   0.798 -0.9494 -0.7161 -2.0399
 6072TIP3   OH218221   2.371   4.146   1.496  0.2871 -0.0454  0.4944
 6072TIP3    H118222   2.364   4.234   1.533 -0.4357  0.4113 -0.6926
 6072TIP3    H218223   2.281   4.113   1.495  0.5025 -0.6554  0.5733
 6073TIP3   OH218224   2.206   5.624   3.025  0.5731 -0.0652 -0.2502
 6073TIP3    H118225   2.161   5.556   2.974  0.9240 -0.7468  0.3412
 6073TIP3    H218226   2.259   5.671   2.960  1.7216 -1.4956 -0.3977
 6074TIP3   OH218227   4.696   3.497   3.227  0.0288  0.1827 -0.1011
 6074TIP3    H118228   4.605   3.515   3.202 -0.6174 -2.9351 -0.3463
 6074TIP3    H218229   4.693   3.491   3.322 -0.3543 -1.1854 -0.1736
 6075TIP3   OH218230   0.774   5.610   1.504 -0.3551  0.5872 -0.3167
 6075TIP3    H118231   0.693   5.564   1.483 -0.8124  0.8916  0.7234
 6075TIP3    H218232   0.760   5.644   1.592  1.1444  0.1145  0.1372
 6076TIP3   OH218233   2.515   5.980   0.729  0.1594 -0.2935 -0.6212
 6076TIP3    H118234   2.432   6.024   0.744  1.1708  1.0873  1.4845
 6076TIP3    H218235   2.500   5.889   0.756 -0.3500  0.2631  1.1115
 6077TIP3   OH218236   5.018   3.338   5.156 -0.1775 -0.0510  0.2081
 6077TIP3    H118237   4.969   3.416   5.131  1.1330  0.9280  0.5862
 6077TIP3    H218238   5.109   3.365   5.154  0.2618 -1.3383  1.1800
 6078TIP3   OH218239   5.996   1.311   1.647 -0.1502  0.0421 -0.4683
 6078TIP3    H118240   5.981   1.306   1.552 -1.5412  1.0998 -0.3344
 6078TIP3    H218241   5.931   1.373   1.678  0.3017 -0.2767  1.2004
 6079TIP3   OH218242   3.375   1.532   1.723 -0.2528  0.1140  0.3877
 6079TIP3    H118243   3.469   1.513   1.725 -0.4699 -1.0008  0.6725
 6079TIP3    H218244   3.359   1.563   1.634  0.2918 -0.1970  0.1776
 6080TIP3   OH218245   2.609   1.892   4.675 -0.2436  0.1866  0.1136
 6080TIP3    H118246   2.650   1.974   4.703 -0.6276  0.7465 -0.9127
 6080TIP3    H218247   2.681   1.829   4.673  0.0096  0.4236  1.1557
 6081TIP3   OH218248   2.526   3.083   0.484  0.0123  0.4570  0.0790
 6081TIP3    H118249   2.489   3.003   0.523  1.0306 -0.1525 -0.1700
 6081TIP3    H218250   2.556   3.056   0.397 -1.0398  1.4988 -0.6345
 6082TIP3   OH218251   1.362   3.775   3.453  0.0595 -0.0499 -0.1242
 6082TIP3    H118252   1.277   3.806   3.483 -0.2212  0.0756 -1.0155
 6082TIP3    H218253   1.422   3.796   3.525 -0.7510 -0.6923  0.7732
 6083TIP3   OH218254   5.312   3.755   4.048 -0.3595  0.1707 -0.4049
 6083TIP3    H118255   5.279   3.843   4.036 -0.0552  0.1670 -1.2900
 6083TIP3    H218256   5.390   3.765   4.104 -2.2846  0.0885  2.5147
 6084TIP3   OH218257   1.469   4.134   0.531 -0.6554 -0.1155  0.1799
 6084TIP3    H118258   1.453   4.223   0.501 -0.5953 -0.3436 -0.5371
 6084TIP3    H218259   1.400   4.118   0.596  0.4246  1.0891  1.7141
 6085TIP3   OH218260   4.959   2.691   2.159 -0.1095 -0.2278 -0.2589
 6085TIP3    H118261   4.870   2.708   2.129  0.7843  0.0271 -3.0538
 6085TIP3    H218262   5.008   2.770   2.137  0.7971 -0.2451  1.5030
 6086TIP3   OH218263   2.652   1.879   2.104  0.6606  0.7454  0.1316
 6086TIP3    H118264   2.647   1.971   2.076 -0.2724  0.1861 -1.6422
 6086TIP3    H218265   2.568   1.841   2.077  1.0480 -0.6419  0.8162
 6087TIP3   OH218266   5.751   1.363   1.365 -0.1968 -0.5647  0.0009
 6087TIP3    H118267   5.774   1.276   1.333 -1.0931 -0.8228  0.0272
 6087TIP3    H218268   5.703   1.404   1.293  0.0167 -0.1837  0.0720
 6088TIP3   OH218269   5.614   3.150   2.325  0.5708  0.2354 -0.9508
 6088TIP3    H118270   5.572   3.219   2.275  0.2398  0.0181 -0.9774
 6088TIP3    H218271   5.576   3.157   2.413  0.4972  0.0549 -0.9672
 6089TIP3   OH218272   4.104   4.283   3.843  0.0725  0.5517  0.0253
 6089TIP3    H118273   4.032   4.295   3.906 -0.1133  0.1868 -0.1149
 6089TIP3    H218274   4.169   4.348   3.869 -1.4165  2.7714 -1.4705
 6090TIP3   OH218275   5.294   5.740   4.109 -0.2188  0.0867  0.2388
 6090TIP3    H118276   5.318   5.827   4.077 -1.7959  0.9824  1.3332
 6090TIP3    H218277   5.371   5.710   4.157  0.5665  0.6037 -0.6708
 6091TIP3   OH218278   3.890   1.741   4.065 -0.0635 -0.8516  0.1682
 6091TIP3    H118279   3.928   1.803   4.128 -1.5341 -0.7709  1.0217
 6091TIP3    H218280   3.961   1.723   4.003  0.9295  0.3189  0.9224
 6092TIP3   OH218281   2.697   1.942   3.888 -0.2150 -0.1376  0.4440
 6092TIP3    H118282   2.727   1.963   3.976  0.2868  1.0177  0.0204
 6092TIP3    H218283   2.776   1.912   3.842 -0.5485 -1.1236  0.4787
 6093TIP3   OH218284   5.974   0.152   0.417  0.1601  0.1066 -0.3639
 6093TIP3    H118285   6.022   0.102   0.484 -1.0599 -0.4099  0.1516
 6093TIP3    H218286   6.032   0.225   0.396  2.5090 -2.0595 -1.9557
 6094TIP3   OH218287   0.299   0.756   4.951  0.1452  0.1918 -0.1016
 6094TIP3    H118288   0.232   0.807   4.907  0.1552 -0.5321 -0.9814
 6094TIP3    H218289   0.289   0.667   4.917  3.1671  0.5045 -2.2537
 6095TIP3   OH218290   5.461   5.929   3.657  0.3198  0.8006 -0.1494
 6095TIP3    H118291   5.490   5.934   3.748 -2.6934 -0.9108  1.0730
 6095TIP3    H218292   5.454   5.835   3.639 -0.8001  1.1069 -1.5182
 6096TIP3   OH218293   4.725   3.349   4.479  0.0495 -0.0784 -0.8080
 6096TIP3    H118294   4.784   3.275   4.495 -1.4548 -1.5288 -1.6134
 6096TIP3    H218295   4.705   3.343   4.386 -1.2257  0.4627 -0.5867
 6097TIP3   OH218296   1.224   0.770   0.199 -0.3353  0.2244 -0.2002
 6097TIP3    H118297   1.238   0.854   0.242  0.2984  0.1670 -0.2883
 6097TIP3    H218298   1.269   0.778   0.114 -0.2748 -0.1991 -0.2104
 6098TIP3   OH218299   1.064   5.089   3.387  0.1908 -0.2661  0.0005
 6098TIP3    H118300   1.055   5.080   3.482 -1.0795 -0.8362 -0.1514
 6098TIP3    H218301   0.986   5.140   3.361  1.0762  0.8292 -0.6184
 6099TIP3   OH218302   5.572   5.441   3.273  0.3950 -0.2233 -0.1693
 6099TIP3    H118303   5.664   5.462   3.292  0.2794 -0.5646  0.8415
 6099TIP3    H218304   5.575   5.357   3.228  0.4954 -1.0921  1.4001
 6100TIP3   OH218305   5.303   4.061   4.935 -0.1598 -0.7075  0.2550
 6100TIP3    H118306   5.356   4.069   5.014  0.5414 -1.4599 -0.1243
 6100TIP3    H218307   5.222   4.021   4.965  0.7180 -2.5032  0.3741
 6101TIP3   OH218308   3.015   1.876   4.333 -0.3426  0.0425  0.1254
 6101TIP3    H118309   3.008   1.781   4.340  0.2681 -0.2616 -2.4399
 6101TIP3    H218310   2.935   1.909   4.373 -0.4934 -1.5176  1.2149
 6102TIP3   OH218311   4.246   3.454   4.948  0.5060  0.2830  0.8080
 6102TIP3    H118312   4.175   3.519   4.949  0.2407  0.2479 -2.7836
 6102TIP3    H218313   4.218   3.386   5.009 -1.6304  1.2102  0.9306
 6103TIP3   OH218314   6.235   3.487   1.369 -0.3207  0.1536  0.2745
 6103TIP3    H118315   6.187   3.405   1.380 -0.6906  0.0794 -1.6798
 6103TIP3    H218316   6.223   3.533   1.452 -1.1584 -1.2108  0.9369
 6104TIP3   OH218317   4.571   0.398   2.037 -0.0580  0.1714 -0.0632
 6104TIP3    H118318   4.516   0.460   2.085  1.4740  1.0337  0.6617
 6104TIP3    H218319   4.509   0.342   1.990 -1.5316  1.1350  0.6544
 6105TIP3   OH218320   4.796   4.377   1.480  0.6458 -0.4833  0.2721
 6105TIP3    H118321   4.765   4.352   1.393 -2.5901 -1.0401  1.4691
 6105TIP3    H218322   4.804   4.473   1.475  0.9020 -0.5382 -0.7314
 6106TIP3   OH218323   5.072   5.129   0.480  0.3622  0.5525 -0.3127
 6106TIP3    H118324   5.116   5.172   0.406  0.4235  1.1716  0.0808
 6106TIP3    H218325   5.002   5.189   0.505 -1.6720 -1.0271 -1.8296
 6107TIP3   OH218326   1.535   5.648   3.330  0.1911  0.1450 -0.4699
 6107TIP3    H118327   1.578   5.726   3.364 -0.2134  0.7463 -1.2956
 6107TIP3    H218328   1.601   5.606   3.275  0.8398 -0.8208  0.9880
 6108TIP3   OH218329   4.903   4.455   0.380 -0.1283  0.0322  0.5425
 6108TIP3    H118330   4.811   4.431   0.374 -0.2559  0.1554  1.6841
 6108TIP3    H218331   4.948   4.393   0.323 -0.9008 -0.1045  0.0732
 6109TIP3   OH218332   3.815   4.976   4.389 -0.5564 -0.2653  0.5594
 6109TIP3    H118333   3.741   4.961   4.448 -1.7886  1.2435 -0.5598
 6109TIP3    H218334   3.840   5.067   4.404  1.1207 -0.7411  0.9210
 6110TIP3   OH218335   0.894   0.208   1.465 -0.2677  0.1658  0.4221
 6110TIP3    H118336   0.957   0.204   1.393 -0.8328  1.9822 -0.2409
 6110TIP3    H218337   0.948   0.200   1.544  0.8802  1.8192 -0.1140
 6111TIP3   OH218338   5.845   2.478   3.316 -0.6433  0.2031 -0.6706
 6111TIP3    H118339   5.861   2.387   3.290  0.4597 -0.0988  0.9241
 6111TIP3    H218340   5.867   2.529   3.238 -2.0014 -0.9065 -1.8408
 6112TIP3   OH218341   2.732   3.074   3.464 -0.4523  0.2727  0.0631
 6112TIP3    H118342   2.792   3.066   3.538 -0.4814  0.9609  0.1729
 6112TIP3    H218343   2.719   3.169   3.454 -1.6257  0.1415  0.1305
 6113TIP3   OH218344   3.710   0.750   4.544 -0.0924  0.6375  0.4829
 6113TIP3    H118345   3.670   0.801   4.474 -0.0818 -0.0819 -0.0642
 6113TIP3    H218346   3.753   0.814   4.600 -0.5586  1.2676  0.1248
 6114TIP3   OH218347   4.030   2.921   2.009 -0.2952 -0.2188 -0.0811
 6114TIP3    H118348   4.039   2.939   2.103 -1.4847  2.0220 -0.3215
 6114TIP3    H218349   4.106   2.963   1.969 -0.3165 -0.3079 -0.2170
 6115TIP3   OH218350   0.279   5.860   3.531 -0.0917 -0.4922 -0.2947
 6115TIP3    H118351   0.235   5.819   3.605 -0.0674  0.2192  0.1214
 6115TIP3    H218352   0.209   5.885   3.471 -0.2602  0.3875  0.2392
 6116TIP3   OH218353   1.979   2.956   3.738  0.4667 -0.6220  0.2577
 6116TIP3    H118354   1.949   2.986   3.652  0.8611 -1.9236 -0.3488
 6116TIP3    H218355   1.982   3.036   3.791 -0.4319  0.0973 -0.7351
 6117TIP3   OH218356   4.696   4.602   4.522 -0.7917  0.1907  0.5788
 6117TIP3    H118357   4.762   4.633   4.585  1.1769  0.6630 -1.5737
 6117TIP3    H218358   4.612   4.624   4.563  0.3897  1.1603  2.6842
 6118TIP3   OH218359   0.017   2.396   3.551  0.6713 -0.2495  0.0726
 6118TIP3    H118360   0.085   2.366   3.610 -0.4384  0.0031  1.5316
 6118TIP3    H218361  -0.063   2.352   3.582 -0.1808  0.9374 -0.3779
 6119TIP3   OH218362   6.066   3.465   0.686  0.6507  0.0765  0.3764
 6119TIP3    H118363   5.981   3.444   0.725  0.1604 -1.7777 -1.5489
 6119TIP3    H218364   6.063   3.560   0.673 -1.0102  0.0949  0.6235
 6120TIP3   OH218365   3.186   1.398   3.931  0.3134 -0.1726  0.0111
 6120TIP3    H118366   3.188   1.486   3.970  1.1412 -0.8479  1.5612
 6120TIP3    H218367   3.276   1.380   3.906  0.1294 -0.5573 -0.3978
 6121TIP3   OH218368   0.093   2.508   1.925  0.3675 -0.0181 -0.2781
 6121TIP3    H118369   0.052   2.432   1.966  0.6939 -0.7467 -1.2414
 6121TIP3    H218370   0.087   2.578   1.990 -1.8549 -0.2520 -0.1755
 6122TIP3   OH218371   4.269   4.425   2.878  0.1532  0.0165 -0.0264
 6122TIP3    H118372   4.348   4.460   2.918 -0.6134  0.8638  0.8084
 6122TIP3    H218373   4.198   4.477   2.916 -0.8598 -1.1206 -0.3076
 6123TIP3   OH218374   1.893   3.158   1.846 -0.0413  0.2010 -0.1434
 6123TIP3    H118375   1.884   3.081   1.902 -0.0146  1.0305  1.0311
 6123TIP3    H218376   1.835   3.140   1.772  2.2805 -2.3186 -1.5051
 6124TIP3   OH218377   5.150   1.063   1.720  0.4958  0.2862 -0.5476
 6124TIP3    H118378   5.140   1.092   1.811  1.4662  0.4211 -0.4678
 6124TIP3    H218379   5.093   1.122   1.671 -0.3664 -0.0588  0.0043
 6125TIP3   OH218380   1.862   3.115   4.143 -0.1304  0.1784  0.3723
 6125TIP3    H118381   1.857   3.037   4.199 -0.5582  0.5079  0.8101
 6125TIP3    H218382   1.863   3.188   4.205  0.2698  0.5205 -0.0341
 6126TIP3   OH218383   5.442   0.797   3.824 -0.1368 -0.2214  0.3776
 6126TIP3    H118384   5.468   0.746   3.748  1.1035  2.5987 -1.2383
 6126TIP3    H218385   5.452   0.737   3.898  3.9354 -1.5637 -1.0333
 6127TIP3   OH218386   3.076   0.855   1.925  0.3277  0.0579  0.2089
 6127TIP3    H118387   3.033   0.803   1.858  0.3435 -0.4307  0.5739
 6127TIP3    H218388   3.086   0.796   1.999  0.6693  0.4758  0.5045
 6128TIP3   OH218389   5.546   5.536   1.083 -1.3026 -0.2179 -0.1685
 6128TIP3    H118390   5.491   5.474   1.132 -1.0415 -0.6488 -0.4150
 6128TIP3    H218391   5.512   5.533   0.994 -1.3773  0.1025 -0.1515
 6129TIP3   OH218392   1.989   5.526   4.629  0.4570 -0.6230  0.3821
 6129TIP3    H118393   1.969   5.569   4.712 -2.8522 -0.9531 -0.0814
 6129TIP3    H218394   2.017   5.596   4.571 -3.0384  0.8100  0.1646
 6130TIP3   OH218395   6.210   2.545   3.214 -0.0260  0.1006  0.2703
 6130TIP3    H118396   6.245   2.469   3.169  1.3972  0.3487  0.9207
 6130TIP3    H218397   6.132   2.568   3.163  1.4972  0.3929 -2.1196
 6131TIP3   OH218398   0.439   1.987   0.444  0.7470 -0.7116 -0.1410
 6131TIP3    H118399   0.358   2.001   0.393  0.6552 -1.4378 -0.1993
 6131TIP3    H218400   0.415   1.920   0.508  1.0001 -0.1450  0.5634
 6132TIP3   OH218401   5.592   5.877   2.564  0.7187  0.1354  0.4831
 6132TIP3    H118402   5.565   5.893   2.473  0.5932  1.9121  0.7853
 6132TIP3    H218403   5.515   5.836   2.605  0.7914 -0.7221 -0.2011
 6133TIP3   OH218404   0.790   3.722   4.158 -0.4769  0.3546  0.0099
 6133TIP3    H118405   0.732   3.746   4.231  1.1177  0.6081  1.2584
 6133TIP3    H218406   0.814   3.631   4.176 -1.4528 -0.1823 -1.2124
 6134TIP3   OH218407   3.244   3.432   0.663  0.0200 -0.1410  0.6063
 6134TIP3    H118408   3.207   3.441   0.751 -2.1203 -0.8962 -0.1455
 6134TIP3    H218409   3.174   3.459   0.604  1.6594  1.1124 -0.8991
 6135TIP3   OH218410   2.956   5.406   2.729  0.4242 -0.4307 -0.3758
 6135TIP3    H118411   2.964   5.438   2.639  0.5332 -0.5062 -0.3924
 6135TIP3    H218412   3.046   5.390   2.757  0.4463  0.3495  0.0223
 6136TIP3   OH218413   1.688   4.593   3.713  0.7255 -0.1017 -0.3900
 6136TIP3    H118414   1.698   4.516   3.657 -1.2752 -1.8480  1.4585
 6136TIP3    H218415   1.705   4.561   3.801 -1.1158  1.3026  0.5551
 6137TIP3   OH218416   3.666   3.074   0.934  0.5337  0.3549 -0.0046
 6137TIP3    H118417   3.728   3.028   0.990 -2.1324 -0.0290  2.9319
 6137TIP3    H218418   3.653   3.158   0.978  0.4359  1.2253 -1.6575
 6138TIP3   OH218419   6.259   0.146   4.084 -0.0241  0.4361  0.5911
 6138TIP3    H118420   6.166   0.140   4.105  0.3218  0.4941  2.2680
 6138TIP3    H218421   6.283   0.058   4.054 -0.1173 -0.2783  2.4746
 6139TIP3   OH218422   0.745   4.864   2.862 -0.5870 -0.4202 -0.2989
 6139TIP3    H118423   0.678   4.837   2.925 -0.7634 -1.7791 -1.0340
 6139TIP3    H218424   0.828   4.849   2.908 -0.7318  1.4742  0.6924
 6140TIP3   OH218425   4.210   2.330   0.876  0.0578 -0.1950 -0.0077
 6140TIP3    H118426   4.155   2.272   0.825 -0.2506 -0.8987  1.0956
 6140TIP3    H218427   4.283   2.352   0.818 -2.2207  2.2410 -2.1839
 6141TIP3   OH218428   4.734   4.513   4.263 -0.3230 -0.0426 -0.0397
 6141TIP3    H118429   4.693   4.548   4.343 -0.8495  1.1611 -0.7940
 6141TIP3    H218430   4.660   4.487   4.208  0.0534 -1.8289  0.2346
 6142TIP3   OH218431   1.056   2.070   4.634 -0.3780  0.3769  0.0148
 6142TIP3    H118432   1.021   2.149   4.675 -3.1419 -0.5401 -0.3931
 6142TIP3    H218433   1.026   2.076   4.543  1.4306 -0.0336 -0.6512
 6143TIP3   OH218434   5.602   3.615   2.644 -0.5445 -0.1983 -0.3038
 6143TIP3    H118435   5.687   3.579   2.668 -0.3105 -0.5271 -1.5393
 6143TIP3    H218436   5.620   3.672   2.569 -1.6401 -1.8319 -1.9030
 6144TIP3   OH218437   4.815   4.325   3.310 -0.0238  0.0108 -0.3127
 6144TIP3    H118438   4.860   4.388   3.366 -1.1590 -0.7113  1.5135
 6144TIP3    H218439   4.748   4.285   3.367 -0.8489 -1.2062 -2.0250
 6145TIP3   OH218440   3.660   2.605   4.515 -0.2518  0.2420  0.6513
 6145TIP3    H118441   3.580   2.568   4.550 -1.0010 -0.7156 -1.8667
 6145TIP3    H218442   3.697   2.537   4.459  0.6173  1.7630 -0.7393
 6146TIP3   OH218443   0.594   2.898   1.711 -0.2317  0.3958  0.7522
 6146TIP3    H118444   0.619   2.987   1.736  1.2745 -0.0518  0.9597
 6146TIP3    H218445   0.499   2.902   1.699 -0.3749  1.7138  2.0401
 6147TIP3   OH218446   1.969   0.794   5.077  0.1088  0.1521 -0.0576
 6147TIP3    H118447   2.013   0.801   4.992  0.9239  2.1162  0.4705
 6147TIP3    H218448   1.994   0.874   5.123 -0.7311 -0.6366  1.8512
 6148TIP3   OH218449   3.963   1.871   4.540  0.3490  0.1776  0.1400
 6148TIP3    H118450   3.971   1.904   4.450  2.1360  4.0605  1.4915
 6148TIP3    H218451   3.870   1.856   4.551  0.2382 -2.6426 -2.9041
 6149TIP3   OH218452   5.392   3.577   4.438  0.3954  0.1369 -0.1608
 6149TIP3    H118453   5.306   3.610   4.467 -0.5419 -0.1921 -2.3124
 6149TIP3    H218454   5.389   3.483   4.455  0.5089  0.2006  0.2011
 6150TIP3   OH218455   1.045   5.056   0.228  0.3237 -0.0336  0.4144
 6150TIP3    H118456   0.974   5.088   0.284 -0.7087 -1.0363 -0.2842
 6150TIP3    H218457   1.004   4.990   0.173  1.7405 -0.3945 -0.2452
 6151TIP3   OH218458   2.766   3.343   4.216  0.1291 -0.6151 -0.0401
 6151TIP3    H118459   2.673   3.350   4.197  0.3794 -0.3117 -1.1994
 6151TIP3    H218460   2.796   3.267   4.167  0.5260 -0.6386  0.2287
 6152TIP3   OH218461   3.555   5.838   4.131 -0.0070  0.0785 -0.1505
 6152TIP3    H118462   3.474   5.873   4.169  0.0086 -1.2451  1.2052
 6152TIP3    H218463   3.552   5.865   4.040 -1.5205  0.8626  0.0934
 6153TIP3   OH218464   6.259   0.557   2.066 -0.9246 -0.3253 -0.6816
 6153TIP3    H118465   6.206   0.630   2.099  1.4077  0.3792  1.9059
 6153TIP3    H218466   6.293   0.515   2.145  0.8384 -1.8880 -2.1835
 6154TIP3   OH218467   5.906   1.227   1.091  0.6861  0.7262  0.0331
 6154TIP3    H118468   5.860   1.144   1.105 -0.1115  1.1890  0.2431
 6154TIP3    H218469   5.984   1.203   1.042 -0.0391 -0.0225 -0.7937
 6155TIP3   OH218470   3.549   2.002   1.995 -0.2712  0.4709  1.0696
 6155TIP3    H118471   3.627   1.948   2.009  0.7865  1.9820  1.2756
 6155TIP3    H218472   3.500   1.956   1.927  2.2068  0.8800 -1.1692
 6156TIP3   OH218473   0.986   4.802   4.555 -0.5254 -0.1402 -0.0724
 6156TIP3    H118474   0.944   4.728   4.599  0.7735 -1.9906 -1.7916
 6156TIP3    H218475   1.071   4.809   4.598 -0.1452 -0.4958 -0.7572
 6157TIP3   OH218476   3.537   5.676   2.839  0.1981  0.0555  0.0563
 6157TIP3    H118477   3.590   5.610   2.795 -1.1090 -1.7431  1.0504
 6157TIP3    H218478   3.447   5.659   2.809 -0.3935  0.2799  1.6045
 6158TIP3   OH218479   2.279   2.959   0.312  0.3361  0.1638 -0.3592
 6158TIP3    H118480   2.324   2.933   0.392  1.5128 -0.0928 -1.0784
 6158TIP3    H218481   2.301   2.891   0.249  1.5319  1.6168 -1.6090
 6159TIP3   OH218482   0.370   2.628   0.906  0.5048 -0.0925 -0.2178
 6159TIP3    H118483   0.285   2.657   0.872  0.2927  0.1069  0.4546
 6159TIP3    H218484   0.347   2.563   0.973  0.6502  2.5168  2.5791
 6160TIP3   OH218485   0.413   1.977   4.484 -0.1102  0.1689 -0.0109
 6160TIP3    H118486   0.348   1.976   4.555 -0.8256  2.5041 -0.5414
 6160TIP3    H218487   0.412   1.887   4.450 -2.2609 -0.1549  0.7265
 6161TIP3   OH218488   3.741   5.848   1.090 -0.4066 -0.5102  0.5661
 6161TIP3    H118489   3.697   5.783   1.036  0.0766 -0.8635  0.5892
 6161TIP3    H218490   3.707   5.833   1.179  0.1096 -1.0969  0.6686
 6162TIP3   OH218491   5.288   3.122   0.174  0.3062 -0.4106  0.6365
 6162TIP3    H118492   5.219   3.187   0.162  0.2403 -0.7922 -1.4291
 6162TIP3    H218493   5.261   3.049   0.117  1.5994 -1.2251  1.0392
 6163TIP3   OH218494   1.190   1.361   1.520 -0.1602  0.0551  0.1856
 6163TIP3    H118495   1.096   1.344   1.517  0.2594 -3.1508  1.3513
 6163TIP3    H218496   1.206   1.388   1.610  0.1621 -0.7524  0.3841
 6164TIP3   OH218497   3.507   4.100   1.329  0.3447  0.0586  0.3816
 6164TIP3    H118498   3.452   4.120   1.405  0.7706 -0.2544  0.7748
 6164TIP3    H218499   3.457   4.133   1.254  0.1145  0.7661  0.8311
 6165TIP3   OH218500   0.108   1.718   5.074 -0.1181  0.1862  0.3170
 6165TIP3    H118501   0.191   1.671   5.071  0.3572  0.9326  1.2220
 6165TIP3    H218502   0.131   1.810   5.060 -0.8509  0.3500  0.1045
 6166TIP3   OH218503   3.165   2.999   1.058  0.2538 -0.5053 -0.3709
 6166TIP3    H118504   3.227   2.977   0.988  0.4854  0.3544 -0.4450
 6166TIP3    H218505   3.123   2.916   1.079  1.3222 -1.0836 -0.4194
 6167TIP3   OH218506   2.463   1.771   3.066 -0.3021  0.2075  0.0176
 6167TIP3    H118507   2.414   1.833   3.120 -0.3454  0.1825  0.0066
 6167TIP3    H218508   2.400   1.740   3.001 -0.4208 -0.2295  0.3328
 6168TIP3   OH218509   2.781   1.784   2.613  0.3131  0.3008 -0.5085
 6168TIP3    H118510   2.777   1.746   2.525  0.5805 -0.7627 -0.0763
 6168TIP3    H218511   2.715   1.853   2.612 -0.4313 -0.3943 -1.2206
 6169TIP3   OH218512   4.377   3.042   3.867  0.3039  0.8901 -0.5865
 6169TIP3    H118513   4.317   2.993   3.923 -0.2342 -2.0275 -3.3906
 6169TIP3    H218514   4.455   3.054   3.920  0.1383 -2.3873  0.6228
 6170TIP3   OH218515   2.423   5.824   0.426  0.3454  0.0203 -0.0848
 6170TIP3    H118516   2.347   5.811   0.369 -0.2184  0.3233  0.5809
 6170TIP3    H218517   2.453   5.913   0.406  0.5369 -0.0985 -0.3457
 6171TIP3   OH218518   1.308   5.182   3.620  0.3454 -0.5599  0.5194
 6171TIP3    H118519   1.327   5.104   3.672 -0.0753 -0.0624  1.4286
 6171TIP3    H218520   1.276   5.246   3.683 -1.9674 -0.5382 -0.5904
 6172TIP3   OH218521   2.744   5.636   1.523  0.2576 -0.0733  0.4057
 6172TIP3    H118522   2.703   5.549   1.529  2.8226 -1.2805  1.9275
 6172TIP3    H218523   2.730   5.674   1.610  0.7618  0.2587  0.3398
 6173TIP3   OH218524   3.939   0.069   0.092 -0.4424  0.1078 -0.0557
 6173TIP3    H118525   3.942  -0.013   0.042  2.1594  0.5936 -0.8420
 6173TIP3    H218526   3.970   0.045   0.179 -4.0623 -0.5438  1.2268
 6174TIP3   OH218527   1.942   3.648   0.194 -0.5471  0.0701 -0.8468
 6174TIP3    H118528   1.889   3.720   0.226  0.5248  0.9080 -0.9147
 6174TIP3    H218529   1.878   3.583   0.164 -1.5777 -0.3001  1.8911
 6175TIP3   OH218530   5.722   2.956   0.571  0.5486  0.0535  0.0613
 6175TIP3    H118531   5.769   2.916   0.644  0.2273 -1.7174 -0.6318
 6175TIP3    H218532   5.752   2.907   0.494 -0.0727  1.0126 -0.8203
 6176TIP3   OH218533   4.448   4.956   0.405  0.3729  0.4141 -0.5942
 6176TIP3    H118534   4.475   5.026   0.346  0.7617 -0.9744 -2.1508
 6176TIP3    H218535   4.531   4.915   0.432  0.1173  0.0450 -0.3647
 6177TIP3   OH218536   6.109   2.671   0.806 -0.2558  0.6119 -0.5923
 6177TIP3    H118537   6.073   2.586   0.782 -0.2778  0.9410 -1.7499
 6177TIP3    H218538   6.201   2.654   0.826 -0.1036  0.4262 -1.4481
 6178TIP3   OH218539   3.180   0.691   4.102  0.2668 -0.4940  0.2773
 6178TIP3    H118540   3.270   0.670   4.125 -0.4560 -2.3327  1.7261
 6178TIP3    H218541   3.144   0.734   4.180 -0.4414 -0.9101  0.1944
 6179TIP3   OH218542   1.921   0.595   2.258  0.1577 -0.2035 -0.1118
 6179TIP3    H118543   1.848   0.640   2.216 -0.1376  0.2198  0.8346
 6179TIP3    H218544   1.922   0.508   2.219 -2.4199 -1.0884  1.6055
 6180TIP3   OH218545   5.688   1.124   4.461  0.3755 -0.2019  0.2523
 6180TIP3    H118546   5.755   1.074   4.414  0.4717  1.9016 -2.0605
 6180TIP3    H218547   5.606   1.083   4.435  0.4575  0.6645 -1.5198
 6181TIP3   OH218548   0.948   4.142   1.393 -0.3058  0.0269 -0.1109
 6181TIP3    H118549   0.880   4.126   1.327 -2.3556  2.8442  1.1381
 6181TIP3    H218550   0.991   4.222   1.365  0.3779 -0.0099  0.7820
 6182TIP3   OH218551   5.906   5.552   2.581  0.1408 -0.0971 -0.0514
 6182TIP3    H118552   5.877   5.639   2.610 -0.7606 -0.6649  0.8381
 6182TIP3    H218553   5.900   5.498   2.660 -0.2180 -1.1751 -0.7974
 6183TIP3   OH218554   4.178   5.038   3.569 -0.9257  0.3926 -0.4455
 6183TIP3    H118555   4.100   5.020   3.517 -1.2597  0.2325  0.1017
 6183TIP3    H218556   4.152   5.017   3.659  0.0608 -0.6375 -0.3931
 6184TIP3   OH218557   0.556   0.983   4.171 -0.1731 -0.2875 -0.3741
 6184TIP3    H118558   0.543   1.078   4.179  2.6573  0.3262 -1.7742
 6184TIP3    H218559   0.472   0.950   4.139 -1.6384  1.4990  1.3701
 6185TIP3   OH218560   3.555   2.036   5.025  0.0763  0.0004  0.0929
 6185TIP3    H118561   3.521   2.023   4.936  0.3123 -0.6085  0.0870
 6185TIP3    H218562   3.491   1.995   5.082 -0.5508  1.2024  0.2866
 6186TIP3   OH218563   4.399   5.995   1.340 -0.3000 -0.0693  0.1837
 6186TIP3    H118564   4.414   5.949   1.257 -1.3199  1.0867 -0.7016
 6186TIP3    H218565   4.486   6.018   1.371  0.1029  2.3352 -2.3125
 6187TIP3   OH218566   1.575   5.607   4.714  0.4288 -0.0971  0.2212
 6187TIP3    H118567   1.485   5.578   4.731  0.1111  0.9974  0.5551
 6187TIP3    H218568   1.603   5.647   4.797  0.5762  1.1255 -0.3908
 6188TIP3   OH218569   2.383   0.325  -0.033 -0.6153 -0.0462  0.2588
 6188TIP3    H118570   2.310   0.292   0.020  0.3664  0.2628  1.8989
 6188TIP3    H218571   2.452   0.343   0.031  0.3308  1.2146 -1.0562
 6189TIP3   OH218572   2.090   4.213   3.096  0.2416 -0.2954  0.4429
 6189TIP3    H118573   2.086   4.132   3.045 -1.4156  0.4439 -0.6666
 6189TIP3    H218574   2.123   4.279   3.035  0.3733  0.1358  0.9711
 6190TIP3   OH218575   3.592   1.382   4.551  0.3657  0.3509 -0.2654
 6190TIP3    H118576   3.639   1.461   4.575 -0.7666  1.0984 -0.4278
 6190TIP3    H218577   3.502   1.411   4.535 -0.0060 -0.9152 -0.6268
 6191TIP3   OH218578   3.841   4.733   2.781  0.0099 -0.2682 -0.7104
 6191TIP3    H118579   3.803   4.800   2.836  1.3358  0.4299 -0.5922
 6191TIP3    H218580   3.766   4.687   2.743 -0.9653  1.9153 -1.6083
 6192TIP3   OH218581   4.158   5.092   2.511 -0.3703  0.3797  0.2690
 6192TIP3    H118582   4.130   5.075   2.601 -3.6679 -0.8398 -0.8373
 6192TIP3    H218583   4.173   5.005   2.474  1.5343  0.8881 -0.2572
 6193TIP3   OH218584   3.957   0.967   0.615  0.5421  0.1311  0.4760
 6193TIP3    H118585   4.009   0.931   0.543  0.3044 -0.7094  0.7182
 6193TIP3    H218586   3.867   0.971   0.580  0.0630 -2.0497  1.3094
 6194TIP3   OH218587   1.768   2.517   0.801 -0.1671 -0.0888  0.1756
 6194TIP3    H118588   1.836   2.565   0.848 -0.4337  0.5778 -0.1107
 6194TIP3    H218589   1.789   2.425   0.816 -0.3866  0.0866  1.8217
 6195TIP3   OH218590   1.612   4.775   2.123 -0.2998 -0.1845  0.2956
 6195TIP3    H118591   1.682   4.841   2.116 -0.8730  0.2760 -1.9510
 6195TIP3    H218592   1.535   4.825   2.150  0.0575 -0.6070  2.2498
 6196TIP3   OH218593   3.059   5.342   5.084 -0.5933  0.4585  0.3278
 6196TIP3    H118594   3.138   5.388   5.055  0.1613 -1.3535 -0.6593
 6196TIP3    H218595   3.057   5.355   5.179  1.4601 -0.2798  0.5106
 6197TIP3   OH218596   3.400   2.510   4.584 -0.0447 -0.5413 -0.7037
 6197TIP3    H118597   3.419   2.531   4.676  0.6408  0.9237 -1.1489
 6197TIP3    H218598   3.423   2.417   4.576  3.0203  0.0394 -0.1085
 6198TIP3   OH218599   5.417   0.083   0.721  0.2118  0.5242 -0.3153
 6198TIP3    H118600   5.341   0.025   0.731  0.1537  0.8750  1.6887
 6198TIP3    H218601   5.492   0.024   0.714 -0.1110  0.1877 -1.0063
 6199TIP3   OH218602   4.760   4.250   1.217  0.1541  0.0147 -0.0012
 6199TIP3    H118603   4.747   4.282   1.128 -0.5597  0.0304  0.1088
 6199TIP3    H218604   4.843   4.202   1.213  0.2759  0.2696 -0.5995
 6200TIP3   OH218605   0.622   4.010   4.509 -0.4744 -0.0183 -0.3537
 6200TIP3    H118606   0.717   4.006   4.511 -0.4935 -3.7089  2.0683
 6200TIP3    H218607   0.598   4.058   4.589 -0.6008 -1.2127  0.3468
 6201TIP3   OH218608   5.812   4.216   0.207 -0.3521  0.3074  0.2751
 6201TIP3    H118609   5.897   4.213   0.253 -0.3426  0.6113  0.2810
 6201TIP3    H218610   5.782   4.126   0.207 -0.0507  0.2044  0.3210
 6202TIP3   OH218611   1.201   3.959   4.776  0.2687 -0.7792 -0.3793
 6202TIP3    H118612   1.248   4.014   4.839  2.3147 -1.4713 -1.1967
 6202TIP3    H218613   1.128   4.013   4.746  0.9287  0.6344  0.4746
 6203TIP3   OH218614   0.527   5.320   1.821  0.4632 -0.2628 -0.2217
 6203TIP3    H118615   0.516   5.228   1.846 -0.1897 -0.4496 -1.1248
 6203TIP3    H218616   0.437   5.352   1.809  0.6718  0.5985  0.4382
 6204TIP3   OH218617   2.268   5.510   0.794  0.5935  0.4650  0.0709
 6204TIP3    H118618   2.205   5.520   0.866  0.2849  0.1469 -0.1504
 6204TIP3    H218619   2.246   5.579   0.732 -0.4081 -0.4599 -0.6348
 6205TIP3   OH218620   3.272   2.673   3.648 -0.0367  0.0288  0.7976
 6205TIP3    H118621   3.250   2.583   3.622  1.3235  0.1890 -1.1202
 6205TIP3    H218622   3.328   2.662   3.725 -0.5338 -0.7241  1.0602
 6206TIP3   OH218623   1.567   4.539   1.652  0.0890 -0.4062 -0.3256
 6206TIP3    H118624   1.577   4.457   1.700 -1.7524 -0.3867  0.1417
 6206TIP3    H218625   1.477   4.567   1.670  0.9717  2.2851  0.4248
 6207TIP3   OH218626   0.291   5.408   1.657 -0.3618  0.1746 -0.0171
 6207TIP3    H118627   0.202   5.386   1.685 -0.2872 -0.3070 -0.1449
 6207TIP3    H218628   0.309   5.348   1.584 -0.1989  0.7601 -0.4690
 6208TIP3   OH218629   3.577   2.280   1.027  0.1525 -0.1065 -1.5906
 6208TIP3    H118630   3.532   2.245   1.104  0.8532  0.8376 -0.7214
 6208TIP3    H218631   3.518   2.348   0.993  0.1196 -0.0971 -1.5135
 6209TIP3   OH218632   1.937   2.776   2.942 -0.7313 -0.2765 -0.2596
 6209TIP3    H118633   1.862   2.740   2.988 -0.8581  0.9666  0.5298
 6209TIP3    H218634   1.994   2.810   3.011 -0.1714  0.1789 -0.9306
 6210TIP3   OH218635   5.930   4.939   4.986  0.1836 -0.1667  0.1005
 6210TIP3    H118636   5.928   4.911   5.077 -1.3477  0.6680  0.3518
 6210TIP3    H218637   5.966   5.028   4.989  2.1527 -0.8838 -0.3753
 6211TIP3   OH218638   4.490   5.563   4.197  0.0934  0.0545  0.0142
 6211TIP3    H118639   4.560   5.622   4.227 -0.1843  0.0146  0.7533
 6211TIP3    H218640   4.536   5.486   4.165  0.4531  0.5785 -0.7742
 6212TIP3   OH218641   2.338   1.266   5.155  0.1832 -0.1542 -0.2295
 6212TIP3    H118642   2.351   1.339   5.095  0.1390  0.9229  1.0326
 6212TIP3    H218643   2.424   1.249   5.193  0.0716 -0.3508 -0.0579
 6213TIP3   OH218644   2.643   0.660   0.173  0.7578 -0.0088 -0.0493
 6213TIP3    H118645   2.640   0.730   0.108 -0.0176  1.3160  1.3576
 6213TIP3    H218646   2.731   0.623   0.163  0.4598 -0.3025 -2.2482
 6214TIP3   OH218647   1.889   2.367   4.491 -0.3427 -0.4637 -0.4968
 6214TIP3    H118648   1.969   2.388   4.443  0.1992 -0.4445  0.3893
 6214TIP3    H218649   1.901   2.277   4.521 -0.1849 -0.1234  0.5146
 6215TIP3   OH218650   5.663   1.753   4.015  0.1674  0.1130  0.1936
 6215TIP3    H118651   5.658   1.847   4.032  0.8337  0.9798 -3.4819
 6215TIP3    H218652   5.590   1.736   3.955  1.0593 -1.2864 -0.5567
 6216TIP3   OH218653   3.128   0.810   1.008 -0.3833 -0.0440 -0.8265
 6216TIP3    H118654   3.189   0.877   0.978 -1.4268  0.3240 -2.2072
 6216TIP3    H218655   3.151   0.733   0.956  0.6879 -0.7567  0.6219
 6217TIP3   OH218656   1.393   2.911   1.066 -0.3669  0.0221  0.2565
 6217TIP3    H118657   1.375   3.002   1.088  0.5336  0.3979 -0.5397
 6217TIP3    H218658   1.314   2.864   1.095 -1.1413  1.1415  0.0101
 6218TIP3   OH218659   1.680   0.051   0.063  0.0322  0.0420  0.6140
 6218TIP3    H118660   1.687  -0.044   0.064 -1.1825 -0.0706  0.6218
 6218TIP3    H218661   1.726   0.078  -0.017  0.8122 -0.5026  0.8785
 6219TIP3   OH218662   3.355   2.135   0.112  0.0315  0.2686  0.2978
 6219TIP3    H118663   3.327   2.226   0.124 -1.0801  0.0858 -0.7025
 6219TIP3    H218664   3.328   2.090   0.192  0.4431  0.7836  0.7291
 6220TIP3   OH218665   2.850   1.832   0.816 -0.0977 -0.3931  0.4297
 6220TIP3    H118666   2.769   1.789   0.845  0.1344 -0.1675  1.4641
 6220TIP3    H218667   2.824   1.923   0.801 -0.1897 -0.4816  0.0394
 6221TIP3   OH218668   4.906   1.072   3.681 -0.0045  0.0028  0.0711
 6221TIP3    H118669   4.871   1.083   3.769  1.5337  3.6522  0.4024
 6221TIP3    H218670   4.975   1.006   3.691 -0.9921 -0.9080  1.1633
 6222TIP3   OH218671   4.813   1.916   4.483  0.7649 -0.2196  0.1924
 6222TIP3    H118672   4.781   1.980   4.419 -0.5527 -0.9715  0.0494
 6222TIP3    H218673   4.740   1.855   4.493  1.9068 -1.5866  0.4718
 6223TIP3   OH218674   3.390   4.994   0.253 -0.4381  0.2076 -0.1890
 6223TIP3    H118675   3.483   4.973   0.264 -0.2691 -0.3576 -2.2076
 6223TIP3    H218676   3.371   4.970   0.162 -2.5672  0.3429  0.1726
 6224TIP3   OH218677   1.930   4.968   4.754 -0.7730 -0.2515 -0.8091
 6224TIP3    H118678   1.866   4.931   4.694 -1.7574 -0.5055  0.3461
 6224TIP3    H218679   1.917   5.063   4.749 -3.2773 -0.3515  1.4445
 6225TIP3   OH218680   5.109   3.437   2.912 -0.0863  0.5658 -0.3475
 6225TIP3    H118681   5.018   3.456   2.937  0.2603 -0.5270  1.9623
 6225TIP3    H218682   5.102   3.366   2.847 -0.8725  0.2111  0.1147
 6226TIP3   OH218683   1.323   3.712   4.836  0.1174  0.0274  0.3290
 6226TIP3    H118684   1.283   3.795   4.811  0.9211 -0.0394 -1.3125
 6226TIP3    H218685   1.389   3.696   4.769 -0.6521 -2.3891  0.0471
 6227TIP3   OH218686   5.616   1.827   4.947  0.0025 -0.1026  0.1171
 6227TIP3    H118687   5.543   1.802   4.891  1.0621  0.6534 -1.7067
 6227TIP3    H218688   5.657   1.744   4.972  0.2973 -0.4491 -1.3946
 6228TIP3   OH218689   4.025   4.813   3.090 -0.0051  0.3097 -0.1198
 6228TIP3    H118690   3.932   4.826   3.109  0.2779 -0.9794  2.6539
 6228TIP3    H218691   4.063   4.900   3.101 -0.3323  0.1741  3.1774
 6229TIP3   OH218692   4.904   0.002   1.541  0.2795  0.3606  0.1070
 6229TIP3    H118693   4.811   0.005   1.518  0.2319 -1.1565 -0.0162
 6229TIP3    H218694   4.945   0.064   1.481 -0.1714 -1.7230 -2.5789
 6230TIP3   OH218695   3.494   5.388   4.445  0.2456 -0.2711 -0.0039
 6230TIP3    H118696   3.420   5.417   4.499  0.1536 -0.2781 -0.1257
 6230TIP3    H218697   3.477   5.428   4.359  0.9835  0.7017  0.2780
 6231TIP3   OH218698   6.309   3.500   0.125  0.0574  0.5676  0.3428
 6231TIP3    H118699   6.290   3.467   0.212  0.2750  0.5811  0.3962
 6231TIP3    H218700   6.286   3.593   0.129  2.1177  1.1012  1.0490
 6232TIP3   OH218701   2.537   1.200   4.020 -0.3677 -0.0070 -0.4752
 6232TIP3    H118702   2.548   1.252   4.100 -1.8741 -2.1407  1.2461
 6232TIP3    H218703   2.612   1.225   3.965  1.5338  0.5674  2.1502
 6233TIP3   OH218704   3.837   5.361   0.613  0.2323  0.1235  0.0538
 6233TIP3    H118705   3.862   5.417   0.687 -1.5284  0.4249  0.4625
 6233TIP3    H218706   3.790   5.288   0.654  0.9379 -0.7210 -0.6258
 6234TIP3   OH218707   0.703   2.148   4.557  0.1204  0.1628  0.2310
 6234TIP3    H118708   0.716   2.068   4.507  2.0700 -0.0626  1.0351
 6234TIP3    H218709   0.659   2.120   4.637  1.9455 -0.3566  1.1010
 6235TIP3   OH218710   5.995   0.720   2.121 -0.2420  0.3055 -0.5017
 6235TIP3    H118711   5.917   0.679   2.159  0.6476 -0.4147  0.6098
 6235TIP3    H218712   5.963   0.762   2.041 -1.4392 -1.5717 -1.1019
 6236TIP3   OH218713   4.416   0.887   1.356  0.1408  0.0365  0.0356
 6236TIP3    H118714   4.474   0.820   1.392  0.3911 -0.6143 -1.4708
 6236TIP3    H218715   4.355   0.838   1.301  0.0941  0.9978 -0.8066
 6237TIP3   OH218716   2.358   1.107   1.767 -0.5271  0.5149  0.3866
 6237TIP3    H118717   2.274   1.062   1.755 -0.8751  1.7197 -2.2425
 6237TIP3    H218718   2.422   1.047   1.730 -0.1396 -0.3657  2.3173
 6238TIP3   OH218719   2.829   4.888   2.392  0.2246  0.2635 -0.5409
 6238TIP3    H118720   2.909   4.850   2.354 -0.2593 -1.1786 -0.1932
 6238TIP3    H218721   2.766   4.888   2.321 -0.5725 -2.1062  0.0721
 6239TIP3   OH218722   2.081   0.405   1.953 -0.0355  0.6665 -0.4085
 6239TIP3    H118723   2.067   0.499   1.955 -2.4736  0.3500  0.0205
 6239TIP3    H218724   2.067   0.376   2.044 -2.0755 -0.3855 -0.9821
 6240TIP3   OH218725   4.254   0.625   0.444 -0.5302  0.0005  0.1546
 6240TIP3    H118726   4.242   0.688   0.515  0.1662 -1.1183  1.3222
 6240TIP3    H218727   4.340   0.647   0.406 -0.6619  0.2680  0.0118
 6241TIP3   OH218728   5.003   5.366   1.955 -0.6716  0.4509 -0.0834
 6241TIP3    H118729   4.931   5.304   1.942 -0.3747  0.2320 -0.7213
 6241TIP3    H218730   5.080   5.322   1.917 -0.1939  0.6693  0.6067
 6242TIP3   OH218731   1.823   2.551   4.240  0.5023  0.0541  0.7571
 6242TIP3    H118732   1.779   2.526   4.321  0.1942 -1.5558  0.1280
 6242TIP3    H218733   1.890   2.613   4.267  1.0755 -1.2120  2.3869
 6243TIP3   OH218734   0.186   3.309   3.275 -0.5064  0.9812  0.1122
 6243TIP3    H118735   0.092   3.293   3.271 -0.4128  0.5243 -0.5644
 6243TIP3    H218736   0.199   3.362   3.354 -0.9366 -1.8189  2.2161
 6244TIP3   OH218737   1.460   3.571   2.181  0.5151  0.2478 -0.0963
 6244TIP3    H118738   1.502   3.603   2.102 -0.1335  0.9471 -0.1685
 6244TIP3    H218739   1.506   3.490   2.202  1.4022  0.6143 -0.5787
 6245TIP3   OH218740   4.584   4.337   4.597 -0.1455  0.4147  0.3318
 6245TIP3    H118741   4.584   4.277   4.522 -2.5283 -0.1681  0.7094
 6245TIP3    H218742   4.628   4.416   4.565  1.9578 -1.0235 -0.5660
 6246TIP3   OH218743   1.327   5.117   3.359  0.2110 -0.2042 -0.2926
 6246TIP3    H118744   1.318   5.141   3.451  0.9575 -0.8102 -0.0440
 6246TIP3    H218745   1.238   5.118   3.324  0.1233  2.3286 -0.1771
 6247TIP3   OH218746   3.314   2.835   4.027 -0.3288  0.4599 -0.0048
 6247TIP3    H118747   3.248   2.857   3.961 -0.2313  0.5958 -0.0564
 6247TIP3    H218748   3.301   2.899   4.097 -1.0306 -0.2296  0.5256
 6248TIP3   OH218749   4.257   5.597   0.358  0.0691 -0.0214 -0.1131
 6248TIP3    H118750   4.258   5.503   0.373 -0.9151  0.2403  1.9315
 6248TIP3    H218751   4.350   5.621   0.352  0.4477 -0.8044  1.8567
 6249TIP3   OH218752   2.074   4.096   1.556  0.5222  0.2260  0.1531
 6249TIP3    H118753   2.067   4.170   1.495  0.6896  0.6900  0.6937
 6249TIP3    H218754   2.000   4.040   1.533  0.9204  0.1057 -0.8640
 6250TIP3   OH218755   5.948   5.215   4.886  0.1973 -0.1461 -0.4100
 6250TIP3    H118756   5.997   5.222   4.804  0.2265  1.5220 -0.2953
 6250TIP3    H218757   5.874   5.275   4.874 -1.0066 -1.5094 -0.0125
 6251TIP3   OH218758   0.062   5.508   3.248 -0.3576 -0.2632  0.4258
 6251TIP3    H118759   0.003   5.438   3.218 -0.8542 -0.1428  1.0797
 6251TIP3    H218760   0.007   5.561   3.306 -0.0054  0.7265 -0.1345
 6252TIP3   OH218761   0.350   1.899   2.217 -0.0088  0.5134 -0.0425
 6252TIP3    H118762   0.427   1.842   2.207 -1.7748 -2.0366  0.0487
 6252TIP3    H218763   0.292   1.850   2.276 -3.0004  0.8831 -2.4500
 6253TIP3   OH218764   1.135   2.549   0.850 -0.0183 -0.3002 -0.2133
 6253TIP3    H118765   1.054   2.502   0.826 -0.4091 -0.0551  0.5743
 6253TIP3    H218766   1.205   2.497   0.810 -0.4230 -1.7122  0.8274
 6254TIP3   OH218767   0.275   0.486   5.066 -0.0143 -0.5187 -0.3263
 6254TIP3    H118768   0.225   0.406   5.049 -1.1482  0.1649 -0.2976
 6254TIP3    H218769   0.209   0.554   5.077  0.8971  0.2374  0.6939
 6255TIP3   OH218770   5.148   2.229   0.381 -0.3109  0.3093  0.3429
 6255TIP3    H118771   5.152   2.148   0.331  1.4818  0.4128  0.2639
 6255TIP3    H218772   5.174   2.203   0.470  0.4506  0.8234  0.2733
 6256TIP3   OH218773   1.047   5.385   2.985 -0.0290 -0.0947 -0.5019
 6256TIP3    H118774   0.992   5.306   2.988  0.1725 -0.2127  0.9155
 6256TIP3    H218775   1.034   5.426   3.070  0.1978  1.1930 -1.0777
 6257TIP3   OH218776   2.887   0.804   3.787  0.3547 -0.0075 -0.1232
 6257TIP3    H118777   2.961   0.862   3.772  1.0619 -0.6411  0.8205
 6257TIP3    H218778   2.858   0.778   3.700 -0.8811  2.8122 -0.6923
 6258TIP3   OH218779   2.002   0.108   3.780 -0.0975 -0.2938 -0.0360
 6258TIP3    H118780   1.975   0.121   3.871  0.7885 -0.3477  0.2360
 6258TIP3    H218781   1.923   0.073   3.737 -0.1602 -1.5190  1.0074
 6259TIP3   OH218782   4.645   5.080   4.870 -0.1082 -0.0428 -0.0660
 6259TIP3    H118783   4.561   5.052   4.833  0.4622 -0.0548 -1.3801
 6259TIP3    H218784   4.625   5.165   4.910 -0.7035  0.0630 -0.5635
 6260TIP3   OH218785   4.397   3.583   4.289 -0.1553  0.2679  0.4258
 6260TIP3    H118786   4.342   3.514   4.251  1.2889 -2.4840  2.9725
 6260TIP3    H218787   4.467   3.595   4.225 -1.2981  0.6214 -0.8050
 6261TIP3   OH218788   3.756   1.543   2.196  0.6639  0.2604 -0.3518
 6261TIP3    H118789   3.828   1.497   2.237  0.6449 -0.3769 -1.0156
 6261TIP3    H218790   3.688   1.547   2.264  1.4409  1.1998  0.3987
 6262TIP3   OH218791   2.526   0.989   4.917  0.0943 -0.1041 -0.1236
 6262TIP3    H118792   2.466   0.954   4.983 -0.7840  0.8790 -0.3724
 6262TIP3    H218793   2.519   0.927   4.844 -0.2922 -0.2324  0.0179
 6263TIP3   OH218794   2.372   2.729   1.924 -0.0111 -0.3615 -0.3086
 6263TIP3    H118795   2.390   2.642   1.889 -0.5775 -0.5284 -0.1811
 6263TIP3    H218796   2.414   2.729   2.010  2.1202  0.3309 -1.2711
 6264TIP3   OH218797   1.543   4.276   4.998  0.2879 -0.2965 -0.0461
 6264TIP3    H118798   1.465   4.330   4.987  0.7326  0.5612  0.8808
 6264TIP3    H218799   1.511   4.186   4.992 -0.9817  0.0176  1.4824
 6265TIP3   OH218800   1.721   2.791   4.596 -0.4859 -0.2881 -0.1334
 6265TIP3    H118801   1.685   2.874   4.627 -0.7142  0.1441 -1.5041
 6265TIP3    H218802   1.657   2.725   4.623 -1.3480  0.2403 -0.8525
 6266TIP3   OH218803   1.163   2.783   1.182  0.4186 -0.1580  0.9286
 6266TIP3    H118804   1.116   2.700   1.182  1.2450 -0.6910 -0.8634
 6266TIP3    H218805   1.097   2.849   1.162  0.0113 -0.5933  0.8313
 6267TIP3   OH218806   4.485   4.861   2.368 -0.4380 -0.1757  0.4734
 6267TIP3    H118807   4.467   4.935   2.426 -0.9531  0.8656 -0.9703
 6267TIP3    H218808   4.438   4.881   2.288  0.9350 -1.1665 -0.6345
 6268TIP3   OH218809   3.615   2.109   0.003 -0.3133  0.2761  0.4379
 6268TIP3    H118810   3.544   2.112   0.067 -1.6369 -1.8162 -0.7873
 6268TIP3    H218811   3.679   2.049   0.041  0.4107  1.4449  1.1280
 6269TIP3   OH218812   3.241   3.797   5.016  0.2235 -0.1527  0.3724
 6269TIP3    H118813   3.166   3.843   5.053  0.1798  1.7356 -1.8484
 6269TIP3    H218814   3.315   3.855   5.033  0.5367 -0.2312 -0.7027
 6270TIP3   OH218815   5.391   2.590   0.453  0.1856  0.1769  0.0739
 6270TIP3    H118816   5.404   2.624   0.364  0.5541  0.1373  0.1130
 6270TIP3    H218817   5.308   2.542   0.448  0.5216 -0.3659 -0.4105
 6271TIP3   OH218818   4.769   0.838   1.765  0.0361  0.0598 -0.7856
 6271TIP3    H118819   4.773   0.771   1.832 -0.8252  0.9248  0.1673
 6271TIP3    H218820   4.807   0.797   1.687  1.4222 -0.8217  0.3286
 6272TIP3   OH218821   0.675   0.815   2.947 -0.3920  0.4973 -0.0505
 6272TIP3    H118822   0.623   0.741   2.917  1.7581 -0.4231 -1.7393
 6272TIP3    H218823   0.662   0.882   2.880 -1.3195  1.2246  0.8181
 6273TIP3   OH218824   0.095   3.357   4.737  0.8097  0.8967 -0.1311
 6273TIP3    H118825   0.149   3.435   4.750 -0.5175  1.6958  0.8645
 6273TIP3    H218826   0.005   3.389   4.742  0.2116 -0.8685  1.5777
 6274TIP3   OH218827   5.958   4.667   0.070  0.4320 -0.0595 -0.1675
 6274TIP3    H118828   5.988   4.626   0.152  1.0907  0.1993 -0.2734
 6274TIP3    H218829   5.867   4.691   0.087 -0.1262 -1.9328 -0.2365
 6275TIP3   OH218830   0.334   1.977   2.940 -0.6387 -0.1673  0.2912
 6275TIP3    H118831   0.423   1.966   2.975 -0.3229  0.0090 -0.4402
 6275TIP3    H218832   0.297   1.889   2.942 -0.3799 -0.2759  0.4293
 6276TIP3   OH218833   2.790   4.571   4.779  0.1407 -0.4497  0.0730
 6276TIP3    H118834   2.863   4.525   4.820 -0.5868 -2.3568 -0.6930
 6276TIP3    H218835   2.831   4.646   4.735  1.1984  0.4041  2.3366
 6277TIP3   OH218836   4.896   0.164   0.202  0.4900  0.1876 -0.1271
 6277TIP3    H118837   4.990   0.179   0.205  0.5713 -0.3615  2.7375
 6277TIP3    H218838   4.879   0.105   0.275 -1.8043 -1.5696 -1.9196
 6278TIP3   OH218839   6.146   5.885   3.010 -0.2788  0.2157 -0.2883
 6278TIP3    H118840   6.218   5.936   2.975 -0.9249  3.3996  2.4742
 6278TIP3    H218841   6.084   5.878   2.938  1.2787  0.3999 -1.7073
 6279TIP3   OH218842   5.031   0.876   1.016 -0.4287  0.1287  0.6165
 6279TIP3    H118843   5.012   0.942   1.083 -1.4247 -1.7821  2.3222
 6279TIP3    H218844   5.019   0.923   0.933  0.1691  2.3959  1.7204
 6280TIP3   OH218845   5.712   1.481   3.288 -0.6284 -0.7028  0.2381
 6280TIP3    H118846   5.736   1.555   3.343 -0.1057 -0.0488 -0.8426
 6280TIP3    H218847   5.733   1.404   3.341  0.8882 -0.1140  0.5509
 6281TIP3   OH218848   5.535   0.635   0.542  0.4873  0.3170  0.5665
 6281TIP3    H118849   5.472   0.641   0.470  1.8286  0.2972 -0.6611
 6281TIP3    H218850   5.533   0.721   0.583  1.0537  0.9765 -0.7154
 6282TIP3   OH218851   4.597   1.791   5.124 -0.4240  0.7470  0.0377
 6282TIP3    H118852   4.643   1.722   5.077 -4.2674 -1.6270 -0.6998
 6282TIP3    H218853   4.596   1.762   5.215 -1.1922  0.3102 -0.1038
 6283TIP3   OH218854   5.520   3.416   0.663 -0.2449 -0.1682 -0.6755
 6283TIP3    H118855   5.602   3.464   0.669  0.0518 -0.6907 -0.4672
 6283TIP3    H218856   5.452   3.482   0.674  0.0501  0.7675 -3.7320
 6284TIP3   OH218857   1.067   0.727   4.125 -0.5227  0.1099  0.0649
 6284TIP3    H118858   1.064   0.822   4.136  1.5617  0.2724 -0.3291
 6284TIP3    H218859   1.073   0.692   4.214 -2.1833  0.2665  0.2615
 6285TIP3   OH218860   5.349   5.015   0.621 -0.5301  0.0148 -0.1400
 6285TIP3    H118861   5.353   5.080   0.551  1.8617 -1.4719 -1.5444
 6285TIP3    H218862   5.269   4.966   0.604 -1.6647  1.6859  0.1598
 6286TIP3   OH218863   2.606   2.923   0.256 -0.0594  0.3563  0.3776
 6286TIP3    H118864   2.659   2.944   0.180 -1.3392  0.6122 -0.4868
 6286TIP3    H218865   2.518   2.910   0.221 -0.3223 -1.5086  1.5477
 6287TIP3   OH218866   2.630   4.747   2.051  0.2766  0.5573 -0.4596
 6287TIP3    H118867   2.705   4.793   2.012  0.4366  0.1393 -0.6550
 6287TIP3    H218868   2.593   4.809   2.114  1.7133  0.2224  0.7688
 6288TIP3   OH218869   3.690   3.464   2.718 -0.0384  0.0360  0.4475
 6288TIP3    H118870   3.774   3.491   2.680  0.4664 -0.9314  0.8259
 6288TIP3    H218871   3.704   3.372   2.742 -2.0368 -0.9785 -1.8597
 6289TIP3   OH218872   2.511   3.440   2.265  0.1883  0.0954  0.1444
 6289TIP3    H118873   2.465   3.482   2.193  0.4926 -0.3234 -0.2937
 6289TIP3    H218874   2.509   3.347   2.244  0.1663 -0.0425  0.7389
 6290TIP3   OH218875   3.447   3.052   0.430  0.3945  0.0935  0.3820
 6290TIP3    H118876   3.367   3.088   0.393  0.1697 -0.3687  0.4135
 6290TIP3    H218877   3.459   3.099   0.513 -0.2749 -0.3826  0.7610
 6291TIP3   OH218878   1.051   2.749   3.476 -0.2991  0.6080  0.2741
 6291TIP3    H118879   1.107   2.735   3.552 -0.3698 -3.1496 -0.1596
 6291TIP3    H218880   0.974   2.793   3.510  0.4183  0.5874  2.0069
 6292TIP3   OH218881   5.841   0.346   2.305  0.0659 -0.5492 -0.3119
 6292TIP3    H118882   5.788   0.381   2.233  0.9716 -0.1802 -0.8192
 6292TIP3    H218883   5.908   0.294   2.261  1.4616  0.7836  0.1738
 6293TIP3   OH218884   3.283   5.798   3.927  0.1765 -0.5925 -0.5178
 6293TIP3    H118885   3.369   5.813   3.888  0.2701  2.2900  0.5625
 6293TIP3    H218886   3.227   5.774   3.853  1.2604  0.6337 -1.7929
 6294TIP3   OH218887   0.060   5.893   3.328 -0.1878  0.0439  0.4935
 6294TIP3    H118888   0.022   5.969   3.284 -1.6325 -0.8508  0.0944
 6294TIP3    H218889   0.110   5.849   3.259 -0.8066 -0.2833  0.2360
 6295TIP3   OH218890   1.234   5.933   0.829  0.1192 -0.0162  0.3821
 6295TIP3    H118891   1.270   5.872   0.764  0.2180  0.5878 -0.1468
 6295TIP3    H218892   1.288   5.919   0.907 -0.4493 -1.2458  0.5750
 6296TIP3   OH218893   1.770   3.416   3.526 -0.2445 -0.0265  0.3496
 6296TIP3    H118894   1.832   3.483   3.555  1.5840 -1.8684  0.9751
 6296TIP3    H218895   1.730   3.452   3.447 -1.5158  2.9633  2.1731
 6297TIP3   OH218896   5.730   2.465   1.717  0.4047 -0.1853 -0.1270
 6297TIP3    H118897   5.659   2.490   1.658  0.1985 -3.4003 -1.4550
 6297TIP3    H218898   5.690   2.467   1.804 -0.5729  0.4334 -0.5683
 6298TIP3   OH218899   3.736   3.223   2.818  0.0385  0.4472  0.1223
 6298TIP3    H118900   3.744   3.164   2.742  1.8960 -0.4774  0.9583
 6298TIP3    H218901   3.701   3.167   2.887 -0.8745  1.0816  0.1873
 6299TIP3   OH218902   4.273   2.652   2.281  0.1603  0.3788 -0.0583
 6299TIP3    H118903   4.232   2.642   2.194 -0.6652  3.2151 -0.0774
 6299TIP3    H218904   4.271   2.746   2.298 -0.2003 -0.1304  3.3006
 6300TIP3   OH218905   5.576   4.109   2.244  0.0016 -0.1595  0.5313
 6300TIP3    H118906   5.591   4.129   2.337 -1.0237  1.7372  0.3315
 6300TIP3    H218907   5.603   4.189   2.198 -0.3263 -0.7622 -0.7399
 6301TIP3   OH218908   2.848   0.911   0.996  0.1194 -0.2525 -0.2997
 6301TIP3    H118909   2.806   0.878   0.917  1.0015  1.5563 -1.5889
 6301TIP3    H218910   2.941   0.895   0.982  0.4098  1.3101 -0.2581
 6302TIP3   OH218911   3.616   2.855   0.359 -0.5048 -0.4028 -0.6199
 6302TIP3    H118912   3.547   2.826   0.300 -0.8554  2.3016 -1.6748
 6302TIP3    H218913   3.576   2.923   0.412  0.4179 -1.2652  1.2703
 6303TIP3   OH218914   4.255   1.387   4.806  0.3395  0.2901  0.5679
 6303TIP3    H118915   4.182   1.333   4.777  1.1730 -0.0008 -1.1174
 6303TIP3    H218916   4.316   1.326   4.847 -1.1938  0.8081  3.9018
 6304TIP3   OH218917   6.314   0.025   0.436  0.1060  0.2738 -0.2584
 6304TIP3    H118918   6.258  -0.046   0.468  0.2964 -0.0081 -0.5546
 6304TIP3    H218919   6.327   0.080   0.513 -0.1955  0.0894 -0.0716
 6305TIP3   OH218920   0.572   1.867   3.661  0.0647  0.3783 -0.4744
 6305TIP3    H118921   0.596   1.865   3.753 -2.5318  0.7212  0.2906
 6305TIP3    H218922   0.644   1.912   3.618  0.1554  2.6389  1.8343
 6306TIP3   OH218923   5.677   1.402   4.128  0.0534 -0.0793 -0.1988
 6306TIP3    H118924   5.698   1.356   4.210 -2.8811 -0.0722  0.6827
 6306TIP3    H218925   5.722   1.486   4.136  2.8951 -1.4289 -0.4061
 6307TIP3   OH218926   5.130   1.091   2.514  0.1229 -0.0127  0.0733
 6307TIP3    H118927   5.183   1.014   2.497  0.2084  0.2905 -1.1030
 6307TIP3    H218928   5.050   1.078   2.462  0.1802  0.7207 -0.2210
 6308TIP3   OH218929   3.973   2.243   3.472  0.3083 -0.3320 -0.2233
 6308TIP3    H118930   4.025   2.258   3.393 -0.9466  0.9175 -0.8550
 6308TIP3    H218931   3.895   2.197   3.440 -0.4677  0.6730  0.1719
 6309TIP3   OH218932   4.108   2.114   3.144  0.4329 -0.0856 -0.3933
 6309TIP3    H118933   4.081   2.175   3.075  1.1271  1.6281  0.7823
 6309TIP3    H218934   4.151   2.169   3.209  0.7303 -1.8009  0.9329
 6310TIP3   OH218935   5.238   0.053   1.354 -0.3827 -0.1177 -0.7178
 6310TIP3    H118936   5.264   0.140   1.327  3.4638 -0.3352  1.4750
 6310TIP3    H218937   5.273  -0.005   1.287 -0.9420 -0.1064 -1.0239
 6311TIP3   OH218938   4.990   2.179   0.903 -0.0061 -0.3062  0.9685
 6311TIP3    H118939   4.918   2.166   0.841  0.2562  0.2106  0.5431
 6311TIP3    H218940   4.947   2.215   0.981 -0.4544 -1.7579  1.4284
 6312TIP3   OH218941   5.542   5.120   4.417 -0.1433  0.1618  0.0001
 6312TIP3    H118942   5.597   5.055   4.373  0.1536  0.3935  0.0247
 6312TIP3    H218943   5.461   5.121   4.367 -0.0005  0.0509 -0.2349
 6313TIP3   OH218944   4.255  -0.021   0.597 -0.1044  0.0356 -0.7463
 6313TIP3    H118945   4.305   0.053   0.564 -0.0372  0.1327 -0.4260
 6313TIP3    H218946   4.165   0.011   0.601 -0.1984 -0.1497 -1.3532
 6314TIP3   OH218947   0.858   3.363   2.355 -0.0120  0.4845 -0.2344
 6314TIP3    H118948   0.949   3.387   2.341  0.3096 -0.2149  0.5973
 6314TIP3    H218949   0.861   3.291   2.418 -1.1386  0.4715 -0.1735
 6315TIP3   OH218950   6.053   4.672   1.308  0.1538 -0.1923  0.2072
 6315TIP3    H118951   6.128   4.731   1.299 -0.9707  1.1891 -0.4641
 6315TIP3    H218952   6.092   4.588   1.331  1.7664  1.0186  2.3816
 6316TIP3   OH218953   0.893   2.314   1.992 -0.4691 -0.2863  0.3286
 6316TIP3    H118954   0.828   2.295   1.925  1.6712 -2.1453 -1.4018
 6316TIP3    H218955   0.897   2.409   1.996 -1.8939 -0.1490 -0.9179
 6317TIP3   OH218956   4.379   2.363   2.984 -0.4408 -0.2408 -0.0388
 6317TIP3    H118957   4.407   2.299   3.051  0.6479 -0.7119 -0.9219
 6317TIP3    H218958   4.288   2.339   2.965 -1.4674  1.1048  2.6296
 6318TIP3   OH218959   1.821   2.358   2.541 -0.0088 -0.5422  0.0295
 6318TIP3    H118960   1.835   2.264   2.533 -0.5180 -0.4727 -3.3582
 6318TIP3    H218961   1.871   2.384   2.618  2.2800 -3.1869 -0.4129
 6319TIP3   OH218962   4.723   0.029   2.542 -0.4349 -0.0866 -0.2138
 6319TIP3    H118963   4.648  -0.025   2.514 -0.5035  0.5021 -1.2110
 6319TIP3    H218964   4.685   0.113   2.564 -0.2502 -0.2568  0.7767
 6320TIP3   OH218965   0.940   4.789   3.241  0.2226  0.4901  0.0682
 6320TIP3    H118966   0.857   4.764   3.199 -1.7196  3.7391  1.5340
 6320TIP3    H218967   0.947   4.729   3.316 -0.1276 -0.6003 -0.7338
 6321TIP3   OH218968   1.003   5.927   4.158 -0.0353 -0.4783 -0.6487
 6321TIP3    H118969   1.003   5.955   4.249  1.1275 -0.5554 -0.6138
 6321TIP3    H218970   1.074   5.863   4.152  2.5222  2.3104 -2.4044
 6322TIP3   OH218971   3.362   1.933   4.440  0.6192 -0.5680  0.5951
 6322TIP3    H118972   3.303   1.914   4.367  0.0950 -0.0393  0.8676
 6322TIP3    H218973   3.438   1.974   4.400  1.0453 -1.7253  0.1823
 6323TIP3   OH218974   1.002   3.378   2.999  0.4124  0.8595 -0.1100
 6323TIP3    H118975   0.931   3.315   3.007  0.2298  1.1718  1.0250
 6323TIP3    H218976   0.964   3.451   2.949 -0.1991  1.1825  0.7943
 6324TIP3   OH218977   2.696   4.097   4.314  0.5693 -0.8632  0.3473
 6324TIP3    H118978   2.716   4.116   4.222 -0.9963 -0.9762 -0.0518
 6324TIP3    H218979   2.683   4.002   4.316  2.0335 -1.0732  1.0082
 6325TIP3   OH218980   1.313   0.349   1.928 -0.0135 -0.4237  0.3897
 6325TIP3    H118981   1.354   0.433   1.950  1.7093 -0.9798 -0.4844
 6325TIP3    H218982   1.387   0.292   1.906 -1.2500 -1.6941 -0.6304
 6326TIP3   OH218983   2.447   3.156   0.090  0.5344  0.2911 -0.2878
 6326TIP3    H118984   2.393   3.095   0.040  1.0300  0.0309 -0.5204
 6326TIP3    H218985   2.511   3.188   0.026  0.8452  0.3531  0.0505
 6327TIP3   OH218986   4.752   4.933   1.783  0.2814  0.3539  0.3078
 6327TIP3    H118987   4.823   4.915   1.845  0.1179  2.7318  1.3348
 6327TIP3    H218988   4.795   4.973   1.708  0.1194  1.5572  0.8219
 6328TIP3   OH218989   3.176   0.247   3.313 -0.4364  0.1361 -0.1246
 6328TIP3    H118990   3.104   0.263   3.252  0.2983  0.1953 -1.0074
 6328TIP3    H218991   3.254   0.280   3.267  0.1493  0.1172  0.8226
 6329TIP3   OH218992   2.616   4.578   3.802 -0.0553 -0.1755  0.4040
 6329TIP3    H118993   2.547   4.584   3.737 -0.7142 -0.2519  1.0773
 6329TIP3    H218994   2.592   4.502   3.856 -1.3204  1.7102  2.7058
 6330TIP3   OH218995   5.445   3.969   0.080  0.1215  0.2313 -0.3360
 6330TIP3    H118996   5.468   4.054   0.044 -1.7788  1.0993  0.3992
 6330TIP3    H218997   5.356   3.953   0.050  0.1101 -1.0937  0.3108
 6331TIP3   OH218998   5.978   3.730   1.425 -0.1279 -0.3819  0.3232
 6331TIP3    H118999   5.951   3.639   1.413 -0.1296 -0.3564  0.1199
 6331TIP3    H219000   6.062   3.725   1.469 -0.5490 -0.4595  1.1329
 6332TIP3   OH219001   0.232   5.433   1.054  0.1318 -0.4609  0.0499
 6332TIP3    H119002   0.229   5.471   0.966  0.7650  2.0686  1.0125
 6332TIP3    H219003   0.141   5.437   1.085  0.1416  0.0777  0.0283
 6333TIP3   OH219004   1.770   4.972   1.184 -0.0311  0.2041  0.0344
 6333TIP3    H119005   1.796   5.057   1.147  1.1235 -0.3268 -0.4368
 6333TIP3    H219006   1.676   4.980   1.198  0.1070  1.6941  0.3467
 6334TIP3   OH219007   1.834   1.861   2.334 -0.4879 -0.5136  0.4545
 6334TIP3    H119008   1.875   1.788   2.381  0.6250  0.4182  0.9495
 6334TIP3    H219009   1.822   1.929   2.400 -0.7701  0.0646 -0.1792
 6335TIP3   OH219010   3.381   1.678   3.253 -0.1436 -0.1940  0.5433
 6335TIP3    H119011   3.465   1.667   3.297  1.8686  0.1328 -2.8647
 6335TIP3    H219012   3.332   1.598   3.274  1.2075 -0.6781  2.1039
 6336TIP3   OH219013   1.032   4.998   1.684 -0.1709 -0.3950  0.1628
 6336TIP3    H119014   1.024   5.068   1.619 -2.7833 -0.8934 -0.1901
 6336TIP3    H219015   1.102   4.942   1.651 -1.1397 -0.4152 -2.0792
 6337TIP3   OH219016   4.963   5.555   2.313 -0.4985 -0.4374 -0.0049
 6337TIP3    H119017   4.931   5.585   2.228  0.9565  1.4817  0.0391
 6337TIP3    H219018   4.997   5.467   2.297  1.5639  0.6165 -1.9402
 6338TIP3   OH219019   6.316   0.467   2.314 -0.0076 -0.1681  0.0728
 6338TIP3    H119020   6.310   0.380   2.352 -0.0987 -0.2439 -0.1139
 6338TIP3    H219021   6.409   0.489   2.320 -0.1616  0.2078  1.1841
 6339TIP3   OH219022   3.252   4.444   4.753 -0.5484  0.0810 -0.4826
 6339TIP3    H119023   3.308   4.511   4.713 -0.1313 -0.7034 -1.2588
 6339TIP3    H219024   3.204   4.406   4.679  0.5491 -1.6839 -0.3408
 6340TIP3   OH219025   0.212   4.434   1.134  0.0479 -0.0947 -0.0591
 6340TIP3    H119026   0.149   4.441   1.206 -1.5650  0.2442 -1.4434
 6340TIP3    H219027   0.258   4.352   1.150  0.3165  0.3830  1.7938
 6341TIP3   OH219028   6.199   4.393   4.845  0.2790 -0.0117 -0.0798
 6341TIP3    H119029   6.147   4.378   4.924 -0.0450  0.4771 -0.1957
 6341TIP3    H219030   6.134   4.395   4.774  0.2851  1.9198 -0.0754
 6342TIP3   OH219031   0.835   2.949   4.159  0.0892 -0.1405  0.1388
 6342TIP3    H119032   0.896   2.892   4.204  0.3022 -0.9713 -1.1652
 6342TIP3    H219033   0.888   3.023   4.130 -0.2011  0.8199  1.8927
 6343TIP3   OH219034   3.264   3.227   1.655  0.0427  0.1834 -0.2512
 6343TIP3    H119035   3.207   3.289   1.699 -0.6395 -1.2967  1.0660
 6343TIP3    H219036   3.328   3.202   1.722  0.2305 -0.6068 -0.7071
 6344TIP3   OH219037   1.130   5.739   5.029  0.7093  0.2972 -0.1589
 6344TIP3    H119038   1.191   5.689   5.084 -2.0664 -3.3731 -0.0438
 6344TIP3    H219039   1.100   5.676   4.964 -2.8839  1.8806 -0.2184
 6345TIP3   OH219040   3.820   1.044   3.300 -0.2761  0.2881  0.2306
 6345TIP3    H119041   3.747   1.097   3.333 -0.8727 -0.2632 -0.1787
 6345TIP3    H219042   3.807   1.039   3.206 -0.0136 -0.2641  0.2149
 6346TIP3   OH219043   5.283   4.534   2.844  0.4523  0.5848  0.5375
 6346TIP3    H119044   5.328   4.466   2.894  1.5005  0.9692  0.1560
 6346TIP3    H219045   5.253   4.490   2.764  0.5314  0.4261  0.5948
 6347TIP3   OH219046   5.548   4.219   1.598 -0.1004  0.2903  0.5538
 6347TIP3    H119047   5.528   4.155   1.666 -0.0252 -1.1507 -0.7226
 6347TIP3    H219048   5.463   4.246   1.564 -0.1082  0.1514  0.4617
 6348TIP3   OH219049   1.811   3.451   3.854  0.5749 -0.6098 -0.4177
 6348TIP3    H119050   1.738   3.506   3.881  1.0192 -0.0438 -0.3491
 6348TIP3    H219051   1.864   3.506   3.797  1.2426 -0.8265 -0.0319
 6349TIP3   OH219052   1.430   4.916   0.328  0.0502 -0.7574  0.2458
 6349TIP3    H119053   1.372   4.975   0.280  0.2521 -0.2145  0.6624
 6349TIP3    H219054   1.451   4.963   0.409  1.1146 -0.9254  0.0832
 6350TIP3   OH219055   5.428   5.095   2.678 -0.4360  0.1497  0.0997
 6350TIP3    H119056   5.371   5.035   2.631  1.1269 -1.0277 -0.3791
 6350TIP3    H219057   5.467   5.042   2.748 -0.6143  1.1666  0.9999
 6351TIP3   OH219058   0.323   1.813   0.626  0.3970  0.3438 -0.1097
 6351TIP3    H119059   0.346   1.824   0.718 -0.8829  3.0065 -0.0051
 6351TIP3    H219060   0.232   1.783   0.628 -0.3259  2.3803 -0.4392
 6352TIP3   OH219061   2.607   1.757   4.223 -0.5603 -0.9012 -0.1690
 6352TIP3    H119062   2.557   1.700   4.281 -0.3744 -0.7868  0.1031
 6352TIP3    H219063   2.552   1.835   4.213 -0.2922 -0.6364  0.3938
 6353TIP3   OH219064   4.922   3.808   2.742  0.3284  0.2987  0.0571
 6353TIP3    H119065   4.946   3.855   2.662  0.2224 -0.3168 -0.3339
 6353TIP3    H219066   4.924   3.716   2.718 -1.3004  0.1670  0.3145
 6354TIP3   OH219067   3.372   3.177   1.341 -0.2101  0.1547 -0.0462
 6354TIP3    H119068   3.459   3.148   1.365 -0.7642 -0.6537  1.0890
 6354TIP3    H219069   3.367   3.268   1.372 -0.3108 -0.3194  1.3771
 6355TIP3   OH219070   6.152   1.013   4.693  0.2118 -0.5901  0.7081
 6355TIP3    H119071   6.223   1.063   4.735  0.6506 -1.2625  0.7745
 6355TIP3    H219072   6.076   1.072   4.698  0.4829 -0.2889  1.6104
 6356TIP3   OH219073   5.488   3.779   1.601  0.3216 -0.2529  0.2250
 6356TIP3    H119074   5.479   3.833   1.680  2.3801 -0.2345  0.4940
 6356TIP3    H219075   5.530   3.698   1.632  1.5207 -0.0835 -0.8897
 6357TIP3   OH219076   6.256   5.779   3.844  0.6325 -0.3276 -0.1356
 6357TIP3    H119077   6.276   5.836   3.919 -1.3365 -1.7842  1.6336
 6357TIP3    H219078   6.275   5.832   3.767  2.4200  1.3755  1.3726
 6358TIP3   OH219079   0.010   2.087   1.660  0.0672 -1.0302  0.5733
 6358TIP3    H119080   0.077   2.151   1.684  0.6848 -1.7815  0.8928
 6358TIP3    H219081  -0.066   2.140   1.634  0.1472 -0.1616  1.9683
 6359TIP3   OH219082   3.693   2.313   0.659 -0.2132  0.2650 -0.8269
 6359TIP3    H119083   3.652   2.228   0.676  1.6596 -0.4699  0.2766
 6359TIP3    H219084   3.629   2.359   0.605 -0.9595 -2.1376 -2.1645
 6360TIP3   OH219085   0.717   3.918   3.551 -0.3492 -0.8747  0.1728
 6360TIP3    H119086   0.803   3.955   3.570 -1.1584 -0.1159  2.7553
 6360TIP3    H219087   0.734   3.827   3.528  1.2665 -0.2399 -1.3543
 6361TIP3   OH219088   2.428   4.837   4.643 -0.2312  0.4306 -0.1952
 6361TIP3    H119089   2.351   4.876   4.683 -0.8965 -1.5248  0.5475
 6361TIP3    H219090   2.445   4.758   4.694  1.1672 -0.1566 -1.4763
 6362TIP3   OH219091   2.980   1.441   0.301 -0.1029  0.7283 -0.1323
 6362TIP3    H119092   2.959   1.437   0.207  1.6208  1.2162 -0.5719
 6362TIP3    H219093   3.060   1.493   0.305  0.1919  0.1942  1.5719
 6363TIP3   OH219094   3.403   3.996   0.033  0.0021 -0.2895  0.2928
 6363TIP3    H119095   3.462   4.032   0.099  0.4062  0.2855 -0.3630
 6363TIP3    H219096   3.318   4.036   0.052  0.3311  0.6266 -0.1070
 6364TIP3   OH219097   5.633   0.127   0.104 -0.0062 -0.0706 -0.4482
 6364TIP3    H119098   5.699   0.067   0.070  1.7636  1.2891  0.4584
 6364TIP3    H219099   5.658   0.142   0.195 -1.6261  0.4437 -0.0537
 6365TIP3   OH219100   4.115   4.588   1.186  0.1590 -0.2416  0.4821
 6365TIP3    H119101   4.131   4.509   1.135 -1.8347  0.1526 -0.8469
 6365TIP3    H219102   4.159   4.658   1.137 -0.5551 -0.0809  0.0680
 6366TIP3   OH219103   3.936   5.796   4.426 -0.2259 -0.1357  0.1291
 6366TIP3    H119104   3.972   5.710   4.402  0.2496  0.2440 -0.5238
 6366TIP3    H219105   3.903   5.832   4.345 -0.7549  0.1540  0.4714
 6367TIP3   OH219106   3.141   4.255   4.011 -0.4154  0.4410 -0.1622
 6367TIP3    H119107   3.211   4.303   4.056  0.0768  0.2455 -0.7004
 6367TIP3    H219108   3.181   4.228   3.928 -1.5318  1.4361 -1.0435
 6368TIP3   OH219109   4.922   1.681   3.873 -0.3539  0.3868  0.0780
 6368TIP3    H119110   5.015   1.659   3.871 -0.5131 -0.3174  0.0613
 6368TIP3    H219111   4.919   1.771   3.907  0.4413  1.1666 -1.7986
 6369TIP3   OH219112   0.835   5.353   1.075 -0.4952  0.4778 -0.0719
 6369TIP3    H119113   0.740   5.368   1.071 -0.5121  0.8791  1.2840
 6369TIP3    H219114   0.864   5.405   1.150  0.7855  0.2397 -0.3785
 6370TIP3   OH219115   2.155   2.264   0.050  0.5242  0.3576 -0.1051
 6370TIP3    H119116   2.108   2.264   0.133 -1.2741 -0.5100 -1.0481
 6370TIP3    H219117   2.104   2.204  -0.006  1.5934  1.0064 -1.8625
 6371TIP3   OH219118   4.975   4.087   1.183 -0.2636 -0.1184  0.3849
 6371TIP3    H119119   5.018   4.035   1.250 -1.8281 -1.0334  0.7330
 6371TIP3    H219120   4.977   4.031   1.105  1.1301  0.7498 -0.2444
 6372TIP3   OH219121   3.493   2.416   2.301  0.1909 -0.0341 -0.3934
 6372TIP3    H119122   3.406   2.382   2.321  0.5219 -1.3381 -1.0628
 6372TIP3    H219123   3.482   2.465   2.220 -0.2058  1.1271  0.3446
 6373TIP3   OH219124   0.005   3.123   0.425  0.0853  0.3652 -0.4681
 6373TIP3    H119125   0.036   3.152   0.339  0.7460 -1.1142 -0.7613
 6373TIP3    H219126   0.075   3.066   0.458  0.3322  1.7089  1.5266
 6374TIP3   OH219127   2.271   5.082   2.289  1.1668  0.6740 -0.3427
 6374TIP3    H119128   2.298   5.169   2.261 -0.0046  0.7302 -1.3599
 6374TIP3    H219129   2.281   5.083   2.384 -0.2236  2.4382 -0.1657
 6375TIP3   OH219130   0.532   4.162   2.029  0.1518  0.0345  0.5994
 6375TIP3    H119131   0.554   4.206   1.946  0.5679 -0.1850  0.5897
 6375TIP3    H219132   0.616   4.153   2.074  0.2541 -1.8010  0.0922
 6376TIP3   OH219133   3.500   0.824   0.694  0.4783  0.3122 -0.3328
 6376TIP3    H119134   3.593   0.810   0.714  0.3017  0.6407  0.7769
 6376TIP3    H219135   3.455   0.753   0.739  0.2318 -0.3060 -1.5096
 6377TIP3   OH219136   2.232   1.958   3.475 -0.4643  0.7508  0.5775
 6377TIP3    H119137   2.184   2.014   3.536 -2.4317 -1.4161  1.1503
 6377TIP3    H219138   2.220   2.001   3.390 -0.9562  1.7920  1.1478
 6378TIP3   OH219139   4.454   0.475   0.178 -0.3557 -0.2005  0.0176
 6378TIP3    H119140   4.528   0.418   0.157 -2.5058 -3.5397  0.7316
 6378TIP3    H219141   4.423   0.506   0.093  0.8289 -0.1399 -0.4091
 6379TIP3   OH219142   3.374   5.424   3.939 -0.2898 -0.0924  0.2063
 6379TIP3    H119143   3.422   5.468   4.009  0.3285 -0.1682 -0.1593
 6379TIP3    H219144   3.430   5.350   3.915 -2.0025 -2.0731  1.8690
 6380TIP3   OH219145   2.916   1.034   3.028  0.2357  0.2986  0.1708
 6380TIP3    H119146   2.867   0.989   3.097  1.4755 -1.3686  0.0395
 6380TIP3    H219147   2.873   1.008   2.947 -0.1500  0.8285  0.2044
 6381TIP3   OH219148   1.759   1.246   0.811  0.4667  0.0484  0.2736
 6381TIP3    H119149   1.812   1.167   0.820  0.7571  0.2698  0.5672
 6381TIP3    H219150   1.762   1.286   0.898 -0.2615  0.0191  0.3138
 6382TIP3   OH219151   1.235   3.759   0.417  0.0275  0.0768 -0.5564
 6382TIP3    H119152   1.184   3.827   0.460 -0.8797  0.2522 -1.8611
 6382TIP3    H219153   1.325   3.792   0.418  0.0275  0.1173  1.0541
 6383TIP3   OH219154   6.205   1.406   3.720  0.4993 -0.5560 -0.5017
 6383TIP3    H119155   6.193   1.469   3.649  0.3599  0.3614  0.3080
 6383TIP3    H219156   6.141   1.433   3.787  1.5836 -0.5054  0.5581
 6384TIP3   OH219157   4.531   0.636   4.088  0.5041 -1.0278  0.0869
 6384TIP3    H119158   4.560   0.699   4.154 -1.8044 -0.1327  0.3266
 6384TIP3    H219159   4.507   0.689   4.012 -2.3251 -1.4362  0.6014
 6385TIP3   OH219160   1.748   0.624   0.939  0.7630 -0.6585 -0.0351
 6385TIP3    H119161   1.818   0.560   0.928  0.1757 -1.3906  0.3187
 6385TIP3    H219162   1.773   0.674   1.017  0.5344 -1.4185  0.5413
 6386TIP3   OH219163   4.052   4.903   2.715  0.7837  0.3508 -0.2623
 6386TIP3    H119164   4.043   4.933   2.805  2.5944 -1.0876  0.4479
 6386TIP3    H219165   3.969   4.859   2.696  0.7845 -0.2790  1.0908
 6387TIP3   OH219166   2.920   3.403   3.490  0.0172 -0.0104  0.2699
 6387TIP3    H119167   2.917   3.434   3.581 -0.5562 -0.7232  0.5071
 6387TIP3    H219168   2.829   3.383   3.468  0.3206 -1.3106  0.0691
 6388TIP3   OH219169   1.432   0.064   2.764  0.2301 -0.4757  0.3574
 6388TIP3    H119170   1.343   0.081   2.794  0.2291 -1.4526  0.9636
 6388TIP3    H219171   1.422  -0.006   2.699  0.5115 -0.2912  0.1147
 6389TIP3   OH219172   4.023   3.355   3.431  0.5617  0.4250 -0.5864
 6389TIP3    H119173   3.957   3.288   3.450  1.1361  0.3080  1.1479
 6389TIP3    H219174   4.055   3.333   3.343  0.8275 -1.6600 -0.0143
 6390TIP3   OH219175   0.571   0.475   3.544 -0.1724 -0.2469  0.3863
 6390TIP3    H119176   0.660   0.483   3.511  0.2795 -0.6661  1.4867
 6390TIP3    H219177   0.520   0.446   3.468  0.6537 -0.2196 -0.1925
 6391TIP3   OH219178   0.017   4.817   3.890  0.1689 -0.7097 -0.6596
 6391TIP3    H119179   0.099   4.772   3.870  0.7272 -0.8661  1.6358
 6391TIP3    H219180  -0.010   4.780   3.974  0.4256  2.7748  1.1528
 6392TIP3   OH219181   2.833   2.482   1.180 -0.1920 -0.3050 -0.4296
 6392TIP3    H119182   2.743   2.508   1.162 -0.2859  0.2811  0.7981
 6392TIP3    H219183   2.883   2.514   1.105 -0.7029  1.1663 -0.1746
 6393TIP3   OH219184   2.073   3.244   1.647  0.7664 -0.0297 -0.5179
 6393TIP3    H119185   2.091   3.151   1.634  2.1288  0.0919  0.3891
 6393TIP3    H219186   2.083   3.258   1.741  1.3902  1.1978 -0.7436
 6394TIP3   OH219187   4.633   3.345   3.488 -0.5406 -0.0975 -0.4921
 6394TIP3    H119188   4.616   3.289   3.413 -1.3987 -0.5690  0.0485
 6394TIP3    H219189   4.585   3.305   3.560 -0.1799  0.6585  0.1867
 6395TIP3   OH219190   0.823   2.422   3.105 -0.3529 -0.4646 -0.5420
 6395TIP3    H119191   0.895   2.383   3.056 -1.3866 -1.1995 -1.5132
 6395TIP3    H219192   0.866   2.466   3.179  0.9924 -1.8989 -0.4091
 6396TIP3   OH219193   4.391   3.138   1.509  0.1021  0.3526  0.1413
 6396TIP3    H119194   4.419   3.068   1.449 -1.8510  0.1370 -0.5949
 6396TIP3    H219195   4.304   3.162   1.478 -1.4157 -0.3787  3.4379
 6397TIP3   OH219196   4.430   2.425   1.415  0.1325  0.3478 -0.1160
 6397TIP3    H119197   4.417   2.334   1.391 -1.1893 -0.0612  1.8828
 6397TIP3    H219198   4.355   2.471   1.377  0.1980  0.4055 -0.1755
 6398TIP3   OH219199   3.376   2.119   3.058  0.0332 -0.2448 -0.3549
 6398TIP3    H119200   3.416   2.144   2.974  0.1731  0.9749  0.0472
 6398TIP3    H219201   3.392   2.025   3.066  1.5143 -0.0655 -0.8987
 6399TIP3   OH219202  -0.005   1.872   0.336  0.2295  0.4944 -0.2634
 6399TIP3    H119203  -0.042   1.876   0.247  1.0633 -0.2256 -0.6629
 6399TIP3    H219204   0.063   1.939   0.337  0.7360 -0.0059 -0.4320
 6400TIP3   OH219205   5.057   2.890   1.298 -0.1604 -0.2531 -0.5060
 6400TIP3    H119206   5.100   2.805   1.296  0.9444  0.2866 -0.7303
 6400TIP3    H219207   4.968   2.872   1.329  0.1210 -1.4482 -0.3584
 6401TIP3   OH219208   1.807   2.406   1.118 -0.2506  0.5531  0.0285
 6401TIP3    H119209   1.718   2.398   1.153 -1.0114  1.7799 -1.5415
 6401TIP3    H219210   1.813   2.337   1.052 -0.3459  1.0609 -0.5077
 6402TIP3   OH219211   2.912   0.551   1.528  0.3613 -1.1582  0.5888
 6402TIP3    H119212   2.845   0.488   1.505 -0.6820 -0.2509  1.0403
 6402TIP3    H219213   2.970   0.554   1.451 -0.5449 -1.3993 -0.1222
 6403TIP3   OH219214   6.036   2.242   2.986 -0.7327  0.0872  0.0853
 6403TIP3    H119215   6.091   2.312   3.020 -0.9883  1.1060 -1.4859
 6403TIP3    H219216   6.081   2.161   3.010  1.8541  0.8787 -1.7025
 6404TIP3   OH219217   1.154   0.925   1.214 -0.2356 -0.1628 -0.1069
 6404TIP3    H119218   1.149   0.947   1.121  1.9679  0.3769 -0.1651
 6404TIP3    H219219   1.245   0.945   1.238 -1.1944  1.4525  2.6077
 6405TIP3   OH219220   4.132   3.041   1.382  0.1052  0.3699 -0.4896
 6405TIP3    H119221   4.150   2.986   1.306 -2.8527 -0.5348 -0.6777
 6405TIP3    H219222   4.058   3.096   1.354  0.3196  1.5224  1.0656
 6406TIP3   OH219223   1.350   0.558   1.477  1.0250  0.1880 -0.2731
 6406TIP3    H119224   1.384   0.538   1.390  0.4299 -0.3912 -0.3814
 6406TIP3    H219225   1.269   0.605   1.460  0.7713 -0.1603 -0.0371
 6407TIP3   OH219226   4.116   5.042   2.165  0.4666  0.1978  0.0701
 6407TIP3    H119227   4.158   5.117   2.207 -2.5761  1.5244  1.0157
 6407TIP3    H219228   4.105   4.977   2.235 -0.6079  0.6113  0.3134
 6408TIP3   OH219229   3.836   4.225   0.939  0.0787  0.3571 -0.0561
 6408TIP3    H119230   3.765   4.161   0.941  0.3592  0.0117 -0.7663
 6408TIP3    H219231   3.901   4.187   0.879  0.6963  0.8414  0.2921
 6409TIP3   OH219232   0.758   4.239   4.813  0.1220 -0.6387 -0.7560
 6409TIP3    H119233   0.759   4.168   4.878 -0.7808  1.2306  1.4168
 6409TIP3    H219234   0.690   4.213   4.751 -0.5131 -1.4760  0.2442
 6410TIP3   OH219235   4.306   1.823   4.307 -0.1095 -0.0429  0.7511
 6410TIP3    H119236   4.279   1.764   4.378 -0.8591  2.7317  2.9516
 6410TIP3    H219237   4.225   1.845   4.262  0.0918 -0.2372  0.2874
 6411TIP3   OH219238   0.623   0.504   0.786  0.3232  0.1324 -0.6710
 6411TIP3    H119239   0.671   0.448   0.847  0.3306  2.1427  1.2999
 6411TIP3    H219240   0.634   0.462   0.700  0.8013 -2.4996  0.5903
 6412TIP3   OH219241   4.818   3.180   1.392  0.0250 -0.9762 -0.6546
 6412TIP3    H119242   4.768   3.183   1.474 -0.2402 -1.3584 -0.8012
 6412TIP3    H219243   4.909   3.168   1.420  0.1011  0.1095 -0.3684
 6413TIP3   OH219244   3.917   4.056   4.248 -0.1380 -0.3493 -0.0788
 6413TIP3    H119245   3.895   3.997   4.175 -0.8116 -2.6000  1.8011
 6413TIP3    H219246   4.008   4.081   4.231  0.3178 -2.2551 -0.8102
 6414TIP3   OH219247   1.157   5.239   0.867  0.0903 -0.4544  0.0072
 6414TIP3    H119248   1.218   5.290   0.815 -0.1481 -1.0897 -0.9133
 6414TIP3    H219249   1.072   5.251   0.824 -0.1255 -0.9314  0.2799
 6415TIP3   OH219250   0.816   3.199   3.120 -0.1085 -0.6140  0.0178
 6415TIP3    H119251   0.762   3.146   3.062 -0.5046 -0.9650  0.6990
 6415TIP3    H219252   0.849   3.137   3.186 -1.0526  0.0721  1.1653
 6416TIP3   OH219253   4.132   0.144   3.882 -0.1187 -0.0754 -0.4746
 6416TIP3    H119254   4.094   0.220   3.925 -1.4924 -1.7452  1.4217
 6416TIP3    H219255   4.143   0.171   3.791 -0.2594  2.4642  0.2029
 6417TIP3   OH219256   3.092   2.769   0.862  0.0046  1.2476 -0.0824
 6417TIP3    H119257   3.042   2.802   0.788 -2.7717  1.4514  1.7257
 6417TIP3    H219258   3.098   2.675   0.847  0.6147  1.4512 -1.1777
 6418TIP3   OH219259   0.427   0.701   3.805  0.3747 -1.1121 -0.7942
 6418TIP3    H119260   0.465   0.640   3.869 -0.4290 -0.3460  0.4599
 6418TIP3    H219261   0.400   0.776   3.857  1.7796  0.5695 -2.3658
 6419TIP3   OH219262   4.521   5.772   3.788 -0.1824  0.0530  0.1020
 6419TIP3    H119263   4.562   5.850   3.752 -0.4403  0.2058  0.1328
 6419TIP3    H219264   4.593   5.719   3.820 -0.0620  0.6718  0.8764
 6420TIP3   OH219265   6.025   1.555   3.529 -0.4078  0.1381 -0.2846
 6420TIP3    H119266   6.083   1.619   3.487 -0.5040  1.0346  0.8850
 6420TIP3    H219267   6.036   1.475   3.478 -2.4438  1.7788 -3.6563
 6421TIP3   OH219268   2.135   5.663   1.220 -0.1106 -0.1334 -0.1609
 6421TIP3    H119269   2.133   5.579   1.265  2.1311  0.5051  1.2851
 6421TIP3    H219270   2.052   5.705   1.243 -0.6359 -1.3607  0.2577
 6422TIP3   OH219271   0.190   4.917   1.096  0.0136  0.7714 -0.9047
 6422TIP3    H119272   0.186   4.879   1.008 -1.1837 -0.2149 -0.4471
 6422TIP3    H219273   0.242   4.856   1.147 -1.6631 -0.1412 -0.2424
 6423TIP3   OH219274   3.024   5.619   4.400 -0.1304  0.3348  0.2220
 6423TIP3    H119275   3.048   5.708   4.374  0.5665  0.2351  0.5039
 6423TIP3    H219276   2.989   5.579   4.320  0.9852  0.3708 -0.2917
 6424TIP3   OH219277   0.703   4.133   0.547 -0.0252  0.1271  0.8178
 6424TIP3    H119278   0.653   4.079   0.608  2.5650 -1.5134  1.6516
 6424TIP3    H219279   0.715   4.078   0.470  0.2104  0.6058  0.5080
 6425TIP3   OH219280   1.220   2.591   2.000 -0.5954  0.1265  0.0792
 6425TIP3    H119281   1.227   2.682   2.030 -0.0565  0.1230 -0.0249
 6425TIP3    H219282   1.205   2.598   1.906 -4.1553  0.1943  0.5075
 6426TIP3   OH219283   0.425   1.911   4.961 -0.4350  0.0065  0.4744
 6426TIP3    H119284   0.391   1.951   5.041  1.9694  1.8802  0.6548
 6426TIP3    H219285   0.509   1.873   4.987  0.1333  0.1656 -1.0323
 6427TIP3   OH219286   1.715   3.689   4.504 -0.3438 -0.5640  0.0048
 6427TIP3    H119287   1.697   3.732   4.587  1.4060 -0.9714  0.6316
 6427TIP3    H219288   1.795   3.732   4.472  0.0246 -1.6413 -0.5679
 6428TIP3   OH219289   4.416   5.170   3.536 -0.1163 -0.0043 -0.4127
 6428TIP3    H119290   4.382   5.254   3.567  0.7536  1.2586 -2.6037
 6428TIP3    H219291   4.356   5.105   3.571 -2.1261  1.7277 -0.4304
 6429TIP3   OH219292   2.059   3.777   4.805  0.0774  0.1819  0.2810
 6429TIP3    H119293   2.104   3.797   4.723  0.8606 -0.4608  0.5335
 6429TIP3    H219294   2.049   3.862   4.849  0.4477  0.4152 -0.0841
 6430TIP3   OH219295   2.306   1.895   2.331  0.3132 -0.3743 -0.2179
 6430TIP3    H119296   2.296   1.837   2.255  0.4024  0.0276 -0.5392
 6430TIP3    H219297   2.361   1.845   2.392  0.9930 -0.3382 -0.7928
 6431TIP3   OH219298   0.698   0.966   1.793 -0.1275  0.1983 -0.5545
 6431TIP3    H119299   0.737   1.054   1.790  0.8066 -0.1961 -0.3098
 6431TIP3    H219300   0.671   0.956   1.884  0.1979  0.0601 -0.4697
 6432TIP3   OH219301   1.964   2.666   1.849  0.1861  0.1523 -0.4831
 6432TIP3    H119302   1.943   2.655   1.756 -2.1949 -0.1772  0.0361
 6432TIP3    H219303   2.003   2.583   1.875  0.8469  0.2382 -1.1491
 6433TIP3   OH219304   0.380   1.331   3.776 -0.1131  0.3515 -0.2866
 6433TIP3    H119305   0.452   1.348   3.837 -0.7576  2.7328 -0.0891
 6433TIP3    H219306   0.412   1.259   3.722  0.6819 -1.5287  2.4795
 6434TIP3   OH219307   5.067   1.868   4.938  0.1565 -0.0893 -0.4787
 6434TIP3    H119308   5.040   1.848   4.849  0.7095  0.6026 -0.8138
 6434TIP3    H219309   5.089   1.783   4.977 -3.1579 -0.8300  0.0853
 6435TIP3   OH219310   2.641   3.983   2.509 -0.2330 -0.0308  0.4700
 6435TIP3    H119311   2.675   3.967   2.421  0.6524  0.5664  0.6889
 6435TIP3    H219312   2.605   3.899   2.537  0.3055 -0.4595 -0.1003
 6436TIP3   OH219313   5.875   1.602   0.039 -0.4170  0.3998 -0.8469
 6436TIP3    H119314   5.899   1.677  -0.015 -0.6620  2.7653  2.0534
 6436TIP3    H219315   5.789   1.623   0.074 -0.6905 -1.4540 -0.2895
 6437TIP3   OH219316   3.146   0.439   0.025  0.2282  0.3852  0.1359
 6437TIP3    H119317   3.230   0.414  -0.014 -0.2739 -0.1634 -0.6390
 6437TIP3    H219318   3.166   0.517   0.077  1.2818  0.0517  0.2634
 6438TIP3   OH219319   3.687   5.360   2.005 -0.2462 -0.5399 -0.3843
 6438TIP3    H119320   3.598   5.326   1.995  0.0043 -1.4890  0.4080
 6438TIP3    H219321   3.683   5.418   2.081 -0.1741 -0.6345 -0.3080
 6439TIP3   OH219322   5.322   3.860   2.647 -0.2133 -0.2243  0.4160
 6439TIP3    H119323   5.308   3.920   2.721  1.2241  0.6734  0.0105
 6439TIP3    H219324   5.258   3.888   2.582  0.2317  0.7194  0.3523
 6440TIP3   OH219325   0.134   5.386   0.703  0.2090  0.7301 -0.0185
 6440TIP3    H119326   0.083   5.335   0.640  0.4985 -0.1093  0.4071
 6440TIP3    H219327   0.109   5.477   0.686  1.5688  0.7449 -2.5572
 6441TIP3   OH219328   0.741   3.173   0.367 -0.1316 -0.5572 -0.1777
 6441TIP3    H119329   0.749   3.094   0.313 -0.8220 -0.9200  0.2490
 6441TIP3    H219330   0.766   3.244   0.308 -2.6517 -0.7295 -1.6180
 6442TIP3   OH219331   6.251   3.116   0.049 -0.4668  0.4015 -0.6038
 6442TIP3    H119332   6.215   3.185  -0.007 -1.6613 -0.9559 -1.5878
 6442TIP3    H219333   6.329   3.087   0.003  0.6389  1.7529  0.3400
 6443TIP3   OH219334   1.119   5.818   4.646  0.5266  0.3159  0.6882
 6443TIP3    H119335   1.205   5.803   4.607 -0.8839  0.5735 -2.8574
 6443TIP3    H219336   1.088   5.731   4.670  1.0292 -0.0041  0.2181
 6444TIP3   OH219337   2.824   4.076   0.078  0.2466 -0.0934  0.0302
 6444TIP3    H119338   2.856   4.082   0.167 -0.1505 -0.3846  0.1959
 6444TIP3    H219339   2.794   4.165   0.057  2.1169  0.4469 -0.5055
 6445TIP3   OH219340   5.764   4.785   2.314  0.0139  0.2146  0.4954
 6445TIP3    H119341   5.791   4.865   2.360 -0.8556  1.7891 -1.5928
 6445TIP3    H219342   5.712   4.816   2.240 -0.2186 -2.2979 -0.4847
 6446TIP3   OH219343   4.443   5.290   1.960  0.4386 -0.1754  0.2151
 6446TIP3    H119344   4.364   5.244   1.931  0.6725  0.4071 -1.4585
 6446TIP3    H219345   4.505   5.220   1.981  0.0749 -0.6391 -0.2259
 6447TIP3   OH219346   4.046   5.713   1.601  0.5613  0.4146 -0.6618
 6447TIP3    H119347   4.041   5.619   1.585  1.5680  0.4038 -1.0085
 6447TIP3    H219348   3.983   5.729   1.672 -0.0696 -0.4082 -1.0291
 6448TIP3   OH219349   2.929   2.519   1.872  0.4904 -0.0076 -0.0567
 6448TIP3    H119350   2.900   2.603   1.837  0.7306  0.1485  0.1148
 6448TIP3    H219351   2.951   2.467   1.795  1.9112  0.6561 -0.1306
 6449TIP3   OH219352   5.883   5.977   5.022  0.3441 -0.2402  0.4182
 6449TIP3    H119353   5.933   5.896   5.011  1.7085  0.7687 -1.3901
 6449TIP3    H219354   5.951   6.045   5.034 -0.7621  0.5188  3.4938
 6450TIP3   OH219355   2.536   4.463   0.863 -0.1079  0.1625 -0.3109
 6450TIP3    H119356   2.505   4.554   0.869 -0.7154 -0.0825  0.4367
 6450TIP3    H219357   2.625   4.466   0.898  0.5020  0.7480 -1.8215
 6451TIP3   OH219358   0.878   4.483   1.072 -0.3924  0.0934  0.5345
 6451TIP3    H119359   0.793   4.439   1.064 -1.9748  2.8517  0.8648
 6451TIP3    H219360   0.884   4.506   1.165  1.1187 -0.6859  0.6625
 6452TIP3   OH219361   0.254   1.822   1.096 -0.9420 -0.1502  0.0671
 6452TIP3    H119362   0.238   1.735   1.058 -2.0148 -0.4066  1.0569
 6452TIP3    H219363   0.214   1.818   1.183 -1.0814  1.3705  0.0975
 6453TIP3   OH219364   4.349   5.345   2.611  0.1711  0.3394 -0.5587
 6453TIP3    H119365   4.407   5.366   2.684 -1.1600  0.9180  0.3843
 6453TIP3    H219366   4.384   5.396   2.537  2.4773 -1.4694 -0.8437
 6454TIP3   OH219367   0.651   3.425   5.084  0.0761 -0.1317 -0.6784
 6454TIP3    H119368   0.595   3.351   5.060  0.9847 -0.2910 -2.5153
 6454TIP3    H219369   0.602   3.502   5.056  0.5522 -0.2550 -1.9605
 6455TIP3   OH219370   2.980   3.790   2.735  0.6243  0.2235 -0.2257
 6455TIP3    H119371   2.889   3.785   2.708  0.9279  2.1247 -1.8047
 6455TIP3    H219372   3.029   3.747   2.665  1.1285  1.6831 -0.7986
 6456TIP3   OH219373   4.118   1.043   4.743 -0.6517  0.2391 -0.1029
 6456TIP3    H119374   4.067   1.118   4.713 -2.6411 -0.8099  0.4721
 6456TIP3    H219375   4.136   0.993   4.663  1.5180  1.6986 -0.6403
 6457TIP3   OH219376   0.370   0.152   1.730 -0.2559 -0.3281 -0.2224
 6457TIP3    H119377   0.347   0.116   1.816 -0.4409 -0.2959 -0.2576
 6457TIP3    H219378   0.389   0.075   1.676  0.4679 -0.3173  0.0204
 6458TIP3   OH219379   0.711   4.106   1.248  0.6570  0.0608 -0.2808
 6458TIP3    H119380   0.729   4.020   1.286 -4.5223 -1.1714  0.0893
 6458TIP3    H219381   0.695   4.088   1.155  1.5845  1.0442 -0.6483
 6459TIP3   OH219382   1.297   5.653   3.563  0.6816 -0.6551 -0.3767
 6459TIP3    H119383   1.325   5.636   3.474 -1.0026  0.2394 -1.1284
 6459TIP3    H219384   1.362   5.713   3.599  0.3393  0.5355 -1.6901
 6460TIP3   OH219385   3.708   2.652   0.563  0.0195 -0.4510 -0.4816
 6460TIP3    H119386   3.679   2.706   0.489  0.5072  0.8998  0.2885
 6460TIP3    H219387   3.633   2.595   0.582 -1.2049  1.1906 -0.1782
 6461TIP3   OH219388   6.188   2.071   0.891 -0.0072  0.0174 -0.0301
 6461TIP3    H119389   6.225   2.132   0.827 -0.6275 -0.5876 -0.9932
 6461TIP3    H219390   6.257   2.059   0.957 -0.0612  2.1902  0.5097
 6462TIP3   OH219391   4.243   5.143   1.883  0.5688 -0.6940 -0.0545
 6462TIP3    H119392   4.157   5.105   1.867  0.6918 -1.7098  1.4578
 6462TIP3    H219393   4.305   5.076   1.854  0.8176 -0.7780  0.6596
 6463TIP3   OH219394   1.115   4.328   1.730 -0.0606 -0.8291 -0.1536
 6463TIP3    H119395   1.026   4.342   1.696 -0.3223 -2.0274  0.0015
 6463TIP3    H219396   1.166   4.301   1.654  0.6060  1.4001 -0.5871
 6464TIP3   OH219397   6.035   5.516   1.107 -0.2302  0.2443  0.6933
 6464TIP3    H119398   6.000   5.536   1.194 -0.3124 -0.5850  0.8503
 6464TIP3    H219399   5.970   5.457   1.068 -0.3794  0.8949 -0.0787
 6465TIP3   OH219400   5.178   5.661   4.889  0.1659 -0.0777  0.0063
 6465TIP3    H119401   5.264   5.702   4.894 -0.4451  1.2202  0.4774
 6465TIP3    H219402   5.163   5.625   4.977  0.2795 -0.4275 -0.1156
 6466TIP3   OH219403   5.081   1.720   0.877 -0.1089 -0.0938 -0.9761
 6466TIP3    H119404   5.067   1.659   0.805  1.1398 -1.1743 -0.3513
 6466TIP3    H219405   5.007   1.704   0.936  0.9157 -2.1355 -0.1093
 6467TIP3   OH219406   5.244   1.148   0.721  0.3207  0.2157  0.5777
 6467TIP3    H119407   5.169   1.143   0.661 -0.5935 -1.4036  1.7740
 6467TIP3    H219408   5.265   1.242   0.725 -1.5888  0.7090  0.1162
 6468TIP3   OH219409   1.403   5.484   2.177 -0.5354 -0.4259  0.6862
 6468TIP3    H119410   1.474   5.541   2.208 -0.4575 -0.7733  1.1661
 6468TIP3    H219411   1.445   5.399   2.165 -1.2592 -1.2187  3.0428
 6469TIP3   OH219412   4.353   0.419   4.078 -0.4566 -0.3677  0.0822
 6469TIP3    H119413   4.311   0.438   4.162 -0.6041  1.7502 -0.4350
 6469TIP3    H219414   4.422   0.484   4.070  0.2721 -1.2320 -0.9751
 6470TIP3   OH219415   5.756   5.492   0.242 -0.3277 -0.4128 -0.0234
 6470TIP3    H119416   5.808   5.567   0.214 -2.4608  1.2695  0.2774
 6470TIP3    H219417   5.744   5.440   0.162 -0.3309  0.5280 -0.6421
 6471TIP3   OH219418   1.262   3.310   1.495  0.0647  0.1473 -0.0377
 6471TIP3    H119419   1.289   3.390   1.450 -0.2430  1.0240  1.2751
 6471TIP3    H219420   1.236   3.250   1.425 -1.4578  1.8363 -0.9803
 6472TIP3   OH219421   5.997   1.218   4.103 -0.1871 -0.1668  0.7532
 6472TIP3    H119422   6.040   1.233   4.188  0.6824 -0.0686  0.2995
 6472TIP3    H219423   6.039   1.139   4.069 -0.0944  0.1478  0.1337
 6473TIP3   OH219424   4.423   4.515   0.894  0.4353  0.5538 -0.1039
 6473TIP3    H119425   4.468   4.442   0.852  0.2769  0.1245  0.4608
 6473TIP3    H219426   4.372   4.555   0.824  0.0394 -0.2616 -0.2988
 6474TIP3   OH219427   1.322   5.828   2.406  0.0284  0.4228  0.0647
 6474TIP3    H119428   1.262   5.899   2.430  0.8081  0.4778  1.9880
 6474TIP3    H219429   1.397   5.872   2.367  1.1612  0.8735  2.5604
 6475TIP3   OH219430   2.030   2.886   0.061  0.5388  0.0531 -0.2973
 6475TIP3    H119431   1.938   2.878   0.038  0.3775 -0.5580  0.4959
 6475TIP3    H219432   2.030   2.887   0.157  1.4706 -1.6900 -0.2386
 6476TIP3   OH219433   4.367   3.366   1.976  0.0454  0.1717  0.6410
 6476TIP3    H119434   4.333   3.394   1.890 -2.0581 -0.3682  1.2293
 6476TIP3    H219435   4.346   3.439   2.034  0.3075  0.0177  0.9280
 6477TIP3   OH219436   1.161   3.005   3.916  0.1056  0.2140 -0.0835
 6477TIP3    H119437   1.117   2.922   3.901  3.0770 -1.4495 -0.3192
 6477TIP3    H219438   1.187   3.035   3.829 -0.7268  1.2994  0.0197
 6478TIP3   OH219439   0.181   5.078   0.210 -0.6221 -0.2680 -0.0775
 6478TIP3    H119440   0.214   5.094   0.299  0.1738  1.3922 -0.6271
 6478TIP3    H219441   0.126   5.155   0.191  1.1952  0.6659 -1.8939
 6479TIP3   OH219442   0.817   2.933   4.567  0.1749  0.5371  0.3340
 6479TIP3    H119443   0.850   2.843   4.565  2.1444  1.2105 -0.8510
 6479TIP3    H219444   0.724   2.924   4.586  0.4648 -1.6977  0.9724
 6480TIP3   OH219445   2.273   0.223   1.889 -0.1178  0.1130  0.2654
 6480TIP3    H119446   2.201   0.281   1.914 -0.0016  0.5967 -0.4928
 6480TIP3    H219447   2.348   0.280   1.878 -0.1502 -0.0743 -1.0878
 6481TIP3   OH219448   0.070   3.394   4.456  0.1803  0.0765 -0.2597
 6481TIP3    H119449  -0.014   3.397   4.411 -0.2893  0.9048  0.6318
 6481TIP3    H219450   0.104   3.306   4.437  0.0422  0.4122 -2.2348
 6482TIP3   OH219451   6.171   5.578   3.371  0.1918 -0.3407  0.1100
 6482TIP3    H119452   6.159   5.659   3.420 -0.9411 -0.7493  0.5570
 6482TIP3    H219453   6.135   5.597   3.284  1.6519  0.2004 -0.3901
 6483TIP3   OH219454   4.608   5.165   2.126  0.1119 -0.3508  0.1722
 6483TIP3    H119455   4.593   5.090   2.184 -2.2106  0.5594  0.8873
 6483TIP3    H219456   4.598   5.241   2.183 -0.4556  0.5403 -1.0715
 6484TIP3   OH219457   1.882   1.886   1.454  0.0581 -0.0100 -0.7093
 6484TIP3    H119458   1.890   1.963   1.397  1.0700  2.9666  3.0140
 6484TIP3    H219459   1.800   1.899   1.501 -0.7677 -2.3800 -1.3474
 6485TIP3   OH219460   2.678   5.934   4.654  0.0497  0.6242  0.2093
 6485TIP3    H119461   2.730   5.887   4.589 -0.4758  0.1583  0.1189
 6485TIP3    H219462   2.704   5.897   4.738  0.5026  1.0095  0.2430
 6486TIP3   OH219463   5.019   2.734   0.050  0.1800  0.0817 -0.0776
 6486TIP3    H119464   5.040   2.662  -0.010  0.1431  0.6453 -0.7763
 6486TIP3    H219465   4.924   2.729   0.062  0.0612  0.5043 -0.7772
 6487TIP3   OH219466   6.067   4.352   5.108  0.8005  0.3727 -0.6374
 6487TIP3    H119467   6.056   4.447   5.100  0.5929  0.8300  3.2756
 6487TIP3    H219468   5.978   4.317   5.105  0.6675  0.6061  0.2837
 6488TIP3   OH219469   2.914   5.030   0.282  0.8863 -0.1123 -0.4230
 6488TIP3    H119470   2.903   5.032   0.377  0.2036  0.5006 -0.5033
 6488TIP3    H219471   3.000   5.070   0.267  1.2009 -0.6355 -0.0439
 6489TIP3   OH219472   4.536   3.634   1.820 -0.6839 -0.8081  0.4350
 6489TIP3    H119473   4.541   3.669   1.909 -3.1119  0.0243  0.3137
 6489TIP3    H219474   4.497   3.704   1.768 -1.4090 -2.0642 -0.7959
 6490TIP3   OH219475   5.872   1.742   3.134 -0.0910 -0.1979 -0.7527
 6490TIP3    H119476   5.952   1.693   3.117 -0.2215 -0.2622 -1.1938
 6490TIP3    H219477   5.849   1.720   3.225 -0.6810 -1.7560 -1.2384
 6491TIP3   OH219478   2.224   5.039   1.490  0.2220  0.4587  0.3743
 6491TIP3    H119479   2.233   4.946   1.510  0.0034  0.1623 -0.8264
 6491TIP3    H219480   2.191   5.078   1.571 -1.9954 -0.9093  0.2120
 6492TIP3   OH219481   4.078   5.563   2.399 -0.5243 -0.0080  0.2009
 6492TIP3    H119482   4.074   5.510   2.478  0.1886  1.4157  1.2317
 6492TIP3    H219483   4.018   5.636   2.415  3.2060  3.0868  1.6936
 6493TIP3   OH219484   2.818   1.021   1.897  0.2138  0.3103  0.0056
 6493TIP3    H119485   2.892   1.039   1.954 -0.4893  0.6071  0.8438
 6493TIP3    H219486   2.851   1.039   1.809  0.7052  1.9602  0.4761
 6494TIP3   OH219487   2.133   3.795   3.303  0.2080  0.1924 -0.2732
 6494TIP3    H119488   2.041   3.782   3.323  0.8389 -2.0181  1.5930
 6494TIP3    H219489   2.142   3.889   3.289 -2.3389  0.4221 -0.8081
 6495TIP3   OH219490   1.212   5.415   1.214  0.2382  0.0183 -0.0290
 6495TIP3    H119491   1.243   5.327   1.236  0.9010  0.2067 -0.1978
 6495TIP3    H219492   1.291   5.465   1.195 -0.1847  0.3837 -0.9201
 6496TIP3   OH219493   4.896   2.729   4.088 -0.0037 -0.4207  0.4631
 6496TIP3    H119494   4.803   2.706   4.086 -0.0880 -0.0664 -1.3654
 6496TIP3    H219495   4.898   2.814   4.132 -0.8636  0.6472 -1.4136
 6497TIP3   OH219496   4.112   0.990   4.464 -0.0016  0.4743  0.3349
 6497TIP3    H119497   4.086   1.059   4.403  2.0886  0.0481 -1.1585
 6497TIP3    H219498   4.073   0.911   4.429  2.5550 -0.0661 -1.5717
 6498TIP3   OH219499   3.891   0.322   0.622 -0.4159 -0.1583  0.2737
 6498TIP3    H119500   3.969   0.373   0.599  0.3876 -1.2207  0.5191
 6498TIP3    H219501   3.819   0.384   0.615  0.5441  1.0749  0.8290
 6499TIP3   OH219502   1.727   5.257   0.694 -0.8584 -0.1983 -0.2714
 6499TIP3    H119503   1.792   5.187   0.698  0.0563  0.5972 -0.7491
 6499TIP3    H219504   1.702   5.272   0.785  0.7556  0.4914  0.0874
 6500TIP3   OH219505   5.251   0.349   1.897 -0.1135 -0.4083  0.1977
 6500TIP3    H119506   5.339   0.315   1.878 -0.4100  0.0169 -2.3006
 6500TIP3    H219507   5.193   0.274   1.885 -0.2370 -0.3286  0.2972
 6501TIP3   OH219508   0.275   2.351   2.128 -0.0055 -0.1848  0.7753
 6501TIP3    H119509   0.254   2.348   2.034 -0.1622 -0.6790  0.8232
 6501TIP3    H219510   0.276   2.444   2.149  1.7667  0.0400 -0.1175
 6502TIP3   OH219511   4.041   3.689   1.437 -0.1923 -0.3090  0.0178
 6502TIP3    H119512   3.968   3.726   1.387  0.2087 -0.1799 -0.4917
 6502TIP3    H219513   4.013   3.694   1.528 -1.1189 -0.9411 -0.2219
 6503TIP3   OH219514   4.854   4.617   4.031 -0.1016  0.5451 -0.2680
 6503TIP3    H119515   4.898   4.672   4.095  1.3511  0.7145 -1.3542
 6503TIP3    H219516   4.804   4.554   4.083  0.7211  0.9117  1.0033
 6504TIP3   OH219517   3.445   2.354   4.967  0.2956  0.0310  0.7393
 6504TIP3    H119518   3.527   2.332   4.921 -0.5889  0.5250 -1.1726
 6504TIP3    H219519   3.418   2.438   4.929 -1.5820 -0.5770  0.6488
 6505TIP3   OH219520   2.649   2.644   1.879  0.3060 -0.7758 -0.2705
 6505TIP3    H119521   2.726   2.691   1.847 -0.0625  0.0993  0.1083
 6505TIP3    H219522   2.574   2.693   1.844 -0.0883 -0.7803  0.5401
 6506TIP3   OH219523   6.296   2.041   0.055 -0.7615  0.5391  0.2853
 6506TIP3    H119524   6.363   2.108   0.067  0.3690 -0.3266 -0.8977
 6506TIP3    H219525   6.217   2.079   0.091  0.0862  2.0944  0.5754
 6507TIP3   OH219526   2.274   1.580   1.857 -0.3258  0.2478 -0.1753
 6507TIP3    H119527   2.342   1.647   1.858 -1.1067  1.0915 -1.4306
 6507TIP3    H219528   2.318   1.501   1.889  1.0505  0.9427 -0.2880
 6508TIP3   OH219529   3.574   0.921   2.822 -0.2215 -0.1627  0.3625
 6508TIP3    H119530   3.593   1.014   2.813 -2.1188  0.5392  2.7409
 6508TIP3    H219531   3.483   0.912   2.793 -0.8307 -0.8004  2.3256
 6509TIP3   OH219532   4.103   4.626   3.426  0.1163 -0.5462 -0.4414
 6509TIP3    H119533   4.040   4.697   3.422  0.8070  0.1434  0.3620
 6509TIP3    H219534   4.188   4.669   3.411  0.6141 -1.0670  0.7714
 6510TIP3   OH219535   1.462   0.393   2.338 -0.0061 -0.3524 -0.2959
 6510TIP3    H119536   1.488   0.380   2.429  4.6435 -0.0124 -1.3152
 6510TIP3    H219537   1.451   0.488   2.330 -1.8417 -0.4843  0.0991
 6511TIP3   OH219538   6.310   4.814   3.601 -0.1399 -0.2802  0.3204
 6511TIP3    H119539   6.337   4.779   3.686  0.7087  0.2215  0.2761
 6511TIP3    H219540   6.264   4.895   3.622  1.2240  0.5369  0.2618
 6512TIP3   OH219541   1.363   5.364   4.115  0.2987  0.6779 -0.3574
 6512TIP3    H119542   1.434   5.306   4.142 -0.1979 -0.0080 -0.5109
 6512TIP3    H219543   1.406   5.449   4.101  0.6710  0.9216  1.9738
 6513TIP3   OH219544   2.119   0.965   1.735  0.0746  0.0382 -0.2509
 6513TIP3    H119545   2.072   0.882   1.735 -0.0707  0.1183 -0.4794
 6513TIP3    H219546   2.053   1.030   1.759 -0.1655  0.2749 -1.4942
 6514TIP3   OH219547   1.506   0.889   0.601  0.0060 -0.6211 -0.0282
 6514TIP3    H119548   1.421   0.846   0.593 -0.3845 -0.4205  2.2627
 6514TIP3    H219549   1.485   0.978   0.631  0.9295  0.3187 -2.0348
 6515TIP3   OH219550   5.802   2.350   5.085 -0.3143 -0.1842  0.6148
 6515TIP3    H119551   5.723   2.296   5.083  0.3386 -1.2391 -2.3857
 6515TIP3    H219552   5.870   2.293   5.119  0.1502 -1.0356 -1.5739
 6516TIP3   OH219553   3.947   2.250   2.741  0.4827 -0.0831 -0.1408
 6516TIP3    H119554   4.024   2.238   2.686 -0.0749  1.5629 -1.3208
 6516TIP3    H219555   3.900   2.323   2.702 -0.5754  0.3482  1.8157
 6517TIP3   OH219556   2.327   3.473   0.742 -0.1178  0.6072  0.9569
 6517TIP3    H119557   2.263   3.403   0.740  1.6848 -1.1286 -0.3631
 6517TIP3    H219558   2.354   3.484   0.651  1.8937  0.7999  1.5089
 6518TIP3   OH219559   5.129   0.885   0.285 -0.2672  0.3308  0.4400
 6518TIP3    H119560   5.034   0.881   0.271 -0.5326 -1.4318  2.3694
 6518TIP3    H219561   5.166   0.839   0.210 -1.0423 -0.3028  0.4312
 6519TIP3   OH219562   2.806   0.467   1.162 -0.8188  0.1160  0.4838
 6519TIP3    H119563   2.792   0.516   1.081 -1.5177  0.2348  0.6722
 6519TIP3    H219564   2.862   0.393   1.136 -0.7005  0.3783 -0.0223
 6520TIP3   OH219565   3.503   3.786   5.166  0.5280 -0.2355  0.2914
 6520TIP3    H119566   3.536   3.809   5.079 -1.2310 -0.4973 -0.4865
 6520TIP3    H219567   3.582   3.773   5.219  1.6347  0.0117 -1.2304
 6521TIP3   OH219568   5.950   4.503   2.038  0.5182  0.1240 -0.1388
 6521TIP3    H119569   5.955   4.431   2.100  1.2270  1.6165  1.6474
 6521TIP3    H219570   5.913   4.465   1.959 -2.8196 -1.4015  1.9328
 6522TIP3   OH219571   3.069   2.320   2.512  0.2915  0.0909  0.1051
 6522TIP3    H119572   3.095   2.265   2.438 -2.1230 -0.3939 -0.4598
 6522TIP3    H219573   3.110   2.279   2.588 -0.6227 -1.9171 -0.4299
 6523TIP3   OH219574   5.384   2.294   1.938  0.1566 -0.0708  0.0707
 6523TIP3    H119575   5.333   2.357   1.886 -2.0157 -0.0898  1.9969
 6523TIP3    H219576   5.472   2.331   1.941 -1.1229  3.2085  1.4945
 6524TIP3   OH219577   2.207  -0.029   1.963  0.8164  0.0681 -0.5717
 6524TIP3    H119578   2.115  -0.008   1.979  0.4734 -0.4587 -1.7627
 6524TIP3    H219579   2.245   0.051   1.928  0.4030 -0.1785 -1.6197
 6525TIP3   OH219580   2.227   2.712   2.481 -0.2423  0.4617 -0.1588
 6525TIP3    H119581   2.297   2.769   2.511  0.4783 -1.4243  2.0171
 6525TIP3    H219582   2.242   2.629   2.525 -2.1861 -0.9446 -1.9066
 6526TIP3   OH219583   5.191   1.658   1.625 -0.4199  0.0244 -0.3769
 6526TIP3    H119584   5.239   1.738   1.649  0.1698 -0.0856 -1.1421
 6526TIP3    H219585   5.245   1.618   1.557 -0.3611 -1.3773  0.4524
 6527TIP3   OH219586   2.145   1.152   3.360  0.2890 -1.0752  0.2666
 6527TIP3    H119587   2.152   1.128   3.268 -0.6141 -0.9942  0.1670
 6527TIP3    H219588   2.075   1.097   3.395 -1.6562  1.1130  0.0891
 6528TIP3   OH219589   2.938   1.118   3.916 -0.2069 -0.2174 -0.2013
 6528TIP3    H119590   2.918   1.050   3.980 -0.2265  1.0824  1.2297
 6528TIP3    H219591   2.857   1.169   3.909  0.3034  0.6390 -0.0041
 6529TIP3   OH219592   5.376   3.331   4.209 -0.4737  0.3270  0.5126
 6529TIP3    H119593   5.404   3.242   4.187  0.2096  0.3959  1.0646
 6529TIP3    H219594   5.331   3.322   4.293 -0.5566  0.4756  0.4838
 6530TIP3   OH219595   1.715   2.789   0.202  0.2338  0.0101 -0.3270
 6530TIP3    H119596   1.773   2.780   0.277 -1.7461 -1.1884  1.1416
 6530TIP3    H219597   1.666   2.870   0.219  0.5326  0.3190 -0.8988
 6531TIP3   OH219598   0.929   5.113   2.967  0.3576 -0.2918  0.0924
 6531TIP3    H119599   0.985   5.042   2.998  0.2656 -0.9164 -1.0870
 6531TIP3    H219600   0.846   5.099   3.012  0.6378 -0.3535  0.5963
 6532TIP3   OH219601   3.050   5.272   4.389 -0.2341 -0.1526 -0.3507
 6532TIP3    H119602   2.985   5.294   4.322 -1.6048  0.7345  1.2034
 6532TIP3    H219603   3.003   5.215   4.450  0.7299 -0.2268  0.3357
 6533TIP3   OH219604   2.023   0.475   3.581  0.1898  0.8011 -0.1449
 6533TIP3    H119605   2.087   0.406   3.598  0.5957  0.2095 -3.4767
 6533TIP3    H219606   1.978   0.487   3.665  1.6173 -1.9003  1.1320
 6534TIP3   OH219607   0.177   3.337   0.076  0.2280  0.0829  0.2330
 6534TIP3    H119608   0.102   3.396   0.072  0.0515 -0.0961  0.8186
 6534TIP3    H219609   0.204   3.339   0.167 -0.2022 -1.2709  0.4050
 6535TIP3   OH219610   6.019   5.607   5.136  0.0593 -0.3150 -0.4517
 6535TIP3    H119611   6.068   5.685   5.160 -0.6848  0.3092 -0.9349
 6535TIP3    H219612   5.950   5.600   5.202 -0.5526  0.0768 -1.0395
 6536TIP3   OH219613   2.646   3.581   4.411  0.3818  0.0350 -0.6081
 6536TIP3    H119614   2.576   3.550   4.354 -1.3530  1.3385  0.7088
 6536TIP3    H219615   2.726   3.542   4.375 -1.1697 -2.7966 -1.2394
 6537TIP3   OH219616   5.872   1.775   0.845 -0.1908  0.0624  0.1993
 6537TIP3    H119617   5.905   1.760   0.934  0.4565  0.7784  0.0936
 6537TIP3    H219618   5.782   1.742   0.847 -0.5875  1.1435  1.4544
 6538TIP3   OH219619   0.803   5.730   1.743  0.2570 -0.4920 -0.2869
 6538TIP3    H119620   0.719   5.689   1.761  0.7400 -0.8939  1.2314
 6538TIP3    H219621   0.788   5.824   1.755  0.1846 -0.6263  0.8187
 6539TIP3   OH219622   0.087   3.175   5.170  0.2153 -0.1772 -0.3111
 6539TIP3    H119623   0.014   3.234   5.187  0.3159 -0.3529  0.8543
 6539TIP3    H219624   0.071   3.139   5.083 -2.2482 -1.8340  0.7031
 6540TIP3   OH219625   1.712   1.959   4.932  0.6098 -0.3105  0.0292
 6540TIP3    H119626   1.688   1.933   5.022 -1.6102 -0.2495 -0.4685
 6540TIP3    H219627   1.731   2.052   4.939 -1.0530  0.0518  0.2381
 6541TIP3   OH219628   4.652   1.736   0.555 -0.2398 -0.1275 -0.1203
 6541TIP3    H119629   4.747   1.726   0.550 -0.1543  0.9787 -1.4781
 6541TIP3    H219630   4.623   1.662   0.608  1.2200 -1.4048 -1.0122
 6542TIP3   OH219631   2.411   3.825   0.196  0.2520 -0.1655 -0.4285
 6542TIP3    H119632   2.323   3.796   0.222  0.8692  0.2615  2.4241
 6542TIP3    H219633   2.406   3.920   0.197  0.6465 -0.1393 -0.7785
 6543TIP3   OH219634   0.552   2.865   4.219 -0.4884  0.4761 -0.2704
 6543TIP3    H119635   0.581   2.828   4.302 -0.3602  1.4773  0.1331
 6543TIP3    H219636   0.629   2.907   4.182 -1.2126  2.6221  0.5248
 6544TIP3   OH219637   6.133   5.369   3.596 -0.4580 -0.1232  0.1678
 6544TIP3    H119638   6.215   5.396   3.554 -0.8092 -0.3291 -0.6710
 6544TIP3    H219639   6.091   5.450   3.623 -0.0394 -0.0105  0.4926
 6545TIP3   OH219640   3.573   5.673   1.453  0.2361  0.6113 -0.2117
 6545TIP3    H119641   3.492   5.647   1.497  0.6977  0.4434  0.5612
 6545TIP3    H219642   3.604   5.592   1.410  0.5483  0.4087  0.3888
 6546TIP3   OH219643   2.963   0.520   4.526 -0.0194 -0.7631  0.1006
 6546TIP3    H119644   3.047   0.520   4.480 -0.4223 -1.4708 -0.6612
 6546TIP3    H219645   2.978   0.463   4.602  0.5039  0.0107  0.5900
 6547TIP3   OH219646   6.203   2.186   5.007  0.0140 -0.1892  0.4436
 6547TIP3    H119647   6.188   2.190   5.101 -0.8574  1.0931  0.2655
 6547TIP3    H219648   6.125   2.144   4.971 -0.1575  0.3390  0.1871
 6548TIP3   OH219649   5.833   2.355   2.401 -0.4248  0.4400 -0.2554
 6548TIP3    H119650   5.782   2.284   2.440  0.1000 -0.1808 -0.6664
 6548TIP3    H219651   5.844   2.419   2.471 -0.0604 -0.3517  0.4259
 6549TIP3   OH219652   1.689   2.495   1.480 -0.0311  0.6799 -0.5661
 6549TIP3    H119653   1.722   2.569   1.532  1.3430 -0.0181 -0.4069
 6549TIP3    H219654   1.674   2.532   1.393 -0.6935  1.4541 -0.1454
 6550TIP3   OH219655   0.775   5.060   1.536  0.8606  0.2471 -0.1279
 6550TIP3    H119656   0.783   5.115   1.615 -3.5258  1.5771 -0.3510
 6550TIP3    H219657   0.782   5.122   1.463  0.4923 -0.2636 -0.5987
 6551TIP3   OH219658   0.258   4.200   4.525 -0.4545  0.1016 -0.3157
 6551TIP3    H119659   0.293   4.128   4.472  1.3566  0.0600  0.8535
 6551TIP3    H219660   0.317   4.273   4.507 -0.1375  0.2491  1.1812
 6552TIP3   OH219661   1.949   3.997   3.491 -0.6623  0.3233 -0.1607
 6552TIP3    H119662   2.038   3.995   3.526 -0.3396  0.2211 -0.9652
 6552TIP3    H219663   1.949   4.072   3.431 -1.0223  0.1211 -0.4170
 6553TIP3   OH219664   2.811   1.315   3.187  0.2003 -0.0371 -0.6117
 6553TIP3    H119665   2.761   1.316   3.105 -0.1610  0.0937 -0.3890
 6553TIP3    H219666   2.886   1.371   3.169 -0.0666  0.2837 -0.7342
 6554TIP3   OH219667   0.073   3.892   3.289 -0.2124  0.4174  0.3933
 6554TIP3    H119668   0.093   3.945   3.366  1.1389  0.1029  0.2850
 6554TIP3    H219669   0.109   3.941   3.216 -1.1652  0.5339 -0.0134
 6555TIP3   OH219670   3.138   0.377   4.677  0.0419  0.0126  0.3187
 6555TIP3    H119671   3.104   0.341   4.760  0.2497  2.5173  1.5857
 6555TIP3    H219672   3.231   0.393   4.694  0.2416 -0.0734 -0.6489
 6556TIP3   OH219673   5.425   3.347   0.912 -0.3079 -0.8577  0.0003
 6556TIP3    H119674   5.381   3.268   0.880 -0.6727 -0.1992 -1.1750
 6556TIP3    H219675   5.482   3.374   0.840 -0.9049  0.4840  0.0071
 6557TIP3   OH219676   2.555   2.179   1.478  0.0502 -0.6221  0.6916
 6557TIP3    H119677   2.630   2.225   1.441 -0.3828  0.5514  1.2035
 6557TIP3    H219678   2.540   2.105   1.420  0.8446 -0.1717 -0.1047
 6558TIP3   OH219679   0.295   0.693   2.541 -0.0689  0.6500 -0.0543
 6558TIP3    H119680   0.377   0.709   2.588 -0.8986  1.8999  1.0484
 6558TIP3    H219681   0.227   0.704   2.607 -1.0936 -2.7720 -0.3382
 6559TIP3   OH219682   5.254   2.896   2.791 -0.5352  0.1187 -0.2876
 6559TIP3    H119683   5.183   2.949   2.757 -0.7362  0.7235  1.0131
 6559TIP3    H219684   5.257   2.916   2.884 -0.4639 -1.9862  0.2225
 6560TIP3   OH219685   5.408   0.512   0.114  0.6521 -0.3167  0.3032
 6560TIP3    H119686   5.504   0.509   0.116  0.6610 -0.0147  0.3726
 6560TIP3    H219687   5.382   0.425   0.086  0.9988 -0.0167 -1.0426
 6561TIP3   OH219688   0.431   0.944   0.933 -0.2514  0.3755 -0.2260
 6561TIP3    H119689   0.421   1.026   0.885 -0.7804 -0.1713 -1.0703
 6561TIP3    H219690   0.444   0.877   0.866  0.9022 -0.1485  0.4803
 6562TIP3   OH219691   1.683   0.551   3.609  0.1345 -0.1553 -0.2632
 6562TIP3    H119692   1.720   0.465   3.631 -0.2825 -1.7394 -4.6129
 6562TIP3    H219693   1.602   0.557   3.659  1.0391 -1.4706  1.4362
 6563TIP3   OH219694   0.094   1.973   3.492  0.3914 -0.6436  0.6388
 6563TIP3    H119695   0.078   1.961   3.398  1.7421 -0.8477  0.4124
 6563TIP3    H219696   0.187   1.956   3.502  0.3801 -0.0060  1.9305
 6564TIP3   OH219697   2.397   1.928   4.190  0.2866 -0.4351  0.5069
 6564TIP3    H119698   2.428   2.013   4.162  0.5448 -0.4419  0.7674
 6564TIP3    H219699   2.303   1.930   4.174  0.2458  0.0085  0.7926
 6565TIP3   OH219700   0.893   5.708   3.180  0.2767 -0.2925 -0.0360
 6565TIP3    H119701   0.861   5.743   3.264 -2.3789 -1.4345 -0.4933
 6565TIP3    H219702   0.921   5.619   3.200  1.4404  0.0586 -0.0309
 6566TIP3   OH219703   4.209   4.564   1.602 -0.2062 -0.0388  0.2000
 6566TIP3    H119704   4.283   4.505   1.587 -0.2129 -0.0973  0.3989
 6566TIP3    H219705   4.156   4.520   1.668 -0.7226 -0.2687 -0.3577
 6567TIP3   OH219706   5.496   5.089   3.393  0.5616 -0.2334 -0.0270
 6567TIP3    H119707   5.502   5.069   3.487 -1.4608  0.9578  0.4109
 6567TIP3    H219708   5.531   5.010   3.350 -0.0448 -1.5204  1.7006
 6568TIP3   OH219709   2.371   1.810   2.065 -0.0123  0.0166  0.3774
 6568TIP3    H119710   2.386   1.829   1.972  0.1268  0.7319  0.5366
 6568TIP3    H219711   2.287   1.763   2.067 -0.7463  1.2437 -0.0001
 6569TIP3   OH219712   0.783   4.226   2.862 -0.0039  0.1112 -0.1951
 6569TIP3    H119713   0.805   4.196   2.950 -1.0311  0.0335  0.0428
 6569TIP3    H219714   0.859   4.200   2.809  0.4358 -0.2224  0.5753
 6570TIP3   OH219715   1.768   1.340   1.122  0.3932  0.6135  0.2813
 6570TIP3    H119716   1.681   1.356   1.159  0.6755  0.3289  1.0875
 6570TIP3    H219717   1.825   1.335   1.198  0.6247 -2.5537  0.0249
 6571TIP3   OH219718   5.558   1.780   2.187 -0.8291  0.5033  0.0261
 6571TIP3    H119719   5.637   1.729   2.204 -1.0508 -0.1122 -0.7090
 6571TIP3    H219720   5.586   1.844   2.122 -0.8019  0.6406  0.1738
 6572TIP3   OH219721   2.684   0.708   5.016  0.0216 -0.0674 -0.1973
 6572TIP3    H119722   2.694   0.786   4.962 -4.7547  0.2227 -1.1202
 6572TIP3    H219723   2.677   0.636   4.952 -1.0469 -0.3990  0.2733
 6573TIP3   OH219724   1.134   1.655   4.674  0.4474 -0.0051  0.4282
 6573TIP3    H119725   1.148   1.571   4.718 -3.1839 -0.9410  0.1130
 6573TIP3    H219726   1.151   1.721   4.742  2.7668 -0.9504  0.8467
 6574TIP3   OH219727   0.059   2.049   4.361 -0.0993  0.3281 -0.4445
 6574TIP3    H119728   0.093   2.116   4.421  0.2302  1.1602 -1.5332
 6574TIP3    H219729   0.133   1.990   4.348 -0.2966 -0.0926  0.2737
 6575TIP3   OH219730   4.986   2.768   0.449  0.2195 -0.4800  0.2321
 6575TIP3    H119731   5.067   2.766   0.500  0.4703 -0.5578 -0.1665
 6575TIP3    H219732   4.997   2.843   0.390 -0.5649  0.3408  1.0927
 6576TIP3   OH219733   6.355   3.820   0.450 -0.1067 -0.0568 -0.2553
 6576TIP3    H119734   6.278   3.877   0.445  0.1044  0.1862 -0.7876
 6576TIP3    H219735   6.325   3.737   0.412 -1.3955 -1.4486  3.3471
 6577TIP3   OH219736   5.625   1.705   0.193 -0.3942 -0.1630  0.7718
 6577TIP3    H119737   5.595   1.761   0.264  0.6759  3.0337 -1.0631
 6577TIP3    H219738   5.573   1.626   0.201 -0.8980  0.3597  4.5452
 6578TIP3   OH219739   3.197   5.034   4.433  0.1002  0.2628 -0.3149
 6578TIP3    H119740   3.150   5.111   4.400 -0.0599  0.3197  0.0476
 6578TIP3    H219741   3.289   5.052   4.412 -0.0743 -0.0306 -1.3860
 6579TIP3   OH219742   6.166   0.360   2.993 -0.1744  0.9152  0.4792
 6579TIP3    H119743   6.151   0.443   2.949  1.3986 -0.1977 -2.4473
 6579TIP3    H219744   6.227   0.380   3.063  0.1020  2.2411 -0.1224
 6580TIP3   OH219745   5.937   3.801   2.094 -0.6045 -0.1276 -0.0549
 6580TIP3    H119746   5.868   3.735   2.102  0.8692 -1.6739  0.5592
 6580TIP3    H219747   6.014   3.752   2.066  0.8416  1.1217  1.5114
 6581TIP3   OH219748   1.207   0.506   4.888 -0.0734  0.1610 -0.2272
 6581TIP3    H119749   1.138   0.541   4.945 -1.1320  0.0885 -1.4329
 6581TIP3    H219750   1.285   0.558   4.910 -0.9721  1.5315 -0.1528
 6582TIP3   OH219751   5.718   2.010   4.752  0.5955  0.2292  0.2242
 6582TIP3    H119752   5.641   2.047   4.708 -0.0243 -1.3233 -0.0801
 6582TIP3    H219753   5.683   1.970   4.831  0.3322 -3.7925 -1.6804
 6583TIP3   OH219754   3.229   4.558   0.564 -0.2636  0.2029  0.4221
 6583TIP3    H119755   3.189   4.487   0.514 -0.2206  1.3660 -1.3482
 6583TIP3    H219756   3.265   4.515   0.641 -3.1939 -1.1781  1.1624
 6584TIP3   OH219757   4.914   4.716   5.141 -0.1416 -0.1115 -0.1068
 6584TIP3    H119758   4.913   4.730   5.236 -1.2576  0.3549 -0.1685
 6584TIP3    H219759   4.827   4.680   5.122  0.6249 -1.6769 -0.7534
 6585TIP3   OH219760   4.872   3.048   3.928 -0.1573  0.6322 -0.4076
 6585TIP3    H119761   4.870   3.137   3.965  1.2146  0.2181  0.7843
 6585TIP3    H219762   4.964   3.036   3.902 -0.5575 -0.0635 -1.5643
 6586TIP3   OH219763   2.126   0.230   4.691  0.3791 -0.5880 -0.4710
 6586TIP3    H119764   2.102   0.301   4.751 -3.3074 -1.0117 -1.2038
 6586TIP3    H219765   2.175   0.272   4.621 -0.3952  0.9721 -0.1034
 6587TIP3   OH219766   2.129   4.768   3.966 -0.1004  0.1819  0.5757
 6587TIP3    H119767   2.148   4.861   3.979 -0.6182  0.1745  1.4461
 6587TIP3    H219768   2.039   4.766   3.937  0.2449  0.0127 -0.5107
 6588TIP3   OH219769   3.344   4.372   3.730 -0.4808  0.0297  0.1554
 6588TIP3    H119770   3.297   4.289   3.731  1.3592 -1.0853  1.1223
 6588TIP3    H219771   3.286   4.433   3.685 -2.0837 -1.6583 -0.1685
 6589TIP3   OH219772   0.917   1.617   2.996  0.1179  0.2880  0.0998
 6589TIP3    H119773   0.994   1.587   2.949  0.1384  0.6550 -0.1113
 6589TIP3    H219774   0.949   1.642   3.082  0.2444  0.4663  0.0028
 6590TIP3   OH219775   2.729   5.212   3.683 -0.3075  0.1803  0.2766
 6590TIP3    H119776   2.779   5.167   3.752  0.6074  0.5997 -0.0956
 6590TIP3    H219777   2.667   5.146   3.651 -3.5754  0.9855  4.1184
 6591TIP3   OH219778   4.849   1.962   3.634 -0.4999  0.1264 -0.5648
 6591TIP3    H119779   4.776   1.949   3.693  1.1679  0.9790  1.8307
 6591TIP3    H219780   4.851   1.882   3.580 -2.1335 -0.6423  0.4606
 6592TIP3   OH219781   4.030   4.133   0.752  0.1131  0.0328 -0.1871
 6592TIP3    H119782   4.088   4.209   0.756  0.7949 -0.4641 -0.3454
 6592TIP3    H219783   4.060   4.085   0.675 -1.6553  0.6543 -1.3243
 6593TIP3   OH219784   4.213   4.011   4.518 -0.1291  0.2427 -0.0653
 6593TIP3    H119785   4.298   4.003   4.473 -1.6416 -2.4784 -2.7690
 6593TIP3    H219786   4.176   3.923   4.516 -2.3823  0.9856  2.5483
 6594TIP3   OH219787   5.602   0.811   2.880  0.2616 -0.1275  0.3172
 6594TIP3    H119788   5.631   0.764   2.802 -0.4165 -1.0005  0.5820
 6594TIP3    H219789   5.512   0.783   2.894  0.1344  0.5684  1.0088
 6595TIP3   OH219790   2.660   3.044   4.339 -0.5725 -0.1863  0.0643
 6595TIP3    H119791   2.723   3.007   4.276 -1.1849  0.2538 -0.8228
 6595TIP3    H219792   2.582   2.991   4.329 -0.6225 -0.2082  0.5673
 6596TIP3   OH219793   5.290   5.340   4.740 -0.1101  0.2755  0.1962
 6596TIP3    H119794   5.236   5.406   4.698 -0.8236 -0.0097  0.6468
 6596TIP3    H219795   5.355   5.390   4.790 -0.5759  0.6312  0.4492
 6597TIP3   OH219796   3.712   1.714   0.571  0.0866  0.1158 -0.0041
 6597TIP3    H119797   3.710   1.690   0.664 -0.1686  1.2035  0.2771
 6597TIP3    H219798   3.787   1.774   0.564 -0.0749  0.2656 -0.4480
 6598TIP3   OH219799   5.011   3.800   0.175  0.3025 -0.2775 -0.1148
 6598TIP3    H119800   5.049   3.861   0.112  0.4981  0.6126  0.8378
 6598TIP3    H219801   5.086   3.749   0.207  0.1650 -0.9058 -0.7840
 6599TIP3   OH219802   1.319   5.513   4.753  0.2481 -0.0699  0.5864
 6599TIP3    H119803   1.281   5.507   4.666 -0.1113 -0.9299  0.7938
 6599TIP3    H219804   1.246   5.537   4.809  0.5003  0.5856  0.6396
 6600TIP3   OH219805   0.366   4.423   4.028 -0.3034  0.3696  0.4054
 6600TIP3    H119806   0.298   4.389   3.969 -0.1350 -0.1422  0.4994
 6600TIP3    H219807   0.431   4.353   4.033  1.3029  1.6382 -1.3399
 6601TIP3   OH219808   1.830   2.129   2.887  0.0838 -0.1207 -0.6592
 6601TIP3    H119809   1.754   2.106   2.833  0.9774 -0.0909 -1.9910
 6601TIP3    H219810   1.804   2.209   2.933 -0.7418 -0.1911 -0.9835
 6602TIP3   OH219811   3.598   2.268   1.549  0.2271  0.0003 -0.5341
 6602TIP3    H119812   3.631   2.299   1.633  3.5178  0.6687 -1.8794
 6602TIP3    H219813   3.552   2.187   1.569 -0.4027  0.9138  2.0347
 6603TIP3   OH219814   4.865   2.950   3.496 -0.3062  0.4666 -0.3066
 6603TIP3    H119815   4.793   2.934   3.558 -2.0709  1.7281 -1.9144
 6603TIP3    H219816   4.846   2.894   3.422  0.0284  1.2478 -0.9964
 6604TIP3   OH219817   6.285   1.681   3.619  0.3857 -0.4641 -0.1443
 6604TIP3    H119818   6.295   1.685   3.524 -0.6280  0.7757 -0.2304
 6604TIP3    H219819   6.365   1.639   3.650  1.3965  0.4239 -1.4330
 6605TIP3   OH219820   4.331   4.008   0.747 -0.7029 -0.2019  0.1311
 6605TIP3    H119821   4.421   3.977   0.746 -0.0149  1.5902  1.5975
 6605TIP3    H219822   4.279   3.931   0.724  1.2301 -1.0379 -1.6816
 6606TIP3   OH219823   0.510   3.436   0.515 -0.5568 -0.2130  0.0829
 6606TIP3    H119824   0.559   3.470   0.589 -0.9541 -0.7446  0.5967
 6606TIP3    H219825   0.430   3.487   0.513 -1.1641 -1.1033  0.8688
 6607TIP3   OH219826   4.454   0.304   3.053  0.0841  0.4022 -0.1471
 6607TIP3    H119827   4.451   0.229   3.113 -0.1005  2.1222  2.1231
 6607TIP3    H219828   4.433   0.267   2.967 -2.1003 -1.8427  1.2176
 6608TIP3   OH219829   2.272   0.439   4.574  0.0566 -0.5696  0.3922
 6608TIP3    H119830   2.312   0.438   4.487  0.3787  3.2026  0.3149
 6608TIP3    H219831   2.343   0.469   4.632 -1.0842  0.5425  1.2657
 6609TIP3   OH219832   1.731   2.086   1.011 -0.3402 -0.5188  0.0973
 6609TIP3    H119833   1.709   2.058   1.100 -0.5153 -0.6478  0.0146
 6609TIP3    H219834   1.646   2.094   0.967 -0.2118 -1.2713 -0.3005
 6610TIP3   OH219835   1.972   2.888   0.337 -0.2800  0.0968 -0.3073
 6610TIP3    H119836   2.061   2.863   0.361 -1.0418 -1.8407  0.6446
 6610TIP3    H219837   1.922   2.884   0.419 -1.9141 -2.0632 -1.2984
 6611TIP3   OH219838   3.960   2.339   1.586  0.0683  0.4531 -0.2515
 6611TIP3    H119839   4.050   2.311   1.601 -0.5552 -1.5688  0.0564
 6611TIP3    H219840   3.951   2.421   1.636  1.0820 -0.5494  1.7085
 6612TIP3   OH219841   4.863   2.336   0.205  0.0929  0.1018 -0.2375
 6612TIP3    H119842   4.780   2.352   0.160  1.1829  0.6905 -2.1458
 6612TIP3    H219843   4.930   2.364   0.143  1.7417 -0.4158  1.2244
 6613TIP3   OH219844   1.740   5.155   0.017 -0.5267 -0.7498  0.1851
 6613TIP3    H119845   1.680   5.082  -0.004 -1.2265 -0.5438  1.3636
 6613TIP3    H219846   1.776   5.132   0.102  0.4668 -0.4658 -0.1538
 6614TIP3   OH219847   4.864   4.920   4.429 -0.4960  0.0808  0.5399
 6614TIP3    H119848   4.807   4.867   4.484  0.8323 -1.5336  0.4141
 6614TIP3    H219849   4.915   4.972   4.491 -0.2958 -0.3783  0.7656
 6615TIP3   OH219850   1.807   3.226   1.040  0.2725  0.2645  0.3330
 6615TIP3    H119851   1.734   3.191   1.090 -1.1700  1.1052 -1.0919
 6615TIP3    H219852   1.831   3.307   1.085 -1.3219  1.2623 -0.4911
 6616TIP3   OH219853   0.848   0.822   2.510 -0.2134 -0.0895  0.2568
 6616TIP3    H119854   0.873   0.878   2.437  0.6169  0.2271  0.7773
 6616TIP3    H219855   0.930   0.792   2.548 -0.5062  1.5469  2.4414
 6617TIP3   OH219856   5.056   2.752   0.868  0.0469  0.2240 -0.1959
 6617TIP3    H119857   5.114   2.729   0.796 -0.2727  1.8133 -1.0005
 6617TIP3    H219858   4.975   2.706   0.849  1.1175 -2.5229  1.2596
 6618TIP3   OH219859   4.280   3.130   3.186  0.7949  0.3999 -0.1434
 6618TIP3    H119860   4.256   3.066   3.253  1.1177 -0.2838 -0.6642
 6618TIP3    H219861   4.271   3.082   3.103 -0.0055  1.3511 -0.6258
 6619TIP3   OH219862   4.030   4.350   2.556  0.0949  0.5111 -0.2555
 6619TIP3    H119863   4.096   4.393   2.501  0.4310  1.1056  0.5857
 6619TIP3    H219864   4.078   4.325   2.635  0.0490 -1.9773 -0.9332
 6620TIP3   OH219865   1.099   0.238   3.542 -0.0212 -0.1731  0.4436
 6620TIP3    H119866   1.041   0.228   3.466  1.0773  3.3495 -1.0576
 6620TIP3    H219867   1.047   0.286   3.606  0.2106  0.1034  0.4244
 6621TIP3   OH219868   2.696   1.165   0.561  0.4576 -0.5005  0.2613
 6621TIP3    H119869   2.737   1.191   0.478  1.1350  0.7488  0.9524
 6621TIP3    H219870   2.756   1.101   0.599  1.0980  0.2826  0.6117
 6622TIP3   OH219871   5.730   5.358   0.019  0.4820  0.0388 -0.3640
 6622TIP3    H119872   5.666   5.347  -0.051 -0.6555  0.4246  0.5774
 6622TIP3    H219873   5.762   5.270   0.036 -1.8404 -0.6439  0.9633
 6623TIP3   OH219874   0.449   0.676   2.018  0.8332  0.3701 -0.2285
 6623TIP3    H119875   0.479   0.585   2.022  1.8388  0.6912 -0.2029
 6623TIP3    H219876   0.356   0.670   2.000  0.7009 -0.6891  0.7435
 6624TIP3   OH219877   2.805   4.783   2.952 -0.1032 -0.3513 -0.1141
 6624TIP3    H119878   2.819   4.689   2.949 -3.0028 -0.9086  0.2985
 6624TIP3    H219879   2.873   4.820   2.896  1.9709 -2.5307  0.8381
 6625TIP3   OH219880   5.358   4.820   5.153 -0.0753 -0.1472 -0.4803
 6625TIP3    H119881   5.372   4.776   5.069 -0.7397  0.5720 -0.9765
 6625TIP3    H219882   5.415   4.897   5.149 -0.3494  0.0611 -0.4104
 6626TIP3   OH219883   2.553   0.803   4.718 -0.1114  0.5445  1.2673
 6626TIP3    H119884   2.635   0.760   4.694 -1.3967 -1.6133  0.3614
 6626TIP3    H219885   2.519   0.838   4.635 -1.0934 -0.4915  1.2000
 6627TIP3   OH219886   6.269   3.653   5.050  0.0780  0.3349 -0.2990
 6627TIP3    H119887   6.181   3.629   5.080  0.1447 -0.1554 -0.4852
 6627TIP3    H219888   6.264   3.647   4.954 -0.1955  2.0985 -0.4180
 6628TIP3   OH219889   3.752   1.582   2.798  0.3487  0.4255 -0.3393
 6628TIP3    H119890   3.840   1.557   2.827  0.6427  0.0832 -1.4770
 6628TIP3    H219891   3.756   1.574   2.703 -0.6142  1.3984 -0.4705
 6629TIP3   OH219892   4.264   1.920   3.914 -0.0561 -0.0365 -0.0951
 6629TIP3    H119893   4.271   1.827   3.937  0.8307  0.1208  0.3085
 6629TIP3    H219894   4.283   1.923   3.821  1.7335 -0.0615  0.2468
 6630TIP3   OH219895   0.957   3.560   1.113  0.6009  0.6648  0.2985
 6630TIP3    H119896   0.977   3.629   1.049 -0.9703  0.0407 -0.9275
 6630TIP3    H219897   0.973   3.479   1.065  1.0170  0.1713  1.2605
 6631TIP3   OH219898   2.967   3.997   2.118  0.1778  0.2488  0.0060
 6631TIP3    H119899   2.928   3.912   2.096  0.4040  0.1891 -0.1655
 6631TIP3    H219900   3.041   3.974   2.174  0.7163  0.2840 -0.6878
 6632TIP3   OH219901   5.923   5.982   2.850 -0.7691  0.7592  0.7433
 6632TIP3    H119902   5.903   5.949   2.938 -1.3734  0.6349  0.5660
 6632TIP3    H219903   5.842   6.026   2.823 -0.1192  2.0425  0.8170
 6633TIP3   OH219904   1.277   4.077   3.293  0.3646  0.0664  0.1434
 6633TIP3    H119905   1.281   4.132   3.371  0.0524 -2.3832  1.9938
 6633TIP3    H219906   1.367   4.073   3.261  0.5296  0.9252  0.4672
 6634TIP3   OH219907   3.380   2.997   0.877 -0.6697  0.5043 -0.2074
 6634TIP3    H119908   3.475   2.994   0.875 -0.6838 -2.0074 -2.0111
 6634TIP3    H219909   3.356   3.073   0.825  0.3257  1.5337  0.8044
 6635TIP3   OH219910   3.577   4.568   5.209 -0.5743 -0.6430 -0.2845
 6635TIP3    H119911   3.534   4.601   5.131  0.9822 -0.3259 -1.0416
 6635TIP3    H219912   3.661   4.613   5.212  0.0040 -1.7176  0.7744
 6636TIP3   OH219913   2.658   5.460   4.220  0.3207  0.0284  0.3231
 6636TIP3    H119914   2.658   5.506   4.136 -1.0626  0.0335  0.2914
 6636TIP3    H219915   2.565   5.452   4.242  0.6576  0.0234  1.8549
 6637TIP3   OH219916   6.286   2.351   2.090  0.2145  0.3730  0.4771
 6637TIP3    H119917   6.263   2.258   2.087  0.2188  0.3648  0.7112
 6637TIP3    H219918   6.338   2.360   2.170  0.9958  0.3938 -0.0226
 6638TIP3   OH219919   6.264   0.804   0.032  0.3907  0.4502 -0.0221
 6638TIP3    H119920   6.240   0.721  -0.008  0.5118  0.0809  0.6710
 6638TIP3    H219921   6.244   0.794   0.125  0.2784  1.2407  0.0518
 6639TIP3   OH219922   3.517   3.684   0.279  0.1386 -0.3867  0.4487
 6639TIP3    H119923   3.581   3.639   0.334  1.5552  2.3434  1.1872
 6639TIP3    H219924   3.565   3.708   0.200 -1.8080 -4.0572 -2.1561
 6640TIP3   OH219925   5.831   4.278   1.911  0.5098  0.3146  0.0337
 6640TIP3    H119926   5.917   4.238   1.911  0.7463  0.7774 -1.1492
 6640TIP3    H219927   5.772   4.209   1.883  0.9534  0.7979 -2.2628
 6641TIP3   OH219928   5.697   2.232   0.333  0.6129  0.6871 -0.2875
 6641TIP3    H119929   5.644   2.167   0.378  0.3712 -1.5773 -3.5241
 6641TIP3    H219930   5.648   2.253   0.254  1.8081  3.1165 -0.4934
 6642TIP3   OH219931   1.777   0.410   5.065 -0.0844 -0.3826 -0.2871
 6642TIP3    H119932   1.813   0.335   5.017 -0.1988  0.3970 -1.6252
 6642TIP3    H219933   1.785   0.385   5.157 -0.7646 -2.3518 -0.6988
 6643TIP3   OH219934   3.807   3.810   4.717  0.3639  0.3482 -0.7724
 6643TIP3    H119935   3.815   3.882   4.655  0.4362  0.5903 -0.4866
 6643TIP3    H219936   3.884   3.755   4.700  1.3861  1.3860  0.3309
 6644TIP3   OH219937   4.956   2.442   3.830  0.2295 -0.3023  0.2047
 6644TIP3    H119938   4.914   2.412   3.749  3.2526 -2.5274 -0.7284
 6644TIP3    H219939   4.986   2.361   3.872  2.1879  1.0303  1.5399
 6645TIP3   OH219940   2.480   3.918   1.418 -0.4944 -0.1465 -1.1094
 6645TIP3    H119941   2.418   3.848   1.441 -0.0056  0.0765  1.1216
 6645TIP3    H219942   2.447   3.995   1.463  2.0360 -0.3287  1.3157
   6.35123   5.98800   5.18576   0.00000   0.00000  -2.11709   0.00000  -2.11709  -2.99401
