Title
29212
    1ASP      N    1   2.182   4.115   4.507  0.1876  0.0529 -0.8804
    1ASP    HT1    2   2.280   4.100   4.476  0.7955  1.2992  0.3505
    1ASP    HT2    3   2.169   4.057   4.593  1.7381 -0.4914 -0.9836
    1ASP    HT3    4   2.185   4.213   4.541  0.9530 -0.3334  0.2438
    1ASP     CA    5   2.091   4.087   4.389  0.5621 -0.0306 -0.5601
    1ASP     HA    6   1.989   4.119   4.406  1.4010  2.1573  0.8182
    1ASP     CB    7   2.153   4.159   4.261  0.0022 -0.1862  0.1558
    1ASP    HB1    8   2.092   4.139   4.171  0.8006  1.1973 -0.7301
    1ASP    HB2    9   2.263   4.145   4.251  0.0064 -2.5809  2.3243
    1ASP     CG   10   2.130   4.306   4.277  0.7295  0.4062 -0.3978
    1ASP    OD1   11   2.066   4.346   4.376  0.0354  0.4079  0.2222
    1ASP    OD2   12   2.162   4.382   4.180  0.5008 -0.4242 -0.2566
    1ASP      C   13   2.089   3.934   4.360  0.0275 -1.0173 -0.2005
    1ASP      O   14   2.152   3.861   4.434 -0.5001 -0.1791  0.3205
    2GLY      N   15   2.008   3.894   4.262  0.4756 -0.1037 -0.1934
    2GLY     HN   16   1.952   3.963   4.216 -0.6053 -0.2227  0.8934
    2GLY     CA   17   2.020   3.767   4.195 -0.4484  0.0793 -0.0742
    2GLY    HA1   18   1.971   3.786   4.100  0.0740  0.1635 -0.3318
    2GLY    HA2   19   1.976   3.707   4.273 -1.4865  1.0788  0.1399
    2GLY      C   20   2.161   3.708   4.161 -0.3410  0.3701 -0.9742
    2GLY      O   21   2.268   3.772   4.155  0.0152 -0.6373  0.1878
    3ASP      N   22   2.162   3.574   4.140  1.2165 -0.5848  0.1003
    3ASP     HN   23   2.074   3.527   4.131  0.5513  0.3437  1.5311
    3ASP     CA   24   2.279   3.491   4.121 -0.2058 -0.1040  0.1695
    3ASP     HA   25   2.358   3.548   4.167 -1.7810 -0.7615  4.0744
    3ASP     CB   26   2.270   3.347   4.185  0.2629  0.4508 -0.1468
    3ASP    HB1   27   2.373   3.305   4.191  0.3994  0.7783 -0.1465
    3ASP    HB2   28   2.202   3.298   4.113 -1.6774  4.5212 -1.4239
    3ASP     CG   29   2.193   3.349   4.315 -0.2988  0.7703 -0.7863
    3ASP    OD1   30   2.131   3.248   4.360 -0.3293  0.0501  0.5551
    3ASP    OD2   31   2.228   3.445   4.389  0.1313 -0.2499 -0.0418
    3ASP      C   32   2.304   3.486   3.971 -0.2409 -0.6721  0.4929
    3ASP      O   33   2.216   3.482   3.888  0.4646 -0.2205 -0.4473
    4GLY      N   34   2.434   3.481   3.934  0.0112 -0.3818 -0.3298
    4GLY     HN   35   2.509   3.479   4.000  0.8582  0.3621 -1.2423
    4GLY     CA   36   2.485   3.480   3.796 -0.6051  0.3799  0.1155
    4GLY    HA1   37   2.449   3.571   3.750 -0.4120  0.4438  0.0937
    4GLY    HA2   38   2.447   3.391   3.748  0.3428 -0.6200  1.1578
    4GLY      C   39   2.634   3.475   3.796 -0.0057  0.0069 -0.1427
    4GLY      O   40   2.689   3.443   3.902  0.0111  0.4735  0.3761
    5PRO      N   41   2.687   3.510   3.678 -0.6012 -0.2625  0.3975
    5PRO     CD   42   2.617   3.570   3.567  0.9389  0.2549  0.4207
    5PRO    HD1   43   2.561   3.657   3.609 -1.4553 -2.1756  2.6944
    5PRO    HD2   44   2.543   3.496   3.531  0.2018  0.6453  1.1011
    5PRO     CA   45   2.833   3.534   3.665  0.5145 -0.3119 -0.4192
    5PRO     HA   46   2.868   3.435   3.639 -0.7391 -0.7043 -0.6793
    5PRO     CB   47   2.843   3.640   3.555  0.5517 -0.3593 -0.1170
    5PRO    HB1   48   2.942   3.639   3.505  0.2245  1.9837 -0.9624
    5PRO    HB2   49   2.835   3.738   3.606 -1.0951 -1.2993  1.5829
    5PRO     CG   50   2.721   3.613   3.461  0.2500 -0.0796  0.0578
    5PRO    HG1   51   2.699   3.700   3.395  1.1731 -1.3722 -2.0342
    5PRO    HG2   52   2.742   3.526   3.396  4.1015  0.8307 -0.1525
    5PRO      C   53   2.919   3.578   3.782  0.6446  0.4471  0.2733
    5PRO      O   54   2.893   3.678   3.848 -0.2586 -0.3463 -0.3488
    6GLY      N   55   3.038   3.509   3.802  0.5029  0.0771 -0.0311
    6GLY     HN   56   3.061   3.436   3.738  1.3997  0.4594 -0.1704
    6GLY     CA   57   3.125   3.551   3.910  0.4736  0.6926  0.3264
    6GLY    HA1   58   3.200   3.475   3.922  1.0988  1.3157  0.4014
    6GLY    HA2   59   3.061   3.552   3.997 -3.0656  1.8734 -2.0553
    6GLY      C   60   3.199   3.681   3.888  0.5545  0.4962  0.2845
    6GLY      O   61   3.213   3.723   3.771  0.0446 -0.0444 -0.0124
    7ASP      N   62   3.249   3.738   4.002 -0.2307  0.1819  0.1785
    7ASP     HN   63   3.233   3.696   4.091  1.5394 -0.3177  0.3018
    7ASP     CA   64   3.300   3.877   4.003  1.1080 -0.1767  0.7871
    7ASP     HA   65   3.244   3.927   3.925  0.7118 -1.6635  0.0817
    7ASP     CB   66   3.287   3.938   4.146 -0.3020 -0.8177 -0.2687
    7ASP    HB1   67   3.330   4.041   4.150 -1.2447 -0.4628  2.0867
    7ASP    HB2   68   3.336   3.875   4.224  1.3032  0.4872 -0.1492
    7ASP     CG   69   3.140   3.972   4.191  0.4876  0.1072 -0.2564
    7ASP    OD1   70   3.130   4.052   4.291 -0.1139  0.1048  0.4084
    7ASP    OD2   71   3.045   3.938   4.122  0.3777  0.3631  1.0355
    7ASP      C   72   3.446   3.873   3.952 -0.2031  0.2325 -0.3712
    7ASP      O   73   3.514   3.774   3.990 -0.1261  0.3647  0.1791
    8PRO      N   74   3.504   3.966   3.870  0.1456  0.1321 -0.2280
    8PRO     CD   75   3.438   4.089   3.822 -0.1161 -0.4114  0.3500
    8PRO    HD1   76   3.433   4.172   3.897 -0.4318 -1.8521  1.9884
    8PRO    HD2   77   3.334   4.078   3.786 -0.1353  1.7608 -0.3896
    8PRO     CA   78   3.632   3.950   3.799  0.1654  0.4507 -0.8681
    8PRO     HA   79   3.621   3.877   3.721  0.7529  1.1965 -1.6718
    8PRO     CB   80   3.661   4.093   3.747  0.1230 -0.2634 -0.9317
    8PRO    HB1   81   3.741   4.105   3.671 -0.5618  0.5967 -1.5410
    8PRO    HB2   82   3.688   4.159   3.833 -0.9312  0.1307 -0.8824
    8PRO     CG   83   3.522   4.133   3.703 -0.1487  0.0386  0.4752
    8PRO    HG1   84   3.515   4.242   3.682  0.1992  0.1178  0.7515
    8PRO    HG2   85   3.500   4.087   3.605 -0.4342  0.0140  0.5508
    8PRO      C   86   3.758   3.898   3.883  0.0262  0.1300 -0.3221
    8PRO      O   87   3.783   3.954   3.993 -0.0144  0.1099  0.1316
    9GLY      N   88   3.839   3.804   3.830  0.9756  0.0193  0.4657
    9GLY     HN   89   3.816   3.760   3.743  3.0393 -0.1167 -0.0728
    9GLY     CA   90   3.972   3.774   3.891 -0.2771 -0.6032 -0.1063
    9GLY    HA1   91   4.011   3.696   3.827  1.2526 -1.0850  1.3343
    9GLY    HA2   92   3.955   3.731   3.989  0.0906 -2.1399 -0.6789
    9GLY      C   93   4.068   3.887   3.909 -0.4163  0.3952  0.0776
    9GLY      O   94   4.037   4.002   3.888  0.1622  0.3387 -1.0653
   10ASP      N   95   4.190   3.854   3.954  0.6096 -0.2442 -0.0812
   10ASP     HN   96   4.205   3.758   3.974 -0.0761 -0.1610  0.9355
   10ASP     CA   97   4.293   3.949   3.988  0.3865  0.9602 -0.0917
   10ASP     HA   98   4.240   4.029   4.038  2.3110  0.9322  2.1345
   10ASP     CB   99   4.396   3.884   4.079  0.0239  0.5962  0.1794
   10ASP    HB1  100   4.470   3.966   4.094  1.0883 -0.1993 -0.5339
   10ASP    HB2  101   4.438   3.794   4.029  0.6494 -0.1490  1.9648
   10ASP     CG  102   4.343   3.840   4.210 -0.7090  0.2275 -0.1068
   10ASP    OD1  103   4.231   3.875   4.247  0.3437 -0.0860 -0.2830
   10ASP    OD2  104   4.424   3.781   4.288 -0.7113  0.8436  0.2197
   10ASP      C  105   4.352   4.022   3.873  0.5278  0.1794  0.4375
   10ASP      O  106   4.350   3.980   3.754 -0.3057  0.1092 -0.0997
   11GLY      N  107   4.403   4.139   3.905 -0.0127  0.1061 -0.1456
   11GLY     HN  108   4.403   4.168   4.000  2.1234  0.4791 -0.2122
   11GLY     CA  109   4.462   4.227   3.806  0.1973 -0.0497  0.6293
   11GLY    HA1  110   4.524   4.174   3.735 -1.1452  0.3923 -0.9625
   11GLY    HA2  111   4.521   4.302   3.855  0.4723  0.9504 -1.1514
   11GLY      C  112   4.351   4.303   3.727 -0.4107  0.9450  0.3861
   11GLY    OT1  113   4.240   4.344   3.779 -0.1753 -0.6845  0.2434
   11GLY    OT2  114   4.378   4.328   3.606 -0.4917  0.0792 -0.1508
   12SOD    SOD  115   3.241   0.731   0.998  0.2997  0.0725  0.0238
   13SOD    SOD  116   5.778   5.907   2.128 -0.1104  0.1378 -0.3717
   14SOD    SOD  117   3.165   1.819   4.808 -0.2408  0.3737  0.2523
   15SOD    SOD  118   0.739   0.637   5.742 -0.3085 -0.0543  0.5960
   16SOD    SOD  119   1.954   0.864   0.533 -0.0313 -0.3692  0.1772
   17SOD    SOD  120   0.962   1.157   4.546  0.2449 -0.1826  0.2234
   18SOD    SOD  121   5.060   0.859   1.960 -0.0267  0.0398  0.4669
   19SOD    SOD  122   3.792   1.572   2.643 -0.0838 -0.1813 -0.0239
   20SOD    SOD  123   4.053   3.433   5.347  0.2320 -0.0607 -0.5548
   21SOD    SOD  124   0.965   1.083   1.080 -0.0005 -0.2420  0.2469
   22SOD    SOD  125   2.480   1.167   5.444  0.2705  0.1176  0.0861
   23SOD    SOD  126   3.435   0.472   4.893 -0.2956  0.1355 -0.2450
   24SOD    SOD  127   6.818   0.608   3.627 -0.5968 -0.3592  0.0512
   25SOD    SOD  128   7.149   5.636   2.166  0.4386 -0.2687 -0.2991
   26SOD    SOD  129   1.649   4.558   2.753  0.2131 -0.8557 -0.1180
   27SOD    SOD  130   4.853   1.150   3.513 -0.1144 -0.8056 -0.5995
   28SOD    SOD  131   4.539   1.777   4.523 -0.3455  0.4059 -0.0958
   29SOD    SOD  132   1.617   3.470   2.082 -0.3821 -0.0724 -0.2229
   30SOD    SOD  133   2.997   3.639   5.377  0.2334  0.3801  0.1875
   31SOD    SOD  134   4.715   4.445   4.516 -0.1864  0.3504  0.2831
   32SOD    SOD  135   6.106   4.697   2.177 -0.4312 -0.1514  0.0775
   33SOD    SOD  136   5.478   4.591   2.985 -0.3045 -0.0386  0.4505
   34SOD    SOD  137   0.017   1.285   2.112 -0.1836  0.1730  0.0347
   35SOD    SOD  138   4.624   2.331   3.715  0.3466  0.1246  0.0571
   36SOD    SOD  139   6.025   4.824   1.329 -0.0141 -0.4237  0.7817
   37SOD    SOD  140   3.878   3.263   0.410 -0.0670 -0.1467 -0.0497
   38SOD    SOD  141   1.369   4.784   0.760  0.0331 -0.3540  0.3192
   39SOD    SOD  142   1.381   4.026   0.238  0.4115  0.0456 -0.7359
   40SOD    SOD  143   4.527   6.065   0.276 -0.1499 -0.5960 -0.1839
   41SOD    SOD  144   2.735   0.749   2.113  0.1530  0.1942  0.5638
   42SOD    SOD  145   4.111   4.775   3.623  0.1027  0.1114 -0.0048
   43CLA    CLA  146   4.557   6.446   2.666 -0.3091 -0.3234 -0.2434
   44CLA    CLA  147   1.973   2.357   5.686 -0.0433  0.2867  0.1809
   45CLA    CLA  148   1.008   2.300   4.406  0.0989  0.1590  0.0896
   46CLA    CLA  149   0.582   4.710   3.297  0.4479 -0.1861  0.0153
   47CLA    CLA  150   0.112   2.404   1.717 -0.5997 -0.3369 -0.3030
   48CLA    CLA  151   4.934   2.578   1.878 -0.0901 -0.0492  0.0041
   49CLA    CLA  152   3.796   4.018   0.750  0.0147 -0.5418  0.1726
   50CLA    CLA  153   5.515   0.540   5.207  0.0072  0.1790 -0.2942
   51CLA    CLA  154   5.199   2.894   5.533  0.4082  0.4089 -0.0095
   52CLA    CLA  155   3.505   0.597   2.405  0.1402  0.3231 -0.1239
   53CLA    CLA  156   1.252   3.864   1.103 -0.1632  0.2288 -0.3214
   54CLA    CLA  157   3.044   3.389   5.306 -0.0820  0.2613  0.1203
   55CLA    CLA  158   5.057   5.910   1.891  0.1914 -0.0096  0.0803
   56CLA    CLA  159   3.267   1.439   5.407  0.0214 -0.5852  0.0878
   57CLA    CLA  160   1.331   0.109   5.430  0.0452  0.1470 -0.0617
   58CLA    CLA  161   4.665   2.565   1.258 -0.0364 -0.0325  0.0538
   59CLA    CLA  162   5.202   3.949   5.728  0.0444 -0.2996 -0.2792
   60CLA    CLA  163   0.055   6.013   1.755  0.1926 -0.4219 -0.2894
   61CLA    CLA  164   6.252   4.522   3.536 -0.4097 -0.7400  0.0733
   62CLA    CLA  165   1.086   2.564   0.550  0.1552 -0.1133  0.2986
   63CLA    CLA  166   4.130   2.992   5.268  0.5143 -0.2020  0.1005
   64CLA    CLA  167   3.518   3.042   3.646 -0.1873 -0.2521 -0.0425
   65CLA    CLA  168   2.899   6.591   4.434  0.0395  0.1095 -0.0776
   66CLA    CLA  169   3.682   0.905   4.138 -0.4029  0.1144  0.3537
   67CLA    CLA  170   0.446   6.802   1.137 -0.5755  0.2628 -0.1808
   68CLA    CLA  171   2.117   3.361   3.061  0.4045  0.1483 -0.2077
   69CLA    CLA  172   0.425   1.259   3.661  0.0631 -0.3217  0.1453
   70TIP3   OH2  173   0.322   5.443   1.232 -0.0989  0.2644  0.0771
   70TIP3    H1  174   0.384   5.483   1.170  1.3698 -0.7997  0.7889
   70TIP3    H2  175   0.366   5.364   1.262 -1.2554  0.1597  1.6241
   71TIP3   OH2  176   0.358   0.434   3.521 -0.0115 -0.0999  0.1705
   71TIP3    H1  177   0.338   0.510   3.577 -1.7014 -0.0976 -0.3913
   71TIP3    H2  178   0.414   0.470   3.452  0.9618  0.1806  1.0765
   72TIP3   OH2  179   2.295   4.747   2.521  0.7165  0.3166  0.4895
   72TIP3    H1  180   2.368   4.796   2.483  0.7740  1.3525  1.8738
   72TIP3    H2  181   2.258   4.698   2.448  3.3175 -0.9273 -0.1229
   73TIP3   OH2  182   2.775   6.059   5.213 -0.7996 -0.5175 -0.3161
   73TIP3    H1  183   2.870   6.058   5.200 -0.4881 -1.8271  1.6072
   73TIP3    H2  184   2.746   6.140   5.171  1.2606  0.2889 -0.3175
   74TIP3   OH2  185   6.376   3.807   1.328 -0.6401 -0.2445 -0.1087
   74TIP3    H1  186   6.472   3.806   1.325 -0.5973  0.3002  0.6771
   74TIP3    H2  187   6.349   3.760   1.249  0.2668  0.5605 -0.9276
   75TIP3   OH2  188   1.586   0.145   4.594 -0.0228 -0.1558  0.5816
   75TIP3    H1  189   1.516   0.158   4.530 -0.3376 -0.8768  0.7716
   75TIP3    H2  190   1.637   0.226   4.590 -0.6512  0.2309  0.1769
   76TIP3   OH2  191   4.046   3.347   2.870 -0.3254 -0.2854  0.1894
   76TIP3    H1  192   4.096   3.340   2.952 -0.0746 -0.5349  0.0152
   76TIP3    H2  193   3.985   3.273   2.873 -0.4650 -0.1672  0.2529
   77TIP3   OH2  194   6.207   6.578   4.162  0.1806  0.5873  0.0821
   77TIP3    H1  195   6.189   6.668   4.133  0.8194  1.5859  2.5132
   77TIP3    H2  196   6.127   6.552   4.209  0.0514 -0.0859 -0.4944
   78TIP3   OH2  197   6.360   1.246   3.569  0.0816 -0.2840 -0.4279
   78TIP3    H1  198   6.377   1.304   3.495 -0.5937 -1.2908 -1.3969
   78TIP3    H2  199   6.436   1.259   3.627  0.6484  0.4825 -1.3014
   79TIP3   OH2  200   0.169   0.139   2.330 -0.0439  0.0053 -0.1572
   79TIP3    H1  201   0.080   0.119   2.302  0.0183 -0.1905 -0.2182
   79TIP3    H2  202   0.169   0.234   2.345 -0.5820 -0.1571  0.9834
   80TIP3   OH2  203   5.455   5.042   5.348  0.1744  0.0176  0.3069
   80TIP3    H1  204   5.415   5.077   5.268  2.0146 -1.0602 -1.1631
   80TIP3    H2  205   5.513   4.972   5.318  1.3608 -0.0643  2.5471
   81TIP3   OH2  206   0.385   4.722   1.500 -0.3564  0.2430  0.3097
   81TIP3    H1  207   0.302   4.744   1.542 -1.3811 -1.2113 -0.8689
   81TIP3    H2  208   0.452   4.753   1.561 -1.7088  2.6601  0.6709
   82TIP3   OH2  209   1.725   3.913   1.673 -0.7724  0.7163 -0.0590
   82TIP3    H1  210   1.806   3.862   1.660 -0.8364  0.3075  1.0286
   82TIP3    H2  211   1.755   4.004   1.673 -0.2654  0.5596  0.5722
   83TIP3   OH2  212   2.207   4.933   3.361  0.2870  0.6089  0.1113
   83TIP3    H1  213   2.207   4.872   3.287  2.1368 -1.2129  1.4750
   83TIP3    H2  214   2.167   5.013   3.327  0.1038 -0.4976 -2.5137
   84TIP3   OH2  215   5.850   5.404   3.146  0.7016  0.2876 -0.0797
   84TIP3    H1  216   5.815   5.332   3.199  2.5011  0.8904  2.0729
   84TIP3    H2  217   5.795   5.479   3.168  1.9166  0.7237  1.6366
   85TIP3   OH2  218   4.073   6.321   5.640 -0.7952 -0.7431 -0.4069
   85TIP3    H1  219   4.014   6.380   5.594 -0.4842 -0.8308 -0.9319
   85TIP3    H2  220   4.134   6.378   5.686  0.4439 -0.6121 -2.1188
   86TIP3   OH2  221   2.000   1.708   3.960  0.3889 -0.5104 -0.5221
   86TIP3    H1  222   1.969   1.691   3.871  0.2211  0.1271 -0.5900
   86TIP3    H2  223   1.926   1.750   4.004  0.5671 -0.5620 -0.1655
   87TIP3   OH2  224   1.421   0.101   0.419 -0.5387 -0.3135  0.1812
   87TIP3    H1  225   1.474   0.024   0.439  0.0961  0.0125 -0.2078
   87TIP3    H2  226   1.442   0.164   0.488 -0.0935 -0.0332 -0.1997
   88TIP3   OH2  227   5.116   1.458   2.537 -0.2128  0.6396  0.0018
   88TIP3    H1  228   5.023   1.445   2.521 -0.2309  0.8039 -0.0285
   88TIP3    H2  229   5.120   1.538   2.589 -0.1626  0.0872  0.8771
   89TIP3   OH2  230   6.190   6.122   2.290 -0.4747 -0.3598 -0.1973
   89TIP3    H1  231   6.207   6.132   2.384  0.2406  0.6618 -0.4098
   89TIP3    H2  232   6.109   6.172   2.275 -0.6007 -0.5409 -0.1228
   90TIP3   OH2  233   1.780   6.699   0.694  0.1308 -0.7679 -0.1670
   90TIP3    H1  234   1.829   6.628   0.654 -0.1260 -0.7324 -0.5461
   90TIP3    H2  235   1.754   6.754   0.621 -0.7900 -0.9837 -0.0091
   91TIP3   OH2  236   0.629   6.448   0.666 -0.4328 -0.7332 -0.0040
   91TIP3    H1  237   0.708   6.476   0.620 -1.7155 -1.9822 -3.2283
   91TIP3    H2  238   0.558   6.495   0.622 -1.7157 -1.6305  1.0368
   92TIP3   OH2  239   4.497   6.372   5.733  0.4604 -0.6350 -0.3613
   92TIP3    H1  240   4.492   6.314   5.657  2.5775 -0.8561 -0.3851
   92TIP3    H2  241   4.575   6.344   5.779  1.3268  1.9231 -0.1347
   93TIP3   OH2  242   3.449   4.166   5.640 -0.2484  0.1870  0.0149
   93TIP3    H1  243   3.413   4.171   5.729  0.3388 -0.6615  0.3117
   93TIP3    H2  244   3.539   4.196   5.649  0.2388 -1.1781 -0.0184
   94TIP3   OH2  245   4.944   5.846   1.351 -0.3357  0.5642 -0.5806
   94TIP3    H1  246   5.035   5.860   1.376 -1.0326  2.4240  1.2550
   94TIP3    H2  247   4.920   5.926   1.303 -1.1418  0.3653 -0.5318
   95TIP3   OH2  248   3.730   4.813   5.553  0.8272 -0.2642  0.4835
   95TIP3    H1  249   3.781   4.789   5.476  0.7079  1.4050 -0.1529
   95TIP3    H2  250   3.783   4.880   5.597 -1.0414  2.0414 -0.5782
   96TIP3   OH2  251   0.927   3.298   2.685  0.1804 -0.0349 -0.3143
   96TIP3    H1  252   0.976   3.381   2.687  0.9876 -0.4939  2.2162
   96TIP3    H2  253   0.840   3.322   2.656  0.6518  1.5639 -0.5003
   97TIP3   OH2  254   1.981   1.401   0.500 -0.3822  0.0277  0.1296
   97TIP3    H1  255   1.934   1.408   0.583 -1.0234 -0.3745 -0.1876
   97TIP3    H2  256   1.981   1.307   0.481  3.6453 -0.4941  1.8470
   98TIP3   OH2  257   6.694   3.686   5.821  0.2408  0.3619 -0.2113
   98TIP3    H1  258   6.763   3.663   5.758 -1.2281 -0.2543 -1.6608
   98TIP3    H2  259   6.652   3.763   5.783 -0.4983  0.1405  0.1395
   99TIP3   OH2  260   3.057   5.681   1.376  0.5164  0.3047  0.3901
   99TIP3    H1  261   3.058   5.625   1.453 -3.7756 -1.3737 -0.5327
   99TIP3    H2  262   3.095   5.627   1.306 -0.5638 -0.2619  0.2218
  100TIP3   OH2  263   2.354   4.326   2.708  0.1077 -0.0999  0.1473
  100TIP3    H1  264   2.368   4.231   2.709  1.9588  0.1190 -0.3409
  100TIP3    H2  265   2.276   4.338   2.654 -0.3213 -1.3404  0.4427
  101TIP3   OH2  266   2.895   5.405   1.287  0.5042  0.2166  0.0665
  101TIP3    H1  267   2.920   5.338   1.350  0.3563  1.2273  1.2230
  101TIP3    H2  268   2.978   5.441   1.256  0.5746 -0.2425 -0.2917
  102TIP3   OH2  269   2.507   1.625   4.371 -0.3386 -0.3011 -0.1074
  102TIP3    H1  270   2.461   1.670   4.300 -1.7141  0.3635  1.1317
  102TIP3    H2  271   2.499   1.532   4.351  0.1754 -0.1062 -1.3114
  103TIP3   OH2  272   6.466   3.946   4.654 -0.4648 -0.2772 -0.3264
  103TIP3    H1  273   6.402   3.877   4.675 -0.1466 -0.7927 -1.0355
  103TIP3    H2  274   6.530   3.940   4.725 -1.2143  0.2817  0.4252
  104TIP3   OH2  275   3.130   3.209   0.739 -0.1197  0.1012 -0.2345
  104TIP3    H1  276   3.094   3.172   0.819  0.6040 -2.0535 -0.8227
  104TIP3    H2  277   3.126   3.137   0.676  1.1018  1.1429 -1.5705
  105TIP3   OH2  278   1.244   4.265   3.395 -0.2229 -0.3103 -0.1513
  105TIP3    H1  279   1.280   4.232   3.312 -1.6230  1.3722 -1.5174
  105TIP3    H2  280   1.149   4.250   3.387 -0.5220  1.0692  0.5424
  106TIP3   OH2  281   6.668   5.966   0.390 -0.3567 -0.6283  0.0537
  106TIP3    H1  282   6.614   6.038   0.356  0.7518  0.2960  0.1900
  106TIP3    H2  283   6.654   5.895   0.327 -0.3336  0.1977 -0.9266
  107TIP3   OH2  284   6.903   6.761   3.178 -0.4288 -0.1570  0.0359
  107TIP3    H1  285   6.925   6.845   3.218  1.9578 -0.9795  0.6108
  107TIP3    H2  286   6.935   6.696   3.240 -0.2849 -1.4660 -1.3535
  108TIP3   OH2  287   6.628   0.864   4.112 -0.0921 -0.5503 -0.4257
  108TIP3    H1  288   6.657   0.933   4.171 -1.5950  3.5116 -3.9647
  108TIP3    H2  289   6.546   0.832   4.151 -0.5087  1.2385  0.2482
  109TIP3   OH2  290   6.010   4.852   4.901  0.0109 -0.3066  0.1429
  109TIP3    H1  291   6.039   4.922   4.842 -2.3804  1.8720  1.3511
  109TIP3    H2  292   5.926   4.824   4.864  0.2337 -1.4957  0.5174
  110TIP3   OH2  293   2.214   5.461   5.822 -0.4825 -0.6024  0.0129
  110TIP3    H1  294   2.246   5.536   5.873  0.4713 -0.7621 -0.3263
  110TIP3    H2  295   2.269   5.460   5.744 -1.1985 -1.0268 -0.4966
  111TIP3   OH2  296   1.503   6.437   3.163  0.1484 -0.0440 -0.7684
  111TIP3    H1  297   1.537   6.370   3.104 -0.0031  0.3770 -1.3413
  111TIP3    H2  298   1.569   6.444   3.233  0.5044 -0.2912 -1.0765
  112TIP3   OH2  299   5.786   2.335   1.801 -0.2198 -0.0564 -0.1727
  112TIP3    H1  300   5.817   2.387   1.727  1.0913 -0.0867  0.3276
  112TIP3    H2  301   5.694   2.358   1.810 -0.0037  1.1278 -0.8347
  113TIP3   OH2  302   2.912   5.807   4.138  0.2184  1.1367  0.1531
  113TIP3    H1  303   2.830   5.847   4.168  0.5465  2.2013 -0.3184
  113TIP3    H2  304   2.899   5.713   4.152 -1.7021  1.1039 -1.3101
  114TIP3   OH2  305   4.187   4.986   5.154  0.2588  0.0068 -0.1753
  114TIP3    H1  306   4.145   5.049   5.211 -1.3186 -1.6729  0.6230
  114TIP3    H2  307   4.127   4.976   5.080 -0.6145 -2.0583  0.7412
  115TIP3   OH2  308   6.057   0.956   1.925 -0.1673 -0.0218  0.4959
  115TIP3    H1  309   6.009   0.917   1.998  0.2118 -0.5675  0.4612
  115TIP3    H2  310   6.147   0.924   1.936 -0.2520 -0.6606 -0.5928
  116TIP3   OH2  311   4.284   3.995   4.747 -0.6780 -0.0868 -0.1512
  116TIP3    H1  312   4.344   3.950   4.807 -0.5234  0.4356  0.0973
  116TIP3    H2  313   4.214   4.027   4.804 -1.6546 -1.4228 -0.5547
  117TIP3   OH2  314   5.123   4.025   0.937 -0.1215 -0.1316 -0.1585
  117TIP3    H1  315   5.029   4.019   0.922 -0.7626  2.1547  2.1894
  117TIP3    H2  316   5.132   4.051   1.029  2.7052  1.3960 -0.7276
  118TIP3   OH2  317   3.592   6.338   5.676 -0.0241  0.0782  0.2564
  118TIP3    H1  318   3.634   6.401   5.617 -0.0693  0.6933  0.8649
  118TIP3    H2  319   3.503   6.371   5.687 -0.3816 -0.6945 -0.2692
  119TIP3   OH2  320   1.226   3.999   3.753  0.6445  0.6281  0.6048
  119TIP3    H1  321   1.307   4.039   3.783  0.2426  1.7246  0.2762
  119TIP3    H2  322   1.252   3.914   3.719  1.5765  0.7487  0.9917
  120TIP3   OH2  323   2.685   1.672   5.228 -0.1448 -0.0577  0.8245
  120TIP3    H1  324   2.711   1.607   5.163 -1.4931  0.6372 -0.4548
  120TIP3    H2  325   2.767   1.697   5.271  0.5853 -1.4955  0.3203
  121TIP3   OH2  326   0.444   4.309   1.626 -0.0546  0.3503  0.5667
  121TIP3    H1  327   0.431   4.229   1.574  0.3934  0.1866  0.7049
  121TIP3    H2  328   0.479   4.372   1.563 -1.5591  0.8212  0.1698
  122TIP3   OH2  329   5.515   1.266   3.960  0.8061 -0.1231  0.4995
  122TIP3    H1  330   5.461   1.186   3.959 -1.0974  1.0981 -0.5588
  122TIP3    H2  331   5.492   1.310   4.042  1.8228 -0.5997  1.0616
  123TIP3   OH2  332   6.165   4.129   1.939 -0.5169  0.3539 -0.1307
  123TIP3    H1  333   6.228   4.200   1.942 -1.2428  1.0015  0.4210
  123TIP3    H2  334   6.217   4.050   1.948  0.0958  0.9337  2.0919
  124TIP3   OH2  335   5.855   5.781   1.703  0.2669 -0.7944  0.5606
  124TIP3    H1  336   5.828   5.755   1.614  1.5023  1.1905 -0.4588
  124TIP3    H2  337   5.939   5.736   1.716  0.7996  0.0525  0.1152
  125TIP3   OH2  338   1.889   6.020   1.168 -0.1857 -0.0832  0.0494
  125TIP3    H1  339   1.810   6.053   1.211 -0.4698 -0.8957  0.1630
  125TIP3    H2  340   1.886   5.925   1.181 -0.6652 -0.4665 -2.3998
  126TIP3   OH2  341   1.028   5.980   4.688 -0.3700 -0.4000 -0.1621
  126TIP3    H1  342   1.063   5.950   4.603  0.0823  0.7188 -0.3860
  126TIP3    H2  343   0.952   6.034   4.665  0.0122  0.2635  0.1185
  127TIP3   OH2  344   2.974   4.005   3.541 -0.0511  0.2961  0.8858
  127TIP3    H1  345   2.909   3.994   3.610 -1.9220  0.3244 -0.7627
  127TIP3    H2  346   2.936   3.959   3.466  2.0083  0.0689 -0.0679
  128TIP3   OH2  347   5.140   1.184   0.757  0.3607  0.5035 -0.4381
  128TIP3    H1  348   5.168   1.173   0.666  1.2250  0.5997 -0.1909
  128TIP3    H2  349   5.207   1.240   0.796  0.1076  0.2861  0.3185
  129TIP3   OH2  350   3.945   4.445   2.183 -0.2756 -0.0543 -0.2954
  129TIP3    H1  351   3.852   4.426   2.196 -0.2047  0.4019  1.0422
  129TIP3    H2  352   3.958   4.530   2.226  0.5107  0.4833 -1.5394
  130TIP3   OH2  353   1.320   4.363   5.649 -0.1928  0.3728  0.2471
  130TIP3    H1  354   1.377   4.432   5.614  0.3936 -0.4243 -0.3840
  130TIP3    H2  355   1.275   4.328   5.573 -0.5513  0.1033  0.5816
  131TIP3   OH2  356   1.872   3.393   4.619 -0.1933  0.4547 -0.2762
  131TIP3    H1  357   1.845   3.383   4.527  0.4158  0.3479 -0.4519
  131TIP3    H2  358   1.938   3.325   4.631  0.7061  1.3268 -0.1542
  132TIP3   OH2  359   3.513   5.107   1.810  0.9948  0.2007  0.5758
  132TIP3    H1  360   3.425   5.089   1.779  0.8666  1.1842  0.3106
  132TIP3    H2  361   3.532   5.039   1.874  0.2596 -0.3379  0.2196
  133TIP3   OH2  362   3.573   3.543   2.980 -0.2027 -0.0387 -0.2129
  133TIP3    H1  363   3.486   3.505   2.968  0.5277 -1.7564 -0.3769
  133TIP3    H2  364   3.562   3.605   3.051 -1.7540  0.4706 -0.8477
  134TIP3   OH2  365   5.729   6.699   4.787  0.2521  0.2925 -0.0925
  134TIP3    H1  366   5.687   6.615   4.771  0.9017 -0.0097 -0.2325
  134TIP3    H2  367   5.696   6.726   4.873  0.5529 -0.4308  0.2591
  135TIP3   OH2  368   5.300   3.654   2.741  0.0481 -0.3857 -0.6529
  135TIP3    H1  369   5.246   3.585   2.779  0.5154 -0.8462 -0.8188
  135TIP3    H2  370   5.298   3.724   2.807  0.6719 -1.0899  0.1334
  136TIP3   OH2  371   1.554   6.585   2.474 -0.3001 -0.5496  0.0936
  136TIP3    H1  372   1.571   6.491   2.473 -0.4174 -0.5696 -0.7700
  136TIP3    H2  373   1.478   6.596   2.417 -1.4193 -0.1289  1.6029
  137TIP3   OH2  374   0.986   3.012   2.205  0.4908  0.1370 -0.4103
  137TIP3    H1  375   0.918   3.079   2.207 -0.6606 -0.9802  1.2287
  137TIP3    H2  376   1.026   3.016   2.292  0.2862 -1.3600 -0.2148
  138TIP3   OH2  377   5.038   2.045   3.198  0.2411  0.5273  0.0070
  138TIP3    H1  378   4.945   2.067   3.192  0.0560  0.1283  1.1808
  138TIP3    H2  379   5.074   2.109   3.260  0.1541 -1.0208  1.7213
  139TIP3   OH2  380   0.069   3.147   0.858  0.4715 -0.1055  0.4082
  139TIP3    H1  381  -0.003   3.109   0.908 -1.7141  1.9509 -0.9471
  139TIP3    H2  382   0.104   3.073   0.807 -2.4934 -0.7469 -0.9026
  140TIP3   OH2  383   2.883   4.835   1.814  0.0411 -0.0159 -0.9205
  140TIP3    H1  384   2.908   4.790   1.894  4.8999  1.5500 -1.2380
  140TIP3    H2  385   2.836   4.912   1.843 -0.7536 -0.8946  0.1856
  141TIP3   OH2  386   3.784   1.842   1.076  0.0095 -0.0628  0.2020
  141TIP3    H1  387   3.847   1.904   1.041 -0.7690  0.3306 -0.5369
  141TIP3    H2  388   3.707   1.850   1.019 -0.9644 -0.0525  1.4640
  142TIP3   OH2  389   1.668   0.465   1.960 -0.7548  0.4315 -0.1346
  142TIP3    H1  390   1.711   0.409   1.896 -1.5564  0.0613 -0.3604
  142TIP3    H2  391   1.721   0.458   2.039 -1.0601 -0.9662 -0.0383
  143TIP3   OH2  392   3.602   5.639   0.522 -0.0766 -0.2704  0.3709
  143TIP3    H1  393   3.668   5.707   0.538  0.2504 -0.2514 -1.0095
  143TIP3    H2  394   3.543   5.678   0.458 -0.1517 -1.1131 -0.0838
  144TIP3   OH2  395   0.818   5.757   5.401  0.0751  0.0323 -0.0582
  144TIP3    H1  396   0.913   5.756   5.414  0.0226 -1.1331  0.4198
  144TIP3    H2  397   0.795   5.665   5.384 -1.1610 -0.0118  1.5407
  145TIP3   OH2  398   1.415   0.987   2.347  0.1652  0.2585  0.0190
  145TIP3    H1  399   1.506   0.957   2.336 -0.4511 -2.6270  1.7478
  145TIP3    H2  400   1.369   0.954   2.270  0.1662 -0.1793  0.2060
  146TIP3   OH2  401   4.141   3.597   2.684 -0.2861 -0.2327 -0.6543
  146TIP3    H1  402   4.067   3.576   2.627 -0.0065 -0.4156 -0.9500
  146TIP3    H2  403   4.116   3.680   2.726 -1.5104 -1.2250  0.7018
  147TIP3   OH2  404   7.001   4.256   3.314  0.3901  0.1053  0.4765
  147TIP3    H1  405   6.976   4.192   3.381 -1.5708 -0.8478 -1.0371
  147TIP3    H2  406   7.052   4.206   3.251 -1.3164 -0.1247 -0.8156
  148TIP3   OH2  407   5.195   4.158   2.739 -0.1701 -0.0417  0.0437
  148TIP3    H1  408   5.267   4.180   2.680 -0.0189 -1.8668 -0.4840
  148TIP3    H2  409   5.119   4.145   2.682 -0.2204 -1.0156  0.3163
  149TIP3   OH2  410   1.339   0.452   4.600 -0.1091 -0.4742 -0.2091
  149TIP3    H1  411   1.256   0.451   4.552  0.3790 -0.3478 -1.0713
  149TIP3    H2  412   1.394   0.515   4.553 -0.0651  0.6933  1.3004
  150TIP3   OH2  413   2.959   0.575   4.199 -0.2479  0.1623 -0.2068
  150TIP3    H1  414   2.908   0.573   4.119 -0.9089 -0.4186  0.2143
  150TIP3    H2  415   3.015   0.651   4.190 -1.9987  1.5207 -0.2013
  151TIP3   OH2  416   6.918   0.334   4.114 -0.1202 -0.0047  0.1244
  151TIP3    H1  417   6.927   0.363   4.205 -0.2128 -1.3064  0.5686
  151TIP3    H2  418   7.007   0.313   4.086 -0.2111 -0.5474  0.2416
  152TIP3   OH2  419   3.683   3.570   5.620 -0.3885 -0.7073  0.8136
  152TIP3    H1  420   3.599   3.534   5.649 -2.0079  0.8188 -1.6360
  152TIP3    H2  421   3.663   3.658   5.589  1.1918 -1.6153 -3.6348
  153TIP3   OH2  422   3.805   4.791   2.096  0.3261  0.0773 -0.2025
  153TIP3    H1  423   3.774   4.820   2.182 -0.6256 -2.2851  0.3172
  153TIP3    H2  424   3.745   4.831   2.034 -0.0238  0.4222  0.3513
  154TIP3   OH2  425   1.119   6.124   4.914  0.0665  0.4442 -0.8693
  154TIP3    H1  426   1.212   6.124   4.892  0.1378 -1.9111 -0.8095
  154TIP3    H2  427   1.075   6.106   4.831 -0.2554  0.5058 -0.7129
  155TIP3   OH2  428   6.006   0.839   3.684  0.0454 -0.6817 -0.4144
  155TIP3    H1  429   6.014   0.785   3.763 -1.3845 -1.1022 -0.5244
  155TIP3    H2  430   6.092   0.880   3.674  0.3332 -0.8142  1.2175
  156TIP3   OH2  431   6.283   0.374   2.526 -0.3672  0.1331 -0.0800
  156TIP3    H1  432   6.192   0.344   2.518  0.1686 -1.6287 -0.0541
  156TIP3    H2  433   6.325   0.347   2.444  0.5996 -0.9440  0.7331
  157TIP3   OH2  434   2.925   0.123   0.382 -0.1072 -0.1756  0.2006
  157TIP3    H1  435   3.020   0.132   0.373  0.1574 -1.1561  1.7932
  157TIP3    H2  436   2.893   0.213   0.390  0.6824  0.1542 -0.2731
  158TIP3   OH2  437   2.262   3.936   0.142 -0.1189 -0.1796  0.4501
  158TIP3    H1  438   2.199   3.967   0.077  2.1699  1.7908 -0.9857
  158TIP3    H2  439   2.291   3.851   0.109 -1.0726 -0.5276  0.4731
  159TIP3   OH2  440   0.552   0.440   5.238 -0.6081 -0.2623 -0.1717
  159TIP3    H1  441   0.571   0.420   5.330 -1.3981  0.6268  0.2054
  159TIP3    H2  442   0.473   0.388   5.218 -1.6609  1.1024  0.2997
  160TIP3   OH2  443   3.331   2.500   1.988 -0.3878 -0.1067 -0.7753
  160TIP3    H1  444   3.415   2.524   2.028 -1.8822  0.0830  2.6717
  160TIP3    H2  445   3.310   2.574   1.932 -0.5484  2.5108  2.3876
  161TIP3   OH2  446   3.145   1.394   1.920 -0.4038  0.6447 -0.2586
  161TIP3    H1  447   3.127   1.407   2.013 -0.6287  2.0726 -0.4834
  161TIP3    H2  448   3.086   1.322   1.894 -0.2957  0.1947  0.6951
  162TIP3   OH2  449   1.805   4.438   4.714  0.7984  0.4260 -0.0286
  162TIP3    H1  450   1.794   4.532   4.702 -0.3389  0.3472  0.2453
  162TIP3    H2  451   1.815   4.426   4.808  1.4075  0.3114 -0.1057
  163TIP3   OH2  452   0.067   1.891   2.511  0.1096 -0.4388 -0.3907
  163TIP3    H1  453   0.154   1.899   2.471 -0.5842 -0.8129 -2.0586
  163TIP3    H2  454   0.016   1.962   2.473 -0.2749 -0.0894  0.7422
  164TIP3   OH2  455   0.237   2.834   0.849 -0.6898 -0.1384 -0.2171
  164TIP3    H1  456   0.168   2.873   0.795 -1.8266 -1.7954 -0.0407
  164TIP3    H2  457   0.204   2.746   0.870  0.5284 -0.1972  1.6603
  165TIP3   OH2  458   3.765   1.341   3.928  0.0933  0.0857  0.1242
  165TIP3    H1  459   3.719   1.324   4.010 -1.2413 -0.3008 -0.6692
  165TIP3    H2  460   3.718   1.415   3.889  2.0509  1.7309  0.6691
  166TIP3   OH2  461   0.321   3.705   4.291 -0.0666 -0.2010  1.1789
  166TIP3    H1  462   0.408   3.688   4.327  0.7875  0.3739 -0.5172
  166TIP3    H2  463   0.312   3.800   4.295 -0.2474 -0.1910  0.5239
  167TIP3   OH2  464   4.281   1.638   1.126  0.2869 -0.1278 -0.0287
  167TIP3    H1  465   4.364   1.601   1.157 -0.3316 -0.7316  0.9846
  167TIP3    H2  466   4.267   1.715   1.180 -0.1308 -0.4144  0.2870
  168TIP3   OH2  467   2.872   4.741   5.376 -0.0644  0.1841 -0.6073
  168TIP3    H1  468   2.784   4.764   5.408 -0.0104  0.3599 -0.5835
  168TIP3    H2  469   2.859   4.720   5.283 -0.1699 -0.0186 -0.5470
  169TIP3   OH2  470   0.551   2.852   1.254 -0.0261  0.0647 -0.7445
  169TIP3    H1  471   0.533   2.915   1.325 -0.3844 -0.4024 -0.4162
  169TIP3    H2  472   0.573   2.907   1.179 -1.2683  0.6332 -0.7270
  170TIP3   OH2  473   2.047   1.579   4.523 -0.4128 -0.5310 -0.7752
  170TIP3    H1  474   2.014   1.655   4.570 -0.8549 -0.1213 -1.7120
  170TIP3    H2  475   2.136   1.567   4.555 -0.3404  0.3852 -0.6104
  171TIP3   OH2  476   6.642   4.107   1.554  0.1402 -0.1829  0.2255
  171TIP3    H1  477   6.599   4.189   1.532  2.0279  0.9034  0.3634
  171TIP3    H2  478   6.645   4.059   1.471 -0.5925  0.0713  0.0470
  172TIP3   OH2  479   5.183   4.835   2.214 -0.6550  0.0447  0.2536
  172TIP3    H1  480   5.168   4.926   2.238  2.0850  0.5918  0.2420
  172TIP3    H2  481   5.278   4.825   2.216 -0.5594 -1.7237 -3.7090
  173TIP3   OH2  482   5.799   4.733   1.373 -0.1251  0.4715 -0.6772
  173TIP3    H1  483   5.814   4.685   1.292  0.2766  0.4623 -0.5986
  173TIP3    H2  484   5.728   4.794   1.353 -1.0758 -0.5809 -0.6053
  174TIP3   OH2  485   2.977   5.892   4.827  0.7276  0.3770 -0.6220
  174TIP3    H1  486   2.960   5.984   4.809 -0.1743  0.5047  0.7054
  174TIP3    H2  487   3.049   5.892   4.890  0.2729  0.2304 -0.0870
  175TIP3   OH2  488   3.146   2.506   2.197 -0.3908 -0.5076  0.3411
  175TIP3    H1  489   3.202   2.446   2.246 -2.6075 -2.1271  1.0582
  175TIP3    H2  490   3.185   2.509   2.110  1.3193 -0.8277  1.0618
  176TIP3   OH2  491   4.708   0.512   2.941 -0.8981  0.1858  0.0496
  176TIP3    H1  492   4.659   0.569   2.881 -0.8885 -0.6650 -0.7991
  176TIP3    H2  493   4.755   0.572   2.998  0.6829  1.1050 -2.0608
  177TIP3   OH2  494   0.341   3.947   3.500 -0.1759  0.0408 -0.0669
  177TIP3    H1  495   0.320   3.885   3.570 -3.8344  0.6652 -0.4338
  177TIP3    H2  496   0.366   4.027   3.545 -0.8209 -0.0797  0.5216
  178TIP3   OH2  497   7.062   3.371   0.223  0.1243 -0.4631  0.1154
  178TIP3    H1  498   7.155   3.367   0.200  0.2788 -1.0088  0.8125
  178TIP3    H2  499   7.061   3.408   0.312 -0.2287 -1.7713  0.6766
  179TIP3   OH2  500   5.601   4.223   2.946  0.8892 -0.1769 -0.0994
  179TIP3    H1  501   5.588   4.140   2.991  0.5335  0.2071  0.5155
  179TIP3    H2  502   5.575   4.289   3.010 -0.5407  0.3581 -1.1907
  180TIP3   OH2  503   7.064   2.201   1.799 -0.6986  0.0026  0.6236
  180TIP3    H1  504   7.058   2.137   1.870  1.4650 -0.1124  0.7881
  180TIP3    H2  505   7.131   2.262   1.829  0.0745  0.0964 -1.2037
  181TIP3   OH2  506   6.417   0.737   5.102 -0.5942 -0.0389 -0.0069
  181TIP3    H1  507   6.428   0.826   5.134  0.1788 -0.2502  0.3196
  181TIP3    H2  508   6.337   0.706   5.145 -0.0998  0.0186  0.9722
  182TIP3   OH2  509   3.778   2.956   2.536 -0.5187  0.7285 -0.1588
  182TIP3    H1  510   3.857   2.979   2.586 -1.1077  0.1758  1.0610
  182TIP3    H2  511   3.706   2.982   2.593 -1.2218  1.1849 -1.2508
  183TIP3   OH2  512   4.564   3.279   4.262 -0.5318 -0.8747  0.3225
  183TIP3    H1  513   4.504   3.254   4.332 -0.4726 -0.0930  0.6617
  183TIP3    H2  514   4.553   3.373   4.253  0.8576 -0.6546  0.6162
  184TIP3   OH2  515   3.388   0.339   3.571  0.1537 -0.0238  0.2807
  184TIP3    H1  516   3.419   0.258   3.532 -1.3830 -1.9626  2.7255
  184TIP3    H2  517   3.345   0.311   3.652 -0.0795  3.3050  1.4498
  185TIP3   OH2  518   0.866   4.689   4.093  0.5474  0.7464  0.2938
  185TIP3    H1  519   0.847   4.621   4.029  0.4507  1.1526 -0.1118
  185TIP3    H2  520   0.838   4.771   4.052  1.0433  1.0852  0.6019
  186TIP3   OH2  521   3.794   4.846   2.421 -0.0795 -0.0999  0.7158
  186TIP3    H1  522   3.799   4.854   2.516 -0.1808 -1.5333  0.8689
  186TIP3    H2  523   3.700   4.839   2.403 -0.0061 -2.8830  0.8746
  187TIP3   OH2  524   4.127   4.068   4.959 -0.6178  0.1526 -0.0652
  187TIP3    H1  525   4.184   4.017   5.016 -0.5235  1.5608  1.1557
  187TIP3    H2  526   4.066   4.112   5.018 -1.0214  1.0423 -1.1083
  188TIP3   OH2  527   1.454   3.403   3.493  0.5605 -0.3238 -0.1067
  188TIP3    H1  528   1.381   3.450   3.452 -0.2696  0.7699  2.4619
  188TIP3    H2  529   1.413   3.343   3.555  1.7080  2.2534  3.4483
  189TIP3   OH2  530   1.412   5.128   5.588  0.0670 -0.4563 -0.8454
  189TIP3    H1  531   1.389   5.205   5.537  0.7163  0.3929  0.1051
  189TIP3    H2  532   1.490   5.093   5.546  0.6616  0.3016 -0.3883
  190TIP3   OH2  533   1.734   1.016   1.623 -0.5047  0.2740 -0.1351
  190TIP3    H1  534   1.802   1.078   1.595  0.4270 -0.1545  1.0960
  190TIP3    H2  535   1.748   1.005   1.717 -0.4150 -2.0479 -0.3530
  191TIP3   OH2  536   4.696   1.433   2.199 -0.3330 -0.1151 -0.4709
  191TIP3    H1  537   4.770   1.460   2.145 -0.1405  0.4318  0.0603
  191TIP3    H2  538   4.712   1.473   2.284 -0.5274 -1.1347  0.0602
  192TIP3   OH2  539   3.904   1.151   3.199 -0.2689 -0.3057 -0.3589
  192TIP3    H1  540   3.885   1.159   3.106  1.1580  0.1988 -0.6226
  192TIP3    H2  541   3.999   1.155   3.205 -0.3417 -0.2561  1.1333
  193TIP3   OH2  542   5.212   6.529   2.709 -0.0100  0.2772  0.3321
  193TIP3    H1  543   5.117   6.540   2.705 -0.0159 -0.0740 -1.1370
  193TIP3    H2  544   5.246   6.617   2.721 -0.5045  0.4357  0.5993
  194TIP3   OH2  545   6.573   5.006   5.053 -0.1429 -0.0295 -0.7230
  194TIP3    H1  546   6.506   4.986   4.988  1.1594 -0.5581 -1.9435
  194TIP3    H2  547   6.653   5.017   5.003  0.5190  1.6384  0.5964
  195TIP3   OH2  548   3.953   3.691   0.460  0.1800  0.1321 -0.2548
  195TIP3    H1  549   3.924   3.736   0.380  0.6062 -2.7968 -2.1773
  195TIP3    H2  550   3.872   3.679   0.510 -0.1542  1.6305 -0.3617
  196TIP3   OH2  551   5.655   2.795   0.350  0.2392 -0.7435 -0.0202
  196TIP3    H1  552   5.615   2.733   0.289 -1.8871  0.2626  0.2525
  196TIP3    H2  553   5.589   2.863   0.362  0.5144 -0.8763  3.3915
  197TIP3   OH2  554   4.443   3.843   1.858 -0.3201 -0.5637  0.0530
  197TIP3    H1  555   4.525   3.884   1.832  0.5984 -2.5707 -0.4437
  197TIP3    H2  556   4.395   3.831   1.775 -1.1171  0.5253  0.3303
  198TIP3   OH2  557   2.333   2.382   1.982 -0.0047 -0.1775  0.0938
  198TIP3    H1  558   2.282   2.316   2.030  2.0598 -0.7147  1.7251
  198TIP3    H2  559   2.287   2.392   1.899 -2.1694 -1.3302  1.0673
  199TIP3   OH2  560   2.140   6.725   4.380  0.0040  0.4272 -0.1401
  199TIP3    H1  561   2.084   6.715   4.303  0.5340  0.1499 -0.4935
  199TIP3    H2  562   2.227   6.745   4.345  0.0891  1.0340  0.4134
  200TIP3   OH2  563   1.475   0.453   3.715 -0.0708 -0.5569  0.5916
  200TIP3    H1  564   1.431   0.481   3.795 -0.2472 -0.1477  0.3560
  200TIP3    H2  565   1.443   0.364   3.700  0.5540 -0.9283  1.3872
  201TIP3   OH2  566   4.508   3.003   2.022 -0.2967  0.1830 -0.1447
  201TIP3    H1  567   4.542   3.052   2.097  1.5304 -0.1558 -0.6982
  201TIP3    H2  568   4.553   2.919   2.026 -0.2897  0.1031 -1.5302
  202TIP3   OH2  569   1.449   0.261   1.924 -0.0271  0.1686  0.0305
  202TIP3    H1  570   1.511   0.332   1.938  1.3651 -0.7445 -1.1387
  202TIP3    H2  571   1.420   0.236   2.011 -0.4761  2.0826  0.4639
  203TIP3   OH2  572   6.817   1.678   1.919  0.4424 -0.1744  0.3675
  203TIP3    H1  573   6.810   1.728   2.000 -1.0245  1.6099 -0.7762
  203TIP3    H2  574   6.907   1.693   1.889  0.6751 -0.0265  1.1104
  204TIP3   OH2  575   6.151   2.148   0.350 -0.3732 -0.5955 -0.5668
  204TIP3    H1  576   6.203   2.068   0.353 -0.4923 -0.6560  1.3203
  204TIP3    H2  577   6.065   2.119   0.321 -0.0659 -0.9193 -1.1819
  205TIP3   OH2  578   0.274   2.434   0.008 -0.2483 -0.3503 -0.0007
  205TIP3    H1  579   0.340   2.371   0.038 -0.2018 -1.0579 -1.4689
  205TIP3    H2  580   0.278   2.505   0.071  1.7879 -0.4757  0.0686
  206TIP3   OH2  581   5.352   5.729   3.276 -0.8837 -0.0968  0.5204
  206TIP3    H1  582   5.307   5.646   3.295 -1.6261  0.1714 -0.0257
  206TIP3    H2  583   5.410   5.742   3.350 -1.6456 -0.5044  1.2032
  207TIP3   OH2  584   2.645   4.298   3.281  0.1625 -0.1639 -0.3609
  207TIP3    H1  585   2.670   4.220   3.231  0.0195 -0.2179 -0.3503
  207TIP3    H2  586   2.572   4.268   3.335  0.1198 -0.0262 -0.3436
  208TIP3   OH2  587   6.812   5.274   4.141  0.4509 -0.1462  0.1861
  208TIP3    H1  588   6.825   5.283   4.047  0.1285  1.1846  0.2531
  208TIP3    H2  589   6.722   5.244   4.151 -0.2213  1.7334  0.1169
  209TIP3   OH2  590   5.656   4.001   3.389 -0.0798  0.3210  0.2393
  209TIP3    H1  591   5.695   4.075   3.437 -0.2792  0.4000  0.2789
  209TIP3    H2  592   5.584   3.972   3.445 -0.1170  0.2141  0.1353
  210TIP3   OH2  593   4.805   2.301   0.151  0.0212  0.3798  0.1178
  210TIP3    H1  594   4.719   2.258   0.159  0.3486 -0.3828 -0.3336
  210TIP3    H2  595   4.789   2.391   0.179 -1.1580  0.5401 -0.9635
  211TIP3   OH2  596   5.739   0.980   4.854  0.1639  0.5776  0.2040
  211TIP3    H1  597   5.764   1.053   4.910 -2.4508  2.2293 -0.5936
  211TIP3    H2  598   5.666   0.938   4.900  1.1098 -1.0846  0.2632
  212TIP3   OH2  599   2.943   0.317   3.602 -0.0072  0.5273  0.1475
  212TIP3    H1  600   2.925   0.411   3.604  0.6071  0.6478  0.1407
  212TIP3    H2  601   2.864   0.277   3.639  0.0563  1.0932  0.9293
  213TIP3   OH2  602   6.589   3.501   5.527  0.0036  0.2472  0.2637
  213TIP3    H1  603   6.648   3.470   5.595  1.5651  1.7519 -0.3152
  213TIP3    H2  604   6.530   3.562   5.571 -0.1026 -0.0714  0.5637
  214TIP3   OH2  605   1.316   6.183   1.497  0.1608 -0.2259  0.3309
  214TIP3    H1  606   1.307   6.266   1.545 -1.1975  0.0500 -0.3443
  214TIP3    H2  607   1.234   6.137   1.515  2.0064 -2.8439  3.1708
  215TIP3   OH2  608   6.864   6.798   1.655  0.5613  0.6804  0.8190
  215TIP3    H1  609   6.940   6.814   1.712 -0.1809 -0.4085  2.1874
  215TIP3    H2  610   6.795   6.771   1.715 -0.2608 -0.5386 -0.6114
  216TIP3   OH2  611   3.192   5.915   1.297 -0.0053  0.2035  0.8343
  216TIP3    H1  612   3.120   5.864   1.334 -0.7110 -0.0737 -0.8189
  216TIP3    H2  613   3.270   5.862   1.310 -0.8861 -1.9846 -1.9257
  217TIP3   OH2  614   0.330   2.022   5.351  0.1878  0.1879  0.3444
  217TIP3    H1  615   0.294   1.978   5.428  0.0617  0.4795  0.4508
  217TIP3    H2  616   0.422   1.993   5.349 -0.3580 -1.6222 -0.6902
  218TIP3   OH2  617   4.452   6.349   5.066 -0.4672 -0.1483 -0.3861
  218TIP3    H1  618   4.440   6.362   5.160 -1.2291 -1.4414 -0.2751
  218TIP3    H2  619   4.472   6.256   5.057 -0.4843 -0.0597 -1.5191
  219TIP3   OH2  620   3.703   0.648   4.545 -0.1951  0.2942 -0.1503
  219TIP3    H1  621   3.660   0.589   4.483 -2.3381  1.8081 -0.2047
  219TIP3    H2  622   3.778   0.683   4.498 -1.7061  1.3192 -1.8937
  220TIP3   OH2  623   5.823   0.942   0.452 -0.1103  0.6237 -0.3843
  220TIP3    H1  624   5.902   0.920   0.403 -0.1432 -0.1627 -0.1002
  220TIP3    H2  625   5.854   0.956   0.541 -0.2902  0.2418 -0.2576
  221TIP3   OH2  626   6.988   1.666   3.227  0.3768  0.6654 -0.2453
  221TIP3    H1  627   6.995   1.583   3.275 -2.0307  0.4810 -0.0477
  221TIP3    H2  628   6.974   1.639   3.136  1.2139  0.9151 -0.4527
  222TIP3   OH2  629   2.349   6.569   0.113 -0.4276 -0.8790  0.0298
  222TIP3    H1  630   2.379   6.624   0.185  0.6875 -0.2670 -0.8789
  222TIP3    H2  631   2.272   6.523   0.149  1.1596 -2.0028  2.2304
  223TIP3   OH2  632   5.979   5.565   1.918 -0.3940  0.4983 -0.0789
  223TIP3    H1  633   6.008   5.574   1.827  0.0333  0.1806  0.0224
  223TIP3    H2  634   5.905   5.505   1.913  0.2174 -0.2704 -0.1177
  224TIP3   OH2  635   0.974   1.909   3.918 -0.4910  0.1125  0.1026
  224TIP3    H1  636   0.973   1.900   3.823  0.0320 -3.7558  0.2816
  224TIP3    H2  637   0.885   1.886   3.946 -0.5524  0.8897  0.5667
  225TIP3   OH2  638   6.893   4.077   5.502 -0.0781  0.1776 -0.5165
  225TIP3    H1  639   6.870   3.984   5.503  3.3539 -0.8323 -1.0390
  225TIP3    H2  640   6.819   4.121   5.544 -2.1027 -2.6728 -0.7963
  226TIP3   OH2  641   1.055   4.813   4.701  0.1952  0.0806  0.0950
  226TIP3    H1  642   1.103   4.748   4.649 -0.8543 -1.4199  0.9118
  226TIP3    H2  643   0.981   4.839   4.646 -0.8794 -1.4592  0.7381
  227TIP3   OH2  644   3.252   1.199   2.669  0.1938  0.2713 -0.2279
  227TIP3    H1  645   3.220   1.177   2.757  1.4181 -0.8484 -0.0386
  227TIP3    H2  646   3.316   1.269   2.684  1.3132 -0.7566 -0.0604
  228TIP3   OH2  647   5.201   2.519   4.086  0.7566  0.1890  0.5068
  228TIP3    H1  648   5.274   2.496   4.029  0.6003  1.0872 -0.0824
  228TIP3    H2  649   5.205   2.615   4.093 -1.0751  0.3883 -0.5387
  229TIP3   OH2  650   2.508   4.918   2.472  0.0128  0.0850  0.7965
  229TIP3    H1  651   2.558   4.973   2.411  1.0193 -0.1174  1.4143
  229TIP3    H2  652   2.542   4.830   2.457 -2.1431 -0.5586 -0.7476
  230TIP3   OH2  653   0.949   2.246   0.094  0.3536 -0.4489 -0.3982
  230TIP3    H1  654   1.037   2.210   0.081  0.7353 -1.0821  3.0149
  230TIP3    H2  655   0.956   2.336   0.063  1.7296 -0.9382 -1.6307
  231TIP3   OH2  656   6.043   1.163   3.347  0.5087  0.2406 -0.2629
  231TIP3    H1  657   6.006   1.210   3.422 -1.1798 -2.4845  0.7316
  231TIP3    H2  658   6.008   1.210   3.271  0.0128  1.3902  0.6332
  232TIP3   OH2  659   4.696   3.953   1.244 -0.6311 -0.2636  0.4372
  232TIP3    H1  660   4.722   4.003   1.322  2.8063 -1.5215  0.3027
  232TIP3    H2  661   4.678   3.865   1.277  0.3542 -0.6746 -0.0701
  233TIP3   OH2  662   3.609   1.073   2.631  0.0893 -0.3235  0.3102
  233TIP3    H1  663   3.582   1.019   2.705 -1.1565 -0.6508 -0.3450
  233TIP3    H2  664   3.530   1.079   2.576  0.5736  1.0909 -0.2743
  234TIP3   OH2  665   4.225   2.269   0.882 -0.0624 -0.2097  0.5641
  234TIP3    H1  666   4.200   2.239   0.969 -0.2265 -2.2388 -0.1399
  234TIP3    H2  667   4.308   2.316   0.895 -0.7323  0.6404  1.9543
  235TIP3   OH2  668   4.440   4.269   5.028  0.0282 -0.0470  0.1499
  235TIP3    H1  669   4.453   4.353   5.072  2.1551  0.9745 -2.1884
  235TIP3    H2  670   4.371   4.286   4.964 -0.5003 -0.5291  0.5678
  236TIP3   OH2  671   0.088   5.481   1.117  0.6657  0.0752  0.1842
  236TIP3    H1  672   0.062   5.545   1.051  1.3587 -1.4623 -1.6868
  236TIP3    H2  673   0.179   5.503   1.137  1.3402 -1.0022 -1.4366
  237TIP3   OH2  674   3.397   5.534   2.366  0.5594 -0.5319 -0.1740
  237TIP3    H1  675   3.343   5.601   2.406 -0.4842 -1.7202  0.4802
  237TIP3    H2  676   3.411   5.564   2.276 -2.5873 -0.9168 -0.9111
  238TIP3   OH2  677   3.734   1.822   3.752 -0.3542 -0.0482  0.3700
  238TIP3    H1  678   3.737   1.875   3.673 -0.2890 -0.6704 -0.0571
  238TIP3    H2  679   3.822   1.785   3.759 -0.1748  0.4901  1.0827
  239TIP3   OH2  680   2.351   2.064   0.440 -0.2771 -0.3572  0.1966
  239TIP3    H1  681   2.387   2.035   0.523  1.3813 -1.8292 -0.9550
  239TIP3    H2  682   2.412   2.131   0.409  0.5434 -1.5818 -0.9375
  240TIP3   OH2  683   0.991   5.870   1.117 -1.1281  0.2861  0.7090
  240TIP3    H1  684   0.962   5.840   1.203  1.4790  1.3947  2.0730
  240TIP3    H2  685   1.077   5.829   1.104 -1.9383 -0.8357 -1.9729
  241TIP3   OH2  686   3.939   0.194   0.139 -0.2030 -0.0425  0.1348
  241TIP3    H1  687   3.905   0.167   0.053  1.6164 -0.4817 -0.4979
  241TIP3    H2  688   3.915   0.123   0.198 -3.3827  1.2167  0.5799
  242TIP3   OH2  689   1.119   3.799   3.295  0.1221  0.5513  0.4396
  242TIP3    H1  690   1.147   3.868   3.355  1.3676  0.7398 -0.3082
  242TIP3    H2  691   1.110   3.843   3.210 -0.8160  0.1334  0.3092
  243TIP3   OH2  692   6.855   2.720   4.623  0.4786 -0.7619 -0.4960
  243TIP3    H1  693   6.826   2.792   4.679 -0.7810 -1.7389  0.1795
  243TIP3    H2  694   6.891   2.655   4.684 -0.9810 -1.8763 -0.7404
  244TIP3   OH2  695   3.282   4.442   3.501 -0.2385  0.0761  0.1117
  244TIP3    H1  696   3.300   4.432   3.594  1.2802  0.0222 -0.1565
  244TIP3    H2  697   3.187   4.439   3.494 -0.3342 -1.3271  1.5027
  245TIP3   OH2  698   1.603   3.712   2.987 -0.0180  0.1572 -0.1077
  245TIP3    H1  699   1.644   3.787   3.030  1.3588  0.4829 -1.8599
  245TIP3    H2  700   1.664   3.688   2.917 -2.6793  0.5773 -2.8018
  246TIP3   OH2  701   3.080   6.631   0.053 -0.7170  0.5425  0.0993
  246TIP3    H1  702   3.133   6.709   0.066 -1.0339  0.4934  2.0474
  246TIP3    H2  703   3.043   6.613   0.139 -0.0059 -2.2302 -0.0675
  247TIP3   OH2  704   0.929   4.173   0.073 -0.5029  0.3504  0.3304
  247TIP3    H1  705   0.856   4.227   0.043 -0.6757  1.0994  2.0324
  247TIP3    H2  706   0.889   4.097   0.113 -0.2579 -1.4505 -2.5602
  248TIP3   OH2  707   4.327   0.051   5.780 -0.3985 -0.3498 -0.4679
  248TIP3    H1  708   4.379   0.114   5.730  0.3662 -1.1537 -0.7089
  248TIP3    H2  709   4.391  -0.005   5.823 -1.0578 -1.7050 -1.1977
  249TIP3   OH2  710   1.978   1.807   4.668 -0.3368  0.0658  0.4864
  249TIP3    H1  711   1.889   1.801   4.703 -0.9245  0.7545 -0.8174
  249TIP3    H2  712   2.019   1.877   4.719 -0.8690  0.4087  0.4502
  250TIP3   OH2  713   4.181   3.304   2.066 -0.2628  0.3446 -0.1650
  250TIP3    H1  714   4.150   3.384   2.024 -2.5356 -1.2179 -1.6338
  250TIP3    H2  715   4.125   3.295   2.144  0.0946  0.2472  0.0829
  251TIP3   OH2  716   0.490   0.107   1.885 -0.3181  0.2449  0.3865
  251TIP3    H1  717   0.400   0.104   1.918 -0.0747  0.5496  1.0903
  251TIP3    H2  718   0.509   0.016   1.860 -0.4368 -0.0483  1.3053
  252TIP3   OH2  719   6.378   5.655   4.610 -0.0869  0.0334 -0.1887
  252TIP3    H1  720   6.412   5.684   4.525 -0.2292 -0.4883 -0.4265
  252TIP3    H2  721   6.304   5.714   4.627 -0.0033  0.1970 -0.3820
  253TIP3   OH2  722   6.423   1.688   4.559  0.0178 -0.1919  0.1211
  253TIP3    H1  723   6.478   1.767   4.560  2.3305 -1.6814  1.4404
  253TIP3    H2  724   6.346   1.711   4.610  0.4634  1.3091  0.1616
  254TIP3   OH2  725   3.550   0.596   5.321  0.2758 -0.1365  0.2190
  254TIP3    H1  726   3.544   0.669   5.383 -2.9122 -1.2172  1.3504
  254TIP3    H2  727   3.513   0.632   5.240  0.8878  0.1497  0.0576
  255TIP3   OH2  728   6.008   6.106   4.011 -0.4366 -0.0689  0.9926
  255TIP3    H1  729   6.049   6.161   3.944 -1.5852 -0.5007 -0.1143
  255TIP3    H2  730   6.072   6.036   4.027 -0.6869 -0.7404 -0.7163
  256TIP3   OH2  731   6.812   0.712   0.303 -0.4703  0.3037  0.8309
  256TIP3    H1  732   6.847   0.774   0.239 -0.2181 -0.0820  0.5931
  256TIP3    H2  733   6.801   0.763   0.383 -1.5844  1.0099  0.2547
  257TIP3   OH2  734   0.759   0.882   4.521  0.5454 -0.3349 -0.5323
  257TIP3    H1  735   0.827   0.824   4.486  1.4451  0.6105 -0.4037
  257TIP3    H2  736   0.770   0.964   4.473 -1.8185 -0.7571 -1.9278
  258TIP3   OH2  737   6.639   2.790   4.853  0.1465  0.5470  0.2581
  258TIP3    H1  738   6.575   2.788   4.924 -0.6567  0.8642 -0.4325
  258TIP3    H2  739   6.708   2.847   4.885  0.2127 -0.0051  1.1189
  259TIP3   OH2  740   1.234   1.033   2.741  0.5217  0.1459 -0.4023
  259TIP3    H1  741   1.289   1.071   2.672  0.5281  0.5424 -0.1776
  259TIP3    H2  742   1.296   0.993   2.802  0.5225 -0.0824 -0.5503
  260TIP3   OH2  743   5.062   0.209   5.296 -0.3542 -0.4578  0.3519
  260TIP3    H1  744   5.018   0.150   5.234  0.1594 -1.0739  0.5551
  260TIP3    H2  745   5.155   0.198   5.277 -0.2061 -0.4308  1.0322
  261TIP3   OH2  746   6.787   4.598   4.980 -0.0453 -0.1996  0.2867
  261TIP3    H1  747   6.810   4.679   4.934 -0.3446  0.2989  0.9921
  261TIP3    H2  748   6.856   4.537   4.958 -1.1736 -0.6338 -2.4296
  262TIP3   OH2  749   0.522   1.780   1.146 -0.4054 -0.2885 -0.4478
  262TIP3    H1  750   0.464   1.807   1.075  0.6752 -0.3054 -1.3750
  262TIP3    H2  751   0.513   1.685   1.149 -1.3821 -0.1918  0.2956
  263TIP3   OH2  752   7.056   0.995   1.476 -0.5983  0.0523 -0.2069
  263TIP3    H1  753   7.101   0.983   1.393  0.1382 -1.3730  0.3602
  263TIP3    H2  754   7.009   0.912   1.490 -1.3141  0.5524  0.4380
  264TIP3   OH2  755   7.180   5.194   2.873  0.3173 -0.5217 -0.0786
  264TIP3    H1  756   7.157   5.181   2.965 -1.4199 -1.2631 -0.5780
  264TIP3    H2  757   7.183   5.289   2.862  1.2852 -0.4211  0.8896
  265TIP3   OH2  758   0.369   3.991   1.983  0.0505  0.4742 -0.4837
  265TIP3    H1  759   0.349   3.905   2.021 -2.7251 -0.1307 -2.9743
  265TIP3    H2  760   0.450   3.976   1.933 -0.8579 -1.0099 -1.6062
  266TIP3   OH2  761   1.731   1.919   1.965  0.2152  0.0841 -0.1610
  266TIP3    H1  762   1.819   1.937   2.000 -0.5543  1.8915  1.0552
  266TIP3    H2  763   1.725   1.974   1.887  0.4811 -0.7500 -0.7712
  267TIP3   OH2  764   5.081   0.523   0.401 -0.1256  0.0328 -0.0768
  267TIP3    H1  765   5.000   0.548   0.355  0.7558  0.6685 -1.3615
  267TIP3    H2  766   5.139   0.493   0.331  1.9095  2.7171  0.3035
  268TIP3   OH2  767   3.330   2.743   1.873  0.1735 -0.3362 -0.1422
  268TIP3    H1  768   3.327   2.778   1.784  1.4209 -1.0639 -0.4948
  268TIP3    H2  769   3.386   2.804   1.921 -0.1523 -0.1779  0.0412
  269TIP3   OH2  770   5.676   3.836   4.680  0.2173  0.7972 -0.3718
  269TIP3    H1  771   5.749   3.797   4.729 -1.1889  0.7338  1.8379
  269TIP3    H2  772   5.718   3.895   4.617  2.2037 -0.5136 -0.3739
  270TIP3   OH2  773   3.839   3.513   2.773 -0.8272  0.4177 -0.1001
  270TIP3    H1  774   3.895   3.453   2.821 -1.1894 -0.2979 -0.5587
  270TIP3    H2  775   3.842   3.482   2.683 -0.2419  1.6715 -0.5477
  271TIP3   OH2  776   4.842   5.273   1.639 -0.1325 -0.2560  0.2097
  271TIP3    H1  777   4.821   5.351   1.690  0.3248 -0.0716  0.1164
  271TIP3    H2  778   4.833   5.300   1.548  0.8416 -0.0759  0.1600
  272TIP3   OH2  779   2.302   5.753   3.684  0.4744 -0.2051  0.4855
  272TIP3    H1  780   2.297   5.714   3.597 -1.0141  0.0442  0.4335
  272TIP3    H2  781   2.328   5.844   3.669  0.3350 -0.1947  0.3124
  273TIP3   OH2  782   5.904   3.578   4.540  0.5158 -0.3966  0.3087
  273TIP3    H1  783   5.884   3.611   4.452 -2.8096 -1.8723  0.3727
  273TIP3    H2  784   5.997   3.555   4.536  0.2984 -1.2026 -3.0991
  274TIP3   OH2  785   6.819   5.979   1.902  0.0369 -0.1056 -0.2253
  274TIP3    H1  786   6.841   6.042   1.971 -0.5177  0.3584 -0.4674
  274TIP3    H2  787   6.723   5.977   1.901  0.0240  0.3331 -1.3677
  275TIP3   OH2  788   6.820   1.951   5.293 -0.3399  0.2040 -0.4784
  275TIP3    H1  789   6.907   1.986   5.315  0.9953 -1.6279 -2.4269
  275TIP3    H2  790   6.825   1.858   5.318 -2.9332  0.6575  2.3324
  276TIP3   OH2  791   4.104   0.839   4.583  0.1974 -0.4457 -0.2452
  276TIP3    H1  792   4.133   0.898   4.514  0.5268  0.2213  0.4555
  276TIP3    H2  793   4.133   0.752   4.554  1.6352  0.0137 -0.2372
  277TIP3   OH2  794   0.792   3.107   4.851 -0.4872 -0.3469 -0.5675
  277TIP3    H1  795   0.805   3.018   4.819 -0.7184  0.4478 -3.0733
  277TIP3    H2  796   0.735   3.148   4.786  0.7448  2.0363 -0.2475
  278TIP3   OH2  797   3.569   5.437   3.188 -0.0033 -1.0251  0.6041
  278TIP3    H1  798   3.505   5.386   3.138  0.3294 -2.4838  1.5895
  278TIP3    H2  799   3.650   5.388   3.179  1.0688  0.8829 -0.7443
  279TIP3   OH2  800   5.266   6.611   0.419  0.3526 -0.0180  0.2085
  279TIP3    H1  801   5.333   6.545   0.432 -1.0555 -1.9454 -1.5927
  279TIP3    H2  802   5.221   6.585   0.339 -0.2302  3.2201 -0.6848
  280TIP3   OH2  803   3.093   4.366   4.225  0.0530  0.7414 -0.0521
  280TIP3    H1  804   3.062   4.276   4.231 -0.8774  1.1569  1.8343
  280TIP3    H2  805   3.019   4.414   4.189  1.0376  0.5816 -2.5229
  281TIP3   OH2  806   1.376   0.748   0.400 -0.3077  0.5626 -0.0427
  281TIP3    H1  807   1.463   0.788   0.400  0.1711 -0.4273  0.0384
  281TIP3    H2  808   1.371   0.701   0.317 -0.4008 -0.1187  0.3409
  282TIP3   OH2  809   6.922   1.441   3.339  0.0356 -0.3255  0.5034
  282TIP3    H1  810   6.974   1.369   3.304 -0.3966 -0.9428  1.0922
  282TIP3    H2  811   6.892   1.409   3.424 -0.2755  0.5038  0.7137
  283TIP3   OH2  812   6.866   6.780   4.632 -0.2971 -0.4476 -0.1114
  283TIP3    H1  813   6.907   6.738   4.556 -1.3911 -2.3430  0.2809
  283TIP3    H2  814   6.896   6.871   4.628  1.2234 -0.9566 -1.6993
  284TIP3   OH2  815   4.513   5.938   2.094 -0.2043 -0.2235 -0.0263
  284TIP3    H1  816   4.529   5.930   2.000  0.5242  2.1643 -0.1813
  284TIP3    H2  817   4.430   5.985   2.101  0.2110  0.4541  0.4874
  285TIP3   OH2  818   2.901   4.818   3.642  0.0928 -0.3014  0.5433
  285TIP3    H1  819   2.917   4.911   3.628  0.3481 -0.3462  0.5329
  285TIP3    H2  820   2.867   4.812   3.731  2.6991 -0.4770  1.6226
  286TIP3   OH2  821   0.677   0.683   0.967  0.5984 -0.0180  0.1703
  286TIP3    H1  822   0.672   0.689   0.872 -0.5746 -0.2141  0.2031
  286TIP3    H2  823   0.737   0.610   0.983 -0.3624 -0.9754 -0.4521
  287TIP3   OH2  824   0.515   2.083   2.259 -0.0787 -0.0509  0.2577
  287TIP3    H1  825   0.474   2.139   2.192 -0.3947 -0.8574 -0.2281
  287TIP3    H2  826   0.582   2.139   2.298 -1.5576  1.2684  1.0042
  288TIP3   OH2  827   5.042   6.176   5.746 -0.8335 -0.6621 -0.5779
  288TIP3    H1  828   4.965   6.125   5.770 -1.3945  0.8994  1.2106
  288TIP3    H2  829   5.116   6.117   5.764 -1.5408 -1.8056 -1.3012
  289TIP3   OH2  830   3.461   1.387   2.710  0.6252 -0.1696 -0.4107
  289TIP3    H1  831   3.539   1.376   2.766  0.3681  0.7561  0.1531
  289TIP3    H2  832   3.475   1.471   2.666  0.8555 -0.9235 -1.8293
  290TIP3   OH2  833   0.445   5.656   4.355 -0.3166  0.0889  0.1745
  290TIP3    H1  834   0.489   5.683   4.436 -0.7539 -0.0459  0.4636
  290TIP3    H2  835   0.484   5.572   4.333  1.6039  1.2420 -1.1521
  291TIP3   OH2  836   1.121   6.390   0.597 -0.0236  0.4415 -0.0402
  291TIP3    H1  837   1.082   6.328   0.535 -0.2508  1.7272 -1.2396
  291TIP3    H2  838   1.047   6.444   0.626  0.5222  1.6581 -0.8461
  292TIP3   OH2  839   4.502   6.077   5.098 -0.2151  0.7418 -0.2432
  292TIP3    H1  840   4.523   6.110   5.186 -1.6655  0.4043  0.2522
  292TIP3    H2  841   4.444   6.002   5.114 -1.2233  1.2300 -1.5201
  293TIP3   OH2  842   1.876   0.947   5.613 -0.0856 -0.3365  0.0785
  293TIP3    H1  843   1.877   0.906   5.526  1.1291 -0.7265  0.2467
  293TIP3    H2  844   1.962   0.925   5.650 -1.3485 -2.0074  2.2465
  294TIP3   OH2  845   1.920   4.559   3.442 -0.7701 -0.2741  0.0866
  294TIP3    H1  846   1.933   4.599   3.528 -0.4468  0.0678 -0.1180
  294TIP3    H2  847   1.865   4.482   3.460  1.2203 -1.6066  0.9816
  295TIP3   OH2  848   0.813   3.716   0.743  0.1189 -0.4739  0.4111
  295TIP3    H1  849   0.722   3.744   0.759  0.1055  0.8526 -1.6150
  295TIP3    H2  850   0.858   3.734   0.826 -1.4784 -1.3840  1.5447
  296TIP3   OH2  851   4.989   3.884   2.159 -0.3019 -0.1916 -0.1380
  296TIP3    H1  852   4.943   3.908   2.079 -2.2869  0.5730  1.1598
  296TIP3    H2  853   4.968   3.791   2.171  0.2575 -0.3917 -0.6327
  297TIP3   OH2  854   4.905   6.793   2.592  0.1400  0.2134 -0.4973
  297TIP3    H1  855   4.924   6.807   2.499 -1.8290 -0.6934 -1.0972
  297TIP3    H2  856   4.893   6.698   2.600 -2.0724  0.4835  0.1159
  298TIP3   OH2  857   6.591   5.938   2.477 -0.2305  0.9166  0.4317
  298TIP3    H1  858   6.598   5.985   2.394 -3.1687  0.5483 -0.1394
  298TIP3    H2  859   6.560   6.004   2.539 -2.1556  0.3272  0.1639
  299TIP3   OH2  860   3.403   5.347   4.478 -0.2227  0.5021  0.7486
  299TIP3    H1  861   3.424   5.310   4.392  0.8377  0.0911  1.1693
  299TIP3    H2  862   3.472   5.314   4.536 -2.2333 -1.2289  2.3049
  300TIP3   OH2  863   0.857   2.578   1.444 -0.5080 -0.6008  0.3683
  300TIP3    H1  864   0.804   2.614   1.516 -0.6687 -0.5661  0.2323
  300TIP3    H2  865   0.795   2.561   1.374 -0.1115  1.0398 -0.4274
  301TIP3   OH2  866   4.309   0.233   2.469  0.3739  0.9299 -0.2348
  301TIP3    H1  867   4.327   0.155   2.523  0.3573  0.9036 -0.2671
  301TIP3    H2  868   4.325   0.204   2.379 -2.1580  0.1685 -0.5342
  302TIP3   OH2  869   6.896   1.890   0.687  0.2479  0.5098 -0.1205
  302TIP3    H1  870   6.909   1.837   0.765  1.2291 -0.7726 -1.1102
  302TIP3    H2  871   6.981   1.929   0.669  0.7954 -1.3678 -2.0249
  303TIP3   OH2  872   6.357   0.049   4.218  0.2922  0.0689 -0.0531
  303TIP3    H1  873   6.355   0.005   4.303  0.8761  1.2045  0.5671
  303TIP3    H2  874   6.423   0.001   4.168  0.1582 -0.4240  0.2336
  304TIP3   OH2  875   0.998   5.741   2.473 -0.1795  0.3230  0.0760
  304TIP3    H1  876   1.001   5.646   2.457  1.0049  0.0968  1.4558
  304TIP3    H2  877   0.913   5.756   2.514  0.0316 -0.3082  0.7573
  305TIP3   OH2  878   1.480   5.870   2.283  0.2512  0.4376 -0.1717
  305TIP3    H1  879   1.443   5.856   2.370 -0.5510 -2.6581 -0.8881
  305TIP3    H2  880   1.405   5.863   2.224  0.9393  1.3927 -1.1840
  306TIP3   OH2  881   4.455   5.728   1.632  0.1079  0.4427  0.2737
  306TIP3    H1  882   4.480   5.663   1.697 -0.8471  0.5330  0.7409
  306TIP3    H2  883   4.478   5.812   1.673  3.2790  0.4171 -1.1337
  307TIP3   OH2  884   5.321   0.299   3.517 -0.2297 -0.0052 -0.1645
  307TIP3    H1  885   5.284   0.215   3.543 -2.1182  0.7173 -0.3374
  307TIP3    H2  886   5.381   0.322   3.587 -1.7819 -0.2309  1.2947
  308TIP3   OH2  887   1.401   1.381   4.409  0.0925 -0.0524  0.7182
  308TIP3    H1  888   1.455   1.338   4.343  0.6070  0.6566  0.6651
  308TIP3    H2  889   1.461   1.439   4.455 -0.3709 -0.1543  1.4743
  309TIP3   OH2  890   1.476   0.290   1.239  0.0918 -0.1607 -0.3603
  309TIP3    H1  891   1.536   0.270   1.167 -0.7069  1.1845 -1.4571
  309TIP3    H2  892   1.464   0.385   1.234 -0.8442 -0.1861  0.8721
  310TIP3   OH2  893   7.126   1.547   1.062  0.4261  0.5821 -0.3813
  310TIP3    H1  894   7.053   1.520   1.006  1.4555 -0.2770 -1.3766
  310TIP3    H2  895   7.127   1.483   1.133  1.5418 -0.8364 -1.5864
  311TIP3   OH2  896   0.597   1.058   5.452  0.2104  0.4602 -0.2970
  311TIP3    H1  897   0.513   1.101   5.435  0.3190  0.8661  0.1536
  311TIP3    H2  898   0.622   1.089   5.539 -0.2626 -1.4086  0.5723
  312TIP3   OH2  899   6.698   6.153   1.122  0.3660 -0.6308  0.1307
  312TIP3    H1  900   6.617   6.202   1.133  0.0144  0.3561 -4.7919
  312TIP3    H2  901   6.669   6.062   1.114  0.0825 -0.6279  1.0161
  313TIP3   OH2  902   6.594   5.701   3.757  0.3039 -0.0730 -0.1723
  313TIP3    H1  903   6.567   5.791   3.737 -1.1574 -0.6671 -1.0898
  313TIP3    H2  904   6.512   5.657   3.781  0.6139 -1.6635 -1.8096
  314TIP3   OH2  905   2.580   2.532   1.133  0.7171 -0.0195 -0.3444
  314TIP3    H1  906   2.556   2.611   1.180  0.4047  1.6332 -3.0657
  314TIP3    H2  907   2.665   2.553   1.093  1.0996 -1.4348 -0.3397
  315TIP3   OH2  908   0.236   3.636   1.457  0.7100  0.7292  0.2445
  315TIP3    H1  909   0.230   3.552   1.414 -1.4891  0.6787  0.5190
  315TIP3    H2  910   0.230   3.615   1.551  3.0293  1.0150  0.5101
  316TIP3   OH2  911   5.811   2.486   4.252 -0.1150  0.1700 -0.0706
  316TIP3    H1  912   5.798   2.391   4.258  0.0612  0.1868  0.7235
  316TIP3    H2  913   5.723   2.523   4.258 -0.0908  0.1017  0.9196
  317TIP3   OH2  914   0.589   5.410   1.388  0.1630 -0.2813 -0.4444
  317TIP3    H1  915   0.635   5.335   1.350  0.5628 -0.7803  0.9401
  317TIP3    H2  916   0.639   5.486   1.359 -0.0595 -0.5618 -1.6035
  318TIP3   OH2  917   1.742   2.226   5.224 -0.0710 -0.4660  0.6210
  318TIP3    H1  918   1.654   2.218   5.189  0.1810 -1.9195  0.2861
  318TIP3    H2  919   1.777   2.137   5.224  2.0043  0.2608 -0.8496
  319TIP3   OH2  920   1.099   0.188   3.355 -0.1851 -0.0356 -0.3214
  319TIP3    H1  921   1.074   0.169   3.445 -0.9470  0.2595 -0.4618
  319TIP3    H2  922   1.164   0.258   3.362 -0.0355 -0.2093  0.0108
  320TIP3   OH2  923   0.416   2.785   2.953  0.5243 -0.1626 -0.0064
  320TIP3    H1  924   0.462   2.816   2.876 -1.2689  0.0262 -1.0543
  320TIP3    H2  925   0.337   2.839   2.958  0.5915 -0.1564  1.9801
  321TIP3   OH2  926   0.104   5.323   0.288 -0.6263  0.4128  0.4568
  321TIP3    H1  927   0.066   5.395   0.339 -0.5005  1.1742 -0.4852
  321TIP3    H2  928   0.192   5.355   0.264 -0.3167 -0.3329  0.5761
  322TIP3   OH2  929   0.920   2.702   5.802  0.3686 -0.2574 -0.2957
  322TIP3    H1  930   0.910   2.684   5.709 -0.7201 -1.8391  0.0943
  322TIP3    H2  931   0.830   2.699   5.837  1.0139 -4.2175  1.5296
  323TIP3   OH2  932   0.453   3.100   3.084 -0.0929  0.8556 -0.3809
  323TIP3    H1  933   0.457   3.164   3.156  0.4903 -0.2233  0.5729
  323TIP3    H2  934   0.398   3.143   3.018  0.2902  2.3460  0.2207
  324TIP3   OH2  935   5.403   0.162   0.267  0.4284  0.2567 -0.2234
  324TIP3    H1  936   5.323   0.159   0.319 -0.1431  0.0008 -1.0970
  324TIP3    H2  937   5.442   0.076   0.278  0.1302  0.0872 -0.4992
  325TIP3   OH2  938   6.141   4.454   5.475 -0.7650 -0.4299  0.0358
  325TIP3    H1  939   6.099   4.524   5.425 -0.3353 -1.2378 -1.5522
  325TIP3    H2  940   6.196   4.498   5.538  0.2169  0.7088 -1.5379
  326TIP3   OH2  941   0.266   0.346   4.019  0.4688 -0.5700 -0.1506
  326TIP3    H1  942   0.302   0.418   3.966  2.1233 -0.3652  1.1730
  326TIP3    H2  943   0.244   0.278   3.955  0.4777  0.4486 -1.2686
  327TIP3   OH2  944   5.727   3.068   4.491  0.1680  0.3052  0.4686
  327TIP3    H1  945   5.703   3.161   4.487 -1.5922 -0.1633 -1.7383
  327TIP3    H2  946   5.822   3.068   4.478 -0.1348  1.7195 -2.6443
  328TIP3   OH2  947   2.919   5.765   5.270 -1.0187  0.3212 -0.1239
  328TIP3    H1  948   2.859   5.700   5.234 -2.0499  1.0298  0.2771
  328TIP3    H2  949   2.882   5.788   5.355 -0.6199  1.3464 -0.2146
  329TIP3   OH2  950   2.147   0.912   2.386 -0.6501  0.4509  0.2256
  329TIP3    H1  951   2.219   0.860   2.349 -1.2404  0.4745 -0.9875
  329TIP3    H2  952   2.094   0.848   2.434 -1.3510 -0.0928 -1.2247
  330TIP3   OH2  953   1.721   4.502   2.978 -0.5283  0.6963  0.0724
  330TIP3    H1  954   1.671   4.429   3.014  1.6321  0.0412  1.9734
  330TIP3    H2  955   1.758   4.547   3.054  0.3204  2.2282 -1.1663
  331TIP3   OH2  956   3.994   1.583   5.628  0.0243 -0.2336  0.1963
  331TIP3    H1  957   4.014   1.493   5.602  1.4466  0.4910 -1.3916
  331TIP3    H2  958   3.936   1.615   5.559  0.4670  0.4279  0.1295
  332TIP3   OH2  959   4.641   0.858   3.951  0.0517  0.6372 -0.6537
  332TIP3    H1  960   4.574   0.835   4.015  0.1853  1.0791 -0.3531
  332TIP3    H2  961   4.592   0.900   3.880  0.1329  2.1652  0.1491
  333TIP3   OH2  962   1.933   3.655   5.566 -0.4366 -0.0139 -0.5083
  333TIP3    H1  963   1.915   3.687   5.478 -0.6386  0.3524 -0.3317
  333TIP3    H2  964   1.857   3.602   5.589 -1.6490  2.0508  0.4905
  334TIP3   OH2  965   0.844   3.778   2.221  0.0588 -0.0477  0.3488
  334TIP3    H1  966   0.752   3.800   2.231  0.0271  0.1120 -0.2490
  334TIP3    H2  967   0.848   3.683   2.234 -0.5121 -0.3878 -1.6176
  335TIP3   OH2  968   5.586   1.523   4.783 -0.5535 -0.6335  0.4949
  335TIP3    H1  969   5.647   1.457   4.814 -1.6297 -2.6320 -1.2905
  335TIP3    H2  970   5.506   1.508   4.834 -0.6433 -0.3857  0.4302
  336TIP3   OH2  971   3.028   2.480   0.145  0.3640 -0.4920  0.2854
  336TIP3    H1  972   2.979   2.559   0.124 -0.8717 -1.5420 -0.9132
  336TIP3    H2  973   3.111   2.491   0.100  2.0735  2.0077  3.5516
  337TIP3   OH2  974   5.242   5.535   3.727  0.5059  0.0056  0.2150
  337TIP3    H1  975   5.310   5.544   3.660 -0.3434 -0.0088 -0.6803
  337TIP3    H2  976   5.289   5.506   3.806  1.1592 -3.3308 -1.2168
  338TIP3   OH2  977   1.143   4.863   2.545 -0.2772  0.6290 -0.2471
  338TIP3    H1  978   1.126   4.957   2.532 -0.2335  0.7394  0.4471
  338TIP3    H2  979   1.197   4.859   2.624 -1.3874 -0.0556  0.5203
  339TIP3   OH2  980   6.130   1.230   4.693 -0.6609 -0.0403  0.1360
  339TIP3    H1  981   6.144   1.148   4.645  3.5186 -0.8601  2.2651
  339TIP3    H2  982   6.153   1.298   4.631 -0.9190 -0.7035 -0.7085
  340TIP3   OH2  983   5.440   1.369   1.423 -0.7586 -0.4150  0.1973
  340TIP3    H1  984   5.449   1.447   1.477  1.2469  0.7784 -1.7130
  340TIP3    H2  985   5.486   1.301   1.473  1.0445  0.6497  0.0534
  341TIP3   OH2  986   5.438   0.624   3.768  0.2331 -0.1255 -0.3582
  341TIP3    H1  987   5.497   0.576   3.826  1.0171  0.6703 -0.4907
  341TIP3    H2  988   5.495   0.666   3.704 -0.3372  1.7633  0.3014
  342TIP3   OH2  989   4.978   3.018   0.988  0.3735 -0.0272 -0.8569
  342TIP3    H1  990   5.036   2.975   0.926  1.8187 -0.8405  0.9537
  342TIP3    H2  991   4.897   2.967   0.985  0.0789  0.4935 -2.6739
  343TIP3   OH2  992   3.613   0.309   0.748 -0.3854  0.4131  0.5231
  343TIP3    H1  993   3.574   0.224   0.768  1.0491 -0.0989  1.2476
  343TIP3    H2  994   3.628   0.349   0.834 -1.7963  1.7878  0.1798
  344TIP3   OH2  995   4.603   4.910   0.824  0.0929 -0.5084  0.2193
  344TIP3    H1  996   4.632   4.932   0.736  2.3479  1.5379  1.3548
  344TIP3    H2  997   4.549   4.985   0.851  2.2174  0.6198  1.6846
  345TIP3   OH2  998   0.686   3.323   4.254 -0.6242 -0.1189  0.2322
  345TIP3    H1  999   0.644   3.344   4.338 -0.8263 -3.3463  1.1080
  345TIP3    H2 1000   0.754   3.389   4.244 -1.1865  0.9195  2.5081
  346TIP3   OH2 1001   1.518   2.460   3.087 -0.6407 -0.4956 -0.3619
  346TIP3    H1 1002   1.578   2.476   3.014 -2.1553 -0.1722 -1.6224
  346TIP3    H2 1003   1.548   2.518   3.157 -0.1374  0.4622 -1.3415
  347TIP3   OH2 1004   6.526   3.883   4.381 -0.5426  0.4289 -0.7427
  347TIP3    H1 1005   6.475   3.877   4.462 -0.4841 -1.6465 -0.7911
  347TIP3    H2 1006   6.568   3.969   4.385 -2.0595  1.1622  0.4831
  348TIP3   OH2 1007   4.074   3.622   4.533  0.3304  0.7435  0.4702
  348TIP3    H1 1008   4.004   3.676   4.570  0.9156 -0.1265  3.0634
  348TIP3    H2 1009   4.043   3.532   4.543  0.9072  0.4328 -0.3884
  349TIP3   OH2 1010   7.045   4.693   1.525 -0.0528  0.1044 -0.6657
  349TIP3    H1 1011   7.125   4.640   1.524 -0.5681 -0.7376  0.5887
  349TIP3    H2 1012   7.062   4.761   1.590 -0.5609 -0.4142  0.0116
  350TIP3   OH2 1013   0.312   0.475   4.933 -0.0914  0.1963 -0.1432
  350TIP3    H1 1014   0.243   0.510   4.989  0.1162 -1.8655  1.5395
  350TIP3    H2 1015   0.393   0.513   4.967 -0.0951 -0.0489  0.1504
  351TIP3   OH2 1016   2.125   5.638   2.620  0.2063  0.0406 -0.3953
  351TIP3    H1 1017   2.070   5.603   2.690  1.8565  0.0306  0.9452
  351TIP3    H2 1018   2.165   5.561   2.579 -1.3552 -0.0231 -1.9656
  352TIP3   OH2 1019   0.183   2.627   0.463  0.0970 -0.1359 -0.1705
  352TIP3    H1 1020   0.247   2.626   0.534 -0.0621 -0.2789 -0.0264
  352TIP3    H2 1021   0.102   2.595   0.504 -0.1244  0.2557 -0.2935
  353TIP3   OH2 1022   2.827   1.368   2.169 -0.1793 -0.0885  0.4596
  353TIP3    H1 1023   2.808   1.412   2.252 -1.6845 -0.1865  0.1796
  353TIP3    H2 1024   2.922   1.352   2.173  0.3725  2.6376  0.8381
  354TIP3   OH2 1025   6.389   5.681   0.708 -0.3545 -0.2746 -0.4135
  354TIP3    H1 1026   6.336   5.736   0.650 -0.6316 -0.1456 -0.0508
  354TIP3    H2 1027   6.405   5.601   0.659 -1.1348 -0.4301 -0.4290
  355TIP3   OH2 1028   7.231   4.411   5.840  0.7977  0.4694 -0.8826
  355TIP3    H1 1029   7.236   4.507   5.833 -0.8584  0.8585  1.5951
  355TIP3    H2 1030   7.182   4.384   5.763 -3.2962  2.3528  0.7176
  356TIP3   OH2 1031   3.892   5.390   2.732 -0.0428  0.0385  0.3418
  356TIP3    H1 1032   3.856   5.364   2.647 -0.2309 -0.7669  0.6557
  356TIP3    H2 1033   3.904   5.484   2.725 -1.0190  0.1382 -0.2146
  357TIP3   OH2 1034   1.662   3.699   1.048 -0.7018 -0.3217 -0.5768
  357TIP3    H1 1035   1.635   3.777   1.097 -1.5151 -1.1432  0.2968
  357TIP3    H2 1036   1.740   3.728   1.000  0.7576  0.2695  1.9383
  358TIP3   OH2 1037   1.861   1.588   1.586 -0.5331 -0.6001  0.3625
  358TIP3    H1 1038   1.783   1.644   1.586 -0.3515 -0.3400  1.4195
  358TIP3    H2 1039   1.913   1.618   1.660  0.1103 -1.4367  0.2680
  359TIP3   OH2 1040   0.530   5.809   5.376 -0.3127  0.3603  0.2136
  359TIP3    H1 1041   0.622   5.785   5.364 -0.8775 -0.8031 -2.5199
  359TIP3    H2 1042   0.528   5.904   5.365  0.3407  0.1671 -2.1504
  360TIP3   OH2 1043   7.145   0.405   1.114 -0.0356  0.7105 -0.2583
  360TIP3    H1 1044   7.196   0.419   1.193  1.8551  0.5523 -1.3836
  360TIP3    H2 1045   7.201   0.437   1.043 -0.2749 -2.0218 -1.8420
  361TIP3   OH2 1046   7.061   2.294   4.471 -0.3210 -0.1501  0.4465
  361TIP3    H1 1047   6.975   2.332   4.459  0.0722  0.8213  0.6271
  361TIP3    H2 1048   7.121   2.369   4.470  0.6125 -0.8759 -0.5566
  362TIP3   OH2 1049   4.813   0.938   3.609  0.2626 -0.2372 -0.3161
  362TIP3    H1 1050   4.726   0.897   3.608 -0.5544  1.4285 -1.1955
  362TIP3    H2 1051   4.867   0.877   3.659 -1.6236 -0.9089  1.0406
  363TIP3   OH2 1052   5.768   0.508   2.354  0.2281  0.0884 -0.2722
  363TIP3    H1 1053   5.692   0.490   2.409  0.3716 -1.3378 -0.5203
  363TIP3    H2 1054   5.816   0.577   2.401 -0.8988  0.5862  0.1712
  364TIP3   OH2 1055   5.451   0.660   4.254 -0.0791 -0.5083 -0.0609
  364TIP3    H1 1056   5.422   0.722   4.322  3.2693  0.7366  0.4405
  364TIP3    H2 1057   5.424   0.701   4.172  0.9120  1.0408  0.3294
  365TIP3   OH2 1058   3.064   1.867   0.982 -0.6660 -0.1602  0.6988
  365TIP3    H1 1059   3.092   1.805   1.050 -0.7022  1.0888  1.8808
  365TIP3    H2 1060   3.069   1.816   0.901 -0.3186 -1.5984  1.5771
  366TIP3   OH2 1061   2.892   4.045   0.463  0.2088  1.1144 -0.1776
  366TIP3    H1 1062   2.911   3.993   0.384 -0.1775  0.6176  0.0495
  366TIP3    H2 1063   2.797   4.041   0.472  0.3919 -1.0220  1.7458
  367TIP3   OH2 1064   2.384   3.722   1.188 -0.0974  0.1920  0.1819
  367TIP3    H1 1065   2.331   3.798   1.213 -0.5802  0.4800 -1.6042
  367TIP3    H2 1066   2.325   3.647   1.198 -0.9695  0.5286 -1.9710
  368TIP3   OH2 1067   6.034   5.139   1.882  0.4417 -0.1471  0.9853
  368TIP3    H1 1068   6.100   5.171   1.821  0.6916 -0.7992  0.8961
  368TIP3    H2 1069   6.028   5.045   1.863 -2.8951  0.3684 -1.2708
  369TIP3   OH2 1070   6.539   0.081   2.048 -0.2531  0.0051  0.0784
  369TIP3    H1 1071   6.443   0.080   2.057 -0.3499 -0.7635 -0.8833
  369TIP3    H2 1072   6.554   0.114   1.959  0.4422  1.5826  0.7486
  370TIP3   OH2 1073   5.948   0.554   3.906  0.8783 -0.0412 -0.4303
  370TIP3    H1 1074   5.947   0.461   3.930  0.7315  0.4149  1.4200
  370TIP3    H2 1075   6.019   0.591   3.957 -0.1154  1.1901  0.0974
  371TIP3   OH2 1076   4.775   4.863   3.382  0.2225  0.0856 -0.5546
  371TIP3    H1 1077   4.830   4.918   3.437  1.4822 -0.3526 -1.3338
  371TIP3    H2 1078   4.775   4.778   3.425  1.1056 -0.2232 -1.1519
  372TIP3   OH2 1079   3.605   2.394   1.525 -0.2564 -0.5919 -0.5486
  372TIP3    H1 1080   3.631   2.312   1.567 -1.1536 -0.2063  0.7887
  372TIP3    H2 1081   3.629   2.462   1.587 -1.9228 -0.0344 -0.4558
  373TIP3   OH2 1082   0.876   3.676   3.300 -0.1263  0.0468 -0.3539
  373TIP3    H1 1083   0.852   3.629   3.380  1.8110  0.0378  0.2717
  373TIP3    H2 1084   0.961   3.715   3.320  0.0523  0.6757 -2.1673
  374TIP3   OH2 1085   3.083   5.520   1.622 -0.0443 -0.5274 -0.6831
  374TIP3    H1 1086   3.164   5.470   1.612  0.4763  0.3862 -1.2085
  374TIP3    H2 1087   3.107   5.594   1.678 -0.5213 -0.2605 -0.8213
  375TIP3   OH2 1088   6.149   0.252   1.234  0.1455 -0.3269  0.1597
  375TIP3    H1 1089   6.138   0.324   1.173  0.4018 -0.4778 -0.0657
  375TIP3    H2 1090   6.162   0.294   1.319 -1.0116 -0.1235  0.2582
  376TIP3   OH2 1091   3.996   5.917   1.047 -0.2492  0.1871 -0.2002
  376TIP3    H1 1092   4.041   5.867   0.978  0.8182  0.4283  0.2963
  376TIP3    H2 1093   4.041   6.001   1.047 -0.9955  0.5891  0.0383
  377TIP3   OH2 1094   7.015   3.689   4.068  0.3271  0.3575 -0.1851
  377TIP3    H1 1095   7.089   3.746   4.085  0.5361 -0.2116  0.8768
  377TIP3    H2 1096   7.033   3.610   4.119  0.2564 -0.8528 -1.9670
  378TIP3   OH2 1097   6.521   5.023   1.449  0.1448  0.0151 -0.2175
  378TIP3    H1 1098   6.558   5.091   1.505  0.5572  0.6364 -1.2274
  378TIP3    H2 1099   6.528   5.057   1.360 -1.1475 -0.6527 -0.6129
  379TIP3   OH2 1100   4.797   2.806   1.700  0.1496  0.0888  0.6773
  379TIP3    H1 1101   4.869   2.819   1.639 -0.6817 -0.1475 -0.3793
  379TIP3    H2 1102   4.826   2.734   1.756  0.7737  0.0627  0.3313
  380TIP3   OH2 1103   7.158   3.742   0.455  0.5502  0.9282 -0.2203
  380TIP3    H1 1104   7.175   3.707   0.368  0.3210  0.6333 -0.1474
  380TIP3    H2 1105   7.206   3.825   0.457  0.5692  0.9290 -0.6181
  381TIP3   OH2 1106   1.712   4.987   1.588  0.2854 -0.0608 -0.1796
  381TIP3    H1 1107   1.736   5.051   1.656  0.1814  1.1091 -1.2153
  381TIP3    H2 1108   1.661   4.921   1.635  0.9643  0.2424  1.0483
  382TIP3   OH2 1109   3.469   4.783   3.810  0.0641  0.2837 -0.0792
  382TIP3    H1 1110   3.422   4.818   3.735 -0.3477  0.3504  0.2050
  382TIP3    H2 1111   3.449   4.844   3.882 -1.0557 -0.7794  0.5456
  383TIP3   OH2 1112   6.908   3.633   2.089 -1.0576  0.9539  0.3785
  383TIP3    H1 1113   6.841   3.575   2.053  0.5272 -1.1289  0.6539
  383TIP3    H2 1114   6.945   3.678   2.013 -0.8445  0.0093 -0.0769
  384TIP3   OH2 1115   4.329   1.683   2.494 -0.3969 -0.2229 -0.0112
  384TIP3    H1 1116   4.396   1.713   2.433  0.4189  0.5193  1.1971
  384TIP3    H2 1117   4.267   1.634   2.440  1.2905 -1.2491 -1.1238
  385TIP3   OH2 1118   6.564   0.420   1.966 -0.5585  0.1905  0.4523
  385TIP3    H1 1119   6.564   0.515   1.965  1.7060  0.2509  0.4204
  385TIP3    H2 1120   6.563   0.394   1.874  1.2513  0.2817  0.3792
  386TIP3   OH2 1121   5.689   4.136   0.164 -0.3806 -0.2374 -0.6369
  386TIP3    H1 1122   5.722   4.104   0.080 -0.1569  0.4638 -0.8247
  386TIP3    H2 1123   5.599   4.163   0.146 -0.2471  0.1562 -0.7131
  387TIP3   OH2 1124   5.145   6.710   5.786 -0.3772 -0.5094  0.2437
  387TIP3    H1 1125   5.092   6.649   5.837  0.2876 -0.6646  0.7716
  387TIP3    H2 1126   5.086   6.781   5.762 -0.3712  0.3375  2.5266
  388TIP3   OH2 1127   3.415   1.043   4.903 -0.1589  0.2981 -0.0536
  388TIP3    H1 1128   3.479   1.114   4.900  1.5489 -1.2098 -1.5833
  388TIP3    H2 1129   3.401   1.028   4.997  1.5927  0.8260  0.3400
  389TIP3   OH2 1130   0.126   0.618   2.077 -0.0870  0.3396 -0.2469
  389TIP3    H1 1131   0.202   0.664   2.040  1.3144 -1.2038  0.5879
  389TIP3    H2 1132   0.097   0.674   2.149 -0.4126  1.4478 -1.2104
  390TIP3   OH2 1133   3.312   1.771   2.685 -0.2600  0.4560 -0.3467
  390TIP3    H1 1134   3.287   1.694   2.735  3.7025 -0.7400  0.1398
  390TIP3    H2 1135   3.304   1.843   2.748  1.7247 -0.5626  1.1886
  391TIP3   OH2 1136   1.375   1.759   4.566  0.2886 -0.5272 -0.0596
  391TIP3    H1 1137   1.465   1.792   4.564 -0.0358  0.5016  0.8321
  391TIP3    H2 1138   1.341   1.788   4.651 -1.2261  0.0731 -0.8229
  392TIP3   OH2 1139   1.333   0.696   1.971 -0.5515 -0.1121 -0.3015
  392TIP3    H1 1140   1.331   0.638   2.047  1.0136  0.8669  0.5350
  392TIP3    H2 1141   1.276   0.653   1.907  1.0863 -2.9542 -0.0144
  393TIP3   OH2 1142   6.761   3.831   5.114 -0.4185 -0.3256  0.1147
  393TIP3    H1 1143   6.837   3.820   5.170 -0.9220 -0.8318  0.7093
  393TIP3    H2 1144   6.700   3.763   5.142 -1.0469  0.0025 -0.4255
  394TIP3   OH2 1145   1.718   6.305   5.089 -0.0676  0.4441 -0.1354
  394TIP3    H1 1146   1.674   6.239   5.036  0.9803 -0.9183  0.6473
  394TIP3    H2 1147   1.689   6.388   5.051 -1.5776 -0.4290 -1.0093
  395TIP3   OH2 1148   6.854   6.039   2.536 -0.6334 -0.3830 -0.0819
  395TIP3    H1 1149   6.862   6.066   2.445  0.3192 -2.0611 -0.5427
  395TIP3    H2 1150   6.760   6.024   2.549 -0.9997  1.5810 -0.2194
  396TIP3   OH2 1151   6.791   6.231   2.065  0.6626 -0.6901  0.0697
  396TIP3    H1 1152   6.705   6.272   2.061  0.0660 -1.9001  0.0490
  396TIP3    H2 1153   6.852   6.299   2.034 -0.4105 -0.2229 -1.0864
  397TIP3   OH2 1154   2.695   0.799   0.038 -0.2345  0.1677 -0.4693
  397TIP3    H1 1155   2.733   0.733  -0.021  1.0432 -0.4120  0.9325
  397TIP3    H2 1156   2.759   0.870   0.039 -0.7562  0.6471 -0.5921
  398TIP3   OH2 1157   5.812   0.084   4.350 -0.1223  0.4298 -0.0742
  398TIP3    H1 1158   5.892   0.107   4.302 -1.2176  1.6204 -1.4272
  398TIP3    H2 1159   5.806  -0.011   4.342  0.0538  0.5354 -1.8103
  399TIP3   OH2 1160   0.173   3.657   5.362  0.1292  0.3614 -0.2450
  399TIP3    H1 1161   0.217   3.715   5.424  0.5490  0.4377 -0.6144
  399TIP3    H2 1162   0.211   3.678   5.277 -0.1161 -0.0651 -0.4655
  400TIP3   OH2 1163   6.829   6.725   3.926  0.2991  0.2529  0.3067
  400TIP3    H1 1164   6.776   6.800   3.900  1.9145  1.2483 -0.2143
  400TIP3    H2 1165   6.765   6.657   3.948 -1.1850  1.5965  0.2760
  401TIP3   OH2 1166   0.608   0.303   1.592  0.4626 -0.4376  0.3533
  401TIP3    H1 1167   0.536   0.363   1.609 -0.4534 -0.4875 -2.6549
  401TIP3    H2 1168   0.569   0.216   1.599  0.7173 -0.5347  0.5776
  402TIP3   OH2 1169   2.522   5.593   1.047 -0.5389  0.1103  0.3958
  402TIP3    H1 1170   2.505   5.619   0.957 -1.7929  1.0114  0.8718
  402TIP3    H2 1171   2.616   5.577   1.050 -0.1318  2.0408 -0.5976
  403TIP3   OH2 1172   4.520   5.262   0.413 -0.5264 -0.2639 -0.2394
  403TIP3    H1 1173   4.551   5.235   0.326 -1.5352 -0.8542 -0.4366
  403TIP3    H2 1174   4.433   5.297   0.397 -0.0817  1.1566  0.3331
  404TIP3   OH2 1175   1.959   4.819   0.827  0.6090 -0.0313 -0.3758
  404TIP3    H1 1176   2.026   4.888   0.822 -0.2562  0.7785 -1.4164
  404TIP3    H2 1177   1.947   4.803   0.920  0.5301  1.5593 -0.0864
  405TIP3   OH2 1178   6.984   1.460   4.525 -0.0339 -0.1875  0.5156
  405TIP3    H1 1179   7.014   1.387   4.472 -1.2251 -1.8182  1.9827
  405TIP3    H2 1180   6.898   1.481   4.489  0.1559  0.2752  0.3239
  406TIP3   OH2 1181   1.540   2.795   1.515  0.1810  0.3429 -0.6352
  406TIP3    H1 1182   1.484   2.757   1.448  1.4037  0.9205 -2.0440
  406TIP3    H2 1183   1.530   2.889   1.505  0.3277  0.4383  0.0472
  407TIP3   OH2 1184   5.515   5.510   5.618  0.2653  0.0719 -0.2949
  407TIP3    H1 1185   5.603   5.473   5.633 -0.0930 -0.4612  0.6053
  407TIP3    H2 1186   5.482   5.463   5.542  0.0922 -0.9830  0.4130
  408TIP3   OH2 1187   2.998   4.468   3.499  0.2182 -0.5889 -0.4217
  408TIP3    H1 1188   2.973   4.527   3.428  0.1869 -0.5648 -0.3905
  408TIP3    H2 1189   2.961   4.383   3.474 -0.4118 -0.4212 -0.0802
  409TIP3   OH2 1190   0.165   2.557   3.567  0.4347  0.2063 -0.4920
  409TIP3    H1 1191   0.085   2.594   3.531 -0.5563  0.0108  1.3582
  409TIP3    H2 1192   0.137   2.474   3.606  2.1705 -1.4811 -2.5772
  410TIP3   OH2 1193   3.715   5.730   2.883  0.0493 -0.3368 -0.1027
  410TIP3    H1 1194   3.745   5.722   2.793  0.2799  0.7349 -0.1416
  410TIP3    H2 1195   3.645   5.666   2.892  0.4922 -0.9265 -0.8358
  411TIP3   OH2 1196   1.452   1.192   5.666 -0.3721  0.3096  0.1426
  411TIP3    H1 1197   1.538   1.149   5.668  0.9103  2.7030  0.6612
  411TIP3    H2 1198   1.449   1.234   5.580 -1.2034 -0.0559 -0.0160
  412TIP3   OH2 1199   1.051   0.951   5.826 -0.0843 -0.4623  0.3339
  412TIP3    H1 1200   1.082   0.861   5.834 -0.3087 -0.4136  2.1419
  412TIP3    H2 1201   0.977   0.956   5.886 -1.3760  0.4110 -1.2378
  413TIP3   OH2 1202   3.410   0.514   3.840 -0.1541  0.0646 -0.3836
  413TIP3    H1 1203   3.479   0.508   3.774 -0.6557  0.2773 -0.9318
  413TIP3    H2 1204   3.376   0.424   3.847 -0.1146  0.0463 -0.4275
  414TIP3   OH2 1205   3.526   1.911   3.945  0.3415 -0.1089  0.6349
  414TIP3    H1 1206   3.493   1.994   3.978  1.1364 -0.3840  2.2276
  414TIP3    H2 1207   3.616   1.929   3.918  0.2946 -0.2951  0.3505
  415TIP3   OH2 1208   2.754   1.550   2.835  0.0546  0.0874 -0.0738
  415TIP3    H1 1209   2.696   1.523   2.906  0.5110 -0.4311  0.1136
  415TIP3    H2 1210   2.744   1.645   2.831  0.7421  0.2532  1.3534
  416TIP3   OH2 1211   5.777   5.192   4.663  0.1857  0.0403  0.0338
  416TIP3    H1 1212   5.776   5.112   4.716  2.0529 -0.6353 -0.8632
  416TIP3    H2 1213   5.844   5.176   4.597 -0.1666  1.9398 -0.8423
  417TIP3   OH2 1214   0.057   1.892   2.995 -0.2429 -0.0371  0.2046
  417TIP3    H1 1215   0.008   1.965   3.034 -0.7109 -1.0631  1.6157
  417TIP3    H2 1216   0.019   1.882   2.908  1.3519  2.8137 -0.9471
  418TIP3   OH2 1217   1.130   4.391   2.228  0.0838  0.1308 -0.0721
  418TIP3    H1 1218   1.085   4.332   2.168  0.7702 -2.0400  1.4076
  418TIP3    H2 1219   1.223   4.381   2.206  0.1733  1.1901 -0.2232
  419TIP3   OH2 1220   2.679   0.736   4.708 -0.6979  0.0588 -0.0723
  419TIP3    H1 1221   2.704   0.711   4.797 -0.5710 -2.5944 -0.7747
  419TIP3    H2 1222   2.762   0.746   4.661 -0.7953 -0.0764 -0.2746
  420TIP3   OH2 1223   0.004   3.012   2.043 -0.7223  0.0476  0.0280
  420TIP3    H1 1224  -0.048   3.040   2.118  0.8072  2.3106  0.3635
  420TIP3    H2 1225   0.095   3.029   2.070 -0.0247 -0.6713 -1.7160
  421TIP3   OH2 1226   5.893   5.669   4.009  0.0716 -0.2371  0.1276
  421TIP3    H1 1227   5.859   5.580   3.997 -0.5619 -0.2641  1.7953
  421TIP3    H2 1228   5.946   5.663   4.089  1.9160  0.4042 -0.9983
  422TIP3   OH2 1229   7.066   1.996   1.989 -0.0909  0.4150  0.2311
  422TIP3    H1 1230   7.131   1.951   2.043  1.2840  1.3485 -0.5976
  422TIP3    H2 1231   6.982   1.974   2.030  0.6391 -1.6595  0.7284
  423TIP3   OH2 1232   3.705   6.327   0.802 -0.1242 -0.0342  0.1423
  423TIP3    H1 1233   3.776   6.372   0.848  0.5791  1.5874 -2.3063
  423TIP3    H2 1234   3.677   6.258   0.862  3.6224 -0.8773  1.1634
  424TIP3   OH2 1235   2.360   3.215   3.208 -0.0080 -0.3608  0.4865
  424TIP3    H1 1236   2.286   3.263   3.171 -0.0517 -0.8916 -0.1344
  424TIP3    H2 1237   2.333   3.196   3.299 -0.5358 -0.3417  0.3409
  425TIP3   OH2 1238   4.359   2.439   2.377 -0.7678  0.2260 -0.2917
  425TIP3    H1 1239   4.277   2.489   2.374 -1.1815 -0.4808 -1.1417
  425TIP3    H2 1240   4.351   2.376   2.305  0.0009 -0.6651  0.3889
  426TIP3   OH2 1241   4.234   1.201   2.798 -0.2011  0.5717 -0.1112
  426TIP3    H1 1242   4.295   1.132   2.823 -0.3413 -0.0278 -1.3395
  426TIP3    H2 1243   4.232   1.198   2.702 -1.0288  1.5691 -0.1466
  427TIP3   OH2 1244   6.330   4.872   1.565  0.2288 -0.2174  0.0320
  427TIP3    H1 1245   6.236   4.883   1.552  0.3256  0.2282 -0.3243
  427TIP3    H2 1246   6.369   4.950   1.526  0.7495 -0.4214  0.1325
  428TIP3   OH2 1247   0.977   3.831   0.316 -0.2012 -0.1012  0.1005
  428TIP3    H1 1248   0.931   3.749   0.329  0.1987 -0.1617  1.2193
  428TIP3    H2 1249   1.066   3.815   0.347  0.3144  0.3083 -1.1038
  429TIP3   OH2 1250   0.977   0.874   2.255 -0.2714  0.3959  0.2340
  429TIP3    H1 1251   0.930   0.793   2.274 -1.1451  1.2426  1.9413
  429TIP3    H2 1252   0.917   0.924   2.200  0.0193  0.1529 -0.3157
  430TIP3   OH2 1253   3.840   3.789   0.226  0.7734 -0.3960 -0.7361
  430TIP3    H1 1254   3.902   3.788   0.153 -1.1818  3.6662 -2.7230
  430TIP3    H2 1255   3.762   3.745   0.192  0.3533  0.2493 -0.6284
  431TIP3   OH2 1256   1.831   0.443   2.208  0.2508  0.0574  0.6283
  431TIP3    H1 1257   1.813   0.389   2.285  1.7633 -0.0690  0.9236
  431TIP3    H2 1258   1.830   0.533   2.241 -0.8163  0.1264  0.4320
  432TIP3   OH2 1259   1.302   6.667   1.684  0.2327  0.2971 -0.2912
  432TIP3    H1 1260   1.345   6.587   1.655 -0.7757  0.1789 -1.5610
  432TIP3    H2 1261   1.223   6.637   1.729  0.7615  0.5538  0.8601
  433TIP3   OH2 1262   1.887   4.425   1.630 -0.0036  0.2781 -0.2588
  433TIP3    H1 1263   1.914   4.428   1.538 -0.4390  0.5760 -0.3826
  433TIP3    H2 1264   1.842   4.509   1.644  1.1399  0.7750  0.5648
  434TIP3   OH2 1265   4.728   2.130   1.494  0.0391 -0.2709 -0.4944
  434TIP3    H1 1266   4.681   2.122   1.411 -1.1651  1.2364  0.0036
  434TIP3    H2 1267   4.818   2.148   1.468 -0.0950 -0.8502 -1.4592
  435TIP3   OH2 1268   6.511   2.615   0.174 -0.1324  0.1333 -0.5994
  435TIP3    H1 1269   6.452   2.678   0.216 -0.0255  1.3146 -2.1227
  435TIP3    H2 1270   6.572   2.670   0.124  1.3246 -1.1197 -0.2792
  436TIP3   OH2 1271   3.369   5.079   2.942 -0.0144  0.3614  0.5182
  436TIP3    H1 1272   3.363   5.090   2.847 -0.5604  0.2678  0.5373
  436TIP3    H2 1273   3.304   5.140   2.977 -0.3401 -0.1408  0.7954
  437TIP3   OH2 1274   2.400   3.901   2.991  0.0086 -0.4768  0.3648
  437TIP3    H1 1275   2.342   3.829   3.017 -1.1508 -0.2868 -1.5445
  437TIP3    H2 1276   2.386   3.968   3.058  1.6664 -2.2266  2.6097
  438TIP3   OH2 1277   5.214   4.181   3.019  0.7352  0.1593 -0.3692
  438TIP3    H1 1278   5.120   4.169   3.035  1.2292 -1.4107  1.6789
  438TIP3    H2 1279   5.225   4.162   2.926 -0.9820  0.5598 -0.6878
  439TIP3   OH2 1280   0.251   3.207   5.101  0.0271  0.1478  0.3808
  439TIP3    H1 1281   0.292   3.166   5.178 -0.6979 -1.0333  0.1644
  439TIP3    H2 1282   0.165   3.166   5.096 -0.4051  1.1194 -0.3561
  440TIP3   OH2 1283   6.798   2.266   1.771  0.0546  0.5433  0.4865
  440TIP3    H1 1284   6.887   2.232   1.785  0.4919  1.9114  1.2412
  440TIP3    H2 1285   6.777   2.244   1.681  2.0843  2.1478 -0.4533
  441TIP3   OH2 1286   4.146   1.706   4.555 -0.1829  0.2310 -0.3026
  441TIP3    H1 1287   4.114   1.616   4.552 -0.5457  0.3891 -1.8884
  441TIP3    H2 1288   4.077   1.754   4.601 -0.3852 -0.1311 -0.2237
  442TIP3   OH2 1289   6.569   6.383   2.043  0.3500 -0.2069  0.2642
  442TIP3    H1 1290   6.516   6.429   1.978  1.1031 -0.7168 -0.7279
  442TIP3    H2 1291   6.511   6.316   2.079  0.4837 -1.2303 -1.3149
  443TIP3   OH2 1292   3.206   1.082   3.224  0.2054  0.0218  0.2470
  443TIP3    H1 1293   3.226   1.175   3.232 -0.3030  0.1825 -0.2804
  443TIP3    H2 1294   3.292   1.039   3.218  0.4239  0.5446 -0.4425
  444TIP3   OH2 1295   3.878   1.445   1.336  0.1223 -0.6510 -0.2539
  444TIP3    H1 1296   3.810   1.487   1.282  0.7238 -0.1648 -0.6488
  444TIP3    H2 1297   3.921   1.383   1.277  1.0542  0.1777 -0.4657
  445TIP3   OH2 1298   3.240   1.531   1.440  0.0952  0.3044 -0.3776
  445TIP3    H1 1299   3.181   1.497   1.507 -0.9049  0.6495 -1.0601
  445TIP3    H2 1300   3.298   1.590   1.487 -1.0119  1.0480  0.0895
  446TIP3   OH2 1301   2.304   2.889   4.100 -0.1834  0.3073 -0.1427
  446TIP3    H1 1302   2.303   2.958   4.034  0.3433  0.1200 -0.3483
  446TIP3    H2 1303   2.257   2.816   4.060  0.1801  0.1758 -0.3319
  447TIP3   OH2 1304   1.318   2.354   5.333  0.1456 -0.3095  1.1529
  447TIP3    H1 1305   1.351   2.267   5.309 -0.9648 -0.5622  0.4765
  447TIP3    H2 1306   1.397   2.406   5.348  0.9163 -0.6928 -1.1766
  448TIP3   OH2 1307   3.394   3.340   2.286 -0.5082  0.0495  0.1038
  448TIP3    H1 1308   3.475   3.388   2.303 -1.6650  2.9027 -1.7127
  448TIP3    H2 1309   3.350   3.391   2.218 -3.1000 -2.2882 -0.1362
  449TIP3   OH2 1310   6.941   6.611   1.143 -1.2749 -0.0010 -0.1099
  449TIP3    H1 1311   6.995   6.546   1.188 -0.8749  0.8586  0.6934
  449TIP3    H2 1312   6.851   6.580   1.154 -1.1499 -0.0164  0.9618
  450TIP3   OH2 1313   5.912   4.215   0.355  0.1065  0.4631  0.7857
  450TIP3    H1 1314   5.832   4.166   0.334  0.2364 -0.4427  2.2521
  450TIP3    H2 1315   5.965   4.210   0.276 -0.5388 -0.4806  0.3964
  451TIP3   OH2 1316   4.193   1.390   0.199 -0.0085 -0.2438 -0.1575
  451TIP3    H1 1317   4.171   1.480   0.224 -2.0297 -0.4516 -0.9902
  451TIP3    H2 1318   4.112   1.354   0.163  1.3982 -1.5300 -2.3538
  452TIP3   OH2 1319   0.208   6.209   0.208 -0.0802  0.6696  0.5980
  452TIP3    H1 1320   0.226   6.207   0.114  0.4149  0.1340  0.7002
  452TIP3    H2 1321   0.270   6.147   0.246 -1.5296 -0.5638  1.0596
  453TIP3   OH2 1322   6.989   1.564   1.491 -0.4421  0.5024  0.2602
  453TIP3    H1 1323   6.985   1.659   1.479  0.2856  0.7445  1.7152
  453TIP3    H2 1324   6.941   1.547   1.572 -0.9968 -0.4501 -0.2419
  454TIP3   OH2 1325   0.431   0.264   2.724 -0.4577  0.1791 -0.2567
  454TIP3    H1 1326   0.494   0.229   2.787 -0.3339 -0.1205 -0.5448
  454TIP3    H2 1327   0.441   0.208   2.646 -3.3676 -2.0408  0.7827
  455TIP3   OH2 1328   7.025   6.793   2.888  0.0715 -0.6485  0.1639
  455TIP3    H1 1329   6.972   6.789   2.967 -0.7067 -2.8464 -0.4114
  455TIP3    H2 1330   7.105   6.747   2.910  0.5440  0.1438  0.1401
  456TIP3   OH2 1331   0.033   5.461   2.856  0.6614 -0.0609 -0.2014
  456TIP3    H1 1332  -0.015   5.536   2.890 -0.9408 -1.1166 -0.0461
  456TIP3    H2 1333   0.125   5.478   2.879  0.3538  1.8693 -0.2685
  457TIP3   OH2 1334   0.195   6.530   0.170  0.2845  0.1278  0.0485
  457TIP3    H1 1335   0.244   6.607   0.143 -0.3602  0.0889 -1.3203
  457TIP3    H2 1336   0.169   6.487   0.088 -0.8972 -0.5655  0.7416
  458TIP3   OH2 1337   0.044   6.756   2.404  0.1043  0.2000 -0.2770
  458TIP3    H1 1338   0.130   6.726   2.432  0.4859  1.8213  0.3886
  458TIP3    H2 1339  -0.005   6.768   2.486 -1.1380 -1.6585 -0.6744
  459TIP3   OH2 1340   0.922   6.530   1.250  0.7405 -0.1780  0.7192
  459TIP3    H1 1341   0.918   6.468   1.177 -2.3824 -0.1580  0.7009
  459TIP3    H2 1342   0.992   6.497   1.306  0.8667 -2.2735 -0.5465
  460TIP3   OH2 1343   4.653   0.661   5.135 -0.0345 -0.0877  0.0370
  460TIP3    H1 1344   4.718   0.590   5.131  1.2777  1.1043 -1.9829
  460TIP3    H2 1345   4.676   0.710   5.214 -0.7185 -1.6300  1.2464
  461TIP3   OH2 1346   6.924   0.376   4.623 -0.2245  0.0087 -0.1607
  461TIP3    H1 1347   6.957   0.387   4.712  2.0966 -1.7222 -0.7057
  461TIP3    H2 1348   6.829   0.374   4.633 -0.1020  1.5393  2.0144
  462TIP3   OH2 1349   2.641   3.576   4.182 -0.0669 -0.0442 -0.1169
  462TIP3    H1 1350   2.725   3.577   4.136  0.6293  0.7048  1.1138
  462TIP3    H2 1351   2.610   3.667   4.179 -1.6431 -0.5663 -1.9128
  463TIP3   OH2 1352   1.906   5.146   1.988  0.0089  0.1624  0.3817
  463TIP3    H1 1353   1.906   5.079   2.057 -2.2898 -1.0887 -0.7331
  463TIP3    H2 1354   1.819   5.185   1.993  0.6027  1.6611 -0.3727
  464TIP3   OH2 1355   3.588   5.919   3.547  0.4846 -0.5240 -0.8195
  464TIP3    H1 1356   3.511   5.889   3.498  0.5609  0.4246 -1.5637
  464TIP3    H2 1357   3.650   5.947   3.479  1.2865 -0.7972 -0.2152
  465TIP3   OH2 1358   2.103   0.897   2.855  0.3104  1.2137 -0.1680
  465TIP3    H1 1359   2.068   0.808   2.849 -0.2876  1.3294  1.1637
  465TIP3    H2 1360   2.183   0.888   2.907  0.2102  1.4565  0.0310
  466TIP3   OH2 1361   5.022   0.587   1.795  0.4456  0.1952 -0.3982
  466TIP3    H1 1362   5.053   0.557   1.709 -1.9206 -0.6137 -1.0586
  466TIP3    H2 1363   4.974   0.512   1.830  0.1952  0.9851  1.0274
  467TIP3   OH2 1364   6.642   1.722   3.699 -0.0196  0.6534 -0.3039
  467TIP3    H1 1365   6.606   1.775   3.770  1.0424 -0.0514  0.7976
  467TIP3    H2 1366   6.574   1.657   3.680  0.7437 -0.9975  2.1095
  468TIP3   OH2 1367   5.583   1.707   3.469 -0.0216 -0.3459 -0.4291
  468TIP3    H1 1368   5.528   1.633   3.444  1.5814 -1.1761 -1.6526
  468TIP3    H2 1369   5.564   1.775   3.404  0.0952 -0.4746 -0.5969
  469TIP3   OH2 1370   5.340   5.444   3.982 -0.0675 -0.6137  0.2307
  469TIP3    H1 1371   5.308   5.491   4.059 -0.9342  1.0346 -1.0819
  469TIP3    H2 1372   5.282   5.369   3.975 -1.4461  0.4562 -0.0995
  470TIP3   OH2 1373   5.763   5.196   1.138 -0.0552 -0.0542  0.1713
  470TIP3    H1 1374   5.714   5.198   1.220 -2.1950 -0.5406 -1.0237
  470TIP3    H2 1375   5.748   5.282   1.099 -1.8890 -0.9140 -1.1994
  471TIP3   OH2 1376   3.577   2.434   2.457 -0.4059  0.2604 -0.5255
  471TIP3    H1 1377   3.603   2.365   2.395 -0.6829  0.0970 -0.4625
  471TIP3    H2 1378   3.641   2.429   2.527  0.9657  1.5833 -1.6022
  472TIP3   OH2 1379   1.934   0.327   3.949  0.1686  0.1247  0.0743
  472TIP3    H1 1380   1.903   0.344   3.860 -1.1096 -3.6765 -0.3698
  472TIP3    H2 1381   2.029   0.321   3.940  0.2074  1.4135 -0.6517
  473TIP3   OH2 1382   4.206   1.266   5.443  0.6935  0.0627 -0.5887
  473TIP3    H1 1383   4.174   1.177   5.428 -0.2254  0.2946 -0.0750
  473TIP3    H2 1384   4.219   1.271   5.538 -1.0727  1.0425 -0.3553
  474TIP3   OH2 1385   2.517   0.137   3.980  0.3793  0.4747  0.0716
  474TIP3    H1 1386   2.549   0.216   3.935  0.0769  1.5630  1.6831
  474TIP3    H2 1387   2.558   0.065   3.933  0.3231  1.5477 -1.7369
  475TIP3   OH2 1388   6.613   3.984   1.291 -0.2929  0.2812  0.1835
  475TIP3    H1 1389   6.683   3.946   1.237 -0.0388  1.4879 -0.3635
  475TIP3    H2 1390   6.559   4.034   1.229  1.2636  3.5797  1.2730
  476TIP3   OH2 1391   5.282   0.867   4.367 -0.2307 -0.1711 -0.2121
  476TIP3    H1 1392   5.216   0.918   4.321  0.0889 -0.2330 -0.7527
  476TIP3    H2 1393   5.234   0.821   4.435 -0.7287 -0.1573 -0.5509
  477TIP3   OH2 1394   3.282   5.341   4.855 -0.2732  0.0280  0.6354
  477TIP3    H1 1395   3.364   5.296   4.836 -0.5394  0.5862 -2.3301
  477TIP3    H2 1396   3.303   5.401   4.927  2.3679  1.2322 -1.0020
  478TIP3   OH2 1397   2.973   6.164   4.181  0.0995  0.6522 -0.2015
  478TIP3    H1 1398   2.972   6.130   4.270  0.3647 -1.0788 -0.8249
  478TIP3    H2 1399   3.061   6.145   4.149  0.2347  1.8877 -0.6242
  479TIP3   OH2 1400   4.818   2.715   5.776  0.4147 -0.0583  0.0872
  479TIP3    H1 1401   4.909   2.689   5.790  0.4320  0.0496  0.1774
  479TIP3    H2 1402   4.770   2.673   5.847  0.4123 -0.0169  0.1101
  480TIP3   OH2 1403   2.391   4.525   4.230 -0.2846 -0.4568  0.2664
  480TIP3    H1 1404   2.445   4.448   4.215 -0.4474 -0.5187 -0.0137
  480TIP3    H2 1405   2.302   4.496   4.208 -0.2248  0.0659 -0.7331
  481TIP3   OH2 1406   6.016   4.156   1.137  0.0202 -0.1934  0.2939
  481TIP3    H1 1407   6.092   4.145   1.195  0.7555 -0.7785 -0.7341
  481TIP3    H2 1408   5.966   4.075   1.149  0.4537 -0.5544 -0.2596
  482TIP3   OH2 1409   4.176   3.082   1.665  0.0613  0.7265  0.5595
  482TIP3    H1 1410   4.204   3.020   1.598 -4.5617 -1.8570  0.5853
  482TIP3    H2 1411   4.224   3.055   1.744  0.9541 -0.2895 -0.2916
  483TIP3   OH2 1412   0.904   3.520   2.304 -0.4015  0.2290  0.0099
  483TIP3    H1 1413   0.852   3.455   2.351 -0.9500  0.1806 -0.6499
  483TIP3    H2 1414   0.978   3.538   2.362 -1.0358  0.1398  0.8630
  484TIP3   OH2 1415   7.066   6.432   1.312  0.2619  0.0312 -0.4073
  484TIP3    H1 1416   7.010   6.358   1.334 -0.1900 -0.0206 -1.6391
  484TIP3    H2 1417   7.130   6.436   1.383 -1.2178  0.0256  0.9562
  485TIP3   OH2 1418   5.859   0.376   4.699  0.2717  0.3782  0.4472
  485TIP3    H1 1419   5.849   0.464   4.733 -1.0767 -0.2263  1.7368
  485TIP3    H2 1420   5.775   0.356   4.658  1.3334  0.5116 -1.9864
  486TIP3   OH2 1421   6.477   4.453   2.501 -0.0562 -0.0691 -0.1040
  486TIP3    H1 1422   6.494   4.361   2.480  2.1237 -0.2303  1.8924
  486TIP3    H2 1423   6.423   4.449   2.580  0.5123  0.3276  0.3146
  487TIP3   OH2 1424   0.718   4.090   5.599 -0.7589  0.1799  0.5717
  487TIP3    H1 1425   0.644   4.150   5.601 -0.4934  0.4974  0.9447
  487TIP3    H2 1426   0.728   4.060   5.689 -0.5283  0.0237  0.4963
  488TIP3   OH2 1427   3.755   3.266   5.596  0.2526 -0.6712 -0.4425
  488TIP3    H1 1428   3.791   3.232   5.515 -1.9574 -0.7241 -1.4757
  488TIP3    H2 1429   3.817   3.334   5.624  1.1778 -0.8353 -2.0226
  489TIP3   OH2 1430   3.916   3.839   5.529 -0.1957 -0.5468 -0.5608
  489TIP3    H1 1431   3.825   3.822   5.504 -0.6664 -0.2906  0.8951
  489TIP3    H2 1432   3.930   3.788   5.609 -0.2274  2.1523  1.3011
  490TIP3   OH2 1433   0.526   0.713   2.309  0.3257 -0.2688  0.2299
  490TIP3    H1 1434   0.462   0.773   2.348  0.6887  0.4663 -0.2914
  490TIP3    H2 1435   0.535   0.743   2.219  2.6106  0.6598  0.7044
  491TIP3   OH2 1436   1.667   4.718   2.304  0.1088 -0.6867 -0.3756
  491TIP3    H1 1437   1.642   4.808   2.323  2.7494  0.1376 -0.4008
  491TIP3    H2 1438   1.605   4.689   2.237 -1.3461  0.7660  0.2878
  492TIP3   OH2 1439   4.850   2.867   0.254 -0.4903 -0.1166  0.1588
  492TIP3    H1 1440   4.905   2.922   0.198  0.9139 -1.2003  0.4131
  492TIP3    H2 1441   4.873   2.894   0.343  2.2403 -2.7723  0.4331
  493TIP3   OH2 1442   0.674   5.251   3.131  0.0956  0.1713  0.4310
  493TIP3    H1 1443   0.692   5.163   3.164 -0.3401 -0.4725 -0.9614
  493TIP3    H2 1444   0.631   5.236   3.046  0.4331  1.7258 -0.0408
  494TIP3   OH2 1445   2.156   4.630   1.585 -1.0876  0.1990  0.1436
  494TIP3    H1 1446   2.178   4.627   1.492  0.9032 -0.5639  0.5916
  494TIP3    H2 1447   2.190   4.547   1.620 -1.1658  0.7877  1.6803
  495TIP3   OH2 1448   5.530   5.795   0.156 -0.0124 -0.3489  0.0274
  495TIP3    H1 1449   5.504   5.771   0.245 -1.6305 -1.4331 -0.6947
  495TIP3    H2 1450   5.456   5.845   0.121  0.5617 -0.0104 -0.7511
  496TIP3   OH2 1451   2.545   4.520   3.985 -0.4234 -0.1367  0.8710
  496TIP3    H1 1452   2.466   4.547   4.032  0.1791  1.4073  1.0574
  496TIP3    H2 1453   2.617   4.544   4.043  0.2147 -1.0938  0.5024
  497TIP3   OH2 1454   4.442   3.383   2.153  0.0058 -0.0864 -0.3397
  497TIP3    H1 1455   4.362   3.332   2.164  0.1639  0.0779  2.1321
  497TIP3    H2 1456   4.422   3.468   2.193  0.8087  0.6506 -1.4422
  498TIP3   OH2 1457   0.992   6.288   2.297  0.1241  0.0335 -1.0280
  498TIP3    H1 1458   0.914   6.289   2.352 -1.2687 -1.4914 -2.8617
  498TIP3    H2 1459   0.959   6.279   2.207  2.3709  0.6524 -2.0028
  499TIP3   OH2 1460   0.390   0.187   4.319  0.8298  0.7169 -0.0225
  499TIP3    H1 1461   0.396   0.179   4.414 -0.4714 -0.3638  0.0044
  499TIP3    H2 1462   0.330   0.260   4.305  0.5431  0.4845 -0.0044
  500TIP3   OH2 1463   0.984   5.325   5.646  0.4350  0.6526  0.6561
  500TIP3    H1 1464   0.892   5.342   5.665 -0.0946 -1.5058  0.2397
  500TIP3    H2 1465   0.985   5.298   5.554  1.3584 -0.1082  0.8675
  501TIP3   OH2 1466   3.272   4.493   5.638  0.5128  0.1482  0.2360
  501TIP3    H1 1467   3.237   4.578   5.610 -3.7438 -1.1405  0.9187
  501TIP3    H2 1468   3.289   4.447   5.557 -2.6401 -0.2119 -0.3504
  502TIP3   OH2 1469   4.285   3.683   2.316  0.0660  0.0635  0.1971
  502TIP3    H1 1470   4.260   3.774   2.334  2.9761  1.3656 -1.5692
  502TIP3    H2 1471   4.289   3.678   2.221  1.5782 -1.4312  0.3003
  503TIP3   OH2 1472   0.502   0.786   5.418 -0.2938  0.0072 -0.3151
  503TIP3    H1 1473   0.564   0.754   5.353  0.7638  0.3073  0.5089
  503TIP3    H2 1474   0.513   0.881   5.417 -0.0055 -0.0114  0.5451
  504TIP3   OH2 1475   0.152   3.795   2.990 -0.1659  0.4678 -0.6008
  504TIP3    H1 1476   0.115   3.797   3.078  1.3852 -0.1639  0.1028
  504TIP3    H2 1477   0.151   3.702   2.966  0.5604  0.4908 -0.7304
  505TIP3   OH2 1478   0.342   2.843   3.459  0.8976 -0.1226 -0.1212
  505TIP3    H1 1479   0.394   2.837   3.379  0.8834 -1.0669 -0.0775
  505TIP3    H2 1480   0.252   2.860   3.429  0.7809 -1.0892 -0.3569
  506TIP3   OH2 1481   5.473   6.493   2.039  0.2892 -0.1533 -0.6747
  506TIP3    H1 1482   5.550   6.543   2.067 -0.9807  0.4544  2.0329
  506TIP3    H2 1483   5.455   6.434   2.112 -1.2382 -1.0244 -1.6931
  507TIP3   OH2 1484   0.246   3.993   5.020  0.1047  0.9131  0.2319
  507TIP3    H1 1485   0.271   3.908   5.057  1.1462  1.3029  0.4467
  507TIP3    H2 1486   0.238   3.976   4.926 -3.3038 -0.2678  0.5902
  508TIP3   OH2 1487   0.626   3.043   1.082  0.1465 -0.5862  0.0479
  508TIP3    H1 1488   0.600   3.131   1.111 -0.8242 -0.9375  0.2750
  508TIP3    H2 1489   0.596   3.037   0.992  0.0591 -0.7459  0.0876
  509TIP3   OH2 1490   2.477   4.200   5.624  0.4172 -0.3581 -0.0186
  509TIP3    H1 1491   2.391   4.229   5.592  0.3018 -0.7891 -0.1066
  509TIP3    H2 1492   2.540   4.253   5.574  0.2133 -0.2534 -0.1706
  510TIP3   OH2 1493   6.885   6.349   0.914 -0.0849 -0.1753  0.5947
  510TIP3    H1 1494   6.958   6.408   0.933  0.5815 -0.6545 -0.4084
  510TIP3    H2 1495   6.817   6.374   0.977  1.1469 -0.1185  1.9675
  511TIP3   OH2 1496   7.219   5.291   1.726 -0.5814 -0.6416 -0.5121
  511TIP3    H1 1497   7.266   5.239   1.792  0.1737 -1.1313 -1.4132
  511TIP3    H2 1498   7.138   5.317   1.770  0.6713  0.5486  1.2331
  512TIP3   OH2 1499   2.753   4.804   3.863 -0.0557 -0.1454  0.5323
  512TIP3    H1 1500   2.766   4.731   3.924 -0.8511 -0.3025  0.5275
  512TIP3    H2 1501   2.701   4.867   3.912  0.8489  0.5470  0.6204
  513TIP3   OH2 1502   5.913   0.941   2.778  0.2025  0.6635 -0.2138
  513TIP3    H1 1503   5.960   1.019   2.749  0.6869  0.3255 -0.3439
  513TIP3    H2 1504   5.927   0.939   2.873 -2.1495  2.2874  0.2869
  514TIP3   OH2 1505   1.385   3.040   1.500  0.3132  0.2265 -0.3015
  514TIP3    H1 1506   1.331   2.968   1.533  1.2505 -0.6801 -0.6968
  514TIP3    H2 1507   1.342   3.068   1.419 -1.2259  1.5487  0.9012
  515TIP3   OH2 1508   3.910   0.953   1.179 -0.4594 -0.3539 -0.1184
  515TIP3    H1 1509   3.980   0.950   1.114 -1.2857 -0.3542 -1.0449
  515TIP3    H2 1510   3.939   0.895   1.249  0.0616 -1.0801 -0.9097
  516TIP3   OH2 1511   2.188   5.733   4.876 -0.3926  0.5520  0.1233
  516TIP3    H1 1512   2.132   5.795   4.923  0.5416  0.8082  0.9322
  516TIP3    H2 1513   2.128   5.684   4.820 -1.5106  0.3964  1.4159
  517TIP3   OH2 1514   5.098   4.445   4.135  0.3335 -0.2910 -0.3321
  517TIP3    H1 1515   5.144   4.502   4.073  0.3461 -1.5021 -1.5059
  517TIP3    H2 1516   5.164   4.381   4.161  0.1937 -0.0686  0.6009
  518TIP3   OH2 1517   2.933   5.008   5.347  0.3335 -0.0696 -0.7519
  518TIP3    H1 1518   2.929   4.913   5.358 -0.4914 -0.1885 -1.9440
  518TIP3    H2 1519   2.971   5.021   5.260  1.3597  0.7328 -0.2257
  519TIP3   OH2 1520   0.469   1.299   3.329  0.2604 -0.5439  0.1871
  519TIP3    H1 1521   0.430   1.306   3.416 -1.4541  2.3225 -0.6646
  519TIP3    H2 1522   0.544   1.358   3.331 -1.8834  2.4744 -1.1497
  520TIP3   OH2 1523   6.820   5.456   2.338 -0.3482  0.3107  0.2942
  520TIP3    H1 1524   6.913   5.434   2.347 -0.3531  0.5438  0.9733
  520TIP3    H2 1525   6.810   5.538   2.387 -1.1110 -0.2473  1.0859
  521TIP3   OH2 1526   6.294   3.936   1.037 -0.0312 -0.2562  0.1750
  521TIP3    H1 1527   6.239   4.014   1.025 -1.3149 -1.1515  0.0185
  521TIP3    H2 1528   6.232   3.867   1.061  1.0373 -1.3302 -0.0852
  522TIP3   OH2 1529   4.199   3.936   2.294 -0.0699  0.4400 -0.1230
  522TIP3    H1 1530   4.147   3.993   2.350 -1.4350  0.1570 -1.0834
  522TIP3    H2 1531   4.206   3.982   2.211  0.0361 -0.1422 -0.4436
  523TIP3   OH2 1532   3.982   4.666   3.780  1.0481 -0.6560  0.0726
  523TIP3    H1 1533   3.941   4.583   3.753  2.2483 -1.3251  0.2549
  523TIP3    H2 1534   3.919   4.704   3.841  0.4207 -1.3758 -0.0990
  524TIP3   OH2 1535   2.709   0.993   2.448 -0.1793 -0.4831 -0.0623
  524TIP3    H1 1536   2.641   0.946   2.496 -1.9564  0.4264 -1.5871
  524TIP3    H2 1537   2.664   1.065   2.405  1.7985  0.3070 -0.9631
  525TIP3   OH2 1538   5.417   6.230   0.072  0.6557  0.1323 -0.0338
  525TIP3    H1 1539   5.485   6.227   0.005 -0.7651 -2.5417 -1.4708
  525TIP3    H2 1540   5.466   6.226   0.155  2.3092 -1.7668 -1.0119
  526TIP3   OH2 1541   2.332   0.820   4.435 -0.2685  0.2594 -0.0588
  526TIP3    H1 1542   2.246   0.817   4.394  0.0941 -0.2896 -0.7919
  526TIP3    H2 1543   2.363   0.730   4.434  0.6949  0.5845 -0.6157
  527TIP3   OH2 1544   1.633   3.383   3.739  0.0112  0.0372  0.6520
  527TIP3    H1 1545   1.547   3.370   3.778 -0.6715 -0.0196 -0.7896
  527TIP3    H2 1546   1.615   3.431   3.658  1.2580 -0.6744 -0.0657
  528TIP3   OH2 1547   0.733   5.811   4.667  0.4226 -0.3271 -0.0453
  528TIP3    H1 1548   0.765   5.872   4.733  0.2653  0.3680 -0.6012
  528TIP3    H2 1549   0.809   5.759   4.643  0.5239 -0.4572  0.5406
  529TIP3   OH2 1550   6.346   6.589   3.902  0.2998  0.4542  0.1512
  529TIP3    H1 1551   6.257   6.585   3.937  0.0404  0.0522 -0.5495
  529TIP3    H2 1552   6.338   6.639   3.821  0.5462 -0.4319 -0.4256
  530TIP3   OH2 1553   2.815   0.063   3.332 -0.6540 -0.0721  0.4034
  530TIP3    H1 1554   2.880   0.134   3.336 -2.4529  1.7918 -1.2934
  530TIP3    H2 1555   2.800   0.040   3.424  0.1239  1.6077  1.0090
  531TIP3   OH2 1556   1.651   5.768   5.035 -0.1717 -0.6435 -0.2139
  531TIP3    H1 1557   1.736   5.723   5.039  0.9019  1.3544  1.3419
  531TIP3    H2 1558   1.624   5.760   4.944  1.4835 -1.6808 -0.6684
  532TIP3   OH2 1559   2.853   3.903   2.245  0.0394  0.3876  0.1380
  532TIP3    H1 1560   2.943   3.935   2.251 -0.3986  1.4903  0.9252
  532TIP3    H2 1561   2.835   3.903   2.151  0.2884  1.7994  0.0680
  533TIP3   OH2 1562   6.201   1.421   1.301 -0.2192  0.0421  0.0998
  533TIP3    H1 1563   6.134   1.355   1.321  0.0767 -0.5187 -0.7198
  533TIP3    H2 1564   6.283   1.372   1.303  0.0271  0.4413 -0.2872
  534TIP3   OH2 1565   7.175   3.852   5.449 -0.1700  0.6870 -0.0419
  534TIP3    H1 1566   7.156   3.889   5.536  1.2469  1.6169 -0.0947
  534TIP3    H2 1567   7.256   3.896   5.422 -0.0390 -0.3436 -1.3988
  535TIP3   OH2 1568   4.637   4.819   2.206 -0.8322 -0.3535  0.1610
  535TIP3    H1 1569   4.574   4.810   2.278 -1.4156 -1.0126 -0.4112
  535TIP3    H2 1570   4.584   4.845   2.131  0.0137  2.1373  0.3422
  536TIP3   OH2 1571   2.676   3.901   5.788  0.4304  0.6233  0.1367
  536TIP3    H1 1572   2.710   3.957   5.719  0.0930 -0.2496 -0.7621
  536TIP3    H2 1573   2.589   3.937   5.807 -0.5603 -0.6504 -1.7412
  537TIP3   OH2 1574   6.764   4.991   2.732  0.0837 -0.1360 -0.7855
  537TIP3    H1 1575   6.688   5.048   2.727  1.5278  2.2162  1.3439
  537TIP3    H2 1576   6.736   4.920   2.790 -0.7488  0.2467 -0.6974
  538TIP3   OH2 1577   0.647   4.584   0.481  0.6885 -0.0349 -0.2479
  538TIP3    H1 1578   0.609   4.529   0.550  0.5960  0.1655 -0.1389
  538TIP3    H2 1579   0.739   4.558   0.477  1.0569  0.9960  0.9763
  539TIP3   OH2 1580   5.554   1.725   4.213 -0.6009  0.1102  0.1030
  539TIP3    H1 1581   5.475   1.775   4.190 -1.6525 -1.4513  0.1979
  539TIP3    H2 1582   5.577   1.756   4.301  0.1260  2.0176 -0.6881
  540TIP3   OH2 1583   1.106   6.108   2.657 -0.2956  0.3302 -0.1417
  540TIP3    H1 1584   1.032   6.156   2.695 -1.2581 -1.7631  0.7892
  540TIP3    H2 1585   1.149   6.172   2.600 -1.0386  2.5101  1.5693
  541TIP3   OH2 1586   5.151   1.166   2.512  0.3366 -0.7511 -0.8158
  541TIP3    H1 1587   5.143   1.163   2.607 -0.0432  0.2380 -0.7919
  541TIP3    H2 1588   5.212   1.238   2.495  1.5747 -1.8708 -1.3002
  542TIP3   OH2 1589   2.519   2.016   4.373 -0.9804 -0.2739  0.2261
  542TIP3    H1 1590   2.568   1.938   4.398 -1.9427 -0.8943  0.1993
  542TIP3    H2 1591   2.428   1.987   4.366 -1.5736  1.1418  1.5513
  543TIP3   OH2 1592   1.397   1.809   1.817 -0.8784 -0.2335 -0.3269
  543TIP3    H1 1593   1.401   1.874   1.746  1.3079 -0.0730 -0.1055
  543TIP3    H2 1594   1.487   1.777   1.826 -1.5599 -1.9758  0.8185
  544TIP3   OH2 1595   5.855   1.118   4.412 -0.4545 -0.3373 -0.0967
  544TIP3    H1 1596   5.836   1.169   4.490 -1.0005 -0.8895  0.1428
  544TIP3    H2 1597   5.774   1.069   4.395 -0.0727 -0.8371 -0.5322
  545TIP3   OH2 1598   3.771   2.164   0.067  0.1211  0.3780 -0.2653
  545TIP3    H1 1599   3.815   2.240   0.105  2.9530 -1.5420  0.6288
  545TIP3    H2 1600   3.838   2.123   0.012 -1.4011 -1.3210 -0.9357
  546TIP3   OH2 1601   6.502  -0.016   0.811  0.0175  0.4336  0.2246
  546TIP3    H1 1602   6.424   0.026   0.773  0.2007  0.8183  0.2688
  546TIP3    H2 1603   6.525   0.039   0.886 -1.0309 -0.9760  1.6377
  547TIP3   OH2 1604   7.121   0.514   2.003 -0.1081 -0.5011  0.5810
  547TIP3    H1 1605   7.211   0.538   2.023 -0.0996 -1.7806  2.3976
  547TIP3    H2 1606   7.124   0.480   1.914  0.7285  1.5741 -0.2429
  548TIP3   OH2 1607   1.717   2.325   5.494  0.4395  0.1463  0.5637
  548TIP3    H1 1608   1.774   2.352   5.566  0.8071  1.2656 -0.1184
  548TIP3    H2 1609   1.772   2.268   5.440  1.1519  1.6934 -0.4103
  549TIP3   OH2 1610   1.450   6.671   4.976 -0.3889 -0.7490 -0.6772
  549TIP3    H1 1611   1.442   6.757   5.019  3.0562 -0.8799  0.5073
  549TIP3    H2 1612   1.490   6.690   4.891  1.4514 -1.1717  0.0427
  550TIP3   OH2 1613   6.468   3.481   0.439 -0.1471  0.3177 -0.5901
  550TIP3    H1 1614   6.404   3.532   0.489  1.6855  2.1371  0.0567
  550TIP3    H2 1615   6.436   3.484   0.349 -0.7048  1.6762 -0.3708
  551TIP3   OH2 1616   5.197   3.101   2.273 -0.1093  0.2511 -0.2638
  551TIP3    H1 1617   5.156   3.034   2.327  1.2997 -0.7810 -0.4040
  551TIP3    H2 1618   5.177   3.184   2.317  0.0547 -0.4669  1.1972
  552TIP3   OH2 1619   0.563   6.144   0.832  0.1870 -0.1325  0.1877
  552TIP3    H1 1620   0.544   6.233   0.804  1.4857 -0.2865 -1.3408
  552TIP3    H2 1621   0.491   6.121   0.891  0.3129  2.2481  1.4054
  553TIP3   OH2 1622   1.160   6.122   4.111  0.4365  0.7077  0.7217
  553TIP3    H1 1623   1.249   6.121   4.074 -0.2217 -1.7220 -1.0807
  553TIP3    H2 1624   1.147   6.032   4.141 -2.6948 -0.1803 -2.6336
  554TIP3   OH2 1625   2.861   4.054   3.099 -0.0335  0.5555  0.1564
  554TIP3    H1 1626   2.928   4.103   3.145 -0.7989  1.3974  0.4137
  554TIP3    H2 1627   2.821   4.118   3.040  0.1782 -0.2252 -0.8660
  555TIP3   OH2 1628   1.136   0.604   3.802  0.4992  1.0135 -0.6103
  555TIP3    H1 1629   1.088   0.548   3.741  0.7593 -0.8114  0.7752
  555TIP3    H2 1630   1.098   0.691   3.790 -1.6873  0.0577 -1.0450
  556TIP3   OH2 1631   3.777   0.231   1.395  0.3890  0.1597  0.7690
  556TIP3    H1 1632   3.731   0.164   1.444  1.9953  0.4079  2.7406
  556TIP3    H2 1633   3.720   0.308   1.399 -2.4637 -1.3815 -3.2203
  557TIP3   OH2 1634   3.496   6.700   4.607  0.4290 -0.0881 -0.5089
  557TIP3    H1 1635   3.417   6.728   4.654  0.8499  1.6430 -0.7793
  557TIP3    H2 1636   3.467   6.685   4.517  0.6410  2.0045 -0.9718
  558TIP3   OH2 1637   2.020   0.352   3.444 -0.2246  0.3272  0.2757
  558TIP3    H1 1638   1.946   0.396   3.486 -0.2373 -1.0875  1.8173
  558TIP3    H2 1639   1.998   0.353   3.351 -0.9207  2.2225  0.4237
  559TIP3   OH2 1640   0.723   0.229   3.472 -0.0592  0.0447  0.6857
  559TIP3    H1 1641   0.725   0.255   3.380  1.5320 -0.3443  0.5767
  559TIP3    H2 1642   0.736   0.311   3.521  0.6516  0.0537  0.4944
  560TIP3   OH2 1643   1.205   6.429   4.537 -0.1073 -0.2015  0.4095
  560TIP3    H1 1644   1.190   6.523   4.536  1.5319  0.0976  0.0931
  560TIP3    H2 1645   1.293   6.420   4.574 -0.1980 -1.6016  0.3364
  561TIP3   OH2 1646   5.201   1.784   2.104  0.3084  0.2155 -0.2577
  561TIP3    H1 1647   5.287   1.823   2.089  0.2377  0.2717 -0.5307
  561TIP3    H2 1648   5.192   1.718   2.035  0.1039  0.2608 -0.2762
  562TIP3   OH2 1649   2.044   5.724   5.211 -0.2487 -0.0752 -0.1663
  562TIP3    H1 1650   2.080   5.653   5.158  0.2278  0.2171 -0.2440
  562TIP3    H2 1651   1.955   5.697   5.231  0.2379 -1.1408  0.6394
  563TIP3   OH2 1652   0.299   3.365   1.874 -1.0643  0.3803  0.2440
  563TIP3    H1 1653   0.269   3.385   1.962 -0.0458  0.4858  0.5808
  563TIP3    H2 1654   0.219   3.364   1.821 -1.8490 -0.8662  1.3709
  564TIP3   OH2 1655   0.928   0.770   1.919  0.3254 -0.1413 -0.4648
  564TIP3    H1 1656   0.966   0.712   1.985  3.0385 -0.0303 -1.8025
  564TIP3    H2 1657   0.935   0.857   1.957  1.5887 -0.1087 -0.7497
  565TIP3   OH2 1658   3.911   5.894   5.071  0.1689 -0.0662  0.2652
  565TIP3    H1 1659   3.898   5.896   5.165 -0.3619 -1.3414  0.2406
  565TIP3    H2 1660   3.823   5.896   5.034  0.1918 -2.5767 -0.0806
  566TIP3   OH2 1661   1.106   4.825   4.967 -0.7407  0.3610  0.4894
  566TIP3    H1 1662   1.106   4.848   4.874  0.1735  0.5285  0.5158
  566TIP3    H2 1663   1.171   4.754   4.973 -2.0062 -0.8222  0.7377
  567TIP3   OH2 1664   3.875   1.169   0.255  0.0389 -0.1509 -0.0355
  567TIP3    H1 1665   3.812   1.240   0.263  0.8652  0.5925  0.0398
  567TIP3    H2 1666   3.822   1.089   0.256 -1.4419  0.4862 -4.7117
  568TIP3   OH2 1667   4.264   5.183   4.291  0.3058 -0.1405 -0.3020
  568TIP3    H1 1668   4.240   5.091   4.293 -0.0831 -0.0372  0.5491
  568TIP3    H2 1669   4.187   5.228   4.255 -0.8703  0.1805  2.3385
  569TIP3   OH2 1670   1.300   0.430   5.303 -0.1144 -0.4674 -0.1452
  569TIP3    H1 1671   1.372   0.374   5.274  1.5934  2.1855 -1.4828
  569TIP3    H2 1672   1.295   0.414   5.397  2.3824 -0.6549  0.0424
  570TIP3   OH2 1673   1.223   5.480   1.280  0.4350  0.2244  0.3311
  570TIP3    H1 1674   1.148   5.431   1.245  1.3521 -0.4726 -0.6991
  570TIP3    H2 1675   1.275   5.502   1.203  0.7516  1.6617  0.9245
  571TIP3   OH2 1676   5.233   1.423   4.825 -0.5767 -0.2767  0.6626
  571TIP3    H1 1677   5.190   1.484   4.765 -1.7810 -1.1142  0.6467
  571TIP3    H2 1678   5.208   1.336   4.793  0.3877 -0.7745  1.2186
  572TIP3   OH2 1679   6.046   0.896   1.344 -0.0903 -0.3736 -0.1001
  572TIP3    H1 1680   6.088   0.907   1.258  0.0974 -1.4633 -0.1718
  572TIP3    H2 1681   5.953   0.899   1.325 -0.0542 -1.1124 -0.4308
  573TIP3   OH2 1682   6.252   1.838   3.170  0.6517  0.6460 -0.9218
  573TIP3    H1 1683   6.298   1.773   3.115  1.0691  0.2380 -0.1053
  573TIP3    H2 1684   6.159   1.815   3.160  0.8633 -1.0512  0.5068
  574TIP3   OH2 1685   3.432   3.232   4.716 -0.3172 -0.1079  0.6198
  574TIP3    H1 1686   3.457   3.313   4.760 -0.6377 -0.6298  1.8145
  574TIP3    H2 1687   3.349   3.252   4.672 -1.7322 -0.4221  2.9947
  575TIP3   OH2 1688   3.087   2.214   0.171  0.9093  0.2393 -0.0575
  575TIP3    H1 1689   3.008   2.161   0.175  0.9656  0.0823 -0.8479
  575TIP3    H2 1690   3.057   2.300   0.143  1.0119  0.1864 -0.3350
  576TIP3   OH2 1691   7.186   0.162   0.113 -0.5778  0.3322 -0.1577
  576TIP3    H1 1692   7.195   0.089   0.051  0.0545 -0.1206  0.4593
  576TIP3    H2 1693   7.099   0.151   0.150 -0.2483 -0.4843  0.3917
  577TIP3   OH2 1694   3.141   3.224   4.185 -0.5747 -0.5186  0.1333
  577TIP3    H1 1695   3.229   3.190   4.205 -0.4120  0.6642  1.6672
  577TIP3    H2 1696   3.117   3.182   4.103  2.1196  0.3558 -1.2199
  578TIP3   OH2 1697   4.993   6.363   3.567 -0.0350  0.0035  0.3088
  578TIP3    H1 1698   4.922   6.358   3.632  0.8538  0.5507  1.3657
  578TIP3    H2 1699   5.005   6.457   3.553  0.4467 -0.0907  0.0954
  579TIP3   OH2 1700   1.029   4.570   0.024  0.0644  0.2118  0.8631
  579TIP3    H1 1701   1.077   4.511   0.081  1.9847  1.5006  0.6839
  579TIP3    H2 1702   1.048   4.657   0.058 -1.9476  0.8251  0.5729
  580TIP3   OH2 1703   6.116   5.382   1.263 -0.1240  0.4686  0.2683
  580TIP3    H1 1704   6.065   5.426   1.194  0.5465 -0.8968 -1.1578
  580TIP3    H2 1705   6.054   5.370   1.334 -2.2225 -2.0353 -1.7606
  581TIP3   OH2 1706   1.587   6.292   3.440 -0.4608  0.2620  0.0109
  581TIP3    H1 1707   1.653   6.224   3.448  0.4958  1.1965  0.3602
  581TIP3    H2 1708   1.515   6.251   3.392 -0.3748 -1.2917  1.1443
  582TIP3   OH2 1709   3.905   4.603   5.874 -0.7256  0.3383  0.5259
  582TIP3    H1 1710   3.918   4.563   5.788  0.5999  1.2301  0.2951
  582TIP3    H2 1711   3.837   4.550   5.915 -0.0164 -1.2682 -0.3202
  583TIP3   OH2 1712   5.399   0.395   2.443  0.3493  0.0062  0.3811
  583TIP3    H1 1713   5.376   0.307   2.415 -1.2219  1.3853 -3.3089
  583TIP3    H2 1714   5.494   0.394   2.452  0.5605 -1.6416 -1.4591
  584TIP3   OH2 1715   0.901   3.339   5.018  0.0312 -0.0110  0.0924
  584TIP3    H1 1716   0.838   3.286   4.970 -0.3200 -0.0953  0.6371
  584TIP3    H2 1717   0.929   3.406   4.956 -0.2257 -0.2689 -0.3056
  585TIP3   OH2 1718   0.513   6.729   4.804  0.1390  0.0180 -0.1594
  585TIP3    H1 1719   0.453   6.795   4.839  0.5577  0.3930 -0.1347
  585TIP3    H2 1720   0.543   6.681   4.881 -1.6418 -1.5050 -0.3373
  586TIP3   OH2 1721   3.551   3.214   0.570  0.4597 -0.2608  0.4163
  586TIP3    H1 1722   3.609   3.222   0.646  1.4238 -0.8337 -0.2346
  586TIP3    H2 1723   3.513   3.127   0.578 -0.7226  0.2952  1.1017
  587TIP3   OH2 1724   0.525   6.674   5.560  0.2878 -0.2332 -0.1585
  587TIP3    H1 1725   0.499   6.590   5.600 -0.5362 -0.1928 -0.5807
  587TIP3    H2 1726   0.442   6.719   5.545  0.7154  0.5498 -0.1824
  588TIP3   OH2 1727   5.917   1.855   4.296  0.0036 -0.2407 -0.0988
  588TIP3    H1 1728   5.850   1.857   4.365  0.9421 -0.0733  0.8283
  588TIP3    H2 1729   5.997   1.830   4.341  0.9002  1.0564 -0.9179
  589TIP3   OH2 1730   6.182   4.486   0.502 -0.5257 -0.1360 -0.0883
  589TIP3    H1 1731   6.229   4.417   0.455  1.8011  0.9089  0.5759
  589TIP3    H2 1732   6.119   4.521   0.438  0.1977 -1.0017 -1.3029
  590TIP3   OH2 1733   3.367   4.942   3.590 -0.3329 -0.4123  0.2880
  590TIP3    H1 1734   3.441   4.985   3.546 -0.3424 -0.1655  0.5114
  590TIP3    H2 1735   3.338   4.875   3.528 -0.6799  0.2758 -0.3155
  591TIP3   OH2 1736   4.890   3.428   4.280 -0.3601 -0.1699 -0.7038
  591TIP3    H1 1737   4.807   3.389   4.308 -0.5078  0.1510 -0.6819
  591TIP3    H2 1738   4.901   3.400   4.190 -2.1413  2.3944 -1.8232
  592TIP3   OH2 1739   2.609   0.043   4.450 -0.2235  0.2514  0.4765
  592TIP3    H1 1740   2.558   0.119   4.423  0.4721  0.8284  0.7455
  592TIP3    H2 1741   2.691   0.079   4.482  0.4299 -0.6661 -0.1059
  593TIP3   OH2 1742   3.463   0.384   2.166  0.1797 -0.1510 -0.0130
  593TIP3    H1 1743   3.492   0.461   2.214 -0.6426 -0.0190  0.2984
  593TIP3    H2 1744   3.367   0.393   2.162  0.0046 -1.5215  0.6744
  594TIP3   OH2 1745   7.230   2.636   1.351  0.0505  0.2152 -0.1792
  594TIP3    H1 1746   7.165   2.575   1.387 -0.9032  2.3232  1.9047
  594TIP3    H2 1747   7.273   2.674   1.428  1.8389  0.9393 -1.4558
  595TIP3   OH2 1748   5.663   2.594   0.002  0.0365 -0.5938 -0.2548
  595TIP3    H1 1749   5.758   2.608  -0.003  0.1297 -1.5539 -2.9521
  595TIP3    H2 1750   5.650   2.549   0.085  1.6008  1.6505  1.2931
  596TIP3   OH2 1751   4.707   1.828   3.974 -0.5214 -0.5122 -0.2396
  596TIP3    H1 1752   4.777   1.824   4.039  0.6989  2.8101 -1.1330
  596TIP3    H2 1753   4.634   1.870   4.020  0.0866  1.1579 -0.7325
  597TIP3   OH2 1754   3.866   0.811   5.494 -0.1840  0.1910  0.5863
  597TIP3    H1 1755   3.775   0.784   5.503  0.3008 -1.3883  0.9815
  597TIP3    H2 1756   3.913   0.732   5.470  0.7117  1.4675 -2.3534
  598TIP3   OH2 1757   4.581   4.715   5.465  0.0260 -0.2176 -0.4280
  598TIP3    H1 1758   4.607   4.800   5.429 -1.3193  0.4891  0.2201
  598TIP3    H2 1759   4.587   4.655   5.391  0.4548  0.5509 -1.0278
  599TIP3   OH2 1760   2.718   4.414   0.919 -0.3232 -0.0158 -0.0146
  599TIP3    H1 1761   2.726   4.343   0.983 -0.8166 -2.6826 -2.6408
  599TIP3    H2 1762   2.683   4.371   0.841 -0.5996  3.1891 -1.8238
  600TIP3   OH2 1763   1.435   2.631   2.300  0.0158 -0.1899  0.2291
  600TIP3    H1 1764   1.422   2.552   2.353  1.7851  0.6738  2.0947
  600TIP3    H2 1765   1.530   2.637   2.290 -0.2130 -0.0377 -2.7680
  601TIP3   OH2 1766   2.917   0.698   0.845 -0.4404  0.4039  0.5970
  601TIP3    H1 1767   2.989   0.641   0.815  0.1457  0.7222  1.3801
  601TIP3    H2 1768   2.956   0.752   0.914 -1.6121  0.1143  1.5093
  602TIP3   OH2 1769   5.565   4.974   3.288  0.0598  0.2934  0.0248
  602TIP3    H1 1770   5.470   4.964   3.276  0.1061 -1.4025  0.8610
  602TIP3    H2 1771   5.582   4.941   3.376  1.9497 -3.2874 -1.4991
  603TIP3   OH2 1772   4.784   6.121   1.910 -0.3136 -0.1901  0.4394
  603TIP3    H1 1773   4.767   6.133   2.003  0.4176 -1.1034  0.7055
  603TIP3    H2 1774   4.874   6.088   1.906 -0.6499 -1.0466 -0.5220
  604TIP3   OH2 1775   1.999   6.681   1.815  0.8097  1.1591  0.3253
  604TIP3    H1 1776   2.064   6.749   1.833  2.7775 -0.4902 -0.2417
  604TIP3    H2 1777   2.050   6.602   1.800 -1.3971 -0.5755  1.3237
  605TIP3   OH2 1778   1.507   5.173   0.039  0.5093  0.1179  0.1899
  605TIP3    H1 1779   1.501   5.244  -0.025  0.5149  0.6150  0.7316
  605TIP3    H2 1780   1.601   5.157   0.048  0.6010  1.1089  1.2070
  606TIP3   OH2 1781   4.023   4.953   4.018 -0.1454 -0.1648  0.3751
  606TIP3    H1 1782   4.028   4.918   3.929 -1.4837 -1.3615  0.7253
  606TIP3    H2 1783   3.941   5.002   4.020  0.1267  0.2825  0.8175
  607TIP3   OH2 1784   5.469   1.469   4.182 -0.5093  0.0376 -0.2775
  607TIP3    H1 1785   5.523   1.548   4.188 -0.5023  0.2832 -2.7112
  607TIP3    H2 1786   5.514   1.405   4.238  1.2538  0.8059 -0.7325
  608TIP3   OH2 1787   3.378   6.077   4.890 -0.2236 -0.1258  0.2684
  608TIP3    H1 1788   3.395   6.131   4.812 -0.8364 -0.4097 -0.0703
  608TIP3    H2 1789   3.430   5.998   4.876  1.3921  0.7164  1.1882
  609TIP3   OH2 1790   1.610   6.023   5.085  0.0036  0.6009 -0.0987
  609TIP3    H1 1791   1.662   6.034   5.164  1.0218  1.9994 -0.8942
  609TIP3    H2 1792   1.620   5.931   5.062 -0.0229  0.2576  1.1898
  610TIP3   OH2 1793   3.714   4.166   4.145  0.4530 -0.3936 -0.1047
  610TIP3    H1 1794   3.777   4.237   4.129 -0.0486 -0.0204 -0.4570
  610TIP3    H2 1795   3.742   4.096   4.086 -0.8970  0.6735 -2.1148
  611TIP3   OH2 1796   6.299   3.188   3.020  0.1362  0.2724  0.0556
  611TIP3    H1 1797   6.230   3.159   2.960  1.3243  1.2348 -1.8961
  611TIP3    H2 1798   6.275   3.278   3.042  0.5554  0.4812 -0.3270
  612TIP3   OH2 1799   4.526   3.575   2.404  0.3698 -0.1609  0.0460
  612TIP3    H1 1800   4.581   3.602   2.330 -1.7791 -1.8522 -2.3298
  612TIP3    H2 1801   4.444   3.623   2.392  0.0530 -0.2747  1.5370
  613TIP3   OH2 1802   6.471   3.643   0.809 -0.4518 -0.2661 -0.0170
  613TIP3    H1 1803   6.541   3.586   0.776  0.0450  0.3605 -0.0538
  613TIP3    H2 1804   6.426   3.589   0.874  0.5048 -0.4502  0.5234
  614TIP3   OH2 1805   4.926   4.476   2.856  0.2944 -0.4724  0.6731
  614TIP3    H1 1806   4.864   4.502   2.924 -1.9846 -1.9709 -0.6892
  614TIP3    H2 1807   4.959   4.391   2.884  0.7445 -0.2776  0.7494
  615TIP3   OH2 1808   1.081   6.199   0.876 -0.4632  0.3116 -0.2945
  615TIP3    H1 1809   1.157   6.156   0.914  0.0615  0.1685 -1.4776
  615TIP3    H2 1810   1.117   6.275   0.830 -1.1004  0.5684 -0.3774
  616TIP3   OH2 1811   6.483   5.793   2.174  0.6851  0.1948  0.0818
  616TIP3    H1 1812   6.391   5.817   2.172  0.6293 -0.0618 -1.1738
  616TIP3    H2 1813   6.510   5.808   2.265 -0.9237 -0.9688  0.8016
  617TIP3   OH2 1814   0.499   2.981   0.819  0.1793  0.1255  0.1671
  617TIP3    H1 1815   0.407   2.959   0.806  0.5321 -1.0551 -0.5203
  617TIP3    H2 1816   0.527   3.017   0.734  0.5339 -0.2363  0.1263
  618TIP3   OH2 1817   2.358   2.325   5.458 -0.2257 -0.1086 -0.5080
  618TIP3    H1 1818   2.440   2.283   5.432  0.3390  0.9524 -0.4713
  618TIP3    H2 1819   2.343   2.392   5.392 -0.0289  1.0205  0.5541
  619TIP3   OH2 1820   4.585   4.706   4.109 -0.1854 -0.4325 -0.6711
  619TIP3    H1 1821   4.595   4.774   4.042  0.6943  0.1822  0.0664
  619TIP3    H2 1822   4.490   4.697   4.120 -0.3276  1.6550  0.1786
  620TIP3   OH2 1823   1.926   2.143   5.010 -0.1887  0.3789  0.1700
  620TIP3    H1 1824   1.895   2.187   5.090  0.3790  2.8300 -0.8819
  620TIP3    H2 1825   1.851   2.143   4.951  0.0998  0.8664 -0.2027
  621TIP3   OH2 1826   0.094   4.329   3.955 -0.0823  0.6515  0.3656
  621TIP3    H1 1827   0.062   4.390   4.022  1.7592  0.7639  1.2280
  621TIP3    H2 1828   0.073   4.372   3.872 -1.3319  1.0980  0.8902
  622TIP3   OH2 1829   3.066   6.487   0.902 -0.0984 -0.3287 -0.2144
  622TIP3    H1 1830   2.971   6.487   0.895 -0.1384 -0.0752  0.3249
  622TIP3    H2 1831   3.084   6.504   0.994  0.4722  2.1981 -0.7082
  623TIP3   OH2 1832   5.995   4.570   2.347 -0.3619  0.1057  0.2596
  623TIP3    H1 1833   6.020   4.478   2.361 -0.9175 -0.3180 -1.3182
  623TIP3    H2 1834   5.910   4.578   2.390 -0.1345  0.0054  0.7426
  624TIP3   OH2 1835   0.229   5.866   5.004 -0.2383  0.0140  0.2679
  624TIP3    H1 1836   0.322   5.854   4.989  0.1482  2.1438  0.6914
  624TIP3    H2 1837   0.224   5.907   5.091 -1.5175  0.4856 -0.0070
  625TIP3   OH2 1838   0.120   6.783   1.133  0.1177  0.5162 -0.3748
  625TIP3    H1 1839   0.215   6.769   1.139 -0.1884 -0.9934  2.8024
  625TIP3    H2 1840   0.082   6.698   1.153 -1.9441  1.3482 -0.5209
  626TIP3   OH2 1841   1.656   5.595   0.872 -0.1562 -0.4264  0.1329
  626TIP3    H1 1842   1.707   5.531   0.921  0.2741  1.1261  1.8296
  626TIP3    H2 1843   1.708   5.675   0.876 -0.9098  0.1960 -1.4940
  627TIP3   OH2 1844   6.005   5.105   3.258 -0.2087 -0.1863  0.1242
  627TIP3    H1 1845   5.984   5.196   3.238  0.7974  0.0375  0.0453
  627TIP3    H2 1846   6.099   5.105   3.275 -0.2819 -1.1272  0.6163
  628TIP3   OH2 1847   1.914   4.055   3.623 -0.3575  0.0821 -0.5980
  628TIP3    H1 1848   1.860   4.038   3.701  0.0670 -1.5952 -0.6421
  628TIP3    H2 1849   1.970   4.128   3.649 -1.4348  0.7253  0.0417
  629TIP3   OH2 1850   5.287   1.932   0.909 -0.2284  0.1262 -0.0165
  629TIP3    H1 1851   5.287   1.845   0.869 -0.3478 -0.0372  0.3267
  629TIP3    H2 1852   5.345   1.922   0.985  0.7565  0.6807 -0.6784
  630TIP3   OH2 1853   7.197   0.493   3.479 -0.4939  0.0489  0.1080
  630TIP3    H1 1854   7.222   0.526   3.565  2.1776 -0.9438 -0.1926
  630TIP3    H2 1855   7.239   0.553   3.417  0.2127 -0.9872 -0.4476
  631TIP3   OH2 1856   4.975   4.686   4.251  0.7880 -0.5902  0.0894
  631TIP3    H1 1857   5.028   4.702   4.330  1.3014  0.9660 -0.5183
  631TIP3    H2 1858   5.017   4.612   4.208  0.8753 -1.0595  0.9665
  632TIP3   OH2 1859   1.497   2.209   3.197 -0.0084  0.3591  0.1311
  632TIP3    H1 1860   1.515   2.298   3.166 -2.4558  1.5522  1.7990
  632TIP3    H2 1861   1.416   2.184   3.154  1.1839 -1.5598 -1.1134
  633TIP3   OH2 1862   1.159   6.142   3.804  0.2178  0.1590  0.0136
  633TIP3    H1 1863   1.119   6.170   3.887  0.6159  2.1627 -0.4291
  633TIP3    H2 1864   1.203   6.060   3.826 -2.2059 -0.9851  1.0426
  634TIP3   OH2 1865   5.086   3.643   0.786 -0.1117 -0.1445 -0.2003
  634TIP3    H1 1866   5.013   3.703   0.771 -0.9127 -0.9904  0.1952
  634TIP3    H2 1867   5.117   3.622   0.698 -0.3375  0.2386 -0.3748
  635TIP3   OH2 1868   6.482   4.806   0.065 -0.3643  0.0171 -0.2025
  635TIP3    H1 1869   6.508   4.890   0.104 -1.0680 -0.0047  0.3206
  635TIP3    H2 1870   6.528   4.804  -0.019  1.2144  0.0565  0.6186
  636TIP3   OH2 1871   3.891   2.399   0.628  0.1712  0.0627 -0.7354
  636TIP3    H1 1872   3.802   2.367   0.643  0.7292 -0.7207  1.1546
  636TIP3    H2 1873   3.947   2.323   0.643  1.2482  0.8818 -0.5078
  637TIP3   OH2 1874   3.695   4.007   0.391  0.8000 -0.1842 -0.5307
  637TIP3    H1 1875   3.715   3.955   0.469 -0.4903 -0.9826 -0.7038
  637TIP3    H2 1876   3.749   3.968   0.322  2.4422  0.9354  0.0533
  638TIP3   OH2 1877   2.379   4.689   0.507 -0.2739  0.3488 -0.3554
  638TIP3    H1 1878   2.400   4.780   0.526 -0.2811  0.7526 -2.1585
  638TIP3    H2 1879   2.313   4.693   0.439 -2.0931 -1.0062  1.2188
  639TIP3   OH2 1880   3.095   5.418   4.055 -0.2264 -0.4867 -0.3006
  639TIP3    H1 1881   3.023   5.452   4.002 -0.5249 -1.1377 -0.3282
  639TIP3    H2 1882   3.143   5.496   4.084 -1.5607  0.0329  0.6095
  640TIP3   OH2 1883   1.764   5.860   1.876  0.2961  0.8351  0.3538
  640TIP3    H1 1884   1.718   5.821   1.949  1.3413 -2.5199 -0.5965
  640TIP3    H2 1885   1.695   5.900   1.822 -1.0172 -0.4935  0.9800
  641TIP3   OH2 1886   6.372   6.508   4.722 -0.5551 -0.0423  0.1833
  641TIP3    H1 1887   6.467   6.501   4.715 -0.6364  0.1493 -2.1151
  641TIP3    H2 1888   6.356   6.602   4.735 -0.4060 -0.3044  2.5846
  642TIP3   OH2 1889   3.696   4.575   2.571 -0.1758  0.0256 -0.5140
  642TIP3    H1 1890   3.681   4.654   2.519  1.4460 -0.2222 -1.4465
  642TIP3    H2 1891   3.713   4.507   2.506 -0.9509 -0.9667  0.2985
  643TIP3   OH2 1892   6.778   3.563   2.575 -0.2897 -0.2589 -0.2178
  643TIP3    H1 1893   6.814   3.614   2.648  0.9694 -0.6508 -0.5298
  643TIP3    H2 1894   6.852   3.552   2.515 -0.7739 -1.6263 -0.6125
  644TIP3   OH2 1895   3.335   3.179   1.959 -0.1012 -0.0235  0.1713
  644TIP3    H1 1896   3.332   3.273   1.979  0.7117 -0.1546  0.9634
  644TIP3    H2 1897   3.266   3.167   1.893 -0.6262  1.0173  0.4987
  645TIP3   OH2 1898   1.811   0.251   1.855 -0.3787 -0.4389 -0.1316
  645TIP3    H1 1899   1.884   0.263   1.917 -0.6843  1.6550 -0.1178
  645TIP3    H2 1900   1.853   0.244   1.770 -0.1376  1.8762 -0.2647
  646TIP3   OH2 1901   3.060   0.646   3.814  0.2334 -0.2075 -0.3370
  646TIP3    H1 1902   3.078   0.562   3.855  1.5720  0.1857 -0.0864
  646TIP3    H2 1903   2.982   0.630   3.760 -0.9900 -0.9787  1.5596
  647TIP3   OH2 1904   5.093   0.208   5.896  0.2420  0.4396  0.6735
  647TIP3    H1 1905   5.173   0.197   5.845 -0.1205  0.4814  0.0879
  647TIP3    H2 1906   5.084   0.125   5.944  0.8729  0.6078  1.0929
  648TIP3   OH2 1907   3.536   6.388   4.510  0.1707 -0.1666 -0.3474
  648TIP3    H1 1908   3.553   6.465   4.564  2.6730 -0.5537 -0.4741
  648TIP3    H2 1909   3.494   6.422   4.431 -2.1160  0.5829  1.0745
  649TIP3   OH2 1910   5.115   6.693   1.259 -0.3104  0.6823  0.0852
  649TIP3    H1 1911   5.081   6.686   1.170  1.6476  2.0916 -0.8463
  649TIP3    H2 1912   5.043   6.664   1.315 -1.0833 -1.7748 -1.9971
  650TIP3   OH2 1913   2.341   2.345   2.413  0.9396 -0.0195 -0.2472
  650TIP3    H1 1914   2.359   2.256   2.382  2.9962 -0.4180  1.7618
  650TIP3    H2 1915   2.280   2.332   2.486  0.7866  0.2666 -0.3266
  651TIP3   OH2 1916   7.105   0.344   5.203 -0.0134 -0.2724 -0.0606
  651TIP3    H1 1917   7.174   0.410   5.213 -2.3279  2.1760  1.0754
  651TIP3    H2 1918   7.146   0.262   5.227  2.9081  0.7890 -1.0194
  652TIP3   OH2 1919   1.793   4.494   0.301 -0.3057 -0.3421  0.4202
  652TIP3    H1 1920   1.814   4.558   0.233  2.1824  0.1597  1.5463
  652TIP3    H2 1921   1.820   4.410   0.265 -1.8480 -0.5504 -0.3368
  653TIP3   OH2 1922   4.185   2.684   2.836  0.2460  0.5070  0.1269
  653TIP3    H1 1923   4.210   2.602   2.879  0.0764  0.9613  1.1115
  653TIP3    H2 1924   4.243   2.689   2.760  0.2305 -0.5440  0.0358
  654TIP3   OH2 1925   0.701   3.705   5.008 -0.0893  0.4756 -0.6157
  654TIP3    H1 1926   0.783   3.658   4.992 -0.4181 -0.3494  0.0512
  654TIP3    H2 1927   0.675   3.677   5.096 -0.1528  2.1248 -0.0840
  655TIP3   OH2 1928   4.824   6.236   4.605  0.0876 -1.1927  0.5670
  655TIP3    H1 1929   4.761   6.306   4.625  0.5520 -0.5475 -0.2007
  655TIP3    H2 1930   4.909   6.274   4.624  0.2452 -2.4102  2.6209
  656TIP3   OH2 1931   0.431   5.725   2.548  0.2548 -0.3112  0.1430
  656TIP3    H1 1932   0.409   5.802   2.496  0.5180 -1.9553 -2.6051
  656TIP3    H2 1933   0.505   5.752   2.602  0.6689  1.2181 -1.1318
  657TIP3   OH2 1934   6.726   2.006   1.644  0.1455 -0.5873 -0.2464
  657TIP3    H1 1935   6.672   1.937   1.606 -0.2066 -0.5367  0.1614
  657TIP3    H2 1936   6.713   1.998   1.738  1.1740 -0.8406 -0.1132
  658TIP3   OH2 1937   1.182   2.348   4.167 -0.0394  0.4223 -0.8144
  658TIP3    H1 1938   1.169   2.278   4.102  3.6361 -1.8681  0.5941
  658TIP3    H2 1939   1.128   2.321   4.241  0.3455 -0.2404 -0.7670
  659TIP3   OH2 1940   4.153   3.528   1.916  0.6291  0.0649 -0.3271
  659TIP3    H1 1941   4.185   3.477   1.841 -0.2403 -0.3030 -0.4610
  659TIP3    H2 1942   4.153   3.619   1.886  3.6901  0.4206  0.4197
  660TIP3   OH2 1943   3.973   2.025   1.024 -0.0208 -0.2710 -0.0375
  660TIP3    H1 1944   4.041   2.068   1.076 -1.3145  0.8268  0.8007
  660TIP3    H2 1945   4.021   1.988   0.949  1.7716 -1.2137  1.4737
  661TIP3   OH2 1946   5.797   0.352   4.316  0.5847 -0.9861  0.2457
  661TIP3    H1 1947   5.775   0.261   4.331 -0.3912 -0.4889  2.1810
  661TIP3    H2 1948   5.744   0.401   4.380 -1.1495  1.1944 -2.6093
  662TIP3   OH2 1949   0.335   0.818   2.119 -0.7890  0.0735 -0.2322
  662TIP3    H1 1950   0.302   0.820   2.208  0.7939 -0.8820  0.4311
  662TIP3    H2 1951   0.334   0.909   2.090 -0.8461  0.4575  0.9615
  663TIP3   OH2 1952   0.240   5.400   1.934 -0.4680 -0.4702  0.0403
  663TIP3    H1 1953   0.189   5.433   2.008 -0.9222 -0.7841 -0.1282
  663TIP3    H2 1954   0.195   5.320   1.907  0.1202 -0.7651 -0.1026
  664TIP3   OH2 1955   5.943   4.492   4.699 -0.2446  0.2052  0.1014
  664TIP3    H1 1956   5.880   4.563   4.684 -0.3234  0.4082  1.2537
  664TIP3    H2 1957   5.890   4.412   4.695 -0.8892  0.4461  2.3519
  665TIP3   OH2 1958   4.890   5.618   2.911  0.1647 -0.0124  0.4650
  665TIP3    H1 1959   4.936   5.558   2.970 -2.0987 -1.8581  0.4775
  665TIP3    H2 1960   4.867   5.693   2.967  1.3389  0.0189  0.9362
  666TIP3   OH2 1961   5.645   6.476   2.950 -0.0845  0.3356  0.0915
  666TIP3    H1 1962   5.735   6.449   2.969  0.2467  0.2104 -1.4567
  666TIP3    H2 1963   5.598   6.463   3.032  1.3990  0.8153  1.0627
  667TIP3   OH2 1964   1.116   6.352   5.077  0.2423  0.1234 -0.1725
  667TIP3    H1 1965   1.206   6.383   5.066  0.3892 -0.2946 -0.1872
  667TIP3    H2 1966   1.114   6.269   5.028 -0.1894  0.2035 -0.2930
  668TIP3   OH2 1967   3.318   3.414   2.995 -0.1543  0.1506 -0.1635
  668TIP3    H1 1968   3.269   3.478   2.944  2.1062  2.0462 -0.1507
  668TIP3    H2 1969   3.271   3.332   2.983 -2.9557  1.7011 -0.5288
  669TIP3   OH2 1970   3.901   5.055   0.284 -0.3893 -0.5687 -0.2588
  669TIP3    H1 1971   3.906   5.077   0.377 -0.7364  1.2803 -0.6449
  669TIP3    H2 1972   3.982   5.091   0.246  0.6125 -2.8168 -0.4449
  670TIP3   OH2 1973   0.660   6.413   0.971  0.0281  0.2608 -0.5317
  670TIP3    H1 1974   0.664   6.427   0.877  1.4428 -0.6822 -0.6355
  670TIP3    H2 1975   0.746   6.377   0.994 -0.2586  0.5447  1.1315
  671TIP3   OH2 1976   5.458   5.769   2.456  0.3821 -0.5005 -0.0054
  671TIP3    H1 1977   5.386   5.831   2.466  0.3515  0.1607 -3.1233
  671TIP3    H2 1978   5.430   5.691   2.504 -2.2054 -0.0923 -0.6748
  672TIP3   OH2 1979   5.865   3.877   5.567  0.1525  0.3564  0.1883
  672TIP3    H1 1980   5.777   3.857   5.599  0.5118 -0.0530  0.9605
  672TIP3    H2 1981   5.851   3.930   5.489 -0.7960 -0.5970 -0.3159
  673TIP3   OH2 1982   2.488   0.110   3.249  0.2288 -0.1908 -0.3708
  673TIP3    H1 1983   2.563   0.165   3.268 -0.5097  0.9327 -0.6126
  673TIP3    H2 1984   2.418   0.171   3.226 -1.0218 -1.1410  0.7094
  674TIP3   OH2 1985   4.769   4.120   4.169 -0.6032  0.1055  0.2671
  674TIP3    H1 1986   4.722   4.046   4.208  0.6719 -0.7008  0.3398
  674TIP3    H2 1987   4.729   4.130   4.082 -0.5981 -0.8703  0.1342
  675TIP3   OH2 1988   0.560   4.948   0.552 -0.0894 -0.5043  0.2320
  675TIP3    H1 1989   0.575   4.915   0.464  2.0532 -0.3413  0.4622
  675TIP3    H2 1990   0.469   4.976   0.553  0.3775  1.6165 -2.6839
  676TIP3   OH2 1991   6.305   0.338   5.337  0.5513 -0.4705 -0.1133
  676TIP3    H1 1992   6.249   0.409   5.367 -0.6961 -1.1364 -0.8182
  676TIP3    H2 1993   6.329   0.291   5.416 -0.3314 -0.4992  0.1393
  677TIP3   OH2 1994   1.569   0.325   0.852  0.1499  0.3734  0.5685
  677TIP3    H1 1995   1.621   0.261   0.901  0.3492  0.6695  0.7491
  677TIP3    H2 1996   1.544   0.390   0.917 -1.3815 -0.3229  0.7214
  678TIP3   OH2 1997   2.408   0.403   0.301  0.4972  0.7872  0.2903
  678TIP3    H1 1998   2.456   0.478   0.266  0.6651  0.2428 -0.6842
  678TIP3    H2 1999   2.475   0.339   0.322  0.2312  0.0435 -1.0225
  679TIP3   OH2 2000   2.232   1.612   1.528 -0.3069 -0.5334 -0.0660
  679TIP3    H1 2001   2.157   1.624   1.586 -0.8972 -1.0409 -0.7008
  679TIP3    H2 2002   2.257   1.700   1.503 -1.5973 -0.3817 -0.9510
  680TIP3   OH2 2003   0.977   4.366   1.678 -0.4219 -0.3951 -0.0921
  680TIP3    H1 2004   0.929   4.285   1.662  0.1083 -0.4633 -1.5079
  680TIP3    H2 2005   1.066   4.347   1.647 -0.2314  0.6452 -0.2021
  681TIP3   OH2 2006   6.543   2.927   1.268 -0.0685  0.2637  0.1385
  681TIP3    H1 2007   6.472   2.990   1.252  0.7061  1.0451 -0.3781
  681TIP3    H2 2008   6.586   2.919   1.183  2.5477  2.4730  1.1057
  682TIP3   OH2 2009   5.376   3.593   5.438  0.0831  0.0538  1.0124
  682TIP3    H1 2010   5.437   3.554   5.500 -0.5671  0.2055  1.7718
  682TIP3    H2 2011   5.355   3.523   5.377  0.9682 -0.0110  0.7685
  683TIP3   OH2 2012   6.157   5.305   2.061  0.7169  0.1505  0.2304
  683TIP3    H1 2013   6.161   5.385   2.008  0.3167 -0.8548 -1.4071
  683TIP3    H2 2014   6.123   5.239   2.001  1.6843 -1.4156  1.3382
  684TIP3   OH2 2015   6.099   3.389   4.921  0.1534  0.4717 -0.1060
  684TIP3    H1 2016   6.110   3.479   4.954  0.0798  0.1187  0.9317
  684TIP3    H2 2017   6.023   3.356   4.969  0.0289 -0.0631 -0.6703
  685TIP3   OH2 2018   0.300   0.858   2.401 -0.0907  0.5606 -0.2315
  685TIP3    H1 2019   0.306   0.924   2.471  0.1385 -1.0519  1.3479
  685TIP3    H2 2020   0.207   0.836   2.398 -0.1595  0.8994 -0.7262
  686TIP3   OH2 2021   3.565   3.945   3.017  0.3281 -0.2445  0.0031
  686TIP3    H1 2022   3.555   3.994   3.098 -2.3895 -1.7562  0.7099
  686TIP3    H2 2023   3.553   3.853   3.044  1.0545 -0.9233 -1.8641
  687TIP3   OH2 2024   3.035   1.746   5.002 -0.8059 -0.2582 -0.3784
  687TIP3    H1 2025   3.015   1.661   5.041 -0.6589 -0.0148  0.2281
  687TIP3    H2 2026   3.041   1.806   5.076 -2.0562  0.5203 -0.8788
  688TIP3   OH2 2027   4.341   5.850   3.200 -0.6763  0.2816 -0.3043
  688TIP3    H1 2028   4.248   5.872   3.197 -0.2782  2.2219  0.1188
  688TIP3    H2 2029   4.354   5.814   3.288 -0.8753  0.8155 -0.0526
  689TIP3   OH2 2030   6.735   3.455   1.983  0.3648 -0.0661 -0.0638
  689TIP3    H1 2031   6.681   3.387   2.023 -1.1800  1.6955  0.9766
  689TIP3    H2 2032   6.689   3.478   1.902  0.6839  0.0162 -0.2242
  690TIP3   OH2 2033   5.056   4.753   1.216 -0.3037  0.2986 -0.4788
  690TIP3    H1 2034   4.972   4.799   1.225  0.0379  0.7766  0.3647
  690TIP3    H2 2035   5.080   4.729   1.305 -0.0739 -0.8319 -0.8289
  691TIP3   OH2 2036   4.063   4.683   5.510  0.0518  0.6817  0.3677
  691TIP3    H1 2037   4.030   4.714   5.426 -1.1072 -0.4384  0.3651
  691TIP3    H2 2038   4.155   4.706   5.511  0.5004 -0.7260 -1.9246
  692TIP3   OH2 2039   4.394   6.320   1.148  0.2555 -0.0941  0.0027
  692TIP3    H1 2040   4.416   6.360   1.064 -0.1498 -0.2104 -0.1597
  692TIP3    H2 2041   4.365   6.393   1.203 -3.5829 -0.4690 -1.2692
  693TIP3   OH2 2042   3.000   1.062   5.639  0.2045  0.0273 -0.2232
  693TIP3    H1 2043   2.905   1.069   5.649  0.4857  2.7619  1.9601
  693TIP3    H2 2044   3.032   1.052   5.728  2.0083 -0.3452 -0.8823
  694TIP3   OH2 2045   2.438   3.178   5.774 -0.4464  0.3552  0.5054
  694TIP3    H1 2046   2.425   3.089   5.743 -1.2136  0.7135 -0.2775
  694TIP3    H2 2047   2.392   3.182   5.858 -2.4617  0.6157 -0.5483
  695TIP3   OH2 2048   2.352   5.024   4.372 -0.1566 -0.6106  0.5841
  695TIP3    H1 2049   2.348   5.033   4.276  1.3051  0.1650  0.5689
  695TIP3    H2 2050   2.356   4.930   4.387 -0.4459 -0.7419 -0.1167
  696TIP3   OH2 2051   1.366   6.576   2.799  0.1460 -0.0705  0.1544
  696TIP3    H1 2052   1.434   6.611   2.857  1.6765  0.2075 -1.6844
  696TIP3    H2 2053   1.412   6.510   2.746 -1.3813 -0.9049 -0.1821
  697TIP3   OH2 2054   6.861   5.613   1.760  0.7287  0.0613  0.0021
  697TIP3    H1 2055   6.777   5.658   1.751  1.3000  0.9425 -1.2963
  697TIP3    H2 2056   6.926   5.683   1.757  1.5188 -0.5785  1.3530
  698TIP3   OH2 2057   3.245   6.515   3.386  0.0074 -0.4748  0.7112
  698TIP3    H1 2058   3.221   6.596   3.341 -3.5426 -0.1238  2.8148
  698TIP3    H2 2059   3.317   6.539   3.444  1.9132  0.0075 -1.7057
  699TIP3   OH2 2060   0.534   3.539   4.000 -0.0962 -0.6363 -0.1107
  699TIP3    H1 2061   0.533   3.568   3.909 -1.2285 -0.8187 -0.1646
  699TIP3    H2 2062   0.527   3.619   4.051  3.0339 -0.2485 -0.0555
  700TIP3   OH2 2063   3.353   6.473   5.700  0.0483  0.2822 -0.3644
  700TIP3    H1 2064   3.327   6.561   5.674  0.2686 -0.0894 -1.9199
  700TIP3    H2 2065   3.355   6.476   5.796 -0.3158  1.8499 -0.3818
  701TIP3   OH2 2066   4.133   0.221   2.907 -0.4233 -0.5897 -0.1200
  701TIP3    H1 2067   4.106   0.284   2.973 -0.0157 -0.0619 -0.4415
  701TIP3    H2 2068   4.053   0.174   2.884 -0.7614 -0.1026  0.0360
  702TIP3   OH2 2069   5.939   5.188   2.965  0.3747  0.3835 -0.4087
  702TIP3    H1 2070   6.025   5.198   2.924  0.9651  0.6760  0.8686
  702TIP3    H2 2071   5.925   5.269   3.013 -0.7820  0.4818 -0.8838
  703TIP3   OH2 2072   3.263   3.988   2.108 -0.1314  0.0195  0.1502
  703TIP3    H1 2073   3.340   4.007   2.054 -0.3607  0.0673 -0.1638
  703TIP3    H2 2074   3.218   3.917   2.061 -1.6849  1.7322 -1.1031
  704TIP3   OH2 2075   5.244   1.821   4.444  0.1506 -0.5415  0.2569
  704TIP3    H1 2076   5.232   1.849   4.534 -2.1967  1.4510 -0.5511
  704TIP3    H2 2077   5.337   1.833   4.427  0.4267  0.1510  2.0566
  705TIP3   OH2 2078   3.951   5.529   0.562  0.5279  0.3536 -0.0726
  705TIP3    H1 2079   3.976   5.588   0.492  2.3684  0.8484  0.9339
  705TIP3    H2 2080   3.980   5.572   0.642 -0.4752 -0.7142  0.9148
  706TIP3   OH2 2081   4.247   4.873   2.994  0.4332  0.1866  0.0799
  706TIP3    H1 2082   4.256   4.802   3.058 -1.3109 -0.4572 -0.3466
  706TIP3    H2 2083   4.336   4.886   2.960  1.1246 -0.4671  1.5495
  707TIP3   OH2 2084   2.761   4.135   2.341  0.7715 -0.1891  0.1172
  707TIP3    H1 2085   2.759   4.190   2.262  0.7203  1.3485  1.1622
  707TIP3    H2 2086   2.752   4.045   2.307 -1.6849  0.5566 -1.4885
  708TIP3   OH2 2087   5.257   1.576   1.115  0.4317  0.8782 -0.5471
  708TIP3    H1 2088   5.306   1.503   1.153  1.0689  1.5837  0.0121
  708TIP3    H2 2089   5.165   1.551   1.126  0.5447  1.2985  2.0672
  709TIP3   OH2 2090   4.156   1.599   0.408 -0.1047  0.4830  0.4316
  709TIP3    H1 2091   4.105   1.561   0.479 -0.4665 -0.7732 -0.4693
  709TIP3    H2 2092   4.245   1.606   0.444 -0.2221 -0.3885  0.9237
  710TIP3   OH2 2093   2.416   2.631   2.418  0.4474  0.3590 -0.5033
  710TIP3    H1 2094   2.382   2.542   2.402  1.2861  0.3851 -2.8579
  710TIP3    H2 2095   2.339   2.687   2.411 -0.1112 -0.1437  1.1038
  711TIP3   OH2 2096   5.514   1.814   0.624 -0.1545  0.2235 -0.2294
  711TIP3    H1 2097   5.563   1.890   0.593 -1.3704  1.7973  1.5104
  711TIP3    H2 2098   5.425   1.828   0.591 -1.3669  1.6740  3.1644
  712TIP3   OH2 2099   5.639   2.632   4.691 -0.2562 -0.1571  0.3540
  712TIP3    H1 2100   5.734   2.641   4.688 -0.3285  0.4110 -1.4880
  712TIP3    H2 2101   5.606   2.721   4.674 -1.1253 -0.3358  1.0133
  713TIP3   OH2 2102   4.682   0.801   5.809 -0.4386  0.0087 -0.0243
  713TIP3    H1 2103   4.689   0.717   5.856  0.4437 -1.1491 -2.0860
  713TIP3    H2 2104   4.589   0.823   5.814 -0.7502 -1.2793  0.2454
  714TIP3   OH2 2105   4.922   2.770   1.279  0.6828  0.1331 -0.5833
  714TIP3    H1 2106   4.897   2.862   1.265 -0.6640 -0.5081 -2.8219
  714TIP3    H2 2107   4.839   2.722   1.277  1.1285 -1.0129  2.5839
  715TIP3   OH2 2108   2.256   1.880   0.255 -0.3217 -0.3175 -0.2462
  715TIP3    H1 2109   2.319   1.923   0.312 -0.5034  1.1163 -1.0792
  715TIP3    H2 2110   2.174   1.928   0.269 -1.0841 -1.6929  0.2892
  716TIP3   OH2 2111   1.178   6.839   1.485  0.0713 -0.0644  0.1757
  716TIP3    H1 2112   1.128   6.791   1.419  0.0949  0.4997 -0.2522
  716TIP3    H2 2113   1.209   6.770   1.545  1.8309 -0.8821 -1.5441
  717TIP3   OH2 2114   0.591   1.058   0.423  1.0051  0.5737  0.0454
  717TIP3    H1 2115   0.557   1.134   0.376 -0.3259  0.2393  0.4196
  717TIP3    H2 2116   0.517   0.997   0.426  1.6702 -0.2119  0.8414
  718TIP3   OH2 2117   4.727   1.908   4.405  0.1917 -0.1099  0.0168
  718TIP3    H1 2118   4.710   2.002   4.399 -1.6019 -0.4870 -2.1839
  718TIP3    H2 2119   4.815   1.897   4.369 -0.3997  0.5670 -1.7386
  719TIP3   OH2 2120   4.714   5.687   4.210  0.4380  0.3141 -0.1809
  719TIP3    H1 2121   4.797   5.647   4.184 -0.0188 -0.6042 -0.2479
  719TIP3    H2 2122   4.653   5.614   4.216 -0.3081  0.9529  0.1173
  720TIP3   OH2 2123   0.802   3.586   3.550  0.1615 -0.0313  0.1930
  720TIP3    H1 2124   0.750   3.506   3.550 -0.2429  0.1277 -2.6012
  720TIP3    H2 2125   0.746   3.652   3.590 -0.3650 -0.6522  0.4904
  721TIP3   OH2 2126   4.124   3.578   3.106  0.0033 -0.0193  0.0601
  721TIP3    H1 2127   4.157   3.658   3.148 -0.7964  0.7733 -0.7673
  721TIP3    H2 2128   4.165   3.507   3.155  0.3337  0.8877  1.1516
  722TIP3   OH2 2129   5.421   1.623   1.561 -0.0413 -0.1874  1.1476
  722TIP3    H1 2130   5.351   1.676   1.522  0.2006  0.2423  1.2882
  722TIP3    H2 2131   5.478   1.687   1.603 -0.5471 -0.6776  2.6224
  723TIP3   OH2 2132   3.805   5.543   4.191 -0.1651  0.3332 -0.4493
  723TIP3    H1 2133   3.843   5.514   4.274  1.0604  1.8664 -0.4233
  723TIP3    H2 2134   3.850   5.626   4.172 -2.1846  1.2832 -1.3923
  724TIP3   OH2 2135   5.102   2.031   5.604 -0.2167  0.1355 -0.1498
  724TIP3    H1 2136   5.023   2.079   5.579  0.4870  1.6291  0.3567
  724TIP3    H2 2137   5.071   1.967   5.668 -1.3369 -0.7944 -1.5758
  725TIP3   OH2 2138   2.460   4.301   2.962 -0.1965  0.4335  0.1007
  725TIP3    H1 2139   2.429   4.237   2.898  0.8220  0.2336 -0.1994
  725TIP3    H2 2140   2.394   4.298   3.032 -0.4176 -0.5856 -0.1339
  726TIP3   OH2 2141   7.153   2.161   4.885 -0.8713  0.0843  0.5040
  726TIP3    H1 2142   7.145   2.095   4.954 -0.7170  0.1393  0.5766
  726TIP3    H2 2143   7.153   2.245   4.932  1.3346  0.0608  0.6456
  727TIP3   OH2 2144   0.473   6.640   4.432 -0.4033 -0.1569 -0.4698
  727TIP3    H1 2145   0.536   6.700   4.472 -1.5429  0.0315  1.1513
  727TIP3    H2 2146   0.439   6.688   4.357 -0.0687  0.5556 -0.1752
  728TIP3   OH2 2147   6.443   0.021   3.047  0.5537 -0.0125 -0.0802
  728TIP3    H1 2148   6.466   0.029   3.140  0.3166 -0.9961  0.0751
  728TIP3    H2 2149   6.364  -0.033   3.047  0.9614 -0.6341 -0.8953
  729TIP3   OH2 2150   1.338   4.060   0.878 -0.1237 -0.9145 -0.1580
  729TIP3    H1 2151   1.266   4.119   0.860 -0.0738 -0.3982  1.2410
  729TIP3    H2 2152   1.307   4.003   0.948  1.3517  0.3933  1.6379
  730TIP3   OH2 2153   0.414   0.399   1.331 -0.1963  0.6832 -0.2746
  730TIP3    H1 2154   0.405   0.450   1.250  0.6764  2.4454  0.7089
  730TIP3    H2 2155   0.507   0.377   1.336 -0.2808  0.4085  0.1746
  731TIP3   OH2 2156   5.666   4.768   2.378  0.0497 -0.4071  0.2821
  731TIP3    H1 2157   5.586   4.736   2.420  0.8147 -2.2451  0.4352
  731TIP3    H2 2158   5.674   4.715   2.299  0.1062  1.1147 -0.7689
  732TIP3   OH2 2159   6.397   5.107   5.497  0.0567  0.2178  0.2453
  732TIP3    H1 2160   6.438   5.046   5.436  0.7315  0.1296  0.7734
  732TIP3    H2 2161   6.400   5.062   5.582  1.7420  1.4745  0.9004
  733TIP3   OH2 2162   5.091   1.498   5.523 -0.2480  0.4400 -0.7144
  733TIP3    H1 2163   4.998   1.498   5.505 -0.1240  1.3013 -1.4418
  733TIP3    H2 2164   5.111   1.589   5.545  0.5437  0.4103 -1.2647
  734TIP3   OH2 2165   3.581   6.772   3.791  0.5135 -0.2492  0.0165
  734TIP3    H1 2166   3.623   6.832   3.729  0.5621  0.6928  0.9395
  734TIP3    H2 2167   3.647   6.705   3.808 -0.4107 -2.0972 -2.9869
  735TIP3   OH2 2168   1.589   1.314   4.727  0.5409 -0.4231  0.7038
  735TIP3    H1 2169   1.577   1.407   4.707  0.2379 -0.1307  2.1331
  735TIP3    H2 2170   1.680   1.307   4.753  1.0933 -0.9088 -1.1889
  736TIP3   OH2 2171   5.511   0.645   2.419 -0.7738 -0.1887 -0.3840
  736TIP3    H1 2172   5.439   0.581   2.427 -2.5305  1.6303 -0.8158
  736TIP3    H2 2173   5.511   0.691   2.503 -0.6750  0.3949 -0.7020
  737TIP3   OH2 2174   3.035   2.894   5.370 -0.0698  0.0884 -0.2524
  737TIP3    H1 2175   3.108   2.917   5.313 -0.6474  0.9015 -0.6907
  737TIP3    H2 2176   2.970   2.855   5.311 -0.2852  0.0494  0.0094
  738TIP3   OH2 2177   1.181   5.480   3.778  0.4707 -0.0461  0.6453
  738TIP3    H1 2178   1.273   5.456   3.793  0.5994  1.0204  1.6765
  738TIP3    H2 2179   1.131   5.407   3.814  0.8948 -0.1614  1.0048
  739TIP3   OH2 2180   2.844   4.374   1.854  0.7699 -0.5786 -0.2430
  739TIP3    H1 2181   2.862   4.434   1.927 -0.4074 -0.0754 -0.3530
  739TIP3    H2 2182   2.888   4.414   1.779 -0.6272  0.5715 -0.4819
  740TIP3   OH2 2183   4.566   3.825   3.629 -1.1191 -0.4346 -0.3005
  740TIP3    H1 2184   4.494   3.770   3.658 -1.0141 -0.3182  0.1959
  740TIP3    H2 2185   4.530   3.914   3.630 -1.1674 -0.4450 -0.7105
  741TIP3   OH2 2186   3.056   4.204   0.904  0.6029  0.1861 -0.2120
  741TIP3    H1 2187   3.048   4.287   0.951 -0.0423  0.3456 -0.5860
  741TIP3    H2 2188   3.003   4.142   0.954 -0.0366  0.3420 -0.6834
  742TIP3   OH2 2189   4.096   6.279   2.650 -0.1869 -0.6511  0.1041
  742TIP3    H1 2190   4.122   6.271   2.742  2.4868  0.1391 -0.4756
  742TIP3    H2 2191   4.089   6.189   2.619  1.8624 -0.9683  0.4052
  743TIP3   OH2 2192   3.839   4.444   3.256  0.2154 -0.2908  0.1382
  743TIP3    H1 2193   3.782   4.493   3.315 -0.1204 -1.2120  0.5935
  743TIP3    H2 2194   3.815   4.353   3.270  0.6874 -0.5787 -0.8491
  744TIP3   OH2 2195   1.595   3.427   1.150  0.8170  0.0786  0.0956
  744TIP3    H1 2196   1.500   3.434   1.146  0.7563 -0.0876  1.0166
  744TIP3    H2 2197   1.627   3.516   1.135  0.4183  0.5806  1.9766
  745TIP3   OH2 2198   1.633   3.411   2.847 -0.2636  0.1023 -0.6847
  745TIP3    H1 2199   1.709   3.369   2.887 -1.2879 -1.2212 -0.0792
  745TIP3    H2 2200   1.592   3.459   2.918  0.0868  0.9841 -1.0579
  746TIP3   OH2 2201   5.048   5.016   4.675  0.2001  0.2030  0.4171
  746TIP3    H1 2202   5.056   4.998   4.769  0.2425 -3.7699 -0.1987
  746TIP3    H2 2203   5.137   5.041   4.649  0.0972  1.8032  1.4390
  747TIP3   OH2 2204   4.923   3.039   5.837 -0.1253  0.0543  0.1546
  747TIP3    H1 2205   4.952   2.985   5.764 -0.7365 -0.0826  0.0118
  747TIP3    H2 2206   4.861   3.101   5.798  1.2809  1.5081  0.1243
  748TIP3   OH2 2207   4.424   6.246   0.385  0.0985 -0.3639 -0.2354
  748TIP3    H1 2208   4.478   6.325   0.390  1.2373 -1.1382  0.1002
  748TIP3    H2 2209   4.335   6.279   0.370  0.8349  0.9070 -2.1803
  749TIP3   OH2 2210   0.677   4.266   2.003 -0.4875 -0.1602 -0.0799
  749TIP3    H1 2211   0.699   4.238   1.915  2.0826  1.0786  0.0871
  749TIP3    H2 2212   0.586   4.295   1.997 -0.0351  1.0045 -2.6346
  750TIP3   OH2 2213   0.710   4.709   4.319  0.1063  0.2507  0.2111
  750TIP3    H1 2214   0.775   4.656   4.274 -1.4771 -2.0440  0.4558
  750TIP3    H2 2215   0.632   4.705   4.264 -0.7065  0.5573  1.2944
  751TIP3   OH2 2216   3.074   6.153  -0.025  0.0868  0.2876 -0.1787
  751TIP3    H1 2217   3.088   6.206   0.053  1.1095  0.5370 -0.5195
  751TIP3    H2 2218   2.986   6.118  -0.014  0.0656  0.6329  0.8974
  752TIP3   OH2 2219   3.577   1.318   1.438 -0.4173  0.2987 -0.0548
  752TIP3    H1 2220   3.664   1.320   1.399  0.2688 -0.1379  1.3717
  752TIP3    H2 2221   3.562   1.407   1.470 -0.1654  0.1973  0.3565
  753TIP3   OH2 2222   3.494   5.637   4.894  0.1542  0.0582  0.0096
  753TIP3    H1 2223   3.582   5.598   4.887  1.3578  2.4640  0.7429
  753TIP3    H2 2224   3.446   5.576   4.950  1.5268 -1.0524  0.0483
  754TIP3   OH2 2225   6.846   6.399   3.269 -1.1466  0.3292  0.9086
  754TIP3    H1 2226   6.819   6.334   3.203 -0.6631 -1.3128  2.2480
  754TIP3    H2 2227   6.933   6.371   3.297 -1.1872  1.1865  1.9841
  755TIP3   OH2 2228   0.727   4.877   2.511 -0.1526 -0.8379  0.2934
  755TIP3    H1 2229   0.785   4.802   2.501 -0.4216 -0.9649 -0.4257
  755TIP3    H2 2230   0.639   4.841   2.498 -0.2817 -0.4058 -0.0894
  756TIP3   OH2 2231   4.799   0.026   4.272 -0.6769  0.0316  0.2675
  756TIP3    H1 2232   4.842  -0.043   4.222  2.1613  1.4837  0.5083
  756TIP3    H2 2233   4.772   0.091   4.207  1.2869  1.0127  0.3480
  757TIP3   OH2 2234   2.214   6.387   0.689 -0.1476 -0.0951 -0.3854
  757TIP3    H1 2235   2.257   6.450   0.748  2.0615  0.4323 -2.4462
  757TIP3    H2 2236   2.152   6.341   0.746  0.2084  1.9546  1.8386
  758TIP3   OH2 2237   3.337   1.976   2.876  0.2217 -0.8036  0.0501
  758TIP3    H1 2238   3.358   2.021   2.794 -1.1215  0.6076  0.4421
  758TIP3    H2 2239   3.419   1.977   2.926  0.5474  0.0751 -0.4821
  759TIP3   OH2 2240   1.806   0.141   5.275  0.6132 -0.3308  0.6522
  759TIP3    H1 2241   1.748   0.074   5.311 -1.8557  1.8350  1.0143
  759TIP3    H2 2242   1.828   0.110   5.188  2.2392 -3.0849  1.9195
  760TIP3   OH2 2243   6.325   0.205   4.636 -0.7289 -0.6833  0.0698
  760TIP3    H1 2244   6.400   0.177   4.584 -1.1657  0.4516 -1.2378
  760TIP3    H2 2245   6.250   0.163   4.595 -1.1068  0.4148 -0.4100
  761TIP3   OH2 2246   3.050   0.450   4.986 -0.2085 -0.5174 -0.2461
  761TIP3    H1 2247   2.964   0.458   4.945 -0.1382 -1.0697 -0.5064
  761TIP3    H2 2248   3.093   0.379   4.939  0.5983  0.1009 -0.4691
  762TIP3   OH2 2249   0.916   3.761   5.207  0.3673  0.3925 -0.2159
  762TIP3    H1 2250   0.927   3.841   5.155  0.0950 -0.4426 -1.5894
  762TIP3    H2 2251   0.893   3.794   5.294 -0.7273  1.8244 -0.9803
  763TIP3   OH2 2252   3.698   2.886   2.868 -0.1056 -0.8393  0.7555
  763TIP3    H1 2253   3.642   2.945   2.818  1.5752 -1.2886 -1.8797
  763TIP3    H2 2254   3.651   2.802   2.866 -1.2549 -0.2846  2.2553
  764TIP3   OH2 2255   2.472   6.156   1.064 -0.1015  0.2188 -0.0850
  764TIP3    H1 2256   2.507   6.184   1.149  0.9753  0.3495 -0.5681
  764TIP3    H2 2257   2.418   6.079   1.086  1.5268 -0.7990  0.5219
  765TIP3   OH2 2258   5.512   3.290   0.119 -0.2764  0.0943  0.5298
  765TIP3    H1 2259   5.542   3.251   0.037 -1.5981  1.3237 -0.6114
  765TIP3    H2 2260   5.592   3.321   0.161  0.5919 -1.9614  0.5200
  766TIP3   OH2 2261   5.680   6.138   2.990  0.3636 -0.0980 -0.4078
  766TIP3    H1 2262   5.759   6.192   2.990  0.8422 -0.7558  0.6125
  766TIP3    H2 2263   5.617   6.188   3.042 -0.0682  0.6453 -1.6164
  767TIP3   OH2 2264   2.010   4.278   5.793 -0.1220  0.1907  0.2207
  767TIP3    H1 2265   1.917   4.293   5.804 -0.1740  1.8372 -1.9531
  767TIP3    H2 2266   2.026   4.195   5.839 -2.7286 -0.4223  0.1688
  768TIP3   OH2 2267   3.791   3.811   2.711  0.0795 -0.9563  0.2782
  768TIP3    H1 2268   3.824   3.780   2.627  1.7989 -0.5663  0.7616
  768TIP3    H2 2269   3.789   3.733   2.766  1.9548 -0.7170  0.7504
  769TIP3   OH2 2270   2.780   2.654   2.314 -0.2949 -0.0159 -0.3304
  769TIP3    H1 2271   2.720   2.697   2.253 -0.6512 -0.9726 -0.6698
  769TIP3    H2 2272   2.852   2.716   2.324 -1.5652  1.3867  0.4937
  770TIP3   OH2 2273   4.269   4.607   3.631  0.0303  0.5475  0.2604
  770TIP3    H1 2274   4.284   4.515   3.652  0.4751 -0.2321 -2.9038
  770TIP3    H2 2275   4.354   4.640   3.603 -0.2982  1.7022  0.5326
  771TIP3   OH2 2276   2.274   1.939   3.744 -0.1219 -0.1278  0.1717
  771TIP3    H1 2277   2.362   1.957   3.710 -0.5702  0.6093 -0.6515
  771TIP3    H2 2278   2.262   1.844   3.732  0.9290 -0.4239  1.2496
  772TIP3   OH2 2279   6.841   0.303   1.042  0.3983 -0.0520  0.2955
  772TIP3    H1 2280   6.772   0.298   1.107 -0.8430  0.0554 -0.9702
  772TIP3    H2 2281   6.897   0.375   1.073 -0.9000  0.8797  0.5814
  773TIP3   OH2 2282   5.563   6.127   5.477  0.3077  0.1574  0.2179
  773TIP3    H1 2283   5.585   6.205   5.426  0.7459 -0.0671  0.0493
  773TIP3    H2 2284   5.645   6.078   5.480  0.0021 -0.3594  0.2102
  774TIP3   OH2 2285   2.903   0.177   4.936 -0.1387  0.3279 -0.0383
  774TIP3    H1 2286   2.832   0.189   4.999 -0.2496  0.3692 -0.1700
  774TIP3    H2 2287   2.979   0.153   4.989 -0.0844  0.9339  0.1698
  775TIP3   OH2 2288   0.809   0.150   1.699  0.1238  0.5015  0.1614
  775TIP3    H1 2289   0.731   0.202   1.677 -0.0191  0.2624  0.1061
  775TIP3    H2 2290   0.810   0.080   1.635  0.1065  0.2125  0.4771
  776TIP3   OH2 2291   6.820   2.366   4.420  0.0066  0.6613  0.3252
  776TIP3    H1 2292   6.762   2.290   4.416  0.7805 -0.0068  1.3687
  776TIP3    H2 2293   6.769   2.433   4.466 -0.0339  0.1656  1.0084
  777TIP3   OH2 2294   5.243   5.478   3.343 -0.9012  0.2668  0.3466
  777TIP3    H1 2295   5.180   5.462   3.412  0.6313 -0.8048  1.5672
  777TIP3    H2 2296   5.217   5.419   3.272 -1.1866 -0.2810  0.8980
  778TIP3   OH2 2297   5.781   2.563   5.512  0.6965 -0.2273  0.8506
  778TIP3    H1 2298   5.695   2.605   5.513 -0.1841 -1.8973  0.3071
  778TIP3    H2 2299   5.835   2.617   5.569 -0.2456  1.7847 -0.0345
  779TIP3   OH2 2300   1.825   3.835   3.852 -0.2175  0.4391  0.1644
  779TIP3    H1 2301   1.759   3.771   3.879  1.2279 -0.7893  0.9090
  779TIP3    H2 2302   1.902   3.783   3.831 -0.2172  1.5585 -3.3940
  780TIP3   OH2 2303   0.362   5.603   0.602 -0.1178 -0.5562  0.0957
  780TIP3    H1 2304   0.444   5.652   0.598 -0.4064 -0.1316 -0.7044
  780TIP3    H2 2305   0.302   5.661   0.648  0.0021 -0.8407  0.6217
  781TIP3   OH2 2306   5.206   6.165   4.236 -0.0122 -0.6062 -0.2121
  781TIP3    H1 2307   5.196   6.214   4.317  0.4844  0.7280 -0.9186
  781TIP3    H2 2308   5.202   6.073   4.262 -4.0776 -0.3310  0.7936
  782TIP3   OH2 2309   0.814   4.729   3.541 -0.0079 -0.2168 -0.2854
  782TIP3    H1 2310   0.803   4.751   3.449  0.1252 -2.1446 -0.8104
  782TIP3    H2 2311   0.725   4.713   3.572 -0.0261  0.1421 -0.1444
  783TIP3   OH2 2312   2.885   1.474   3.655  0.1679  0.2008 -0.6349
  783TIP3    H1 2313   2.849   1.396   3.612  0.7930  0.3025 -1.3410
  783TIP3    H2 2314   2.848   1.470   3.744  1.8041 -2.0381  0.0343
  784TIP3   OH2 2315   3.597   4.200   1.604  0.0266 -0.2823 -0.6044
  784TIP3    H1 2316   3.641   4.115   1.606  1.4371  0.4333 -0.5035
  784TIP3    H2 2317   3.649   4.255   1.662 -0.3418  0.9140 -1.3790
  785TIP3   OH2 2318   6.362   2.828   0.255 -0.3434 -0.5186  0.3748
  785TIP3    H1 2319   6.295   2.859   0.194 -0.0405 -0.3552  0.1243
  785TIP3    H2 2320   6.400   2.908   0.292 -0.1060 -0.6036  0.3184
  786TIP3   OH2 2321   5.292   2.746   3.363 -0.2919 -0.6731  0.3785
  786TIP3    H1 2322   5.383   2.717   3.367 -0.1284 -0.0313  1.7006
  786TIP3    H2 2323   5.295   2.839   3.385 -1.2857 -0.6714  0.5488
  787TIP3   OH2 2324   0.199   6.126   4.489 -0.3001  0.1183 -0.2403
  787TIP3    H1 2325   0.262   6.060   4.517 -0.3613 -0.1025 -0.6161
  787TIP3    H2 2326   0.128   6.120   4.552 -1.4006 -1.7824 -1.5422
  788TIP3   OH2 2327   0.994   3.640   2.537  0.5281  0.3028  0.0255
  788TIP3    H1 2328   0.916   3.689   2.560  0.5886  1.3853 -1.8868
  788TIP3    H2 2329   1.060   3.706   2.518  1.3244 -0.5579 -0.3189
  789TIP3   OH2 2330   5.949   4.729   1.118  0.0779 -0.2016  0.1769
  789TIP3    H1 2331   5.956   4.642   1.078  0.2269  0.2037 -0.7110
  789TIP3    H2 2332   5.975   4.789   1.048 -1.4156  0.6575  0.3129
  790TIP3   OH2 2333   5.402   0.526   4.641 -0.2065  0.0016 -0.1508
  790TIP3    H1 2334   5.404   0.523   4.737  0.6777  1.4819 -0.0932
  790TIP3    H2 2335   5.315   0.494   4.618 -0.1094 -1.2665  1.0876
  791TIP3   OH2 2336   2.549   5.159   0.432 -0.2562 -0.0377 -0.1488
  791TIP3    H1 2337   2.520   5.242   0.395  0.7391 -0.3366 -1.7208
  791TIP3    H2 2338   2.643   5.157   0.416  0.0092 -0.7624  1.3464
  792TIP3   OH2 2339   0.220   0.566   0.493 -0.0571 -0.2500 -0.1019
  792TIP3    H1 2340   0.228   0.609   0.407 -0.0638  0.4409  0.2329
  792TIP3    H2 2341   0.146   0.507   0.484 -0.1258 -0.0988 -0.5451
  793TIP3   OH2 2342   6.706   0.462   4.029 -0.0008 -0.1873 -0.2780
  793TIP3    H1 2343   6.787   0.414   4.049  0.4574  1.1235  1.2115
  793TIP3    H2 2344   6.657   0.460   4.111  0.7191  3.1468  0.3467
  794TIP3   OH2 2345   5.174   1.572   1.954  0.6002  0.1317  0.1206
  794TIP3    H1 2346   5.218   1.489   1.973  1.2195 -0.1335 -2.1091
  794TIP3    H2 2347   5.180   1.581   1.859 -3.1816  0.6331 -0.2614
  795TIP3   OH2 2348   3.627   3.395   4.467  0.3134 -0.4911  0.4198
  795TIP3    H1 2349   3.538   3.420   4.445  0.4527 -0.2327  0.1441
  795TIP3    H2 2350   3.617   3.320   4.527 -0.0739 -1.3212 -0.6513
  796TIP3   OH2 2351   1.165   4.860   4.386  0.2679  0.1441  0.6016
  796TIP3    H1 2352   1.108   4.833   4.458  0.8315 -0.1520  0.9448
  796TIP3    H2 2353   1.181   4.953   4.402  2.2182 -0.3900  2.1768
  797TIP3   OH2 2354   5.380   4.305   4.518 -0.0213  0.1455  0.4546
  797TIP3    H1 2355   5.420   4.316   4.432 -0.2941  0.2701  0.3425
  797TIP3    H2 2356   5.302   4.253   4.501 -1.7387  2.6597  0.1699
  798TIP3   OH2 2357   4.583   0.677   2.758  0.0476 -0.1416 -0.2188
  798TIP3    H1 2358   4.501   0.726   2.755  1.0839  1.7707  0.6193
  798TIP3    H2 2359   4.633   0.709   2.683  0.3997 -0.5875 -0.1788
  799TIP3   OH2 2360   1.978   6.186   5.079 -0.3308 -0.2940 -0.0286
  799TIP3    H1 2361   1.886   6.200   5.098 -0.3100  1.0546 -0.7890
  799TIP3    H2 2362   1.992   6.227   4.994  1.0611 -0.0322  0.2924
  800TIP3   OH2 2363   0.269   3.316   3.198  0.8286  0.3392  0.0567
  800TIP3    H1 2364   0.224   3.315   3.283 -2.2688  1.3763 -1.4207
  800TIP3    H2 2365   0.212   3.264   3.140  1.4215  1.8478 -1.9863
  801TIP3   OH2 2366   2.492   5.446   0.495  0.0916 -0.8841 -0.6406
  801TIP3    H1 2367   2.564   5.510   0.494  1.4739 -2.4043 -1.1606
  801TIP3    H2 2368   2.444   5.463   0.414 -1.5506  1.6051  0.7200
  802TIP3   OH2 2369   1.916   6.715   2.137  0.1639  0.0622  0.0016
  802TIP3    H1 2370   1.897   6.650   2.070  0.5223 -0.9587  0.8558
  802TIP3    H2 2371   1.868   6.684   2.214  0.0674  1.0005  0.3298
  803TIP3   OH2 2372   2.625   1.967   0.243  0.2874  0.2582 -0.2172
  803TIP3    H1 2373   2.554   2.028   0.222 -0.8369 -1.3265 -1.2463
  803TIP3    H2 2374   2.639   1.978   0.337 -0.5723  1.3502 -0.1919
  804TIP3   OH2 2375   2.248   2.989   2.739  0.1855 -0.4661  0.6162
  804TIP3    H1 2376   2.331   2.946   2.719 -0.0659 -0.6194 -0.1150
  804TIP3    H2 2377   2.221   2.950   2.822  0.7028 -0.6230  0.7132
  805TIP3   OH2 2378   2.067   2.657   5.781  0.3187  0.1394  0.1419
  805TIP3    H1 2379   2.114   2.688   5.704  1.2449  0.9903  1.0163
  805TIP3    H2 2380   2.040   2.568   5.758  1.1293  0.1417 -0.9134
  806TIP3   OH2 2381   6.331   5.279   3.961 -0.2606  0.4497 -0.2227
  806TIP3    H1 2382   6.375   5.268   3.877 -0.2086  1.9792 -0.4243
  806TIP3    H2 2383   6.249   5.231   3.952  1.1076 -2.0952  0.0208
  807TIP3   OH2 2384   1.924   2.712   4.864 -0.2357 -0.8328 -0.4111
  807TIP3    H1 2385   1.940   2.804   4.885  1.4043 -1.2922  0.5620
  807TIP3    H2 2386   1.862   2.714   4.792  0.3709  1.0547 -0.9391
  808TIP3   OH2 2387   6.860   4.287   4.253 -0.0193 -0.4195  0.3855
  808TIP3    H1 2388   6.896   4.201   4.276  0.9531 -0.0241  0.4178
  808TIP3    H2 2389   6.820   4.274   4.167 -0.1185 -0.9670  0.5109
  809TIP3   OH2 2390   1.343   5.348   2.124 -0.0214  0.3488 -0.1655
  809TIP3    H1 2391   1.353   5.373   2.032  0.4444  2.2839  0.3628
  809TIP3    H2 2392   1.248   5.347   2.138 -0.1429 -1.2358 -0.9667
  810TIP3   OH2 2393   3.647   1.242   4.159  0.1499 -0.5335  0.7578
  810TIP3    H1 2394   3.667   1.153   4.128 -1.1125 -0.3777 -0.6128
  810TIP3    H2 2395   3.578   1.229   4.224  0.5775 -0.6067  1.2061
  811TIP3   OH2 2396   1.200   3.610   3.886  0.4565 -1.0720  0.3301
  811TIP3    H1 2397   1.183   3.516   3.880 -3.2385 -0.5369  0.0203
  811TIP3    H2 2398   1.129   3.643   3.942 -1.0900  2.0241 -3.0495
  812TIP3   OH2 2399   5.943   0.636   5.056  0.1417 -0.0471 -0.6559
  812TIP3    H1 2400   6.001   0.578   5.008  1.3534  0.0368  0.6367
  812TIP3    H2 2401   5.862   0.638   5.005  0.9543 -0.8919 -2.0160
  813TIP3   OH2 2402   4.987   1.314   5.329  0.3613 -0.0296 -0.3073
  813TIP3    H1 2403   4.909   1.328   5.275  1.0147  0.9914 -1.0113
  813TIP3    H2 2404   4.952   1.303   5.417 -0.6089  0.0298 -0.6640
  814TIP3   OH2 2405   0.770   1.482   2.504 -0.1191 -0.1439 -0.4300
  814TIP3    H1 2406   0.706   1.524   2.562 -0.6154 -1.0454 -0.3173
  814TIP3    H2 2407   0.798   1.403   2.551 -1.3688 -1.5057 -1.8749
  815TIP3   OH2 2408   5.535   2.415   1.811  0.4636 -0.0254  0.4653
  815TIP3    H1 2409   5.548   2.509   1.799 -1.2518  0.3396  1.1518
  815TIP3    H2 2410   5.465   2.409   1.876  0.0446 -1.7754 -0.1103
  816TIP3   OH2 2411   6.132   6.537   5.186  0.0385 -0.1767 -0.5027
  816TIP3    H1 2412   6.147   6.628   5.161 -3.1087  0.0967 -1.8996
  816TIP3    H2 2413   6.103   6.494   5.106 -1.9312 -1.4963  0.8178
  817TIP3   OH2 2414   3.353   3.453   1.997  0.1627  0.1375  0.3473
  817TIP3    H1 2415   3.292   3.525   1.984 -0.2140  0.0805  1.6208
  817TIP3    H2 2416   3.430   3.476   1.945 -0.5401  0.7069 -0.4543
  818TIP3   OH2 2417   2.293   4.377   1.618 -0.2579  0.7922 -0.3940
  818TIP3    H1 2418   2.292   4.332   1.533 -0.5414 -2.9606  1.3859
  818TIP3    H2 2419   2.376   4.351   1.657 -0.3189  2.1243  0.6832
  819TIP3   OH2 2420   6.143   6.713   4.514  0.1194  0.7712  0.3913
  819TIP3    H1 2421   6.119   6.777   4.581  2.0208  1.1054  0.8100
  819TIP3    H2 2422   6.101   6.744   4.434 -0.7659  1.3252  1.0514
  820TIP3   OH2 2423   6.219   1.314   4.047 -0.5455 -0.1282  0.7605
  820TIP3    H1 2424   6.187   1.283   3.963 -1.2412 -2.0617  1.6886
  820TIP3    H2 2425   6.278   1.386   4.025 -1.3717 -0.0077 -1.3043
  821TIP3   OH2 2426   6.964   0.619   0.092  0.1453 -0.4171  0.3340
  821TIP3    H1 2427   6.951   0.542   0.036  0.2411  0.3406 -0.7655
  821TIP3    H2 2428   6.885   0.624   0.145 -1.0295  0.1768 -1.3990
  822TIP3   OH2 2429   4.214   5.573   1.159  0.5680  0.4738  0.8072
  822TIP3    H1 2430   4.119   5.584   1.167  0.0989 -2.5028  0.2768
  822TIP3    H2 2431   4.249   5.660   1.180 -2.3373  2.2866 -1.0273
  823TIP3   OH2 2432   0.936   6.120   1.254 -0.0148  0.4374 -0.3000
  823TIP3    H1 2433   0.897   6.079   1.331 -0.3308  0.6921 -0.3235
  823TIP3    H2 2434   0.974   6.047   1.205  0.3353  0.2934  0.1798
  824TIP3   OH2 2435   3.215   2.597   2.689  0.3001  0.1044  0.8932
  824TIP3    H1 2436   3.281   2.634   2.631 -0.5784  0.7752  0.2819
  824TIP3    H2 2437   3.183   2.673   2.740  1.2923 -0.5178  2.5230
  825TIP3   OH2 2438   6.845   4.732   3.791  0.0366  0.5146 -0.0189
  825TIP3    H1 2439   6.847   4.640   3.817 -0.7394  0.7046  0.7572
  825TIP3    H2 2440   6.753   4.758   3.798  0.2660  1.3932 -0.0456
  826TIP3   OH2 2441   6.108   2.444   1.604  0.7657 -0.4830  0.6357
  826TIP3    H1 2442   6.129   2.485   1.688 -0.4046 -1.1628  1.2876
  826TIP3    H2 2443   6.140   2.506   1.538  2.7973 -0.4951  1.5445
  827TIP3   OH2 2444   5.806   5.334   2.648 -0.4852 -0.6527 -0.1738
  827TIP3    H1 2445   5.760   5.389   2.584 -1.6591  0.0923  1.2379
  827TIP3    H2 2446   5.805   5.246   2.610 -1.4037 -0.2841 -1.0440
  828TIP3   OH2 2447   4.845   1.280   1.949 -0.4701  0.3716  0.2464
  828TIP3    H1 2448   4.816   1.372   1.948 -0.6153  0.3265 -0.1021
  828TIP3    H2 2449   4.888   1.268   1.864  0.2587  0.3334  0.6158
  829TIP3   OH2 2450   0.100   2.967   0.635  0.0430  0.4556  0.1546
  829TIP3    H1 2451   0.158   2.944   0.563  2.9463  2.2458  1.7333
  829TIP3    H2 2452   0.023   3.005   0.593  0.3664 -1.0845 -2.0020
  830TIP3   OH2 2453   4.620   1.164   4.216  0.4674 -0.1284  0.6641
  830TIP3    H1 2454   4.622   1.241   4.273 -1.5024  1.0300 -0.6865
  830TIP3    H2 2455   4.549   1.110   4.252 -0.3719  0.3166 -0.2561
  831TIP3   OH2 2456   3.532   5.305   1.059 -0.6053 -0.1363 -0.4036
  831TIP3    H1 2457   3.552   5.348   0.976 -2.4755  1.0472 -0.3033
  831TIP3    H2 2458   3.597   5.235   1.067  0.8351  0.9779 -1.8881
  832TIP3   OH2 2459   5.979   4.752   0.110  0.4366 -1.0049 -0.7054
  832TIP3    H1 2460   5.889   4.784   0.108  0.4578 -0.7790  0.7082
  832TIP3    H2 2461   6.027   4.813   0.054 -0.4660 -1.8358 -2.4547
  833TIP3   OH2 2462   2.048   5.634   4.658 -0.3343  0.1753 -0.4078
  833TIP3    H1 2463   2.006   5.708   4.615  1.0161  0.8681 -0.5909
  833TIP3    H2 2464   2.062   5.570   4.588  2.7028  1.6727 -1.3436
  834TIP3   OH2 2465   0.780   3.098   4.087  0.0378  0.0035  0.5505
  834TIP3    H1 2466   0.701   3.051   4.061 -1.6508  2.7790  0.2861
  834TIP3    H2 2467   0.751   3.155   4.159  2.0576  0.3310  1.1647
  835TIP3   OH2 2468   7.225   3.895   3.192  0.6880  0.3703  0.4500
  835TIP3    H1 2469   7.138   3.861   3.171  1.4920  0.2792 -3.5758
  835TIP3    H2 2470   7.222   3.987   3.165  1.9704  0.1657 -0.5058
  836TIP3   OH2 2471   3.521   0.339   5.532  0.2604  0.4359 -0.1905
  836TIP3    H1 2472   3.460   0.408   5.505 -2.2867 -0.8812  1.8372
  836TIP3    H2 2473   3.578   0.382   5.597 -1.3055  0.7199  1.0620
  837TIP3   OH2 2474   1.110   4.628   2.090  0.1481  0.9859  0.1590
  837TIP3    H1 2475   1.076   4.572   2.159 -0.8509  0.5882 -0.6258
  837TIP3    H2 2476   1.144   4.567   2.024 -1.0571  1.2537 -0.7576
  838TIP3   OH2 2477   0.764   1.869   2.073 -0.5202 -0.3805 -1.0426
  838TIP3    H1 2478   0.705   1.843   2.144  0.9477  1.4936  0.9986
  838TIP3    H2 2479   0.814   1.790   2.053 -1.1624 -1.0187 -0.2090
  839TIP3   OH2 2480   5.886   3.151   4.118  0.0775  0.6329  0.4419
  839TIP3    H1 2481   5.884   3.217   4.187  0.4290  1.2540 -0.1269
  839TIP3    H2 2482   5.965   3.100   4.136 -0.3774  0.1384  1.0799
  840TIP3   OH2 2483   5.214   3.166   3.836 -0.3163 -0.0330 -0.0776
  840TIP3    H1 2484   5.302   3.190   3.867 -0.3192  0.9913 -0.8040
  840TIP3    H2 2485   5.195   3.229   3.767 -2.1035  0.5001  0.8434
  841TIP3   OH2 2486   5.282   4.576   1.785 -0.2490  0.3859  0.3217
  841TIP3    H1 2487   5.210   4.553   1.843 -2.2454  0.9330 -1.7887
  841TIP3    H2 2488   5.329   4.645   1.831 -1.8063  0.8712  1.2646
  842TIP3   OH2 2489   4.452   3.829   2.872 -0.0395  0.0055  0.4541
  842TIP3    H1 2490   4.525   3.770   2.889  0.3287  0.2836 -0.1197
  842TIP3    H2 2491   4.375   3.772   2.867 -0.2142 -0.0816  3.1092
  843TIP3   OH2 2492   4.235   1.696   1.811  0.6646 -0.0323  0.1471
  843TIP3    H1 2493   4.258   1.613   1.851  1.1529  0.1585  0.2710
  843TIP3    H2 2494   4.268   1.689   1.721 -1.2209 -0.8105 -0.5346
  844TIP3   OH2 2495   1.274   4.894   5.641 -0.2907  0.2260 -0.3958
  844TIP3    H1 2496   1.305   4.984   5.644  0.2216  0.0483 -0.3448
  844TIP3    H2 2497   1.334   4.845   5.697 -1.1401  0.0202  0.3521
  845TIP3   OH2 2498   6.831   0.819   1.876 -0.3768 -0.0041  0.4439
  845TIP3    H1 2499   6.822   0.911   1.854  0.2582 -0.5685 -2.6976
  845TIP3    H2 2500   6.920   0.811   1.912  0.6573  0.2948 -1.8445
  846TIP3   OH2 2501   6.492   4.335   4.361 -0.0427 -0.5682 -0.1727
  846TIP3    H1 2502   6.514   4.405   4.422 -0.0478 -0.9853  0.3222
  846TIP3    H2 2503   6.405   4.356   4.330  0.5645  0.4836 -1.2563
  847TIP3   OH2 2504   5.601   0.344   5.866 -0.3306  0.0299  0.0247
  847TIP3    H1 2505   5.584   0.406   5.937 -1.0939  1.1091 -1.0619
  847TIP3    H2 2506   5.530   0.360   5.803  0.8324 -0.2505 -1.4111
  848TIP3   OH2 2507   0.403   4.752   2.343 -0.3140 -0.8070 -0.2963
  848TIP3    H1 2508   0.340   4.691   2.381  0.3922 -1.7995 -0.6828
  848TIP3    H2 2509   0.387   4.834   2.389 -1.7791 -1.0674 -0.2761
  849TIP3   OH2 2510   6.585   2.812   5.270  0.3729  0.1662 -0.9927
  849TIP3    H1 2511   6.614   2.891   5.224 -0.6298  1.6710  0.8316
  849TIP3    H2 2512   6.634   2.813   5.352 -0.7221 -0.2833 -0.3102
  850TIP3   OH2 2513   5.402   1.824   3.198 -0.0179 -0.2298 -0.0112
  850TIP3    H1 2514   5.475   1.771   3.167 -1.1140 -1.5541 -0.4588
  850TIP3    H2 2515   5.326   1.790   3.150 -1.5504 -1.2864  2.9065
  851TIP3   OH2 2516   4.293   0.110   4.657 -0.4377 -0.7288  0.1721
  851TIP3    H1 2517   4.342   0.028   4.648 -0.9461 -1.2510  1.7678
  851TIP3    H2 2518   4.353   0.170   4.701 -1.1486 -1.3590  2.0987
  852TIP3   OH2 2519   2.425   3.422   0.717 -0.2198  1.1170 -0.0947
  852TIP3    H1 2520   2.452   3.425   0.809  0.6129  1.8310 -0.3455
  852TIP3    H2 2521   2.330   3.428   0.719 -0.2912 -0.0311  0.7679
  853TIP3   OH2 2522   2.176   4.424   4.926  0.0868  0.0879  0.1728
  853TIP3    H1 2523   2.095   4.465   4.957 -1.2183 -2.4429  0.4386
  853TIP3    H2 2524   2.199   4.363   4.996  0.9882 -0.7856 -0.8528
  854TIP3   OH2 2525   3.477   4.097   3.260 -0.0115 -0.1330 -0.1285
  854TIP3    H1 2526   3.467   4.192   3.270 -0.2647  0.0739 -2.0629
  854TIP3    H2 2527   3.394   4.061   3.288 -0.1518  0.2685 -0.0197
  855TIP3   OH2 2528   0.940   0.088   5.389 -0.0251  0.4850  0.1965
  855TIP3    H1 2529   1.020   0.036   5.387 -0.1069  0.2829  1.3550
  855TIP3    H2 2530   0.944   0.142   5.310  0.9777  0.0769 -0.0446
  856TIP3   OH2 2531   2.253   1.321   0.220 -0.8396  0.3073 -0.2978
  856TIP3    H1 2532   2.208   1.365   0.148 -1.2723 -0.2063 -0.3562
  856TIP3    H2 2533   2.293   1.391   0.271 -2.5345  0.8980  0.3098
  857TIP3   OH2 2534   4.163   4.589   0.035 -0.0022 -0.5373 -0.3446
  857TIP3    H1 2535   4.258   4.593   0.046 -0.0269 -2.5421  1.1918
  857TIP3    H2 2536   4.150   4.581  -0.060  1.3898 -0.5106 -0.5556
  858TIP3   OH2 2537   5.075   4.070   1.221  0.0784  0.1742  0.4481
  858TIP3    H1 2538   5.115   4.157   1.222  1.1112 -0.2842  0.4772
  858TIP3    H2 2539   5.027   4.065   1.304  2.4582 -0.3592  1.8856
  859TIP3   OH2 2540   4.321   1.589   2.740  0.0069  0.0404 -0.2080
  859TIP3    H1 2541   4.320   1.634   2.655 -0.8914 -0.5606 -0.5331
  859TIP3    H2 2542   4.413   1.589   2.765  0.2215  0.6963 -0.9303
  860TIP3   OH2 2543   6.536   0.591   4.910  0.0974  0.4109  0.1826
  860TIP3    H1 2544   6.597   0.530   4.951  0.8403 -0.1619 -1.6629
  860TIP3    H2 2545   6.505   0.647   4.982  2.4638  0.4428  1.2495
  861TIP3   OH2 2546   3.681   5.372   0.553 -0.2029 -0.1430  0.6099
  861TIP3    H1 2547   3.768   5.379   0.593 -0.5672 -1.4065  1.6611
  861TIP3    H2 2548   3.654   5.463   0.540  1.1771  0.2733  0.4669
  862TIP3   OH2 2549   1.703   2.388   5.852 -0.1192 -0.0196  0.2274
  862TIP3    H1 2550   1.636   2.388   5.784 -0.0921 -1.7927  0.1508
  862TIP3    H2 2551   1.785   2.396   5.804 -0.2276  2.1272  0.3190
  863TIP3   OH2 2552   4.682   0.888   4.985 -0.1865  0.0106  0.2143
  863TIP3    H1 2553   4.703   0.947   5.057  2.0792 -0.7480  0.2369
  863TIP3    H2 2554   4.666   0.803   5.027 -2.3106  0.2845  0.0785
  864TIP3   OH2 2555   4.925   4.725   5.005  0.0004 -0.3101 -0.6319
  864TIP3    H1 2556   4.830   4.711   4.996  0.0751 -1.2078 -0.2254
  864TIP3    H2 2557   4.940   4.720   5.100  0.2059  1.6934 -0.5327
  865TIP3   OH2 2558   4.460   5.380   3.664 -0.0731 -0.2285  0.1837
  865TIP3    H1 2559   4.494   5.411   3.580 -1.0116  0.2507 -0.0353
  865TIP3    H2 2560   4.418   5.297   3.643 -1.3657  0.4564 -0.0853
  866TIP3   OH2 2561   6.991   4.588   5.415  0.4130  0.1311  1.0838
  866TIP3    H1 2562   7.005   4.518   5.351 -0.6589  1.0217 -0.1769
  866TIP3    H2 2563   7.062   4.651   5.397 -0.2036  0.6426  0.3637
  867TIP3   OH2 2564   5.751   0.105   2.513  0.1240  0.3365  0.2204
  867TIP3    H1 2565   5.684   0.048   2.549 -1.5249  2.6521  1.1173
  867TIP3    H2 2566   5.731   0.111   2.420  1.4066 -1.8292 -0.2625
  868TIP3   OH2 2567   3.295   4.469   5.134  0.2887 -0.0271  0.1948
  868TIP3    H1 2568   3.322   4.378   5.143  0.3796 -0.3649 -2.5137
  868TIP3    H2 2569   3.243   4.471   5.053  0.3709  2.3475  0.1135
  869TIP3   OH2 2570   0.841   4.448   2.990 -0.0496  0.0463  0.7101
  869TIP3    H1 2571   0.889   4.524   3.023 -1.4230  1.6369 -0.7733
  869TIP3    H2 2572   0.885   4.425   2.909 -0.7242  0.4273  0.2273
  870TIP3   OH2 2573   0.988   1.342   1.817  0.0724 -0.1020  0.1432
  870TIP3    H1 2574   1.082   1.330   1.804  0.0940  1.4702 -1.5105
  870TIP3    H2 2575   0.949   1.261   1.786  0.8015 -0.2346 -0.4701
  871TIP3   OH2 2576   3.334   4.636   1.803  0.0616  0.4978 -0.4981
  871TIP3    H1 2577   3.359   4.562   1.749 -0.4528  0.1092 -0.2155
  871TIP3    H2 2578   3.249   4.664   1.768 -0.8718 -0.5234  0.8323
  872TIP3   OH2 2579   3.424   5.111   5.880 -0.0999 -0.5674  0.0894
  872TIP3    H1 2580   3.385   5.032   5.844 -1.2579 -0.2921  0.7006
  872TIP3    H2 2581   3.517   5.104   5.856 -0.0043 -2.4906  0.7677
  873TIP3   OH2 2582   0.240   0.105   0.687 -0.2815  0.1739 -0.0537
  873TIP3    H1 2583   0.309   0.172   0.677 -0.6524  0.7151  0.8529
  873TIP3    H2 2584   0.282   0.024   0.660  0.2973  0.7174 -0.8302
  874TIP3   OH2 2585   6.737   1.277   0.813 -0.5536 -0.4134 -0.2060
  874TIP3    H1 2586   6.675   1.286   0.741 -0.8729  1.0800  0.2332
  874TIP3    H2 2587   6.806   1.220   0.778 -2.0509 -1.9532 -0.7513
  875TIP3   OH2 2588   0.363   3.024   0.103 -0.5378  0.2024 -0.1850
  875TIP3    H1 2589   0.452   3.055   0.119 -0.6778  0.3103  0.4376
  875TIP3    H2 2590   0.365   2.986   0.015  1.1295 -3.3823  1.2214
  876TIP3   OH2 2591   7.064   2.771   2.488 -0.6287  0.3448  0.4007
  876TIP3    H1 2592   7.095   2.696   2.540 -2.5703 -0.8228 -0.0240
  876TIP3    H2 2593   6.998   2.813   2.543 -1.5655  0.0391 -0.4567
  877TIP3   OH2 2594   1.828   4.329   4.471  0.1723  0.0235 -0.5365
  877TIP3    H1 2595   1.842   4.339   4.565  1.2302 -0.5036 -0.6196
  877TIP3    H2 2596   1.912   4.353   4.431 -0.3258  0.4332 -1.3629
  878TIP3   OH2 2597   5.377   2.732   1.871  0.6980  0.0843 -0.1007
  878TIP3    H1 2598   5.296   2.773   1.841  0.5063 -0.3125 -0.1351
  878TIP3    H2 2599   5.401   2.780   1.950  0.5686  0.3677 -0.2325
  879TIP3   OH2 2600   2.798   6.346   5.747  0.3952 -0.2854  0.8986
  879TIP3    H1 2601   2.728   6.286   5.722  2.0818 -2.0958  0.2989
  879TIP3    H2 2602   2.863   6.339   5.678  1.1188  1.5027  1.3285
  880TIP3   OH2 2603   0.775   5.492   5.325 -0.1713  0.1454  0.0518
  880TIP3    H1 2604   0.811   5.409   5.357 -0.0991  0.0061 -0.3773
  880TIP3    H2 2605   0.721   5.467   5.250  1.1741  0.6467 -1.1129
  881TIP3   OH2 2606   1.355   6.032   5.227 -0.1427 -0.1364  0.0490
  881TIP3    H1 2607   1.435   6.036   5.175 -1.2241 -2.4077 -2.0069
  881TIP3    H2 2608   1.375   5.971   5.298  0.3032  0.3159  0.3224
  882TIP3   OH2 2609   0.161   5.964   4.754  0.3153 -0.1809  0.4636
  882TIP3    H1 2610   0.187   5.956   4.846 -0.6583 -0.7390  0.6997
  882TIP3    H2 2611   0.215   5.900   4.708  0.9483  0.2412  0.6105
  883TIP3   OH2 2612   2.962   4.469   5.626  0.1189 -0.3383 -0.6150
  883TIP3    H1 2613   3.042   4.488   5.576 -0.3298 -0.3029 -1.3208
  883TIP3    H2 2614   2.901   4.433   5.562 -1.9287  3.3960 -1.0649
  884TIP3   OH2 2615   5.461   3.599   5.865 -0.1305 -0.1004 -0.6828
  884TIP3    H1 2616   5.406   3.537   5.817 -1.7784 -1.0182  2.1367
  884TIP3    H2 2617   5.442   3.684   5.826 -1.6466 -0.7573 -1.4610
  885TIP3   OH2 2618   2.048   6.182   1.520  0.0933 -0.3839 -0.0507
  885TIP3    H1 2619   2.018   6.254   1.465  1.5954  0.7084  0.5006
  885TIP3    H2 2620   1.974   6.166   1.579 -0.1382  0.9675  0.0628
  886TIP3   OH2 2621   7.009   4.037   1.737 -0.5017 -0.0372  0.4250
  886TIP3    H1 2622   6.994   4.106   1.673 -0.7721 -0.0994  0.4190
  886TIP3    H2 2623   7.038   4.083   1.816 -2.0505  0.2170  0.8720
  887TIP3   OH2 2624   4.333   5.079   4.000 -0.1291 -0.2658 -0.1186
  887TIP3    H1 2625   4.291   5.031   4.071  0.7073 -0.4497  0.2714
  887TIP3    H2 2626   4.415   5.032   3.985 -0.0677  0.0683 -0.8655
  888TIP3   OH2 2627   4.874   3.635   2.156 -0.0967 -0.0998 -0.7388
  888TIP3    H1 2628   4.902   3.544   2.150 -0.2911 -0.1061 -1.7314
  888TIP3    H2 2629   4.779   3.630   2.169  0.1099 -0.0522  1.1092
  889TIP3   OH2 2630   1.826   4.980   0.562 -0.4848 -0.0658 -0.0254
  889TIP3    H1 2631   1.894   4.931   0.609  0.2434 -0.4161 -1.4119
  889TIP3    H2 2632   1.824   4.941   0.475 -0.9046  1.4364 -0.7090
  890TIP3   OH2 2633   0.292   2.162   4.444  0.2329 -0.3532 -0.0642
  890TIP3    H1 2634   0.223   2.110   4.405 -1.1059  1.0007  0.4032
  890TIP3    H2 2635   0.255   2.193   4.527  1.1098  1.0029 -0.1416
  891TIP3   OH2 2636   5.284   2.786   4.074 -0.2343  0.6988  0.1881
  891TIP3    H1 2637   5.283   2.873   4.113 -0.0953  1.9052 -2.3581
  891TIP3    H2 2638   5.326   2.798   3.989  1.3626 -2.1747  0.4494
  892TIP3   OH2 2639   6.022   6.776   1.316  0.2068  0.1151  0.2274
  892TIP3    H1 2640   5.965   6.725   1.258  0.5686 -0.9454  0.7867
  892TIP3    H2 2641   5.994   6.751   1.404 -0.1271  1.4856  0.5247
  893TIP3   OH2 2642   0.104   5.513   3.155  0.0600  0.3026 -0.3744
  893TIP3    H1 2643   0.172   5.503   3.222 -1.2724 -1.2381  0.8272
  893TIP3    H2 2644   0.141   5.471   3.077  1.1905  1.1210 -0.2991
  894TIP3   OH2 2645   5.324   5.408   2.818  0.1448  0.8822  0.0890
  894TIP3    H1 2646   5.404   5.424   2.869 -0.4574  1.3368  0.9157
  894TIP3    H2 2647   5.255   5.452   2.867 -0.6633  0.2896 -0.4873
  895TIP3   OH2 2648   6.675   0.993   4.351  0.1194  0.6287 -0.1344
  895TIP3    H1 2649   6.688   0.963   4.441  1.5480  1.6077  0.0144
  895TIP3    H2 2650   6.614   1.067   4.359 -1.3274 -0.4940 -0.2266
  896TIP3   OH2 2651   3.084   2.464   4.622 -0.4783  0.0350  0.1024
  896TIP3    H1 2652   3.084   2.476   4.527 -1.0425 -0.3684  0.0503
  896TIP3    H2 2653   3.177   2.467   4.646 -0.2288 -1.1620 -0.6352
  897TIP3   OH2 2654   0.082   1.886   4.107  0.1554 -0.0003 -0.4918
  897TIP3    H1 2655   0.055   1.970   4.071 -2.2016 -0.2973  0.3611
  897TIP3    H2 2656   0.072   1.825   4.034  1.0611  0.3209 -0.8880
  898TIP3   OH2 2657   2.755   1.229   4.055 -0.1076  0.0877 -0.0513
  898TIP3    H1 2658   2.848   1.215   4.039 -0.5236 -1.0800 -1.7757
  898TIP3    H2 2659   2.747   1.321   4.078  1.2293  0.7978 -2.1923
  899TIP3   OH2 2660   6.481   1.770   5.026 -0.2871 -0.7190 -0.2041
  899TIP3    H1 2661   6.404   1.810   4.986 -1.6579  2.1615  4.5186
  899TIP3    H2 2662   6.543   1.842   5.036 -0.6019 -0.7654  3.6773
  900TIP3   OH2 2663   3.040   0.534   1.982  0.1473 -0.3874  0.2822
  900TIP3    H1 2664   3.070   0.602   1.922  0.5334 -1.3467 -0.6433
  900TIP3    H2 2665   2.984   0.580   2.044 -0.3898  0.6135 -0.9049
  901TIP3   OH2 2666   2.972   5.987   1.572 -0.0875  0.7192  0.7860
  901TIP3    H1 2667   2.931   5.902   1.590 -0.7396  0.1359 -2.6728
  901TIP3    H2 2668   3.066   5.968   1.568 -0.1860  0.2559  0.6122
  902TIP3   OH2 2669   5.237   4.439   2.645 -0.0227 -0.2052 -0.7798
  902TIP3    H1 2670   5.305   4.375   2.626  0.4007  0.5005 -1.7834
  902TIP3    H2 2671   5.176   4.432   2.572 -0.5468 -0.2026 -0.3498
  903TIP3   OH2 2672   1.800   0.830   1.409 -0.4074  0.3701 -0.3730
  903TIP3    H1 2673   1.745   0.901   1.442  1.4205  0.6730  2.3707
  903TIP3    H2 2674   1.883   0.841   1.455  0.8115 -2.0590 -1.7954
  904TIP3   OH2 2675   4.808   4.833   1.842 -0.1167 -0.5856  0.2711
  904TIP3    H1 2676   4.839   4.910   1.795 -0.3603 -0.1722  0.7799
  904TIP3    H2 2677   4.884   4.802   1.890  0.8185 -2.4159 -2.1766
  905TIP3   OH2 2678   6.211   5.596   2.115 -0.3000 -0.2759  0.3508
  905TIP3    H1 2679   6.133   5.574   2.066 -0.9196  0.8142  0.8115
  905TIP3    H2 2680   6.284   5.579   2.055 -0.9881  0.2592 -0.6421
  906TIP3   OH2 2681   1.526   4.144   1.467 -0.1194 -0.4645  0.6170
  906TIP3    H1 2682   1.566   4.071   1.515 -2.4592 -0.9960  1.9104
  906TIP3    H2 2683   1.443   4.108   1.435 -0.2640  0.9778 -0.7267
  907TIP3   OH2 2684   5.136   0.478   2.366 -0.0065  0.0984  0.0786
  907TIP3    H1 2685   5.119   0.567   2.400  0.5172  0.0134  0.5865
  907TIP3    H2 2686   5.231   0.471   2.367 -0.0547 -0.5273  0.1780
  908TIP3   OH2 2687   1.075   4.562   2.514 -0.4470 -0.2152 -0.3884
  908TIP3    H1 2688   1.155   4.510   2.503  0.4179  1.2916 -1.6073
  908TIP3    H2 2689   1.098   4.629   2.578 -1.0874 -0.4027  0.0528
  909TIP3   OH2 2690   1.498   4.160   1.133  0.1891  0.8304  0.0637
  909TIP3    H1 2691   1.446   4.101   1.078  0.4853  0.5352  0.1000
  909TIP3    H2 2692   1.434   4.197   1.195 -0.1734  1.2851 -0.5749
  910TIP3   OH2 2693   5.306   4.240   4.131  0.1947 -0.0504 -0.3728
  910TIP3    H1 2694   5.287   4.146   4.136 -0.8323  0.2040  0.8081
  910TIP3    H2 2695   5.306   4.258   4.037 -0.5349 -1.0566 -0.5908
  911TIP3   OH2 2696   3.142   3.998   2.358 -0.0850 -0.0981 -0.1142
  911TIP3    H1 2697   3.205   3.969   2.292 -0.1841  0.6873 -0.5522
  911TIP3    H2 2698   3.146   3.929   2.425 -0.7247 -1.4241 -1.3837
  912TIP3   OH2 2699   2.742   6.291   5.063 -0.4197  0.1557  0.5902
  912TIP3    H1 2700   2.813   6.263   5.004 -1.9461  0.8319 -1.7130
  912TIP3    H2 2701   2.771   6.375   5.097  1.0968 -0.8691  1.9849
  913TIP3   OH2 2702   1.798   1.329   1.715  0.3387 -0.8214  0.0905
  913TIP3    H1 2703   1.713   1.323   1.672 -0.8026 -0.5238  2.2136
  913TIP3    H2 2704   1.835   1.412   1.684 -0.9025 -0.1106  0.4396
  914TIP3   OH2 2705   3.020   4.151   5.353 -0.5839  0.0667  0.3847
  914TIP3    H1 2706   2.932   4.175   5.322 -0.6122  0.1869  0.5567
  914TIP3    H2 2707   3.050   4.085   5.291  0.2287  1.8291 -1.1674
  915TIP3   OH2 2708   3.916   2.898   3.041 -0.5301  0.1153  0.2194
  915TIP3    H1 2709   3.829   2.871   3.014 -0.5564  0.4051  0.0055
  915TIP3    H2 2710   3.902   2.977   3.093 -0.4729 -0.4066  1.0381
  916TIP3   OH2 2711   3.360   1.437   4.988 -0.6298  0.0696 -0.0472
  916TIP3    H1 2712   3.333   1.364   5.043 -0.3346  0.5909  0.8057
  916TIP3    H2 2713   3.377   1.509   5.049  0.9768  0.2786 -0.7033
  917TIP3   OH2 2714   2.283   5.830   1.784 -1.0031 -0.0715 -0.4923
  917TIP3    H1 2715   2.292   5.826   1.689  0.4118  1.8922 -0.5032
  917TIP3    H2 2716   2.202   5.783   1.802 -2.1385  0.8012 -2.8295
  918TIP3   OH2 2717   1.414   3.561   2.556  0.2206  0.5606 -0.1157
  918TIP3    H1 2718   1.344   3.530   2.614 -0.8093  1.4353 -0.8534
  918TIP3    H2 2719   1.424   3.653   2.578  0.1246  0.7956 -1.0075
  919TIP3   OH2 2720   5.964   5.774   2.153  0.0201  0.0828  0.7412
  919TIP3    H1 2721   6.019   5.727   2.216  1.0658 -0.2068 -0.3412
  919TIP3    H2 2722   5.915   5.705   2.108 -0.7596  0.2900  1.2591
  920TIP3   OH2 2723   6.471   0.332   5.100 -0.0820 -0.0184  0.0925
  920TIP3    H1 2724   6.406   0.343   5.169 -0.2551  2.0319 -0.3239
  920TIP3    H2 2725   6.424   0.349   5.018  1.0387  2.2952 -0.1733
  921TIP3   OH2 2726   2.031   3.735   0.225  0.1414  0.0385 -0.4912
  921TIP3    H1 2727   2.072   3.651   0.244 -0.1444  0.3171  1.6122
  921TIP3    H2 2728   1.978   3.754   0.303 -0.5349  1.7293 -1.3041
  922TIP3   OH2 2729   0.725   1.381   3.416  0.0120 -0.0134 -0.0722
  922TIP3    H1 2730   0.821   1.386   3.422 -0.0625 -0.4440  1.8062
  922TIP3    H2 2731   0.694   1.462   3.454 -0.4049 -0.8992  1.5499
  923TIP3   OH2 2732   4.531   3.146   4.984  0.4600 -0.3713  0.0776
  923TIP3    H1 2733   4.589   3.087   4.935 -0.1638 -0.4722 -0.5617
  923TIP3    H2 2734   4.480   3.191   4.916  0.3202  0.2683  0.5972
  924TIP3   OH2 2735   0.868   4.419   5.461  0.4440  0.2289  0.2926
  924TIP3    H1 2736   0.824   4.423   5.546  1.2641  1.6250  0.6953
  924TIP3    H2 2737   0.934   4.488   5.466  1.9352 -1.0631 -0.6988
  925TIP3   OH2 2738   0.678   5.017   3.302 -0.0269  0.0015 -0.4536
  925TIP3    H1 2739   0.631   4.934   3.294  0.3647 -0.1426 -1.3636
  925TIP3    H2 2740   0.678   5.036   3.396 -1.8843 -0.0029 -0.4142
  926TIP3   OH2 2741   2.516   5.523   4.109 -0.2725  0.7025  0.3093
  926TIP3    H1 2742   2.467   5.464   4.166 -0.8100  0.0353 -0.8310
  926TIP3    H2 2743   2.469   5.523   4.026  2.3772 -1.0856 -1.3486
  927TIP3   OH2 2744   1.715   5.598   2.405  0.0400  0.0619  0.2529
  927TIP3    H1 2745   1.793   5.580   2.353  0.6838  1.2618  0.7549
  927TIP3    H2 2746   1.642   5.567   2.351  0.8649 -1.2999 -0.1209
  928TIP3   OH2 2747   5.642   6.290   2.188  0.1364  0.1318 -0.0282
  928TIP3    H1 2748   5.568   6.319   2.241  0.5260 -0.6619  0.9743
  928TIP3    H2 2749   5.683   6.372   2.158  1.1958  0.7234  2.7296
  929TIP3   OH2 2750   6.195   1.209   5.787 -0.7045  0.1825 -0.2736
  929TIP3    H1 2751   6.105   1.232   5.762 -1.5889 -1.8664  0.7748
  929TIP3    H2 2752   6.216   1.266   5.860 -1.2234  0.5591 -0.4170
  930TIP3   OH2 2753   2.447   6.523   3.245 -0.2969  0.6409  0.4987
  930TIP3    H1 2754   2.533   6.527   3.286  1.1231  0.6229 -2.2600
  930TIP3    H2 2755   2.452   6.448   3.185 -1.8991  1.2282 -0.4393
  931TIP3   OH2 2756   6.940   0.668   4.573  0.2019  0.8129 -0.4041
  931TIP3    H1 2757   6.951   0.724   4.650  1.4942  1.6095 -1.1415
  931TIP3    H2 2758   6.985   0.587   4.596  0.1918  0.8770 -0.1510
  932TIP3   OH2 2759   0.618   3.008   3.519  0.1237  0.0582  0.3755
  932TIP3    H1 2760   0.655   2.929   3.478  1.5034  0.0132  1.6131
  932TIP3    H2 2761   0.686   3.038   3.579  0.5447  3.4640 -1.5560
  933TIP3   OH2 2762   6.203   2.424   4.006  0.5059 -0.3963 -0.0447
  933TIP3    H1 2763   6.173   2.357   3.944  1.2036 -0.3133 -0.4917
  933TIP3    H2 2764   6.293   2.442   3.978 -0.1983  1.9579 -0.9782
  934TIP3   OH2 2765   0.977   3.059   1.940  0.1218  0.2100  0.5542
  934TIP3    H1 2766   0.911   2.992   1.918 -0.2299  0.6435  0.2760
  934TIP3    H2 2767   1.017   3.027   2.021 -1.5241  0.7134  1.6134
  935TIP3   OH2 2768   4.274   2.961   2.923  0.4379  0.3311 -0.2168
  935TIP3    H1 2769   4.258   2.871   2.897 -0.0359  0.4633 -0.3998
  935TIP3    H2 2770   4.348   2.990   2.870  0.4044  0.1424 -0.3644
  936TIP3   OH2 2771   4.272   5.079   0.500  0.1248 -0.2024  0.5840
  936TIP3    H1 2772   4.362   5.085   0.534 -0.0935  0.0380  1.1222
  936TIP3    H2 2773   4.219   5.126   0.564 -0.6483 -1.9300  1.2588
  937TIP3   OH2 2774   1.237   6.096   3.260  0.0196  0.3562 -0.3997
  937TIP3    H1 2775   1.210   6.108   3.169 -2.0206 -0.8845 -0.0272
  937TIP3    H2 2776   1.165   6.131   3.312  0.1971 -0.8284  0.7086
  938TIP3   OH2 2777   2.233   3.082   2.468 -0.0657  0.5049  0.6090
  938TIP3    H1 2778   2.252   3.068   2.561 -1.9175  0.7766  1.0534
  938TIP3    H2 2779   2.271   3.167   2.448 -0.0800  0.6628  1.2418
  939TIP3   OH2 2780   2.636   4.877   0.646  0.2275 -0.5867 -0.4422
  939TIP3    H1 2781   2.589   4.946   0.599 -0.2567 -1.7368 -1.7143
  939TIP3    H2 2782   2.597   4.877   0.733  0.6021  1.0690 -0.2245
  940TIP3   OH2 2783   5.124   1.133   4.540 -0.3543  0.6281 -0.1285
  940TIP3    H1 2784   5.189   1.144   4.610 -1.8043 -0.7128  1.4933
  940TIP3    H2 2785   5.096   1.222   4.520 -1.0357  0.9864  2.1396
  941TIP3   OH2 2786   3.034   0.690   1.361 -0.1253 -0.4698  0.2570
  941TIP3    H1 2787   2.940   0.694   1.379  0.0613  1.8037  1.1294
  941TIP3    H2 2788   3.068   0.628   1.425 -1.1034 -1.8827 -0.5584
  942TIP3   OH2 2789   1.180   2.838   0.651 -0.1098 -0.5780 -0.2608
  942TIP3    H1 2790   1.169   2.896   0.576  1.2530  0.1832  0.0929
  942TIP3    H2 2791   1.160   2.751   0.616  0.1873 -0.1977 -1.4340
  943TIP3   OH2 2792   4.851   1.219   4.720 -0.6530  0.0495  0.2336
  943TIP3    H1 2793   4.799   1.139   4.712 -1.4777  0.6852 -1.2525
  943TIP3    H2 2794   4.919   1.198   4.785 -1.8653 -1.2810  1.1197
  944TIP3   OH2 2795   4.274   1.456   4.061 -0.2064  0.1103  0.9266
  944TIP3    H1 2796   4.330   1.526   4.028  1.1267 -1.8499 -1.2735
  944TIP3    H2 2797   4.197   1.458   4.005 -0.2548 -0.0667  0.9846
  945TIP3   OH2 2798   3.442   6.042   2.197  0.1247  0.3233 -0.4693
  945TIP3    H1 2799   3.413   6.015   2.284 -1.1942  1.2547 -0.5895
  945TIP3    H2 2800   3.478   6.129   2.209  0.0187  0.4198 -0.8322
  946TIP3   OH2 2801   5.851   6.296   5.214 -0.2695  0.0930 -0.1875
  946TIP3    H1 2802   5.903   6.293   5.294 -1.0236  0.9023  0.3538
  946TIP3    H2 2803   5.816   6.208   5.205 -0.4329  0.0737  0.5539
  947TIP3   OH2 2804   6.949   1.824   0.049 -0.3498 -0.0254  0.5943
  947TIP3    H1 2805   6.981   1.896  -0.006 -2.6837 -0.0769 -0.9691
  947TIP3    H2 2806   6.882   1.863   0.104 -0.7337 -0.7495  0.6548
  948TIP3   OH2 2807   5.806   4.363   2.415 -0.0334 -0.0744  0.0041
  948TIP3    H1 2808   5.745   4.300   2.452  1.6951 -1.2803  0.9412
  948TIP3    H2 2809   5.873   4.310   2.373  1.5497  1.0976  0.9307
  949TIP3   OH2 2810   1.020   5.798   5.747  0.2672 -0.2424 -0.0314
  949TIP3    H1 2811   1.020   5.748   5.829  1.8941 -2.6665 -1.3880
  949TIP3    H2 2812   1.051   5.885   5.773 -0.8958 -0.3813  2.1398
  950TIP3   OH2 2813   0.819   5.190   2.153 -0.5743 -0.5283  0.6523
  950TIP3    H1 2814   0.883   5.152   2.213  0.1944 -2.2434 -1.1214
  950TIP3    H2 2815   0.736   5.184   2.200  0.2993  0.1978  2.3551
  951TIP3   OH2 2816   3.293   6.531   5.260  0.1215 -0.2597 -0.5469
  951TIP3    H1 2817   3.366   6.593   5.251 -0.6782  0.7690 -0.2117
  951TIP3    H2 2818   3.223   6.570   5.208 -1.0582  0.2099  1.3019
  952TIP3   OH2 2819   3.356   4.160   4.711 -0.5067 -0.4593 -0.2702
  952TIP3    H1 2820   3.265   4.159   4.740 -0.5798 -0.3532 -0.4937
  952TIP3    H2 2821   3.352   4.145   4.617 -0.5066  2.4234 -0.8309
  953TIP3   OH2 2822   3.895   4.726   4.736  0.0966 -0.3525 -0.0173
  953TIP3    H1 2823   3.857   4.699   4.652  1.0363 -0.7196 -0.3373
  953TIP3    H2 2824   3.922   4.644   4.777  0.5446 -0.0928  0.2063
  954TIP3   OH2 2825   5.047   1.455   0.026 -0.4848 -0.5647 -0.3411
  954TIP3    H1 2826   4.969   1.508   0.044  2.2091  2.5527  3.9995
  954TIP3    H2 2827   5.095   1.505  -0.041  0.5295  0.9701  1.4376
  955TIP3   OH2 2828   6.703   0.289   2.579  0.6471 -0.1874  0.3986
  955TIP3    H1 2829   6.713   0.219   2.515 -0.4189  0.1715 -0.1803
  955TIP3    H2 2830   6.706   0.244   2.664  0.7007 -0.8401  0.0574
  956TIP3   OH2 2831   0.372   3.342   4.153 -0.2682  0.5402 -0.2777
  956TIP3    H1 2832   0.434   3.415   4.152 -0.3176  0.5879 -1.7426
  956TIP3    H2 2833   0.398   3.291   4.229  0.5422  1.4293  0.0733
  957TIP3   OH2 2834   5.558   1.971   2.307  0.4687 -0.1984  0.2691
  957TIP3    H1 2835   5.511   2.052   2.326  0.8889  0.1666 -0.2161
  957TIP3    H2 2836   5.524   1.943   2.222  1.5192  0.3753 -0.3563
  958TIP3   OH2 2837   6.075   0.103   4.233 -0.5645 -0.1400  0.3357
  958TIP3    H1 2838   6.168   0.115   4.216 -0.7771  0.8762 -0.1842
  958TIP3    H2 2839   6.037   0.082   4.148 -0.9548  0.4585  0.3540
  959TIP3   OH2 2840   0.157   0.675   0.261  0.0451  0.1193 -0.2786
  959TIP3    H1 2841   0.062   0.663   0.260  0.0543 -0.5749  1.7077
  959TIP3    H2 2842   0.177   0.716   0.177 -2.0331  0.5212 -0.6377
  960TIP3   OH2 2843   5.167   4.101   4.733 -0.1470  0.8289 -0.1873
  960TIP3    H1 2844   5.142   4.117   4.641  1.7139 -0.8457 -1.0550
  960TIP3    H2 2845   5.244   4.045   4.727  0.4062  1.2165  2.4349
  961TIP3   OH2 2846   2.354   6.416   1.527  0.1562  0.0651 -0.1148
  961TIP3    H1 2847   2.330   6.324   1.517  1.9840 -0.5007  0.2383
  961TIP3    H2 2848   2.446   6.413   1.554  0.0407  1.9821  0.6117
  962TIP3   OH2 2849   1.327   6.691   0.559  0.3751 -0.0299  0.2610
  962TIP3    H1 2850   1.280   6.644   0.489 -1.8594  1.1814  0.8504
  962TIP3    H2 2851   1.258   6.723   0.616  2.1109 -0.5270  2.7958
  963TIP3   OH2 2852   7.049   5.034   2.700 -0.0118  0.4010  0.1191
  963TIP3    H1 2853   6.962   5.035   2.740 -0.2405 -0.2206 -0.3516
  963TIP3    H2 2854   7.104   5.083   2.762 -0.1910 -1.1443  1.5945
  964TIP3   OH2 2855   3.369   5.383   3.020 -0.1376  0.0299  0.0665
  964TIP3    H1 2856   3.326   5.467   3.036 -0.8044 -0.4064  0.6262
  964TIP3    H2 2857   3.426   5.399   2.945  0.9960  1.4308  1.1694
  965TIP3   OH2 2858   5.765   0.735   4.055 -0.0885  0.4670 -0.4766
  965TIP3    H1 2859   5.780   0.711   4.146  1.8172  0.0945 -0.8567
  965TIP3    H2 2860   5.816   0.673   4.004 -2.5798 -0.5215 -1.9467
  966TIP3   OH2 2861   5.519   5.374   0.958 -0.5782  0.3856 -0.1680
  966TIP3    H1 2862   5.491   5.328   0.879 -0.2444  0.2425 -0.2046
  966TIP3    H2 2863   5.554   5.457   0.927  2.1524 -0.7820 -0.4714
  967TIP3   OH2 2864   5.675   4.301   5.209  0.4043 -0.0629  0.1979
  967TIP3    H1 2865   5.753   4.262   5.248  1.7835  2.3214  0.0269
  967TIP3    H2 2866   5.672   4.266   5.120  0.9668 -0.5633  0.3732
  968TIP3   OH2 2867   3.473   2.474   5.314 -0.0537  0.6110 -0.0144
  968TIP3    H1 2868   3.443   2.445   5.400 -0.7744 -0.0881 -0.4826
  968TIP3    H2 2869   3.463   2.396   5.258 -0.6212  1.3426 -0.9710
  969TIP3   OH2 2870   0.654   3.689   5.316  0.2219  0.3395  0.1775
  969TIP3    H1 2871   0.668   3.675   5.409 -0.3133  3.0668  0.7755
  969TIP3    H2 2872   0.736   3.727   5.285 -0.1839  1.0519 -0.0454
  970TIP3   OH2 2873   1.034   3.281   1.758 -0.1564 -0.0316  0.2745
  970TIP3    H1 2874   1.038   3.214   1.826  1.2369  1.0962  1.3429
  970TIP3    H2 2875   1.065   3.236   1.679 -2.4470 -1.5520  0.1316
  971TIP3   OH2 2876   5.961   2.742   5.838  0.3669 -0.3915  0.3673
  971TIP3    H1 2877   5.872   2.711   5.852 -0.2961  0.9438 -0.6146
  971TIP3    H2 2878   6.014   2.694   5.901 -1.1414 -0.7543  1.4004
  972TIP3   OH2 2879   5.655   0.298   2.864  0.3420  0.0038 -0.1449
  972TIP3    H1 2880   5.690   0.241   2.933  0.4982 -0.3761 -0.5385
  972TIP3    H2 2881   5.725   0.362   2.849  0.0401  0.5140  0.5249
  973TIP3   OH2 2882   6.872   4.082   3.473  0.2485 -0.0543 -0.2162
  973TIP3    H1 2883   6.889   4.129   3.555  1.1398  0.9591 -0.9624
  973TIP3    H2 2884   6.799   4.129   3.433 -0.4468 -0.7861  0.1586
  974TIP3   OH2 2885   5.433   5.945   1.636  0.1595 -0.3023 -0.1096
  974TIP3    H1 2886   5.428   6.013   1.569  0.9366 -0.5882 -0.4805
  974TIP3    H2 2887   5.525   5.946   1.664 -0.4747  1.0148  2.2436
  975TIP3   OH2 2888   6.621   1.913   0.596 -0.3623 -0.0243 -0.1420
  975TIP3    H1 2889   6.712   1.898   0.620 -0.4236 -0.5892 -0.2454
  975TIP3    H2 2890   6.597   1.836   0.543 -0.6459  0.5096 -0.8166
  976TIP3   OH2 2891   5.785   3.924   5.262  0.0614 -0.1388  0.2284
  976TIP3    H1 2892   5.823   3.911   5.175 -0.3148  0.1066  0.0255
  976TIP3    H2 2893   5.695   3.895   5.254 -0.2213  0.6833  0.3054
  977TIP3   OH2 2894   6.270   1.534   5.197 -0.3093 -0.0619 -0.1769
  977TIP3    H1 2895   6.262   1.439   5.204  1.0414 -0.2156 -0.3700
  977TIP3    H2 2896   6.185   1.564   5.165 -0.2589 -1.3782 -1.6225
  978TIP3   OH2 2897   5.465   2.994   0.264  0.0394 -0.5009 -0.1131
  978TIP3    H1 2898   5.503   3.080   0.250 -3.0638  0.6099 -3.1797
  978TIP3    H2 2899   5.504   2.938   0.197 -0.3528 -0.5732 -0.2874
  979TIP3   OH2 2900   3.144   0.320   5.541  0.1613 -0.3243  0.3723
  979TIP3    H1 2901   3.152   0.225   5.548 -0.3294 -0.4341 -0.4779
  979TIP3    H2 2902   3.054   0.334   5.512  0.4982  0.3590 -0.3507
  980TIP3   OH2 2903   6.117   1.254   1.005  0.3579  0.3352 -0.2667
  980TIP3    H1 2904   6.066   1.299   0.938 -1.6848 -0.0002  0.9704
  980TIP3    H2 2905   6.205   1.293   0.999  0.0135  0.9069 -2.5071
  981TIP3   OH2 2906   7.056   0.728   1.235 -0.0230  0.0211 -0.3925
  981TIP3    H1 2907   7.112   0.802   1.259 -0.1148  0.0389 -0.2322
  981TIP3    H2 2908   7.071   0.663   1.305 -1.3210  0.6125  0.4595
  982TIP3   OH2 2909   0.734   2.581   4.799  0.1696  0.5083  0.2249
  982TIP3    H1 2910   0.754   2.520   4.870 -0.2962  0.7882  0.6049
  982TIP3    H2 2911   0.797   2.560   4.730 -0.2397 -0.6773  0.1836
  983TIP3   OH2 2912   5.134   4.193   4.477 -0.4193 -0.4644 -0.5288
  983TIP3    H1 2913   5.096   4.115   4.435 -2.4402 -0.1648  0.6435
  983TIP3    H2 2914   5.080   4.266   4.447 -1.1787 -0.0824  1.5981
  984TIP3   OH2 2915   0.227   3.666   1.751 -0.5333 -0.1993  0.3206
  984TIP3    H1 2916   0.277   3.598   1.796 -0.7796  0.0407  0.9785
  984TIP3    H2 2917   0.290   3.737   1.737 -0.4995 -0.2019  0.4569
  985TIP3   OH2 2918   5.098   6.313   1.513  0.5048  0.0021 -0.3319
  985TIP3    H1 2919   5.099   6.218   1.522  0.3295 -0.3411 -2.9824
  985TIP3    H2 2920   5.030   6.342   1.574  0.5480 -1.5596  0.5155
  986TIP3   OH2 2921   1.855   1.414   4.436 -0.1495 -0.0940  0.0470
  986TIP3    H1 2922   1.913   1.476   4.480  1.2857 -1.3867  0.0698
  986TIP3    H2 2923   1.909   1.336   4.423 -1.7549 -1.1759 -0.3995
  987TIP3   OH2 2924   4.111   6.642   4.246 -0.2628  0.3395 -0.1506
  987TIP3    H1 2925   4.046   6.592   4.295 -0.1776 -0.7100 -1.0679
  987TIP3    H2 2926   4.179   6.661   4.310  0.5243 -2.2277 -0.1196
  988TIP3   OH2 2927   5.703   5.080   0.903  0.1252  0.5009  0.1898
  988TIP3    H1 2928   5.750   4.997   0.898 -2.7380 -1.2710  0.1076
  988TIP3    H2 2929   5.723   5.114   0.991  1.7885  0.0360  0.0105
  989TIP3   OH2 2930   3.729   5.644   1.271  0.2273 -0.2214 -0.1453
  989TIP3    H1 2931   3.684   5.722   1.239 -0.0210 -0.7852 -1.2057
  989TIP3    H2 2932   3.663   5.597   1.321  0.1382 -0.1725 -0.2173
  990TIP3   OH2 2933   5.679   4.509   2.876 -0.0343  0.4249 -0.6518
  990TIP3    H1 2934   5.647   4.419   2.873 -2.9557  1.2753  0.8024
  990TIP3    H2 2935   5.727   4.520   2.794 -1.0129 -1.9553 -1.6479
  991TIP3   OH2 2936   3.769   1.620   2.417 -0.0574  0.1993  0.2080
  991TIP3    H1 2937   3.745   1.688   2.354 -1.8531  0.8499  1.5191
  991TIP3    H2 2938   3.828   1.562   2.368 -1.9969  0.1965 -2.3364
  992TIP3   OH2 2939   6.020   5.872   3.281  0.2002  0.9121  0.2069
  992TIP3    H1 2940   5.972   5.803   3.326  0.4911  0.0329 -0.7820
  992TIP3    H2 2941   6.096   5.888   3.336 -0.7188  1.6674  1.3138
  993TIP3   OH2 2942   7.082   1.494   0.731 -0.1044  0.5661 -0.4308
  993TIP3    H1 2943   7.054   1.539   0.651  1.1552  1.6172 -0.3145
  993TIP3    H2 2944   7.175   1.477   0.719 -0.6063 -2.4916 -0.6340
  994TIP3   OH2 2945   5.163   1.781   3.029  0.0651 -0.8387  0.1142
  994TIP3    H1 2946   5.103   1.823   3.090  1.5749 -1.7810  2.4060
  994TIP3    H2 2947   5.121   1.790   2.944 -2.4100  0.1331  1.3273
  995TIP3   OH2 2948   4.090   6.149   4.804 -0.3586 -0.2391 -0.0774
  995TIP3    H1 2949   4.167   6.097   4.782  0.0150  0.3058 -0.0841
  995TIP3    H2 2950   4.027   6.130   4.734 -0.3004 -0.8219  0.0245
  996TIP3   OH2 2951   5.142   2.492   3.380  0.2060 -0.1116 -0.1905
  996TIP3    H1 2952   5.193   2.569   3.354 -1.1027  0.3911 -1.4104
  996TIP3    H2 2953   5.177   2.469   3.466  1.3043  1.2426 -0.2209
  997TIP3   OH2 2954   4.109   2.331   3.531 -0.2114  0.7188 -0.1775
  997TIP3    H1 2955   4.137   2.249   3.491  0.3658  1.4599 -1.3336
  997TIP3    H2 2956   4.026   2.310   3.573 -0.4308 -0.2716 -1.0868
  998TIP3   OH2 2957   4.343   1.918   3.822  0.1956  0.3323 -0.0338
  998TIP3    H1 2958   4.270   1.909   3.884 -1.6542  2.8200 -1.6872
  998TIP3    H2 2959   4.323   1.855   3.753  0.3433  0.0781  0.1529
  999TIP3   OH2 2960   0.024   4.591   3.804 -0.8374 -0.5905 -0.4058
  999TIP3    H1 2961   0.050   4.677   3.773  0.8653 -0.6031  0.8299
  999TIP3    H2 2962   0.043   4.532   3.731  0.8161 -0.2934 -0.2546
 1000TIP3   OH2 2963   1.443   2.213   1.743 -0.4422  0.1508  0.2455
 1000TIP3    H1 2964   1.395   2.289   1.711  1.9029  1.5901 -0.0686
 1000TIP3    H2 2965   1.429   2.145   1.677 -0.8903  0.9693 -0.5119
 1001TIP3   OH2 2966   1.716   6.727   4.774  0.3459  0.6964 -0.1782
 1001TIP3    H1 2967   1.786   6.792   4.764  0.3811  0.5485 -1.0244
 1001TIP3    H2 2968   1.638   6.772   4.742  0.2675  0.5072 -0.2547
 1002TIP3   OH2 2969   6.618   0.536   3.517 -0.2868 -0.0971  0.3071
 1002TIP3    H1 2970   6.557   0.534   3.443  0.1337  0.3087 -0.0536
 1002TIP3    H2 2971   6.604   0.452   3.561 -1.4333  0.1783  0.4987
 1003TIP3   OH2 2972   5.626   1.059   2.521  0.0285 -0.2617 -0.1659
 1003TIP3    H1 2973   5.661   1.109   2.595 -0.2545 -1.3122  0.7059
 1003TIP3    H2 2974   5.700   1.050   2.461  0.9661 -1.4183  1.0982
 1004TIP3   OH2 2975   0.450   3.044   1.445  0.2534 -0.0826 -0.5762
 1004TIP3    H1 2976   0.378   3.026   1.505  0.2842 -0.8782 -0.7670
 1004TIP3    H2 2977   0.436   3.135   1.418  1.1318  0.8539  1.8336
 1005TIP3   OH2 2978   2.311   2.994   2.141  0.3483  0.5525 -0.1830
 1005TIP3    H1 2979   2.275   3.078   2.171  0.0586 -0.0086  1.0880
 1005TIP3    H2 2980   2.400   3.015   2.112  1.1718  0.9192  2.4120
 1006TIP3   OH2 2981   0.865   2.489   2.208  0.1352  0.7938  0.0125
 1006TIP3    H1 2982   0.877   2.583   2.192  0.6686  0.8853  0.8478
 1006TIP3    H2 2983   0.818   2.457   2.131  1.2751  1.4579 -0.9991
 1007TIP3   OH2 2984   0.226   3.207   0.376 -0.8744  0.1733  0.3429
 1007TIP3    H1 2985   0.290   3.138   0.395  1.5633  2.3928  0.6958
 1007TIP3    H2 2986   0.165   3.166   0.314  0.3204 -2.3405  0.6970
 1008TIP3   OH2 2987   3.215   5.895   4.086 -0.2537  0.1689 -0.5136
 1008TIP3    H1 2988   3.148   5.884   4.154 -0.9584  4.1833 -0.2873
 1008TIP3    H2 2989   3.198   5.825   4.024 -2.2780 -1.1694  1.3951
 1009TIP3   OH2 2990   0.857   3.063   2.796 -0.5823  0.2329 -0.1159
 1009TIP3    H1 2991   0.887   3.149   2.767 -0.9500  0.4825  0.2220
 1009TIP3    H2 2992   0.859   3.009   2.717  0.1627  0.4028 -0.2189
 1010TIP3   OH2 2993   7.049   1.431   0.275 -0.0017 -0.7966 -0.0846
 1010TIP3    H1 2994   7.030   1.496   0.342 -1.2219 -3.1101  1.9800
 1010TIP3    H2 2995   6.990   1.452   0.203 -1.3527 -0.4075  1.0970
 1011TIP3   OH2 2996   0.237   1.633   5.112 -0.0635 -0.2217  0.0748
 1011TIP3    H1 2997   0.234   1.728   5.101  0.2358 -0.3160 -0.9032
 1011TIP3    H2 2998   0.183   1.599   5.041  2.6968 -0.8999 -1.8584
 1012TIP3   OH2 2999   5.500   3.989   1.714  0.0736  0.3088 -0.1744
 1012TIP3    H1 3000   5.436   3.922   1.690  0.6265 -0.3649  0.2153
 1012TIP3    H2 3001   5.573   3.976   1.655  0.6726 -0.1905  0.6560
 1013TIP3   OH2 3002   0.760   1.898   3.150  0.8885  0.3932  0.2657
 1013TIP3    H1 3003   0.768   1.815   3.103 -3.3654 -0.7354  1.1154
 1013TIP3    H2 3004   0.779   1.965   3.084  1.7921 -1.1804 -1.1558
 1014TIP3   OH2 3005   5.530   3.438   0.492  0.0539  0.0877 -0.2610
 1014TIP3    H1 3006   5.455   3.491   0.467 -0.5081 -0.7258 -0.3431
 1014TIP3    H2 3007   5.493   3.352   0.514  0.6700  0.3290  2.0228
 1015TIP3   OH2 3008   0.704   0.930   2.206  1.1377 -0.1864  0.1258
 1015TIP3    H1 3009   0.647   0.996   2.246 -0.9057 -2.3920  1.1242
 1015TIP3    H2 3010   0.685   0.934   2.113 -1.2626 -1.2782  0.4930
 1016TIP3   OH2 3011   1.216   1.074   0.388 -0.8381  0.4331  0.5882
 1016TIP3    H1 3012   1.184   1.029   0.467  0.0329 -0.8193  0.2608
 1016TIP3    H2 3013   1.171   1.030   0.316  0.5193 -0.4246  0.2175
 1017TIP3   OH2 3014   0.952   1.245   4.774  0.1425 -0.4890 -0.3572
 1017TIP3    H1 3015   0.981   1.336   4.775  1.6021 -0.9199 -0.1668
 1017TIP3    H2 3016   0.874   1.244   4.830 -1.5110  1.0814 -2.4655
 1018TIP3   OH2 3017   6.031   1.994   0.056 -0.3506 -0.1802 -0.3290
 1018TIP3    H1 3018   5.989   1.980   0.141 -2.6146  0.4652 -1.2801
 1018TIP3    H2 3019   6.020   1.911   0.010 -0.4743 -0.0480 -0.5380
 1019TIP3   OH2 3020   3.204   0.381   2.118 -0.0393  0.0768  0.1924
 1019TIP3    H1 3021   3.177   0.290   2.106 -0.6795  0.1732  0.8895
 1019TIP3    H2 3022   3.135   0.432   2.077  0.1623  0.2672  0.0842
 1020TIP3   OH2 3023   3.203   0.789   5.179 -0.4247  0.6758  0.1636
 1020TIP3    H1 3024   3.157   0.768   5.260 -0.4855  2.5286  0.6375
 1020TIP3    H2 3025   3.246   0.706   5.154 -0.0816  0.1608  2.2870
 1021TIP3   OH2 3026   2.477   4.681   3.348  0.4124 -0.1491  0.5576
 1021TIP3    H1 3027   2.555   4.700   3.400 -0.1530  0.6524  1.1443
 1021TIP3    H2 3028   2.485   4.736   3.270  0.0886  0.5179  0.9776
 1022TIP3   OH2 3029   3.968   2.186   5.673 -0.3827  0.4258  0.0139
 1022TIP3    H1 3030   3.914   2.187   5.594 -0.2944 -1.7176 -0.1521
 1022TIP3    H2 3031   4.058   2.183   5.640 -0.3080  0.3995  0.2190
 1023TIP3   OH2 3032   7.125   4.743   2.300  0.0869 -0.0028 -0.1815
 1023TIP3    H1 3033   7.165   4.659   2.325 -0.6072 -0.5634 -0.8791
 1023TIP3    H2 3034   7.107   4.787   2.383 -1.0428 -1.2756  0.2843
 1024TIP3   OH2 3035   4.912   0.268   1.155 -0.1470  0.0353 -0.0178
 1024TIP3    H1 3036   4.935   0.230   1.240 -1.9239 -1.2546 -0.0539
 1024TIP3    H2 3037   4.976   0.338   1.142  1.4907 -1.1106  1.3895
 1025TIP3   OH2 3038   4.020   6.422   4.590 -0.0837 -0.6319 -0.5728
 1025TIP3    H1 3039   3.966   6.426   4.668  0.1701 -0.4718 -0.4056
 1025TIP3    H2 3040   3.964   6.381   4.524 -0.9992  1.0969 -0.9050
 1026TIP3   OH2 3041   1.842   4.469   1.339 -0.8358  0.5162  0.1852
 1026TIP3    H1 3042   1.818   4.536   1.275 -1.6406  0.6959  0.6608
 1026TIP3    H2 3043   1.769   4.468   1.401 -0.5304 -0.3501  0.5449
 1027TIP3   OH2 3044   3.224   3.045   5.226  0.3967 -0.9294  0.1586
 1027TIP3    H1 3045   3.317   3.030   5.242  0.0567 -1.5213  1.8351
 1027TIP3    H2 3046   3.219   3.136   5.197  1.4257 -0.6067  0.9157
 1028TIP3   OH2 3047   4.267   3.543   1.460 -0.2752 -0.2449  0.1082
 1028TIP3    H1 3048   4.256   3.475   1.527  2.2183 -1.7704 -0.9277
 1028TIP3    H2 3049   4.270   3.495   1.377  1.5621  1.1065 -0.6551
 1029TIP3   OH2 3050   0.290   6.392   2.189 -0.8073 -0.0015  0.2162
 1029TIP3    H1 3051   0.329   6.349   2.112  1.4683  0.1328  1.2092
 1029TIP3    H2 3052   0.238   6.323   2.231  2.6873 -2.0137  1.7279
 1030TIP3   OH2 3053   0.126   2.382   5.856  0.2213  0.5566 -0.0037
 1030TIP3    H1 3054   0.088   2.295   5.848  0.6208  0.3033  0.7805
 1030TIP3    H2 3055   0.063   2.432   5.908 -0.9341  1.3299 -2.0001
 1031TIP3   OH2 3056   3.863   0.789   4.370  0.8669  0.4041 -0.4151
 1031TIP3    H1 3057   3.932   0.848   4.341  0.4781  0.3492 -1.5168
 1031TIP3    H2 3058   3.783   0.824   4.328  0.1398  0.7250  1.1692
 1032TIP3   OH2 3059   2.416   2.098   2.344 -0.5470  0.0975  0.2646
 1032TIP3    H1 3060   2.400   2.020   2.397 -1.1349 -0.9994 -1.4571
 1032TIP3    H2 3061   2.500   2.080   2.301 -0.4240  0.6560  0.2678
 1033TIP3   OH2 3062   1.591   1.091   2.703  0.2000 -0.0472  0.3097
 1033TIP3    H1 3063   1.685   1.104   2.691  0.1830  0.5657  0.8139
 1033TIP3    H2 3064   1.579   0.996   2.693  0.6558  0.0213 -1.1397
 1034TIP3   OH2 3065   0.367   6.513   3.869 -0.2543 -0.1998  0.2197
 1034TIP3    H1 3066   0.312   6.437   3.849 -2.0489  1.0338  0.2150
 1034TIP3    H2 3067   0.416   6.487   3.947  0.1154 -1.7858 -0.4843
 1035TIP3   OH2 3068   0.196   6.399   0.408  0.2293  0.0740  0.5565
 1035TIP3    H1 3069   0.219   6.317   0.365  1.0242  0.7814 -0.4092
 1035TIP3    H2 3070   0.193   6.463   0.337 -1.6005  0.6691  1.1027
 1036TIP3   OH2 3071   3.936   6.485   1.318 -0.0870  0.0317 -0.3687
 1036TIP3    H1 3072   3.893   6.465   1.401  1.6015 -1.9653  0.0857
 1036TIP3    H2 3073   3.917   6.410   1.262 -1.4278  1.4599 -1.9654
 1037TIP3   OH2 3074   1.160   5.142   1.506  0.1579  0.0655  0.3058
 1037TIP3    H1 3075   1.203   5.068   1.549 -1.3351  0.1950  2.0977
 1037TIP3    H2 3076   1.142   5.110   1.417  2.0173 -0.7073  0.1596
 1038TIP3   OH2 3077   3.561   0.838   4.722 -0.4551 -0.0990 -0.0624
 1038TIP3    H1 3078   3.587   0.786   4.646 -2.7941  1.3701 -2.0281
 1038TIP3    H2 3079   3.597   0.925   4.705 -2.8411  0.8569 -0.7852
 1039TIP3   OH2 3080   3.730   1.922   0.203 -0.2564  0.2701 -0.8088
 1039TIP3    H1 3081   3.743   2.003   0.154  0.6000 -0.3791 -1.6992
 1039TIP3    H2 3082   3.768   1.939   0.289 -2.4751  1.6921 -0.0299
 1040TIP3   OH2 3083   3.881   0.234   2.686  0.8921  0.1412 -0.5643
 1040TIP3    H1 3084   3.861   0.302   2.621  1.7299  0.0851 -0.8912
 1040TIP3    H2 3085   3.921   0.163   2.635  3.1145  0.7684  0.1789
 1041TIP3   OH2 3086   2.799   5.659   0.238  0.0046 -0.1110  0.4659
 1041TIP3    H1 3087   2.752   5.742   0.251  2.4975  1.7261 -1.3948
 1041TIP3    H2 3088   2.868   5.660   0.305  1.0417  0.1385 -0.5838
 1042TIP3   OH2 3089   2.131   0.186   1.289 -0.0377  0.0171 -0.3215
 1042TIP3    H1 3090   2.093   0.229   1.213  2.2405 -0.8508 -2.0615
 1042TIP3    H2 3091   2.149   0.257   1.350 -0.3351  0.9504 -1.2925
 1043TIP3   OH2 3092   6.261   3.915   0.501  0.1408 -0.0420 -0.0787
 1043TIP3    H1 3093   6.323   3.922   0.574  0.1918  0.5995 -0.1780
 1043TIP3    H2 3094   6.177   3.897   0.543  0.7030 -3.0127 -0.0438
 1044TIP3   OH2 3095   3.775   1.502   1.602  0.0721 -0.3698 -0.0414
 1044TIP3    H1 3096   3.829   1.507   1.522  2.1421  1.0672  1.3309
 1044TIP3    H2 3097   3.804   1.577   1.654 -3.8909  0.9578  0.5241
 1045TIP3   OH2 3098   2.986   3.416   0.225 -0.2093 -0.2582  0.0852
 1045TIP3    H1 3099   2.978   3.335   0.175 -0.3680 -1.2349  1.6141
 1045TIP3    H2 3100   3.075   3.415   0.259  0.2549  0.9332 -1.0158
 1046TIP3   OH2 3101   0.304   6.717   4.198  0.6495 -0.4007 -0.1585
 1046TIP3    H1 3102   0.232   6.731   4.137  0.3945  0.0617  0.2474
 1046TIP3    H2 3103   0.262   6.685   4.278  1.1125 -2.5417 -0.7130
 1047TIP3   OH2 3104   0.823   0.706   1.678 -0.3476  0.3548 -0.3585
 1047TIP3    H1 3105   0.859   0.741   1.759 -1.7367  1.4532 -0.1747
 1047TIP3    H2 3106   0.817   0.612   1.693  1.2717  0.2822  0.0274
 1048TIP3   OH2 3107   5.931   2.208   3.977  0.0368 -0.1996  0.4381
 1048TIP3    H1 3108   5.861   2.143   3.975  0.7503 -0.9545 -0.7680
 1048TIP3    H2 3109   5.980   2.188   4.057 -2.0948  1.4816  2.3502
 1049TIP3   OH2 3110   5.656   5.632   4.552 -0.0272  0.5849  0.8366
 1049TIP3    H1 3111   5.579   5.644   4.497  0.3657  0.4852  0.2521
 1049TIP3    H2 3112   5.623   5.590   4.631 -0.6155  0.8150  0.7173
 1050TIP3   OH2 3113   1.192   3.868   4.186 -0.3671 -0.0966  0.0944
 1050TIP3    H1 3114   1.099   3.855   4.165 -0.3893  1.1442 -0.6830
 1050TIP3    H2 3115   1.191   3.923   4.264 -0.2949  0.3156 -0.1917
 1051TIP3   OH2 3116   4.636   4.966   0.031 -0.1099 -0.0651  0.1240
 1051TIP3    H1 3117   4.668   5.048  -0.006 -0.5955  0.5962  1.1241
 1051TIP3    H2 3118   4.695   4.899  -0.003 -1.3667  0.2491 -3.0697
 1052TIP3   OH2 3119   1.218   4.179   1.824  0.1498  0.1131  0.0621
 1052TIP3    H1 3120   1.304   4.155   1.859  0.2732  2.1053  1.2721
 1052TIP3    H2 3121   1.163   4.190   1.902 -0.7336  0.5635 -0.6157
 1053TIP3   OH2 3122   6.761   0.267   1.384  0.1187 -0.0638 -0.0266
 1053TIP3    H1 3123   6.778   0.218   1.465  0.3317  0.1632  0.0714
 1053TIP3    H2 3124   6.680   0.315   1.401  0.0384 -0.1976 -0.0340
 1054TIP3   OH2 3125   4.509   4.457   2.355  0.6576  0.3136  0.3519
 1054TIP3    H1 3126   4.436   4.427   2.409  1.6035 -2.1837  0.3488
 1054TIP3    H2 3127   4.554   4.522   2.410  1.3208 -1.8128  2.4832
 1055TIP3   OH2 3128   0.636   5.552   4.762  0.0223 -0.3953 -0.0606
 1055TIP3    H1 3129   0.686   5.568   4.841 -0.8321 -0.0705  0.4249
 1055TIP3    H2 3130   0.637   5.635   4.714 -0.2392 -0.3217  0.0598
 1056TIP3   OH2 3131   5.877   0.800   5.287  0.1207 -0.2122  0.3902
 1056TIP3    H1 3132   5.795   0.848   5.280  0.8345  0.9707 -0.1911
 1056TIP3    H2 3133   5.886   0.755   5.203  0.3488  0.1285  0.2316
 1057TIP3   OH2 3134   3.130   6.716   0.708  0.0921 -0.1596 -0.0164
 1057TIP3    H1 3135   3.220   6.731   0.678 -0.2525  0.3254 -0.8571
 1057TIP3    H2 3136   3.136   6.640   0.765  0.9238 -0.5730 -0.6371
 1058TIP3   OH2 3137   1.229   4.663   3.631  0.6425  0.1108 -0.0808
 1058TIP3    H1 3138   1.138   4.662   3.662  0.6319  0.3991 -0.1005
 1058TIP3    H2 3139   1.279   4.700   3.703  0.8099 -0.4374  0.0932
 1059TIP3   OH2 3140   6.915   3.034   2.620  0.0694  0.9445  0.3118
 1059TIP3    H1 3141   6.845   3.060   2.679 -0.6666  2.1125 -0.9968
 1059TIP3    H2 3142   6.874   3.037   2.533  1.5770  1.0190 -0.4177
 1060TIP3   OH2 3143   1.782   0.586   5.036 -0.2614  0.1217 -0.1376
 1060TIP3    H1 3144   1.820   0.656   5.089 -0.3417  0.9552 -1.1402
 1060TIP3    H2 3145   1.688   0.591   5.054 -0.3345  0.6625 -0.6410
 1061TIP3   OH2 3146   5.542   0.751   4.575  0.4156 -0.2305  0.0658
 1061TIP3    H1 3147   5.466   0.806   4.595 -0.1352 -0.4265 -1.3490
 1061TIP3    H2 3148   5.515   0.663   4.597  0.6844 -0.1567  0.7141
 1062TIP3   OH2 3149   4.892   4.295   5.015 -0.0315  0.5376 -0.3168
 1062TIP3    H1 3150   4.834   4.370   5.029 -0.1001  0.0021  2.9218
 1062TIP3    H2 3151   4.847   4.222   5.058  2.8947  0.0642  2.2269
 1063TIP3   OH2 3152   2.663   3.252   2.059 -0.1908  0.4575 -0.4839
 1063TIP3    H1 3153   2.650   3.179   2.121 -1.6641  0.2407 -1.0194
 1063TIP3    H2 3154   2.748   3.288   2.084  0.7188 -1.5947 -0.3506
 1064TIP3   OH2 3155   2.496   0.329   2.127 -0.2030  0.4059 -0.2785
 1064TIP3    H1 3156   2.575   0.375   2.155  0.1163 -0.5228  0.3986
 1064TIP3    H2 3157   2.529   0.251   2.082 -0.7293  0.2145 -0.3384
 1065TIP3   OH2 3158   5.307   3.713  -0.001  0.1045 -0.1212  0.5259
 1065TIP3    H1 3159   5.270   3.762   0.072 -0.1820  0.3135  0.0908
 1065TIP3    H2 3160   5.399   3.699   0.024 -0.0807 -0.2935  1.1319
 1066TIP3   OH2 3161   2.992   5.444   2.898  0.0830 -0.4299 -0.2457
 1066TIP3    H1 3162   3.059   5.512   2.896  0.2647 -0.5896  0.3199
 1066TIP3    H2 3163   2.941   5.459   2.818  0.8930 -0.4253 -0.7727
 1067TIP3   OH2 3164   5.736   2.651   1.105 -0.4127  0.2905 -0.2689
 1067TIP3    H1 3165   5.742   2.641   1.200 -1.3722 -0.3532 -0.2653
 1067TIP3    H2 3166   5.796   2.724   1.085 -0.5744  0.7649  0.8788
 1068TIP3   OH2 3167   5.585   1.272   2.693  0.4962 -0.8721  0.3371
 1068TIP3    H1 3168   5.514   1.314   2.742  0.5069 -0.1682 -0.2311
 1068TIP3    H2 3169   5.550   1.262   2.604  1.6990  1.1262 -0.4301
 1069TIP3   OH2 3170   6.474   2.578   3.890  0.4058 -0.3373 -0.3887
 1069TIP3    H1 3171   6.506   2.664   3.916  1.6180 -0.8248 -0.1651
 1069TIP3    H2 3172   6.505   2.566   3.800  0.3865 -0.5983 -0.3635
 1070TIP3   OH2 3173   3.664   2.212   3.280 -0.6955 -0.4240  0.3548
 1070TIP3    H1 3174   3.749   2.171   3.261 -0.1127  1.0532 -0.3755
 1070TIP3    H2 3175   3.687   2.288   3.333 -1.6991 -0.6586  1.1503
 1071TIP3   OH2 3176   0.593   6.783   4.101  0.0199  0.2033  0.1423
 1071TIP3    H1 3177   0.509   6.810   4.137  0.0952  2.0615 -0.9398
 1071TIP3    H2 3178   0.588   6.805   4.008  1.2802 -0.7306 -0.1731
 1072TIP3   OH2 3179   3.367   1.456   0.164  0.3208 -0.3842  0.2078
 1072TIP3    H1 3180   3.370   1.542   0.205 -1.9090  0.1521 -0.6150
 1072TIP3    H2 3181   3.369   1.474   0.070 -0.9766 -1.1495  0.0156
 1073TIP3   OH2 3182   2.099   0.196   2.353 -0.4281  0.0902  0.0300
 1073TIP3    H1 3183   2.047   0.262   2.398  1.2750  0.4719  1.5761
 1073TIP3    H2 3184   2.035   0.144   2.304 -1.9022  2.3681 -0.6228
 1074TIP3   OH2 3185   2.390   2.921   5.682 -0.3764  0.2058  0.1241
 1074TIP3    H1 3186   2.417   2.930   5.591 -1.5886  0.5055 -0.2274
 1074TIP3    H2 3187   2.408   2.830   5.704 -2.4040 -0.5804 -1.2333
 1075TIP3   OH2 3188   4.221   6.725   4.807  0.3735 -0.5216  0.3332
 1075TIP3    H1 3189   4.222   6.717   4.902 -1.7708  0.1550  0.4583
 1075TIP3    H2 3190   4.256   6.812   4.789  0.4246 -0.5040  0.5196
 1076TIP3   OH2 3191   0.705   5.279   3.948 -0.4883 -0.0062  0.5484
 1076TIP3    H1 3192   0.676   5.331   4.023  1.0353  2.1313 -0.2216
 1076TIP3    H2 3193   0.741   5.344   3.887 -1.1795 -1.7199 -1.8134
 1077TIP3   OH2 3194   0.435   0.878   0.970 -0.4007 -0.1599  0.1549
 1077TIP3    H1 3195   0.497   0.806   0.984 -0.3659 -0.1624 -0.0084
 1077TIP3    H2 3196   0.467   0.923   0.892 -2.2116 -1.9522 -1.7610
 1078TIP3   OH2 3197   6.959   5.367   1.779 -0.4930 -0.2103  0.0381
 1078TIP3    H1 3198   6.923   5.456   1.773  0.6785  0.2088 -2.0333
 1078TIP3    H2 3199   6.913   5.319   1.710 -0.1747 -0.8221  0.2493
 1079TIP3   OH2 3200   1.602   2.813   0.709  0.8850 -0.7989  0.2828
 1079TIP3    H1 3201   1.617   2.885   0.770 -0.8464  1.0209 -1.2968
 1079TIP3    H2 3202   1.629   2.847   0.624  0.9212 -2.3755 -0.3786
 1080TIP3   OH2 3203   5.537   0.801   4.979  0.2238 -0.2364 -0.6961
 1080TIP3    H1 3204   5.563   0.731   5.038  0.3053 -0.0937 -0.5621
 1080TIP3    H2 3205   5.444   0.813   4.994  0.1318 -0.5702 -0.9880
 1081TIP3   OH2 3206   6.347   6.773   4.816 -0.3150  0.2922 -0.0492
 1081TIP3    H1 3207   6.440   6.773   4.795  0.2155  1.8155  2.0149
 1081TIP3    H2 3208   6.315   6.857   4.783 -0.8902 -0.0683 -0.4269
 1082TIP3   OH2 3209   0.385   0.729   4.723 -0.1009 -0.0736 -0.2873
 1082TIP3    H1 3210   0.439   0.806   4.710 -0.9742  0.7701  0.8007
 1082TIP3    H2 3211   0.428   0.681   4.795  0.1490 -0.3248 -0.6024
 1083TIP3   OH2 3212   6.912   0.764   1.029 -0.1218  0.1475  0.1713
 1083TIP3    H1 3213   6.966   0.796   0.957 -0.3008 -0.1256 -0.0808
 1083TIP3    H2 3214   6.971   0.766   1.105  0.3959 -0.6264 -0.2020
 1084TIP3   OH2 3215   0.380   1.408   5.164  0.0036  0.0299  0.5990
 1084TIP3    H1 3216   0.342   1.490   5.133 -0.2423  0.1172  1.1119
 1084TIP3    H2 3217   0.464   1.433   5.201 -0.3336  0.1529  1.3061
 1085TIP3   OH2 3218   6.656   3.237   1.659 -0.1460 -0.2118 -0.5334
 1085TIP3    H1 3219   6.657   3.144   1.639 -0.9079 -0.2081 -0.6110
 1085TIP3    H2 3220   6.579   3.249   1.715  0.7978  0.1107  0.7670
 1086TIP3   OH2 3221   6.720   4.183   0.908 -0.3632 -0.6094  1.2433
 1086TIP3    H1 3222   6.772   4.103   0.916  0.4734 -0.2466 -0.1183
 1086TIP3    H2 3223   6.703   4.191   0.814 -1.3023  0.2862  1.4686
 1087TIP3   OH2 3224   4.466   6.711   0.717 -0.3693  0.7982  0.1432
 1087TIP3    H1 3225   4.399   6.763   0.674 -2.1705 -1.3354  0.2022
 1087TIP3    H2 3226   4.440   6.707   0.808 -1.3322 -1.5611 -0.1422
 1088TIP3   OH2 3227   2.587   0.854   5.264  0.2748 -0.5576 -0.5833
 1088TIP3    H1 3228   2.621   0.939   5.236  1.6496 -0.1087  2.1712
 1088TIP3    H2 3229   2.529   0.828   5.192 -0.1333  2.6202 -1.5992
 1089TIP3   OH2 3230   3.975   4.768   5.038 -0.0957  0.0015  0.1730
 1089TIP3    H1 3231   4.028   4.697   5.002 -2.0175 -0.9370 -1.0286
 1089TIP3    H2 3232   3.897   4.724   5.072 -1.0458  1.4708 -0.0242
 1090TIP3   OH2 3233   4.024   0.382   4.849 -0.4058  0.5580 -0.2750
 1090TIP3    H1 3234   4.117   0.377   4.873 -0.2731 -1.1816 -1.0686
 1090TIP3    H2 3235   3.978   0.368   4.932  0.0720 -2.8820 -0.4387
 1091TIP3   OH2 3236   6.194   5.521   2.859 -0.4818  0.0509 -0.1959
 1091TIP3    H1 3237   6.100   5.510   2.868 -0.1251 -4.4513  0.6316
 1091TIP3    H2 3238   6.212   5.497   2.768 -0.0414 -0.4663  0.0226
 1092TIP3   OH2 3239   2.853   0.315   3.973 -0.1433 -0.1527  0.2782
 1092TIP3    H1 3240   2.782   0.352   3.921  0.4051 -0.6456 -0.8687
 1092TIP3    H2 3241   2.810   0.266   4.043 -1.0808 -2.4459 -1.7377
 1093TIP3   OH2 3242   6.085   2.883   0.395  0.3401  0.5364  0.7325
 1093TIP3    H1 3243   6.028   2.808   0.409  1.5806 -0.4116  0.9246
 1093TIP3    H2 3244   6.096   2.889   0.300  0.0057  0.6597  0.7018
 1094TIP3   OH2 3245   4.166   1.102   3.236  0.2929 -0.1541  0.3470
 1094TIP3    H1 3246   4.248   1.148   3.219  0.7851 -1.1463 -0.0849
 1094TIP3    H2 3247   4.176   1.066   3.325 -0.8328  2.0415  1.4399
 1095TIP3   OH2 3248   1.637   5.168   4.402 -0.0627 -0.3871 -0.1758
 1095TIP3    H1 3249   1.582   5.244   4.385 -0.4098 -0.5370  0.2491
 1095TIP3    H2 3250   1.720   5.205   4.432  0.0738 -0.1601 -0.8114
 1096TIP3   OH2 3251   5.144   5.358   1.677  0.7920  0.5696  0.0720
 1096TIP3    H1 3252   5.050   5.340   1.669  0.9479 -0.2423 -0.0073
 1096TIP3    H2 3253   5.163   5.417   1.605  0.2405  1.1748  0.4072
 1097TIP3   OH2 3254   6.035   1.443   5.396 -0.6212 -0.3535  0.0398
 1097TIP3    H1 3255   6.018   1.532   5.364 -1.3468 -0.4366  0.1814
 1097TIP3    H2 3256   6.070   1.397   5.320  0.0023  0.1161  0.0303
 1098TIP3   OH2 3257   5.017   4.537   1.483 -0.0996  0.6441  0.0541
 1098TIP3    H1 3258   5.101   4.514   1.524  0.3944  1.0857 -0.6974
 1098TIP3    H2 3259   4.966   4.575   1.554  0.3467  0.4038  0.5159
 1099TIP3   OH2 3260   3.404   6.798   2.840 -0.2001 -0.4891 -0.1714
 1099TIP3    H1 3261   3.408   6.850   2.920 -2.8371  1.2322 -1.0104
 1099TIP3    H2 3262   3.342   6.727   2.860  0.1419 -0.8273 -0.2962
 1100TIP3   OH2 3263   0.720   3.773   2.553  0.3066  0.0097 -0.1885
 1100TIP3    H1 3264   0.692   3.723   2.477  1.5780 -1.0597  0.0196
 1100TIP3    H2 3265   0.762   3.851   2.516 -0.1602  0.0927 -0.5485
 1101TIP3   OH2 3266   5.388   5.939   5.493  0.6119  0.2377  0.0994
 1101TIP3    H1 3267   5.438   6.021   5.486  0.3434  0.2762 -2.1268
 1101TIP3    H2 3268   5.444   5.873   5.453  0.4045 -0.4742  0.9695
 1102TIP3   OH2 3269   7.077   0.350   1.776  0.1512  0.0049  0.3264
 1102TIP3    H1 3270   7.002   0.407   1.758 -0.2782  0.2258  2.4509
 1102TIP3    H2 3271   7.038   0.264   1.791  0.5340 -0.3019 -0.4187
 1103TIP3   OH2 3272   0.678   1.897   5.670  0.3941  0.0757 -0.6371
 1103TIP3    H1 3273   0.618   1.955   5.717  0.1266 -0.3350 -0.4611
 1103TIP3    H2 3274   0.660   1.810   5.706  1.3514 -0.0016 -0.3277
 1104TIP3   OH2 3275   3.398   5.590   2.095  0.0311 -0.4435  0.2304
 1104TIP3    H1 3276   3.381   5.682   2.076 -0.0597 -0.5514 -0.2298
 1104TIP3    H2 3277   3.491   5.587   2.118 -0.5540  0.2098  3.1517
 1105TIP3   OH2 3278   6.428   4.609   1.546  0.3746  0.1980 -0.1404
 1105TIP3    H1 3279   6.351   4.576   1.591  0.4093 -0.1464 -0.3325
 1105TIP3    H2 3280   6.419   4.704   1.550 -2.1578  0.3069 -3.6586
 1106TIP3   OH2 3281   2.323   2.762   3.712  0.1047  0.0428  0.4021
 1106TIP3    H1 3282   2.340   2.692   3.649  2.0307  0.6972  0.1311
 1106TIP3    H2 3283   2.243   2.804   3.681  0.8346  0.1438 -1.4324
 1107TIP3   OH2 3284   4.297   2.325   4.532  0.2508  0.3365 -0.2488
 1107TIP3    H1 3285   4.239   2.400   4.534  0.7081  0.7360 -1.3510
 1107TIP3    H2 3286   4.253   2.262   4.475  0.0335 -0.1063  0.3950
 1108TIP3   OH2 3287   2.140   3.934   5.506 -0.5781  0.6265  0.0164
 1108TIP3    H1 3288   2.226   3.892   5.499  0.4778  2.1803  2.2361
 1108TIP3    H2 3289   2.084   3.885   5.446  1.5636 -1.1981 -0.6363
 1109TIP3   OH2 3290   5.688   2.768   5.022 -0.0139 -0.2197 -0.3011
 1109TIP3    H1 3291   5.634   2.801   5.094  0.1964 -1.3329  0.3933
 1109TIP3    H2 3292   5.654   2.681   5.003  2.1740 -1.4506  0.9363
 1110TIP3   OH2 3293   0.248   0.656   3.962  0.0659 -0.0639 -0.3822
 1110TIP3    H1 3294   0.199   0.675   4.042  0.1012 -1.6981  0.0722
 1110TIP3    H2 3295   0.320   0.718   3.962  0.0994 -0.0824  0.9034
 1111TIP3   OH2 3296   2.663   0.391   0.099 -0.2836  0.6452 -0.7660
 1111TIP3    H1 3297   2.597   0.442   0.146  0.5782  1.3904 -0.3286
 1111TIP3    H2 3298   2.686   0.445   0.023  0.8758  1.0962 -0.1240
 1112TIP3   OH2 3299   1.698   2.037   4.872  0.1661  0.0764 -0.7001
 1112TIP3    H1 3300   1.610   2.071   4.889  0.1789 -0.1942 -0.0284
 1112TIP3    H2 3301   1.718   1.985   4.950  1.5974  1.5150 -0.0527
 1113TIP3   OH2 3302   3.629   1.540   3.845 -0.1938 -0.1315  0.1036
 1113TIP3    H1 3303   3.580   1.475   3.794 -0.7824  1.4298 -1.4304
 1113TIP3    H2 3304   3.622   1.620   3.794  2.2004  0.6809  0.9255
 1114TIP3   OH2 3305   1.243   4.338   1.180 -0.0389  0.3782  0.2457
 1114TIP3    H1 3306   1.317   4.375   1.131  1.0628 -2.3768 -0.3960
 1114TIP3    H2 3307   1.181   4.311   1.112 -2.2135  3.4473  0.8005
 1115TIP3   OH2 3308   0.240   4.458   0.894 -0.3407  0.1023  0.3064
 1115TIP3    H1 3309   0.207   4.380   0.850 -0.8387 -0.0173  0.8793
 1115TIP3    H2 3310   0.168   4.521   0.890 -0.3461  0.1310  0.8529
 1116TIP3   OH2 3311   2.725   0.682   4.964 -0.1953  0.2498  0.2683
 1116TIP3    H1 3312   2.817   0.706   4.970 -0.2375  0.8525 -1.0454
 1116TIP3    H2 3313   2.719   0.596   5.004  0.7257  0.6820  1.3917
 1117TIP3   OH2 3314   3.555   0.482   1.783  0.0658 -0.1766 -0.4747
 1117TIP3    H1 3315   3.463   0.483   1.809 -0.9049  0.0409 -3.5996
 1117TIP3    H2 3316   3.580   0.390   1.786 -0.0729 -0.1940  0.8021
 1118TIP3   OH2 3317   2.279   3.635   3.018 -0.4143  0.2067 -0.3777
 1118TIP3    H1 3318   2.234   3.639   2.934 -1.5458  2.0488  0.2584
 1118TIP3    H2 3319   2.242   3.558   3.061 -1.5482  0.5588 -0.6703
 1119TIP3   OH2 3320   3.108   3.083   0.981 -0.2864  0.1515 -0.1297
 1119TIP3    H1 3321   3.200   3.108   0.991 -0.5956  1.3991 -0.2094
 1119TIP3    H2 3322   3.083   3.048   1.066 -0.3976  2.1413  0.7091
 1120TIP3   OH2 3323   2.520   3.802   4.272 -0.4304 -0.5285  0.0942
 1120TIP3    H1 3324   2.447   3.804   4.209 -1.0783 -2.3161  0.7338
 1120TIP3    H2 3325   2.480   3.771   4.353  0.3405  1.9411  1.5037
 1121TIP3   OH2 3326   4.882   5.232   4.584  0.1763 -0.2794 -0.8109
 1121TIP3    H1 3327   4.934   5.155   4.608 -0.0817 -1.0675 -2.5601
 1121TIP3    H2 3328   4.926   5.305   4.625  1.1679 -1.2316 -0.1266
 1122TIP3   OH2 3329   2.822   1.568   1.923  0.4518  0.7792  0.0096
 1122TIP3    H1 3330   2.736   1.532   1.899  1.1133 -1.2958  0.5183
 1122TIP3    H2 3331   2.851   1.513   1.995  2.0030  1.7798  0.1842
 1123TIP3   OH2 3332   0.593   6.225   4.706 -0.1135 -0.0303 -0.0570
 1123TIP3    H1 3333   0.570   6.186   4.790 -2.2648 -1.3389 -1.1450
 1123TIP3    H2 3334   0.540   6.177   4.642  0.9668  1.3306 -2.0980
 1124TIP3   OH2 3335   2.001   5.576   4.353 -0.1499 -0.3344 -0.2331
 1124TIP3    H1 3336   2.075   5.635   4.344  0.2556 -0.7736  0.1652
 1124TIP3    H2 3337   1.928   5.633   4.378  0.4268 -0.0975  0.9792
 1125TIP3   OH2 3338   6.577   5.894   4.862 -0.0662 -0.5470 -0.9525
 1125TIP3    H1 3339   6.611   5.975   4.824  0.2706 -1.2178 -2.1496
 1125TIP3    H2 3340   6.654   5.838   4.872 -0.3151 -0.7746 -0.2817
 1126TIP3   OH2 3341   0.903   1.112   0.856 -0.3344 -0.2253 -0.2621
 1126TIP3    H1 3342   0.853   1.182   0.813 -0.8881 -0.7720 -0.5173
 1126TIP3    H2 3343   0.924   1.050   0.786  0.2249 -0.2830 -0.0529
 1127TIP3   OH2 3344   6.187   1.038   3.577 -0.0504 -0.8091 -0.2189
 1127TIP3    H1 3345   6.253   1.108   3.581  1.1781 -1.9791  0.7582
 1127TIP3    H2 3346   6.147   1.049   3.491  0.9135  0.3899 -0.5523
 1128TIP3   OH2 3347   2.835   0.186   4.541  0.0117  0.7311 -0.5075
 1128TIP3    H1 3348   2.853   0.158   4.630 -1.3806 -0.5440 -0.5919
 1128TIP3    H2 3349   2.913   0.160   4.491 -1.3342 -3.7066 -0.7021
 1129TIP3   OH2 3350   6.457   1.032   5.597  0.0136 -0.5181 -0.0162
 1129TIP3    H1 3351   6.380   1.088   5.589 -1.1531 -1.7537  1.8639
 1129TIP3    H2 3352   6.452   0.974   5.522  0.9449  1.4655 -1.6957
 1130TIP3   OH2 3353   5.547   4.951   4.877 -0.0840 -0.4627 -0.1176
 1130TIP3    H1 3354   5.585   4.903   4.803  1.6776  0.5358  0.0761
 1130TIP3    H2 3355   5.535   5.040   4.844  2.5673  0.5270  1.2483
 1131TIP3   OH2 3356   0.366   2.161   1.103 -0.0382 -0.1579  0.6108
 1131TIP3    H1 3357   0.436   2.141   1.165 -0.0263 -0.6109  0.4529
 1131TIP3    H2 3358   0.355   2.081   1.052 -0.4340  0.0254  0.4012
 1132TIP3   OH2 3359   2.838   5.825   1.253 -0.1631 -0.1837  0.1906
 1132TIP3    H1 3360   2.889   5.754   1.292 -0.9525 -1.7258 -1.4428
 1132TIP3    H2 3361   2.750   5.814   1.289 -0.1800  0.2722  0.2939
 1133TIP3   OH2 3362   4.601   3.360   5.531  0.1922 -0.4841  0.8965
 1133TIP3    H1 3363   4.508   3.378   5.528 -0.0446 -1.6857 -1.6733
 1133TIP3    H2 3364   4.639   3.436   5.575 -1.6868  1.5012 -0.6752
 1134TIP3   OH2 3365   0.509   4.594   5.866 -0.0722  0.4007 -0.4816
 1134TIP3    H1 3366   0.519   4.499   5.875 -2.7988  0.1594  1.5264
 1134TIP3    H2 3367   0.419   4.606   5.835 -0.6634  2.2961  1.6396
 1135TIP3   OH2 3368   1.334   5.936   0.544 -0.6000 -0.0923 -0.2175
 1135TIP3    H1 3369   1.386   5.902   0.617 -0.0879  0.3282 -0.3872
 1135TIP3    H2 3370   1.365   6.025   0.531 -0.4489 -0.2789 -1.1769
 1136TIP3   OH2 3371   1.475   3.133   1.805  0.5046  0.4794 -0.0450
 1136TIP3    H1 3372   1.499   3.041   1.804 -1.6770 -0.1887  1.4448
 1136TIP3    H2 3373   1.451   3.153   1.714  1.7721 -0.1738 -0.5284
 1137TIP3   OH2 3374   4.881   2.113   4.875  0.4417  0.2299  0.2644
 1137TIP3    H1 3375   4.878   2.021   4.902  0.3313 -0.0896 -0.7911
 1137TIP3    H2 3376   4.975   2.132   4.864  0.3956 -0.4737 -1.7802
 1138TIP3   OH2 3377   1.273   6.172   4.679 -0.4000 -0.7373  0.4763
 1138TIP3    H1 3378   1.356   6.134   4.649 -0.9575 -3.0387  1.6372
 1138TIP3    H2 3379   1.217   6.172   4.602 -0.1556 -1.6743  0.2882
 1139TIP3   OH2 3380   5.579   3.144   3.192  0.5535  0.0788  0.3514
 1139TIP3    H1 3381   5.558   3.237   3.195  0.1572  0.0972 -1.7658
 1139TIP3    H2 3382   5.665   3.140   3.151 -0.2732 -0.5338 -1.4292
 1140TIP3   OH2 3383   2.117   1.551   5.370 -0.4945  0.1782 -0.1070
 1140TIP3    H1 3384   2.205   1.587   5.369 -0.6805  0.6260 -0.3309
 1140TIP3    H2 3385   2.123   1.475   5.429  0.1201 -0.0157 -0.4158
 1141TIP3   OH2 3386   0.063   6.556   1.425  0.0839 -0.4555 -0.0146
 1141TIP3    H1 3387   0.093   6.603   1.502 -0.4250 -2.1349  1.2918
 1141TIP3    H2 3388  -0.024   6.591   1.408  0.5407  0.5275 -0.3758
 1142TIP3   OH2 3389   2.738   6.134   0.761 -0.0419 -0.3229 -0.3130
 1142TIP3    H1 3390   2.770   6.085   0.838  0.5686 -0.0787 -0.4014
 1142TIP3    H2 3391   2.652   6.098   0.744 -0.4425  0.0169  0.8542
 1143TIP3   OH2 3392   0.371   6.188   2.890 -0.1984 -0.2657 -0.3525
 1143TIP3    H1 3393   0.387   6.121   2.824 -0.7623 -0.8610  0.0997
 1143TIP3    H2 3394   0.288   6.163   2.930 -0.2500  0.5207  0.0561
 1144TIP3   OH2 3395   1.140   6.603   0.915 -0.1093 -0.2161  0.6654
 1144TIP3    H1 3396   1.197   6.526   0.919  0.2853  0.0143 -0.2373
 1144TIP3    H2 3397   1.158   6.650   0.997  0.0398 -0.8128  0.9770
 1145TIP3   OH2 3398   1.803   3.612   2.046  0.2211  0.4176  0.6244
 1145TIP3    H1 3399   1.837   3.641   2.131 -0.3524 -0.7423  1.2705
 1145TIP3    H2 3400   1.805   3.691   1.992 -0.1858  1.3880  1.9621
 1146TIP3   OH2 3401   2.429   1.087   1.188  0.0445 -0.8507 -0.4831
 1146TIP3    H1 3402   2.438   1.170   1.141 -0.4462 -0.9875 -0.8365
 1146TIP3    H2 3403   2.494   1.029   1.148  1.8220 -0.0727  1.1236
 1147TIP3   OH2 3404   4.248   3.939   5.808  0.3338 -0.2717 -0.2554
 1147TIP3    H1 3405   4.338   3.907   5.803  0.5499  0.4994 -2.4297
 1147TIP3    H2 3406   4.197   3.875   5.758  0.0247  0.3540 -0.7576
 1148TIP3   OH2 3407   4.439   6.112   2.328 -0.6213  0.0432 -0.0349
 1148TIP3    H1 3408   4.384   6.189   2.345  0.3439  1.0888 -1.4444
 1148TIP3    H2 3409   4.390   6.039   2.367 -2.4415  1.0984 -0.2067
 1149TIP3   OH2 3410   6.139   4.811   0.343  0.7995 -0.1064  0.2016
 1149TIP3    H1 3411   6.099   4.756   0.275 -1.4522  1.3631  0.2607
 1149TIP3    H2 3412   6.233   4.793   0.335  0.4213 -1.5279 -1.9041
 1150TIP3   OH2 3413   0.327   4.442   5.504  0.5387 -0.2761 -0.1598
 1150TIP3    H1 3414   0.269   4.456   5.429  0.5265 -0.7184 -0.2389
 1150TIP3    H2 3415   0.303   4.510   5.566 -0.2935 -0.6486 -0.0601
 1151TIP3   OH2 3416   1.893   2.571   5.478 -0.8468 -0.2581 -0.3107
 1151TIP3    H1 3417   1.931   2.505   5.536  1.6562  0.0384 -1.4675
 1151TIP3    H2 3418   1.896   2.531   5.392  0.9201  1.3311 -1.0672
 1152TIP3   OH2 3419   1.350   6.126   1.926  0.0743 -0.3306  0.0434
 1152TIP3    H1 3420   1.255   6.125   1.939  0.1391 -1.1080  0.5284
 1152TIP3    H2 3421   1.370   6.216   1.898 -0.8052 -0.1751 -0.1090
 1153TIP3   OH2 3422   1.246   6.424   3.036 -0.2928 -0.1463 -0.0892
 1153TIP3    H1 3423   1.246   6.500   2.979  2.6474 -0.3949 -0.5776
 1153TIP3    H2 3424   1.322   6.436   3.093 -1.2154 -1.5262  1.5411
 1154TIP3   OH2 3425   4.078   4.299   1.993  0.2328  0.4405 -0.6330
 1154TIP3    H1 3426   4.041   4.347   2.066  1.4099 -0.6185  0.7206
 1154TIP3    H2 3427   4.143   4.359   1.956  1.0458  0.2670  0.4677
 1155TIP3   OH2 3428   4.610   1.294   0.520 -0.5799  0.2565 -0.3167
 1155TIP3    H1 3429   4.601   1.200   0.504 -0.8727  0.0406  1.0101
 1155TIP3    H2 3430   4.658   1.300   0.603 -2.7345  1.2011  0.9425
 1156TIP3   OH2 3431   6.803   2.199   1.231 -0.6150 -0.0898  0.2669
 1156TIP3    H1 3432   6.736   2.131   1.219  1.1537 -2.1760  1.5215
 1156TIP3    H2 3433   6.886   2.151   1.231  0.8032  2.2439  0.1416
 1157TIP3   OH2 3434   0.249   1.527   1.307  0.3761 -0.8514  0.1012
 1157TIP3    H1 3435   0.167   1.576   1.307  0.3089 -0.9426  1.2949
 1157TIP3    H2 3436   0.265   1.508   1.215 -1.1733 -1.2193 -0.1245
 1158TIP3   OH2 3437   3.490   4.958   0.922  0.3960 -0.0155  0.4103
 1158TIP3    H1 3438   3.495   4.990   1.012  0.6911 -0.3134  0.5036
 1158TIP3    H2 3439   3.582   4.956   0.893  0.2981  0.1180  0.0913
 1159TIP3   OH2 3440   0.643   6.279   3.839 -0.1916 -0.4208 -0.3415
 1159TIP3    H1 3441   0.563   6.283   3.787 -0.1179  0.9968 -0.3629
 1159TIP3    H2 3442   0.683   6.195   3.814 -1.3867 -0.8928 -0.7312
 1160TIP3   OH2 3443   3.045   4.227   2.995 -0.6213  0.5186  0.0568
 1160TIP3    H1 3444   3.111   4.189   2.938 -0.0489  1.1060  0.3205
 1160TIP3    H2 3445   3.094   4.279   3.058 -1.2346 -0.1308  1.1107
 1161TIP3   OH2 3446   4.092   6.060   4.411 -0.3378 -0.5059  0.1479
 1161TIP3    H1 3447   4.170   6.074   4.358 -1.2861 -1.4107 -1.5730
 1161TIP3    H2 3448   4.020   6.053   4.347 -1.8160  0.1673  1.6538
 1162TIP3   OH2 3449   0.277   5.894   3.073 -0.4507 -0.2362  0.1463
 1162TIP3    H1 3450   0.362   5.936   3.083  0.3973 -1.9016  0.1256
 1162TIP3    H2 3451   0.286   5.838   2.996 -1.5223 -0.5715  0.2417
 1163TIP3   OH2 3452   2.913   1.436   2.647 -0.2830  0.6712 -0.1562
 1163TIP3    H1 3453   2.859   1.469   2.719 -0.6232  1.9063 -0.9337
 1163TIP3    H2 3454   2.887   1.345   2.637 -0.3444  0.5242  1.1720
 1164TIP3   OH2 3455   0.466   4.834   2.073 -0.0198 -0.0082 -0.2641
 1164TIP3    H1 3456   0.415   4.826   2.154  1.0788 -1.8172  0.2931
 1164TIP3    H2 3457   0.557   4.829   2.102  0.4854  1.6346 -1.4108
 1165TIP3   OH2 3458   3.807   5.847   0.515  0.5187 -0.4860 -0.2767
 1165TIP3    H1 3459   3.811   5.887   0.429  2.1559 -0.6192 -0.2832
 1165TIP3    H2 3460   3.854   5.907   0.572 -3.5400  1.5112  1.3910
 1166TIP3   OH2 3461   1.925   1.474   2.727 -0.2389 -0.1388  0.1847
 1166TIP3    H1 3462   1.970   1.453   2.645  0.3497  0.6595  0.2877
 1166TIP3    H2 3463   1.832   1.464   2.707 -0.0434 -1.8121 -0.0427
 1167TIP3   OH2 3464   4.810   5.532   4.534 -0.4042 -0.2109 -0.0575
 1167TIP3    H1 3465   4.900   5.522   4.566 -0.2650 -1.2565 -0.7408
 1167TIP3    H2 3466   4.766   5.450   4.559 -0.4957 -0.7441 -1.8148
 1168TIP3   OH2 3467   4.315   5.417   0.318 -0.4024  0.3899 -0.5475
 1168TIP3    H1 3468   4.240   5.443   0.265  0.1309  0.7340 -1.1502
 1168TIP3    H2 3469   4.391   5.452   0.271  0.1987 -0.6692 -0.4064
 1169TIP3   OH2 3470   5.910   0.828   4.670 -0.4706  0.3298 -0.0727
 1169TIP3    H1 3471   5.854   0.881   4.728 -0.4555  1.6526 -1.1934
 1169TIP3    H2 3472   5.916   0.880   4.590  0.3171 -0.9838 -0.9000
 1170TIP3   OH2 3473   4.682   2.668   5.548  0.0400 -0.1639  0.3623
 1170TIP3    H1 3474   4.746   2.663   5.477  0.5703 -0.5438  0.8565
 1170TIP3    H2 3475   4.734   2.668   5.628 -0.4885  1.6463  0.7424
 1171TIP3   OH2 3476   2.708   3.249   5.091 -0.2208 -0.3729 -0.2256
 1171TIP3    H1 3477   2.668   3.187   5.030  1.6850 -0.4000 -1.5626
 1171TIP3    H2 3478   2.787   3.204   5.121 -0.1804  0.3879  0.8434
 1172TIP3   OH2 3479   1.113   4.158   2.888 -0.1547  0.2672  0.0242
 1172TIP3    H1 3480   1.057   4.116   2.953 -0.2690  0.9842  0.4102
 1172TIP3    H2 3481   1.052   4.188   2.820  0.0594 -1.3148 -0.9202
 1173TIP3   OH2 3482   4.222   2.958   0.809  0.6213 -0.2381  0.1227
 1173TIP3    H1 3483   4.240   2.932   0.719 -0.0552 -2.0110  0.4708
 1173TIP3    H2 3484   4.141   3.008   0.803  0.2844 -0.8119 -0.1954
 1174TIP3   OH2 3485   0.337   2.565   0.710  0.0832 -0.1173 -0.2386
 1174TIP3    H1 3486   0.339   2.508   0.787 -0.2377  1.0165  0.6422
 1174TIP3    H2 3487   0.306   2.509   0.639 -1.2107 -0.8041  0.8141
 1175TIP3   OH2 3488   5.382   0.150   2.336 -0.3931  0.4768 -0.2675
 1175TIP3    H1 3489   5.351   0.068   2.373 -0.9901  1.0240  0.4629
 1175TIP3    H2 3490   5.330   0.162   2.257 -2.2230  1.4472  1.0058
 1176TIP3   OH2 3491   4.923   6.110   5.391  0.0510 -0.4935  0.5602
 1176TIP3    H1 3492   4.903   6.172   5.461 -1.1003 -1.5213  1.1819
 1176TIP3    H2 3493   5.009   6.075   5.413  2.1768  2.9593 -1.3765
 1177TIP3   OH2 3494   3.641   5.859   5.016  0.5827 -0.6067  0.2689
 1177TIP3    H1 3495   3.593   5.804   4.954  0.2411 -1.1522  1.0040
 1177TIP3    H2 3496   3.598   5.843   5.100  0.0828  1.2453  0.4040
 1178TIP3   OH2 3497   4.505   1.512   1.987 -0.3010 -0.3609 -0.7481
 1178TIP3    H1 3498   4.426   1.461   1.972 -0.0806 -0.7970 -0.4301
 1178TIP3    H2 3499   4.554   1.463   2.054 -0.4737  0.6668  0.1619
 1179TIP3   OH2 3500   4.631   1.844   4.744  0.1729  0.2614  0.4140
 1179TIP3    H1 3501   4.596   1.758   4.769  1.6341 -0.5130 -0.0593
 1179TIP3    H2 3502   4.565   1.906   4.773 -1.7722 -1.1303 -0.7538
 1180TIP3   OH2 3503   3.681   3.367   4.203 -0.1432  0.2285 -0.0773
 1180TIP3    H1 3504   3.735   3.292   4.227  0.2062  0.1873 -0.9640
 1180TIP3    H2 3505   3.684   3.424   4.280  1.4579  0.3932 -0.2321
 1181TIP3   OH2 3506   1.499   0.290   4.321 -0.2637  0.0091  0.0391
 1181TIP3    H1 3507   1.483   0.373   4.366 -1.1516 -0.1207 -0.0184
 1181TIP3    H2 3508   1.414   0.247   4.319  0.1357 -0.7950 -0.1586
 1182TIP3   OH2 3509   6.346   6.453   1.531  0.1453 -0.5895 -0.0710
 1182TIP3    H1 3510   6.348   6.453   1.435 -0.5072 -0.9062 -0.0886
 1182TIP3    H2 3511   6.435   6.478   1.556  0.5242 -1.1756 -0.7608
 1183TIP3   OH2 3512   5.184   2.732   0.248 -0.2472 -0.0309  0.2251
 1183TIP3    H1 3513   5.216   2.779   0.171  0.5483 -0.6300  0.1779
 1183TIP3    H2 3514   5.178   2.800   0.316 -2.2337  0.7782 -0.6796
 1184TIP3   OH2 3515   6.193   6.517   5.465  0.2978 -0.3158 -0.3525
 1184TIP3    H1 3516   6.138   6.567   5.525 -0.4852 -0.9636 -0.5147
 1184TIP3    H2 3517   6.169   6.549   5.378  2.0023  1.1994 -0.3346
 1185TIP3   OH2 3518   1.290   4.988   4.038 -0.3290  0.4129  0.3359
 1185TIP3    H1 3519   1.198   4.993   4.062 -0.7229 -0.0674 -1.0155
 1185TIP3    H2 3520   1.316   4.898   4.059 -0.5541  0.1281 -0.5655
 1186TIP3   OH2 3521   3.447   3.973   2.775 -0.6455  0.2051  0.1892
 1186TIP3    H1 3522   3.421   3.889   2.737 -1.5041  0.3629  0.3957
 1186TIP3    H2 3523   3.494   3.951   2.855  1.5268 -0.1517 -1.0980
 1187TIP3   OH2 3524   1.473   6.615   4.223 -0.2320  0.1942  0.1835
 1187TIP3    H1 3525   1.414   6.540   4.226  0.2377 -0.1926 -0.0247
 1187TIP3    H2 3526   1.426   6.685   4.267 -0.8856 -0.0797 -0.0645
 1188TIP3   OH2 3527   4.940   4.259   3.009  0.4338  0.0581  0.3249
 1188TIP3    H1 3528   4.869   4.196   3.014  0.9532 -0.5823 -0.1495
 1188TIP3    H2 3529   4.969   4.270   3.100 -0.5802  0.7049  0.5852
 1189TIP3   OH2 3530   6.874   5.959   5.085  0.6135 -0.1087 -0.3606
 1189TIP3    H1 3531   6.828   5.950   5.168  0.3714 -1.3959 -0.6162
 1189TIP3    H2 3532   6.964   5.934   5.104  0.6790  0.1216 -0.3674
 1190TIP3   OH2 3533   4.698   0.688   3.301  0.2523 -0.0174  0.3942
 1190TIP3    H1 3534   4.766   0.623   3.283  1.2367  1.3764 -1.3228
 1190TIP3    H2 3535   4.616   0.639   3.300  0.7704 -1.0479 -2.5662
 1191TIP3   OH2 3536   6.376   0.216   0.495 -0.1997  0.1485  0.0545
 1191TIP3    H1 3537   6.455   0.264   0.519  0.5070 -0.6171 -0.6819
 1191TIP3    H2 3538   6.304   0.272   0.523  0.5948  0.6433  1.1811
 1192TIP3   OH2 3539   2.485   3.807   2.095 -0.3415  0.0756 -0.1856
 1192TIP3    H1 3540   2.496   3.891   2.052 -1.6857 -0.2729 -1.2737
 1192TIP3    H2 3541   2.423   3.759   2.040  1.8644 -2.4139 -0.7001
 1193TIP3   OH2 3542   4.654   0.062   3.906  0.3220  0.2115  0.6972
 1193TIP3    H1 3543   4.711   0.139   3.900  0.7973 -0.1661  0.2945
 1193TIP3    H2 3544   4.567   0.098   3.919  0.1392  0.9266 -1.9363
 1194TIP3   OH2 3545   5.654   5.081   5.571  0.2220  0.3242 -0.4321
 1194TIP3    H1 3546   5.700   5.079   5.487 -1.6149  1.4167 -1.5490
 1194TIP3    H2 3547   5.687   5.160   5.614  0.6383  0.1586 -0.4399
 1195TIP3   OH2 3548   2.058   1.886   2.003  0.0419  0.2779 -0.1140
 1195TIP3    H1 3549   2.153   1.887   2.011  0.0167  1.2933  0.2456
 1195TIP3    H2 3550   2.032   1.800   2.036  0.8318 -0.0501 -0.3116
 1196TIP3   OH2 3551   0.472   2.271   5.564  0.1649 -0.3674  0.4910
 1196TIP3    H1 3552   0.437   2.194   5.610 -0.8595  0.1655  0.6169
 1196TIP3    H2 3553   0.406   2.339   5.576  1.1677  0.6246  0.6008
 1197TIP3   OH2 3554   4.420   1.865   1.408  0.1348 -0.2199  0.4257
 1197TIP3    H1 3555   4.378   1.942   1.446  0.2990 -0.8353  1.9620
 1197TIP3    H2 3556   4.367   1.791   1.439  0.6298 -0.7973 -0.0717
 1198TIP3   OH2 3557   6.110   4.054   2.529  0.2237 -0.5501 -1.0173
 1198TIP3    H1 3558   6.177   4.006   2.579  1.6460 -1.0051 -3.2155
 1198TIP3    H2 3559   6.034   3.995   2.529 -0.3532  0.0516  1.6653
 1199TIP3   OH2 3560   4.805   2.457   0.707  0.0653 -0.0435 -0.1967
 1199TIP3    H1 3561   4.726   2.465   0.761  0.7115 -0.5462  0.8496
 1199TIP3    H2 3562   4.822   2.363   0.703  0.6736  0.0662 -0.3166
 1200TIP3   OH2 3563   2.519   3.791   0.159  0.0181 -0.0193 -0.4987
 1200TIP3    H1 3564   2.480   3.720   0.210 -0.3669  0.2381 -0.4308
 1200TIP3    H2 3565   2.580   3.833   0.220 -0.0763 -0.0174 -0.4059
 1201TIP3   OH2 3566   2.857   2.130   4.522 -0.4379 -0.0707  0.4174
 1201TIP3    H1 3567   2.814   2.197   4.469 -0.8744 -1.7021 -1.4054
 1201TIP3    H2 3568   2.938   2.111   4.476 -0.3066 -0.7805  0.9172
 1202TIP3   OH2 3569   6.535   6.387   3.263 -0.0148 -0.5382  0.1416
 1202TIP3    H1 3570   6.574   6.445   3.329 -0.5970 -0.0085  0.0211
 1202TIP3    H2 3571   6.610   6.344   3.222  0.3415 -1.2533  1.4858
 1203TIP3   OH2 3572   5.940   2.768   4.900 -0.5249 -0.6926 -0.4576
 1203TIP3    H1 3573   5.931   2.728   4.814 -0.7909  1.9911 -1.7910
 1203TIP3    H2 3574   5.857   2.750   4.944 -0.2832 -2.3164 -0.6061
 1204TIP3   OH2 3575   0.918   6.357   0.083  1.2385  0.6373  0.1125
 1204TIP3    H1 3576   0.828   6.370   0.115 -0.6002  0.7648 -4.4098
 1204TIP3    H2 3577   0.928   6.262   0.078  0.0555  0.5658 -2.1830
 1205TIP3   OH2 3578   3.176   0.376   4.499 -0.6282  0.5988 -0.0761
 1205TIP3    H1 3579   3.106   0.341   4.444  0.8348  0.1835 -1.7627
 1205TIP3    H2 3580   3.245   0.309   4.495 -0.6726  0.2604  2.8123
 1206TIP3   OH2 3581   3.617   1.137   1.702  0.0073  0.1208  0.1151
 1206TIP3    H1 3582   3.600   1.115   1.611 -1.0351 -0.3315  0.4063
 1206TIP3    H2 3583   3.537   1.181   1.731 -0.0681 -0.6359  1.0873
 1207TIP3   OH2 3584   6.039   0.038   2.535 -0.2115  0.2776  0.5474
 1207TIP3    H1 3585   5.947   0.048   2.559  0.0177  2.6690  0.6568
 1207TIP3    H2 3586   6.042   0.063   2.443 -0.0158 -2.2939 -0.2148
 1208TIP3   OH2 3587   5.006   0.909   3.899  0.4035  0.1606  0.0814
 1208TIP3    H1 3588   4.933   0.935   3.954 -0.4176  0.6523 -1.2022
 1208TIP3    H2 3589   5.023   0.818   3.923 -1.1939 -0.2373 -0.1866
 1209TIP3   OH2 3590   5.311   3.264   3.457 -0.1091  0.0513 -0.4147
 1209TIP3    H1 3591   5.390   3.296   3.414 -0.4032  0.3561 -0.7378
 1209TIP3    H2 3592   5.298   3.323   3.531  0.4794 -0.5624  0.1895
 1210TIP3   OH2 3593   5.861   6.811   4.036  0.1472 -0.1358  0.1261
 1210TIP3    H1 3594   5.855   6.809   4.132  0.0989 -0.0922  0.1234
 1210TIP3    H2 3595   5.917   6.736   4.014 -3.1436 -2.7726 -0.0903
 1211TIP3   OH2 3596   4.262   1.803   5.328  0.1976  0.5793 -0.2062
 1211TIP3    H1 3597   4.264   1.708   5.326  2.8419  0.4715  1.6012
 1211TIP3    H2 3598   4.328   1.830   5.263  0.4168  1.0956  0.2167
 1212TIP3   OH2 3599   2.801   1.582   0.986 -0.4361  0.2380  0.2390
 1212TIP3    H1 3600   2.857   1.655   0.959 -0.4461 -0.8456 -3.2235
 1212TIP3    H2 3601   2.843   1.504   0.948 -2.7634 -0.9567 -0.0571
 1213TIP3   OH2 3602   3.443   2.663   2.452 -0.3982  0.0285 -0.0192
 1213TIP3    H1 3603   3.512   2.700   2.397  0.6236 -0.0173  1.1960
 1213TIP3    H2 3604   3.469   2.572   2.466 -1.8295 -0.6274 -1.2826
 1214TIP3   OH2 3605   1.792   2.713   3.274 -0.1503 -0.9377  0.1507
 1214TIP3    H1 3606   1.716   2.656   3.288 -0.9961 -0.1891 -1.1380
 1214TIP3    H2 3607   1.755   2.800   3.263  0.9011 -0.5400 -0.4071
 1215TIP3   OH2 3608   4.780   0.253   5.862 -0.4778 -0.0854 -0.1870
 1215TIP3    H1 3609   4.769   0.304   5.782 -0.6882 -1.9338 -1.3859
 1215TIP3    H2 3610   4.873   0.261   5.883 -0.4900  0.7023 -0.4070
 1216TIP3   OH2 3611   2.700   1.754   2.494 -0.6576 -0.1555  0.4575
 1216TIP3    H1 3612   2.683   1.829   2.551  1.0932 -0.8393  1.9849
 1216TIP3    H2 3613   2.762   1.788   2.429 -1.7953  0.3346 -0.4004
 1217TIP3   OH2 3614   3.341   0.352   2.448  0.2567  0.2025  0.3163
 1217TIP3    H1 3615   3.304   0.350   2.359  1.9297 -0.8655 -0.4073
 1217TIP3    H2 3616   3.378   0.440   2.456  0.5821  0.1332 -0.2869
 1218TIP3   OH2 3617  -0.007   2.602   2.637  0.1781 -0.0744  0.0286
 1218TIP3    H1 3618   0.029   2.681   2.676 -1.1540 -0.6534  2.6242
 1218TIP3    H2 3619   0.020   2.531   2.696 -0.8175 -1.1935 -0.7954
 1219TIP3   OH2 3620   6.995   2.128   2.756 -0.1873  0.3899 -0.4436
 1219TIP3    H1 3621   7.027   2.149   2.668  0.7234 -0.5470 -0.3593
 1219TIP3    H2 3622   6.913   2.080   2.741  0.4026 -0.5355 -0.8442
 1220TIP3   OH2 3623   2.298   4.932   3.812  0.5348 -0.2865  0.3004
 1220TIP3    H1 3624   2.267   4.861   3.869 -0.4521 -1.1141 -1.2168
 1220TIP3    H2 3625   2.339   4.888   3.738 -0.9273  0.6693 -1.1488
 1221TIP3   OH2 3626   2.932   1.184   0.778  0.0769 -0.1105 -0.0031
 1221TIP3    H1 3627   2.933   1.242   0.853  0.0491 -1.1394  0.8201
 1221TIP3    H2 3628   2.963   1.100   0.812 -0.9909 -0.8967 -0.8742
 1222TIP3   OH2 3629   4.953   4.969   3.526 -0.1663 -0.4100  0.4413
 1222TIP3    H1 3630   5.048   4.959   3.531  0.0930  2.0659  1.7871
 1222TIP3    H2 3631   4.939   5.060   3.501 -2.1823 -0.4609  1.1470
 1223TIP3   OH2 3632   6.655   1.545   4.748 -0.1361  0.2344 -0.3432
 1223TIP3    H1 3633   6.735   1.591   4.771  0.4872  0.1260 -2.1160
 1223TIP3    H2 3634   6.670   1.515   4.658 -2.2636  0.4379 -0.8137
 1224TIP3   OH2 3635   3.718   0.830   2.431 -0.3023 -0.2249 -0.4802
 1224TIP3    H1 3636   3.671   0.910   2.405  0.8492  0.1893 -1.4055
 1224TIP3    H2 3637   3.652   0.762   2.430 -1.2685  0.6760  0.1087
 1225TIP3   OH2 3638   2.622   4.840   5.424 -0.1753  0.0542  0.0516
 1225TIP3    H1 3639   2.572   4.829   5.505 -1.9962  0.1868 -0.9754
 1225TIP3    H2 3640   2.631   4.934   5.414  1.0369  0.0141  0.6401
 1226TIP3   OH2 3641   5.229   1.748   5.602 -0.0681  0.2300 -0.1755
 1226TIP3    H1 3642   5.276   1.696   5.668  0.9124  0.9636 -0.2647
 1226TIP3    H2 3643   5.281   1.827   5.593 -1.1876  0.9502 -0.5143
 1227TIP3   OH2 3644   2.155   1.092   4.539  0.8278 -0.3825  0.2492
 1227TIP3    H1 3645   2.216   1.093   4.465  0.3010 -0.6830 -0.1987
 1227TIP3    H2 3646   2.070   1.073   4.500  0.5804 -0.7944  0.9654
 1228TIP3   OH2 3647   0.838   5.950   2.788 -0.5838 -0.4220  0.1371
 1228TIP3    H1 3648   0.889   5.887   2.840 -1.5894 -0.7943  0.6859
 1228TIP3    H2 3649   0.896   6.027   2.782 -0.2572 -0.5295  1.4545
 1229TIP3   OH2 3650   1.291   1.623   2.170  0.0006  0.5097 -0.5650
 1229TIP3    H1 3651   1.290   1.590   2.080 -2.2455 -2.5271  0.4119
 1229TIP3    H2 3652   1.370   1.586   2.208 -0.2538 -0.1632 -0.6752
 1230TIP3   OH2 3653   6.235   4.803   2.019  0.1602  0.2793 -0.2700
 1230TIP3    H1 3654   6.236   4.894   2.049 -1.7188 -0.3183  1.9608
 1230TIP3    H2 3655   6.313   4.794   1.964  0.9401  2.9506  0.2656
 1231TIP3   OH2 3656   2.751   3.523   0.287  0.2983 -0.4440  0.7073
 1231TIP3    H1 3657   2.782   3.598   0.338  1.0230 -0.7183  0.6873
 1231TIP3    H2 3658   2.831   3.482   0.253 -0.0726 -1.3000  0.8268
 1232TIP3   OH2 3659   6.014   4.536   0.292  0.5770 -0.5047 -0.6779
 1232TIP3    H1 3660   5.976   4.592   0.225  0.6844 -1.2099 -1.3400
 1232TIP3    H2 3661   5.949   4.466   0.304  0.5416 -0.3615 -0.0180
 1233TIP3   OH2 3662   2.889   3.737   4.113  0.5115  0.0943  0.0080
 1233TIP3    H1 3663   2.936   3.820   4.117  0.8216  0.0654 -2.0674
 1233TIP3    H2 3664   2.886   3.715   4.020 -0.1296 -1.9076  0.4451
 1234TIP3   OH2 3665   1.415   5.376   3.157 -0.7957  0.2437  0.1281
 1234TIP3    H1 3666   1.370   5.362   3.074 -1.4629  0.1917  0.4913
 1234TIP3    H2 3667   1.422   5.471   3.164 -1.4573  0.2777  0.3846
 1235TIP3   OH2 3668   3.650   4.574   3.418 -0.1710 -0.1704  0.2161
 1235TIP3    H1 3669   3.688   4.659   3.438  1.0163 -0.7044  0.3372
 1235TIP3    H2 3670   3.652   4.527   3.501  1.7180 -1.2420 -0.3704
 1236TIP3   OH2 3671   1.341   5.854   5.448  0.0376 -0.5340 -0.3022
 1236TIP3    H1 3672   1.363   5.797   5.522  0.2789  0.3527  0.3160
 1236TIP3    H2 3673   1.346   5.942   5.484 -1.1677 -0.1530 -1.0281
 1237TIP3   OH2 3674   2.526   2.719   3.988  0.0712 -0.5243  0.4300
 1237TIP3    H1 3675   2.450   2.771   4.015  1.7584  2.1743  0.4332
 1237TIP3    H2 3676   2.516   2.709   3.894 -0.1753  0.0230  0.3923
 1238TIP3   OH2 3677   2.193   2.107   1.868  0.3394  0.3514  0.0929
 1238TIP3    H1 3678   2.139   2.186   1.862  1.6968  1.5614  2.3576
 1238TIP3    H2 3679   2.145   2.041   1.819 -0.5588  2.7204 -2.4532
 1239TIP3   OH2 3680   5.727   0.168   5.687  0.1883 -0.1622 -0.1134
 1239TIP3    H1 3681   5.680   0.217   5.755 -0.9729 -0.3376 -0.7648
 1239TIP3    H2 3682   5.703   0.211   5.605 -1.2754 -2.0611 -0.7591
 1240TIP3   OH2 3683   5.237   2.778   4.680  0.1814 -0.4355 -0.9402
 1240TIP3    H1 3684   5.204   2.850   4.733  1.2942  0.4356 -1.3813
 1240TIP3    H2 3685   5.258   2.709   4.743 -0.6351 -0.2730 -0.4885
 1241TIP3   OH2 3686   0.232   0.215   2.952  0.1304  0.0977 -0.6692
 1241TIP3    H1 3687   0.280   0.240   2.873 -1.1213  1.9893 -0.8910
 1241TIP3    H2 3688   0.165   0.154   2.922  1.0527 -0.9706 -0.6619
 1242TIP3   OH2 3689   4.663   0.534   0.459 -0.5804 -0.0498  0.5071
 1242TIP3    H1 3690   4.720   0.517   0.534  0.5309 -1.7056 -0.6312
 1242TIP3    H2 3691   4.722   0.534   0.383 -1.9090 -0.4720 -0.5769
 1243TIP3   OH2 3692   3.841   4.782   0.273 -0.2240 -0.0824  0.1661
 1243TIP3    H1 3693   3.864   4.874   0.289  1.4579 -0.8240  2.5342
 1243TIP3    H2 3694   3.860   4.769   0.180 -0.8956  2.0305 -0.3374
 1244TIP3   OH2 3695   2.295   6.478   4.819 -0.3351 -0.0606  0.1569
 1244TIP3    H1 3696   2.306   6.471   4.725 -0.2606 -0.8067  0.2127
 1244TIP3    H2 3697   2.368   6.428   4.856 -1.2358 -1.1183  0.5826
 1245TIP3   OH2 3698   5.627   1.870   4.473 -0.2805 -0.0667  0.1839
 1245TIP3    H1 3699   5.605   1.778   4.486  0.9051 -0.8142 -2.3857
 1245TIP3    H2 3700   5.657   1.900   4.559  0.6489 -2.4887  0.7908
 1246TIP3   OH2 3701   5.454   3.007   2.611 -0.2893 -0.0616  0.6050
 1246TIP3    H1 3702   5.462   3.031   2.704 -1.4902 -0.9105  0.9584
 1246TIP3    H2 3703   5.423   2.916   2.613  0.3653 -0.3272 -0.6463
 1247TIP3   OH2 3704   6.542   5.302   0.208  0.5677 -0.3470 -0.6787
 1247TIP3    H1 3705   6.583   5.343   0.131  2.4677  2.9944  1.8551
 1247TIP3    H2 3706   6.468   5.359   0.229  1.2373 -0.0298  0.9985
 1248TIP3   OH2 3707   0.648   4.404   3.291  0.1409 -0.7260  0.6338
 1248TIP3    H1 3708   0.641   4.497   3.312 -2.2188 -0.6336 -0.2651
 1248TIP3    H2 3709   0.614   4.397   3.202  1.5754 -2.3040  0.1489
 1249TIP3   OH2 3710   5.097   1.247   0.211 -0.2125 -0.0268 -0.5528
 1249TIP3    H1 3711   5.100   1.313   0.141  0.2203 -0.4513 -0.9473
 1249TIP3    H2 3712   5.189   1.237   0.237 -0.5198  1.2651  1.1756
 1250TIP3   OH2 3713   0.705   5.147   1.903  0.0146 -0.5050 -0.0041
 1250TIP3    H1 3714   0.738   5.156   1.992  0.0603 -2.3819  0.2211
 1250TIP3    H2 3715   0.745   5.066   1.871  0.2104  0.2607 -1.8425
 1251TIP3   OH2 3716   1.834   0.380   3.717 -0.4497  0.1332  0.2630
 1251TIP3    H1 3717   1.766   0.313   3.721 -1.0575  0.7292  0.2281
 1251TIP3    H2 3718   1.799   0.445   3.655 -0.4599  1.0982  1.2582
 1252TIP3   OH2 3719   0.960   5.289   3.112 -0.1450  0.4945  0.1046
 1252TIP3    H1 3720   0.867   5.303   3.128 -0.3023 -0.1951 -0.1820
 1252TIP3    H2 3721   0.973   5.195   3.124  0.6808  0.6923  0.9632
 1253TIP3   OH2 3722   1.592   3.826   5.556 -0.0132  0.0709  0.0472
 1253TIP3    H1 3723   1.500   3.801   5.559  0.1464 -0.5396 -0.0520
 1253TIP3    H2 3724   1.639   3.743   5.546  0.6052  0.2879  1.0421
 1254TIP3   OH2 3725   1.988   5.245   0.041  0.4302 -0.8676  0.2282
 1254TIP3    H1 3726   2.063   5.264   0.098 -0.8555  0.8215  1.4205
 1254TIP3    H2 3727   1.996   5.307  -0.031  0.5632 -1.1872 -0.0368
 1255TIP3   OH2 3728   3.647   5.896   4.198 -0.5059 -0.2493 -0.1172
 1255TIP3    H1 3729   3.615   5.857   4.279 -0.4732  2.0281  1.0849
 1255TIP3    H2 3730   3.569   5.926   4.153 -0.4282  0.1971  0.0337
 1256TIP3   OH2 3731   1.215   5.930   2.153 -1.2250 -0.3638  0.6652
 1256TIP3    H1 3732   1.184   5.843   2.131  0.9103 -0.9802 -0.2066
 1256TIP3    H2 3733   1.186   5.985   2.081 -0.0804 -1.0023 -0.3304
 1257TIP3   OH2 3734   5.205   6.763   0.080  0.1746 -0.5417 -0.4301
 1257TIP3    H1 3735   5.152   6.801   0.150 -0.3164 -2.2998  0.2169
 1257TIP3    H2 3736   5.293   6.799   0.093 -0.7701  2.4146 -1.5121
 1258TIP3   OH2 3737   4.490   2.546   0.998  0.7528 -0.3033 -0.1739
 1258TIP3    H1 3738   4.448   2.629   0.977  0.7934 -0.7828 -2.3312
 1258TIP3    H2 3739   4.516   2.556   1.090 -1.5938  1.0310  0.4481
 1259TIP3   OH2 3740   6.718   3.275   0.935 -0.1086  0.5578 -0.4759
 1259TIP3    H1 3741   6.707   3.369   0.922  0.0982  0.4729 -1.3244
 1259TIP3    H2 3742   6.739   3.241   0.848  1.7477 -0.0023  0.1585
 1260TIP3   OH2 3743   2.542   3.939   5.095 -0.4877  0.4092 -0.4010
 1260TIP3    H1 3744   2.574   3.849   5.102 -1.3775 -0.0730 -1.9708
 1260TIP3    H2 3745   2.450   3.930   5.071 -0.7770  1.7501  0.1253
 1261TIP3   OH2 3746   3.132   0.506   0.555 -0.1732  0.3491 -0.5058
 1261TIP3    H1 3747   3.099   0.421   0.584  0.6836  0.3793  0.5857
 1261TIP3    H2 3748   3.227   0.500   0.561  0.0115  0.7696 -2.2216
 1262TIP3   OH2 3749   4.559   3.535   4.576  0.1913 -0.5706  0.1990
 1262TIP3    H1 3750   4.603   3.543   4.661 -2.6576 -2.7983  2.0603
 1262TIP3    H2 3751   4.483   3.592   4.583  0.8393  0.6322 -1.6753
 1263TIP3   OH2 3752   6.956   0.966   4.403 -0.3532  0.2436  0.3073
 1263TIP3    H1 3753   6.934   0.956   4.495  0.9795 -1.5076  0.4886
 1263TIP3    H2 3754   6.876   0.998   4.362 -0.4003  3.1224  2.3509
 1264TIP3   OH2 3755   1.149   6.138   4.431  0.4041  0.2968  0.2403
 1264TIP3    H1 3756   1.147   6.074   4.360  2.7320 -0.5955  0.9064
 1264TIP3    H2 3757   1.105   6.215   4.395  1.2504 -0.2215 -2.0737
 1265TIP3   OH2 3758   2.627   2.591   2.586  0.1339 -0.2655 -0.0187
 1265TIP3    H1 3759   2.698   2.640   2.543  0.6489 -1.2345 -0.2940
 1265TIP3    H2 3760   2.549   2.615   2.536  0.1974  1.0306  0.4604
 1266TIP3   OH2 3761   1.924   6.399   3.555 -0.1056  0.0279 -0.0147
 1266TIP3    H1 3762   1.908   6.338   3.627 -1.7701  0.4857  0.0611
 1266TIP3    H2 3763   1.948   6.481   3.599 -1.4171  0.3921  0.0827
 1267TIP3   OH2 3764   6.777   5.881   5.619 -0.1786 -0.0044 -0.6393
 1267TIP3    H1 3765   6.837   5.822   5.573  1.5161  1.0225  0.1483
 1267TIP3    H2 3766   6.764   5.839   5.704 -0.3661 -0.0849 -0.7060
 1268TIP3   OH2 3767   4.710   2.902   1.039  0.6235  0.1293 -0.4698
 1268TIP3    H1 3768   4.641   2.929   1.100  0.7891  0.5070 -0.4434
 1268TIP3    H2 3769   4.674   2.918   0.952 -0.0004 -1.3672 -0.5063
 1269TIP3   OH2 3770   3.952   6.729   1.166 -0.4490 -0.1575  0.0271
 1269TIP3    H1 3771   3.947   6.645   1.211 -2.9621 -0.5527 -0.7921
 1269TIP3    H2 3772   3.966   6.793   1.235  2.8079 -1.2776  0.5357
 1270TIP3   OH2 3773   0.232   5.186   2.931 -0.2387 -0.4550 -0.7037
 1270TIP3    H1 3774   0.156   5.191   2.873 -1.3606 -0.6672  0.7002
 1270TIP3    H2 3775   0.202   5.136   3.006  0.4171  1.8439  1.2078
 1271TIP3   OH2 3776   1.729   2.619   3.723 -0.3461 -0.4999  0.4083
 1271TIP3    H1 3777   1.644   2.664   3.722 -0.5337 -0.8098  1.4885
 1271TIP3    H2 3778   1.766   2.641   3.808 -0.0258 -1.6342  0.5741
 1272TIP3   OH2 3779   3.873   4.080   2.718 -0.5208 -0.5229  0.1124
 1272TIP3    H1 3780   3.848   3.987   2.714 -0.4696 -0.6768  2.1913
 1272TIP3    H2 3781   3.790   4.127   2.722 -0.6998 -0.1370 -4.1402
 1273TIP3   OH2 3782   1.156   0.829   2.502  0.2816  0.5014 -0.3083
 1273TIP3    H1 3783   1.241   0.871   2.500 -0.9988  3.3017  0.1143
 1273TIP3    H2 3784   1.121   0.841   2.414  0.1846 -0.4211 -0.4103
 1274TIP3   OH2 3785   2.870   2.673   0.659 -0.4137 -0.0907 -0.3603
 1274TIP3    H1 3786   2.914   2.591   0.638 -1.4516 -0.4869 -1.0923
 1274TIP3    H2 3787   2.792   2.646   0.708  0.2761  0.6147  1.2274
 1275TIP3   OH2 3788   3.292   6.160   1.804 -0.2887  0.5752  1.1078
 1275TIP3    H1 3789   3.251   6.224   1.745  1.5243 -0.0297 -0.9595
 1275TIP3    H2 3790   3.220   6.103   1.831 -1.5112  2.0302  1.0630
 1276TIP3   OH2 3791   3.648   4.452   2.812  0.0976 -0.1950  0.2303
 1276TIP3    H1 3792   3.656   4.491   2.725  2.4342 -0.7813  0.0991
 1276TIP3    H2 3793   3.712   4.499   2.865  1.4789 -2.3252  0.5949
 1277TIP3   OH2 3794   6.579   1.597   5.679  0.0750 -0.2018  0.4232
 1277TIP3    H1 3795   6.499   1.585   5.628  0.9215 -0.3484 -0.9173
 1277TIP3    H2 3796   6.613   1.682   5.650  1.1070 -0.7603 -0.0555
 1278TIP3   OH2 3797   3.426   1.000   3.986  0.1807 -0.0868  0.0397
 1278TIP3    H1 3798   3.385   0.914   3.981  2.7982 -1.4627  0.5377
 1278TIP3    H2 3799   3.509   0.985   4.032  1.6458  2.3324 -1.5420
 1279TIP3   OH2 3800   5.181   3.163   0.589 -0.4402  0.4000 -0.1009
 1279TIP3    H1 3801   5.141   3.133   0.670 -0.9948  2.1314  0.3075
 1279TIP3    H2 3802   5.112   3.214   0.545 -0.3320 -0.9099 -1.9469
 1280TIP3   OH2 3803   6.667   3.259   3.412  0.3659 -0.6483 -0.5495
 1280TIP3    H1 3804   6.676   3.245   3.318  0.2882 -0.7218 -0.5464
 1280TIP3    H2 3805   6.684   3.352   3.425 -0.2276 -0.5191 -0.7103
 1281TIP3   OH2 3806   1.414   4.894   0.961  0.1250 -0.2822  0.0468
 1281TIP3    H1 3807   1.508   4.899   0.976  0.1078 -1.8120  0.8732
 1281TIP3    H2 3808   1.378   4.968   1.010  0.8336 -0.0980  0.3000
 1282TIP3   OH2 3809   0.799   2.101   0.343 -0.6984 -0.3039 -0.3085
 1282TIP3    H1 3810   0.844   2.101   0.258  3.0020 -1.7534  1.4028
 1282TIP3    H2 3811   0.830   2.181   0.386 -0.6321 -0.7559  0.5026
 1283TIP3   OH2 3812   5.319   5.711   0.722 -0.2075  0.4987  0.3593
 1283TIP3    H1 3813   5.237   5.741   0.762  0.4609  2.9678 -0.0013
 1283TIP3    H2 3814   5.290   5.657   0.648 -1.4595 -0.8275  1.7370
 1284TIP3   OH2 3815   0.838   2.817   1.223  0.1014 -0.3761  0.1126
 1284TIP3    H1 3816   0.843   2.741   1.166 -0.6236 -0.5337  0.2549
 1284TIP3    H2 3817   0.754   2.808   1.268  0.0632  0.4473  0.2163
 1285TIP3   OH2 3818   1.177   3.536   1.944  0.1372  0.8176 -0.0802
 1285TIP3    H1 3819   1.243   3.498   1.886  0.6477  1.4357  0.0807
 1285TIP3    H2 3820   1.164   3.471   2.013  2.2992  1.6229  1.1823
 1286TIP3   OH2 3821   7.091   1.808   3.890  0.1375 -0.1944  0.1842
 1286TIP3    H1 3822   7.096   1.808   3.795 -0.0040  1.9572  0.1284
 1286TIP3    H2 3823   7.165   1.756   3.918  0.7326 -0.0721 -1.1037
 1287TIP3   OH2 3824   0.331   6.259   0.942  0.4058  0.3237  0.3320
 1287TIP3    H1 3825   0.285   6.235   1.022 -1.2232  0.2150 -0.5843
 1287TIP3    H2 3826   0.361   6.349   0.957 -0.8647  0.7148  0.6854
 1288TIP3   OH2 3827   5.838   0.462   5.271  0.1972 -0.2681  0.0513
 1288TIP3    H1 3828   5.815   0.412   5.193 -1.7884  0.8243 -0.1129
 1288TIP3    H2 3829   5.782   0.539   5.269  0.1262 -0.1552  2.5147
 1289TIP3   OH2 3830   1.345   2.363   4.841 -0.1843 -0.1649 -0.1837
 1289TIP3    H1 3831   1.352   2.446   4.889 -0.1292 -0.0801 -0.3387
 1289TIP3    H2 3832   1.300   2.386   4.760 -1.4146 -0.5321  0.3773
 1290TIP3   OH2 3833   2.711   3.382   4.828 -0.2532 -0.3018 -0.1786
 1290TIP3    H1 3834   2.793   3.339   4.851  0.8439  0.8249 -1.7654
 1290TIP3    H2 3835   2.655   3.312   4.793  1.1531 -0.6344 -1.8662
 1291TIP3   OH2 3836   3.615   5.262   2.841  0.2811  0.1300  0.2523
 1291TIP3    H1 3837   3.615   5.180   2.791 -0.6613 -1.5976  2.8575
 1291TIP3    H2 3838   3.694   5.257   2.895  0.7052  1.4216 -0.2182
 1292TIP3   OH2 3839   0.280   6.372   1.739  0.3681  0.4982 -0.0756
 1292TIP3    H1 3840   0.298   6.456   1.698  1.3295  1.0763  1.4604
 1292TIP3    H2 3841   0.366   6.338   1.766  0.0534 -1.1960 -1.0382
 1293TIP3   OH2 3842   1.024   3.803   0.907  0.1738  0.4536  0.4278
 1293TIP3    H1 3843   1.019   3.713   0.940 -0.0025  0.7454  1.2100
 1293TIP3    H2 3844   1.108   3.836   0.940 -1.2140  1.6677  3.0190
 1294TIP3   OH2 3845   3.739   5.398   3.818  0.4271  1.1315 -0.3976
 1294TIP3    H1 3846   3.754   5.492   3.814  1.0418  1.2519  2.7834
 1294TIP3    H2 3847   3.662   5.389   3.874 -0.1104 -0.2817 -1.3038
 1295TIP3   OH2 3848   0.330   6.627   1.666 -0.0228  0.0346 -0.1063
 1295TIP3    H1 3849   0.367   6.672   1.742 -0.8245  0.6154 -0.0421
 1295TIP3    H2 3850   0.353   6.682   1.591  0.9320 -0.6367 -0.3191
 1296TIP3   OH2 3851   6.430   2.218   2.334 -0.2197 -0.0313 -0.1880
 1296TIP3    H1 3852   6.398   2.131   2.357 -0.4486 -0.1562 -0.9383
 1296TIP3    H2 3853   6.408   2.228   2.241 -0.6444  1.0181  0.0087
 1297TIP3   OH2 3854   2.556   1.941   0.974 -0.3714  0.3234 -0.3012
 1297TIP3    H1 3855   2.607   1.927   1.053  1.1886 -2.7923 -1.6856
 1297TIP3    H2 3856   2.470   1.968   1.005  0.4774  0.1890  2.3758
 1298TIP3   OH2 3857   3.404   3.064   5.675  0.0396  0.1301 -0.0366
 1298TIP3    H1 3858   3.427   2.979   5.638  1.4398  1.1726 -1.7088
 1298TIP3    H2 3859   3.483   3.094   5.720  0.0076  1.1332 -0.6239
 1299TIP3   OH2 3860   3.186   6.759   3.990 -0.0496  0.0795  0.2735
 1299TIP3    H1 3861   3.172   6.720   4.077 -0.4344  0.8499  0.5604
 1299TIP3    H2 3862   3.186   6.684   3.931 -0.3432 -0.4077  0.8752
 1300TIP3   OH2 3863   6.775   6.089   0.037  0.5507  0.3486 -0.3303
 1300TIP3    H1 3864   6.759   6.145  -0.039 -2.5790  0.4198  0.2399
 1300TIP3    H2 3865   6.734   6.006   0.015  0.4649  0.0505  0.8930
 1301TIP3   OH2 3866   0.014   3.050   5.183 -0.0482 -0.0765 -0.3836
 1301TIP3    H1 3867   0.044   2.962   5.162  1.5510  0.4300 -0.3633
 1301TIP3    H2 3868  -0.015   3.046   5.274 -0.3168 -0.6476 -0.4911
 1302TIP3   OH2 3869   6.133   3.645   0.839 -0.4527 -0.0813  0.2578
 1302TIP3    H1 3870   6.186   3.639   0.919 -0.0013 -2.4078 -0.1439
 1302TIP3    H2 3871   6.095   3.558   0.829  0.7092 -0.3399 -2.8878
 1303TIP3   OH2 3872   3.013   1.385   0.943  0.2338 -0.6599 -0.5922
 1303TIP3    H1 3873   3.082   1.393   0.878  1.2154 -3.3227 -0.0158
 1303TIP3    H2 3874   3.058   1.393   1.027 -0.4959 -0.3489 -0.2181
 1304TIP3   OH2 3875   1.619   5.406   5.038 -0.0622 -0.5110 -0.0451
 1304TIP3    H1 3876   1.583   5.454   4.963 -0.5697  0.1954  0.6426
 1304TIP3    H2 3877   1.685   5.349   4.999  0.1475  0.3141 -0.9648
 1305TIP3   OH2 3878   5.559   5.522   0.055 -0.1808 -0.0119  0.0154
 1305TIP3    H1 3879   5.562   5.611   0.091 -1.2522  0.4354 -0.9153
 1305TIP3    H2 3880   5.641   5.513   0.007 -0.2898  0.6849 -0.3229
 1306TIP3   OH2 3881   4.245   0.424   5.104 -0.6152  0.1438 -0.1235
 1306TIP3    H1 3882   4.202   0.404   5.187  1.3128  0.8735  1.1374
 1306TIP3    H2 3883   4.280   0.512   5.116  0.8519 -0.2563 -1.1855
 1307TIP3   OH2 3884   5.487   2.719   1.015 -0.2259 -0.0345 -0.3673
 1307TIP3    H1 3885   5.547   2.672   1.073 -2.2796 -0.7965  1.2357
 1307TIP3    H2 3886   5.414   2.659   1.001 -0.4903  0.7078 -2.6130
 1308TIP3   OH2 3887   1.109   0.444   4.461  0.1057 -1.6233  0.4132
 1308TIP3    H1 3888   1.061   0.522   4.435  1.5977 -0.1878  1.7247
 1308TIP3    H2 3889   1.061   0.371   4.421  0.7585  0.0974 -4.1182
 1309TIP3   OH2 3890   0.575   2.589   1.988 -0.0205 -0.1495 -0.0684
 1309TIP3    H1 3891   0.575   2.636   2.071  0.0982 -1.3983  0.6698
 1309TIP3    H2 3892   0.483   2.585   1.963  0.0343  1.0734 -0.5093
 1310TIP3   OH2 3893   3.620   6.579   5.521 -0.0751 -0.0003 -0.1385
 1310TIP3    H1 3894   3.670   6.659   5.539 -0.4399  0.4158 -0.9502
 1310TIP3    H2 3895   3.598   6.585   5.428 -1.1027 -0.4865  0.0649
 1311TIP3   OH2 3896   6.122   3.747   1.623 -0.0301 -0.5374  0.3685
 1311TIP3    H1 3897   6.082   3.741   1.536 -1.0245 -2.8628  0.8902
 1311TIP3    H2 3898   6.047   3.751   1.683  0.6449  1.6588  1.1482
 1312TIP3   OH2 3899   5.580   1.703   3.738  0.5504  0.3611  0.3215
 1312TIP3    H1 3900   5.547   1.614   3.729  1.1265  0.1500  0.2959
 1312TIP3    H2 3901   5.618   1.724   3.653  0.9034  0.4352  0.4970
 1313TIP3   OH2 3902   4.520   5.356   3.366  0.2291  0.0229 -0.5226
 1313TIP3    H1 3903   4.478   5.271   3.356 -0.6114  0.3711 -0.0850
 1313TIP3    H2 3904   4.470   5.415   3.309  0.3699  0.3572 -0.3091
 1314TIP3   OH2 3905   7.080   1.105   1.009 -0.5092 -0.3712  0.1372
 1314TIP3    H1 3906   7.061   1.085   1.101 -1.2747  1.9652  0.5418
 1314TIP3    H2 3907   7.156   1.162   1.011 -0.4180 -0.4471 -0.7162
 1315TIP3   OH2 3908   1.762   5.905   2.889 -0.0153 -0.1645  0.2143
 1315TIP3    H1 3909   1.799   5.991   2.907  0.7487  0.0846 -2.2540
 1315TIP3    H2 3910   1.771   5.894   2.794 -0.8167 -2.6370  0.3600
 1316TIP3   OH2 3911   5.873   4.805   5.141 -0.0902  0.2359 -0.1754
 1316TIP3    H1 3912   5.913   4.772   5.221 -0.6073 -0.1498 -0.0718
 1316TIP3    H2 3913   5.931   4.775   5.071  0.4048  0.6418  0.0550
 1317TIP3   OH2 3914   0.350   4.533   4.469 -0.1552 -0.5798 -0.2899
 1317TIP3    H1 3915   0.308   4.616   4.447 -0.2906 -0.8029 -0.8958
 1317TIP3    H2 3916   0.278   4.476   4.496  0.1507  0.1595  2.3551
 1318TIP3   OH2 3917   0.393   2.041   5.706  0.0396 -0.3615 -0.0240
 1318TIP3    H1 3918   0.345   2.058   5.787  0.4141 -1.1438  0.3804
 1318TIP3    H2 3919   0.331   1.995   5.650 -0.3966  0.6719 -0.4114
 1319TIP3   OH2 3920   1.638   3.666   3.383 -0.1740  0.4116  0.7575
 1319TIP3    H1 3921   1.622   3.723   3.459 -1.7259 -0.8187  1.3975
 1319TIP3    H2 3922   1.602   3.715   3.309 -2.0566  0.0763  1.3898
 1320TIP3   OH2 3923   0.353   1.688   4.389 -0.1175 -0.0347 -0.2977
 1320TIP3    H1 3924   0.300   1.697   4.469  0.0984  1.7763 -0.3109
 1320TIP3    H2 3925   0.351   1.775   4.349  1.4518 -0.3795 -1.2100
 1321TIP3   OH2 3926   6.593   3.986   4.892  0.7700 -0.1250  0.1414
 1321TIP3    H1 3927   6.663   3.953   4.949  2.6272  0.2866 -1.7557
 1321TIP3    H2 3928   6.633   4.060   4.846 -1.6546  1.5554  0.5491
 1322TIP3   OH2 3929   4.007   1.970   5.322  0.1080 -0.0580 -0.0105
 1322TIP3    H1 3930   4.074   1.902   5.327  0.6904  0.5661  1.0295
 1322TIP3    H2 3931   4.044   2.037   5.265 -0.2509 -0.3558 -0.6108
 1323TIP3   OH2 3932   0.488   0.557   3.274  0.1544  0.2189  0.3569
 1323TIP3    H1 3933   0.405   0.546   3.227 -0.1451 -1.0837  1.1605
 1323TIP3    H2 3934   0.545   0.489   3.238  0.6355  0.6171  0.3578
 1324TIP3   OH2 3935   5.966   4.248   2.179  0.2478 -0.2415  0.1137
 1324TIP3    H1 3936   6.016   4.168   2.189  0.8317  0.3132  2.1852
 1324TIP3    H2 3937   5.897   4.226   2.118  1.2140 -1.9105 -0.4308
 1325TIP3   OH2 3938   1.893   3.041   5.611 -0.2378  0.2766 -0.7538
 1325TIP3    H1 3939   1.818   3.075   5.660  0.4753  0.2918  0.3614
 1325TIP3    H2 3940   1.969   3.064   5.664  0.4141 -1.4266 -0.8717
 1326TIP3   OH2 3941   5.548   0.446   0.832 -0.3994 -0.4460 -0.8200
 1326TIP3    H1 3942   5.457   0.432   0.858 -0.0941 -2.5347 -0.6621
 1326TIP3    H2 3943   5.546   0.524   0.777 -1.8900  0.9515  1.1002
 1327TIP3   OH2 3944   4.007   5.736   4.862 -1.1903  0.4910 -0.5293
 1327TIP3    H1 3945   4.091   5.769   4.831 -1.2096  1.4778  0.3984
 1327TIP3    H2 3946   3.982   5.796   4.933 -0.9957 -1.8205  1.6317
 1328TIP3   OH2 3947   1.008   6.763   2.046 -0.0983 -0.2963  0.2138
 1328TIP3    H1 3948   1.097   6.797   2.046 -0.1087 -0.2632  0.7956
 1328TIP3    H2 3949   0.989   6.745   1.954  0.1370  0.6717 -0.0388
 1329TIP3   OH2 3950   0.564   2.117   1.294  0.3937 -0.1021 -0.0457
 1329TIP3    H1 3951   0.590   2.197   1.341  1.4584 -0.2282 -0.3872
 1329TIP3    H2 3952   0.628   2.052   1.322  1.9103  0.1415 -2.6166
 1330TIP3   OH2 3953   2.763   2.786   4.120 -0.1382 -0.0161  0.4648
 1330TIP3    H1 3954   2.686   2.735   4.096 -0.7056 -0.3297  2.7262
 1330TIP3    H2 3955   2.732   2.877   4.119  0.0079  0.0279 -0.5095
 1331TIP3   OH2 3956   3.320   3.933   5.522  0.5197 -0.1581 -0.3804
 1331TIP3    H1 3957   3.356   4.020   5.539 -0.9050  0.5351 -0.8064
 1331TIP3    H2 3958   3.351   3.880   5.596  0.9743  0.8282  0.1552
 1332TIP3   OH2 3959   6.636   3.253   2.177  0.2003 -0.1602 -0.0062
 1332TIP3    H1 3960   6.599   3.164   2.174  0.9260 -0.4787  0.2408
 1332TIP3    H2 3961   6.608   3.288   2.261  1.4823 -0.8778  0.7686
 1333TIP3   OH2 3962   2.128   3.728   0.670  0.2607  0.7481 -0.1633
 1333TIP3    H1 3963   2.201   3.696   0.723  1.8500 -0.4351 -2.8755
 1333TIP3    H2 3964   2.143   3.822   0.662 -0.0281  0.9587  1.4138
 1334TIP3   OH2 3965   2.604   1.271   1.748 -0.0391  0.0676  0.0822
 1334TIP3    H1 3966   2.607   1.333   1.822 -0.5927  2.1589 -1.5532
 1334TIP3    H2 3967   2.655   1.314   1.679 -2.4447 -0.1345 -1.9364
 1335TIP3   OH2 3968   4.208   5.877   4.166 -0.0939 -0.2275  0.1209
 1335TIP3    H1 3969   4.264   5.814   4.212  2.0244  0.7825 -0.8891
 1335TIP3    H2 3970   4.260   5.958   4.166 -1.6808  0.8382 -0.7093
 1336TIP3   OH2 3971   6.687   1.362   2.100 -0.1748  0.4537  0.2249
 1336TIP3    H1 3972   6.698   1.443   2.051 -0.5639  0.2997 -0.1229
 1336TIP3    H2 3973   6.594   1.360   2.122  0.2475  1.3420  2.4194
 1337TIP3   OH2 3974   3.769   3.835   3.498 -0.3842  0.1727  0.1155
 1337TIP3    H1 3975   3.676   3.850   3.516  0.1441  0.6604  2.9305
 1337TIP3    H2 3976   3.790   3.756   3.547  0.6694  0.0550 -0.5207
 1338TIP3   OH2 3977   6.278   5.280   1.473  0.3316 -0.1616  0.0644
 1338TIP3    H1 3978   6.362   5.322   1.454  0.1931  0.5987  1.0033
 1338TIP3    H2 3979   6.218   5.318   1.410  0.3337  0.6488  0.5313
 1339TIP3   OH2 3980   2.668   1.598   4.936  1.0042 -0.2643 -0.6273
 1339TIP3    H1 3981   2.654   1.693   4.936 -0.5247 -0.4513 -0.8161
 1339TIP3    H2 3982   2.727   1.583   4.862 -0.9470  0.3188 -2.4078
 1340TIP3   OH2 3983   3.084   2.068   5.583 -0.0512  0.0019  0.1141
 1340TIP3    H1 3984   3.027   2.111   5.520  1.1438 -0.2752 -1.2111
 1340TIP3    H2 3985   3.129   2.139   5.629 -0.2602  0.1969  0.0117
 1341TIP3   OH2 3986   4.159   5.834   4.575  0.0625 -0.1908  0.0848
 1341TIP3    H1 3987   4.215   5.843   4.652  1.2253 -0.3022 -0.7176
 1341TIP3    H2 3988   4.153   5.922   4.539  1.0346 -0.4131 -0.6894
 1342TIP3   OH2 3989   2.841   3.934   4.318 -0.0013  0.1346 -0.9701
 1342TIP3    H1 3990   2.906   3.959   4.252 -1.4155  2.9980 -1.4435
 1342TIP3    H2 3991   2.772   3.892   4.268 -0.4990  1.1753 -1.2004
 1343TIP3   OH2 3992   7.126   3.286   5.582  0.7620  0.5902  0.2102
 1343TIP3    H1 3993   7.093   3.353   5.522 -0.5960  0.8058  1.1532
 1343TIP3    H2 3994   7.212   3.319   5.609 -0.0306  2.1685  0.9350
 1344TIP3   OH2 3995   5.143   1.909   3.959  0.7012 -0.3427  0.1884
 1344TIP3    H1 3996   5.218   1.935   4.012  0.1388 -0.7362  1.2128
 1344TIP3    H2 3997   5.175   1.834   3.908  1.0824 -0.3302  0.4031
 1345TIP3   OH2 3998   4.546   5.500   0.178  0.1314  0.4033 -0.1050
 1345TIP3    H1 3999   4.624   5.473   0.131  0.4185 -1.2284  1.2192
 1345TIP3    H2 4000   4.536   5.593   0.156  0.9204  0.0333 -2.3529
 1346TIP3   OH2 4001   2.632   0.065   2.241 -0.2830  0.2669  0.2268
 1346TIP3    H1 4002   2.671   0.130   2.300  1.2642 -1.7281  1.5286
 1346TIP3    H2 4003   2.554   0.035   2.287  0.1908 -0.3268  0.6568
 1347TIP3   OH2 4004   3.426   3.285   2.574 -0.3356  0.1367  0.4616
 1347TIP3    H1 4005   3.449   3.290   2.482  1.3109 -2.6116  0.5898
 1347TIP3    H2 4006   3.331   3.286   2.576 -0.5279 -2.4065 -1.6093
 1348TIP3   OH2 4007   7.001   6.366   4.356 -0.1902  0.0746 -0.7358
 1348TIP3    H1 4008   6.976   6.351   4.265  0.6792 -0.3919 -0.9091
 1348TIP3    H2 4009   7.030   6.280   4.387 -0.1863  0.2991 -0.1132
 1349TIP3   OH2 4010   2.179   0.165   0.860 -0.4087 -0.0880  0.1344
 1349TIP3    H1 4011   2.089   0.181   0.890 -0.5366  1.0222 -0.7483
 1349TIP3    H2 4012   2.203   0.081   0.899 -1.3998  0.1701  1.3544
 1350TIP3   OH2 4013   4.046   2.350   4.784 -0.6281  0.3373 -0.2353
 1350TIP3    H1 4014   3.954   2.360   4.757 -1.0516  0.2634  1.0696
 1350TIP3    H2 4015   4.067   2.433   4.827 -1.1360 -0.7274  2.2776
 1351TIP3   OH2 4016   5.601   0.351   4.590  0.6765  0.3508  0.6246
 1351TIP3    H1 4017   5.563   0.294   4.524  0.4744  0.8089  0.3440
 1351TIP3    H2 4018   5.538   0.423   4.600  1.3268  0.9812  0.3407
 1352TIP3   OH2 4019   6.119   4.634   1.388  0.2192 -0.2298  0.2138
 1352TIP3    H1 4020   6.071   4.557   1.358 -0.3800  0.9306 -2.0631
 1352TIP3    H2 4021   6.211   4.614   1.370  0.0247 -0.2788 -0.8212
 1353TIP3   OH2 4022   2.235   0.542   4.284 -0.0336  0.0957 -0.8631
 1353TIP3    H1 4023   2.241   0.509   4.374  1.6160  1.0962 -0.5650
 1353TIP3    H2 4024   2.149   0.513   4.254 -0.5041 -0.5251  0.9285
 1354TIP3   OH2 4025   2.548   1.910   5.150  0.4522  0.8650  0.3840
 1354TIP3    H1 4026   2.512   1.952   5.228 -0.6019 -0.6338  0.7675
 1354TIP3    H2 4027   2.587   1.829   5.183  0.2363  0.3458 -0.6029
 1355TIP3   OH2 4028   5.484   2.294   0.342 -0.0125 -0.4914 -0.5230
 1355TIP3    H1 4029   5.504   2.350   0.418 -1.4610 -1.1798  0.3999
 1355TIP3    H2 4030   5.483   2.206   0.378 -1.9051 -0.7250 -1.0815
 1356TIP3   OH2 4031   6.848   6.143   4.661  0.3545  0.5213 -0.1328
 1356TIP3    H1 4032   6.825   6.114   4.749 -0.3474 -2.0822 -1.0867
 1356TIP3    H2 4033   6.936   6.181   4.671  1.2064 -1.6382  1.3948
 1357TIP3   OH2 4034   6.679   0.578   3.797  0.4242 -0.4287 -0.9994
 1357TIP3    H1 4035   6.598   0.625   3.818  1.5170  1.7253 -1.3879
 1357TIP3    H2 4036   6.697   0.526   3.876 -0.3936  0.4376 -0.2195
 1358TIP3   OH2 4037   1.839   1.564   1.317  0.2525 -0.1970  0.2379
 1358TIP3    H1 4038   1.902   1.494   1.301 -2.2933 -2.7154  0.4397
 1358TIP3    H2 4039   1.841   1.577   1.412  1.1148  0.4585  0.1452
 1359TIP3   OH2 4040   7.158   1.324   3.034 -0.3884 -0.1296  0.4744
 1359TIP3    H1 4041   7.078   1.273   3.020 -0.3569 -0.2130  0.5913
 1359TIP3    H2 4042   7.152   1.396   2.972  0.0075 -0.7868 -0.3426
 1360TIP3   OH2 4043   1.573   3.366   4.830 -0.2481 -0.1980 -0.1227
 1360TIP3    H1 4044   1.523   3.314   4.893  1.6644  0.5835  2.1919
 1360TIP3    H2 4045   1.655   3.318   4.819 -0.6059 -0.4320 -2.3111
 1361TIP3   OH2 4046   7.154   3.467   3.816 -0.0180  0.5191 -0.1470
 1361TIP3    H1 4047   7.121   3.424   3.737  1.3671 -0.8353 -0.0452
 1361TIP3    H2 4048   7.104   3.427   3.887  0.1748  0.2004 -0.1855
 1362TIP3   OH2 4049   0.278   6.328   3.272 -0.1541 -0.4476  0.0910
 1362TIP3    H1 4050   0.253   6.413   3.308 -0.9374 -0.4968 -0.3040
 1362TIP3    H2 4051   0.350   6.347   3.212 -0.2903 -0.0619  0.0462
 1363TIP3   OH2 4052   1.577   1.678   1.520 -0.0778  0.6145  0.3888
 1363TIP3    H1 4053   1.590   1.711   1.609 -0.3341  2.0584 -0.0809
 1363TIP3    H2 4054   1.542   1.753   1.472 -0.7284 -0.3821 -0.7345
 1364TIP3   OH2 4055   6.343   0.404   4.835  0.0822 -0.1438  0.3256
 1364TIP3    H1 4056   6.346   0.372   4.745 -0.8176  3.0531 -1.0159
 1364TIP3    H2 4057   6.401   0.480   4.834  0.4267 -0.3280  2.6207
 1365TIP3   OH2 4058   6.537   4.965   3.576  0.1542 -0.1392  0.8198
 1365TIP3    H1 4059   6.586   4.958   3.494  1.3397 -1.1836  1.5921
 1365TIP3    H2 4060   6.461   4.907   3.563  0.0581  0.1000  0.2803
 1366TIP3   OH2 4061   1.316   4.882   2.753 -0.0701  0.0108  0.1250
 1366TIP3    H1 4062   1.349   4.960   2.709 -0.6968 -0.1845 -0.7256
 1366TIP3    H2 4063   1.281   4.914   2.836  2.4993  0.1853  1.2551
 1367TIP3   OH2 4064   2.365   5.750   2.342  0.2059  0.3392 -0.1344
 1367TIP3    H1 4065   2.291   5.689   2.343  1.0331 -0.7011 -0.4208
 1367TIP3    H2 4066   2.369   5.781   2.251 -1.3139  2.2670  0.3762
 1368TIP3   OH2 4067   5.907   2.361   3.674 -0.4124 -0.1260  0.4348
 1368TIP3    H1 4068   5.933   2.451   3.690  0.4362 -0.5285  1.4864
 1368TIP3    H2 4069   5.974   2.327   3.615 -1.0673  0.0845 -0.4535
 1369TIP3   OH2 4070   4.025   4.103   2.452  0.0634 -0.5360 -0.2491
 1369TIP3    H1 4071   4.086   4.070   2.519 -1.1587  0.0447  1.1996
 1369TIP3    H2 4072   3.964   4.158   2.500 -1.5675 -1.0162 -1.6755
 1370TIP3   OH2 4073   5.423   2.803   4.472  0.3425 -0.4235 -0.6657
 1370TIP3    H1 4074   5.502   2.845   4.505  1.1687  0.5048 -3.4880
 1370TIP3    H2 4075   5.361   2.806   4.544  2.3192  0.3611  1.0845
 1371TIP3   OH2 4076   4.290   1.154   1.872 -0.1563 -0.4752  0.2456
 1371TIP3    H1 4077   4.275   1.249   1.873  0.6069 -0.3475  0.8399
 1371TIP3    H2 4078   4.235   1.122   1.801 -0.2759  0.4410 -0.0918
 1372TIP3   OH2 4079   5.422   0.140   2.878  0.8055 -0.0143  1.0817
 1372TIP3    H1 4080   5.398   0.157   2.969 -0.7769  3.7137  0.1192
 1372TIP3    H2 4081   5.497   0.198   2.861 -1.0207  1.9405 -0.8018
 1373TIP3   OH2 4082   0.711   0.808   1.335  0.2269  0.7451  0.0892
 1373TIP3    H1 4083   0.626   0.772   1.360  0.4016  0.1962 -0.0947
 1373TIP3    H2 4084   0.775   0.750   1.378  0.5158  0.5201 -0.6330
 1374TIP3   OH2 4085   1.338   3.722   5.033  0.1437  0.0613 -0.0218
 1374TIP3    H1 4086   1.348   3.664   4.957  0.9369 -1.6099  1.3072
 1374TIP3    H2 4087   1.278   3.676   5.091  1.8096 -0.1286  1.6541
 1375TIP3   OH2 4088   6.029   2.744   5.582  0.7119  0.1684 -0.4484
 1375TIP3    H1 4089   6.006   2.730   5.674 -1.1801  0.5375 -0.8235
 1375TIP3    H2 4090   6.097   2.812   5.585 -0.4939  1.4115  0.6444
 1376TIP3   OH2 4091   3.626   3.674   0.071  0.4400 -0.3901 -0.2648
 1376TIP3    H1 4092   3.663   3.667  -0.017 -1.6294 -0.6392 -1.1705
 1376TIP3    H2 4093   3.572   3.596   0.081  0.6732 -0.3848  1.2727
 1377TIP3   OH2 4094   0.516   2.339   3.233  0.0670  0.0172  0.5275
 1377TIP3    H1 4095   0.503   2.428   3.201 -0.4324 -0.5319 -0.8536
 1377TIP3    H2 4096   0.611   2.326   3.229  0.2013  0.6722  1.3057
 1378TIP3   OH2 4097   6.390   0.775   1.648  0.2916  0.1470  0.4557
 1378TIP3    H1 4098   6.457   0.738   1.591 -0.8615 -1.0004 -0.2273
 1378TIP3    H2 4099   6.327   0.814   1.587 -0.9973 -1.1547  0.8924
 1379TIP3   OH2 4100   6.683   0.944   0.656 -0.0291  0.2563 -0.0497
 1379TIP3    H1 4101   6.680   0.874   0.721  0.8364  0.5601  0.3338
 1379TIP3    H2 4102   6.604   0.995   0.672  0.7607  1.0377  1.5900
 1380TIP3   OH2 4103   6.826   2.636   3.728 -0.3154 -0.2553 -0.0261
 1380TIP3    H1 4104   6.824   2.630   3.824 -0.8432 -1.2901 -0.0864
 1380TIP3    H2 4105   6.909   2.595   3.704  1.2509  2.5772  0.0990
 1381TIP3   OH2 4106   1.947   1.587   3.301  0.5405  0.8645 -0.3614
 1381TIP3    H1 4107   1.905   1.668   3.273  1.3387  1.2149 -0.5883
 1381TIP3    H2 4108   2.035   1.591   3.261  0.4809 -0.2518 -0.6384
 1382TIP3   OH2 4109   3.465   6.648   3.554  0.1769  0.3366  0.3724
 1382TIP3    H1 4110   3.472   6.693   3.638 -1.1599  0.0556  0.6482
 1382TIP3    H2 4111   3.466   6.555   3.576  2.4629  0.1769 -0.1593
 1383TIP3   OH2 4112   6.683   2.254   2.356 -0.4681 -0.4843 -0.1836
 1383TIP3    H1 4113   6.728   2.219   2.279 -1.3190 -1.5391 -0.2304
 1383TIP3    H2 4114   6.598   2.210   2.356 -1.6447  1.6738 -0.2619
 1384TIP3   OH2 4115   4.596   0.305   2.813  0.0869  0.2872 -0.0166
 1384TIP3    H1 4116   4.503   0.324   2.805 -0.0556 -0.3597  0.0283
 1384TIP3    H2 4117   4.633   0.381   2.859 -0.4543  0.4363  0.1745
 1385TIP3   OH2 4118   0.279   0.841   3.466  0.2340  0.0118  0.1558
 1385TIP3    H1 4119   0.272   0.936   3.458 -0.1213 -0.1619 -3.1163
 1385TIP3    H2 4120   0.368   0.821   3.435 -0.2163 -0.7931 -0.6535
 1386TIP3   OH2 4121   3.166   5.260   0.701 -0.2253 -0.1947 -0.9968
 1386TIP3    H1 4122   3.148   5.253   0.607 -0.6710  0.8107 -0.9958
 1386TIP3    H2 4123   3.261   5.253   0.708 -0.2066 -0.4976 -1.4972
 1387TIP3   OH2 4124   3.871   6.532   2.313  0.1080  0.4294  0.3737
 1387TIP3    H1 4125   3.864   6.626   2.296 -0.3587  0.4560  0.7158
 1387TIP3    H2 4126   3.812   6.516   2.386  0.3887 -0.0867  0.4915
 1388TIP3   OH2 4127   4.716   3.497   0.698  0.7899  1.1598 -0.0600
 1388TIP3    H1 4128   4.692   3.570   0.641  0.0816  0.4892 -0.6443
 1388TIP3    H2 4129   4.732   3.424   0.638 -0.4000  0.3137  0.5984
 1389TIP3   OH2 4130   0.615   3.797   3.603 -0.1145 -0.0138  0.0878
 1389TIP3    H1 4131   0.658   3.880   3.584 -0.5744 -0.3032 -2.5581
 1389TIP3    H2 4132   0.523   3.820   3.616 -0.3635 -0.1377 -1.3137
 1390TIP3   OH2 4133   3.425   5.663   1.647 -0.1494  0.5328 -0.2009
 1390TIP3    H1 4134   3.443   5.757   1.660  1.6853  0.0735  1.0055
 1390TIP3    H2 4135   3.463   5.643   1.562  0.6507  0.6333  0.1224
 1391TIP3   OH2 4136   1.905   3.765   0.477  0.0733  0.0729  0.3894
 1391TIP3    H1 4137   1.824   3.734   0.516 -0.5987  1.0751 -0.1752
 1391TIP3    H2 4138   1.969   3.761   0.548 -0.3040 -1.2881  0.6826
 1392TIP3   OH2 4139   0.223   1.705   4.628 -0.0810  0.6168 -0.4296
 1392TIP3    H1 4140   0.207   1.653   4.707 -0.2091 -0.1041 -0.9245
 1392TIP3    H2 4141   0.259   1.787   4.661 -1.1949  0.7726  0.4633
 1393TIP3   OH2 4142   4.305   4.669   3.171 -0.1723 -0.3226 -0.2294
 1393TIP3    H1 4143   4.390   4.713   3.165 -1.8216  3.3027  0.1091
 1393TIP3    H2 4144   4.306   4.626   3.257  0.8470  0.8911  0.4043
 1394TIP3   OH2 4145   2.393   2.714   5.435  0.1242 -0.1572 -0.5210
 1394TIP3    H1 4146   2.369   2.631   5.393 -0.4649 -0.5251  0.5031
 1394TIP3    H2 4147   2.309   2.757   5.452  0.3620  0.0802  0.0601
 1395TIP3   OH2 4148   2.645   5.472   3.752  0.2204 -0.4040 -0.3038
 1395TIP3    H1 4149   2.686   5.539   3.698 -1.1682  0.0727 -0.8220
 1395TIP3    H2 4150   2.556   5.505   3.767  0.5765 -0.4224  2.4323
 1396TIP3   OH2 4151   2.183   0.324   5.869 -0.1928  1.0524  0.0378
 1396TIP3    H1 4152   2.172   0.311   5.775  1.7502  1.1181 -0.2382
 1396TIP3    H2 4153   2.123   0.261   5.909  1.0260 -1.0330 -1.2608
 1397TIP3   OH2 4154   3.369   5.642   3.549 -0.6007 -0.4153 -0.5737
 1397TIP3    H1 4155   3.359   5.656   3.643  1.9981 -0.1958 -0.2770
 1397TIP3    H2 4156   3.319   5.562   3.532 -2.0846  0.1774  0.7238
 1398TIP3   OH2 4157   5.489   4.986   4.142 -0.8317 -0.4822  0.3107
 1398TIP3    H1 4158   5.447   4.957   4.223 -0.3050  0.1889  0.8399
 1398TIP3    H2 4159   5.419   5.025   4.090 -1.2314 -1.1879  0.2981
 1399TIP3   OH2 4160   4.435   0.507   0.319  0.0059  0.1856 -0.1645
 1399TIP3    H1 4161   4.434   0.446   0.245  0.9924  0.6802 -0.6053
 1399TIP3    H2 4162   4.517   0.486   0.365 -0.9664 -0.6668  1.2818
 1400TIP3   OH2 4163   6.568   3.512   5.248  0.1876 -0.3378  0.8439
 1400TIP3    H1 4164   6.554   3.511   5.343  0.1012  0.7037  0.8543
 1400TIP3    H2 4165   6.518   3.588   5.217  1.1118 -0.0008  0.1265
 1401TIP3   OH2 4166   5.805   0.909   1.205  0.0685  0.0203 -0.2843
 1401TIP3    H1 4167   5.767   0.919   1.118  0.2309 -1.3422 -0.5353
 1401TIP3    H2 4168   5.733   0.924   1.265 -0.2486  0.0748 -0.6736
 1402TIP3   OH2 4169   6.135   3.915   2.303  0.7647  0.4390 -0.4161
 1402TIP3    H1 4170   6.143   3.986   2.366  2.2471  0.8714 -1.0573
 1402TIP3    H2 4171   6.191   3.941   2.229 -0.4414 -0.3379 -1.6550
 1403TIP3   OH2 4172   3.540   5.621   4.176 -0.2180 -0.0268 -0.2864
 1403TIP3    H1 4173   3.529   5.685   4.247 -1.9019  1.2305 -1.6117
 1403TIP3    H2 4174   3.631   5.592   4.184  0.6747  2.6799  0.2532
 1404TIP3   OH2 4175   6.791   3.809   1.150 -0.1289 -0.0268 -0.3538
 1404TIP3    H1 4176   6.703   3.797   1.116 -0.7631 -0.0940  1.1967
 1404TIP3    H2 4177   6.805   3.735   1.209  0.3789  0.7459  0.5401
 1405TIP3   OH2 4178   5.955   6.582   0.501  0.0477 -0.8430 -0.1386
 1405TIP3    H1 4179   6.007   6.502   0.507  0.0847 -0.8633 -0.6996
 1405TIP3    H2 4180   5.945   6.597   0.407 -2.7711 -2.0519 -0.1425
 1406TIP3   OH2 4181   3.545   2.844   5.622 -0.1592  1.1501  0.1873
 1406TIP3    H1 4182   3.587   2.827   5.706  1.4175  0.1421 -0.7448
 1406TIP3    H2 4183   3.544   2.759   5.578  0.1915  1.8721 -1.2973
 1407TIP3   OH2 4184   6.360   2.393   1.269 -0.6543 -0.3104  0.3490
 1407TIP3    H1 4185   6.286   2.400   1.208  0.0896 -0.2742 -0.5775
 1407TIP3    H2 4186   6.415   2.469   1.248  0.0264 -0.7541  0.4934
 1408TIP3   OH2 4187   0.295   0.570   0.783 -0.3289 -0.8032  0.3455
 1408TIP3    H1 4188   0.245   0.650   0.765  0.5080 -0.6206 -1.3586
 1408TIP3    H2 4189   0.296   0.524   0.699  0.3940 -1.9247  0.9590
 1409TIP3   OH2 4190   4.528   5.113   0.640  0.5031 -0.3504  0.0427
 1409TIP3    H1 4191   4.623   5.110   0.637  0.5600  1.2156 -1.4492
 1409TIP3    H2 4192   4.505   5.193   0.592 -1.5899 -1.3234 -0.7173
 1410TIP3   OH2 4193   4.615   2.170   4.390  0.3496  0.0200  0.0036
 1410TIP3    H1 4194   4.585   2.255   4.360 -0.4429  0.7645  2.5850
 1410TIP3    H2 4195   4.701   2.186   4.429  0.9816 -0.7315 -1.0258
 1411TIP3   OH2 4196   1.638   3.728   0.536 -0.1148 -0.2027 -0.0032
 1411TIP3    H1 4197   1.621   3.634   0.544  1.8296 -0.6583 -0.6039
 1411TIP3    H2 4198   1.622   3.764   0.623 -0.8458 -1.0815  0.2370
 1412TIP3   OH2 4199   4.087   6.157   0.146  0.4632  0.2578 -0.6528
 1412TIP3    H1 4200   4.068   6.239   0.191  0.5364 -0.0328 -0.0851
 1412TIP3    H2 4201   4.001   6.117   0.131  0.2607  1.3211 -2.6639
 1413TIP3   OH2 4202   2.796   3.941   1.952 -0.0193 -0.5225  0.1783
 1413TIP3    H1 4203   2.735   4.008   1.983 -0.4018  0.1629 -1.9006
 1413TIP3    H2 4204   2.826   3.974   1.867  1.1949 -2.1336 -0.0580
 1414TIP3   OH2 4205   6.868   1.863   2.136  0.1580  0.5973 -1.2371
 1414TIP3    H1 4206   6.783   1.855   2.179  0.2140 -0.9960 -1.3780
 1414TIP3    H2 4207   6.927   1.812   2.190  0.3020 -1.1723 -2.9587
 1415TIP3   OH2 4208   6.328   0.575   1.442 -0.1896 -0.1499 -0.3574
 1415TIP3    H1 4209   6.246   0.525   1.442 -0.5468  0.2761  2.5542
 1415TIP3    H2 4210   6.397   0.508   1.442 -0.6333 -0.6299  1.2506
 1416TIP3   OH2 4211   1.728   3.243   5.799 -0.4603 -0.0430  0.1674
 1416TIP3    H1 4212   1.706   3.151   5.793 -1.8563  0.1985  1.0813
 1416TIP3    H2 4213   1.723   3.263   5.893 -0.1042  0.9445 -0.0057
 1417TIP3   OH2 4214   4.510   3.741   0.887 -0.1330  0.2234 -0.2912
 1417TIP3    H1 4215   4.463   3.682   0.827  1.1017 -0.7580 -0.3315
 1417TIP3    H2 4216   4.570   3.684   0.934  0.7994  1.3961 -0.0143
 1418TIP3   OH2 4217   4.110   5.100   0.768 -0.3427  0.2964 -0.3505
 1418TIP3    H1 4218   4.122   5.175   0.825 -0.0654  0.6838 -0.9075
 1418TIP3    H2 4219   4.054   5.040   0.818 -1.2236  1.2118 -0.2122
 1419TIP3   OH2 4220   4.517   4.832   3.256 -0.0468  0.7839  0.7093
 1419TIP3    H1 4221   4.496   4.808   3.347  0.5941  2.2780  1.2787
 1419TIP3    H2 4222   4.603   4.873   3.262  0.9012 -0.8406 -0.8850
 1420TIP3   OH2 4223   1.116   6.066   5.790 -0.3244  0.4262  0.3230
 1420TIP3    H1 4224   1.056   6.139   5.775  2.5422  2.8107 -0.3093
 1420TIP3    H2 4225   1.173   6.066   5.713 -0.4005 -2.7957  0.1165
 1421TIP3   OH2 4226   1.600   0.581   5.639  0.4059  0.2262  0.6436
 1421TIP3    H1 4227   1.620   0.611   5.728 -0.1505 -0.0612  0.8718
 1421TIP3    H2 4228   1.510   0.549   5.644  0.3844  0.1673 -0.0162
 1422TIP3   OH2 4229   5.652   4.420   0.323  0.8077  0.2359  0.4093
 1422TIP3    H1 4230   5.666   4.511   0.298  1.1118  0.0086 -0.2689
 1422TIP3    H2 4231   5.561   4.417   0.354  0.6059  0.6458 -0.1364
 1423TIP3   OH2 4232   2.082   6.446   1.647 -0.2195 -0.1774 -0.3822
 1423TIP3    H1 4233   2.071   6.351   1.656 -1.0570 -0.0828 -0.3686
 1423TIP3    H2 4234   2.176   6.460   1.662 -0.1664 -0.9449  0.0739
 1424TIP3   OH2 4235   4.698   3.956   2.515 -0.4501  0.0447 -0.1916
 1424TIP3    H1 4236   4.713   3.869   2.479 -1.0681  0.3716 -1.3115
 1424TIP3    H2 4237   4.622   3.989   2.467  0.2642  1.5132 -0.3954
 1425TIP3   OH2 4238   6.977   1.743   4.499  0.1993 -0.1536  0.1913
 1425TIP3    H1 4239   7.060   1.790   4.499  0.3397 -0.3716 -1.0313
 1425TIP3    H2 4240   6.996   1.662   4.452 -0.0792 -1.3926  2.1026
 1426TIP3   OH2 4241   6.710   0.632   4.433 -0.1032  0.1635 -0.2470
 1426TIP3    H1 4242   6.802   0.624   4.459  0.0709 -1.3437 -1.2171
 1426TIP3    H2 4243   6.706   0.590   4.347 -1.4113  1.5549 -0.9120
 1427TIP3   OH2 4244   4.056   3.806   2.841 -0.1464 -0.1846  0.3168
 1427TIP3    H1 4245   4.088   3.847   2.922  1.7675 -0.1502 -0.4086
 1427TIP3    H2 4246   3.970   3.846   2.827 -0.5076 -0.1566  2.2918
 1428TIP3   OH2 4247   5.626   2.327   2.156  0.5047  0.0669 -0.1664
 1428TIP3    H1 4248   5.577   2.342   2.075  0.1342 -1.4055 -0.2445
 1428TIP3    H2 4249   5.713   2.299   2.127  0.2329 -0.9075 -0.0862
 1429TIP3   OH2 4250   5.357   5.375   1.171  0.0541 -0.2548  0.3788
 1429TIP3    H1 4251   5.429   5.372   1.108 -2.3155 -0.3098 -2.5634
 1429TIP3    H2 4252   5.329   5.283   1.179 -1.3523  0.0407 -0.7122
 1430TIP3   OH2 4253   4.694   1.601   4.581  0.1459  0.4802 -0.8715
 1430TIP3    H1 4254   4.678   1.586   4.674  0.2343 -1.0079 -1.0642
 1430TIP3    H2 4255   4.743   1.524   4.553  0.5798  1.1591 -2.0452
 1431TIP3   OH2 4256   3.880   6.049   4.228  0.2226 -0.9008 -0.2856
 1431TIP3    H1 4257   3.792   6.016   4.209 -0.1361 -0.4122  0.4903
 1431TIP3    H2 4258   3.901   6.107   4.155  0.6485 -2.4108 -1.4036
 1432TIP3   OH2 4259   5.519   4.415   1.414  0.1288 -0.5368  0.0942
 1432TIP3    H1 4260   5.461   4.440   1.486 -0.3491 -2.4588  0.4252
 1432TIP3    H2 4261   5.484   4.461   1.338 -1.5311 -1.2358  0.3992
 1433TIP3   OH2 4262   6.094   4.196   4.042  0.5484  0.2723  0.3394
 1433TIP3    H1 4263   6.093   4.126   4.107  1.6950 -0.4037 -0.3318
 1433TIP3    H2 4264   6.187   4.216   4.029  0.2915  1.1079 -0.3441
 1434TIP3   OH2 4265   2.599   0.641   1.750 -0.7563  0.5250 -0.3776
 1434TIP3    H1 4266   2.642   0.586   1.684 -0.1004 -0.3703  0.7687
 1434TIP3    H2 4267   2.517   0.668   1.708 -0.1598  0.3493 -1.7264
 1435TIP3   OH2 4268   2.266   1.427   5.124 -0.2474  0.2780 -0.0430
 1435TIP3    H1 4269   2.257   1.515   5.159  0.8790  0.6706 -0.6766
 1435TIP3    H2 4270   2.359   1.419   5.102 -0.5610 -0.6125 -1.1655
 1436TIP3   OH2 4271   6.006   2.839   0.137 -0.5008 -0.1348  0.1656
 1436TIP3    H1 4272   6.062   2.836   0.059 -0.2211  1.8771  0.2397
 1436TIP3    H2 4273   5.961   2.755   0.137 -0.2411 -0.3318 -1.9740
 1437TIP3   OH2 4274   4.421   1.620   3.375  0.4395  0.8501  0.5894
 1437TIP3    H1 4275   4.469   1.561   3.433  0.2782 -1.4781 -1.4619
 1437TIP3    H2 4276   4.486   1.648   3.311 -0.1959  0.1252 -0.4128
 1438TIP3   OH2 4277   0.202   6.167   5.803  0.2286 -0.4750  0.1633
 1438TIP3    H1 4278   0.109   6.186   5.794  0.1429 -0.9329  0.0372
 1438TIP3    H2 4279   0.206   6.100   5.872  0.4485 -0.5698  0.0595
 1439TIP3   OH2 4280   2.275   4.419   5.759 -0.5904  0.5121  0.4289
 1439TIP3    H1 4281   2.326   4.382   5.831  1.2488  0.5663 -0.7784
 1439TIP3    H2 4282   2.206   4.354   5.743 -0.4893  0.0744  1.6189
 1440TIP3   OH2 4283   6.954   5.408   4.340  0.3722 -0.8016  0.1039
 1440TIP3    H1 4284   6.894   5.350   4.294  0.6724 -1.7884  0.9163
 1440TIP3    H2 4285   6.963   5.484   4.282 -0.8726 -1.0704 -0.4754
 1441TIP3   OH2 4286   3.361   2.213   1.722 -0.1187 -0.5292 -0.2153
 1441TIP3    H1 4287   3.449   2.178   1.706  0.1377 -0.0160  0.0566
 1441TIP3    H2 4288   3.361   2.299   1.681 -0.4520 -0.4709 -0.0942
 1442TIP3   OH2 4289   6.581   3.440   3.714 -0.2078  0.4246 -0.1714
 1442TIP3    H1 4290   6.501   3.487   3.690 -0.0034 -0.1978 -2.3105
 1442TIP3    H2 4291   6.553   3.350   3.732  0.0728 -0.0376 -1.8726
 1443TIP3   OH2 4292   3.156   1.695   2.126 -0.0607  0.3321  0.3667
 1443TIP3    H1 4293   3.111   1.701   2.210  0.6716  2.2840  0.6811
 1443TIP3    H2 4294   3.211   1.773   2.123  1.5864 -0.8021 -0.9896
 1444TIP3   OH2 4295   3.919   4.484   5.154 -0.6542 -0.1744  0.1677
 1444TIP3    H1 4296   3.995   4.447   5.198 -1.2802 -3.4698 -1.2184
 1444TIP3    H2 4297   3.844   4.445   5.199 -1.4507  0.7233 -0.3349
 1445TIP3   OH2 4298   7.172   0.143   5.861 -0.5057 -0.7423  0.3049
 1445TIP3    H1 4299   7.164   0.151   5.956 -0.3592  2.1448  0.1575
 1445TIP3    H2 4300   7.266   0.130   5.846 -0.3407  0.1098  0.5312
 1446TIP3   OH2 4301   5.911   3.157   0.805 -0.1407 -0.2914 -0.1102
 1446TIP3    H1 4302   5.867   3.099   0.867 -0.8372  0.4151  0.0799
 1446TIP3    H2 4303   5.869   3.139   0.721  0.1973 -0.6278 -0.2079
 1447TIP3   OH2 4304   4.552   2.514   3.267 -0.2664  0.7052  0.1428
 1447TIP3    H1 4305   4.485   2.446   3.257  0.2666  0.2235 -0.1731
 1447TIP3    H2 4306   4.615   2.497   3.198 -0.4665  1.9419 -0.3763
 1448TIP3   OH2 4307   6.421   3.689   4.206  0.4537  0.9699 -0.2120
 1448TIP3    H1 4308   6.455   3.602   4.229 -1.6674 -0.1117 -0.8787
 1448TIP3    H2 4309   6.441   3.743   4.282  0.1008 -0.6262  1.0947
 1449TIP3   OH2 4310   0.611   3.549   1.893 -0.6604  0.5651  0.4693
 1449TIP3    H1 4311   0.558   3.493   1.835  0.4535 -0.4474  0.4003
 1449TIP3    H2 4312   0.691   3.566   1.844  0.4593 -0.5995  1.8044
 1450TIP3   OH2 4313   1.428   2.428   3.993  0.5022 -0.1956  0.1049
 1450TIP3    H1 4314   1.339   2.411   4.023  0.3174  0.3312 -0.1393
 1450TIP3    H2 4315   1.477   2.350   4.019 -0.3981 -1.2784 -1.3129
 1451TIP3   OH2 4316   2.411   3.946   3.637  0.0112  0.3628 -0.1065
 1451TIP3    H1 4317   2.356   3.877   3.599  0.3786  0.1346 -0.2313
 1451TIP3    H2 4318   2.475   3.965   3.569  1.4013 -0.8640  0.8036
 1452TIP3   OH2 4319   6.311   5.191   2.512  0.2831 -0.3000  0.2733
 1452TIP3    H1 4320   6.217   5.176   2.496  0.1745  0.8665 -0.2807
 1452TIP3    H2 4321   6.343   5.230   2.431  0.9372  0.6101  0.9588
 1453TIP3   OH2 4322   3.578   1.974   1.924 -0.1815  0.1848  0.2727
 1453TIP3    H1 4323   3.490   1.970   1.961 -1.0084 -2.0339 -1.6924
 1453TIP3    H2 4324   3.599   1.883   1.904  2.7179  0.6264  0.9092
 1454TIP3   OH2 4325   2.366   1.047   0.596  0.4123  0.4293 -0.7950
 1454TIP3    H1 4326   2.361   1.141   0.617 -1.9995  0.0302  0.8177
 1454TIP3    H2 4327   2.324   1.039   0.511 -0.8237  0.6877 -0.2392
 1455TIP3   OH2 4328   5.297   5.390   4.616  0.4023 -0.3410  0.5081
 1455TIP3    H1 4329   5.375   5.411   4.668  0.3035  2.4728 -0.3115
 1455TIP3    H2 4330   5.331   5.367   4.530  0.3814  1.1922  0.0592
 1456TIP3   OH2 4331   6.511   2.453   4.730 -0.6824  0.4246  0.3111
 1456TIP3    H1 4332   6.569   2.492   4.665 -1.3312 -0.9629 -1.1657
 1456TIP3    H2 4333   6.458   2.390   4.681 -0.4608 -1.4753  2.3373
 1457TIP3   OH2 4334   2.728   6.735   3.843  0.1263  0.3226 -0.0689
 1457TIP3    H1 4335   2.750   6.642   3.831 -1.8856 -0.1481 -0.4900
 1457TIP3    H2 4336   2.733   6.748   3.937 -0.1748 -0.4005  0.0581
 1458TIP3   OH2 4337   4.585   5.407   2.656 -0.0416  0.5253  0.3900
 1458TIP3    H1 4338   4.548   5.483   2.701 -0.4307  1.1929 -1.0018
 1458TIP3    H2 4339   4.666   5.441   2.616 -0.9686  0.6324 -1.4804
 1459TIP3   OH2 4340   5.016   1.140   3.689  0.5074  0.2796  0.0561
 1459TIP3    H1 4341   4.977   1.094   3.763 -0.6111 -2.0538 -1.8112
 1459TIP3    H2 4342   5.091   1.186   3.725  0.0759 -0.8433  2.5853
 1460TIP3   OH2 4343   5.929   5.361   4.331 -0.0370 -0.5082 -0.0880
 1460TIP3    H1 4344   5.991   5.301   4.372  0.8440  0.1139 -0.4796
 1460TIP3    H2 4345   5.951   5.359   4.238 -0.3372  0.0315 -0.1747
 1461TIP3   OH2 4346   7.170   5.289   4.732 -0.0386  0.1493 -0.3304
 1461TIP3    H1 4347   7.237   5.303   4.665 -0.0903 -2.0972 -0.9085
 1461TIP3    H2 4348   7.088   5.308   4.687  0.0407  0.4959 -0.3340
 1462TIP3   OH2 4349   5.044   6.087   3.136 -0.6437 -0.3436  0.1396
 1462TIP3    H1 4350   5.091   6.140   3.073 -0.6399 -0.2779  0.1977
 1462TIP3    H2 4351   5.108   6.020   3.163 -0.7921 -0.6580 -0.2718
 1463TIP3   OH2 4352   5.837   2.103   4.500 -0.1624  0.0543 -0.4048
 1463TIP3    H1 4353   5.780   2.130   4.573  0.1415  0.1390 -0.1952
 1463TIP3    H2 4354   5.805   2.153   4.425 -0.3750  0.0892 -0.2922
 1464TIP3   OH2 4355   0.556   0.766   2.927  0.0539 -0.2276 -0.0799
 1464TIP3    H1 4356   0.496   0.810   2.987  0.0512  0.0551 -0.2858
 1464TIP3    H2 4357   0.577   0.833   2.861 -0.0834 -0.5891 -0.4955
 1465TIP3   OH2 4358   0.082   5.354   2.600 -0.5205 -0.4320 -0.2467
 1465TIP3    H1 4359   0.160   5.405   2.580  0.4691 -0.8409  2.2547
 1465TIP3    H2 4360   0.046   5.396   2.678 -1.4011 -1.7493  0.0801
 1466TIP3   OH2 4361   0.948   0.431   3.983  0.0224  0.0426  0.1378
 1466TIP3    H1 4362   0.918   0.519   3.960  0.8216  0.2018 -0.3190
 1466TIP3    H2 4363   1.036   0.443   4.016 -0.5611 -0.3692  1.9449
 1467TIP3   OH2 4364   2.787   6.732   4.703  0.1143 -0.0106 -0.2921
 1467TIP3    H1 4365   2.858   6.689   4.751  2.4296  2.2256 -1.4893
 1467TIP3    H2 4366   2.786   6.686   4.619  0.0983 -0.0899 -0.2492
 1468TIP3   OH2 4367   0.030   4.041   2.739  0.7428 -0.1240  0.3314
 1468TIP3    H1 4368  -0.007   4.123   2.709  2.3714  0.8907  0.9932
 1468TIP3    H2 4369  -0.014   4.025   2.823  1.2176  0.6506  0.7320
 1469TIP3   OH2 4370   4.851   4.202   1.716 -0.3178  0.4766 -0.1840
 1469TIP3    H1 4371   4.840   4.258   1.793 -1.6344  0.5180 -0.3880
 1469TIP3    H2 4372   4.937   4.227   1.681 -0.2237  1.2981  0.5914
 1470TIP3   OH2 4373   1.607   1.058   3.635  0.2710 -0.1985  0.2420
 1470TIP3    H1 4374   1.526   1.084   3.680 -0.6255 -1.0961 -0.7734
 1470TIP3    H2 4375   1.605   1.108   3.553  0.4974 -0.5992 -0.0078
 1471TIP3   OH2 4376   4.226   6.505   5.132  0.3698 -0.4361 -0.6438
 1471TIP3    H1 4377   4.282   6.472   5.062  0.6534  0.7011 -0.9793
 1471TIP3    H2 4378   4.268   6.587   5.159 -0.2940 -0.3494  0.1645
 1472TIP3   OH2 4379   2.727   2.833   5.934 -0.4276  0.0820 -0.5425
 1472TIP3    H1 4380   2.663   2.806   5.869  0.9430 -0.9348 -1.5465
 1472TIP3    H2 4381   2.800   2.869   5.882 -0.1796  1.2352  0.5485
 1473TIP3   OH2 4382   4.095   0.332   1.431 -0.1053 -0.0318  0.1493
 1473TIP3    H1 4383   4.085   0.413   1.481  2.0461  0.3547  0.0430
 1473TIP3    H2 4384   4.006   0.305   1.412 -0.9474  3.0254 -0.9452
 1474TIP3   OH2 4385   2.074   5.063   3.682 -0.3974 -0.4560 -0.1824
 1474TIP3    H1 4386   2.082   5.066   3.587  1.5314 -1.2869 -0.0965
 1474TIP3    H2 4387   2.155   5.022   3.712 -2.1499 -2.9323  1.6232
 1475TIP3   OH2 4388   2.807   2.947   2.456 -0.1829 -0.2384 -0.0868
 1475TIP3    H1 4389   2.819   3.028   2.507  1.2856  0.0389 -0.8343
 1475TIP3    H2 4390   2.856   2.881   2.505 -0.6985 -0.5106  0.0758
 1476TIP3   OH2 4391   3.663   3.075   1.269  0.0532 -0.0134  0.2701
 1476TIP3    H1 4392   3.673   3.170   1.271  0.0409 -0.0166  0.5370
 1476TIP3    H2 4393   3.742   3.042   1.312 -1.2575 -0.0245  2.8490
 1477TIP3   OH2 4394   4.748   0.875   4.633 -0.6522  0.6035 -0.2357
 1477TIP3    H1 4395   4.827   0.887   4.581 -0.2178 -0.5801  0.1245
 1477TIP3    H2 4396   4.691   0.819   4.580 -0.2387 -0.5449  0.4944
 1478TIP3   OH2 4397   6.368   1.430   2.834 -0.1116 -0.4623 -0.1609
 1478TIP3    H1 4398   6.407   1.378   2.904 -0.9278 -0.8400  0.0108
 1478TIP3    H2 4399   6.415   1.401   2.755 -0.2093 -1.0972  0.0060
 1479TIP3   OH2 4400   6.974   3.656   2.406 -0.4144 -0.5289  0.0588
 1479TIP3    H1 4401   6.953   3.631   2.316 -0.6344 -0.1689  0.0065
 1479TIP3    H2 4402   7.040   3.725   2.397 -2.5312  1.6456  0.0231
 1480TIP3   OH2 4403   3.117   5.920   0.500  0.1157  0.5630 -0.0492
 1480TIP3    H1 4404   3.205   5.954   0.513  0.1319  0.6159 -0.2779
 1480TIP3    H2 4405   3.127   5.853   0.432  0.0550  0.2345  0.2658
 1481TIP3   OH2 4406   6.679   1.940   4.851 -0.6806 -0.2883 -0.2402
 1481TIP3    H1 4407   6.735   1.874   4.811 -1.5040 -0.3596 -1.3581
 1481TIP3    H2 4408   6.731   2.021   4.849 -0.1165 -0.6445  0.0252
 1482TIP3   OH2 4409   0.116   3.219   4.507  0.9691  0.0227 -0.2025
 1482TIP3    H1 4410   0.074   3.165   4.574 -1.7226  2.1502  0.0318
 1482TIP3    H2 4411   0.096   3.174   4.424  1.4272 -0.8858  0.1686
 1483TIP3   OH2 4412   2.933   4.214   2.738  0.5018  0.8362  0.1261
 1483TIP3    H1 4413   2.996   4.175   2.678  0.1361  1.4918 -0.6986
 1483TIP3    H2 4414   2.976   4.211   2.823  0.7139 -0.8310 -0.0067
 1484TIP3   OH2 4415   2.560   2.249   0.294  0.1367 -0.4273  0.4961
 1484TIP3    H1 4416   2.571   2.294   0.378  3.5762  0.1288 -0.0951
 1484TIP3    H2 4417   2.638   2.272   0.244 -1.5917 -1.0311 -2.7770
 1485TIP3   OH2 4418   7.052   3.304   1.085  0.1426  0.7350  0.3432
 1485TIP3    H1 4419   7.040   3.386   1.133  0.8299  1.9423 -1.4543
 1485TIP3    H2 4420   7.069   3.331   0.995 -0.7105 -1.4265 -0.5402
 1486TIP3   OH2 4421   0.449   5.579   4.069 -0.0606  0.0066  0.5213
 1486TIP3    H1 4422   0.463   5.485   4.080  2.3391  0.1832 -0.4348
 1486TIP3    H2 4423   0.475   5.617   4.153  0.8961 -0.0535  0.2642
 1487TIP3   OH2 4424   0.659   5.049   5.287 -0.4065 -0.0275  0.2556
 1487TIP3    H1 4425   0.583   4.996   5.261 -0.4485  0.7821 -1.4640
 1487TIP3    H2 4426   0.635   5.087   5.371 -0.9479 -1.6092  0.8323
 1488TIP3   OH2 4427   0.029   3.031   5.458  0.4967 -0.1435 -0.1322
 1488TIP3    H1 4428   0.014   3.111   5.508 -2.5235  1.1015 -2.6767
 1488TIP3    H2 4429  -0.024   2.964   5.502  0.0498  0.2340 -0.0886
 1489TIP3   OH2 4430   4.158   0.859   5.701  0.4343  0.2864 -0.0473
 1489TIP3    H1 4431   4.114   0.944   5.707 -0.8306 -0.1612 -2.0016
 1489TIP3    H2 4432   4.126   0.810   5.777  0.9098  1.4290  0.9074
 1490TIP3   OH2 4433   5.747   6.505   1.502  0.2056 -0.5533 -0.2874
 1490TIP3    H1 4434   5.700   6.504   1.419  0.1217  0.2105 -0.2545
 1490TIP3    H2 4435   5.766   6.413   1.520 -1.2425 -0.8704 -0.3220
 1491TIP3   OH2 4436   1.045   4.432   0.954  0.6182 -0.2546 -0.1207
 1491TIP3    H1 4437   0.991   4.424   0.875 -1.8364 -1.1152  1.5262
 1491TIP3    H2 4438   0.995   4.387   1.022  2.1985  1.1929  2.1498
 1492TIP3   OH2 4439   2.756   1.873   3.404  0.7171  0.3090 -0.1802
 1492TIP3    H1 4440   2.678   1.922   3.379 -1.0615 -0.6444  2.9287
 1492TIP3    H2 4441   2.801   1.930   3.466  0.1922 -0.7317  1.2171
 1493TIP3   OH2 4442   1.743   3.667   4.362 -0.3270  0.1998 -0.2717
 1493TIP3    H1 4443   1.725   3.577   4.336 -1.1141 -0.1828  1.4233
 1493TIP3    H2 4444   1.797   3.658   4.441 -0.9991  1.1722  0.3218
 1494TIP3   OH2 4445   0.567   2.844   1.701  0.4174 -0.3557  0.0717
 1494TIP3    H1 4446   0.515   2.891   1.636 -2.7905 -0.5979  2.2684
 1494TIP3    H2 4447   0.614   2.778   1.649 -1.9221 -0.5033 -2.0684
 1495TIP3   OH2 4448   6.287   6.745   0.165  0.8390 -0.4619 -0.1231
 1495TIP3    H1 4449   6.206   6.755   0.117  1.6597 -2.0091 -1.9551
 1495TIP3    H2 4450   6.260   6.735   0.257 -0.9157  0.3205 -0.5264
 1496TIP3   OH2 4451   6.523   6.175   5.104 -0.4721 -0.0518 -0.9042
 1496TIP3    H1 4452   6.538   6.270   5.108 -3.0071  0.4337 -1.3513
 1496TIP3    H2 4453   6.594   6.143   5.049  0.8336  1.4707 -0.1900
 1497TIP3   OH2 4454   1.256   4.619   4.577  0.2059  0.5865  0.3019
 1497TIP3    H1 4455   1.318   4.568   4.629  0.1765 -0.1807 -0.3845
 1497TIP3    H2 4456   1.311   4.662   4.511  0.0843  0.3402  0.0343
 1498TIP3   OH2 4457   7.106   1.219   3.631  0.3625 -0.1137 -0.0280
 1498TIP3    H1 4458   7.175   1.211   3.696 -1.2520 -0.3170  1.7473
 1498TIP3    H2 4459   7.137   1.288   3.572  1.4850  0.7450  1.4968
 1499TIP3   OH2 4460   4.921   0.500   3.251  0.6563 -0.4168 -0.6699
 1499TIP3    H1 4461   4.963   0.434   3.306  0.6259 -0.6803 -0.9597
 1499TIP3    H2 4462   4.963   0.582   3.276  1.2608 -0.6573 -0.8673
 1500TIP3   OH2 4463   5.894   1.150   1.595 -0.6032  0.3207 -0.0330
 1500TIP3    H1 4464   5.926   1.218   1.653  1.0670 -0.4063 -0.0617
 1500TIP3    H2 4465   5.881   1.074   1.651  3.2037 -1.1144 -0.7789
 1501TIP3   OH2 4466   6.631   5.013   0.818  0.2660  0.3133  0.2171
 1501TIP3    H1 4467   6.690   5.078   0.780 -1.4234  1.4777 -0.5516
 1501TIP3    H2 4468   6.639   4.938   0.760  0.8019  0.5358 -0.0104
 1502TIP3   OH2 4469   2.273   4.805   2.037  0.1861 -0.0068 -0.6450
 1502TIP3    H1 4470   2.286   4.819   1.943 -1.3163  1.2865 -0.6922
 1502TIP3    H2 4471   2.347   4.750   2.063  0.8750 -0.0263 -2.4893
 1503TIP3   OH2 4472   0.008   6.338   1.791 -0.1116  0.3688 -0.1988
 1503TIP3    H1 4473   0.100   6.360   1.779 -0.1902  1.5857  1.0749
 1503TIP3    H2 4474   0.003   6.243   1.780  1.1862  0.3582 -0.8175
 1504TIP3   OH2 4475   3.367   1.872   4.951 -0.1428  0.6111 -0.0689
 1504TIP3    H1 4476   3.321   1.842   5.029 -0.9906 -0.1668 -0.8491
 1504TIP3    H2 4477   3.459   1.869   4.975 -0.3932  0.4439  0.9232
 1505TIP3   OH2 4478   4.672   1.850   1.543 -0.2106  0.2165  0.0161
 1505TIP3    H1 4479   4.591   1.839   1.492  0.2017  0.4413 -0.7054
 1505TIP3    H2 4480   4.697   1.942   1.528  0.0127  0.2374  0.4890
 1506TIP3   OH2 4481   5.503   6.275   4.315 -0.2046 -0.0351 -0.3603
 1506TIP3    H1 4482   5.485   6.291   4.223  0.5181 -0.9754 -0.6839
 1506TIP3    H2 4483   5.491   6.181   4.326 -0.7941  0.1389  0.6360
 1507TIP3   OH2 4484   5.548   0.483   3.980  0.2649 -0.3526 -0.0458
 1507TIP3    H1 4485   5.589   0.402   4.009  0.1444 -0.3074  0.2585
 1507TIP3    H2 4486   5.559   0.544   4.054  0.7952  0.0688 -0.4591
 1508TIP3   OH2 4487   3.820   2.593   0.113 -0.0783 -0.0723 -0.4113
 1508TIP3    H1 4488   3.744   2.591   0.055  0.0731 -0.4428 -0.6031
 1508TIP3    H2 4489   3.820   2.506   0.154 -0.2898  0.2494  0.2791
 1509TIP3   OH2 4490   4.944   5.452   0.762  0.5588 -0.5280  0.5405
 1509TIP3    H1 4491   4.949   5.452   0.666 -1.2744  2.4111  0.3272
 1509TIP3    H2 4492   5.035   5.451   0.791  1.1502 -1.5095 -1.1759
 1510TIP3   OH2 4493   5.038   0.061   3.316 -0.0920 -0.0774  0.2078
 1510TIP3    H1 4494   5.108   0.004   3.283  1.0980  0.2152  2.0494
 1510TIP3    H2 4495   4.988   0.006   3.375 -0.0055  0.3283  0.6610
 1511TIP3   OH2 4496   2.872   3.589   5.587 -0.1615  0.2671 -0.0893
 1511TIP3    H1 4497   2.867   3.589   5.682 -0.8539 -1.3407 -0.0888
 1511TIP3    H2 4498   2.837   3.503   5.561  1.0423  0.2309 -1.7373
 1512TIP3   OH2 4499   6.936   0.358   5.412  0.2445  0.3043 -0.8192
 1512TIP3    H1 4500   6.992   0.324   5.342  0.2783 -0.4563 -0.4301
 1512TIP3    H2 4501   6.847   0.345   5.380  0.2404 -0.7268 -0.4251
 1513TIP3   OH2 4502   3.236   4.545   0.365  0.1127  0.6213  0.0762
 1513TIP3    H1 4503   3.294   4.494   0.421  0.6002  2.9273  1.8155
 1513TIP3    H2 4504   3.150   4.505   0.376  0.4087  0.3520  1.6514
 1514TIP3   OH2 4505   0.751  -0.007   5.861  0.2616  0.0601 -0.2603
 1514TIP3    H1 4506   0.711   0.066   5.909  1.2023 -0.3509  1.2186
 1514TIP3    H2 4507   0.846   0.008   5.870  0.4653 -1.2845 -0.0161
 1515TIP3   OH2 4508   1.647   3.902   4.240  0.0357  0.2160  0.3443
 1515TIP3    H1 4509   1.683   3.818   4.269 -3.0448 -0.6290  2.2442
 1515TIP3    H2 4510   1.594   3.880   4.163 -0.3670  0.4894  0.5394
 1516TIP3   OH2 4511   0.429   2.608   5.471  0.6229 -0.0944 -0.4361
 1516TIP3    H1 4512   0.351   2.657   5.446  1.1681  2.4933  2.2717
 1516TIP3    H2 4513   0.395   2.532   5.519 -0.3881  1.5206  1.6135
 1517TIP3   OH2 4514   5.946   5.503   4.606 -0.0635  0.0608  0.8974
 1517TIP3    H1 4515   6.001   5.570   4.565 -0.4818  0.2213  0.5795
 1517TIP3    H2 4516   5.886   5.476   4.536  1.6285 -2.4104  0.2541
 1518TIP3   OH2 4517   3.877   0.588   4.820 -0.2485 -0.1835 -0.1035
 1518TIP3    H1 4518   3.954   0.532   4.818 -0.3255 -0.5069  2.5422
 1518TIP3    H2 4519   3.902   0.666   4.771  1.5359 -0.5197  0.2265
 1519TIP3   OH2 4520   5.126   5.966   0.979  0.2741 -0.3065  0.3538
 1519TIP3    H1 4521   5.171   5.951   0.896  0.4898 -0.1486  0.4420
 1519TIP3    H2 4522   5.075   6.045   0.965 -0.5350 -0.8701  0.0252
 1520TIP3   OH2 4523   2.153   2.101   0.055 -0.6627 -0.0924  0.2034
 1520TIP3    H1 4524   2.159   2.090  -0.040  1.5662 -2.2581  0.4979
 1520TIP3    H2 4525   2.082   2.041   0.080 -1.2901  0.5206 -0.0772
 1521TIP3   OH2 4526   7.183   0.572   0.728 -0.3474  0.2205  0.4124
 1521TIP3    H1 4527   7.212   0.513   0.797  1.8386  1.6139  0.7595
 1521TIP3    H2 4528   7.191   0.520   0.648  0.7518 -0.2149  0.7881
 1522TIP3   OH2 4529   3.440   1.363   5.660  0.0419  0.2379 -0.0674
 1522TIP3    H1 4530   3.370   1.363   5.596  0.0036  3.0490 -0.1707
 1522TIP3    H2 4531   3.519   1.344   5.610 -0.4508 -1.7152 -0.1628
 1523TIP3   OH2 4532   1.700   0.894   0.911 -0.1521 -0.3613  0.4318
 1523TIP3    H1 4533   1.735   0.867   0.996 -0.8707 -1.8955  0.2666
 1523TIP3    H2 4534   1.608   0.868   0.914  0.1857 -1.9367 -1.4190
 1524TIP3   OH2 4535   2.394   6.451   5.804  0.5030  0.5559  0.5987
 1524TIP3    H1 4536   2.381   6.546   5.808  0.4610  0.6013 -0.3164
 1524TIP3    H2 4537   2.394   6.431   5.710  0.1416 -0.4038  0.7894
 1525TIP3   OH2 4538   5.261   1.619   2.809 -0.0093  0.8829  0.3098
 1525TIP3    H1 4539   5.230   1.704   2.779  1.3805  0.4006 -2.8252
 1525TIP3    H2 4540   5.357   1.626   2.805  0.1419 -0.5378  0.9450
 1526TIP3   OH2 4541   6.618   1.220   4.929  0.3243  0.0119  0.0275
 1526TIP3    H1 4542   6.534   1.262   4.946  0.1378  0.1558 -1.1619
 1526TIP3    H2 4543   6.642   1.249   4.841  1.3703 -0.4373  0.1496
 1527TIP3   OH2 4544   2.167   0.756   0.588  0.0469  0.0234  0.3958
 1527TIP3    H1 4545   2.236   0.714   0.537 -0.4989  1.1701 -1.3718
 1527TIP3    H2 4546   2.159   0.701   0.666  0.8978 -1.8268 -0.7419
 1528TIP3   OH2 4547   2.754   4.632   2.262 -1.0242  0.1093 -0.5156
 1528TIP3    H1 4548   2.815   4.559   2.272  0.1849  0.8634 -1.9688
 1528TIP3    H2 4549   2.725   4.652   2.352 -0.8208 -1.6492 -0.0316
 1529TIP3   OH2 4550   4.944   3.561   2.781  0.2872  0.0294 -0.4446
 1529TIP3    H1 4551   4.989   3.479   2.799  0.0929  0.0012 -0.0739
 1529TIP3    H2 4552   4.998   3.628   2.824  1.3612  0.3175 -2.1265
 1530TIP3   OH2 4553   4.099   5.821   0.819 -0.0399 -0.1069  0.3844
 1530TIP3    H1 4554   4.067   5.732   0.806  1.0756 -0.3873 -0.7073
 1530TIP3    H2 4555   4.194   5.812   0.818  0.0863  1.0738  0.4527
 1531TIP3   OH2 4556   0.975   3.169   3.927 -0.4261 -0.0030  0.4036
 1531TIP3    H1 4557   0.903   3.141   3.983 -1.6385  1.7814 -0.1569
 1531TIP3    H2 4558   1.039   3.098   3.932 -3.1029 -2.7270 -0.7168
 1532TIP3   OH2 4559   5.327   3.483   5.655 -0.5239  0.2362  0.2005
 1532TIP3    H1 4560   5.267   3.410   5.646 -0.1068 -0.0638 -0.1863
 1532TIP3    H2 4561   5.304   3.543   5.584 -0.4206  0.1582  0.1008
 1533TIP3   OH2 4562   4.062   1.794   2.253 -0.0442  0.1040 -0.4553
 1533TIP3    H1 4563   4.052   1.813   2.159 -2.2104 -2.0999 -0.7686
 1533TIP3    H2 4564   3.972   1.790   2.286  0.6678  0.5409  1.7121
 1534TIP3   OH2 4565   4.807   5.447   1.963 -0.6681  0.0672 -0.0419
 1534TIP3    H1 4566   4.877   5.499   1.924 -0.2244 -0.7425 -0.3691
 1534TIP3    H2 4567   4.825   5.448   2.056 -0.2749 -0.0535 -0.1152
 1535TIP3   OH2 4568   6.533   2.373   0.299 -0.5035 -0.3562 -0.6281
 1535TIP3    H1 4569   6.522   2.449   0.243 -3.1477 -0.0389  0.1836
 1535TIP3    H2 4570   6.573   2.407   0.379 -0.1108 -0.1450 -0.9145
 1536TIP3   OH2 4571   0.563   4.608   4.101  0.8252 -0.2009 -0.1061
 1536TIP3    H1 4572   0.599   4.659   4.028  0.1182  0.8320  0.2415
 1536TIP3    H2 4573   0.481   4.652   4.122  1.2063 -0.2419  1.5645
 1537TIP3   OH2 4574   7.001   5.224   0.905 -0.1136  0.1377 -0.0241
 1537TIP3    H1 4575   6.945   5.244   0.830 -0.9001  0.2281  0.5805
 1537TIP3    H2 4576   7.090   5.231   0.871 -0.4569 -1.7549 -1.4691
 1538TIP3   OH2 4577   3.441   6.016   4.031 -0.3075  0.0259  0.1215
 1538TIP3    H1 4578   3.474   5.987   3.945 -2.1313  0.1473 -0.6710
 1538TIP3    H2 4579   3.366   5.959   4.047 -0.7858  0.9007  1.0185
 1539TIP3   OH2 4580   4.915   5.616   5.880 -0.4169  0.3889  0.0745
 1539TIP3    H1 4581   4.836   5.655   5.842 -0.6912 -1.4294 -1.3976
 1539TIP3    H2 4582   4.917   5.527   5.844  2.0532  0.2279  0.4520
 1540TIP3   OH2 4583   6.037   4.870   1.811  0.0369 -0.7511 -0.5587
 1540TIP3    H1 4584   6.003   4.784   1.836  0.8915 -0.3992  2.1414
 1540TIP3    H2 4585   6.128   4.869   1.843  0.5512  0.6348 -1.8645
 1541TIP3   OH2 4586   4.250   5.761   5.807 -0.7470 -0.0253 -0.1715
 1541TIP3    H1 4587   4.175   5.703   5.798  0.0019 -0.7869 -1.9275
 1541TIP3    H2 4588   4.225   5.841   5.762 -0.6465 -0.1301 -0.4126
 1542TIP3   OH2 4589   2.029   2.096   2.718 -0.1120  0.3217 -0.1184
 1542TIP3    H1 4590   1.968   2.149   2.770  0.3843  0.6666  0.1207
 1542TIP3    H2 4591   2.089   2.159   2.680 -0.0339  0.0008 -0.5299
 1543TIP3   OH2 4592   3.101   4.572   4.440 -0.7910  0.3866 -0.1374
 1543TIP3    H1 4593   3.183   4.601   4.480 -0.6036  0.5695 -0.6457
 1543TIP3    H2 4594   3.116   4.580   4.346 -0.9465 -0.7868 -0.2805
 1544TIP3   OH2 4595   2.446   6.676   1.416 -0.1804  0.0999 -0.1650
 1544TIP3    H1 4596   2.446   6.602   1.476 -0.6325  0.3880  0.2049
 1544TIP3    H2 4597   2.389   6.649   1.344  2.6219 -1.4091 -2.0004
 1545TIP3   OH2 4598   2.152   6.259   5.825  0.6148  0.8888  0.6260
 1545TIP3    H1 4599   2.200   6.339   5.805 -1.1267  1.6724 -0.6448
 1545TIP3    H2 4600   2.140   6.216   5.740 -1.0208  0.7968  0.8691
 1546TIP3   OH2 4601   3.304   0.507   1.880  0.4750  0.3189 -0.3318
 1546TIP3    H1 4602   3.268   0.423   1.852  0.2398  0.5682 -0.7752
 1546TIP3    H2 4603   3.282   0.513   1.973 -0.0366  0.1634 -0.4419
 1547TIP3   OH2 4604   5.778   0.157   3.079  0.3533 -0.1267  0.1689
 1547TIP3    H1 4605   5.840   0.165   3.151 -1.2269 -0.6966  1.6854
 1547TIP3    H2 4606   5.694   0.142   3.123 -0.9137  0.9738 -1.7832
 1548TIP3   OH2 4607   2.801   4.103   4.713  0.3820 -0.6628  0.2329
 1548TIP3    H1 4608   2.829   4.023   4.667 -1.3281 -0.6379 -0.9651
 1548TIP3    H2 4609   2.713   4.082   4.743  0.5217  0.2488  1.3096
 1549TIP3   OH2 4610   1.422   4.884   3.179  0.1833  0.0187  0.0957
 1549TIP3    H1 4611   1.399   4.807   3.127  0.4130  0.4526 -0.6587
 1549TIP3    H2 4612   1.473   4.848   3.252  1.0784 -0.4723 -0.7388
 1550TIP3   OH2 4613   0.973   1.591   0.790 -0.1721  0.5693 -0.3985
 1550TIP3    H1 4614   0.985   1.498   0.809  0.8760  0.2839 -2.1585
 1550TIP3    H2 4615   1.006   1.636   0.867  0.3757 -0.5219  0.0271
 1551TIP3   OH2 4616   7.122   3.509   5.403 -0.0423 -0.0664  0.1366
 1551TIP3    H1 4617   7.027   3.509   5.391 -0.2749 -0.9031  1.7578
 1551TIP3    H2 4618   7.153   3.583   5.350 -1.7064  0.8879  0.4407
 1552TIP3   OH2 4619   0.800   2.182   4.611  0.0809 -0.6216  0.2914
 1552TIP3    H1 4620   0.867   2.215   4.550 -0.2749  0.4793  0.4853
 1552TIP3    H2 4621   0.732   2.145   4.554 -0.6052  1.0711 -0.0402
 1553TIP3   OH2 4622   6.864   5.549   2.766 -0.4296  0.5388 -0.0932
 1553TIP3    H1 4623   6.935   5.533   2.703  0.0263 -2.7543  1.0624
 1553TIP3    H2 4624   6.784   5.527   2.718 -0.1083 -1.6286  0.2701
 1554TIP3   OH2 4625   6.440   5.220   4.803  0.0601  0.2661  0.3274
 1554TIP3    H1 4626   6.520   5.271   4.790  1.4996 -2.0129 -0.5118
 1554TIP3    H2 4627   6.398   5.260   4.879  0.5739  3.1787 -0.8027
 1555TIP3   OH2 4628   2.787   0.963   2.195 -0.7931  0.4474 -0.0411
 1555TIP3    H1 4629   2.774   0.954   2.289 -1.1591 -0.4940 -0.1778
 1555TIP3    H2 4630   2.861   1.025   2.187 -0.9775  0.7915  0.8435
 1556TIP3   OH2 4631   0.391   2.596   4.162  0.1315  0.1082  0.1509
 1556TIP3    H1 4632   0.425   2.648   4.234 -1.4031 -1.2256  1.9781
 1556TIP3    H2 4633   0.308   2.638   4.139  1.3006  1.4017 -1.9532
 1557TIP3   OH2 4634   0.679   6.441   4.540  0.0331 -0.3518 -0.4365
 1557TIP3    H1 4635   0.639   6.382   4.604 -0.3264 -0.4721 -0.7641
 1557TIP3    H2 4636   0.612   6.506   4.521 -0.2455 -0.9123 -1.4514
 1558TIP3   OH2 4637   3.743   6.646   3.357  0.7794  0.1765 -0.5266
 1558TIP3    H1 4638   3.658   6.614   3.388  0.7857  0.8314  0.1989
 1558TIP3    H2 4639   3.780   6.572   3.308  0.7601 -0.9160  1.0251
 1559TIP3   OH2 4640   0.093   6.029   4.136  0.1815  0.0632  0.6002
 1559TIP3    H1 4641   0.062   6.095   4.073  0.5130  1.0101  1.4059
 1559TIP3    H2 4642   0.150   5.972   4.085  0.3044  0.7094  0.0022
 1560TIP3   OH2 4643   0.001   1.033   5.715  0.0326 -0.2057 -0.2999
 1560TIP3    H1 4644   0.095   1.013   5.713 -0.0156 -0.5549  0.5547
 1560TIP3    H2 4645  -0.029   1.012   5.627  0.8224  0.2436 -0.6865
 1561TIP3   OH2 4646   6.249   5.717   1.455 -0.0012 -0.6737  0.0031
 1561TIP3    H1 4647   6.332   5.704   1.500  0.2657 -0.6367 -0.4645
 1561TIP3    H2 4648   6.261   5.673   1.370  0.2403  0.9724 -0.8490
 1562TIP3   OH2 4649   6.874   0.956   3.066 -0.0983 -0.0707  0.8011
 1562TIP3    H1 4650   6.816   0.944   2.991 -1.0376  0.5246  1.4006
 1562TIP3    H2 4651   6.832   0.906   3.137  2.0440 -2.7469  0.3958
 1563TIP3   OH2 4652   3.728   5.808   5.779 -0.3998  0.0258  0.5919
 1563TIP3    H1 4653   3.784   5.878   5.813  0.0337  0.4294 -0.8829
 1563TIP3    H2 4654   3.645   5.819   5.825 -1.0223  2.7672 -0.9733
 1564TIP3   OH2 4655   0.823   5.833   5.131  0.1733  1.2011  0.8068
 1564TIP3    H1 4656   0.907   5.879   5.126  0.7632  0.0642 -1.9311
 1564TIP3    H2 4657   0.833   5.770   5.202  2.8631 -0.9487 -1.2590
 1565TIP3   OH2 4658   5.426   4.501   2.368 -0.1267 -0.0904  0.1690
 1565TIP3    H1 4659   5.508   4.489   2.319 -0.2182  0.3538 -0.1013
 1565TIP3    H2 4660   5.430   4.591   2.400 -0.6180  0.0134 -0.0511
 1566TIP3   OH2 4661   0.508   6.411   5.320 -0.6465  0.1668 -0.3862
 1566TIP3    H1 4662   0.482   6.340   5.262  2.2220 -0.2078 -1.3761
 1566TIP3    H2 4663   0.569   6.464   5.268  0.3109  1.0975  1.5591
 1567TIP3   OH2 4664   0.851   4.240   4.900  0.4692  0.6522  0.5105
 1567TIP3    H1 4665   0.772   4.289   4.877  1.0895  0.8568 -1.3736
 1567TIP3    H2 4666   0.876   4.273   4.987 -1.2102  0.9522  0.9033
 1568TIP3   OH2 4667   2.101   4.363   1.298  0.0416 -0.0163 -0.0929
 1568TIP3    H1 4668   2.020   4.402   1.333 -0.2066  0.3501 -1.0535
 1568TIP3    H2 4669   2.103   4.389   1.206  1.7556  0.7949  0.1358
 1569TIP3   OH2 4670   6.904   4.743   1.827  0.1532  0.8002  0.0180
 1569TIP3    H1 4671   6.834   4.751   1.763 -0.0696  1.9314  0.3774
 1569TIP3    H2 4672   6.860   4.718   1.908  0.5664 -1.8789 -0.4965
 1570TIP3   OH2 4673   1.134   5.834   0.089 -0.1395 -0.3471  0.2804
 1570TIP3    H1 4674   1.134   5.781   0.169 -0.4347  1.7321  1.7533
 1570TIP3    H2 4675   1.103   5.775   0.021 -1.9643 -1.6716  2.1112
 1571TIP3   OH2 4676   1.849   3.792   5.816  0.0168 -0.1118 -0.0601
 1571TIP3    H1 4677   1.829   3.746   5.734  1.6528 -1.1361  0.0712
 1571TIP3    H2 4678   1.910   3.861   5.791  0.3068 -0.2534  0.2489
 1572TIP3   OH2 4679   4.474   6.054   4.060  0.5857 -0.7799 -0.2689
 1572TIP3    H1 4680   4.465   5.975   4.005  0.3004 -1.3259  0.5422
 1572TIP3    H2 4681   4.483   6.125   3.997 -2.4840 -0.9968 -1.1609
 1573TIP3   OH2 4682   5.752   6.539   2.069 -0.6395 -0.5370 -0.0054
 1573TIP3    H1 4683   5.796   6.623   2.059  0.8205 -1.1881  0.6413
 1573TIP3    H2 4684   5.757   6.499   1.983  0.7329 -0.9106  0.2303
 1574TIP3   OH2 4685   0.619   3.881   1.901 -0.5886 -0.1627  0.0049
 1574TIP3    H1 4686   0.660   3.953   1.852 -1.8261  1.6947  1.5504
 1574TIP3    H2 4687   0.693   3.832   1.937  0.2997 -0.0373 -1.5740
 1575TIP3   OH2 4688   4.331   6.140   4.266  0.1447 -0.1291 -0.3766
 1575TIP3    H1 4689   4.277   6.205   4.220 -1.6023 -1.3341 -0.1441
 1575TIP3    H2 4690   4.396   6.113   4.202 -0.2315  0.5502 -1.0706
 1576TIP3   OH2 4691   5.536   2.729   4.197  0.1772 -0.3022  0.0359
 1576TIP3    H1 4692   5.503   2.749   4.285  1.4981 -0.2083  0.5283
 1576TIP3    H2 4693   5.459   2.737   4.141 -0.7246 -0.5131  1.1967
 1577TIP3   OH2 4694   3.498   4.766   2.963  0.5873  0.1355  0.0312
 1577TIP3    H1 4695   3.524   4.806   2.880 -1.0026 -0.9586 -1.0504
 1577TIP3    H2 4696   3.413   4.726   2.945 -0.2808  0.7105  2.4687
 1578TIP3   OH2 4697   2.086   0.574   0.874 -0.0551 -0.3028  0.5219
 1578TIP3    H1 4698   2.054   0.485   0.857 -2.3075  0.3525  1.0437
 1578TIP3    H2 4699   2.009   0.629   0.864  1.3715  1.6685 -0.1223
 1579TIP3   OH2 4700   3.042   0.798   1.079 -0.0966  0.5003  0.1821
 1579TIP3    H1 4701   3.003   0.885   1.070  0.8291  0.8723 -0.5033
 1579TIP3    H2 4702   3.018   0.769   1.167 -0.0743  1.6212  0.5715
 1580TIP3   OH2 4703   3.501   3.135   3.163 -0.3192  0.5208 -0.3264
 1580TIP3    H1 4704   3.418   3.180   3.180 -1.8850 -2.1898 -0.2168
 1580TIP3    H2 4705   3.477   3.059   3.110  2.1040 -0.3658 -0.2936
 1581TIP3   OH2 4706   5.698   3.685   0.461  0.6984  0.2315  0.4440
 1581TIP3    H1 4707   5.641   3.616   0.493 -0.7499  1.1544 -0.0511
 1581TIP3    H2 4708   5.680   3.760   0.517  0.7139  0.8191 -0.3111
 1582TIP3   OH2 4709   5.671   5.321   4.390  0.3235  0.2842  0.3197
 1582TIP3    H1 4710   5.764   5.347   4.395  0.1734  0.6291  1.5992
 1582TIP3    H2 4711   5.653   5.281   4.475 -0.8116  0.5957  0.2363
 1583TIP3   OH2 4712   3.588   0.524   2.841 -0.5285  0.5349  0.0364
 1583TIP3    H1 4713   3.680   0.535   2.865 -0.7481  1.8751  0.3549
 1583TIP3    H2 4714   3.568   0.433   2.863  0.4341  0.5246  0.9416
 1584TIP3   OH2 4715   1.204   3.287   2.965 -0.3040  0.0942 -0.0427
 1584TIP3    H1 4716   1.133   3.350   2.954 -1.2751 -0.8468  0.6232
 1584TIP3    H2 4717   1.276   3.324   2.915 -0.6184  2.0571  0.8218
 1585TIP3   OH2 4718   1.692   2.078   1.739 -0.1297  0.0749  0.1418
 1585TIP3    H1 4719   1.606   2.117   1.759 -0.9028 -0.3444 -2.1126
 1585TIP3    H2 4720   1.684   2.047   1.649  2.6435  0.6418 -0.3795
 1586TIP3   OH2 4721   1.358   0.604   0.729 -0.3490  0.5260 -0.1872
 1586TIP3    H1 4722   1.346   0.536   0.796  0.1298  0.9026  0.2977
 1586TIP3    H2 4723   1.310   0.573   0.653 -0.4838 -0.1535  0.1731
 1587TIP3   OH2 4724   6.720   4.229   5.631  0.0328  0.0784 -0.1150
 1587TIP3    H1 4725   6.753   4.318   5.623 -1.4654  0.7873  1.1370
 1587TIP3    H2 4726   6.630   4.233   5.598  0.4012 -1.3209 -1.4319
 1588TIP3   OH2 4727   4.667   3.957   2.061 -0.2688 -0.3527 -0.1079
 1588TIP3    H1 4728   4.695   4.021   2.127 -0.0529 -0.5375 -0.0206
 1588TIP3    H2 4729   4.744   3.943   2.006 -0.3905 -0.3477 -0.2834
 1589TIP3   OH2 4730   6.438   3.077   0.949  0.2807 -0.6589 -0.0212
 1589TIP3    H1 4731   6.513   3.020   0.964  1.0369 -0.3714 -2.3609
 1589TIP3    H2 4732   6.437   3.091   0.855 -2.2956 -0.0435  0.0301
 1590TIP3   OH2 4733   0.638   6.578   5.014  0.2768  0.1467 -0.1398
 1590TIP3    H1 4734   0.653   6.642   5.084  2.3360  0.2019 -0.5678
 1590TIP3    H2 4735   0.724   6.540   4.997 -0.5715 -1.4674 -1.1464
 1591TIP3   OH2 4736   4.449   5.440   1.573  0.1957 -0.5868 -0.2057
 1591TIP3    H1 4737   4.382   5.448   1.505  0.2674  1.0553 -0.1168
 1591TIP3    H2 4738   4.532   5.444   1.525  0.2561  1.3592  0.0190
 1592TIP3   OH2 4739   3.268   2.183   1.413  0.0727  0.2686  0.2233
 1592TIP3    H1 4740   3.289   2.105   1.464  0.1600 -0.2979 -0.6566
 1592TIP3    H2 4741   3.173   2.193   1.423 -0.0155 -0.2561 -0.0828
 1593TIP3   OH2 4742   6.732   4.177   0.565  0.2193 -0.1476 -0.2827
 1593TIP3    H1 4743   6.675   4.250   0.590  0.6292  0.8016 -1.9551
 1593TIP3    H2 4744   6.751   4.193   0.473  1.3075 -1.7324 -0.3573
 1594TIP3   OH2 4745   0.517   1.495   1.131 -0.1375  0.4893  0.0877
 1594TIP3    H1 4746   0.423   1.500   1.113 -0.4051  0.6064  1.4649
 1594TIP3    H2 4747   0.549   1.431   1.067 -1.1554  0.3980 -0.3641
 1595TIP3   OH2 4748   1.573   1.729   4.191 -0.2311  0.2906  0.2402
 1595TIP3    H1 4749   1.639   1.659   4.191 -1.4189 -0.8628  1.3703
 1595TIP3    H2 4750   1.594   1.782   4.268 -0.6678 -0.1409  0.6634
 1596TIP3   OH2 4751   3.069   4.140   3.914 -0.0044 -0.1504  0.1613
 1596TIP3    H1 4752   2.994   4.115   3.860 -0.6280 -0.8308  1.3033
 1596TIP3    H2 4753   3.054   4.096   3.997  1.2629  0.3611  0.6813
 1597TIP3   OH2 4754   1.259   4.071   1.359 -0.7408  0.5511 -0.4432
 1597TIP3    H1 4755   1.264   4.011   1.433  0.5274  1.6556  0.4160
 1597TIP3    H2 4756   1.290   4.020   1.284  1.6943  0.4729  0.5336
 1598TIP3   OH2 4757   2.305   0.611   2.541  0.5033 -0.0841 -0.5430
 1598TIP3    H1 4758   2.308   0.650   2.454  0.5482 -0.5636 -0.7581
 1598TIP3    H2 4759   2.325   0.518   2.527  0.4847 -0.1712 -0.0271
 1599TIP3   OH2 4760   2.156   0.312   5.585 -0.5618  0.2766  0.3812
 1599TIP3    H1 4761   2.107   0.318   5.503  0.4879  0.5928 -0.2509
 1599TIP3    H2 4762   2.245   0.289   5.557 -0.0019  1.1662  1.3658
 1600TIP3   OH2 4763   6.718   2.822   5.524  0.1243  0.3233 -0.9232
 1600TIP3    H1 4764   6.765   2.765   5.586 -1.1485 -0.3912 -0.5808
 1600TIP3    H2 4765   6.740   2.911   5.552  1.2236  0.0149 -0.7489
 1601TIP3   OH2 4766   6.560   3.438   5.818  0.3744  0.1975  0.5096
 1601TIP3    H1 4767   6.485   3.444   5.877 -0.0783 -0.1182 -0.0232
 1601TIP3    H2 4768   6.608   3.519   5.833 -0.3460  0.6380  0.4959
 1602TIP3   OH2 4769   2.479   4.090   1.553 -0.3319  0.0513 -0.8205
 1602TIP3    H1 4770   2.394   4.088   1.509 -0.9489  0.9476  0.2676
 1602TIP3    H2 4771   2.498   3.998   1.573  0.0698 -0.4021 -3.0916
 1603TIP3   OH2 4772   3.673   0.116   5.494  0.5360  0.2582 -0.2041
 1603TIP3    H1 4773   3.605   0.180   5.517 -0.4823 -0.4876 -1.0093
 1603TIP3    H2 4774   3.748   0.140   5.549 -0.8335  0.2596  1.7978
 1604TIP3   OH2 4775   2.811   0.609   0.298 -0.2619  0.2038  0.2748
 1604TIP3    H1 4776   2.801   0.631   0.390 -1.5932 -1.0135  0.4515
 1604TIP3    H2 4777   2.754   0.671   0.252  0.9916  1.3250  0.1567
 1605TIP3   OH2 4778   2.893   6.512   5.131  0.4136 -0.5482 -0.0414
 1605TIP3    H1 4779   2.931   6.535   5.046  1.3152 -1.4312  0.1031
 1605TIP3    H2 4780   2.948   6.557   5.195  2.8511 -3.6876  0.3097
 1606TIP3   OH2 4781   7.198   5.687   1.950 -0.1657  0.0802  0.1475
 1606TIP3    H1 4782   7.134   5.717   1.886 -1.2568 -2.7831 -0.2627
 1606TIP3    H2 4783   7.281   5.684   1.902 -0.1235  1.7797  0.0705
 1607TIP3   OH2 4784   0.102   1.244   4.746  0.5746  0.4657  0.5988
 1607TIP3    H1 4785   0.180   1.276   4.792  2.0612 -0.9075 -0.8386
 1607TIP3    H2 4786   0.029   1.291   4.787  1.6594 -0.9921  4.7433
 1608TIP3   OH2 4787   2.595   4.461   1.341 -0.5607  0.2295 -0.2423
 1608TIP3    H1 4788   2.634   4.437   1.425 -1.9739  1.0669  0.7029
 1608TIP3    H2 4789   2.653   4.424   1.276  0.3544 -0.8049  1.1116
 1609TIP3   OH2 4790   4.948   2.959   5.018 -0.2790  0.5778  0.0353
 1609TIP3    H1 4791   4.875   2.946   5.078  0.3156  0.0605  0.6547
 1609TIP3    H2 4792   4.934   3.047   4.982 -0.4118  1.0713  1.2464
 1610TIP3   OH2 4793   4.197   5.386   0.553 -0.3741 -0.1603 -0.4371
 1610TIP3    H1 4794   4.221   5.403   0.462 -0.5269  1.4222 -0.2184
 1610TIP3    H2 4795   4.117   5.438   0.566 -0.9259 -1.1723  0.3235
 1611TIP3   OH2 4796   1.811   5.380   4.196  0.2060  0.2454  0.1575
 1611TIP3    H1 4797   1.814   5.285   4.196  1.4682  0.2215  2.1521
 1611TIP3    H2 4798   1.883   5.406   4.254  0.8950  2.4683 -1.5665
 1612TIP3   OH2 4799   0.364   1.098   2.127 -0.1815  0.0012  0.6028
 1612TIP3    H1 4800   0.275   1.125   2.104  0.2635  0.8892 -0.1246
 1612TIP3    H2 4801   0.417   1.122   2.052  0.5554 -1.3000  0.6663
 1613TIP3   OH2 4802   2.816   1.707   2.220 -0.2822  0.1840 -0.1921
 1613TIP3    H1 4803   2.798   1.638   2.283 -0.4829  0.3241 -0.0971
 1613TIP3    H2 4804   2.884   1.670   2.163 -2.1986 -1.1004 -1.7472
 1614TIP3   OH2 4805   5.857   6.077   5.669  0.2017  0.2686 -0.3118
 1614TIP3    H1 4806   5.890   6.166   5.654 -0.4563  0.4865 -0.5185
 1614TIP3    H2 4807   5.852   6.038   5.581  2.1268 -0.5949 -0.0923
 1615TIP3   OH2 4808   1.141   5.318   1.734  0.4985  0.1608  0.1700
 1615TIP3    H1 4809   1.094   5.264   1.798 -2.2624  0.2931 -1.5528
 1615TIP3    H2 4810   1.157   5.258   1.661  0.1365  0.8952 -0.5269
 1616TIP3   OH2 4811   1.527   5.358   1.723 -0.7037 -0.1043 -0.2545
 1616TIP3    H1 4812   1.557   5.434   1.772 -1.1655  0.8314 -1.3786
 1616TIP3    H2 4813   1.478   5.394   1.650 -0.7898 -1.4854 -0.9157
 1617TIP3   OH2 4814   4.780   2.488   3.018  0.5289 -0.1956 -0.4369
 1617TIP3    H1 4815   4.768   2.575   2.980  0.8215  0.7184  1.4815
 1617TIP3    H2 4816   4.731   2.430   2.959  0.2386  1.2532 -1.7010
 1618TIP3   OH2 4817   5.926   5.265   5.498  0.0842  0.3299  0.2067
 1618TIP3    H1 4818   5.891   5.226   5.417  1.1907 -0.4191  0.0610
 1618TIP3    H2 4819   5.851   5.310   5.537 -0.5308  0.5181 -1.1189
 1619TIP3   OH2 4820   4.962   3.274   5.476 -0.6498  0.1464  0.2983
 1619TIP3    H1 4821   4.978   3.191   5.430 -1.3213  0.7598 -1.1006
 1619TIP3    H2 4822   4.868   3.289   5.465 -0.8444  0.2927  1.9603
 1620TIP3   OH2 4823   1.375   2.103   4.415 -0.1812  0.5171  0.4663
 1620TIP3    H1 4824   1.302   2.060   4.461  0.1413 -0.1390  0.3814
 1620TIP3    H2 4825   1.376   2.060   4.329  0.0421  0.8194  0.3194
 1621TIP3   OH2 4826   4.736   5.761   2.737 -0.3317 -0.3715 -0.4986
 1621TIP3    H1 4827   4.679   5.686   2.718  0.0539 -0.7442 -0.2098
 1621TIP3    H2 4828   4.794   5.729   2.807 -0.5569  0.3911  0.0479
 1622TIP3   OH2 4829   6.412   6.183   2.116  0.4043 -0.1350 -0.1502
 1622TIP3    H1 4830   6.385   6.171   2.025  1.5869 -0.2884 -0.5023
 1622TIP3    H2 4831   6.330   6.182   2.166 -0.5469  2.4394 -1.4439
 1623TIP3   OH2 4832   7.098   2.200   1.169  0.1476  0.3110 -0.4371
 1623TIP3    H1 4833   7.180   2.245   1.148  1.5191 -2.4192 -1.4651
 1623TIP3    H2 4834   7.048   2.202   1.088 -0.5696  1.3946  0.0050
 1624TIP3   OH2 4835   2.574   4.349   1.783 -0.3596  0.1373  0.8733
 1624TIP3    H1 4836   2.501   4.387   1.832 -0.5685  0.8251  0.0612
 1624TIP3    H2 4837   2.651   4.397   1.814 -0.4416  0.3225  0.7927
 1625TIP3   OH2 4838   1.664   5.092   3.764 -0.1071 -0.4663 -0.2237
 1625TIP3    H1 4839   1.587   5.084   3.709 -1.3351 -2.2241  1.6196
 1625TIP3    H2 4840   1.662   5.183   3.795 -1.4255 -0.4742 -0.2437
 1626TIP3   OH2 4841   5.777   2.224   0.478  0.4879  0.5212  0.2390
 1626TIP3    H1 4842   5.764   2.228   0.383 -2.0824 -1.3508  0.4244
 1626TIP3    H2 4843   5.721   2.294   0.512  0.7530  0.6404  0.4343
 1627TIP3   OH2 4844   5.322   1.643   2.323 -0.0954 -0.0562 -0.2858
 1627TIP3    H1 4845   5.281   1.578   2.379  0.4892 -0.7432 -0.6398
 1627TIP3    H2 4846   5.258   1.659   2.253 -0.9691  1.0557  0.7358
 1628TIP3   OH2 4847   4.350   1.141   2.471  0.2546 -0.4728  0.2397
 1628TIP3    H1 4848   4.283   1.168   2.407  1.0533 -2.0261 -1.3381
 1628TIP3    H2 4849   4.310   1.070   2.520  0.1487 -0.2409  0.4921
 1629TIP3   OH2 4850   2.462   3.353   1.555 -0.1643 -0.6729 -0.2472
 1629TIP3    H1 4851   2.443   3.270   1.511 -0.9996 -1.3022  1.2129
 1629TIP3    H2 4852   2.507   3.327   1.636 -1.0581  0.2231  0.5653
 1630TIP3   OH2 4853   0.738   0.461   3.619 -0.5385  0.0957 -0.5179
 1630TIP3    H1 4854   0.810   0.522   3.602 -1.4175  1.1265 -0.6439
 1630TIP3    H2 4855   0.681   0.508   3.680 -2.4161  0.3641 -2.3716
 1631TIP3   OH2 4856   3.271   5.070   5.486  0.1525  0.3464 -0.1290
 1631TIP3    H1 4857   3.295   5.151   5.531  3.8827  1.2574 -3.2541
 1631TIP3    H2 4858   3.232   5.098   5.403  2.5607 -0.8504 -1.7936
 1632TIP3   OH2 4859   1.610   2.576   4.372 -0.7617  0.0970  0.5089
 1632TIP3    H1 4860   1.595   2.670   4.363  0.0612  0.0664 -1.4837
 1632TIP3    H2 4861   1.672   2.569   4.445 -1.6844  0.9856  1.4142
 1633TIP3   OH2 4862   1.511   3.444   5.159 -0.5923  0.4421  0.0937
 1633TIP3    H1 4863   1.491   3.397   5.240 -0.7188 -0.3169 -0.3683
 1633TIP3    H2 4864   1.461   3.398   5.092 -0.1483  0.7944 -0.4883
 1634TIP3   OH2 4865   2.478   1.456   5.826 -1.1354  0.2257  0.7112
 1634TIP3    H1 4866   2.531   1.399   5.882 -1.0954  1.2459  1.7602
 1634TIP3    H2 4867   2.541   1.507   5.777 -1.1520 -1.5344 -1.2744
 1635TIP3   OH2 4868   0.711   2.357   4.290  0.1004 -0.2632 -0.1509
 1635TIP3    H1 4869   0.799   2.336   4.321  0.3487 -0.9683 -1.2676
 1635TIP3    H2 4870   0.653   2.327   4.360  0.5786 -2.7927 -0.7662
 1636TIP3   OH2 4871   1.244   3.127   5.643 -0.0051 -0.2202 -0.1702
 1636TIP3    H1 4872   1.277   3.037   5.651 -0.9259 -0.5469  0.1434
 1636TIP3    H2 4873   1.208   3.131   5.555  1.8077  0.4828 -0.9261
 1637TIP3   OH2 4874   1.839   2.884   4.199 -0.1036  0.7322 -0.2704
 1637TIP3    H1 4875   1.841   2.971   4.160 -0.9489  0.6775 -0.4409
 1637TIP3    H2 4876   1.925   2.875   4.242  1.4363  0.2750 -3.1846
 1638TIP3   OH2 4877   2.633   3.820   0.621  0.2499 -0.2654  0.0445
 1638TIP3    H1 4878   2.723   3.788   0.610  0.6955  0.3462  1.6687
 1638TIP3    H2 4879   2.633   3.907   0.582  0.9807  0.6209  1.9170
 1639TIP3   OH2 4880   5.401   0.384   3.272  0.8269 -0.0551 -0.0355
 1639TIP3    H1 4881   5.383   0.478   3.276  0.4482 -0.0741 -0.9913
 1639TIP3    H2 4882   5.382   0.352   3.360 -0.5325  0.5208 -0.0904
 1640TIP3   OH2 4883   2.793   1.192   3.582 -0.0585 -0.1130  0.0924
 1640TIP3    H1 4884   2.727   1.137   3.624  0.2341 -2.0089 -1.8084
 1640TIP3    H2 4885   2.864   1.132   3.559  0.7637  1.2461 -1.1096
 1641TIP3   OH2 4886   5.006   3.657   1.707  0.0239 -0.0334 -0.1462
 1641TIP3    H1 4887   5.085   3.603   1.702 -0.3491 -0.5511 -0.5136
 1641TIP3    H2 4888   4.936   3.602   1.673 -0.7958 -0.1361  1.5768
 1642TIP3   OH2 4889   0.995   6.171   3.337 -0.3415 -0.2535  0.1715
 1642TIP3    H1 4890   0.984   6.159   3.432 -0.2861 -1.6521  0.0235
 1642TIP3    H2 4891   0.950   6.253   3.318 -0.3263  0.0719  1.4154
 1643TIP3   OH2 4892   6.777   3.925   0.682 -0.2769 -0.2893  0.3581
 1643TIP3    H1 4893   6.797   3.921   0.776 -2.9976 -0.3342  1.0352
 1643TIP3    H2 4894   6.787   4.018   0.660  1.1412 -0.3912  0.4461
 1644TIP3   OH2 4895   0.761   4.786   5.594 -0.0741  0.4195 -0.3826
 1644TIP3    H1 4896   0.776   4.719   5.660  1.6150  0.7551 -0.3817
 1644TIP3    H2 4897   0.722   4.738   5.520 -3.6922  0.3258  1.3680
 1645TIP3   OH2 4898   2.606   6.749   1.721 -0.3201  0.2425  0.2713
 1645TIP3    H1 4899   2.660   6.816   1.678 -0.6856 -0.6491 -1.7211
 1645TIP3    H2 4900   2.616   6.765   1.814  2.4260  0.8573 -0.0564
 1646TIP3   OH2 4901   1.397   1.949   4.174 -0.2584  0.0583  0.0459
 1646TIP3    H1 4902   1.466   1.883   4.171  1.2945  1.6207 -0.4020
 1646TIP3    H2 4903   1.373   1.963   4.083 -1.3976 -0.6569  0.2140
 1647TIP3   OH2 4904   1.404   5.624   0.034  0.1734 -0.0792 -0.1733
 1647TIP3    H1 4905   1.383   5.642  -0.058 -1.0029  1.3800  0.3313
 1647TIP3    H2 4906   1.443   5.705   0.066  0.6135 -0.5902  0.6069
 1648TIP3   OH2 4907   3.901   4.732   0.535  0.3753 -0.1091 -0.0602
 1648TIP3    H1 4908   3.993   4.756   0.537  0.3940 -0.1279 -0.5023
 1648TIP3    H2 4909   3.879   4.729   0.442 -0.3954  1.1058  0.0594
 1649TIP3   OH2 4910   2.389   2.001   5.349  0.0660 -0.2306  0.3899
 1649TIP3    H1 4911   2.299   1.978   5.375 -0.0440  1.2173  1.4253
 1649TIP3    H2 4912   2.427   2.039   5.428  1.1891  0.3023 -0.3957
 1650TIP3   OH2 4913   6.078   5.148   3.860  0.3142 -0.5357  0.3158
 1650TIP3    H1 4914   6.044   5.059   3.863  0.5749 -0.6331  0.3454
 1650TIP3    H2 4915   6.132   5.151   3.781 -1.1803  0.1298 -0.7241
 1651TIP3   OH2 4916   1.254   2.490   3.159  0.2520  0.1663  0.8329
 1651TIP3    H1 4917   1.202   2.410   3.171 -1.2823  0.6252 -1.9667
 1651TIP3    H2 4918   1.342   2.458   3.136  0.0176 -0.6976  1.1015
 1652TIP3   OH2 4919   2.601   0.602   3.692 -0.4783  0.4487  0.5455
 1652TIP3    H1 4920   2.617   0.572   3.782 -0.2201  0.1805  0.4114
 1652TIP3    H2 4921   2.541   0.676   3.702 -0.8043  0.1411  0.9071
 1653TIP3   OH2 4922   1.265   4.204   4.149  0.0605  0.4507  0.4644
 1653TIP3    H1 4923   1.203   4.215   4.220  1.9320 -0.0588  2.2664
 1653TIP3    H2 4924   1.320   4.130   4.176  1.9987  1.4213 -0.6042
 1654TIP3   OH2 4925   2.500   5.271   3.060 -0.4732 -0.0872  0.1921
 1654TIP3    H1 4926   2.412   5.308   3.048 -1.0738 -1.4693  0.0680
 1654TIP3    H2 4927   2.489   5.208   3.132  0.2129 -0.8681 -0.3685
 1655TIP3   OH2 4928   1.899   3.463   4.888 -0.1778 -0.5334 -0.6993
 1655TIP3    H1 4929   1.838   3.537   4.896 -0.9190 -1.2075  0.0694
 1655TIP3    H2 4930   1.897   3.440   4.795 -0.7674 -0.2752 -0.7584
 1656TIP3   OH2 4931   2.373   0.122   0.114 -0.0100  0.7287  0.0843
 1656TIP3    H1 4932   2.466   0.108   0.132 -0.3580 -1.2465  0.5503
 1656TIP3    H2 4933   2.370   0.204   0.064  2.0897  0.2047 -1.0029
 1657TIP3   OH2 4934   2.770   0.852   4.262 -0.0430  0.3868 -0.1364
 1657TIP3    H1 4935   2.829   0.913   4.218  1.3613 -1.6759 -1.2981
 1657TIP3    H2 4936   2.825   0.808   4.327 -1.2605  0.9527  1.3484
 1658TIP3   OH2 4937   2.073   0.130   4.236  0.3047 -0.0165  0.0954
 1658TIP3    H1 4938   2.031   0.044   4.235  1.0942 -0.4113 -0.7722
 1658TIP3    H2 4939   2.166   0.111   4.250  0.2857  0.8072  1.4971
 1659TIP3   OH2 4940   4.709   3.129   4.101 -0.1007 -0.6692  0.8771
 1659TIP3    H1 4941   4.667   3.180   4.170  1.0362  0.9440  0.4370
 1659TIP3    H2 4942   4.712   3.189   4.026  0.5376 -1.6809  0.0757
 1660TIP3   OH2 4943   1.843   3.258   2.909  0.4486 -0.4097 -0.2600
 1660TIP3    H1 4944   1.885   3.229   2.990  0.7523  1.0704  0.1444
 1660TIP3    H2 4945   1.915   3.266   2.846  0.1347 -2.2050 -0.9357
 1661TIP3   OH2 4946   0.780   6.524   3.000 -0.2075  0.7287  0.4102
 1661TIP3    H1 4947   0.735   6.467   3.063  0.3872 -0.4721 -0.2122
 1661TIP3    H2 4948   0.737   6.505   2.917 -1.9213  3.3101  0.6124
 1662TIP3   OH2 4949   4.160   5.990   5.337 -0.2837  0.1586  0.5652
 1662TIP3    H1 4950   4.072   6.011   5.368 -0.2897  1.3381 -0.1595
 1662TIP3    H2 4951   4.178   6.057   5.271  1.3710  0.2652  1.0886
 1663TIP3   OH2 4952   4.024   5.284   4.170  0.1949  0.1655 -0.2916
 1663TIP3    H1 4953   3.935   5.255   4.189  1.0441 -3.3539 -0.8376
 1663TIP3    H2 4954   4.023   5.307   4.077 -0.0344 -0.4634 -0.4472
 1664TIP3   OH2 4955   6.475   2.137   0.177  0.5616  0.0988  0.0828
 1664TIP3    H1 4956   6.521   2.201   0.232  0.2442  0.0728  0.3809
 1664TIP3    H2 4957   6.519   2.144   0.092  0.1746  1.1244 -0.0571
 1665TIP3   OH2 4958   0.397   3.725   2.057 -0.4214 -0.8081 -0.1738
 1665TIP3    H1 4959   0.334   3.655   2.076 -1.2170 -0.0274  0.1555
 1665TIP3    H2 4960   0.470   3.681   2.015 -0.5163 -1.9624  0.8249
 1666TIP3   OH2 4961   1.906   2.862   1.653  0.0133 -0.4139  0.6292
 1666TIP3    H1 4962   1.873   2.773   1.652 -0.9473 -0.0784  1.0813
 1666TIP3    H2 4963   1.972   2.862   1.723 -0.4535 -0.6195  1.0811
 1667TIP3   OH2 4964   2.719   5.467   4.648 -0.2208 -0.5162 -0.0087
 1667TIP3    H1 4965   2.806   5.453   4.610 -0.5208 -1.0638 -0.5060
 1667TIP3    H2 4966   2.725   5.429   4.736  0.4062  0.5532  0.4351
 1668TIP3   OH2 4967   6.115   4.896   2.984 -0.4197 -0.6035 -0.1227
 1668TIP3    H1 4968   6.047   4.830   2.968 -1.0997  0.1717 -0.4794
 1668TIP3    H2 4969   6.077   4.978   2.953  0.6734 -0.1475 -0.2943
 1669TIP3   OH2 4970   6.882   0.139   1.584 -0.0961 -0.5462 -0.1275
 1669TIP3    H1 4971   6.957   0.094   1.543  0.5169  0.2457  0.0987
 1669TIP3    H2 4972   6.848   0.075   1.647 -0.4305 -1.4024 -1.1361
 1670TIP3   OH2 4973   2.705   0.962   5.009  0.2124 -0.3322 -0.0171
 1670TIP3    H1 4974   2.783   0.954   5.064 -0.6960  0.0765  1.3649
 1670TIP3    H2 4975   2.681   0.872   4.988  1.1218 -0.4594 -0.5887
 1671TIP3   OH2 4976   2.546   2.920   1.062  0.6311 -0.1688  0.3108
 1671TIP3    H1 4977   2.593   2.923   0.978 -0.1400  1.3967 -0.1123
 1671TIP3    H2 4978   2.575   2.999   1.108  0.0256 -0.3009  0.9357
 1672TIP3   OH2 4979   3.607   2.593   0.989 -0.0579 -0.5372  0.3221
 1672TIP3    H1 4980   3.594   2.674   1.039  0.2223 -0.6421  0.5622
 1672TIP3    H2 4981   3.702   2.582   0.986  0.3256  1.8227 -3.8989
 1673TIP3   OH2 4982   4.867   3.324   1.500 -0.3074  0.6318 -0.5060
 1673TIP3    H1 4983   4.916   3.324   1.418 -2.4607 -0.2233 -1.8779
 1673TIP3    H2 4984   4.804   3.395   1.489  0.2129  1.3589  0.9892
 1674TIP3   OH2 4985   3.269  -0.002   0.655 -0.1041 -0.0869 -0.1787
 1674TIP3    H1 4986   3.178  -0.021   0.681  0.2979  1.6557  3.0800
 1674TIP3    H2 4987   3.261   0.045   0.572 -1.9488 -1.9727 -1.1786
 1675TIP3   OH2 4988   6.080   3.198   3.471 -0.3910 -0.5802  0.1590
 1675TIP3    H1 4989   6.074   3.146   3.390 -0.1609 -0.7439  0.2466
 1675TIP3    H2 4990   6.002   3.172   3.521 -1.1091  0.3158 -0.4713
 1676TIP3   OH2 4991   7.087   5.883   3.526 -0.3534 -0.3185 -0.2719
 1676TIP3    H1 4992   7.100   5.788   3.522  0.1343 -0.2990  0.5631
 1676TIP3    H2 4993   7.174   5.918   3.542 -0.3202  0.3775 -1.7657
 1677TIP3   OH2 4994   3.864   6.022   0.207 -0.0292  0.3615 -0.3082
 1677TIP3    H1 4995   3.831   5.941   0.167 -0.3338  0.4221 -0.1847
 1677TIP3    H2 4996   3.789   6.055   0.257  0.4301  0.1374  0.5392
 1678TIP3   OH2 4997   5.020   4.400   5.712 -0.3819 -0.3923  0.3688
 1678TIP3    H1 4998   5.112   4.396   5.740 -0.3207 -0.8203  0.1250
 1678TIP3    H2 4999   4.999   4.493   5.712  0.1308 -0.2686  0.1850
 1679TIP3   OH2 5000   1.723   4.372   3.562  1.1386  0.3136 -0.3903
 1679TIP3    H1 5001   1.629   4.356   3.575  0.4423  1.9046 -2.7891
 1679TIP3    H2 5002   1.760   4.369   3.650 -1.5490  1.7676  0.9303
 1680TIP3   OH2 5003   2.509   4.262   4.211 -0.2393  0.0129 -0.8433
 1680TIP3    H1 5004   2.490   4.179   4.169  3.5212 -2.2025  1.2795
 1680TIP3    H2 5005   2.482   4.250   4.302  1.1897  0.6812 -0.2863
 1681TIP3   OH2 5006   0.146   0.723   1.628 -0.4993  0.4125  0.1242
 1681TIP3    H1 5007   0.137   0.693   1.537 -0.1023  0.5878  0.0221
 1681TIP3    H2 5008   0.122   0.647   1.680 -1.0628  0.4168 -0.1272
 1682TIP3   OH2 5009   5.996   5.024   1.201  0.4861 -0.1009 -0.4518
 1682TIP3    H1 5010   6.077   5.054   1.161 -0.4084  0.4217 -1.9419
 1682TIP3    H2 5011   5.930   5.087   1.173 -0.6102 -1.0087 -0.0110
 1683TIP3   OH2 5012   0.772   0.213   5.110 -0.0044  0.0151 -0.1034
 1683TIP3    H1 5013   0.698   0.224   5.170  1.3499  1.7653  1.3300
 1683TIP3    H2 5014   0.768   0.289   5.052 -0.6322 -1.0821 -1.5791
 1684TIP3   OH2 5015   1.955   0.597   1.976  0.3324  0.2408 -0.2190
 1684TIP3    H1 5016   2.021   0.558   1.918 -0.3241  0.3145 -1.0445
 1684TIP3    H2 5017   1.873   0.587   1.928 -0.3578 -0.3588  1.0415
 1685TIP3   OH2 5018   3.657   6.542   2.809 -0.0159  0.4684 -0.3884
 1685TIP3    H1 5019   3.603   6.579   2.879  1.4461  1.2497  0.3857
 1685TIP3    H2 5020   3.742   6.526   2.850  0.8156  0.7181 -1.9185
 1686TIP3   OH2 5021   4.972   3.907   3.527 -0.3577 -0.5749 -0.1682
 1686TIP3    H1 5022   4.912   3.833   3.534  0.5264 -1.2314  0.8532
 1686TIP3    H2 5023   5.018   3.908   3.611  1.7500 -0.7211 -1.2473
 1687TIP3   OH2 5024   1.150   5.276   0.948  0.0577  0.4935  0.4727
 1687TIP3    H1 5025   1.111   5.244   0.867  0.0866 -0.8102  0.9436
 1687TIP3    H2 5026   1.146   5.371   0.941 -2.3184  0.4231  0.0834
 1688TIP3   OH2 5027   6.313   6.400   2.434  0.1096 -0.3933 -0.2031
 1688TIP3    H1 5028   6.393   6.426   2.481 -0.9360 -0.7804  1.8891
 1688TIP3    H2 5029   6.242   6.427   2.491 -1.1816 -2.6340 -0.6696
 1689TIP3   OH2 5030   2.815   3.483   1.096 -0.2533  0.7088  0.1049
 1689TIP3    H1 5031   2.732   3.483   1.144  0.7241  0.9851  1.8655
 1689TIP3    H2 5032   2.848   3.393   1.104 -0.9254  0.2782 -1.6283
 1690TIP3   OH2 5033   4.085   1.004   0.954  0.4553 -0.3713  0.1383
 1690TIP3    H1 5034   4.051   0.933   0.900 -0.6551  0.3811 -0.1819
 1690TIP3    H2 5035   4.151   1.047   0.899 -0.0440 -0.1486 -0.2870
 1691TIP3   OH2 5036   2.372   4.840   3.546 -0.5257  0.2582 -0.2751
 1691TIP3    H1 5037   2.399   4.757   3.508 -0.7321  0.2698 -0.4452
 1691TIP3    H2 5038   2.302   4.872   3.489 -0.8641  0.2564  0.1309
 1692TIP3   OH2 5039   2.407   1.224   5.660  0.0315 -0.0304  0.2234
 1692TIP3    H1 5040   2.468   1.288   5.698 -1.1661  1.4507 -0.2474
 1692TIP3    H2 5041   2.369   1.180   5.736 -0.4018  1.0489  0.6562
 1693TIP3   OH2 5042   0.417   6.071   0.280  0.3785  0.3602 -0.1685
 1693TIP3    H1 5043   0.439   5.978   0.271 -0.8043  0.0856 -0.3040
 1693TIP3    H2 5044   0.444   6.092   0.370 -0.2235 -0.3619  0.1911
 1694TIP3   OH2 5045   6.958   6.634   3.437  0.4411  0.3449  0.2549
 1694TIP3    H1 5046   6.977   6.612   3.528 -0.1031 -0.3865  0.2046
 1694TIP3    H2 5047   6.990   6.558   3.388  0.7572  0.7474 -0.1662
 1695TIP3   OH2 5048   5.492   2.504   1.398  0.0132 -0.4655 -0.0577
 1695TIP3    H1 5049   5.549   2.581   1.403 -0.9608  0.2397  0.4898
 1695TIP3    H2 5050   5.474   2.493   1.305 -1.6055  1.3293 -0.0191
 1696TIP3   OH2 5051   4.822   5.029   2.856 -0.2574  0.1477 -0.5745
 1696TIP3    H1 5052   4.896   5.011   2.914  2.0078  2.9734 -2.3349
 1696TIP3    H2 5053   4.799   4.943   2.820  0.2450 -1.2171  2.0640
 1697TIP3   OH2 5054   6.079   2.274   3.484 -0.0810  0.5103 -0.8433
 1697TIP3    H1 5055   6.093   2.190   3.439 -1.3901  0.1318 -0.5954
 1697TIP3    H2 5056   6.079   2.339   3.413  0.3588  0.2233 -1.1084
 1698TIP3   OH2 5057   4.397   0.612   1.563 -0.0593  0.2454 -0.5493
 1698TIP3    H1 5058   4.316   0.572   1.593  0.0823 -1.3954 -2.1435
 1698TIP3    H2 5059   4.405   0.583   1.472  1.3705  1.9164 -1.0057
 1699TIP3   OH2 5060   6.194   0.637   2.556 -0.3882 -0.0098  0.2988
 1699TIP3    H1 5061   6.206   0.633   2.651  0.5099 -1.9028  0.1379
 1699TIP3    H2 5062   6.218   0.550   2.524 -3.8564 -0.5535 -1.3229
 1700TIP3   OH2 5063   6.166   5.530   5.340 -0.0345 -0.1590  0.3897
 1700TIP3    H1 5064   6.228   5.560   5.274 -0.1069 -0.0814  0.3580
 1700TIP3    H2 5065   6.080   5.548   5.303 -0.0918 -1.0910  0.0417
 1701TIP3   OH2 5066   4.738   5.936   4.082  0.1730 -0.1487  0.4014
 1701TIP3    H1 5067   4.735   5.847   4.117  1.0143  0.2967  1.7145
 1701TIP3    H2 5068   4.651   5.972   4.098 -0.1411 -0.6917 -0.0515
 1702TIP3   OH2 5069   7.038   4.079   3.967 -0.1246  0.4275  0.5420
 1702TIP3    H1 5070   7.074   4.027   4.039  0.6540  0.1082 -0.0513
 1702TIP3    H2 5071   6.972   4.022   3.927 -0.5857  0.6207  1.0187
 1703TIP3   OH2 5072   0.554   2.046   5.058 -0.3303  0.2986 -0.2990
 1703TIP3    H1 5073   0.606   1.966   5.049  0.6698  1.0414 -1.4203
 1703TIP3    H2 5074   0.582   2.101   4.984  0.3251  2.4346  1.4464
 1704TIP3   OH2 5075   4.662   0.563   3.888  0.2122  0.2093  0.5173
 1704TIP3    H1 5076   4.690   0.549   3.798 -1.5310 -1.5409  0.1912
 1704TIP3    H2 5077   4.667   0.658   3.900  0.9379  0.4281 -1.2340
 1705TIP3   OH2 5078   6.066   6.393   1.555  0.2283 -0.6242 -0.2243
 1705TIP3    H1 5079   6.156   6.418   1.532  0.2020  0.5779  0.9070
 1705TIP3    H2 5080   6.015   6.416   1.477  0.2499  2.7950  0.6084
 1706TIP3   OH2 5081   3.117   4.871   4.360 -0.1048 -0.3459 -0.2856
 1706TIP3    H1 5082   3.030   4.839   4.383 -0.0318 -0.5316 -0.2651
 1706TIP3    H2 5083   3.134   4.833   4.274  0.2658 -0.9336  0.0344
 1707TIP3   OH2 5084   0.294   5.733   3.307 -0.4337 -0.1607 -0.5594
 1707TIP3    H1 5085   0.358   5.664   3.292 -1.2128 -1.0871  0.2028
 1707TIP3    H2 5086   0.252   5.746   3.222  0.3911  0.0894 -0.9370
 1708TIP3   OH2 5087   2.441   3.118   1.406  0.4684 -0.2468  0.8289
 1708TIP3    H1 5088   2.459   3.028   1.432  0.7619 -0.0508  1.3234
 1708TIP3    H2 5089   2.506   3.137   1.338 -0.3187 -0.7697 -0.0918
 1709TIP3   OH2 5090   6.720   5.054   5.497  0.0613 -0.2159 -0.0752
 1709TIP3    H1 5091   6.793   5.013   5.450 -0.0082 -0.6829  0.2257
 1709TIP3    H2 5092   6.643   5.001   5.473 -0.0304 -0.2535  0.3017
 1710TIP3   OH2 5093   4.510   2.900   0.763  0.2922  0.3393 -0.3691
 1710TIP3    H1 5094   4.588   2.955   0.756 -0.1915  0.9372 -1.2070
 1710TIP3    H2 5095   4.445   2.943   0.707 -0.7130 -0.0192  0.4789
 1711TIP3   OH2 5096   6.310   4.169   1.638 -0.2151 -0.2981 -0.7772
 1711TIP3    H1 5097   6.280   4.140   1.724  1.1042 -0.3435 -0.3122
 1711TIP3    H2 5098   6.328   4.088   1.590  5.1836 -0.6078  1.1135
 1712TIP3   OH2 5099   2.132   2.047   4.842 -0.1065 -0.1012 -0.2727
 1712TIP3    H1 5100   2.059   2.088   4.889 -0.1553 -0.2599 -0.2074
 1712TIP3    H2 5101   2.196   2.027   4.910 -0.9833 -2.0912  0.0488
 1713TIP3   OH2 5102   6.464   0.708   0.499 -0.3190  0.0687 -0.5347
 1713TIP3    H1 5103   6.385   0.708   0.445  0.2691 -0.1790 -1.4141
 1713TIP3    H2 5104   6.529   0.756   0.447  0.1567  0.1312  0.1060
 1714TIP3   OH2 5105   1.857   0.781   2.764  0.6781  0.0875  0.2111
 1714TIP3    H1 5106   1.858   0.841   2.839  0.4934 -0.1844  0.4338
 1714TIP3    H2 5107   1.765   0.766   2.746  0.7133  0.7190 -0.5382
 1715TIP3   OH2 5108   4.082   3.477   3.480  0.0987  0.0280 -0.5673
 1715TIP3    H1 5109   4.102   3.419   3.406 -0.9298  0.0001 -0.8486
 1715TIP3    H2 5110   4.144   3.549   3.471  2.0929 -1.4586  0.3611
 1716TIP3   OH2 5111   2.604   6.363   0.540  0.0995 -0.1272  0.4360
 1716TIP3    H1 5112   2.662   6.316   0.480 -0.1758 -0.1410  0.1779
 1716TIP3    H2 5113   2.660   6.389   0.612  0.4973  0.1207  0.0464
 1717TIP3   OH2 5114   0.104   1.384   0.208 -0.2925 -0.3340 -0.9801
 1717TIP3    H1 5115   0.020   1.426   0.227 -0.7691 -1.5974 -0.2354
 1717TIP3    H2 5116   0.104   1.304   0.260  1.1692 -0.6096 -1.3550
 1718TIP3   OH2 5117   6.251   6.168   5.056 -0.7682  0.0718  0.6897
 1718TIP3    H1 5118   6.205   6.216   5.124  1.4077 -2.4358  4.2446
 1718TIP3    H2 5119   6.343   6.175   5.078 -0.0518 -2.0913 -1.1258
 1719TIP3   OH2 5120   1.710   3.070   4.501  0.6788 -0.0735  0.3717
 1719TIP3    H1 5121   1.793   3.035   4.535 -0.3562 -2.5302  0.5578
 1719TIP3    H2 5122   1.644   3.041   4.563 -0.4564  1.2137 -0.1764
 1720TIP3   OH2 5123   2.040   1.835   2.657 -0.0227  0.7079 -0.6695
 1720TIP3    H1 5124   2.028   1.922   2.697 -0.9587  1.1360 -1.8283
 1720TIP3    H2 5125   1.985   1.777   2.710 -0.7030  1.1412 -0.8856
 1721TIP3   OH2 5126   2.011   0.644   4.801  0.4936  0.5962 -0.0485
 1721TIP3    H1 5127   1.918   0.663   4.787  0.1925 -0.0991  0.9067
 1721TIP3    H2 5128   2.057   0.715   4.755 -0.4590  0.1987 -1.7111
 1722TIP3   OH2 5129   6.037   5.410   2.450 -0.2810 -0.0329 -0.4570
 1722TIP3    H1 5130   6.126   5.441   2.465 -1.1104  1.5139  1.9213
 1722TIP3    H2 5131   5.982   5.486   2.470 -2.1458 -0.7562 -2.4786
 1723TIP3   OH2 5132   5.455   6.681   2.815 -0.1438 -0.3522 -0.5786
 1723TIP3    H1 5133   5.531   6.647   2.863 -0.1211  0.3669 -0.0835
 1723TIP3    H2 5134   5.474   6.663   2.723  1.3362  1.1229 -0.6114
 1724TIP3   OH2 5135   3.915   3.378   4.519 -0.0192 -0.4923  0.4371
 1724TIP3    H1 5136   3.852   3.428   4.467 -0.1080 -0.5079  0.5297
 1724TIP3    H2 5137   3.932   3.299   4.468  2.2531  0.8660 -1.1039
 1725TIP3   OH2 5138   0.922   0.104   2.691  0.3407 -0.0715 -0.1306
 1725TIP3    H1 5139   0.959   0.061   2.768 -0.2695 -0.0349  0.1905
 1725TIP3    H2 5140   0.849   0.155   2.725 -0.6634 -0.9606 -0.8815
 1726TIP3   OH2 5141   5.533   6.223   1.790 -0.5317  0.2141  0.3190
 1726TIP3    H1 5142   5.561   6.134   1.809 -2.3106 -0.6104 -0.6042
 1726TIP3    H2 5143   5.451   6.233   1.839 -1.5430  0.4845 -1.3396
 1727TIP3   OH2 5144   4.202   3.170   4.542 -0.6059 -0.1700  0.5365
 1727TIP3    H1 5145   4.172   3.245   4.491 -0.1187  0.4962  1.2187
 1727TIP3    H2 5146   4.224   3.103   4.476  1.6555  1.2557 -0.2675
 1728TIP3   OH2 5147   1.130   2.043   4.545 -0.2531 -0.0362  0.1277
 1728TIP3    H1 5148   1.147   2.081   4.631 -0.5233 -0.4871  0.3822
 1728TIP3    H2 5149   1.087   2.113   4.496  0.1740  0.3244  0.2526
 1729TIP3   OH2 5150   0.748   5.550   3.792 -0.6727  0.6360  0.0930
 1729TIP3    H1 5151   0.773   5.483   3.729  0.4125  0.0830  1.0620
 1729TIP3    H2 5152   0.749   5.632   3.742 -0.1246  0.1749 -0.6694
 1730TIP3   OH2 5153   1.301   3.654   2.936 -0.2324  0.1058 -0.2179
 1730TIP3    H1 5154   1.373   3.611   2.984 -0.0787  2.8537  2.3060
 1730TIP3    H2 5155   1.224   3.602   2.958  0.5105 -1.2147 -0.6131
 1731TIP3   OH2 5156   7.079   5.270   2.016 -0.5694 -0.3546  0.1791
 1731TIP3    H1 5157   7.031   5.319   1.949  0.8879  0.5405 -0.2493
 1731TIP3    H2 5158   7.128   5.204   1.967  0.5515  0.3419  0.3356
 1732TIP3   OH2 5159   1.602   3.051   0.869 -0.0372  0.1819 -0.0831
 1732TIP3    H1 5160   1.565   3.089   0.789 -1.4256 -0.1671  0.3585
 1732TIP3    H2 5161   1.544   3.083   0.938  0.9675  0.2245  0.7516
 1733TIP3   OH2 5162   6.689   1.654   0.310  0.0158  0.2365  0.0143
 1733TIP3    H1 5163   6.688   1.569   0.266  2.7339 -0.1269  0.4931
 1733TIP3    H2 5164   6.645   1.638   0.393 -0.3563 -0.4591 -0.3075
 1734TIP3   OH2 5165   1.222   4.423   2.952  0.1969 -0.1753  0.8652
 1734TIP3    H1 5166   1.170   4.344   2.965 -1.2001  0.6874  0.6999
 1734TIP3    H2 5167   1.273   4.406   2.873 -2.0942  0.0668 -0.7586
 1735TIP3   OH2 5168   1.145   4.003   3.477 -0.0318 -0.3640  0.4202
 1735TIP3    H1 5169   1.089   4.047   3.540 -0.1848 -1.6325  1.2179
 1735TIP3    H2 5170   1.233   4.007   3.517 -0.0392 -0.7095  0.4791
 1736TIP3   OH2 5171   4.754   1.010   2.933  0.1485 -0.9833 -0.8989
 1736TIP3    H1 5172   4.831   1.051   2.970 -0.9494  0.3169  0.0263
 1736TIP3    H2 5173   4.713   0.963   3.006  0.1841 -1.9042 -1.4422
 1737TIP3   OH2 5174   5.290   4.923   3.271 -0.2698  0.1478 -0.4224
 1737TIP3    H1 5175   5.214   4.963   3.229 -0.5771  0.1053  0.0872
 1737TIP3    H2 5176   5.270   4.925   3.365  1.3778  2.3793 -0.0136
 1738TIP3   OH2 5177   5.110   1.556   0.660  0.2838  0.4336 -0.2380
 1738TIP3    H1 5178   5.160   1.508   0.595  1.3312  0.2357  0.6759
 1738TIP3    H2 5179   5.172   1.620   0.696  0.2035 -0.4492  1.5803
 1739TIP3   OH2 5180   1.817   1.174   3.804 -0.4679 -0.0878  0.3255
 1739TIP3    H1 5181   1.758   1.108   3.768 -0.8693  1.1108 -1.3375
 1739TIP3    H2 5182   1.762   1.252   3.813  0.5406  0.6885 -0.0321
 1740TIP3   OH2 5183   1.808   4.461   2.611 -0.1571  0.4861 -0.4287
 1740TIP3    H1 5184   1.837   4.517   2.539  1.0150 -0.7473 -0.9632
 1740TIP3    H2 5185   1.810   4.373   2.575  1.7996 -0.3275  1.4876
 1741TIP3   OH2 5186   3.822   4.557   3.003  0.1184  0.0209  0.1975
 1741TIP3    H1 5187   3.817   4.507   3.084 -1.1056  2.2911  1.6418
 1741TIP3    H2 5188   3.914   4.581   2.994  0.1588  0.2955  1.3053
 1742TIP3   OH2 5189   7.172   0.419   2.518 -0.0291 -0.6666  0.1304
 1742TIP3    H1 5190   7.265   0.430   2.499 -0.0052 -0.7177  0.2175
 1742TIP3    H2 5191   7.146   0.503   2.556 -0.0409 -0.6191  0.0175
 1743TIP3   OH2 5192   3.714   4.302   4.590 -0.3666  0.2561 -0.4427
 1743TIP3    H1 5193   3.669   4.232   4.543  0.3316 -0.4512 -0.0761
 1743TIP3    H2 5194   3.645   4.348   4.638 -0.7335 -0.6731 -0.0676
 1744TIP3   OH2 5195   1.343   6.290   2.572  0.9238  0.1524 -0.2268
 1744TIP3    H1 5196   1.307   6.252   2.492  0.1581  0.9920 -0.2925
 1744TIP3    H2 5197   1.422   6.337   2.543  0.8485  0.1557 -0.4246
 1745TIP3   OH2 5198   0.734   6.199   5.089  0.8249  0.4636 -0.4009
 1745TIP3    H1 5199   0.799   6.260   5.054  1.1086 -0.1618 -0.9883
 1745TIP3    H2 5200   0.665   6.197   5.024  0.4491  0.7424 -0.0148
 1746TIP3   OH2 5201   3.744   0.966   0.550 -0.0128  0.5826 -0.2764
 1746TIP3    H1 5202   3.689   0.966   0.472 -1.6916 -0.5623  0.8082
 1746TIP3    H2 5203   3.833   0.973   0.518 -0.6377 -0.1552 -2.3082
 1747TIP3   OH2 5204   2.419   6.177   2.413 -0.2706 -0.0592  0.1581
 1747TIP3    H1 5205   2.465   6.254   2.445  0.0857 -0.9146  1.8043
 1747TIP3    H2 5206   2.386   6.134   2.491  0.1498 -1.9549 -0.6356
 1748TIP3   OH2 5207   3.355   4.025   0.626  0.2772  0.1864  0.0662
 1748TIP3    H1 5208   3.397   4.105   0.660 -0.6534  0.9974 -0.6359
 1748TIP3    H2 5209   3.274   4.017   0.677  0.6966 -0.7147  0.6101
 1749TIP3   OH2 5210   0.694   6.209   3.518 -0.5496 -0.4424 -0.5353
 1749TIP3    H1 5211   0.697   6.283   3.457  0.0642 -0.5305 -0.6119
 1749TIP3    H2 5212   0.785   6.191   3.539 -0.7489 -0.5453  0.2558
 1750TIP3   OH2 5213   1.047   3.575   2.990 -0.3783  0.0376  0.8261
 1750TIP3    H1 5214   1.010   3.510   3.050 -0.9904 -0.7971 -0.3995
 1750TIP3    H2 5215   0.993   3.653   3.002 -1.4585 -0.6012  0.3357
 1751TIP3   OH2 5216   2.591   6.511   1.638 -1.2238  0.3648  0.1017
 1751TIP3    H1 5217   2.682   6.511   1.608 -1.5596 -0.3203 -0.9832
 1751TIP3    H2 5218   2.580   6.597   1.679 -0.0915  0.4499  0.2720
 1752TIP3   OH2 5219   1.523   4.658   2.075 -0.0785 -0.2249  0.0537
 1752TIP3    H1 5220   1.430   4.637   2.064  0.1907 -1.7654  0.4803
 1752TIP3    H2 5221   1.569   4.586   2.032  0.9246  0.7484 -0.5246
 1753TIP3   OH2 5222   1.229   0.661   3.443  0.1368 -0.2859  0.0820
 1753TIP3    H1 5223   1.164   0.729   3.462  0.4289  0.0856 -0.2253
 1753TIP3    H2 5224   1.311   0.698   3.477  0.5754  0.1625 -1.4118
 1754TIP3   OH2 5225   4.165   5.951   1.407  0.1495 -0.6279 -0.4435
 1754TIP3    H1 5226   4.081   5.930   1.365 -0.3520 -0.4131  0.4102
 1754TIP3    H2 5227   4.202   5.867   1.432  0.3321 -0.7410 -1.0859
 1755TIP3   OH2 5228   3.330   2.062   2.364  0.2700  0.0024 -0.5518
 1755TIP3    H1 5229   3.316   2.153   2.340  1.2094  0.6137  1.1036
 1755TIP3    H2 5230   3.351   2.064   2.457 -1.8289 -2.1032  0.0925
 1756TIP3   OH2 5231   2.058   5.634   5.604  0.0879  0.0781  0.4747
 1756TIP3    H1 5232   2.111   5.596   5.674  0.0190  0.6866  0.8653
 1756TIP3    H2 5233   1.983   5.575   5.596  1.5616 -1.6906 -1.1635
 1757TIP3   OH2 5234   3.660   5.288   5.125  0.1563 -0.7583  0.0672
 1757TIP3    H1 5235   3.690   5.320   5.210  1.2191 -0.8621 -0.2613
 1757TIP3    H2 5236   3.691   5.353   5.062 -0.9270 -0.4947 -0.2279
 1758TIP3   OH2 5237   3.855   4.511   1.517  0.4233 -0.0293  0.5079
 1758TIP3    H1 5238   3.833   4.430   1.469 -1.4753  0.0625  1.1504
 1758TIP3    H2 5239   3.932   4.488   1.569  1.1275 -0.8104 -0.8303
 1759TIP3   OH2 5240   2.989   0.941   3.801 -0.4062  0.1081  0.0896
 1759TIP3    H1 5241   2.997   0.847   3.819 -0.2817 -0.0291 -0.6553
 1759TIP3    H2 5242   3.077   0.967   3.773 -0.1550  0.6885  1.3216
 1760TIP3   OH2 5243   1.042   5.102   0.735 -0.0106 -0.2557 -0.1024
 1760TIP3    H1 5244   0.960   5.055   0.722  0.0211 -0.0100 -1.3095
 1760TIP3    H2 5245   1.034   5.180   0.680 -0.2240  1.4088  2.1627
 1761TIP3   OH2 5246   6.952   0.418   2.236  0.7062  0.2469  0.6551
 1761TIP3    H1 5247   7.014   0.458   2.175  1.8340 -2.8144 -0.4270
 1761TIP3    H2 5248   6.975   0.454   2.321  1.7219  1.7048 -0.1887
 1762TIP3   OH2 5249   3.943   4.137   1.006  0.3345  0.4920  0.2630
 1762TIP3    H1 5250   3.973   4.046   0.999 -0.5077  0.1537  0.8045
 1762TIP3    H2 5251   3.882   4.147   0.932  0.6685  0.7144  0.0189
 1763TIP3   OH2 5252   0.081   2.581   3.961 -0.2797 -0.2201  0.0909
 1763TIP3    H1 5253   0.118   2.666   3.986 -0.3557 -0.5657  1.4801
 1763TIP3    H2 5254   0.154   2.535   3.919  0.4649 -0.3163  1.4249
 1764TIP3   OH2 5255   0.947   3.703   4.011  0.6942 -0.4080  0.2292
 1764TIP3    H1 5256   0.942   3.733   3.920 -0.0500 -0.1227  0.3514
 1764TIP3    H2 5257   0.936   3.783   4.063  1.1214 -0.5684  0.5668
 1765TIP3   OH2 5258   2.877   6.618   2.005  0.2832 -0.0046 -0.0367
 1765TIP3    H1 5259   2.796   6.569   2.020  0.9175 -0.5582  1.8866
 1765TIP3    H2 5260   2.925   6.566   1.940 -0.2933 -0.4144 -0.1431
 1766TIP3   OH2 5261   2.616   0.400   3.196 -0.4241  0.3073 -0.5991
 1766TIP3    H1 5262   2.665   0.449   3.130 -0.0281 -0.1726 -0.6706
 1766TIP3    H2 5263   2.644   0.438   3.280  0.5093 -0.3343 -0.6061
 1767TIP3   OH2 5264   1.349   3.025   1.220 -0.3574 -0.4829 -0.0750
 1767TIP3    H1 5265   1.442   3.050   1.222 -1.0297  2.4426 -0.6573
 1767TIP3    H2 5266   1.324   3.034   1.129 -0.9792 -2.5092 -0.1463
 1768TIP3   OH2 5267   2.981   0.996   1.362  0.2951 -0.5842  0.2827
 1768TIP3    H1 5268   2.887   0.980   1.359 -0.0638  1.3885 -0.2744
 1768TIP3    H2 5269   3.020   0.908   1.367 -1.5163 -1.4830 -0.4695
 1769TIP3   OH2 5270   5.752   1.452   3.077  0.3289  0.5216  0.2088
 1769TIP3    H1 5271   5.687   1.413   3.136 -0.2962  2.9805  1.2833
 1769TIP3    H2 5272   5.834   1.446   3.124  1.1116 -2.8731 -1.2779
 1770TIP3   OH2 5273   1.261   2.112   0.860  0.0904  0.3741 -0.0677
 1770TIP3    H1 5274   1.337   2.169   0.851  0.8236 -0.4343  0.6971
 1770TIP3    H2 5275   1.277   2.042   0.797  1.3515 -1.1868  1.8511
 1771TIP3   OH2 5276   6.374   2.351   2.839 -0.0511  0.0767 -0.4810
 1771TIP3    H1 5277   6.405   2.313   2.921 -0.6371 -0.1676 -0.3685
 1771TIP3    H2 5278   6.326   2.430   2.866  1.0708  0.8593 -0.7046
 1772TIP3   OH2 5279   1.766   4.340   5.246 -0.2783 -0.0280 -0.4783
 1772TIP3    H1 5280   1.695   4.316   5.306 -0.0410  0.0858 -0.1528
 1772TIP3    H2 5281   1.833   4.274   5.260  0.0557  0.3810 -0.1361
 1773TIP3   OH2 5282   4.791   0.311   3.931  0.3431  0.0577 -0.0453
 1773TIP3    H1 5283   4.761   0.386   3.983  1.3950 -0.9647  2.1456
 1773TIP3    H2 5284   4.882   0.299   3.956  0.7482 -0.8222 -1.7892
 1774TIP3   OH2 5285   0.010   4.377   2.064  0.2866 -0.7697 -0.9473
 1774TIP3    H1 5286  -0.050   4.343   2.129 -1.6153  2.1464 -0.9736
 1774TIP3    H2 5287   0.089   4.400   2.113  0.2574 -1.8790 -0.3612
 1775TIP3   OH2 5288   0.172   1.248   1.454  0.0326  0.4109  0.3764
 1775TIP3    H1 5289   0.247   1.264   1.397  0.4122 -0.3663  0.6565
 1775TIP3    H2 5290   0.208   1.200   1.529 -0.2883  2.1540  1.7195
 1776TIP3   OH2 5291   1.028   2.634   3.088  0.0891  0.3729  0.8190
 1776TIP3    H1 5292   0.985   2.625   3.003 -0.3512  0.1624  1.0618
 1776TIP3    H2 5293   1.109   2.584   3.078  0.4535  1.0483  0.2516
 1777TIP3   OH2 5294   1.538   0.834   3.210  0.2083  0.1228 -0.3464
 1777TIP3    H1 5295   1.489   0.752   3.214 -0.6260  0.4913 -1.9902
 1777TIP3    H2 5296   1.578   0.842   3.296 -0.6942 -1.3894  0.2639
 1778TIP3   OH2 5297   3.922   0.532   4.289  0.9367  0.9472  0.6407
 1778TIP3    H1 5298   3.909   0.623   4.316  0.3902  0.5761  1.6743
 1778TIP3    H2 5299   3.909   0.481   4.369 -1.6447 -0.2848 -0.4631
 1779TIP3   OH2 5300   1.430   1.892   1.341 -0.1301  0.1547  0.6646
 1779TIP3    H1 5301   1.376   1.958   1.298  1.8066  0.4858 -1.3786
 1779TIP3    H2 5302   1.406   1.810   1.297  0.6018  0.2136  0.1467
 1780TIP3   OH2 5303   2.152   4.665   2.291  0.4068  0.1215 -0.6832
 1780TIP3    H1 5304   2.153   4.717   2.211  2.6865  1.8674  0.3745
 1780TIP3    H2 5305   2.203   4.586   2.269 -1.5439 -0.8951 -1.7672
 1781TIP3   OH2 5306   4.472   1.048   2.885  0.3198 -0.2402  0.8856
 1781TIP3    H1 5307   4.418   0.978   2.923  1.4397 -0.7477  1.6111
 1781TIP3    H2 5308   4.560   1.031   2.919  0.7999  0.9866  0.3156
 1782TIP3   OH2 5309   2.346   1.996   4.986 -0.1137  0.1856  0.1972
 1782TIP3    H1 5310   2.415   1.957   5.040  0.5327 -0.7226 -1.2321
 1782TIP3    H2 5311   2.316   2.071   5.037  1.4325  0.1831  1.1946
 1783TIP3   OH2 5312   5.804   4.387   4.333  0.1876  0.1575 -0.1893
 1783TIP3    H1 5313   5.736   4.393   4.400  1.0257  0.1572  0.6992
 1783TIP3    H2 5314   5.845   4.473   4.333 -1.4385  1.0355 -2.5742
 1784TIP3   OH2 5315   3.966   1.609   3.128 -0.1668  0.1951 -0.0448
 1784TIP3    H1 5316   4.011   1.592   3.211 -0.4931  0.5176  0.2028
 1784TIP3    H2 5317   4.020   1.566   3.062  0.3524  0.3373  0.2827
 1785TIP3   OH2 5318   6.091   3.525   1.345 -0.3156 -0.1890  0.3734
 1785TIP3    H1 5319   6.143   3.498   1.421 -0.1196 -0.0636  0.2824
 1785TIP3    H2 5320   6.097   3.451   1.284  1.0924  0.4668 -0.3283
 1786TIP3   OH2 5321   1.863   4.911   3.836 -0.2070 -0.2873 -0.2987
 1786TIP3    H1 5322   1.797   4.976   3.812 -1.1650 -1.4961 -1.0735
 1786TIP3    H2 5323   1.939   4.933   3.783 -0.3655  0.4566 -0.2257
 1787TIP3   OH2 5324   2.462   5.589   5.701  0.0373 -0.4723  0.1266
 1787TIP3    H1 5325   2.483   5.634   5.619  0.8001 -1.1197 -0.0480
 1787TIP3    H2 5326   2.454   5.659   5.765  0.1150 -0.0074 -0.3595
 1788TIP3   OH2 5327   5.516   6.514   5.764  1.0535  0.2372 -0.6294
 1788TIP3    H1 5328   5.541   6.581   5.700 -1.9087 -1.0080 -3.3746
 1788TIP3    H2 5329   5.466   6.562   5.830 -1.4846  0.8937 -2.8277
 1789TIP3   OH2 5330   1.836   5.169   4.963 -0.4662  0.7751  0.4109
 1789TIP3    H1 5331   1.921   5.125   4.959 -0.4213  0.9344 -1.1346
 1789TIP3    H2 5332   1.853   5.257   4.929 -0.9010  1.4295  1.8288
 1790TIP3   OH2 5333   3.304   2.398   0.220  0.3264 -0.0532  0.1626
 1790TIP3    H1 5334   3.235   2.333   0.210  0.2405  0.1160 -0.4071
 1790TIP3    H2 5335   3.383   2.347   0.239  0.2109 -0.3060 -0.0336
 1791TIP3   OH2 5336   6.949   1.389   5.912  0.1052  0.0665  0.2180
 1791TIP3    H1 5337   6.946   1.443   5.833  1.2088 -0.9049 -0.5336
 1791TIP3    H2 5338   7.035   1.347   5.909  0.5009  0.5855  2.3533
 1792TIP3   OH2 5339   2.689   4.930   2.702 -0.1818  0.0651 -0.0330
 1792TIP3    H1 5340   2.732   4.966   2.625  1.8027 -0.6694  0.6904
 1792TIP3    H2 5341   2.596   4.925   2.677  0.2802  0.6322 -2.0346
 1793TIP3   OH2 5342   6.480   5.604   4.876  0.0982 -0.5232  0.0088
 1793TIP3    H1 5343   6.462   5.626   4.785 -2.4504 -1.4210  0.2292
 1793TIP3    H2 5344   6.503   5.688   4.916  0.0203  0.0909 -1.1831
 1794TIP3   OH2 5345   0.144   6.545   4.372 -1.0188 -0.0165  0.0701
 1794TIP3    H1 5346   0.225   6.499   4.349 -0.6118  0.1606  1.0999
 1794TIP3    H2 5347   0.080   6.512   4.310 -0.0675  0.1349 -1.0293
 1795TIP3   OH2 5348   1.548   5.985   5.845  0.1992  0.2732 -0.1410
 1795TIP3    H1 5349   1.591   5.993   5.930  0.6624  0.9424 -0.4286
 1795TIP3    H2 5350   1.617   6.007   5.782 -0.7606  2.2186 -0.5953
 1796TIP3   OH2 5351   4.703   1.684   0.786  0.4494  0.0449  0.6107
 1796TIP3    H1 5352   4.657   1.602   0.769 -0.3141  0.3554  1.1299
 1796TIP3    H2 5353   4.633   1.749   0.793  1.0171  0.6465  0.7113
 1797TIP3   OH2 5354   6.537   5.956   1.948 -0.2394  0.2044 -0.3072
 1797TIP3    H1 5355   6.451   5.997   1.940 -1.3089 -1.8662 -0.1036
 1797TIP3    H2 5356   6.538   5.920   2.036  0.0968 -1.3086 -0.9034
 1798TIP3   OH2 5357   3.433   2.982   0.599 -0.0577  0.2841 -0.5723
 1798TIP3    H1 5358   3.357   2.926   0.589 -0.2229  0.4862 -0.4432
 1798TIP3    H2 5359   3.472   2.955   0.683  1.4651 -1.5760 -1.7631
 1799TIP3   OH2 5360   1.509   4.066   1.817 -0.0532  0.3984  0.5137
 1799TIP3    H1 5361   1.543   3.987   1.774 -1.2286  0.0090  0.2468
 1799TIP3    H2 5362   1.556   4.138   1.775 -0.4686 -0.0355 -0.7609
 1800TIP3   OH2 5363   5.129   0.393   0.148 -0.5527  0.5467 -0.2344
 1800TIP3    H1 5364   5.055   0.360   0.097  0.6978 -1.4010 -0.9195
 1800TIP3    H2 5365   5.206   0.362   0.100  0.6976 -0.2912  2.1584
 1801TIP3   OH2 5366   4.803   6.565   4.477 -0.3863  0.6804 -0.2730
 1801TIP3    H1 5367   4.807   6.477   4.439 -0.0029  1.9068 -3.4287
 1801TIP3    H2 5368   4.736   6.610   4.424  0.1379  2.5519  0.5814
 1802TIP3   OH2 5369   3.174   5.313   3.321  0.1832  0.0841  0.1780
 1802TIP3    H1 5370   3.197   5.316   3.414 -0.7917  0.1341  0.4271
 1802TIP3    H2 5371   3.258   5.322   3.275  0.7411 -0.5372  1.0459
 1803TIP3   OH2 5372   3.310   5.198   0.333 -0.2648 -0.3748  0.2295
 1803TIP3    H1 5373   3.326   5.288   0.362 -1.2280 -0.0135 -0.2916
 1803TIP3    H2 5374   3.240   5.206   0.268  0.1306 -1.4324 -0.3460
 1804TIP3   OH2 5375   3.887   6.434   2.642  0.3285 -0.1724 -0.6232
 1804TIP3    H1 5376   3.967   6.385   2.658  0.9766  1.2414  0.6760
 1804TIP3    H2 5377   3.889   6.506   2.705 -0.5356  1.6037 -2.4886
 1805TIP3   OH2 5378   0.735   4.298   2.643  0.5423 -0.2374  0.7243
 1805TIP3    H1 5379   0.767   4.289   2.553  2.1686 -0.0544  1.2565
 1805TIP3    H2 5380   0.671   4.227   2.653  0.2600 -0.1881 -0.6004
 1806TIP3   OH2 5381   5.913   1.492   3.307  0.4826  0.1908 -0.7321
 1806TIP3    H1 5382   5.882   1.571   3.352  0.3057  0.9256 -2.0741
 1806TIP3    H2 5383   5.919   1.426   3.375  2.6121  1.8754  0.8908
 1807TIP3   OH2 5384   5.989   4.173   0.091  0.3538  0.0823 -0.4217
 1807TIP3    H1 5385   6.041   4.208   0.018  1.7915  0.3822  0.6963
 1807TIP3    H2 5386   5.924   4.117   0.049  1.4538 -0.1494 -1.9224
 1808TIP3   OH2 5387   2.111   1.946   5.777 -0.1393 -0.1569  0.1410
 1808TIP3    H1 5388   2.026   1.904   5.795  0.4230 -1.1002  0.6588
 1808TIP3    H2 5389   2.169   1.912   5.845 -0.0779  2.8904  1.7963
 1809TIP3   OH2 5390   5.522   3.374   2.698 -0.4389 -0.5367  0.3289
 1809TIP3    H1 5391   5.463   3.430   2.749 -1.3190 -0.7510 -0.4287
 1809TIP3    H2 5392   5.552   3.431   2.626  0.4489 -0.3714  0.8073
 1810TIP3   OH2 5393   3.077   3.856   2.990  0.4497  0.2560  1.0332
 1810TIP3    H1 5394   3.050   3.765   3.004  1.0190 -0.4491 -1.8923
 1810TIP3    H2 5395   2.997   3.907   3.006 -0.3563 -0.9394  0.9655
 1811TIP3   OH2 5396   1.008   5.260   4.163  0.2739  0.7436  0.1468
 1811TIP3    H1 5397   0.975   5.187   4.215 -1.8727  1.1251 -0.5565
 1811TIP3    H2 5398   0.940   5.327   4.170  2.1796  2.7302  0.8033
 1812TIP3   OH2 5399   0.314   3.310   2.395  0.1977 -0.1353 -0.3604
 1812TIP3    H1 5400   0.386   3.373   2.402 -0.5661  0.5762  1.6001
 1812TIP3    H2 5401   0.357   3.225   2.384  1.2870  0.4409 -0.6758
 1813TIP3   OH2 5402   5.889   6.430   2.320  0.1472 -0.5249 -0.0934
 1813TIP3    H1 5403   5.852   6.505   2.274  0.8641 -0.3481 -0.3911
 1813TIP3    H2 5404   5.980   6.425   2.290 -1.1899 -4.9184 -4.6011
 1814TIP3   OH2 5405   6.505   4.342   5.056 -0.2833 -0.3317 -0.0990
 1814TIP3    H1 5406   6.598   4.349   5.079 -0.7248 -2.1608  2.8119
 1814TIP3    H2 5407   6.471   4.431   5.067  0.6050 -0.1705  1.7233
 1815TIP3   OH2 5408   0.531   5.403   0.163 -0.0013 -0.1147 -0.1186
 1815TIP3    H1 5409   0.449   5.429   0.206  1.3242 -0.3269  2.7604
 1815TIP3    H2 5410   0.565   5.484   0.125 -2.6565 -0.4139 -3.7953
 1816TIP3   OH2 5411   6.497   1.960   1.413 -0.0883 -0.5813 -0.1966
 1816TIP3    H1 5412   6.441   2.037   1.418  0.5196  0.0038 -1.7171
 1816TIP3    H2 5413   6.437   1.886   1.414 -0.8361 -0.0002 -0.8662
 1817TIP3   OH2 5414   0.946   1.118   3.380  0.0212 -0.0481 -0.5220
 1817TIP3    H1 5415   0.855   1.110   3.408  0.1766 -2.0992 -0.4959
 1817TIP3    H2 5416   0.941   1.134   3.286 -0.3524 -0.1940 -0.5269
 1818TIP3   OH2 5417   6.366   1.767   1.598 -0.0756 -0.6028 -0.0527
 1818TIP3    H1 5418   6.442   1.780   1.655  0.7597  1.3246 -1.5043
 1818TIP3    H2 5419   6.292   1.800   1.649  0.1003 -1.9685  1.1487
 1819TIP3   OH2 5420   5.371   0.291   0.040  0.0374  0.6856 -0.7059
 1819TIP3    H1 5421   5.410   0.221  -0.013 -0.6621 -0.2120 -0.0672
 1819TIP3    H2 5422   5.397   0.271   0.130  0.9175  2.0003 -0.6385
 1820TIP3   OH2 5423   1.537   5.287   1.377  0.0504  0.1475 -0.1046
 1820TIP3    H1 5424   1.464   5.225   1.379 -0.5813  0.8874  1.3409
 1820TIP3    H2 5425   1.615   5.231   1.372 -0.5181 -0.7714  0.8114
 1821TIP3   OH2 5426   5.420   2.160   4.019  0.0363 -0.0419  0.0051
 1821TIP3    H1 5427   5.405   2.254   4.015  1.9398  0.3136  0.4196
 1821TIP3    H2 5428   5.515   2.150   4.012 -0.2567 -2.1513 -3.9482
 1822TIP3   OH2 5429   0.471   3.985   2.521  0.2955  0.2846  0.1849
 1822TIP3    H1 5430   0.483   4.078   2.540 -0.2267  0.8331 -1.9424
 1822TIP3    H2 5431   0.413   3.954   2.590  1.2183  1.3000  1.4608
 1823TIP3   OH2 5432   1.494   1.549   0.587 -0.0725  0.1799 -0.0772
 1823TIP3    H1 5433   1.420   1.599   0.552 -0.5884 -0.5991 -0.1339
 1823TIP3    H2 5434   1.479   1.548   0.681  0.3143  0.7119 -0.0068
 1824TIP3   OH2 5435   1.214   3.558   3.378 -0.1886 -0.2381 -0.0875
 1824TIP3    H1 5436   1.147   3.490   3.373 -1.7028  1.1498  0.5051
 1824TIP3    H2 5437   1.169   3.638   3.351  0.9111  0.9440  1.4187
 1825TIP3   OH2 5438   2.068   6.598   3.782 -0.4241 -0.2115  0.1895
 1825TIP3    H1 5439   2.081   6.677   3.835  0.9791 -0.7120  0.6155
 1825TIP3    H2 5440   2.087   6.626   3.692  0.6464 -0.1888  0.4128
 1826TIP3   OH2 5441   2.924   0.534   5.725 -0.4179 -0.2253  0.4532
 1826TIP3    H1 5442   2.919   0.459   5.784 -1.3238  0.6941  1.5896
 1826TIP3    H2 5443   2.923   0.495   5.638  0.3871 -1.5872  1.0197
 1827TIP3   OH2 5444   0.878   3.929   1.284 -0.6482  0.5815  0.1161
 1827TIP3    H1 5445   0.942   3.987   1.243  1.2738 -1.3358  0.2628
 1827TIP3    H2 5446   0.928   3.852   1.310 -2.9703 -0.8870  0.5138
 1828TIP3   OH2 5447   3.512   6.289   1.192 -0.5368  0.3345 -0.6795
 1828TIP3    H1 5448   3.524   6.380   1.220 -3.1742  0.3893  0.6213
 1828TIP3    H2 5449   3.573   6.239   1.245  2.3773  1.4017 -2.7642
 1829TIP3   OH2 5450   2.293   6.417   1.844  0.7129  0.0802  0.2175
 1829TIP3    H1 5451   2.207   6.393   1.880  0.1838  1.1096 -0.3014
 1829TIP3    H2 5452   2.341   6.335   1.839 -0.2146 -0.5000  0.6082
 1830TIP3   OH2 5453   3.415   6.127   3.134  0.6241  0.2598 -0.0944
 1830TIP3    H1 5454   3.327   6.104   3.106  0.1176  1.0755  0.7602
 1830TIP3    H2 5455   3.473   6.069   3.084 -0.3282  0.4220 -1.4101
 1831TIP3   OH2 5456   0.937   2.211   2.885 -0.4805 -0.6516 -0.1166
 1831TIP3    H1 5457   0.956   2.194   2.793 -0.5824 -1.3889 -0.0019
 1831TIP3    H2 5458   1.020   2.239   2.922 -0.1657 -1.5188 -0.1640
 1832TIP3   OH2 5459   1.464   1.369   5.426 -0.2513 -0.1476 -0.5545
 1832TIP3    H1 5460   1.410   1.449   5.425 -0.0704 -0.0317 -1.9081
 1832TIP3    H2 5461   1.544   1.394   5.381 -0.5618 -1.3542 -1.8153
 1833TIP3   OH2 5462   0.828   0.478   4.393  0.0611  0.4412 -0.6163
 1833TIP3    H1 5463   0.831   0.574   4.389 -1.5929  0.4847 -2.6915
 1833TIP3    H2 5464   0.748   0.458   4.441  1.0519  0.0570  0.9147
 1834TIP3   OH2 5465   2.861   1.623   3.394  0.7254 -0.2396  0.0260
 1834TIP3    H1 5466   2.822   1.580   3.470  0.3101 -0.7977 -0.4923
 1834TIP3    H2 5467   2.808   1.701   3.381  0.5253 -0.3722  0.0480
 1835TIP3   OH2 5468   2.327   4.544   1.340 -0.1012 -0.2582  0.2856
 1835TIP3    H1 5469   2.261   4.475   1.346 -1.9327  1.4199  0.4168
 1835TIP3    H2 5470   2.410   4.497   1.332 -1.3797 -2.4663 -1.0767
 1836TIP3   OH2 5471   0.263   1.194   0.674  0.9193  0.2521 -0.2166
 1836TIP3    H1 5472   0.193   1.129   0.668  1.4937 -0.3928 -0.0333
 1836TIP3    H2 5473   0.223   1.275   0.642  0.1782 -0.1739 -0.3961
 1837TIP3   OH2 5474   2.525   2.793   2.222  0.0670 -0.2554  0.1159
 1837TIP3    H1 5475   2.477   2.781   2.140  0.1970 -1.3992  0.1847
 1837TIP3    H2 5476   2.504   2.715   2.273  0.3384  0.2360  0.9931
 1838TIP3   OH2 5477   2.767   5.261   2.963 -0.5593 -0.0540  0.1332
 1838TIP3    H1 5478   2.677   5.241   2.988 -0.3411  0.2843  1.2883
 1838TIP3    H2 5479   2.808   5.293   3.044  0.0438  1.7325 -0.8030
 1839TIP3   OH2 5480   5.285   3.611   2.458  0.2531  0.3192  0.3008
 1839TIP3    H1 5481   5.255   3.684   2.405  1.3736  1.0721  0.6709
 1839TIP3    H2 5482   5.260   3.635   2.547 -1.7172 -0.9867  0.1594
 1840TIP3   OH2 5483   1.734   6.758   3.354  0.4595  0.7194  0.0688
 1840TIP3    H1 5484   1.772   6.818   3.419 -1.4940 -1.0171  3.0816
 1840TIP3    H2 5485   1.660   6.806   3.317  0.3419  1.0086  0.6706
 1841TIP3   OH2 5486   5.792   0.681   3.602 -0.3110 -0.3206  0.5072
 1841TIP3    H1 5487   5.747   0.756   3.561  3.0748  1.6242 -0.0006
 1841TIP3    H2 5488   5.878   0.715   3.627  2.0668 -4.4020 -1.0950
 1842TIP3   OH2 5489   6.519   2.617   0.488 -0.4374  0.1367  0.5273
 1842TIP3    H1 5490   6.445   2.563   0.460 -0.3420 -0.1823  0.8878
 1842TIP3    H2 5491   6.481   2.704   0.504 -0.4055  0.4747 -1.0935
 1843TIP3   OH2 5492   5.298   0.205   3.836  0.6516 -0.2850  0.1414
 1843TIP3    H1 5493   5.380   0.250   3.816  0.0403  0.3554 -1.0891
 1843TIP3    H2 5494   5.260   0.186   3.750 -1.2902  0.9351  0.6686
 1844TIP3   OH2 5495   5.456   4.953   1.635 -0.3577  0.2431  0.9705
 1844TIP3    H1 5496   5.386   5.017   1.652  0.1380  0.8748  0.6511
 1844TIP3    H2 5497   5.435   4.880   1.693 -2.7919 -0.7493 -0.9745
 1845TIP3   OH2 5498   5.163   0.670   0.063 -0.2995  0.1788 -0.0620
 1845TIP3    H1 5499   5.091   0.666   0.001  2.2962  1.0189 -3.3869
 1845TIP3    H2 5500   5.176   0.579   0.091 -1.2598 -0.2979 -1.1034
 1846TIP3   OH2 5501   0.100   0.724   4.194  1.0295 -0.0766 -0.2856
 1846TIP3    H1 5502   0.146   0.739   4.277  1.0468 -0.5456 -0.2075
 1846TIP3    H2 5503   0.050   0.804   4.180  1.1462  0.0698  0.1000
 1847TIP3   OH2 5504   2.225   3.291   1.340 -0.1491 -0.5452  0.2424
 1847TIP3    H1 5505   2.156   3.235   1.303  1.4847 -2.0109 -0.7609
 1847TIP3    H2 5506   2.292   3.229   1.370  0.6185  0.8188  1.4272
 1848TIP3   OH2 5507   1.218   6.793   2.869  0.1958  0.2268  0.1765
 1848TIP3    H1 5508   1.132   6.769   2.834  0.0276  2.6774 -1.3399
 1848TIP3    H2 5509   1.280   6.752   2.809  0.0869 -0.5237  0.5588
 1849TIP3   OH2 5510   4.941   2.174   0.503 -0.2416  0.8730 -0.0896
 1849TIP3    H1 5511   4.848   2.196   0.498 -0.0272  1.6754 -0.7780
 1849TIP3    H2 5512   4.952   2.141   0.592 -1.8147 -2.4511 -0.9862
 1850TIP3   OH2 5513   2.579   1.411   0.043 -0.6254 -0.4257  0.0263
 1850TIP3    H1 5514   2.555   1.449   0.127 -0.2326 -0.6154  0.2292
 1850TIP3    H2 5515   2.533   1.464  -0.022 -1.3946 -0.6347  0.3888
 1851TIP3   OH2 5516   2.971   2.728   5.638  0.6972  0.2405 -0.1302
 1851TIP3    H1 5517   2.935   2.793   5.578  0.2561  1.0014  0.9193
 1851TIP3    H2 5518   3.065   2.743   5.637  0.6549  0.5004 -0.3294
 1852TIP3   OH2 5519   4.396   6.484   0.077  0.0791  0.2751  0.2047
 1852TIP3    H1 5520   4.463   6.416   0.067  1.3555  1.4593  0.4622
 1852TIP3    H2 5521   4.332   6.464   0.008  0.7426 -0.8233 -0.1192
 1853TIP3   OH2 5522   1.651   3.500   2.320  0.0879  0.6402  0.2148
 1853TIP3    H1 5523   1.717   3.487   2.389  0.9413  1.2417 -0.4542
 1853TIP3    H2 5524   1.582   3.550   2.362 -0.2896 -0.6014  1.1240
 1854TIP3   OH2 5525   6.056   3.046   1.555  0.0009 -0.0606  0.5459
 1854TIP3    H1 5526   6.106   3.115   1.511  2.2158 -1.8101  0.1561
 1854TIP3    H2 5527   6.115   3.010   1.621 -0.7319 -2.1343  0.1676
 1855TIP3   OH2 5528   0.702   6.640   2.476 -0.5268 -0.6043 -0.1092
 1855TIP3    H1 5529   0.639   6.614   2.410 -2.8232  1.5530  1.0645
 1855TIP3    H2 5530   0.767   6.691   2.428 -0.0326 -2.2018 -1.2197
 1856TIP3   OH2 5531   1.479   0.702   4.825 -0.2757 -0.0497  0.1819
 1856TIP3    H1 5532   1.418   0.701   4.752  0.0893  0.5734 -0.1359
 1856TIP3    H2 5533   1.483   0.793   4.853 -0.6004 -0.3159  1.1436
 1857TIP3   OH2 5534   1.930   2.261   1.772 -0.4652  0.4874  0.7083
 1857TIP3    H1 5535   1.883   2.190   1.728  0.1138 -0.1667  1.1417
 1857TIP3    H2 5536   1.866   2.298   1.832 -0.1369 -1.1320  2.1266
 1858TIP3   OH2 5537   2.896   6.244   1.638  0.4847  0.0746  0.3501
 1858TIP3    H1 5538   2.816   6.241   1.690  0.7972 -0.0314  0.8274
 1858TIP3    H2 5539   2.922   6.153   1.627  1.4172  0.1759  1.5673
 1859TIP3   OH2 5540   1.652   6.202   3.873 -0.5073 -0.1189 -0.0328
 1859TIP3    H1 5541   1.669   6.108   3.864  0.5687 -0.0205  0.6921
 1859TIP3    H2 5542   1.733   6.244   3.844  0.0013  0.4597  2.0443
 1860TIP3   OH2 5543   6.111   0.081   4.514  0.2774 -0.1945 -0.2915
 1860TIP3    H1 5544   6.092   0.077   4.420 -1.1122  1.5662 -0.1239
 1860TIP3    H2 5545   6.041   0.031   4.555  3.0886 -4.6857 -0.2775
 1861TIP3   OH2 5546   2.122   4.737   3.168 -0.0800  0.0492 -0.4704
 1861TIP3    H1 5547   2.033   4.756   3.137 -0.4352 -0.1192  0.4324
 1861TIP3    H2 5548   2.113   4.658   3.222  0.7033 -0.2603 -0.7709
 1862TIP3   OH2 5549   4.747   0.772   2.522  0.4862 -0.1256 -0.1704
 1862TIP3    H1 5550   4.781   0.701   2.468 -1.7380 -0.7548 -0.8238
 1862TIP3    H2 5551   4.825   0.809   2.564  1.7899 -2.5166 -0.2946
 1863TIP3   OH2 5552   1.102   0.409   1.168 -0.0729 -0.3312  0.0063
 1863TIP3    H1 5553   1.165   0.340   1.145  0.4295  0.5385 -1.3368
 1863TIP3    H2 5554   1.040   0.366   1.227  0.8131 -1.6549  0.0198
 1864TIP3   OH2 5555   4.095   5.012   5.895  0.0621 -0.2048  0.0703
 1864TIP3    H1 5556   4.121   4.955   5.967 -1.0804 -1.1764 -0.2591
 1864TIP3    H2 5557   4.171   5.013   5.836 -0.0924 -1.8696 -0.2010
 1865TIP3   OH2 5558   5.509   2.037   0.377  0.0907  0.3041  0.1754
 1865TIP3    H1 5559   5.436   2.038   0.314  0.0750  1.3511  0.2018
 1865TIP3    H2 5560   5.562   1.962   0.350 -0.0849  0.5508 -0.8954
 1866TIP3   OH2 5561   7.094   2.408   3.951  0.1537  0.5239 -0.3864
 1866TIP3    H1 5562   7.063   2.410   3.860 -0.6596  0.4141 -0.1169
 1866TIP3    H2 5563   7.150   2.486   3.959 -1.0130  1.3993 -0.5457
 1867TIP3   OH2 5564   0.724   4.874   2.128 -0.4711 -0.4821 -0.4545
 1867TIP3    H1 5565   0.711   4.931   2.204 -0.7394 -2.3521  0.9821
 1867TIP3    H2 5566   0.819   4.868   2.118 -0.4027 -1.1032  0.4606
 1868TIP3   OH2 5567   4.744   4.999   3.727 -0.3328  0.0980  0.1270
 1868TIP3    H1 5568   4.748   5.094   3.726 -0.8427  0.1328  0.8105
 1868TIP3    H2 5569   4.826   4.971   3.686  0.0851  0.8211  0.4553
 1869TIP3   OH2 5570   4.143   4.555   0.605  0.1413  0.2004 -0.5100
 1869TIP3    H1 5571   4.160   4.625   0.542  2.6454 -0.5390 -0.7980
 1869TIP3    H2 5572   4.189   4.479   0.569  0.4946 -0.6138  1.5157
 1870TIP3   OH2 5573   0.091   2.717   1.612 -0.1180  0.0918 -0.0152
 1870TIP3    H1 5574   0.068   2.783   1.678 -0.0232  1.5979 -1.4129
 1870TIP3    H2 5575   0.085   2.634   1.658  0.3234  1.1010  1.9912
 1871TIP3   OH2 5576   0.279   3.743   5.611  0.1477 -0.0339 -0.0087
 1871TIP3    H1 5577   0.323   3.674   5.660  0.6575  0.4797  0.2839
 1871TIP3    H2 5578   0.186   3.730   5.628  0.3687  1.5319  3.0977
 1872TIP3   OH2 5579   1.585   4.338   2.785  0.1414  0.2639 -0.2137
 1872TIP3    H1 5580   1.662   4.280   2.777 -1.3658 -1.5165 -4.1435
 1872TIP3    H2 5581   1.519   4.283   2.827 -0.0552  0.5479 -0.1547
 1873TIP3   OH2 5582   0.957   0.053   0.047 -0.4033  0.2917 -1.0008
 1873TIP3    H1 5583   0.906   0.103   0.110  1.0742  1.1449 -0.4517
 1873TIP3    H2 5584   0.920  -0.035   0.051 -0.5416  0.4029  0.8296
 1874TIP3   OH2 5585   5.181   1.133   2.819 -0.5124 -0.1042 -0.4087
 1874TIP3    H1 5586   5.240   1.059   2.832  0.9048  1.0321 -0.0122
 1874TIP3    H2 5587   5.113   1.123   2.885  1.2385  0.4281  1.5730
 1875TIP3   OH2 5588   4.790   6.133   3.199 -0.0763 -0.4641  0.3504
 1875TIP3    H1 5589   4.882   6.113   3.181 -0.4729 -2.2041  0.0388
 1875TIP3    H2 5590   4.754   6.162   3.115 -0.2272 -1.6378 -0.0195
 1876TIP3   OH2 5591   3.624   4.112  -0.017  0.5160 -0.4682  0.0416
 1876TIP3    H1 5592   3.594   4.129   0.072 -1.6040 -0.4691 -0.5941
 1876TIP3    H2 5593   3.700   4.169  -0.029  0.6862 -0.3025  1.7665
 1877TIP3   OH2 5594   5.839   5.387   3.905  0.7091  0.6458 -0.1683
 1877TIP3    H1 5595   5.820   5.395   3.998 -0.1469  1.3594 -0.3825
 1877TIP3    H2 5596   5.817   5.297   3.883  0.3010  0.6537  0.1929
 1878TIP3   OH2 5597   1.816   3.546   0.127  0.1034 -0.1889  0.2190
 1878TIP3    H1 5598   1.756   3.579   0.193  0.6283 -0.3593  0.7939
 1878TIP3    H2 5599   1.855   3.625   0.089 -2.2755  0.0827 -1.9499
 1879TIP3   OH2 5600   0.032   1.104   3.353  0.5124 -0.6509 -0.0903
 1879TIP3    H1 5601  -0.060   1.119   3.373  0.2672  1.0316 -2.1727
 1879TIP3    H2 5602   0.078   1.119   3.436 -1.1054 -2.3864  1.1971
 1880TIP3   OH2 5603   4.861   2.012   5.415  0.2516 -0.4709  0.0877
 1880TIP3    H1 5604   4.918   1.944   5.379 -0.3968 -0.7963 -0.3521
 1880TIP3    H2 5605   4.780   2.006   5.363  0.4477  1.1554 -0.4632
 1881TIP3   OH2 5606   3.363   3.337   4.414 -0.1217 -0.5050  0.3821
 1881TIP3    H1 5607   3.275   3.317   4.446 -0.8595  1.5650 -0.1888
 1881TIP3    H2 5608   3.350   3.404   4.348  1.8905 -0.2758  0.1461
 1882TIP3   OH2 5609   0.816   2.366   3.116 -0.9008 -0.4003  0.5471
 1882TIP3    H1 5610   0.791   2.442   3.169 -0.7136 -1.1888  1.7989
 1882TIP3    H2 5611   0.829   2.402   3.028 -3.3423  0.5855  0.5034
 1883TIP3   OH2 5612   6.440   3.116   0.249 -0.3552 -0.3373 -0.6801
 1883TIP3    H1 5613   6.360   3.157   0.216 -0.7815  0.6520  1.4024
 1883TIP3    H2 5614   6.508   3.145   0.188 -1.4687 -0.7216 -2.1542
 1884TIP3   OH2 5615   1.750   6.656   4.198  0.4702 -0.4424 -0.3457
 1884TIP3    H1 5616   1.660   6.644   4.229  0.1921 -0.3723 -1.1048
 1884TIP3    H2 5617   1.773   6.574   4.156  0.9298 -0.6190  0.2297
 1885TIP3   OH2 5618   0.387   5.809   1.922 -0.3437 -0.3733  0.5217
 1885TIP3    H1 5619   0.334   5.883   1.951 -0.7564 -0.8654  1.0556
 1885TIP3    H2 5620   0.435   5.842   1.846 -2.1457 -0.1819 -0.5842
 1886TIP3   OH2 5621   1.443   3.358   2.154  0.0492 -0.4558 -0.4028
 1886TIP3    H1 5622   1.365   3.328   2.109 -0.0443  1.0319 -1.2941
 1886TIP3    H2 5623   1.420   3.356   2.247 -0.7996 -0.6938 -0.6136
 1887TIP3   OH2 5624   2.326   5.744   4.464 -0.2352 -0.0701 -0.2278
 1887TIP3    H1 5625   2.343   5.792   4.545 -2.5720 -0.0083  0.2998
 1887TIP3    H2 5626   2.345   5.653   4.487  1.1526  0.1878 -0.2772
 1888TIP3   OH2 5627   0.760   1.360   3.751 -0.1179 -0.0166 -0.1529
 1888TIP3    H1 5628   0.724   1.272   3.738 -0.2349  0.2098 -1.4484
 1888TIP3    H2 5629   0.707   1.416   3.694 -0.2186  0.9511  0.8660
 1889TIP3   OH2 5630   4.328   1.367   2.196 -0.4363 -0.7991  0.1873
 1889TIP3    H1 5631   4.249   1.313   2.192 -0.4384 -0.8457  0.7748
 1889TIP3    H2 5632   4.400   1.305   2.183 -0.4869 -0.7809 -0.1879
 1890TIP3   OH2 5633   2.880   2.931   2.152  0.9168  0.2988 -0.2108
 1890TIP3    H1 5634   2.803   2.978   2.182 -0.9593 -1.3634 -2.0433
 1890TIP3    H2 5635   2.929   2.910   2.232 -0.3174  1.6922  0.9657
 1891TIP3   OH2 5636   0.374   6.205   5.195  0.0033 -0.2901 -1.1177
 1891TIP3    H1 5637   0.300   6.169   5.245 -0.1409  0.9547 -0.3646
 1891TIP3    H2 5638   0.337   6.280   5.149  1.1255  1.5174  0.7429
 1892TIP3   OH2 5639   6.540   4.734   3.770 -0.2660  0.1467 -0.2342
 1892TIP3    H1 5640   6.445   4.725   3.781 -0.4935  2.3940  0.0211
 1892TIP3    H2 5641   6.556   4.706   3.680 -1.0470 -0.9319 -0.0629
 1893TIP3   OH2 5642   4.734   1.149   0.882 -0.3370  0.0795  0.0027
 1893TIP3    H1 5643   4.813   1.102   0.911 -1.3534  0.1987  3.4059
 1893TIP3    H2 5644   4.683   1.083   0.836  1.3357 -0.2140 -1.5326
 1894TIP3   OH2 5645   3.981   3.991   4.228 -0.1490  0.1503  0.2268
 1894TIP3    H1 5646   4.070   3.958   4.241 -0.1350  0.8241  1.9892
 1894TIP3    H2 5647   3.961   3.968   4.137  1.8294  0.0121 -0.2274
 1895TIP3   OH2 5648   6.468   4.327   0.955  0.2998 -0.7978  0.5851
 1895TIP3    H1 5649   6.434   4.292   1.037  1.5055  0.0209  1.4966
 1895TIP3    H2 5650   6.524   4.258   0.920 -1.1315 -1.5968 -0.1803
 1896TIP3   OH2 5651   1.266   6.504   1.327  0.1957  0.5394  0.4178
 1896TIP3    H1 5652   1.254   6.577   1.266 -0.0674  1.2917  1.3490
 1896TIP3    H2 5653   1.290   6.430   1.271 -0.3635  1.1241 -0.6295
 1897TIP3   OH2 5654   4.630   2.158   5.343 -0.3006  0.3878  0.3575
 1897TIP3    H1 5655   4.709   2.211   5.358 -0.5780  0.2404  2.7917
 1897TIP3    H2 5656   4.558   2.215   5.371 -1.1987  0.7466 -2.4024
 1898TIP3   OH2 5657   3.467   2.802   3.452 -0.9470  0.1500  0.0805
 1898TIP3    H1 5658   3.474   2.868   3.521 -1.3416 -1.1261  1.3754
 1898TIP3    H2 5659   3.438   2.723   3.496  0.4352 -1.1867 -1.2735
 1899TIP3   OH2 5660   4.199   0.363   1.924 -0.1306  0.1350 -0.3185
 1899TIP3    H1 5661   4.108   0.340   1.943  0.0299  0.0287  0.3514
 1899TIP3    H2 5662   4.211   0.449   1.964  0.2834 -0.1988  0.2922
 1900TIP3   OH2 5663   5.237   3.008   3.087  0.1209 -0.2798 -0.3983
 1900TIP3    H1 5664   5.151   2.970   3.069 -0.7902  1.6166 -0.3366
 1900TIP3    H2 5665   5.218   3.083   3.143  2.0041 -0.7578  0.9578
 1901TIP3   OH2 5666   6.728   1.961   4.034 -0.0370 -0.3123  0.3355
 1901TIP3    H1 5667   6.796   2.025   4.013  0.2957 -1.4143 -2.2284
 1901TIP3    H2 5668   6.776   1.881   4.053 -0.5570 -0.5817  0.5246
 1902TIP3   OH2 5669   1.761   5.622   1.600 -0.2873 -0.2170  0.2029
 1902TIP3    H1 5670   1.809   5.559   1.546  1.3680  0.4368  0.8431
 1902TIP3    H2 5671   1.767   5.705   1.551  0.6892  0.2358  1.0569
 1903TIP3   OH2 5672   4.453   6.525   1.915 -0.5364  0.0304 -0.1109
 1903TIP3    H1 5673   4.436   6.504   2.007 -2.1145 -0.0726 -0.4028
 1903TIP3    H2 5674   4.541   6.491   1.899 -0.8207 -1.3094  0.9619
 1904TIP3   OH2 5675   3.891   4.551   1.071 -0.3588 -0.6193 -0.3058
 1904TIP3    H1 5676   3.943   4.502   1.135  0.2662 -0.5183 -0.7251
 1904TIP3    H2 5677   3.918   4.515   0.986 -0.9398 -0.5279 -0.5307
 1905TIP3   OH2 5678   4.512   5.493   4.188  0.1950 -0.1725  0.0721
 1905TIP3    H1 5679   4.441   5.439   4.154 -0.1098  0.3527 -0.1310
 1905TIP3    H2 5680   4.469   5.562   4.238  0.6579 -1.4634  2.3882
 1906TIP3   OH2 5681   1.115   3.204   5.379 -0.0784  0.4328 -0.5123
 1906TIP3    H1 5682   1.025   3.213   5.347  0.8846 -0.0973 -3.7670
 1906TIP3    H2 5683   1.137   3.113   5.361  1.2271  0.6579 -0.1049
 1907TIP3   OH2 5684   4.418   1.977   4.528  0.7369 -0.0737 -0.2757
 1907TIP3    H1 5685   4.375   2.012   4.606  1.0696  0.8807 -0.4996
 1907TIP3    H2 5686   4.452   2.054   4.483 -0.5481 -0.4869 -2.0410
 1908TIP3   OH2 5687   0.625   0.321   3.180 -0.1640  0.5065 -0.1470
 1908TIP3    H1 5688   0.582   0.241   3.150 -1.1652  0.7150  0.6493
 1908TIP3    H2 5689   0.672   0.354   3.104  1.0908 -1.3508 -0.2302
 1909TIP3   OH2 5690   3.535   4.900   0.545 -0.1686 -0.1019 -0.2487
 1909TIP3    H1 5691   3.507   4.812   0.570  2.0232 -1.0290 -0.7774
 1909TIP3    H2 5692   3.612   4.917   0.600 -0.4559  1.4326 -0.2740
 1910TIP3   OH2 5693   3.203   4.364   3.184 -0.4689 -0.0318  0.5238
 1910TIP3    H1 5694   3.292   4.333   3.169 -0.5455  0.1884 -0.4083
 1910TIP3    H2 5695   3.170   4.309   3.256  0.5081  0.0807  1.0718
 1911TIP3   OH2 5696   6.851   5.571   3.946 -0.1154  0.7421 -0.2884
 1911TIP3    H1 5697   6.890   5.560   4.033 -3.3097  0.9781  1.3227
 1911TIP3    H2 5698   6.826   5.482   3.920 -1.4894  0.9481  0.2658
 1912TIP3   OH2 5699   3.851   3.946   2.258 -0.1454  0.7203  0.2869
 1912TIP3    H1 5700   3.935   3.987   2.281  0.4315 -1.4920  2.5025
 1912TIP3    H2 5701   3.788   3.985   2.318 -0.1128  0.3166  0.5889
 1913TIP3   OH2 5702   3.982   3.356   4.037 -0.6662 -0.0359 -0.4664
 1913TIP3    H1 5703   4.009   3.399   3.956  0.7369 -0.2552 -0.1459
 1913TIP3    H2 5704   3.888   3.343   4.027 -0.9069  1.8727 -1.1418
 1914TIP3   OH2 5705   6.084   3.465   2.958 -0.2453 -0.3292  0.0989
 1914TIP3    H1 5706   6.163   3.456   3.012 -0.1772 -0.4991 -0.0268
 1914TIP3    H2 5707   6.101   3.542   2.903  0.6540 -1.4533 -1.2824
 1915TIP3   OH2 5708   4.495   3.540   1.831 -0.2610  0.2968  0.3195
 1915TIP3    H1 5709   4.483   3.540   1.925  1.5637  1.8921  0.6105
 1915TIP3    H2 5710   4.526   3.628   1.810 -0.4289 -0.0721 -1.7509
 1916TIP3   OH2 5711   6.265   3.479   5.209  0.0048  0.6258 -0.7164
 1916TIP3    H1 5712   6.225   3.392   5.207  1.6919 -0.2147 -0.7077
 1916TIP3    H2 5713   6.265   3.503   5.302  2.3557 -0.8547 -0.2339
 1917TIP3   OH2 5714   3.957   4.257   0.104  0.1210  0.1663  0.7754
 1917TIP3    H1 5715   3.879   4.298   0.066  0.0006  1.4250  2.2806
 1917TIP3    H2 5716   3.975   4.309   0.182  0.8018 -1.8345  2.0227
 1918TIP3   OH2 5717   0.868   4.952   3.692 -0.3840 -0.7517 -0.4241
 1918TIP3    H1 5718   0.850   4.921   3.781  0.0006 -0.3469 -0.2026
 1918TIP3    H2 5719   0.871   4.872   3.639 -1.1339 -0.9510 -0.1721
 1919TIP3   OH2 5720   5.214   5.474   0.869  0.4866  0.2977 -0.1853
 1919TIP3    H1 5721   5.249   5.390   0.837  0.6171 -0.6106  2.1210
 1919TIP3    H2 5722   5.280   5.538   0.844  0.0255 -0.0986 -2.6836
 1920TIP3   OH2 5723   4.528   5.704   3.443 -0.4496  0.3149 -0.0466
 1920TIP3    H1 5724   4.467   5.740   3.507 -0.7280 -1.8406  0.9461
 1920TIP3    H2 5725   4.614   5.733   3.473 -0.6937  0.4506  0.5310
 1921TIP3   OH2 5726   6.819   3.085   1.395  0.0351 -0.8049 -0.1117
 1921TIP3    H1 5727   6.753   3.015   1.396 -1.2306  0.3200  2.0838
 1921TIP3    H2 5728   6.888   3.054   1.454  0.1243 -0.7777 -0.2011
 1922TIP3   OH2 5729   2.943   5.750   2.453  0.1274  0.1087  0.1075
 1922TIP3    H1 5730   2.885   5.700   2.396 -0.0267 -0.4487  0.7374
 1922TIP3    H2 5731   2.908   5.736   2.541  0.2893  1.0565  0.3266
 1923TIP3   OH2 5732   7.124   2.653   3.452  0.0711  0.2530 -0.3285
 1923TIP3    H1 5733   7.041   2.697   3.468 -1.4073 -2.1917 -0.8198
 1923TIP3    H2 5734   7.113   2.612   3.366  1.4731 -0.8125 -0.0284
 1924TIP3   OH2 5735   3.246   3.429   0.343  0.1545 -0.0818  0.5103
 1924TIP3    H1 5736   3.270   3.421   0.435 -0.7168 -2.6185  0.5868
 1924TIP3    H2 5737   3.262   3.342   0.307 -2.4471 -0.0255 -0.9934
 1925TIP3   OH2 5738   5.104   1.173   4.836  0.5152 -0.1801 -0.1518
 1925TIP3    H1 5739   5.132   1.191   4.925 -1.6958 -0.2722  0.6390
 1925TIP3    H2 5740   5.100   1.077   4.831  1.8291 -0.2199 -0.7864
 1926TIP3   OH2 5741   0.010   2.123   3.264  0.1768  0.0086  0.1329
 1926TIP3    H1 5742  -0.035   2.101   3.182 -1.3492  0.3985  0.8268
 1926TIP3    H2 5743   0.030   2.216   3.256  1.0678 -0.2039 -0.2502
 1927TIP3   OH2 5744   5.818   4.506   2.639  0.0903  0.1876 -0.1767
 1927TIP3    H1 5745   5.875   4.583   2.627 -0.6314  0.8681  0.6155
 1927TIP3    H2 5746   5.802   4.475   2.550  0.5748  0.8249 -0.5012
 1928TIP3   OH2 5747   4.062   0.712   1.809 -0.0523  0.8867  0.0991
 1928TIP3    H1 5748   4.032   0.670   1.890  0.8687 -1.6341 -0.7610
 1928TIP3    H2 5749   4.138   0.763   1.836 -0.9401  1.7327  1.1198
 1929TIP3   OH2 5750   1.383   4.473   5.278 -0.2821  0.0333 -0.1435
 1929TIP3    H1 5751   1.332   4.445   5.202  0.9558 -0.4730 -0.8078
 1929TIP3    H2 5752   1.432   4.396   5.305 -0.6708  0.2067  1.1804
 1930TIP3   OH2 5753   1.379   4.116   2.335  0.2185 -0.2822 -0.0928
 1930TIP3    H1 5754   1.420   4.033   2.359 -0.9433 -1.0700 -0.7540
 1930TIP3    H2 5755   1.451   4.180   2.340  0.8848 -1.0985  1.5192
 1931TIP3   OH2 5756   2.292   3.368   2.524 -0.2364  0.1275  0.1817
 1931TIP3    H1 5757   2.264   3.347   2.613 -1.3638  0.5795 -0.0460
 1931TIP3    H2 5758   2.243   3.447   2.502  0.4888  0.3711 -0.6295
 1932TIP3   OH2 5759   5.203   3.480   1.668  0.1024 -0.5311  0.2447
 1932TIP3    H1 5760   5.188   3.403   1.724  2.5369  0.1352  2.0082
 1932TIP3    H2 5761   5.289   3.464   1.629  0.0638  0.7222 -0.3960
 1933TIP3   OH2 5762   1.557   5.603   2.620  0.3863  0.5018 -0.1749
 1933TIP3    H1 5763   1.619   5.605   2.547  1.4875 -0.8616  0.6779
 1933TIP3    H2 5764   1.525   5.513   2.623  2.5622 -0.3524  2.7113
 1934TIP3   OH2 5765   0.171   4.363   1.699  0.2867 -0.3601  0.3414
 1934TIP3    H1 5766   0.262   4.349   1.671 -0.3877 -1.0530 -1.6301
 1934TIP3    H2 5767   0.148   4.282   1.744 -0.0394 -1.1367 -1.1619
 1935TIP3   OH2 5768   3.167   1.495   2.583 -0.8395  0.3769 -0.1456
 1935TIP3    H1 5769   3.077   1.470   2.601 -0.7783  1.2706  1.6303
 1935TIP3    H2 5770   3.205   1.513   2.670  0.2027  2.7524 -1.0123
 1936TIP3   OH2 5771   6.108   0.338   0.262  0.1263 -0.3698  0.5514
 1936TIP3    H1 5772   6.175   0.378   0.317 -0.3458  0.8371  0.2714
 1936TIP3    H2 5773   6.057   0.283   0.322 -0.7796  1.4255  1.4903
 1937TIP3   OH2 5774   5.951   5.829   4.323  0.3300  0.1591 -0.0851
 1937TIP3    H1 5775   6.014   5.900   4.331 -1.3949  1.5346  4.3205
 1937TIP3    H2 5776   5.872   5.871   4.288 -0.4452  0.3218  1.7733
 1938TIP3   OH2 5777   3.039   3.130   3.269  0.0069  0.0655 -0.2868
 1938TIP3    H1 5778   2.955   3.083   3.263  1.3302 -2.3127 -1.9985
 1938TIP3    H2 5779   3.088   3.083   3.336  0.3829  0.7830 -0.0473
 1939TIP3   OH2 5780   4.256   0.282   0.561 -0.0110  0.0076 -0.8727
 1939TIP3    H1 5781   4.220   0.271   0.473  1.0654  2.4286 -1.7059
 1939TIP3    H2 5782   4.335   0.228   0.561 -0.8366 -1.2407 -0.8139
 1940TIP3   OH2 5783   0.116   0.925   3.921 -0.3550  0.0191 -0.3836
 1940TIP3    H1 5784   0.053   0.853   3.915 -1.0182  0.4304  1.2748
 1940TIP3    H2 5785   0.066   0.997   3.959  1.0377  0.4385  0.7254
 1941TIP3   OH2 5786   0.722   1.979   0.730 -0.1241 -0.3937  0.4683
 1941TIP3    H1 5787   0.779   2.040   0.684 -0.2090  0.5839  1.6140
 1941TIP3    H2 5788   0.697   2.025   0.810  0.1796 -2.1077  1.6011
 1942TIP3   OH2 5789   3.119   1.047   4.147  0.3729  0.1503  0.0390
 1942TIP3    H1 5790   3.181   1.115   4.172  0.9608 -0.2027 -0.4436
 1942TIP3    H2 5791   3.058   1.092   4.088  0.5045  0.3608  0.0616
 1943TIP3   OH2 5792   5.773   0.868   3.068 -0.2545 -0.1961 -0.5441
 1943TIP3    H1 5793   5.850   0.870   3.125 -0.0693 -1.1597 -0.7336
 1943TIP3    H2 5794   5.704   0.831   3.122 -0.2403 -0.5372 -0.7564
 1944TIP3   OH2 5795   6.667   0.407   4.705  0.4543  0.2356  0.3785
 1944TIP3    H1 5796   6.658   0.488   4.755  0.0815  0.5514 -0.1921
 1944TIP3    H2 5797   6.596   0.409   4.641  0.7413 -0.3005  0.0252
 1945TIP3   OH2 5798   1.042   4.915   4.145 -0.4060  0.1505  0.2696
 1945TIP3    H1 5799   1.100   4.908   4.221  0.0265 -0.3932 -0.0999
 1945TIP3    H2 5800   1.021   4.824   4.122  1.4327  0.1530 -1.7339
 1946TIP3   OH2 5801   3.442   2.803   2.965  0.4494 -0.3013 -0.1831
 1946TIP3    H1 5802   3.469   2.742   3.033 -0.6384 -1.2397 -0.5499
 1946TIP3    H2 5803   3.349   2.817   2.981  0.2597 -0.2403 -1.2385
 1947TIP3   OH2 5804   1.808   2.681   3.984  0.5855 -0.1152 -0.4523
 1947TIP3    H1 5805   1.804   2.747   4.053 -0.1648  1.0154 -1.5345
 1947TIP3    H2 5806   1.794   2.598   4.030  4.8553 -0.0335  1.4567
 1948TIP3   OH2 5807   5.930   6.025   1.977  0.0396 -0.0393 -0.5300
 1948TIP3    H1 5808   6.008   5.986   1.937 -0.2641 -1.2185 -0.0204
 1948TIP3    H2 5809   5.951   6.118   1.985  0.0021  0.3651 -3.6680
 1949TIP3   OH2 5810   4.264   2.117   4.722  0.2387 -0.2662 -0.0698
 1949TIP3    H1 5811   4.288   2.197   4.674 -1.2012  0.5655  0.5488
 1949TIP3    H2 5812   4.177   2.134   4.756 -0.6103 -2.5759 -0.8835
 1950TIP3   OH2 5813   4.552   1.203   2.209 -0.1253  0.1174 -0.2648
 1950TIP3    H1 5814   4.564   1.151   2.289  0.6068  0.0101 -0.4441
 1950TIP3    H2 5815   4.623   1.267   2.211  0.9223 -0.9356 -1.6637
 1951TIP3   OH2 5816   6.363   0.426   0.323  0.7141  0.0555  0.0781
 1951TIP3    H1 5817   6.392   0.512   0.352  2.4281 -0.6143  0.4868
 1951TIP3    H2 5818   6.422   0.364   0.367 -1.3155 -1.4415  0.8656
 1952TIP3   OH2 5819   3.076   5.176   2.961  0.2673 -0.9075 -0.3438
 1952TIP3    H1 5820   3.041   5.262   2.939 -0.1597 -1.2079 -0.8268
 1952TIP3    H2 5821   3.086   5.178   3.057  0.9281 -0.0700 -0.4225
 1953TIP3   OH2 5822   1.269   5.890   2.467  0.2066  0.2133 -0.2489
 1953TIP3    H1 5823   1.182   5.848   2.466  0.8178 -1.1018  0.0317
 1953TIP3    H2 5824   1.250   5.984   2.461 -1.4133  0.2551  3.3609
 1954TIP3   OH2 5825   4.864   5.318   0.980  0.1806  0.2349 -0.1821
 1954TIP3    H1 5826   4.880   5.354   0.893  1.1931 -0.5640 -0.3429
 1954TIP3    H2 5827   4.883   5.390   1.040  0.1040  0.5959 -0.5903
 1955TIP3   OH2 5828   1.381   3.482   3.176  0.1412 -0.0903 -0.2065
 1955TIP3    H1 5829   1.357   3.538   3.250  1.5559 -0.5187  0.6147
 1955TIP3    H2 5830   1.358   3.393   3.204  1.4398 -0.3582  0.1035
 1956TIP3   OH2 5831   2.060   1.089   0.543  0.4616 -0.1708  0.0702
 1956TIP3    H1 5832   2.105   1.109   0.625  0.1338 -2.7557  0.9772
 1956TIP3    H2 5833   2.129   1.092   0.476  1.1206  0.0763  0.7475
 1957TIP3   OH2 5834   3.173   2.605   3.315 -0.0756  0.5101 -0.2555
 1957TIP3    H1 5835   3.205   2.563   3.395  0.6251  1.7190  0.1145
 1957TIP3    H2 5836   3.234   2.677   3.300 -0.9115  1.0296 -1.2114
 1958TIP3   OH2 5837   6.307   6.389   3.097  0.1362 -0.5406  0.1881
 1958TIP3    H1 5838   6.390   6.384   3.144  0.4959  0.3380 -0.3154
 1958TIP3    H2 5839   6.264   6.306   3.114  1.0759 -0.9640  0.5478
 1959TIP3   OH2 5840   2.336   2.643   2.102 -0.4737 -0.1795 -0.6663
 1959TIP3    H1 5841   2.247   2.675   2.087 -0.1319  0.6087 -1.0699
 1959TIP3    H2 5842   2.337   2.556   2.063 -1.0351 -0.1487 -0.7593
 1960TIP3   OH2 5843   4.413   0.326   1.744  0.1841  0.3539  0.1392
 1960TIP3    H1 5844   4.333   0.313   1.796  0.2381 -0.3210  0.0617
 1960TIP3    H2 5845   4.474   0.367   1.804  0.3513 -0.7110  0.7105
 1961TIP3   OH2 5846   3.816   0.411   5.047  0.7888 -0.1212 -0.3181
 1961TIP3    H1 5847   3.873   0.427   5.122  2.0904 -0.0461 -1.2778
 1961TIP3    H2 5848   3.831   0.485   4.989  0.2542 -0.4666 -0.9188
 1962TIP3   OH2 5849   0.750   5.619   1.306  0.9899  0.0473  0.3571
 1962TIP3    H1 5850   0.823   5.559   1.322  0.1581 -1.0976  0.0069
 1962TIP3    H2 5851   0.750   5.632   1.212  0.4307 -0.3729  0.2959
 1963TIP3   OH2 5852   4.782   4.888   1.052 -0.4221 -0.1503  0.4731
 1963TIP3    H1 5853   4.770   4.799   1.085 -0.2562 -0.5824 -0.5907
 1963TIP3    H2 5854   4.749   4.885   0.963 -1.7594  1.2334  0.8801
 1964TIP3   OH2 5855   2.912   3.862   0.678 -0.5279  0.2499 -0.0803
 1964TIP3    H1 5856   2.928   3.933   0.615 -1.1468 -1.0425 -1.7622
 1964TIP3    H2 5857   2.981   3.872   0.743  0.5646  1.2271 -1.3346
 1965TIP3   OH2 5858   2.793   5.535   1.060  0.3120 -0.3473 -0.2163
 1965TIP3    H1 5859   2.872   5.588   1.056  0.8079 -1.0613  0.0209
 1965TIP3    H2 5860   2.806   5.477   1.135 -0.9441  0.3257  0.5586
 1966TIP3   OH2 5861   1.668   1.533   4.984 -0.2339  0.0614 -0.1629
 1966TIP3    H1 5862   1.718   1.472   4.930 -0.2380  0.7221 -0.9215
 1966TIP3    H2 5863   1.711   1.529   5.070  0.2415 -0.4247 -0.4175
 1967TIP3   OH2 5864   3.487   1.706   2.018  0.6670  0.0302 -0.1247
 1967TIP3    H1 5865   3.406   1.725   2.066  0.9186  1.2282 -0.1371
 1967TIP3    H2 5866   3.477   1.615   1.989 -0.1068 -0.2505  0.9711
 1968TIP3   OH2 5867   2.537   1.963   3.706  0.4274 -0.8624  0.2518
 1968TIP3    H1 5868   2.557   1.885   3.653 -0.7434 -1.4677  0.6673
 1968TIP3    H2 5869   2.611   2.022   3.690  0.0765 -0.9732 -2.1254
 1969TIP3   OH2 5870   2.819   1.438   3.124  0.1303  0.4914  0.0225
 1969TIP3    H1 5871   2.810   1.405   3.213  0.3004  0.7114  0.1208
 1969TIP3    H2 5872   2.796   1.363   3.068  1.9086 -0.2285  0.2151
 1970TIP3   OH2 5873   1.167   1.421   4.793 -0.1406 -0.1111 -0.3971
 1970TIP3    H1 5874   1.221   1.478   4.847  0.6100 -1.8516  0.7923
 1970TIP3    H2 5875   1.146   1.473   4.716  1.9589  1.1578 -0.1754
 1971TIP3   OH2 5876   6.155   3.917   2.880  0.1741 -0.2019 -0.6579
 1971TIP3    H1 5877   6.075   3.904   2.931 -1.1137 -1.1684 -2.7979
 1971TIP3    H2 5878   6.172   3.833   2.839  1.9099  0.1957 -0.8387
 1972TIP3   OH2 5879   4.750   0.579   3.625  0.6212  0.6467  0.0460
 1972TIP3    H1 5880   4.658   0.554   3.613 -0.0993  3.2997 -0.5856
 1972TIP3    H2 5881   4.798   0.518   3.569 -1.0860  1.1655 -2.1410
 1973TIP3   OH2 5882   4.138   1.670   3.362 -0.0233 -0.5572 -0.1985
 1973TIP3    H1 5883   4.079   1.704   3.429  0.9707 -1.7411  1.3424
 1973TIP3    H2 5884   4.171   1.748   3.318 -1.5786  0.1961 -0.1123
 1974TIP3   OH2 5885   7.114   6.005   1.245  0.4750  0.0539  0.7019
 1974TIP3    H1 5886   7.182   6.039   1.187 -0.7117  0.8020 -0.2922
 1974TIP3    H2 5887   7.125   5.910   1.242 -0.7419 -0.0901 -2.3311
 1975TIP3   OH2 5888   3.732   2.962   1.933  0.4393 -0.1187 -0.1027
 1975TIP3    H1 5889   3.826   2.970   1.950  0.3044  0.6501  0.3677
 1975TIP3    H2 5890   3.696   3.047   1.961 -0.4151 -0.4772 -0.0913
 1976TIP3   OH2 5891   5.017   0.791   2.357  0.3707 -0.0841 -0.2512
 1976TIP3    H1 5892   5.057   0.875   2.335 -1.4994  1.0613  0.4853
 1976TIP3    H2 5893   5.073   0.755   2.425  1.3921  0.4012 -0.8203
 1977TIP3   OH2 5894   1.539   3.234   5.464  0.2056 -0.4236  0.3970
 1977TIP3    H1 5895   1.451   3.262   5.491  0.2806 -0.5657  0.8082
 1977TIP3    H2 5896   1.580   3.204   5.546  0.9499  0.4597  0.3614
 1978TIP3   OH2 5897   0.643   5.687   1.012 -0.4423  0.3510  0.5201
 1978TIP3    H1 5898   0.616   5.597   1.030  1.1587 -0.3552 -0.4035
 1978TIP3    H2 5899   0.565   5.727   0.973 -1.0123 -0.8139  0.4097
 1979TIP3   OH2 5900   3.746   0.832   5.145 -0.3964  0.5147 -0.0144
 1979TIP3    H1 5901   3.782   0.744   5.156 -1.6650 -0.1336 -0.8077
 1979TIP3    H2 5902   3.815   0.881   5.101  0.4575  0.0307  0.7388
 1980TIP3   OH2 5903   4.611   6.683   5.869 -0.2712 -0.0267  0.1651
 1980TIP3    H1 5904   4.661   6.752   5.911  0.7366 -0.1082 -0.8622
 1980TIP3    H2 5905   4.521   6.696   5.901  0.4318 -0.1403  2.3581
 1981TIP3   OH2 5906   4.530   1.568   1.222  0.2179  0.6531 -0.6827
 1981TIP3    H1 5907   4.603   1.523   1.178  0.5341  1.1736 -0.7011
 1981TIP3    H2 5908   4.529   1.530   1.310 -0.1195 -0.0595 -0.9908
 1982TIP3   OH2 5909   4.445   1.771   0.794  0.2971  0.8251  0.5596
 1982TIP3    H1 5910   4.370   1.721   0.825 -0.3006 -0.2862 -2.2977
 1982TIP3    H2 5911   4.420   1.862   0.807  0.0123  0.4597  2.8903
 1983TIP3   OH2 5912   0.075   2.876   3.397  0.0078  0.5356  0.3693
 1983TIP3    H1 5913   0.025   2.849   3.473  1.1831  0.8746  1.2925
 1983TIP3    H2 5914   0.057   2.808   3.331  0.3448 -0.7190  1.5323
 1984TIP3   OH2 5915   0.448   0.372   2.121 -0.4085  0.4132  0.1182
 1984TIP3    H1 5916   0.519   0.378   2.056  1.2138  0.2240  1.7767
 1984TIP3    H2 5917   0.494   0.364   2.205 -2.4215  1.0269  1.3377
 1985TIP3   OH2 5918   3.109   5.592   4.488  0.4655  0.3480  0.3239
 1985TIP3    H1 5919   3.100   5.504   4.453 -1.5242  0.2945  0.8407
 1985TIP3    H2 5920   3.192   5.590   4.537  0.4376 -1.2305  0.3515
 1986TIP3   OH2 5921   1.544   3.056   5.223 -0.0793  0.2906  0.5092
 1986TIP3    H1 5922   1.551   3.089   5.313 -0.2052 -1.6675  1.2900
 1986TIP3    H2 5923   1.612   2.989   5.217 -0.2867  0.1738 -0.7628
 1987TIP3   OH2 5924   3.953   5.240   1.710  0.0953  0.3726 -0.0040
 1987TIP3    H1 5925   3.865   5.271   1.731 -0.8819 -1.2006 -1.4998
 1987TIP3    H2 5926   3.960   5.155   1.752  0.8905  0.4457  0.0414
 1988TIP3   OH2 5927   0.487   0.696   4.982 -0.1259 -0.2382 -0.1634
 1988TIP3    H1 5928   0.442   0.771   5.021 -0.7668 -1.0690  0.7667
 1988TIP3    H2 5929   0.572   0.693   5.025 -0.1970 -0.1846 -0.0182
 1989TIP3   OH2 5930   0.687   3.306   2.556  0.1434 -0.2930 -0.1754
 1989TIP3    H1 5931   0.604   3.284   2.599  0.1054 -0.8188 -0.5055
 1989TIP3    H2 5932   0.662   3.369   2.488  0.2760  0.9387  0.8836
 1990TIP3   OH2 5933   1.212   4.564   1.346  0.4900 -0.5293  0.5996
 1990TIP3    H1 5934   1.230   4.624   1.273  0.6806  0.2891  1.3051
 1990TIP3    H2 5935   1.201   4.479   1.304  0.5812 -0.0726 -0.3913
 1991TIP3   OH2 5936   6.251   6.224   1.118 -0.4541  0.2539  0.2977
 1991TIP3    H1 5937   6.250   6.177   1.034 -1.9457  0.4021  0.2083
 1991TIP3    H2 5938   6.215   6.161   1.180  0.0316  0.3786  0.7111
 1992TIP3   OH2 5939   6.590   3.499   1.757  0.8099 -0.0715 -0.0244
 1992TIP3    H1 5940   6.605   3.436   1.687  1.1352  1.4751 -1.4166
 1992TIP3    H2 5941   6.500   3.529   1.744  0.5457 -0.4436  0.8270
 1993TIP3   OH2 5942   3.311   0.537   4.683 -0.3347  0.6117 -0.2043
 1993TIP3    H1 5943   3.243   0.469   4.681 -1.8998  2.1240 -1.3060
 1993TIP3    H2 5944   3.326   0.559   4.591 -0.6724  2.4858  0.1418
 1994TIP3   OH2 5945   3.156   2.323   2.778 -0.4761 -0.0392 -0.6032
 1994TIP3    H1 5946   3.140   2.416   2.764 -1.1757 -0.4663 -3.1760
 1994TIP3    H2 5947   3.096   2.298   2.848 -0.5956  1.3419 -0.1936
 1995TIP3   OH2 5948   6.299   2.253   2.090 -0.3082  0.2840  0.6265
 1995TIP3    H1 5949   6.337   2.180   2.043  1.1508 -0.0713  2.2478
 1995TIP3    H2 5950   6.247   2.300   2.025  1.6945 -0.0936 -1.3364
 1996TIP3   OH2 5951   3.742   3.819   0.991  0.3169 -0.1796  0.1224
 1996TIP3    H1 5952   3.734   3.864   0.906  1.4674  1.0034  0.6044
 1996TIP3    H2 5953   3.819   3.763   0.981  0.5279  0.0545  0.4145
 1997TIP3   OH2 5954   5.138   6.587   2.124  0.0332  0.0070 -0.8869
 1997TIP3    H1 5955   5.058   6.596   2.072 -0.1775  1.0278 -0.4177
 1997TIP3    H2 5956   5.165   6.677   2.141  0.7982 -0.3270 -0.2894
 1998TIP3   OH2 5957   4.299   3.269   4.044  0.3184 -0.2127 -0.0618
 1998TIP3    H1 5958   4.355   3.337   4.007 -0.0362 -0.9135 -2.0495
 1998TIP3    H2 5959   4.319   3.269   4.137  1.4389  1.5512 -0.2524
 1999TIP3   OH2 5960   3.240   6.639   1.983 -0.2591  0.2904 -0.3396
 1999TIP3    H1 5961   3.174   6.591   1.933 -0.8006 -0.1268  0.7361
 1999TIP3    H2 5962   3.197   6.720   2.008  0.7308  1.4996 -2.3465
 2000TIP3   OH2 5963   6.884   4.108   5.882  0.2949 -0.4484  0.0617
 2000TIP3    H1 5964   6.826   4.162   5.828 -0.3064  0.1828  1.2924
 2000TIP3    H2 5965   6.827   4.041   5.918  0.4566 -0.2197  0.7549
 2001TIP3   OH2 5966   2.711   5.248   0.139 -0.4762 -0.1947  0.0434
 2001TIP3    H1 5967   2.707   5.249   0.234 -0.0325  2.7001  0.1139
 2001TIP3    H2 5968   2.795   5.205   0.119  0.3937  0.9875  1.0467
 2002TIP3   OH2 5969   1.214   0.362   5.562  0.4501 -0.3208 -0.4320
 2002TIP3    H1 5970   1.254   0.284   5.522 -0.7478 -0.7715 -0.7749
 2002TIP3    H2 5971   1.122   0.339   5.574  0.1247  0.9622 -0.3062
 2003TIP3   OH2 5972   2.098   1.547   2.947  0.2059 -0.6230 -0.0738
 2003TIP3    H1 5973   2.046   1.501   2.882  0.9016 -1.5131 -0.0108
 2003TIP3    H2 5974   2.039   1.615   2.981 -0.2623 -0.3384 -1.3919
 2004TIP3   OH2 5975   2.099   0.486   1.789 -0.2437  0.0354  0.1025
 2004TIP3    H1 5976   2.026   0.440   1.748 -0.1254 -1.4400  1.4414
 2004TIP3    H2 5977   2.174   0.428   1.776  0.7557  1.5445 -1.2860
 2005TIP3   OH2 5978   6.580   2.071   2.645 -0.4294 -0.0808 -0.4072
 2005TIP3    H1 5979   6.556   1.979   2.635  0.2206 -0.0991 -2.1068
 2005TIP3    H2 5980   6.498   2.119   2.631 -1.2733 -0.3993  2.6810
 2006TIP3   OH2 5981   4.522   4.441   1.054 -0.1408  0.2218  0.2042
 2006TIP3    H1 5982   4.507   4.485   0.970  0.0622  1.0535  0.5960
 2006TIP3    H2 5983   4.476   4.357   1.045  0.0311  0.2156 -0.8020
 2007TIP3   OH2 5984   6.354   1.552   5.510 -0.7831  0.2496 -0.1303
 2007TIP3    H1 5985   6.388   1.560   5.421 -2.5128 -0.4469 -0.8852
 2007TIP3    H2 5986   6.300   1.473   5.509 -1.5931  0.7484  1.2867
 2008TIP3   OH2 5987   6.228   0.656   2.812  1.0415  0.1502 -0.9566
 2008TIP3    H1 5988   6.184   0.738   2.835 -1.8835 -1.2786 -0.9675
 2008TIP3    H2 5989   6.209   0.597   2.885 -0.6716 -1.7480 -2.7952
 2009TIP3   OH2 5990   3.318   1.131   0.833 -0.1324 -0.3988 -0.7391
 2009TIP3    H1 5991   3.401   1.105   0.873 -1.7767 -2.2332  1.8188
 2009TIP3    H2 5992   3.307   1.222   0.859  0.8732 -0.2634 -0.7380
 2010TIP3   OH2 5993   3.749   1.766   1.843 -0.1762 -0.2619 -0.5744
 2010TIP3    H1 5994   3.831   1.734   1.805 -0.2598 -0.0523 -0.9339
 2010TIP3    H2 5995   3.721   1.696   1.902  1.1465  0.3816  0.8677
 2011TIP3   OH2 5996   4.301   5.489   1.836 -0.5852 -0.2390  0.4674
 2011TIP3    H1 5997   4.366   5.549   1.872 -1.2951  1.5139 -0.9893
 2011TIP3    H2 5998   4.329   5.474   1.746 -2.2265  0.7250 -0.2609
 2012TIP3   OH2 5999   2.959   4.573   3.938  0.2031  0.2935 -0.2857
 2012TIP3    H1 6000   3.023   4.641   3.918 -0.5613  0.7271 -1.3661
 2012TIP3    H2 6001   2.968   4.510   3.866 -2.1369  1.5400 -1.7981
 2013TIP3   OH2 6002   0.963   4.684   1.191  0.0331 -0.3986  0.7423
 2013TIP3    H1 6003   0.956   4.725   1.105  1.4715 -0.5833  0.5091
 2013TIP3    H2 6004   0.957   4.590   1.173 -0.8617 -0.3916  0.9896
 2014TIP3   OH2 6005   2.500   5.480   2.154  0.5030 -0.7013  0.5902
 2014TIP3    H1 6006   2.430   5.493   2.217 -0.1663 -1.6770  0.0695
 2014TIP3    H2 6007   2.470   5.523   2.074  1.3607  0.5560  0.9226
 2015TIP3   OH2 6008   2.510   0.522   4.215  0.2320  0.1000  0.4220
 2015TIP3    H1 6009   2.555   0.553   4.293 -0.8285  0.2472  0.9888
 2015TIP3    H2 6010   2.419   0.550   4.227  0.4003  1.8487 -1.7602
 2016TIP3   OH2 6011   5.311   4.767   1.059 -0.2888 -0.4388 -0.2761
 2016TIP3    H1 6012   5.224   4.792   1.089 -0.9469 -0.1621 -2.2766
 2016TIP3    H2 6013   5.353   4.850   1.035  0.5028 -0.5815  0.5578
 2017TIP3   OH2 6014   0.808   3.103   1.558  0.1159 -0.0270 -0.0779
 2017TIP3    H1 6015   0.773   3.117   1.646  2.1510 -1.9634  1.1485
 2017TIP3    H2 6016   0.731   3.082   1.505 -1.0278 -0.1209  1.5313
 2018TIP3   OH2 6017   5.712   0.916   3.424 -0.3108 -0.2590  0.0860
 2018TIP3    H1 6018   5.787   0.916   3.364  0.2487  0.4228  0.7648
 2018TIP3    H2 6019   5.692   1.009   3.437 -0.5670 -0.4072  0.7817
 2019TIP3   OH2 6020   1.164   2.265   0.592 -0.1207 -0.3225  0.1003
 2019TIP3    H1 6021   1.174   2.300   0.680  0.5560 -0.4973  0.0944
 2019TIP3    H2 6022   1.118   2.334   0.544  0.7277  0.3448  0.2241
 2020TIP3   OH2 6023   3.635   1.398   1.828  0.2826  0.5240 -0.1322
 2020TIP3    H1 6024   3.674   1.310   1.834 -0.4674 -0.0121 -2.2431
 2020TIP3    H2 6025   3.681   1.439   1.754 -0.3150  1.4172 -0.0201
 2021TIP3   OH2 6026   5.738   6.551   5.520 -0.0380  0.1497 -0.1489
 2021TIP3    H1 6027   5.655   6.593   5.499  0.1657 -0.2991 -1.9926
 2021TIP3    H2 6028   5.800   6.587   5.456  1.2221  0.5388  1.2369
 2022TIP3   OH2 6029   1.580   5.491   4.109 -0.0115 -0.0743  0.2842
 2022TIP3    H1 6030   1.603   5.552   4.039 -2.0481 -0.9167 -1.1983
 2022TIP3    H2 6031   1.664   5.461   4.143  1.0286  2.1858 -0.1452
 2023TIP3   OH2 6032   1.198   2.111   4.796 -0.9098  0.3681 -0.7777
 2023TIP3    H1 6033   1.127   2.136   4.855 -0.0392 -0.9789  0.9289
 2023TIP3    H2 6034   1.259   2.184   4.799 -0.6227  0.1000  0.4515
 2024TIP3   OH2 6035   3.008   6.540   1.197 -0.1194 -0.3748 -0.2113
 2024TIP3    H1 6036   3.033   6.632   1.192 -0.5526 -0.0938  1.8107
 2024TIP3    H2 6037   3.092   6.493   1.204  0.0921 -0.1293 -1.0118
 2025TIP3   OH2 6038   5.708   4.525   2.220 -0.3087  0.2074  0.5884
 2025TIP3    H1 6039   5.789   4.542   2.171 -0.4874 -0.8112 -0.0964
 2025TIP3    H2 6040   5.727   4.447   2.272 -0.6143  0.3963  0.9864
 2026TIP3   OH2 6041   3.664   0.666   1.973  0.6299 -0.4863  0.0486
 2026TIP3    H1 6042   3.729   0.637   2.036 -1.2043 -0.9189  1.8654
 2026TIP3    H2 6043   3.636   0.587   1.928  0.6695 -0.4452 -0.0497
 2027TIP3   OH2 6044   0.557   1.717   1.636  0.5837 -0.3144 -0.1401
 2027TIP3    H1 6045   0.490   1.663   1.595 -0.8687  0.8430  0.6164
 2027TIP3    H2 6046   0.616   1.655   1.677 -1.0359 -1.3501  0.7094
 2028TIP3   OH2 6047   3.093   0.058   5.117 -0.4541  0.0257 -0.0593
 2028TIP3    H1 6048   3.184   0.050   5.087  0.0204  0.9725  1.0780
 2028TIP3    H2 6049   3.087  -0.004   5.190 -0.4506  0.6058  0.4436
 2029TIP3   OH2 6050   5.295   2.996   3.503 -0.2594 -0.4016  0.2834
 2029TIP3    H1 6051   5.308   3.039   3.587 -0.3019 -1.0529  0.6326
 2029TIP3    H2 6052   5.317   3.063   3.438 -2.0261  0.7326  0.7642
 2030TIP3   OH2 6053   3.406   1.451   1.990  0.4653 -0.1056 -0.3227
 2030TIP3    H1 6054   3.467   1.405   1.932 -0.0800 -0.2056 -0.8194
 2030TIP3    H2 6055   3.324   1.453   1.942  0.3551  0.9789 -0.1154
 2031TIP3   OH2 6056   4.660   6.529   1.012  0.2758  0.0542  0.1881
 2031TIP3    H1 6057   4.685   6.612   0.970 -0.6379 -0.2188 -0.9455
 2031TIP3    H2 6058   4.575   6.508   0.975  0.9175 -1.9114 -0.3293
 2032TIP3   OH2 6059   5.183   1.420   3.537  0.1223  0.5918  0.1426
 2032TIP3    H1 6060   5.108   1.380   3.494  0.3019  1.0112 -0.5724
 2032TIP3    H2 6061   5.233   1.346   3.573  0.1637  0.2081 -0.6870
 2033TIP3   OH2 6062   2.396   0.848   1.360 -0.0820  0.9109  0.8942
 2033TIP3    H1 6063   2.435   0.911   1.300 -0.9064  0.6908  0.0984
 2033TIP3    H2 6064   2.318   0.892   1.394 -0.6825  0.3247  0.3091
 2034TIP3   OH2 6065   5.350   5.639   1.289  0.3889  0.1306 -0.0996
 2034TIP3    H1 6066   5.358   5.551   1.252  1.2960  0.1325  0.0639
 2034TIP3    H2 6067   5.428   5.649   1.344  0.7568  1.3565 -0.8002
 2035TIP3   OH2 6068   0.855   1.562   5.030  0.4231  0.1231  0.3569
 2035TIP3    H1 6069   0.891   1.477   5.055 -0.2582 -0.3606 -0.2461
 2035TIP3    H2 6070   0.904   1.586   4.951  1.5954  0.9808  1.3047
 2036TIP3   OH2 6071   3.923   4.949   5.693  0.4326  0.2902  0.0444
 2036TIP3    H1 6072   3.925   5.027   5.637 -0.5929 -0.4424 -1.0588
 2036TIP3    H2 6073   3.980   4.971   5.766  0.9371  1.7053 -0.7329
 2037TIP3   OH2 6074   3.580   2.569   2.072 -0.3262 -0.2434  0.5976
 2037TIP3    H1 6075   3.661   2.518   2.079  1.7237  2.4917 -1.1029
 2037TIP3    H2 6076   3.595   2.646   2.127 -0.7003  1.5111 -1.6382
 2038TIP3   OH2 6077   2.407   0.764   5.025  0.2651  0.3880  0.4160
 2038TIP3    H1 6078   2.335   0.747   4.965 -0.4611 -1.1733  1.6555
 2038TIP3    H2 6079   2.473   0.697   5.005 -0.6198 -1.1375  2.2509
 2039TIP3   OH2 6080   1.669   0.621   1.336  0.2625  0.8178  1.0770
 2039TIP3    H1 6081   1.728   0.695   1.352  1.1290  0.5929 -0.7546
 2039TIP3    H2 6082   1.702   0.582   1.255 -1.2836 -0.4827  1.0299
 2040TIP3   OH2 6083   1.928   0.849   0.782  0.2425 -0.4568  0.9551
 2040TIP3    H1 6084   1.839   0.874   0.809 -0.1356  0.3000 -0.8974
 2040TIP3    H2 6085   1.985   0.905   0.834 -0.4855  1.2729 -0.0298
 2041TIP3   OH2 6086   6.219   4.126   4.620  0.3320  0.2796 -0.9916
 2041TIP3    H1 6087   6.278   4.050   4.624  0.7880  0.6393 -0.8470
 2041TIP3    H2 6088   6.215   4.158   4.710 -1.7165 -0.9688 -0.5687
 2042TIP3   OH2 6089   3.952   6.110   3.248  0.0996  0.1497  0.2501
 2042TIP3    H1 6090   4.033   6.159   3.262  0.9955 -1.3025  0.3575
 2042TIP3    H2 6091   3.971   6.055   3.172 -1.5287  1.2619 -1.0538
 2043TIP3   OH2 6092   7.174   3.763   2.206  0.3908 -0.8010 -0.4838
 2043TIP3    H1 6093   7.147   3.680   2.166 -0.1325 -1.0392  0.3431
 2043TIP3    H2 6094   7.263   3.747   2.237  0.7680 -0.6438 -1.4531
 2044TIP3   OH2 6095   0.739   1.190   4.537  0.2357 -0.2706  0.1578
 2044TIP3    H1 6096   0.684   1.170   4.462  3.2909  1.9095 -3.0273
 2044TIP3    H2 6097   0.688   1.253   4.588 -2.3774 -2.6664  0.7529
 2045TIP3   OH2 6098   5.909   2.554   2.182 -0.0766 -0.1978 -0.1406
 2045TIP3    H1 6099   5.905   2.470   2.135 -0.3411 -0.3208  0.0967
 2045TIP3    H2 6100   5.821   2.565   2.218 -1.1484  1.8410 -3.0308
 2046TIP3   OH2 6101   2.545   5.484   1.839  0.4213  0.2797  0.2378
 2046TIP3    H1 6102   2.623   5.430   1.828 -0.2916 -0.7922  0.2980
 2046TIP3    H2 6103   2.578   5.574   1.840  1.6589 -0.1576  0.3769
 2047TIP3   OH2 6104   2.410   2.137   2.949  0.0577 -0.6617 -0.4640
 2047TIP3    H1 6105   2.405   2.154   3.043 -1.0667 -4.2378  0.2999
 2047TIP3    H2 6106   2.503   2.128   2.930  0.3881  1.4448 -0.0777
 2048TIP3   OH2 6107   1.880   6.262   0.841 -0.3326 -0.1763 -0.3012
 2048TIP3    H1 6108   1.887   6.262   0.937 -0.0700  0.6742 -0.3115
 2048TIP3    H2 6109   1.907   6.174   0.815  0.5686 -0.1130  0.3463
 2049TIP3   OH2 6110   0.681   6.518   2.067  0.3206  0.3430 -0.5246
 2049TIP3    H1 6111   0.748   6.586   2.063  0.5074  0.2141  0.1618
 2049TIP3    H2 6112   0.623   6.546   2.138 -0.6137  0.6789 -1.3998
 2050TIP3   OH2 6113   2.196   4.984   2.232  0.2041  0.4755  0.0362
 2050TIP3    H1 6114   2.222   4.908   2.180  1.6846  0.3342  0.9207
 2050TIP3    H2 6115   2.240   5.058   2.191 -0.2599  0.6720 -0.1072
 2051TIP3   OH2 6116   3.288   6.339   2.435  0.2998  0.0901 -0.3689
 2051TIP3    H1 6117   3.221   6.275   2.460  0.9075 -0.5793 -0.4117
 2051TIP3    H2 6118   3.371   6.297   2.461  0.7109  0.8191 -0.4947
 2052TIP3   OH2 6119   1.485   3.359   4.458 -0.2205  0.1366 -0.1236
 2052TIP3    H1 6120   1.475   3.301   4.534 -1.7046 -1.0986 -1.2208
 2052TIP3    H2 6121   1.540   3.310   4.397 -2.8499 -0.9266 -1.7609
 2053TIP3   OH2 6122   3.416   6.027   1.141 -0.0238  0.0153  0.0959
 2053TIP3    H1 6123   3.321   6.017   1.146  0.2250 -1.9554  3.0742
 2053TIP3    H2 6124   3.431   6.118   1.167 -1.0780  0.3227 -0.3052
 2054TIP3   OH2 6125   2.217   0.977   3.993  0.0559 -0.3855 -0.2408
 2054TIP3    H1 6126   2.213   0.891   3.951  1.2938  0.6473 -2.6899
 2054TIP3    H2 6127   2.208   0.958   4.086 -1.6698 -2.9634 -0.7992
 2055TIP3   OH2 6128   2.203   2.587   4.476 -0.2417  0.5560  0.0036
 2055TIP3    H1 6129   2.225   2.597   4.569  2.3110 -0.4626 -0.4057
 2055TIP3    H2 6130   2.263   2.647   4.431  0.2738 -0.7580 -1.1044
 2056TIP3   OH2 6131   3.798   1.396   4.768 -0.0024 -0.1446 -0.0141
 2056TIP3    H1 6132   3.802   1.336   4.842  0.6065  1.3160  1.2046
 2056TIP3    H2 6133   3.864   1.363   4.707 -1.7652 -2.4134 -0.8080
 2057TIP3   OH2 6134   3.833   6.201   2.497 -0.0065  0.3180  0.0331
 2057TIP3    H1 6135   3.868   6.286   2.525 -1.5310  1.1487 -0.4446
 2057TIP3    H2 6136   3.829   6.207   2.401 -1.1761  0.1719  0.0523
 2058TIP3   OH2 6137   1.232   5.762   0.346 -0.3331 -0.3280  0.4500
 2058TIP3    H1 6138   1.266   5.674   0.362  2.0357  0.2253 -1.0436
 2058TIP3    H2 6139   1.241   5.806   0.430  1.8836 -0.5099  0.3641
 2059TIP3   OH2 6140   0.795   0.781   3.545  0.2170 -0.1575  0.1973
 2059TIP3    H1 6141   0.857   0.790   3.617  0.3331 -0.5773  0.1521
 2059TIP3    H2 6142   0.711   0.768   3.587  0.5613 -2.4740  0.2986
 2060TIP3   OH2 6143   3.899   0.566   1.227  0.1003  0.5001  0.9771
 2060TIP3    H1 6144   3.865   0.560   1.138 -0.8766 -0.0165  1.3708
 2060TIP3    H2 6145   3.829   0.530   1.282 -0.1956  2.6848  2.1585
 2061TIP3   OH2 6146   4.396   1.700   4.686 -0.3567  0.4665 -0.8243
 2061TIP3    H1 6147   4.369   1.720   4.775  0.0871  0.3482 -0.6591
 2061TIP3    H2 6148   4.315   1.700   4.635 -0.6800 -0.0161 -0.3166
 2062TIP3   OH2 6149   2.213   5.347   3.286 -0.5557  0.3603 -0.0101
 2062TIP3    H1 6150   2.290   5.290   3.294 -0.2137  0.6699 -1.0555
 2062TIP3    H2 6151   2.140   5.286   3.282 -0.1314 -0.0898 -1.9628
 2063TIP3   OH2 6152   2.517   5.193   1.660 -0.3545  0.0252  0.1804
 2063TIP3    H1 6153   2.442   5.138   1.636  0.5086 -0.1484 -2.3880
 2063TIP3    H2 6154   2.496   5.279   1.624  0.1409  0.3028  0.5454
 2064TIP3   OH2 6155   6.868   2.735   5.104  0.0226 -0.4676 -0.3304
 2064TIP3    H1 6156   6.773   2.729   5.109 -0.1748  2.0630  0.4851
 2064TIP3    H2 6157   6.895   2.772   5.188  1.7640 -1.2770 -0.4756
 2065TIP3   OH2 6158   3.171   4.439   5.890  0.1486  0.3361 -0.1734
 2065TIP3    H1 6159   3.204   4.353   5.917  0.0736  0.5301  0.5422
 2065TIP3    H2 6160   3.216   4.457   5.807  0.8418  0.0084  0.1245
 2066TIP3   OH2 6161   6.409   1.558   2.476 -0.2051  0.0593 -0.0293
 2066TIP3    H1 6162   6.343   1.604   2.528  0.1021 -0.6304  0.9894
 2066TIP3    H2 6163   6.358   1.492   2.428 -0.2206 -0.8529  1.1861
 2067TIP3   OH2 6164   4.582   0.383   2.261 -0.0449 -0.5086 -0.1300
 2067TIP3    H1 6165   4.627   0.346   2.337  1.5194 -1.4277 -1.4455
 2067TIP3    H2 6166   4.558   0.307   2.208 -1.9431  0.0611 -0.1613
 2068TIP3   OH2 6167   5.627   4.719   1.043 -0.2767 -0.0926  0.1553
 2068TIP3    H1 6168   5.556   4.743   1.103  1.0191  1.2225  1.2663
 2068TIP3    H2 6169   5.688   4.668   1.096 -0.5898 -1.6577 -0.9175
 2069TIP3   OH2 6170   2.219   5.425   5.401  0.2951 -0.2746 -0.8339
 2069TIP3    H1 6171   2.207   5.513   5.437  0.7323  0.4284 -2.3674
 2069TIP3    H2 6172   2.181   5.367   5.468 -0.4873  1.0994 -0.0453
 2070TIP3   OH2 6173   0.362   4.710   4.986 -0.0808  0.6070 -0.0111
 2070TIP3    H1 6174   0.339   4.710   4.894  0.5669  1.8622 -0.2002
 2070TIP3    H2 6175   0.298   4.652   5.027 -0.1202 -0.3059 -1.2922
 2071TIP3   OH2 6176   2.347   1.680   5.165 -0.2362 -0.3325  0.0898
 2071TIP3    H1 6177   2.434   1.703   5.134 -0.3065  0.2829  0.3306
 2071TIP3    H2 6178   2.324   1.750   5.227 -0.6783 -0.7713  0.4371
 2072TIP3   OH2 6179   0.903   0.750   2.622  0.2563 -0.1681  0.0254
 2072TIP3    H1 6180   0.918   0.811   2.694 -1.0740 -0.1514  0.3157
 2072TIP3    H2 6181   0.961   0.780   2.552 -0.5920  1.6320  0.0414
 2073TIP3   OH2 6182   2.153   0.887   3.224  0.7323  0.9310 -0.0001
 2073TIP3    H1 6183   2.099   0.808   3.220  3.9375 -1.4561 -0.0004
 2073TIP3    H2 6184   2.105   0.946   3.282 -1.5436 -1.2138  0.4633
 2074TIP3   OH2 6185   0.522   3.816   4.812 -0.2302  0.0734  0.2170
 2074TIP3    H1 6186   0.525   3.911   4.799  0.4476  0.0546  0.2362
 2074TIP3    H2 6187   0.577   3.800   4.889  0.7585 -0.4704 -0.5795
 2075TIP3   OH2 6188   0.839   4.542   1.859  0.7452  0.2408  0.2595
 2075TIP3    H1 6189   0.763   4.501   1.816  1.8230 -0.3071 -1.1720
 2075TIP3    H2 6190   0.915   4.499   1.820  1.8320  1.3534  1.0861
 2076TIP3   OH2 6191   6.978   6.331   2.993 -0.2065  0.1355 -0.4120
 2076TIP3    H1 6192   6.916   6.326   2.921 -2.1495 -1.6428  1.2434
 2076TIP3    H2 6193   7.063   6.314   2.953 -1.0026  0.7459 -2.4722
 2077TIP3   OH2 6194   4.957   1.750   2.407 -0.8071  0.1108 -0.2471
 2077TIP3    H1 6195   4.888   1.792   2.356  0.5173  0.7264 -1.5812
 2077TIP3    H2 6196   4.982   1.673   2.355  1.4597  1.4519 -1.2919
 2078TIP3   OH2 6197   0.083   1.613   2.597 -0.3088 -0.2505 -0.2594
 2078TIP3    H1 6198   0.067   1.706   2.582  1.4122  0.4289  1.5776
 2078TIP3    H2 6199   0.178   1.607   2.610 -0.2469 -2.4413 -1.3094
 2079TIP3   OH2 6200   2.599   2.763   1.891  0.5875  0.3036  0.4962
 2079TIP3    H1 6201   2.691   2.790   1.889  0.0274  2.6634  2.3182
 2079TIP3    H2 6202   2.598   2.683   1.943  1.5651  0.5757  0.9570
 2080TIP3   OH2 6203   1.963   0.337   1.616  0.1716 -1.0141 -0.2113
 2080TIP3    H1 6204   1.909   0.367   1.544 -0.4417  0.6185  0.8534
 2080TIP3    H2 6205   2.048   0.318   1.577 -0.3139 -0.7047 -1.4417
 2081TIP3   OH2 6206   3.759   0.926   0.284 -0.0571 -0.5874  0.2896
 2081TIP3    H1 6207   3.669   0.913   0.257 -0.1114 -0.8248  0.5794
 2081TIP3    H2 6208   3.795   0.838   0.295  0.4376 -0.4979 -0.5522
 2082TIP3   OH2 6209   3.534   2.171   3.050 -0.2138  0.1561 -0.3255
 2082TIP3    H1 6210   3.577   2.187   3.134 -1.1222  0.9914 -0.0045
 2082TIP3    H2 6211   3.448   2.212   3.058  0.4085  2.0220 -2.3587
 2083TIP3   OH2 6212   5.364   0.078   5.476 -0.0957  0.5941  0.2023
 2083TIP3    H1 6213   5.379  -0.011   5.445  0.3416  0.9371 -0.6056
 2083TIP3    H2 6214   5.365   0.132   5.396 -1.1780  1.2241  0.5814
 2084TIP3   OH2 6215   3.321   4.038   0.917  0.3277 -0.3377  0.2837
 2084TIP3    H1 6216   3.415   4.045   0.932  0.1627  1.8378  0.6825
 2084TIP3    H2 6217   3.281   4.080   0.994 -0.8464  1.1593 -1.0578
 2085TIP3   OH2 6218   6.328   6.135   1.843 -0.0033  0.2640 -0.5226
 2085TIP3    H1 6219   6.380   6.122   1.764 -0.0996  4.4845 -1.5091
 2085TIP3    H2 6220   6.238   6.139   1.813 -0.2413 -0.1086  0.1192
 2086TIP3   OH2 6221   6.736   4.546   2.559  0.3345  0.1476  0.0026
 2086TIP3    H1 6222   6.731   4.633   2.521  0.9518  1.0302  1.8210
 2086TIP3    H2 6223   6.645   4.521   2.575  0.1268  0.1956 -1.0316
 2087TIP3   OH2 6224   3.706   2.227   0.525  0.0085 -0.0306  0.6379
 2087TIP3    H1 6225   3.640   2.251   0.590  0.4428 -0.5929  1.3079
 2087TIP3    H2 6226   3.674   2.145   0.486 -0.5905  0.6646 -0.3622
 2088TIP3   OH2 6227   3.479   6.342   2.722  0.0475  0.2297 -0.1059
 2088TIP3    H1 6228   3.532   6.387   2.789 -1.0107 -0.3732  1.1900
 2088TIP3    H2 6229   3.389   6.369   2.741 -0.5740 -2.0044  0.3989
 2089TIP3   OH2 6230   5.539   0.973   0.774 -0.3454 -0.0015 -0.0619
 2089TIP3    H1 6231   5.532   0.879   0.757  0.0088 -0.2198  0.9141
 2089TIP3    H2 6232   5.607   0.980   0.842 -1.7225  0.7783  1.2886
 2090TIP3   OH2 6233   7.193   5.332   4.431 -0.0084  0.0291  0.1411
 2090TIP3    H1 6234   7.104   5.353   4.402 -0.8643 -3.4783 -0.2523
 2090TIP3    H2 6235   7.242   5.413   4.417 -2.6732  1.5323 -1.5104
 2091TIP3   OH2 6236   5.108   3.778   2.950  0.1019  0.0859 -0.1520
 2091TIP3    H1 6237   5.061   3.744   3.027  0.7242 -1.0021 -0.2346
 2091TIP3    H2 6238   5.172   3.840   2.987 -0.3131  0.3748  0.0998
 2092TIP3   OH2 6239   0.426   6.040   2.118 -0.2050  0.1253 -0.0100
 2092TIP3    H1 6240   0.515   6.027   2.085 -0.1607  0.5174 -0.0462
 2092TIP3    H2 6241   0.388   6.106   2.061 -0.1869  0.6752  0.6074
 2093TIP3   OH2 6242   0.630   1.416   4.156 -0.4685  0.7272 -0.1789
 2093TIP3    H1 6243   0.587   1.372   4.083 -0.4889  0.1056  0.1964
 2093TIP3    H2 6244   0.697   1.471   4.115  0.3751 -0.5704 -0.6141
 2094TIP3   OH2 6245   4.830   5.936   3.806 -0.0492 -0.5899 -0.3383
 2094TIP3    H1 6246   4.786   5.929   3.891 -0.1771 -1.2656 -0.4595
 2094TIP3    H2 6247   4.890   6.010   3.817 -0.1141 -0.6253  0.3153
 2095TIP3   OH2 6248   4.496   5.582   2.404  0.0345  0.4265 -0.3566
 2095TIP3    H1 6249   4.583   5.614   2.427  0.3228  1.3424 -2.4522
 2095TIP3    H2 6250   4.464   5.539   2.483  1.6683  1.5993  1.0078
 2096TIP3   OH2 6251   0.514   1.176   4.020  0.2940 -0.0906 -0.2177
 2096TIP3    H1 6252   0.507   1.248   3.958 -0.6537  2.2914  2.4708
 2096TIP3    H2 6253   0.424   1.162   4.051  0.5544 -2.0715 -0.1868
 2097TIP3   OH2 6254   0.454   2.954   4.264 -0.0020 -0.2137  0.0562
 2097TIP3    H1 6255   0.475   3.033   4.314  2.7057 -1.3288  0.8829
 2097TIP3    H2 6256   0.450   2.983   4.173  2.5489  0.7159  0.1464
 2098TIP3   OH2 6257   5.295   3.899   3.076  0.0855 -0.4062  0.0819
 2098TIP3    H1 6258   5.266   3.908   3.167  1.2066  0.4926  0.3720
 2098TIP3    H2 6259   5.366   3.963   3.067 -2.2820  2.1774 -2.4319
 2099TIP3   OH2 6260   1.621   2.904   1.765  0.1364 -0.0981  0.4397
 2099TIP3    H1 6261   1.597   2.837   1.701  0.2891 -0.2749  0.5647
 2099TIP3    H2 6262   1.716   2.897   1.773 -0.0125 -1.1557  1.8341
 2100TIP3   OH2 6263   6.962   2.317   2.524  0.0214 -0.1217  0.7600
 2100TIP3    H1 6264   6.977   2.398   2.476  0.8151 -0.4982  0.3587
 2100TIP3    H2 6265   6.868   2.317   2.542 -0.4197 -0.2092 -1.2571
 2101TIP3   OH2 6266   6.427   0.770   3.192  0.3848 -0.2977  0.1755
 2101TIP3    H1 6267   6.506   0.721   3.168  0.7999  1.0407 -1.3984
 2101TIP3    H2 6268   6.359   0.703   3.201  0.8691 -1.2085 -2.1241
 2102TIP3   OH2 6269   3.128   4.731   5.536 -0.2880  0.5524 -0.6239
 2102TIP3    H1 6270   3.086   4.804   5.584 -1.7623 -0.4446 -0.3174
 2102TIP3    H2 6271   3.055   4.684   5.497  0.5729 -1.1256 -0.3040
 2103TIP3   OH2 6272   0.612   6.209   2.385 -0.8689  0.1690  0.8994
 2103TIP3    H1 6273   0.675   6.280   2.396 -2.8234  2.0808  0.4417
 2103TIP3    H2 6274   0.534   6.238   2.433 -1.3220 -2.2911  1.8044
 2104TIP3   OH2 6275   0.087   4.205   1.016  0.1198  1.0914 -0.4239
 2104TIP3    H1 6276   0.135   4.195   1.098 -0.7953 -0.6600 -0.0486
 2104TIP3    H2 6277   0.001   4.237   1.042 -0.7882 -1.1330 -0.4305
 2105TIP3   OH2 6278   0.359   1.649   2.590  0.3408  0.1332  0.1545
 2105TIP3    H1 6279   0.328   1.708   2.521 -0.2521  0.0166  0.3157
 2105TIP3    H2 6280   0.412   1.706   2.647 -0.8825  0.7141  0.7538
 2106TIP3   OH2 6281   5.633   2.613   3.108  0.1156 -0.0501  0.1706
 2106TIP3    H1 6282   5.579   2.584   3.034 -0.7194  0.4449  0.5725
 2106TIP3    H2 6283   5.592   2.695   3.137 -1.0952 -1.4693  2.7562
 2107TIP3   OH2 6284   3.251   4.008   5.277 -0.6769  0.1259  0.3281
 2107TIP3    H1 6285   3.337   4.039   5.249 -0.7242 -1.0713 -1.2950
 2107TIP3    H2 6286   3.268   3.957   5.355  0.1192 -0.1993 -0.0477
 2108TIP3   OH2 6287   6.490   4.710   2.397 -0.0790 -0.4875 -0.4229
 2108TIP3    H1 6288   6.413   4.687   2.344  0.6099 -1.7922 -0.8873
 2108TIP3    H2 6289   6.502   4.635   2.455  0.2225  0.1811  0.3925
 2109TIP3   OH2 6290   3.545   1.069   0.968 -0.4067  0.0396  0.0073
 2109TIP3    H1 6291   3.618   1.021   0.927 -0.1006  1.4880 -1.2355
 2109TIP3    H2 6292   3.587   1.122   1.035 -0.5380 -0.2377  0.3136
 2110TIP3   OH2 6293   1.949   2.547   4.412 -0.3559  0.4919  0.2864
 2110TIP3    H1 6294   1.949   2.521   4.320 -0.2983 -0.3772  0.5245
 2110TIP3    H2 6295   2.040   2.570   4.430 -0.6008  1.9865 -0.2191
 2111TIP3   OH2 6296   2.419   4.501   0.721 -0.0247  0.1780  0.5182
 2111TIP3    H1 6297   2.394   4.550   0.643  0.6665 -1.4850 -0.8049
 2111TIP3    H2 6298   2.342   4.449   0.743  0.0333  0.0800  0.4893
 2112TIP3   OH2 6299   2.845   2.742   5.160  0.2520  0.0995 -0.1010
 2112TIP3    H1 6300   2.897   2.752   5.080  1.5625  1.7015  0.9018
 2112TIP3    H2 6301   2.766   2.794   5.143  0.3819  0.1849 -0.4591
 2113TIP3   OH2 6302   0.087   5.945   2.398 -0.2044  0.4418  0.1734
 2113TIP3    H1 6303   0.055   6.031   2.369  0.7742  1.1928  1.1963
 2113TIP3    H2 6304   0.177   5.962   2.426  0.2163 -1.0643 -0.1856
 2114TIP3   OH2 6305   7.172   6.202   4.626 -0.3650  0.5231 -0.3486
 2114TIP3    H1 6306   7.176   6.168   4.716  1.3416 -0.5686 -0.7905
 2114TIP3    H2 6307   7.198   6.294   4.634  0.8357  0.1604  0.1766
 2115TIP3   OH2 6308   5.412   4.634   4.511 -0.3744 -0.3193 -0.0781
 2115TIP3    H1 6309   5.370   4.566   4.564 -1.6766 -0.7056 -1.5324
 2115TIP3    H2 6310   5.421   4.594   4.424  2.2557  0.0722 -0.0827
 2116TIP3   OH2 6311   4.732   1.469   1.734 -0.1629 -0.2980 -0.3862
 2116TIP3    H1 6312   4.814   1.425   1.716 -0.1787 -0.5111  0.0398
 2116TIP3    H2 6313   4.752   1.562   1.726  0.0792 -0.3560 -0.4450
 2117TIP3   OH2 6314   5.775   1.702   4.675 -0.0107  0.2155 -0.1073
 2117TIP3    H1 6315   5.702   1.644   4.696  1.0299 -0.6963  1.1710
 2117TIP3    H2 6316   5.834   1.648   4.623  0.1900  0.6505 -0.3318
 2118TIP3   OH2 6317   4.458   6.435   5.352  0.5200 -0.1943 -0.4489
 2118TIP3    H1 6318   4.461   6.483   5.435  3.4058  0.2499 -0.6789
 2118TIP3    H2 6319   4.515   6.359   5.367  0.8122 -0.2891 -1.8925
 2119TIP3   OH2 6320   2.082   2.921   3.638  0.4615  0.3353  0.3434
 2119TIP3    H1 6321   2.074   2.883   3.725 -1.6065  0.9364  0.4731
 2119TIP3    H2 6322   2.002   2.894   3.592  1.6256 -0.2093 -1.4938
 2120TIP3   OH2 6323   5.368   3.570   0.299  0.3376 -0.7939  0.0915
 2120TIP3    H1 6324   5.422   3.566   0.220  0.2380 -2.9525  0.0584
 2120TIP3    H2 6325   5.359   3.663   0.318  0.5871 -0.2241 -2.2873
 2121TIP3   OH2 6326   0.105   5.194   1.112 -0.1730  0.3907 -0.5350
 2121TIP3    H1 6327   0.075   5.283   1.134  0.2318  0.2394  0.6823
 2121TIP3    H2 6328   0.167   5.172   1.181  0.4676 -0.4748 -1.3647
 2122TIP3   OH2 6329   0.958   4.365   2.754  0.6632  0.3159  0.0513
 2122TIP3    H1 6330   0.869   4.353   2.721  1.1383 -2.0720 -0.5347
 2122TIP3    H2 6331   0.992   4.439   2.704 -0.5238  0.3564 -0.7352
 2123TIP3   OH2 6332   1.372   5.150   1.070 -0.4100  0.1039 -0.0883
 2123TIP3    H1 6333   1.433   5.155   0.997 -0.8095 -0.5726 -0.4699
 2123TIP3    H2 6334   1.297   5.203   1.043 -0.2307  0.4945  0.1613
 2124TIP3   OH2 6335   0.306   4.248   4.122 -0.2647  0.0813  0.3941
 2124TIP3    H1 6336   0.301   4.153   4.135 -1.6098  0.0441 -0.2637
 2124TIP3    H2 6337   0.238   4.267   4.057 -0.2770  1.5563  0.8142
 2125TIP3   OH2 6338   6.970   0.744   3.757 -0.2374 -0.1937  0.0991
 2125TIP3    H1 6339   7.021   0.733   3.837  1.1802 -0.2714 -0.7700
 2125TIP3    H2 6340   7.020   0.808   3.705 -0.2901 -1.2806 -1.3531
 2126TIP3   OH2 6341   0.901   1.730   1.789  0.2056  0.0559 -0.2815
 2126TIP3    H1 6342   0.827   1.669   1.783  0.1589 -0.1491  1.6453
 2126TIP3    H2 6343   0.942   1.709   1.873  1.5686  1.1643 -0.6373
 2127TIP3   OH2 6344   3.370   1.504   2.382  0.5284  0.5834 -0.0713
 2127TIP3    H1 6345   3.347   1.592   2.351  1.2197  1.5540  2.0171
 2127TIP3    H2 6346   3.298   1.480   2.440  0.7257  0.0731 -0.0358
 2128TIP3   OH2 6347   0.077   4.479   0.358 -0.1069  0.0485  0.2804
 2128TIP3    H1 6348   0.108   4.548   0.299  0.7485 -1.3530 -0.9606
 2128TIP3    H2 6349   0.154   4.454   0.409 -0.6536  0.6832  1.4495
 2129TIP3   OH2 6350   4.512   5.506   1.201  0.4718  0.6311  0.0637
 2129TIP3    H1 6351   4.576   5.574   1.179  0.6773  0.0799 -1.0999
 2129TIP3    H2 6352   4.427   5.548   1.189  0.6023  0.8481 -0.1050
 2130TIP3   OH2 6353   3.496   2.021   0.432 -0.5474  0.1952 -0.5204
 2130TIP3    H1 6354   3.410   2.039   0.469 -1.6667 -1.5224 -2.0716
 2130TIP3    H2 6355   3.516   1.932   0.460  1.1785  0.8748  0.5529
 2131TIP3   OH2 6356   0.269   4.369   2.162  0.1353 -0.1505  0.6179
 2131TIP3    H1 6357   0.338   4.427   2.129  0.2797 -0.0203  1.1352
 2131TIP3    H2 6358   0.316   4.292   2.195  0.0853  0.1780  1.4781
 2132TIP3   OH2 6359   0.525   3.318   1.715  0.4081  0.0435 -0.3840
 2132TIP3    H1 6360   0.565   3.246   1.763 -0.9441 -0.6367 -0.2362
 2132TIP3    H2 6361   0.440   3.332   1.758 -0.1809  0.4123 -1.6163
 2133TIP3   OH2 6362   3.791   2.055   3.982 -0.3602 -0.0925  0.2329
 2133TIP3    H1 6363   3.805   2.013   4.067 -1.1349 -0.3137  0.2572
 2133TIP3    H2 6364   3.868   2.111   3.971  1.3365 -2.3876 -0.3546
 2134TIP3   OH2 6365   2.553   5.938   2.079 -0.0984 -0.1425 -0.0511
 2134TIP3    H1 6366   2.567   5.936   2.174 -0.9515  1.0449  0.1295
 2134TIP3    H2 6367   2.526   6.028   2.061 -1.0074 -0.6308 -1.2669
 2135TIP3   OH2 6368   6.761   2.723   2.443 -0.0532 -0.0229  0.0401
 2135TIP3    H1 6369   6.720   2.783   2.505  2.1002  1.2504  0.3508
 2135TIP3    H2 6370   6.720   2.743   2.359 -0.2373  1.0208  0.3627
 2136TIP3   OH2 6371   4.609   6.604   5.196 -0.3317 -0.2458  0.6980
 2136TIP3    H1 6372   4.587   6.552   5.273  0.8795 -2.6370 -0.4590
 2136TIP3    H2 6373   4.585   6.549   5.122  3.0715 -0.2292 -0.6211
 2137TIP3   OH2 6374   1.869   0.681   0.430  0.6392  0.2209 -0.6765
 2137TIP3    H1 6375   1.885   0.621   0.356  0.7399  0.5368 -0.9146
 2137TIP3    H2 6376   1.855   0.623   0.505 -0.1711 -0.1167 -1.0803
 2138TIP3   OH2 6377   1.002   1.369   4.484  0.1223 -0.1137  0.3707
 2138TIP3    H1 6378   1.063   1.442   4.493  2.5108 -1.8314 -0.8037
 2138TIP3    H2 6379   0.963   1.382   4.397  0.2143 -0.0009  0.3456
 2139TIP3   OH2 6380   4.785   3.575   5.134  0.0847  0.0145 -0.5801
 2139TIP3    H1 6381   4.716   3.588   5.198  0.2713 -3.8077  0.6390
 2139TIP3    H2 6382   4.865   3.606   5.177 -0.1675 -0.2143  0.0673
 2140TIP3   OH2 6383   1.544   1.213   2.961  0.0265  1.1263 -0.3124
 2140TIP3    H1 6384   1.547   1.144   2.895 -0.2302  1.2156 -0.4193
 2140TIP3    H2 6385   1.521   1.167   3.042 -3.3658  1.4364 -0.9419
 2141TIP3   OH2 6386   4.520   1.048   1.974 -0.2283 -0.3920  0.1944
 2141TIP3    H1 6387   4.537   1.096   2.055  0.5438  1.3246 -0.9280
 2141TIP3    H2 6388   4.444   1.092   1.936  1.4095  1.0445 -1.6018
 2142TIP3   OH2 6389   3.223   3.908   4.922  0.1022 -0.4659  0.4089
 2142TIP3    H1 6390   3.196   3.964   4.994 -0.2595 -0.4758  0.2819
 2142TIP3    H2 6391   3.142   3.867   4.891  0.1557  0.0290 -0.4239
 2143TIP3   OH2 6392   2.216   1.898   3.424  0.6550 -0.1529 -0.2613
 2143TIP3    H1 6393   2.123   1.889   3.442  0.9717 -2.1864  0.6081
 2143TIP3    H2 6394   2.231   1.992   3.420 -1.0722  0.2581  1.5272
 2144TIP3   OH2 6395   4.811   0.036   1.020 -0.1135  0.3296  0.5193
 2144TIP3    H1 6396   4.829  -0.051   1.054 -0.5359  1.0385  2.7562
 2144TIP3    H2 6397   4.886   0.089   1.048 -0.3843  0.9180  0.1665
 2145TIP3   OH2 6398   5.274   6.190   1.864  0.6495  0.0846  0.2963
 2145TIP3    H1 6399   5.209   6.121   1.850 -0.2464  1.1351 -0.9893
 2145TIP3    H2 6400   5.222   6.269   1.882  1.5770  0.8379 -0.2347
 2146TIP3   OH2 6401   6.397   2.479   4.378 -0.0608 -0.0754 -0.4919
 2146TIP3    H1 6402   6.447   2.543   4.428  0.6987 -0.0552 -1.2576
 2146TIP3    H2 6403   6.350   2.530   4.313 -0.0136 -0.2288 -0.6470
 2147TIP3   OH2 6404   6.743   4.093   3.717  0.5436 -0.2097 -0.2925
 2147TIP3    H1 6405   6.787   4.087   3.802 -0.9367 -2.0652  0.4120
 2147TIP3    H2 6406   6.706   4.006   3.703 -0.4963  0.4830 -2.1697
 2148TIP3   OH2 6407   5.377   0.815   4.035  0.2070  0.3406 -1.0913
 2148TIP3    H1 6408   5.351   0.907   4.026 -1.9534 -0.1414 -0.4088
 2148TIP3    H2 6409   5.405   0.790   3.947 -0.1843  1.3683 -1.5273
 2149TIP3   OH2 6410   2.411   1.181   4.682 -0.1295  0.1295 -0.3040
 2149TIP3    H1 6411   2.367   1.111   4.731  0.5818  1.1188  1.8905
 2149TIP3    H2 6412   2.485   1.138   4.639 -1.5949 -1.0323 -1.7588
 2150TIP3   OH2 6413   0.117   1.019   4.384  0.2232 -0.3254 -0.2413
 2150TIP3    H1 6414   0.097   0.986   4.472  2.0814  0.8258  0.6739
 2150TIP3    H2 6415   0.034   1.012   4.337 -0.9402 -0.6331  1.7159
 2151TIP3   OH2 6416   6.633   6.429   5.177  0.0741 -0.3974 -0.2892
 2151TIP3    H1 6417   6.614   6.478   5.097  1.3906 -1.5556 -1.3609
 2151TIP3    H2 6418   6.671   6.493   5.237 -0.5525  0.3936 -0.7255
 2152TIP3   OH2 6419   3.285   1.318   4.514  0.1230  0.1342  0.1119
 2152TIP3    H1 6420   3.278   1.302   4.608 -1.3991 -0.8858 -0.1376
 2152TIP3    H2 6421   3.214   1.266   4.476  1.3422 -0.2678 -1.6997
 2153TIP3   OH2 6422   5.924   0.820   2.139 -0.5338  0.3398  0.5352
 2153TIP3    H1 6423   5.958   0.811   2.228 -0.5562  1.0829  0.6315
 2153TIP3    H2 6424   5.830   0.803   2.147 -0.4119 -0.3378  0.5187
 2154TIP3   OH2 6425   6.854   3.498   5.393 -0.1308  0.0864 -0.3333
 2154TIP3    H1 6426   6.799   3.529   5.465  0.0837 -1.3704  0.5021
 2154TIP3    H2 6427   6.793   3.452   5.335 -0.8212  3.4844 -2.6072
 2155TIP3   OH2 6428   3.633   6.096   0.352  0.0460 -0.6111 -0.1565
 2155TIP3    H1 6429   3.603   6.128   0.436  0.0689  2.9412 -1.3460
 2155TIP3    H2 6430   3.554   6.094   0.297  0.6906  2.0763 -1.3571
 2156TIP3   OH2 6431   1.930   5.310   3.930  0.0201 -0.0269 -0.4329
 2156TIP3    H1 6432   1.835   5.316   3.923 -0.1037 -1.6902 -0.5266
 2156TIP3    H2 6433   1.946   5.265   4.013  0.6318 -1.3467 -1.2238
 2157TIP3   OH2 6434   3.792   3.306   1.301 -0.1368  0.3668  0.0672
 2157TIP3    H1 6435   3.854   3.234   1.315 -2.0677 -1.4115 -0.0375
 2157TIP3    H2 6436   3.798   3.358   1.382  1.8253  0.5956 -0.1572
 2158TIP3   OH2 6437   3.813   2.005   2.061  0.4311  0.2126 -0.1575
 2158TIP3    H1 6438   3.734   2.017   2.009  0.9446  1.9774 -0.5952
 2158TIP3    H2 6439   3.861   1.936   2.016  1.0244  1.9030 -2.3192
 2159TIP3   OH2 6440   3.562   4.532   3.711 -0.4365  0.7667 -0.2752
 2159TIP3    H1 6441   3.472   4.503   3.694 -0.2067  1.8005 -4.2017
 2159TIP3    H2 6442   3.551   4.608   3.769 -1.9997  0.2866  0.1224
 2160TIP3   OH2 6443   1.376   3.674   2.261  0.0484 -0.7840 -0.1749
 2160TIP3    H1 6444   1.340   3.630   2.338 -1.3751  0.5583 -0.0328
 2160TIP3    H2 6445   1.301   3.718   2.221  1.1899  0.5142 -0.9750
 2161TIP3   OH2 6446   2.079   2.745   2.799  0.1660  0.2436 -0.3722
 2161TIP3    H1 6447   2.037   2.823   2.835  1.8144  1.1557 -0.3102
 2161TIP3    H2 6448   2.138   2.715   2.868  0.3542 -0.4151 -0.8090
 2162TIP3   OH2 6449   4.830   0.577   0.236 -0.3971  0.0400 -0.3337
 2162TIP3    H1 6450   4.814   0.670   0.225  1.0741  0.6710  2.1212
 2162TIP3    H2 6451   4.871   0.550   0.153  2.0082  2.3132 -0.0140
 2163TIP3   OH2 6452   2.207   5.929   5.641 -0.3729 -0.1668 -0.0294
 2163TIP3    H1 6453   2.299   5.917   5.668 -0.4595 -0.7417  0.0211
 2163TIP3    H2 6454   2.184   6.016   5.674  0.2615  0.1337 -0.3512
 2164TIP3   OH2 6455   4.547   1.950   4.170 -0.3860 -0.1300  0.2941
 2164TIP3    H1 6456   4.534   2.035   4.129  1.4581 -0.2257 -0.5920
 2164TIP3    H2 6457   4.599   1.968   4.248 -0.0110 -0.4218  0.1165
 2165TIP3   OH2 6458   6.428   0.564   0.735 -0.0311 -0.2259  0.1689
 2165TIP3    H1 6459   6.411   0.626   0.806  1.4390  1.4008 -0.8257
 2165TIP3    H2 6460   6.431   0.618   0.657  2.1541 -1.4248 -0.6382
 2166TIP3   OH2 6461   5.615   0.934   1.401  0.1058  0.2483  0.2340
 2166TIP3    H1 6462   5.520   0.945   1.391 -0.0408 -1.0592 -0.0353
 2166TIP3    H2 6463   5.642   1.009   1.453 -0.9145  1.1934 -0.5489
 2167TIP3   OH2 6464   4.890   5.061   4.132 -0.1025 -0.6248  0.1770
 2167TIP3    H1 6465   4.826   5.015   4.185  1.6829 -1.8320  1.4277
 2167TIP3    H2 6466   4.854   5.149   4.120 -3.3004 -2.0514 -1.6882
 2168TIP3   OH2 6467   6.171   5.896   4.105  0.0656  0.1762  0.1743
 2168TIP3    H1 6468   6.233   5.962   4.137 -0.5246  0.8479 -0.0544
 2168TIP3    H2 6469   6.220   5.813   4.111  0.7385  0.5960  0.6672
 2169TIP3   OH2 6470   5.625   5.183   1.362  0.0263 -0.1240  0.3130
 2169TIP3    H1 6471   5.584   5.098   1.345 -1.1345  0.8496 -2.3499
 2169TIP3    H2 6472   5.554   5.237   1.396  0.7406 -0.1262  1.9146
 2170TIP3   OH2 6473   1.842   0.845   5.902 -0.3413 -0.1620 -0.0249
 2170TIP3    H1 6474   1.757   0.882   5.927 -1.1119 -1.6003 -0.3481
 2170TIP3    H2 6475   1.848   0.863   5.808 -0.3370 -0.1424 -0.0210
 2171TIP3   OH2 6476   0.241   0.705   5.365  0.4406  0.5294 -0.1719
 2171TIP3    H1 6477   0.222   0.654   5.444 -0.1020 -0.6819 -1.0478
 2171TIP3    H2 6478   0.330   0.737   5.378  0.1036  0.9498  1.2390
 2172TIP3   OH2 6479   1.965   5.707   0.969 -0.6382  0.2299 -0.1073
 2172TIP3    H1 6480   2.057   5.688   0.989  0.4793  4.3592 -0.5414
 2172TIP3    H2 6481   1.923   5.717   1.054  0.0043  1.0990  0.1128
 2173TIP3   OH2 6482   1.919   5.090   4.169  0.3287 -0.5083 -0.0116
 2173TIP3    H1 6483   1.995   5.040   4.138 -0.8036 -1.1266 -1.9441
 2173TIP3    H2 6484   1.851   5.024   4.183 -0.0910  0.1180  0.9785
 2174TIP3   OH2 6485   5.569   3.384   4.328 -0.0857  0.2436  0.0732
 2174TIP3    H1 6486   5.597   3.440   4.256 -0.1796  0.0874 -0.0863
 2174TIP3    H2 6487   5.585   3.436   4.407 -1.2682  0.9722 -0.1326
 2175TIP3   OH2 6488   6.280   2.488   4.898  0.2826 -0.2936  0.3654
 2175TIP3    H1 6489   6.349   2.522   4.841  1.4820 -0.5472  1.5901
 2175TIP3    H2 6490   6.254   2.405   4.857  0.2541  0.1002 -0.4383
 2176TIP3   OH2 6491   0.677   5.193   0.046  0.0281  0.5428 -0.1434
 2176TIP3    H1 6492   0.758   5.226   0.086 -0.1746 -0.4890  1.2169
 2176TIP3    H2 6493   0.609   5.252   0.077 -0.4231 -1.2511  2.7462
 2177TIP3   OH2 6494   3.252   6.379   1.205 -0.2697  0.0357 -0.0005
 2177TIP3    H1 6495   3.305   6.459   1.207 -0.3939  0.1466 -0.8228
 2177TIP3    H2 6496   3.317   6.308   1.203 -0.1434  0.1531 -0.3342
 2178TIP3   OH2 6497   4.528   5.708   4.843 -0.1686  0.1051  0.0171
 2178TIP3    H1 6498   4.583   5.728   4.767  1.1861 -1.9049  0.3938
 2178TIP3    H2 6499   4.578   5.741   4.918  0.3494 -1.3037  0.3205
 2179TIP3   OH2 6500   2.477   0.542   5.513 -0.1985 -0.1135  0.1752
 2179TIP3    H1 6501   2.384   0.563   5.515  0.0905  1.7930 -2.0869
 2179TIP3    H2 6502   2.493   0.497   5.596 -3.2833 -1.3332  0.2367
 2180TIP3   OH2 6503   5.324   2.221   4.323 -0.2595 -0.1891  0.4500
 2180TIP3    H1 6504   5.371   2.240   4.404 -0.7993  0.9075  0.5367
 2180TIP3    H2 6505   5.379   2.257   4.254  0.1173 -0.9685  0.3360
 2181TIP3   OH2 6506   3.960   4.175   5.172 -0.5487 -0.1060 -0.1104
 2181TIP3    H1 6507   3.991   4.112   5.236  0.3037  0.7847  0.3750
 2181TIP3    H2 6508   3.873   4.200   5.204 -0.2493  0.1165  0.5381
 2182TIP3   OH2 6509   4.322   4.785   5.496 -0.9113  0.1045 -0.2150
 2182TIP3    H1 6510   4.411   4.751   5.489  0.1797  2.7213 -0.5871
 2182TIP3    H2 6511   4.308   4.831   5.413 -1.3889  2.2769  0.9871
 2183TIP3   OH2 6512   5.134   1.935   2.496  0.5038 -0.2430  0.4101
 2183TIP3    H1 6513   5.081   1.858   2.477  0.4228 -0.3406  1.0121
 2183TIP3    H2 6514   5.092   2.006   2.448  1.3415 -0.8152 -1.2395
 2184TIP3   OH2 6515   5.445   1.441   3.742  0.3089 -0.3148  0.5429
 2184TIP3    H1 6516   5.449   1.366   3.683  1.3227 -1.3290  1.8147
 2184TIP3    H2 6517   5.480   1.408   3.825  0.1865  1.4028  1.3324
 2185TIP3   OH2 6518   2.942   2.188   0.444  0.2050 -0.1070 -0.2476
 2185TIP3    H1 6519   2.975   2.214   0.358  0.3235 -1.0057 -0.4761
 2185TIP3    H2 6520   2.875   2.254   0.465  2.4472  2.0771  0.4580
 2186TIP3   OH2 6521   3.118   5.272   0.988 -0.7678  0.4247  0.4559
 2186TIP3    H1 6522   3.160   5.191   1.018  0.8913  2.0923  3.0537
 2186TIP3    H2 6523   3.123   5.267   0.893 -0.4472 -2.3479  0.5145
 2187TIP3   OH2 6524   3.523   5.862   5.279  0.3286  0.0229  0.0478
 2187TIP3    H1 6525   3.618   5.859   5.295  0.2221 -0.2551  0.6754
 2187TIP3    H2 6526   3.487   5.902   5.358 -0.1108 -0.2362 -0.0207
 2188TIP3   OH2 6527   1.203   2.543   0.263 -0.1414  0.4170  0.1110
 2188TIP3    H1 6528   1.121   2.515   0.222 -0.2041 -0.0632  0.5563
 2188TIP3    H2 6529   1.182   2.550   0.356  0.2028  0.7475  0.1656
 2189TIP3   OH2 6530   5.974   4.277   2.721  0.3223  0.0803  0.4809
 2189TIP3    H1 6531   5.974   4.248   2.630 -0.2181 -0.1547  0.5511
 2189TIP3    H2 6532   5.930   4.363   2.718 -0.4171 -0.2820  0.6189
 2190TIP3   OH2 6533   1.713   3.486   1.517 -0.2979 -0.0130  0.5475
 2190TIP3    H1 6534   1.773   3.458   1.448  1.2992  1.6618  1.1725
 2190TIP3    H2 6535   1.647   3.417   1.520 -0.8090  0.1097 -3.0373
 2191TIP3   OH2 6536   6.711   3.025   3.786  0.2914 -0.2555 -0.1546
 2191TIP3    H1 6537   6.769   3.020   3.862  1.4990 -1.3600 -1.0986
 2191TIP3    H2 6538   6.768   3.056   3.715 -0.2580 -1.3063 -1.0850
 2192TIP3   OH2 6539   3.015   2.766   3.537  0.3925  0.2745 -0.0358
 2192TIP3    H1 6540   2.996   2.686   3.586  2.7249 -0.0480  0.4601
 2192TIP3    H2 6541   3.038   2.735   3.449 -2.6928  0.7749 -1.1548
 2193TIP3   OH2 6542   0.991   0.502   3.555  0.0683  0.1916 -0.2294
 2193TIP3    H1 6543   1.011   0.430   3.495 -0.5907  0.1504 -0.4115
 2193TIP3    H2 6544   1.033   0.579   3.515  1.2111 -0.1741  0.2330
 2194TIP3   OH2 6545   6.234   6.821   3.016 -0.4341 -0.3536 -0.3576
 2194TIP3    H1 6546   6.201   6.731   3.010 -2.4701  0.1676  1.5264
 2194TIP3    H2 6547   6.266   6.829   3.106 -0.4767  0.8672 -0.4338
 2195TIP3   OH2 6548   3.204   4.880   1.198  0.1806  0.1210  0.0905
 2195TIP3    H1 6549   3.187   4.945   1.130  0.2564  2.0991  1.8725
 2195TIP3    H2 6550   3.237   4.804   1.151 -0.0457  1.3069 -2.0989
 2196TIP3   OH2 6551   6.797   4.019   2.179 -0.3776 -1.0406 -0.8211
 2196TIP3    H1 6552   6.778   4.086   2.113 -1.5893 -2.0417 -1.5096
 2196TIP3    H2 6553   6.799   3.937   2.131 -0.1236 -1.6587  0.2120
 2197TIP3   OH2 6554   4.765   5.086   5.500 -0.5866  0.0196 -0.0494
 2197TIP3    H1 6555   4.743   5.132   5.419  0.4128 -0.0758 -0.3869
 2197TIP3    H2 6556   4.816   5.149   5.551  0.1779 -0.4532 -0.2083
 2198TIP3   OH2 6557   5.581   4.487   3.173  0.2089  0.2262  0.0790
 2198TIP3    H1 6558   5.645   4.519   3.237 -2.1069  1.5390  1.8981
 2198TIP3    H2 6559   5.527   4.426   3.223 -2.7806  2.6156  0.0362
 2199TIP3   OH2 6560   0.211   5.094   4.212  0.0409 -0.2273  0.1762
 2199TIP3    H1 6561   0.214   5.145   4.131 -0.9751 -1.2695 -0.5458
 2199TIP3    H2 6562   0.166   5.013   4.188  0.9909 -1.1692  1.4603
 2200TIP3   OH2 6563   5.638   0.253   5.467 -0.4130  0.9688  0.0384
 2200TIP3    H1 6564   5.635   0.328   5.407 -1.2677 -0.0969 -1.3404
 2200TIP3    H2 6565   5.644   0.177   5.409  0.8988 -0.0295  1.4079
 2201TIP3   OH2 6566   6.384   1.643   3.019 -0.0337  0.0276 -0.3353
 2201TIP3    H1 6567   6.375   1.580   3.091  0.9152  0.8121  0.4936
 2201TIP3    H2 6568   6.380   1.590   2.940  0.3182 -1.0257  0.3334
 2202TIP3   OH2 6569   5.818   1.843   0.914 -0.3200  0.0014  0.1972
 2202TIP3    H1 6570   5.819   1.895   0.833 -0.0135  0.3536  0.4247
 2202TIP3    H2 6571   5.739   1.790   0.907 -0.6565  0.5209 -0.0265
 2203TIP3   OH2 6572   0.482   0.258   4.917 -0.1264  0.0074  0.1395
 2203TIP3    H1 6573   0.451   0.179   4.960  0.2985  1.0238  2.4621
 2203TIP3    H2 6574   0.403   0.311   4.906 -0.1276  0.0472  0.3394
 2204TIP3   OH2 6575   5.857   1.695   3.469 -0.2905 -0.0412  0.3477
 2204TIP3    H1 6576   5.889   1.722   3.555 -0.4333 -0.1814  0.4450
 2204TIP3    H2 6577   5.762   1.699   3.476 -0.3038 -0.1103  0.2137
 2205TIP3   OH2 6578   4.897   5.980   4.680 -0.2940 -0.0419  0.1663
 2205TIP3    H1 6579   4.817   5.945   4.720 -0.2291  0.7693  1.0700
 2205TIP3    H2 6580   4.868   6.061   4.637  0.4120  1.7621  2.8084
 2206TIP3   OH2 6581   1.419   4.367   3.599  0.0741  0.2266  0.1419
 2206TIP3    H1 6582   1.380   4.345   3.514 -1.5695  0.2548  0.8448
 2206TIP3    H2 6583   1.351   4.344   3.663  0.6725  1.6208  1.3312
 2207TIP3   OH2 6584   5.662   0.754   2.205 -0.3448 -0.0930 -0.4923
 2207TIP3    H1 6585   5.586   0.812   2.207 -0.7388 -0.6191  0.8225
 2207TIP3    H2 6586   5.644   0.687   2.272  0.6390 -1.0397 -1.1298
 2208TIP3   OH2 6587   2.632   2.049   5.727  0.3342 -0.0164 -0.5525
 2208TIP3    H1 6588   2.549   2.069   5.683  0.6987 -1.8300 -2.1906
 2208TIP3    H2 6589   2.660   2.133   5.764 -1.5826  0.9018 -1.0510
 2209TIP3   OH2 6590   4.579   3.021   4.507  0.5978  0.2718  0.3183
 2209TIP3    H1 6591   4.533   3.095   4.468 -0.1163 -0.0194  0.5695
 2209TIP3    H2 6592   4.577   3.039   4.601 -1.6972 -1.1624  0.6317
 2210TIP3   OH2 6593   6.647   1.658   4.249  0.1087  0.5839  0.4462
 2210TIP3    H1 6594   6.611   1.665   4.161 -2.1781 -0.7470  1.1774
 2210TIP3    H2 6595   6.728   1.709   4.246 -0.6005  1.7423 -2.0171
 2211TIP3   OH2 6596   0.968   0.458   2.637 -0.0648  0.4654 -0.0376
 2211TIP3    H1 6597   0.907   0.429   2.570  2.4958 -0.6608 -2.0351
 2211TIP3    H2 6598   0.963   0.554   2.634 -1.5753  0.4114 -0.2259
 2212TIP3   OH2 6599   4.156   0.410   3.910 -0.0897 -0.8479 -0.1083
 2212TIP3    H1 6600   4.230   0.402   3.850  0.4200 -1.4938  0.6046
 2212TIP3    H2 6601   4.091   0.460   3.860  1.7934  2.1589  0.1757
 2213TIP3   OH2 6602   0.700   6.155   1.881  0.0190 -0.3568  0.2790
 2213TIP3    H1 6603   0.749   6.099   1.821 -0.2549  0.6896 -0.9598
 2213TIP3    H2 6604   0.736   6.135   1.967  1.7113 -0.5796 -0.4357
 2214TIP3   OH2 6605   5.611   3.747   3.101  0.0605  0.4098  0.1162
 2214TIP3    H1 6606   5.667   3.670   3.094  1.1242  0.9252  1.9186
 2214TIP3    H2 6607   5.632   3.800   3.024  0.5360 -0.3559 -0.2866
 2215TIP3   OH2 6608   5.156   6.493   5.397 -0.1514  0.0340  0.1102
 2215TIP3    H1 6609   5.131   6.464   5.309  2.4436 -1.3801 -0.2545
 2215TIP3    H2 6610   5.158   6.413   5.449  1.3372  0.4079  0.6651
 2216TIP3   OH2 6611   6.071   0.402   1.448  0.7572  0.2204 -0.3736
 2216TIP3    H1 6612   6.118   0.365   1.523 -0.8970 -1.1563  0.0371
 2216TIP3    H2 6613   6.020   0.474   1.485  0.1341 -0.3017 -0.1833
 2217TIP3   OH2 6614   2.621   2.477   2.015 -0.3586 -0.0075  0.2925
 2217TIP3    H1 6615   2.626   2.437   2.102  0.8469 -0.7113 -0.0753
 2217TIP3    H2 6616   2.532   2.457   1.985 -0.5259 -0.4374  1.0434
 2218TIP3   OH2 6617   3.762   4.981   4.403  0.4503 -0.7721  0.3731
 2218TIP3    H1 6618   3.797   4.897   4.431  1.8461  0.4841  2.7407
 2218TIP3    H2 6619   3.816   5.046   4.449 -2.1713  1.3567  0.7020
 2219TIP3   OH2 6620   6.938   4.961   3.944  0.2933 -0.0465 -0.1278
 2219TIP3    H1 6621   6.893   4.896   3.889 -1.1952  1.6365 -1.0166
 2219TIP3    H2 6622   6.989   5.014   3.882  1.1548 -0.0922  0.5261
 2220TIP3   OH2 6623   5.201   3.433   2.842  1.4182  0.2010  0.4230
 2220TIP3    H1 6624   5.271   3.451   2.905  0.7998  2.0456  0.6528
 2220TIP3    H2 6625   5.157   3.355   2.877  1.3209  0.9543  2.1181
 2221TIP3   OH2 6626   2.991   1.822   5.659 -0.2135  0.1054  0.0882
 2221TIP3    H1 6627   2.953   1.871   5.732 -0.6380 -0.2083  0.0829
 2221TIP3    H2 6628   3.035   1.888   5.606  0.1749  0.3265  0.6725
 2222TIP3   OH2 6629   3.566   0.260   2.922 -0.0680 -0.2471  0.3262
 2222TIP3    H1 6630   3.579   0.165   2.916  1.1688 -0.0551 -0.5358
 2222TIP3    H2 6631   3.558   0.277   3.016 -0.3321 -1.2039  0.4865
 2223TIP3   OH2 6632   1.799   4.172   2.819 -0.3017  0.1793  0.2073
 2223TIP3    H1 6633   1.797   4.137   2.907  0.2722  1.8407  0.9309
 2223TIP3    H2 6634   1.893   4.175   2.796 -0.3452  0.9516  0.0769
 2224TIP3   OH2 6635   4.828   4.340   1.137 -0.7187 -0.2440 -0.3996
 2224TIP3    H1 6636   4.752   4.283   1.141 -0.4105 -0.6345  0.0332
 2224TIP3    H2 6637   4.850   4.345   1.044 -1.8715  0.6875 -0.6433
 2225TIP3   OH2 6638   4.447   1.846   2.081  0.0520 -0.4390  0.8298
 2225TIP3    H1 6639   4.482   1.830   1.993 -2.2188  0.6408 -0.3611
 2225TIP3    H2 6640   4.385   1.775   2.095 -0.7641  0.2695  0.8682
 2226TIP3   OH2 6641   3.869   0.798   1.634 -0.2310  0.5798  0.0381
 2226TIP3    H1 6642   3.857   0.880   1.680  1.9813  0.4517  0.9941
 2226TIP3    H2 6643   3.927   0.747   1.691 -0.0797 -0.9079 -1.3655
 2227TIP3   OH2 6644   5.534   3.873   2.227  0.4308 -0.2124 -0.0113
 2227TIP3    H1 6645   5.464   3.919   2.181 -0.6976 -1.1396  0.7099
 2227TIP3    H2 6646   5.573   3.816   2.160  0.4181  0.2259 -0.3928
 2228TIP3   OH2 6647   6.161   5.786   4.852  0.1648  0.1502  0.4517
 2228TIP3    H1 6648   6.214   5.837   4.913  0.0617  0.8851 -0.0542
 2228TIP3    H2 6649   6.188   5.818   4.766 -0.6321  0.0636  0.1700
 2229TIP3   OH2 6650   1.878   2.551   3.060 -0.2070 -0.4021 -0.2046
 2229TIP3    H1 6651   1.964   2.593   3.066  1.7059 -4.0985  1.4424
 2229TIP3    H2 6652   1.831   2.584   3.136  0.5766  0.0749  0.0891
 2230TIP3   OH2 6653   4.665   0.639   1.685 -0.0384 -0.0621  0.0761
 2230TIP3    H1 6654   4.654   0.695   1.762  0.4574 -0.0512  0.1399
 2230TIP3    H2 6655   4.576   0.626   1.652 -0.3932 -0.9860  1.3088
 2231TIP3   OH2 6656   1.950   4.517   3.822 -0.0317 -0.0564 -0.2125
 2231TIP3    H1 6657   1.925   4.443   3.878 -1.1928  1.4063  1.3045
 2231TIP3    H2 6658   2.046   4.511   3.818 -0.1639 -2.4804 -1.4049
 2232TIP3   OH2 6659   6.700   0.135   4.262  0.3411  0.2426  0.0169
 2232TIP3    H1 6660   6.694   0.097   4.175  1.0905 -0.3326  0.1953
 2232TIP3    H2 6661   6.754   0.073   4.311  0.0760  0.6436  0.8376
 2233TIP3   OH2 6662   7.060   1.806   5.599 -0.1025  0.2839  0.0717
 2233TIP3    H1 6663   7.082   1.870   5.531  0.3029  1.6490  1.4262
 2233TIP3    H2 6664   7.092   1.723   5.566  2.0179  1.2628 -0.5015
 2234TIP3   OH2 6665   6.993   0.282   2.860 -0.2329  0.6204  0.1416
 2234TIP3    H1 6666   7.012   0.375   2.848 -1.4960  0.7119 -1.4013
 2234TIP3    H2 6667   7.059   0.237   2.808  0.2523  0.6435  0.7240
 2235TIP3   OH2 6668   4.741   0.055   2.761 -0.1770 -0.1723  0.3558
 2235TIP3    H1 6669   4.798   0.063   2.837  0.9453  0.8619 -0.5465
 2235TIP3    H2 6670   4.684   0.132   2.766  2.0262  1.7026 -1.4815
 2236TIP3   OH2 6671   5.541   5.463   4.770  0.5986 -0.1659 -0.2300
 2236TIP3    H1 6672   5.519   5.543   4.818 -0.4196 -1.2684  1.2516
 2236TIP3    H2 6673   5.634   5.450   4.788  0.6228  0.3414  0.0541
 2237TIP3   OH2 6674   2.439   5.129   5.150 -0.1007  0.0101 -0.1085
 2237TIP3    H1 6675   2.450   5.101   5.060  1.9010  0.0151  0.0820
 2237TIP3    H2 6676   2.344   5.129   5.164 -0.3730 -2.7757 -1.2980
 2238TIP3   OH2 6677   3.989   1.662   1.683 -0.1840 -0.0060  0.7830
 2238TIP3    H1 6678   4.079   1.650   1.713 -0.4335 -2.1880  0.8543
 2238TIP3    H2 6679   3.985   1.752   1.653  1.9522  0.2193  1.0315
 2239TIP3   OH2 6680   1.385   0.913   2.942 -0.1029  1.0582 -0.5500
 2239TIP3    H1 6681   1.435   0.888   3.020 -0.0620 -0.2894 -0.9799
 2239TIP3    H2 6682   1.355   0.830   2.905 -0.9221  1.7308 -1.4526
 2240TIP3   OH2 6683   6.074   2.564   0.640  0.4701 -0.2253 -0.2999
 2240TIP3    H1 6684   6.068   2.646   0.591  0.6778 -1.1005 -1.8608
 2240TIP3    H2 6685   6.039   2.498   0.580 -1.3297 -1.0539  1.5523
 2241TIP3   OH2 6686   1.860   3.387   1.283  0.3712 -0.2203 -0.1037
 2241TIP3    H1 6687   1.775   3.369   1.243  1.3656 -0.4870 -2.2415
 2241TIP3    H2 6688   1.918   3.319   1.248  2.3930  2.2860 -2.1166
 2242TIP3   OH2 6689   6.428   5.480   5.861  0.3526 -0.0452  0.1278
 2242TIP3    H1 6690   6.416   5.454   5.770  0.3465  0.9109 -0.1641
 2242TIP3    H2 6691   6.515   5.521   5.862  2.2105 -3.6144  1.4333
 2243TIP3   OH2 6692   1.616   3.370   1.866  0.4645 -0.0423 -0.1607
 2243TIP3    H1 6693   1.698   3.392   1.822 -0.7620  1.8611 -1.7064
 2243TIP3    H2 6694   1.593   3.283   1.833  0.8113  0.3224 -1.4427
 2244TIP3   OH2 6695   2.758   1.702   4.228 -0.0423 -0.0380 -0.5643
 2244TIP3    H1 6696   2.666   1.703   4.255  0.3917  1.7014  1.0728
 2244TIP3    H2 6697   2.756   1.736   4.138 -0.8672  2.2496  0.2400
 2245TIP3   OH2 6698   4.413   0.898   4.433 -0.5333  0.7987 -0.3924
 2245TIP3    H1 6699   4.362   0.833   4.481  1.3034  0.8288  1.7477
 2245TIP3    H2 6700   4.492   0.852   4.407 -0.2871  1.5532 -1.0214
 2246TIP3   OH2 6701   4.073   5.744   0.468 -0.3647 -0.5222  0.3113
 2246TIP3    H1 6702   4.084   5.789   0.384 -1.0935 -1.5960 -0.3846
 2246TIP3    H2 6703   4.024   5.807   0.522 -0.0642  0.1019 -0.1238
 2247TIP3   OH2 6704   2.834   0.494   4.492  0.1924  0.2081  0.5292
 2247TIP3    H1 6705   2.784   0.429   4.541 -0.1793  0.2148  0.1701
 2247TIP3    H2 6706   2.890   0.442   4.434 -2.2726  0.1163 -1.9868
 2248TIP3   OH2 6707   4.493   1.962   5.187  0.6397  0.1542 -0.0591
 2248TIP3    H1 6708   4.544   2.026   5.237  1.2036  0.6436 -1.2266
 2248TIP3    H2 6709   4.549   1.885   5.182 -0.3598 -0.7852  2.0402
 2249TIP3   OH2 6710   2.839   5.170   0.420 -0.1848 -0.7158  0.1894
 2249TIP3    H1 6711   2.880   5.092   0.459  2.0413  0.5416  0.5596
 2249TIP3    H2 6712   2.904   5.239   0.433 -2.2868  1.3305  0.3013
 2250TIP3   OH2 6713   3.488   5.861   1.420 -0.3593 -0.2185 -0.3270
 2250TIP3    H1 6714   3.533   5.873   1.504 -1.4800 -0.3023  0.3041
 2250TIP3    H2 6715   3.553   5.818   1.365  1.2481  1.9691 -0.2957
 2251TIP3   OH2 6716   2.384   2.500   3.510 -0.1541 -0.3073  0.1259
 2251TIP3    H1 6717   2.471   2.460   3.516  1.7524  3.4276  0.0503
 2251TIP3    H2 6718   2.334   2.459   3.581  1.6480 -2.4759  0.2625
 2252TIP3   OH2 6719   1.567   4.982   2.299  0.2150 -0.8541 -0.5453
 2252TIP3    H1 6720   1.578   5.074   2.321  1.1635 -1.2491  0.7798
 2252TIP3    H2 6721   1.505   4.981   2.226 -0.7689  0.7454  0.2267
 2253TIP3   OH2 6722   3.053   1.545   5.749  0.1640  0.4929 -0.1252
 2253TIP3    H1 6723   3.053   1.524   5.656 -1.7414  0.1249 -0.0769
 2253TIP3    H2 6724   3.070   1.639   5.753  1.2341  0.3331 -0.7777
 2254TIP3   OH2 6725   0.211   4.015   4.758  0.7423  0.1052  0.2305
 2254TIP3    H1 6726   0.218   4.108   4.781 -0.1844  0.1493  0.3928
 2254TIP3    H2 6727   0.251   4.008   4.672 -2.8835  1.5010 -1.7760
 2255TIP3   OH2 6728   2.521   2.260   3.868 -0.7693  0.0523 -0.1812
 2255TIP3    H1 6729   2.485   2.318   3.936 -0.3734 -0.6649  0.6580
 2255TIP3    H2 6730   2.579   2.200   3.916  1.1356  0.8267 -1.4216
 2256TIP3   OH2 6731  -0.005   4.645   4.791  0.3842  0.5397  0.3597
 2256TIP3    H1 6732   0.084   4.623   4.763 -0.5902 -2.2257 -0.8783
 2256TIP3    H2 6733  -0.041   4.697   4.719  1.0404  1.9273  0.9974
 2257TIP3   OH2 6734   1.817   5.197   1.378  0.0583  0.1057  0.0716
 2257TIP3    H1 6735   1.855   5.120   1.336 -1.8262 -0.2660 -1.0764
 2257TIP3    H2 6736   1.764   5.162   1.450  1.1318  0.5479  1.1082
 2258TIP3   OH2 6737   4.129   6.722   5.696 -0.3553 -0.4524 -0.6515
 2258TIP3    H1 6738   4.183   6.739   5.773 -2.2453  0.7252  0.5081
 2258TIP3    H2 6739   4.156   6.636   5.666  2.9744  0.5230 -0.9096
 2259TIP3   OH2 6740   5.194   2.845   1.493  0.5134 -0.0563 -0.6244
 2259TIP3    H1 6741   5.114   2.800   1.519  1.3894 -1.2803  0.0415
 2259TIP3    H2 6742   5.260   2.777   1.490  1.3338  0.7450 -2.2106
 2260TIP3   OH2 6743   3.699   1.349   2.533  0.0675 -0.0219  0.1093
 2260TIP3    H1 6744   3.614   1.379   2.502  0.9480  0.5337 -1.9635
 2260TIP3    H2 6745   3.680   1.273   2.588 -1.7233 -0.1862 -0.6870
 2261TIP3   OH2 6746   5.258   6.459   1.288  0.1488 -0.0043  0.4495
 2261TIP3    H1 6747   5.213   6.433   1.368 -2.3791 -1.4493 -1.2913
 2261TIP3    H2 6748   5.224   6.546   1.268  0.1949  0.0325  0.5330
 2262TIP3   OH2 6749   4.198   1.737   4.954  0.6613  0.3006  0.1658
 2262TIP3    H1 6750   4.270   1.731   5.016  0.1491  0.6879  0.8178
 2262TIP3    H2 6751   4.189   1.649   4.918  0.5933 -0.0765  1.0781
 2263TIP3   OH2 6752   0.184   1.535   5.770  0.5271  0.3616 -0.3146
 2263TIP3    H1 6753   0.252   1.524   5.703 -1.0533 -1.5388 -1.7481
 2263TIP3    H2 6754   0.181   1.450   5.815 -1.9138 -0.2325 -1.4084
 2264TIP3   OH2 6755   0.806   6.436   1.759  0.2641 -0.3322  0.2907
 2264TIP3    H1 6756   0.740   6.380   1.719  0.5793 -0.7663  0.3815
 2264TIP3    H2 6757   0.889   6.396   1.736  0.5325  0.5269 -0.3064
 2265TIP3   OH2 6758   3.594   2.647   2.729 -0.1072  0.1043 -0.0148
 2265TIP3    H1 6759   3.552   2.566   2.759  0.5721  0.1870  1.2055
 2265TIP3    H2 6760   3.523   2.711   2.727 -0.5767 -0.4179 -0.6373
 2266TIP3   OH2 6761   4.878   1.256   5.575  0.2099 -0.3145  0.2778
 2266TIP3    H1 6762   4.799   1.202   5.570 -1.2584  1.7770 -0.8485
 2266TIP3    H2 6763   4.897   1.262   5.668  0.7317 -3.0566  0.4507
 2267TIP3   OH2 6764   6.964   3.365   4.027  0.1095 -0.1242 -0.4723
 2267TIP3    H1 6765   6.909   3.391   3.952  2.5818  1.6940 -1.8085
 2267TIP3    H2 6766   6.919   3.402   4.103 -1.1404  0.2277 -1.3474
 2268TIP3   OH2 6767   3.231   3.655   3.268  0.8134 -0.7811 -0.1185
 2268TIP3    H1 6768   3.151   3.605   3.252  0.3473  0.5133 -2.2505
 2268TIP3    H2 6769   3.247   3.645   3.362 -2.7867  0.2237  0.7653
 2269TIP3   OH2 6770   2.586   1.631   1.740  0.0731  0.3533  0.2927
 2269TIP3    H1 6771   2.626   1.677   1.813  0.2828  1.3495 -0.4330
 2269TIP3    H2 6772   2.552   1.700   1.683  1.5360 -0.2989 -1.4736
 2270TIP3   OH2 6773   5.552   4.581   3.592  0.3989  0.1747 -0.4712
 2270TIP3    H1 6774   5.489   4.517   3.559 -1.1847  0.7511  1.2475
 2270TIP3    H2 6775   5.562   4.560   3.685  0.0188  2.2386  0.0970
 2271TIP3   OH2 6776   4.373   4.267   5.452 -0.1511  0.0552 -0.2741
 2271TIP3    H1 6777   4.418   4.187   5.424 -0.7214  0.5717 -2.8603
 2271TIP3    H2 6778   4.299   4.236   5.504 -0.4884 -1.1293 -1.4112
 2272TIP3   OH2 6779   1.142   2.602   4.782 -0.1452 -0.1110 -0.0438
 2272TIP3    H1 6780   1.121   2.571   4.870  2.6879  0.0281  0.7675
 2272TIP3    H2 6781   1.105   2.690   4.778  2.1144  1.0543  2.1574
 2273TIP3   OH2 6782   7.118   1.711   3.616  0.4849 -0.0019 -0.0736
 2273TIP3    H1 6783   7.136   1.625   3.578  1.1537 -0.6271  1.5678
 2273TIP3    H2 6784   7.094   1.766   3.542 -1.9947 -2.0935 -0.9860
 2274TIP3   OH2 6785   5.636   6.039   5.887 -0.0001 -0.1011  0.0772
 2274TIP3    H1 6786   5.567   6.105   5.878  1.0413  1.3968  2.2300
 2274TIP3    H2 6787   5.684   6.043   5.804 -0.5869  1.1116 -0.2295
 2275TIP3   OH2 6788   7.211   4.756   0.855  0.3765 -0.5972  0.1411
 2275TIP3    H1 6789   7.119   4.733   0.867  0.5567 -1.5948 -0.2448
 2275TIP3    H2 6790   7.233   4.809   0.932 -0.3849 -0.7567  0.4785
 2276TIP3   OH2 6791   4.617   1.310   0.175  0.4262  0.0577 -0.2345
 2276TIP3    H1 6792   4.571   1.357   0.244  0.2887  0.6535 -0.7169
 2276TIP3    H2 6793   4.709   1.337   0.184  0.3728  0.3076 -0.4131
 2277TIP3   OH2 6794   6.369   0.722   0.982 -0.2393 -0.5311 -0.1829
 2277TIP3    H1 6795   6.360   0.737   1.076  0.8969  0.9084 -0.2795
 2277TIP3    H2 6796   6.313   0.788   0.942  0.8460  0.1966 -0.5359
 2278TIP3   OH2 6797   2.486   5.304   4.748 -0.2104 -0.1423 -0.2509
 2278TIP3    H1 6798   2.578   5.283   4.758 -0.3368 -0.4525  0.3214
 2278TIP3    H2 6799   2.478   5.392   4.784 -0.0621  0.0621 -0.7087
 2279TIP3   OH2 6800   6.981   0.403   4.364  0.3759  0.1404 -0.0385
 2279TIP3    H1 6801   6.961   0.385   4.456  0.3723 -1.8093 -0.3662
 2279TIP3    H2 6802   7.076   0.413   4.362  0.3380  0.5606  0.2364
 2280TIP3   OH2 6803   1.776   6.722   2.377  0.1895  0.3448  0.1681
 2280TIP3    H1 6804   1.829   6.767   2.443 -1.2515  0.6059  1.1948
 2280TIP3    H2 6805   1.705   6.682   2.427  0.6504 -1.9587 -0.8733
 2281TIP3   OH2 6806   3.888   2.173   2.477 -0.0558 -0.2990 -0.1442
 2281TIP3    H1 6807   3.892   2.100   2.538 -0.4940  0.9031  1.3787
 2281TIP3    H2 6808   3.943   2.240   2.516  0.3538  0.1980 -1.5243
 2282TIP3   OH2 6809   0.161   4.359   2.670 -0.5709  0.2425 -0.1238
 2282TIP3    H1 6810   0.186   4.355   2.762  0.2768  0.5835 -0.3342
 2282TIP3    H2 6811   0.068   4.333   2.669  0.1082 -2.5197  0.4924
 2283TIP3   OH2 6812   2.383   0.741   1.611  0.0301 -0.3540 -0.4084
 2283TIP3    H1 6813   2.412   0.777   1.527 -0.9466  0.9259 -0.2307
 2283TIP3    H2 6814   2.315   0.801   1.640 -0.1617 -1.1965  0.9564
 2284TIP3   OH2 6815   4.623   6.748   4.336  0.3395 -0.8108 -0.4634
 2284TIP3    H1 6816   4.626   6.774   4.428  0.4735 -1.3412 -0.3201
 2284TIP3    H2 6817   4.666   6.820   4.289  0.2526 -0.5319 -0.1163
 2285TIP3   OH2 6818   5.137   2.454   5.512  0.4702 -0.0173 -0.3213
 2285TIP3    H1 6819   5.206   2.517   5.495  0.3492 -0.2094 -1.6716
 2285TIP3    H2 6820   5.180   2.385   5.563  0.9453  0.4813 -0.0367
 2286TIP3   OH2 6821   2.042   4.874   4.044  0.1293 -0.2499 -0.4468
 2286TIP3    H1 6822   2.042   4.778   4.051  1.9537 -0.2339  0.2415
 2286TIP3    H2 6823   1.974   4.893   3.979  0.2896 -2.0531 -1.1992
 2287TIP3   OH2 6824   3.779   4.834   1.193  0.0880  0.3457  0.5830
 2287TIP3    H1 6825   3.713   4.764   1.193 -0.5948  0.9235 -1.4686
 2287TIP3    H2 6826   3.862   4.788   1.181 -0.3300 -0.1674 -0.5166
 2288TIP3   OH2 6827   6.286   4.019   3.740  0.4808 -0.2570 -0.8712
 2288TIP3    H1 6828   6.289   4.104   3.696  0.5922 -0.0017 -0.3859
 2288TIP3    H2 6829   6.202   4.019   3.786  0.8049 -0.0972 -0.2712
 2289TIP3   OH2 6830   2.884   0.948   5.295  0.3846 -0.1172 -0.0300
 2289TIP3    H1 6831   2.824   0.874   5.303  0.7995 -0.5616 -0.8434
 2289TIP3    H2 6832   2.971   0.910   5.303  0.6120  0.2366 -0.6777
 2290TIP3   OH2 6833   1.383   2.910   2.307 -0.6247  0.4957 -0.3649
 2290TIP3    H1 6834   1.455   2.972   2.299  0.5879 -0.8235 -0.0415
 2290TIP3    H2 6835   1.423   2.830   2.340 -2.3912 -0.0104  0.6978
 2291TIP3   OH2 6836   3.111   1.677   1.179 -0.3309  0.5431  0.0080
 2291TIP3    H1 6837   3.052   1.722   1.240  0.0361  0.3135  0.5363
 2291TIP3    H2 6838   3.146   1.604   1.229  1.3680  1.3848  0.1104
 2292TIP3   OH2 6839   1.190   4.325   4.414  0.2534  1.0464  0.4628
 2292TIP3    H1 6840   1.190   4.417   4.440  0.7524  0.8171  1.3219
 2292TIP3    H2 6841   1.131   4.283   4.478 -1.0926  0.9829 -0.7711
 2293TIP3   OH2 6842   3.450   6.568   1.251 -0.0032 -0.3483  0.4798
 2293TIP3    H1 6843   3.511   6.598   1.318  1.1282 -0.4877 -0.4611
 2293TIP3    H2 6844   3.464   6.626   1.177 -0.7113 -0.6499  0.0959
 2294TIP3   OH2 6845   5.551   3.629   4.777 -0.6413  0.3955 -0.1729
 2294TIP3    H1 6846   5.463   3.632   4.740  0.2413 -0.4077 -2.5574
 2294TIP3    H2 6847   5.600   3.695   4.728  0.4404 -0.2260  0.0355
 2295TIP3   OH2 6848   0.575   2.740   3.973  0.8734  0.1280 -0.2943
 2295TIP3    H1 6849   0.522   2.673   4.016  0.4307  0.1400 -0.8054
 2295TIP3    H2 6850   0.659   2.698   3.957  0.4879 -0.4232 -0.9179
 2296TIP3   OH2 6851   0.027   3.040   4.723 -0.5922 -0.2737 -0.5938
 2296TIP3    H1 6852   0.055   3.101   4.791 -2.2291 -0.7287  0.5385
 2296TIP3    H2 6853   0.040   2.953   4.761  1.2369 -0.6946 -2.0034
 2297TIP3   OH2 6854   2.969   2.305   3.242 -0.1411  0.2169  0.1013
 2297TIP3    H1 6855   3.016   2.286   3.324  1.6612 -0.1467 -0.9546
 2297TIP3    H2 6856   2.945   2.397   3.250  4.0008  1.6092 -0.6742
 2298TIP3   OH2 6857   2.164   2.952   0.272 -0.0641 -0.0329  0.3540
 2298TIP3    H1 6858   2.189   2.862   0.254  0.5113  0.2329 -0.2333
 2298TIP3    H2 6859   2.211   3.004   0.207  0.3783  0.7839  1.2835
 2299TIP3   OH2 6860   4.029   4.393   3.622 -0.3695 -0.2048  0.1618
 2299TIP3    H1 6861   4.110   4.375   3.670  0.6414 -0.0471 -1.4070
 2299TIP3    H2 6862   3.960   4.387   3.688  0.8381 -1.0738  1.3968
 2300TIP3   OH2 6863   2.776   4.642   4.119 -0.0187 -0.5127 -0.2721
 2300TIP3    H1 6864   2.853   4.606   4.076 -0.1438 -0.6862 -0.3493
 2300TIP3    H2 6865   2.806   4.666   4.206 -0.4853 -3.0294  0.6686
 2301TIP3   OH2 6866   4.012   0.772   1.368  0.2579  0.2287 -0.8451
 2301TIP3    H1 6867   3.983   0.711   1.300  0.3820 -0.5598 -0.2028
 2301TIP3    H2 6868   3.949   0.760   1.440  0.7984  0.2111 -0.3682
 2302TIP3   OH2 6869   2.380   6.184   2.714 -0.3558 -0.0556  1.0013
 2302TIP3    H1 6870   2.341   6.120   2.774 -0.7752 -1.2868 -0.5102
 2302TIP3    H2 6871   2.469   6.153   2.700 -0.6003 -0.3995  0.1645
 2303TIP3   OH2 6872   3.962   1.164   3.886  0.4996  0.3302  0.5577
 2303TIP3    H1 6873   4.038   1.207   3.926  0.6823  0.6433 -0.1055
 2303TIP3    H2 6874   3.887   1.215   3.917  0.7108  1.0989 -0.1618
 2304TIP3   OH2 6875   0.109   5.984   0.500 -0.3332 -0.3243 -0.5229
 2304TIP3    H1 6876   0.033   6.042   0.485 -1.0309 -1.3553 -1.0773
 2304TIP3    H2 6877   0.143   6.012   0.585  0.1449  1.7672 -1.3252
 2305TIP3   OH2 6878   5.413   2.195   0.833  0.3320  0.0365 -0.6862
 2305TIP3    H1 6879   5.369   2.110   0.822 -0.6633  0.5239 -0.5785
 2305TIP3    H2 6880   5.352   2.259   0.796 -1.1949  1.2794  3.3788
 2306TIP3   OH2 6881   1.712   5.850   0.554  0.0956 -0.3737 -0.3659
 2306TIP3    H1 6882   1.773   5.924   0.553 -0.3675  0.0366 -2.2187
 2306TIP3    H2 6883   1.767   5.772   0.560  0.8225 -0.0053 -1.9767
 2307TIP3   OH2 6884   0.266   4.097   0.773  0.0573  0.0381  0.1291
 2307TIP3    H1 6885   0.246   4.120   0.864 -0.5144  0.8957 -0.1983
 2307TIP3    H2 6886   0.185   4.118   0.726 -0.0674 -1.5128 -0.4007
 2308TIP3   OH2 6887   6.980   4.502   4.355  0.0987  0.0887  0.1821
 2308TIP3    H1 6888   6.952   4.424   4.306  0.2681  0.7201 -0.9535
 2308TIP3    H2 6889   6.901   4.556   4.360 -0.6296 -1.0666  2.8965
 2309TIP3   OH2 6890   2.019   0.123   3.669 -0.4777  0.0379  0.3011
 2309TIP3    H1 6891   1.958   0.195   3.651  0.8407  0.9211 -0.7930
 2309TIP3    H2 6892   2.069   0.153   3.745 -0.8191 -0.3284  0.6792
 2310TIP3   OH2 6893   1.899   0.017   1.419  0.0229 -0.0351 -0.1355
 2310TIP3    H1 6894   1.949  -0.010   1.496 -1.1679 -0.7505  0.4341
 2310TIP3    H2 6895   1.960   0.069   1.367  1.5785 -1.4899  0.1350
 2311TIP3   OH2 6896   0.707   3.335   3.486  0.5402 -0.0618  0.0817
 2311TIP3    H1 6897   0.761   3.295   3.418  1.2359 -0.2993  0.7670
 2311TIP3    H2 6898   0.721   3.281   3.563 -0.0685  0.3378  0.4763
 2312TIP3   OH2 6899   4.245   3.714   1.059  0.5763  0.5392 -0.8199
 2312TIP3    H1 6900   4.308   3.785   1.055  0.0432  1.0171 -0.8242
 2312TIP3    H2 6901   4.287   3.641   1.014  1.0963  0.8727 -0.8692
 2313TIP3   OH2 6902   0.625   5.294   0.684  0.7389 -0.1233 -0.1778
 2313TIP3    H1 6903   0.630   5.332   0.596 -1.1958 -0.2464 -0.3705
 2313TIP3    H2 6904   0.536   5.261   0.691  1.0288 -0.6146  1.6470
 2314TIP3   OH2 6905   6.957   4.773   5.155  0.8259 -0.1184  0.6903
 2314TIP3    H1 6906   6.883   4.739   5.105  0.9230 -1.3464  1.3257
 2314TIP3    H2 6907   7.027   4.783   5.090  0.8120 -1.2448  0.4680
 2315TIP3   OH2 6908   4.136   0.257   0.321 -0.3532 -0.1147  0.6082
 2315TIP3    H1 6909   4.121   0.351   0.315 -1.1951 -0.1237  2.0816
 2315TIP3    H2 6910   4.070   0.219   0.263 -0.0761  0.1769  0.0873
 2316TIP3   OH2 6911   0.114   6.472   3.049  0.1268  0.1903  0.0449
 2316TIP3    H1 6912   0.071   6.388   3.031 -0.9606  0.6465  0.4399
 2316TIP3    H2 6913   0.175   6.453   3.120  0.8937 -0.5568 -0.7943
 2317TIP3   OH2 6914   4.526   2.275   4.765 -0.2951 -0.3587  0.0270
 2317TIP3    H1 6915   4.496   2.364   4.746 -0.7914 -0.1389  1.6712
 2317TIP3    H2 6916   4.449   2.231   4.800 -0.3113 -1.7754 -1.6749
 2318TIP3   OH2 6917   5.183   0.539   3.665 -0.1600  0.4924  0.2558
 2318TIP3    H1 6918   5.205   0.466   3.606 -0.1115 -0.0139  0.8913
 2318TIP3    H2 6919   5.268   0.572   3.695 -0.1788  0.8756 -0.0924
 2319TIP3   OH2 6920   7.235   0.165   3.515  0.0224 -0.1220 -0.1859
 2319TIP3    H1 6921   7.203   0.217   3.589  2.0540 -2.3405  2.4944
 2319TIP3    H2 6922   7.159   0.113   3.488 -0.8750  1.0414  0.0148
 2320TIP3   OH2 6923   4.164   3.306   0.972  0.2104 -0.0664 -0.3038
 2320TIP3    H1 6924   4.082   3.332   1.014  0.9384  0.1749  1.0394
 2320TIP3    H2 6925   4.138   3.271   0.887 -1.1305  1.5983 -0.6324
 2321TIP3   OH2 6926   2.991   1.828   2.758 -0.4326 -0.1710  0.0318
 2321TIP3    H1 6927   3.036   1.791   2.835  0.8704  2.2370  0.5147
 2321TIP3    H2 6928   2.899   1.832   2.784 -0.2681 -0.9603  0.7993
 2322TIP3   OH2 6929   3.293   0.730   3.962 -0.0477  0.1100  0.1170
 2322TIP3    H1 6930   3.333   0.645   3.947 -0.0197  0.1414  0.0142
 2322TIP3    H2 6931   3.231   0.741   3.889 -1.5866 -0.7351  1.2338
 2323TIP3   OH2 6932   1.710   4.880   1.343  0.1369 -0.1303 -0.0232
 2323TIP3    H1 6933   1.700   4.919   1.430  2.2051 -0.6241  0.4929
 2323TIP3    H2 6934   1.637   4.819   1.335  0.4973 -0.8416  1.8106
 2324TIP3   OH2 6935   2.498   4.597   3.701  0.1026 -0.2302  0.1962
 2324TIP3    H1 6936   2.520   4.557   3.785 -0.2143 -1.9940 -0.5291
 2324TIP3    H2 6937   2.575   4.650   3.679  0.1940  0.2675  1.5638
 2325TIP3   OH2 6938   5.633   0.932   5.249  0.1151 -0.1689  0.0487
 2325TIP3    H1 6939   5.589   0.898   5.170  0.7535  1.5463 -1.1020
 2325TIP3    H2 6940   5.567   0.924   5.318 -0.3288 -2.0868 -0.5328
 2326TIP3   OH2 6941   5.076   1.572   4.666 -1.0362  0.0829  0.1531
 2326TIP3    H1 6942   4.982   1.571   4.650 -0.8838 -0.0721 -0.7980
 2326TIP3    H2 6943   5.092   1.654   4.714 -1.4862  0.7107 -0.7579
 2327TIP3   OH2 6944   0.836   6.110   4.526 -0.4569 -0.5419  0.0840
 2327TIP3    H1 6945   0.777   6.171   4.572  0.5280 -0.9218  1.9287
 2327TIP3    H2 6946   0.906   6.166   4.493 -1.5236 -0.1617 -1.6912
 2328TIP3   OH2 6947   5.649   6.440   0.152  0.0939 -0.3678 -0.5117
 2328TIP3    H1 6948   5.672   6.362   0.102 -1.3533 -0.3293 -1.3174
 2328TIP3    H2 6949   5.592   6.490   0.093 -2.7646 -0.9336  1.5291
 2329TIP3   OH2 6950   0.241   1.408   4.008 -0.3109 -0.1201  0.1602
 2329TIP3    H1 6951   0.250   1.404   4.104 -0.5209  0.2536  0.1945
 2329TIP3    H2 6952   0.330   1.424   3.977 -0.3486  0.4541  0.3347
 2330TIP3   OH2 6953   0.987   6.701   2.748 -0.4659  0.4433  0.1709
 2330TIP3    H1 6954   1.031   6.635   2.695 -1.2770 -0.6136  0.7692
 2330TIP3    H2 6955   0.950   6.762   2.684 -1.5510 -0.8868 -0.5356
 2331TIP3   OH2 6956   5.433   1.077   1.202 -0.0136  0.1358  0.5007
 2331TIP3    H1 6957   5.380   1.157   1.208  0.1562  0.2003  1.2504
 2331TIP3    H2 6958   5.418   1.045   1.113  0.9197  1.7130 -0.2860
 2332TIP3   OH2 6959   6.994   3.771   2.703 -0.1007  0.8319  0.0890
 2332TIP3    H1 6960   7.081   3.768   2.665 -0.3178 -2.3967 -0.3658
 2332TIP3    H2 6961   7.008   3.758   2.796 -0.1353 -3.6220 -0.3437
 2333TIP3   OH2 6962   1.297   5.879   3.802  0.3084 -0.6657 -0.7035
 2333TIP3    H1 6963   1.380   5.909   3.765 -0.0328  0.6145 -0.4746
 2333TIP3    H2 6964   1.317   5.860   3.894  0.2289  0.2377 -0.4889
 2334TIP3   OH2 6965   1.549   6.270   4.273 -0.7660  0.4257 -0.1083
 2334TIP3    H1 6966   1.469   6.319   4.290 -1.0908 -1.0144  3.3293
 2334TIP3    H2 6967   1.590   6.260   4.359  0.6106 -2.9296 -0.9801
 2335TIP3   OH2 6968   0.216   0.154   5.841 -0.1267  0.4453  0.4681
 2335TIP3    H1 6969   0.195   0.241   5.874  1.1332  0.7154  0.6347
 2335TIP3    H2 6970   0.305   0.163   5.807  0.7787 -1.2082  2.2104
 2336TIP3   OH2 6971   6.428   3.261   1.140  0.0299 -0.3872 -0.1856
 2336TIP3    H1 6972   6.421   3.179   1.091  0.8018 -0.9184  0.5529
 2336TIP3    H2 6973   6.521   3.268   1.161 -0.0405  0.6498 -0.1693
 2337TIP3   OH2 6974   3.294   0.720   0.283  1.0215 -0.1748  0.1126
 2337TIP3    H1 6975   3.223   0.672   0.325  0.8732 -0.7099 -0.7227
 2337TIP3    H2 6976   3.364   0.656   0.272  0.2922 -0.6667 -2.3448
 2338TIP3   OH2 6977   0.324   4.273   4.757  0.3715 -0.3607 -0.4560
 2338TIP3    H1 6978   0.282   4.321   4.686 -2.2848 -1.3089  0.3479
 2338TIP3    H2 6979   0.370   4.341   4.807 -2.4139  1.3184  0.0852
 2339TIP3   OH2 6980   2.623   2.039   1.441  0.8016 -0.0226 -0.4130
 2339TIP3    H1 6981   2.590   2.121   1.403  1.5119  0.5527  0.1776
 2339TIP3    H2 6982   2.707   2.063   1.480  1.1000 -1.0775 -0.3773
 2340TIP3   OH2 6983   0.016   1.820   1.048  0.1376 -0.0879  0.3165
 2340TIP3    H1 6984  -0.034   1.738   1.048 -1.3064  0.6785 -2.4162
 2340TIP3    H2 6985   0.057   1.823   1.135 -1.2148 -2.7903  1.1595
 2341TIP3   OH2 6986   2.957   1.960   1.664 -0.5177  0.4773  0.3413
 2341TIP3    H1 6987   2.984   1.888   1.721  0.7888  1.5111  1.0828
 2341TIP3    H2 6988   2.887   2.004   1.713 -0.0958  0.7564  0.7015
 2342TIP3   OH2 6989   4.645   0.874   1.066  0.1061  0.6667  0.5664
 2342TIP3    H1 6990   4.711   0.921   1.118 -1.4565  3.7612  0.0046
 2342TIP3    H2 6991   4.566   0.876   1.121  0.0555 -1.7447  0.6561
 2343TIP3   OH2 6992   2.445   6.574   1.107  0.4977 -0.7166 -0.4799
 2343TIP3    H1 6993   2.355   6.558   1.137  0.6257 -0.6661 -0.0631
 2343TIP3    H2 6994   2.500   6.543   1.179  0.7706  1.0661  0.1216
 2344TIP3   OH2 6995   4.818   4.593   2.107  0.2584  0.0160  0.9879
 2344TIP3    H1 6996   4.748   4.658   2.100 -0.3742 -0.7969 -0.7526
 2344TIP3    H2 6997   4.898   4.644   2.101 -0.2272  0.7019  0.1572
 2345TIP3   OH2 6998   7.117   4.488   0.055  0.2319  0.3319 -0.4445
 2345TIP3    H1 6999   7.188   4.552   0.045  0.9299 -0.7081 -2.8836
 2345TIP3    H2 7000   7.160   4.403   0.051 -0.8864 -0.3245  0.8500
 2346TIP3   OH2 7001   4.744   6.479   3.999 -1.0582 -0.6394 -0.3433
 2346TIP3    H1 7002   4.710   6.567   3.982  0.1372 -0.2537 -0.8989
 2346TIP3    H2 7003   4.830   6.479   3.957 -1.2164 -2.2252 -0.7152
 2347TIP3   OH2 7004   5.987   5.367   0.793  0.1351  0.6534 -0.0283
 2347TIP3    H1 7005   6.080   5.364   0.815  0.9113  2.9003 -2.4482
 2347TIP3    H2 7006   5.966   5.279   0.763  1.5595  0.2110  0.1965
 2348TIP3   OH2 7007   2.574   0.180   0.362 -0.2266  0.4203  0.0023
 2348TIP3    H1 7008   2.621   0.111   0.315  1.7803  1.4791  0.3304
 2348TIP3    H2 7009   2.536   0.136   0.437 -0.3631 -0.6193 -0.6555
 2349TIP3   OH2 7010   3.482   0.521   0.242 -0.0789 -0.4786 -0.0634
 2349TIP3    H1 7011   3.470   0.539   0.149  1.0970  0.3469 -0.0885
 2349TIP3    H2 7012   3.514   0.431   0.245 -0.1401 -0.5148 -0.4570
 2350TIP3   OH2 7013   0.451   6.028   4.588  0.0617 -0.0586  0.3382
 2350TIP3    H1 7014   0.450   5.937   4.618 -2.0387 -0.2921 -0.2726
 2350TIP3    H2 7015   0.467   6.022   4.494 -1.1330  0.0928  0.1064
 2351TIP3   OH2 7016   4.444   0.198   1.501  0.5310 -0.3682  0.2653
 2351TIP3    H1 7017   4.452   0.274   1.443 -0.0692 -1.0758 -0.7662
 2351TIP3    H2 7018   4.434   0.237   1.588 -1.8974  0.8619 -0.4487
 2352TIP3   OH2 7019   2.707   3.531   1.511  0.7851 -0.0215  0.0600
 2352TIP3    H1 7020   2.760   3.452   1.519  0.9124  0.2570  3.0573
 2352TIP3    H2 7021   2.616   3.500   1.516  0.8381 -0.0054  1.4002
 2353TIP3   OH2 7022   1.385   0.243   4.831 -0.0615  0.3620 -0.9336
 2353TIP3    H1 7023   1.301   0.198   4.832 -0.8182  1.6890 -1.4772
 2353TIP3    H2 7024   1.368   0.325   4.784  1.1462  1.4220  0.3811
 2354TIP3   OH2 7025   4.064   3.073   3.229  0.4025 -0.5121  0.0768
 2354TIP3    H1 7026   4.046   3.115   3.145  0.7289 -0.1583  0.1792
 2354TIP3    H2 7027   4.155   3.043   3.223  0.2211 -1.0725  0.0647
 2355TIP3   OH2 7028   7.138   4.955   3.457 -0.0229 -0.5338 -0.2364
 2355TIP3    H1 7029   7.134   4.946   3.362 -0.5807 -0.8640 -0.1864
 2355TIP3    H2 7030   7.059   4.912   3.489  0.2129 -0.5233  0.3860
 2356TIP3   OH2 7031   0.032   1.614   3.983 -0.3509  0.2430  0.3247
 2356TIP3    H1 7032   0.098   1.545   3.987  0.1066  0.6611 -0.0324
 2356TIP3    H2 7033  -0.046   1.569   3.949 -0.3203 -0.2940  0.9390
 2357TIP3   OH2 7034   0.895   2.068   1.586  0.6247  0.6751 -0.2459
 2357TIP3    H1 7035   0.908   2.160   1.611  1.7263  0.4596  0.0121
 2357TIP3    H2 7036   0.898   2.020   1.669 -1.1538  0.5067 -0.2401
 2358TIP3   OH2 7037   5.669   0.012   5.332 -0.2519  0.7693 -0.1301
 2358TIP3    H1 7038   5.720  -0.060   5.370 -0.9234  0.3701  0.0254
 2358TIP3    H2 7039   5.735   0.070   5.294  0.2265 -0.8121 -1.8375
 2359TIP3   OH2 7040   0.640   2.525   2.748  0.2183  0.0116  0.1371
 2359TIP3    H1 7041   0.658   2.588   2.678 -3.9168  1.6097  0.2453
 2359TIP3    H2 7042   0.633   2.441   2.702 -4.0011  1.2352 -1.9706
 2360TIP3   OH2 7043   5.334   3.965   4.034  0.5443 -0.6522  0.5341
 2360TIP3    H1 7044   5.399   3.908   4.076 -0.4689 -2.9961 -0.9031
 2360TIP3    H2 7045   5.258   3.909   4.020 -0.4379  0.9957 -1.2267
 2361TIP3   OH2 7046   3.715   0.025   3.385 -0.1134  0.3478 -0.0072
 2361TIP3    H1 7047   3.629   0.045   3.422 -0.7606 -0.3585 -1.0528
 2361TIP3    H2 7048   3.744  -0.054   3.431 -0.7149 -0.2751 -0.6760
 2362TIP3   OH2 7049   5.715   4.663   0.232 -0.1357  0.0678  0.0117
 2362TIP3    H1 7050   5.750   4.725   0.296  0.5822 -1.3743  1.0863
 2362TIP3    H2 7051   5.699   4.715   0.154 -2.0126  2.1236  1.6402
 2363TIP3   OH2 7052   2.145   2.827   5.574  0.0652 -0.2993  0.7420
 2363TIP3    H1 7053   2.079   2.840   5.506  0.7992 -0.2814  0.0137
 2363TIP3    H2 7054   2.184   2.914   5.585 -0.6593 -0.0961  1.8506
 2364TIP3   OH2 7055   3.787   1.055   5.638 -0.4320 -0.3060 -0.5632
 2364TIP3    H1 7056   3.783   0.960   5.629  0.4254 -0.3671 -0.3628
 2364TIP3    H2 7057   3.878   1.073   5.662 -1.0946  0.3737  1.6428
 2365TIP3   OH2 7058   1.631   6.301   0.741  0.1196  0.4105  0.4464
 2365TIP3    H1 7059   1.719   6.318   0.774  0.8793  1.1987 -1.8408
 2365TIP3    H2 7060   1.586   6.385   0.747  0.0805  0.4211  0.0086
 2366TIP3   OH2 7061   2.507   4.293   3.822  0.2253  0.0218  0.2813
 2366TIP3    H1 7062   2.568   4.343   3.876 -0.5597  1.2550  0.0473
 2366TIP3    H2 7063   2.420   4.315   3.856 -0.1286 -1.8397  0.7237
 2367TIP3   OH2 7064   2.736   5.060   4.710  0.3205 -0.0481 -0.5193
 2367TIP3    H1 7065   2.829   5.040   4.698  0.2363 -1.1722  0.5479
 2367TIP3    H2 7066   2.690   4.999   4.652  0.2252  0.1647 -0.6693
 2368TIP3   OH2 7067   3.491   5.689   3.133  0.6779 -0.2499 -0.3738
 2368TIP3    H1 7068   3.416   5.647   3.091  1.1186  0.4936 -1.9598
 2368TIP3    H2 7069   3.555   5.618   3.145  0.3828 -0.5504 -0.5589
 2369TIP3   OH2 7070   5.047   1.494   3.911 -0.0554 -0.2222  0.4316
 2369TIP3    H1 7071   5.067   1.561   3.977 -0.2270 -0.2901  0.5541
 2369TIP3    H2 7072   4.951   1.494   3.905 -0.0515 -0.3908  0.3627
 2370TIP3   OH2 7073   5.133   0.399   0.656 -0.0991 -0.5333  0.1640
 2370TIP3    H1 7074   5.048   0.358   0.669 -0.0482 -0.5856  0.3338
 2370TIP3    H2 7075   5.117   0.470   0.593 -0.6032  0.5775  1.5071
 2371TIP3   OH2 7076   2.714   0.040   5.103  0.5658  0.1977 -0.4515
 2371TIP3    H1 7077   2.709  -0.048   5.140  1.8016  0.0842 -0.5135
 2371TIP3    H2 7078   2.636   0.047   5.047 -0.5592 -0.1498  1.0032
 2372TIP3   OH2 7079   4.389   4.818   5.212  0.0147  0.3993  0.0562
 2372TIP3    H1 7080   4.476   4.855   5.229  0.5152 -0.7705  0.1940
 2372TIP3    H2 7081   4.336   4.892   5.184  1.5501  0.8958 -1.8313
 2373TIP3   OH2 7082   0.987   4.655   3.146  0.7364  0.4017  0.4045
 2373TIP3    H1 7083   0.944   4.740   3.155 -1.2252 -0.5223  0.2610
 2373TIP3    H2 7084   1.025   4.638   3.233 -0.1208  0.7870  0.8697
 2374TIP3   OH2 7085   1.177   3.276   1.512  0.4110 -0.1638  0.0508
 2374TIP3    H1 7086   1.230   3.312   1.441 -0.5078  0.3519 -0.4008
 2374TIP3    H2 7087   1.112   3.222   1.468 -1.1674  1.4083  0.3097
 2375TIP3   OH2 7088   1.526   4.887   5.369 -0.2496  0.0540 -0.2579
 2375TIP3    H1 7089   1.487   4.956   5.316 -0.7311  1.2975  1.6060
 2375TIP3    H2 7090   1.544   4.816   5.307 -0.1874  1.6495 -2.1518
 2376TIP3   OH2 7091   4.171   5.163   5.619  0.4015  0.2437  0.5022
 2376TIP3    H1 7092   4.227   5.089   5.644  0.6483  0.4965  0.7095
 2376TIP3    H2 7093   4.226   5.240   5.633  0.1301  0.4695  0.3315
 2377TIP3   OH2 7094   2.277   1.190   1.593 -0.5227 -0.3897 -0.0246
 2377TIP3    H1 7095   2.360   1.218   1.555  0.4695 -0.7240  1.7946
 2377TIP3    H2 7096   2.211   1.235   1.542  0.7979  0.3921 -1.1071
 2378TIP3   OH2 7097   4.144   1.778   5.736 -0.2515 -0.1237  0.2713
 2378TIP3    H1 7098   4.201   1.797   5.661  0.7750  1.4006  1.3830
 2378TIP3    H2 7099   4.083   1.712   5.703 -0.3010  1.0028 -2.1270
 2379TIP3   OH2 7100   1.863   2.795   3.544 -0.8101  0.5172 -0.0857
 2379TIP3    H1 7101   1.858   2.728   3.611  2.4807  0.6411  0.4820
 2379TIP3    H2 7102   1.865   2.747   3.461  1.7953 -0.2457  0.3264
 2380TIP3   OH2 7103   3.508   5.817   0.330 -0.2593 -0.1836 -0.2144
 2380TIP3    H1 7104   3.466   5.761   0.264  0.3640  0.4949 -1.1969
 2380TIP3    H2 7105   3.531   5.897   0.283  0.2853  0.2722  0.8065
 2381TIP3   OH2 7106   1.181   5.522   3.469 -0.0628 -0.0983  0.1527
 2381TIP3    H1 7107   1.234   5.594   3.435  1.8134 -1.4061  0.1784
 2381TIP3    H2 7108   1.150   5.553   3.554  1.2078  0.4588  0.4311
 2382TIP3   OH2 7109   2.443   0.915   0.063 -0.0123 -0.4376 -0.2954
 2382TIP3    H1 7110   2.530   0.879   0.043  0.3439  0.2296  0.0281
 2382TIP3    H2 7111   2.454   1.009   0.057 -0.2229 -0.2464  1.6287
 2383TIP3   OH2 7112   5.729   2.584   2.639 -0.0450  0.6543 -0.2490
 2383TIP3    H1 7113   5.676   2.556   2.564  0.2940  1.4705 -0.8143
 2383TIP3    H2 7114   5.683   2.550   2.715 -1.0861  0.8847 -0.7600
 2384TIP3   OH2 7115   6.262   5.409   0.308 -0.5326  0.4841 -0.5990
 2384TIP3    H1 7116   6.267   5.432   0.401 -1.4031  2.0410 -0.8991
 2384TIP3    H2 7117   6.238   5.316   0.307  0.4865  0.1850  0.7140
 2385TIP3   OH2 7118   4.372   5.844   2.394 -0.2453 -0.4734  0.3185
 2385TIP3    H1 7119   4.391   5.754   2.369 -1.7157 -0.4662 -0.9154
 2385TIP3    H2 7120   4.407   5.852   2.483  0.5398 -2.0325  0.1734
 2386TIP3   OH2 7121   1.398   4.067   4.658 -0.1609 -0.1552  0.2084
 2386TIP3    H1 7122   1.419   3.997   4.596  1.5506  0.1855  0.3781
 2386TIP3    H2 7123   1.456   4.139   4.635  0.5549 -0.0419  2.2234
 2387TIP3   OH2 7124   1.719   2.150   3.599 -0.4858 -0.2162  0.7135
 2387TIP3    H1 7125   1.718   2.217   3.667  0.0044  0.7036 -0.1545
 2387TIP3    H2 7126   1.806   2.157   3.559  0.1356 -2.4176  1.5818
 2388TIP3   OH2 7127   1.207   0.546   4.818  0.0114  0.5338  0.0592
 2388TIP3    H1 7128   1.162   0.462   4.830  0.0069  0.1413 -2.1804
 2388TIP3    H2 7129   1.275   0.527   4.753  0.7106  2.0421  0.3159
 2389TIP3   OH2 7130   0.197   5.818   4.333  0.8739 -0.4419  0.7171
 2389TIP3    H1 7131   0.271   5.783   4.284  1.8754  0.1687  1.7503
 2389TIP3    H2 7132   0.183   5.906   4.298  0.2687 -0.7455  0.1603
 2390TIP3   OH2 7133   1.839   6.185   1.695 -0.2910  0.4212  0.1427
 2390TIP3    H1 7134   1.840   6.173   1.790 -1.8282 -0.7531  0.0476
 2390TIP3    H2 7135   1.749   6.211   1.675  0.4653  2.5269 -0.8324
 2391TIP3   OH2 7136   0.678   0.608   2.747  0.1878  0.1477 -0.1258
 2391TIP3    H1 7137   0.739   0.672   2.711 -0.1164  0.3242 -0.3268
 2391TIP3    H2 7138   0.625   0.657   2.810  0.6865 -0.1484  0.5329
 2392TIP3   OH2 7139   6.727   3.206   0.685 -0.2277  0.0489 -0.0632
 2392TIP3    H1 7140   6.665   3.169   0.622 -0.5492 -0.3776  0.4966
 2392TIP3    H2 7141   6.810   3.209   0.638 -0.7987  1.2519 -1.0552
 2393TIP3   OH2 7142   5.894   0.678   1.167  0.2588  0.1321  0.3367
 2393TIP3    H1 7143   5.907   0.771   1.186  0.6892  0.1832 -0.1753
 2393TIP3    H2 7144   5.799   0.666   1.169  0.2549  0.0272  2.9114
 2394TIP3   OH2 7145   5.938   3.644   2.062  0.7077  0.5795 -0.4853
 2394TIP3    H1 7146   5.947   3.619   2.154  0.1329 -0.2404 -0.6370
 2394TIP3    H2 7147   5.848   3.678   2.056  0.3851 -0.3357 -0.9488
 2395TIP3   OH2 7148   7.155   5.254   3.516 -0.2409  0.3496 -0.1698
 2395TIP3    H1 7149   7.121   5.290   3.434  0.1002 -1.6269 -1.2449
 2395TIP3    H2 7150   7.242   5.220   3.493  0.1623  0.4046  1.1917
 2396TIP3   OH2 7151   6.124   6.555   3.018  0.3678  0.1196  0.5063
 2396TIP3    H1 7152   6.048   6.519   3.064  0.6876 -0.6789  0.4296
 2396TIP3    H2 7153   6.197   6.499   3.044  0.9680  0.9652  0.6938
 2397TIP3   OH2 7154   4.418   6.484   0.909 -0.6791 -0.1020  0.2920
 2397TIP3    H1 7155   4.417   6.458   0.817  3.7332  2.0329 -0.6462
 2397TIP3    H2 7156   4.380   6.571   0.910  0.9403  0.6486  0.0402
 2398TIP3   OH2 7157   6.708   2.747   4.228 -0.4293 -0.5375 -0.0233
 2398TIP3    H1 7158   6.673   2.734   4.316 -0.7932 -0.9775 -0.2299
 2398TIP3    H2 7159   6.748   2.834   4.231 -1.5142 -0.0311  0.2254
 2399TIP3   OH2 7160   1.178   1.692   5.742  0.3863 -0.6082 -0.1155
 2399TIP3    H1 7161   1.089   1.727   5.747  0.0149 -1.4239 -0.8485
 2399TIP3    H2 7162   1.198   1.664   5.831 -0.7734 -2.0231 -0.2604
 2400TIP3   OH2 7163   6.347   6.724   2.300 -0.3467  0.2135 -0.3688
 2400TIP3    H1 7164   6.289   6.707   2.225 -0.4632  2.9729 -1.0132
 2400TIP3    H2 7165   6.403   6.795   2.271  2.4938 -1.4179  0.7710
 2401TIP3   OH2 7166   5.903   1.776   3.013  0.2923  0.5180 -0.1896
 2401TIP3    H1 7167   5.940   1.838   3.075  0.5820  1.2423 -1.0656
 2401TIP3    H2 7168   5.949   1.694   3.031  0.2757  0.6836  0.6341
 2402TIP3   OH2 7169   5.551   6.388   3.434  0.1072  0.1970 -0.1205
 2402TIP3    H1 7170   5.571   6.336   3.512  0.3878  0.3112 -0.1153
 2402TIP3    H2 7171   5.604   6.467   3.444 -1.1528  1.0057  0.4355
 2403TIP3   OH2 7172   3.352   6.611   0.338  0.3023 -0.0112 -0.2276
 2403TIP3    H1 7173   3.442   6.642   0.328 -0.0697  0.5909 -2.4154
 2403TIP3    H2 7174   3.329   6.578   0.251 -2.2446  1.7549 -0.3418
 2404TIP3   OH2 7175   0.490   4.895   5.617  0.2957 -1.0301 -0.2798
 2404TIP3    H1 7176   0.582   4.867   5.611  0.8189  0.3483  0.7366
 2404TIP3    H2 7177   0.494   4.981   5.660 -1.3833 -0.3821 -1.3265
 2405TIP3   OH2 7178   7.052   2.337   5.616  0.3149 -0.4491  0.3018
 2405TIP3    H1 7179   7.119   2.269   5.604  0.3486 -0.2478 -0.8043
 2405TIP3    H2 7180   7.019   2.354   5.527 -1.4669 -0.7927  0.8599
 2406TIP3   OH2 7181   3.080   5.019   1.985  0.3525  0.2131 -0.4663
 2406TIP3    H1 7182   3.093   4.987   2.074  0.9842  0.6207 -0.3984
 2406TIP3    H2 7183   3.041   5.106   1.996  2.9441  1.4836 -0.4371
 2407TIP3   OH2 7184   2.474   0.985   4.245 -0.5074 -0.8619 -0.0536
 2407TIP3    H1 7185   2.558   0.940   4.245  0.2714  0.5371 -0.0111
 2407TIP3    H2 7186   2.413   0.922   4.284 -0.0180 -2.8026 -2.1900
 2408TIP3   OH2 7187   1.951   5.384   3.090 -0.7156 -0.0167 -0.3940
 2408TIP3    H1 7188   1.858   5.398   3.104 -1.4438 -1.8782 -2.7117
 2408TIP3    H2 7189   1.961   5.289   3.083  1.3481  0.1445 -0.3519
 2409TIP3   OH2 7190   5.361   4.175   0.517 -0.0621  0.1938  0.2187
 2409TIP3    H1 7191   5.388   4.095   0.472  0.3371  0.2867  0.2936
 2409TIP3    H2 7192   5.395   4.166   0.606  0.4235  0.6721  0.0857
 2410TIP3   OH2 7193   5.402   4.786   0.097  0.5325 -0.4563 -0.3454
 2410TIP3    H1 7194   5.423   4.823   0.012  0.5964  0.7572  0.1673
 2410TIP3    H2 7195   5.449   4.842   0.160  2.2269 -2.6033  0.3965
 2411TIP3   OH2 7196   7.165   1.973   4.597  0.4897  0.5763  0.6263
 2411TIP3    H1 7197   7.212   1.993   4.516  0.3591 -1.1752  0.0743
 2411TIP3    H2 7198   7.112   2.051   4.614  0.6842  1.0676 -0.8602
 2412TIP3   OH2 7199   6.828   5.059   4.648  0.0790  0.0451  0.2069
 2412TIP3    H1 7200   6.824   4.989   4.583  1.5008  0.4154 -0.3232
 2412TIP3    H2 7201   6.897   5.117   4.615 -0.7605  1.4582  0.8575
 2413TIP3   OH2 7202   6.198   1.074   4.438  0.8292  0.2098 -0.0684
 2413TIP3    H1 7203   6.155   1.139   4.382  2.3788  0.2909 -1.2300
 2413TIP3    H2 7204   6.161   0.990   4.409  0.8142  0.3471 -0.4548
 2414TIP3   OH2 7205   4.203   2.702   0.260  0.0961  0.0537  0.0354
 2414TIP3    H1 7206   4.283   2.701   0.312  1.2618  1.7304 -1.5863
 2414TIP3    H2 7207   4.232   2.685   0.171 -1.2415  1.4398 -0.7123
 2415TIP3   OH2 7208   2.791   4.258   2.092  0.2322 -0.0219  0.1841
 2415TIP3    H1 7209   2.884   4.238   2.094  0.0377 -0.9278  0.5274
 2415TIP3    H2 7210   2.770   4.267   1.999  1.0968  2.4304  0.1442
 2416TIP3   OH2 7211   3.263   1.760   5.918  0.5735 -0.1929 -0.2094
 2416TIP3    H1 7212   3.168   1.771   5.914  0.2758 -2.4618 -0.2882
 2416TIP3    H2 7213   3.292   1.757   5.827  0.5875 -0.4459 -0.1978
 2417TIP3   OH2 7214   6.164   2.435   0.127 -0.2258  0.2480  0.1223
 2417TIP3    H1 7215   6.197   2.490   0.056 -0.4761 -0.6291 -0.7055
 2417TIP3    H2 7216   6.211   2.352   0.116  0.9113  0.5860  1.9623
 2418TIP3   OH2 7217   1.382   3.426   4.101 -0.0928  0.0955  0.6929
 2418TIP3    H1 7218   1.353   3.339   4.130  0.5069 -0.1885  0.4778
 2418TIP3    H2 7219   1.374   3.422   4.005 -1.3231  0.7506  0.7452
 2419TIP3   OH2 7220   6.352   2.247   3.087  0.2030  0.7205 -0.3968
 2419TIP3    H1 7221   6.288   2.199   3.140 -0.4499  1.1553 -0.7941
 2419TIP3    H2 7222   6.432   2.194   3.094 -0.3464 -0.1275 -0.3573
 2420TIP3   OH2 7223   3.581   3.549   2.378 -0.1527 -0.0445 -0.1850
 2420TIP3    H1 7224   3.571   3.642   2.359  0.2777  0.2464  0.9353
 2420TIP3    H2 7225   3.586   3.544   2.474  0.6856 -1.1234 -0.2551
 2421TIP3   OH2 7226   3.023   3.267   2.355 -0.1184  0.0082  0.2253
 2421TIP3    H1 7227   2.950   3.261   2.417 -0.8466 -0.5781 -0.6619
 2421TIP3    H2 7228   2.984   3.297   2.273  0.7901  0.5418 -0.0316
 2422TIP3   OH2 7229   7.191   6.537   5.281 -0.2771 -1.0969  0.1422
 2422TIP3    H1 7230   7.274   6.582   5.267 -0.6577 -0.5206 -0.2770
 2422TIP3    H2 7231   7.209   6.477   5.353  0.2032 -0.2080  0.7824
 2423TIP3   OH2 7232   6.777   3.038   2.377 -0.2043  0.1681 -0.2354
 2423TIP3    H1 7233   6.709   2.973   2.390 -2.5073  2.4572  0.0843
 2423TIP3    H2 7234   6.729   3.121   2.367  2.5547  2.0435  0.7794
 2424TIP3   OH2 7235   2.057   5.902   4.576  0.4389 -0.5394  0.2233
 2424TIP3    H1 7236   2.147   5.895   4.608  0.2073 -2.3193  0.5712
 2424TIP3    H2 7237   2.066   5.923   4.483  1.3419 -3.5277 -0.4693
 2425TIP3   OH2 7238   5.619   6.628   1.065 -0.3521  0.5792  0.5349
 2425TIP3    H1 7239   5.653   6.717   1.059 -0.8616  0.7481  0.1167
 2425TIP3    H2 7240   5.585   6.622   1.154 -1.8872  1.3889  0.0390
 2426TIP3   OH2 7241   6.725   0.606   2.415 -0.8908 -0.2342 -0.1396
 2426TIP3    H1 7242   6.770   0.567   2.490  1.5696  2.3553 -0.0500
 2426TIP3    H2 7243   6.721   0.536   2.350  0.8183 -1.4046  0.9137
 2427TIP3   OH2 7244   5.770   6.058   5.101  0.5214 -0.3497 -0.5014
 2427TIP3    H1 7245   5.728   6.054   5.016  0.8663  0.7011 -0.7456
 2427TIP3    H2 7246   5.771   5.968   5.132 -2.6953 -0.3431 -0.0553
 2428TIP3   OH2 7247   6.208   2.005   2.895 -0.1019 -0.5030  0.0712
 2428TIP3    H1 7248   6.265   2.041   2.963 -0.9277  0.1982  0.4007
 2428TIP3    H2 7249   6.184   1.918   2.927  0.3749 -0.6071  0.1586
 2429TIP3   OH2 7250   2.534   2.985   2.650  0.2094  0.3065 -0.0490
 2429TIP3    H1 7251   2.598   2.947   2.590  0.1045  1.3802 -0.8784
 2429TIP3    H2 7252   2.516   2.915   2.714  0.5142 -0.7714 -1.1094
 2430TIP3   OH2 7253   2.476   4.135   0.169 -0.4187 -0.0003 -0.3002
 2430TIP3    H1 7254   2.414   4.062   0.170 -0.1808 -0.1976  0.7326
 2430TIP3    H2 7255   2.562   4.093   0.172 -0.2627  0.2811  3.4875
 2431TIP3   OH2 7256   4.276   2.327   4.221 -0.4068 -0.0369  0.3753
 2431TIP3    H1 7257   4.356   2.367   4.254  0.6249 -1.0204 -0.8213
 2431TIP3    H2 7258   4.262   2.251   4.277 -0.7003  0.3324  0.8027
 2432TIP3   OH2 7259   2.663   1.958   0.490 -0.5302 -0.5542 -0.1538
 2432TIP3    H1 7260   2.614   1.993   0.564 -0.4615  1.5270 -1.0261
 2432TIP3    H2 7261   2.740   1.917   0.529 -0.8353 -0.1033  0.9651
 2433TIP3   OH2 7262   5.161   1.005   3.394 -0.2290  0.0475 -0.0502
 2433TIP3    H1 7263   5.105   0.931   3.372 -1.1561  0.6236  0.3074
 2433TIP3    H2 7264   5.208   0.976   3.472  1.4736 -1.1789 -1.4375
 2434TIP3   OH2 7265   2.686   4.360   0.136  0.2074  0.1845 -0.0971
 2434TIP3    H1 7266   2.613   4.301   0.152 -0.1295  0.9105  1.2254
 2434TIP3    H2 7267   2.676   4.388   0.045 -0.4819 -0.6178 -0.2732
 2435TIP3   OH2 7268   6.367   6.315   4.047 -0.0511 -0.5807  0.5270
 2435TIP3    H1 7269   6.407   6.366   3.976  0.5024 -2.1817 -0.3389
 2435TIP3    H2 7270   6.345   6.381   4.113  0.5897  0.7959 -0.5733
 2436TIP3   OH2 7271   7.130   4.521   3.280 -0.2041  0.3601  0.1312
 2436TIP3    H1 7272   7.059   4.456   3.272  0.4993 -0.3116 -0.8809
 2436TIP3    H2 7273   7.183   4.508   3.202  1.8561 -0.1151  1.5256
 2437TIP3   OH2 7274   1.337   1.689   0.240  0.0538 -0.3338 -0.2673
 2437TIP3    H1 7275   1.331   1.717   0.331 -0.0887  0.2388 -0.4461
 2437TIP3    H2 7276   1.246   1.681   0.211  0.0937  0.6235 -0.6904
 2438TIP3   OH2 7277   0.231   5.193   3.948 -0.0198  0.5131 -0.0955
 2438TIP3    H1 7278   0.189   5.270   3.909 -0.4941 -0.0108 -0.6635
 2438TIP3    H2 7279   0.207   5.121   3.889  1.7332  0.1892 -0.4695
 2439TIP3   OH2 7280   5.437   2.609   0.488 -0.5187  0.0606  0.7651
 2439TIP3    H1 7281   5.351   2.582   0.457  0.0577 -0.7396 -0.1814
 2439TIP3    H2 7282   5.485   2.634   0.409  0.0846  0.6320  1.2954
 2440TIP3   OH2 7283   2.795   1.565   3.924  0.4859  0.0854  0.2377
 2440TIP3    H1 7284   2.783   1.659   3.910  0.7740 -0.0782 -1.3852
 2440TIP3    H2 7285   2.723   1.540   3.981 -0.9681  0.9161 -1.1276
 2441TIP3   OH2 7286   1.238   6.245   0.193 -0.3698  0.3053  0.1583
 2441TIP3    H1 7287   1.226   6.323   0.139 -0.0990 -0.3090 -0.8073
 2441TIP3    H2 7288   1.284   6.277   0.270 -0.6656  1.1798 -0.0080
 2442TIP3   OH2 7289   6.164   1.593   1.516 -0.1674 -0.1319 -0.1653
 2442TIP3    H1 7290   6.183   1.539   1.439  1.3259 -0.1692  0.2039
 2442TIP3    H2 7291   6.240   1.651   1.525  0.3293 -1.0061  2.0051
 2443TIP3   OH2 7292   3.028   4.508   5.290 -0.0231  0.0300  0.2654
 2443TIP3    H1 7293   2.973   4.575   5.252  1.2422  1.9240  1.6104
 2443TIP3    H2 7294   3.112   4.517   5.245  0.2044 -0.6080  0.5412
 2444TIP3   OH2 7295   2.623   2.340   3.607  0.3533 -0.3866 -0.2796
 2444TIP3    H1 7296   2.649   2.423   3.646 -0.8213 -0.1237 -0.0163
 2444TIP3    H2 7297   2.622   2.278   3.680 -0.7796 -0.1443 -0.0714
 2445TIP3   OH2 7298   6.679   3.714   3.013 -0.1715 -0.4848 -0.4174
 2445TIP3    H1 7299   6.609   3.649   3.002  1.0277 -1.5687 -2.2170
 2445TIP3    H2 7300   6.663   3.777   2.943  0.4120 -0.5276 -0.5931
 2446TIP3   OH2 7301   0.196   6.332   4.131 -0.7530 -0.4383  0.1747
 2446TIP3    H1 7302   0.285   6.368   4.135 -1.3020  1.0734 -0.4708
 2446TIP3    H2 7303   0.209   6.237   4.127  0.8844 -0.2130 -1.0492
 2447TIP3   OH2 7304   0.504   5.235   1.583  0.4798  0.0952  0.9292
 2447TIP3    H1 7305   0.548   5.304   1.533 -0.6434 -0.4431 -0.8483
 2447TIP3    H2 7306   0.544   5.154   1.553  1.2237 -0.1419  2.4307
 2448TIP3   OH2 7307   6.233   2.206   3.796 -0.1679 -0.0170 -0.1591
 2448TIP3    H1 7308   6.177   2.146   3.746 -1.5209  0.3753  0.8273
 2448TIP3    H2 7309   6.228   2.289   3.748 -2.5243  0.7406  1.1994
 2449TIP3   OH2 7310   4.364   5.573   3.860  0.2915 -0.5112  0.5833
 2449TIP3    H1 7311   4.380   5.498   3.802 -1.4297 -0.5266  0.0740
 2449TIP3    H2 7312   4.360   5.535   3.948 -1.9799 -1.3070  0.2011
 2450TIP3   OH2 7313   2.900   3.642   1.341 -0.3603  0.5898  0.3874
 2450TIP3    H1 7314   2.860   3.600   1.265 -2.0547  1.2242  0.8673
 2450TIP3    H2 7315   2.840   3.621   1.414  1.5764 -0.6117  1.7350
 2451TIP3   OH2 7316   5.688   1.453   1.583  0.0694 -0.2334  0.0842
 2451TIP3    H1 7317   5.703   1.501   1.502 -1.3503  0.3552  0.1529
 2451TIP3    H2 7318   5.622   1.503   1.629  2.1031  0.4473  2.4983
 2452TIP3   OH2 7319   0.646   5.374   0.415 -0.3719 -0.2310 -0.7785
 2452TIP3    H1 7320   0.737   5.401   0.402 -0.0336  0.2725  2.0560
 2452TIP3    H2 7321   0.618   5.342   0.329  2.9260 -1.7813 -1.4285
 2453TIP3   OH2 7322   0.091   5.403   3.741  0.4353 -0.5642 -0.1352
 2453TIP3    H1 7323   0.046   5.485   3.720  1.5371 -0.5361 -2.7936
 2453TIP3    H2 7324   0.053   5.338   3.681 -0.2340 -1.9944  1.7457
 2454TIP3   OH2 7325   1.606   2.054   2.899 -0.2275 -0.0657 -0.0480
 2454TIP3    H1 7326   1.537   2.078   2.961 -1.6231 -0.6551 -1.3202
 2454TIP3    H2 7327   1.599   2.120   2.830  3.1417  2.3033  1.6051
 2455TIP3   OH2 7328   0.183   3.975   5.378  0.4505  0.5607 -0.4606
 2455TIP3    H1 7329   0.223   4.061   5.391 -0.0860  1.1233 -2.2914
 2455TIP3    H2 7330   0.254   3.922   5.342  0.9485  0.0241  1.2229
 2456TIP3   OH2 7331   3.080   5.884   4.444  1.0353  0.1086 -0.7865
 2456TIP3    H1 7332   3.064   5.800   4.401  0.5979 -0.3812  0.3133
 2456TIP3    H2 7333   3.137   5.862   4.518  0.1957  0.6429  0.0254
 2457TIP3   OH2 7334   4.965   4.645   0.204  0.1692  0.6169 -1.0030
 2457TIP3    H1 7335   5.035   4.688   0.154  0.6001  2.3738  0.9488
 2457TIP3    H2 7336   5.005   4.625   0.288 -1.5782  1.4168  0.0652
 2458TIP3   OH2 7337   5.279   0.722   5.757  0.0082 -0.1656  0.1577
 2458TIP3    H1 7338   5.249   0.813   5.763  0.9897  0.1141  1.1139
 2458TIP3    H2 7339   5.211   0.671   5.801 -2.1680 -0.3618 -3.0319
 2459TIP3   OH2 7340   6.678   0.865   4.615  1.0962  0.1799  0.3179
 2459TIP3    H1 7341   6.666   0.786   4.562 -0.3491  1.3146 -1.1492
 2459TIP3    H2 7342   6.649   0.839   4.703 -0.8469 -0.5466 -0.4693
 2460TIP3   OH2 7343   6.898   3.824   4.856  0.0312 -0.2006 -0.3248
 2460TIP3    H1 7344   6.825   3.818   4.794  0.4494 -2.0211 -0.6943
 2460TIP3    H2 7345   6.856   3.821   4.942 -0.3599 -1.2306 -0.5311
 2461TIP3   OH2 7346   2.384   5.286   4.121  0.1945 -0.1123 -0.2903
 2461TIP3    H1 7347   2.309   5.231   4.144  0.4393  0.1898  1.3544
 2461TIP3    H2 7348   2.381   5.292   4.025 -2.6290  0.9562 -0.2062
 2462TIP3   OH2 7349   0.855   1.836   0.424  0.0505  0.0449  0.2719
 2462TIP3    H1 7350   0.815   1.840   0.511 -2.0229 -1.7287 -0.5072
 2462TIP3    H2 7351   0.854   1.927   0.393 -1.8929  0.3272  0.9981
 2463TIP3   OH2 7352   3.799   4.317   2.462  0.4481  0.3465 -0.0584
 2463TIP3    H1 7353   3.807   4.270   2.379  0.6518  1.1041 -0.4792
 2463TIP3    H2 7354   3.743   4.262   2.516  2.5448 -1.5625  0.3297
 2464TIP3   OH2 7355   6.484   6.752   3.208 -0.7734  0.1768  0.0655
 2464TIP3    H1 7356   6.476   6.773   3.301  0.4740 -2.3968  0.8675
 2464TIP3    H2 7357   6.536   6.672   3.207  1.3156  1.3957 -3.0038
 2465TIP3   OH2 7358   3.703   4.574   0.369 -0.0679  0.1831  0.4647
 2465TIP3    H1 7359   3.645   4.554   0.295 -0.8401  1.7221  0.6104
 2465TIP3    H2 7360   3.754   4.650   0.340  0.5663 -0.0156  1.0342
 2466TIP3   OH2 7361   0.524   5.107   2.938  0.1051 -0.6461  0.1258
 2466TIP3    H1 7362   0.430   5.096   2.926  0.4110 -0.5957 -3.2432
 2466TIP3    H2 7363   0.559   5.018   2.942 -0.0254 -0.6649  1.0113
 2467TIP3   OH2 7364   6.281   2.889   4.044 -0.0935 -0.2757  0.0836
 2467TIP3    H1 7365   6.240   2.915   3.961  0.7213 -1.2574 -0.6529
 2467TIP3    H2 7366   6.375   2.891   4.026  0.0626 -1.6282  0.6080
 2468TIP3   OH2 7367   1.533   3.864   4.831  0.3848  0.4740 -0.1163
 2468TIP3    H1 7368   1.475   3.811   4.885  1.2503  0.8150  1.1722
 2468TIP3    H2 7369   1.473   3.915   4.776 -0.4968 -0.1162  0.2680
 2469TIP3   OH2 7370   7.196   5.456   5.543  0.0251  0.0909 -0.3114
 2469TIP3    H1 7371   7.249   5.478   5.620 -0.7103  1.1201 -0.0809
 2469TIP3    H2 7372   7.131   5.393   5.576 -1.1685  1.5743  0.2652
 2470TIP3   OH2 7373   6.019   6.686   3.760  0.1404  0.3048 -0.4279
 2470TIP3    H1 7374   6.011   6.643   3.675  1.0125  1.3136 -1.0456
 2470TIP3    H2 7375   5.961   6.636   3.818 -1.0840  0.0696 -1.7910
 2471TIP3   OH2 7376   4.400   4.877   1.680  0.5108 -0.2129  0.5227
 2471TIP3    H1 7377   4.351   4.941   1.732  0.4115 -0.8328  1.2117
 2471TIP3    H2 7378   4.429   4.926   1.603  1.3938  0.9569  1.5548
 2472TIP3   OH2 7379   0.725   4.517   5.681 -0.0904  0.1266 -0.3034
 2472TIP3    H1 7380   0.630   4.521   5.695 -0.0980  1.5536 -0.6606
 2472TIP3    H2 7381   0.761   4.493   5.766 -0.6868  0.8729  0.1686
 2473TIP3   OH2 7382   0.646   3.998   3.101  0.1058 -0.2558  0.2237
 2473TIP3    H1 7383   0.577   4.055   3.135  0.7241  0.6493 -0.0107
 2473TIP3    H2 7384   0.618   3.909   3.125 -0.6692  0.1718  0.9542
 2474TIP3   OH2 7385   3.953   2.288   3.984  0.5003  0.0653  0.2987
 2474TIP3    H1 7386   3.951   2.369   4.034  0.8117  0.3719 -0.1849
 2474TIP3    H2 7387   4.043   2.256   3.993  0.0473 -0.9296  1.5949
 2475TIP3   OH2 7388   3.479   6.308   0.476 -0.2136 -0.4606 -0.1051
 2475TIP3    H1 7389   3.413   6.293   0.545 -0.9515  0.4868 -0.5771
 2475TIP3    H2 7390   3.435   6.283   0.395 -0.2450  0.8094 -0.4999
 2476TIP3   OH2 7391   5.981   4.577   5.872  0.0645  0.7058 -0.8425
 2476TIP3    H1 7392   5.916   4.588   5.941  1.5186  0.7021  0.6187
 2476TIP3    H2 7393   5.955   4.638   5.803 -1.7569  0.3022 -0.5561
 2477TIP3   OH2 7394   5.245   6.613   5.124 -0.3111  0.3984 -0.1156
 2477TIP3    H1 7395   5.309   6.543   5.111  0.3191  0.6326  1.4699
 2477TIP3    H2 7396   5.168   6.568   5.158  0.3823  0.5229  1.7143
 2478TIP3   OH2 7397   5.039   4.206   3.261  0.0667 -0.1235 -0.6954
 2478TIP3    H1 7398   5.033   4.230   3.353  0.6511 -0.0938 -0.6655
 2478TIP3    H2 7399   5.114   4.147   3.256 -0.1637 -0.3900 -1.0989
 2479TIP3   OH2 7400   5.404   3.028   4.161 -0.1167  0.0719  0.1515
 2479TIP3    H1 7401   5.473   3.035   4.095 -0.5492  1.7423 -0.1768
 2479TIP3    H2 7402   5.442   3.068   4.239  0.6734 -2.5868  1.2311
 2480TIP3   OH2 7403   6.714   4.872   1.304  0.0212 -0.2307  0.5783
 2480TIP3    H1 7404   6.634   4.905   1.345 -0.1528  1.1498 -0.7882
 2480TIP3    H2 7405   6.775   4.946   1.307  0.8691 -0.9153  0.6064
 2481TIP3   OH2 7406   5.036   4.037   4.098 -0.5036 -0.3986 -0.6803
 2481TIP3    H1 7407   4.957   4.085   4.125  1.4554  2.7879 -0.2129
 2481TIP3    H2 7408   5.062   4.077   4.016  1.9902  0.4161  0.4229
 2482TIP3   OH2 7409   3.386   1.467   0.505 -0.4401  0.1125  0.6452
 2482TIP3    H1 7410   3.461   1.514   0.469  0.3815 -1.4025  0.2526
 2482TIP3    H2 7411   3.310   1.505   0.462  0.4184 -0.9356 -2.0035
 2483TIP3   OH2 7412   1.449   5.275   5.203  0.2407  0.2849 -0.5688
 2483TIP3    H1 7413   1.470   5.305   5.292  0.6726 -0.3152 -0.4529
 2483TIP3    H2 7414   1.500   5.332   5.146  1.6644 -0.6674 -0.3176
 2484TIP3   OH2 7415   6.584   0.071   1.068 -0.0072 -0.0233  0.4203
 2484TIP3    H1 7416   6.548   0.146   1.116  1.4185  0.0731  1.4059
 2484TIP3    H2 7417   6.525  -0.001   1.089 -0.4417  0.4362  0.8206
 2485TIP3   OH2 7418   4.738   1.077   5.166  0.5882  0.4981  0.4564
 2485TIP3    H1 7419   4.824   1.045   5.191  0.3629 -0.0090  0.6066
 2485TIP3    H2 7420   4.743   1.172   5.177  0.7537  0.3750  1.6496
 2486TIP3   OH2 7421   5.934   5.408   2.176 -0.0757 -0.0331  0.0329
 2486TIP3    H1 7422   5.954   5.412   2.270 -0.8042 -0.1246  0.1959
 2486TIP3    H2 7423   5.998   5.346   2.141  1.1263  1.0655  0.2150
 2487TIP3   OH2 7424   3.792   6.221   1.841  0.0612  0.0777  0.7371
 2487TIP3    H1 7425   3.829   6.181   1.919  1.6677  0.6656  0.3062
 2487TIP3    H2 7426   3.844   6.300   1.826  0.8665 -0.8133 -1.7936
 2488TIP3   OH2 7427   0.276   2.924   1.607 -0.2538 -0.0203 -0.1140
 2488TIP3    H1 7428   0.208   2.858   1.620  0.2009 -0.3416  0.7168
 2488TIP3    H2 7429   0.277   2.974   1.689 -1.0964  1.5195 -0.9996
 2489TIP3   OH2 7430   4.735   1.437   1.109  0.0399 -0.3587 -0.2849
 2489TIP3    H1 7431   4.721   1.354   1.154  1.6379  0.1102  1.1701
 2489TIP3    H2 7432   4.814   1.473   1.148 -0.4109  1.6998 -1.1269
 2490TIP3   OH2 7433   3.298   4.497   4.094  0.7125 -0.1876  0.2781
 2490TIP3    H1 7434   3.366   4.435   4.124 -0.1022  0.1855  3.2221
 2490TIP3    H2 7435   3.218   4.467   4.137 -0.4493  0.9506 -1.0051
 2491TIP3   OH2 7436   1.431   5.328   2.631  0.5519  0.1081  0.5740
 2491TIP3    H1 7437   1.366   5.369   2.575  1.5399  0.5236 -0.3057
 2491TIP3    H2 7438   1.382   5.297   2.707 -0.7375 -0.0401 -0.2939
 2492TIP3   OH2 7439   0.493   6.122   4.946  0.3061  0.7464  0.3754
 2492TIP3    H1 7440   0.432   6.171   4.892 -0.3820  0.0256  0.4828
 2492TIP3    H2 7441   0.462   6.134   5.035 -0.6050 -0.8519  0.3071
 2493TIP3   OH2 7442   2.886   6.347   4.630  0.4152  0.0806 -0.3839
 2493TIP3    H1 7443   2.880   6.416   4.564 -0.8450 -0.1015 -0.4808
 2493TIP3    H2 7444   2.796   6.314   4.639  0.2273  1.0421  2.4319
 2494TIP3   OH2 7445   5.826   6.503   3.162 -0.5748 -0.1325 -0.2161
 2494TIP3    H1 7446   5.828   6.588   3.118 -2.4718 -0.2945 -0.7378
 2494TIP3    H2 7447   5.801   6.523   3.252 -3.1039 -0.2051 -0.8208
 2495TIP3   OH2 7448   1.988   2.457   4.970 -0.1489  0.2502 -0.5010
 2495TIP3    H1 7449   1.916   2.410   4.929 -0.6242  0.8190 -0.3264
 2495TIP3    H2 7450   1.961   2.549   4.970 -0.6606  0.1656  2.0442
 2496TIP3   OH2 7451   0.160   0.557   5.151  0.1650 -0.6785  0.0691
 2496TIP3    H1 7452   0.096   0.618   5.114 -0.5085 -2.2540 -1.5112
 2496TIP3    H2 7453   0.192   0.601   5.230 -1.2603  1.1081 -0.2781
 2497TIP3   OH2 7454   4.140   4.343   4.260 -0.2649 -0.2146  0.1104
 2497TIP3    H1 7455   4.225   4.308   4.285 -0.0090  0.1304 -0.2570
 2497TIP3    H2 7456   4.122   4.304   4.174  0.1784  0.7912 -0.4569
 2498TIP3   OH2 7457   3.722   2.789   4.439  0.3301 -0.2764  0.8397
 2498TIP3    H1 7458   3.786   2.735   4.485  2.2173  1.3437  0.2603
 2498TIP3    H2 7459   3.687   2.848   4.506  2.3732  1.4320  0.5241
 2499TIP3   OH2 7460   1.899   4.611   2.397 -0.4325  0.2912  0.1687
 2499TIP3    H1 7461   1.824   4.655   2.358  0.5761  0.4546 -1.7185
 2499TIP3    H2 7462   1.974   4.639   2.344  0.7472 -0.9793  1.0762
 2500TIP3   OH2 7463   5.360   3.360   1.465 -0.1543  0.3096  0.4621
 2500TIP3    H1 7464   5.392   3.271   1.478  1.0161  0.6697  0.1790
 2500TIP3    H2 7465   5.411   3.393   1.391 -0.6157  1.1938  0.5280
 2501TIP3   OH2 7466   0.689   2.724   5.135 -0.3732  0.3398 -0.0540
 2501TIP3    H1 7467   0.594   2.726   5.128 -0.3097  0.3332 -1.0046
 2501TIP3    H2 7468   0.707   2.652   5.195 -0.9626  0.2466  0.0161
 2502TIP3   OH2 7469   0.272   5.156   1.352 -0.0243  0.1565 -0.3009
 2502TIP3    H1 7470   0.247   5.176   1.442  0.9270  1.5288 -0.3149
 2502TIP3    H2 7471   0.359   5.117   1.359 -0.3144 -0.5460 -0.5680
 2503TIP3   OH2 7472   0.359   6.744   0.046 -0.0299  0.4638 -0.1834
 2503TIP3    H1 7473   0.389   6.707  -0.038 -1.5991  0.8085 -0.9368
 2503TIP3    H2 7474   0.309   6.821   0.021 -0.4239  0.6387  1.1013
 2504TIP3   OH2 7475   0.904   5.625   4.491  0.6456  0.6507 -0.0379
 2504TIP3    H1 7476   0.990   5.588   4.508  0.5228  0.6779  0.6538
 2504TIP3    H2 7477   0.842   5.563   4.530  0.3393  0.5463 -0.6728
 2505TIP3   OH2 7478   3.269   6.231   0.309 -0.0592  0.6463 -0.0922
 2505TIP3    H1 7479   3.244   6.299   0.247 -0.8837 -0.2380 -0.7684
 2505TIP3    H2 7480   3.215   6.247   0.386 -0.7370  0.3747 -0.5036
 2506TIP3   OH2 7481   5.459   3.179   0.553 -0.1653 -0.0579  0.3976
 2506TIP3    H1 7482   5.366   3.173   0.575 -0.4996  0.9559 -0.6375
 2506TIP3    H2 7483   5.498   3.103   0.595 -1.2977 -0.0054  1.6289
 2507TIP3   OH2 7484   0.259   5.367   3.370  0.3413  0.3523  0.3375
 2507TIP3    H1 7485   0.239   5.273   3.376 -1.8784  0.6541 -1.1674
 2507TIP3    H2 7486   0.291   5.390   3.457 -0.4959 -1.5124  1.1954
 2508TIP3   OH2 7487   6.302   3.042   4.962  0.5304 -0.3134 -0.8088
 2508TIP3    H1 7488   6.211   3.024   4.987 -0.1834  0.9446 -2.2944
 2508TIP3    H2 7489   6.354   2.982   5.015 -0.8640  1.4184  2.8940
 2509TIP3   OH2 7490   3.486   6.572   1.924 -0.3459 -0.3017 -0.0127
 2509TIP3    H1 7491   3.505   6.478   1.924 -0.7962 -0.3941 -0.3944
 2509TIP3    H2 7492   3.399   6.579   1.962 -0.0030  0.0347  0.7371
 2510TIP3   OH2 7493   6.625   1.993   1.191  0.6276 -0.4101  0.2204
 2510TIP3    H1 7494   6.588   1.975   1.277 -0.8630 -2.4564 -0.7575
 2510TIP3    H2 7495   6.701   1.935   1.185  2.0244  1.2653  0.8954
 2511TIP3   OH2 7496   3.047   1.874   3.115 -0.6516  0.3081  0.4397
 2511TIP3    H1 7497   3.043   1.778   3.124 -1.9495  0.4010  0.9741
 2511TIP3    H2 7498   3.084   1.903   3.199 -0.3668  0.2856  0.3226
 2512TIP3   OH2 7499   0.643   6.222   2.943  0.3112  0.3752  0.0605
 2512TIP3    H1 7500   0.719   6.228   2.885  0.2652  0.7633  0.0377
 2512TIP3    H2 7501   0.572   6.191   2.886  0.6353 -0.7660  0.2556
 2513TIP3   OH2 7502   3.067   2.487   0.396  0.1322 -0.0695 -0.6805
 2513TIP3    H1 7503   3.113   2.571   0.406 -2.1129  1.1533  0.1942
 2513TIP3    H2 7504   3.058   2.476   0.301  1.6466 -0.0484 -0.8520
 2514TIP3   OH2 7505   0.774   0.907   1.095 -0.1812  0.2973  0.8104
 2514TIP3    H1 7506   0.784   0.881   1.187  5.2970 -3.1563 -0.3257
 2514TIP3    H2 7507   0.741   0.829   1.052 -1.1022  1.3501 -0.4696
 2515TIP3   OH2 7508   4.721   5.266   3.689 -0.1695 -0.1135 -0.0363
 2515TIP3    H1 7509   4.763   5.310   3.615  1.8697  0.6241  1.4719
 2515TIP3    H2 7510   4.667   5.334   3.730  1.9450  0.7448  1.5100
 2516TIP3   OH2 7511   2.805   4.856   1.501 -0.3168  0.1574 -0.2413
 2516TIP3    H1 7512   2.754   4.873   1.422  0.5107  1.5199 -0.5192
 2516TIP3    H2 7513   2.895   4.846   1.470 -0.1295 -0.3143  0.4292
 2517TIP3   OH2 7514   6.594   3.263   0.094  0.3564 -0.0189 -0.4914
 2517TIP3    H1 7515   6.636   3.262   0.008  0.2069  4.2390 -0.8545
 2517TIP3    H2 7516   6.655   3.312   0.149 -1.2466  0.7207  0.7030
 2518TIP3   OH2 7517   0.282   6.285   4.805 -0.7340 -0.2986  0.5401
 2518TIP3    H1 7518   0.227   6.220   4.760  3.1967 -2.4258 -1.7482
 2518TIP3    H2 7519   0.300   6.351   4.739  1.4685 -1.0619  0.2949
 2519TIP3   OH2 7520   5.333   4.433   3.506 -0.1205 -0.1423 -0.3948
 2519TIP3    H1 7521   5.255   4.401   3.552 -1.4695  0.4297 -2.1836
 2519TIP3    H2 7522   5.340   4.376   3.429  0.5173  0.5774 -0.8789
 2520TIP3   OH2 7523   2.564   4.531   0.391  0.4770  0.0914 -0.5326
 2520TIP3    H1 7524   2.504   4.581   0.446  0.0412 -0.1548 -0.7833
 2520TIP3    H2 7525   2.508   4.471   0.342  1.0754 -1.2377  0.3746
 2521TIP3   OH2 7526   6.895   6.214   1.305 -0.3121 -0.3136 -0.1651
 2521TIP3    H1 7527   6.961   6.155   1.270  0.0139 -0.6980  1.0356
 2521TIP3    H2 7528   6.819   6.203   1.248  0.4827 -0.2384 -1.2660
 2522TIP3   OH2 7529   1.563   2.255   4.703 -0.3846  0.0165  0.0092
 2522TIP3    H1 7530   1.474   2.287   4.716 -0.9556 -0.2564 -2.6168
 2522TIP3    H2 7531   1.614   2.334   4.683 -0.1076  0.1186  1.0672
 2523TIP3   OH2 7532   4.457   3.513   0.079  0.2572 -0.2425  0.9706
 2523TIP3    H1 7533   4.395   3.451   0.119  0.4552 -1.1668 -0.1226
 2523TIP3    H2 7534   4.486   3.470  -0.001  3.0003 -0.2192  1.8475
 2524TIP3   OH2 7535   4.559   3.949   0.708 -0.0181 -0.4024  0.3409
 2524TIP3    H1 7536   4.469   3.951   0.674 -0.7183 -1.1878  2.0382
 2524TIP3    H2 7537   4.558   3.881   0.775  2.0646 -0.9531 -0.1309
 2525TIP3   OH2 7538   6.618   5.611   1.263  0.1443 -0.0951 -0.0909
 2525TIP3    H1 7539   6.579   5.690   1.301 -1.1439  0.1099 -1.7490
 2525TIP3    H2 7540   6.679   5.644   1.196 -3.3293 -0.3476 -3.7104
 2526TIP3   OH2 7541   4.619   1.047   4.779 -0.1912 -0.0595  0.3378
 2526TIP3    H1 7542   4.634   1.000   4.861 -0.2832 -1.0360 -0.1930
 2526TIP3    H2 7543   4.640   0.984   4.710 -0.5235  0.6105 -0.4003
 2527TIP3   OH2 7544   2.377   0.075   3.640 -0.0598 -0.5378 -0.2412
 2527TIP3    H1 7545   2.399   0.039   3.555 -2.3722 -1.0652 -0.6654
 2527TIP3    H2 7546   2.288   0.045   3.658  0.3415 -0.4486  2.3694
 2528TIP3   OH2 7547   1.933   1.891   0.252  0.3925 -0.1006  0.1513
 2528TIP3    H1 7548   1.945   1.797   0.264 -2.6710 -0.5007  1.0102
 2528TIP3    H2 7549   1.925   1.903   0.157  0.5003 -0.7369  0.0630
 2529TIP3   OH2 7550   5.808   2.633   3.330  0.1410  0.0117 -0.6228
 2529TIP3    H1 7551   5.759   2.681   3.396  0.3555  0.5853 -0.8783
 2529TIP3    H2 7552   5.755   2.641   3.250 -1.0464 -2.1645 -0.1681
 2530TIP3   OH2 7553   2.130   1.208   3.093  0.8978 -0.1413  0.1463
 2530TIP3    H1 7554   2.186   1.143   3.049 -0.0809 -0.0885 -1.2242
 2530TIP3    H2 7555   2.058   1.224   3.032 -0.4313  0.0871  1.6912
 2531TIP3   OH2 7556   3.551   6.304   1.905 -0.3110 -0.6971 -0.0143
 2531TIP3    H1 7557   3.476   6.257   1.869 -0.9737  1.6542 -2.0026
 2531TIP3    H2 7558   3.625   6.275   1.852 -1.0382  1.6723 -2.5599
 2532TIP3   OH2 7559   2.712   2.598   3.685 -0.1363 -0.4480  0.1030
 2532TIP3    H1 7560   2.678   2.687   3.696  0.0667  0.1242 -2.9165
 2532TIP3    H2 7561   2.791   2.595   3.738 -0.7818  0.7740  1.1650
 2533TIP3   OH2 7562   6.677   0.665   5.852 -0.1131  0.0525 -0.0568
 2533TIP3    H1 7563   6.677   0.571   5.871 -0.4828 -0.5468 -2.6614
 2533TIP3    H2 7564   6.769   0.686   5.835  0.0136  0.2650  0.8293
 2534TIP3   OH2 7565   0.792   5.356   1.725 -0.6017  0.3701  0.4915
 2534TIP3    H1 7566   0.789   5.261   1.730 -0.4539  0.2925 -0.7606
 2534TIP3    H2 7567   0.701   5.383   1.723 -0.6413  0.2384  0.5258
 2535TIP3   OH2 7568   6.012   3.877   0.701  0.2199  0.5104 -0.3110
 2535TIP3    H1 7569   6.044   3.796   0.742 -1.1482 -0.8164 -1.7739
 2535TIP3    H2 7570   6.030   3.945   0.767  0.0374 -1.1892  1.5934
 2536TIP3   OH2 7571   7.125   2.678   0.306  0.1454 -0.1539 -0.2412
 2536TIP3    H1 7572   7.143   2.763   0.344 -1.2365  1.0240 -2.0257
 2536TIP3    H2 7573   7.039   2.653   0.340  0.3686 -0.6601 -0.0318
 2537TIP3   OH2 7574   3.002   6.185   1.045  0.7162  0.3407 -0.0550
 2537TIP3    H1 7575   3.005   6.195   1.140 -1.8870  0.1042  0.1228
 2537TIP3    H2 7576   2.935   6.119   1.029  1.2383  0.2200 -2.0623
 2538TIP3   OH2 7577   6.360   1.687   0.147  0.2204 -0.0584 -0.0740
 2538TIP3    H1 7578   6.304   1.609   0.145 -0.1715  0.2298 -1.2939
 2538TIP3    H2 7579   6.433   1.663   0.204 -0.3603 -0.9879  0.3022
 2539TIP3   OH2 7580   2.127   3.448   0.668 -0.1951 -0.2752 -0.5930
 2539TIP3    H1 7581   2.159   3.512   0.605 -0.3571 -0.3910 -0.7935
 2539TIP3    H2 7582   2.040   3.478   0.691 -0.1114 -0.1990 -0.3768
 2540TIP3   OH2 7583   3.649   5.210   1.363 -0.2078 -0.2338  0.3364
 2540TIP3    H1 7584   3.736   5.243   1.340 -0.0555 -1.4466 -0.9610
 2540TIP3    H2 7585   3.664   5.118   1.385 -1.3381 -0.8382 -1.2600
 2541TIP3   OH2 7586   1.951   1.834   3.490  0.3318  0.2990  0.1561
 2541TIP3    H1 7587   1.903   1.876   3.562  0.3279 -1.4226  1.2015
 2541TIP3    H2 7588   1.908   1.750   3.478  1.4671 -0.1905 -0.6484
 2542TIP3   OH2 7589   2.286   4.693   3.989  0.1156  0.4195  0.3635
 2542TIP3    H1 7590   2.204   4.677   4.035 -0.8031  3.1244 -0.2035
 2542TIP3    H2 7591   2.345   4.729   4.055  0.5864 -0.6159  0.5427
 2543TIP3   OH2 7592   5.273   0.717   0.490 -0.2344 -0.0545 -0.3388
 2543TIP3    H1 7593   5.187   0.676   0.480 -1.1840  1.6526  0.4620
 2543TIP3    H2 7594   5.276   0.785   0.423  1.6000 -1.7176 -2.1040
 2544TIP3   OH2 7595   6.718   5.709   4.427 -0.2809 -0.2114 -0.2406
 2544TIP3    H1 7596   6.661   5.633   4.413  1.4688 -1.3534 -1.5197
 2544TIP3    H2 7597   6.692   5.771   4.359 -0.3895 -0.4850 -0.4524
 2545TIP3   OH2 7598   4.753   4.564   3.035 -0.2174  0.4208  0.0647
 2545TIP3    H1 7599   4.694   4.634   3.064  1.5234  1.4794  1.2503
 2545TIP3    H2 7600   4.724   4.487   3.083  1.4263  1.7066  3.4484
 2546TIP3   OH2 7601   3.480   2.653   0.113  0.1916 -0.1273  0.3843
 2546TIP3    H1 7602   3.392   2.669   0.080  0.9193  1.4389 -0.9200
 2546TIP3    H2 7603   3.498   2.562   0.090 -0.2061  0.2300 -1.5515
 2547TIP3   OH2 7604   1.130   0.084   4.801 -0.2801 -0.2096  0.0312
 2547TIP3    H1 7605   1.056   0.032   4.770 -0.5361  0.6303 -0.8129
 2547TIP3    H2 7606   1.096   0.173   4.808  0.1925 -0.1095  1.3045
 2548TIP3   OH2 7607   0.041   0.297   5.542  0.3330 -1.5597 -0.1998
 2548TIP3    H1 7608   0.023   0.239   5.468  0.5891 -0.7708 -0.8934
 2548TIP3    H2 7609  -0.004   0.256   5.616 -1.2377 -1.5508 -1.1117
 2549TIP3   OH2 7610   6.649   1.822   0.061 -0.2741 -0.5177 -0.2385
 2549TIP3    H1 7611   6.647   1.917   0.070 -1.5178 -0.4639 -0.8367
 2549TIP3    H2 7612   6.690   1.790   0.142 -2.3084  0.3825  1.2101
 2550TIP3   OH2 7613   1.633   3.464   4.193  0.0388 -0.0236  0.2300
 2550TIP3    H1 7614   1.633   3.374   4.226 -1.6270 -0.6384 -1.3066
 2550TIP3    H2 7615   1.543   3.480   4.166  0.5364  1.7439 -0.5390
 2551TIP3   OH2 7616   3.600   6.716   0.294  0.3986 -0.3029 -0.3804
 2551TIP3    H1 7617   3.605   6.766   0.212  0.5493  0.1418 -0.1041
 2551TIP3    H2 7618   3.685   6.731   0.335  0.1558 -0.1594  0.0700
 2552TIP3   OH2 7619   4.475   2.010   4.876 -0.5528 -0.1892  0.2074
 2552TIP3    H1 7620   4.448   1.978   4.962  0.3323 -1.9936 -0.1472
 2552TIP3    H2 7621   4.401   2.061   4.845 -0.6209  1.1173  2.3287
 2553TIP3   OH2 7622   7.081   2.510   1.627  0.3565  1.0506 -0.4055
 2553TIP3    H1 7623   7.073   2.464   1.543 -0.9317  0.4260  0.0394
 2553TIP3    H2 7624   7.164   2.477   1.663  0.3619  0.4738 -0.9199
 2554TIP3   OH2 7625   4.710   3.408   3.903 -0.2789 -0.3748  0.0521
 2554TIP3    H1 7626   4.792   3.358   3.901  0.4587  0.7856  0.3339
 2554TIP3    H2 7627   4.702   3.445   3.815 -1.2438 -1.6071 -0.4051
 2555TIP3   OH2 7628   6.486   2.343   5.675  0.9517  0.5142 -0.3500
 2555TIP3    H1 7629   6.443   2.429   5.679  0.8044  0.4085  0.6504
 2555TIP3    H2 7630   6.513   2.326   5.765  2.2984  0.1722 -0.7956
 2556TIP3   OH2 7631   0.582   1.920   1.836 -0.6803  0.0733  0.4031
 2556TIP3    H1 7632   0.651   1.887   1.894 -0.2168  0.3596  0.0259
 2556TIP3    H2 7633   0.560   1.845   1.781  0.1142  0.2675 -0.2079
 2557TIP3   OH2 7634   2.061   3.454   0.303  0.4044 -0.7198 -0.0348
 2557TIP3    H1 7635   1.973   3.444   0.267 -0.2442  2.3519  0.4084
 2557TIP3    H2 7636   2.078   3.371   0.349 -2.1381 -1.4794 -0.3160
 2558TIP3   OH2 7637   6.878   2.738   3.419 -0.4188  0.1481  0.3920
 2558TIP3    H1 7638   6.789   2.761   3.444 -0.4922  0.3351 -0.0336
 2558TIP3    H2 7639   6.921   2.822   3.401 -0.6508 -0.0151 -1.0419
 2559TIP3   OH2 7640   3.505   0.928   5.735 -0.0719 -0.0060  0.1363
 2559TIP3    H1 7641   3.463   0.953   5.818 -0.2004  0.6653 -0.1256
 2559TIP3    H2 7642   3.504   1.008   5.682 -0.3862 -0.5391 -0.6831
 2560TIP3   OH2 7643   0.428   5.426   4.914  0.0097  0.9208 -0.0203
 2560TIP3    H1 7644   0.495   5.480   4.871 -0.9290  0.6297 -1.9475
 2560TIP3    H2 7645   0.478   5.366   4.970  1.3208  1.0522 -1.0058
 2561TIP3   OH2 7646   6.257   6.474   3.394  0.4687  0.4487  0.7766
 2561TIP3    H1 7647   6.345   6.511   3.388  0.3834  0.9303  2.1023
 2561TIP3    H2 7648   6.198   6.547   3.376  0.3348  0.1158 -0.1594
 2562TIP3   OH2 7649   6.085   5.922   1.098  0.4323 -0.0338 -0.0770
 2562TIP3    H1 7650   6.179   5.910   1.110  0.0672 -4.9227  0.2054
 2562TIP3    H2 7651   6.072   5.921   1.003  0.6217 -0.1099 -0.1011
 2563TIP3   OH2 7652   0.167   3.847   1.109 -0.3998 -0.6729  0.1511
 2563TIP3    H1 7653   0.155   3.873   1.201 -0.1147 -0.4397  0.1252
 2563TIP3    H2 7654   0.227   3.773   1.113 -0.0238 -0.3783  0.1291
 2564TIP3   OH2 7655   7.018   4.508   3.920  0.1922  0.1024  0.3155
 2564TIP3    H1 7656   7.019   4.418   3.887  0.3074  0.0891  0.3566
 2564TIP3    H2 7657   7.095   4.549   3.880  0.8129 -0.1450  1.2145
 2565TIP3   OH2 7658   1.164   4.692   0.861  0.1353  0.2803  0.2871
 2565TIP3    H1 7659   1.115   4.615   0.891  0.2920 -0.0725 -0.3407
 2565TIP3    H2 7660   1.098   4.750   0.825 -0.1458  1.0213  1.9149
 2566TIP3   OH2 7661   4.591   5.651   3.155  0.1907  0.1340  0.1112
 2566TIP3    H1 7662   4.569   5.565   3.119 -0.6600  0.3648  0.0473
 2566TIP3    H2 7663   4.540   5.656   3.236 -0.7056  1.0371 -0.4836
 2567TIP3   OH2 7664  -0.006   1.434   3.519 -0.8783 -0.5362 -0.5197
 2567TIP3    H1 7665   0.084   1.458   3.543 -1.3584  2.6377 -1.3573
 2567TIP3    H2 7666  -0.004   1.427   3.423 -1.5680  0.0059 -0.5833
 2568TIP3   OH2 7667   4.433   2.636   0.457  0.2531 -0.0209  0.5226
 2568TIP3    H1 7668   4.458   2.552   0.419 -0.1816  0.2797 -0.4681
 2568TIP3    H2 7669   4.445   2.625   0.551 -0.4749 -1.4163  0.4651
 2569TIP3   OH2 7670   1.510   3.542  -0.028 -0.2458  0.0378  0.2428
 2569TIP3    H1 7671   1.520   3.577   0.061  0.6076  0.5368 -0.0412
 2569TIP3    H2 7672   1.510   3.447  -0.017  1.5366  0.0557  0.6218
 2570TIP3   OH2 7673   2.107   0.780   1.127 -0.1790 -0.3541 -0.1273
 2570TIP3    H1 7674   2.132   0.842   1.195  1.3589 -1.6624  0.5761
 2570TIP3    H2 7675   2.136   0.820   1.045  1.6290 -0.4997  0.4008
 2571TIP3   OH2 7676   0.533   4.080   4.791  0.3340 -0.5071 -0.1430
 2571TIP3    H1 7677   0.584   4.124   4.723 -0.7907  0.2685 -0.5334
 2571TIP3    H2 7678   0.456   4.137   4.803 -0.9036 -2.0859 -0.2651
 2572TIP3   OH2 7679   1.599   2.858   4.348 -0.3421  0.2908 -0.4698
 2572TIP3    H1 7680   1.661   2.845   4.276  0.3131 -1.2281  0.3389
 2572TIP3    H2 7681   1.639   2.926   4.402 -0.4246  0.8338 -1.0827
 2573TIP3   OH2 7682   5.202   5.408   2.252  0.4631  0.0306  0.3196
 2573TIP3    H1 7683   5.157   5.408   2.337  0.1202  1.8470  0.1909
 2573TIP3    H2 7684   5.162   5.481   2.205  0.8233 -0.7920 -1.3277
 2574TIP3   OH2 7685   4.277   5.331   5.880 -0.2083 -0.3358  0.1790
 2574TIP3    H1 7686   4.191   5.326   5.838 -0.3736 -1.6076  0.6153
 2574TIP3    H2 7687   4.336   5.362   5.812 -1.1929  1.7445  0.1900
 2575TIP3   OH2 7688   2.077   3.581   3.259 -0.0318  0.0916 -0.2872
 2575TIP3    H1 7689   2.002   3.560   3.314  0.3567 -0.1323  0.1701
 2575TIP3    H2 7690   2.086   3.506   3.199 -0.0322  0.0107 -0.1855
 2576TIP3   OH2 7691   2.619   3.687   5.026 -0.0111 -0.0993 -0.7155
 2576TIP3    H1 7692   2.574   3.604   5.010  0.9727 -0.7643 -0.1627
 2576TIP3    H2 7693   2.693   3.686   4.965  0.5595 -0.0772 -0.0285
 2577TIP3   OH2 7694   2.803   5.371   1.736  0.1165 -0.4211  0.4412
 2577TIP3    H1 7695   2.819   5.277   1.726  0.9362 -0.1402 -1.3602
 2577TIP3    H2 7696   2.882   5.405   1.778  0.7742 -0.2745 -0.8323
 2578TIP3   OH2 7697   0.389   2.365   3.630 -0.0956  0.1008 -0.1597
 2578TIP3    H1 7698   0.428   2.327   3.551 -0.1240  2.5970 -1.4966
 2578TIP3    H2 7699   0.296   2.344   3.623 -0.0503  0.0537 -0.6526
 2579TIP3   OH2 7700   0.752   3.179   3.696 -0.1554  0.4774 -0.0426
 2579TIP3    H1 7701   0.829   3.176   3.753 -0.5600 -0.1025  0.4890
 2579TIP3    H2 7702   0.686   3.226   3.747 -0.0049  1.4453 -0.7040
 2580TIP3   OH2 7703   1.980   2.667   0.609 -0.2542 -0.1857  0.2908
 2580TIP3    H1 7704   2.074   2.662   0.588 -0.0207 -1.0380  1.4336
 2580TIP3    H2 7705   1.978   2.674   0.704 -1.3915 -2.6429  0.5054
 2581TIP3   OH2 7706   5.805   5.246   3.655 -0.2915  0.0343  0.2313
 2581TIP3    H1 7707   5.807   5.264   3.561 -0.6656  0.2108  0.2523
 2581TIP3    H2 7708   5.892   5.212   3.675 -0.2660 -0.1642 -0.2091
 2582TIP3   OH2 7709   5.832   4.028   4.578 -0.2235 -0.5704 -0.4749
 2582TIP3    H1 7710   5.850   4.109   4.626  1.1776 -2.0178  1.6057
 2582TIP3    H2 7711   5.880   4.038   4.495 -0.9996  1.1423 -0.7589
 2583TIP3   OH2 7712   2.707   5.943   4.292  0.0426  0.1355  0.3603
 2583TIP3    H1 7713   2.739   6.024   4.333 -1.1679  0.6909  0.2303
 2583TIP3    H2 7714   2.710   5.878   4.362 -2.7365  1.2475  1.6271
 2584TIP3   OH2 7715   0.052   5.816   1.053 -0.0836 -0.0332  0.2600
 2584TIP3    H1 7716   0.079   5.744   0.997 -1.9242 -1.0636  0.6072
 2584TIP3    H2 7717   0.120   5.822   1.120  1.0340 -0.1991 -0.8346
 2585TIP3   OH2 7718   3.240   5.629   3.009  0.0432 -1.0503  0.6151
 2585TIP3    H1 7719   3.168   5.688   3.032 -0.9935 -2.1079  0.1631
 2585TIP3    H2 7720   3.250   5.640   2.914  0.0389 -1.3911  0.5743
 2586TIP3   OH2 7721   7.035   2.578   5.727  0.6944  0.2404 -0.2049
 2586TIP3    H1 7722   6.942   2.555   5.726  0.7039 -0.1886  2.1922
 2586TIP3    H2 7723   7.078   2.507   5.680  0.1083 -1.6494  1.9079
 2587TIP3   OH2 7724   1.388   0.235   2.205  0.0079 -0.5995  0.1939
 2587TIP3    H1 7725   1.343   0.231   2.289  2.1236  0.4617  1.4336
 2587TIP3    H2 7726   1.470   0.187   2.218  0.3858 -0.4202 -1.2693
 2588TIP3   OH2 7727   5.794   3.366   0.571  0.6393  0.0161  0.1249
 2588TIP3    H1 7728   5.706   3.389   0.543  0.7347  0.1906 -0.0386
 2588TIP3    H2 7729   5.806   3.275   0.542  0.4668 -0.0506  0.2642
 2589TIP3   OH2 7730   2.226   3.816   3.300  0.2627 -0.1145 -0.4990
 2589TIP3    H1 7731   2.160   3.847   3.362 -1.4254 -0.5134 -2.0084
 2589TIP3    H2 7732   2.194   3.730   3.273  2.6382 -1.3677  0.4196
 2590TIP3   OH2 7733   0.477   2.527   2.955  0.1111 -0.0055 -0.0778
 2590TIP3    H1 7734   0.462   2.617   2.983 -3.2645 -0.2588 -0.7196
 2590TIP3    H2 7735   0.559   2.531   2.905  1.3946  2.1632  1.9728
 2591TIP3   OH2 7736   0.823   1.272   0.120  0.1821  0.6294  0.0776
 2591TIP3    H1 7737   0.772   1.286   0.200  0.2074 -0.6055  0.3325
 2591TIP3    H2 7738   0.781   1.197   0.078 -0.5705  1.9648 -1.7064
 2592TIP3   OH2 7739   2.456   2.271   4.410  0.5829  0.2647  0.0940
 2592TIP3    H1 7740   2.483   2.180   4.401  2.0644  0.7072 -0.1308
 2592TIP3    H2 7741   2.436   2.282   4.503  0.7076 -0.2026  0.1771
 2593TIP3   OH2 7742   3.060   4.391   3.769 -0.5431  0.4774 -0.2861
 2593TIP3    H1 7743   3.058   4.302   3.804  0.7276 -0.4131 -2.2982
 2593TIP3    H2 7744   3.023   4.383   3.681  1.3293  1.5353 -1.2304
 2594TIP3   OH2 7745   4.199   1.427   1.874 -0.3451  0.1544 -0.7359
 2594TIP3    H1 7746   4.141   1.436   1.950 -0.0550 -0.1613 -0.4778
 2594TIP3    H2 7747   4.147   1.377   1.811  0.0104 -1.0364 -0.1142
 2595TIP3   OH2 7748   3.901   5.161   4.564  0.1618  0.0504 -0.3577
 2595TIP3    H1 7749   3.956   5.094   4.603  0.0923  0.6222  0.7460
 2595TIP3    H2 7750   3.954   5.241   4.567  0.3986 -0.0105 -2.0153
 2596TIP3   OH2 7751   4.035   5.584   1.768 -0.7270 -0.0354 -0.3871
 2596TIP3    H1 7752   4.116   5.534   1.760  0.3988  1.7680 -0.8951
 2596TIP3    H2 7753   3.987   5.542   1.840 -0.5162 -2.6371 -1.6278
 2597TIP3   OH2 7754   3.057   2.583   1.643  0.0298 -0.1636 -0.1338
 2597TIP3    H1 7755   3.061   2.651   1.710  1.9696 -0.1922 -0.1510
 2597TIP3    H2 7756   3.072   2.631   1.561  0.6615 -0.4967 -0.2203
 2598TIP3   OH2 7757   3.211   6.374   0.076  0.2340 -0.1656 -0.0254
 2598TIP3    H1 7758   3.172   6.423   0.003 -0.3537  0.9177  0.9712
 2598TIP3    H2 7759   3.304   6.396   0.073  0.4816 -1.2650 -1.2839
 2599TIP3   OH2 7760   2.454   2.816   2.859 -0.0259 -0.2511 -0.0699
 2599TIP3    H1 7761   2.461   2.875   2.934  0.4938 -3.1065  2.3072
 2599TIP3    H2 7762   2.393   2.748   2.887 -0.1141 -1.2385 -2.3949
 2600TIP3   OH2 7763   0.472   0.827   4.049 -0.5223  0.2320 -0.3567
 2600TIP3    H1 7764   0.560   0.849   4.080 -0.5258 -0.1673 -0.0422
 2600TIP3    H2 7765   0.442   0.905   4.003 -1.4233  1.7978  2.6222
 2601TIP3   OH2 7766   2.621   6.147   5.664 -0.2127 -0.4710 -0.0092
 2601TIP3    H1 7767   2.581   6.125   5.580  0.3074  0.1643 -0.4260
 2601TIP3    H2 7768   2.701   6.094   5.668  1.7240  2.1326 -1.5840
 2602TIP3   OH2 7769   4.645   1.398   0.826 -0.4829 -0.6066  0.0979
 2602TIP3    H1 7770   4.645   1.431   0.915 -0.8068 -0.1690 -0.0623
 2602TIP3    H2 7771   4.694   1.316   0.831 -0.9825 -0.8673  0.7756
 2603TIP3   OH2 7772   1.139   6.412   5.688 -0.0071  0.0709  0.3711
 2603TIP3    H1 7773   1.163   6.450   5.604 -1.0088  0.7837  0.3934
 2603TIP3    H2 7774   1.086   6.335   5.665  0.6441 -0.3797  0.3481
 2604TIP3   OH2 7775   5.062   1.291   4.169  0.0861  0.1849 -0.6271
 2604TIP3    H1 7776   5.083   1.342   4.246  1.7351  1.1798 -1.6876
 2604TIP3    H2 7777   5.084   1.348   4.095  0.1075 -1.3306 -1.8442
 2605TIP3   OH2 7778   2.296   6.217   3.358  0.0693 -0.4585  0.2794
 2605TIP3    H1 7779   2.348   6.233   3.437  1.3001 -1.4489 -0.3008
 2605TIP3    H2 7780   2.206   6.212   3.390  0.4402  0.0887  1.4863
 2606TIP3   OH2 7781   0.710   6.681   5.307 -0.6407  0.1685 -0.2098
 2606TIP3    H1 7782   0.658   6.673   5.387 -1.6157 -0.2278 -0.8637
 2606TIP3    H2 7783   0.801   6.687   5.337 -1.0509  0.7273  0.9496
 2607TIP3   OH2 7784   6.430   2.769   3.006 -0.1620  0.2502 -0.2305
 2607TIP3    H1 7785   6.381   2.725   2.937  2.8589 -1.8653 -1.2135
 2607TIP3    H2 7786   6.404   2.725   3.086 -0.6454 -0.0675 -0.5563
 2608TIP3   OH2 7787   2.595   0.157   1.706  0.1371 -1.2082  0.0730
 2608TIP3    H1 7788   2.573   0.133   1.796 -1.3174  0.3193  0.1804
 2608TIP3    H2 7789   2.679   0.202   1.712 -0.2397 -0.5783  0.7843
 2609TIP3   OH2 7790   3.712   2.053   5.885  0.1143  0.6191  0.0623
 2609TIP3    H1 7791   3.714   2.013   5.972  1.5714  0.6385  0.0674
 2609TIP3    H2 7792   3.654   1.997   5.834  2.5964 -2.0401 -0.1308
 2610TIP3   OH2 7793   3.229   6.599   2.932 -0.6538  0.0302 -0.0730
 2610TIP3    H1 7794   3.139   6.630   2.918 -0.4548  0.4652 -0.4255
 2610TIP3    H2 7795   3.221   6.504   2.936 -1.2958  0.1030  1.1234
 2611TIP3   OH2 7796   3.790   2.032   1.307  0.0780  0.0685 -0.1321
 2611TIP3    H1 7797   3.779   2.121   1.273 -0.2352 -0.3733 -1.2033
 2611TIP3    H2 7798   3.791   1.976   1.230 -0.3736 -0.9298  0.5622
 2612TIP3   OH2 7799   2.334   5.812   1.508 -0.4401  0.3485 -0.3115
 2612TIP3    H1 7800   2.429   5.806   1.502 -0.2565 -0.8854  2.4551
 2612TIP3    H2 7801   2.302   5.780   1.423  1.5780  0.9701 -1.3522
 2613TIP3   OH2 7802   0.321   3.058   1.848  0.5269  0.3406  0.1659
 2613TIP3    H1 7803   0.322   2.996   1.920  0.1810 -0.0931 -0.1991
 2613TIP3    H2 7804   0.341   3.143   1.889  0.3790  0.0923  0.7556
 2614TIP3   OH2 7805   0.800   6.097   0.641  0.1440 -0.2108  0.2991
 2614TIP3    H1 7806   0.717   6.128   0.677  0.0999 -0.8678  0.7943
 2614TIP3    H2 7807   0.862   6.103   0.714  0.3814 -0.3104  0.1107
 2615TIP3   OH2 7808   4.087   6.189   3.789 -0.0885 -0.3364 -0.3404
 2615TIP3    H1 7809   4.172   6.230   3.802 -0.8763  1.3023 -0.0404
 2615TIP3    H2 7810   4.105   6.095   3.786  1.9642  0.0389 -2.2166
 2616TIP3   OH2 7811   0.006   0.852   5.080 -0.6965 -0.3789  0.2163
 2616TIP3    H1 7812   0.059   0.925   5.110 -1.0925 -0.3496  0.8439
 2616TIP3    H2 7813   0.045   0.827   4.996 -1.1371  1.1552 -0.4841
 2617TIP3   OH2 7814   5.299   5.498   0.562  0.0913 -0.2866  0.3926
 2617TIP3    H1 7815   5.228   5.477   0.502 -0.2549 -1.4269  1.1561
 2617TIP3    H2 7816   5.366   5.431   0.546 -0.4345 -1.2509  1.9141
 2618TIP3   OH2 7817   2.636   3.049   2.232 -0.0988  0.1361  0.1276
 2618TIP3    H1 7818   2.610   2.958   2.247 -2.8720  0.8739  0.3065
 2618TIP3    H2 7819   2.656   3.083   2.319  0.6089 -0.1619  0.0958
 2619TIP3   OH2 7820   6.193   1.773   4.358  0.4628  0.1831 -0.3010
 2619TIP3    H1 7821   6.257   1.745   4.424  1.9345  1.3990 -1.1413
 2619TIP3    H2 7822   6.246   1.794   4.281 -1.0829  0.1719 -1.4105
 2620TIP3   OH2 7823   2.204   0.864   5.277 -0.0394 -0.4345  0.3697
 2620TIP3    H1 7824   2.173   0.833   5.192  0.5632  1.4375 -0.6055
 2620TIP3    H2 7825   2.238   0.786   5.320 -1.4193 -1.6328 -0.6066
 2621TIP3   OH2 7826   5.478   1.683   4.579  0.1633  0.1588 -1.0466
 2621TIP3    H1 7827   5.502   1.633   4.657  0.9289  1.9346 -0.0714
 2621TIP3    H2 7828   5.426   1.622   4.526 -1.0968 -0.8699  1.2085
 2622TIP3   OH2 7829   2.500   3.444   5.069  0.2877 -0.5909  0.2408
 2622TIP3    H1 7830   2.577   3.388   5.077  0.2419 -0.8463 -0.9788
 2622TIP3    H2 7831   2.432   3.387   5.033 -0.1364 -0.0831  0.2227
 2623TIP3   OH2 7832   6.293   6.288   3.659 -0.5780  0.3794  0.2213
 2623TIP3    H1 7833   6.198   6.301   3.659 -0.4045  1.7614  0.0815
 2623TIP3    H2 7834   6.329   6.373   3.633  0.6344 -0.6422 -1.7175
 2624TIP3   OH2 7835   0.347   5.779   3.634  0.1533  0.6394  0.4707
 2624TIP3    H1 7836   0.372   5.752   3.545  0.5175  0.3234  0.6683
 2624TIP3    H2 7837   0.344   5.697   3.684 -0.6158  0.7468  0.6143
 2625TIP3   OH2 7838   6.418   6.752   5.922 -0.6162  0.7395  0.4434
 2625TIP3    H1 7839   6.455   6.749   5.834 -1.2827 -0.3138  0.1833
 2625TIP3    H2 7840   6.387   6.842   5.932  0.4268  1.1600  0.0213
 2626TIP3   OH2 7841   2.209   0.395   1.461 -0.4287  0.1336 -0.3630
 2626TIP3    H1 7842   2.253   0.344   1.529 -1.3653 -1.7953 -1.1166
 2626TIP3    H2 7843   2.268   0.469   1.444 -0.1989  0.7146  2.5190
 2627TIP3   OH2 7844   0.424   6.274   2.581  0.5485 -0.2752 -0.1459
 2627TIP3    H1 7845   0.399   6.331   2.654  1.3749  0.6335 -0.5565
 2627TIP3    H2 7846   0.454   6.194   2.623  0.5390  0.0479  0.4897
 2628TIP3   OH2 7847   2.261   1.825   4.447 -0.3020  0.4309  0.1495
 2628TIP3    H1 7848   2.202   1.764   4.402  2.5838 -2.1486 -0.5035
 2628TIP3    H2 7849   2.262   1.794   4.537 -2.2177  2.4575  0.9506
 2629TIP3   OH2 7850   2.986   0.592   2.483  1.0055  0.0105 -0.2474
 2629TIP3    H1 7851   2.920   0.562   2.546 -0.1292  0.8167 -1.0036
 2629TIP3    H2 7852   3.066   0.601   2.535  0.2384  0.1224  0.9647
 2630TIP3   OH2 7853   6.726   3.748   0.449  0.1042 -0.1095 -0.6590
 2630TIP3    H1 7854   6.760   3.761   0.537 -1.2141 -0.6305 -0.0457
 2630TIP3    H2 7855   6.757   3.824   0.400  0.0198  0.7012  0.5088
 2631TIP3   OH2 7856   0.845   2.350   2.445  0.1407 -0.4575  0.4441
 2631TIP3    H1 7857   0.844   2.417   2.377  1.0060  0.8653  1.6614
 2631TIP3    H2 7858   0.922   2.298   2.427  1.6994  1.2935  1.6120
 2632TIP3   OH2 7859   5.401   1.926   3.639  0.0606 -0.2051 -0.0015
 2632TIP3    H1 7860   5.371   1.937   3.549  1.4179  0.3833 -0.4058
 2632TIP3    H2 7861   5.430   1.835   3.644 -0.1215 -0.2711 -0.1126
 2633TIP3   OH2 7862   2.401   3.817   5.489  0.0455  0.2063  0.7263
 2633TIP3    H1 7863   2.404   3.775   5.575  1.8537  1.1495  1.1840
 2633TIP3    H2 7864   2.440   3.754   5.429  1.9880  0.8202  1.2651
 2634TIP3   OH2 7865   3.373   4.848   5.796  0.6833 -0.1571 -0.2725
 2634TIP3    H1 7866   3.330   4.789   5.858 -0.8409  0.9230 -0.2431
 2634TIP3    H2 7867   3.450   4.800   5.766  1.2908 -0.8795  2.1814
 2635TIP3   OH2 7868   5.225   0.714   4.888  0.1162 -0.4797  0.3841
 2635TIP3    H1 7869   5.283   0.647   4.923  1.4343 -0.7075 -2.0602
 2635TIP3    H2 7870   5.145   0.667   4.865  0.5983 -1.0032 -0.2341
 2636TIP3   OH2 7871   1.985   2.313   2.130 -0.4542 -0.2248  0.1180
 2636TIP3    H1 7872   1.966   2.357   2.213 -0.0633 -1.5587  0.9557
 2636TIP3    H2 7873   2.071   2.272   2.144 -0.7042 -1.0656 -0.6890
 2637TIP3   OH2 7874   7.082   6.353   3.926  0.2910  0.8158  0.6151
 2637TIP3    H1 7875   7.159   6.309   3.889  0.5368  0.2434  1.7782
 2637TIP3    H2 7876   7.008   6.308   3.884  0.5653  0.3202  0.6494
 2638TIP3   OH2 7877   3.953   6.448   1.796 -0.1684 -0.1596  0.2384
 2638TIP3    H1 7878   3.943   6.475   1.887  0.9700 -0.0071  0.3406
 2638TIP3    H2 7879   4.048   6.440   1.784 -0.3092 -0.3140 -0.8958
 2639TIP3   OH2 7880   2.001   2.581   0.218  0.7289 -0.0492 -0.6565
 2639TIP3    H1 7881   1.985   2.487   0.224 -2.6806  0.4901  1.2475
 2639TIP3    H2 7882   1.987   2.602   0.126 -0.1139 -1.2067 -0.8140
 2640TIP3   OH2 7883   7.104   6.788   1.011 -0.1096  0.7476  0.1062
 2640TIP3    H1 7884   7.186   6.790   1.061 -0.3635 -2.1663  0.8385
 2640TIP3    H2 7885   7.049   6.725   1.059 -2.1308  1.3328 -1.3250
 2641TIP3   OH2 7886   3.413   2.849   1.550 -0.1525  0.3965  0.5007
 2641TIP3    H1 7887   3.488   2.846   1.609 -0.4814 -1.6491  0.8705
 2641TIP3    H2 7888   3.451   2.841   1.462  0.1041  0.0660  0.6411
 2642TIP3   OH2 7889   3.687   0.213   4.647 -0.0379  0.8105  0.2374
 2642TIP3    H1 7890   3.610   0.178   4.692 -0.4768  0.0698 -1.0286
 2642TIP3    H2 7891   3.702   0.298   4.689 -2.3227  1.5639 -0.3074
 2643TIP3   OH2 7892   6.131   6.764   4.968  0.3704 -0.3433 -0.1874
 2643TIP3    H1 7893   6.208   6.760   4.911  0.4630  2.4788 -0.3981
 2643TIP3    H2 7894   6.059   6.789   4.909  0.1683  1.1395  0.6397
 2644TIP3   OH2 7895   1.660   5.061   5.530  0.3150 -0.0091  0.6053
 2644TIP3    H1 7896   1.631   4.986   5.479 -0.6745  1.7391 -1.5579
 2644TIP3    H2 7897   1.745   5.034   5.566  0.7723 -1.5716 -1.4637
 2645TIP3   OH2 7898   5.406   0.339   1.731 -0.0675  0.0145  0.2811
 2645TIP3    H1 7899   5.400   0.260   1.678 -0.6078  0.0766  0.2389
 2645TIP3    H2 7900   5.317   0.351   1.765 -0.0324  0.7038  0.1369
 2646TIP3   OH2 7901   3.911   1.819   4.658  0.0447 -0.1280  0.3026
 2646TIP3    H1 7902   3.950   1.865   4.733 -0.0286  1.9478 -0.8776
 2646TIP3    H2 7903   3.832   1.778   4.694 -0.8010  2.0613  1.1214
 2647TIP3   OH2 7904   3.193   5.561   3.831 -0.4897 -0.2340 -0.3800
 2647TIP3    H1 7905   3.169   5.647   3.864 -0.8164 -0.6211  0.4294
 2647TIP3    H2 7906   3.109   5.518   3.814 -0.3322 -0.4664 -0.5660
 2648TIP3   OH2 7907   4.685   3.001   4.816 -0.0532  0.4532 -0.4006
 2648TIP3    H1 7908   4.675   2.919   4.768 -1.0086  0.0408  0.4614
 2648TIP3    H2 7909   4.777   3.025   4.803  1.1231 -2.3068  1.7631
 2649TIP3   OH2 7910   1.661   2.099   0.632 -0.1872 -0.3223  0.1272
 2649TIP3    H1 7911   1.577   2.141   0.616 -0.0239  0.7985  1.9411
 2649TIP3    H2 7912   1.717   2.130   0.561 -1.2207 -0.9705 -1.0233
 2650TIP3   OH2 7913   1.661   3.226   3.382  0.1842  0.7893  0.6593
 2650TIP3    H1 7914   1.648   3.140   3.421  0.1381  0.3470 -0.3063
 2650TIP3    H2 7915   1.578   3.272   3.398 -0.7252 -0.2174 -0.9570
 2651TIP3   OH2 7916   1.317   5.263   2.884 -0.3355  0.7454 -0.5304
 2651TIP3    H1 7917   1.293   5.175   2.911 -1.8593  1.0106 -0.9358
 2651TIP3    H2 7918   1.234   5.309   2.873  0.4320  2.5383  0.6077
 2652TIP3   OH2 7919   6.599   0.709   1.429 -0.1518  0.1642  0.3624
 2652TIP3    H1 7920   6.656   0.676   1.359  0.4006 -0.0316  0.9024
 2652TIP3    H2 7921   6.516   0.726   1.385 -0.8654 -3.0492  0.2057
 2653TIP3   OH2 7922   6.308   1.441   0.237 -0.4978  0.1327 -0.4406
 2653TIP3    H1 7923   6.226   1.395   0.221 -0.7946  0.4273  0.1940
 2653TIP3    H2 7924   6.375   1.372   0.233 -1.1221 -0.8048  2.5614
 2654TIP3   OH2 7925   1.259   0.304   0.315 -0.3891  0.5726 -0.1126
 2654TIP3    H1 7926   1.343   0.325   0.275 -0.4862  1.2957  0.0408
 2654TIP3    H2 7927   1.261   0.210   0.329  1.0229  0.7849  1.3323
 2655TIP3   OH2 7928   1.717   0.973   2.216 -0.3619  0.4004  0.2469
 2655TIP3    H1 7929   1.804   0.939   2.197 -0.6578  0.3097 -1.0842
 2655TIP3    H2 7930   1.729   1.031   2.291  0.5214 -0.9656  1.2021
 2656TIP3   OH2 7931   1.043   4.099   1.107 -0.7561  0.4692 -0.6476
 2656TIP3    H1 7932   0.987   4.092   1.030 -2.3982 -0.9582  0.5814
 2656TIP3    H2 7933   1.111   4.034   1.094 -0.3225  1.0587 -1.4030
 2657TIP3   OH2 7934   6.295   6.052   0.441  0.3917 -0.4253 -0.7773
 2657TIP3    H1 7935   6.315   6.056   0.348 -1.4612  1.9072 -1.1563
 2657TIP3    H2 7936   6.222   6.113   0.453 -1.9453 -3.3402  1.5870
 2658TIP3   OH2 7937   2.413   4.323   1.049  0.3192  0.1782 -0.2526
 2658TIP3    H1 7938   2.430   4.286   1.136 -1.3456 -0.8575 -0.3322
 2658TIP3    H2 7939   2.462   4.268   0.989  1.1828  0.6767 -0.0230
 2659TIP3   OH2 7940   2.597   1.048   3.682 -0.1690 -0.1590  0.1041
 2659TIP3    H1 7941   2.526   1.106   3.655  0.2986  0.2206 -0.3324
 2659TIP3    H2 7942   2.580   1.030   3.774 -0.5648  0.3222  0.1289
 2660TIP3   OH2 7943   6.625   6.569   2.266 -0.2758 -0.5424 -0.4104
 2660TIP3    H1 7944   6.581   6.578   2.181  0.8416 -0.4420 -0.9972
 2660TIP3    H2 7945   6.578   6.498   2.310 -2.6665  1.2168  0.0737
 2661TIP3   OH2 7946   1.758   1.490   4.158 -0.0068  0.0497 -0.1961
 2661TIP3    H1 7947   1.775   1.448   4.242 -0.7408 -2.1817 -1.0909
 2661TIP3    H2 7948   1.844   1.520   4.128  0.4890 -0.4754  0.6743
 2662TIP3   OH2 7949   4.046   4.721   2.641 -0.5877  0.2147 -0.8140
 2662TIP3    H1 7950   4.054   4.630   2.613  0.6788 -0.3292  1.0863
 2662TIP3    H2 7951   4.034   4.716   2.736 -1.3864  2.0182 -0.7771
 2663TIP3   OH2 7952   0.598   5.310   4.648  0.7034  0.6127 -0.1602
 2663TIP3    H1 7953   0.503   5.304   4.639  0.8508  0.2624 -1.7772
 2663TIP3    H2 7954   0.614   5.402   4.670  0.0696  1.0798 -1.5239
 2664TIP3   OH2 7955   2.160   4.022   4.804  0.0884  0.5292  0.9644
 2664TIP3    H1 7956   2.190   4.007   4.894  0.7350  0.9410  0.8277
 2664TIP3    H2 7957   2.080   4.073   4.814 -0.1709  0.0535  1.3241
 2665TIP3   OH2 7958   5.445   5.506   3.538 -0.0260 -0.2479  0.3822
 2665TIP3    H1 7959   5.523   5.465   3.576 -0.7249 -3.0149 -0.9313
 2665TIP3    H2 7960   5.441   5.472   3.449 -3.3212 -1.1451  0.7367
 2666TIP3   OH2 7961   1.361   1.263   0.671 -0.0916 -0.4872 -0.2600
 2666TIP3    H1 7962   1.371   1.338   0.729  0.5315 -0.3638 -0.5172
 2666TIP3    H2 7963   1.343   1.301   0.585 -2.5230 -0.6891  0.0855
 2667TIP3   OH2 7964   4.481   1.412   1.453  0.5817 -0.6309 -0.1487
 2667TIP3    H1 7965   4.518   1.355   1.521 -0.2970 -1.0405 -0.0011
 2667TIP3    H2 7966   4.404   1.365   1.421 -0.9678  1.0322  0.8992
 2668TIP3   OH2 7967   4.976   5.810   5.531 -0.8534  0.1055  0.3529
 2668TIP3    H1 7968   5.014   5.725   5.552 -2.1166 -0.9546 -1.4024
 2668TIP3    H2 7969   5.041   5.852   5.474 -1.7107 -1.1958 -1.6550
 2669TIP3   OH2 7970   6.623   2.622   2.763 -0.0760 -0.2556  0.5216
 2669TIP3    H1 7971   6.696   2.580   2.717 -0.3927 -0.9718  0.6546
 2669TIP3    H2 7972   6.626   2.584   2.851  1.4020  2.1403  1.5845
 2670TIP3   OH2 7973   4.645   5.025   4.690 -0.2942  0.4767  0.3208
 2670TIP3    H1 7974   4.582   4.959   4.659 -0.3883  1.4063 -1.6388
 2670TIP3    H2 7975   4.595   5.081   4.748 -1.1500  0.8126 -0.7006
 2671TIP3   OH2 7976   6.596   3.893   4.047  0.2714 -0.1488  0.0974
 2671TIP3    H1 7977   6.588   3.850   4.132  0.1255 -0.1221  0.0973
 2671TIP3    H2 7978   6.689   3.887   4.026  0.7037  1.7267  1.2413
 2672TIP3   OH2 7979   3.050   2.996   3.654  0.5921  0.2019  0.9363
 2672TIP3    H1 7980   3.034   2.916   3.604  1.0563  0.8563 -0.3030
 2672TIP3    H2 7981   3.123   2.974   3.712  0.7386 -0.2680  0.5788
 2673TIP3   OH2 7982   3.984   5.717   2.423 -0.4999  0.0771 -0.3863
 2673TIP3    H1 7983   4.067   5.683   2.389  1.3205  1.7973  1.9759
 2673TIP3    H2 7984   3.963   5.791   2.366 -1.5796 -1.5441 -2.2142
 2674TIP3   OH2 7985   0.342   0.906   0.437 -0.0829 -0.2381  0.0499
 2674TIP3    H1 7986   0.274   0.887   0.502 -0.6901 -0.2610 -0.5822
 2674TIP3    H2 7987   0.297   0.955   0.369  1.0479  2.0177  0.7927
 2675TIP3   OH2 7988   1.322   5.741   2.714 -1.0841 -1.0656 -0.1414
 2675TIP3    H1 7989   1.366   5.665   2.676 -1.2480 -1.0776 -0.3083
 2675TIP3    H2 7990   1.312   5.802   2.641 -0.8467 -0.8345  0.0183
 2676TIP3   OH2 7991   0.208   3.809   0.694  0.3196  0.2225 -0.0442
 2676TIP3    H1 7992   0.238   3.820   0.603  0.6194 -0.0788  0.0195
 2676TIP3    H2 7993   0.221   3.895   0.734  1.0535  0.1105 -0.0305
 2677TIP3   OH2 7994   0.196   3.406   0.556  0.1541 -0.0506 -0.2723
 2677TIP3    H1 7995   0.103   3.405   0.579  0.8099 -3.3128  3.1338
 2677TIP3    H2 7996   0.204   3.341   0.486 -0.0918  0.4101 -0.7419
 2678TIP3   OH2 7997   1.882   3.832   3.124  0.5635 -0.2309 -0.1262
 2678TIP3    H1 7998   1.904   3.753   3.074 -0.2510 -1.9589  2.0659
 2678TIP3    H2 7999   1.929   3.822   3.206  0.1124  1.3850  0.3547
 2679TIP3   OH2 8000   6.153   0.624   3.523  0.0370 -0.2187 -0.2407
 2679TIP3    H1 8001   6.187   0.656   3.607  1.0695 -2.3120  0.2085
 2679TIP3    H2 8002   6.133   0.532   3.539  0.4998 -0.7261 -2.3525
 2680TIP3   OH2 8003   1.640   4.100   2.484  0.3663 -0.2149  0.1970
 2680TIP3    H1 8004   1.658   4.016   2.443  0.2755  1.5438 -3.9866
 2680TIP3    H2 8005   1.716   4.154   2.463 -0.8742  1.5660  0.0495
 2681TIP3   OH2 8006   2.751   4.641   0.563  0.0642  0.0096  0.3839
 2681TIP3    H1 8007   2.678   4.613   0.507 -0.4921  0.7793  0.7088
 2681TIP3    H2 8008   2.737   4.735   0.574  1.5508  0.3210 -0.1850
 2682TIP3   OH2 8009   4.722   0.388   5.618  0.0773  0.1662  0.6548
 2682TIP3    H1 8010   4.791   0.419   5.559  0.5854 -0.9746  0.6205
 2682TIP3    H2 8011   4.656   0.458   5.616  0.3488  0.4265 -0.8106
 2683TIP3   OH2 8012   2.854   2.821   2.995  0.2979  0.4612 -0.0700
 2683TIP3    H1 8013   2.809   2.898   3.030  0.1268  0.6118 -0.6195
 2683TIP3    H2 8014   2.792   2.749   3.007  0.4974  0.3863  0.5373
 2684TIP3   OH2 8015   3.032   6.243   2.053  0.0262  0.1660 -0.5545
 2684TIP3    H1 8016   3.034   6.299   2.131 -3.0856 -0.0030 -0.2580
 2684TIP3    H2 8017   3.078   6.163   2.080 -0.7440  0.2227  1.0357
 2685TIP3   OH2 8018   5.298   5.119   3.966 -0.3993  0.2815  0.2219
 2685TIP3    H1 8019   5.212   5.159   3.951  0.0118  1.3813  0.7174
 2685TIP3    H2 8020   5.309   5.059   3.893 -0.4730  2.0286 -1.2999
 2686TIP3   OH2 8021   2.568   6.765   2.016 -0.3406 -0.1411  0.6391
 2686TIP3    H1 8022   2.511   6.820   2.071  0.3041 -1.2979  2.5528
 2686TIP3    H2 8023   2.612   6.707   2.078  1.4296 -0.6378 -0.9980
 2687TIP3   OH2 8024   2.901   4.420   0.545 -0.2485  0.2366 -0.2569
 2687TIP3    H1 8025   2.965   4.426   0.616 -1.6057 -2.4110  1.3220
 2687TIP3    H2 8026   2.857   4.505   0.545  0.6049  0.7126  1.2228
 2688TIP3   OH2 8027   1.108   1.824   3.388  0.0689  0.5292 -0.7757
 2688TIP3    H1 8028   1.155   1.871   3.456 -0.9378  1.2673 -0.5591
 2688TIP3    H2 8029   1.173   1.764   3.350  1.3024  1.8363 -0.8177
 2689TIP3   OH2 8030   7.082   0.265   0.870  0.2903 -0.0987 -0.6284
 2689TIP3    H1 8031   7.012   0.330   0.861  0.3130 -0.2037 -1.7740
 2689TIP3    H2 8032   7.124   0.286   0.953 -0.7252  0.3382 -0.2129
 2690TIP3   OH2 8033   2.181   6.347   3.818 -0.1725 -0.6378 -0.2802
 2690TIP3    H1 8034   2.150   6.311   3.901 -0.1877 -0.6211 -0.2786
 2690TIP3    H2 8035   2.131   6.428   3.807  1.2510  0.4104  0.6766
 2691TIP3   OH2 8036   4.433   6.168   2.623  0.4799 -0.1944 -0.6100
 2691TIP3    H1 8037   4.490   6.236   2.660 -1.2009 -0.5878  3.0995
 2691TIP3    H2 8038   4.367   6.217   2.573 -0.4416  0.9501  1.6201
 2692TIP3   OH2 8039   0.338   2.206   3.396  0.3970 -0.5269  0.1425
 2692TIP3    H1 8040   0.304   2.129   3.350  1.2375 -0.9040  0.1288
 2692TIP3    H2 8041   0.398   2.246   3.334 -0.7193  0.6907 -0.2031
 2693TIP3   OH2 8042   3.307   0.124   5.801  0.1043  0.0260  0.4223
 2693TIP3    H1 8043   3.261   0.122   5.717  1.0486 -1.8370 -0.1092
 2693TIP3    H2 8044   3.296   0.036   5.837 -0.7553  0.9370  2.5638
 2694TIP3   OH2 8045   0.598   5.989   1.131  0.1636 -0.3876  0.6032
 2694TIP3    H1 8046   0.602   6.040   1.212  4.3897  0.6354 -0.0223
 2694TIP3    H2 8047   0.663   5.920   1.144  1.2579  0.0597 -2.0273
 2695TIP3   OH2 8048   4.778   1.364   3.604 -0.2058  0.3318  0.2619
 2695TIP3    H1 8049   4.806   1.450   3.573  3.2350  0.0677  2.1243
 2695TIP3    H2 8050   4.754   1.378   3.696  2.6738 -0.8881  1.3384
 2696TIP3   OH2 8051   1.081   3.766   1.362 -0.1493  0.0779  0.3643
 2696TIP3    H1 8052   1.058   3.674   1.350  1.6002 -0.4705  0.7890
 2696TIP3    H2 8053   1.132   3.788   1.283  0.2427  0.3798  0.6957
 2697TIP3   OH2 8054   6.429   6.718   4.467 -0.3577 -0.1455 -0.3723
 2697TIP3    H1 8055   6.346   6.699   4.510  0.2007 -1.0957  0.3542
 2697TIP3    H2 8056   6.454   6.804   4.499 -0.0538 -0.7441  1.1040
 2698TIP3   OH2 8057   5.184   0.960   2.136  0.1637  0.1005 -0.0596
 2698TIP3    H1 8058   5.235   1.003   2.204  1.1357 -1.1988  0.0723
 2698TIP3    H2 8059   5.198   1.013   2.058 -0.9700  1.6154  0.7118
 2699TIP3   OH2 8060   0.511   5.301   2.040 -0.5869  0.7032 -0.1837
 2699TIP3    H1 8061   0.442   5.340   1.986 -0.3663  1.3777  0.0126
 2699TIP3    H2 8062   0.551   5.234   1.984  0.0152  1.7767 -1.0851
 2700TIP3   OH2 8063   5.108   5.437   1.275  0.3917  0.2760 -0.0202
 2700TIP3    H1 8064   5.188   5.443   1.223  1.4435 -0.8692  1.3944
 2700TIP3    H2 8065   5.122   5.497   1.348 -0.9922  1.7226 -0.8646
 2701TIP3   OH2 8066   4.490   3.519   4.007 -0.2580  0.1889 -0.0847
 2701TIP3    H1 8067   4.520   3.518   4.098  0.3788 -0.8177 -0.2946
 2701TIP3    H2 8068   4.565   3.489   3.956 -0.4286  1.2702 -1.0223
 2702TIP3   OH2 8069   3.553   2.021  -0.032 -0.3444  0.2522 -0.2288
 2702TIP3    H1 8070   3.483   2.017   0.034  1.4431 -1.1282  1.6877
 2702TIP3    H2 8071   3.621   2.075   0.008  0.9195 -0.8732 -0.7808
 2703TIP3   OH2 8072   0.092   3.950   3.916 -0.2795  0.0113 -0.0642
 2703TIP3    H1 8073   0.083   3.887   3.845  0.0592 -1.2189  0.9480
 2703TIP3    H2 8074   0.005   3.954   3.956 -0.5872  1.0469 -0.8119
 2704TIP3   OH2 8075   0.664   5.989   0.390  0.4911 -0.3462 -0.3879
 2704TIP3    H1 8076   0.723   6.037   0.449 -0.3300  0.4456 -0.1872
 2704TIP3    H2 8077   0.586   5.972   0.443  0.3129 -0.9024 -0.8163
 2705TIP3   OH2 8078   5.382   3.106   5.396 -0.3030  0.3998  0.0670
 2705TIP3    H1 8079   5.328   3.041   5.440 -0.3461  0.0228 -0.5333
 2705TIP3    H2 8080   5.471   3.091   5.428 -0.4078  0.4256  0.3653
 2706TIP3   OH2 8081   6.395   4.241   1.211  0.1287 -0.1670  0.4377
 2706TIP3    H1 8082   6.405   4.288   1.294 -0.6421  0.7940  0.0094
 2706TIP3    H2 8083   6.342   4.165   1.233 -1.2538  0.8101  0.6019
 2707TIP3   OH2 8084   0.310   1.328   4.887  0.2116 -0.4957  0.1336
 2707TIP3    H1 8085   0.284   1.309   4.977 -0.7802  0.2930  0.0413
 2707TIP3    H2 8086   0.376   1.397   4.895  1.2392 -1.4651  0.3028
 2708TIP3   OH2 8087   7.143   6.490   0.920  0.3752  0.1877  0.5849
 2708TIP3    H1 8088   7.089   6.566   0.940  0.1948  1.2949 -3.2689
 2708TIP3    H2 8089   7.228   6.527   0.895 -0.6105 -0.2728 -4.5148
 2709TIP3   OH2 8090   6.462   2.011   3.478 -0.2403 -0.0194  0.0187
 2709TIP3    H1 8091   6.397   2.080   3.483  0.0021  0.1343  1.6523
 2709TIP3    H2 8092   6.437   1.949   3.547  0.2044 -0.9747 -0.6541
 2710TIP3   OH2 8093   2.388   2.616   0.780  0.0507  0.0334 -0.0423
 2710TIP3    H1 8094   2.343   2.539   0.816  2.3360 -1.3241  0.1303
 2710TIP3    H2 8095   2.411   2.669   0.856  0.0061 -0.0059 -0.0019
 2711TIP3   OH2 8096   1.188   4.842   1.295  0.0412  0.2210 -0.2534
 2711TIP3    H1 8097   1.167   4.835   1.389 -1.8449  2.6471 -0.4096
 2711TIP3    H2 8098   1.110   4.808   1.251  0.0855  0.9602 -0.9142
 2712TIP3   OH2 8099   2.539   2.861   5.080  0.1461 -0.4824 -0.1445
 2712TIP3    H1 8100   2.579   2.942   5.048  0.5483 -0.8540 -0.5827
 2712TIP3    H2 8101   2.496   2.888   5.161 -1.9057  0.7333 -1.5399
 2713TIP3   OH2 8102   5.528   2.032   3.071  0.0055 -0.2991  0.2826
 2713TIP3    H1 8103   5.560   2.008   2.984  0.2648  2.5057 -0.4784
 2713TIP3    H2 8104   5.459   1.967   3.089 -1.0205 -0.1630 -2.6333
 2714TIP3   OH2 8105   5.630   0.751   0.959 -0.2926 -0.5365 -0.2969
 2714TIP3    H1 8106   5.570   0.719   0.892 -1.6512  0.7428  0.2574
 2714TIP3    H2 8107   5.610   0.698   1.036  0.7600 -1.5027 -0.6494
 2715TIP3   OH2 8108   2.895   2.123   1.447  0.0909 -0.5457 -0.1825
 2715TIP3    H1 8109   2.920   2.050   1.504 -1.3940 -0.2504  0.9264
 2715TIP3    H2 8110   2.941   2.198   1.485 -0.9711 -0.3311  0.7539
 2716TIP3   OH2 8111   2.807   4.664   0.838  0.0032 -0.0070 -0.3958
 2716TIP3    H1 8112   2.794   4.630   0.749  0.3368 -0.6314 -0.2172
 2716TIP3    H2 8113   2.750   4.611   0.893 -1.6648  1.6414 -0.4588
 2717TIP3   OH2 8114   5.265   1.280   5.496 -0.2144  0.0438  0.7607
 2717TIP3    H1 8115   5.202   1.352   5.500 -1.8874 -1.4080  1.9235
 2717TIP3    H2 8116   5.305   1.278   5.583  0.8913  0.4327  0.2869
 2718TIP3   OH2 8117   3.996   1.874   0.152 -0.2694 -0.0054 -0.1559
 2718TIP3    H1 8118   4.012   1.955   0.105  0.2371 -0.5576 -0.9461
 2718TIP3    H2 8119   3.903   1.877   0.174 -0.0970  1.1288  0.4865
 2719TIP3   OH2 8120   4.031   5.283   2.343  0.2578  0.1403  0.3725
 2719TIP3    H1 8121   4.005   5.262   2.254  0.9488  0.1521  0.1596
 2719TIP3    H2 8122   4.126   5.273   2.343  0.3318  0.7547  0.9360
 2720TIP3   OH2 8123   4.071   2.466   0.317 -0.0821  0.2220  0.1616
 2720TIP3    H1 8124   4.103   2.536   0.261  0.5924 -1.8170 -2.2090
 2720TIP3    H2 8125   4.139   2.456   0.385  0.6217  0.7798 -0.4475
 2721TIP3   OH2 8126   4.500   2.171   3.995  0.0466 -0.0114  0.0878
 2721TIP3    H1 8127   4.523   2.254   3.953 -1.5982  0.4101 -0.0760
 2721TIP3    H2 8128   4.510   2.106   3.926  2.4311 -0.1737  0.5120
 2722TIP3   OH2 8129   6.450   6.215   4.773 -0.2444  0.7488 -0.0285
 2722TIP3    H1 8130   6.505   6.291   4.752 -0.6531  1.3300  0.9210
 2722TIP3    H2 8131   6.509   6.155   4.819 -0.1167  0.8436 -0.0667
 2723TIP3   OH2 8132   4.116   3.492   4.943  0.4531 -0.8480  0.3563
 2723TIP3    H1 8133   4.120   3.445   4.859  0.0662 -1.9446  0.9364
 2723TIP3    H2 8134   4.191   3.552   4.940  0.4127 -0.8266 -0.7927
 2724TIP3   OH2 8135   4.017   5.855   5.620 -0.4811 -1.3258  0.0434
 2724TIP3    H1 8136   4.098   5.905   5.627  0.7302 -3.0980 -0.5819
 2724TIP3    H2 8137   3.954   5.915   5.580  0.8000 -0.2059 -0.3399
 2725TIP3   OH2 8138   5.236   5.891   1.374  0.4124 -0.0790  0.4694
 2725TIP3    H1 8139   5.251   5.797   1.385 -2.9316 -1.0226 -1.7244
 2725TIP3    H2 8140   5.293   5.932   1.440  0.5836 -3.6841  2.8277
 2726TIP3   OH2 8141   2.347   1.476   2.821 -0.6435 -0.0709 -0.1977
 2726TIP3    H1 8142   2.289   1.498   2.894 -0.5752 -0.4708 -0.0216
 2726TIP3    H2 8143   2.302   1.508   2.743  0.5616  3.0863  0.2261
 2727TIP3   OH2 8144   0.932   5.052   5.233 -0.2134 -0.4441 -0.2356
 2727TIP3    H1 8145   0.979   5.015   5.307  0.0659  2.0474  0.9509
 2727TIP3    H2 8146   0.839   5.041   5.255 -0.1502 -1.2796 -0.3755
 2728TIP3   OH2 8147   1.461   3.325   2.430 -0.5755  0.1473 -0.1646
 2728TIP3    H1 8148   1.552   3.320   2.402 -1.1462  1.9852 -2.6825
 2728TIP3    H2 8149   1.458   3.403   2.486 -0.4497 -0.4923  0.7568
 2729TIP3   OH2 8150   6.325   3.395   1.428 -0.5243 -0.0405 -0.0755
 2729TIP3    H1 8151   6.327   3.351   1.343  0.0369  0.2127 -0.2026
 2729TIP3    H2 8152   6.409   3.441   1.432  0.0932 -1.2043  1.2224
 2730TIP3   OH2 8153   6.210   2.752   3.821  0.4009 -0.3382 -0.1165
 2730TIP3    H1 8154   6.273   2.724   3.887  0.4993 -1.1894 -0.5499
 2730TIP3    H2 8155   6.252   2.733   3.737 -1.0531 -2.5342 -0.4332
 2731TIP3   OH2 8156   0.975   6.703   1.783  0.1841 -0.4541  0.3585
 2731TIP3    H1 8157   0.981   6.608   1.774  0.1728 -0.4441  0.2480
 2731TIP3    H2 8158   0.893   6.726   1.738  1.9561  0.0434 -2.8822
 2732TIP3   OH2 8159   6.961   5.048   5.769  0.4379  0.2940 -0.5629
 2732TIP3    H1 8160   6.888   5.012   5.820  0.2313  1.2804 -0.1356
 2732TIP3    H2 8161   6.955   5.005   5.684  0.3980 -0.9013  0.0354
 2733TIP3   OH2 8162   4.685   5.792   2.421  0.4619 -0.1488 -0.4491
 2733TIP3    H1 8163   4.670   5.822   2.332  2.0137 -0.3116 -0.7940
 2733TIP3    H2 8164   4.773   5.824   2.443  1.0631 -2.0593  0.1549
 2734TIP3   OH2 8165   4.189   4.704   5.774 -0.0908  0.5428  0.1375
 2734TIP3    H1 8166   4.147   4.705   5.688 -0.2386  1.6980  0.2072
 2734TIP3    H2 8167   4.116   4.699   5.836  0.0503 -2.3692  0.2267
 2735TIP3   OH2 8168   4.703   0.335   2.516  0.0298  0.3542  0.0130
 2735TIP3    H1 8169   4.786   0.305   2.554  0.1474  1.2218  0.4818
 2735TIP3    H2 8170   4.644   0.343   2.591 -0.2096  0.5796 -0.1993
 2736TIP3   OH2 8171   0.446   2.320   4.120 -0.3254 -0.0219  0.1910
 2736TIP3    H1 8172   0.430   2.413   4.132 -0.2955 -0.2433  2.6187
 2736TIP3    H2 8173   0.542   2.312   4.124 -0.2890 -0.0937 -0.7264
 2737TIP3   OH2 8174   0.153   3.605   2.674  0.0460 -0.3167  0.2066
 2737TIP3    H1 8175   0.071   3.570   2.640 -0.4164 -1.5855  2.3788
 2737TIP3    H2 8176   0.158   3.571   2.764  1.4606  2.1910  1.1969
 2738TIP3   OH2 8177   5.888   0.432   2.843 -1.0001 -0.4315  0.0957
 2738TIP3    H1 8178   5.955   0.365   2.850 -2.8004 -2.2693  0.5370
 2738TIP3    H2 8179   5.894   0.482   2.924 -0.2974 -0.6652  0.1919
 2739TIP3   OH2 8180   2.962   0.061   1.661 -0.2953  0.6216 -0.3296
 2739TIP3    H1 8181   2.904   0.054   1.586  0.9262  0.0605 -1.2477
 2739TIP3    H2 8182   2.927  -0.000   1.725  0.1546 -0.8930 -1.4797
 2740TIP3   OH2 8183   1.395   1.196   2.542 -0.0248 -0.0599  0.2448
 2740TIP3    H1 8184   1.466   1.161   2.595 -1.2243 -1.9730  0.6985
 2740TIP3    H2 8185   1.390   1.137   2.467 -0.5309  0.5932 -0.2452
 2741TIP3   OH2 8186   3.969   2.700   5.301  0.3746  0.1863 -0.2931
 2741TIP3    H1 8187   3.955   2.707   5.395  2.2708 -1.1897  0.1546
 2741TIP3    H2 8188   3.985   2.789   5.272  1.4437  0.4560  1.0268
 2742TIP3   OH2 8189   5.685   3.497   5.686  0.0877  0.3582  0.3295
 2742TIP3    H1 8190   5.671   3.548   5.606  1.3969  1.2533  0.6423
 2742TIP3    H2 8191   5.624   3.535   5.749  0.3491  0.8672  0.2763
 2743TIP3   OH2 8192   3.099   4.923   1.460 -0.1375 -0.6920 -0.6195
 2743TIP3    H1 8193   3.126   4.933   1.369  0.7752 -0.4510 -0.3318
 2743TIP3    H2 8194   3.161   4.860   1.497  0.6253  0.5247  0.2846
 2744TIP3   OH2 8195   2.377   1.682   4.724 -0.2930  0.5346 -0.5149
 2744TIP3    H1 8196   2.331   1.735   4.790 -0.6725  0.3297 -0.6116
 2744TIP3    H2 8197   2.460   1.727   4.711  0.0193  0.2803  0.5064
 2745TIP3   OH2 8198   3.784   5.373   4.408 -0.1210  0.7141 -0.6260
 2745TIP3    H1 8199   3.867   5.337   4.441  0.3325  1.2862 -1.1052
 2745TIP3    H2 8200   3.717   5.312   4.439  0.1884  1.5761  1.9386
 2746TIP3   OH2 8201   5.195   4.674   3.618 -0.2097 -0.2455  0.4473
 2746TIP3    H1 8202   5.253   4.613   3.572 -2.5630 -1.1980 -1.5563
 2746TIP3    H2 8203   5.189   4.749   3.559 -1.2368 -0.3322  0.4208
 2747TIP3   OH2 8204   4.465   0.547   3.329 -0.4299  0.6675 -0.5092
 2747TIP3    H1 8205   4.495   0.476   3.272  0.1106  0.8629 -0.4809
 2747TIP3    H2 8206   4.373   0.527   3.346  0.2881 -1.4661  1.5680
 2748TIP3   OH2 8207   2.393   1.811   2.430  0.3766 -0.1571  0.2505
 2748TIP3    H1 8208   2.449   1.770   2.496  0.5987  0.1908  0.2835
 2748TIP3    H2 8209   2.415   1.766   2.348 -0.6414 -1.2997  0.5811
 2749TIP3   OH2 8210   0.281   2.574   3.311 -0.4269 -0.0409 -0.2825
 2749TIP3    H1 8211   0.363   2.619   3.289 -1.0914  0.6698 -1.3858
 2749TIP3    H2 8212   0.286   2.559   3.405  0.6530  0.6353 -0.2198
 2750TIP3   OH2 8213   2.757   3.353   2.749 -0.4065 -0.1648  0.3624
 2750TIP3    H1 8214   2.775   3.337   2.842 -0.9277 -1.1550  0.3025
 2750TIP3    H2 8215   2.662   3.355   2.743 -0.5196  3.6892  0.4481
 2751TIP3   OH2 8216   6.426   0.733   4.691 -0.3554  0.4083 -0.1236
 2751TIP3    H1 8217   6.391   0.820   4.711  0.4575  1.2401 -2.0850
 2751TIP3    H2 8218   6.456   0.699   4.776 -4.3053  0.2710  1.4291
 2752TIP3   OH2 8219   5.984   3.135   4.471 -0.3466 -0.3905  0.5542
 2752TIP3    H1 8220   6.070   3.113   4.434  1.3483 -0.7491  4.3066
 2752TIP3    H2 8221   5.971   3.227   4.447  0.4342 -0.6816 -1.1541
 2753TIP3   OH2 8222   1.550   4.316   1.693  0.0464 -0.5096 -0.2151
 2753TIP3    H1 8223   1.472   4.370   1.691 -0.0140 -0.2921  2.7815
 2753TIP3    H2 8224   1.574   4.303   1.601 -3.6471 -0.8717 -1.2716
 2754TIP3   OH2 8225   5.130   2.044   1.121 -0.0178 -0.3268 -0.0245
 2754TIP3    H1 8226   5.192   2.043   1.048 -0.0348 -1.5060 -0.0479
 2754TIP3    H2 8227   5.177   2.086   1.192 -0.1461  1.2240 -0.8144
 2755TIP3   OH2 8228   3.106   5.011   3.346 -0.1533 -0.6191 -0.5820
 2755TIP3    H1 8229   3.146   4.943   3.401  0.4408  1.5191  1.8246
 2755TIP3    H2 8230   3.158   5.011   3.266  1.8483 -0.9518  0.6447
 2756TIP3   OH2 8231   4.919   1.810   3.250 -0.1811  0.6382 -0.0445
 2756TIP3    H1 8232   4.971   1.890   3.242 -1.0711  1.0558 -2.4045
 2756TIP3    H2 8233   4.852   1.831   3.315 -0.1748  1.6872 -0.3600
 2757TIP3   OH2 8234   2.551   1.535   4.060  0.6231  0.4301 -0.5817
 2757TIP3    H1 8235   2.496   1.609   4.084 -0.7838 -1.3807  2.1759
 2757TIP3    H2 8236   2.492   1.460   4.054  2.4160 -1.1450  0.0916
 2758TIP3   OH2 8237   5.739   6.363   5.873  0.5293 -0.2292  0.2319
 2758TIP3    H1 8238   5.685   6.319   5.939 -1.2890  0.5820 -0.6249
 2758TIP3    H2 8239   5.705   6.453   5.870  1.3390  0.0697 -0.9918
 2759TIP3   OH2 8240   3.755   6.134   5.786 -0.0309  0.3370  0.0628
 2759TIP3    H1 8241   3.710   6.200   5.735  0.8409 -0.1103 -1.3485
 2759TIP3    H2 8242   3.841   6.172   5.803 -0.5633  0.8068  1.9360
 2760TIP3   OH2 8243   6.034   2.731   2.406 -0.6003  0.0317 -0.8807
 2760TIP3    H1 8244   6.001   2.696   2.489 -0.1217  0.4572 -0.4989
 2760TIP3    H2 8245   6.009   2.666   2.341 -1.8696  0.1716 -0.5592
 2761TIP3   OH2 8246   5.559   6.321   3.177 -0.2628 -0.1898  0.2262
 2761TIP3    H1 8247   5.556   6.339   3.271 -0.4524  2.9413 -0.2812
 2761TIP3    H2 8248   5.475   6.277   3.159  1.0446 -3.8049  1.8780
 2762TIP3   OH2 8249   0.330   3.231   0.695 -0.5005 -0.2773 -0.2469
 2762TIP3    H1 8250   0.276   3.182   0.757 -1.4477  1.2267  0.1716
 2762TIP3    H2 8251   0.273   3.301   0.664  0.8280  0.6290 -0.7330
 2763TIP3   OH2 8252   2.270   5.441   2.734 -0.0861 -0.8360 -0.0190
 2763TIP3    H1 8253   2.297   5.461   2.824  1.3241 -1.1947 -0.3384
 2763TIP3    H2 8254   2.332   5.375   2.705 -0.2941 -0.4530 -1.3961
 2764TIP3   OH2 8255   7.144   1.784   4.825 -0.2843 -0.0127 -0.1118
 2764TIP3    H1 8256   7.150   1.843   4.750  1.5528 -1.3258 -1.0794
 2764TIP3    H2 8257   7.115   1.839   4.898 -0.3628  1.6679 -1.3807
 2765TIP3   OH2 8258   4.806   6.330   2.503 -0.7433  0.1299  0.1022
 2765TIP3    H1 8259   4.727   6.339   2.556 -1.8347 -0.5720 -1.3241
 2765TIP3    H2 8260   4.808   6.237   2.479  1.5234 -0.2736  1.5593
 2766TIP3   OH2 8261   3.716   3.677   4.219  0.0690 -0.2766 -0.2620
 2766TIP3    H1 8262   3.680   3.712   4.138  0.6610  0.8258 -0.0682
 2766TIP3    H2 8263   3.810   3.667   4.202  0.1627 -0.2416  0.2148
 2767TIP3   OH2 8264   1.854   5.179   5.704  0.2170  0.1672 -0.1471
 2767TIP3    H1 8265   1.776   5.220   5.666 -0.1431 -0.3525  0.0273
 2767TIP3    H2 8266   1.839   5.182   5.798 -1.9224 -4.2499 -0.1131
 2768TIP3   OH2 8267   1.849   3.227   3.664 -0.0397  0.4130  0.0773
 2768TIP3    H1 8268   1.903   3.245   3.741  0.2697  0.6171 -0.1855
 2768TIP3    H2 8269   1.769   3.277   3.679 -0.8473 -1.1129  1.2211
 2769TIP3   OH2 8270   0.692   6.511   2.731  0.4135  0.4375  0.2168
 2769TIP3    H1 8271   0.603   6.490   2.702 -0.1050  0.2090  1.8553
 2769TIP3    H2 8272   0.717   6.587   2.678 -0.2180 -0.3136 -1.2055
 2770TIP3   OH2 8273   1.744   4.107   1.970 -0.2920  0.0718 -0.2803
 2770TIP3    H1 8274   1.799   4.153   1.907  1.0242 -2.3563 -1.0678
 2770TIP3    H2 8275   1.660   4.098   1.926  0.0053  0.1443 -0.8817
 2771TIP3   OH2 8276   4.127   2.063   1.361  0.6522  0.2139 -0.2150
 2771TIP3    H1 8277   4.067   2.137   1.349  0.7854  0.1025 -1.8492
 2771TIP3    H2 8278   4.182   2.088   1.435 -0.0503  1.2349 -0.0101
 2772TIP3   OH2 8279   1.738   0.920  -0.005 -0.1159 -0.7572  0.5972
 2772TIP3    H1 8280   1.704   1.007   0.014 -0.6017 -1.2376  2.0462
 2772TIP3    H2 8281   1.669   0.860   0.024 -0.7927 -1.6274 -2.4567
 2773TIP3   OH2 8282   0.806   1.448   1.451  0.0158 -0.0211 -0.5681
 2773TIP3    H1 8283   0.817   1.497   1.370  2.0654  0.0124 -0.3196
 2773TIP3    H2 8284   0.801   1.356   1.423 -3.0113  0.1534 -0.9619
 2774TIP3   OH2 8285   4.441   4.263   5.802  0.0647  0.1888 -0.0145
 2774TIP3    H1 8286   4.399   4.241   5.718  1.4512 -0.8044 -0.4809
 2774TIP3    H2 8287   4.374   4.311   5.850 -1.2867 -0.5502 -1.0871
 2775TIP3   OH2 8288   3.644   4.659   4.904  0.4454 -0.4548  0.1130
 2775TIP3    H1 8289   3.607   4.634   4.819  0.7135 -1.3990  0.2612
 2775TIP3    H2 8290   3.737   4.670   4.888  0.4189 -0.1423  0.1771
 2776TIP3   OH2 8291   1.666   0.397   3.387 -0.6627  0.6119 -0.1719
 2776TIP3    H1 8292   1.672   0.301   3.388  3.2811  0.6491  2.2893
 2776TIP3    H2 8293   1.633   0.418   3.300 -2.4732 -2.9551 -0.5338
 2777TIP3   OH2 8294   4.889   3.813   0.731  0.1700 -0.2185  0.3017
 2777TIP3    H1 8295   4.854   3.862   0.805  0.5448  2.2697 -1.0502
 2777TIP3    H2 8296   4.812   3.775   0.689 -0.1971 -0.3305  1.0593
 2778TIP3   OH2 8297   0.691   3.319   3.924  0.0453 -0.0371 -0.2258
 2778TIP3    H1 8298   0.742   3.310   4.004  1.4860  0.4183 -1.0631
 2778TIP3    H2 8299   0.606   3.353   3.953  1.1301  1.8547  0.9366
 2779TIP3   OH2 8300   1.945   3.447   4.030 -0.3945 -0.2157 -0.3103
 2779TIP3    H1 8301   1.882   3.506   3.990  0.7210 -0.7644 -3.1506
 2779TIP3    H2 8302   1.969   3.386   3.959  1.6209 -1.4007  1.2816
 2780TIP3   OH2 8303   3.966   6.323   3.026  0.2832 -0.1236  0.2938
 2780TIP3    H1 8304   4.060   6.310   3.008 -0.0244 -0.5446 -1.0833
 2780TIP3    H2 8305   3.923   6.250   2.981 -0.7988  0.7018 -0.0301
 2781TIP3   OH2 8306   0.096   5.736   2.567  0.9309 -0.3630  0.5958
 2781TIP3    H1 8307   0.077   5.808   2.506  0.2365 -1.0301  0.0130
 2781TIP3    H2 8308   0.151   5.676   2.518  0.0692 -1.0853  0.4885
 2782TIP3   OH2 8309   3.373   0.148   5.091  0.0428 -0.1951  0.8123
 2782TIP3    H1 8310   3.458   0.184   5.065 -0.6048  0.8040 -0.0150
 2782TIP3    H2 8311   3.360   0.177   5.181  0.1429  0.5029  0.6078
 2783TIP3   OH2 8312   3.813   5.543   0.120 -0.5420 -0.1170 -0.0488
 2783TIP3    H1 8313   3.836   5.495   0.040  0.7728 -0.4428  0.5018
 2783TIP3    H2 8314   3.796   5.474   0.184  0.9121  0.1232  0.6254
 2784TIP3   OH2 8315   2.115   5.269   5.613  0.5361 -0.6503 -0.3468
 2784TIP3    H1 8316   2.175   5.194   5.622 -0.7764 -1.6095  0.9401
 2784TIP3    H2 8317   2.040   5.245   5.667  0.8087  2.3774  1.5630
 2785TIP3   OH2 8318   5.217   2.346   2.433 -0.3348  0.5557  0.2593
 2785TIP3    H1 8319   5.226   2.429   2.478 -0.9167  1.0751 -0.5519
 2785TIP3    H2 8320   5.150   2.362   2.366 -0.2861 -0.4924 -0.0602
 2786TIP3   OH2 8321   6.464   6.083   5.853 -0.0111 -0.1058  0.1647
 2786TIP3    H1 8322   6.374   6.070   5.884  0.1447 -0.2152  0.5764
 2786TIP3    H2 8323   6.498   5.995   5.841 -1.1477 -0.2018 -3.5975
 2787TIP3   OH2 8324   6.605   1.967   1.902 -0.0707  0.7013  0.4529
 2787TIP3    H1 8325   6.515   1.998   1.893 -0.5206 -0.7227 -0.1965
 2787TIP3    H2 8326   6.616   1.955   1.996 -1.1612 -0.7408  0.4337
 2788TIP3   OH2 8327   4.965   1.575   1.167  0.3816 -0.2158  0.3208
 2788TIP3    H1 8328   4.934   1.666   1.169 -1.6514 -0.8621  0.4227
 2788TIP3    H2 8329   4.968   1.553   1.074  0.9504 -0.0378  0.2922
 2789TIP3   OH2 8330   3.257   3.251   5.840 -0.0215  0.2115 -0.2185
 2789TIP3    H1 8331   3.305   3.174   5.810 -2.3819 -1.2386 -0.5861
 2789TIP3    H2 8332   3.226   3.292   5.759 -2.5385 -1.0950 -0.0233
 2790TIP3   OH2 8333   2.596   3.852   1.343  0.5860  0.1474  0.1009
 2790TIP3    H1 8334   2.584   3.938   1.302  0.2061  0.0722  0.0475
 2790TIP3    H2 8335   2.546   3.792   1.288  2.3714 -0.4448 -0.9551
 2791TIP3   OH2 8336   2.652   5.978   4.624 -0.2563  0.0900  0.3533
 2791TIP3    H1 8337   2.622   5.895   4.587  0.6772 -0.2062  0.2336
 2791TIP3    H2 8338   2.738   5.992   4.585 -1.0081  1.8929 -0.8184
 2792TIP3   OH2 8339   3.036   2.311   1.580  0.1401  0.3892  0.8138
 2792TIP3    H1 8340   3.070   2.400   1.592 -0.5152  0.6879  0.5604
 2792TIP3    H2 8341   3.034   2.274   1.668 -0.1825  0.8640  1.0149
 2793TIP3   OH2 8342   0.929   0.694   4.993 -0.6504 -0.4872 -1.2382
 2793TIP3    H1 8343   0.921   0.645   4.911  0.9718 -1.3872 -0.9005
 2793TIP3    H2 8344   1.012   0.740   4.985 -0.9819  0.2643 -0.5126
 2794TIP3   OH2 8345   5.202   3.743   4.039 -0.5062 -0.2596  0.0051
 2794TIP3    H1 8346   5.228   3.651   4.043 -0.3438 -0.1724  1.8446
 2794TIP3    H2 8347   5.143   3.754   4.114 -0.7848  1.0557 -0.3946
 2795TIP3   OH2 8348   2.665   0.406   0.938  0.6158 -0.2928  0.0443
 2795TIP3    H1 8349   2.664   0.393   0.843 -0.3609  0.3581 -0.0473
 2795TIP3    H2 8350   2.589   0.357   0.969  1.5403 -1.4030  0.6382
 2796TIP3   OH2 8351   0.440   3.946   4.420  0.0476  0.3853  0.7296
 2796TIP3    H1 8352   0.429   4.041   4.412  0.4069  0.3620 -0.0507
 2796TIP3    H2 8353   0.524   3.936   4.465  0.5899  0.4277 -0.2424
 2797TIP3   OH2 8354   0.020   3.085   3.241  0.2483  0.3767  0.4635
 2797TIP3    H1 8355   0.046   3.022   3.308 -0.6984  0.2839  0.7537
 2797TIP3    H2 8356  -0.016   3.031   3.170  3.6798  0.2277 -1.3697
 2798TIP3   OH2 8357   0.874   1.132   1.697 -0.2373 -0.2203  0.2140
 2798TIP3    H1 8358   0.963   1.098   1.688 -0.3793 -0.3333 -0.8746
 2798TIP3    H2 8359   0.819   1.055   1.712 -0.4384 -0.4042 -1.3536
 2799TIP3   OH2 8360   3.837   5.341   1.041  0.3720 -0.0057  0.3868
 2799TIP3    H1 8361   3.899   5.378   0.978  1.3348 -1.3377  0.5200
 2799TIP3    H2 8362   3.863   5.380   1.125 -0.9676  1.8392  0.0041
 2800TIP3   OH2 8363   5.618   0.248   1.343  0.6813 -0.0903  0.3627
 2800TIP3    H1 8364   5.608   0.240   1.248  1.7752  2.2006 -0.0082
 2800TIP3    H2 8365   5.704   0.209   1.361  0.1028 -1.3238  0.5880
 2801TIP3   OH2 8366   5.579   4.306   0.661  0.2943 -0.1108  0.1730
 2801TIP3    H1 8367   5.641   4.246   0.700  1.4647  0.0024 -1.4103
 2801TIP3    H2 8368   5.620   4.333   0.579 -2.2491 -0.7614 -1.4297
 2802TIP3   OH2 8369   4.859   3.837   1.895 -0.1781 -0.7286 -0.5815
 2802TIP3    H1 8370   4.894   3.752   1.868  0.5425 -0.3185 -0.9639
 2802TIP3    H2 8371   4.801   3.863   1.824  0.4228 -0.4232 -0.9733
 2803TIP3   OH2 8372   5.257   6.118   2.387  0.3312  0.5896 -0.3412
 2803TIP3    H1 8373   5.238   6.107   2.294  3.0041 -2.6513 -0.7220
 2803TIP3    H2 8374   5.262   6.028   2.420  1.0540  1.6031  2.5666
 2804TIP3   OH2 8375   1.562   6.104   2.124  0.0989  0.0644 -0.3940
 2804TIP3    H1 8376   1.542   6.026   2.176  1.8590 -1.0604 -1.3086
 2804TIP3    H2 8377   1.499   6.102   2.053 -1.4305  0.8572  0.8775
 2805TIP3   OH2 8378   2.451   6.176   0.780  0.0337  0.2848 -0.1282
 2805TIP3    H1 8379   2.397   6.252   0.755 -0.4105 -0.0255 -0.1205
 2805TIP3    H2 8380   2.492   6.202   0.863  1.9997  1.5712 -1.4090
 2806TIP3   OH2 8381   2.231   6.324   4.323  0.4510 -0.0213  0.0488
 2806TIP3    H1 8382   2.323   6.314   4.346  0.9059 -0.3324 -1.7484
 2806TIP3    H2 8383   2.233   6.362   4.235 -1.1594  1.9260  0.7864
 2807TIP3   OH2 8384   1.565   2.720   0.381  0.0754  0.2869 -0.2910
 2807TIP3    H1 8385   1.619   2.784   0.427  0.4323  0.0187 -0.3246
 2807TIP3    H2 8386   1.600   2.721   0.291 -0.5904  0.7830 -0.5525
 2808TIP3   OH2 8387   2.378   4.769   0.128  0.3269  0.1568  0.1285
 2808TIP3    H1 8388   2.363   4.857   0.164 -0.9589 -0.3707  0.9386
 2808TIP3    H2 8389   2.466   4.746   0.157  0.6176  1.1036  0.0453
 2809TIP3   OH2 8390   6.756   0.839   3.302 -0.2369 -0.3487 -0.0793
 2809TIP3    H1 8391   6.719   0.753   3.280 -0.0139 -0.5562  0.3394
 2809TIP3    H2 8392   6.728   0.854   3.392  0.5111 -0.4042  0.1609
 2810TIP3   OH2 8393   3.712   1.838   2.274 -0.1711 -0.4133  0.5857
 2810TIP3    H1 8394   3.733   1.894   2.198  0.1185  0.2813  1.1636
 2810TIP3    H2 8395   3.616   1.837   2.276 -0.2011  0.9000  1.1426
 2811TIP3   OH2 8396   0.025   2.128   5.824 -0.6576 -0.3493  0.0371
 2811TIP3    H1 8397   0.107   2.104   5.868 -0.0014  0.6719 -0.5809
 2811TIP3    H2 8398  -0.035   2.056   5.844  0.0701 -0.6324  1.3469
 2812TIP3   OH2 8399   5.524   2.890   2.060 -0.3367 -0.5701  0.3374
 2812TIP3    H1 8400   5.556   2.910   2.148 -1.2967  0.1006  0.5489
 2812TIP3    H2 8401   5.498   2.974   2.024  0.1932 -0.8182 -0.6626
 2813TIP3   OH2 8402   1.670   5.373   3.447  0.1413 -0.2073 -0.1251
 2813TIP3    H1 8403   1.756   5.364   3.488 -0.2258 -2.1172  0.3297
 2813TIP3    H2 8404   1.612   5.321   3.502 -1.3729  1.1791 -0.3297
 2814TIP3   OH2 8405   5.256   0.623   3.397 -0.0664  0.2760  0.1476
 2814TIP3    H1 8406   5.213   0.646   3.479 -2.5132  3.4719 -1.7828
 2814TIP3    H2 8407   5.346   0.653   3.408 -0.2433  0.3427  1.7250
 2815TIP3   OH2 8408   2.815   3.747   1.664  0.6529  0.1413  0.2104
 2815TIP3    H1 8409   2.778   3.663   1.634  1.1376  0.2391 -0.7209
 2815TIP3    H2 8410   2.742   3.809   1.657  0.6093  0.0432 -0.2602
 2816TIP3   OH2 8411   6.928   1.181   1.240 -0.1801 -0.3501  0.0341
 2816TIP3    H1 8412   6.929   1.131   1.322  1.7596 -1.8122 -0.8068
 2816TIP3    H2 8413   6.977   1.261   1.260 -0.7384 -0.1269  0.5780
 2817TIP3   OH2 8414   2.291   2.822   1.100 -0.6468 -0.0825 -0.8351
 2817TIP3    H1 8415   2.257   2.846   1.014 -1.0377  1.1432 -0.3575
 2817TIP3    H2 8416   2.376   2.865   1.106 -0.6421 -0.1218 -0.5988
 2818TIP3   OH2 8417   6.001   3.427   3.612 -0.0266 -0.0323 -0.6838
 2818TIP3    H1 8418   6.051   3.359   3.566 -1.5482 -0.6188 -1.5856
 2818TIP3    H2 8419   5.965   3.382   3.688  1.8603  0.7408  0.7308
 2819TIP3   OH2 8420   1.919   1.769   5.316  0.6812  0.6049 -0.5782
 2819TIP3    H1 8421   1.974   1.699   5.348  1.9114  0.6214 -2.4858
 2819TIP3    H2 8422   1.832   1.730   5.308  0.8995 -0.0889  0.3100
 2820TIP3   OH2 8423   4.021   4.470   2.509 -0.2666 -0.0217 -0.1111
 2820TIP3    H1 8424   4.014   4.427   2.594  0.4486 -0.5190 -0.2895
 2820TIP3    H2 8425   3.966   4.417   2.451  0.9898 -1.0324 -0.4396
 2821TIP3   OH2 8426   6.419   3.686   4.703  0.0364  0.0815 -0.7402
 2821TIP3    H1 8427   6.447   3.628   4.633 -0.7151  1.1489 -1.9866
 2821TIP3    H2 8428   6.400   3.628   4.777  0.6549 -1.0909 -1.4700
 2822TIP3   OH2 8429   0.863   3.880   4.232 -0.0664 -0.5374  0.3490
 2822TIP3    H1 8430   0.863   3.828   4.313  0.0146  0.6260  1.1119
 2822TIP3    H2 8431   0.869   3.971   4.261 -0.5042 -0.0633 -0.9519
 2823TIP3   OH2 8432   0.114   3.228   3.002  0.4044 -0.2136 -0.4947
 2823TIP3    H1 8433   0.127   3.135   2.982 -1.0569 -0.8492  1.2940
 2823TIP3    H2 8434   0.020   3.242   2.992  0.7868  1.5075 -2.2844
 2824TIP3   OH2 8435   1.320   4.120   0.442  0.2523 -0.1827  0.5432
 2824TIP3    H1 8436   1.268   4.057   0.492 -2.7828 -1.4329 -3.5878
 2824TIP3    H2 8437   1.279   4.205   0.459 -2.2590 -0.9068 -1.2742
 2825TIP3   OH2 8438   1.385   2.198   3.766 -0.1506 -0.1791  1.1079
 2825TIP3    H1 8439   1.361   2.290   3.772 -1.5814 -0.5465  1.4399
 2825TIP3    H2 8440   1.387   2.179   3.672  1.1518  0.4014  0.9886
 2826TIP3   OH2 8441   6.956   0.358   3.241  0.5924  0.4484 -0.2503
 2826TIP3    H1 8442   6.885   0.422   3.235 -0.8812 -1.1459 -0.7499
 2826TIP3    H2 8443   6.930   0.288   3.181  0.6197 -1.9853  2.3396
 2827TIP3   OH2 8444   6.053   1.082   5.423  0.3311 -0.2837 -0.5179
 2827TIP3    H1 8445   6.016   1.063   5.509  2.6885  0.5260  0.7711
 2827TIP3    H2 8446   5.983   1.063   5.361 -1.2290 -1.5073  1.5285
 2828TIP3   OH2 8447   5.279   0.179   1.195  0.9322 -0.2913  0.8529
 2828TIP3    H1 8448   5.227   0.254   1.165  0.7486 -0.2834  1.1948
 2828TIP3    H2 8449   5.225   0.103   1.173  1.4821 -0.3883 -0.2704
 2829TIP3   OH2 8450   4.771   5.247   4.308 -0.0612 -0.5998 -0.1939
 2829TIP3    H1 8451   4.691   5.262   4.357  0.7945  1.7639  0.6325
 2829TIP3    H2 8452   4.832   5.211   4.372  0.5887  1.0539  0.1831
 2830TIP3   OH2 8453   0.591   6.018   2.745 -0.0426 -0.1024  0.3944
 2830TIP3    H1 8454   0.547   5.939   2.777 -0.9829  0.4901  0.5933
 2830TIP3    H2 8455   0.684   5.997   2.751 -0.2847 -1.6181 -0.6239
 2831TIP3   OH2 8456   0.128   0.794   4.847 -0.4498  0.4408 -0.3927
 2831TIP3    H1 8457   0.117   0.868   4.786  0.7546  0.0991 -1.0541
 2831TIP3    H2 8458   0.221   0.772   4.841 -0.4987 -0.1923  0.9128
 2832TIP3   OH2 8459   5.923   4.124   4.340  0.6743  0.3290 -0.0928
 2832TIP3    H1 8460   5.877   4.205   4.317  0.1778 -0.0647 -0.5127
 2832TIP3    H2 8461   6.015   4.150   4.346  1.0261  0.3614 -3.3943
 2833TIP3   OH2 8462   0.714   2.507   0.265  0.5239  0.2009 -0.0998
 2833TIP3    H1 8463   0.632   2.524   0.311  0.5547 -0.7120  0.3149
 2833TIP3    H2 8464   0.697   2.532   0.175 -1.0193 -2.2322 -0.5671
 2834TIP3   OH2 8465   1.733   3.436   2.560  0.3494  0.2322 -0.4554
 2834TIP3    H1 8466   1.818   3.394   2.570  0.1173 -0.1493  0.0078
 2834TIP3    H2 8467   1.699   3.442   2.649 -0.8909 -1.3105 -0.7673
 2835TIP3   OH2 8468   2.905   3.572   2.789  1.0185 -0.4605 -0.8829
 2835TIP3    H1 8469   2.887   3.647   2.732  2.2855 -0.6932 -1.6335
 2835TIP3    H2 8470   2.837   3.508   2.766  0.1901  0.2741 -0.5403
 2836TIP3   OH2 8471   5.640   1.314   5.763  0.2561  0.0928  0.2219
 2836TIP3    H1 8472   5.651   1.400   5.803  2.2714 -0.3339  0.7393
 2836TIP3    H2 8473   5.681   1.254   5.826 -1.8046 -1.3759  0.2558
 2837TIP3   OH2 8474   5.940   1.894   0.546 -0.0005  0.3857  0.4628
 2837TIP3    H1 8475   5.868   1.943   0.586 -0.9287 -0.8908  0.4109
 2837TIP3    H2 8476   6.019   1.937   0.578 -0.7422  0.4740  2.2790
 2838TIP3   OH2 8477   5.891   4.721   2.959 -0.0196 -0.1118 -0.2383
 2838TIP3    H1 8478   5.867   4.778   3.032 -1.1402 -1.2622  0.3368
 2838TIP3    H2 8479   5.810   4.675   2.936  0.8068 -1.4039 -0.7217
 2839TIP3   OH2 8480   3.742   6.795   2.773  0.6313  0.1616  0.5223
 2839TIP3    H1 8481   3.769   6.704   2.764  0.3728 -0.0668  1.7561
 2839TIP3    H2 8482   3.709   6.820   2.687  0.2426 -1.0761  0.2933
 2840TIP3   OH2 8483   4.038   4.267   4.790 -0.5334 -0.1274  1.0401
 2840TIP3    H1 8484   4.081   4.203   4.847 -1.3689 -1.5321  0.1393
 2840TIP3    H2 8485   4.054   4.235   4.701 -0.7976  1.0370  0.5547
 2841TIP3   OH2 8486   3.893   2.410   1.588 -0.3156  0.0713  0.0215
 2841TIP3    H1 8487   3.971   2.382   1.636 -0.9278 -0.1839  0.8948
 2841TIP3    H2 8488   3.853   2.477   1.643  0.4672  1.8823 -1.4803
 2842TIP3   OH2 8489   2.291   2.439   5.682 -0.1478  0.0219  0.0932
 2842TIP3    H1 8490   2.330   2.393   5.607 -0.1465 -1.1424  0.7740
 2842TIP3    H2 8491   2.200   2.410   5.683 -0.0721 -0.2042  0.7099
 2843TIP3   OH2 8492   6.824   5.800   4.852 -0.4058 -0.0111  0.1123
 2843TIP3    H1 8493   6.859   5.795   4.942 -0.3364 -0.4903  0.0623
 2843TIP3    H2 8494   6.895   5.839   4.801  0.7704 -2.5093 -0.3204
 2844TIP3   OH2 8495   1.490   4.016   3.817  0.2456 -0.0348 -0.1607
 2844TIP3    H1 8496   1.559   4.081   3.831 -2.2948  2.3891  2.5119
 2844TIP3    H2 8497   1.508   3.947   3.880  2.0097 -1.1943 -1.8333
 2845TIP3   OH2 8498   6.409   6.450   1.003  0.5625  0.0406  0.0397
 2845TIP3    H1 8499   6.334   6.500   0.972  0.8460  0.4244 -0.0357
 2845TIP3    H2 8500   6.373   6.365   1.028 -0.0443  0.5126  0.8366
 2846TIP3   OH2 8501   3.871   6.252   3.994 -0.0543 -0.2566  0.4081
 2846TIP3    H1 8502   3.784   6.288   3.976 -0.1727 -0.6938  0.1128
 2846TIP3    H2 8503   3.910   6.239   3.908  1.5027  2.7500  0.5064
 2847TIP3   OH2 8504   2.151   3.416   1.693 -0.1725  0.2469 -0.1603
 2847TIP3    H1 8505   2.175   3.326   1.670  0.3781  0.4596 -0.4409
 2847TIP3    H2 8506   2.079   3.407   1.754 -0.0446 -0.3926 -0.0986
 2848TIP3   OH2 8507   4.422   2.450   2.942  0.0321  0.3419  0.2822
 2848TIP3    H1 8508   4.393   2.366   2.975 -0.9158  0.5714  0.0581
 2848TIP3    H2 8509   4.447   2.433   2.851 -0.1780  0.3116  0.2310
 2849TIP3   OH2 8510   4.151   5.206   3.803 -0.3146 -0.0597  0.0066
 2849TIP3    H1 8511   4.145   5.287   3.854 -1.3493  0.0778 -0.3170
 2849TIP3    H2 8512   4.215   5.153   3.850  1.5630  1.5524 -0.6144
 2850TIP3   OH2 8513   0.014   1.097   2.503  0.0704 -0.0269  0.8819
 2850TIP3    H1 8514  -0.027   1.183   2.502 -0.3328 -0.2103 -0.4753
 2850TIP3    H2 8515   0.060   1.093   2.587 -0.6208  1.1580  1.3384
 2851TIP3   OH2 8516   2.567   0.340   4.779 -0.8697  0.1320  0.2504
 2851TIP3    H1 8517   2.494   0.294   4.738  1.5455 -3.2247 -0.7395
 2851TIP3    H2 8518   2.562   0.315   4.871 -0.1243 -1.5175 -0.1138
 2852TIP3   OH2 8519   1.493   0.630   3.942  0.4877  0.0116  0.0380
 2852TIP3    H1 8520   1.554   0.700   3.965 -0.8673  0.8640  1.1680
 2852TIP3    H2 8521   1.540   0.549   3.962  1.7764  0.5916 -0.5424
 2853TIP3   OH2 8522   4.552   4.643   0.821  0.3285 -0.6651 -0.9936
 2853TIP3    H1 8523   4.561   4.735   0.847  0.1647 -1.3888  2.0453
 2853TIP3    H2 8524   4.494   4.645   0.745  0.1201  1.7090 -0.8613
 2854TIP3   OH2 8525   7.052   3.349   3.603 -0.2659 -0.2282  0.7584
 2854TIP3    H1 8526   7.118   3.299   3.554  2.5134  0.8902  3.0697
 2854TIP3    H2 8527   7.034   3.425   3.549  2.1526  0.5959  0.9949
 2855TIP3   OH2 8528   2.659   5.145   2.432 -0.0185  0.1802 -0.2482
 2855TIP3    H1 8529   2.751   5.164   2.446 -0.0781  0.2929 -0.0076
 2855TIP3    H2 8530   2.638   5.187   2.349  0.3681 -0.5951 -0.7562
 2856TIP3   OH2 8531   2.600   3.196   1.751  0.1227 -0.0503  0.1863
 2856TIP3    H1 8532   2.633   3.129   1.691  0.6034  0.9510 -0.6970
 2856TIP3    H2 8533   2.666   3.202   1.820  1.4780  1.3806 -1.1532
 2857TIP3   OH2 8534   0.706   3.811   1.549 -0.5103  0.5082  0.6151
 2857TIP3    H1 8535   0.774   3.774   1.606  0.4839  0.5326 -0.5056
 2857TIP3    H2 8536   0.751   3.880   1.500 -1.7886  1.7086  1.0696
 2858TIP3   OH2 8537   6.714   0.096   5.411  0.4214  0.0266  0.1350
 2858TIP3    H1 8538   6.708   0.190   5.395  1.5385 -0.1859 -1.7536
 2858TIP3    H2 8539   6.627   0.072   5.443 -0.7779  1.2531 -1.9570
 2859TIP3   OH2 8540   0.204   2.943   3.022 -0.2558  0.0961 -0.0492
 2859TIP3    H1 8541   0.251   3.000   3.083  2.0910 -3.6489  2.0254
 2859TIP3    H2 8542   0.164   2.876   3.078 -2.0535 -0.8981 -2.3673
 2860TIP3   OH2 8543   1.928   4.753   1.672 -0.5720 -0.0249  0.5949
 2860TIP3    H1 8544   2.015   4.726   1.642 -1.5531 -2.2607 -0.4928
 2860TIP3    H2 8545   1.946   4.806   1.750  1.7658 -0.0255  0.1528
 2861TIP3   OH2 8546   5.960   3.251   3.860  0.3114  0.6798  0.4458
 2861TIP3    H1 8547   5.897   3.241   3.932  0.9684  0.8504  1.0569
 2861TIP3    H2 8548   6.038   3.204   3.889  1.0645  1.8753  0.4561
 2862TIP3   OH2 8549   0.849   5.032   2.734 -0.4829 -0.2331  0.1894
 2862TIP3    H1 8550   0.805   4.961   2.688 -0.5972  0.1024 -0.2231
 2862TIP3    H2 8551   0.905   5.072   2.668  0.7455 -0.8957  0.8025
 2863TIP3   OH2 8552   3.823   5.104   5.470 -0.4089  0.2942 -0.5095
 2863TIP3    H1 8553   3.848   5.180   5.418 -2.3599  0.0310 -1.9103
 2863TIP3    H2 8554   3.828   5.030   5.409 -1.6434 -0.1975 -0.0443
 2864TIP3   OH2 8555   6.815   1.198   2.274 -0.9892 -0.0593 -0.0431
 2864TIP3    H1 8556   6.785   1.268   2.217 -0.0353 -0.6571 -1.3202
 2864TIP3    H2 8557   6.789   1.117   2.229 -1.4806 -0.5393  1.0710
 2865TIP3   OH2 8558   6.840   1.737   4.753  0.0242 -0.5506  0.4953
 2865TIP3    H1 8559   6.919   1.755   4.805 -0.1150 -0.0448  0.5412
 2865TIP3    H2 8560   6.870   1.742   4.662 -0.6359  3.5471  0.3078
 2866TIP3   OH2 8561   6.711   6.022   0.672  0.1230  0.4050 -0.2393
 2866TIP3    H1 8562   6.767   6.097   0.656 -0.1809  0.4582 -1.1304
 2866TIP3    H2 8563   6.700   5.981   0.585 -1.6433  0.7156 -0.1957
 2867TIP3   OH2 8564   5.162   4.295   5.107  0.1486  0.9202 -0.2019
 2867TIP3    H1 8565   5.069   4.291   5.084  0.3164 -0.6989 -0.7456
 2867TIP3    H2 8566   5.163   4.304   5.202 -0.6268 -1.4825  0.1109
 2868TIP3   OH2 8567   0.752   4.794   1.855 -0.1369 -0.6963 -0.1849
 2868TIP3    H1 8568   0.798   4.710   1.842  1.5577  0.0805  0.5408
 2868TIP3    H2 8569   0.717   4.789   1.944 -0.3683 -0.7638 -0.2771
 2869TIP3   OH2 8570   5.646   4.959   1.889 -0.1238 -0.2300 -0.0575
 2869TIP3    H1 8571   5.701   4.985   1.963 -1.8554  1.5202  0.7115
 2869TIP3    H2 8572   5.630   4.865   1.903 -0.1718 -0.0056  1.6679
 2870TIP3   OH2 8573   5.517   4.858   3.563 -0.4273  0.5817  0.5082
 2870TIP3    H1 8574   5.526   4.763   3.566 -0.1499  0.5441 -0.8070
 2870TIP3    H2 8575   5.526   4.887   3.654 -0.5008 -0.6446  0.9130
 2871TIP3   OH2 8576   6.049   1.987   4.609 -0.3783 -0.2814  0.1296
 2871TIP3    H1 8577   5.971   2.016   4.562 -0.4288 -0.4810  0.0916
 2871TIP3    H2 8578   6.116   2.050   4.584 -0.3386 -0.5324 -0.4066
 2872TIP3   OH2 8579   1.395   5.685   5.659 -0.2582  0.0198 -0.3288
 2872TIP3    H1 8580   1.420   5.681   5.751  0.6103 -0.5819 -0.5791
 2872TIP3    H2 8581   1.376   5.595   5.635  0.5160  0.0306 -1.0024
 2873TIP3   OH2 8582   7.149   1.837   2.759  0.0749  0.5889 -0.3850
 2873TIP3    H1 8583   7.075   1.885   2.723 -0.6189 -0.4932 -0.4738
 2873TIP3    H2 8584   7.221   1.853   2.698 -0.2690  1.1342 -0.6498
 2874TIP3   OH2 8585   6.033   1.392   0.459  0.1560  0.1865  0.8531
 2874TIP3    H1 8586   5.982   1.469   0.436  0.3275  0.8292  2.4675
 2874TIP3    H2 8587   5.971   1.334   0.502  0.2998 -0.0386  0.7598
 2875TIP3   OH2 8588   0.251   3.732   3.322 -0.1442 -0.5748  0.1168
 2875TIP3    H1 8589   0.195   3.698   3.392  0.7976 -0.9245  0.7187
 2875TIP3    H2 8590   0.312   3.791   3.367  0.4054 -0.7264 -0.4238
 2876TIP3   OH2 8591   3.872   1.764   5.452 -0.3663  0.3489 -0.2552
 2876TIP3    H1 8592   3.919   1.822   5.392  2.4716  1.3269  2.6144
 2876TIP3    H2 8593   3.837   1.822   5.520 -1.5487 -0.8984  0.2502
 2877TIP3   OH2 8594   4.125   3.243   2.349  0.3154  0.0129 -0.2388
 2877TIP3    H1 8595   4.194   3.177   2.361  0.8848  0.7883  0.9286
 2877TIP3    H2 8596   4.082   3.249   2.435 -0.2191  0.6224 -0.5395
 2878TIP3   OH2 8597   5.891   6.740   1.565 -0.3321  0.5009  0.0750
 2878TIP3    H1 8598   5.838   6.667   1.534  0.8380  0.2571 -1.4838
 2878TIP3    H2 8599   5.867   6.750   1.657 -2.3740 -0.1758 -0.3285
 2879TIP3   OH2 8600   7.021   3.719   2.970  0.0901  0.1388 -0.3529
 2879TIP3    H1 8601   7.010   3.706   3.064  0.7986 -0.0063 -0.2895
 2879TIP3    H2 8602   7.020   3.631   2.933 -1.3278  0.2424 -0.6200
 2880TIP3   OH2 8603   1.212   1.685   3.678  0.8654  0.2410 -0.4047
 2880TIP3    H1 8604   1.161   1.735   3.614  0.7284  0.5722 -0.0413
 2880TIP3    H2 8605   1.173   1.597   3.676  1.1376  0.1332 -1.0777
 2881TIP3   OH2 8606   0.926   2.432   4.704  0.1825 -0.1648  0.4547
 2881TIP3    H1 8607   0.956   2.374   4.633 -1.5886  0.2651 -0.7248
 2881TIP3    H2 8608   1.005   2.476   4.734  0.8201  0.8218 -2.3821
 2882TIP3   OH2 8609   3.773   3.873   5.218  0.7343  0.2275 -0.0404
 2882TIP3    H1 8610   3.865   3.853   5.203  0.6650  0.9459 -1.6935
 2882TIP3    H2 8611   3.736   3.885   5.130 -1.6139 -2.7843  0.3648
 2883TIP3   OH2 8612   4.016   5.407   5.791 -0.6314 -0.4461  0.3672
 2883TIP3    H1 8613   3.981   5.333   5.842  0.0844 -0.6257  0.6130
 2883TIP3    H2 8614   3.988   5.484   5.839 -0.8432 -0.5783  0.4596
 2884TIP3   OH2 8615   6.861   1.193   5.457  0.1558 -0.2649 -0.1738
 2884TIP3    H1 8616   6.888   1.280   5.486  0.8145 -0.4298 -0.2896
 2884TIP3    H2 8617   6.934   1.136   5.479 -0.1991 -0.7624 -0.2612
 2885TIP3   OH2 8618   1.456   0.127   5.154  0.5665 -0.1214 -0.0908
 2885TIP3    H1 8619   1.416   0.123   5.240  0.3370 -1.0886 -0.2353
 2885TIP3    H2 8620   1.398   0.076   5.097  0.0276  1.5416 -1.0990
 2886TIP3   OH2 8621   4.513   5.489   2.139  0.9006 -0.1247  0.0825
 2886TIP3    H1 8622   4.526   5.565   2.196  2.0948  0.4107 -0.8740
 2886TIP3    H2 8623   4.525   5.523   2.051 -0.3321 -1.0703 -0.4813
 2887TIP3   OH2 8624   7.102   0.924   3.589  0.3750  0.4284  0.0571
 2887TIP3    H1 8625   7.187   0.968   3.598  2.0494 -2.4620 -0.4936
 2887TIP3    H2 8626   7.101   0.892   3.498 -0.6241 -0.8592  0.4944
 2888TIP3   OH2 8627   3.197   5.660   1.834 -0.0516 -0.5583 -0.0837
 2888TIP3    H1 8628   3.268   5.688   1.776  0.3587  0.9330  1.0604
 2888TIP3    H2 8629   3.236   5.590   1.887 -0.4670 -2.0123 -1.6414
 2889TIP3   OH2 8630   6.508   3.921   5.763 -0.3448 -0.1153 -0.1134
 2889TIP3    H1 8631   6.545   3.959   5.843 -0.6464  0.3779 -0.2060
 2889TIP3    H2 8632   6.511   3.992   5.699  0.5441 -0.7043 -0.7539
 2890TIP3   OH2 8633   4.934   6.193   3.885 -0.4118  0.3086  0.0270
 2890TIP3    H1 8634   4.894   6.208   3.971  1.8223 -0.2427  1.2684
 2890TIP3    H2 8635   5.024   6.223   3.896  0.3887 -1.3088 -1.6047
 2891TIP3   OH2 8636   3.469   4.411   4.712  0.8361  0.0807 -0.1819
 2891TIP3    H1 8637   3.391   4.466   4.709  0.3264 -0.5607  0.8060
 2891TIP3    H2 8638   3.436   4.321   4.712  1.5131 -0.1982  1.1206
 2892TIP3   OH2 8639   3.983   5.160   0.539  0.5403 -0.3752 -0.1503
 2892TIP3    H1 8640   4.043   5.203   0.478  0.2613 -1.4242 -1.2164
 2892TIP3    H2 8641   4.037   5.137   0.614  0.9856  0.5912 -0.1613
 2893TIP3   OH2 8642   0.666   5.032   4.653  0.6368 -0.0537 -0.1516
 2893TIP3    H1 8643   0.657   5.126   4.667 -1.7722 -0.2443  0.0099
 2893TIP3    H2 8644   0.728   5.004   4.720  0.0174  1.1584  0.9800
 2894TIP3   OH2 8645   5.391   4.506   0.665 -0.4439 -0.3646 -0.0679
 2894TIP3    H1 8646   5.466   4.448   0.651  0.4724  0.5938  0.7042
 2894TIP3    H2 8647   5.348   4.472   0.744 -0.7908 -0.8527 -0.4542
 2895TIP3   OH2 8648   5.626   2.661   2.225 -0.0307  1.0325  0.0385
 2895TIP3    H1 8649   5.610   2.613   2.306  1.7262 -0.3924 -0.3894
 2895TIP3    H2 8650   5.539   2.688   2.196 -0.9366 -0.4841  1.1764
 2896TIP3   OH2 8651   6.142   2.343   5.679 -0.1814 -0.4837 -0.1318
 2896TIP3    H1 8652   6.212   2.408   5.672  0.1658 -0.5802  1.8669
 2896TIP3    H2 8653   6.093   2.352   5.597  1.4253  0.4362 -1.0575
 2897TIP3   OH2 8654   5.223   5.961   5.735  0.0822  0.1613 -0.8073
 2897TIP3    H1 8655   5.295   5.921   5.686  0.5992  0.1879 -0.0778
 2897TIP3    H2 8656   5.164   5.889   5.754  0.6406 -0.1256 -0.1430
 2898TIP3   OH2 8657   4.474   4.942   3.674 -0.2266  0.0334 -0.4847
 2898TIP3    H1 8658   4.566   4.954   3.698 -0.5349  0.5138  0.4963
 2898TIP3    H2 8659   4.455   5.017   3.618  0.2867 -0.6943 -1.6863
 2899TIP3   OH2 8660   2.572   6.072   5.417  0.0960 -0.2657  0.2833
 2899TIP3    H1 8661   2.489   6.076   5.368 -1.2009 -0.1394  2.3554
 2899TIP3    H2 8662   2.633   6.030   5.357 -1.4181 -0.2164 -1.3887
 2900TIP3   OH2 8663   0.486   3.392   1.447  0.4336  0.0727  0.2815
 2900TIP3    H1 8664   0.391   3.395   1.458  0.2727 -2.5986  0.3813
 2900TIP3    H2 8665   0.520   3.379   1.536  0.8255  0.1119  0.1378
 2901TIP3   OH2 8666   6.443   6.754   1.176  0.1213  0.8029 -0.2514
 2901TIP3    H1 8667   6.377   6.697   1.135 -2.5900  1.2337  3.1009
 2901TIP3    H2 8668   6.437   6.835   1.126 -2.8616  1.2193  0.5662
 2902TIP3   OH2 8669   1.488   3.176   2.848 -0.0958  0.5258 -0.1807
 2902TIP3    H1 8670   1.535   3.259   2.834 -0.0039  0.3265 -1.1418
 2902TIP3    H2 8671   1.541   3.129   2.912  0.1485  0.9824 -0.0457
 2903TIP3   OH2 8672   0.416   4.468   0.328 -0.2620  0.2138  0.1067
 2903TIP3    H1 8673   0.503   4.490   0.359  0.4367 -0.6969 -1.1288
 2903TIP3    H2 8674   0.362   4.468   0.408  0.3899  2.7295  0.6381
 2904TIP3   OH2 8675   7.161   6.692   4.528 -0.4409  0.1094 -0.1293
 2904TIP3    H1 8676   7.250   6.714   4.502 -0.1160  0.1172  0.9324
 2904TIP3    H2 8677   7.111   6.695   4.447  0.5678 -0.1277 -0.7832
 2905TIP3   OH2 8678   5.338   3.059   5.101  0.0988 -0.7478 -0.1043
 2905TIP3    H1 8679   5.363   3.064   5.193 -0.7810  0.5114  0.0904
 2905TIP3    H2 8680   5.253   3.102   5.096 -0.1645 -1.3519 -1.4113
 2906TIP3   OH2 8681   2.290   1.439   4.659 -0.0721 -0.3628 -0.4322
 2906TIP3    H1 8682   2.350   1.513   4.666 -0.2674 -0.3027  1.1332
 2906TIP3    H2 8683   2.346   1.362   4.666 -0.0635 -0.3174  0.0637
 2907TIP3   OH2 8684   3.018   1.068   3.464 -0.3553  0.1420 -0.4347
 2907TIP3    H1 8685   3.100   1.065   3.513 -0.7351 -2.1293  0.1840
 2907TIP3    H2 8686   3.044   1.084   3.374  0.7385 -0.2343 -0.2008
 2908TIP3   OH2 8687   0.055   1.403   3.258  0.5983  0.6098  0.4089
 2908TIP3    H1 8688   0.078   1.312   3.278 -2.6963 -0.4435 -0.1196
 2908TIP3    H2 8689   0.041   1.404   3.163  2.4690  2.2345  0.0649
 2909TIP3   OH2 8690   6.014   5.691   5.567 -0.1074 -0.4226 -0.8359
 2909TIP3    H1 8691   6.052   5.767   5.523  0.4596  0.5568  1.2136
 2909TIP3    H2 8692   6.088   5.637   5.591 -0.4748 -1.3802 -1.7771
 2910TIP3   OH2 8693   6.701   5.030   3.127 -0.0026 -0.2038  0.1000
 2910TIP3    H1 8694   6.743   5.116   3.136 -0.5036 -0.0677  1.2565
 2910TIP3    H2 8695   6.607   5.050   3.121  0.0075 -0.5506 -1.8089
 2911TIP3   OH2 8696   6.444   0.936   5.312  0.7140 -0.1036 -0.3810
 2911TIP3    H1 8697   6.404   0.991   5.245 -0.7141 -1.0322 -0.3350
 2911TIP3    H2 8698   6.539   0.946   5.298  0.4570  0.9170 -1.5305
 2912TIP3   OH2 8699   7.167   1.690   0.239 -0.0821 -0.0991  0.1500
 2912TIP3    H1 8700   7.169   1.702   0.144 -0.6942 -1.4024 -0.0493
 2912TIP3    H2 8701   7.103   1.754   0.270 -0.4822 -0.2241 -0.4066
 2913TIP3   OH2 8702   4.450   1.959   0.410 -0.5659 -0.3302  0.6011
 2913TIP3    H1 8703   4.545   1.964   0.397 -0.2426 -1.5552  2.2538
 2913TIP3    H2 8704   4.414   1.996   0.329  1.3002 -0.1324 -0.2080
 2914TIP3   OH2 8705   5.293   2.047   0.225  0.3912  0.8267 -0.7326
 2914TIP3    H1 8706   5.240   1.978   0.184 -1.1198  1.5663 -0.1338
 2914TIP3    H2 8707   5.232   2.121   0.233  1.1350  1.2744  1.2199
 2915TIP3   OH2 8708   2.135   1.997   3.066 -0.2874 -0.6079 -0.2150
 2915TIP3    H1 8709   2.041   1.980   3.063 -0.5063  0.0602  1.5475
 2915TIP3    H2 8710   2.174   1.929   3.012 -1.6797 -1.7721  0.2045
 2916TIP3   OH2 8711   6.464   3.761   5.133 -0.1440 -0.4977 -0.0270
 2916TIP3    H1 8712   6.404   3.827   5.098 -0.6513 -0.7300  0.3858
 2916TIP3    H2 8713   6.493   3.797   5.216 -1.1387 -1.1820  0.6431
 2917TIP3   OH2 8714   3.001   5.772   3.872  0.2753  0.2957  0.5950
 2917TIP3    H1 8715   2.973   5.805   3.957 -1.0235 -0.5075  0.5136
 2917TIP3    H2 8716   2.957   5.687   3.863 -0.3062  0.7278 -1.2073
 2918TIP3   OH2 8717   0.659   3.519   5.717 -0.2681 -1.1275  0.1746
 2918TIP3    H1 8718   0.565   3.507   5.714 -0.4938  0.4748 -0.4151
 2918TIP3    H2 8719   0.676   3.589   5.653  1.2159 -0.8744  0.8037
 2919TIP3   OH2 8720   3.677   2.149   4.853  0.1792 -0.1585 -0.3389
 2919TIP3    H1 8721   3.667   2.079   4.918 -2.6963 -1.3667 -1.8769
 2919TIP3    H2 8722   3.616   2.216   4.881  0.4177  0.2182 -0.7165
 2920TIP3   OH2 8723   3.226   3.687   5.474 -0.7879 -0.1060  0.5314
 2920TIP3    H1 8724   3.302   3.630   5.458 -1.0797 -1.0865  2.3883
 2920TIP3    H2 8725   3.264   3.772   5.495 -0.1504 -0.6605  1.7449
 2921TIP3   OH2 8726   0.846   2.344   1.634 -0.3763 -0.1253  0.1427
 2921TIP3    H1 8727   0.787   2.348   1.558 -0.2268  0.1136  0.0370
 2921TIP3    H2 8728   0.904   2.419   1.623  0.3128 -0.6728 -0.0565
 2922TIP3   OH2 8729   0.375   1.912   3.568 -0.0951  0.1354 -0.1955
 2922TIP3    H1 8730   0.315   1.889   3.497  1.5525  0.2623 -1.7302
 2922TIP3    H2 8731   0.427   1.832   3.582 -0.0263  0.2943  0.4616
 2923TIP3   OH2 8732   6.871   1.411   4.174  0.3640  0.3538 -0.1763
 2923TIP3    H1 8733   6.952   1.405   4.225 -0.1308 -0.6434  0.5332
 2923TIP3    H2 8734   6.847   1.504   4.177  1.9315  0.8373 -1.1613
 2924TIP3   OH2 8735   1.929   1.181   0.202 -0.2335 -0.2121  0.1773
 2924TIP3    H1 8736   1.856   1.241   0.188  0.2440  0.5517  0.8926
 2924TIP3    H2 8737   2.006   1.237   0.202  0.0697 -0.4877  2.8883
 2925TIP3   OH2 8738   0.717   1.316   2.758 -0.3545  0.2072  0.0122
 2925TIP3    H1 8739   0.736   1.261   2.682 -3.7602 -0.2933 -0.6503
 2925TIP3    H2 8740   0.709   1.254   2.831 -1.2243  0.1277 -0.1315
 2926TIP3   OH2 8741   0.543   6.427   1.596 -0.2728  0.2545  0.5343
 2926TIP3    H1 8742   0.618   6.467   1.553  0.2081 -0.4518  0.6923
 2926TIP3    H2 8743   0.469   6.483   1.573  0.2451  0.7711  0.1018
 2927TIP3   OH2 8744   6.545   5.035   4.298  0.5843 -0.1023 -0.0417
 2927TIP3    H1 8745   6.546   4.953   4.249  1.3409 -0.8794  1.1955
 2927TIP3    H2 8746   6.578   5.100   4.237  1.7869 -1.0945 -0.4961
 2928TIP3   OH2 8747   4.155   1.132   2.270  0.0244 -0.2011 -0.5185
 2928TIP3    H1 8748   4.075   1.118   2.321 -2.7569  1.1899 -4.0801
 2928TIP3    H2 8749   4.159   1.056   2.211  1.5704 -0.4231 -0.1556
 2929TIP3   OH2 8750   1.666   4.464   5.620  0.2975 -0.2091  0.1676
 2929TIP3    H1 8751   1.737   4.527   5.636  0.7681 -0.3102 -1.3149
 2929TIP3    H2 8752   1.593   4.517   5.589 -0.1693 -0.1466  1.3334
 2930TIP3   OH2 8753   1.074   1.319   1.476 -0.5640  0.0937  0.1302
 2930TIP3    H1 8754   1.006   1.328   1.544  1.7647  1.4675  2.4836
 2930TIP3    H2 8755   1.121   1.402   1.479  0.7645 -0.5244 -1.9558
 2931TIP3   OH2 8756  -0.037   6.533   0.473 -0.0274 -0.2101  0.0751
 2931TIP3    H1 8757   0.021   6.528   0.550 -1.1548 -1.4937  0.8899
 2931TIP3    H2 8758   0.022   6.523   0.398  1.4386  3.3095  0.5278
 2932TIP3   OH2 8759   2.947   0.749   4.449  0.4253 -0.5961 -0.2348
 2932TIP3    H1 8760   2.962   0.751   4.543 -0.2049  0.7879 -0.1460
 2932TIP3    H2 8761   2.907   0.664   4.433 -0.1825 -0.5284  0.8576
 2933TIP3   OH2 8762   6.332   5.625   1.211 -0.1854 -0.4874  0.3800
 2933TIP3    H1 8763   6.396   5.623   1.140 -0.6120 -1.6512 -0.0009
 2933TIP3    H2 8764   6.274   5.551   1.193 -0.4977 -0.6132  1.7645
 2934TIP3   OH2 8765   0.997   0.148   1.919  0.0245  0.2513 -0.8507
 2934TIP3    H1 8766   0.928   0.157   1.854  0.1920  0.7790 -0.9592
 2934TIP3    H2 8767   1.077   0.172   1.873  0.0774  1.1211 -0.3250
 2935TIP3   OH2 8768   3.824   5.570   5.083  0.3272  0.2572  0.6593
 2935TIP3    H1 8769   3.891   5.624   5.041 -0.4093  0.5304 -0.1774
 2935TIP3    H2 8770   3.854   5.561   5.174  2.8620 -1.7548 -0.2382
 2936TIP3   OH2 8771   2.864   4.698   4.512 -0.2360 -0.1744 -0.5658
 2936TIP3    H1 8772   2.783   4.655   4.484  0.0440 -1.2983  0.2703
 2936TIP3    H2 8773   2.925   4.626   4.528  0.0137  0.4365  1.6478
 2937TIP3   OH2 8774   1.819   2.717   4.587  0.3178  0.1032 -0.0154
 2937TIP3    H1 8775   1.856   2.642   4.540 -3.1188 -0.2857 -2.4615
 2937TIP3    H2 8776   1.872   2.792   4.558  0.4609 -0.6403 -1.8186
 2938TIP3   OH2 8777   3.938   4.013   3.383  0.0254  0.3630  0.5686
 2938TIP3    H1 8778   3.873   3.943   3.390 -0.5358  0.8694  0.5312
 2938TIP3    H2 8779   3.969   4.027   3.472 -0.1231  0.3070  0.6295
 2939TIP3   OH2 8780   4.391   5.512   0.938  0.2283 -0.1928 -0.4285
 2939TIP3    H1 8781   4.353   5.507   1.026 -0.5239 -1.5036 -0.8035
 2939TIP3    H2 8782   4.465   5.572   0.948 -0.3232  0.3099  0.9189
 2940TIP3   OH2 8783   7.058   1.462   3.910 -0.0535  0.8279 -0.2795
 2940TIP3    H1 8784   7.017   1.509   3.837  0.3941 -1.0652 -1.8280
 2940TIP3    H2 8785   7.012   1.378   3.912 -1.4126  1.5054  2.9403
 2941TIP3   OH2 8786   6.767   4.445   3.540 -0.3114  0.5302  0.0577
 2941TIP3    H1 8787   6.750   4.507   3.612  0.6934 -1.1586  1.8561
 2941TIP3    H2 8788   6.703   4.375   3.554  0.0957  0.0328 -0.5319
 2942TIP3   OH2 8789   5.266   1.477   5.234 -0.3971 -0.5068  0.4372
 2942TIP3    H1 8790   5.315   1.467   5.152 -1.0923  0.3494 -0.0935
 2942TIP3    H2 8791   5.237   1.388   5.255  0.5863 -0.8861  0.2758
 2943TIP3   OH2 8792   2.866   4.535   5.904 -0.9538 -0.1215  0.0495
 2943TIP3    H1 8793   2.921   4.509   5.831  1.1728 -0.1140  1.5370
 2943TIP3    H2 8794   2.846   4.627   5.888 -2.9299 -0.8160 -1.8853
 2944TIP3   OH2 8795   5.894   2.683   0.436  0.5406  0.2480 -0.1500
 2944TIP3    H1 8796   5.916   2.599   0.398  0.3444  0.2611 -0.2962
 2944TIP3    H2 8797   5.808   2.705   0.398 -0.8732 -0.9165  2.1558
 2945TIP3   OH2 8798   0.916   0.070   1.132 -0.1454  0.0735  0.3723
 2945TIP3    H1 8799   0.848   0.046   1.194 -0.7248  1.0292  0.1266
 2945TIP3    H2 8800   0.915   0.165   1.131  0.3226  0.0794 -0.5979
 2946TIP3   OH2 8801   6.866   3.571   1.558 -0.2943 -0.3998  0.2867
 2946TIP3    H1 8802   6.888   3.479   1.572 -1.1016 -0.3506  2.2011
 2946TIP3    H2 8803   6.806   3.593   1.630 -1.4683  1.1709 -1.0875
 2947TIP3   OH2 8804   1.192   2.876   1.382  0.3290 -0.1387 -0.6612
 2947TIP3    H1 8805   1.242   2.904   1.306  0.7066  1.3531  0.0836
 2947TIP3    H2 8806   1.120   2.938   1.388 -1.9118 -2.4366 -1.9021
 2948TIP3   OH2 8807   6.056   1.298   4.349 -0.6432  0.3564  0.2085
 2948TIP3    H1 8808   5.973   1.251   4.361 -0.1773  0.0593  2.7418
 2948TIP3    H2 8809   6.079   1.282   4.257 -3.0147 -0.1352 -0.3681
 2949TIP3   OH2 8810   2.986   5.402   3.651  0.3534 -0.4963 -0.3465
 2949TIP3    H1 8811   2.896   5.433   3.639  0.1142 -0.6395  0.9248
 2949TIP3    H2 8812   2.977   5.320   3.699  1.2041  0.6061  1.8501
 2950TIP3   OH2 8813   2.871   2.640   3.929  0.4975  0.3140 -0.1562
 2950TIP3    H1 8814   2.837   2.554   3.953  0.1415  0.5178  0.0679
 2950TIP3    H2 8815   2.831   2.700   3.991  0.6566  0.6584 -0.3849
 2951TIP3   OH2 8816   3.114   1.427   2.193  0.1905 -0.3409 -0.1881
 2951TIP3    H1 8817   3.197   1.383   2.210  0.1079 -0.4579 -0.0898
 2951TIP3    H2 8818   3.136   1.520   2.191  0.4016 -0.3972 -0.6033
 2952TIP3   OH2 8819   3.335   2.200   5.639 -0.5414  0.4142  0.1660
 2952TIP3    H1 8820   3.403   2.177   5.577 -0.5178  0.5310  0.1473
 2952TIP3    H2 8821   3.364   2.163   5.722 -0.5831  0.2404  0.1025
 2953TIP3   OH2 8822   4.846   6.816   2.912  0.0529  0.3489  0.2848
 2953TIP3    H1 8823   4.860   6.741   2.970  0.7551  1.0396  1.0535
 2953TIP3    H2 8824   4.871   6.785   2.825  0.1447 -0.3608  0.5619
 2954TIP3   OH2 8825   4.736   3.078   1.842 -0.0981 -0.6356 -0.1641
 2954TIP3    H1 8826   4.674   3.040   1.904 -2.2004  0.2156 -1.6306
 2954TIP3    H2 8827   4.723   3.027   1.761  0.6922 -0.0421 -0.6824
 2955TIP3   OH2 8828   6.133   2.994   4.243  0.3501 -0.5171  0.1077
 2955TIP3    H1 8829   6.165   2.969   4.157 -0.4785  0.3936 -0.4888
 2955TIP3    H2 8830   6.075   2.923   4.269  0.7564 -0.8859  0.0005
 2956TIP3   OH2 8831   7.052   1.698   1.790  0.2528  0.2227 -0.0600
 2956TIP3    H1 8832   7.051   1.775   1.733 -0.8313  0.5558  0.3777
 2956TIP3    H2 8833   7.137   1.657   1.774  1.4640  2.2676  0.6774
 2957TIP3   OH2 8834   1.932   0.339   3.185  0.0856 -0.4224 -0.1324
 2957TIP3    H1 8835   2.012   0.378   3.151 -0.7677  1.2418 -0.3107
 2957TIP3    H2 8836   1.922   0.258   3.135  0.4889  0.4468 -1.6796
 2958TIP3   OH2 8837   3.911   3.806   5.834 -0.0815  0.3776 -0.1899
 2958TIP3    H1 8838   3.817   3.822   5.838 -0.3325 -0.9751 -0.2647
 2958TIP3    H2 8839   3.931   3.762   5.916  0.6430  1.3533  0.1729
 2959TIP3   OH2 8840   3.460   0.556   5.897 -0.4389 -0.1956  0.1750
 2959TIP3    H1 8841   3.529   0.533   5.834  0.6680  0.5632  1.0895
 2959TIP3    H2 8842   3.439   0.473   5.941 -1.2102 -0.7365 -1.1223
 2960TIP3   OH2 8843   2.090   5.477   2.072  0.2614  0.1147 -0.1219
 2960TIP3    H1 8844   2.146   5.471   1.995  0.1476  1.3335 -0.3281
 2960TIP3    H2 8845   2.004   5.501   2.037  0.0219 -0.0847  0.3208
 2961TIP3   OH2 8846   3.275   0.649   4.400 -0.1694 -0.1804  0.1546
 2961TIP3    H1 8847   3.255   0.698   4.321 -1.1770 -0.4012  0.2592
 2961TIP3    H2 8848   3.193   0.647   4.449  0.4626  0.0683  1.2748
 2962TIP3   OH2 8849   7.181   6.209   0.515 -0.2735 -0.3360  0.2507
 2962TIP3    H1 8850   7.236   6.283   0.488  1.3734 -1.1711  1.1768
 2962TIP3    H2 8851   7.098   6.250   0.541  0.3459  1.1129  0.0722
 2963TIP3   OH2 8852   0.593   2.831   0.131 -0.0029  0.5892  0.3030
 2963TIP3    H1 8853   0.533   2.861   0.062 -1.5499  0.2415  1.4503
 2963TIP3    H2 8854   0.587   2.899   0.199 -0.1256 -0.1074  0.9981
 2964TIP3   OH2 8855   1.491   6.665   3.963  0.4817 -0.3417 -0.0120
 2964TIP3    H1 8856   1.499   6.638   4.054  0.0429 -0.5876 -0.0426
 2964TIP3    H2 8857   1.482   6.760   3.966  0.0688 -0.3831  0.2325
 2965TIP3   OH2 8858   6.257   3.389   5.528  0.0927  0.5423 -0.5697
 2965TIP3    H1 8859   6.178   3.342   5.502  0.7282 -0.7862 -0.1622
 2965TIP3    H2 8860   6.329   3.338   5.491  0.8274  0.9041  0.3206
 2966TIP3   OH2 8861   5.222   2.191   3.082  0.7695  0.3435 -0.1600
 2966TIP3    H1 8862   5.292   2.198   3.147  2.2516 -1.4510 -1.4452
 2966TIP3    H2 8863   5.170   2.116   3.112  0.7086  0.3057 -0.3612
 2967TIP3   OH2 8864   0.725   1.689   0.686  0.1742 -0.4267 -0.5136
 2967TIP3    H1 8865   0.804   1.658   0.730  0.6996 -0.1030 -1.2033
 2967TIP3    H2 8866   0.728   1.784   0.696 -0.0129 -0.3970 -0.7347
 2968TIP3   OH2 8867   6.244   2.429   3.645 -0.1099 -0.1084 -0.2612
 2968TIP3    H1 8868   6.213   2.393   3.561  0.3911 -0.6881 -0.2055
 2968TIP3    H2 8869   6.304   2.499   3.621  0.8357 -0.9467 -0.4165
 2969TIP3   OH2 8870   4.183   2.635   1.380  0.5634  0.0047 -0.5552
 2969TIP3    H1 8871   4.135   2.587   1.313 -0.7404 -0.8259  0.9188
 2969TIP3    H2 8872   4.271   2.646   1.343 -0.0111 -0.7168 -2.2357
 2970TIP3   OH2 8873   2.386   0.566   3.214  0.3568  0.7817 -0.0382
 2970TIP3    H1 8874   2.411   0.655   3.238  0.7175  1.2950 -2.1134
 2970TIP3    H2 8875   2.469   0.518   3.208  0.2355  0.5359  0.2295
 2971TIP3   OH2 8876   3.766   0.111   5.085  0.2753 -0.2013  0.6411
 2971TIP3    H1 8877   3.847   0.137   5.129  0.8406  0.3019 -0.6254
 2971TIP3    H2 8878   3.714   0.191   5.083  0.1588 -0.2784  0.6078
 2972TIP3   OH2 8879   6.159   0.662   1.768 -0.4223  0.1085 -0.2223
 2972TIP3    H1 8880   6.111   0.744   1.758  0.4375  0.6947  0.3564
 2972TIP3    H2 8881   6.246   0.681   1.735 -0.7991 -1.2151 -2.1619
 2973TIP3   OH2 8882   3.228   1.542   2.839 -0.6894 -0.2166 -0.3670
 2973TIP3    H1 8883   3.150   1.545   2.895 -1.1279 -1.0311 -0.9194
 2973TIP3    H2 8884   3.268   1.457   2.857  1.1293  0.8931  1.2749
 2974TIP3   OH2 8885   6.090   6.568   5.725  0.4680 -0.1884  0.1128
 2974TIP3    H1 8886   6.142   6.522   5.790 -0.2004  0.4076  1.1017
 2974TIP3    H2 8887   6.013   6.513   5.711  1.4081 -1.1689 -1.4983
 2975TIP3   OH2 8888   7.074   3.778   1.515 -0.3319  0.2206  0.0943
 2975TIP3    H1 8889   6.987   3.778   1.556 -0.7732 -0.7125 -0.7708
 2975TIP3    H2 8890   7.130   3.731   1.576  0.6475  4.2212  2.6144
 2976TIP3   OH2 8891   2.818   6.628   0.219  0.1357 -0.5148  0.3750
 2976TIP3    H1 8892   2.744   6.567   0.223 -0.9830  0.8134  2.9003
 2976TIP3    H2 8893   2.870   6.607   0.297  1.4176 -0.2337 -0.3845
 2977TIP3   OH2 8894   6.589   4.693   5.713 -0.7635  0.3220  0.4044
 2977TIP3    H1 8895   6.534   4.662   5.785 -0.1579 -0.5665  0.4976
 2977TIP3    H2 8896   6.676   4.655   5.730 -0.0622  1.8290  0.3552
 2978TIP3   OH2 8897   6.906   5.592   1.090 -0.2777 -0.3391 -0.0550
 2978TIP3    H1 8898   6.939   5.649   1.021  0.3370 -0.5109  0.0866
 2978TIP3    H2 8899   6.953   5.620   1.169  0.1946 -1.1685 -0.0222
 2979TIP3   OH2 8900   6.768   6.491   3.695  0.1165 -0.5518 -0.0567
 2979TIP3    H1 8901   6.852   6.508   3.738  1.0137  1.4084 -2.3898
 2979TIP3    H2 8902   6.782   6.411   3.645  0.9718  0.3179 -1.2474
 2980TIP3   OH2 8903   0.449   5.032   1.045 -0.6902 -0.1497  0.3719
 2980TIP3    H1 8904   0.401   4.955   1.075 -2.0248  0.1301 -0.9525
 2980TIP3    H2 8905   0.493   5.003   0.965  2.1022 -0.6302  1.9219
 2981TIP3   OH2 8906   4.605   6.648   1.685  0.3799 -0.3536 -0.3328
 2981TIP3    H1 8907   4.605   6.582   1.616  1.5356  1.1635 -1.9019
 2981TIP3    H2 8908   4.519   6.642   1.725 -0.1488 -1.6220 -1.5917
 2982TIP3   OH2 8909   0.563   5.892   3.793  0.1632  0.2435  0.0987
 2982TIP3    H1 8910   0.490   5.889   3.731 -0.7057 -1.4278  1.1175
 2982TIP3    H2 8911   0.635   5.848   3.747 -0.1214  0.0212 -0.1388
 2983TIP3   OH2 8912   5.240   3.900   0.195  0.0731  0.2251 -0.6195
 2983TIP3    H1 8913   5.282   3.876   0.276  1.1612  1.0480 -0.9158
 2983TIP3    H2 8914   5.199   3.985   0.214  0.3084  0.4067 -0.9123
 2984TIP3   OH2 8915   3.746   4.261   5.322 -0.3218  0.1539 -0.0270
 2984TIP3    H1 8916   3.768   4.243   5.414  0.9685 -2.6133 -0.7503
 2984TIP3    H2 8917   3.667   4.210   5.306 -1.2837  1.6363 -0.1896
 2985TIP3   OH2 8918   5.171   5.139   4.248 -0.5642 -0.3159  0.6834
 2985TIP3    H1 8919   5.098   5.104   4.300 -0.6053  0.9549  1.5360
 2985TIP3    H2 8920   5.157   5.104   4.160 -0.3407 -2.7571  1.5463
 2986TIP3   OH2 8921   5.691   4.095   2.314 -0.2799 -0.2488 -0.2269
 2986TIP3    H1 8922   5.631   4.022   2.299  0.6424 -0.8434 -1.1266
 2986TIP3    H2 8923   5.637   4.173   2.300 -1.0806 -0.7556 -0.0450
 2987TIP3   OH2 8924   4.981   0.927   1.603  0.1581  0.6178  0.2407
 2987TIP3    H1 8925   4.983   0.842   1.560  2.2329  0.5510  0.3456
 2987TIP3    H2 8926   4.891   0.937   1.633 -0.6101 -0.6534 -1.4767
 2988TIP3   OH2 8927   0.134   1.698   3.154  0.5691 -0.2288  0.4339
 2988TIP3    H1 8928   0.095   1.758   3.091  2.3077  1.0150  0.4913
 2988TIP3    H2 8929   0.058   1.654   3.195 -0.7026  1.2550 -0.2312
 2989TIP3   OH2 8930   0.449   4.924   4.139  0.2150 -0.6832 -0.0034
 2989TIP3    H1 8931   0.378   4.987   4.146  0.1012 -0.5993 -1.5491
 2989TIP3    H2 8932   0.524   4.974   4.106  0.7418 -0.9440  0.7665
 2990TIP3   OH2 8933   4.791   6.638   4.741 -0.1921  0.1016 -0.2360
 2990TIP3    H1 8934   4.778   6.606   4.652 -2.6760  0.1301  0.0423
 2990TIP3    H2 8935   4.730   6.586   4.794  0.7159  0.5876  1.3358
 2991TIP3   OH2 8936   5.875   0.351   4.054  0.1575 -0.6899  0.1112
 2991TIP3    H1 8937   5.808   0.284   4.040 -0.7967 -0.3932  2.6170
 2991TIP3    H2 8938   5.873   0.367   4.149  2.0593  1.1411 -0.0786
 2992TIP3   OH2 8939   5.771   4.957   2.603 -0.3564 -0.2324  0.3696
 2992TIP3    H1 8940   5.788   4.891   2.536 -1.9428 -0.5674  0.2645
 2992TIP3    H2 8941   5.678   4.949   2.622 -0.4202  1.4274  0.9526
 2993TIP3   OH2 8942   2.116   0.597   5.055  0.3641 -0.0266 -0.4814
 2993TIP3    H1 8943   2.046   0.564   5.112  0.8796 -0.4036 -0.0627
 2993TIP3    H2 8944   2.071   0.618   4.973 -0.1479 -0.8342 -0.4268
 2994TIP3   OH2 8945   0.212   2.959   5.807  0.1367 -0.0920 -0.2553
 2994TIP3    H1 8946   0.217   3.022   5.736  0.6589  1.9858  1.5014
 2994TIP3    H2 8947   0.205   3.013   5.886  2.1503 -2.1727  1.4825
 2995TIP3   OH2 8948   4.780   2.150   3.191 -0.5937  0.2570 -0.6984
 2995TIP3    H1 8949   4.823   2.226   3.232  1.2280 -1.3300  0.5216
 2995TIP3    H2 8950   4.707   2.130   3.249  0.5639 -0.5403  0.5368
 2996TIP3   OH2 8951   1.623   6.065   0.338  0.3013  0.4733  0.3962
 2996TIP3    H1 8952   1.615   5.978   0.298 -0.5778  0.6444  0.1641
 2996TIP3    H2 8953   1.588   6.125   0.272  0.1851  0.9150  0.8545
 2997TIP3   OH2 8954   2.771   0.372   0.411  0.4447 -0.1541 -0.9567
 2997TIP3    H1 8955   2.781   0.449   0.355 -0.5433  0.3877 -0.3942
 2997TIP3    H2 8956   2.713   0.314   0.361  0.2900 -0.0570 -0.8900
 2998TIP3   OH2 8957   1.921   0.460   0.244 -0.0660 -0.2569  0.5566
 2998TIP3    H1 8958   1.961   0.528   0.189 -0.2121  0.5187  1.3898
 2998TIP3    H2 8959   1.995   0.409   0.276  0.0288 -0.6373 -0.2517
 2999TIP3   OH2 8960   1.649   4.548   1.837 -0.1774  0.1318  0.2313
 2999TIP3    H1 8961   1.653   4.621   1.775 -0.0071  0.0066  0.0910
 2999TIP3    H2 8962   1.622   4.473   1.783  0.3611 -0.0649  0.2280
 3000TIP3   OH2 8963   6.847   6.072   4.374 -0.2204  0.6394 -0.3582
 3000TIP3    H1 8964   6.942   6.074   4.384 -0.2728 -0.3540  0.4536
 3000TIP3    H2 8965   6.814   6.075   4.463 -0.8836 -1.4079 -0.4841
 3001TIP3   OH2 8966   7.007   0.068   4.569  0.2678  0.5861 -0.1405
 3001TIP3    H1 8967   7.047   0.075   4.656  0.2020  0.6174 -0.1130
 3001TIP3    H2 8968   6.968   0.154   4.554  2.0968  1.3021 -1.0937
 3002TIP3   OH2 8969   0.675   2.516   5.350  0.1663 -0.7112  0.0686
 3002TIP3    H1 8970   0.662   2.422   5.339 -3.3099 -0.1486 -2.2391
 3002TIP3    H2 8971   0.599   2.545   5.401 -0.6684  1.2014 -2.1003
 3003TIP3   OH2 8972   4.311   2.339   3.306 -0.2105 -0.1845 -0.0959
 3003TIP3    H1 8973   4.266   2.271   3.256  0.3561 -0.5555 -0.1077
 3003TIP3    H2 8974   4.240   2.395   3.339 -0.7393 -1.2780  0.6554
 3004TIP3   OH2 8975   1.035   3.860   4.886  0.2700  0.1954 -0.6906
 3004TIP3    H1 8976   1.005   3.773   4.914 -0.5255  0.5052 -0.5485
 3004TIP3    H2 8977   1.103   3.842   4.821  1.7570 -0.5334  1.0181
 3005TIP3   OH2 8978   3.864   2.993   4.806  0.2795 -0.2663 -0.4122
 3005TIP3    H1 8979   3.926   3.042   4.860 -0.4531 -1.0712  1.2103
 3005TIP3    H2 8980   3.911   2.979   4.723  1.0161  1.9381 -0.4426
 3006TIP3   OH2 8981   5.442   6.250   5.715 -0.3439 -0.5063 -0.2693
 3006TIP3    H1 8982   5.464   6.340   5.738 -2.6846  0.1968 -0.5516
 3006TIP3    H2 8983   5.508   6.225   5.650  2.7269 -0.4480  2.5278
 3007TIP3   OH2 8984   3.793   5.206   3.619 -0.3753  0.5447  0.1504
 3007TIP3    H1 8985   3.780   5.268   3.691 -1.2524  1.3817 -0.6986
 3007TIP3    H2 8986   3.705   5.181   3.593 -0.0415 -0.5578  0.0293
 3008TIP3   OH2 8987   5.756   4.284   3.481 -1.4635  0.1413  0.0539
 3008TIP3    H1 8988   5.735   4.348   3.412  1.5784 -0.4302 -1.5639
 3008TIP3    H2 8989   5.832   4.320   3.525 -0.6623 -1.5761  0.1560
 3009TIP3   OH2 8990   1.559   0.601   5.275 -0.8814 -0.7842 -0.2025
 3009TIP3    H1 8991   1.545   0.520   5.226 -1.7916 -0.5590 -0.3402
 3009TIP3    H2 8992   1.533   0.670   5.214 -0.0626 -0.3812 -0.1021
 3010TIP3   OH2 8993   6.303   4.770   2.667  0.7611  0.1968 -0.5822
 3010TIP3    H1 8994   6.340   4.818   2.592  0.4526 -0.2270 -1.0091
 3010TIP3    H2 8995   6.237   4.829   2.703  0.9741  0.4411 -0.5889
 3011TIP3   OH2 8996   2.079   6.510   2.200 -0.2806 -0.3759  0.0578
 3011TIP3    H1 8997   2.045   6.599   2.192 -0.6479 -0.4800  0.3905
 3011TIP3    H2 8998   2.065   6.487   2.292  0.1798 -0.6316  0.0660
 3012TIP3   OH2 8999   1.648   0.669   0.076 -0.0156  0.2366 -0.6640
 3012TIP3    H1 9000   1.681   0.685   0.165 -1.7358 -1.4311  0.3392
 3012TIP3    H2 9001   1.722   0.630   0.030  1.3898  2.5311 -0.4942
 3013TIP3   OH2 9002   2.735   2.209   2.207  0.1919  0.2024 -0.4068
 3013TIP3    H1 9003   2.820   2.247   2.185 -0.4804  1.5788 -0.7999
 3013TIP3    H2 9004   2.688   2.281   2.250 -0.1113 -1.1075  1.5699
 3014TIP3   OH2 9005   2.700   0.370   0.687 -0.1300  0.2943  0.3799
 3014TIP3    H1 9006   2.674   0.284   0.653  1.5106 -0.3211  0.6107
 3014TIP3    H2 9007   2.775   0.396   0.634  1.1269  0.3073  2.0925
 3015TIP3   OH2 9008   0.432   6.212   3.596  0.2454  0.5056 -0.4477
 3015TIP3    H1 9009   0.519   6.221   3.557 -0.0404  0.8439 -1.0288
 3015TIP3    H2 9010   0.373   6.212   3.521 -0.1213 -2.3342 -0.2745
 3016TIP3   OH2 9011   2.218   5.339   4.927  0.1008 -0.4581 -0.3643
 3016TIP3    H1 9012   2.157   5.404   4.893 -0.4101 -2.2518 -3.2177
 3016TIP3    H2 9013   2.305   5.377   4.911 -0.1817 -0.5350 -2.2640
 3017TIP3   OH2 9014   3.073   5.787   5.640 -0.2100  0.1399 -0.3756
 3017TIP3    H1 9015   3.075   5.731   5.718  0.0786 -1.3702 -1.4180
 3017TIP3    H2 9016   3.012   5.743   5.580 -0.6124  1.3969 -0.9253
 3018TIP3   OH2 9017   3.472   5.540   1.179  0.1723 -0.1346 -0.1225
 3018TIP3    H1 9018   3.431   5.494   1.252 -4.0178  2.0534 -0.8114
 3018TIP3    H2 9019   3.507   5.471   1.123 -0.2643 -2.0679  1.8571
 3019TIP3   OH2 9020   4.290   1.647   2.203  0.1208  0.0141  0.3330
 3019TIP3    H1 9021   4.277   1.552   2.208  1.3164 -0.0864  2.2176
 3019TIP3    H2 9022   4.207   1.684   2.233 -0.2482 -0.4317 -0.1249
 3020TIP3   OH2 9023   6.673   4.860   2.248  0.2439 -0.9380  0.9163
 3020TIP3    H1 9024   6.717   4.911   2.316  0.3198 -0.4503  0.5050
 3020TIP3    H2 9025   6.598   4.821   2.293  1.1592 -1.9034  1.6620
 3021TIP3   OH2 9026   4.538   4.172   3.477  0.1406  0.1323 -0.3624
 3021TIP3    H1 9027   4.473   4.140   3.414 -2.9225 -1.2711  3.1301
 3021TIP3    H2 9028   4.499   4.251   3.514  2.3038  1.4721 -0.7882
 3022TIP3   OH2 9029   3.843   5.061   5.158  0.4386 -0.1845 -0.3263
 3022TIP3    H1 9030   3.762   5.011   5.144  1.2493 -1.3444 -1.0911
 3022TIP3    H2 9031   3.816   5.152   5.150 -1.0047 -0.4967  0.5853
 3023TIP3   OH2 9032   2.265   1.525   2.029  0.2417 -0.0252 -0.2652
 3023TIP3    H1 9033   2.286   1.451   1.973  0.6367 -2.3864  2.7715
 3023TIP3    H2 9034   2.183   1.500   2.073  0.0912  1.5765  0.4611
 3024TIP3   OH2 9035   3.735   5.125   0.664 -0.5750  0.1018 -0.1130
 3024TIP3    H1 9036   3.713   5.215   0.641  2.4773  0.8874 -0.3472
 3024TIP3    H2 9037   3.824   5.113   0.631 -0.3455 -2.5322  1.2411
 3025TIP3   OH2 9038   4.578   4.419   1.761  0.3338  0.1103 -0.5636
 3025TIP3    H1 9039   4.543   4.410   1.850  1.3989 -0.4392 -0.1747
 3025TIP3    H2 9040   4.673   4.424   1.774  0.3910  2.2102 -1.5227
 3026TIP3   OH2 9041   2.702   4.723   3.502  0.0439 -0.5282  1.0835
 3026TIP3    H1 9042   2.759   4.665   3.452 -0.0714  0.6110 -0.4322
 3026TIP3    H2 9043   2.762   4.778   3.553  0.3695  0.8298 -0.6852
 3027TIP3   OH2 9044   6.322   4.302   3.743  0.5358 -0.0884  0.3286
 3027TIP3    H1 9045   6.417   4.310   3.734  0.5079  0.3735  0.4407
 3027TIP3    H2 9046   6.286   4.362   3.678  0.3354  1.2142  1.5937
 3028TIP3   OH2 9047   5.055   4.374   3.483  0.2482  0.4830  0.2075
 3028TIP3    H1 9048   5.072   4.363   3.576  0.2156 -2.0021 -0.0181
 3028TIP3    H2 9049   4.966   4.409   3.480 -0.0359 -0.1009  1.1265
 3029TIP3   OH2 9050   3.289   0.524   5.067  0.5364 -0.2195 -0.1819
 3029TIP3    H1 9051   3.288   0.488   5.155  0.4194  1.1121  0.3920
 3029TIP3    H2 9052   3.197   0.523   5.039  0.1791  1.7277  0.7635
 3030TIP3   OH2 9053   3.254   3.718   1.084  0.2116 -0.1836 -0.2234
 3030TIP3    H1 9054   3.335   3.768   1.097 -0.9860  2.4025 -1.8215
 3030TIP3    H2 9055   3.190   3.762   1.140 -0.4747 -1.1972 -0.1969
 3031TIP3   OH2 9056   1.977   6.056   5.411 -0.2109 -0.0552  0.4180
 3031TIP3    H1 9057   2.021   5.977   5.443 -2.0026 -0.7464  1.3433
 3031TIP3    H2 9058   2.040   6.126   5.425  0.5737 -0.9766  1.7335
 3032TIP3   OH2 9059   1.910   3.479   5.887  0.4039  0.4281 -0.0471
 3032TIP3    H1 9060   1.848   3.521   5.828 -0.8164 -0.8373  0.2560
 3032TIP3    H2 9061   1.854   3.431   5.949  1.6820 -0.1635  0.6797
 3033TIP3   OH2 9062   0.532   2.461   5.058  0.0930  0.2394  0.7715
 3033TIP3    H1 9063   0.514   2.487   4.968 -2.1220 -0.0839  1.0773
 3033TIP3    H2 9064   0.512   2.539   5.110  2.1413  0.6896  0.9715
 3034TIP3   OH2 9065   0.169   1.904   3.366  0.0206 -0.0699 -0.1131
 3034TIP3    H1 9066   0.155   1.832   3.305  1.4003  0.9235 -1.6808
 3034TIP3    H2 9067   0.104   1.970   3.341  1.2833  0.7774 -1.2812
 3035TIP3   OH2 9068   4.828   4.934   5.757  0.0645  0.0783 -0.3358
 3035TIP3    H1 9069   4.762   4.936   5.826  1.4558  0.9067  1.0180
 3035TIP3    H2 9070   4.777   4.941   5.676 -1.5179  0.4636  0.6413
 3036TIP3   OH2 9071   0.698   5.527   2.056  0.3126  0.4850 -0.3181
 3036TIP3    H1 9072   0.667   5.569   2.136 -1.1315  1.5337 -1.3798
 3036TIP3    H2 9073   0.675   5.434   2.067 -0.1638  0.6754  0.3390
 3037TIP3   OH2 9074   6.623   6.098   3.442 -0.3681  0.2798 -0.0080
 3037TIP3    H1 9075   6.658   6.153   3.372 -0.2191  0.4934  0.2341
 3037TIP3    H2 9076   6.684   6.025   3.449 -1.9098 -1.3502 -2.1095
 3038TIP3   OH2 9077   1.239   5.571   2.909  0.1646  0.3556 -0.4396
 3038TIP3    H1 9078   1.267   5.600   2.822  0.0511  1.3318 -0.1639
 3038TIP3    H2 9079   1.175   5.501   2.892  1.8674 -1.1192 -1.0892
 3039TIP3   OH2 9080   4.790   4.071   0.571 -0.3340 -0.4970 -0.4158
 3039TIP3    H1 9081   4.738   4.028   0.639 -1.6363  1.3229 -0.1864
 3039TIP3    H2 9082   4.872   4.094   0.615 -0.6583 -0.4569  0.1822
 3040TIP3   OH2 9083   1.599   1.409   1.555  0.4648 -0.0734  0.2957
 3040TIP3    H1 9084   1.547   1.389   1.477  2.7867  0.0688 -1.3881
 3040TIP3    H2 9085   1.603   1.504   1.558 -0.3319 -0.0547  1.1247
 3041TIP3   OH2 9086   3.349   0.658   5.611  0.0493  0.9151 -0.5089
 3041TIP3    H1 9087   3.438   0.688   5.632 -0.0319  0.1376  1.0776
 3041TIP3    H2 9088   3.292   0.724   5.650 -0.1082 -0.6822  2.2702
 3042TIP3   OH2 9089   2.605   0.645   0.751 -0.5067 -0.3073  0.1136
 3042TIP3    H1 9090   2.593   0.552   0.737  0.0954 -0.3518 -0.1486
 3042TIP3    H2 9091   2.692   0.652   0.792 -0.8195  0.0847  0.7263
 3043TIP3   OH2 9092   0.828   1.762   3.383  0.1202 -0.1337 -0.3095
 3043TIP3    H1 9093   0.921   1.744   3.369  0.6388  1.7855  0.3249
 3043TIP3    H2 9094   0.803   1.817   3.309 -0.5526 -0.6917 -0.5102
 3044TIP3   OH2 9095   7.116   0.980   2.892 -0.1896  0.2676 -0.4299
 3044TIP3    H1 9096   7.052   1.001   2.823 -1.0952 -1.2529 -0.0869
 3044TIP3    H2 9097   7.063   0.957   2.968  0.7998  0.6677  0.4100
 3045TIP3   OH2 9098   2.603   6.334   4.015  0.6583 -0.6495  0.5824
 3045TIP3    H1 9099   2.616   6.240   4.013  0.7938 -0.6269  0.2894
 3045TIP3    H2 9100   2.636   6.362   4.100  0.7025 -0.8533  0.6321
 3046TIP3   OH2 9101   6.247   6.157   2.578  0.2889 -0.1660  0.2096
 3046TIP3    H1 9102   6.213   6.192   2.660  0.3930  0.0767  0.1536
 3046TIP3    H2 9103   6.271   6.235   2.528  0.8627 -0.3261  0.2259
 3047TIP3   OH2 9104   7.002   0.813   2.177 -0.5235 -0.2951  0.0525
 3047TIP3    H1 9105   6.934   0.876   2.152  0.6766  0.5575 -1.2045
 3047TIP3    H2 9106   7.041   0.786   2.094  0.5382 -0.9178  0.7325
 3048TIP3   OH2 9107   2.075   5.808   2.858  0.1855  0.5665  0.2209
 3048TIP3    H1 9108   2.006   5.745   2.878  0.4464  0.6883  1.6653
 3048TIP3    H2 9109   2.104   5.785   2.770 -0.5179 -0.5777  0.2635
 3049TIP3   OH2 9110   2.509   6.313   4.916 -0.4622  0.2625 -0.0987
 3049TIP3    H1 9111   2.487   6.220   4.914 -0.3737  0.2351 -2.4441
 3049TIP3    H2 9112   2.582   6.318   4.977 -1.4509 -0.9489  1.2529
 3050TIP3   OH2 9113   6.800   3.572   1.288  0.2852 -0.2186 -0.6031
 3050TIP3    H1 9114   6.807   3.569   1.383  2.0759 -0.2255 -0.7047
 3050TIP3    H2 9115   6.770   3.485   1.263  1.3119 -0.7216 -0.1288
 3051TIP3   OH2 9116   5.462   1.185   5.019  0.5429 -0.0082  0.5873
 3051TIP3    H1 9117   5.392   1.123   4.997  0.0480  0.2281  1.4457
 3051TIP3    H2 9118   5.464   1.186   5.115  1.3044  0.4665  0.5782
 3052TIP3   OH2 9119   5.810   5.971   3.501  0.0895  0.3826  0.3925
 3052TIP3    H1 9120   5.857   5.992   3.421  0.2047  0.7978  0.5670
 3052TIP3    H2 9121   5.725   6.013   3.491 -1.2467 -2.3541 -1.0034
 3053TIP3   OH2 9122   6.017   2.594   1.330 -0.0364 -0.6744 -0.1977
 3053TIP3    H1 9123   6.057   2.549   1.256  0.0990 -0.6510 -0.1387
 3053TIP3    H2 9124   6.090   2.634   1.377 -0.3110  1.2660 -1.3305
 3054TIP3   OH2 9125   0.042   6.723   2.984 -0.2242 -0.0028  0.0306
 3054TIP3    H1 9126   0.051   6.630   3.005  1.1174  0.1763  0.3305
 3054TIP3    H2 9127   0.123   6.763   3.017 -0.9680  1.3403  0.2952
 3055TIP3   OH2 9128   1.007   4.524   4.885 -0.4347 -0.4605  0.3428
 3055TIP3    H1 9129   1.008   4.619   4.872 -0.1910 -0.2092  1.9351
 3055TIP3    H2 9130   0.920   4.497   4.859 -0.6486  0.2782  0.2757
 3056TIP3   OH2 9131   4.090   3.930   1.165 -0.2065 -0.2876 -0.5952
 3056TIP3    H1 9132   4.180   3.935   1.133  0.2850  0.1819  0.7920
 3056TIP3    H2 9133   4.084   3.842   1.203  0.1370  0.1804  0.5866
 3057TIP3   OH2 9134   1.019   5.803   3.419 -0.3064 -0.2548 -0.2351
 3057TIP3    H1 9135   0.999   5.809   3.512  0.1393  0.3218 -0.1765
 3057TIP3    H2 9136   1.114   5.796   3.415 -0.3706 -1.0027 -0.6160
 3058TIP3   OH2 9137   3.774   4.077   1.244 -0.1047 -0.0217  0.2575
 3058TIP3    H1 9138   3.690   4.083   1.200  0.0971 -0.7852 -0.2487
 3058TIP3    H2 9139   3.839   4.081   1.174  0.3692  2.2121  0.7573
 3059TIP3   OH2 9140   3.788   0.410   4.073  0.0224 -0.0453  0.8231
 3059TIP3    H1 9141   3.820   0.442   4.157  3.8787 -0.3965 -0.3462
 3059TIP3    H2 9142   3.757   0.488   4.028  1.8176  0.8377  1.0363
 3060TIP3   OH2 9143   0.724   0.264   2.805  0.1328 -0.3195  0.8208
 3060TIP3    H1 9144   0.692   0.354   2.808 -0.6787 -0.3116 -2.9761
 3060TIP3    H2 9145   0.689   0.224   2.885 -0.3846  2.3988  2.0807
 3061TIP3   OH2 9146   0.158   4.529   5.073  0.3928 -0.5155 -0.6251
 3061TIP3    H1 9147   0.215   4.458   5.041 -0.4475 -0.5647 -2.1115
 3061TIP3    H2 9148   0.071   4.490   5.074  0.3300 -0.4011  1.5107
 3062TIP3   OH2 9149   0.381   4.128   2.230 -0.2348  0.5797 -0.2352
 3062TIP3    H1 9150   0.376   4.105   2.137  0.2009 -0.0724 -0.1020
 3062TIP3    H2 9151   0.324   4.065   2.273  1.1615 -0.4438  0.1601
 3063TIP3   OH2 9152   1.566   3.720   5.168  0.4024 -0.0153  0.2882
 3063TIP3    H1 9153   1.492   3.745   5.112 -0.2228 -0.6256  0.8126
 3063TIP3    H2 9154   1.552   3.626   5.185  1.2893 -0.1336  0.4138
 3064TIP3   OH2 9155   3.694   5.048   3.010  0.1769 -0.3016  0.3240
 3064TIP3    H1 9156   3.702   4.955   3.031 -0.1172 -0.4848 -0.3494
 3064TIP3    H2 9157   3.601   5.060   2.991  0.3873 -0.1076 -0.6494
 3065TIP3   OH2 9158   4.794   2.890   4.386 -0.5422  0.4597 -0.4236
 3065TIP3    H1 9159   4.785   2.795   4.397 -1.3501  0.1903 -2.8048
 3065TIP3    H2 9160   4.718   2.927   4.431 -0.0452  0.0274  0.8013
 3066TIP3   OH2 9161   6.197   2.810   1.167 -0.4443 -0.1041 -0.0203
 3066TIP3    H1 9162   6.213   2.750   1.239  0.5124 -1.2292 -1.1096
 3066TIP3    H2 9163   6.221   2.760   1.089  1.3301  2.0136 -0.9151
 3067TIP3   OH2 9164   4.614   0.348   3.160  0.0974 -0.2933  0.6540
 3067TIP3    H1 9165   4.707   0.366   3.174  0.4086 -1.5542  0.2691
 3067TIP3    H2 9166   4.604   0.347   3.065 -0.4472  0.4621  0.6949
 3068TIP3   OH2 9167   1.508   4.501   4.689  0.1682  0.1649 -0.1059
 3068TIP3    H1 9168   1.475   4.424   4.734  0.0957 -0.0853 -0.5807
 3068TIP3    H2 9169   1.598   4.477   4.664 -0.6728 -0.7429 -2.4804
 3069TIP3   OH2 9170   6.397   4.813   3.065  0.9379  0.8086 -0.0030
 3069TIP3    H1 9171   6.425   4.722   3.058  1.6239  1.1194 -1.5732
 3069TIP3    H2 9172   6.308   4.813   3.029  1.3003  0.9235 -0.9054
 3070TIP3   OH2 9173   1.942   1.842   1.093 -0.3752 -0.2929  0.6763
 3070TIP3    H1 9174   2.001   1.876   1.026  0.5670 -3.1815 -0.0958
 3070TIP3    H2 9175   1.982   1.867   1.176  0.2639  0.4426  0.1571
 3071TIP3   OH2 9176   3.223   4.090   1.716 -0.4266  0.0913 -0.0999
 3071TIP3    H1 9177   3.292   4.061   1.776  0.2205  0.4668 -0.6550
 3071TIP3    H2 9178   3.181   4.164   1.761  0.8486  1.1620 -0.6086
 3072TIP3   OH2 9179   3.848   3.012   0.449 -0.2022 -0.2087 -0.3871
 3072TIP3    H1 9180   3.942   2.997   0.458 -0.1075  0.3473 -0.4229
 3072TIP3    H2 9181   3.814   2.930   0.413  0.3236 -0.2853 -0.7168
 3073TIP3   OH2 9182   3.504   6.773   4.974  0.4804 -0.2349 -0.3933
 3073TIP3    H1 9183   3.524   6.866   4.965  1.4042 -0.2633  1.0721
 3073TIP3    H2 9184   3.546   6.732   4.898 -1.0128  0.6536 -1.7519
 3074TIP3   OH2 9185   6.741   1.152   1.462 -0.6061 -0.4217 -0.2095
 3074TIP3    H1 9186   6.681   1.130   1.391  0.7951  0.0581 -1.5935
 3074TIP3    H2 9187   6.720   1.243   1.483 -1.0890 -0.5943  0.0869
 3075TIP3   OH2 9188   7.033   0.999   5.483 -0.0689 -0.4974  0.4722
 3075TIP3    H1 9189   7.042   0.944   5.405  0.3041 -1.0047  0.8654
 3075TIP3    H2 9190   6.998   0.940   5.550 -0.2446 -0.1026  0.7325
 3076TIP3   OH2 9191   0.754   5.791   3.075 -0.0514  0.0857 -0.0771
 3076TIP3    H1 9192   0.840   5.831   3.086 -0.6316  1.0644  1.1934
 3076TIP3    H2 9193   0.746   5.731   3.149 -1.4285  1.9077  1.3699
 3077TIP3   OH2 9194   0.118   3.314   4.194  0.7410 -0.1548 -0.4721
 3077TIP3    H1 9195   0.092   3.391   4.245 -0.6777 -1.2461  0.5154
 3077TIP3    H2 9196   0.205   3.336   4.161 -0.6430  2.9978 -2.5075
 3078TIP3   OH2 9197   5.987   3.554   0.487  0.2853 -0.3924  0.0471
 3078TIP3    H1 9198   5.905   3.514   0.516 -0.1581 -0.4621 -1.2328
 3078TIP3    H2 9199   5.962   3.640   0.453  0.8423 -0.1291  0.2979
 3079TIP3   OH2 9200   5.761   4.988   2.164 -0.1130 -0.2219  0.3065
 3079TIP3    H1 9201   5.757   5.080   2.189 -1.3840 -0.0099 -0.5919
 3079TIP3    H2 9202   5.745   4.940   2.246  0.9520  0.3273  0.8562
 3080TIP3   OH2 9203   5.891   3.077   2.005  0.3508  0.0831 -0.3772
 3080TIP3    H1 9204   5.817   3.139   2.002  0.8358  0.6808 -0.1818
 3080TIP3    H2 9205   5.863   3.011   2.068  0.1065  0.4838 -0.0524
 3081TIP3   OH2 9206   0.544   4.883   1.688 -0.0683 -0.0316  0.4931
 3081TIP3    H1 9207   0.490   4.823   1.741  0.4888 -0.3652  0.6960
 3081TIP3    H2 9208   0.632   4.873   1.724  0.2349  0.0827 -0.2067
 3082TIP3   OH2 9209   3.641   0.191   1.809 -0.0832  0.2290  0.2193
 3082TIP3    H1 9210   3.579   0.139   1.758 -1.0377 -0.6931  2.1901
 3082TIP3    H2 9211   3.726   0.151   1.792 -0.5478 -0.7828  0.2342
 3083TIP3   OH2 9212   1.771   1.133   1.020  0.0096  0.1555 -0.5690
 3083TIP3    H1 9213   1.767   1.055   0.964 -1.3877  0.9072 -1.5725
 3083TIP3    H2 9214   1.742   1.101   1.106 -0.2512 -0.5006 -0.8883
 3084TIP3   OH2 9215   1.823   0.831   1.131  0.4882 -0.2114  0.2861
 3084TIP3    H1 9216   1.782   0.817   1.216  0.0143 -0.7156 -0.0206
 3084TIP3    H2 9217   1.911   0.796   1.140  0.4971 -0.1021  0.6246
 3085TIP3   OH2 9218   1.988   3.405   1.018  0.1382 -0.0294 -0.1604
 3085TIP3    H1 9219   1.930   3.340   0.977 -0.6733  0.8461 -0.4137
 3085TIP3    H2 9220   1.936   3.484   1.023  0.6035  0.1976  1.5673
 3086TIP3   OH2 9221   1.335   5.504   1.895 -0.0427 -0.0107  0.6752
 3086TIP3    H1 9222   1.424   5.536   1.881  0.5804 -1.3887  1.3183
 3086TIP3    H2 9223   1.304   5.482   1.807  0.7161 -0.6844  0.5690
 3087TIP3   OH2 9224   5.502   3.228   3.830 -0.0610  0.0502  0.1470
 3087TIP3    H1 9225   5.542   3.181   3.903  1.6096  2.6819  1.0909
 3087TIP3    H2 9226   5.558   3.207   3.755  1.5134  1.4351  0.8506
 3088TIP3   OH2 9227   5.541   2.806   0.097  0.2523  0.2611 -0.0983
 3088TIP3    H1 9228   5.489   2.819   0.017  0.3902  0.9800 -0.0764
 3088TIP3    H2 9229   5.606   2.739   0.073  0.3321  0.5179 -0.6058
 3089TIP3   OH2 9230   3.750   0.473   2.594 -0.3348  0.1856 -0.0632
 3089TIP3    H1 9231   3.665   0.435   2.619 -0.2676  1.4506  2.4566
 3089TIP3    H2 9232   3.727   0.556   2.552 -0.3558  0.0498 -0.3226
 3090TIP3   OH2 9233   5.140   4.802   0.067 -0.4318  0.1297 -0.2596
 3090TIP3    H1 9234   5.144   4.866   0.138 -1.7541 -1.2826  1.1540
 3090TIP3    H2 9235   5.225   4.759   0.069 -0.9942 -0.9871  1.5786
 3091TIP3   OH2 9236   4.353   3.663   2.054  0.6134 -0.3135  0.5780
 3091TIP3    H1 9237   4.279   3.613   2.020  0.9338 -0.4003  0.0099
 3091TIP3    H2 9238   4.370   3.730   1.988  0.3679  0.3849  1.1982
 3092TIP3   OH2 9239   1.665   4.885   2.024  0.0134 -1.1078 -0.4272
 3092TIP3    H1 9240   1.739   4.836   2.058  0.2724 -1.0303 -0.8838
 3092TIP3    H2 9241   1.588   4.840   2.060  0.2891  0.3821  2.2741
 3093TIP3   OH2 9242   2.204   2.332   4.857 -0.0949 -0.2630  0.2378
 3093TIP3    H1 9243   2.231   2.264   4.919  0.8702  0.7698  1.0094
 3093TIP3    H2 9244   2.153   2.393   4.909  1.7972  1.2931  0.3982
 3094TIP3   OH2 9245   0.719   4.858   1.284  0.2750  0.0992 -0.5534
 3094TIP3    H1 9246   0.680   4.814   1.208  1.3006 -0.0648 -0.9999
 3094TIP3    H2 9247   0.813   4.841   1.276  0.6294  1.8163 -0.3790
 3095TIP3   OH2 9248   2.745   1.535   0.395  0.2903 -0.2506  0.2747
 3095TIP3    H1 9249   2.699   1.474   0.452  0.8753 -0.1626  0.8523
 3095TIP3    H2 9250   2.826   1.554   0.441  0.8406 -0.2874 -0.6610
 3096TIP3   OH2 9251   2.073   5.943   0.525 -0.2939 -0.2923  0.2838
 3096TIP3    H1 9252   2.053   5.973   0.614  0.7964  2.2018 -0.2228
 3096TIP3    H2 9253   1.997   5.971   0.473 -0.5737 -1.0477  0.2719
 3097TIP3   OH2 9254   6.566   5.038   0.129 -0.5348  0.3631  0.3254
 3097TIP3    H1 9255   6.532   5.125   0.149 -2.2125 -0.1359 -0.1808
 3097TIP3    H2 9256   6.653   5.054   0.092  0.2734  1.6284  2.6054
 3098TIP3   OH2 9257   5.124   3.594   5.182 -0.0105  0.2028  0.1364
 3098TIP3    H1 9258   5.118   3.571   5.275 -0.3698 -0.2978 -0.0041
 3098TIP3    H2 9259   5.210   3.633   5.172  0.4439 -0.6918  0.4788
 3099TIP3   OH2 9260   3.613   5.930   3.083  0.5254 -0.0937 -0.0932
 3099TIP3    H1 9261   3.627   5.896   2.995  0.4898 -1.6018  0.4589
 3099TIP3    H2 9262   3.607   5.852   3.138  1.7652  0.8449  1.4385
 3100TIP3   OH2 9263   3.853   4.093   1.927  0.1103 -0.7785  0.0970
 3100TIP3    H1 9264   3.920   4.148   1.967 -1.6276  1.2648  0.3746
 3100TIP3    H2 9265   3.870   4.005   1.961  1.5819  0.0132  1.5172
 3101TIP3   OH2 9266   3.135   3.280   2.599  1.5175 -0.1256 -0.6800
 3101TIP3    H1 9267   3.118   3.314   2.512 -0.5156 -1.6429 -0.9604
 3101TIP3    H2 9268   3.074   3.207   2.608  1.5367  0.0965  2.0758
 3102TIP3   OH2 9269   6.792   0.246   0.786  0.0921  0.7698 -0.5684
 3102TIP3    H1 9270   6.717   0.186   0.783  0.4634 -0.0195  2.6946
 3102TIP3    H2 9271   6.825   0.240   0.875  3.9945  1.2209 -1.7633
 3103TIP3   OH2 9272   0.243   6.555   3.402 -0.0491 -0.2980 -0.4701
 3103TIP3    H1 9273   0.185   6.622   3.440  0.9969  2.0344 -2.6882
 3103TIP3    H2 9274   0.320   6.556   3.458  0.9694  2.2360 -1.7133
 3104TIP3   OH2 9275   1.298   1.279   5.090 -0.3630 -0.1330  0.5778
 3104TIP3    H1 9276   1.379   1.295   5.043 -0.8874 -0.0478 -0.3320
 3104TIP3    H2 9277   1.238   1.243   5.024 -2.3048  3.3445  0.1782
 3105TIP3   OH2 9278   1.671   4.936   1.061  0.3640 -0.4564  0.1274
 3105TIP3    H1 9279   1.681   4.912   1.153  0.6958 -0.7303  0.0222
 3105TIP3    H2 9280   1.754   4.911   1.020 -0.3895 -1.9731 -0.5866
 3106TIP3   OH2 9281   4.575   4.724   4.815  0.0715  0.6231  0.4335
 3106TIP3    H1 9282   4.658   4.771   4.817 -0.2071  1.1037  1.4536
 3106TIP3    H2 9283   4.508   4.791   4.826 -0.4716  0.2505 -0.4516
 3107TIP3   OH2 9284   4.427   3.508   3.366  0.3196 -0.4371 -0.3996
 3107TIP3    H1 9285   4.461   3.498   3.278  1.4804 -2.4396  0.2253
 3107TIP3    H2 9286   4.477   3.447   3.419 -0.3468  0.6966  1.6721
 3108TIP3   OH2 9287   5.473   5.750   2.963 -0.4672  0.0008  0.3516
 3108TIP3    H1 9288   5.401   5.696   2.930  0.6551 -1.6373  0.4894
 3108TIP3    H2 9289   5.548   5.726   2.908  0.1443  1.1692  0.6549
 3109TIP3   OH2 9290   0.645   1.487   0.299  0.5518 -1.0938 -0.2204
 3109TIP3    H1 9291   0.592   1.521   0.371  0.8018 -2.6786  0.7811
 3109TIP3    H2 9292   0.719   1.547   0.292 -0.3481  0.0366 -0.3200
 3110TIP3   OH2 9293   5.572   5.580   3.929 -0.2280  0.4506 -0.6310
 3110TIP3    H1 9294   5.491   5.528   3.923 -2.0360  2.8477  0.9115
 3110TIP3    H2 9295   5.626   5.549   3.857 -2.6712 -1.0485 -1.9519
 3111TIP3   OH2 9296   0.081   5.305  -0.018 -0.7055  0.0555 -0.5067
 3111TIP3    H1 9297   0.060   5.293   0.075 -2.1162  0.2716 -0.7751
 3111TIP3    H2 9298   0.025   5.378  -0.046  0.1344  0.3797 -1.3930
 3112TIP3   OH2 9299   1.324   3.533   1.083 -0.0893 -0.5904  0.1502
 3112TIP3    H1 9300   1.294   3.624   1.095 -1.1568 -1.1150  1.8238
 3112TIP3    H2 9301   1.317   3.518   0.988 -0.6403  0.8189 -0.0613
 3113TIP3   OH2 9302   6.537   2.049   3.206  0.4576  0.1010  0.2978
 3113TIP3    H1 9303   6.568   1.977   3.151 -0.4431  0.8261 -1.2354
 3113TIP3    H2 9304   6.519   2.009   3.291 -0.4992 -1.5826 -0.6480
 3114TIP3   OH2 9305   0.066   5.621   0.858  0.8295  0.2942 -0.2196
 3114TIP3    H1 9306   0.040   5.663   0.776  0.7342  1.4678  0.3816
 3114TIP3    H2 9307   0.074   5.528   0.837 -2.6467 -0.0147 -0.7438
 3115TIP3   OH2 9308   4.874   5.426   5.408  0.0883  0.5295  0.1133
 3115TIP3    H1 9309   4.853   5.408   5.500 -1.4840  1.7169  0.0320
 3115TIP3    H2 9310   4.940   5.495   5.412 -1.1542  1.7695  0.4086
 3116TIP3   OH2 9311   3.850   3.397   2.519 -0.8404  0.7015 -0.4499
 3116TIP3    H1 9312   3.789   3.364   2.452  0.4828 -0.8315 -0.9516
 3116TIP3    H2 9313   3.919   3.440   2.469 -0.7196  1.0854  0.0436
 3117TIP3   OH2 9314   1.379   4.730   4.331 -0.4547  0.0812  0.0587
 3117TIP3    H1 9315   1.391   4.728   4.236 -0.5841  0.3747  0.0380
 3117TIP3    H2 9316   1.299   4.781   4.345 -0.7090 -0.3740  0.2978
 3118TIP3   OH2 9317   2.189   2.529   1.148  0.0170  0.1580 -0.0454
 3118TIP3    H1 9318   2.254   2.598   1.134  0.7387 -0.1158  1.6619
 3118TIP3    H2 9319   2.111   2.575   1.178 -0.1936  0.3889 -0.9235
 3119TIP3   OH2 9320   4.733   1.052   1.274  0.5075  0.4074 -0.3721
 3119TIP3    H1 9321   4.682   1.010   1.344  1.6917 -1.2130 -0.4138
 3119TIP3    H2 9322   4.674   1.119   1.238 -0.7097  0.1871  1.1033
 3120TIP3   OH2 9323   1.720   1.135   0.379 -0.2330  0.3046  0.2603
 3120TIP3    H1 9324   1.671   1.217   0.387  1.0081  0.9827  1.1900
 3120TIP3    H2 9325   1.782   1.151   0.308  0.1134  0.2142  0.5451
 3121TIP3   OH2 9326   2.702   6.034   3.539  0.0355 -0.2213 -1.1526
 3121TIP3    H1 9327   2.767   5.977   3.497  0.7774  0.3172 -0.7609
 3121TIP3    H2 9328   2.689   5.995   3.626  0.0568 -0.1678 -1.1252
 3122TIP3   OH2 9329   5.965   2.760   3.977 -0.0411  0.3800 -0.2078
 3122TIP3    H1 9330   6.008   2.707   4.044  0.1272  1.6607  0.7369
 3122TIP3    H2 9331   6.026   2.761   3.903  0.9993  1.1118  0.6269
 3123TIP3   OH2 9332   0.968   6.804   1.233  0.1136  0.6061 -0.0740
 3123TIP3    H1 9333   0.892   6.863   1.238  1.8574  2.9627  0.5679
 3123TIP3    H2 9334   0.930   6.717   1.224 -2.6480  1.7420 -0.5933
 3124TIP3   OH2 9335   3.138   3.348   1.587  0.1170  0.0061  0.6740
 3124TIP3    H1 9336   3.147   3.443   1.581 -0.2526  0.0619  0.9321
 3124TIP3    H2 9337   3.117   3.320   1.498 -0.3900  0.2424  0.7122
 3125TIP3   OH2 9338   1.188   1.410   3.142  0.3368  0.2738  0.7655
 3125TIP3    H1 9339   1.116   1.349   3.123 -0.9043  1.0006  2.8056
 3125TIP3    H2 9340   1.242   1.409   3.063 -1.5538 -0.7965 -0.5879
 3126TIP3   OH2 9341   6.312   5.625   2.363  0.3992  0.6625  0.0667
 3126TIP3    H1 9342   6.321   5.717   2.389  0.0023  0.1988  1.9839
 3126TIP3    H2 9343   6.270   5.628   2.278 -0.2619  2.2563  0.4187
 3127TIP3   OH2 9344   1.501   4.693   3.831 -0.0767  0.1218 -0.4647
 3127TIP3    H1 9345   1.514   4.655   3.744 -0.2146  0.1048 -0.4774
 3127TIP3    H2 9346   1.590   4.706   3.865 -0.0335 -1.2711  0.0085
 3128TIP3   OH2 9347   0.551   1.056   1.177  0.2933 -0.2416 -0.2446
 3128TIP3    H1 9348   0.641   1.025   1.165 -0.4291 -3.9268  2.0373
 3128TIP3    H2 9349   0.501   1.012   1.108  0.0191  0.4515 -0.4878
 3129TIP3   OH2 9350   6.906   5.362   0.033 -0.3371 -0.2116  0.7219
 3129TIP3    H1 9351   6.933   5.334   0.121  1.2198 -0.4814  0.2052
 3129TIP3    H2 9352   6.978   5.419   0.004 -0.3916 -0.8344 -0.7008
 3130TIP3   OH2 9353   6.920   1.306   2.680 -0.6186 -0.6314 -0.2804
 3130TIP3    H1 9354   6.843   1.280   2.730 -0.0750 -1.2390  0.2634
 3130TIP3    H2 9355   6.966   1.224   2.663 -0.3953 -0.3444 -1.1194
 3131TIP3   OH2 9356   6.939   0.003   2.666 -0.5251 -0.1379 -0.1610
 3131TIP3    H1 9357   6.948  -0.019   2.759  0.3331 -0.4653 -0.3135
 3131TIP3    H2 9358   7.000   0.076   2.653  0.6251 -1.1770 -0.8181
 3132TIP3   OH2 9359   6.259   0.573   2.154 -0.0172 -0.3764  0.0766
 3132TIP3    H1 9360   6.256   0.588   2.059 -1.2057 -0.7380  0.0412
 3132TIP3    H2 9361   6.177   0.609   2.186  1.2640  1.6473  1.2844
 3133TIP3   OH2 9362   2.211   2.972   3.164  0.6704 -0.1039  0.4321
 3133TIP3    H1 9363   2.262   3.045   3.127 -0.4358  0.6946  0.4429
 3133TIP3    H2 9364   2.246   2.962   3.253  2.1294 -0.8644 -0.1980
 3134TIP3   OH2 9365   0.868   1.027   3.933  0.2041 -0.0344  0.1580
 3134TIP3    H1 9366   0.940   1.082   3.902 -0.4185  0.9346  0.4119
 3134TIP3    H2 9367   0.794   1.052   3.879 -0.4218  0.3427  1.1590
 3135TIP3   OH2 9368   0.859   1.791   5.371 -0.1698 -0.5147  0.2604
 3135TIP3    H1 9369   0.872   1.770   5.279 -0.9509  0.3979 -0.0709
 3135TIP3    H2 9370   0.854   1.706   5.415  1.1407 -0.9556 -0.3899
 3136TIP3   OH2 9371   4.460   2.164   3.682  0.6924 -0.1883 -0.2367
 3136TIP3    H1 9372   4.445   2.081   3.727  0.9849 -0.6358 -0.9547
 3136TIP3    H2 9373   4.424   2.151   3.595 -0.4127  0.8763  0.0364
 3137TIP3   OH2 9374   0.055   3.105   0.172  0.1043  0.2991  0.4515
 3137TIP3    H1 9375  -0.034   3.069   0.169  0.5681 -0.8859  0.4123
 3137TIP3    H2 9376   0.098   3.069   0.094  0.8781  0.1367  0.9407
 3138TIP3   OH2 9377   1.723   1.157   2.394  0.2710 -1.0043 -0.1916
 3138TIP3    H1 9378   1.725   1.130   2.486  0.7965 -0.3277  0.0062
 3138TIP3    H2 9379   1.754   1.248   2.395 -4.2300  0.8251 -0.4070
 3139TIP3   OH2 9380   4.890   5.562   1.658 -0.2375  0.2901 -0.9765
 3139TIP3    H1 9381   4.847   5.641   1.626  0.4935  0.3006 -1.9633
 3139TIP3    H2 9382   4.943   5.592   1.731  0.3652  0.7976 -1.6120
 3140TIP3   OH2 9383   6.180   5.087   4.743 -0.3250  0.1502  0.3925
 3140TIP3    H1 9384   6.256   5.146   4.739 -0.4166  0.2571  0.1832
 3140TIP3    H2 9385   6.217   5.002   4.769  0.1279 -0.2119 -1.3089
 3141TIP3   OH2 9386   1.332   4.651   1.114  0.1372 -0.2379 -0.5907
 3141TIP3    H1 9387   1.274   4.626   1.042 -0.7982  1.9059 -0.6871
 3141TIP3    H2 9388   1.368   4.736   1.087  0.1620  0.3671  1.2154
 3142TIP3   OH2 9389   7.200   3.641   0.713 -0.0593 -0.5365  1.2981
 3142TIP3    H1 9390   7.182   3.687   0.631  1.0383 -0.1116  1.2818
 3142TIP3    H2 9391   7.278   3.683   0.748  0.8842 -2.2440  1.3880
 3143TIP3   OH2 9392   3.035   4.512   2.062 -0.2359 -0.3156  0.3444
 3143TIP3    H1 9393   3.018   4.516   2.156 -1.1164  0.3484  0.1721
 3143TIP3    H2 9394   3.060   4.602   2.039 -0.7073 -0.3134 -0.1741
 3144TIP3   OH2 9395   2.748   0.108   3.696 -0.1074 -0.8032 -0.5139
 3144TIP3    H1 9396   2.721   0.017   3.708  0.7845 -0.8738  1.2583
 3144TIP3    H2 9397   2.668   0.159   3.710 -1.0723 -1.3142 -3.3924
 3145TIP3   OH2 9398   4.087   0.553   1.000 -0.0107 -0.6308  0.0121
 3145TIP3    H1 9399   4.007   0.513   0.967 -0.3575 -0.3262  0.4734
 3145TIP3    H2 9400   4.082   0.542   1.095  0.0873  0.1202  0.1116
 3146TIP3   OH2 9401   5.844   2.849   2.137 -0.1054 -0.0019 -0.2070
 3146TIP3    H1 9402   5.754   2.831   2.160 -0.4961  0.6903 -1.1004
 3146TIP3    H2 9403   5.890   2.766   2.148 -1.1023 -0.6608 -0.8807
 3147TIP3   OH2 9404   2.241   4.440   3.117 -0.3341 -0.1883  0.2474
 3147TIP3    H1 9405   2.204   4.438   3.204 -1.3480 -1.4986 -0.1866
 3147TIP3    H2 9406   2.179   4.393   3.062  0.7779 -0.3031 -0.9906
 3148TIP3   OH2 9407   4.645   6.009   0.476 -0.4085  0.9274 -0.5309
 3148TIP3    H1 9408   4.595   6.026   0.556 -1.3320  1.4442 -1.1999
 3148TIP3    H2 9409   4.709   6.081   0.473  0.9801 -0.1857  0.7530
 3149TIP3   OH2 9410   4.447   4.761   0.258  0.0147  0.2068  0.4392
 3149TIP3    H1 9411   4.477   4.793   0.173  1.0626 -1.1882  0.2555
 3149TIP3    H2 9412   4.526   4.729   0.301 -0.7655 -0.7623  1.2009
 3150TIP3   OH2 9413   0.792   1.521   3.969 -0.5260 -0.1297 -0.3847
 3150TIP3    H1 9414   0.878   1.562   3.969 -1.0294  0.9593 -0.1058
 3150TIP3    H2 9415   0.787   1.476   3.884  0.8950 -1.5156  0.2163
 3151TIP3   OH2 9416   6.071   1.523   4.152  0.1808  0.0032 -0.4171
 3151TIP3    H1 9417   6.113   1.553   4.233  1.1701  2.2391 -1.6807
 3151TIP3    H2 9418   6.134   1.463   4.113 -0.6960 -1.8386  0.8492
 3152TIP3   OH2 9419   0.492   6.478   5.763 -0.2198 -0.2681 -0.2410
 3152TIP3    H1 9420   0.522   6.540   5.830  0.3447  0.3391 -1.0465
 3152TIP3    H2 9421   0.503   6.392   5.804  1.3401  0.0156  0.0067
 3153TIP3   OH2 9422   6.535   4.227   1.915 -0.0677 -0.2279  0.0456
 3153TIP3    H1 9423   6.624   4.250   1.940  0.0934 -0.5082 -0.2568
 3153TIP3    H2 9424   6.546   4.166   1.842 -0.4862 -1.0178  0.6217
 3154TIP3   OH2 9425   6.048   3.211   5.485  0.4755 -0.3489  0.4178
 3154TIP3    H1 9426   6.046   3.116   5.497 -1.8274 -0.6041 -1.2424
 3154TIP3    H2 9427   6.095   3.223   5.402 -1.0097 -0.2610 -0.4499
 3155TIP3   OH2 9428   4.856   5.652   3.271  0.1718 -0.1657  0.5336
 3155TIP3    H1 9429   4.896   5.735   3.298  0.8634  0.2508 -1.5653
 3155TIP3    H2 9430   4.784   5.677   3.214  1.8608 -0.9133 -2.1317
 3156TIP3   OH2 9431   0.504   3.226   0.454  0.2160  0.2433  0.0948
 3156TIP3    H1 9432   0.437   3.223   0.522  1.3402 -1.2622  1.2003
 3156TIP3    H2 9433   0.566   3.157   0.477  0.3887 -0.7103 -2.7528
 3157TIP3   OH2 9434   0.039   0.137   1.978 -0.0582  1.0044 -0.1876
 3157TIP3    H1 9435  -0.012   0.117   2.057  0.1061 -0.7036 -0.4615
 3157TIP3    H2 9436   0.085   0.218   1.999 -0.7640  1.1088  1.1021
 3158TIP3   OH2 9437   4.542   2.945   3.874  0.4757 -0.4364  0.2903
 3158TIP3    H1 9438   4.612   2.910   3.819  1.6024  1.3625  0.5066
 3158TIP3    H2 9439   4.572   2.929   3.964  0.7015  0.4773  0.3851
 3159TIP3   OH2 9440   3.329   3.912   0.328 -0.0476 -0.1504 -0.1869
 3159TIP3    H1 9441   3.248   3.874   0.363 -1.4345  3.2611  0.7066
 3159TIP3    H2 9442   3.369   3.957   0.403  1.0982  0.7426 -1.2822
 3160TIP3   OH2 9443   6.380   0.965   4.839 -0.0992  0.1035 -0.2208
 3160TIP3    H1 9444   6.287   0.946   4.847 -0.2961  1.4576  1.1713
 3160TIP3    H2 9445   6.386   1.060   4.843  1.3521  0.0393 -0.1204
 3161TIP3   OH2 9446   0.029   6.011   3.126  0.2044  0.4826 -0.1526
 3161TIP3    H1 9447   0.119   5.983   3.144  0.4712  2.1222  1.3268
 3161TIP3    H2 9448  -0.022   5.930   3.125  1.5702 -0.4049 -0.3110
 3162TIP3   OH2 9449   1.025   3.093   0.057  0.3750  0.1388 -1.2846
 3162TIP3    H1 9450   1.064   3.009   0.082  3.1246  1.3345 -1.2450
 3162TIP3    H2 9451   1.100   3.149   0.036 -1.2050  3.2788  0.7668
 3163TIP3   OH2 9452   3.890   5.929   1.304 -0.1437  0.0187 -0.0598
 3163TIP3    H1 9453   3.870   5.846   1.348 -0.5613  0.0124 -0.2536
 3163TIP3    H2 9454   3.889   5.907   1.210  1.9666 -0.2396 -0.0662
 3164TIP3   OH2 9455   2.890   3.718   0.964  0.1059 -0.4374 -0.0826
 3164TIP3    H1 9456   2.918   3.700   0.874  0.8096  1.3823 -0.2697
 3164TIP3    H2 9457   2.863   3.633   0.999  1.7723 -1.5317 -1.3400
 3165TIP3   OH2 9458   0.769   4.564   4.755  0.2864  0.6183 -0.0726
 3165TIP3    H1 9459   0.716   4.638   4.785 -0.6864 -0.0080 -0.1966
 3165TIP3    H2 9460   0.741   4.550   4.665  0.8909  0.4650 -0.2395
 3166TIP3   OH2 9461   0.431   2.230   4.747  0.2162  0.1005  0.4239
 3166TIP3    H1 9462   0.433   2.134   4.743  0.2479  0.1274 -0.4961
 3166TIP3    H2 9463   0.361   2.250   4.809  0.0811 -0.5260  0.4814
 3167TIP3   OH2 9464   3.312   0.826   3.373 -0.4901 -0.3339 -0.2602
 3167TIP3    H1 9465   3.312   0.776   3.455 -1.0128 -1.2251 -0.7813
 3167TIP3    H2 9466   3.268   0.768   3.310  0.3409  0.1248 -1.2967
 3168TIP3   OH2 9467   7.026   3.165   3.005 -0.8295  0.1866  0.0657
 3168TIP3    H1 9468   7.066   3.079   3.016 -1.8338 -0.2111  0.8247
 3168TIP3    H2 9469   7.026   3.180   2.911 -0.1504 -0.4017 -0.0315
 3169TIP3   OH2 9470   1.368   6.305   5.293  0.4766  0.0692 -0.2594
 3169TIP3    H1 9471   1.447   6.275   5.338  0.4969 -0.1597 -0.4446
 3169TIP3    H2 9472   1.315   6.226   5.282  1.0141 -0.1161 -1.7374
 3170TIP3   OH2 9473   2.803   5.106   1.655 -0.4069  0.7727 -0.7882
 3170TIP3    H1 9474   2.708   5.102   1.645 -0.4787 -0.3609  0.0962
 3170TIP3    H2 9475   2.835   5.026   1.612  0.0407  0.5934 -0.1345
 3171TIP3   OH2 9476   0.025   4.916   2.126  0.0153 -0.0747 -0.2425
 3171TIP3    H1 9477   0.019   4.896   2.033  0.8958  0.5540 -0.4472
 3171TIP3    H2 9478  -0.028   4.848   2.169 -0.5528 -0.2557 -1.2049
 3172TIP3   OH2 9479   4.456   4.480   3.385 -0.1159  0.7771 -0.1534
 3172TIP3    H1 9480   4.411   4.458   3.466  3.4573 -0.2073  1.7715
 3172TIP3    H2 9481   4.505   4.560   3.405  0.9030  0.4820 -1.2945
 3173TIP3   OH2 9482   2.298   0.443   3.516 -0.3663 -0.0005 -0.1616
 3173TIP3    H1 9483   2.245   0.365   3.532  0.8359 -1.2312 -1.8203
 3173TIP3    H2 9484   2.284   0.463   3.423 -0.7590  1.8871  0.2459
 3174TIP3   OH2 9485   2.639   3.285   4.137  0.0552 -0.1914  0.0190
 3174TIP3    H1 9486   2.612   3.284   4.045  0.7620 -1.8270 -0.1940
 3174TIP3    H2 9487   2.658   3.377   4.155  0.4974  0.0808 -1.6511
 3175TIP3   OH2 9488   6.804   5.017   1.600  0.3336 -0.1063 -0.3327
 3175TIP3    H1 9489   6.828   5.061   1.519 -0.6175  2.0201  0.4573
 3175TIP3    H2 9490   6.727   5.065   1.631  0.2666 -1.2892  1.4876
 3176TIP3   OH2 9491   5.480   2.927   0.638  0.9248  0.1696 -0.0084
 3176TIP3    H1 9492   5.454   2.937   0.730  1.5453  2.1000  0.0035
 3176TIP3    H2 9493   5.445   2.842   0.613 -0.7263  0.3088  1.5400
 3177TIP3   OH2 9494   3.702   3.338   3.553  0.0959 -0.3627  0.2545
 3177TIP3    H1 9495   3.712   3.275   3.481  1.7189 -0.4809  0.5544
 3177TIP3    H2 9496   3.702   3.284   3.632 -1.2660 -0.1960  0.3888
 3178TIP3   OH2 9497   6.547   4.640   2.799  0.2583  0.4811 -0.1790
 3178TIP3    H1 9498   6.592   4.695   2.863 -0.9975  1.0022  0.2894
 3178TIP3    H2 9499   6.472   4.693   2.770 -0.2466 -0.4794 -0.6940
 3179TIP3   OH2 9500   4.261   4.502   1.941 -0.1674  0.2497 -0.5570
 3179TIP3    H1 9501   4.339   4.479   1.993 -0.1875  0.2731 -0.5168
 3179TIP3    H2 9502   4.297   4.547   1.864 -0.0234 -1.0966 -1.3094
 3180TIP3   OH2 9503   3.709   2.526   1.803 -0.0608  0.3602 -0.1472
 3180TIP3    H1 9504   3.636   2.507   1.862 -1.1457 -0.9536 -1.8348
 3180TIP3    H2 9505   3.774   2.569   1.859 -0.0302 -2.8652  2.6152
 3181TIP3   OH2 9506   5.116   4.837   1.771 -0.2134 -0.3315  0.1182
 3181TIP3    H1 9507   5.156   4.837   1.684  0.5816 -0.4508  0.4802
 3181TIP3    H2 9508   5.043   4.899   1.763 -0.7106 -1.0205 -0.8770
 3182TIP3   OH2 9509   7.175   4.660   5.770  0.0569 -0.2317  0.3503
 3182TIP3    H1 9510   7.164   4.740   5.718 -0.3672 -1.9728 -2.4496
 3182TIP3    H2 9511   7.089   4.618   5.767  0.9051 -2.0175 -0.5469
 3183TIP3   OH2 9512   5.220   6.251   3.968  0.4807 -0.4967 -0.4188
 3183TIP3    H1 9513   5.310   6.284   3.967  0.1832  0.3275 -1.3352
 3183TIP3    H2 9514   5.212   6.207   4.053  1.4131  0.3522  0.1373
 3184TIP3   OH2 9515   3.475   6.782   1.025 -0.0623 -0.3082 -0.1550
 3184TIP3    H1 9516   3.567   6.786   1.053  0.3815 -0.4657 -1.5544
 3184TIP3    H2 9517   3.470   6.705   0.969 -0.9012  0.0735 -0.6184
 3185TIP3   OH2 9518   1.747   1.191   5.666 -0.2203 -0.2142  0.0431
 3185TIP3    H1 9519   1.818   1.128   5.682  0.8829  0.7686 -0.8088
 3185TIP3    H2 9520   1.758   1.216   5.574 -0.8835  0.9228  0.2593
 3186TIP3   OH2 9521   6.790   4.258   2.032  0.0188  0.7242  0.3950
 3186TIP3    H1 9522   6.861   4.245   1.969 -0.0224 -2.6819  0.8745
 3186TIP3    H2 9523   6.822   4.326   2.091  2.6043 -0.2031  0.1599
 3187TIP3   OH2 9524   6.164   3.504   4.652  0.2852  0.1499  0.2096
 3187TIP3    H1 9525   6.163   3.419   4.696  1.2903 -0.7880 -1.4867
 3187TIP3    H2 9526   6.223   3.558   4.707  0.8416 -0.7161  0.4901
 3188TIP3   OH2 9527   4.475   5.760   5.658 -0.0934 -0.8172 -0.3013
 3188TIP3    H1 9528   4.457   5.692   5.593 -1.5696 -1.8886  1.1372
 3188TIP3    H2 9529   4.396   5.763   5.713  0.4014  1.2642  0.3976
 3189TIP3   OH2 9530   6.853   1.843   1.226  0.3477 -0.0753  0.0487
 3189TIP3    H1 9531   6.871   1.842   1.320  0.7586  1.1394 -0.0011
 3189TIP3    H2 9532   6.783   1.778   1.214 -0.1279  0.1882  1.2681
 3190TIP3   OH2 9533   2.294   6.045   5.147  0.1793 -0.3331  0.5287
 3190TIP3    H1 9534   2.215   6.023   5.098 -0.4802 -3.1818  2.6283
 3190TIP3    H2 9535   2.346   5.965   5.146  0.9305  0.0287  2.9249
 3191TIP3   OH2 9536   0.431   0.455   1.743  0.4397 -0.3494  0.5311
 3191TIP3    H1 9537   0.356   0.401   1.718 -0.9615  2.1282 -1.0064
 3191TIP3    H2 9538   0.393   0.539   1.770  2.5559  0.2658  1.9260
 3192TIP3   OH2 9539   6.370   1.835   5.282  0.4877 -0.0613 -0.2637
 3192TIP3    H1 9540   6.412   1.921   5.295  1.6677 -0.7863  1.0975
 3192TIP3    H2 9541   6.397   1.808   5.195  0.0039  0.9929 -0.7585
 3193TIP3   OH2 9542   2.124   2.128   4.584 -0.0759 -0.3264  0.1273
 3193TIP3    H1 9543   2.044   2.177   4.567 -0.3404 -0.6170  0.5279
 3193TIP3    H2 9544   2.117   2.101   4.676  0.4355 -0.4337  0.1390
 3194TIP3   OH2 9545   5.684   0.084   2.244 -0.0206  0.4837 -0.5029
 3194TIP3    H1 9546   5.618   0.015   2.244 -0.2502  0.6515  1.2756
 3194TIP3    H2 9547   5.637   0.163   2.219 -0.1099  0.2889 -0.9534
 3195TIP3   OH2 9548   2.233   4.921   0.810  0.1626 -0.8903  0.5187
 3195TIP3    H1 9549   2.247   4.947   0.901 -0.1819  2.9376 -0.3684
 3195TIP3    H2 9550   2.289   4.979   0.759 -1.8169 -0.9065 -1.8618
 3196TIP3   OH2 9551   1.933   5.227   4.413 -0.0608 -0.4559  0.0476
 3196TIP3    H1 9552   1.930   5.142   4.369 -1.2211 -0.6594  0.4604
 3196TIP3    H2 9553   2.014   5.267   4.384  0.7134 -1.8790  0.1571
 3197TIP3   OH2 9554   1.018   2.883   3.206 -0.6010 -0.2599 -0.4504
 3197TIP3    H1 9555   1.011   2.798   3.163 -1.6181 -0.2958 -0.2319
 3197TIP3    H2 9556   0.958   2.940   3.158  0.8385  0.6357 -1.2560
 3198TIP3   OH2 9557   5.865   6.277   4.172  0.6635 -0.0465 -0.1330
 3198TIP3    H1 9558   5.922   6.220   4.120  0.0067 -0.4978 -0.3672
 3198TIP3    H2 9559   5.863   6.236   4.258 -2.2555 -2.2054 -1.0706
 3199TIP3   OH2 9560   6.268   0.978   5.934  0.4751  0.1847  0.0601
 3199TIP3    H1 9561   6.312   0.912   5.879 -0.9287 -1.2577  0.6094
 3199TIP3    H2 9562   6.254   1.052   5.875  0.5936 -0.6462 -1.0463
 3200TIP3   OH2 9563   0.071   6.466   4.635 -0.4859  0.6014  0.2204
 3200TIP3    H1 9564   0.046   6.497   4.548  0.3534 -1.0009 -0.6282
 3200TIP3    H2 9565   0.166   6.480   4.639 -0.1121 -1.5406 -0.1078
 3201TIP3   OH2 9566   6.983   2.815   4.393  0.0073  0.2852 -0.0519
 3201TIP3    H1 9567   6.993   2.735   4.343  0.1913 -0.1417  0.6551
 3201TIP3    H2 9568   6.942   2.787   4.475 -0.3328  0.9755  0.0244
 3202TIP3   OH2 9569   6.924   5.633   2.077  0.6669 -0.4918  0.0038
 3202TIP3    H1 9570   6.900   5.721   2.048  3.3648  0.2094 -0.3745
 3202TIP3    H2 9571   6.886   5.575   2.011 -1.2472  0.3207  0.3201
 3203TIP3   OH2 9572   4.492   6.114   1.280  0.4364  0.3256 -0.3194
 3203TIP3    H1 9573   4.559   6.073   1.226 -3.2986 -1.2788 -4.2652
 3203TIP3    H2 9574   4.458   6.185   1.226 -1.8613  0.2668  0.9288
 3204TIP3   OH2 9575   1.023   3.483   0.364 -0.2150  0.2593  0.2910
 3204TIP3    H1 9576   0.935   3.483   0.403  0.1788  1.9281  1.2757
 3204TIP3    H2 9577   1.008   3.498   0.271 -0.9739  0.6583  0.4702
 3205TIP3   OH2 9578   2.512   1.123   5.208  0.0271  0.1260  0.2068
 3205TIP3    H1 9579   2.589   1.155   5.162 -0.6488  2.7092  0.7520
 3205TIP3    H2 9580   2.443   1.122   5.141 -0.4296  1.8362  0.5974
 3206TIP3   OH2 9581   6.654   6.471   1.121 -0.4411 -0.0609 -0.4871
 3206TIP3    H1 9582   6.620   6.509   1.202  0.4233 -2.7898  1.3096
 3206TIP3    H2 9583   6.580   6.471   1.061 -1.1125  2.0299  0.2685
 3207TIP3   OH2 9584   6.512   5.798   1.528 -0.3354  0.0834  0.5259
 3207TIP3    H1 9585   6.458   5.877   1.519  0.3288  0.8564  2.7518
 3207TIP3    H2 9586   6.599   5.827   1.501  0.4647  0.9107  3.6164
 3208TIP3   OH2 9587   5.241   6.350   1.049 -0.0526  0.0993  0.1120
 3208TIP3    H1 9588   5.246   6.398   1.132  0.3899  0.4463 -0.1162
 3208TIP3    H2 9589   5.173   6.284   1.064 -0.3737  0.5289  0.5636
 3209TIP3   OH2 9590   4.237   6.411   1.779 -0.0945  0.1960 -0.4541
 3209TIP3    H1 9591   4.330   6.396   1.797 -0.0039  0.6704 -0.5101
 3209TIP3    H2 9592   4.207   6.329   1.740  0.6640  0.5312 -1.8361
 3210TIP3   OH2 9593   5.059   6.364   4.616 -0.4657 -0.3587  0.0230
 3210TIP3    H1 9594   5.119   6.327   4.551 -0.5850 -0.9501  0.2367
 3210TIP3    H2 9595   5.101   6.446   4.643  0.6078 -1.0855  0.6662
 3211TIP3   OH2 9596   1.079   5.753   4.846 -0.1910 -0.5436  0.1885
 3211TIP3    H1 9597   1.058   5.834   4.799 -0.5177 -0.2543  0.8303
 3211TIP3    H2 9598   1.157   5.775   4.897 -0.6578 -0.4431  0.8583
 3212TIP3   OH2 9599   1.105   0.103   3.604  0.0640  0.1876 -0.1326
 3212TIP3    H1 9600   1.045   0.154   3.659 -1.6718 -0.6663 -1.1514
 3212TIP3    H2 9601   1.122   0.024   3.654  2.8451  1.6385  1.4989
 3213TIP3   OH2 9602   3.711   1.063   4.691 -0.7598 -0.1769 -0.2718
 3213TIP3    H1 9603   3.667   1.124   4.750 -2.2279 -0.7662 -0.7100
 3213TIP3    H2 9604   3.797   1.103   4.675 -1.7019  1.8177 -0.6237
 3214TIP3   OH2 9605   1.100   2.657   3.813 -0.1992  0.0127 -0.2962
 3214TIP3    H1 9606   1.096   2.717   3.739 -0.4734  0.0649 -0.2406
 3214TIP3    H2 9607   1.117   2.713   3.889 -0.8481  0.0735 -0.1864
 3215TIP3   OH2 9608   0.750   1.204   5.291  0.0105 -0.4730  0.1023
 3215TIP3    H1 9609   0.685   1.149   5.335  0.7534 -2.2074 -0.8293
 3215TIP3    H2 9610   0.828   1.199   5.347 -0.1558  0.2718  0.4040
 3216TIP3   OH2 9611   0.696   5.119   3.571  0.3580  0.1238  0.3166
 3216TIP3    H1 9612   0.699   5.208   3.607 -0.9401 -0.3964  1.8259
 3216TIP3    H2 9613   0.782   5.082   3.590  0.7134  0.8664  0.1842
 3217TIP3   OH2 9614   6.137   0.111   3.613  0.2014  0.2240  0.6624
 3217TIP3    H1 9615   6.206   0.149   3.559 -0.2696  0.7779  0.4479
 3217TIP3    H2 9616   6.105   0.184   3.666 -1.2028  0.3195 -0.2692
 3218TIP3   OH2 9617   7.059   2.310   2.221 -0.3320  0.0288  0.7246
 3218TIP3    H1 9618   6.975   2.283   2.183  0.1173 -0.4889  0.0822
 3218TIP3    H2 9619   7.043   2.398   2.255 -1.6085 -0.6938  2.1018
 3219TIP3   OH2 9620   6.438   6.520   5.562  0.1314 -0.2723  0.4306
 3219TIP3    H1 9621   6.347   6.494   5.557  0.2626 -0.7545  0.5097
 3219TIP3    H2 9622   6.474   6.470   5.636  0.5211 -0.2844  0.2368
 3220TIP3   OH2 9623   0.377   1.919   0.941  0.0977 -0.2374  0.4912
 3220TIP3    H1 9624   0.431   1.969   0.880  0.0602  1.4951  1.7811
 3220TIP3    H2 9625   0.323   1.863   0.885  2.4756 -1.3168 -0.8739
 3221TIP3   OH2 9626   0.104   2.716   3.179 -0.0968  0.0793  0.5779
 3221TIP3    H1 9627   0.168   2.650   3.207 -0.2562 -1.1889 -1.7636
 3221TIP3    H2 9628   0.037   2.665   3.132 -1.3199  1.7142  0.4797
 3222TIP3   OH2 9629   4.280   0.041   3.784 -0.1722  0.3593  0.1142
 3222TIP3    H1 9630   4.291   0.078   3.697  1.2006  0.1144  0.1490
 3222TIP3    H2 9631   4.241  -0.045   3.769 -0.4095  0.5270 -0.2226
 3223TIP3   OH2 9632   0.830   0.257   0.188  0.0022 -0.1395  0.3168
 3223TIP3    H1 9633   0.908   0.291   0.145  0.2536  1.1842  1.7455
 3223TIP3    H2 9634   0.801   0.327   0.245 -1.1177 -1.3270  1.2820
 3224TIP3   OH2 9635   3.887   2.203   1.858 -0.2791  0.0814 -0.5234
 3224TIP3    H1 9636   3.960   2.258   1.828 -0.6545  0.8144 -0.1114
 3224TIP3    H2 9637   3.870   2.232   1.947  0.7256 -1.9679  0.3996
 3225TIP3   OH2 9638   5.507  -0.031   1.212 -0.2573  0.2076  0.0337
 3225TIP3    H1 9639   5.586   0.015   1.182  0.0618 -1.5455 -2.0911
 3225TIP3    H2 9640   5.437   0.033   1.200  0.7756  1.8649  2.1329
 3226TIP3   OH2 9641   3.997   4.519   4.884  0.7042 -0.5638 -0.0060
 3226TIP3    H1 9642   3.974   4.500   4.975  1.4581 -1.3126  0.0469
 3226TIP3    H2 9643   4.003   4.432   4.843 -0.7990 -0.1937 -1.0751
 3227TIP3   OH2 9644   0.921   2.409   0.770 -0.2940 -0.1637 -0.0783
 3227TIP3    H1 9645   0.943   2.460   0.849  1.3950  0.2894 -0.7848
 3227TIP3    H2 9646   0.931   2.472   0.698  1.3043 -1.3072 -0.9260
 3228TIP3   OH2 9647   1.385   5.209   4.926 -0.1220 -0.3014  0.2284
 3228TIP3    H1 9648   1.412   5.227   5.016 -0.6710 -0.1025  0.3544
 3228TIP3    H2 9649   1.292   5.191   4.932 -0.0305 -0.9420 -0.2123
 3229TIP3   OH2 9650   3.129   5.516   1.148  0.1397 -0.0648  0.4210
 3229TIP3    H1 9651   3.155   5.435   1.105 -0.6572 -0.0824 -0.0372
 3229TIP3    H2 9652   3.146   5.585   1.083 -1.6324 -0.1543 -0.1941
 3230TIP3   OH2 9653   4.602   5.886   4.352 -0.1620 -0.2881  0.1578
 3230TIP3    H1 9654   4.661   5.818   4.320 -0.1830  0.1753 -0.9033
 3230TIP3    H2 9655   4.561   5.921   4.273 -2.1740 -0.8775  0.8922
 3231TIP3   OH2 9656   4.933   3.823   5.294  0.2942  0.3920 -0.7436
 3231TIP3    H1 9657   5.007   3.816   5.354 -0.4536 -1.2740  0.0643
 3231TIP3    H2 9658   4.972   3.839   5.208  1.7637 -2.5088 -0.7064
 3232TIP3   OH2 9659   0.131   3.115   2.324 -0.2249 -0.3253  0.0413
 3232TIP3    H1 9660   0.133   3.067   2.407  0.1576  0.0703  0.2685
 3232TIP3    H2 9661   0.182   3.194   2.341 -0.8812  0.1888 -0.3092
 3233TIP3   OH2 9662   1.864   1.995   2.978 -0.2434 -0.1347 -0.0571
 3233TIP3    H1 9663   1.862   2.036   3.064 -0.4893 -0.2341 -0.0152
 3233TIP3    H2 9664   1.776   2.009   2.943  0.2310  1.0393 -0.8248
 3234TIP3   OH2 9665   5.308   0.676   1.376 -0.6262 -0.1332  0.0803
 3234TIP3    H1 9666   5.286   0.583   1.385 -1.9102  0.2198  0.7121
 3234TIP3    H2 9667   5.335   0.684   1.285 -0.9011 -1.0486 -0.1011
 3235TIP3   OH2 9668   6.014   6.073   2.825 -0.1895  0.1288  0.5524
 3235TIP3    H1 9669   6.070   6.031   2.891 -1.8587 -0.9701  1.3619
 3235TIP3    H2 9670   5.996   6.160   2.861  0.7817  0.4095  0.3917
 3236TIP3   OH2 9671   2.403   3.127   3.643 -0.3923 -0.1348 -0.0051
 3236TIP3    H1 9672   2.379   3.216   3.619 -1.8384 -0.8023 -1.2168
 3236TIP3    H2 9673   2.492   3.116   3.609 -0.7770  0.3744 -1.2477
 3237TIP3   OH2 9674   7.116   3.951   4.178 -0.0738 -0.3707 -0.2421
 3237TIP3    H1 9675   7.060   3.975   4.252  0.4412  1.3063 -0.3538
 3237TIP3    H2 9676   7.190   3.906   4.218 -0.5216 -0.8252  0.0957
 3238TIP3   OH2 9677   1.289   4.397   2.537  0.0625  0.5325 -0.6003
 3238TIP3    H1 9678   1.238   4.316   2.543  1.8913 -0.6267  0.2479
 3238TIP3    H2 9679   1.360   4.375   2.477  1.1898  1.1551  0.4723
 3239TIP3   OH2 9680   1.172   3.084   5.050 -0.1462  0.5150 -0.4993
 3239TIP3    H1 9681   1.135   3.093   4.962  0.1544  0.2778 -0.6508
 3239TIP3    H2 9682   1.165   3.172   5.088 -2.3156  0.1476  0.0534
 3240TIP3   OH2 9683   6.197   2.579   1.828 -0.5842  0.0470 -0.0309
 3240TIP3    H1 9684   6.214   2.538   1.912 -0.9683 -2.0774 -0.9084
 3240TIP3    H2 9685   6.157   2.663   1.849  0.1104 -0.0654  1.8830
 3241TIP3   OH2 9686   1.378   1.028   5.881 -0.3855 -0.2725 -0.6707
 3241TIP3    H1 9687   1.301   1.076   5.911  0.7171  0.2664  1.5025
 3241TIP3    H2 9688   1.430   1.094   5.835  0.0559  0.1002  0.3231
 3242TIP3   OH2 9689   5.816   1.466   3.724 -0.0001  0.6838  0.1235
 3242TIP3    H1 9690   5.737   1.507   3.757 -0.9725 -0.7312 -0.3224
 3242TIP3    H2 9691   5.871   1.454   3.801  0.2514  2.5878  0.2871
 3243TIP3   OH2 9692   6.939   5.940   0.420  0.4654  0.7961  0.2706
 3243TIP3    H1 9693   6.976   5.989   0.347 -0.5704  0.0405 -0.7948
 3243TIP3    H2 9694   6.844   5.940   0.404  0.4109 -1.5358  0.1860
 3244TIP3   OH2 9695   4.423   3.062   5.603  0.2586  0.1310 -0.1987
 3244TIP3    H1 9696   4.481   3.004   5.652 -0.1218 -0.8473 -0.8804
 3244TIP3    H2 9697   4.465   3.148   5.608  2.1046 -0.6487 -1.1623
 3245TIP3   OH2 9698   4.401   2.734   4.913 -0.8068 -0.0391  0.5625
 3245TIP3    H1 9699   4.466   2.802   4.930 -1.3571  0.7463 -0.3500
 3245TIP3    H2 9700   4.325   2.761   4.964 -1.2534  0.4117 -0.3192
 3246TIP3   OH2 9701   4.007   5.027   2.942  0.0791 -0.3542  0.2130
 3246TIP3    H1 9702   4.052   5.106   2.914 -0.5513  0.2237  0.7929
 3246TIP3    H2 9703   4.073   4.958   2.937  1.1670  0.5496  1.4937
 3247TIP3   OH2 9704   6.046   1.292   0.129  0.0647  0.2611 -0.6966
 3247TIP3    H1 9705   6.022   1.379   0.097 -1.7168 -0.7443 -2.2654
 3247TIP3    H2 9706   5.978   1.269   0.192  1.7053  0.8070  1.4185
 3248TIP3   OH2 9707   0.586   4.698   1.089 -0.6416 -0.1394  0.6226
 3248TIP3    H1 9708   0.508   4.742   1.123 -1.7417  0.6291 -2.5447
 3248TIP3    H2 9709   0.552   4.626   1.036  0.8404 -0.3387 -0.1108
 3249TIP3   OH2 9710   3.585   6.087   0.695  0.1959 -0.5201  0.5620
 3249TIP3    H1 9711   3.655   6.151   0.686  0.0875 -0.3867  0.6552
 3249TIP3    H2 9712   3.613   6.031   0.767  0.1177 -0.3495  0.7263
 3250TIP3   OH2 9713   6.195   4.197   2.853  0.3170  0.0394  0.4625
 3250TIP3    H1 9714   6.183   4.103   2.862 -0.3424  0.2731  2.6240
 3250TIP3    H2 9715   6.113   4.229   2.816  0.3372 -0.1866  0.2256
 3251TIP3   OH2 9716   2.517   0.626   0.188  0.1419 -0.5212 -0.5225
 3251TIP3    H1 9717   2.586   0.689   0.171  0.6167 -1.2315 -1.3187
 3251TIP3    H2 9718   2.448   0.648   0.124  0.2527 -0.7179 -0.7121
 3252TIP3   OH2 9719   1.730   3.250   0.495 -0.1448  0.1824  0.4169
 3252TIP3    H1 9720   1.719   3.260   0.400  1.6013  1.4713  0.2810
 3252TIP3    H2 9721   1.678   3.321   0.533 -1.3611 -0.7238  0.4888
 3253TIP3   OH2 9722   6.353   5.589   3.815 -0.4203  0.0994  0.4960
 3253TIP3    H1 9723   6.296   5.526   3.859 -0.3923  0.1505  0.6064
 3253TIP3    H2 9724   6.301   5.669   3.809 -1.9266 -0.9795 -3.0727
 3254TIP3   OH2 9725   1.809   0.502   1.129  0.1531  0.2104  0.2985
 3254TIP3    H1 9726   1.798   0.415   1.169 -1.2737  1.5002  2.9652
 3254TIP3    H2 9727   1.900   0.525   1.147  0.1583 -0.1820  0.8079
 3255TIP3   OH2 9728   3.697   6.066   3.327 -0.4920 -0.2379 -0.1632
 3255TIP3    H1 9729   3.683   6.014   3.248  3.1753 -2.1269  0.2091
 3255TIP3    H2 9730   3.775   6.118   3.308 -0.8530  0.9687  1.4472
 3256TIP3   OH2 9731   3.638   5.233   4.619  0.1438 -0.4603  0.3923
 3256TIP3    H1 9732   3.706   5.174   4.589 -0.1367 -1.1795  1.1506
 3256TIP3    H2 9733   3.599   5.190   4.694 -1.1874 -0.0941 -0.0489
 3257TIP3   OH2 9734   0.260   4.301   2.911 -0.6077  0.6566 -0.2575
 3257TIP3    H1 9735   0.344   4.342   2.932  0.2347  0.0616 -2.2750
 3257TIP3    H2 9736   0.270   4.210   2.941 -1.0413  0.8938  0.6603
 3258TIP3   OH2 9737   2.355   4.242   2.000  0.1155 -0.0236  0.2955
 3258TIP3    H1 9738   2.326   4.282   2.082  0.0270 -0.3720  0.4370
 3258TIP3    H2 9739   2.274   4.228   1.950  0.3194  2.0572 -0.7353
 3259TIP3   OH2 9740   3.335   2.801   4.685 -0.1927  0.6854 -0.9949
 3259TIP3    H1 9741   3.292   2.880   4.715 -1.1351  0.4710 -1.7334
 3259TIP3    H2 9742   3.291   2.779   4.602  1.3116  0.4458 -1.7737
 3260TIP3   OH2 9743   1.912   0.797   2.148 -0.5911 -0.0338  0.1084
 3260TIP3    H1 9744   1.983   0.755   2.100  0.7212  0.7346  1.2822
 3260TIP3    H2 9745   1.837   0.793   2.089  0.2142 -1.5309 -0.8801
 3261TIP3   OH2 9746   5.113   2.693   5.775  0.3333  0.2534  0.2725
 3261TIP3    H1 9747   5.173   2.624   5.745  0.4114  0.4131  0.0612
 3261TIP3    H2 9748   5.119   2.761   5.708  2.3559  1.7161  1.8031
 3262TIP3   OH2 9749   3.821   2.327   5.907  0.0825  0.2304 -0.2816
 3262TIP3    H1 9750   3.786   2.243   5.937  1.4517 -0.0947  0.5555
 3262TIP3    H2 9751   3.872   2.305   5.829  0.0367  0.3527 -0.3448
 3263TIP3   OH2 9752   0.054   0.718   3.351 -0.2613 -0.1122 -0.0979
 3263TIP3    H1 9753   0.131   0.755   3.394 -0.2900 -0.2789  0.0949
 3263TIP3    H2 9754   0.042   0.773   3.273 -0.4143  0.3997  0.2813
 3264TIP3   OH2 9755   4.561   1.745   2.342 -0.2284  0.4893  0.0483
 3264TIP3    H1 9756   4.628   1.812   2.327 -0.0281 -0.0890 -1.9803
 3264TIP3    H2 9757   4.504   1.751   2.265 -1.8970  0.2379  1.2145
 3265TIP3   OH2 9758   6.150   3.725   5.156  0.0531  0.7828  0.2910
 3265TIP3    H1 9759   6.199   3.643   5.147 -0.6789  0.4269 -0.5445
 3265TIP3    H2 9760   6.182   3.762   5.239  0.4174 -0.3224  0.6695
 3266TIP3   OH2 9761   1.286   0.090   4.293 -0.0434  0.7956 -0.2371
 3266TIP3    H1 9762   1.202   0.129   4.316 -0.1872  0.8825 -0.8956
 3266TIP3    H2 9763   1.290   0.095   4.198  0.8257  1.0375 -0.1987
 3267TIP3   OH2 9764   2.741   4.197   1.134 -0.1840 -0.1756  0.0657
 3267TIP3    H1 9765   2.664   4.145   1.112 -1.0507  0.2044  2.0021
 3267TIP3    H2 9766   2.815   4.140   1.114 -1.0887 -2.1612  1.9844
 3268TIP3   OH2 9767   0.477   4.236   3.466 -0.8334  0.4673  0.1353
 3268TIP3    H1 9768   0.540   4.274   3.404  0.4890 -1.0828  0.4677
 3268TIP3    H2 9769   0.502   4.272   3.551 -1.7015  1.4162  0.0104
 3269TIP3   OH2 9770   6.314   5.989   4.681  0.2841 -0.5550  0.2692
 3269TIP3    H1 9771   6.401   5.970   4.646  0.3039 -0.5650  0.3238
 3269TIP3    H2 9772   6.330   6.057   4.747  0.3647 -1.1755  0.9009
 3270TIP3   OH2 9773   6.960   2.555   2.332  0.9349 -0.2678  0.8124
 3270TIP3    H1 9774   6.987   2.624   2.392  0.3911 -0.1966  0.9808
 3270TIP3    H2 9775   6.897   2.598   2.273  0.3283 -0.6947  1.1332
 3271TIP3   OH2 9776   1.149   3.696   5.858  0.9786 -0.8487  0.2058
 3271TIP3    H1 9777   1.087   3.691   5.785 -0.5868  0.9661  1.3240
 3271TIP3    H2 9778   1.097   3.677   5.935  2.0863 -0.4874  1.0722
 3272TIP3   OH2 9779   1.264   4.623   4.936 -0.0630  0.5387 -0.1462
 3272TIP3    H1 9780   1.304   4.558   4.994 -1.6534  0.3021  0.7658
 3272TIP3    H2 9781   1.205   4.571   4.881 -1.0222  1.1327  0.2957
 3273TIP3   OH2 9782   3.763   1.845   3.275 -0.7494  0.0523 -0.8430
 3273TIP3    H1 9783   3.792   1.754   3.276  0.4443  0.3969  0.7232
 3273TIP3    H2 9784   3.668   1.841   3.262 -0.8030 -1.4545 -0.1006
 3274TIP3   OH2 9785   4.245   1.988   5.879  0.2112 -0.4447 -0.2950
 3274TIP3    H1 9786   4.224   1.911   5.826 -0.6017  0.6532 -1.6470
 3274TIP3    H2 9787   4.338   1.976   5.901  0.1055 -1.7950 -0.4594
 3275TIP3   OH2 9788   2.168   1.005   1.287  0.5491  0.0951 -0.0571
 3275TIP3    H1 9789   2.084   1.052   1.282 -0.1784 -1.1929 -0.2010
 3275TIP3    H2 9790   2.232   1.068   1.253 -0.4343  0.8971 -0.4819
 3276TIP3   OH2 9791   5.755   3.279   1.355  0.4352  0.6297  0.6023
 3276TIP3    H1 9792   5.797   3.262   1.270 -0.5638 -1.1910  0.4130
 3276TIP3    H2 9793   5.679   3.333   1.334  0.1481  0.1224  0.3103
 3277TIP3   OH2 9794   6.362   5.921   5.045 -0.1531  0.3489 -0.0521
 3277TIP3    H1 9795   6.323   6.006   5.063  0.4339  0.7834 -0.7715
 3277TIP3    H2 9796   6.440   5.941   4.993  0.4700 -0.5661  0.5058
 3278TIP3   OH2 9797   6.675   6.388   4.200 -0.0365  0.1404 -0.5356
 3278TIP3    H1 9798   6.644   6.420   4.116  0.8794  1.2278 -0.4848
 3278TIP3    H2 9799   6.767   6.415   4.204  0.7988 -2.4595 -0.4365
 3279TIP3   OH2 9800   5.250   5.115   1.758 -0.0383 -0.1637 -0.0638
 3279TIP3    H1 9801   5.230   5.113   1.851  2.5394 -1.5294  0.5646
 3279TIP3    H2 9802   5.202   5.191   1.725 -1.5943 -0.0582  2.1904
 3280TIP3   OH2 9803   1.258   5.319   4.327 -0.2537 -0.0360  0.7835
 3280TIP3    H1 9804   1.170   5.315   4.288 -0.3211 -0.5314  0.9873
 3280TIP3    H2 9805   1.258   5.250   4.393  0.3763 -0.1970  0.6152
 3281TIP3   OH2 9806   0.443   4.884   5.226 -0.8688  0.0898 -0.1734
 3281TIP3    H1 9807   0.424   4.824   5.154  0.2655  0.6520 -0.9804
 3281TIP3    H2 9808   0.368   4.876   5.285 -2.1656  0.1291 -1.7513
 3282TIP3   OH2 9809   1.680   0.797   4.370 -0.4310  0.0730 -0.1805
 3282TIP3    H1 9810   1.637   0.860   4.312  2.4906  3.0343  0.5642
 3282TIP3    H2 9811   1.754   0.764   4.319  0.3062  0.2520  0.7543
 3283TIP3   OH2 9812   3.692   5.449   4.808  0.8431  0.5497 -0.7360
 3283TIP3    H1 9813   3.667   5.384   4.743  0.2135  0.3375 -0.2897
 3283TIP3    H2 9814   3.787   5.439   4.817  0.8758  0.3108 -1.3236
 3284TIP3   OH2 9815   6.905   3.244   4.754  0.8443 -0.1499 -0.1866
 3284TIP3    H1 9816   6.969   3.231   4.683  1.3979  0.8424  0.1239
 3284TIP3    H2 9817   6.820   3.247   4.709  1.1957  0.5296 -0.8283
 3285TIP3   OH2 9818   3.388   1.484   3.447  0.3254  0.6963 -0.2530
 3285TIP3    H1 9819   3.366   1.556   3.506 -1.5518 -0.2066  0.2264
 3285TIP3    H2 9820   3.416   1.413   3.506  1.0326  0.6351 -0.6482
 3286TIP3   OH2 9821   3.926   4.971   1.855  0.2953 -0.0483 -0.4693
 3286TIP3    H1 9822   3.991   4.903   1.837 -0.0575 -0.8760  1.1651
 3286TIP3    H2 9823   3.844   4.934   1.824  0.0763 -0.4677  0.5692
 3287TIP3   OH2 9824   2.988   2.254   4.746 -0.0655 -0.0873  0.1682
 3287TIP3    H1 9825   2.920   2.236   4.681  0.5202  1.3685 -0.9175
 3287TIP3    H2 9826   3.039   2.326   4.708  0.4731  0.6427  2.1181
 3288TIP3   OH2 9827   2.309   0.299   1.771  0.2165  0.3870  0.5270
 3288TIP3    H1 9828   2.393   0.269   1.737 -0.7515  1.6326 -3.5699
 3288TIP3    H2 9829   2.250   0.225   1.757 -0.4526  1.2866 -2.0900
 3289TIP3   OH2 9830   4.482   4.592   2.859 -0.3497  0.7291  0.0459
 3289TIP3    H1 9831   4.420   4.527   2.893  0.4825  0.8096  1.8277
 3289TIP3    H2 9832   4.540   4.541   2.802 -1.0878  0.3723 -0.4168
 3290TIP3   OH2 9833   0.594   4.686   5.393  0.1394  0.2844 -0.0144
 3290TIP3    H1 9834   0.545   4.606   5.413  0.9378 -0.6815 -1.7036
 3290TIP3    H2 9835   0.531   4.741   5.345  0.5274 -0.8186 -1.8943
 3291TIP3   OH2 9836   1.123   4.549   5.704  0.5436  0.0396 -0.2595
 3291TIP3    H1 9837   1.051   4.487   5.717  0.6356 -0.4471 -1.7907
 3291TIP3    H2 9838   1.201   4.494   5.701  0.5434  0.0665 -2.4612
 3292TIP3   OH2 9839   2.146   6.735   3.101  0.3338 -0.1707 -0.7260
 3292TIP3    H1 9840   2.181   6.706   3.017  1.3745 -1.4453  0.1077
 3292TIP3    H2 9841   2.065   6.780   3.079  0.4432 -0.7252 -2.3813
 3293TIP3   OH2 9842   1.048   2.274   3.212  0.5348  0.1205 -0.8276
 3293TIP3    H1 9843   1.031   2.181   3.198 -1.1517  0.2748 -0.0617
 3293TIP3    H2 9844   0.981   2.319   3.161  1.7506  0.9791 -1.7505
 3294TIP3   OH2 9845   1.941   3.137   3.184  0.4561 -0.1023  0.1667
 3294TIP3    H1 9846   1.954   3.137   3.279  0.7683  1.4590  0.1551
 3294TIP3    H2 9847   1.999   3.206   3.152  1.9106 -1.9699 -1.4123
 3295TIP3   OH2 9848   3.319   3.702   2.685  0.0272  0.0103  0.2471
 3295TIP3    H1 9849   3.404   3.684   2.644 -0.3140  1.4143 -1.1997
 3295TIP3    H2 9850   3.286   3.616   2.711  1.9966 -0.5405  1.1084
 3296TIP3   OH2 9851   0.928   2.702   0.296 -0.4609 -0.0855  0.3214
 3296TIP3    H1 9852   0.872   2.629   0.273 -1.3179  0.6047  0.1694
 3296TIP3    H2 9853   1.007   2.662   0.331 -1.0384 -1.0698  0.5130
 3297TIP3   OH2 9854   2.936   3.211   0.058  0.5391  0.3436  0.2091
 3297TIP3    H1 9855   2.902   3.257  -0.020  0.5091  1.1918  0.7095
 3297TIP3    H2 9856   2.863   3.156   0.087  0.1589  0.8934  0.3061
 3298TIP3   OH2 9857   4.727   1.661   0.288  0.3537  0.1169  0.2038
 3298TIP3    H1 9858   4.649   1.607   0.297 -0.7255  1.5125 -0.3970
 3298TIP3    H2 9859   4.768   1.661   0.374  1.7821 -3.5871 -0.2907
 3299TIP3   OH2 9860   5.720   5.466   4.140 -0.5864 -0.4711 -0.6596
 3299TIP3    H1 9861   5.692   5.455   4.231 -1.8822 -0.3600 -1.0282
 3299TIP3    H2 9862   5.662   5.533   4.105  0.9883  0.7178 -1.1252
 3300TIP3   OH2 9863   2.267   1.671   2.649  0.2918 -0.0296  0.2930
 3300TIP3    H1 9864   2.190   1.726   2.633 -0.7952 -1.6724 -0.3408
 3300TIP3    H2 9865   2.311   1.713   2.723  0.4576  2.6357 -1.1948
 3301TIP3   OH2 9866   3.315   4.764   5.111  0.3826  0.5463  0.2075
 3301TIP3    H1 9867   3.356   4.797   5.191  4.6347 -0.1280 -1.4078
 3301TIP3    H2 9868   3.332   4.669   5.113 -1.4673  0.1619 -0.4964
 3302TIP3   OH2 9869   2.171   3.558   5.659 -0.0947  0.3612  0.6554
 3302TIP3    H1 9870   2.199   3.551   5.568  0.4861 -0.6693  0.9003
 3302TIP3    H2 9871   2.097   3.619   5.657 -0.8656 -0.5904 -0.6845
 3303TIP3   OH2 9872   6.435   3.105   2.407 -0.1898  0.0334 -0.1867
 3303TIP3    H1 9873   6.345   3.132   2.391  0.3920  0.6890 -2.6662
 3303TIP3    H2 9874   6.448   3.119   2.501 -2.9130 -0.9516  0.4406
 3304TIP3   OH2 9875   1.613   2.380   1.607  0.0770 -0.2412  0.1774
 3304TIP3    H1 9876   1.537   2.436   1.591  0.2091 -0.1596 -0.1772
 3304TIP3    H2 9877   1.588   2.328   1.684  0.7428  1.7381  1.8308
 3305TIP3   OH2 9878   0.904   4.286   5.810 -0.0548 -0.2269 -0.7433
 3305TIP3    H1 9879   0.979   4.270   5.867  0.0123 -1.7390 -1.2301
 3305TIP3    H2 9880   0.828   4.285   5.869  0.0292 -1.6072 -0.6256
 3306TIP3   OH2 9881   5.531   0.915   5.895 -0.4389 -0.1475 -0.0334
 3306TIP3    H1 9882   5.462   0.902   5.960 -0.8491 -2.1947 -0.8079
 3306TIP3    H2 9883   5.498   0.986   5.840 -1.1763 -0.0002  0.5726
 3307TIP3   OH2 9884   1.871   6.364   2.731 -1.0761 -0.3102 -0.3772
 3307TIP3    H1 9885   1.937   6.398   2.791 -0.4593 -0.7450 -0.7929
 3307TIP3    H2 9886   1.890   6.270   2.726 -0.4106 -0.1164 -2.0854
 3308TIP3   OH2 9887   3.490   4.651   0.935  0.1062 -0.6150 -0.2419
 3308TIP3    H1 9888   3.511   4.721   0.872 -0.2897 -0.3629 -0.0987
 3308TIP3    H2 9889   3.395   4.642   0.930  0.3605 -3.2990 -2.5344
 3309TIP3   OH2 9890   5.027   5.085   1.965 -0.0431 -0.0061  0.0826
 3309TIP3    H1 9891   4.989   5.059   1.881 -0.1434  0.9112 -0.1597
 3309TIP3    H2 9892   4.956   5.127   2.012  0.4154  0.8993 -0.0069
 3310TIP3   OH2 9893   7.033   1.180   0.202  0.2925  0.4534  0.3490
 3310TIP3    H1 9894   7.037   1.269   0.237  1.1982 -0.2983  2.2618
 3310TIP3    H2 9895   7.123   1.148   0.208 -0.0097 -0.5768 -0.4009
 3311TIP3   OH2 9896   4.091   6.691   0.421  0.3081 -0.7694  0.5499
 3311TIP3    H1 9897   4.036   6.655   0.491 -1.9373 -0.4060 -0.9329
 3311TIP3    H2 9898   4.160   6.738   0.467 -1.5984  0.2358  2.5622
 3312TIP3   OH2 9899   0.938   2.961   0.368  0.0609  0.3582  0.2125
 3312TIP3    H1 9900   0.947   2.875   0.326 -1.0262 -0.0572  0.8017
 3312TIP3    H2 9901   0.848   2.964   0.399 -0.0684  1.9153 -0.2056
 3313TIP3   OH2 9902   2.418   5.719   0.802 -0.1397 -0.0220 -0.4851
 3313TIP3    H1 9903   2.381   5.807   0.812 -0.9078 -0.4546  0.7144
 3313TIP3    H2 9904   2.472   5.725   0.724 -0.8688  1.2890 -0.9317
 3314TIP3   OH2 9905   5.334   4.681   2.785  0.0787  0.3690  0.1541
 3314TIP3    H1 9906   5.301   4.605   2.738 -0.1477  0.1643  0.6377
 3314TIP3    H2 9907   5.257   4.737   2.795  0.0186  0.1856  0.7186
 3315TIP3   OH2 9908   1.438   2.845   5.527 -0.2422  0.4579 -0.2261
 3315TIP3    H1 9909   1.529   2.816   5.521  0.2340  1.6224  0.9756
 3315TIP3    H2 9910   1.394   2.775   5.575 -0.4048 -0.8982 -2.1921
 3316TIP3   OH2 9911   7.090   1.614   4.226 -0.3564  0.1417  0.0411
 3316TIP3    H1 9912   7.139   1.592   4.305 -0.5979  0.5248  0.3032
 3316TIP3    H2 9913   7.157   1.633   4.161 -0.0810  2.3174  0.8454
 3317TIP3   OH2 9914   5.874   0.176   1.427 -0.6436 -0.1500 -0.3059
 3317TIP3    H1 9915   5.938   0.245   1.411 -2.0691  1.7179  1.4915
 3317TIP3    H2 9916   5.922   0.109   1.475  0.1576  0.8586  0.3508
 3318TIP3   OH2 9917   2.598   3.993   5.379  0.1230  0.3160 -0.3004
 3318TIP3    H1 9918   2.573   3.981   5.287  2.3636  0.6743 -1.0208
 3318TIP3    H2 9919   2.518   3.975   5.428 -0.5499 -2.4898 -2.1456
 3319TIP3   OH2 9920   6.388   3.845   3.546 -0.0813  0.6337 -0.3719
 3319TIP3    H1 9921   6.356   3.888   3.625 -0.1739 -0.0932 -0.0061
 3319TIP3    H2 9922   6.323   3.867   3.479 -1.4242 -0.8563  0.3692
 3320TIP3   OH2 9923   5.240   2.978   0.383 -0.5272  0.3950  0.5873
 3320TIP3    H1 9924   5.328   2.971   0.345  0.5640  0.8181  2.9055
 3320TIP3    H2 9925   5.246   3.052   0.444 -1.9690 -0.6762  2.1049
 3321TIP3   OH2 9926   0.281   5.511   2.469 -0.7386  0.0026 -0.5598
 3321TIP3    H1 9927   0.346   5.568   2.509  0.0470 -1.0234 -0.3285
 3321TIP3    H2 9928   0.331   5.458   2.406 -1.4076 -0.5620 -0.6292
 3322TIP3   OH2 9929   2.954   0.688   2.216  0.1321  0.8649 -0.2082
 3322TIP3    H1 9930   2.993   0.773   2.232 -0.0949  0.8270  0.5652
 3322TIP3    H2 9931   2.977   0.635   2.292  2.8803 -0.7524 -1.9953
 3323TIP3   OH2 9932   5.678   5.391   2.101  0.1725 -0.6105 -0.2459
 3323TIP3    H1 9933   5.753   5.389   2.161  1.5461 -1.2806 -1.9183
 3323TIP3    H2 9934   5.716   5.383   2.014 -1.8776 -1.3983 -1.1409
 3324TIP3   OH2 9935   4.571   3.653   5.341 -0.1655  0.3234 -0.2367
 3324TIP3    H1 9936   4.494   3.624   5.389  0.1776  1.1153  0.8177
 3324TIP3    H2 9937   4.559   3.748   5.330 -0.0420  0.2279 -1.3628
 3325TIP3   OH2 9938   1.318   0.855   4.640 -0.0691 -0.0730 -0.1214
 3325TIP3    H1 9939   1.303   0.860   4.546  1.0429 -0.8538 -0.3525
 3325TIP3    H2 9940   1.399   0.903   4.655 -0.1734 -0.0528  0.4373
 3326TIP3   OH2 9941   3.334   2.392   4.689  0.3727 -0.1260 -0.5500
 3326TIP3    H1 9942   3.355   2.327   4.755  1.1040  0.4381 -0.2143
 3326TIP3    H2 9943   3.413   2.445   4.681 -0.1525  0.6270 -0.9222
 3327TIP3   OH2 9944   1.438   5.262   5.841 -0.2987 -0.0050  0.5846
 3327TIP3    H1 9945   1.460   5.217   5.760 -1.5789 -1.4566  1.0041
 3327TIP3    H2 9946   1.453   5.197   5.910  0.3578  1.0680  1.4998
 3328TIP3   OH2 9947   4.580   5.167   2.545 -0.2844  0.7176  0.1604
 3328TIP3    H1 9948   4.578   5.257   2.579 -1.5397  0.3096  1.2306
 3328TIP3    H2 9949   4.607   5.177   2.454  0.9133  2.0544  0.6139
 3329TIP3   OH2 9950   0.204   0.494   5.836 -0.3268  0.1903 -0.1069
 3329TIP3    H1 9951   0.153   0.456   5.907  1.6127 -0.6885  0.9159
 3329TIP3    H2 9952   0.270   0.548   5.880  0.2166  0.5399 -1.3068
 3330TIP3   OH2 9953   1.240   1.160   4.481 -0.5126 -0.1602 -0.4509
 3330TIP3    H1 9954   1.242   1.245   4.438  0.8025  0.1903  0.2275
 3330TIP3    H2 9955   1.286   1.175   4.564 -0.9509 -1.3489  0.0216
 3331TIP3   OH2 9956   2.027   0.473   4.531  0.1167 -0.5712  0.0791
 3331TIP3    H1 9957   2.118   0.444   4.534 -0.3468 -2.0444  2.2000
 3331TIP3    H2 9958   2.005   0.495   4.622 -2.3918 -2.9595  0.2051
 3332TIP3   OH2 9959   3.449   5.318   5.571  0.2485 -0.1641 -0.0083
 3332TIP3    H1 9960   3.507   5.255   5.613 -0.2071 -1.5540 -1.3833
 3332TIP3    H2 9961   3.505   5.393   5.550  0.9838 -0.4485  0.8785
 3333TIP3   OH2 9962   1.526   4.931   5.064 -0.4489 -0.1186  0.0095
 3333TIP3    H1 9963   1.549   4.858   5.007 -2.6591 -0.8867 -0.0080
 3333TIP3    H2 9964   1.538   5.009   5.010  0.2920 -0.6026 -0.5364
 3334TIP3   OH2 9965   6.668   1.231   3.254 -0.3696 -0.2685  0.2793
 3334TIP3    H1 9966   6.617   1.162   3.298  0.6280 -0.8923  0.4987
 3334TIP3    H2 9967   6.758   1.215   3.282  0.3583 -0.8013 -2.1264
 3335TIP3   OH2 9968   4.627   1.320   4.826  0.0416  0.1150  0.0634
 3335TIP3    H1 9969   4.711   1.278   4.806 -0.0892 -0.4306  0.6256
 3335TIP3    H2 9970   4.565   1.247   4.831 -0.7307  0.6118 -1.5739
 3336TIP3   OH2 9971   3.637   3.815   5.458 -0.7562  0.5405 -0.1264
 3336TIP3    H1 9972   3.654   3.811   5.364  0.0905  2.8743 -0.1508
 3336TIP3    H2 9973   3.572   3.884   5.468 -0.8878  0.2808  0.9945
 3337TIP3   OH2 9974   3.055   5.443   5.243 -0.4247 -0.2388  0.1137
 3337TIP3    H1 9975   3.069   5.488   5.160  0.4064  0.1802  0.4598
 3337TIP3    H2 9976   2.965   5.411   5.239  0.0515 -1.4645 -1.5192
 3338TIP3   OH2 9977   2.619   1.694   0.212 -0.1407  0.2258  0.4414
 3338TIP3    H1 9978   2.645   1.781   0.241 -0.2917 -0.1638  1.8120
 3338TIP3    H2 9979   2.674   1.634   0.263  0.4691 -0.4852 -0.9888
 3339TIP3   OH2 9980   2.787   5.546   4.133  0.6317  0.4156 -0.7694
 3339TIP3    H1 9981   2.813   5.488   4.205  1.5683  1.1188 -0.5201
 3339TIP3    H2 9982   2.692   5.536   4.127  0.7430 -0.8688 -0.5018
 3340TIP3   OH2 9983   6.951   2.096   4.282 -0.5414  0.1107 -0.0373
 3340TIP3    H1 9984   7.005   2.171   4.307 -3.2811  2.2828 -0.1553
 3340TIP3    H2 9985   6.974   2.079   4.191  0.3037  0.5950  0.0707
 3341TIP3   OH2 9986   5.262   0.192   3.089 -0.1702 -0.0104 -0.3355
 3341TIP3    H1 9987   5.238   0.103   3.116  0.0014 -0.2877 -1.0677
 3341TIP3    H2 9988   5.276   0.239   3.172 -0.8307 -0.4988  0.0695
 3342TIP3   OH2 9989   5.305   6.492   3.454  0.1507 -0.0687  0.3649
 3342TIP3    H1 9990   5.267   6.492   3.367  0.4950 -3.6687  0.0978
 3342TIP3    H2 9991   5.399   6.484   3.440  0.1694 -1.2769  1.0169
 3343TIP3   OH2 9992   4.135   5.543   3.453 -0.0631 -0.4719  0.0196
 3343TIP3    H1 9993   4.140   5.459   3.499 -2.4918 -0.6956  0.0248
 3343TIP3    H2 9994   4.112   5.520   3.363  0.8195  0.1428 -0.3762
 3344TIP3   OH2 9995   6.544   6.450   2.609  0.1334 -0.4977  0.1031
 3344TIP3    H1 9996   6.479   6.519   2.598 -0.1581 -0.8811 -0.5783
 3344TIP3    H2 9997   6.547   6.435   2.704 -1.2676 -0.9617  0.0865
 3345TIP3   OH2 9998   7.200   1.184   1.886 -0.2221 -0.4771  0.1744
 3345TIP3    H1 9999   7.227   1.102   1.846  0.9334  0.5726 -1.3442
 3345TIP3    H210000   7.171   1.238   1.812 -1.9576  0.1384  1.2472
 3346TIP3   OH210001   5.503   3.286   4.669  0.1290  0.5061  0.2508
 3346TIP3    H110002   5.506   3.351   4.739  1.1655  1.1675 -0.3792
 3346TIP3    H210003   5.586   3.296   4.623 -1.8816  2.7387 -3.3775
 3347TIP3   OH210004   3.629   2.114   4.341  0.3629 -0.1135  0.9011
 3347TIP3    H110005   3.691   2.186   4.347 -0.1685  0.3071  1.5559
 3347TIP3    H210006   3.648   2.059   4.417  0.5248 -0.4657  0.6076
 3348TIP3   OH210007   1.325   1.740   0.510 -0.8169 -0.4737  0.6918
 3348TIP3    H110008   1.243   1.789   0.516 -1.1243 -0.9295  0.2777
 3348TIP3    H210009   1.387   1.790   0.562 -0.0835  2.4542 -2.5961
 3349TIP3   OH210010   0.727   0.601   0.472  0.4922 -0.2174 -0.0026
 3349TIP3    H110011   0.800   0.597   0.411  1.2116  0.5624  0.7710
 3349TIP3    H210012   0.649   0.604   0.417  1.0296 -1.1198 -0.8373
 3350TIP3   OH210013   2.092   2.926   4.786  0.0454  0.1837  0.1267
 3350TIP3    H110014   2.094   2.987   4.860 -1.9990  1.0210 -0.4332
 3350TIP3    H210015   2.128   2.845   4.821  0.2506  0.9097  1.6960
 3351TIP3   OH210016   3.779   0.750   2.908 -0.8310  0.1018 -0.6095
 3351TIP3    H110017   3.868   0.714   2.909 -0.7729  0.2390 -0.7573
 3351TIP3    H210018   3.787   0.831   2.858 -0.8771  0.5343  0.0634
 3352TIP3   OH210019   5.229   2.498   1.827  0.1970  0.0441 -0.0068
 3352TIP3    H110020   5.136   2.511   1.845 -0.5367 -2.1276 -1.8396
 3352TIP3    H210021   5.268   2.584   1.844 -2.1631  1.1077  0.5187
 3353TIP3   OH210022   3.254   1.121   5.493  0.2474 -0.0722  1.1547
 3353TIP3    H110023   3.178   1.112   5.550 -0.3307 -1.3898  0.2365
 3353TIP3    H210024   3.241   1.205   5.448 -1.8562 -1.2398 -0.5949
 3354TIP3   OH210025   4.432   6.717   3.244  0.0146 -0.0040 -0.8813
 3354TIP3    H110026   4.481   6.798   3.258 -1.5775  0.7072  1.1374
 3354TIP3    H210027   4.375   6.737   3.169 -0.1464  0.6578 -0.5959
 3355TIP3   OH210028   1.525   2.235   5.017  0.2257 -0.2550 -0.0240
 3355TIP3    H110029   1.471   2.202   5.088 -1.4503 -1.3794 -1.7324
 3355TIP3    H210030   1.466   2.290   4.965  1.5105  0.8846 -0.3518
 3356TIP3   OH210031   6.644   5.226   5.704  0.1589  0.0150  0.7771
 3356TIP3    H110032   6.592   5.157   5.746 -1.0037  1.0598  1.1218
 3356TIP3    H210033   6.701   5.179   5.643 -0.4859 -1.2595  1.1147
 3357TIP3   OH210034   1.868   1.696   2.967  0.0574 -0.2187  0.6919
 3357TIP3    H110035   1.792   1.692   2.909  0.8376 -1.4652 -0.3169
 3357TIP3    H210036   1.838   1.744   3.044 -1.8152 -0.9000  0.4259
 3358TIP3   OH210037   6.724   3.788   4.642 -0.0457 -0.2292  0.3549
 3358TIP3    H110038   6.652   3.827   4.592 -0.5671 -0.5553  0.8351
 3358TIP3    H210039   6.781   3.749   4.575 -0.1286  0.3375 -0.0503
 3359TIP3   OH210040   5.349   0.941   3.066  0.3643  0.1549  0.4888
 3359TIP3    H110041   5.362   1.032   3.093 -5.0660  0.9808  1.6053
 3359TIP3    H210042   5.354   0.943   2.970  1.9693  1.1905  0.5609
 3360TIP3   OH210043   6.983   2.854   2.806 -0.2453 -0.2181  0.0654
 3360TIP3    H110044   6.922   2.911   2.759  0.8504  1.8824  1.0416
 3360TIP3    H210045   6.928   2.807   2.868 -1.0752  0.5894 -0.0238
 3361TIP3   OH210046   1.205   1.875   2.182 -0.2894  0.0318  0.0980
 3361TIP3    H110047   1.112   1.861   2.166 -0.3738  1.4699 -0.8044
 3361TIP3    H210048   1.244   1.788   2.173 -1.6215 -0.7153  1.2368
 3362TIP3   OH210049   0.596   0.096   4.175  0.0670  0.0786  0.3667
 3362TIP3    H110050   0.518   0.131   4.218  1.0477 -0.8075  3.1053
 3362TIP3    H210051   0.657   0.170   4.172 -0.2552  0.3261 -0.1809
 3363TIP3   OH210052   7.057   4.157   0.362 -0.2315 -0.3954 -0.0820
 3363TIP3    H110053   7.117   4.194   0.298 -0.1477 -1.7934 -0.8595
 3363TIP3    H210054   7.112   4.101   0.417 -0.2825  0.8690  1.3313
 3364TIP3   OH210055   5.964   1.932   2.467  0.4865  0.3476 -0.2485
 3364TIP3    H110056   5.946   1.937   2.373  2.4800  0.4113 -0.6713
 3364TIP3    H210057   5.990   1.841   2.481  0.0517  0.3004  0.2892
 3365TIP3   OH210058   4.638   5.743   4.602  0.4558  0.3982 -0.2037
 3365TIP3    H110059   4.662   5.796   4.526  2.3506 -0.0909 -0.0201
 3365TIP3    H210060   4.687   5.662   4.590  2.5584  1.1068  2.5032
 3366TIP3   OH210061   4.875   5.866   0.718  0.1071 -0.1855  0.2382
 3366TIP3    H110062   4.798   5.871   0.662  0.0744 -0.0411  0.2956
 3366TIP3    H210063   4.941   5.918   0.673  0.0325  0.0582  0.4100
 3367TIP3   OH210064   3.959   5.977   2.272 -0.1871 -0.1852  0.6218
 3367TIP3    H110065   4.050   5.996   2.249 -0.1836 -0.8822 -0.0068
 3367TIP3    H210066   3.908   6.043   2.226  0.0054  0.3092  1.1090
 3368TIP3   OH210067   7.262   2.381   0.851  0.3885 -0.1048  0.1305
 3368TIP3    H110068   7.226   2.467   0.828 -2.5110 -0.7000  1.9386
 3368TIP3    H210069   7.189   2.335   0.893  2.4816 -2.6610  1.2226
 3369TIP3   OH210070   3.996   4.681   2.336  0.1107  0.2470  0.3990
 3369TIP3    H110071   3.995   4.612   2.403 -0.4991  0.8273  0.9967
 3369TIP3    H210072   3.936   4.747   2.369  1.2627  1.4329  0.2040
 3370TIP3   OH210073   1.347   2.079   1.123  0.2335  0.3486  0.0746
 3370TIP3    H110074   1.290   2.149   1.157  0.1162  0.8269 -1.0805
 3370TIP3    H210075   1.312   2.059   1.036  1.3665  0.0992 -0.3400
 3371TIP3   OH210076   4.056   3.437   3.760 -0.1634  0.2300 -0.1075
 3371TIP3    H110077   4.143   3.413   3.727  0.6809  0.9204  1.5071
 3371TIP3    H210078   4.019   3.493   3.691  1.0908  0.7494 -0.3949
 3372TIP3   OH210079   5.762   2.959   5.710  0.3458  0.3653  0.2397
 3372TIP3    H110080   5.854   2.933   5.711  1.2256  3.1173  2.0613
 3372TIP3    H210081   5.734   2.955   5.801 -1.0954  0.3548 -0.1754
 3373TIP3   OH210082   1.825   1.307   5.430  0.1382  0.0874  0.7983
 3373TIP3    H110083   1.847   1.290   5.338  0.4708 -1.6963  1.1732
 3373TIP3    H210084   1.800   1.399   5.432  0.3620  0.2222 -1.0358
 3374TIP3   OH210085   2.018   1.234   1.131  0.0507  0.6167 -0.0227
 3374TIP3    H110086   1.927   1.209   1.118  0.6416 -1.9335  0.1399
 3374TIP3    H210087   2.039   1.289   1.057 -1.1569 -0.1613 -0.9858
 3375TIP3   OH210088   5.389   4.076   3.762  1.0180 -0.5194  0.0149
 3375TIP3    H110089   5.474   4.120   3.754  0.9162 -0.2179  0.5275
 3375TIP3    H210090   5.391   4.036   3.849  2.1010 -3.7050 -1.3246
 3376TIP3   OH210091   5.113   4.458   5.420  0.0113  0.1987 -0.3100
 3376TIP3    H110092   5.130   4.552   5.415 -1.3212  0.4548 -0.4716
 3376TIP3    H210093   5.153   4.431   5.502  0.5010  0.8855 -0.3128
 3377TIP3   OH210094   1.233   3.723   0.035  0.4892 -0.0683 -0.2011
 3377TIP3    H110095   1.296   3.659   0.002  0.7273  0.6039 -1.0951
 3377TIP3    H210096   1.266   3.808   0.004 -0.6901  0.3236 -0.4374
 3378TIP3   OH210097   6.389   4.176   0.721 -0.4168 -0.5229 -0.1621
 3378TIP3    H110098   6.418   4.086   0.740  1.3353  0.5335  2.8485
 3378TIP3    H210099   6.321   4.193   0.786  0.6437  0.9272  0.6057
 3379TIP3   OH210100   6.620   3.855   3.695 -0.1990  0.0320 -0.6660
 3379TIP3    H110101   6.569   3.827   3.771  0.0418  1.2746 -0.0161
 3379TIP3    H210102   6.557   3.861   3.624 -0.5525 -0.5135 -0.4032
 3380TIP3   OH210103   3.053   0.307   3.036  0.7480  0.2215  0.4865
 3380TIP3    H110104   2.973   0.360   3.030 -0.1980 -1.1386  0.4987
 3380TIP3    H210105   3.061   0.284   3.128  0.9434  0.0453  0.4277
 3381TIP3   OH210106   4.445   2.347   1.347  0.0297 -0.3240  0.1454
 3381TIP3    H110107   4.508   2.416   1.326  0.4671 -0.6590  0.3371
 3381TIP3    H210108   4.490   2.266   1.322 -0.5209 -0.5334 -0.1796
 3382TIP3   OH210109   2.344   1.595   0.333 -0.0751 -0.0184  0.5971
 3382TIP3    H110110   2.308   1.683   0.336 -0.7264 -0.2862  2.2165
 3382TIP3    H210111   2.430   1.604   0.291 -0.2603  1.3274  0.4845
 3383TIP3   OH210112   6.523   4.730   4.463  0.2679  0.0508  0.3114
 3383TIP3    H110113   6.503   4.803   4.522  1.0213  0.7901 -0.3288
 3383TIP3    H210114   6.447   4.725   4.405  0.5759  0.8997 -0.1890
 3384TIP3   OH210115   6.464   2.631   1.791 -0.5331 -0.3956  0.4853
 3384TIP3    H110116   6.511   2.614   1.709 -0.2269  1.9306  0.1317
 3384TIP3    H210117   6.371   2.622   1.767 -0.8409  4.8994 -1.5362
 3385TIP3   OH210118   4.795   4.239   0.851  0.3413 -0.2951 -0.2713
 3385TIP3    H110119   4.872   4.230   0.796  0.9811  1.6201  0.2384
 3385TIP3    H210120   4.729   4.278   0.794 -0.9694 -3.5669 -1.2374
 3386TIP3   OH210121   3.659   1.964   4.571  0.4378 -0.2895  0.1971
 3386TIP3    H110122   3.750   1.933   4.576  0.3566 -0.3693  1.8835
 3386TIP3    H210123   3.631   1.968   4.662 -1.8908 -2.1404 -0.3386
 3387TIP3   OH210124   0.557   4.855   3.640 -0.1131  0.4216 -0.5910
 3387TIP3    H110125   0.478   4.840   3.588  0.1460 -0.6768 -0.6875
 3387TIP3    H210126   0.586   4.942   3.614 -0.8139  0.4940 -1.1830
 3388TIP3   OH210127   4.207   0.617   3.453 -0.5178 -0.1793 -0.0938
 3388TIP3    H110128   4.242   0.625   3.542  0.9771 -2.2332 -0.4385
 3388TIP3    H210129   4.122   0.662   3.457 -0.6697 -0.5371  2.4614
 3389TIP3   OH210130   0.633   4.795   4.834 -0.5623  0.3208  0.1193
 3389TIP3    H110131   0.676   4.798   4.920  0.4986  1.2151 -0.4143
 3389TIP3    H210132   0.571   4.868   4.836  0.0197  0.8406 -0.1280
 3390TIP3   OH210133   4.071   1.413   2.951 -0.0685 -0.5990 -0.5660
 3390TIP3    H110134   4.117   1.339   2.911  0.3643 -0.1395 -0.9207
 3390TIP3    H210135   3.979   1.385   2.953  0.4205 -2.3408  1.9595
 3391TIP3   OH210136   5.842   2.818   0.666  0.1984  0.2329  0.4081
 3391TIP3    H110137   5.933   2.841   0.686  0.5050 -0.8728  0.3747
 3391TIP3    H210138   5.847   2.775   0.580 -0.4198  0.5508  0.2100
 3392TIP3   OH210139   5.924   1.511   5.866  0.0451 -0.0312 -0.3438
 3392TIP3    H110140   5.965   1.452   5.802 -0.9326 -0.6356 -0.4251
 3392TIP3    H210141   5.951   1.477   5.951  0.9292  0.4706 -0.4097
 3393TIP3   OH210142   0.617   3.243   5.491  0.1858  0.3330  0.3356
 3393TIP3    H110143   0.631   3.206   5.579  2.2588  0.4743  0.0979
 3393TIP3    H210144   0.663   3.327   5.492 -2.3529  1.8581  0.0462
 3394TIP3   OH210145   4.860   4.767   2.357  1.0052 -0.1018 -0.4006
 3394TIP3    H110146   4.795   4.775   2.287  0.7446  1.4721 -0.0144
 3394TIP3    H210147   4.817   4.713   2.423  0.4067  0.2257 -0.5122
 3395TIP3   OH210148   4.634   2.853   4.152  0.0936 -0.4769 -0.5110
 3395TIP3    H110149   4.691   2.813   4.217 -2.1232 -2.8070  0.1671
 3395TIP3    H210150   4.625   2.944   4.181  1.9982 -0.4963  0.3241
 3396TIP3   OH210151   3.785   2.293   2.973  0.2659  0.6230 -0.1665
 3396TIP3    H110152   3.755   2.384   2.976  1.5315  1.1091 -1.2520
 3396TIP3    H210153   3.704   2.242   2.980 -0.4682  1.8157  0.4841
 3397TIP3   OH210154   2.542   3.193   2.467  0.3585 -0.2066  0.4051
 3397TIP3    H110155   2.461   3.242   2.453  0.1576 -1.0354 -1.5894
 3397TIP3    H210156   2.524   3.139   2.544 -0.7225  0.1266  0.4069
 3398TIP3   OH210157   0.012   5.612   0.205  0.0892  0.2843 -0.3004
 3398TIP3    H110158   0.005   5.588   0.298 -1.6768  2.2590  0.1473
 3398TIP3    H210159   0.077   5.682   0.203 -0.8548  1.1772 -0.3242
 3399TIP3   OH210160   4.781   2.516   5.209  0.1458  0.5834  0.6328
 3399TIP3    H110161   4.849   2.456   5.239  0.3650 -0.1586 -1.2174
 3399TIP3    H210162   4.752   2.480   5.125 -1.8627  1.4160  0.8990
 3400TIP3   OH210163   0.415   1.268   0.336  0.3412  0.0188 -0.0072
 3400TIP3    H110164   0.442   1.276   0.244  2.0740  1.3829  0.5606
 3400TIP3    H210165   0.340   1.326   0.344  0.8580  0.7516 -0.3427
 3401TIP3   OH210166   5.527   5.188   4.746 -0.1747 -0.1057  0.0422
 3401TIP3    H110167   5.521   5.273   4.790 -0.1585 -0.4493  0.7347
 3401TIP3    H210168   5.617   5.182   4.716  0.5156 -0.8162  2.0239
 3402TIP3   OH210169   4.377   6.323   0.688  0.3592  0.3019  0.1001
 3402TIP3    H110170   4.386   6.248   0.629  0.6505  0.5306 -0.1475
 3402TIP3    H210171   4.293   6.308   0.732 -0.6414  0.9403 -1.5136
 3403TIP3   OH210172   2.392   0.656   4.727  0.0713 -0.3146  0.1320
 3403TIP3    H110173   2.485   0.653   4.708  0.0656 -1.2789  0.2166
 3403TIP3    H210174   2.371   0.569   4.762 -1.6569 -1.6205 -3.6339
 3404TIP3   OH210175   2.220   3.852   1.350 -0.1148 -0.3471 -0.3492
 3404TIP3    H110176   2.205   3.817   1.438  0.0497 -0.1607 -0.2472
 3404TIP3    H210177   2.133   3.859   1.312 -0.2781  0.5426  0.1689
 3405TIP3   OH210178   3.982   2.127   2.975  0.7909 -0.1469  0.3021
 3405TIP3    H110179   3.991   2.082   2.891  0.7823  0.4549 -0.0284
 3405TIP3    H210180   3.925   2.201   2.956  1.1385  0.2372  0.7449
 3406TIP3   OH210181   2.897   2.370   5.603  0.8486 -0.4705  0.2956
 3406TIP3    H110182   2.836   2.443   5.597  0.3500 -0.7342  1.8359
 3406TIP3    H210183   2.898   2.333   5.514 -0.3030  0.2679 -0.0456
 3407TIP3   OH210184   5.105   5.560   5.550 -0.0959  0.8070 -0.7036
 3407TIP3    H110185   5.144   5.500   5.612 -0.3491 -0.4059 -1.6829
 3407TIP3    H210186   5.164   5.560   5.475 -1.8245 -0.9703 -2.1625
 3408TIP3   OH210187   1.119   6.672   4.618 -0.1330  0.3100  0.0651
 3408TIP3    H110188   1.131   6.737   4.688 -3.3070  0.9456  0.1933
 3408TIP3    H210189   1.124   6.722   4.537  0.6512  0.0933 -0.0282
 3409TIP3   OH210190   6.853   5.109   1.352 -0.0062  0.2353 -0.1093
 3409TIP3    H110191   6.820   5.186   1.306  0.4736 -0.9054 -2.5106
 3409TIP3    H210192   6.945   5.129   1.369 -0.1804  0.6526  0.3786
 3410TIP3   OH210193   2.885   2.471   3.483  0.0960  0.4772  0.3782
 3410TIP3    H110194   2.845   2.476   3.570  0.5924  0.0002  0.6349
 3410TIP3    H210195   2.959   2.411   3.493  0.2749  0.5672 -0.3286
 3411TIP3   OH210196   1.591   3.471   0.591 -0.3341  0.0844  0.1120
 3411TIP3    H110197   1.510   3.429   0.563 -0.3151 -0.9872  1.5470
 3411TIP3    H210198   1.582   3.480   0.686  0.6004  1.3464  0.1092
 3412TIP3   OH210199   0.010   1.606   4.451  0.4818  0.0265  0.7254
 3412TIP3    H110200   0.077   1.638   4.511  0.9062 -0.0468  0.2949
 3412TIP3    H210201  -0.027   1.529   4.494 -0.2160  0.7990  1.5496
 3413TIP3   OH210202   0.516   4.126   2.828 -0.0697  0.3539  0.1657
 3413TIP3    H110203   0.556   4.047   2.791 -0.2295  0.0552  0.6176
 3413TIP3    H210204   0.438   4.094   2.875  0.5049  0.6242  1.3444
 3414TIP3   OH210205   3.959   0.174   5.266 -0.2737 -0.0457 -0.3532
 3414TIP3    H110206   4.008   0.094   5.286 -0.7401 -0.0259  0.9649
 3414TIP3    H210207   3.981   0.235   5.337 -1.0441  0.4826 -0.5473
 3415TIP3   OH210208   2.604   2.247   4.812 -0.2216 -0.0955  0.1460
 3415TIP3    H110209   2.627   2.157   4.788 -0.3090  0.3642 -1.9038
 3415TIP3    H210210   2.521   2.263   4.766  0.3123  1.3418 -0.3798
 3416TIP3   OH210211   0.473   6.776   2.180 -0.2777  0.1926  0.0930
 3416TIP3    H110212   0.531   6.852   2.179  0.2034 -0.0429  2.6635
 3416TIP3    H210213   0.388   6.810   2.152  0.4494  1.1347 -1.0484
 3417TIP3   OH210214   0.030   4.510   2.380 -0.3586  0.6498 -0.6894
 3417TIP3    H110215  -0.016   4.427   2.383  1.5880 -0.4570  1.6137
 3417TIP3    H210216   0.109   4.493   2.329  0.4942  0.7749  0.5307
 3418TIP3   OH210217   6.639   5.405   4.871 -0.8629 -0.5816  0.4684
 3418TIP3    H110218   6.619   5.490   4.832 -0.2864 -0.0742  1.2423
 3418TIP3    H210219   6.608   5.412   4.961  0.2687 -0.7388  0.8936
 3419TIP3   OH210220   1.709   6.728   1.871  0.0358  0.4789 -0.5203
 3419TIP3    H110221   1.743   6.799   1.817  0.6546  1.5060  1.1484
 3419TIP3    H210222   1.786   6.686   1.909 -0.3561 -0.6368 -0.8922
 3420TIP3   OH210223   6.326   4.410   1.942  0.1246 -0.1124 -0.0778
 3420TIP3    H110224   6.363   4.494   1.913 -0.6867 -0.3697 -2.0137
 3420TIP3    H210225   6.396   4.347   1.925  0.5388  0.0835  0.8673
 3421TIP3   OH210226   0.914   1.037   1.994  0.9451 -0.5849 -0.7590
 3421TIP3    H110227   0.963   1.116   2.017 -0.9311  0.7321 -1.0400
 3421TIP3    H210228   0.823   1.067   1.983 -0.3242 -3.1492  1.4226
 3422TIP3   OH210229   1.101   2.550   1.570 -0.5164 -0.2105  0.0323
 3422TIP3    H110230   1.022   2.572   1.520  0.5414  0.5082 -1.4305
 3422TIP3    H210231   1.113   2.623   1.629  0.0218  0.5895 -1.0286
 3423TIP3   OH210232   1.361   1.245   1.411 -0.7834 -0.4425 -0.9221
 3423TIP3    H110233   1.271   1.252   1.444 -0.3101  0.0975  0.3415
 3423TIP3    H210234   1.403   1.180   1.468 -0.2097 -0.2190 -1.0804
 3424TIP3   OH210235   0.027   6.733   1.639 -0.0997 -0.7049  0.3068
 3424TIP3    H110236   0.096   6.776   1.691  0.4026 -0.5713 -0.4523
 3424TIP3    H210237  -0.030   6.805   1.612  0.6751 -0.4970 -0.8638
 3425TIP3   OH210238   6.685   3.031   5.125 -0.6860 -0.5675 -0.1217
 3425TIP3    H110239   6.727   3.019   5.040 -0.1773 -0.2073  0.0749
 3425TIP3    H210240   6.604   3.079   5.106  0.3048  1.1555 -0.2273
 3426TIP3   OH210241   6.101   4.059   3.152 -0.1254 -0.1148  0.1950
 3426TIP3    H110242   6.027   4.097   3.105 -0.7823  1.6237  2.4608
 3426TIP3    H210243   6.170   4.124   3.146  0.6078 -0.9281 -0.3612
 3427TIP3   OH210244   2.941   5.098   0.095 -0.3145  0.2401  0.0416
 3427TIP3    H110245   2.991   5.073   0.173 -0.2337  0.5232  0.0807
 3427TIP3    H210246   3.001   5.082   0.022 -0.7442 -1.0235 -0.0622
 3428TIP3   OH210247   4.246   4.860   3.806  0.1017  0.2823  0.0120
 3428TIP3    H110248   4.334   4.891   3.786  0.3677  0.0167  0.7216
 3428TIP3    H210249   4.257   4.806   3.885 -0.6575  0.0518 -0.0288
 3429TIP3   OH210250   0.505   0.829   3.315  0.2142  0.5073  0.1590
 3429TIP3    H110251   0.494   0.736   3.293 -0.1939  0.4520  0.5675
 3429TIP3    H210252   0.592   0.851   3.284  0.5057 -0.1417  0.4817
 3430TIP3   OH210253   4.785   1.900   2.242  0.6434 -0.3411  0.4927
 3430TIP3    H110254   4.855   1.891   2.178  1.7546  1.7140  1.3181
 3430TIP3    H210255   4.763   1.993   2.239 -1.4619 -0.7825  0.8974
 3431TIP3   OH210256   0.414   1.614   2.914  0.4107 -0.3068 -0.0576
 3431TIP3    H110257   0.341   1.551   2.914  0.4866 -0.3956 -0.2309
 3431TIP3    H210258   0.372   1.699   2.919  0.3511 -0.4069  2.6787
 3432TIP3   OH210259   0.378   3.854   0.113 -0.1113  0.0697 -0.4864
 3432TIP3    H110260   0.473   3.842   0.109 -0.2913 -2.2320  0.3807
 3432TIP3    H210261   0.343   3.777   0.067 -1.6189  2.3418 -3.5012
 3433TIP3   OH210262   3.242   3.024   4.830  0.2414 -0.2425  0.2812
 3433TIP3    H110263   3.324   3.069   4.811 -0.5177  0.7526 -0.7428
 3433TIP3    H210264   3.242   3.013   4.925  0.6125  1.6296  0.5249
 3434TIP3   OH210265   6.275   5.043   3.683  0.4043 -0.2206 -0.4012
 3434TIP3    H110266   6.281   4.993   3.764 -0.1425 -0.8469 -0.7469
 3434TIP3    H210267   6.345   5.007   3.627  0.1043 -0.4986 -0.5964
 3435TIP3   OH210268   4.989   3.945   2.782 -0.1647  0.2493 -0.1082
 3435TIP3    H110269   5.066   3.986   2.743 -0.2210  0.5570  0.0917
 3435TIP3    H210270   5.024   3.878   2.840 -0.0833 -0.2236 -0.7003
 3436TIP3   OH210271   3.555   1.836   5.818 -0.3525 -0.1378  1.0811
 3436TIP3    H110272   3.572   1.768   5.753  0.0929  0.3569  0.6763
 3436TIP3    H210273   3.594   1.803   5.898  1.4548  0.4082  0.4730
 3437TIP3   OH210274   6.241   6.348   2.821  0.3579 -0.2736 -0.8371
 3437TIP3    H110275   6.275   6.395   2.897  0.1966 -1.1194 -0.2227
 3437TIP3    H210276   6.208   6.416   2.763  1.4179  0.4536 -0.6247
 3438TIP3   OH210277   4.176   0.442   4.187  0.9135 -0.4910 -0.1323
 3438TIP3    H110278   4.084   0.458   4.208  1.2693  0.8787  0.5178
 3438TIP3    H210279   4.174   0.406   4.098 -0.1192  3.0596 -1.7578
 3439TIP3   OH210280   5.039   5.615   2.694  0.1392  0.0714 -0.2039
 3439TIP3    H110281   4.964   5.592   2.749  1.3928  0.0966  1.5929
 3439TIP3    H210282   5.041   5.546   2.627 -0.2865 -1.1141  0.9500
 3440TIP3   OH210283   6.930   1.999   4.998 -0.0877 -0.5345 -0.2011
 3440TIP3    H110284   6.868   1.940   5.042 -0.5492 -1.0937 -1.5677
 3440TIP3    H210285   7.012   1.987   5.047 -1.0617  0.3510  1.7415
 3441TIP3   OH210286   1.968   1.009   5.314 -0.1911  0.0900 -0.0676
 3441TIP3    H110287   2.030   1.078   5.290  0.8843 -0.7029  0.3719
 3441TIP3    H210288   2.018   0.928   5.305 -0.6348 -0.4594  1.9423
 3442TIP3   OH210289   3.158   6.335   2.947  0.2827 -0.0020  0.2118
 3442TIP3    H110290   3.090   6.336   2.880 -1.2322  3.1683  1.5684
 3442TIP3    H210291   3.130   6.267   3.008  0.1118 -0.9418 -0.8869
 3443TIP3   OH210292   1.571   3.993   2.758 -0.2885  0.4524 -0.0448
 3443TIP3    H110293   1.516   4.036   2.824  0.4787 -0.8396  1.5095
 3443TIP3    H210294   1.597   4.064   2.699 -1.3179  1.5900  0.8047
 3444TIP3   OH210295   1.677   0.874   3.437  0.4664  0.6480 -0.3699
 3444TIP3    H110296   1.690   0.786   3.473  1.8122  0.4297 -1.3032
 3444TIP3    H210297   1.684   0.932   3.513 -1.4280 -0.0735  0.4239
 3445TIP3   OH210298   0.795   4.021   3.707 -0.3527  0.6621 -0.3267
 3445TIP3    H110299   0.874   4.067   3.679 -0.0257  0.5105  0.3256
 3445TIP3    H210300   0.725   4.085   3.697 -0.0080  1.0869 -0.0914
 3446TIP3   OH210301   6.810   5.066   4.909 -0.1921 -0.2713  0.4679
 3446TIP3    H110302   6.814   5.069   4.813  1.1198 -0.9525  0.4704
 3446TIP3    H210303   6.848   5.150   4.936  1.1633 -0.8311  0.3788
 3447TIP3   OH210304   4.322   2.545   4.716  0.1221 -0.2686  0.0279
 3447TIP3    H110305   4.316   2.584   4.629  1.9977  0.6835  0.2616
 3447TIP3    H210306   4.328   2.620   4.776  0.5680 -0.8983  0.8011
 3448TIP3   OH210307   0.137   2.823   5.268  0.6458  0.0274 -0.0490
 3448TIP3    H110308   0.193   2.901   5.260 -0.3662  0.8685  0.8032
 3448TIP3    H210309   0.151   2.792   5.357  1.8473 -1.4331 -0.7102
 3449TIP3   OH210310   2.493   3.739   2.392 -0.8405 -0.0592 -0.1632
 3449TIP3    H110311   2.501   3.799   2.318 -0.9228  1.5172  1.0444
 3449TIP3    H210312   2.575   3.689   2.391  0.3538  1.7709  0.1800
 3450TIP3   OH210313   4.670   4.907   5.287 -0.2197 -0.0418  0.4321
 3450TIP3    H110314   4.687   5.001   5.278 -1.2632  0.2010  0.7971
 3450TIP3    H210315   4.747   4.865   5.249  0.0249  0.9586 -0.2376
 3451TIP3   OH210316   4.285   4.039   2.879  0.0925 -0.0055 -0.0054
 3451TIP3    H110317   4.243   4.020   2.962  0.1111  0.1024  0.0295
 3451TIP3    H210318   4.355   3.974   2.871  0.8362  0.6923  0.6071
 3452TIP3   OH210319   4.941   6.711   5.436 -0.4980  0.4355 -0.2913
 3452TIP3    H110320   4.900   6.684   5.518  0.0028  1.7601  0.4119
 3452TIP3    H210321   5.010   6.646   5.421  0.4110  1.0152  1.1475
 3453TIP3   OH210322   5.711   1.332   0.117 -0.7262 -0.2683 -0.5619
 3453TIP3    H110323   5.776   1.312   0.185 -1.8373 -2.0216  0.0550
 3453TIP3    H210324   5.763   1.349   0.038  0.5050 -0.4453  0.1848
 3454TIP3   OH210325   6.558   4.379   0.635 -0.5398  0.4334 -0.1217
 3454TIP3    H110326   6.500   4.310   0.666 -0.0792  0.1524  0.1283
 3454TIP3    H210327   6.553   4.447   0.702 -1.5194  0.9527 -0.6992
 3455TIP3   OH210328   0.035   1.764   2.026 -0.4860  0.1644  0.4010
 3455TIP3    H110329   0.006   1.801   1.943 -0.1854  1.0782  0.6930
 3455TIP3    H210330   0.077   1.837   2.072 -0.7482 -0.2950  1.4040
 3456TIP3   OH210331   0.362   2.912   4.974  0.2880 -0.2329 -0.1006
 3456TIP3    H110332   0.418   2.988   4.987 -0.1185 -0.1801  1.4629
 3456TIP3    H210333   0.344   2.912   4.879  1.8186  0.5011 -0.4139
 3457TIP3   OH210334   4.366   0.084   0.335 -0.1486  0.0859 -0.2358
 3457TIP3    H110335   4.357   0.172   0.299  3.8184  0.5630 -0.4466
 3457TIP3    H210336   4.426   0.094   0.408  0.2262 -2.4381 -0.1175
 3458TIP3   OH210337   4.035   5.645   4.436  1.0109 -0.0442  0.4351
 3458TIP3    H110338   4.005   5.704   4.367  0.6334 -0.6755  0.0416
 3458TIP3    H210339   4.064   5.702   4.507  0.7236  0.6041  0.0353
 3459TIP3   OH210340   0.228   4.642   5.688  0.8533 -0.0418  0.0463
 3459TIP3    H110341   0.210   4.730   5.721  0.7766  0.4245 -1.1844
 3459TIP3    H210342   0.150   4.591   5.710  0.4124  0.4993 -0.2578
 3460TIP3   OH210343   0.611   1.562   2.731 -0.0922  0.1483  0.0460
 3460TIP3    H110344   0.539   1.584   2.789 -0.5976  1.2848 -0.9818
 3460TIP3    H210345   0.630   1.470   2.751 -1.0643  0.1558  1.1166
 3461TIP3   OH210346   6.552   4.993   3.871 -0.1626  0.2731 -0.7516
 3461TIP3    H110347   6.535   4.915   3.818 -3.3360  0.5754 -0.3925
 3461TIP3    H210348   6.577   5.060   3.807  1.4231 -0.6746 -1.1891
 3462TIP3   OH210349   1.034   0.660   0.769  0.0813 -0.3281  0.4584
 3462TIP3    H110350   0.978   0.624   0.838 -0.6392 -1.0276 -0.4673
 3462TIP3    H210351   0.993   0.631   0.688 -0.6446  2.6506 -0.3817
 3463TIP3   OH210352   4.340   2.740   4.254 -0.0415  0.1189 -0.1063
 3463TIP3    H110353   4.281   2.749   4.179  0.5682 -0.8543 -0.7259
 3463TIP3    H210354   4.402   2.673   4.227  0.8745  0.5637  0.8488
 3464TIP3   OH210355   0.007   3.448   4.806 -0.2986  0.0011  0.1919
 3464TIP3    H110356  -0.033   3.375   4.854 -2.4192  1.3055  0.5536
 3464TIP3    H210357   0.092   3.460   4.848 -1.1304 -0.3950  2.1285
 3465TIP3   OH210358   1.103   3.254   1.092  0.5737  0.4356 -0.3161
 3465TIP3    H110359   1.050   3.183   1.127  0.0825  1.6786  1.5472
 3465TIP3    H210360   1.040   3.316   1.056  1.0270 -0.3159 -2.5803
 3466TIP3   OH210361   0.534   2.375   1.700 -0.3559 -0.1306  0.9979
 3466TIP3    H110362   0.504   2.380   1.791 -0.1845 -1.0101  1.1116
 3466TIP3    H210363   0.507   2.288   1.671  2.2698 -1.0639  1.1609
 3467TIP3   OH210364   2.357   4.596   2.907  0.0556  0.2884 -0.6180
 3467TIP3    H110365   2.333   4.555   2.990  2.7884  0.2918  0.2481
 3467TIP3    H210366   2.358   4.524   2.844  0.6762 -0.2308 -0.0263
 3468TIP3   OH210367   1.032   1.644   4.035 -0.2038 -0.0936 -0.2734
 3468TIP3    H110368   1.094   1.628   4.107 -1.6238  1.4940  1.4155
 3468TIP3    H210369   1.081   1.698   3.973  0.2013  0.9698  0.9304
 3469TIP3   OH210370   0.507  -0.019   4.845  0.4756  0.0841  0.2946
 3469TIP3    H110371   0.588  -0.031   4.894  1.1850 -0.8628 -1.0352
 3469TIP3    H210372   0.510   0.071   4.815  1.8797 -0.3968 -1.1348
 3470TIP3   OH210373   4.788   4.082   5.844  0.4931 -0.4383 -0.4992
 3470TIP3    H110374   4.774   4.169   5.881  0.9019 -0.3286 -0.5989
 3470TIP3    H210375   4.798   4.096   5.750 -0.2914 -0.6904 -0.6272
 3471TIP3   OH210376   2.504   1.404   5.408 -0.2196 -0.4671  0.3114
 3471TIP3    H110377   2.464   1.487   5.435  1.9771  1.0636 -0.8321
 3471TIP3    H210378   2.496   1.404   5.313  1.2474 -0.7526  0.1710
 3472TIP3   OH210379   6.778   3.409   2.960 -0.0568  0.1537  0.2925
 3472TIP3    H110380   6.702   3.466   2.953  1.2000  1.9819  0.9814
 3472TIP3    H210381   6.758   3.354   3.036 -0.2698  1.3148  1.1053
 3473TIP3   OH210382   6.573   5.979   3.973 -0.6442  0.4403 -0.1194
 3473TIP3    H110383   6.585   6.038   4.047 -0.7102  0.3331 -0.0216
 3473TIP3    H210384   6.580   6.035   3.896  0.2230  0.4260 -0.0652
 3474TIP3   OH210385   3.706   1.271   3.364  0.3520 -0.2340  0.1295
 3474TIP3    H110386   3.776   1.224   3.319  0.2308 -0.6788  0.4026
 3474TIP3    H210387   3.675   1.210   3.431 -0.5778 -0.2087 -0.2537
 3475TIP3   OH210388   6.036   2.578   4.158  0.0496 -0.2393 -0.0128
 3475TIP3    H110389   6.099   2.517   4.120 -0.1991  0.8940 -2.4340
 3475TIP3    H210390   5.960   2.525   4.179  1.2729 -1.4153  1.8415
 3476TIP3   OH210391   5.503   1.611   5.698  0.1083 -0.4303  0.1068
 3476TIP3    H110392   5.536   1.679   5.755 -1.1062  0.8436 -0.6399
 3476TIP3    H210393   5.574   1.595   5.636  0.0651  0.8895 -0.3173
 3477TIP3   OH210394   0.374   0.988   3.834 -0.0289  0.3463 -0.6672
 3477TIP3    H110395   0.360   1.077   3.802  0.1311  0.2894 -0.8997
 3477TIP3    H210396   0.299   0.970   3.891 -0.0322  0.6494 -0.5759
 3478TIP3   OH210397   2.212   4.583   3.756 -0.5734  0.0760 -0.1751
 3478TIP3    H110398   2.222   4.657   3.815  0.7429  0.0741 -0.3589
 3478TIP3    H210399   2.289   4.587   3.699 -1.6998 -0.0254 -1.7835
 3479TIP3   OH210400   0.937   6.321   1.062  0.5723 -0.1727  0.2554
 3479TIP3    H110401   1.003   6.294   0.998  1.6963  0.8745  0.9226
 3479TIP3    H210402   0.914   6.241   1.108  1.4809 -0.5399  0.0861
 3480TIP3   OH210403   4.694   1.099   5.475  0.2369 -0.1068  0.0023
 3480TIP3    H110404   4.674   1.008   5.456  0.6968 -1.0050  3.1617
 3480TIP3    H210405   4.751   1.127   5.403  1.0803 -2.6944 -0.4495
 3481TIP3   OH210406   5.054   4.200   0.698 -0.0990  0.3391 -0.4303
 3481TIP3    H110407   5.116   4.266   0.727  1.1415  0.1013 -2.3560
 3481TIP3    H210408   5.107   4.136   0.651 -1.5321 -0.9948 -0.2994
 3482TIP3   OH210409   0.863   2.660   4.049  0.0119  0.6246  0.6515
 3482TIP3    H110410   0.906   2.636   4.131  1.0056  0.6137  0.1428
 3482TIP3    H210411   0.934   2.663   3.985 -0.5004  2.2596  0.1247
 3483TIP3   OH210412   1.147   1.731   1.647 -0.1122 -0.6727  0.0343
 3483TIP3    H110413   1.058   1.730   1.680 -1.1308 -2.8676 -2.4465
 3483TIP3    H210414   1.202   1.726   1.726 -2.1415  0.1643  1.5771
 3484TIP3   OH210415   2.086   5.229   1.484  0.1964 -0.2920 -0.0120
 3484TIP3    H110416   2.007   5.189   1.448  0.1020  0.4689 -0.6808
 3484TIP3    H210417   2.140   5.155   1.512 -0.4632 -0.8398 -0.1591
 3485TIP3   OH210418   5.146   5.502   4.941  0.0378 -0.4966  0.4122
 3485TIP3    H110419   5.222   5.497   5.000  1.0912  0.4073 -0.8227
 3485TIP3    H210420   5.132   5.596   4.928 -1.4972 -0.6294  0.8257
 3486TIP3   OH210421   6.670   0.772   0.865  0.9547  0.4476  0.2654
 3486TIP3    H110422   6.601   0.832   0.891 -0.4074 -0.8802 -0.1584
 3486TIP3    H210423   6.712   0.746   0.947 -2.0753 -2.2523  1.1883
 3487TIP3   OH210424   2.832   3.610   2.358  0.2694  0.0224 -0.2022
 3487TIP3    H110425   2.880   3.570   2.430  1.6897  1.5322 -0.2692
 3487TIP3    H210426   2.842   3.705   2.372 -2.0647  0.3966 -0.6518
 3488TIP3   OH210427   1.088   5.895   0.770  0.5577 -0.3348  0.5010
 3488TIP3    H110428   1.036   5.954   0.825  1.8231  1.4844 -0.1761
 3488TIP3    H210429   1.030   5.873   0.698 -0.5785 -1.4878  1.7141
 3489TIP3   OH210430   4.229   2.174   3.087  0.1093 -0.3836  0.5407
 3489TIP3    H110431   4.287   2.134   3.022 -1.0273  0.2092 -0.8803
 3489TIP3    H210432   4.141   2.147   3.060 -0.3861 -0.1202  1.8505
 3490TIP3   OH210433   3.522   5.204   4.854  0.3698  1.4067 -0.2067
 3490TIP3    H110434   3.566   5.219   4.937 -0.1299 -0.8784  0.5403
 3490TIP3    H210435   3.469   5.125   4.868  1.1068  0.2893 -2.9650
 3491TIP3   OH210436   1.037   0.531   2.047 -0.1868  0.0780 -0.6737
 3491TIP3    H110437   1.052   0.513   1.954  1.9155 -2.3132  0.0099
 3491TIP3    H210438   1.124   0.528   2.086 -1.0888  0.3479  1.5080
 3492TIP3   OH210439   3.853   0.123   2.940 -0.3944  0.5025 -0.2873
 3492TIP3    H110440   3.868   0.141   2.847 -0.4300  1.3808 -0.1284
 3492TIP3    H210441   3.759   0.105   2.946 -0.2718 -0.2624 -0.5251
 3493TIP3   OH210442   0.345   3.808   3.743 -0.1683 -0.1608  0.5281
 3493TIP3    H110443   0.395   3.842   3.818  0.1939  1.7203 -0.4841
 3493TIP3    H210444   0.339   3.714   3.759 -0.0085  0.1493  2.8462
 3494TIP3   OH210445   3.975   0.668   3.180  0.3073  0.0382 -0.2689
 3494TIP3    H110446   3.917   0.739   3.206  0.4613 -0.6634  2.2200
 3494TIP3    H210447   4.061   0.708   3.173  0.4454  0.0809  1.4134
 3495TIP3   OH210448   4.501   5.123   5.526 -0.0151 -0.2868  0.0870
 3495TIP3    H110449   4.481   5.073   5.605 -0.0989 -0.3147  0.0480
 3495TIP3    H210450   4.593   5.102   5.508 -0.0737 -0.4965  0.0218
 3496TIP3   OH210451   1.105   4.064   2.390  0.3659  0.1984  0.3597
 3496TIP3    H110452   1.198   4.071   2.369  0.2739  0.8896  0.1612
 3496TIP3    H210453   1.060   4.075   2.307  0.1071 -0.2921  0.4309
 3497TIP3   OH210454   6.284   5.860   2.517 -0.1415 -0.2223 -0.2772
 3497TIP3    H110455   6.213   5.833   2.575  1.3470 -1.9198  0.8146
 3497TIP3    H210456   6.284   5.956   2.523 -3.0069 -0.0623 -1.1828
 3498TIP3   OH210457   2.177   5.310   4.338 -0.0007  0.3192  0.0890
 3498TIP3    H110458   2.185   5.406   4.338  0.1259  0.3517 -1.6639
 3498TIP3    H210459   2.236   5.281   4.407 -0.9993  1.5520  1.5172
 3499TIP3   OH210460   5.570   3.198   0.866 -0.1936 -0.8013  0.1600
 3499TIP3    H110461   5.489   3.159   0.900 -0.6207  0.6442  0.8687
 3499TIP3    H210462   5.625   3.123   0.844 -1.5335 -1.8136  0.1072
 3500TIP3   OH210463   0.863   5.296   1.314 -0.3375  0.0535 -0.3139
 3500TIP3    H110464   0.949   5.260   1.289 -0.3484 -1.1749  1.2518
 3500TIP3    H210465   0.804   5.263   1.246 -0.1970 -2.3450  0.6074
 3501TIP3   OH210466   1.967   6.093   2.439 -0.2377  1.0437  0.0575
 3501TIP3    H110467   2.012   6.015   2.473 -1.3152  0.9166  1.2517
 3501TIP3    H210468   2.005   6.166   2.488 -0.2250  1.1177 -0.0607
 3502TIP3   OH210469   0.276   4.687   4.721 -0.0518 -0.1264  0.1695
 3502TIP3    H110470   0.362   4.653   4.696 -0.3519  0.3338 -1.5927
 3502TIP3    H210471   0.241   4.726   4.641 -2.2284 -0.9555  0.6474
 3503TIP3   OH210472   2.887   3.514   5.085 -0.5623  0.6639  0.0959
 3503TIP3    H110473   2.929   3.477   5.163 -0.0715  0.3381 -0.3178
 3503TIP3    H210474   2.819   3.451   5.062 -0.1983  0.3723 -0.1890
 3504TIP3   OH210475   2.482   3.382   4.471  0.1443  0.0858  0.3772
 3504TIP3    H110476   2.390   3.382   4.443 -0.4238 -1.1507  2.0830
 3504TIP3    H210477   2.502   3.474   4.488 -0.5751  0.4347 -0.5621
 3505TIP3   OH210478   5.942   0.481   2.154 -0.0910 -0.4243 -0.5470
 3505TIP3    H110479   5.919   0.556   2.099  0.4011  2.0345  2.3054
 3505TIP3    H210480   5.884   0.489   2.230 -0.3435 -3.2887 -0.3311
 3506TIP3   OH210481   1.338   3.260   0.905 -0.1683  0.1108 -0.4162
 3506TIP3    H110482   1.286   3.320   0.851 -0.7490 -1.2879 -1.4602
 3506TIP3    H210483   1.287   3.253   0.986  0.3603  1.6862  0.0951
 3507TIP3   OH210484   0.220   1.363   2.222 -0.2152 -0.4382  0.0428
 3507TIP3    H110485   0.218   1.306   2.299  0.9663  0.6538  0.9164
 3507TIP3    H210486   0.312   1.383   2.209 -0.6405  1.9816  0.3175
 3508TIP3   OH210487   3.618   2.771   1.735  0.8216  0.1674 -0.6099
 3508TIP3    H110488   3.643   2.817   1.815 -1.1146  0.8692 -0.3625
 3508TIP3    H210489   3.651   2.682   1.746  2.1103  0.7118  0.1692
 3509TIP3   OH210490   5.258   5.962   2.137  0.0906  0.1671 -0.4386
 3509TIP3    H110491   5.195   5.963   2.065 -1.6896 -1.7381  0.9670
 3509TIP3    H210492   5.269   5.869   2.159  2.5854  0.4974  0.1187
 3510TIP3   OH210493   1.603   1.361   0.971 -0.6055  0.2373 -0.2777
 3510TIP3    H110494   1.647   1.277   0.960  2.0856  0.8504  3.6069
 3510TIP3    H210495   1.673   1.426   0.966 -1.7250  1.7280  1.7642
 3511TIP3   OH210496   5.480   1.104   5.439 -0.5137  0.0620  1.0781
 3511TIP3    H110497   5.401   1.154   5.420 -0.1733  0.3987  0.5363
 3511TIP3    H210498   5.546   1.169   5.460  1.0957  0.2768 -3.5807
 3512TIP3   OH210499   2.063   6.458   2.466 -0.4182 -0.1332  0.6424
 3512TIP3    H110500   2.130   6.496   2.523  1.1521 -0.1209 -1.1186
 3512TIP3    H210501   1.990   6.438   2.525 -0.5917  3.7520  1.9936
 3513TIP3   OH210502   6.009   6.332   3.654 -0.1441 -0.0000 -0.4929
 3513TIP3    H110503   5.925   6.368   3.681 -0.0519  0.6516 -1.0358
 3513TIP3    H210504   5.999   6.237   3.662 -0.1567  0.1399  1.6928
 3514TIP3   OH210505   5.156   3.275   1.833 -0.0852 -0.2802 -0.4664
 3514TIP3    H110506   5.063   3.292   1.819 -0.0683  0.6632  0.4690
 3514TIP3    H210507   5.159   3.191   1.879 -0.5300  0.1445  0.3507
 3515TIP3   OH210508   7.205   0.820   3.092  0.6825 -0.1680  0.4479
 3515TIP3    H110509   7.260   0.870   3.032  0.7918 -0.5993  0.1821
 3515TIP3    H210510   7.165   0.753   3.037  0.4170 -0.2730  0.7706
 3516TIP3   OH210511   1.300   0.387   3.421  0.1687 -0.1954 -0.3622
 3516TIP3    H110512   1.378   0.409   3.371  0.3990 -0.0530  0.0536
 3516TIP3    H210513   1.263   0.471   3.448  0.1389 -0.2729 -0.1544
 3517TIP3   OH210514   1.545   4.516   3.280 -0.0591 -0.1698 -0.1559
 3517TIP3    H110515   1.598   4.444   3.245  2.2282  1.5075 -0.3003
 3517TIP3    H210516   1.491   4.543   3.206 -1.2203 -1.8947 -0.0080
 3518TIP3   OH210517   3.102   1.688   0.770 -0.5169  0.4657  0.0043
 3518TIP3    H110518   3.148   1.720   0.692  0.6941  0.6423  0.7677
 3518TIP3    H210519   3.095   1.594   0.756 -0.3115  0.4974 -0.3289
 3519TIP3   OH210520   4.812   1.013   4.101  0.6931 -0.3582  0.1296
 3519TIP3    H110521   4.755   0.946   4.063  2.6891 -3.5958  2.2606
 3519TIP3    H210522   4.753   1.083   4.127 -1.8595 -2.1027 -0.5437
 3520TIP3   OH210523   6.269   3.435   3.156 -0.9768 -0.0846  0.6103
 3520TIP3    H110524   6.233   3.513   3.199  0.7339  0.3137  1.3941
 3520TIP3    H210525   6.306   3.383   3.227 -0.2530 -0.6018 -0.1183
 3521TIP3   OH210526   4.440   1.667   5.862 -0.0231 -0.3081  0.0768
 3521TIP3    H110527   4.383   1.715   5.802 -1.9981  0.1872  2.1822
 3521TIP3    H210528   4.483   1.735   5.915 -1.2437 -0.7215  1.6893
 3522TIP3   OH210529   2.824   3.270   2.993  0.0556  0.0197  0.1699
 3522TIP3    H110530   2.912   3.240   3.014  0.5318  1.8354  1.0137
 3522TIP3    H210531   2.777   3.267   3.076 -1.1440 -2.1814 -0.5077
 3523TIP3   OH210532   5.056   1.625   0.334 -0.5009  0.7563 -0.3019
 3523TIP3    H110533   4.995   1.613   0.407  0.8252  0.9123  0.8729
 3523TIP3    H210534   5.095   1.538   0.322  0.8230  1.1834  0.6297
 3524TIP3   OH210535   6.046   1.374   1.650 -0.2130 -0.1021  1.0320
 3524TIP3    H110536   6.116   1.422   1.606 -0.3119  1.1244  2.1482
 3524TIP3    H210537   5.966   1.404   1.607 -0.2971  0.9926  1.9020
 3525TIP3   OH210538   6.070   4.475   2.040 -0.1007 -0.2656 -0.1392
 3525TIP3    H110539   6.160   4.458   2.011 -0.1374  0.1169 -0.4806
 3525TIP3    H210540   6.044   4.394   2.085  0.2678 -0.5330 -0.4000
 3526TIP3   OH210541   7.154   1.974   0.612  0.3195  0.4803  0.0505
 3526TIP3    H110542   7.221   2.036   0.640 -0.1824  1.9191 -1.7214
 3526TIP3    H210543   7.178   1.952   0.522  0.4027 -1.8679  0.5831
 3527TIP3   OH210544   4.959   2.674   5.456 -0.1785  0.2137 -0.7360
 3527TIP3    H110545   5.013   2.753   5.467 -0.3219  0.3541 -1.0376
 3527TIP3    H210546   5.022   2.602   5.463 -0.0722  0.3412 -0.2692
 3528TIP3   OH210547   4.634   4.389   3.199  0.0111 -0.0847  0.4263
 3528TIP3    H110548   4.558   4.416   3.251  0.6943  0.5047  1.1465
 3528TIP3    H210549   4.617   4.297   3.178 -2.1447  0.7100 -1.6661
 3529TIP3   OH210550   4.785   6.603   3.049 -0.2582  0.4153  0.5187
 3529TIP3    H110551   4.691   6.608   3.065 -0.2276 -0.3228  0.9760
 3529TIP3    H210552   4.801   6.511   3.027  0.6892 -0.0580  2.8760
 3530TIP3   OH210553   2.846   2.832   0.322  0.1517 -0.4655 -0.3037
 3530TIP3    H110554   2.782   2.857   0.389  0.7973 -0.9353  0.5062
 3530TIP3    H210555   2.828   2.740   0.303  2.3684 -1.5176  2.0764
 3531TIP3   OH210556   5.429   3.004   2.897 -0.0021 -0.2347  0.1048
 3531TIP3    H110557   5.497   3.018   2.962  1.3104  1.0247 -1.4634
 3531TIP3    H210558   5.347   3.024   2.943  0.6830 -1.2085  1.8488
 3532TIP3   OH210559   2.898   4.066   1.723  0.5518  0.2071 -0.1290
 3532TIP3    H110560   2.926   4.158   1.727  1.2218  0.0116 -0.2441
 3532TIP3    H210561   2.860   4.057   1.636 -0.0049  0.5116  0.0782
 3533TIP3   OH210562   4.650   0.701   4.309 -0.1511 -0.8341 -0.2532
 3533TIP3    H110563   4.588   0.680   4.379  0.8912 -0.4524  0.8149
 3533TIP3    H210564   4.709   0.625   4.307 -0.4748 -1.0720 -1.0755
 3534TIP3   OH210565   0.336   2.595   3.824 -0.2150  0.1192 -0.7585
 3534TIP3    H110566   0.322   2.543   3.745 -0.8505 -0.1866 -0.4529
 3534TIP3    H210567   0.424   2.570   3.854 -0.2414 -0.2657 -0.9940
 3535TIP3   OH210568   0.892   3.520   2.012  0.0526  0.1055 -0.5896
 3535TIP3    H110569   0.974   3.519   1.962  0.2847  1.1548 -0.2442
 3535TIP3    H210570   0.919   3.523   2.103 -0.3793 -0.0579 -0.4539
 3536TIP3   OH210571   2.286   5.221   4.566  0.3316 -0.0463 -0.1731
 3536TIP3    H110572   2.313   5.146   4.512  1.5324 -0.2913  0.7202
 3536TIP3    H210573   2.345   5.219   4.641 -0.3783  1.1284  0.4478
 3537TIP3   OH210574   1.964   0.926   0.305 -0.2194  0.1709 -0.0202
 3537TIP3    H110575   1.941   1.002   0.253 -0.7388 -0.3009 -0.4942
 3537TIP3    H210576   2.042   0.890   0.262  0.7068  1.0581  0.8590
 3538TIP3   OH210577   3.734   6.366   0.534  0.2234  0.2275 -0.4782
 3538TIP3    H110578   3.711   6.383   0.626  0.8935  1.7903 -0.5747
 3538TIP3    H210579   3.650   6.350   0.491 -0.1369 -0.0343  0.2968
 3539TIP3   OH210580   2.073   1.196   0.797 -0.0330  0.6613 -0.7257
 3539TIP3    H110581   2.072   1.264   0.865 -0.2860 -0.6948  0.6930
 3539TIP3    H210582   1.981   1.181   0.777  0.0475  1.1841 -1.5316
 3540TIP3   OH210583   0.653   1.932   1.501  0.5341 -0.1529 -0.6194
 3540TIP3    H110584   0.636   1.863   1.565 -1.4313 -0.0824 -1.0021
 3540TIP3    H210585   0.738   1.968   1.526  1.4559 -2.4588 -0.2050
 3541TIP3   OH210586   3.646   6.613   5.826 -0.0678 -0.0680  0.2656
 3541TIP3    H110587   3.635   6.556   5.750 -2.4244 -1.9669  1.8715
 3541TIP3    H210588   3.618   6.699   5.796 -1.6448 -0.9304 -0.8858
 3542TIP3   OH210589   4.478   2.425   3.890  0.0368 -0.1789  0.2290
 3542TIP3    H110590   4.491   2.502   3.945  1.3128 -0.4097  0.2879
 3542TIP3    H210591   4.412   2.453   3.826  2.4400  1.9929 -1.5310
 3543TIP3   OH210592   3.433   3.029   4.434 -0.5509  0.0646  0.3527
 3543TIP3    H110593   3.428   3.117   4.397 -1.1491  0.5398  1.5075
 3543TIP3    H210594   3.491   3.038   4.510  1.1237 -1.0111 -0.7274
 3544TIP3   OH210595   3.106   6.603   4.204  0.0489  0.3514  0.2050
 3544TIP3    H110596   3.060   6.541   4.147 -2.4010  2.5729 -0.3907
 3544TIP3    H210597   3.069   6.586   4.291 -0.0767  0.4774  0.1763
 3545TIP3   OH210598   4.575   2.818   1.478 -0.1410  0.8159  0.1951
 3545TIP3    H110599   4.623   2.750   1.430  0.2493  1.5198 -0.4328
 3545TIP3    H210600   4.636   2.892   1.482 -0.4456  1.0339  1.1387
 3546TIP3   OH210601   5.527   4.233   4.736  0.0323 -0.5819 -0.3873
 3546TIP3    H110602   5.480   4.257   4.656 -0.0270  0.2135 -0.1296
 3546TIP3    H210603   5.464   4.248   4.806  0.4291 -0.2006 -0.1022
 3547TIP3   OH210604   4.822   5.478   0.056  0.5518  0.2154  0.2873
 3547TIP3    H110605   4.880   5.535   0.107  0.8923  0.8947 -0.8162
 3547TIP3    H210606   4.880   5.438  -0.009 -0.0644  0.2112 -0.2642
 3548TIP3   OH210607   2.712   0.643   5.432  0.2367 -0.1573  0.3401
 3548TIP3    H110608   2.631   0.597   5.454  0.7478 -1.8056 -0.9692
 3548TIP3    H210609   2.687   0.706   5.365 -0.0127 -0.4785  0.1312
 3549TIP3   OH210610   1.785   3.353   5.311  0.3943 -0.1474  0.4262
 3549TIP3    H110611   1.771   3.384   5.221 -1.0280  2.0407  1.3361
 3549TIP3    H210612   1.697   3.345   5.347  1.0015  1.1844  2.3103
 3550TIP3   OH210613   0.218   6.537   5.682  0.6253 -0.7067 -0.0502
 3550TIP3    H110614   0.299   6.530   5.733  0.0931  2.3101  1.4369
 3550TIP3    H210615   0.149   6.541   5.749 -0.1787  2.4874 -0.9368
 3551TIP3   OH210616   1.046   0.947   4.662  0.2005  0.1666  0.2627
 3551TIP3    H110617   1.132   0.906   4.649  0.2774 -0.2094  1.7946
 3551TIP3    H210618   0.995   0.881   4.710 -0.9136  0.4344 -0.5153
 3552TIP3   OH210619   2.170   4.465   0.252 -0.1534  0.0347  0.3286
 3552TIP3    H110620   2.213   4.451   0.168 -0.7690  0.8731 -0.1384
 3552TIP3    H210621   2.087   4.508   0.230  0.1798  1.3128  1.4305
 3553TIP3   OH210622   5.766   4.965   2.929  0.1306  0.5161  0.0438
 3553TIP3    H110623   5.745   4.949   2.837 -1.0942 -1.1636  0.5831
 3553TIP3    H210624   5.805   5.053   2.929  1.2710  0.0852 -2.2198
 3554TIP3   OH210625   0.810   6.377   2.473 -0.0519  0.3390 -0.9877
 3554TIP3    H110626   0.740   6.421   2.520 -0.2889  0.2853 -1.2844
 3554TIP3    H210627   0.891   6.412   2.511 -0.2015 -1.3010  0.9816
 3555TIP3   OH210628   7.118   1.264   4.433  0.7729 -0.2630  0.2080
 3555TIP3    H110629   7.143   1.256   4.341  3.1516  0.6211  0.6952
 3555TIP3    H210630   7.118   1.174   4.466  0.3942 -0.5417 -0.5462
 3556TIP3   OH210631   6.656   2.582   4.508  0.0707  0.0812 -0.2731
 3556TIP3    H110632   6.582   2.643   4.508  0.1868  0.2313  0.4143
 3556TIP3    H210633   6.730   2.634   4.538  0.5205  0.0011 -1.2330
 3557TIP3   OH210634   0.282   2.772   2.156  0.1266  0.1659  0.0682
 3557TIP3    H110635   0.261   2.751   2.065 -0.0072  1.4929 -0.2350
 3557TIP3    H210636   0.213   2.730   2.207  0.3309 -0.7803 -0.4220
 3558TIP3   OH210637   4.701   5.796   5.833  0.2695  1.0066 -0.5105
 3558TIP3    H110638   4.619   5.766   5.793  1.0302 -1.5693 -0.2911
 3558TIP3    H210639   4.685   5.790   5.927  1.1526 -1.0176 -0.4474
 3559TIP3   OH210640   5.168   1.718   1.433  0.0956 -0.0196 -0.5961
 3559TIP3    H110641   5.134   1.808   1.439 -0.1866 -0.1779  0.2560
 3559TIP3    H210642   5.102   1.671   1.382 -1.2898 -0.4553  1.5056
 3560TIP3   OH210643   4.521   2.888   0.350 -0.1603  0.1393  0.3509
 3560TIP3    H110644   4.507   2.795   0.368  0.3580  0.1566  0.8921
 3560TIP3    H210645   4.616   2.896   0.337 -0.2362  0.5415  0.0250
 3561TIP3   OH210646   2.192   3.594   5.260 -0.3487  0.0421 -0.8513
 3561TIP3    H110647   2.183   3.564   5.170  0.3844 -0.8074 -0.6528
 3561TIP3    H210648   2.286   3.590   5.278 -0.4700  0.3799 -0.1124
 3562TIP3   OH210649   5.657   3.484   0.863  0.9571  0.1047  0.0782
 3562TIP3    H110650   5.643   3.519   0.776  1.3938 -1.3453 -0.6092
 3562TIP3    H210651   5.619   3.395   0.860  1.8821 -0.3484  1.0437
 3563TIP3   OH210652   6.163   5.264   5.375 -0.1711 -0.3333 -0.8157
 3563TIP3    H110653   6.188   5.356   5.366  0.6545 -0.3656  0.7984
 3563TIP3    H210654   6.084   5.266   5.429 -1.9852 -0.4349 -3.2935
 3564TIP3   OH210655   3.965   0.229   1.979  0.4622 -0.0454  0.3964
 3564TIP3    H110656   3.914   0.168   1.926  1.0818  1.6671 -2.3969
 3564TIP3    H210657   3.980   0.183   2.061 -0.3565 -3.0143 -0.9774
 3565TIP3   OH210658   6.239   4.290   3.116 -0.1395  0.2647  0.0616
 3565TIP3    H110659   6.148   4.321   3.114 -0.3738 -0.3326  0.8282
 3565TIP3    H210660   6.262   4.277   3.024 -1.0215 -0.1187 -0.1179
 3566TIP3   OH210661   3.844   3.594   3.586 -0.0119  0.1227  0.7506
 3566TIP3    H110662   3.784   3.519   3.594  0.8255 -0.3653  3.2337
 3566TIP3    H210663   3.916   3.561   3.532 -0.5405 -0.2540  0.2631
 3567TIP3   OH210664   2.403   3.598   1.455 -0.5582  0.1696  0.2347
 3567TIP3    H110665   2.416   3.515   1.501 -1.4594 -0.1665 -0.0955
 3567TIP3    H210666   2.308   3.613   1.459 -0.4750  0.8700 -0.2423
 3568TIP3   OH210667   0.249   5.093   5.774 -0.3103 -0.7303 -0.0955
 3568TIP3    H110668   0.236   5.130   5.687 -0.0085 -0.9853 -0.2510
 3568TIP3    H210669   0.161   5.077   5.807 -0.4186 -1.0671 -0.5398
 3569TIP3   OH210670   6.801   6.659   1.895 -0.1663 -0.4513  0.3866
 3569TIP3    H110671   6.872   6.595   1.890 -0.6721 -0.9262 -1.3758
 3569TIP3    H210672   6.729   6.611   1.938 -0.1825 -0.7186  0.0648
 3570TIP3   OH210673   2.906   6.278   2.781 -0.8405  0.2483 -0.0723
 3570TIP3    H110674   2.835   6.247   2.725 -1.3789 -0.6395  1.0522
 3570TIP3    H210675   2.864   6.300   2.864  0.1162  0.2247  0.4411
 3571TIP3   OH210676   1.691   2.959   0.492  0.0439  0.3193 -0.5365
 3571TIP3    H110677   1.786   2.958   0.480  0.1815 -0.7098  0.5399
 3571TIP3    H210678   1.672   3.047   0.526  0.9441 -0.2498  1.5798
 3572TIP3   OH210679   2.267   3.054   5.021  0.0902 -0.2199  0.1696
 3572TIP3    H110680   2.228   3.090   5.101  1.0488  1.4886 -0.0892
 3572TIP3    H210681   2.248   2.960   5.025 -1.3351  0.0997  1.5541
 3573TIP3   OH210682   0.039   2.978   3.800 -0.3433 -0.0996 -0.0073
 3573TIP3    H110683   0.101   2.961   3.871 -0.6592 -0.8081  0.1009
 3573TIP3    H210684   0.075   2.931   3.724 -0.5772 -0.2381 -0.0324
 3574TIP3   OH210685   0.044   2.789   5.918  0.1366 -0.7509 -0.5301
 3574TIP3    H110686   0.011   2.748   5.838 -0.1524 -0.6809 -0.4457
 3574TIP3    H210687   0.100   2.861   5.887  0.1057 -0.7874 -0.6696
 3575TIP3   OH210688   4.206   5.420   1.386  0.2528  0.5569 -0.9712
 3575TIP3    H110689   4.213   5.433   1.292 -0.2910  1.0463 -0.9496
 3575TIP3    H210690   4.157   5.338   1.395  2.3338 -0.7717 -1.1003
 3576TIP3   OH210691   3.599   4.183   2.670 -0.0743  0.5184  0.2173
 3576TIP3    H110692   3.581   4.254   2.731 -0.7470  0.2487  0.3424
 3576TIP3    H210693   3.551   4.108   2.705  0.8457 -0.0794  0.2401
 3577TIP3   OH210694   4.876   4.319   1.401  0.0952 -0.3109  0.3155
 3577TIP3    H110695   4.937   4.390   1.419  0.9331 -0.8694 -0.2762
 3577TIP3    H210696   4.849   4.333   1.310 -2.2096  1.0653  1.1142
 3578TIP3   OH210697   0.879   1.956   0.036 -0.4684  0.0769  0.3074
 3578TIP3    H110698   0.911   1.868   0.059 -0.0329  0.4926  1.3559
 3578TIP3    H210699   0.954   2.013   0.052 -0.5883  0.5948 -0.8664
 3579TIP3   OH210700   2.839   6.506   1.514 -0.3493  0.0772  0.2582
 3579TIP3    H110701   2.915   6.563   1.506 -0.8154  0.6748 -0.0602
 3579TIP3    H210702   2.874   6.423   1.547  0.4669  0.2585 -0.1241
 3580TIP3   OH210703   3.925   6.616   5.915  0.3125  0.0510  0.2739
 3580TIP3    H110704   3.838   6.619   5.875 -0.0649 -0.1992  1.0609
 3580TIP3    H210705   3.957   6.528   5.898  0.1081 -0.0891  0.5973
 3581TIP3   OH210706   0.838   0.122   4.603 -0.1499  0.2314  0.0586
 3581TIP3    H110707   0.846   0.032   4.634 -0.0278  0.3214  0.2928
 3581TIP3    H210708   0.858   0.175   4.680  0.0806  0.4574 -0.1563
 3582TIP3   OH210709   7.142   5.155   3.132  0.2992 -0.3860 -0.5330
 3582TIP3    H110710   7.096   5.072   3.145 -0.7239  0.0548 -1.1925
 3582TIP3    H210711   7.194   5.166   3.211 -0.9402 -0.7742  0.3701
 3583TIP3   OH210712   4.282   0.747   1.002 -0.4624  0.6591  0.0313
 3583TIP3    H110713   4.234   0.669   1.032  0.2520  0.7515  1.5394
 3583TIP3    H210714   4.257   0.758   0.911  0.9947 -2.5622 -0.8791
 3584TIP3   OH210715   5.400   3.461   3.955 -0.7362 -0.4845  0.1584
 3584TIP3    H110716   5.427   3.372   3.930 -0.4736 -0.4815  0.4273
 3584TIP3    H210717   5.477   3.515   3.935 -0.0726 -0.6530  2.0683
 3585TIP3   OH210718   2.222   1.431   4.292 -0.4787  0.2923 -0.1868
 3585TIP3    H110719   2.251   1.376   4.365  0.8919  2.5616  1.0874
 3585TIP3    H210720   2.182   1.508   4.333  1.3080  2.1646 -1.7175
 3586TIP3   OH210721   4.018   2.147   0.722 -0.6308  0.3205  0.1412
 3586TIP3    H110722   4.084   2.180   0.783 -1.2117  0.3429  0.7700
 3586TIP3    H210723   4.033   2.053   0.718  0.3228  0.5029 -0.7961
 3587TIP3   OH210724   4.915   1.802   4.145  0.4158 -0.0058  0.0757
 3587TIP3    H110725   4.952   1.788   4.232  0.1247  0.1715  0.2288
 3587TIP3    H210726   4.992   1.817   4.089  0.5285  1.8432  0.6579
 3588TIP3   OH210727   3.285   0.539   3.019  0.0708  0.1764  0.4187
 3588TIP3    H110728   3.347   0.600   2.979 -0.6417  0.1225 -0.8092
 3588TIP3    H210729   3.318   0.526   3.108  0.8749  1.4506  0.3297
 3589TIP3   OH210730   7.104   1.398   4.777  0.1295 -0.3788 -0.1486
 3589TIP3    H110731   7.071   1.403   4.687  0.3015 -0.1330 -0.1981
 3589TIP3    H210732   7.026   1.376   4.829  0.1173 -0.9808 -0.4105
 3590TIP3   OH210733   0.949   5.580   0.567  0.2247 -0.1135 -0.2618
 3590TIP3    H110734   1.040   5.595   0.593 -0.3541 -0.1316  1.9891
 3590TIP3    H210735   0.904   5.662   0.590 -0.5520 -0.5547 -0.1746
 3591TIP3   OH210736   3.209   4.679   1.009  0.0184  0.1676  0.5504
 3591TIP3    H110737   3.167   4.764   0.998  0.7819  0.6942  1.5754
 3591TIP3    H210738   3.138   4.616   0.997 -0.6429  0.9523  0.2030
 3592TIP3   OH210739   3.792   6.285   4.470 -0.4453 -1.1987  0.9866
 3592TIP3    H110740   3.697   6.297   4.471 -0.6475 -1.2640 -2.5940
 3592TIP3    H210741   3.807   6.202   4.514 -1.9613 -0.9683  1.9987
 3593TIP3   OH210742   0.484   5.349   5.351  0.1958 -0.0983 -0.1011
 3593TIP3    H110743   0.523   5.277   5.402  0.7145 -0.5354 -1.0834
 3593TIP3    H210744   0.518   5.336   5.263 -0.3174  0.9230 -0.4574
 3594TIP3   OH210745   1.489   0.455   0.458  0.0145 -0.5871  0.1946
 3594TIP3    H110746   1.449   0.542   0.469  1.8546  0.2510  0.8329
 3594TIP3    H210747   1.436   0.397   0.512 -1.4629  0.0616 -0.5187
 3595TIP3   OH210748   4.494   3.446   3.029 -0.2469 -0.2575 -0.7429
 3595TIP3    H110749   4.549   3.391   2.973 -0.0283  0.8838 -1.6859
 3595TIP3    H210750   4.449   3.505   2.968  0.4799  1.4459  0.3076
 3596TIP3   OH210751   4.874   2.132   1.193  0.4694 -0.2878  0.2414
 3596TIP3    H110752   4.890   2.224   1.215 -0.2954 -0.0051 -0.3397
 3596TIP3    H210753   4.954   2.104   1.148  0.7746  0.0394  0.5741
 3597TIP3   OH210754   1.788   5.903   4.658 -0.4790  0.2674 -0.3840
 3597TIP3    H110755   1.760   5.978   4.710  0.0398 -0.2336  0.6668
 3597TIP3    H210756   1.884   5.908   4.659 -0.3951 -0.9189  0.5354
 3598TIP3   OH210757   2.544   4.063   1.954  0.1724 -0.1099 -0.0667
 3598TIP3    H110758   2.486   4.128   1.994  0.6751  0.7740 -0.7450
 3598TIP3    H210759   2.520   4.062   1.862 -1.3235 -2.5097  0.2678
 3599TIP3   OH210760   4.514   5.757   0.076  0.6926  0.0524 -0.2013
 3599TIP3    H110761   4.444   5.813   0.109  1.6132  0.4852  1.0868
 3599TIP3    H210762   4.497   5.749  -0.018 -1.3984 -0.3180  0.1601
 3600TIP3   OH210763   2.419   4.033   4.097 -0.6838 -0.0570 -0.9508
 3600TIP3    H110764   2.483   4.036   4.025 -1.0533 -1.1459 -1.3467
 3600TIP3    H210765   2.348   3.979   4.063 -2.3167  1.9068 -0.8992
 3601TIP3   OH210766   0.395   0.957   3.031  0.2894  0.6376  0.2491
 3601TIP3    H110767   0.339   0.995   2.964  2.6034  0.2509 -2.0685
 3601TIP3    H210768   0.369   1.000   3.112 -1.9919  1.8280 -1.0276
 3602TIP3   OH210769   6.144   6.446   4.547 -0.3002 -0.6796 -0.1610
 3602TIP3    H110770   6.151   6.534   4.510 -2.1071 -0.2972  0.2921
 3602TIP3    H210771   6.226   6.432   4.593  0.6479  0.1360 -1.5431
 3603TIP3   OH210772   6.412   3.410   2.744 -0.0480 -0.1410 -0.0317
 3603TIP3    H110773   6.461   3.356   2.681 -0.0409  0.9867 -1.0513
 3603TIP3    H210774   6.324   3.417   2.707  0.2578  1.4561 -0.5572
 3604TIP3   OH210775   2.393   4.459   3.481  0.5879  0.0668 -0.2176
 3604TIP3    H110776   2.426   4.503   3.560  1.3403 -0.8237 -0.0215
 3604TIP3    H210777   2.430   4.509   3.409  2.0658 -0.6699  0.0015
 3605TIP3   OH210778   3.575   3.550   2.646 -0.6931 -0.0703 -0.7135
 3605TIP3    H110779   3.526   3.493   2.706  0.1834 -0.0897  0.0048
 3605TIP3    H210780   3.666   3.522   2.656 -0.5836 -0.5066 -2.5427
 3606TIP3   OH210781   0.457   3.090   2.429 -0.0639  0.4143  0.4102
 3606TIP3    H110782   0.547   3.094   2.464 -0.0581 -0.6588  0.5448
 3606TIP3    H210783   0.430   3.000   2.442 -0.2129  0.0422 -2.0385
 3607TIP3   OH210784   6.920   3.360   5.849  0.0090 -0.4330 -0.3377
 3607TIP3    H110785   6.881   3.311   5.921 -0.7649  0.0481 -0.4216
 3607TIP3    H210786   6.865   3.338   5.773 -0.2260  0.4076 -0.4164
 3608TIP3   OH210787   4.593   5.365   4.616 -0.3052  0.1846  0.0292
 3608TIP3    H110788   4.609   5.284   4.566  0.2988  0.8747 -0.9347
 3608TIP3    H210789   4.606   5.339   4.707  1.4527 -0.4869 -0.3535
 3609TIP3   OH210790   6.489   1.054   0.405  0.3340  0.7579  0.2397
 3609TIP3    H110791   6.423   1.110   0.366  1.0133  1.8413  0.5884
 3609TIP3    H210792   6.555   1.042   0.337  0.8509  1.5199  0.5931
 3610TIP3   OH210793   5.432   4.837   0.572  0.4103 -0.2251 -0.1636
 3610TIP3    H110794   5.480   4.785   0.637 -0.1431 -1.1028 -0.4325
 3610TIP3    H210795   5.497   4.862   0.507  0.7326 -0.3615  0.1068
 3611TIP3   OH210796   4.765   6.403   2.883  0.1063 -0.1691  0.2964
 3611TIP3    H110797   4.761   6.311   2.909 -0.7250  0.2656  1.8720
 3611TIP3    H210798   4.693   6.414   2.821  0.0577 -0.5273  0.2883
 3612TIP3   OH210799   3.737   1.505   4.261 -0.2908  0.2012  0.2968
 3612TIP3    H110800   3.698   1.455   4.190  0.4627  1.3266 -0.9500
 3612TIP3    H210801   3.669   1.565   4.290 -0.4416  0.0764  0.1990
 3613TIP3   OH210802   3.080   0.506   0.277 -0.1181 -0.7289  0.2098
 3613TIP3    H110803   3.092   0.530   0.369 -0.0851  0.5799 -0.1151
 3613TIP3    H210804   2.992   0.536   0.256 -0.0597 -0.8658 -0.2389
 3614TIP3   OH210805   6.304   4.509   4.722 -0.5669 -0.7086 -0.3421
 3614TIP3    H110806   6.221   4.520   4.676  0.4631  0.2012 -2.1079
 3614TIP3    H210807   6.326   4.596   4.754  0.0484 -0.7704 -0.5636
 3615TIP3   OH210808   5.093   0.754   5.504  0.0248  0.0182 -0.4444
 3615TIP3    H110809   5.114   0.846   5.488 -1.9921  0.3382 -1.5142
 3615TIP3    H210810   5.046   0.755   5.588  1.0032 -0.2199  0.1242
 3616TIP3   OH210811   4.904   0.282   0.024  0.6524  0.1676  0.4669
 3616TIP3    H110812   4.831   0.235   0.063  0.7797  1.3943  2.3105
 3616TIP3    H210813   4.890   0.276  -0.070 -2.2252  0.9552  0.7554
 3617TIP3   OH210814   2.219   3.787   5.827 -0.0052  0.3456 -0.4412
 3617TIP3    H110815   2.207   3.704   5.780  0.8094  1.2157 -2.2720
 3617TIP3    H210816   2.300   3.774   5.876  0.3363  0.1769 -1.0386
 3618TIP3   OH210817   1.497   6.062   3.278  0.2433 -0.6369 -0.1229
 3618TIP3    H110818   1.510   5.967   3.279 -1.1013 -0.9077  2.6930
 3618TIP3    H210819   1.402   6.073   3.285  0.4788  0.8002  1.9670
 3619TIP3   OH210820   5.260   5.430   1.913 -0.1070 -0.2075  0.1903
 3619TIP3    H110821   5.322   5.359   1.932  1.3630  0.9436 -0.1329
 3619TIP3    H210822   5.239   5.420   1.821  0.9882  0.4118 -0.1469
 3620TIP3   OH210823   0.742   1.175   1.420  0.3258 -0.5614 -0.1736
 3620TIP3    H110824   0.777   1.166   1.509 -1.4316 -0.8572  0.5326
 3620TIP3    H210825   0.730   1.085   1.390  1.4570 -0.4612 -0.9492
 3621TIP3   OH210826   5.482   0.622   1.812 -0.3215 -0.0188  0.3759
 3621TIP3    H110827   5.479   0.684   1.740 -1.2239  0.2856  0.6506
 3621TIP3    H210828   5.468   0.537   1.772 -0.7904  0.1472  0.1792
 3622TIP3   OH210829   2.541   1.427   5.107  0.0362  0.6599  0.0388
 3622TIP3    H110830   2.561   1.505   5.056 -0.3848  0.5485 -0.2982
 3622TIP3    H210831   2.609   1.364   5.083  1.4227  1.4818  1.6031
 3623TIP3   OH210832   4.877   1.696   0.556 -0.6306 -0.0187  0.7516
 3623TIP3    H110833   4.944   1.659   0.613  1.0515  0.8442 -0.5776
 3623TIP3    H210834   4.803   1.715   0.615  0.8906  0.5319  2.5763
 3624TIP3   OH210835   5.419   1.280   2.399 -0.0791  0.3340  0.0467
 3624TIP3    H110836   5.358   1.244   2.335  0.4679  0.8115 -0.7515
 3624TIP3    H210837   5.469   1.347   2.351  0.4211  0.6153  0.9305
 3625TIP3   OH210838   1.641   5.223   0.349  0.3469 -0.4162  0.2750
 3625TIP3    H110839   1.692   5.179   0.281  3.3200  1.7898  0.8904
 3625TIP3    H210840   1.601   5.298   0.305 -0.0904 -0.5839  0.3794
 3626TIP3   OH210841   1.332   3.096   3.975 -0.5287 -0.0196 -0.0410
 3626TIP3    H110842   1.365   3.047   3.900 -0.0103  1.1319 -0.5834
 3626TIP3    H210843   1.390   3.071   4.047  1.5091  1.8238 -0.9338
 3627TIP3   OH210844   4.206   2.224   1.144  0.3763  0.2564  0.0846
 3627TIP3    H110845   4.215   2.300   1.202 -1.8205  1.1262 -0.6042
 3627TIP3    H210846   4.193   2.150   1.203 -0.4725  0.9117  0.7385
 3628TIP3   OH210847   2.840   3.853   4.592 -0.1222 -0.2826  0.8996
 3628TIP3    H110848   2.807   3.878   4.506  0.1087 -0.8689  0.6299
 3628TIP3    H210849   2.935   3.846   4.579 -0.0945 -0.4345  1.1861
 3629TIP3   OH210850   2.130   3.135   0.764 -0.2891  0.2213  0.0419
 3629TIP3    H110851   2.145   3.227   0.745 -3.3876  0.3890 -2.5934
 3629TIP3    H210852   2.035   3.128   0.775 -0.0727 -2.5413  1.0926
 3630TIP3   OH210853   4.519   6.596   2.941 -0.2801 -0.1739 -0.3737
 3630TIP3    H110854   4.439   6.649   2.942  0.2431  0.6733 -1.3480
 3630TIP3    H210855   4.538   6.583   2.848  1.8937  1.5137 -0.2445
 3631TIP3   OH210856   7.150   6.494   2.385 -0.0380  0.0859 -0.4607
 3631TIP3    H110857   7.072   6.538   2.417 -0.0562 -0.1949 -0.1137
 3631TIP3    H210858   7.221   6.556   2.402 -0.1623  0.2734 -0.6271
 3632TIP3   OH210859   5.566   2.730   5.555  0.2928  0.4679  0.2335
 3632TIP3    H110860   5.478   2.726   5.518  0.1884 -1.7707  0.5357
 3632TIP3    H210861   5.554   2.768   5.642 -0.2682  0.8345  0.0009
 3633TIP3   OH210862   7.028   6.679   5.516  0.4828 -0.3654  0.2392
 3633TIP3    H110863   7.118   6.665   5.488  0.1473  0.2055 -1.2276
 3633TIP3    H210864   6.989   6.733   5.447 -0.6658  0.3786  1.4126
 3634TIP3   OH210865   2.205   0.087   1.916  0.2632 -0.0636 -0.1992
 3634TIP3    H110866   2.259   0.106   1.993  0.3901  0.1555 -0.3449
 3634TIP3    H210867   2.133   0.034   1.951  1.1017 -1.2350 -0.1573
 3635TIP3   OH210868   2.671   6.045   1.532 -0.5419 -0.1470 -0.2443
 3635TIP3    H110869   2.632   6.030   1.618 -1.6856 -1.6183 -0.9857
 3635TIP3    H210870   2.765   6.047   1.548 -0.7035 -1.1690  0.9435
 3636TIP3   OH210871   6.061   2.055   4.179 -0.1646  0.6958  0.4110
 3636TIP3    H110872   6.009   1.981   4.209  1.0192 -0.0309  0.7093
 3636TIP3    H210873   6.112   2.082   4.255  0.3474  1.0112 -0.0295
 3637TIP3   OH210874   3.201   2.788   4.445 -0.2423  0.1576 -0.3736
 3637TIP3    H110875   3.274   2.850   4.442  0.3291 -0.4681  0.4127
 3637TIP3    H210876   3.127   2.838   4.410  0.5519  0.7983 -1.1939
 3638TIP3   OH210877   4.005   2.542   4.087  0.5604 -0.0545  0.4361
 3638TIP3    H110878   4.084   2.595   4.088  0.1793  0.8137 -2.9080
 3638TIP3    H210879   3.934   2.602   4.111  0.8130 -0.8865  3.6650
 3639TIP3   OH210880   6.372   0.272   2.273  0.5838  0.9398 -0.8108
 3639TIP3    H110881   6.332   0.346   2.229  0.4890 -0.8518 -4.0779
 3639TIP3    H210882   6.462   0.271   2.241  0.9763  0.4038  0.2518
 3640TIP3   OH210883   6.681   0.399   2.226 -0.2413 -0.1019  0.2934
 3640TIP3    H110884   6.644   0.412   2.139  0.1873 -1.1686 -0.0553
 3640TIP3    H210885   6.775   0.394   2.212 -0.0005  1.4767  1.0464
 3641TIP3   OH210886   3.021   1.911   0.415  0.2284 -0.2435 -0.1728
 3641TIP3    H110887   2.961   1.985   0.420  0.3679 -0.0985 -0.5590
 3641TIP3    H210888   2.990   1.861   0.338 -0.2103 -0.8933  0.4126
 3642TIP3   OH210889   2.079   4.162   0.839  0.0430 -0.1728  0.2331
 3642TIP3    H110890   2.075   4.074   0.877 -2.4359  0.4662  1.6293
 3642TIP3    H210891   2.064   4.221   0.912  0.1788  1.3657 -0.9308
 3643TIP3   OH210892   3.665   6.112   4.880 -0.1219 -0.0165  0.2239
 3643TIP3    H110893   3.641   6.034   4.930 -0.5661 -1.0264 -1.4810
 3643TIP3    H210894   3.760   6.116   4.886 -0.1990  0.1029  1.4458
 3644TIP3   OH210895   4.229   2.549   5.196  0.6433 -0.0680 -0.1249
 3644TIP3    H110896   4.158   2.570   5.257  0.5459  1.0301 -0.5789
 3644TIP3    H210897   4.309   2.575   5.242  0.6123  0.2567 -0.2515
 3645TIP3   OH210898   6.007   5.747   1.292  0.4526 -0.5584  0.3858
 3645TIP3    H110899   6.090   5.740   1.341  1.0700 -3.4945 -0.8388
 3645TIP3    H210900   6.034   5.771   1.204  0.0054 -1.4128  0.0086
 3646TIP3   OH210901   5.760   0.530   5.688  0.3160  0.0113 -0.4614
 3646TIP3    H110902   5.718   0.472   5.751  0.4978 -0.0053 -0.3550
 3646TIP3    H210903   5.837   0.481   5.658  0.4173  0.1581 -0.4421
 3647TIP3   OH210904   2.052   1.420   0.940 -0.5492 -0.3225 -0.2496
 3647TIP3    H110905   2.115   1.489   0.918  0.4356 -1.0439  0.2580
 3647TIP3    H210906   1.971   1.448   0.897  0.1939  0.4538 -1.1991
 3648TIP3   OH210907   2.174   2.092   4.300  0.3387 -0.1301 -0.0517
 3648TIP3    H110908   2.185   2.178   4.341  0.5678  0.1736 -0.7290
 3648TIP3    H210909   2.182   2.030   4.372 -0.6729  0.4509  0.5839
 3649TIP3   OH210910   5.413   3.920   5.004 -0.3253  0.3429 -0.1405
 3649TIP3    H110911   5.403   4.003   4.958 -0.8707 -0.9888 -2.6534
 3649TIP3    H210912   5.484   3.875   4.957  0.4652 -0.3655  1.6140
 3650TIP3   OH210913   1.682   2.812   5.289  0.0451  0.2404  0.4373
 3650TIP3    H110914   1.655   2.745   5.226  0.1140 -0.1553  0.8214
 3650TIP3    H210915   1.677   2.768   5.374 -0.9303  1.0325  0.8128
 3651TIP3   OH210916   3.555   2.688   3.219  0.5567 -0.5781  0.5916
 3651TIP3    H110917   3.543   2.714   3.310  1.8794 -0.6303  0.8006
 3651TIP3    H210918   3.644   2.653   3.215  0.0656 -1.7819 -0.4476
 3652TIP3   OH210919   0.586   4.455   1.780 -0.1730 -0.0286 -0.2074
 3652TIP3    H110920   0.525   4.389   1.746  0.2884  0.2319 -1.5861
 3652TIP3    H210921   0.535   4.536   1.781 -0.7753 -0.3820  1.5938
 3653TIP3   OH210922   0.338   3.342   3.839 -0.4080 -0.3739 -0.1352
 3653TIP3    H110923   0.353   3.259   3.794  1.2279 -0.1655 -0.0320
 3653TIP3    H210924   0.364   3.324   3.930  0.3525  0.3473 -0.2016
 3654TIP3   OH210925   1.533   0.548   4.414 -0.2416  0.5740 -0.2298
 3654TIP3    H110926   1.596   0.483   4.446  0.0019  0.4177 -1.0159
 3654TIP3    H210927   1.586   0.626   4.395 -0.2866  0.4630 -0.8321
 3655TIP3   OH210928   6.212   0.444  -0.004  0.2062  0.5328  0.0460
 3655TIP3    H110929   6.172   0.377  -0.060 -0.1485 -0.6313  1.6337
 3655TIP3    H210930   6.199   0.413   0.085  1.9190  1.6771  0.7657
 3656TIP3   OH210931   5.923   4.754   5.617 -0.2808 -0.3308  0.4557
 3656TIP3    H110932   5.996   4.755   5.555  0.3206 -0.7865  1.1424
 3656TIP3    H210933   5.858   4.697   5.576  0.0686 -0.5451  0.1946
 3657TIP3   OH210934   5.090   0.898   1.122  0.0377 -0.7468 -0.2640
 3657TIP3    H110935   5.018   0.869   1.177  1.0161 -2.0599  0.3561
 3657TIP3    H210936   5.142   0.955   1.178 -1.1679  1.3110 -1.0974
 3658TIP3   OH210937   3.236   4.919   0.659  0.1077  0.0337 -0.4682
 3658TIP3    H110938   3.185   4.859   0.714  0.0250  1.8671  1.5742
 3658TIP3    H210939   3.289   4.861   0.604 -0.2096 -1.9033  1.1556
 3659TIP3   OH210940   0.057   0.329   4.683 -0.1165  0.3251 -0.2920
 3659TIP3    H110941   0.003   0.282   4.747  0.1382  0.0040 -0.3165
 3659TIP3    H210942   0.046   0.421   4.707  0.0192  0.2030  0.2511
 3660TIP3   OH210943   4.110   1.080   1.672  0.2362 -0.3584  0.2240
 3660TIP3    H110944   4.026   1.057   1.713  0.0119 -0.5984 -0.3627
 3660TIP3    H210945   4.105   1.174   1.659 -0.4091 -0.5236 -0.8271
 3661TIP3   OH210946   5.614   4.913   5.164  0.0665  0.1485  0.5933
 3661TIP3    H110947   5.694   4.864   5.148  0.3999  0.7234  0.4711
 3661TIP3    H210948   5.589   4.947   5.078 -1.3200 -1.5198  0.2769
 3662TIP3   OH210949   0.439   5.947   3.359 -0.1240  0.4616  0.1852
 3662TIP3    H110950   0.472   5.960   3.270  0.1034 -0.1625  0.1804
 3662TIP3    H210951   0.394   5.863   3.356  4.4973 -2.4687  1.9408
 3663TIP3   OH210952   6.694   5.493   0.924 -0.3822  0.4576  0.0448
 3663TIP3    H110953   6.777   5.503   0.970 -0.9663  0.1844  1.1749
 3663TIP3    H210954   6.718   5.500   0.831  1.3017 -2.1989  0.1698
 3664TIP3   OH210955   4.222   0.958   3.483 -0.1874  0.1130 -0.4434
 3664TIP3    H110956   4.177   1.004   3.555 -0.2379 -1.6626  0.7221
 3664TIP3    H210957   4.167   0.882   3.466  1.2480 -0.9440 -0.4787
 3665TIP3   OH210958   4.270   6.677   3.780  0.0992 -0.2158 -0.3409
 3665TIP3    H110959   4.216   6.738   3.728  1.8038 -0.3703 -2.4302
 3665TIP3    H210960   4.291   6.725   3.860 -0.8362  0.8793 -0.7270
 3666TIP3   OH210961   1.646   1.802   4.467 -0.2436 -0.3634  0.2147
 3666TIP3    H110962   1.736   1.793   4.434  0.1466  0.7880  0.9091
 3666TIP3    H210963   1.652   1.869   4.534 -1.0921 -2.2269  2.2876
 3667TIP3   OH210964   3.197   2.237   5.102 -0.3619  0.2726 -0.1401
 3667TIP3    H110965   3.163   2.174   5.037 -0.3481  1.1370 -1.0115
 3667TIP3    H210966   3.179   2.323   5.063 -0.4293  0.8189  1.0558
 3668TIP3   OH210967   5.934   5.435   0.241 -0.3031  0.3372  0.3192
 3668TIP3    H110968   5.840   5.433   0.262 -0.3290  1.0033  0.2917
 3668TIP3    H210969   5.978   5.415   0.323 -0.3934  3.1955  1.1696
 3669TIP3   OH210970   6.528   2.125   5.043  0.3599 -0.4452 -1.0422
 3669TIP3    H110971   6.539   2.211   5.002 -1.5626 -0.0285 -0.8073
 3669TIP3    H210972   6.583   2.066   4.992  1.8215  0.9281 -1.1253
 3670TIP3   OH210973   3.584   3.846   2.019  0.4962 -0.0292 -0.0078
 3670TIP3    H110974   3.673   3.818   2.000  0.2394 -1.0709  0.2419
 3670TIP3    H210975   3.529   3.788   1.967 -0.0543  0.1894  0.3240
 3671TIP3   OH210976   1.710   2.399   4.921 -0.5861  0.1866 -0.2237
 3671TIP3    H110977   1.670   2.436   4.843 -1.4903 -0.0881  0.1032
 3671TIP3    H210978   1.644   2.340   4.957 -0.2883  0.5014  0.8934
 3672TIP3   OH210979   5.021   6.730   1.578  0.1160  0.4813 -0.2283
 3672TIP3    H110980   4.969   6.774   1.645  0.5918 -0.7723  1.0007
 3672TIP3    H210981   5.081   6.797   1.545  0.4279  0.9210  1.1840
 3673TIP3   OH210982   0.529   1.075   2.349 -0.1585 -0.2766 -0.2416
 3673TIP3    H110983   0.452   1.055   2.295  1.4141 -1.8802 -2.0158
 3673TIP3    H210984   0.496   1.071   2.439 -2.0562 -1.4296 -0.9301
 3674TIP3   OH210985   2.122   1.818   2.411  0.7626  0.1664 -0.1966
 3674TIP3    H110986   2.097   1.849   2.498  0.9446  1.8718 -0.7160
 3674TIP3    H210987   2.217   1.808   2.416  0.6083 -1.3918  0.2676
 3675TIP3   OH210988   0.339   6.690   3.152  0.9366  0.7150 -0.0820
 3675TIP3    H110989   0.265   6.680   3.212 -1.3400  1.0691 -2.6403
 3675TIP3    H210990   0.400   6.747   3.200 -0.4441  0.4923  2.1133
 3676TIP3   OH210991   5.459   2.417   1.144 -0.1704 -0.3451  0.1289
 3676TIP3    H110992   5.414   2.437   1.061  0.9219 -1.1920 -0.6898
 3676TIP3    H210993   5.498   2.331   1.130 -0.8285 -0.9742  1.9109
 3677TIP3   OH210994   6.382   4.120   5.195 -0.5265 -0.4293 -0.3694
 3677TIP3    H110995   6.375   4.060   5.121 -1.2408  0.1411 -0.7743
 3677TIP3    H210996   6.411   4.202   5.157 -0.4930 -0.2492  0.0409
 3678TIP3   OH210997   6.875   1.694   5.398 -0.1906 -0.1906  0.2917
 3678TIP3    H110998   6.880   1.598   5.398 -1.4233 -0.2709 -0.5588
 3678TIP3    H210999   6.822   1.715   5.474  0.9469 -0.0997  1.0912
 3679TIP3   OH211000   6.391   3.377   3.398  0.5700  0.5235 -0.0146
 3679TIP3    H111001   6.423   3.305   3.453 -1.0545 -0.0443  0.2618
 3679TIP3    H211002   6.361   3.443   3.461  1.2345  1.0684 -0.2640
 3680TIP3   OH211003   4.419   0.600   4.787 -0.2561 -0.1920 -0.0908
 3680TIP3    H111004   4.482   0.593   4.859 -0.0445 -0.2854 -0.2811
 3680TIP3    H211005   4.425   0.515   4.742 -1.5798 -0.7632  0.7525
 3681TIP3   OH211006   4.852   0.153   2.142 -0.0628 -0.4013  0.7264
 3681TIP3    H111007   4.881   0.171   2.232  0.7198  0.9729  0.2215
 3681TIP3    H211008   4.757   0.145   2.149 -0.2148  1.4592  1.4331
 3682TIP3   OH211009   0.640   0.077   5.338 -0.1864 -0.4101 -0.0775
 3682TIP3    H111010   0.730   0.068   5.370 -0.0416 -2.2011 -0.8924
 3682TIP3    H211011   0.590   0.014   5.390 -1.6131  2.4471  2.3382
 3683TIP3   OH211012   3.674   6.789   3.064 -0.2867 -0.3804 -0.5783
 3683TIP3    H111013   3.608   6.721   3.081 -0.0949 -0.6039 -0.7202
 3683TIP3    H211014   3.676   6.797   2.969  0.6488 -1.1347 -0.6355
 3684TIP3   OH211015   5.198   4.765   0.473  0.3719 -0.6360  0.4174
 3684TIP3    H111016   5.161   4.714   0.545  1.5877 -2.1448  0.0070
 3684TIP3    H211017   5.280   4.801   0.509 -0.0681  0.3811  0.4419
 3685TIP3   OH211018   6.926   4.870   5.568  0.0119  0.0772 -0.5299
 3685TIP3    H111019   6.837   4.858   5.602 -0.3520  1.6393 -0.8474
 3685TIP3    H211020   6.954   4.782   5.544 -0.3330 -0.8967  2.2235
 3686TIP3   OH211021   6.516   4.970   4.580  0.7967 -0.4704 -0.1804
 3686TIP3    H111022   6.588   5.007   4.631  1.7677  1.2295 -2.5453
 3686TIP3    H211023   6.541   4.987   4.489 -2.8217  0.7304 -1.1376
 3687TIP3   OH211024   4.491   5.421   3.063 -0.7481  0.2582  0.1428
 3687TIP3    H111025   4.427   5.349   3.064  1.0473 -1.4647 -0.8545
 3687TIP3    H211026   4.550   5.399   2.990  0.1239  2.5470  0.0898
 3688TIP3   OH211027   0.748   0.635   0.138 -0.2452  0.3417  0.6048
 3688TIP3    H111028   0.678   0.700   0.151 -0.0652  0.9024 -0.9925
 3688TIP3    H211029   0.706   0.551   0.153 -1.3742  0.6522 -0.6378
 3689TIP3   OH211030   7.078   0.698   2.487  0.2610  0.4868  0.3918
 3689TIP3    H111031   7.139   0.741   2.547 -0.8271 -1.4731  3.0644
 3689TIP3    H211032   6.998   0.750   2.493  0.1520  0.2909  0.6078
 3690TIP3   OH211033   4.528   2.618   4.059  0.1758  0.0420 -0.2065
 3690TIP3    H111034   4.537   2.711   4.079 -0.4274 -0.0632  0.5971
 3690TIP3    H211035   4.618   2.585   4.061  0.1966 -0.2497  4.0250
 3691TIP3   OH211036   0.295   4.433   3.263  0.4547 -0.7463  0.0087
 3691TIP3    H111037   0.273   4.493   3.335  1.3488 -0.9031  0.4353
 3691TIP3    H211038   0.300   4.489   3.186 -1.9135 -0.7885 -0.2363
 3692TIP3   OH211039   0.731   2.984   5.298  1.1974 -0.7943  0.7697
 3692TIP3    H111040   0.708   3.010   5.387 -2.8379 -0.3810 -0.1701
 3692TIP3    H211041   0.730   2.888   5.300  0.8238 -0.7886  1.1297
 3693TIP3   OH211042   0.690   5.914   4.427 -0.4366  0.5427  0.1698
 3693TIP3    H111043   0.700   5.862   4.506  1.3567 -0.1108 -0.4351
 3693TIP3    H211044   0.739   5.994   4.444  0.2845  0.2362 -0.3872
 3694TIP3   OH211045   1.664   0.318   2.994  0.0923 -0.0034  0.3521
 3694TIP3    H111046   1.729   0.375   2.952 -0.3717  0.1442 -0.1703
 3694TIP3    H211047   1.715   0.244   3.027  0.3043 -0.7903 -1.6290
 3695TIP3   OH211048   4.682   1.545   2.502  0.4623  0.1153  0.1629
 3695TIP3    H111049   4.627   1.468   2.516  0.9278 -0.0811  0.9809
 3695TIP3    H211050   4.622   1.612   2.468  0.0794 -0.6422 -0.6936
 3696TIP3   OH211051   1.860   5.377   2.250 -0.1901  0.2076  0.6591
 3696TIP3    H111052   1.871   5.402   2.342  1.0038  0.8250  0.3654
 3696TIP3    H211053   1.945   5.392   2.210 -0.0939 -1.9596 -0.1232
 3697TIP3   OH211054   3.953   1.215   0.688 -1.1917 -0.2042 -0.1193
 3697TIP3    H111055   3.979   1.183   0.602 -0.6289 -0.0311 -0.0202
 3697TIP3    H211056   3.955   1.138   0.744 -1.6505 -0.3343 -0.2787
 3698TIP3   OH211057   4.582   4.242   4.533 -0.3114 -0.1388  0.3464
 3698TIP3    H111058   4.516   4.263   4.599 -1.2119 -1.0450 -0.2533
 3698TIP3    H211059   4.636   4.175   4.574  0.8310  1.2141  1.1762
 3699TIP3   OH211060   5.044   3.638   4.719  0.1192 -0.1959  0.0633
 3699TIP3    H111061   5.031   3.684   4.802  0.3664  0.0196 -0.0180
 3699TIP3    H211062   5.010   3.550   4.735 -0.9106  0.1808  0.0397
 3700TIP3   OH211063   6.453   3.830   0.298 -0.6325 -0.0561 -1.2386
 3700TIP3    H111064   6.405   3.889   0.355 -0.3771  2.0287 -3.0655
 3700TIP3    H211065   6.520   3.791   0.354 -1.8819  0.0331  0.3972
 3701TIP3   OH211066   5.886   2.003   1.670 -0.1401 -0.5074 -0.2071
 3701TIP3    H111067   5.805   1.980   1.625 -1.2934  2.8897 -0.1631
 3701TIP3    H211068   5.950   2.013   1.600 -0.4371 -0.6909 -0.5068
 3702TIP3   OH211069   5.722   0.585   1.975  0.0944  0.8602  0.2383
 3702TIP3    H111070   5.695   0.630   2.055 -0.2576  0.8177  0.1441
 3702TIP3    H211071   5.642   0.575   1.924  0.7296  3.6210 -1.5223
 3703TIP3   OH211072   6.975   0.645   3.458 -0.2625 -0.0284  0.0687
 3703TIP3    H111073   7.043   0.579   3.466  0.6511  1.0498  1.7850
 3703TIP3    H211074   7.016   0.716   3.409 -0.8268 -0.1897 -0.6570
 3704TIP3   OH211075   0.604   3.808   1.024  0.2196 -0.4944 -0.2752
 3704TIP3    H111076   0.527   3.829   1.076  0.1462 -0.1785 -0.5069
 3704TIP3    H211077   0.571   3.799   0.934  0.6700  1.2049 -0.6507
 3705TIP3   OH211078   6.481   2.285   1.709  0.4192 -0.0664  0.5399
 3705TIP3    H111079   6.577   2.276   1.708  0.5448  0.0252 -3.2057
 3705TIP3    H211080   6.466   2.377   1.730  1.0864 -0.2004  1.7006
 3706TIP3   OH211081   0.320   0.188   3.584  0.1523 -0.4002  0.6684
 3706TIP3    H111082   0.355   0.277   3.576  1.3647 -0.9554 -0.8225
 3706TIP3    H211083   0.270   0.175   3.504 -0.2475 -0.9609  1.0099
 3707TIP3   OH211084   5.398   2.045   2.573  0.1497 -0.2316 -0.4755
 3707TIP3    H111085   5.359   2.129   2.550 -2.7257 -1.0292  1.0270
 3707TIP3    H211086   5.348   1.981   2.522  0.5226 -1.2025  0.3526
 3708TIP3   OH211087   5.570   4.948   0.334 -0.7482  0.8322  0.3451
 3708TIP3    H111088   5.645   4.983   0.287 -0.7306  0.4145  0.0557
 3708TIP3    H211089   5.498   5.008   0.313 -0.8990  0.3005 -0.7516
 3709TIP3   OH211090   6.027   4.879   0.641  0.2020 -0.3917  0.0211
 3709TIP3    H111091   6.073   4.833   0.571  1.2275  1.2277 -0.4174
 3709TIP3    H211092   5.935   4.854   0.630  0.4847 -0.9248 -1.2892
 3710TIP3   OH211093   4.332   6.389   2.127 -0.1329  0.1191  0.1738
 3710TIP3    H111094   4.268   6.458   2.143 -0.1292  0.1370  0.1104
 3710TIP3    H211095   4.392   6.394   2.202 -1.0987 -0.9070  1.0629
 3711TIP3   OH211096   2.393   5.526   3.861 -0.1303 -0.2272  0.3085
 3711TIP3    H111097   2.361   5.614   3.840  1.8711  0.4390 -0.1273
 3711TIP3    H211098   2.343   5.468   3.803 -1.0301  0.6731  0.1527
 3712TIP3   OH211099   2.336   5.926   4.709 -0.0890  0.1627 -0.3276
 3712TIP3    H111100   2.288   5.883   4.779  0.9589  0.0245  0.3314
 3712TIP3    H211101   2.397   5.985   4.754 -1.4138  2.3370 -1.1910
 3713TIP3   OH211102   3.166   3.853   0.774 -0.3495  0.2655 -0.5065
 3713TIP3    H111103   3.212   3.770   0.772  0.8561  0.9289 -1.7827
 3713TIP3    H211104   3.213   3.906   0.838 -0.2120  0.4534 -0.7595
 3714TIP3   OH211105   1.979   6.849   0.856 -0.6337  0.5304  0.3636
 3714TIP3    H111106   1.918   6.787   0.818  0.0574 -0.2176  0.4544
 3714TIP3    H211107   2.061   6.801   0.864 -0.5599  0.8869  2.1216
 3715TIP3   OH211108   1.128   0.441   2.372 -0.0217 -0.1042  0.6246
 3715TIP3    H111109   1.048   0.417   2.325 -0.4718 -1.1903  1.8693
 3715TIP3    H211110   1.154   0.360   2.417 -0.1210  1.0436  2.9116
 3716TIP3   OH211111   5.475   5.821   4.023  0.3075 -0.6491 -0.2609
 3716TIP3    H111112   5.484   5.731   3.991 -0.8899 -0.4137 -1.3227
 3716TIP3    H211113   5.471   5.875   3.944  0.0397  0.2425  0.3400
 3717TIP3   OH211114   1.968   5.813   5.808  0.3028 -0.2069  0.0584
 3717TIP3    H111115   2.005   5.797   5.721 -0.3617 -0.4802 -0.1823
 3717TIP3    H211116   2.018   5.887   5.843 -0.8171  1.3100 -1.4160
 3718TIP3   OH211117   4.749   1.917   3.435 -0.0747 -0.1584 -0.0641
 3718TIP3    H111118   4.685   1.975   3.393  1.0890  1.0957 -0.1934
 3718TIP3    H211119   4.801   1.976   3.491  0.7643 -1.1870  0.2664
 3719TIP3   OH211120   1.190   2.749   1.728  0.6336  0.4012 -0.6242
 3719TIP3    H111121   1.155   2.832   1.696 -1.1044 -0.4297 -0.9837
 3719TIP3    H211122   1.134   2.726   1.802  2.1405  0.3398  0.5424
 3720TIP3   OH211123   7.206   4.984   4.405 -0.4168 -0.5615  0.8643
 3720TIP3    H111124   7.172   4.972   4.316 -0.4388 -1.3348  0.9677
 3720TIP3    H211125   7.235   5.075   4.407 -0.3698 -0.5462  0.0506
 3721TIP3   OH211126   2.635   1.539   3.561  0.5245 -0.3074  0.5289
 3721TIP3    H111127   2.608   1.627   3.537  1.1014 -0.2932 -0.1119
 3721TIP3    H211128   2.574   1.512   3.629  0.7093  0.8177  1.1597
 3722TIP3   OH211129   6.468   3.179   5.151  0.0649 -0.1151 -0.4717
 3722TIP3    H111130   6.487   3.269   5.125  0.0815 -0.6080 -2.2477
 3722TIP3    H211131   6.487   3.177   5.245 -3.6211  2.7299  0.5433
 3723TIP3   OH211132   4.231   4.126   5.615 -0.0144 -0.1074 -0.3800
 3723TIP3    H111133   4.223   4.071   5.694 -1.3635  0.2027 -0.2821
 3723TIP3    H211134   4.147   4.171   5.608 -0.4326 -1.0901 -2.7185
 3724TIP3   OH211135   5.906   4.156   2.972  0.2798  0.7140 -0.1068
 3724TIP3    H111136   5.938   4.204   2.896 -2.2320  1.4673 -0.7680
 3724TIP3    H211137   5.812   4.175   2.975 -0.0861 -1.0498  1.9149
 3725TIP3   OH211138   6.422   4.805   0.325 -0.5939  0.0360 -0.5095
 3725TIP3    H111139   6.428   4.793   0.231 -0.9676 -1.0325 -0.4180
 3725TIP3    H211140   6.473   4.733   0.362 -1.3409 -0.2042  0.0966
 3726TIP3   OH211141   0.057   3.961   3.427 -0.1243 -0.2405 -0.1653
 3726TIP3    H111142   0.055   3.936   3.335  1.1346  0.9953 -0.5656
 3726TIP3    H211143   0.144   3.934   3.457 -0.6473 -0.9422  0.7661
 3727TIP3   OH211144   6.447   0.020   1.420 -0.0144 -0.2285  0.0043
 3727TIP3    H111145   6.391   0.014   1.497 -0.1050  0.0522 -0.0370
 3727TIP3    H211146   6.535   0.003   1.453  0.5187  3.4263  0.9113
 3728TIP3   OH211147   5.874   6.185   4.444 -0.3881 -0.6568 -0.1998
 3728TIP3    H111148   5.831   6.161   4.526  0.5572  1.6376  1.0640
 3728TIP3    H211149   5.955   6.134   4.443 -1.0026 -1.6530 -0.3815
 3729TIP3   OH211150   3.652   0.705   3.159  0.0650  0.7994 -0.7438
 3729TIP3    H111151   3.688   0.725   3.073 -0.1559 -0.5171 -1.1603
 3729TIP3    H211152   3.604   0.784   3.184 -0.6025  0.8928 -2.2298
 3730TIP3   OH211153   0.396   3.481   5.681 -0.4035  0.0526 -0.2915
 3730TIP3    H111154   0.346   3.442   5.753 -0.1622 -1.2081 -0.7732
 3730TIP3    H211155   0.367   3.433   5.603 -0.2151  0.9782 -0.9435
 3731TIP3   OH211156   0.619   6.055   5.644  0.2741  0.1840  0.0171
 3731TIP3    H111157   0.632   5.973   5.692  0.5528 -0.4759 -1.1396
 3731TIP3    H211158   0.705   6.076   5.609  0.8229  2.4171  2.4255
 3732TIP3   OH211159   2.397   4.700   5.143 -0.4114  0.3511  0.6032
 3732TIP3    H111160   2.454   4.750   5.201  1.4928  0.3411 -1.1352
 3732TIP3    H211161   2.447   4.620   5.125 -1.3410 -0.0325 -0.3526
 3733TIP3   OH211162   4.067   3.504   2.389  0.2387 -0.6783 -0.0932
 3733TIP3    H111163   4.106   3.421   2.361  1.3603 -0.8452  1.7919
 3733TIP3    H211164   4.136   3.569   2.376 -0.1475 -0.2920 -0.2334
 3734TIP3   OH211165   7.197   3.008   4.341  0.3923  0.6091  0.0102
 3734TIP3    H111166   7.130   2.940   4.347  1.5227 -0.5637 -0.1492
 3734TIP3    H211167   7.183   3.049   4.255 -0.5543  0.8601  0.2830
 3735TIP3   OH211168   5.776   6.811   0.771  0.0604 -0.2290 -0.1076
 3735TIP3    H111169   5.731   6.733   0.740 -1.2893  0.6773 -0.5256
 3735TIP3    H211170   5.706   6.869   0.800  1.0536  0.7061  0.5093
 3736TIP3   OH211171   4.736   2.295   2.476 -0.4638 -0.2319 -0.4867
 3736TIP3    H111172   4.751   2.230   2.544  1.5903 -1.9310 -2.4034
 3736TIP3    H211173   4.652   2.270   2.436 -1.0024 -0.0450  0.5066
 3737TIP3   OH211174   6.834   3.401   2.313 -0.9169  0.7592  0.0332
 3737TIP3    H111175   6.916   3.357   2.334 -1.7045 -0.4222  0.7909
 3737TIP3    H211176   6.808   3.363   2.229 -0.9761  0.6937  0.0808
 3738TIP3   OH211177   4.263   1.431   4.330 -0.6259  0.3660 -0.6169
 3738TIP3    H111178   4.282   1.424   4.236 -0.5285  0.6658 -0.6235
 3738TIP3    H211179   4.169   1.451   4.334 -0.5405  0.8044 -0.6754
 3739TIP3   OH211180   1.842   0.053   0.361  0.4154 -0.1986 -0.0376
 3739TIP3    H111181   1.922   0.072   0.411  0.0235  1.3624  0.0478
 3739TIP3    H211182   1.810   0.139   0.334 -1.0031 -0.8310 -0.4465
 3740TIP3   OH211183   5.378   5.490   5.088  0.3360  0.3538 -0.3017
 3740TIP3    H111184   5.447   5.428   5.111 -0.2451  0.2797  1.4539
 3740TIP3    H211185   5.420   5.576   5.095  0.6221  0.2441 -0.6829
 3741TIP3   OH211186   2.158   1.923   5.491  0.4020 -0.3016 -0.6214
 3741TIP3    H111187   2.145   1.932   5.585  2.4016  0.4937 -0.3824
 3741TIP3    H211188   2.090   1.979   5.452  1.9234  2.5050  0.4879
 3742TIP3   OH211189   7.067   3.514   1.263 -0.2044  0.1318  0.4240
 3742TIP3    H111190   7.098   3.551   1.346 -2.5213  0.6305  1.1427
 3742TIP3    H211191   6.979   3.550   1.252 -0.6989 -1.4500 -1.2840
 3743TIP3   OH211192   6.132   4.564   3.970  0.1992  0.1004  0.0177
 3743TIP3    H111193   6.193   4.491   3.966  0.3093  0.2350 -0.9616
 3743TIP3    H211194   6.046   4.523   3.977  0.3254 -0.1055  0.3722
 3744TIP3   OH211195   1.053   0.638   3.152 -0.7669 -0.4681  0.3747
 3744TIP3    H111196   1.051   0.602   3.063  2.3219  0.9298 -0.4037
 3744TIP3    H211197   1.029   0.730   3.140 -1.4679 -0.5334  1.2053
 3745TIP3   OH211198   0.644   2.121   0.943 -0.6989  0.4004 -0.2879
 3745TIP3    H111199   0.603   2.117   1.029 -0.5102  1.0948 -0.1556
 3745TIP3    H211200   0.625   2.209   0.911 -1.3709 -0.0898 -1.2697
 3746TIP3   OH211201   0.341   5.302   2.276 -0.0128  0.2635  0.4544
 3746TIP3    H111202   0.407   5.296   2.206  0.2980  0.7217  0.7022
 3746TIP3    H211203   0.271   5.244   2.247  0.3640  0.0055  0.0353
 3747TIP3   OH211204   2.026   1.076   2.204  0.1905  0.1878  0.3952
 3747TIP3    H111205   1.985   1.014   2.144  0.3525  1.6277 -1.2709
 3747TIP3    H211206   2.061   1.022   2.274  1.2862 -1.7381 -1.5355
 3748TIP3   OH211207   1.046   5.796   2.917  0.2506  0.0437  0.3254
 3748TIP3    H111208   1.048   5.836   3.004 -0.8677 -2.1394  1.4355
 3748TIP3    H211209   1.134   5.760   2.905  0.2345 -0.1599  0.8161
 3749TIP3   OH211210   0.978   6.696   3.681 -0.3870 -0.2225 -0.4036
 3749TIP3    H111211   0.954   6.610   3.714 -0.6561 -0.1856 -0.4999
 3749TIP3    H211212   0.898   6.748   3.689  0.0601  0.3248  0.6396
 3750TIP3   OH211213   5.459   2.222   3.254 -0.4692  0.3632 -0.0360
 3750TIP3    H111214   5.492   2.174   3.178 -0.7560  2.4096 -1.5578
 3750TIP3    H211215   5.529   2.284   3.276 -1.6421  2.0280 -0.7734
 3751TIP3   OH211216   6.294   0.006   2.335  0.0963  0.5436  0.2318
 3751TIP3    H111217   6.294   0.023   2.429  0.7657  0.7811  0.1934
 3751TIP3    H211218   6.313   0.091   2.294 -0.6270  0.5374 -0.1453
 3752TIP3   OH211219   4.640   1.554   5.709  0.6315 -0.4701  0.1915
 3752TIP3    H111220   4.565   1.580   5.763  2.0681  1.5604  1.3263
 3752TIP3    H211221   4.661   1.465   5.739  0.5032  0.0738  2.0122
 3753TIP3   OH211222   6.264   4.142   0.174 -0.0118 -0.6257 -0.0547
 3753TIP3    H111223   6.181   4.109   0.208 -0.2849 -1.1623 -1.2101
 3753TIP3    H211224   6.302   4.189   0.248 -0.7634 -1.4198  0.8735
 3754TIP3   OH211225   6.130   4.854   0.923 -0.0371  0.2340  0.1316
 3754TIP3    H111226   6.107   4.866   0.831 -1.9305  2.6588  0.8074
 3754TIP3    H211227   6.216   4.895   0.932 -0.1408  0.5893 -0.4292
 3755TIP3   OH211228   5.332   2.620   5.459  0.3124 -0.1861  0.1291
 3755TIP3    H111229   5.360   2.653   5.373 -0.7798  0.9355  0.1668
 3755TIP3    H211230   5.279   2.692   5.496 -2.1963 -1.9741  0.2496
 3756TIP3   OH211231   0.289   0.656   3.672 -0.3350 -0.1238 -0.2726
 3756TIP3    H111232   0.274   0.736   3.621 -0.0437  0.3909  0.4433
 3756TIP3    H211233   0.218   0.654   3.735  0.8102  0.6928  1.0908
 3757TIP3   OH211234   6.439   5.721   5.515  0.5231 -0.6005 -0.1112
 3757TIP3    H111235   6.446   5.802   5.465 -0.2411  0.1973  1.0498
 3757TIP3    H211236   6.468   5.653   5.453  0.3808  0.4429 -1.3733
 3758TIP3   OH211237   6.008   6.251   5.429  0.1315  0.3608 -0.5024
 3758TIP3    H111238   6.095   6.210   5.431 -1.0619 -2.3617 -0.4557
 3758TIP3    H211239   5.992   6.278   5.520  0.4707 -0.1150 -0.2986
 3759TIP3   OH211240   1.998   5.874   3.826  0.2476  0.3256 -0.5127
 3759TIP3    H111241   1.980   5.781   3.838 -0.1564  0.4070 -0.4671
 3759TIP3    H211242   1.975   5.892   3.735  0.4497  0.3529 -0.5586
 3760TIP3   OH211243   3.964   0.784   2.148  0.2868 -0.4572  0.7554
 3760TIP3    H111244   3.907   0.716   2.183  0.4803 -1.1038 -0.1246
 3760TIP3    H211245   4.024   0.806   2.220  0.1340 -1.1285  1.0907
 3761TIP3   OH211246   0.969   2.204   4.918  0.4781  0.1928  0.5650
 3761TIP3    H111247   0.932   2.252   4.844  1.5075  0.5910  0.2867
 3761TIP3    H211248   0.938   2.251   4.996  0.3545  0.4847  0.3390
 3762TIP3   OH211249   2.253   5.028   4.117 -0.5853  0.1901 -0.2649
 3762TIP3    H111250   2.191   4.958   4.140 -1.6877  0.7361 -1.4181
 3762TIP3    H211251   2.274   5.012   4.025 -0.8211  1.3339 -0.5357
 3763TIP3   OH211252   2.068   4.608   4.081  0.2086  0.0155 -0.1133
 3763TIP3    H111253   2.100   4.524   4.113 -1.8220 -0.1969  1.6524
 3763TIP3    H211254   1.994   4.628   4.139 -0.3618  2.2464 -1.5049
 3764TIP3   OH211255   5.701   5.508   3.683  0.0638  0.2422 -0.0621
 3764TIP3    H111256   5.745   5.425   3.702 -1.2903 -0.3982  0.4209
 3764TIP3    H211257   5.771   5.574   3.687  1.3341 -0.9584 -1.4017
 3765TIP3   OH211258   7.130   6.358   2.150  0.3963 -0.3590 -0.0413
 3765TIP3    H111259   7.117   6.415   2.226 -0.4830 -1.1198  0.4056
 3765TIP3    H211260   7.180   6.285   2.184  0.8247 -0.2453 -0.4262
 3766TIP3   OH211261   5.290   3.695   3.475  0.3767  0.3129  0.0250
 3766TIP3    H111262   5.249   3.635   3.413 -0.7254  1.5361 -0.4769
 3766TIP3    H211263   5.221   3.713   3.539  0.8084  0.7497  0.3725
 3767TIP3   OH211264   0.039   4.170   3.618 -0.0852  0.5737 -0.1364
 3767TIP3    H111265   0.034   4.110   3.543  1.1904  2.0264 -1.4603
 3767TIP3    H211266   0.127   4.156   3.653 -0.5471  0.1691  0.9053
 3768TIP3   OH211267   6.471   2.082   5.582  0.1421 -0.1001 -0.6445
 3768TIP3    H111268   6.497   2.066   5.492  1.3022 -1.3067 -0.1389
 3768TIP3    H211269   6.483   2.176   5.594  0.7216 -0.0512 -1.5235
 3769TIP3   OH211270   0.858   4.874   4.504 -0.1310 -0.1157  0.2427
 3769TIP3    H111271   0.799   4.921   4.563  0.1216  0.5374 -0.0052
 3769TIP3    H211272   0.800   4.835   4.439 -0.3539 -0.2096  0.4945
 3770TIP3   OH211273   6.596   1.476   0.064 -0.1024 -0.1053 -0.1553
 3770TIP3    H111274   6.548   1.517  -0.008  0.7001 -1.0090 -1.2577
 3770TIP3    H211275   6.683   1.517   0.060  0.1318 -0.5954 -0.0905
 3771TIP3   OH211276   6.134   0.631   4.086 -0.0382 -0.5425 -0.3348
 3771TIP3    H111277   6.099   0.596   4.168  1.1479 -1.8513 -0.3423
 3771TIP3    H211278   6.120   0.725   4.092 -0.4261 -0.6676  1.1425
 3772TIP3   OH211279   6.456   6.204   2.862  1.1096 -0.7015 -0.1485
 3772TIP3    H111280   6.367   6.233   2.844  1.3836 -0.5284 -1.3494
 3772TIP3    H211281   6.502   6.282   2.893  0.2562 -1.3200  2.9925
 3773TIP3   OH211282   1.598   4.302   3.100  0.0627 -0.0364 -0.1002
 3773TIP3    H111283   1.667   4.240   3.076 -0.1307 -0.3195  0.0612
 3773TIP3    H211284   1.525   4.246   3.127 -0.6792  0.2131 -1.4698
 3774TIP3   OH211285   3.389   5.126   2.641 -0.0202 -0.5287 -0.1637
 3774TIP3    H111286   3.384   5.219   2.664  0.3430 -0.4504 -0.4069
 3774TIP3    H211287   3.297   5.099   2.634 -0.1526  0.2583 -1.8919
 3775TIP3   OH211288   2.291   4.813   1.751 -0.0613  0.1367 -0.1258
 3775TIP3    H111289   2.223   4.753   1.723 -0.4394  1.0111 -1.1510
 3775TIP3    H211290   2.367   4.791   1.696  0.1119 -0.0571  0.1896
 3776TIP3   OH211291   1.214   4.033   5.081 -0.3323  0.4014  0.2930
 3776TIP3    H111292   1.150   4.031   5.153 -0.2524 -0.1163  0.3510
 3776TIP3    H211293   1.290   3.987   5.115 -1.0098 -1.6369 -0.7844
 3777TIP3   OH211294   5.028   3.294   3.013  0.2125 -0.5029  0.0518
 3777TIP3    H111295   5.065   3.256   3.092 -1.6803 -2.7008 -0.0168
 3777TIP3    H211296   4.936   3.310   3.034  0.4587  2.3857 -0.5876
 3778TIP3   OH211297   1.685   1.518   5.614  0.4932  0.0795 -0.2659
 3778TIP3    H111298   1.638   1.563   5.684  2.4514  0.3981  0.9178
 3778TIP3    H211299   1.718   1.438   5.655 -0.8236 -1.2601 -1.6727
 3779TIP3   OH211300   5.728   4.169   1.998 -0.0159  0.3785  0.0110
 3779TIP3    H111301   5.651   4.200   2.044  1.2429  0.6851  2.0456
 3779TIP3    H211302   5.713   4.076   1.984 -0.9095  0.5198  0.0200
 3780TIP3   OH211303   3.328   1.808   4.380 -0.2416 -0.1170  0.0852
 3780TIP3    H111304   3.334   1.803   4.284  2.1340 -1.8670  0.2481
 3780TIP3    H211305   3.270   1.736   4.405 -2.5013  1.5219 -0.0393
 3781TIP3   OH211306   1.323   0.941   3.934  0.2463 -0.4227 -0.3489
 3781TIP3    H111307   1.358   0.930   3.846  1.1913  2.1687 -0.3815
 3781TIP3    H211308   1.252   1.005   3.925  2.0179  1.9067  1.0159
 3782TIP3   OH211309   2.999   1.527   0.464 -0.4717 -0.0140 -0.1791
 3782TIP3    H111310   3.022   1.482   0.383  0.6421 -1.4290  0.8783
 3782TIP3    H211311   3.047   1.609   0.460 -1.3831  0.4932 -1.4722
 3783TIP3   OH211312   0.820   4.508   2.144  0.6363 -0.5360  0.0328
 3783TIP3    H111313   0.798   4.415   2.134  0.1370 -0.4590  0.4062
 3783TIP3    H211314   0.842   4.536   2.055  0.7957 -1.0109 -0.0836
 3784TIP3   OH211315   6.040   4.092   3.622  0.1751 -0.0829  0.0828
 3784TIP3    H111316   5.975   4.022   3.614  0.5283 -0.3871 -0.1659
 3784TIP3    H211317   6.116   4.060   3.573  1.5175 -0.8970  2.5531
 3785TIP3   OH211318   2.217   3.508   1.156 -0.2408  0.1709 -0.2502
 3785TIP3    H111319   2.123   3.493   1.160  0.0644 -1.8060  0.8021
 3785TIP3    H211320   2.255   3.421   1.144  1.5116  0.7033  1.0095
 3786TIP3   OH211321   5.459   1.355   1.155 -0.5968 -0.3277  0.1018
 3786TIP3    H111322   5.552   1.362   1.132 -1.0797  1.4122 -1.5567
 3786TIP3    H211323   5.456   1.367   1.250  0.6768  2.2217 -0.1058
 3787TIP3   OH211324   5.565   6.778   4.991  0.6748  0.2676  0.1775
 3787TIP3    H111325   5.558   6.710   5.058  0.0430 -0.6385 -0.7772
 3787TIP3    H211326   5.559   6.860   5.039 -1.0053 -0.3568  1.1247
 3788TIP3   OH211327   6.849   5.538   5.159  0.4021 -0.0581  0.0637
 3788TIP3    H111328   6.894   5.494   5.232 -0.2008 -1.7087 -0.5036
 3788TIP3    H211329   6.867   5.483   5.083 -0.7594  0.4474 -0.6038
 3789TIP3   OH211330   0.184   3.405   3.456  0.3580  0.0966 -0.1169
 3789TIP3    H111331   0.279   3.401   3.469  0.3110  0.0603  0.2496
 3789TIP3    H211332   0.159   3.490   3.493  0.2859  0.2298 -0.4735
 3790TIP3   OH211333   4.812   6.325   5.594  0.3991 -0.6776 -0.3204
 3790TIP3    H111334   4.848   6.297   5.678 -0.1404 -0.5513 -0.0432
 3790TIP3    H211335   4.798   6.419   5.604  0.0790 -0.7100 -0.4546
 3791TIP3   OH211336  -0.012   1.574   5.540 -0.4413 -0.7786 -0.4261
 3791TIP3    H111337  -0.043   1.491   5.575 -0.1046 -1.2042 -1.0910
 3791TIP3    H211338   0.080   1.579   5.568 -0.6144 -0.3728  0.0660
 3792TIP3   OH211339   6.085   2.921   0.759 -0.5042  0.2702 -0.3043
 3792TIP3    H111340   6.052   3.001   0.799  0.9326 -0.1817  1.9454
 3792TIP3    H211341   6.154   2.951   0.699 -0.1792  0.7304  0.2928
 3793TIP3   OH211342   5.707   2.889   2.573  0.3319 -0.0553  0.6337
 3793TIP3    H111343   5.701   2.807   2.622  1.5956  0.4970  1.7938
 3793TIP3    H211344   5.622   2.931   2.584  0.2243 -0.4679  1.4124
 3794TIP3   OH211345   1.241   4.974   3.004 -0.6423  0.3032  0.2112
 3794TIP3    H111346   1.299   4.953   3.077  1.1656 -0.6431 -1.3978
 3794TIP3    H211347   1.153   4.965   3.040  0.1782 -0.2267  2.2260
 3795TIP3   OH211348   0.607   4.554   3.592  0.3620 -0.1990  0.4218
 3795TIP3    H111349   0.585   4.573   3.501 -0.5370 -1.1326  0.4361
 3795TIP3    H211350   0.531   4.585   3.642  0.3530 -0.7381  0.7463
 3796TIP3   OH211351   4.314   6.700   1.736  0.0136 -0.2476  0.6340
 3796TIP3    H111352   4.281   6.660   1.655 -0.1711 -1.9135  1.4828
 3796TIP3    H211353   4.346   6.626   1.788  0.4016  0.8107  1.9633
 3797TIP3   OH211354   1.618   5.117   3.193  0.5124  0.2922 -0.9014
 3797TIP3    H111355   1.560   5.042   3.178 -0.7238  1.5100 -2.5333
 3797TIP3    H211356   1.559   5.187   3.222  1.5009  0.9659 -0.4508
 3798TIP3   OH211357   2.836   3.880   3.313 -0.2596  0.6434  0.0011
 3798TIP3    H111358   2.845   3.920   3.227  0.1536 -0.4958 -0.5157
 3798TIP3    H211359   2.841   3.786   3.296  2.0770  0.4028  1.4813
 3799TIP3   OH211360   6.317   3.876   0.077  0.5319  0.2164  0.4079
 3799TIP3    H111361   6.227   3.894   0.104 -0.1099 -0.3973 -1.2210
 3799TIP3    H211362   6.366   3.872   0.159 -0.6006  2.1381  1.2430
 3800TIP3   OH211363   3.944   0.055   3.206 -0.2902 -0.8564 -0.0161
 3800TIP3    H111364   3.862   0.060   3.256  0.0312  1.3275  0.3849
 3800TIP3    H211365   3.922   0.089   3.120 -0.0763 -1.4521 -0.3091
 3801TIP3   OH211366   5.026   1.519   2.269  0.1790  0.4112 -0.0106
 3801TIP3    H111367   5.034   1.424   2.268 -1.2053  0.2547  0.5210
 3801TIP3    H211368   5.001   1.543   2.180  1.7091  0.4212 -0.4525
 3802TIP3   OH211369   6.277   0.695   0.287  0.7766  0.0722  0.5446
 3802TIP3    H111370   6.369   0.687   0.262  1.2646 -2.0630  2.6570
 3802TIP3    H211371   6.231   0.634   0.229  1.3707 -2.0537  2.1930
 3803TIP3   OH211372   6.534   3.769   2.123 -0.0240 -0.4372  1.1335
 3803TIP3    H111373   6.622   3.778   2.085 -0.5634 -0.8998 -0.3024
 3803TIP3    H211374   6.544   3.704   2.192  0.5784 -1.3350  0.2390
 3804TIP3   OH211375   0.976   0.647   4.700  0.1770 -0.0067  0.3896
 3804TIP3    H111376   1.002   0.645   4.608 -0.3599  0.7535  0.2112
 3804TIP3    H211377   1.044   0.598   4.745  1.2777  0.8992 -0.2193
 3805TIP3   OH211378   5.340   4.485   0.142  0.2582 -0.7224 -0.1113
 3805TIP3    H111379   5.364   4.576   0.131  1.2911 -1.0481 -0.6830
 3805TIP3    H211380   5.347   4.468   0.236 -1.6198  0.2117  0.2452
 3806TIP3   OH211381   7.105   0.646   0.314 -0.4488 -0.3619  0.2229
 3806TIP3    H111382   7.062   0.646   0.229 -0.8558 -0.2933  0.4297
 3806TIP3    H211383   7.037   0.672   0.376  0.5360  2.5145  0.2395
 3807TIP3   OH211384   6.659   5.266   0.454  0.4851 -0.3171  0.0810
 3807TIP3    H111385   6.624   5.181   0.479 -0.0481  0.4204  2.1020
 3807TIP3    H211386   6.632   5.278   0.363 -1.8172 -1.1373  0.5933
 3808TIP3   OH211387   0.016   0.926   1.292  0.4934 -0.0468 -0.1093
 3808TIP3    H111388   0.069   0.989   1.244  0.2691  0.9376  0.8968
 3808TIP3    H211389   0.080   0.874   1.342  0.6649 -0.5171 -0.8052
 3809TIP3   OH211390   3.024   5.800   0.744  0.2853  0.6958  0.0214
 3809TIP3    H111391   3.068   5.881   0.719  1.1828  0.8903  2.0203
 3809TIP3    H211392   3.031   5.797   0.839 -0.7857 -1.1476  0.1014
 3810TIP3   OH211393   2.884   0.185   2.670  0.1296 -0.1962  0.5312
 3810TIP3    H111394   2.941   0.187   2.593 -0.0149 -1.2805  0.3812
 3810TIP3    H211395   2.940   0.152   2.740  0.0842  0.1620  0.7359
 3811TIP3   OH211396   0.046   6.122   3.856 -0.3356  0.5097 -0.2582
 3811TIP3    H111397  -0.040   6.093   3.888 -0.6709  0.1348 -1.4495
 3811TIP3    H211398   0.067   6.060   3.786  1.1511  0.2940  0.3470
 3812TIP3   OH211399   3.006   6.698   3.720 -0.3632 -1.0439  0.0684
 3812TIP3    H111400   3.088   6.656   3.746  0.4803  0.4219 -0.1256
 3812TIP3    H211401   2.997   6.773   3.779 -1.6534 -1.2581  0.1859
 3813TIP3   OH211402   5.421   5.079   2.435  0.3997 -0.3170  0.0747
 3813TIP3    H111403   5.395   5.117   2.519 -1.7628 -0.3557 -0.5219
 3813TIP3    H211404   5.408   5.149   2.372 -0.6324 -1.0889 -0.5985
 3814TIP3   OH211405   0.586   2.648   0.821 -0.2819 -0.1758  0.0368
 3814TIP3    H111406   0.511   2.655   0.762 -1.3398 -0.5056  1.2878
 3814TIP3    H211407   0.548   2.648   0.909  1.1776 -0.4947  0.7108
 3815TIP3   OH211408   0.867   6.407   4.977 -0.2672  0.5258 -0.4281
 3815TIP3    H111409   0.949   6.395   5.025 -0.4901  1.1056  0.1117
 3815TIP3    H211410   0.894   6.421   4.886  0.5021  3.8034  0.1738
 3816TIP3   OH211411   6.755   3.160   3.145 -0.2802 -0.3020 -0.4056
 3816TIP3    H111412   6.844   3.150   3.111 -0.6495 -1.7051 -1.0444
 3816TIP3    H211413   6.748   3.093   3.213 -0.0913  1.3952  1.3600
 3817TIP3   OH211414   3.095   2.762   2.888  0.0646  0.2633  0.0451
 3817TIP3    H111415   3.115   2.686   2.942  0.1608  0.8133  0.8048
 3817TIP3    H211416   3.008   2.790   2.916 -0.3529 -0.0807 -0.8528
 3818TIP3   OH211417   5.238   1.008   5.729  0.2377 -0.2032 -0.3835
 3818TIP3    H111418   5.294   1.085   5.721  0.8323 -0.5169  0.6747
 3818TIP3    H211419   5.170   1.034   5.791  1.8526 -1.3038  1.9499
 3819TIP3   OH211420   6.317   3.574   1.726 -0.1699  0.1234 -0.3191
 3819TIP3    H111421   6.269   3.646   1.685  0.0699 -0.1871 -1.1484
 3819TIP3    H211422   6.346   3.610   1.810  3.4230  2.4527 -2.3172
 3820TIP3   OH211423   4.906   5.990   4.397  0.0307 -0.1481  0.3156
 3820TIP3    H111424   4.826   6.037   4.374 -0.4080 -1.0090  0.0604
 3820TIP3    H211425   4.879   5.929   4.466  0.4713 -0.4512  0.2202
 3821TIP3   OH211426   0.603   1.827   2.604 -0.0240  0.3413  0.0971
 3821TIP3    H111427   0.602   1.751   2.663  1.6177  0.9082  0.9187
 3821TIP3    H211428   0.695   1.854   2.602 -0.4204  1.7164 -0.9821
 3822TIP3   OH211429   4.030   4.335   1.179 -0.2895 -0.2692 -0.0175
 3822TIP3    H111430   4.014   4.310   1.270  0.8763  0.1212  0.3085
 3822TIP3    H211431   3.990   4.264   1.128  2.2240 -2.5076  0.8784
 3823TIP3   OH211432   0.765   6.540   5.813  0.2908  0.1585 -0.0889
 3823TIP3    H111433   0.804   6.573   5.732  0.3091 -0.3625 -0.2964
 3823TIP3    H211434   0.761   6.445   5.801  1.3411 -0.0474  0.9610
 3824TIP3   OH211435   3.541   0.844   4.395  0.4011 -0.4579  0.7517
 3824TIP3    H111436   3.566   0.857   4.304 -1.9700 -0.2933  0.0765
 3824TIP3    H211437   3.588   0.766   4.423  1.8107 -0.0261 -0.3172
 3825TIP3   OH211438   0.698   0.449   1.252  0.5630 -0.1134  0.5821
 3825TIP3    H111439   0.782   0.435   1.296  1.2533  2.7275  0.3664
 3825TIP3    H211440   0.711   0.414   1.164  2.1026  1.5029  0.0890
 3826TIP3   OH211441   0.370   4.575   3.750  0.6770  0.2506 -0.0082
 3826TIP3    H111442   0.340   4.619   3.829  0.1412  0.7108 -0.4655
 3826TIP3    H211443   0.366   4.482   3.772 -0.6662  0.3151  0.0960
 3827TIP3   OH211444   2.092   1.999   1.634  0.1661  0.3573  0.5244
 3827TIP3    H111445   2.066   2.024   1.545 -0.7904 -0.7037  0.4770
 3827TIP3    H211446   2.050   1.914   1.647  2.8325 -1.0074  0.8409
 3828TIP3   OH211447   2.160   1.231   3.919  0.3536  0.1056 -0.1243
 3828TIP3    H111448   2.120   1.218   3.833 -0.0254  1.5648 -0.1875
 3828TIP3    H211449   2.165   1.143   3.957 -2.0827 -0.2382 -0.4752
 3829TIP3   OH211450   5.803   1.946   2.709  0.1648 -0.0400 -1.0357
 3829TIP3    H111451   5.820   1.853   2.699 -0.0225 -0.2026 -0.0047
 3829TIP3    H211452   5.853   1.988   2.639  3.2981 -0.6379  0.6752
 3830TIP3   OH211453   0.278   1.930   5.105  0.6077 -0.3865  0.0235
 3830TIP3    H111454   0.289   1.959   5.195  1.2470 -0.0322 -0.1620
 3830TIP3    H211455   0.358   1.959   5.060  1.2267 -2.3043 -0.1985
 3831TIP3   OH211456   6.714   4.469   5.227 -0.2558  0.3684 -0.1147
 3831TIP3    H111457   6.809   4.458   5.227 -0.2762  0.1094  0.5305
 3831TIP3    H211458   6.697   4.529   5.155  0.4048  0.4845 -0.1857
 3832TIP3   OH211459   2.109   1.068   2.635  0.3953  0.4786  0.5276
 3832TIP3    H111460   2.101   1.020   2.553  0.7027  0.9638  0.2107
 3832TIP3    H211461   2.120   1.000   2.702 -2.0703 -0.0547  0.4940
 3833TIP3   OH211462   1.449   2.285   0.682 -0.1278 -0.4268 -0.1166
 3833TIP3    H111463   1.387   2.251   0.618  0.2341 -0.2627 -0.5571
 3833TIP3    H211464   1.455   2.379   0.663 -2.2611  0.2387  2.0392
 3834TIP3   OH211465   3.815   2.084   5.464  0.3158 -0.0694  0.1581
 3834TIP3    H111466   3.834   2.028   5.540  0.1951  0.4406  0.5735
 3834TIP3    H211467   3.885   2.065   5.402  0.3305 -0.6102  0.3321
 3835TIP3   OH211468   0.449   3.434   3.479 -0.1684  0.1327  0.4141
 3835TIP3    H111469   0.435   3.472   3.392 -2.2761  0.5743  0.8845
 3835TIP3    H211470   0.539   3.403   3.477 -0.4148 -0.7048 -2.2434
 3836TIP3   OH211471   1.587   6.138   0.054 -0.5883  0.1014 -0.3410
 3836TIP3    H111472   1.585   6.233   0.055  1.3832  0.1864 -0.3563
 3836TIP3    H211473   1.500   6.112   0.023 -1.0545  1.8850 -0.6287
 3837TIP3   OH211474   4.484   2.359   0.367 -0.2832 -0.2444  0.2372
 3837TIP3    H111475   4.400   2.344   0.410 -1.3837  1.0033 -1.3721
 3837TIP3    H211476   4.471   2.331   0.277  1.0478 -0.0569 -0.0394
 3838TIP3   OH211477   1.418   0.273   4.065  0.2267  0.5172 -0.1421
 3838TIP3    H111478   1.498   0.311   4.101  1.2618  0.1934 -1.9423
 3838TIP3    H211479   1.351   0.340   4.078  1.1859  1.4936 -0.0961
 3839TIP3   OH211480   5.753   1.845   1.889 -0.8386 -0.1973  0.2496
 3839TIP3    H111481   5.687   1.816   1.825 -0.6828 -1.7489  0.7721
 3839TIP3    H211482   5.837   1.832   1.845 -0.8054  1.2317 -0.1909
 3840TIP3   OH211483   6.168   6.431   2.208  0.9485  0.0907  0.9660
 3840TIP3    H111484   6.237   6.434   2.275  1.7566 -0.0578  0.1661
 3840TIP3    H211485   6.181   6.511   2.157  0.2092  0.3047  1.0961
 3841TIP3   OH211486   3.455   1.454   4.324  0.2993  0.1095 -0.0165
 3841TIP3    H111487   3.384   1.456   4.260 -0.7170  1.0015  1.0939
 3841TIP3    H211488   3.444   1.370   4.369  0.5567 -0.1897 -0.5135
 3842TIP3   OH211489   1.975   3.341   2.627 -0.3618 -0.3689  0.4717
 3842TIP3    H111490   2.046   3.389   2.670 -0.0388 -1.4095  1.1290
 3842TIP3    H211491   1.984   3.251   2.659 -0.6994 -0.9708 -1.0409
 3843TIP3   OH211492   6.401   1.355   0.976  0.0145  0.3415  0.1233
 3843TIP3    H111493   6.454   1.354   1.055 -0.2938 -0.2952  0.3336
 3843TIP3    H211494   6.370   1.445   0.968 -0.6411  0.2327  1.2119
 3844TIP3   OH211495   3.318   6.030   5.157  0.0550  0.5372 -0.4160
 3844TIP3    H111496   3.393   5.978   5.186  1.1779  2.0403 -0.5268
 3844TIP3    H211497   3.330   6.041   5.063 -0.5476  0.4263 -0.5143
 3845TIP3   OH211498   5.953   1.264   2.670  0.1172 -0.0079 -0.1676
 3845TIP3    H111499   5.957   1.313   2.753  0.3064  1.2000 -0.8708
 3845TIP3    H211500   6.040   1.225   2.661  0.4950  0.8750 -0.3963
 3846TIP3   OH211501   4.028   3.021   5.550 -0.4404 -0.1615  0.2289
 3846TIP3    H111502   4.058   3.006   5.460 -0.7292 -2.3164  0.4507
 3846TIP3    H211503   3.979   3.103   5.545 -0.5285 -0.2804 -1.6151
 3847TIP3   OH211504   4.657   3.895   4.310  0.0261  0.2320  0.2257
 3847TIP3    H111505   4.683   3.849   4.390  2.0613 -1.6936 -1.4193
 3847TIP3    H211506   4.567   3.865   4.293  0.3719 -1.0909  0.6229
 3848TIP3   OH211507   2.809   1.438   1.649  0.8132 -0.1999  0.2490
 3848TIP3    H111508   2.809   1.423   1.554  2.5784 -0.9205  0.3247
 3848TIP3    H211509   2.752   1.514   1.661 -0.9202 -1.1970 -1.1750
 3849TIP3   OH211510   3.800   6.196   2.142 -0.4720  0.1755 -0.4287
 3849TIP3    H111511   3.709   6.226   2.146  0.2376  2.3755  0.5577
 3849TIP3    H211512   3.850   6.272   2.113  1.1784 -0.7116 -0.0433
 3850TIP3   OH211513   2.066   6.342   1.981 -0.4205 -0.3067 -0.0464
 3850TIP3    H111514   2.012   6.264   1.992 -1.8184  0.6158 -0.1370
 3850TIP3    H211515   2.045   6.397   2.057  0.3043  0.1305 -0.1489
 3851TIP3   OH211516   3.955   6.312   5.876  0.0624  0.2378 -0.2176
 3851TIP3    H111517   4.021   6.262   5.923 -0.8415  1.0466  2.0095
 3851TIP3    H211518   3.986   6.312   5.785  1.2780 -2.3153  0.1194
 3852TIP3   OH211519   5.612   0.485   1.484 -0.0949  0.3649  0.3376
 3852TIP3    H111520   5.629   0.395   1.455  0.1630  0.3175  0.6325
 3852TIP3    H211521   5.548   0.476   1.555 -0.5746  0.4666 -0.0722
 3853TIP3   OH211522   2.684   1.698   3.077 -0.2434  0.0077  0.0580
 3853TIP3    H111523   2.750   1.719   3.142 -1.3869  0.4519  1.1259
 3853TIP3    H211524   2.684   1.603   3.071  1.4283  0.0332 -1.0043
 3854TIP3   OH211525   2.143   1.705   1.246  0.2231  0.1567  0.2403
 3854TIP3    H111526   2.148   1.677   1.155 -0.8489 -2.3768  0.8681
 3854TIP3    H211527   2.128   1.625   1.295 -1.7184  1.7108  2.4226
 3855TIP3   OH211528   5.595   6.775   0.269 -1.1865  0.2784 -0.3266
 3855TIP3    H111529   5.548   6.805   0.191  1.3729  1.3518 -1.5950
 3855TIP3    H211530   5.551   6.819   0.342 -2.1250  1.2190 -1.4143
 3856TIP3   OH211531   2.195   6.069   1.073 -0.1175  0.3749 -0.3983
 3856TIP3    H111532   2.107   6.064   1.109  0.1331 -1.3078  0.0640
 3856TIP3    H211533   2.245   6.117   1.139  0.2769 -2.4442  1.5391
 3857TIP3   OH211534   4.410   0.170   3.984  0.0694 -0.0210 -0.7884
 3857TIP3    H111535   4.372   0.121   3.911 -0.3165 -0.8373 -0.0653
 3857TIP3    H211536   4.400   0.262   3.959 -0.3067 -0.2812 -1.6346
 3858TIP3   OH211537   7.104   2.070   2.403  1.0730 -0.3188  0.1246
 3858TIP3    H111538   7.114   2.162   2.380 -1.8367 -0.6704 -3.7994
 3858TIP3    H211539   7.018   2.065   2.445  0.8485 -1.2585 -0.4069
 3859TIP3   OH211540   3.374   2.162   2.674 -0.3146  0.0620 -0.6000
 3859TIP3    H111541   3.442   2.224   2.702 -2.3095  1.1743  2.2758
 3859TIP3    H211542   3.292   2.207   2.694 -1.8745 -2.6833 -0.4070
 3860TIP3   OH211543   6.933   0.689   0.559  0.7941  0.0981 -0.0992
 3860TIP3    H111544   6.867   0.625   0.583 -0.3222  1.6652  1.2788
 3860TIP3    H211545   7.004   0.675   0.622  0.8344 -0.2156 -0.2165
 3861TIP3   OH211546   3.395   1.138   2.451 -0.6097 -0.2275 -0.4559
 3861TIP3    H111547   3.345   1.166   2.528  0.0103  0.0422 -0.1414
 3861TIP3    H211548   3.330   1.129   2.382 -1.0477  0.4206 -0.1366
 3862TIP3   OH211549   6.319   3.164   1.560 -0.6976  0.4275 -0.3175
 3862TIP3    H111550   6.303   3.248   1.516 -1.1718  0.1207 -0.7410
 3862TIP3    H211551   6.367   3.187   1.640 -0.1837  1.0322 -0.7932
 3863TIP3   OH211552   0.314   3.800   0.448 -0.2888 -0.2079 -0.0614
 3863TIP3    H111553   0.327   3.710   0.417 -1.1997 -0.4354  0.1946
 3863TIP3    H211554   0.353   3.855   0.379 -0.8278 -0.7607 -0.8284
 3864TIP3   OH211555   1.838   6.223   4.251  0.3891  0.6397  0.1853
 3864TIP3    H111556   1.758   6.254   4.208 -0.4013  1.5249  2.1617
 3864TIP3    H211557   1.818   6.134   4.279 -0.0101  0.9455  0.8895
 3865TIP3   OH211558   0.921   0.049   2.167  1.4214 -0.3556 -0.7615
 3865TIP3    H111559   0.828   0.071   2.173  1.5497  0.5787 -2.0000
 3865TIP3    H211560   0.952   0.094   2.089  3.2757  0.6463  0.4614
 3866TIP3   OH211561   3.314   5.566   4.690 -0.1029 -0.3179  0.0629
 3866TIP3    H111562   3.386   5.599   4.744  0.2330  0.4768 -0.8463
 3866TIP3    H211563   3.301   5.476   4.720  1.8655 -0.7790 -0.3261
 3867TIP3   OH211564   1.086   3.033   2.918  0.1672 -0.0961 -0.0101
 3867TIP3    H111565   1.135   3.114   2.929 -0.5971  0.6543 -1.6899
 3867TIP3    H211566   0.996   3.061   2.900 -0.4704 -1.3750  0.9667
 3868TIP3   OH211567   0.746   5.809   5.676  0.1487 -0.6309  0.0849
 3868TIP3    H111568   0.776   5.766   5.596  1.5986 -1.7411  1.1664
 3868TIP3    H211569   0.821   5.803   5.736 -0.4040  1.3784  1.0881
 3869TIP3   OH211570   4.791   3.396   0.174  0.1891  0.4115 -0.4056
 3869TIP3    H111571   4.760   3.471   0.225  0.8412  0.8674 -0.6645
 3869TIP3    H211572   4.715   3.339   0.167  0.1591  0.1784  1.3354
 3870TIP3   OH211573   4.837   6.002   5.687 -0.3084 -0.1134  0.2527
 3870TIP3    H111574   4.797   5.932   5.738  0.0817 -0.9366 -0.5440
 3870TIP3    H211575   4.896   5.957   5.627  1.2002  1.0088  0.8365
 3871TIP3   OH211576   6.557   0.416   2.976 -0.4874  0.0022 -0.0175
 3871TIP3    H111577   6.543   0.453   2.890  0.7697  1.8593  0.5074
 3871TIP3    H211578   6.471   0.416   3.017 -1.4458 -2.5207 -1.7859
 3872TIP3   OH211579   1.400   4.746   0.549 -0.5384 -0.2542  0.1236
 3872TIP3    H111580   1.487   4.708   0.543 -0.6311 -0.3176 -1.0417
 3872TIP3    H211581   1.409   4.834   0.510 -0.5234  0.6134  1.9801
 3873TIP3   OH211582   2.173   6.810   5.221  0.2796  0.9203  0.7968
 3873TIP3    H111583   2.175   6.793   5.126 -0.2587  0.6224  0.8373
 3873TIP3    H211584   2.216   6.734   5.259 -2.0564 -0.3977  0.9727
 3874TIP3   OH211585   2.710   2.230   0.718 -0.2164 -0.6600  0.4095
 3874TIP3    H111586   2.724   2.222   0.813 -0.4145 -0.0415  0.4910
 3874TIP3    H211587   2.754   2.153   0.681  3.3648  1.0790  0.6609
 3875TIP3   OH211588   2.843   0.408   4.806  0.1981 -0.0440 -0.1419
 3875TIP3    H111589   2.893   0.328   4.822  2.2296  0.7268 -2.0989
 3875TIP3    H211590   2.759   0.377   4.772 -0.0658 -1.3453  1.5621
 3876TIP3   OH211591   0.559   0.899   5.859 -0.1918  0.1610  0.2828
 3876TIP3    H111592   0.630   0.945   5.815 -0.0567 -0.9138 -0.6826
 3876TIP3    H211593   0.554   0.939   5.945  1.1065  0.7422  0.1126
 3877TIP3   OH211594   4.939   1.169   1.449 -0.1443  0.3317 -0.2404
 3877TIP3    H111595   4.977   1.084   1.472  1.0382  1.0388  0.5550
 3877TIP3    H211596   4.863   1.148   1.396  0.0684 -1.2282  0.0267
 3878TIP3   OH211597   2.865   6.294   3.560  0.4012  0.3055  0.2878
 3878TIP3    H111598   2.824   6.342   3.632 -1.1675  1.9408 -1.5446
 3878TIP3    H211599   2.802   6.225   3.539 -0.0244  0.9323 -0.5844
 3879TIP3   OH211600   2.775   2.363   4.403  0.2036  0.4009 -0.6865
 3879TIP3    H111601   2.682   2.366   4.379 -0.3820  0.4033  1.3576
 3879TIP3    H211602   2.796   2.452   4.430  0.4158  0.1117  0.1346
 3880TIP3   OH211603   3.848   2.466   0.923  0.3074 -0.0123  0.6263
 3880TIP3    H111604   3.777   2.407   0.901  0.6036 -0.5537  1.0878
 3880TIP3    H211605   3.867   2.513   0.842  1.1604 -1.7147 -0.2080
 3881TIP3   OH211606   6.000   5.045   3.594 -0.4222  0.4518  0.3653
 3881TIP3    H111607   6.076   4.994   3.620  0.1969  0.8507 -0.5763
 3881TIP3    H211608   5.938   4.981   3.559 -0.4502  0.1433  0.9749
 3882TIP3   OH211609   1.773   5.383   0.978 -0.0932  0.2034 -0.0095
 3882TIP3    H111610   1.763   5.289   0.962  0.7919  0.2150 -0.7647
 3882TIP3    H211611   1.855   5.390   1.028  0.5155  0.6397 -1.0227
 3883TIP3   OH211612   5.005   5.757   4.531 -0.5081 -0.1872  0.1592
 3883TIP3    H111613   5.036   5.700   4.602  2.0349  0.9498  0.0688
 3883TIP3    H211614   5.004   5.845   4.570 -2.1165  0.0526 -0.3667
 3884TIP3   OH211615   1.158   5.193   0.408  0.4024 -0.2430 -0.3355
 3884TIP3    H111616   1.210   5.196   0.328  0.3713  2.9851 -0.3490
 3884TIP3    H211617   1.219   5.218   0.477  0.4284 -2.9945  0.7430
 3885TIP3   OH211618   5.885   3.309   5.718  0.0947  0.2395  0.4188
 3885TIP3    H111619   5.918   3.314   5.628  0.4244 -1.5881  0.4031
 3885TIP3    H211620   5.791   3.324   5.710 -0.3637 -2.5858 -0.6525
 3886TIP3   OH211621   7.007   2.562   4.288 -0.1764 -0.2071 -0.5389
 3886TIP3    H111622   7.097   2.532   4.299 -0.3879 -1.1087 -1.1563
 3886TIP3    H211623   6.953   2.495   4.331 -0.5888 -0.0705 -0.8287
 3887TIP3   OH211624   7.036   2.832   0.631 -0.2336 -0.6372 -0.3357
 3887TIP3    H111625   7.042   2.891   0.556 -0.3784 -0.4646 -0.2132
 3887TIP3    H211626   7.086   2.875   0.700 -0.8985 -0.3227 -0.0357
 3888TIP3   OH211627   0.220   5.805   4.023 -0.2012 -0.3007 -0.2742
 3888TIP3    H111628   0.300   5.852   3.999 -0.4738  0.7073  0.7119
 3888TIP3    H211629   0.247   5.713   4.029  0.8015 -0.0197 -0.3113
 3889TIP3   OH211630   4.389   2.964   3.533 -0.2313  0.0276  0.7687
 3889TIP3    H111631   4.354   2.875   3.524  0.6796 -0.3207  0.4865
 3889TIP3    H211632   4.322   3.012   3.581 -1.0245 -0.6401  0.3541
 3890TIP3   OH211633   4.928   2.097   3.600 -0.4928  0.3755  0.4064
 3890TIP3    H111634   4.902   2.014   3.640 -0.1397 -1.1248 -2.2179
 3890TIP3    H211635   5.014   2.116   3.639 -0.1788 -0.9825  0.4432
 3891TIP3   OH211636   1.364   0.645   2.499  0.4858 -0.3889  0.1552
 3891TIP3    H111637   1.281   0.621   2.457  0.5645 -1.4386  0.5591
 3891TIP3    H211638   1.430   0.631   2.431  0.4965 -1.0915  0.2991
 3892TIP3   OH211639   0.455   3.552   5.181 -0.1114 -0.4973  0.3180
 3892TIP3    H111640   0.521   3.605   5.225  0.3135  0.2074 -1.1213
 3892TIP3    H211641   0.484   3.461   5.195 -0.0038 -0.3062  1.4694
 3893TIP3   OH211642   3.958   3.646   0.975 -0.0703  0.4747  1.0292
 3893TIP3    H111643   4.031   3.699   1.006  0.2038  0.2615  0.7654
 3893TIP3    H211644   3.988   3.613   0.890 -0.6395  0.7248  0.7231
 3894TIP3   OH211645   4.716   3.843   5.031  0.6187  0.1704 -0.0232
 3894TIP3    H111646   4.746   3.810   5.116  0.1531 -1.8432 -0.5865
 3894TIP3    H211647   4.791   3.891   4.996  1.3195 -0.2133  0.8969
 3895TIP3   OH211648   1.940   5.564   2.886 -0.4927 -0.2721 -0.6319
 3895TIP3    H111649   1.976   5.495   2.942 -1.6178  1.3423  2.3326
 3895TIP3    H211650   1.852   5.533   2.864 -0.8005 -0.0685  0.2550
 3896TIP3   OH211651   5.983   1.443   0.844 -0.4939  0.4350  0.0438
 3896TIP3    H111652   6.008   1.530   0.811 -0.9529  0.4049 -0.3876
 3896TIP3    H211653   5.953   1.396   0.767 -0.1809 -0.1355  0.2652
 3897TIP3   OH211654   5.214   4.270   3.703 -0.4028  0.2870  0.2609
 3897TIP3    H111655   5.252   4.315   3.778 -1.6054  1.3615  0.2673
 3897TIP3    H211656   5.263   4.188   3.697  0.5125  0.7065  1.4791
 3898TIP3   OH211657   0.412   5.415   3.604  0.5822  0.3503 -0.0558
 3898TIP3    H111658   0.491   5.452   3.563 -0.4488  2.3958 -0.3252
 3898TIP3    H211659   0.399   5.467   3.683  0.6303 -1.3515  1.1255
 3899TIP3   OH211660   7.101   1.914   5.847 -0.2716 -0.2525 -0.0183
 3899TIP3    H111661   7.037   1.886   5.781 -0.6002  0.6967 -0.1099
 3899TIP3    H211662   7.183   1.873   5.819 -0.4889 -0.1656 -0.8109
 3900TIP3   OH211663   0.117   2.362   3.197  0.2263  0.5410 -0.0708
 3900TIP3    H111664   0.189   2.383   3.256  0.9296  1.0840 -1.0879
 3900TIP3    H211665   0.159   2.337   3.115 -0.7363  0.1829 -0.4806
 3901TIP3   OH211666   2.067   5.607   0.297 -0.2571 -0.4750 -0.0701
 3901TIP3    H111667   1.987   5.577   0.341  0.3351 -1.8889  0.1054
 3901TIP3    H211668   2.133   5.608   0.367 -0.1709  0.9678 -0.1499
 3902TIP3   OH211669   2.574   1.748   2.033  0.4251 -0.5106  0.0831
 3902TIP3    H111670   2.572   1.842   2.017 -1.1829 -0.7527 -1.3582
 3902TIP3    H211671   2.665   1.730   2.056  0.5294  1.5544  1.5898
 3903TIP3   OH211672   6.891   3.964   4.380 -1.0813 -0.1982 -0.5496
 3903TIP3    H111673   6.879   3.881   4.427  0.4429 -0.0785  0.1081
 3903TIP3    H211674   6.820   4.020   4.412 -0.7370 -0.4926  0.8025
 3904TIP3   OH211675   2.703   5.626   2.303 -0.1402  0.4981  0.2770
 3904TIP3    H111676   2.633   5.599   2.243  1.0260 -1.2449 -0.3731
 3904TIP3    H211677   2.657   5.655   2.381 -1.6001 -1.4840  0.2345
 3905TIP3   OH211678   2.008   4.656   2.819  0.1510 -0.0790  0.4206
 3905TIP3    H111679   1.929   4.693   2.780  1.4471 -0.2573 -2.6524
 3905TIP3    H211680   2.076   4.720   2.799  1.3272 -1.3560  0.1941
 3906TIP3   OH211681   2.797   4.491   3.152 -0.4084 -0.3348 -0.1872
 3906TIP3    H111682   2.732   4.467   3.218 -1.5028  0.6084 -0.8948
 3906TIP3    H211683   2.829   4.407   3.119 -0.6928 -0.8117  0.7125
 3907TIP3   OH211684   4.665   5.275   2.309  0.1349  0.0443  0.2819
 3907TIP3    H111685   4.593   5.308   2.256 -0.7517  1.1453  2.1055
 3907TIP3    H211686   4.739   5.332   2.287 -0.2893  0.6462  0.4064
 3908TIP3   OH211687   3.891   4.410   0.499 -0.4464 -0.3225  0.3083
 3908TIP3    H111688   3.821   4.463   0.462  0.4011  1.2771  0.8720
 3908TIP3    H211689   3.971   4.445   0.460  0.1338 -1.3010  0.5823
 3909TIP3   OH211690   7.007   6.195   5.601  0.2144  0.3885 -0.4143
 3909TIP3    H111691   7.059   6.114   5.603  0.1557  0.3229 -1.4003
 3909TIP3    H211692   6.919   6.167   5.577 -0.5613  0.3891  2.0809
 3910TIP3   OH211693   5.301   6.629   1.882 -0.2949  0.4863 -0.7947
 3910TIP3    H111694   5.245   6.609   1.956 -0.1061  3.0183  0.1561
 3910TIP3    H211695   5.386   6.593   1.905 -0.2606  1.1750  0.2256
 3911TIP3   OH211696   2.477   6.376   4.430 -0.1815  0.1257 -0.3788
 3911TIP3    H111697   2.533   6.410   4.360 -0.4130  1.9344  0.2672
 3911TIP3    H211698   2.538   6.358   4.502 -0.0242 -1.1487 -0.8086
 3912TIP3   OH211699   4.380   0.468   4.363  0.6549  0.1228 -0.1373
 3912TIP3    H111700   4.340   0.457   4.277 -2.0553 -0.3414  1.0676
 3912TIP3    H211701   4.382   0.379   4.400  0.6334  0.4746  0.7421
 3913TIP3   OH211702   1.550   6.662   3.011  0.4047  0.3001 -0.2026
 3913TIP3    H111703   1.571   6.726   3.079  0.9530 -0.1159  0.0246
 3913TIP3    H211704   1.554   6.577   3.055 -0.9955  0.1421 -0.3367
 3914TIP3   OH211705   6.253   5.066   3.378  0.6016 -0.6658 -0.3231
 3914TIP3    H111706   6.265   5.087   3.470  1.5078 -0.8382 -0.3926
 3914TIP3    H211707   6.269   4.972   3.372  1.0910 -0.5649 -0.7277
 3915TIP3   OH211708   2.952   5.224   2.138 -0.0686 -0.3939  0.2616
 3915TIP3    H111709   2.862   5.257   2.132  0.4390  1.2803  1.2198
 3915TIP3    H211710   2.988   5.266   2.216  1.2399 -1.8501  0.4844
 3916TIP3   OH211711   3.607   4.738   5.778  0.5174 -0.3669  0.3237
 3916TIP3    H111712   3.677   4.732   5.843  0.0817  0.1854  0.8517
 3916TIP3    H211713   3.652   4.760   5.696  0.8391  1.5194  0.9646
 3917TIP3   OH211714   4.239   0.609   0.095 -0.1033 -0.0946  0.1000
 3917TIP3    H111715   4.184   0.557   0.153  1.0489 -0.4781  0.8615
 3917TIP3    H211716   4.214   0.700   0.114  0.3170 -0.2105  1.2654
 3918TIP3   OH211717   0.466   6.030   4.319 -0.0188 -0.4674  0.0379
 3918TIP3    H111718   0.426   6.013   4.234  1.3709 -0.3372 -0.6665
 3918TIP3    H211719   0.554   5.994   4.313  0.9673  1.6637  0.5511
 3919TIP3   OH211720   5.537   6.505   0.412  0.3818  0.0267  0.3604
 3919TIP3    H111721   5.549   6.588   0.367 -1.4460 -0.0447 -0.3569
 3919TIP3    H211722   5.571   6.439   0.352 -0.3272  0.0863 -0.1197
 3920TIP3   OH211723   0.970   3.447   5.898  0.2068 -0.8386  0.2530
 3920TIP3    H111724   0.937   3.397   5.824 -0.0421 -0.8785  0.3906
 3920TIP3    H211725   1.064   3.429   5.900  0.6013  0.7808 -1.3283
 3921TIP3   OH211726   7.090   0.784   1.897 -0.1983  0.0278  0.0550
 3921TIP3    H111727   7.138   0.837   1.834 -0.2306 -0.1346 -0.1050
 3921TIP3    H211728   7.138   0.701   1.900  0.7447  0.5827  1.4127
 3922TIP3   OH211729   3.877   0.044   1.806  0.6589 -0.0236 -0.5492
 3922TIP3    H111730   3.959   0.002   1.832 -0.5671 -0.1821  3.7818
 3922TIP3    H211731   3.821  -0.029   1.778  0.1056 -0.8845  2.4326
 3923TIP3   OH211732   0.317   5.319   0.616  0.7371 -0.1226  0.0883
 3923TIP3    H111733   0.222   5.310   0.608  0.8092 -0.1688 -0.7218
 3923TIP3    H211734   0.334   5.411   0.595  0.5655  0.7320  3.1854
 3924TIP3   OH211735   3.947   2.108   4.718  0.3791  0.1222  0.4154
 3924TIP3    H111736   3.916   2.039   4.777  0.5396 -0.2596  0.0569
 3924TIP3    H211737   3.983   2.175   4.777  0.0004  0.0142  0.7767
 3925TIP3   OH211738   3.891   6.008   3.592  0.2448  0.2163  0.1738
 3925TIP3    H111739   3.917   6.099   3.575 -1.9726  0.7744 -0.5824
 3925TIP3    H211740   3.909   5.962   3.510 -2.1195  0.8922 -0.8122
 3926TIP3   OH211741   0.263   3.970   4.155 -0.4043  0.5683 -0.4252
 3926TIP3    H111742   0.338   3.935   4.106 -0.4347  0.3058 -0.2859
 3926TIP3    H211743   0.194   3.981   4.089 -0.9196 -1.1516 -0.2015
 3927TIP3   OH211744   6.782   3.294   0.281 -0.1259 -0.8771 -0.2823
 3927TIP3    H111745   6.792   3.280   0.375  1.8015  0.5985 -0.1927
 3927TIP3    H211746   6.859   3.346   0.256 -0.8976 -0.6925 -2.5648
 3928TIP3   OH211747   1.090   2.391   2.049  0.1423 -0.0524 -0.0393
 3928TIP3    H111748   1.014   2.404   2.106  0.6660  0.8219  0.4828
 3928TIP3    H211749   1.145   2.329   2.096  0.1573 -0.0239 -0.0198
 3929TIP3   OH211750   3.237   0.566   5.383  0.3398 -0.5033  0.1126
 3929TIP3    H111751   3.160   0.520   5.416  0.3780  0.2395  1.3032
 3929TIP3    H211752   3.291   0.582   5.461 -0.4931  3.1033  0.1188
 3930TIP3   OH211753   0.088   1.284   3.833 -0.6853  0.0574 -0.0190
 3930TIP3    H111754   0.111   1.344   3.762 -0.3254  0.7688  0.6763
 3930TIP3    H211755   0.144   1.311   3.906 -0.0920 -1.5045  0.1482
 3931TIP3   OH211756   0.878   5.025   4.798  0.9099  0.3632 -0.0180
 3931TIP3    H111757   0.943   4.977   4.849  1.1572  1.6866  0.9485
 3931TIP3    H211758   0.829   5.076   4.862 -0.6071 -0.0207 -0.8158
 3932TIP3   OH211759   5.973   0.048   5.685 -0.1284  0.1257  0.2953
 3932TIP3    H111760   6.027   0.037   5.607 -1.6692  0.5377 -0.8762
 3932TIP3    H211761   5.902   0.106   5.658 -0.7801  0.1873  1.9769
 3933TIP3   OH211762   0.395   3.551   0.339 -0.0237  0.9122  0.7824
 3933TIP3    H111763   0.446   3.498   0.278 -0.9739  1.4020 -0.5009
 3933TIP3    H211764   0.365   3.490   0.405 -1.7741 -0.4251 -1.1009
 3934TIP3   OH211765   0.179   6.704   3.900  0.0365  0.3511 -0.1468
 3934TIP3    H111766   0.241   6.632   3.888 -1.8607 -1.3243 -0.4215
 3934TIP3    H211767   0.092   6.664   3.891 -1.1204  2.7809 -0.9482
 3935TIP3   OH211768   4.481   1.710   4.302 -0.7201 -0.7134 -0.0656
 3935TIP3    H111769   4.493   1.781   4.238 -1.1777  0.3509  0.9917
 3935TIP3    H211770   4.452   1.635   4.250 -0.9664  0.0968 -1.1201
 3936TIP3   OH211771   4.117   2.146   4.996  0.1363 -0.0789 -0.0844
 3936TIP3    H111772   4.134   2.216   4.933 -1.3856  0.5546  0.1848
 3936TIP3    H211773   4.147   2.180   5.080  0.0832 -0.0332 -0.0836
 3937TIP3   OH211774   2.472   6.203   2.142  0.2370  0.2001 -0.4339
 3937TIP3    H111775   2.449   6.181   2.232  2.2898 -0.4675 -0.0204
 3937TIP3    H211776   2.424   6.283   2.124 -1.0864 -0.2659  0.8540
 3938TIP3   OH211777  -0.010   2.507   4.448 -0.5961  0.6255  0.2379
 3938TIP3    H111778   0.017   2.560   4.523 -1.5105  2.8785 -0.9388
 3938TIP3    H211779   0.071   2.494   4.398 -0.0789 -0.4716  1.3082
 3939TIP3   OH211780   1.019   0.895   3.100  0.9151  0.6024 -0.4047
 3939TIP3    H111781   1.057   0.981   3.117 -0.1949  1.5986 -2.5216
 3939TIP3    H211782   0.933   0.898   3.140  0.8126  0.5503 -0.6172
 3940TIP3   OH211783   5.262   5.754   1.712 -0.1532 -0.4474 -0.2670
 3940TIP3    H111784   5.202   5.799   1.772 -0.3319 -0.5443 -0.3712
 3940TIP3    H211785   5.320   5.823   1.680 -0.4432 -0.2817 -0.4462
 3941TIP3   OH211786   2.817   2.517   1.841 -0.1171  0.1145 -0.5807
 3941TIP3    H111787   2.758   2.485   1.910  0.4102 -0.6253 -0.4634
 3941TIP3    H211788   2.860   2.593   1.880  0.1423 -0.2691 -0.1002
 3942TIP3   OH211789   1.918   4.958   2.227  0.4242  0.3842 -0.6391
 3942TIP3    H111790   2.011   4.979   2.230  0.6244 -0.4887 -0.2686
 3942TIP3    H211791   1.879   5.009   2.299  0.8076 -0.0988 -0.0820
 3943TIP3   OH211792   5.752   0.174   0.608 -0.3852  0.3619  0.0217
 3943TIP3    H111793   5.668   0.210   0.579  0.7262  2.3854 -1.0109
 3943TIP3    H211794   5.768   0.215   0.693  0.0691  0.9988 -0.3493
 3944TIP3   OH211795   1.906   5.406   4.870  0.0094  0.8511 -0.4018
 3944TIP3    H111796   1.918   5.392   4.776  0.5342  1.0841 -0.3672
 3944TIP3    H211797   1.932   5.496   4.885  1.8280  0.2622  0.2887
 3945TIP3   OH211798   6.195   5.816   0.571  0.4799  0.3703 -0.2837
 3945TIP3    H111799   6.226   5.890   0.519  0.3047  0.7547  0.1528
 3945TIP3    H211800   6.165   5.752   0.506 -0.3672  1.1161 -0.6580
 3946TIP3   OH211801   4.225   0.381   3.344  0.4581 -0.4574 -0.4357
 3946TIP3    H111802   4.211   0.463   3.392 -0.8144 -1.5165  1.1168
 3946TIP3    H211803   4.173   0.390   3.264  2.4800  1.2745 -1.6665
 3947TIP3   OH211804   5.138   5.500   0.319 -0.0273  0.8120  0.4457
 3947TIP3    H111805   5.110   5.409   0.308  0.5553  0.5484  1.0488
 3947TIP3    H211806   5.060   5.551   0.303 -0.0854  0.2765 -1.1036
 3948TIP3   OH211807   4.467   2.213   5.622 -0.5969 -0.0301  0.5262
 3948TIP3    H111808   4.465   2.237   5.714 -1.9510 -1.0721  0.8011
 3948TIP3    H211809   4.518   2.132   5.620  1.4039  1.1789  0.0122
 3949TIP3   OH211810   1.581   4.654   5.223  0.6632 -0.5264 -0.2087
 3949TIP3    H111811   1.507   4.594   5.232 -1.5366  1.9733 -0.3846
 3949TIP3    H211812   1.613   4.639   5.134  0.6912 -1.9850  0.0288
 3950TIP3   OH211813   6.013   1.694   2.771  0.5518  0.4405  0.1044
 3950TIP3    H111814   5.946   1.679   2.705  0.7635  1.4321 -0.3583
 3950TIP3    H211815   5.970   1.746   2.838  0.6266  0.3559  0.2183
 3951TIP3   OH211816   0.496   6.001   1.402 -0.4438  0.2463  0.4082
 3951TIP3    H111817   0.512   5.975   1.493 -2.3021 -1.0973  0.3968
 3951TIP3    H211818   0.425   6.065   1.408  0.8349  1.7760  0.0191
 3952TIP3   OH211819   5.757   1.340   4.882  1.0608  0.0107  0.1928
 3952TIP3    H111820   5.840   1.295   4.898  0.3807 -0.6279  2.1317
 3952TIP3    H211821   5.726   1.366   4.968  0.2925  2.2288 -0.6809
 3953TIP3   OH211822   7.085   0.850   0.829 -0.2288 -0.3677  0.2832
 3953TIP3    H111823   7.117   0.768   0.792 -0.6023 -0.7326  0.7588
 3953TIP3    H211824   7.160   0.885   0.878  1.5463  1.9469 -3.6133
 3954TIP3   OH211825   2.607   3.975   3.453 -0.4774 -0.8120 -0.5874
 3954TIP3    H111826   2.687   3.930   3.427  0.8343  1.0719  0.0217
 3954TIP3    H211827   2.572   4.012   3.372  0.0462 -0.4593 -0.6546
 3955TIP3   OH211828   3.502   3.680   1.336  0.0462 -0.2793 -0.3942
 3955TIP3    H111829   3.434   3.655   1.273 -1.8081  2.0844  0.5434
 3955TIP3    H211830   3.549   3.751   1.293  0.9378 -0.8384 -0.3737
 3956TIP3   OH211831   2.472   0.029   4.990 -0.5668  0.4154 -0.0527
 3956TIP3    H111832   2.418   0.097   5.030 -0.9014  0.5978 -0.7965
 3956TIP3    H211833   2.411  -0.021   4.935 -0.3562 -0.5907  0.6091
 3957TIP3   OH211834   6.715   3.854   2.407  0.2910  0.3009  0.2583
 3957TIP3    H111835   6.627   3.824   2.386  0.1978  1.5867 -1.3861
 3957TIP3    H211836   6.770   3.776   2.397 -0.4985 -0.2588  0.1667
 3958TIP3   OH211837   2.784   1.419   5.380 -0.2476  0.1524 -0.7484
 3958TIP3    H111838   2.701   1.465   5.371  0.9195  2.0736 -2.5943
 3958TIP3    H211839   2.831   1.467   5.448 -0.1101 -0.0618 -0.6893
 3959TIP3   OH211840   1.041   3.401   3.549  0.3882  0.2192  0.4049
 3959TIP3    H111841   0.975   3.454   3.504 -0.1555 -1.9151 -1.4979
 3959TIP3    H211842   1.030   3.423   3.642 -0.4780  2.6019 -0.1826
 3960TIP3   OH211843   0.988   4.658   3.760  0.3034  0.1768  1.2162
 3960TIP3    H111844   0.907   4.630   3.719  1.8501 -0.8676 -1.4314
 3960TIP3    H211845   1.008   4.590   3.824 -0.4669 -0.0263  1.2421
 3961TIP3   OH211846   2.286   3.034   0.032  0.3365 -0.1211 -0.1482
 3961TIP3    H111847   2.363   3.089   0.044  0.0820  0.5229 -1.3296
 3961TIP3    H211848   2.220   3.092  -0.006 -0.3290 -0.9600 -0.3238
 3962TIP3   OH211849   4.318   6.702   4.448 -0.2324 -0.3401  0.1724
 3962TIP3    H111850   4.342   6.610   4.437  0.4739 -0.0680 -0.5855
 3962TIP3    H211851   4.389   6.739   4.501 -0.1732 -0.0730 -0.0945
 3963TIP3   OH211852   6.893   2.628   1.281 -0.3847  0.1366 -0.5227
 3963TIP3    H111853   6.824   2.566   1.255 -0.3191  0.0912 -0.5873
 3963TIP3    H211854   6.943   2.643   1.201 -0.5732  0.4935 -0.5748
 3964TIP3   OH211855   7.221   1.644   0.527 -0.0487  0.3226  0.7266
 3964TIP3    H111856   7.169   1.651   0.447 -1.1950 -0.0247  1.4076
 3964TIP3    H211857   7.237   1.734   0.554  1.1337  0.4578 -0.3686
 3965TIP3   OH211858   3.420   6.196   4.657  0.7875 -0.4385 -0.3364
 3965TIP3    H111859   3.328   6.218   4.642  0.7279  0.9076  1.5879
 3965TIP3    H211860   3.468   6.263   4.608  0.6759  0.2343  0.4381
 3966TIP3   OH211861   3.368   1.167   0.481 -0.5575 -0.0780 -0.3444
 3966TIP3    H111862   3.275   1.146   0.493 -0.4145  0.5770  3.2115
 3966TIP3    H211863   3.369   1.261   0.466 -0.4835 -0.0157  0.0308
 3967TIP3   OH211864   6.919   3.304   1.659 -0.1335  0.3602 -0.2457
 3967TIP3    H111865   6.835   3.258   1.651 -0.6757  1.2589  0.1744
 3967TIP3    H211866   6.953   3.276   1.744  0.1970 -0.3123 -0.5874
 3968TIP3   OH211867   1.518   4.180   0.677 -0.0407 -0.8037 -0.2497
 3968TIP3    H111868   1.460   4.137   0.740 -0.8437  0.7223  0.0967
 3968TIP3    H211869   1.489   4.148   0.591  0.7281 -2.4983  0.0867
 3969TIP3   OH211870   7.042   3.930   1.284 -0.2290 -0.2628  0.2645
 3969TIP3    H111871   7.072   3.868   1.351  0.1419 -0.1273  0.2269
 3969TIP3    H211872   6.949   3.911   1.275 -0.0506 -1.0691 -0.0096
 3970TIP3   OH211873   7.181   5.422   4.971 -0.2327 -0.3150 -0.2269
 3970TIP3    H111874   7.235   5.489   5.012  1.2465 -1.8817  0.5105
 3970TIP3    H211875   7.223   5.403   4.887 -1.9670  1.2635 -1.5374
 3971TIP3   OH211876   2.196   2.233   5.104 -0.2018 -0.4369 -0.7015
 3971TIP3    H111877   2.198   2.183   5.185  0.3691 -1.4612 -1.3290
 3971TIP3    H211878   2.108   2.219   5.069 -0.7417  0.6918  0.1311
 3972TIP3   OH211879   6.844   2.274   3.949  0.2057 -0.1735  0.5448
 3972TIP3    H111880   6.799   2.348   3.988  0.2250 -0.5297  1.2599
 3972TIP3    H211881   6.937   2.289   3.967  0.2189 -0.3152  0.6027
 3973TIP3   OH211882   0.366   2.374   0.490  0.3153  0.0800 -0.2507
 3973TIP3    H111883   0.290   2.338   0.446 -0.1255  1.6663 -0.8452
 3973TIP3    H211884   0.413   2.297   0.523 -1.4594 -0.9377  0.0345
 3974TIP3   OH211885   5.979   1.863   3.279  0.0942  0.1239  0.4022
 3974TIP3    H111886   5.921   1.822   3.344 -0.0324 -1.8243 -0.8584
 3974TIP3    H211887   5.942   1.950   3.265 -1.4985 -0.4368  0.9220
 3975TIP3   OH211888   3.046   6.593   4.884  0.4092  0.8156  0.0315
 3975TIP3    H111889   3.068   6.519   4.827 -1.2140  0.3511 -0.0436
 3975TIP3    H211890   3.114   6.658   4.866  2.4650 -0.9985  0.8307
 3976TIP3   OH211891   2.820   5.267   4.423  0.1372  0.0948  0.3936
 3976TIP3    H111892   2.823   5.255   4.518  1.3650 -1.1627  0.2344
 3976TIP3    H211893   2.738   5.227   4.396 -0.3472  0.7026  0.9476
 3977TIP3   OH211894   6.324   5.678   5.169 -0.3999 -0.3495 -0.5240
 3977TIP3    H111895   6.319   5.747   5.103 -0.4253 -1.9366 -2.2600
 3977TIP3    H211896   6.415   5.648   5.167 -0.3520 -0.2861  0.3109
 3978TIP3   OH211897   2.619   2.203   4.166  0.6036  0.1182  0.9566
 3978TIP3    H111898   2.593   2.207   4.258  2.7290 -0.1328  1.6336
 3978TIP3    H211899   2.637   2.110   4.151  1.1653  0.2857  0.5706
 3979TIP3   OH211900   2.967   1.547   4.325 -0.0192 -0.4088  0.2750
 3979TIP3    H111901   2.905   1.481   4.357 -0.9700 -0.5873 -1.7542
 3979TIP3    H211902   2.911   1.618   4.293  0.6228 -1.2182 -3.0265
 3980TIP3   OH211903   0.494   6.322   1.988 -0.1927  0.0193  0.1101
 3980TIP3    H111904   0.556   6.360   2.051 -0.2407  0.9167 -0.3599
 3980TIP3    H211905   0.549   6.274   1.926  0.0247  0.5936 -0.1532
 3981TIP3   OH211906   5.422   2.216   2.323  0.2873 -0.1506 -0.2379
 3981TIP3    H111907   5.457   2.258   2.245 -1.4456 -1.4993 -1.8499
 3981TIP3    H211908   5.341   2.264   2.342 -0.0130 -0.7015 -0.1065
 3982TIP3   OH211909   1.449   6.108   1.229  0.0823 -0.0134 -0.0504
 3982TIP3    H111910   1.422   6.174   1.166 -0.8489 -1.6410 -1.4241
 3982TIP3    H211911   1.382   6.112   1.298 -1.1543 -0.8894 -1.1561
 3983TIP3   OH211912   6.322   0.356   4.353 -0.5345  0.3911 -0.1023
 3983TIP3    H111913   6.363   0.428   4.402 -2.2244  1.3043  0.0497
 3983TIP3    H211914   6.240   0.339   4.400 -0.3700 -1.3773 -0.3882
 3984TIP3   OH211915   3.630   2.632   5.471  0.0972 -0.0736  0.1552
 3984TIP3    H111916   3.579   2.595   5.398  1.7232 -0.3161 -0.9237
 3984TIP3    H211917   3.687   2.560   5.499 -0.8523 -0.1452  2.0690
 3985TIP3   OH211918   0.858   3.189   3.314 -0.4851 -0.2958 -0.3534
 3985TIP3    H111919   0.815   3.137   3.246 -1.5391 -0.4464  0.3872
 3985TIP3    H211920   0.907   3.126   3.366 -0.0468 -0.2469 -0.7119
 3986TIP3   OH211921   6.880   2.272   3.111 -0.2811  0.4039 -0.1206
 3986TIP3    H111922   6.831   2.275   3.193 -0.8342  0.0257 -0.4309
 3986TIP3    H211923   6.831   2.210   3.056 -0.3052  1.1682 -0.9813
 3987TIP3   OH211924   6.625   6.454   0.616  0.5232 -0.2094 -0.2683
 3987TIP3    H111925   6.652   6.496   0.534 -1.3100  1.0518 -0.2714
 3987TIP3    H211926   6.673   6.501   0.684  1.1117 -0.4352 -0.5235
 3988TIP3   OH211927   2.213   4.222   5.535 -0.0236 -0.2881 -0.4686
 3988TIP3    H111928   2.158   4.146   5.554 -0.4304 -0.3288 -1.7273
 3988TIP3    H211929   2.264   4.196   5.458  1.9684 -0.3393  0.7992
 3989TIP3   OH211930   6.546   0.148   4.478  1.0274  0.1037  0.1653
 3989TIP3    H111931   6.595   0.164   4.398 -1.0177 -0.3646 -1.2559
 3989TIP3    H211932   6.565   0.057   4.501  3.6546  0.9304  1.7940
 3990TIP3   OH211933   1.497   5.155   0.583  0.2507 -0.2674  0.4687
 3990TIP3    H111934   1.521   5.200   0.664  0.2598  0.0122  0.3106
 3990TIP3    H211935   1.544   5.202   0.515 -0.1403 -0.2005  0.2442
 3991TIP3   OH211936   1.953   2.998   0.994 -0.2519 -0.0801 -0.4074
 3991TIP3    H111937   2.012   2.949   0.936 -1.1941 -0.8641 -0.7300
 3991TIP3    H211938   1.900   2.931   1.036  0.3616  0.4816  1.3476
 3992TIP3   OH211939   3.661   2.667   3.940 -0.0772 -0.2611  0.1066
 3992TIP3    H111940   3.701   2.650   3.855  3.4371 -0.2639  1.5805
 3992TIP3    H211941   3.724   2.723   3.985 -2.6896  1.2959  2.0775
 3993TIP3   OH211942   4.807   3.960   5.507  0.0024  0.0131 -0.2023
 3993TIP3    H111943   4.853   3.937   5.427  0.0418 -0.8044  0.0443
 3993TIP3    H211944   4.866   4.022   5.551 -0.1393  0.6653 -0.9142
 3994TIP3   OH211945   4.026   1.456   3.931 -0.0121 -0.1917  0.0150
 3994TIP3    H111946   4.021   1.534   3.985  0.4262  0.6896 -1.1571
 3994TIP3    H211947   3.941   1.413   3.942  0.4256 -0.5741  2.1284
 3995TIP3   OH211948   4.565   3.028   1.220  0.3031 -0.0543  0.5975
 3995TIP3    H111949   4.550   3.054   1.311  0.4877  0.0615  0.5952
 3995TIP3    H211950   4.479   3.037   1.179  0.2378 -0.0185  0.7387
 3996TIP3   OH211951   3.453   4.267   4.135 -0.2657  0.4639  0.1763
 3996TIP3    H111952   3.540   4.236   4.110  0.0703 -0.2714  2.1518
 3996TIP3    H211953   3.426   4.210   4.207 -2.6994  0.2239 -0.8053
 3997TIP3   OH211954   4.081   5.943   3.068  0.5034 -0.0289 -0.5869
 3997TIP3    H111955   4.146   5.936   2.998  1.8953 -0.8196  0.7392
 3997TIP3    H211956   4.031   5.862   3.064  1.6456 -0.8135  0.3090
 3998TIP3   OH211957   4.077   4.932   4.524 -0.3392 -0.2757  0.0379
 3998TIP3    H111958   4.154   4.910   4.576 -1.1938 -0.4560  1.2823
 3998TIP3    H211959   4.006   4.882   4.565 -1.2391  0.4003 -0.6527
 3999TIP3   OH211960   4.204   3.331   3.273  0.0955 -0.2779 -0.2200
 3999TIP3    H111961   4.296   3.324   3.299 -0.1132 -0.1093  0.5821
 3999TIP3    H211962   4.183   3.246   3.235  0.4550 -0.4686  0.0089
 4000TIP3   OH211963   5.423   4.131   5.836  0.1109  0.1823  0.4195
 4000TIP3    H111964   5.495   4.077   5.869 -0.7352 -1.3805 -0.1871
 4000TIP3    H211965   5.347   4.073   5.836 -0.6615  1.1296 -1.0242
 4001TIP3   OH211966   1.371   2.650   1.371 -0.0195  0.3966  0.4398
 4001TIP3    H111967   1.277   2.668   1.376  0.2753  1.9209  1.0224
 4001TIP3    H211968   1.379   2.578   1.308 -1.4360  1.4371 -0.9984
 4002TIP3   OH211969   1.841   6.455   4.019 -0.1215 -0.9259 -0.3239
 4002TIP3    H111970   1.859   6.502   3.938  2.8918  1.6714  1.5857
 4002TIP3    H211971   1.872   6.365   4.003 -1.3923 -1.0343 -2.5308
 4003TIP3   OH211972   2.228   2.837   2.344 -0.3744 -0.4010 -0.3446
 4003TIP3    H111973   2.239   2.916   2.397 -0.5261 -1.6315  1.5975
 4003TIP3    H211974   2.268   2.860   2.259 -0.8466  1.8982 -0.0137
 4004TIP3   OH211975   7.164   2.120   0.253 -0.7033  1.1105  0.3459
 4004TIP3    H111976   7.194   2.047   0.199 -1.3159  0.7463  0.4832
 4004TIP3    H211977   7.140   2.189   0.190 -0.3721  1.0954  0.2039
 4005TIP3   OH211978   5.533   2.387   4.187 -0.0688  0.1626  0.0188
 4005TIP3    H111979   5.565   2.427   4.106  0.2135 -0.5075 -0.2084
 4005TIP3    H211980   5.493   2.459   4.235 -1.3179  0.3530 -1.2504
 4006TIP3   OH211981   0.860   0.959   5.061 -0.0269  0.5340  0.4886
 4006TIP3    H111982   0.837   0.866   5.058 -3.2386  1.1068  2.4958
 4006TIP3    H211983   0.913   0.968   5.140 -0.6477  0.5073  0.9232
 4007TIP3   OH211984   4.696   4.405   5.601  0.4642 -0.9454  0.2650
 4007TIP3    H111985   4.701   4.355   5.683  0.1625  0.0787  0.9447
 4007TIP3    H211986   4.677   4.494   5.630 -2.3691 -1.0192 -1.0188
 4008TIP3   OH211987   1.429   3.804   4.071 -0.4593 -0.2840 -0.1110
 4008TIP3    H111988   1.416   3.712   4.049  0.6228 -0.9412  1.7416
 4008TIP3    H211989   1.344   3.834   4.103 -0.7528 -0.7014 -0.4849
 4009TIP3   OH211990   1.874   3.787   0.018  0.3114 -0.2833  0.2334
 4009TIP3    H111991   1.939   3.794   0.088  0.7129  1.2255 -0.2509
 4009TIP3    H211992   1.926   3.785  -0.063 -0.1743  2.6503 -0.2805
 4010TIP3   OH211993   3.015   4.763   2.746 -0.4891  0.2789  0.8571
 4010TIP3    H111994   2.966   4.815   2.810 -0.2897  0.1162  1.1453
 4010TIP3    H211995   3.007   4.673   2.777  0.6180  0.3261  1.3354
 4011TIP3   OH211996   4.001   5.434   3.243  0.0045 -0.5738 -0.4586
 4011TIP3    H111997   3.948   5.354   3.246 -1.2568  0.2560 -0.1560
 4011TIP3    H211998   3.939   5.505   3.260  1.1975  0.4386 -0.2248
 4012TIP3   OH211999   2.070   4.573   5.503 -0.2898  0.6750 -0.0131
 4012TIP3    H112000   1.991   4.577   5.556 -1.1857 -0.2122 -1.2119
 4012TIP3    H212001   2.097   4.481   5.507 -0.1061  0.6951 -0.6897
 4013TIP3   OH212002   2.516   3.426   5.462 -0.3301  0.6505 -0.0584
 4013TIP3    H112003   2.514   3.451   5.554 -0.8639 -0.6783  0.3060
 4013TIP3    H212004   2.604   3.392   5.448 -0.8656 -1.0975  0.5324
 4014TIP3   OH212005   6.346   2.205   1.465 -0.6672 -0.2469  0.3715
 4014TIP3    H112006   6.361   2.272   1.397  2.4486 -1.9010 -0.7767
 4014TIP3    H212007   6.379   2.245   1.545 -0.1600  0.1281 -0.0117
 4015TIP3   OH212008   3.938   4.098   1.641  0.5465 -0.0284 -0.5485
 4015TIP3    H112009   3.904   4.022   1.594 -2.4791  0.8035  0.0595
 4015TIP3    H212010   3.921   4.080   1.733  1.4860  0.6240 -0.2264
 4016TIP3   OH212011   2.403   2.420   2.785  0.1750  0.8248 -0.3284
 4016TIP3    H112012   2.411   2.341   2.839 -0.0144 -0.1027 -1.6155
 4016TIP3    H212013   2.487   2.426   2.738  0.7537  2.2137  0.7869
 4017TIP3   OH212014   6.180   1.361   3.745 -0.1121  0.3990  0.4363
 4017TIP3    H112015   6.220   1.281   3.712 -1.9838 -0.0316 -0.9718
 4017TIP3    H212016   6.156   1.410   3.666 -1.1523  1.2045  1.2247
 4018TIP3   OH212017   5.166   5.225   0.562  0.2385  0.1464  0.0824
 4018TIP3    H112018   5.128   5.151   0.609  2.4417 -0.0713  1.6563
 4018TIP3    H212019   5.091   5.280   0.540 -1.0389 -0.2259  3.0768
 4019TIP3   OH212020   3.532   5.915   1.686 -0.2173  0.1456 -0.2333
 4019TIP3    H112021   3.614   5.962   1.671 -0.1053 -0.4213 -1.4624
 4019TIP3    H212022   3.518   5.922   1.781  1.4024 -0.0104  0.0459
 4020TIP3   OH212023   3.388   6.599   4.350 -0.1700 -0.3426  0.1393
 4020TIP3    H112024   3.296   6.595   4.377 -0.4943 -2.3635 -1.0922
 4020TIP3    H212025   3.394   6.541   4.275  1.9317  0.5547 -0.4701
 4021TIP3   OH212026   6.314   0.771   5.483 -0.2727  0.5500 -0.4638
 4021TIP3    H112027   6.359   0.812   5.409 -0.7377  2.4707  0.2738
 4021TIP3    H212028   6.221   0.788   5.467 -0.2993  2.8284  1.5096
 4022TIP3   OH212029   0.222   5.845   1.279 -0.0481 -0.3258 -0.0502
 4022TIP3    H112030   0.315   5.863   1.267 -0.3355  0.0273 -2.0295
 4022TIP3    H212031   0.216   5.806   1.367  1.6400  1.8451  1.1299
 4023TIP3   OH212032   2.683   2.626   2.863 -0.0927 -0.6134  0.2928
 4023TIP3    H112033   2.693   2.598   2.772 -0.1953  0.2194  0.0208
 4023TIP3    H212034   2.614   2.693   2.861  0.2539 -0.2242  0.9063
 4024TIP3   OH212035   6.942   4.549   4.636 -0.1168  0.0230 -0.5992
 4024TIP3    H112036   6.989   4.572   4.716  0.1860  0.3864 -0.8754
 4024TIP3    H212037   6.998   4.582   4.565 -1.6789  2.1986 -0.9014
 4025TIP3   OH212038   5.093   3.531   5.448 -0.1398 -0.0579 -0.2200
 4025TIP3    H112039   5.044   3.588   5.507  0.2116  1.8916 -1.7173
 4025TIP3    H212040   5.050   3.446   5.456 -1.5813  0.7400  1.0598
 4026TIP3   OH212041   1.388   4.252   2.060  0.0770  0.2140 -0.9378
 4026TIP3    H112042   1.466   4.300   2.088 -0.2792  0.8397 -1.0182
 4026TIP3    H212043   1.390   4.172   2.113 -0.6651  1.4411  1.0187
 4027TIP3   OH212044   5.690   5.600   3.191  0.6143 -0.4489 -0.1336
 4027TIP3    H112045   5.739   5.683   3.194 -1.3939  0.8098 -0.4200
 4027TIP3    H212046   5.605   5.624   3.154 -0.8193 -2.2320  1.7752
 4028TIP3   OH212047   3.474   5.589   3.902 -0.5273  0.3363 -0.0063
 4028TIP3    H112048   3.409   5.524   3.878  0.6886 -0.4582 -1.3300
 4028TIP3    H212049   3.492   5.573   3.995  0.3041 -1.7875 -0.4664
 4029TIP3   OH212050   0.580   0.043   0.463  0.1166  0.4857 -0.2687
 4029TIP3    H112051   0.531   0.084   0.392  0.7446 -0.5034 -1.3129
 4029TIP3    H212052   0.526  -0.032   0.489  0.2435  0.4152 -0.2092
 4030TIP3   OH212053   5.170   4.316   1.323  0.1759 -0.5307 -0.1994
 4030TIP3    H112054   5.168   4.253   1.396 -0.7348 -1.0093 -0.6188
 4030TIP3    H212055   5.223   4.388   1.355  0.0911 -0.9020  0.8105
 4031TIP3   OH212056   0.867   3.706   4.436 -0.1770  0.0935  0.3446
 4031TIP3    H112057   0.800   3.720   4.503 -0.0416  0.5097  0.3938
 4031TIP3    H212058   0.942   3.670   4.484 -0.2125  0.0352  0.3566
 4032TIP3   OH212059   5.984   5.468   3.373 -0.2065 -0.2815  0.1579
 4032TIP3    H112060   5.968   5.468   3.279 -0.2571  1.0997  0.1420
 4032TIP3    H212061   5.941   5.547   3.405  0.4319 -0.3434  1.2282
 4033TIP3   OH212062   1.933   2.622   1.213  0.0277  0.3567  0.6079
 4033TIP3    H112063   1.905   2.599   1.124  1.2096 -5.7162  1.3750
 4033TIP3    H212064   1.852   2.620   1.264 -0.0404 -3.4178  0.6155
 4034TIP3   OH212065   2.402   0.208   5.512  0.3336  0.2424  0.0845
 4034TIP3    H112066   2.437   0.161   5.587 -3.0517 -3.6014 -0.3915
 4034TIP3    H212067   2.442   0.166   5.436  1.2941  1.9114 -0.3814
 4035TIP3   OH212068   2.151   2.798   5.045 -0.2152  0.7702  0.0517
 4035TIP3    H112069   2.209   2.736   5.090 -1.2283 -0.3490 -0.1513
 4035TIP3    H212070   2.079   2.812   5.105 -0.3383  1.2190 -0.1952
 4036TIP3   OH212071   2.178   4.388   0.726  0.3981  0.5162 -0.3269
 4036TIP3    H112072   2.175   4.329   0.651 -0.5608 -0.7874  0.6884
 4036TIP3    H212073   2.129   4.342   0.794 -0.7402  2.6778  0.3854
 4037TIP3   OH212074   5.267   0.147   0.726  0.4764  0.2781 -0.1762
 4037TIP3    H112075   5.312   0.143   0.810  0.1405  1.2000  0.0654
 4037TIP3    H212076   5.250   0.240   0.712 -0.1295  0.0739 -0.9138
 4038TIP3   OH212077   1.751   6.034   3.409  0.3995 -0.0527  0.1142
 4038TIP3    H112078   1.793   5.974   3.470  1.8754 -1.7026 -2.3481
 4038TIP3    H212079   1.661   6.001   3.400 -0.2111  0.9129  2.1644
 4039TIP3   OH212080   4.317   2.190   1.917 -0.2723  0.3145 -0.1857
 4039TIP3    H112081   4.406   2.223   1.927 -0.7903  1.9542 -0.6715
 4039TIP3    H212082   4.327   2.111   1.864  1.0299 -0.4187  1.0793
 4040TIP3   OH212083   3.291   1.256   2.942  0.1495  0.0921 -0.0248
 4040TIP3    H112084   3.307   1.164   2.922 -0.5819  0.0077 -0.2543
 4040TIP3    H212085   3.208   1.257   2.989  1.7693  0.3051  3.0933
 4041TIP3   OH212086   0.093   6.531   2.771  0.0860 -0.7200 -0.4573
 4041TIP3    H112087   0.092   6.535   2.866 -0.2251 -0.5238 -0.4656
 4041TIP3    H212088   0.082   6.622   2.743 -1.6730 -0.9588 -0.6768
 4042TIP3   OH212089   4.264   2.950   1.895 -0.4618  0.4340 -0.2379
 4042TIP3    H112090   4.286   2.868   1.850  1.5055  0.9492 -0.3208
 4042TIP3    H212091   4.331   2.959   1.963 -0.9150  1.7402  0.0692
 4043TIP3   OH212092   2.625   3.817   2.833  0.6857 -0.2059 -0.4410
 4043TIP3    H112093   2.695   3.878   2.808  2.0724 -0.9060  1.4973
 4043TIP3    H212094   2.568   3.867   2.890  2.0767 -0.7519  1.5242
 4044TIP3   OH212095   2.397   5.878   3.406  0.4907  0.4277 -0.5966
 4044TIP3    H112096   2.488   5.885   3.377  0.8140 -0.5090  0.1391
 4044TIP3    H212097   2.395   5.921   3.491  0.5301 -0.6049 -0.0596
 4045TIP3   OH212098   4.653   2.017   1.002  0.2796 -0.5161 -0.1671
 4045TIP3    H112099   4.655   1.946   1.066  0.9522 -0.9782 -0.6864
 4045TIP3    H212100   4.579   1.996   0.945 -1.1123  0.5554  1.1629
 4046TIP3   OH212101   0.339   5.826   5.651  0.0562 -0.3959 -0.2507
 4046TIP3    H112102   0.415   5.812   5.596 -0.3604 -0.4726 -0.8120
 4046TIP3    H212103   0.370   5.809   5.740  0.5007 -1.1658 -0.5476
 4047TIP3   OH212104   1.123   5.145   5.003  0.1788  0.1517 -0.2508
 4047TIP3    H112105   1.062   5.204   5.047  1.3481  0.8095  0.5349
 4047TIP3    H212106   1.105   5.059   5.041 -0.1535  0.3646  0.0769
 4048TIP3   OH212107   5.272   2.455   1.547 -0.4653 -0.0932 -0.0342
 4048TIP3    H112108   5.358   2.474   1.510 -0.9122  1.0839 -0.5055
 4048TIP3    H212109   5.282   2.471   1.641  0.5119 -2.5260  0.3553
 4049TIP3   OH212110   5.746   2.419   0.950 -0.2658  0.0545 -0.2009
 4049TIP3    H112111   5.721   2.466   0.870 -1.5045 -1.2865 -0.6331
 4049TIP3    H212112   5.753   2.488   1.016 -1.3969  0.9361 -0.9569
 4050TIP3   OH212113   5.087   6.670   0.957  0.1742 -0.6445 -0.8000
 4050TIP3    H112114   5.024   6.622   0.903 -0.5012  0.1747 -0.7543
 4050TIP3    H212115   5.173   6.645   0.922 -0.2624  0.3478 -2.6991
 4051TIP3   OH212116   1.403   1.456   2.626  0.2208  0.2450 -0.1433
 4051TIP3    H112117   1.405   1.372   2.580  0.9848  0.8205 -1.1872
 4051TIP3    H212118   1.337   1.507   2.580 -1.4920 -0.3027  1.5242
 4052TIP3   OH212119   3.894   3.307   4.786  0.3147 -0.3116  0.5964
 4052TIP3    H112120   3.910   3.323   4.693  0.4475  0.8060  0.7989
 4052TIP3    H212121   3.815   3.357   4.807  0.2338 -0.6249  1.0651
 4053TIP3   OH212122   6.254   2.826   5.402  0.1530  0.0406 -0.2470
 4053TIP3    H112123   6.225   2.900   5.456  0.2498 -0.2323  0.1831
 4053TIP3    H212124   6.223   2.847   5.314 -0.5554  0.1886  0.0359
 4054TIP3   OH212125   6.679   2.940   0.969 -0.5924 -0.1526  0.4109
 4054TIP3    H112126   6.691   2.908   0.879  0.4180  2.1545 -0.3651
 4054TIP3    H212127   6.760   2.989   0.987 -1.2263  0.2970  2.1908
 4055TIP3   OH212128   3.045   1.132   2.116 -0.7102 -0.3261 -0.4696
 4055TIP3    H112129   3.046   1.154   2.023  1.4920 -2.0379 -0.9631
 4055TIP3    H212130   3.116   1.184   2.154 -0.7566 -0.5797 -0.0244
 4056TIP3   OH212131   0.398   0.049   2.194 -0.1823  0.6883  1.1045
 4056TIP3    H112132   0.321   0.072   2.247 -1.1199 -0.7136  0.4099
 4056TIP3    H212133   0.438   0.133   2.172 -1.4972  1.4494  1.5155
 4057TIP3   OH212134   1.411   4.450   4.258  0.2359 -0.1636  0.1787
 4057TIP3    H112135   1.334   4.394   4.267 -0.4598  0.6783 -0.3600
 4057TIP3    H212136   1.377   4.539   4.269  1.1114  0.2275 -0.1986
 4058TIP3   OH212137   5.804   5.529   4.827 -0.5669  0.3424 -0.9561
 4058TIP3    H112138   5.814   5.622   4.847  0.3811  0.0026  0.2885
 4058TIP3    H212139   5.868   5.512   4.758 -0.4883  0.5274 -0.9276
 4059TIP3   OH212140   7.180   6.406   5.053  0.0321 -0.4123 -0.3249
 4059TIP3    H112141   7.167   6.427   5.146 -0.0807  1.0209 -0.6336
 4059TIP3    H212142   7.222   6.320   5.053 -0.4032 -0.6482  1.0350
 4060TIP3   OH212143   1.919   0.654   4.316  0.2520 -0.4276 -0.2882
 4060TIP3    H112144   1.946   0.639   4.407 -1.2524  1.5985  0.5601
 4060TIP3    H212145   1.935   0.570   4.273  2.3584 -1.0282  1.4698
 4061TIP3   OH212146   5.183   5.741   5.225  0.3455  0.1353 -0.0684
 4061TIP3    H112147   5.226   5.664   5.264 -1.8473 -2.0920 -1.7537
 4061TIP3    H212148   5.211   5.740   5.134  1.2902  2.1880  0.1431
 4062TIP3   OH212149   0.294   5.572   5.336 -0.1667 -0.3349  0.9390
 4062TIP3    H112150   0.317   5.642   5.397 -1.9906 -0.2518  1.5849
 4062TIP3    H212151   0.378   5.532   5.313  1.3300  3.6198 -1.4985
 4063TIP3   OH212152   6.279   6.723   3.657  0.1088 -0.0862 -0.0006
 4063TIP3    H112153   6.190   6.690   3.667  0.5142 -1.5404 -0.9680
 4063TIP3    H212154   6.270   6.800   3.600 -0.3656 -1.1958 -1.4668
 4064TIP3   OH212155   1.569   3.911   0.324  0.5933 -0.5925 -0.2163
 4064TIP3    H112156   1.568   3.859   0.404  0.4462 -1.0990 -0.5415
 4064TIP3    H212157   1.648   3.965   0.331  0.1162  0.0276  0.6764
 4065TIP3   OH212158   2.182   0.416   3.101 -0.6193  0.1640  0.6851
 4065TIP3    H112159   2.214   0.373   3.022 -2.5445 -0.3695  0.1226
 4065TIP3    H212160   2.256   0.466   3.134  0.6011 -0.6407 -0.7374
 4066TIP3   OH212161   5.580   5.939   1.031  0.5418  0.0427  0.0178
 4066TIP3    H112162   5.552   6.025   0.999 -0.4716  0.0087  0.7625
 4066TIP3    H212163   5.501   5.885   1.026  1.0720 -0.7413 -0.0695
 4067TIP3   OH212164   5.890   3.876   2.974 -0.0694 -0.3039  0.2673
 4067TIP3    H112165   5.914   3.969   2.976 -0.3391 -0.1755 -1.1223
 4067TIP3    H212166   5.802   3.875   2.937 -0.4939 -1.0623  1.2704
 4068TIP3   OH212167   0.952   1.751   2.993 -0.0377  0.1226  0.1308
 4068TIP3    H112168   1.018   1.815   3.017  0.6803 -0.1621 -1.0419
 4068TIP3    H212169   0.963   1.738   2.899 -0.2984 -1.5572  0.2976
 4069TIP3   OH212170   5.603   1.193   1.633 -0.2586  0.2069  0.6020
 4069TIP3    H112171   5.665   1.266   1.624 -0.2766  0.1276 -0.2311
 4069TIP3    H212172   5.655   1.122   1.672  0.2119  0.0971 -0.2139
 4070TIP3   OH212173   3.648   0.467   4.781 -0.3673  0.5574 -0.2346
 4070TIP3    H112174   3.622   0.521   4.706 -0.5973  0.7089 -0.0453
 4070TIP3    H212175   3.737   0.495   4.801 -0.6375  1.1596  0.1280
 4071TIP3   OH212176   2.717   0.733   5.784 -0.2988 -0.3143  0.7764
 4071TIP3    H112177   2.762   0.648   5.777 -0.2055 -0.1882 -0.5213
 4071TIP3    H212178   2.727   0.758   5.875  1.7201 -0.6103  0.6835
 4072TIP3   OH212179   7.102   2.846   5.595 -0.1778  0.3921 -0.1070
 4072TIP3    H112180   7.045   2.783   5.639 -0.5861 -1.4970 -3.0564
 4072TIP3    H212181   7.095   2.926   5.648 -2.3722 -0.9822  1.8732
 4073TIP3   OH212182   7.022   0.880   3.321  0.4782 -0.1939  0.2603
 4073TIP3    H112183   6.932   0.871   3.289  0.0918 -0.8167  1.4707
 4073TIP3    H212184   7.076   0.875   3.242 -0.5903  1.3837 -0.6280
 4074TIP3   OH212185   2.430   3.660   0.545 -0.0069 -0.4877  0.5845
 4074TIP3    H112186   2.415   3.595   0.614  0.2796  1.1505  2.2426
 4074TIP3    H212187   2.486   3.726   0.585  1.2067 -0.0794 -1.6042
 4075TIP3   OH212188   0.013   4.173   3.167 -0.4871  0.0045  0.5615
 4075TIP3    H112189   0.106   4.172   3.191 -0.7078  0.2669  1.4737
 4075TIP3    H212190  -0.001   4.259   3.128 -0.2243 -0.2574 -0.1287
 4076TIP3   OH212191   5.025   0.457   1.544 -0.2710  0.3718 -0.4021
 4076TIP3    H112192   4.989   0.377   1.584 -2.7536  1.0677 -1.0323
 4076TIP3    H212193   5.093   0.426   1.485 -1.2710 -1.3144 -0.7455
 4077TIP3   OH212194   1.720   5.058   4.752  0.0187 -0.3412 -0.4726
 4077TIP3    H112195   1.742   5.089   4.840 -1.2876 -0.4667 -0.0818
 4077TIP3    H212196   1.805   5.051   4.707  0.7660 -0.8778  0.9607
 4078TIP3   OH212197   6.165   2.680   0.876 -0.3317  0.0040  0.1512
 4078TIP3    H112198   6.147   2.766   0.838 -1.3359 -0.2699 -0.0163
 4078TIP3    H212199   6.161   2.620   0.801 -0.4491 -0.2977  0.3993
 4079TIP3   OH212200   6.164   1.152   1.767  0.0877 -0.2373  0.1081
 4079TIP3    H112201   6.122   1.233   1.739  1.2488  0.5297  0.4754
 4079TIP3    H212202   6.108   1.118   1.836 -0.8187 -0.1673 -0.5737
 4080TIP3   OH212203   3.887   5.687   2.681  0.8148 -0.2568  0.2933
 4080TIP3    H112204   3.972   5.685   2.726  2.2147 -3.9308 -2.0868
 4080TIP3    H212205   3.909   5.699   2.589 -1.4313  0.3202 -0.2243
 4081TIP3   OH212206   0.851   1.040   0.382 -0.0919 -0.6113  0.3237
 4081TIP3    H112207   0.760   1.012   0.370 -0.5120 -0.0511  2.0057
 4081TIP3    H212208   0.846   1.131   0.409  1.0500 -0.2496 -0.5608
 4082TIP3   OH212209   3.596   5.506   1.467 -0.6615 -0.1344  0.3500
 4082TIP3    H112210   3.665   5.481   1.529  0.4061  0.8307 -0.4115
 4082TIP3    H212211   3.595   5.434   1.403 -1.6686 -1.0628  1.3607
 4083TIP3   OH212212   3.883   5.435   1.549 -0.1441  0.1698 -0.0243
 4083TIP3    H112213   3.906   5.503   1.614  1.8863 -0.0063 -0.4837
 4083TIP3    H212214   3.910   5.353   1.590  0.7865  0.0187 -0.8974
 4084TIP3   OH212215   4.416   4.107   1.593  0.2285  0.8195  0.2528
 4084TIP3    H112216   4.433   4.193   1.554 -1.0714  1.3876  0.8756
 4084TIP3    H212217   4.383   4.054   1.520  1.2526  0.7622 -0.1834
 4085TIP3   OH212218   2.208   2.483   3.820 -0.0002 -0.0098 -0.7195
 4085TIP3    H112219   2.120   2.454   3.798  0.2020  0.4375 -2.2327
 4085TIP3    H212220   2.196   2.567   3.863 -0.3903 -0.7751  0.7338
 4086TIP3   OH212221   6.235   5.156   1.151  0.1214  0.0225 -0.7436
 4086TIP3    H112222   6.192   5.230   1.193 -0.0676  1.1506 -2.7906
 4086TIP3    H212223   6.265   5.190   1.067  0.3161 -2.1497 -1.6243
 4087TIP3   OH212224   6.596   5.171   1.215  0.3316 -0.6682  0.6137
 4087TIP3    H112225   6.679   5.190   1.171  0.9081 -0.8475  1.6013
 4087TIP3    H212226   6.529   5.187   1.148  0.9649  1.9588  0.5200
 4088TIP3   OH212227   4.300   5.999   3.630 -0.2158  0.5571  0.3786
 4088TIP3    H112228   4.320   5.909   3.654 -0.0446  0.7135  0.8397
 4088TIP3    H212229   4.303   6.047   3.713 -2.0916  0.6786  0.4064
 4089TIP3   OH212230   5.042   2.817   3.561  0.1289 -0.3543  0.4922
 4089TIP3    H112231   5.119   2.845   3.512 -0.1164  0.0471  0.3279
 4089TIP3    H212232   5.034   2.882   3.631 -1.9156  1.5699 -1.3516
 4090TIP3   OH212233   0.845   5.047   5.847 -0.2891 -0.0248 -0.7973
 4090TIP3    H112234   0.892   4.964   5.850  0.6535  0.5110  0.6053
 4090TIP3    H212235   0.823   5.060   5.755  0.7951 -1.1457 -1.2322
 4091TIP3   OH212236   1.792   4.054   0.565 -0.1727  0.0089  0.1856
 4091TIP3    H112237   1.794   3.973   0.615 -2.2723  0.3461  0.9172
 4091TIP3    H212238   1.737   4.113   0.616  0.6441  1.6529 -0.7227
 4092TIP3   OH212239   6.218   3.799   5.432  0.1820  0.0414  0.2164
 4092TIP3    H112240   6.279   3.773   5.501  1.5525 -1.6830 -1.5279
 4092TIP3    H212241   6.139   3.747   5.449  0.1979  0.2507  0.9418
 4093TIP3   OH212242   4.152   4.278   4.534  0.0715  0.1414  0.1272
 4093TIP3    H112243   4.192   4.197   4.501 -1.5373  0.0253 -1.7281
 4093TIP3    H212244   4.109   4.316   4.458 -2.2227  0.9047  1.6912
 4094TIP3   OH212245   3.308   1.765   0.223  0.6466  0.3609  0.0431
 4094TIP3    H112246   3.275   1.755   0.312  1.8196  0.4705  0.5084
 4094TIP3    H212247   3.310   1.859   0.207 -1.0003  0.2996 -0.6790
 4095TIP3   OH212248   6.886   1.650   5.763  0.3743  0.0865 -0.0204
 4095TIP3    H112249   6.954   1.707   5.725  0.5865  0.4341  0.8361
 4095TIP3    H212250   6.846   1.704   5.832  0.6615 -0.8338  0.8965
 4096TIP3   OH212251   0.275   4.939   3.799  0.0713  0.0641 -0.1952
 4096TIP3    H112252   0.357   4.983   3.777  1.2323 -1.9844 -0.1980
 4096TIP3    H212253   0.241   4.909   3.715  0.1876 -0.5237 -0.0357
 4097TIP3   OH212254   1.857   1.370   1.970  0.3530 -0.2447  0.1081
 4097TIP3    H112255   1.843   1.358   1.876 -0.3415  0.2945  0.1398
 4097TIP3    H212256   1.784   1.324   2.012 -0.0123  0.5386  0.3468
 4098TIP3   OH212257   3.590   4.528   5.197 -0.3023  0.4364  0.2761
 4098TIP3    H112258   3.497   4.538   5.214 -0.8201  0.0549 -2.0304
 4098TIP3    H212259   3.598   4.444   5.153  1.3085 -0.0609  1.4092
 4099TIP3   OH212260   5.450   6.714   3.968 -0.5007 -0.0082  0.0003
 4099TIP3    H112261   5.508   6.765   3.912 -0.8130 -1.2139 -1.4622
 4099TIP3    H212262   5.442   6.767   4.048 -0.2687  1.8904 -1.1727
 4100TIP3   OH212263   3.318   1.979   1.593  0.0097  0.6930  0.1527
 4100TIP3    H112264   3.283   1.899   1.633 -1.4192  1.0680 -0.3030
 4100TIP3    H212265   3.318   2.043   1.664  1.2079  0.2906  0.5325
 4101TIP3   OH212266   4.593   1.612   2.812  0.1967  0.3619  0.3559
 4101TIP3    H112267   4.659   1.644   2.751  2.6618 -2.4002  1.3133
 4101TIP3    H212268   4.639   1.607   2.896 -1.7219 -0.2307  1.4393
 4102TIP3   OH212269   5.755   3.364   4.556  0.2456  0.3593 -0.2083
 4102TIP3    H112270   5.790   3.449   4.583 -1.4052  0.8160  0.6019
 4102TIP3    H212271   5.762   3.366   4.460  0.1534  1.4496 -0.2130
 4103TIP3   OH212272   5.048   3.027   4.352  0.4129  0.3774  0.0269
 4103TIP3    H112273   4.990   2.952   4.363  2.1956 -0.9663  0.8220
 4103TIP3    H212274   5.035   3.080   4.431  0.4880 -0.0853  0.3527
 4104TIP3   OH212275   1.017   1.805   4.425 -0.2694  0.4464 -0.0856
 4104TIP3    H112276   1.030   1.890   4.467 -1.3150  0.0769  1.0120
 4104TIP3    H212277   0.931   1.812   4.384 -0.8446 -0.4427  0.9334
 4105TIP3   OH212278   4.533   2.315   5.859 -0.3640 -0.1772  0.0010
 4105TIP3    H112279   4.598   2.368   5.904 -0.2801 -0.1942 -0.0997
 4105TIP3    H212280   4.460   2.374   5.841 -0.9239 -0.4544  1.2517
 4106TIP3   OH212281   6.473   6.751   0.541 -0.1855 -0.0849  0.0214
 4106TIP3    H112282   6.548   6.784   0.491 -0.6258  0.4659 -0.2790
 4106TIP3    H212283   6.501   6.664   0.569 -0.1697 -0.7101 -1.7637
 4107TIP3   OH212284   1.221   2.261   2.899  0.0881 -0.2068 -0.0836
 4107TIP3    H112285   1.255   2.347   2.877  0.9782 -0.5265 -0.0337
 4107TIP3    H212286   1.249   2.205   2.827 -1.5245 -0.2341 -0.7205
 4108TIP3   OH212287   5.952   2.580   4.696 -0.3403 -0.0792  0.0577
 4108TIP3    H112288   6.030   2.565   4.642 -1.4857 -0.0966 -1.6796
 4108TIP3    H212289   5.914   2.493   4.708 -1.5564  0.1765 -1.5061
 4109TIP3   OH212290   4.293   3.592   2.896  0.1797  0.2908  0.0614
 4109TIP3    H112291   4.229   3.555   2.835  0.2095  0.7272 -0.2440
 4109TIP3    H212292   4.244   3.605   2.977 -0.2143  0.9247 -0.2661
 4110TIP3   OH212293   1.930   5.289   5.257 -0.3674 -0.3791 -0.2522
 4110TIP3    H112294   2.017   5.249   5.263 -0.3343 -0.1206  1.3081
 4110TIP3    H212295   1.870   5.215   5.252 -0.0864 -0.5654 -0.9243
 4111TIP3   OH212296   3.641   3.069   0.126  0.5502  0.2788  0.0976
 4111TIP3    H112297   3.551   3.050   0.151  0.3701  0.0255 -0.7025
 4111TIP3    H212298   3.669   3.137   0.187 -0.6350  1.3332 -0.4874
 4112TIP3   OH212299   0.439   5.166   3.745 -0.5634  0.4567 -0.3316
 4112TIP3    H112300   0.406   5.223   3.676 -0.8440  0.1667 -0.4431
 4112TIP3    H212301   0.534   5.171   3.738 -0.5910  0.4017 -0.7656
 4113TIP3   OH212302   3.492   2.124   4.105 -0.3925 -0.3795 -0.2203
 4113TIP3    H112303   3.413   2.170   4.135 -0.6439 -0.8692 -0.1158
 4113TIP3    H212304   3.534   2.094   4.186  1.3518  2.1816 -0.0979
 4114TIP3   OH212305   6.844   1.252   3.924 -0.2746  0.9048 -0.4458
 4114TIP3    H112306   6.819   1.295   4.005  0.1640  1.7148 -0.7314
 4114TIP3    H212307   6.851   1.159   3.947 -1.9478  0.8632  0.0073
 4115TIP3   OH212308   6.308   2.243   4.190  0.5315  0.7130 -0.0546
 4115TIP3    H112309   6.256   2.303   4.137  0.5257 -0.2715 -1.2163
 4115TIP3    H212310   6.395   2.283   4.193  0.7170  0.4678 -1.4138
 4116TIP3   OH212311   1.964   2.905   0.478  0.6769 -0.2897 -0.1372
 4116TIP3    H112312   2.044   2.925   0.428  1.2039 -0.5742  0.5803
 4116TIP3    H212313   1.977   2.815   0.508 -0.1549 -0.5264 -0.4572
 4117TIP3   OH212314   0.067   1.934   1.795  0.1830  0.1252 -0.8548
 4117TIP3    H112315   0.130   2.006   1.798 -0.2596  0.5085 -0.8838
 4117TIP3    H212316   0.100   1.878   1.725  0.8339  0.0072 -0.4703
 4118TIP3   OH212317   5.024   4.522   0.697  0.1839 -0.1446 -0.1361
 4118TIP3    H112318   5.088   4.482   0.756 -1.2526  0.8671  2.2425
 4118TIP3    H212319   5.015   4.612   0.729 -0.8249  0.3870 -1.7875
 4119TIP3   OH212320   1.501   5.983   4.477 -0.7507 -0.3175  0.0938
 4119TIP3    H112321   1.556   6.000   4.554 -0.2037  0.8606 -0.5357
 4119TIP3    H212322   1.489   5.888   4.476  1.2086 -0.5891  0.2885
 4120TIP3   OH212323   0.185   3.909   1.385  0.2081  0.2735 -0.0276
 4120TIP3    H112324   0.141   3.952   1.458  0.5580 -0.4072  0.5915
 4120TIP3    H212325   0.217   3.826   1.421  1.6672  0.5764 -0.5621
 4121TIP3   OH212326   1.214   2.064   3.510  0.0857 -0.4511 -0.0698
 4121TIP3    H112327   1.305   2.085   3.489  0.5550 -1.5781  0.7305
 4121TIP3    H212328   1.172   2.149   3.521  1.2054  0.0952  0.1729
 4122TIP3   OH212329   3.204   4.658   3.167  0.4906  0.4544 -0.2838
 4122TIP3    H112330   3.199   4.568   3.136 -0.4421  1.2479 -2.6607
 4122TIP3    H212331   3.113   4.685   3.178  0.7678  0.9845  0.8657
 4123TIP3   OH212332   1.346   2.564   5.023 -0.2676  0.3173 -0.2690
 4123TIP3    H112333   1.346   2.658   5.043 -0.1482  0.3082 -0.2297
 4123TIP3    H212334   1.253   2.541   5.019 -0.2943  0.3458  0.1434
 4124TIP3   OH212335   4.370   2.983   0.130 -0.0497 -0.5553  0.0009
 4124TIP3    H112336   4.311   2.913   0.102 -0.4612 -1.2331  2.3190
 4124TIP3    H212337   4.432   2.940   0.188 -0.1878  0.9452  1.3346
 4125TIP3   OH212338   6.030   2.348   0.478 -0.0656 -0.1655  0.6813
 4125TIP3    H112339   6.101   2.293   0.446 -1.3448 -0.4764 -1.8528
 4125TIP3    H212340   5.951   2.296   0.466 -0.8817  0.5604  2.4867
 4126TIP3   OH212341   3.512   0.061   0.789  0.4827  0.7086 -0.2829
 4126TIP3    H112342   3.438   0.030   0.737 -1.1023  0.1608  2.1474
 4126TIP3    H212343   3.531  -0.010   0.849  2.4597  1.1931 -0.2618
 4127TIP3   OH212344   3.438   0.267   1.517 -0.5003 -0.1148  0.5483
 4127TIP3    H112345   3.486   0.184   1.522  0.3490  0.4154  1.7758
 4127TIP3    H212346   3.437   0.288   1.424  0.3232 -0.9168  0.3355
 4128TIP3   OH212347   4.032   5.381   5.513  0.2994 -0.2090  0.1987
 4128TIP3    H112348   4.043   5.287   5.499 -1.2858 -0.4897  0.6551
 4128TIP3    H212349   4.046   5.393   5.607  1.8472  0.2583 -0.0513
 4129TIP3   OH212350   4.341   6.093   5.857  0.2490 -0.1125 -0.0290
 4129TIP3    H112351   4.405   6.164   5.846  1.4023 -0.9644  0.9459
 4129TIP3    H212352   4.326   6.060   5.769  2.3429 -0.8839 -0.1395
 4130TIP3   OH212353   1.103   3.459   4.398 -0.0339 -0.2028 -0.3431
 4130TIP3    H112354   1.109   3.403   4.321 -1.9048  0.1371 -0.7907
 4130TIP3    H212355   1.067   3.402   4.467  0.7988 -0.2797  0.0360
 4131TIP3   OH212356   2.307   0.413   5.027 -0.6342  0.0882 -0.1050
 4131TIP3    H112357   2.291   0.349   5.096 -1.1912  1.7234  1.3616
 4131TIP3    H212358   2.249   0.486   5.049 -0.3038  0.9450 -1.9293
 4132TIP3   OH212359   2.318   1.810   5.871 -0.0632  0.0695 -0.3031
 4132TIP3    H112360   2.373   1.828   5.947  1.2832 -1.0588 -0.9663
 4132TIP3    H212361   2.364   1.851   5.798  0.1241 -1.1946 -0.9263
 4133TIP3   OH212362   2.357   4.752   4.403  0.1939 -0.4283  0.1923
 4133TIP3    H112363   2.274   4.740   4.448  0.8743  0.0095  1.6406
 4133TIP3    H212364   2.359   4.684   4.336 -1.8026  0.2649 -0.6168
 4134TIP3   OH212365   5.381   1.279   0.289  0.0890 -0.2839  0.5256
 4134TIP3    H112366   5.410   1.188   0.296 -2.0541 -0.9999  0.8663
 4134TIP3    H212367   5.384   1.298   0.195 -1.7185 -1.5829  0.1273
 4135TIP3   OH212368   3.459   4.758   4.092  0.4733  0.4503 -0.5578
 4135TIP3    H112369   3.412   4.707   4.026 -0.8161  0.1848  0.5237
 4135TIP3    H212370   3.522   4.696   4.129 -1.8148 -0.8139  1.5089
 4136TIP3   OH212371   4.861   2.434   3.345 -0.2656 -0.4179  0.1926
 4136TIP3    H112372   4.833   2.523   3.325 -2.9471 -1.4540 -1.1307
 4136TIP3    H212373   4.953   2.443   3.370 -0.4356  2.6863  0.0772
 4137TIP3   OH212374   0.967   3.550   4.858  0.4746 -0.1585 -0.2670
 4137TIP3    H112375   0.906   3.517   4.791  0.6787 -2.7260  0.7326
 4137TIP3    H212376   1.050   3.562   4.811 -0.9125  5.1699 -2.1247
 4138TIP3   OH212377   1.709   2.077   3.296 -0.1693  0.4264  0.1741
 4138TIP3    H112378   1.798   2.102   3.271 -0.5320  2.1609  0.4916
 4138TIP3    H212379   1.654   2.146   3.260 -1.2748  0.0010  0.9918
 4139TIP3   OH212380   2.510   5.071   4.880 -0.2797  0.1232  0.5067
 4139TIP3    H112381   2.603   5.048   4.887 -0.7191 -1.7220  0.7424
 4139TIP3    H212382   2.509   5.151   4.827  1.3439 -0.6176 -0.7286
 4140TIP3   OH212383   5.343   1.525   5.912 -0.0130  0.3944  0.2194
 4140TIP3    H112384   5.364   1.608   5.956 -1.0759  1.2612 -0.8307
 4140TIP3    H212385   5.387   1.531   5.827 -1.3365  0.6055 -0.4924
 4141TIP3   OH212386   6.859   6.382   2.376 -0.6677 -0.0764 -0.2694
 4141TIP3    H112387   6.825   6.471   2.374 -2.4721 -0.7279  0.0373
 4141TIP3    H212388   6.839   6.347   2.289 -0.0870 -0.2473 -0.3422
 4142TIP3   OH212389   3.204   2.890   5.616 -0.6788  0.4015 -0.6766
 4142TIP3    H112390   3.153   2.922   5.542 -0.6155 -0.1518 -0.9603
 4142TIP3    H212391   3.227   2.969   5.665 -2.6667  0.6088  0.0175
 4143TIP3   OH212392   2.759   5.876   0.396  0.3821  0.4247 -0.2090
 4143TIP3    H112393   2.815   5.939   0.441 -0.1874  0.5930  0.2700
 4143TIP3    H212394   2.690   5.930   0.356 -0.4508  0.0643  0.7057
 4144TIP3   OH212395   2.707   0.643   1.073 -0.2439 -0.4018 -0.4432
 4144TIP3    H112396   2.780   0.678   1.022  0.0444 -0.3051  0.0363
 4144TIP3    H212397   2.711   0.548   1.056  1.1212 -0.6419  1.0023
 4145TIP3   OH212398   0.416   3.055   3.701 -0.3867 -0.0405 -0.0720
 4145TIP3    H112399   0.474   3.027   3.630 -1.0217 -0.7057 -0.3385
 4145TIP3    H212400   0.352   2.984   3.710 -1.9641  1.2478 -0.6906
 4146TIP3   OH212401   1.704   4.633   1.534  0.4254  0.5004 -0.0412
 4146TIP3    H112402   1.778   4.693   1.533 -0.5805  1.7974 -1.0200
 4146TIP3    H212403   1.630   4.686   1.505 -0.1924 -1.6192 -2.6905
 4147TIP3   OH212404   6.502   2.948   4.602 -0.3501  0.4255 -0.4364
 4147TIP3    H112405   6.485   2.888   4.675 -0.6370 -2.2824 -2.5767
 4147TIP3    H212406   6.582   2.994   4.627 -0.0702 -0.8805  1.2778
 4148TIP3   OH212407   6.322   4.227   5.882 -0.7679 -0.0704 -0.2331
 4148TIP3    H112408   6.371   4.207   5.802 -1.4217 -0.0848 -0.6410
 4148TIP3    H212409   6.385   4.214   5.953  0.2874  1.5345 -0.8371
 4149TIP3   OH212410   5.573   2.125   1.802 -0.1126  0.0854  0.0066
 4149TIP3    H112411   5.651   2.069   1.794  0.6301  0.9474  0.8615
 4149TIP3    H212412   5.599   2.208   1.761 -2.0105 -0.8575 -3.4507
 4150TIP3   OH212413   6.176   1.774   5.471  0.1287 -0.0830  0.4398
 4150TIP3    H112414   6.235   1.715   5.518  1.3317 -0.0300 -0.9368
 4150TIP3    H212415   6.228   1.807   5.398 -0.3098  3.0218  1.3540
 4151TIP3   OH212416   1.461   3.564   5.589 -0.8142  0.1732  0.7512
 4151TIP3    H112417   1.449   3.489   5.647 -1.6458  1.2637  2.0547
 4151TIP3    H212418   1.385   3.562   5.531  0.0168 -0.9180 -0.3425
 4152TIP3   OH212419   0.599   0.443   0.251  0.5025  0.8425 -0.0687
 4152TIP3    H112420   0.555   0.525   0.271  0.3590  0.9793 -0.8915
 4152TIP3    H212421   0.533   0.375   0.268  0.7849  0.8536  1.0983
 4153TIP3   OH212422   2.544   5.470   3.449 -0.1119  0.3457 -0.0672
 4153TIP3    H112423   2.474   5.522   3.488 -1.3238 -0.9892 -0.3518
 4153TIP3    H212424   2.537   5.485   3.355 -1.9910 -1.9844 -0.3952
 4154TIP3   OH212425   5.593   1.749   5.010 -0.2908 -0.4685 -0.5034
 4154TIP3    H112426   5.587   1.746   5.105 -2.9660  1.8240 -0.4773
 4154TIP3    H212427   5.554   1.666   4.981 -1.6528 -0.1624  0.3944
 4155TIP3   OH212428   5.453   0.759   1.585 -0.4668  0.2111  0.3920
 4155TIP3    H112429   5.532   0.774   1.533 -1.5661 -0.4589 -1.5966
 4155TIP3    H212430   5.388   0.728   1.521 -1.3715 -2.5883  2.4824
 4156TIP3   OH212431   0.029   6.347   3.609  0.0519 -0.2526 -0.0859
 4156TIP3    H112432   0.117   6.309   3.606  0.6500  1.0967 -0.2472
 4156TIP3    H212433  -0.028   6.275   3.581  0.8059 -1.8639  2.1817
 4157TIP3   OH212434   5.365   3.618   1.277 -0.1278 -0.0351 -0.1976
 4157TIP3    H112435   5.378   3.691   1.338  1.8171  0.2537 -0.8990
 4157TIP3    H212436   5.347   3.660   1.193  0.7056 -0.3571 -0.5429
 4158TIP3   OH212437   2.551   1.307   1.087 -0.2839  0.2946  0.7558
 4158TIP3    H112438   2.567   1.387   1.137  0.0600  0.2888  0.6533
 4158TIP3    H212439   2.589   1.323   1.001  1.5061 -0.6847  1.3198
 4159TIP3   OH212440   2.779   3.727   5.259 -0.0511 -0.4115  0.2056
 4159TIP3    H112441   2.687   3.702   5.254  0.3547 -2.5067  1.7704
 4159TIP3    H212442   2.807   3.734   5.168 -1.5667 -0.4799 -0.2930
 4160TIP3   OH212443   3.397   2.067   5.875 -0.0812  0.4456 -0.0926
 4160TIP3    H112444   3.448   1.991   5.849  0.1144  0.4904  0.1538
 4160TIP3    H212445   3.443   2.102   5.951 -0.3357  0.6357 -0.0231
 4161TIP3   OH212446   4.039   5.412   2.056  0.0134 -0.0193  1.0997
 4161TIP3    H112447   4.132   5.402   2.077  0.2158 -0.7489 -0.0156
 4161TIP3    H212448   4.003   5.323   2.064 -0.3264  0.0502  0.4089
 4162TIP3   OH212449   0.200   3.389   0.944 -0.0959 -0.5054 -0.4967
 4162TIP3    H112450   0.158   3.307   0.971 -0.8667 -0.4669 -1.5155
 4162TIP3    H212451   0.133   3.456   0.957  0.5165 -0.0304  0.2759
 4163TIP3   OH212452   0.648   3.084   2.184 -0.6050 -0.2621  0.8726
 4163TIP3    H112453   0.666   3.160   2.128  0.8506  0.2902  2.0310
 4163TIP3    H212454   0.601   3.120   2.259  2.0403 -0.0285  2.5365
 4164TIP3   OH212455   4.184   4.290   3.416 -0.3378  0.9965  0.7171
 4164TIP3    H112456   4.258   4.302   3.476  0.0971  2.1320 -0.0257
 4164TIP3    H212457   4.108   4.318   3.467 -0.1370  0.7533  1.1582
 4165TIP3   OH212458   4.740   0.090   3.509 -0.3007 -0.7718  0.1356
 4165TIP3    H112459   4.769   0.079   3.600 -2.4062 -2.0366  0.7172
 4165TIP3    H212460   4.756   0.005   3.469  1.3235 -0.0018 -0.9468
 4166TIP3   OH212461   4.468   6.286   3.326 -0.0813  0.3291 -0.2976
 4166TIP3    H112462   4.517   6.207   3.348 -2.2275 -1.0050 -0.0083
 4166TIP3    H212463   4.489   6.303   3.234  0.9151 -0.1660 -0.1721
 4167TIP3   OH212464   1.219   6.143   2.364 -0.0047  0.0391 -0.5266
 4167TIP3    H112465   1.210   6.067   2.307 -0.8226 -0.3757  0.1331
 4167TIP3    H212466   1.139   6.194   2.349  0.3191  0.5271 -0.6110
 4168TIP3   OH212467   7.030   5.103   3.715 -0.2352  0.0548  0.0297
 4168TIP3    H112468   7.094   5.127   3.647  0.1198 -0.3905  0.2006
 4168TIP3    H212469   6.946   5.101   3.669 -0.0581  0.1581 -0.3079
 4169TIP3   OH212470   6.260   4.546   0.931  0.4702  0.0524 -0.0527
 4169TIP3    H112471   6.239   4.596   1.010  1.4639  0.6117 -0.1306
 4169TIP3    H212472   6.343   4.503   0.951 -0.7061 -2.2094  0.2868
 4170TIP3   OH212473   4.591   4.942   3.976  0.6270 -0.1841 -0.4596
 4170TIP3    H112474   4.630   4.955   3.889  1.4245  0.0109 -0.0844
 4170TIP3    H212475   4.617   5.021   4.025  0.4865 -0.4601  0.0620
 4171TIP3   OH212476   6.511   5.681   3.266 -0.0021 -0.7473  0.0204
 4171TIP3    H112477   6.487   5.610   3.325 -1.7440  0.1226  0.4364
 4171TIP3    H212478   6.462   5.664   3.186  0.5990 -0.7159 -0.3586
 4172TIP3   OH212479   5.161   3.247   5.653 -0.0878  0.0765 -0.1688
 4172TIP3    H112480   5.088   3.267   5.594  1.0396 -0.7183 -1.9037
 4172TIP3    H212481   5.173   3.152   5.645  0.5803  0.0752  0.7664
 4173TIP3   OH212482   5.366   2.270   5.584  0.2331 -0.3275 -0.5495
 4173TIP3    H112483   5.378   2.273   5.489  3.1997  0.4450 -0.2710
 4173TIP3    H212484   5.444   2.312   5.619 -1.7458  1.3578  2.2388
 4174TIP3   OH212485   1.411   5.107   2.051 -0.2945  0.6223  0.3433
 4174TIP3    H112486   1.428   5.060   1.969 -1.5507  0.7468 -0.0105
 4174TIP3    H212487   1.367   5.187   2.024 -0.0045  1.0435  1.0960
 4175TIP3   OH212488   3.884   6.650   4.445  0.6053  0.3541 -0.5991
 4175TIP3    H112489   3.938   6.573   4.457  1.9586  1.3806  0.0820
 4175TIP3    H212490   3.873   6.687   4.532  0.2380  1.1078 -0.9496
 4176TIP3   OH212491   0.269   3.441   2.148  0.0915  0.1939 -0.1917
 4176TIP3    H112492   0.174   3.436   2.162  0.2860 -0.0193  1.2348
 4176TIP3    H212493   0.305   3.370   2.201  1.1033  0.7989 -0.0403
 4177TIP3   OH212494   6.909   0.173   5.021 -0.1964  0.6303  0.1348
 4177TIP3    H112495   6.836   0.113   5.031  1.1549 -1.4013 -1.4215
 4177TIP3    H212496   6.955   0.169   5.105  0.7357 -1.8342 -0.4064
 4178TIP3   OH212497   5.678   2.809   3.519 -0.0192  0.2620 -0.0263
 4178TIP3    H112498   5.631   2.888   3.491  1.8109  0.8404 -1.6621
 4178TIP3    H212499   5.726   2.837   3.598 -1.0144  0.1631  0.6248
 4179TIP3   OH212500   1.511   6.765   0.288 -0.8443 -0.2940 -0.0206
 4179TIP3    H112501   1.536   6.675   0.309 -0.4440 -0.1999 -0.0944
 4179TIP3    H212502   1.434   6.782   0.343  1.8438  0.9611  3.7395
 4180TIP3   OH212503   7.205   3.750   3.752  0.0619 -0.1961 -0.1173
 4180TIP3    H112504   7.181   3.660   3.772 -1.7352  0.3610  0.3597
 4180TIP3    H212505   7.124   3.792   3.724  0.2405  1.9617  2.2037
 4181TIP3   OH212506   5.827   6.212   4.814 -0.9608  0.1057 -0.2361
 4181TIP3    H112507   5.881   6.177   4.886 -0.4519 -0.1661 -0.7450
 4181TIP3    H212508   5.878   6.283   4.778 -0.5513 -0.6827 -1.2550
 4182TIP3   OH212509   5.827   5.050   0.217  0.4911 -0.4699 -0.3441
 4182TIP3    H112510   5.913   5.070   0.180  0.0759  0.4122 -0.8716
 4182TIP3    H212511   5.765   5.082   0.151 -0.2904  1.5464  1.2643
 4183TIP3   OH212512   4.994   6.314   4.148 -0.1009 -0.1999 -0.0155
 4183TIP3    H112513   5.050   6.255   4.198 -1.2566 -0.1834  1.3621
 4183TIP3    H212514   5.053   6.352   4.083  0.7640 -2.5518 -0.7231
 4184TIP3   OH212515   2.796   6.386   0.735  0.4804  0.4863 -0.2670
 4184TIP3    H112516   2.800   6.415   0.826 -1.1401  1.3131 -0.4101
 4184TIP3    H212517   2.785   6.291   0.740 -1.5618  0.6969  0.5330
 4185TIP3   OH212518   0.892   4.121   1.586  0.3371 -0.7133 -0.5503
 4185TIP3    H112519   0.904   4.158   1.499  0.0931  0.1444 -0.2354
 4185TIP3    H212520   0.969   4.066   1.600  1.2411  0.4751 -0.6543
 4186TIP3   OH212521   2.877   0.809   1.917 -0.1953  0.3672 -0.5267
 4186TIP3    H112522   2.843   0.898   1.911  0.5262  0.6497 -0.5536
 4186TIP3    H212523   2.972   0.820   1.911 -0.0653 -0.3400  0.1899
 4187TIP3   OH212524   4.240   2.385   0.510 -0.2055  0.0559  0.0695
 4187TIP3    H112525   4.279   2.403   0.595 -0.5134 -0.2803  0.2851
 4187TIP3    H212526   4.169   2.323   0.528 -0.7465  0.5450 -0.3307
 4188TIP3   OH212527   3.685   3.986   4.983  0.0154  0.4525 -0.0167
 4188TIP3    H112528   3.630   3.954   4.911  0.7528  0.9106 -0.8127
 4188TIP3    H212529   3.714   4.073   4.955  1.8649 -0.1252 -0.0770
 4189TIP3   OH212530   5.518   6.694   4.308  0.2159  0.0607 -0.4036
 4189TIP3    H112531   5.450   6.674   4.373  2.4049 -0.8869  1.7714
 4189TIP3    H212532   5.485   6.772   4.262 -1.9060  0.1706  1.1344
 4190TIP3   OH212533   2.236   0.875   4.755  0.4137  0.0389  0.7150
 4190TIP3    H112534   2.312   0.824   4.726  0.0365  0.2769 -0.7615
 4190TIP3    H212535   2.198   0.909   4.675 -2.9312 -2.3592  1.0780
 4191TIP3   OH212536   5.137   5.608   1.525  0.1833  0.1088  0.5040
 4191TIP3    H112537   5.187   5.664   1.583  1.1541  0.1948 -0.3794
 4191TIP3    H212538   5.047   5.614   1.556  0.7151 -0.0892  2.1646
 4192TIP3   OH212539   3.798   0.799   5.798 -0.3362  0.1355  0.3202
 4192TIP3    H112540   3.853   0.741   5.744  1.7844  1.8710  0.4576
 4192TIP3    H212541   3.828   0.783   5.887  0.9513  2.0068  0.2790
 4193TIP3   OH212542   4.625   1.836   1.215 -0.5265 -0.1996  0.0624
 4193TIP3    H112543   4.555   1.884   1.261  0.7811 -0.2192  2.1857
 4193TIP3    H212544   4.596   1.745   1.216 -1.4974  0.0766 -1.0818
 4194TIP3   OH212545   4.976   6.189   0.921  0.4506 -0.0790  0.0420
 4194TIP3    H112546   4.970   6.273   0.876  0.3256  0.8290  1.6626
 4194TIP3    H212547   4.885   6.160   0.931  0.5143 -0.6539 -0.9072
 4195TIP3   OH212548   2.906   0.302   1.101  0.0096  0.6035  0.3467
 4195TIP3    H112549   2.851   0.347   1.037  2.4436  2.4319 -0.6093
 4195TIP3    H212550   2.889   0.209   1.086 -1.0906  1.0427 -1.4726
 4196TIP3   OH212551   2.433   4.280   0.396 -0.0269  0.3594  0.0480
 4196TIP3    H112552   2.438   4.223   0.318  1.4397 -0.4777  0.6998
 4196TIP3    H212553   2.340   4.300   0.406 -0.2106  0.9182 -2.2129
 4197TIP3   OH212554   6.197   6.643   1.093  0.0918 -0.0430  0.0427
 4197TIP3    H112555   6.156   6.687   1.168 -1.4645 -3.6097  1.5340
 4197TIP3    H212556   6.139   6.663   1.019 -0.6559  0.2761  0.7028
 4198TIP3   OH212557   1.995   0.119   2.795 -0.2792 -0.1242  0.5726
 4198TIP3    H112558   2.005   0.211   2.771 -0.7995 -0.5881 -1.6473
 4198TIP3    H212559   2.083   0.090   2.818  0.2815  0.4071 -0.8099
 4199TIP3   OH212560   0.807   0.664   2.334 -0.1715  0.0237  0.0385
 4199TIP3    H112561   0.720   0.689   2.303 -0.3358 -0.1406  0.3596
 4199TIP3    H212562   0.820   0.574   2.302 -0.0118  0.1403 -0.2288
 4200TIP3   OH212563   1.003   4.944   1.038  0.1204  0.4319  0.2516
 4200TIP3    H112564   0.924   4.996   1.022 -1.3089 -2.0633 -1.2915
 4200TIP3    H212565   1.035   4.922   0.951  2.7490  1.5846  0.8333
 4201TIP3   OH212566   3.184   6.001   3.004 -0.3751  0.1094 -0.7223
 4201TIP3    H112567   3.126   5.938   3.047  0.4352  0.5622  1.1237
 4201TIP3    H212568   3.249   5.947   2.959 -0.1300 -0.4019  0.2132
 4202TIP3   OH212569   6.414   5.973   2.964  0.1495  0.2520  0.2757
 4202TIP3    H112570   6.424   5.902   2.900  2.3366 -1.2915  2.1382
 4202TIP3    H212571   6.447   6.051   2.918  0.2510 -0.4890 -0.9623
 4203TIP3   OH212572   0.316   3.170   5.580  0.0045 -0.8422 -0.5759
 4203TIP3    H112573   0.289   3.247   5.530  1.0982 -0.7421 -1.0586
 4203TIP3    H212574   0.412   3.177   5.585  0.0075 -1.4483  0.5698
 4204TIP3   OH212575   7.216   4.775   5.330 -0.1431  0.3344  0.4992
 4204TIP3    H112576   7.151   4.801   5.265  0.5927  0.8151 -0.0500
 4204TIP3    H212577   7.292   4.748   5.280  0.2118  0.1042  1.1463
 4205TIP3   OH212578   5.528   4.037   3.128 -0.1436 -0.1653 -0.3358
 4205TIP3    H112579   5.532   3.943   3.109 -1.4678 -0.3661  0.2412
 4205TIP3    H212580   5.577   4.047   3.210  1.2729 -0.0899 -1.1572
 4206TIP3   OH212581   5.150   3.256   5.113 -0.2170 -0.1447  0.7421
 4206TIP3    H112582   5.057   3.271   5.132 -1.0544 -2.2732 -1.2582
 4206TIP3    H212583   5.175   3.330   5.058 -1.0157 -0.0558  0.4722
 4207TIP3   OH212584   4.029   1.093   5.767  0.2268 -0.0194  0.8053
 4207TIP3    H112585   4.093   1.165   5.766 -1.8204  1.9384  0.7861
 4207TIP3    H212586   3.994   1.093   5.856 -2.2093  1.4420 -0.0222
 4208TIP3   OH212587   3.953   6.718   1.672  0.1999 -1.1402 -0.0282
 4208TIP3    H112588   3.967   6.630   1.708  0.6896 -1.5002 -1.0229
 4208TIP3    H212589   3.862   6.739   1.693  0.8309 -0.7603  2.5201
 4209TIP3   OH212590   6.265   2.024   5.036  0.0428 -0.1872  0.6528
 4209TIP3    H112591   6.237   2.101   4.985  0.5505  0.1611  0.8903
 4209TIP3    H212592   6.342   2.054   5.083 -0.0203 -0.7170  1.0987
 4210TIP3   OH212593   6.968   5.978   2.897  0.5484  0.0903  0.2391
 4210TIP3    H112594   6.907   6.050   2.881 -1.2557 -1.5866 -0.8763
 4210TIP3    H212595   7.036   5.989   2.830  0.2975  0.7564  0.0886
 4211TIP3   OH212596   6.156   0.812   4.372 -0.6526  0.0191 -0.5064
 4211TIP3    H112597   6.099   0.735   4.381 -0.3124 -0.0872  0.9458
 4211TIP3    H212598   6.241   0.783   4.405 -0.8918  1.4075  1.4801
 4212TIP3   OH212599   3.954   2.108   4.398  0.2825 -0.2005  0.4714
 4212TIP3    H112600   3.908   2.192   4.392  0.6000  0.0482  1.3383
 4212TIP3    H212601   3.931   2.074   4.485  0.1730 -1.0122  0.1385
 4213TIP3   OH212602   0.097   1.102   2.770 -0.1818  0.2446 -0.5688
 4213TIP3    H112603   0.147   1.131   2.847  2.4060 -2.8533 -0.8840
 4213TIP3    H212604   0.028   1.047   2.805 -1.0002  1.3911 -0.3392
 4214TIP3   OH212605   2.201   5.707   4.223  0.0384  0.2420  0.2434
 4214TIP3    H112606   2.273   5.736   4.279 -0.5931  1.3485  0.5089
 4214TIP3    H212607   2.234   5.718   4.134  0.1948  0.7503  0.3635
 4215TIP3   OH212608   5.163   0.328   2.659  0.2039  0.4080 -0.0617
 4215TIP3    H112609   5.189   0.360   2.573  0.0819 -0.2365 -0.3450
 4215TIP3    H212610   5.068   0.337   2.661  0.2318  0.6634  0.1055
 4216TIP3   OH212611   2.344   1.428   2.410 -0.4631 -0.6174 -0.3278
 4216TIP3    H112612   2.414   1.466   2.464 -1.1305  1.2189 -0.6673
 4216TIP3    H212613   2.365   1.457   2.321 -1.2179 -0.7101 -0.5407
 4217TIP3   OH212614   6.748   4.468   3.886  0.4921  0.4603  0.4369
 4217TIP3    H112615   6.728   4.398   3.949  2.0204  0.7407  1.3050
 4217TIP3    H212616   6.844   4.474   3.888  0.5269  0.9846 -1.3972
 4218TIP3   OH212617   6.616   6.812   4.774 -0.2568  0.5970 -0.0524
 4218TIP3    H112618   6.676   6.776   4.709  1.4411  1.3362  1.0206
 4218TIP3    H212619   6.629   6.756   4.851 -0.3841  1.2210  0.4290
 4219TIP3   OH212620   5.699   1.289   5.482  0.2231  0.7530  0.2517
 4219TIP3    H112621   5.722   1.240   5.561  1.2425  1.5803  0.4939
 4219TIP3    H212622   5.683   1.378   5.513  0.1279  0.9708 -0.4099
 4220TIP3   OH212623   3.813   0.202   5.730 -0.7746 -0.2273 -0.1553
 4220TIP3    H112624   3.896   0.248   5.735 -0.1825 -1.2957  0.0882
 4220TIP3    H212625   3.821   0.130   5.792 -1.8972 -0.3249 -0.0968
 4221TIP3   OH212626   6.711   3.513   3.493 -0.0206 -0.2308 -0.1676
 4221TIP3    H112627   6.673   3.490   3.578 -2.3587 -0.2466 -1.1386
 4221TIP3    H212628   6.757   3.595   3.509 -1.8659  0.6867  0.8159
 4222TIP3   OH212629   1.929   5.434   2.498 -0.1356  0.9665  0.0508
 4222TIP3    H112630   1.843   5.444   2.537  0.1560  1.6644  0.5352
 4222TIP3    H212631   1.983   5.396   2.567 -0.2527 -0.2953 -0.5241
 4223TIP3   OH212632   4.676   4.743   1.411 -0.5809  0.6301  0.7760
 4223TIP3    H112633   4.693   4.686   1.336  0.1305  1.2392  0.4537
 4223TIP3    H212634   4.588   4.777   1.396 -0.2953  1.0604 -0.0078
 4224TIP3   OH212635  -0.000   4.079   5.196 -0.1224  0.1576  0.0644
 4224TIP3    H112636   0.029   4.072   5.287  1.5599  0.0534 -0.4612
 4224TIP3    H212637   0.022   3.994   5.157  0.2000  0.5970 -0.7267
 4225TIP3   OH212638   7.052   4.577   0.707 -0.0491  0.3486 -0.5798
 4225TIP3    H112639   7.001   4.499   0.683  0.1885 -0.6142  1.7453
 4225TIP3    H212640   7.024   4.598   0.795  0.1868  2.7274 -1.0026
 4226TIP3   OH212641   6.250   3.548   5.779 -0.2986 -0.2132 -0.1082
 4226TIP3    H112642   6.255   3.479   5.714 -0.5069  1.0488 -1.5173
 4226TIP3    H212643   6.294   3.623   5.739  3.5317 -0.5183  2.8512
 4227TIP3   OH212644   4.040   1.349   1.651 -0.0944 -0.3805 -0.0498
 4227TIP3    H112645   3.946   1.334   1.644 -0.4275  0.7754  1.4227
 4227TIP3    H212646   4.059   1.415   1.585 -0.6008  0.4173  0.5834
 4228TIP3   OH212647   4.423   0.982   0.135  0.5256 -0.5958 -0.1703
 4228TIP3    H112648   4.438   0.888   0.126  1.5986 -0.5050  0.4845
 4228TIP3    H212649   4.348   0.989   0.194  0.4168 -1.0376 -0.2553
 4229TIP3   OH212650   6.239   1.089   0.106 -0.1450 -0.0465  0.0318
 4229TIP3    H112651   6.151   1.128   0.101 -0.4719 -0.9072 -3.0356
 4229TIP3    H212652   6.299   1.163   0.096 -0.4871  0.4795  1.6094
 4230TIP3   OH212653   3.272   0.904   4.707 -0.3279  0.0556  0.1367
 4230TIP3    H112654   3.308   0.954   4.780 -1.0326 -0.1477  0.6379
 4230TIP3    H212655   3.346   0.854   4.672  0.2804  1.0863 -0.0777
 4231TIP3   OH212656   3.278   4.369   0.131  0.6510  0.5297 -0.0000
 4231TIP3    H112657   3.286   4.434   0.200  1.1409 -0.3291  0.7765
 4231TIP3    H212658   3.236   4.294   0.173  3.3207 -1.0151  0.1102
 4232TIP3   OH212659   0.215   0.112   0.215 -0.0560  0.3621  0.3345
 4232TIP3    H112660   0.158   0.147   0.146  0.8745  0.6416 -0.3120
 4232TIP3    H212661   0.155   0.072   0.278 -0.9888  0.9676 -0.1445
 4233TIP3   OH212662   5.257   4.946   5.887 -0.2285 -0.2932 -0.1948
 4233TIP3    H112663   5.185   4.905   5.935 -0.3487 -0.7332 -0.7468
 4233TIP3    H212664   5.316   4.874   5.866  0.8839  0.1927  1.1008
 4234TIP3   OH212665   5.528   3.379   3.329  0.0632 -0.2353 -0.5789
 4234TIP3    H112666   5.516   3.474   3.327 -4.1705 -0.5367  0.1661
 4234TIP3    H212667   5.605   3.364   3.384  0.0832  2.7359  0.3309
 4235TIP3   OH212668   4.253   0.458   2.333  0.4797  0.2587 -0.5778
 4235TIP3    H112669   4.159   0.473   2.347  0.6055  1.2223 -0.7140
 4235TIP3    H212670   4.269   0.371   2.370 -0.7491 -0.5363 -1.7972
 4236TIP3   OH212671   6.635   6.193   0.248 -0.1402 -0.0987 -0.1820
 4236TIP3    H112672   6.696   6.164   0.180  1.2960 -2.0901  1.8295
 4236TIP3    H212673   6.683   6.263   0.294 -0.2391 -0.2148  0.0966
 4237TIP3   OH212674   2.000   4.544   5.864  0.4950  0.3091 -0.3231
 4237TIP3    H112675   2.019   4.454   5.837 -0.6846  0.2358 -0.9422
 4237TIP3    H212676   2.057   4.557   5.941 -0.2591 -1.4172  0.6000
 4238TIP3   OH212677   1.550   0.831   5.106 -0.0206 -0.4018  0.0333
 4238TIP3    H112678   1.485   0.893   5.073 -0.1794 -1.3981 -1.6702
 4238TIP3    H212679   1.634   0.878   5.099 -0.0964 -0.4267 -1.5333
 4239TIP3   OH212680   2.678   5.668   4.858  0.4880  0.0576 -0.1649
 4239TIP3    H112681   2.745   5.652   4.792  1.6738 -1.6451  1.3562
 4239TIP3    H212682   2.719   5.730   4.919  0.0064  0.4086 -0.1988
 4240TIP3   OH212683   2.106   6.197   3.106  0.6120  0.0200 -0.3731
 4240TIP3    H112684   2.021   6.155   3.092  1.7337 -2.2726 -0.8571
 4240TIP3    H212685   2.115   6.202   3.201 -0.3581  1.0086 -0.3117
 4241TIP3   OH212686   3.092   5.346   4.379 -0.3426  0.3242 -0.4519
 4241TIP3    H112687   3.002   5.312   4.375 -0.1473 -0.1759 -0.7954
 4241TIP3    H212688   3.136   5.304   4.305  0.0318  0.9983 -0.6165
 4242TIP3   OH212689   1.061   1.383   0.571 -0.3898  0.1379 -0.3274
 4242TIP3    H112690   1.088   1.474   0.577 -0.8856  0.3563 -1.3007
 4242TIP3    H212691   1.130   1.340   0.522 -0.6321  0.2011 -0.7298
 4243TIP3   OH212692   4.589   1.249   1.668  0.4239  0.2075 -0.0739
 4243TIP3    H112693   4.632   1.332   1.685 -0.9867  1.0141 -0.3286
 4243TIP3    H212694   4.536   1.233   1.745 -0.9674  0.6269 -0.9215
 4244TIP3   OH212695   2.433   5.211   2.573  0.8808  0.3131  0.4946
 4244TIP3    H112696   2.512   5.173   2.535 -0.1695 -1.5978  0.1240
 4244TIP3    H212697   2.407   5.149   2.641 -0.5759  0.6265  0.2610
 4245TIP3   OH212698   2.909   3.568   4.323  0.9995 -0.2383 -0.3580
 4245TIP3    H112699   2.907   3.623   4.244 -0.3982 -0.6347 -0.6193
 4245TIP3    H212700   2.880   3.626   4.393 -0.6402 -0.6606 -0.6629
 4246TIP3   OH212701   3.520   3.481   3.981  0.3604  0.1260 -0.4590
 4246TIP3    H112702   3.580   3.502   4.052  0.5151 -2.1256  0.1551
 4246TIP3    H212703   3.478   3.564   3.960  0.8605  1.0133  1.7513
 4247TIP3   OH212704   6.887   2.121   4.641 -0.1691  0.5865  0.8346
 4247TIP3    H112705   6.860   2.039   4.601  1.2518  0.4568  0.0476
 4247TIP3    H212706   6.925   2.172   4.569  0.1484  1.3932  1.5439
 4248TIP3   OH212707   6.702   0.948   5.348  0.9426  0.5518 -0.5437
 4248TIP3    H112708   6.760   0.909   5.282  0.5296  0.3633 -0.8019
 4248TIP3    H212709   6.740   1.034   5.364  0.3203  1.1341 -2.0093
 4249TIP3   OH212710   1.568   2.970   2.548  0.3084  0.0681 -0.4478
 4249TIP3    H112711   1.590   2.964   2.455  1.8367 -0.3527 -0.0884
 4249TIP3    H212712   1.528   3.056   2.558  0.3895  0.2301 -1.4359
 4250TIP3   OH212713   5.801   5.290   4.997  0.2500  0.2328 -0.0790
 4250TIP3    H112714   5.879   5.244   4.966  0.5063  1.1927 -0.8898
 4250TIP3    H212715   5.813   5.381   4.968  0.7293  1.3524  3.1513
 4251TIP3   OH212716   6.022   6.065   3.659 -0.3465  0.6996  0.2467
 4251TIP3    H112717   6.099   6.030   3.613  0.1264  1.0974  0.7292
 4251TIP3    H212718   5.949   6.014   3.624  0.4591 -1.8377  1.9856
 4252TIP3   OH212719   2.099   3.236   4.614  0.0669 -0.3573 -0.2433
 4252TIP3    H112720   2.158   3.167   4.646  1.5638  0.6212 -0.7570
 4252TIP3    H212721   2.115   3.239   4.519  1.8345  2.1970  0.0199
 4253TIP3   OH212722   4.201   6.170   2.022 -0.3626  0.2291  0.3635
 4253TIP3    H112723   4.231   6.254   2.057  0.5384  0.2039 -0.3142
 4253TIP3    H212724   4.184   6.117   2.100 -1.1058  1.0802  0.8059
 4254TIP3   OH212725   4.979   6.632   3.519 -0.2756 -0.7237 -0.4181
 4254TIP3    H112726   5.050   6.693   3.539 -1.3329  0.5966 -0.4907
 4254TIP3    H212727   4.957   6.650   3.428 -3.0284  1.5738  0.4936
 4255TIP3   OH212728   4.634   2.604   2.466 -0.5308 -0.1799 -0.1428
 4255TIP3    H112729   4.712   2.579   2.416  0.4219 -0.6281  1.5007
 4255TIP3    H212730   4.582   2.524   2.471  0.6389 -0.8792  1.7650
 4256TIP3   OH212731   1.725   0.405   4.555 -0.3240  0.8623 -0.2438
 4256TIP3    H112732   1.708   0.471   4.621  0.8692  0.2381  0.7304
 4256TIP3    H212733   1.818   0.417   4.533  0.0285 -0.7447  0.2736
 4257TIP3   OH212734   3.374   3.060   1.272 -0.1740  0.5837  0.2344
 4257TIP3    H112735   3.375   3.118   1.196  0.6518 -0.5919 -0.6978
 4257TIP3    H212736   3.462   3.067   1.309 -1.0363  2.3985  2.1324
 4258TIP3   OH212737   6.867   3.938   0.931  0.1339  0.6056 -0.0394
 4258TIP3    H112738   6.824   3.896   1.005 -0.7802 -0.6851 -1.2291
 4258TIP3    H212739   6.957   3.905   0.934  0.2712  1.0237  0.8006
 4259TIP3   OH212740   1.166   0.206   1.502 -0.3293 -0.6677 -0.1830
 4259TIP3    H112741   1.210   0.141   1.447 -1.3837  0.7317 -2.8922
 4259TIP3    H212742   1.200   0.192   1.590  4.2744 -0.7437 -1.7518
 4260TIP3   OH212743   2.594   4.703   3.035  0.3184  0.0666 -0.4168
 4260TIP3    H112744   2.539   4.686   2.958  1.2575 -0.9348 -0.8847
 4260TIP3    H212745   2.635   4.619   3.054  0.5016  0.4336  0.8782
 4261TIP3   OH212746   0.546   4.103   0.986  0.2070  0.1297 -0.3403
 4261TIP3    H112747   0.598   4.037   1.031 -0.6385 -0.2742  0.0701
 4261TIP3    H212748   0.496   4.146   1.055  0.5743  1.0433 -0.6380
 4262TIP3   OH212749   2.095   3.569   2.423  0.0135 -0.6037 -0.0841
 4262TIP3    H112750   2.124   3.650   2.381 -0.6375 -1.2729 -1.9181
 4262TIP3    H212751   2.042   3.598   2.497 -1.0379  0.6734 -1.2947
 4263TIP3   OH212752   3.986   4.876   0.909 -0.4479 -0.2893  0.0489
 4263TIP3    H112753   4.006   4.896   1.000  0.3448  1.4152 -0.4811
 4263TIP3    H212754   4.059   4.821   0.879  0.3688  0.8740 -0.1356
 4264TIP3   OH212755   7.092   3.969   5.703 -0.2076  0.1164 -0.3515
 4264TIP3    H112756   7.079   3.915   5.781  0.4911  0.5842  0.1002
 4264TIP3    H212757   7.030   4.042   5.713  1.7983  1.7132  1.2141
 4265TIP3   OH212758   5.066   3.619   1.977  0.2836  0.1032  0.0987
 4265TIP3    H112759   5.035   3.601   1.888 -0.1326 -0.6115  0.3842
 4265TIP3    H212760   4.987   3.629   2.029  0.5175 -0.4517  0.5750
 4266TIP3   OH212761   4.764   6.320   3.715  0.3826 -0.2048 -0.6737
 4266TIP3    H112762   4.824   6.274   3.774  1.1499  0.3530 -1.0140
 4266TIP3    H212763   4.679   6.278   3.731  0.8270 -0.9127 -0.0944
 4267TIP3   OH212764   5.554   5.995   3.348  0.2675  0.3932  0.3691
 4267TIP3    H112765   5.504   6.056   3.294  2.5106  1.6663 -0.4247
 4267TIP3    H212766   5.524   6.010   3.437 -0.9732  0.8513 -0.1069
 4268TIP3   OH212767   3.667   0.316   1.029 -0.0791  0.0883 -0.7083
 4268TIP3    H112768   3.718   0.397   1.033  1.1164 -0.5476 -1.9932
 4268TIP3    H212769   3.727   0.248   1.060 -0.5058 -0.5318 -1.2095
 4269TIP3   OH212770   5.842   4.552   0.785  0.3279  0.0332 -0.7558
 4269TIP3    H112771   5.856   4.488   0.714  0.3106 -1.3269  0.4161
 4269TIP3    H212772   5.882   4.511   0.861 -0.3055  1.1413  0.1930
 4270TIP3   OH212773   0.849   3.235   5.279 -0.0974 -0.2443 -0.5188
 4270TIP3    H112774   0.894   3.243   5.195  4.0372 -1.4569  1.3010
 4270TIP3    H212775   0.808   3.149   5.276 -0.1036 -0.2175 -1.3453
 4271TIP3   OH212776   6.441   1.309   1.320 -0.3809 -0.0845  0.8999
 4271TIP3    H112777   6.513   1.334   1.262 -0.9343 -0.8295 -0.1376
 4271TIP3    H212778   6.467   1.341   1.406  1.0994 -0.1818  0.5037
 4272TIP3   OH212779   1.974   2.483   4.128  0.2598 -0.7745 -0.1613
 4272TIP3    H112780   1.892   2.454   4.166 -0.9095  1.9214 -0.4217
 4272TIP3    H212781   2.002   2.410   4.073 -1.2259 -2.2804  0.9725
 4273TIP3   OH212782   5.753   2.274   5.202 -0.1701  0.1103  0.1528
 4273TIP3    H112783   5.763   2.217   5.278 -0.5836 -2.2290 -1.4236
 4273TIP3    H212784   5.838   2.270   5.158 -0.6200 -0.4153 -0.6893
 4274TIP3   OH212785   4.837   1.387   2.732 -0.4337 -0.3898 -0.2386
 4274TIP3    H112786   4.804   1.464   2.686 -3.4188 -0.5891  1.3560
 4274TIP3    H212787   4.845   1.320   2.663 -1.3572  0.3237 -1.0687
 4275TIP3   OH212788   0.914   1.040   4.347 -0.0327 -0.6041  0.5393
 4275TIP3    H112789   0.979   1.089   4.297  1.0933 -1.3361  1.2370
 4275TIP3    H212790   0.837   1.037   4.289  0.2090  1.0716  0.0766
 4276TIP3   OH212791   6.734   2.851   0.714 -0.0379  0.4951 -0.4273
 4276TIP3    H112792   6.670   2.785   0.684 -0.2991  0.6321 -0.1763
 4276TIP3    H212793   6.809   2.839   0.656 -0.7546  1.1427 -1.5264
 4277TIP3   OH212794   2.767   1.501   2.405 -0.1309 -0.1165  0.2927
 4277TIP3    H112795   2.734   1.585   2.437 -0.8855 -0.3623  0.1979
 4277TIP3    H212796   2.833   1.474   2.469 -1.1387 -0.2824  1.2993
 4278TIP3   OH212797   2.845   0.302   1.772  0.0882 -0.3685 -0.4228
 4278TIP3    H112798   2.921   0.265   1.728  1.1808  1.9733 -0.7046
 4278TIP3    H212799   2.821   0.378   1.718 -1.4889 -0.1617  0.5015
 4279TIP3   OH212800  -0.004   3.809   5.092 -0.0272 -0.0303  0.3252
 4279TIP3    H112801   0.063   3.749   5.122 -0.0540 -0.3785 -0.2951
 4279TIP3    H212802   0.024   3.836   5.004 -0.0724  0.7747  0.5487
 4280TIP3   OH212803   3.591   3.103   5.256 -0.1890  0.0715 -0.0256
 4280TIP3    H112804   3.637   3.162   5.197 -0.9602  0.5648 -0.1534
 4280TIP3    H212805   3.545   3.161   5.317 -0.2226 -0.4172  0.4231
 4281TIP3   OH212806   0.289   4.864   5.457  0.4341  0.4881  0.2896
 4281TIP3    H112807   0.363   4.864   5.518 -1.0799  2.3195  2.2838
 4281TIP3    H212808   0.213   4.847   5.513 -0.6480 -2.3347 -1.8278
 4282TIP3   OH212809   3.520   0.869   1.940  0.0515  0.3863  0.1466
 4282TIP3    H112810   3.587   0.800   1.945 -0.5090 -0.1443  0.4000
 4282TIP3    H212811   3.461   0.851   2.013 -1.5602 -0.4039 -1.2827
 4283TIP3   OH212812   7.231   4.852   5.588  0.5935  0.0064 -0.3442
 4283TIP3    H112813   7.200   4.942   5.585  0.0759 -0.1449  0.3028
 4283TIP3    H212814   7.226   4.822   5.497 -0.1525  0.3201 -0.4137
 4284TIP3   OH212815   2.232   0.412   0.678  0.5552  0.1704  0.2974
 4284TIP3    H112816   2.288   0.382   0.750  0.4592 -1.4839 -0.2778
 4284TIP3    H212817   2.143   0.392   0.707  0.5463 -0.9398 -0.4566
 4285TIP3   OH212818   2.951   2.761   2.618 -0.2830 -0.1521 -0.2586
 4285TIP3    H112819   2.965   2.745   2.711 -0.7076 -1.3112 -0.3750
 4285TIP3    H212820   3.024   2.718   2.575  1.1183  2.1914 -0.4036
 4286TIP3   OH212821   6.837   5.577   4.652 -0.3543 -0.4702  0.1503
 4286TIP3    H112822   6.833   5.637   4.726 -1.0673 -1.9404  1.3532
 4286TIP3    H212823   6.796   5.625   4.580  2.4765  1.8884 -0.0365
 4287TIP3   OH212824   3.347   4.926   4.531 -0.5694 -0.0280 -0.2733
 4287TIP3    H112825   3.344   5.020   4.551  0.4263  0.4443 -2.0928
 4287TIP3    H212826   3.286   4.916   4.457  0.6878 -0.4528 -1.2766
 4288TIP3   OH212827   3.777   5.372   2.469  0.3139  0.2172  0.2943
 4288TIP3    H112828   3.778   5.278   2.452 -0.9947  0.3717 -0.8522
 4288TIP3    H212829   3.861   5.404   2.434  0.2039 -0.3494 -0.5190
 4289TIP3   OH212830   4.422   0.854   5.781 -0.2127  0.1227  0.0534
 4289TIP3    H112831   4.409   0.919   5.849  2.2475  2.8424 -1.8199
 4289TIP3    H212832   4.354   0.872   5.716  0.4038  0.8575 -0.4152
 4290TIP3   OH212833   4.723   4.264   0.098 -0.1479  0.0137 -0.2963
 4290TIP3    H112834   4.698   4.200   0.031 -0.9439 -0.3182  0.3051
 4290TIP3    H212835   4.707   4.219   0.181  0.6451  0.4904  0.1296
 4291TIP3   OH212836   6.193   3.650   2.795 -0.1119  0.6936 -0.0686
 4291TIP3    H112837   6.288   3.653   2.799  0.0087 -1.6121  0.7444
 4291TIP3    H212838   6.173   3.613   2.709 -0.1668 -0.3711  0.3867
 4292TIP3   OH212839   0.970   0.917   2.837 -0.2894 -0.3773 -0.0215
 4292TIP3    H112840   1.055   0.954   2.812  0.0792 -1.2723 -0.1365
 4292TIP3    H212841   0.970   0.920   2.933 -0.2092 -0.1952 -0.0270
 4293TIP3   OH212842   6.286   2.015   3.976  0.5604 -0.3218 -1.1704
 4293TIP3    H112843   6.263   2.079   3.909  2.5550  0.1706 -1.4645
 4293TIP3    H212844   6.254   2.054   4.058 -0.0336  0.0798 -1.5852
 4294TIP3   OH212845   6.624   4.779   0.685 -0.1132  0.4327  0.0894
 4294TIP3    H112846   6.570   4.749   0.613  0.2358 -1.2253  0.4630
 4294TIP3    H212847   6.612   4.713   0.753  0.3406  1.4253  1.1732
 4295TIP3   OH212848   3.204   5.034   0.935 -0.1502  0.0723  0.2611
 4295TIP3    H112849   3.297   5.009   0.932  0.1758  1.3189 -0.6647
 4295TIP3    H212850   3.163   4.981   0.867 -0.0689 -0.2620  0.4675
 4296TIP3   OH212851   0.175   4.783   4.455 -0.1372 -0.1537 -0.1064
 4296TIP3    H112852   0.171   4.740   4.369 -1.6725 -0.3185  0.0319
 4296TIP3    H212853   0.133   4.868   4.441  2.5884  1.2913 -0.2966
 4297TIP3   OH212854  -0.024   5.678   5.208 -0.2219  0.3124 -0.1740
 4297TIP3    H112855  -0.028   5.672   5.112 -1.2880  2.7556 -0.3502
 4297TIP3    H212856   0.068   5.663   5.229  0.3624  1.4047 -1.7463
 4298TIP3   OH212857   1.922   3.681   1.252 -0.2574  0.1956 -0.4131
 4298TIP3    H112858   1.994   3.623   1.277  0.0962  1.0142  0.5403
 4298TIP3    H212859   1.845   3.624   1.252  0.3202 -0.6230 -1.1230
 4299TIP3   OH212860   5.015   6.268   0.478  0.3445  0.0722 -0.2517
 4299TIP3    H112861   5.084   6.222   0.430 -0.5659 -0.8451 -0.7234
 4299TIP3    H212862   4.988   6.338   0.418 -0.0360 -0.3875 -0.6210
 4300TIP3   OH212863   0.833   6.785   2.984 -0.1839 -0.0294  0.0288
 4300TIP3    H112864   0.833   6.689   2.991 -1.0188  0.0792  2.3911
 4300TIP3    H212865   0.905   6.805   2.923  1.7958 -2.0548  1.5446
 4301TIP3   OH212866   3.614   3.449   5.188  0.1022 -0.0709 -0.6262
 4301TIP3    H112867   3.622   3.374   5.129 -0.5297  0.1364 -0.9941
 4301TIP3    H212868   3.582   3.520   5.132  2.3923  0.9941 -0.6605
 4302TIP3   OH212869   0.323   4.853   3.342 -0.5111 -0.0825 -0.1160
 4302TIP3    H112870   0.398   4.804   3.309  0.5970  1.6683 -0.3193
 4302TIP3    H212871   0.277   4.791   3.398  0.9474 -1.2856 -0.1798
 4303TIP3   OH212872   4.609   4.096   4.855 -0.1549  0.1625  0.6043
 4303TIP3    H112873   4.671   4.158   4.818  0.2572  1.2427  2.9102
 4303TIP3    H212874   4.555   4.148   4.915 -2.3519 -1.0275 -0.2131
 4304TIP3   OH212875   2.981   4.508   2.323  0.5644  0.3440  0.1399
 4304TIP3    H112876   2.961   4.426   2.369 -0.5491 -0.0172 -0.9113
 4304TIP3    H212877   2.989   4.573   2.392 -1.6988 -0.0581  0.8664
 4305TIP3   OH212878   4.352   3.010   0.562  0.6802 -0.3972 -0.5514
 4305TIP3    H112879   4.369   3.101   0.536 -3.0693  0.8403  0.7616
 4305TIP3    H212880   4.407   2.958   0.502  2.9789  2.6362 -1.3484
 4306TIP3   OH212881   3.404   0.806   2.188  0.6943 -0.0396 -0.2707
 4306TIP3    H112882   3.434   0.751   2.260 -0.2667  1.9291  1.7472
 4306TIP3    H212883   3.309   0.809   2.198  0.6112  0.8639 -1.1685
 4307TIP3   OH212884   5.668   0.048   4.658  0.1847 -1.0749 -0.2347
 4307TIP3    H112885   5.727   0.098   4.602 -0.1314 -1.4736 -0.9393
 4307TIP3    H212886   5.614   0.114   4.702  0.9544 -0.7198  0.2100
 4308TIP3   OH212887   1.547   0.556   2.850 -0.5008 -0.4315 -0.0934
 4308TIP3    H112888   1.479   0.549   2.918  1.3675  2.0349  2.2625
 4308TIP3    H212889   1.622   0.511   2.887  0.5038  0.8050 -0.5662
 4309TIP3   OH212890   2.903   2.359   4.991 -0.4176 -0.7178  0.4782
 4309TIP3    H112891   2.975   2.406   5.033 -1.1536  0.2712  0.6919
 4309TIP3    H212892   2.935   2.337   4.904 -1.4263  4.2498 -1.5330
 4310TIP3   OH212893   3.052   3.304   1.301  0.0791  0.4918  0.7025
 4310TIP3    H112894   3.056   3.228   1.243 -0.9480  0.5735  0.5093
 4310TIP3    H212895   3.072   3.378   1.244 -2.6702  0.7905 -0.0422
 4311TIP3   OH212896   4.370   0.665   5.128 -0.6768  0.1721 -0.4938
 4311TIP3    H112897   4.362   0.716   5.047  1.6879  0.6203 -0.5219
 4311TIP3    H212898   4.458   0.685   5.160 -1.6470  0.2602  2.3905
 4312TIP3   OH212899   1.890   4.435   4.968  0.5841 -0.0197  0.3075
 4312TIP3    H112900   1.822   4.425   5.035  0.0669 -0.4603 -0.2730
 4312TIP3    H212901   1.900   4.530   4.958 -1.5955  0.1115 -1.2140
 4313TIP3   OH212902   1.913   3.691   0.887 -0.5514 -0.2086 -0.5057
 4313TIP3    H112903   1.955   3.756   0.943  0.3657 -0.9091 -0.3572
 4313TIP3    H212904   1.961   3.696   0.805 -0.7261 -0.4212 -0.6206
 4314TIP3   OH212905   5.320   5.047   2.882 -0.0253  0.1364 -0.1604
 4314TIP3    H112906   5.266   5.111   2.928 -1.1474 -1.2588  0.5599
 4314TIP3    H212907   5.262   4.973   2.867  1.5261 -1.2186  0.1618
 4315TIP3   OH212908   6.371   2.605   3.336  0.4700 -0.5674 -0.1065
 4315TIP3    H112909   6.464   2.582   3.340  0.2260 -1.6413 -0.2609
 4315TIP3    H212910   6.328   2.526   3.302 -0.5870 -0.3243  0.6084
 4316TIP3   OH212911   6.168   3.158   2.395 -0.2971 -0.2075  0.2783
 4316TIP3    H112912   6.102   3.096   2.426 -0.5731  0.1436  0.4058
 4316TIP3    H212913   6.135   3.188   2.310  0.0355 -0.5339  0.0335
 4317TIP3   OH212914   1.275   3.165   2.012 -0.2837 -0.3106  0.1746
 4317TIP3    H112915   1.264   3.075   2.042  0.9427 -0.2946  0.7211
 4317TIP3    H212916   1.334   3.159   1.936 -0.4261  0.0077  0.0341
 4318TIP3   OH212917   6.818   5.170   0.670 -0.5750  0.8053  0.4941
 4318TIP3    H112918   6.912   5.186   0.661  0.1793 -3.2886 -1.4852
 4318TIP3    H212919   6.781   5.200   0.587 -0.9161  1.5900  0.9185
 4319TIP3   OH212920   6.399   0.226   0.117  0.0479 -0.7061 -0.1108
 4319TIP3    H112921   6.480   0.261   0.081 -1.0694  1.0251 -1.1002
 4319TIP3    H212922   6.391   0.268   0.203 -0.0609 -0.4471 -0.2459
 4320TIP3   OH212923   4.113   2.722   3.115  0.2242  0.6628  0.0531
 4320TIP3    H112924   4.038   2.781   3.117  0.2135  0.6409  0.4374
 4320TIP3    H212925   4.129   2.706   3.022 -0.1176  0.8320 -0.0358
 4321TIP3   OH212926   5.822   3.076   0.525  0.1530 -0.4094 -0.1498
 4321TIP3    H112927   5.752   3.010   0.529  0.6985 -1.0404 -0.7787
 4321TIP3    H212928   5.880   3.045   0.455 -0.1563  1.3287 -1.2171
 4322TIP3   OH212929   5.905   3.855   3.559  0.2758 -0.1684 -0.1613
 4322TIP3    H112930   5.937   3.846   3.469 -0.9292  0.6971 -0.7012
 4322TIP3    H212931   5.812   3.833   3.554  0.3056 -0.6030  0.9790
 4323TIP3   OH212932   1.913   4.270   0.148 -0.2558 -0.5241 -0.1269
 4323TIP3    H112933   1.928   4.263   0.054 -0.7680  0.1434 -0.2630
 4323TIP3    H212934   1.923   4.181   0.181  0.7956 -0.6162 -0.6792
 4324TIP3   OH212935   5.613   3.919   4.243  0.1589 -0.0085  0.1678
 4324TIP3    H112936   5.554   3.885   4.310 -0.7145  1.1534  0.0223
 4324TIP3    H212937   5.574   4.002   4.216  1.1936  0.1821 -0.8485
 4325TIP3   OH212938   3.780   1.070   5.271  0.0010  0.1939  0.0892
 4325TIP3    H112939   3.726   1.006   5.226  0.5427  0.0116 -0.3074
 4325TIP3    H212940   3.774   1.046   5.364 -0.8726  0.3907  0.0896
 4326TIP3   OH212941   4.512   3.560   2.683  0.4523 -0.3635 -0.5906
 4326TIP3    H112942   4.519   3.574   2.589 -0.2469 -0.4913 -0.6656
 4326TIP3    H212943   4.430   3.601   2.708  0.7500 -0.1123  0.0122
 4327TIP3   OH212944   5.381   4.783   2.419 -0.1105  0.1889 -0.0105
 4327TIP3    H112945   5.300   4.808   2.464 -0.1246 -0.1152  0.1312
 4327TIP3    H212946   5.412   4.865   2.380 -0.3789  0.3478  0.1036
 4328TIP3   OH212947   4.391   1.676   0.194 -0.1766 -0.2996  0.1056
 4328TIP3    H112948   4.355   1.744   0.137  0.0308 -0.3801 -0.1189
 4328TIP3    H212949   4.388   1.596   0.142  1.1928 -0.1391 -0.2566
 4329TIP3   OH212950   3.548   6.700   5.218  0.2991  0.1508 -0.1208
 4329TIP3    H112951   3.520   6.742   5.137  1.1414  0.4160 -0.2846
 4329TIP3    H212952   3.631   6.742   5.240 -0.5707  1.0538  1.6229
 4330TIP3   OH212953   4.724   6.565   0.102 -0.0863  0.0904 -0.5850
 4330TIP3    H112954   4.684   6.651   0.087  1.0131  0.4128 -1.8369
 4330TIP3    H212955   4.654   6.512   0.138 -1.5838  0.7165 -2.4274
 4331TIP3   OH212956   0.982   1.426   2.849  0.2392 -0.0652 -0.7289
 4331TIP3    H112957   0.950   1.425   2.939  1.1841  4.3927 -0.0980
 4331TIP3    H212958   0.904   1.415   2.795 -0.6128 -0.9179  0.6494
 4332TIP3   OH212959   3.983   5.573   5.326 -0.0595 -0.1199  0.4253
 4332TIP3    H112960   4.057   5.630   5.347  0.4859 -0.2264 -1.0855
 4332TIP3    H212961   3.984   5.506   5.395  0.0882  0.9256  1.4727
 4333TIP3   OH212962   3.840   1.537   5.872  0.5783  0.5702  0.5000
 4333TIP3    H112963   3.907   1.482   5.913  1.0989 -0.4979 -1.6354
 4333TIP3    H212964   3.879   1.564   5.788 -0.4140  2.6714  0.6547
 4334TIP3   OH212965   4.678   3.259   2.184  0.3368 -0.2726 -0.0422
 4334TIP3    H112966   4.605   3.309   2.147 -0.5382 -0.8256  0.8891
 4334TIP3    H212967   4.636   3.192   2.239  1.5470 -0.1407  1.0983
 4335TIP3   OH212968   6.265   3.045   3.638  0.5090  0.3572 -0.0748
 4335TIP3    H112969   6.210   3.099   3.581  1.4131 -0.0622 -1.3871
 4335TIP3    H212970   6.277   2.963   3.590 -1.0848 -1.2249  2.0051
 4336TIP3   OH212971   4.721   2.868   2.481  0.2821  0.2703 -0.0778
 4336TIP3    H112972   4.771   2.883   2.561 -1.8624  1.0525  1.2079
 4336TIP3    H212973   4.685   2.780   2.491 -0.7111  0.7040  0.2576
 4337TIP3   OH212974   0.876   1.490   3.109  0.1466 -0.3917  0.6440
 4337TIP3    H112975   0.913   1.570   3.072 -1.2868 -0.6367 -1.4957
 4337TIP3    H212976   0.788   1.515   3.135 -0.8083 -1.5011 -1.2927
 4338TIP3   OH212977   2.024   4.080   2.315  0.0072 -0.4461 -0.1405
 4338TIP3    H112978   2.022   3.988   2.290  1.7405 -1.4816  3.0850
 4338TIP3    H212979   1.992   4.126   2.237  1.1883 -3.5482 -2.6618
 4339TIP3   OH212980   3.490   0.750   1.326  0.6964  0.1071  0.0104
 4339TIP3    H112981   3.419   0.687   1.338 -0.8784  1.0672 -3.1701
 4339TIP3    H212982   3.507   0.784   1.414 -2.2797 -0.7268  1.0204
 4340TIP3   OH212983   2.724   1.923   1.203  0.1886 -0.9992  0.2233
 4340TIP3    H112984   2.814   1.942   1.230  1.3131 -3.9510 -1.0901
 4340TIP3    H212985   2.672   1.932   1.284  1.5673  0.9582  0.9600
 4341TIP3   OH212986   1.390   3.294   0.264 -0.2931 -0.7050 -0.3020
 4341TIP3    H112987   1.426   3.292   0.175 -0.8736 -2.0742 -0.5234
 4341TIP3    H212988   1.384   3.203   0.290 -0.6732 -0.3456  0.9376
 4342TIP3   OH212989   3.923   5.708   1.450  0.0237 -0.4946  0.4604
 4342TIP3    H112990   3.996   5.661   1.490 -0.3949 -1.1074  0.5157
 4342TIP3    H212991   3.880   5.643   1.394  0.3400  0.2257 -0.6556
 4343TIP3   OH212992   4.944   2.155   2.359 -0.2753  0.2786  0.0747
 4343TIP3    H112993   4.946   2.207   2.278  1.5809  0.0909 -0.0420
 4343TIP3    H212994   4.875   2.195   2.411 -0.4608  1.3972 -0.9710
 4344TIP3   OH212995   6.120   0.857   0.940  0.5548 -0.2146 -0.5388
 4344TIP3    H112996   6.082   0.777   0.906  0.9443  0.5270 -2.8898
 4344TIP3    H212997   6.045   0.913   0.959  0.3282  0.1994 -2.4642
 4345TIP3   OH212998   3.533   3.560   1.574  0.1188  0.0847 -0.3575
 4345TIP3    H112999   3.612   3.507   1.571  0.3372  0.4262 -0.6720
 4345TIP3    H213000   3.532   3.607   1.491 -1.2796 -1.1573 -1.0982
 4346TIP3   OH213001   7.063   3.075   5.754  0.3843 -0.0718 -0.6033
 4346TIP3    H113002   7.093   3.085   5.845  3.2356 -0.8354 -1.3641
 4346TIP3    H213003   7.076   3.162   5.716 -0.3950  0.1366 -0.3976
 4347TIP3   OH213004   1.212   3.895   3.031  0.4721 -0.5483  0.0863
 4347TIP3    H113005   1.214   3.922   2.939 -1.0044 -2.0798 -0.4564
 4347TIP3    H213006   1.248   3.806   3.030 -0.1848 -0.8265  0.8707
 4348TIP3   OH213007   1.581   1.356   0.404 -0.1467 -0.2776 -0.1181
 4348TIP3    H113008   1.487   1.356   0.387 -0.1860 -0.4450  0.0906
 4348TIP3    H213009   1.594   1.428   0.466 -0.0613  0.0778 -0.5451
 4349TIP3   OH213010   1.687   5.930   1.535 -0.1138 -0.0604 -0.3689
 4349TIP3    H113011   1.779   5.945   1.556  0.0603  2.7187 -2.5168
 4349TIP3    H213012   1.640   5.949   1.616  1.1151 -0.6274  0.5055
 4350TIP3   OH213013   0.431   5.824   0.132 -0.3207 -0.1376  0.1538
 4350TIP3    H113014   0.447   5.881   0.057 -1.7019 -1.4010 -1.1925
 4350TIP3    H213015   0.497   5.755   0.126  0.3101  0.3991  0.8099
 4351TIP3   OH213016   5.550   0.160   3.257 -0.6927 -0.4070  0.0439
 4351TIP3    H113017   5.515   0.249   3.259 -1.5961 -0.6115 -2.5304
 4351TIP3    H213018   5.562   0.136   3.349 -2.8854  1.4135  0.8801
 4352TIP3   OH213019   4.542   4.065   5.432 -0.4436  0.3228  0.0347
 4352TIP3    H113020   4.554   4.042   5.340 -1.0501  0.1298  0.0025
 4352TIP3    H213021   4.631   4.082   5.464 -0.0984 -0.8791 -0.2524
 4353TIP3   OH213022   4.818   5.536   3.901 -0.1622 -0.2060 -0.3673
 4353TIP3    H113023   4.842   5.466   3.962 -0.0288  1.2507  1.3211
 4353TIP3    H213024   4.883   5.605   3.917 -0.4566  0.4252 -1.7949
 4354TIP3   OH213025   2.546   0.115   0.634 -0.1016  0.0113  0.2648
 4354TIP3    H113026   2.583   0.069   0.709 -0.3865  1.6423  1.4716
 4354TIP3    H213027   2.454   0.087   0.631  0.3177 -1.4134 -0.6297
 4355TIP3   OH213028   2.801   3.242   2.508  0.2079  0.4730 -0.1809
 4355TIP3    H113029   2.717   3.269   2.472 -0.7058 -1.3429  0.4485
 4355TIP3    H213030   2.794   3.261   2.602 -0.2608 -1.3128  0.1886
 4356TIP3   OH213031   1.921   1.272   2.930  0.5608 -0.3030  0.2526
 4356TIP3    H113032   1.894   1.336   2.996  0.7887  1.5809 -1.3900
 4356TIP3    H213033   1.953   1.325   2.857  0.5580 -2.3130 -1.2907
 4357TIP3   OH213034   1.641   5.647   2.893  0.4248  0.1499 -0.2284
 4357TIP3    H113035   1.613   5.631   2.803 -0.2683  1.0519 -0.1909
 4357TIP3    H213036   1.658   5.742   2.897 -0.0021  0.2011  0.7003
 4358TIP3   OH213037   1.685   0.402   4.088 -0.0539 -0.4505 -0.2664
 4358TIP3    H113038   1.737   0.354   4.024 -1.3905 -1.8459 -0.3578
 4358TIP3    H213039   1.744   0.413   4.163  0.5448 -1.5448 -0.5507
 4359TIP3   OH213040   6.908   2.418   0.734 -0.8464  0.1230 -0.3355
 4359TIP3    H113041   6.979   2.446   0.792  0.6464 -0.4668 -1.7607
 4359TIP3    H213042   6.840   2.484   0.745 -0.1018  0.7015  1.1284
 4360TIP3   OH213043   0.892   4.862   2.939 -0.1845 -0.4482 -0.3808
 4360TIP3    H113044   0.932   4.787   2.894  0.7952 -0.3907  0.3686
 4360TIP3    H213045   0.904   4.935   2.878  0.6975 -0.4771 -0.2629
 4361TIP3   OH213046   5.341   3.820   0.439  0.0357 -0.0699 -0.4100
 4361TIP3    H113047   5.412   3.884   0.450 -1.0088  1.0370  0.0938
 4361TIP3    H213048   5.329   3.782   0.526 -0.8552  0.7085 -0.1774
 4362TIP3   OH213049   1.103   5.846   1.756  0.0138 -0.2373 -0.5270
 4362TIP3    H113050   1.085   5.840   1.850 -2.9504  0.7834 -0.9172
 4362TIP3    H213051   1.087   5.757   1.723 -3.0761  0.2259 -0.5615
 4363TIP3   OH213052   0.227   6.544   2.431  0.2301 -0.0314 -0.3323
 4363TIP3    H113053   0.258   6.503   2.351 -0.4189 -1.0458 -0.0887
 4363TIP3    H213054   0.295   6.526   2.496  0.1207 -0.4211 -0.3216
 4364TIP3   OH213055   6.693   0.003   5.150 -0.2132  0.7982  0.4299
 4364TIP3    H113056   6.602  -0.015   5.125  0.2600 -1.3260  0.0272
 4364TIP3    H213057   6.690   0.013   5.245 -0.6229 -1.3556  0.6929
 4365TIP3   OH213058   5.252   5.116   1.175  0.2168  0.1747  0.0576
 4365TIP3    H113059   5.311   5.060   1.123 -0.8438 -0.7145 -0.2324
 4365TIP3    H213060   5.167   5.107   1.133 -0.7511 -0.7770  2.0681
 4366TIP3   OH213061   6.062   6.431   0.170 -0.0262  0.0797 -0.0663
 4366TIP3    H113062   6.050   6.474   0.086 -2.2935  1.0145  0.6615
 4366TIP3    H213063   6.108   6.495   0.224  1.3916 -0.5045 -0.5328
 4367TIP3   OH213064   2.266   3.055   3.870 -0.3986 -0.4241 -0.0616
 4367TIP3    H113065   2.216   2.984   3.830  0.3963 -2.0065  1.5965
 4367TIP3    H213066   2.311   3.098   3.797  0.1020 -2.4515 -1.0122
 4368TIP3   OH213067   6.038   3.649   5.585 -0.1650 -0.1270 -0.0174
 4368TIP3    H113068   6.080   3.610   5.662  0.1758 -0.6476 -0.4589
 4368TIP3    H213069   5.962   3.696   5.620  0.6540  0.6285  0.7574
 4369TIP3   OH213070   4.364   3.066   1.032 -0.0582  0.4425  0.4385
 4369TIP3    H113071   4.315   3.122   1.092 -1.6282 -0.9464  0.5184
 4369TIP3    H213072   4.307   3.058   0.955 -0.0080 -1.2394  0.5449
 4370TIP3   OH213073   0.511   1.446   0.041 -0.1094 -0.1673 -0.0485
 4370TIP3    H113074   0.579   1.455  -0.025 -0.1667  2.6708  0.1572
 4370TIP3    H213075   0.554   1.470   0.123 -0.3063 -2.6352  0.8546
 4371TIP3   OH213076   0.436   2.520   2.467  0.7536  0.1221 -0.4435
 4371TIP3    H113077   0.364   2.457   2.456 -1.0662  1.4213  2.7482
 4371TIP3    H213078   0.510   2.467   2.495  0.8193 -1.1046 -2.6629
 4372TIP3   OH213079   2.534   3.815   1.615 -0.3782  0.1051 -0.0742
 4372TIP3    H113080   2.533   3.786   1.524 -2.3088 -0.3731  0.0569
 4372TIP3    H213081   2.529   3.734   1.666 -1.4959  0.4367  0.3828
 4373TIP3   OH213082   1.991   4.053   0.386 -0.1314 -0.0122 -0.2634
 4373TIP3    H113083   1.994   3.958   0.375 -0.3635  0.0813 -1.2199
 4373TIP3    H213084   1.915   4.067   0.443 -0.5272 -0.3615 -0.6929
 4374TIP3   OH213085   4.979   3.127   2.814 -0.5602 -0.7615 -0.6092
 4374TIP3    H113086   5.048   3.134   2.748 -0.4725 -1.7283 -0.6356
 4374TIP3    H213087   5.003   3.192   2.880  1.4682 -2.3317  0.3135
 4375TIP3   OH213088   6.700   4.770   1.029  0.3079  0.0508  0.0722
 4375TIP3    H113089   6.696   4.865   1.018  0.5306 -0.0062 -0.5217
 4375TIP3    H213090   6.681   4.756   1.122  0.5817  0.6947  0.2322
 4376TIP3   OH213091   7.040   3.534   4.291  0.8042  0.6525 -0.1528
 4376TIP3    H113092   7.121   3.578   4.265  1.6862 -0.7040  0.1849
 4376TIP3    H213093   7.069   3.463   4.348 -0.5148 -0.6601 -1.0516
 4377TIP3   OH213094   4.675   6.374   1.869 -0.0384 -0.4595  0.1770
 4377TIP3    H113095   4.672   6.307   1.801  0.6022 -1.3158  0.9593
 4377TIP3    H213096   4.691   6.325   1.950 -1.6637  0.4322  1.0934
 4378TIP3   OH213097   6.884   1.509   0.476 -0.4274  0.9028  0.2018
 4378TIP3    H113098   6.838   1.484   0.557  0.4863 -0.4121  0.3506
 4378TIP3    H213099   6.914   1.426   0.440  0.9489  1.6458 -0.4182
 4379TIP3   OH213100   4.302   4.439   2.529 -0.5746 -0.8261 -0.0374
 4379TIP3    H113101   4.221   4.453   2.479 -1.6137  0.6695  1.9206
 4379TIP3    H213102   4.272   4.412   2.616  0.9881  0.3114  0.8943
 4380TIP3   OH213103   5.863   5.838   4.853 -0.4310  0.2041  0.0702
 4380TIP3    H113104   5.876   5.821   4.760 -1.1265 -0.5222  0.0947
 4380TIP3    H213105   5.943   5.881   4.882 -0.6221  1.3932 -1.0897
 4381TIP3   OH213106   3.910   1.556   4.479  0.2608  0.6350  0.2584
 4381TIP3    H113107   3.841   1.531   4.417  1.3988 -0.8521 -0.4738
 4381TIP3    H213108   3.900   1.650   4.489 -1.8833  0.4663  0.2059
 4382TIP3   OH213109   4.662   2.213   0.538 -0.2302  0.2459 -0.0787
 4382TIP3    H113110   4.600   2.219   0.611  0.1328  0.7111  0.2034
 4382TIP3    H213111   4.634   2.280   0.476  0.6989  1.3353  0.6217
 4383TIP3   OH213112   4.548   5.964   1.812 -0.2551 -0.2661 -0.1526
 4383TIP3    H113113   4.619   6.022   1.839  0.1602 -0.7459 -0.2001
 4383TIP3    H213114   4.514   6.003   1.732 -0.3300  0.2009  0.1039
 4384TIP3   OH213115   1.429   0.763   1.135 -0.3880  0.1541 -0.1410
 4384TIP3    H113116   1.467   0.844   1.169 -0.8729  0.6087 -0.6445
 4384TIP3    H213117   1.405   0.784   1.044 -2.5809  0.1718  0.3844
 4385TIP3   OH213118   6.515   3.165   5.422  0.1132 -0.7647 -0.6112
 4385TIP3    H113119   6.542   3.097   5.483  0.1456 -1.0109 -0.8961
 4385TIP3    H213120   6.586   3.229   5.425  1.2389 -1.8706 -2.0702
 4386TIP3   OH213121   3.454   4.171   2.281  0.0110 -0.2972 -0.4827
 4386TIP3    H113122   3.395   4.234   2.321 -0.7960 -1.1827 -0.2329
 4386TIP3    H213123   3.403   4.131   2.211  0.7389 -0.2065 -1.0877
 4387TIP3   OH213124   6.417   1.950   0.758  0.1356  0.4959  0.1375
 4387TIP3    H113125   6.349   1.901   0.712  0.8104 -1.8673  1.4768
 4387TIP3    H213126   6.494   1.942   0.701  0.0909  0.4662  0.0807
 4388TIP3   OH213127   3.133   3.686   2.228 -0.3009 -0.2725 -0.1095
 4388TIP3    H113128   3.145   3.659   2.137 -0.8135 -1.1572  0.0815
 4388TIP3    H213129   3.067   3.627   2.263  0.0751 -0.1120  0.9187
 4389TIP3   OH213130   6.575   4.317   3.740 -0.1128 -0.2103  0.3312
 4389TIP3    H113131   6.639   4.359   3.798 -0.1652 -0.8902  0.8976
 4389TIP3    H213132   6.611   4.229   3.724  0.4856  0.3374 -1.6233
 4390TIP3   OH213133   5.665   5.051   3.785 -0.2855 -0.0695 -0.4144
 4390TIP3    H113134   5.704   5.112   3.723 -1.1202  0.3896 -0.4968
 4390TIP3    H213135   5.617   5.106   3.847 -1.3751 -0.6328 -0.7175
 4391TIP3   OH213136   1.276   6.419   4.213  0.1534 -0.1992  0.3537
 4391TIP3    H113137   1.193   6.467   4.218  0.8356  1.0221  0.1115
 4391TIP3    H213138   1.261   6.354   4.143  0.0632  1.3886 -1.1707
 4392TIP3   OH213139   2.496   5.113   0.930  0.1976 -0.8954  0.1205
 4392TIP3    H113140   2.543   5.161   0.862 -0.3341 -0.6563 -0.0793
 4392TIP3    H213141   2.530   5.024   0.923 -0.3063 -1.0320 -0.8959
 4393TIP3   OH213142   2.076   1.361   2.143 -0.1386 -0.0825  0.3220
 4393TIP3    H113143   1.993   1.362   2.096  0.0569 -0.8164 -0.0461
 4393TIP3    H213144   2.087   1.271   2.172  0.9080 -0.1863 -0.3309
 4394TIP3   OH213145   4.057   6.731   5.360 -0.1008 -0.0773 -0.5867
 4394TIP3    H113146   4.046   6.735   5.265  2.1206  0.4275 -0.8811
 4394TIP3    H213147   4.020   6.812   5.393  1.1018  0.7904 -1.2977
 4395TIP3   OH213148   3.300   2.279   3.651 -0.4230  0.3478  0.7793
 4395TIP3    H113149   3.308   2.274   3.747 -1.7935  2.8542  1.1258
 4395TIP3    H213150   3.383   2.317   3.622  0.0204 -0.4723  0.9444
 4396TIP3   OH213151   2.251   1.118   5.441  0.1606  0.0375 -0.4320
 4396TIP3    H113152   2.205   1.094   5.361  1.7390  1.6401 -1.8911
 4396TIP3    H213153   2.246   1.039   5.496 -2.1147 -0.6478 -1.5050
 4397TIP3   OH213154   0.126   1.129   3.077 -0.2899  0.2372  1.1206
 4397TIP3    H113155   0.111   1.095   3.165 -0.2788  0.4300  1.1978
 4397TIP3    H213156   0.040   1.158   3.047 -0.0420  1.6682  1.6998
 4398TIP3   OH213157   0.129   5.101   3.364  0.2664  0.5393 -0.3070
 4398TIP3    H113158   0.173   5.050   3.296  0.0822 -0.0077 -0.0208
 4398TIP3    H213159   0.078   5.037   3.413 -0.1548  1.0348 -0.0857
 4399TIP3   OH213160   3.090   5.804   2.120  0.0628  1.1096  0.2337
 4399TIP3    H113161   3.003   5.813   2.159  1.4059  0.0008  3.9158
 4399TIP3    H213162   3.139   5.879   2.154  1.0218  0.7715 -0.3719
 4400TIP3   OH213163   5.017   1.952   1.534 -0.5293  0.2206  0.6298
 4400TIP3    H113164   4.968   1.965   1.452  0.0294 -1.5888 -0.0163
 4400TIP3    H213165   4.951   1.920   1.596 -0.7035  0.4068  0.5439
 4401TIP3   OH213166   2.572   5.543   3.193  0.5588 -0.1664 -0.0823
 4401TIP3    H113167   2.509   5.611   3.169  1.1032  0.5158  0.3868
 4401TIP3    H213168   2.545   5.467   3.141 -0.9553 -0.0612  0.4897
 4402TIP3   OH213169   3.473   4.354   3.329 -0.2157 -0.2306  0.1317
 4402TIP3    H113170   3.417   4.398   3.391 -1.2528 -1.0404 -0.1940
 4402TIP3    H213171   3.549   4.411   3.319 -0.0467 -0.0721  2.0848
 4403TIP3   OH213172   4.689   5.157   1.910  0.2254  0.0938  0.1170
 4403TIP3    H113173   4.640   5.140   1.829  0.4179 -2.3189  0.4465
 4403TIP3    H213174   4.704   5.251   1.909 -2.2600  0.5655 -1.2254
 4404TIP3   OH213175   5.053   3.067   0.200  0.8269 -0.3158  0.5912
 4404TIP3    H113176   5.092   3.146   0.163  0.5354  0.1505  1.2555
 4404TIP3    H213177   5.110   3.045   0.274  0.9280 -0.7513  0.3851
 4405TIP3   OH213178   6.164   0.380   0.615 -0.6703  0.2076  0.0949
 4405TIP3    H113179   6.092   0.365   0.676 -1.0487 -0.2141 -0.4474
 4405TIP3    H213180   6.190   0.471   0.629 -0.5190  0.0251  1.1297
 4406TIP3   OH213181   4.519   2.810   1.777  0.2340  0.3823  0.2771
 4406TIP3    H113182   4.583   2.816   1.848  0.3160  1.1678  0.1420
 4406TIP3    H213183   4.572   2.800   1.698  0.1870  0.8831  0.1815
 4407TIP3   OH213184   3.673   0.442   5.775  0.5498  0.7266 -0.3211
 4407TIP3    H113185   3.687   0.349   5.758  0.6252  0.9187 -1.3977
 4407TIP3    H213186   3.755   0.472   5.815  0.3072  0.2156  0.5784
 4408TIP3   OH213187   5.087   4.544   2.275  0.2505  0.1564 -0.3250
 4408TIP3    H113188   5.005   4.556   2.323 -0.5705 -1.8086 -1.1052
 4408TIP3    H213189   5.119   4.632   2.258 -2.1834  1.0154 -0.7944
 4409TIP3   OH213190   5.628   3.574   4.140  0.5471  0.0027  0.1344
 4409TIP3    H113191   5.651   3.618   4.058  1.1264 -0.2316  0.1733
 4409TIP3    H213192   5.549   3.620   4.169 -0.9659 -1.2774 -1.6531
 4410TIP3   OH213193   4.020   2.768   3.786  0.1414  0.1715 -0.4069
 4410TIP3    H113194   4.049   2.688   3.743  2.2601  1.8148 -2.3023
 4410TIP3    H213195   3.965   2.812   3.721 -0.6631  0.4780  0.4512
 4411TIP3   OH213196   4.635   0.809   1.918 -0.1213  0.4036  0.4551
 4411TIP3    H113197   4.592   0.892   1.939 -1.2465 -0.2602  0.7984
 4411TIP3    H213198   4.654   0.770   2.003  0.1645  0.1682  0.2848
 4412TIP3   OH213199   1.273   2.502   2.654  0.4784  0.3648  0.4163
 4412TIP3    H113200   1.299   2.594   2.646  0.6991  0.1452 -2.8169
 4412TIP3    H213201   1.347   2.454   2.616  0.9460 -1.3458  3.2168
 4413TIP3   OH213202   1.145   5.670   2.021  0.3162  0.5639 -0.0050
 4413TIP3    H113203   1.230   5.636   1.992 -0.7332 -0.9635 -1.4384
 4413TIP3    H213204   1.081   5.618   1.974 -1.4682  0.8522  1.9750
 4414TIP3   OH213205   4.949   0.789   3.390  0.6218  0.2815 -0.2213
 4414TIP3    H113206   4.854   0.798   3.387  0.6572  0.7233 -0.0497
 4414TIP3    H213207   4.972   0.815   3.479  0.9525  0.6576 -0.4151
 4415TIP3   OH213208   4.574   2.124   1.251  0.9427  0.7877  0.2259
 4415TIP3    H113209   4.498   2.123   1.194  0.7141 -0.5175  0.5182
 4415TIP3    H213210   4.649   2.117   1.192  0.7106 -0.4851  0.0586
 4416TIP3   OH213211   5.447   0.547   0.371  0.2295  0.4942  0.3860
 4416TIP3    H113212   5.378   0.606   0.401 -0.0735  0.5153 -0.3468
 4416TIP3    H213213   5.501   0.599   0.312 -1.1166 -0.4255 -1.7423
 4417TIP3   OH213214   3.582   4.118   0.953  0.8973 -0.2616  0.4645
 4417TIP3    H113215   3.594   4.212   0.968 -1.4818 -0.1168  1.9827
 4417TIP3    H213216   3.651   4.095   0.891  0.6605  2.8147 -1.1665
 4418TIP3   OH213217   7.031   6.028   1.527 -0.0285  0.2604 -0.2004
 4418TIP3    H113218   7.051   6.066   1.441  1.5279  1.8180  0.7773
 4418TIP3    H213219   7.115   6.025   1.571 -0.6382 -1.5216  0.9184
 4419TIP3   OH213220   1.476   3.800   4.493  0.1503  0.2615  0.3805
 4419TIP3    H113221   1.565   3.765   4.489  0.5597  1.2341  0.5368
 4419TIP3    H213222   1.419   3.724   4.488  1.0001 -0.3853  0.4212
 4420TIP3   OH213223   5.189   4.884   1.506  0.3468 -0.4997  0.0786
 4420TIP3    H113224   5.210   4.976   1.496  1.9084 -0.9221 -0.8422
 4420TIP3    H213225   5.097   4.877   1.480  0.7268  0.4972 -1.6294
 4421TIP3   OH213226   3.871   0.418   3.413  0.2987 -0.4061 -0.7213
 4421TIP3    H113227   3.862   0.349   3.479 -2.4113 -1.2176 -1.8142
 4421TIP3    H213228   3.804   0.481   3.436  0.8457  0.4493 -1.4257
 4422TIP3   OH213229   1.395   5.476   1.522 -0.1688 -0.2046 -0.0405
 4422TIP3    H113230   1.319   5.472   1.464  0.3753  1.5827 -0.9221
 4422TIP3    H213231   1.455   5.409   1.487  0.2075  0.9290 -1.6756
 4423TIP3   OH213232   3.321   2.859   5.881 -0.7669  0.0885  0.4713
 4423TIP3    H113233   3.324   2.764   5.872  0.1015  0.0563  0.9781
 4423TIP3    H213234   3.403   2.890   5.842 -0.8661  0.5984  0.6550
 4424TIP3   OH213235   3.368   1.230   1.698  0.0631 -0.0327 -0.2630
 4424TIP3    H113236   3.376   1.324   1.712  4.0998 -0.0575 -1.1567
 4424TIP3    H213237   3.321   1.223   1.614  0.4749  1.2375 -0.6326
 4425TIP3   OH213238   0.850   5.720   0.857  0.1099 -0.6827  0.4161
 4425TIP3    H113239   0.856   5.815   0.863  1.2944 -0.8030  1.2868
 4425TIP3    H213240   0.777   5.697   0.915 -0.9204 -0.2501 -0.6433
 4426TIP3   OH213241   4.550   2.845   5.735 -0.1203 -0.1908  0.3993
 4426TIP3    H113242   4.594   2.909   5.791 -0.8064  0.1253  0.5861
 4426TIP3    H213243   4.620   2.791   5.701  0.2782 -0.7025  1.9575
 4427TIP3   OH213244   2.012   4.430   2.945 -0.1261  0.4292  0.1845
 4427TIP3    H113245   1.919   4.440   2.969  0.2063  1.3379  1.1791
 4427TIP3    H213246   2.031   4.508   2.893  0.1317  0.3515  0.1647
 4428TIP3   OH213247   0.956   4.233   2.076 -0.5463 -0.5740  0.5876
 4428TIP3    H113248   0.965   4.139   2.088 -1.0220 -0.7738 -0.5568
 4428TIP3    H213249   0.862   4.250   2.086 -0.7297 -0.5082 -1.0828
 4429TIP3   OH213250   5.736   4.569   3.378  0.1911  0.1733  0.3846
 4429TIP3    H113251   5.671   4.571   3.448 -0.1567  2.4511  0.0777
 4429TIP3    H213252   5.807   4.625   3.410 -0.0931  1.4728 -1.1487
 4430TIP3   OH213253   6.790   4.979   0.344  0.6096  0.4136  0.1042
 4430TIP3    H113254   6.696   4.993   0.345  0.5180 -0.1843  0.0215
 4430TIP3    H213255   6.808   4.934   0.427  0.3085 -2.6520 -1.3623
 4431TIP3   OH213256   4.593   5.705   1.014  0.0707 -0.0149 -0.0807
 4431TIP3    H113257   4.583   5.775   1.078 -0.2028  0.1515 -0.3063
 4431TIP3    H213258   4.681   5.717   0.979  0.0555  0.1645 -0.0588
 4432TIP3   OH213259   2.103   1.403   4.860 -0.2818  0.0126 -0.1627
 4432TIP3    H113260   2.165   1.413   4.787  0.1771  0.0913  0.2339
 4432TIP3    H213261   2.150   1.437   4.936 -0.0335 -1.7462  0.5296
 4433TIP3   OH213262   4.895   2.717   3.331  0.0653 -0.1601  0.4099
 4433TIP3    H113263   4.901   2.755   3.419  0.6825 -2.3549  1.3738
 4433TIP3    H213264   4.980   2.735   3.292  0.2348 -0.2554  0.7301
 4434TIP3   OH213265   5.911   3.286   5.097  0.7646 -0.2211  0.0488
 4434TIP3    H113266   5.854   3.220   5.057  0.0903  0.0495  0.5552
 4434TIP3    H213267   5.885   3.288   5.189  0.2544  1.2695 -0.0910
 4435TIP3   OH213268   2.997   1.179   3.945  0.3275 -0.4046  0.2046
 4435TIP3    H113269   2.987   1.106   3.884  1.7980 -2.1843  2.0019
 4435TIP3    H213270   3.049   1.244   3.897 -1.2210 -0.3328 -1.5032
 4436TIP3   OH213271   6.457   3.695   2.690  0.0131  0.3267 -0.3522
 4436TIP3    H113272   6.492   3.607   2.705  0.0525 -0.1448 -2.7339
 4436TIP3    H213273   6.524   3.754   2.724 -0.7018 -0.4744  2.7497
 4437TIP3   OH213274   6.299   5.430   3.285  0.0810  0.1973  0.3439
 4437TIP3    H113275   6.204   5.438   3.285 -0.7083 -4.9298 -2.0045
 4437TIP3    H213276   6.326   5.472   3.203 -0.2261  0.9524  0.6199
 4438TIP3   OH213277   1.221   2.535   0.819 -0.2584  0.0109 -0.2918
 4438TIP3    H113278   1.183   2.555   0.733 -0.2903 -1.9042 -0.7658
 4438TIP3    H213279   1.306   2.579   0.819 -0.6354  0.7695 -0.9250
 4439TIP3   OH213280   6.995   1.851   3.424 -0.2498  0.5855  0.2445
 4439TIP3    H113281   6.908   1.890   3.432  0.1326  1.3018  1.1899
 4439TIP3    H213282   6.991   1.798   3.345 -0.7673  2.6482 -1.1726
 4440TIP3   OH213283   2.363   6.478   2.100 -0.1650  0.1757  0.5991
 4440TIP3    H113284   2.275   6.508   2.123 -0.0858  0.6247  0.3411
 4440TIP3    H213285   2.369   6.490   2.005  0.0741 -0.1248  0.5729
 4441TIP3   OH213286   1.422   2.595   1.652  0.3554  0.1648  0.3595
 4441TIP3    H113287   1.381   2.611   1.567 -0.6852  0.1738  0.8424
 4441TIP3    H213288   1.361   2.633   1.715  1.3438  0.5830  1.0896
 4442TIP3   OH213289   2.638   5.093   3.538  0.0302  0.0756  0.0539
 4442TIP3    H113290   2.638   5.053   3.451  1.7027  0.7895 -0.3126
 4442TIP3    H213291   2.578   5.039   3.589 -2.6914  0.8667 -2.0555
 4443TIP3   OH213292   4.974   5.268   0.257  0.8376  0.0047  0.5758
 4443TIP3    H113293   4.999   5.178   0.279  0.3844 -0.3327 -0.2521
 4443TIP3    H213294   4.966   5.268   0.162 -2.4215  0.0349  0.7630
 4444TIP3   OH213295   3.182   3.360   5.594 -0.4676 -0.7515  0.2296
 4444TIP3    H113296   3.164   3.454   5.583 -0.5353 -0.5389  1.8560
 4444TIP3    H213297   3.153   3.320   5.512 -3.0061  0.3187  0.5117
 4445TIP3   OH213298   3.249   6.560   3.800 -0.3783 -0.1497  0.2111
 4445TIP3    H113299   3.250   6.472   3.761 -0.7579 -0.4617  0.8822
 4445TIP3    H213300   3.324   6.561   3.859 -1.6101 -0.8369  1.8918
 4446TIP3   OH213301   5.442   3.853   1.039 -0.1646 -0.0098  0.2319
 4446TIP3    H113302   5.429   3.913   0.965  2.9923 -0.6314 -0.9591
 4446TIP3    H213303   5.358   3.808   1.049 -1.5639  2.1622 -1.0367
 4447TIP3   OH213304   3.411   3.972   4.473 -0.3608 -0.4716 -0.1342
 4447TIP3    H113305   3.441   3.886   4.442 -0.2857 -0.5386  0.1178
 4447TIP3    H213306   3.487   4.029   4.462 -0.6083 -0.2815 -0.9042
 4448TIP3   OH213307   4.661   1.573   4.849 -0.2666  0.0502 -0.2438
 4448TIP3    H113308   4.746   1.568   4.894 -0.6606 -0.2327  0.5032
 4448TIP3    H213309   4.631   1.482   4.845 -0.8514  0.2160  0.1481
 4449TIP3   OH213310   5.472   5.544   2.050  0.5833 -0.7356 -0.1971
 4449TIP3    H113311   5.546   5.484   2.057 -0.2648 -1.7215  0.6964
 4449TIP3    H213312   5.404   5.494   2.005  1.1618  0.9134 -3.1472
 4450TIP3   OH213313   4.634   3.220   5.305  0.4210 -0.3099  0.0590
 4450TIP3    H113314   4.555   3.173   5.277  2.5115 -4.3941  0.3626
 4450TIP3    H213315   4.607   3.265   5.386 -1.6234 -1.4404  0.0811
 4451TIP3   OH213316   6.811   5.546   3.658  0.5553  0.5889  0.1915
 4451TIP3    H113317   6.751   5.620   3.660 -1.5605 -1.0110 -0.1723
 4451TIP3    H213318   6.851   5.545   3.745 -0.2359  1.5121  0.5866
 4452TIP3   OH213319   1.299   5.275   3.396 -0.1800 -0.4877 -0.1327
 4452TIP3    H113320   1.281   5.358   3.440 -0.6121 -0.2841 -0.6849
 4452TIP3    H213321   1.312   5.299   3.304  0.3846 -0.9471 -0.1753
 4453TIP3   OH213322   1.331   1.212   4.736 -0.2673 -0.2496 -0.4184
 4453TIP3    H113323   1.260   1.273   4.756 -0.1938 -0.1847 -0.3545
 4453TIP3    H213324   1.408   1.267   4.725 -0.4709 -0.1973 -1.7433
 4454TIP3   OH213325   7.006   1.925   0.947 -0.0264 -0.0145  0.1893
 4454TIP3    H113326   7.098   1.903   0.963  0.5725  1.7872 -0.5411
 4454TIP3    H213327   6.963   1.913   1.032  0.7877 -1.2283  0.4510
 4455TIP3   OH213328   5.788   2.168   3.341  0.0103  0.2694 -0.9440
 4455TIP3    H113329   5.783   2.201   3.430 -0.7928 -0.0552 -0.8581
 4455TIP3    H213330   5.764   2.243   3.286  0.3266  0.4184 -0.8822
 4456TIP3   OH213331   4.787   4.502  -0.007  0.2788  0.1414  0.0186
 4456TIP3    H113332   4.831   4.542   0.068 -0.5811  0.0802  0.5704
 4456TIP3    H213333   4.761   4.415   0.024  0.8841 -0.3160 -0.7162
 4457TIP3   OH213334   4.805   5.504   2.561  0.2610 -0.5392 -0.1338
 4457TIP3    H113335   4.868   5.455   2.508  2.6995 -0.3486  2.3718
 4457TIP3    H213336   4.824   5.596   2.542  1.1143 -0.4714  0.9952
 4458TIP3   OH213337   5.263   4.299   2.218  0.0391 -0.5020 -0.3172
 4458TIP3    H113338   5.257   4.353   2.296  0.7416 -2.5324  1.2175
 4458TIP3    H213339   5.213   4.221   2.238  1.3216 -1.6474 -1.3711
 4459TIP3   OH213340   3.505   1.047   5.434  0.4166 -0.4311 -0.3775
 4459TIP3    H113341   3.539   1.135   5.418  0.1387 -0.3947 -0.8026
 4459TIP3    H213342   3.416   1.062   5.467  0.8198 -0.5219  0.7696
 4460TIP3   OH213343   3.634   5.863   1.150  0.4698 -0.0772  0.1531
 4460TIP3    H113344   3.561   5.919   1.178  0.3362 -1.4518  2.8622
 4460TIP3    H213345   3.605   5.826   1.067 -1.5073  0.2072  0.6568
 4461TIP3   OH213346   0.939   2.011   5.514 -0.5198  0.1763  0.1413
 4461TIP3    H113347   0.868   2.075   5.501  0.4213  0.6955 -3.4857
 4461TIP3    H213348   0.911   1.934   5.464  1.0303  0.0641 -0.6057
 4462TIP3   OH213349   6.103   6.151   1.694  0.1271 -0.3047  0.2857
 4462TIP3    H113350   6.080   6.089   1.624  2.6057 -0.8167 -0.1521
 4462TIP3    H213351   6.094   6.237   1.654 -0.5538 -0.4942  0.0137
 4463TIP3   OH213352   1.472   5.183   3.593  0.0777 -0.6710 -0.7871
 4463TIP3    H113353   1.428   5.225   3.519 -0.5109 -2.9665 -1.8572
 4463TIP3    H213354   1.404   5.129   3.633  0.1962  1.0737  1.9818
 4464TIP3   OH213355   3.402   5.249   1.322  0.0573 -0.0384  0.1797
 4464TIP3    H113356   3.421   5.264   1.229  0.8812 -2.0464 -0.0363
 4464TIP3    H213357   3.484   5.215   1.358 -0.3885  0.2760  1.5494
 4465TIP3   OH213358   6.494   0.312   5.715  0.1982  0.1682  0.8237
 4465TIP3    H113359   6.581   0.311   5.753  0.5852 -0.0494 -0.0338
 4465TIP3    H213360   6.441   0.257   5.774  0.4075  1.0119  1.8257
 4466TIP3   OH213361   4.758   1.407   2.993 -0.0119 -0.2726 -0.4667
 4466TIP3    H113362   4.780   1.389   2.901  0.5873 -1.4767 -0.1078
 4466TIP3    H213363   4.818   1.352   3.043 -0.8775 -0.2474  0.6354
 4467TIP3   OH213364   5.287   1.670   0.847  0.5878  0.3161  0.6145
 4467TIP3    H113365   5.265   1.635   0.933  2.4586  0.4074  1.1770
 4467TIP3    H213366   5.359   1.614   0.816 -0.6182 -0.2948 -1.3247
 4468TIP3   OH213367   5.131   3.337   2.444 -0.1823 -0.0124  0.8226
 4468TIP3    H113368   5.042   3.371   2.436 -0.3115 -0.4740  0.1413
 4468TIP3    H213369   5.185   3.414   2.460 -0.6253  0.3513  0.5943
 4469TIP3   OH213370   5.207   6.422   0.796  0.4480 -0.8195  0.7687
 4469TIP3    H113371   5.294   6.418   0.756  0.0870  1.0944 -0.2984
 4469TIP3    H213372   5.220   6.388   0.885  1.6877 -3.2268 -0.2347
 4470TIP3   OH213373   1.335   3.939   1.589  0.4250 -0.1241  0.5332
 4470TIP3    H113374   1.369   3.850   1.603  1.5031  0.0193 -0.9680
 4470TIP3    H213375   1.255   3.942   1.642  0.3159 -2.0178  0.5531
 4471TIP3   OH213376   5.433   4.098   1.958 -0.1830 -0.2386 -0.3665
 4471TIP3    H113377   5.372   4.171   1.943 -0.6442 -0.9097 -1.8781
 4471TIP3    H213378   5.471   4.080   1.872  1.5635 -0.3910  0.3828
 4472TIP3   OH213379   4.908   0.547   5.447 -0.4873  0.4745  0.3355
 4472TIP3    H113380   4.966   0.612   5.488 -1.6764  0.8830  1.4232
 4472TIP3    H213381   4.956   0.464   5.455  1.1122  1.1660 -1.1758
 4473TIP3   OH213382   2.436   0.048   5.762 -0.0122  0.3707 -0.1580
 4473TIP3    H113383   2.482   0.019   5.841 -1.2105 -1.0960  0.0407
 4473TIP3    H213384   2.345   0.021   5.775  0.1162 -1.9676 -2.9425
 4474TIP3   OH213385   1.317   4.619   3.121 -0.3994  0.6767  0.1123
 4474TIP3    H113386   1.269   4.627   3.204 -1.4813  1.4738 -0.5661
 4474TIP3    H213387   1.283   4.539   3.082 -0.9152  1.0355 -0.1888
 4475TIP3   OH213388   6.713   2.128   0.768  0.1529  0.0607  0.3952
 4475TIP3    H113389   6.660   2.075   0.708  0.1202  0.3753  0.1440
 4475TIP3    H213390   6.766   2.064   0.815  0.3696 -0.1690 -0.1566
 4476TIP3   OH213391   4.215   0.969   1.442  0.1779 -0.3299  0.0254
 4476TIP3    H113392   4.193   1.000   1.530  1.8095 -1.8239  1.0498
 4476TIP3    H213393   4.152   0.898   1.425 -0.3631  0.1941 -0.1689
 4477TIP3   OH213394   6.364   2.253   0.505  0.7687 -0.1969  0.1627
 4477TIP3    H113395   6.294   2.207   0.458  1.0284 -0.4821  0.0543
 4477TIP3    H213396   6.413   2.299   0.437  1.8874 -1.5832 -0.0140
 4478TIP3   OH213397   3.565   5.812   2.608  0.3804 -0.2690 -0.0129
 4478TIP3    H113398   3.587   5.722   2.584  1.5094  0.4317 -1.8332
 4478TIP3    H213399   3.650   5.854   2.622 -0.1185  0.6539  0.2876
 4479TIP3   OH213400   6.455   3.923   2.333 -0.2630 -0.1880 -0.0869
 4479TIP3    H113401   6.430   4.014   2.317  0.0856 -0.0380  0.2206
 4479TIP3    H213402   6.521   3.904   2.265  0.4160  0.1111  0.4758
 4480TIP3   OH213403   6.684   4.189   2.423 -0.2982  0.3098 -0.2456
 4480TIP3    H113404   6.701   4.146   2.339  1.8348 -0.3127  0.4485
 4480TIP3    H213405   6.662   4.118   2.483 -2.6979  0.8272 -0.4033
 4481TIP3   OH213406   1.073   5.923   5.144  0.1927  0.1434 -0.1052
 4481TIP3    H113407   1.088   5.945   5.052 -0.5070 -3.8184 -1.3127
 4481TIP3    H213408   1.161   5.927   5.183  0.9890 -0.8791 -1.6751
 4482TIP3   OH213409   3.983   0.637   5.174  0.1908  0.5899  0.4320
 4482TIP3    H113410   4.024   0.711   5.130  1.2812  0.1148  0.5959
 4482TIP3    H213411   3.990   0.658   5.268  1.2258 -0.0475  0.5199
 4483TIP3   OH213412   1.287   1.336   0.405 -0.3133  0.1019  0.1463
 4483TIP3    H113413   1.266   1.248   0.373  0.0825  0.0016  0.1646
 4483TIP3    H213414   1.256   1.395   0.336 -1.0497 -0.0199  0.3631
 4484TIP3   OH213415   3.485   1.128   4.342  0.2679 -0.0939 -0.3474
 4484TIP3    H113416   3.414   1.149   4.402 -0.5702  1.0606 -1.6621
 4484TIP3    H213417   3.483   1.033   4.333 -0.4813 -0.1528  0.3735
 4485TIP3   OH213418   4.507   1.097   3.501 -0.5650 -0.0999 -0.5612
 4485TIP3    H113419   4.516   1.070   3.592 -1.3356  1.6736  0.0723
 4485TIP3    H213420   4.415   1.083   3.481 -0.5068  0.0147 -0.9157
 4486TIP3   OH213421   3.671   0.781   1.096 -0.2070  0.1286  0.1768
 4486TIP3    H113422   3.627   0.770   1.180  0.8745 -1.8288  0.5703
 4486TIP3    H213423   3.740   0.845   1.113 -1.5348  1.6207  0.0942
 4487TIP3   OH213424   5.117   2.115   4.500  0.0726  0.0895 -0.2281
 4487TIP3    H113425   5.179   2.143   4.433 -0.3774 -1.1785 -1.2198
 4487TIP3    H213426   5.137   2.023   4.515 -1.3422 -0.2635 -0.3362
 4488TIP3   OH213427   4.992   5.088   5.128  0.3630  0.4511 -0.4760
 4488TIP3    H113428   4.970   5.178   5.105  0.6452  0.6220 -0.0901
 4488TIP3    H213429   5.014   5.046   5.045 -0.2295  0.6062 -0.7172
 4489TIP3   OH213430   5.168   6.483   0.169 -0.4806 -0.0751  0.0756
 4489TIP3    H113431   5.195   6.394   0.146  1.3380  0.0589  1.4957
 4489TIP3    H213432   5.201   6.538   0.098  0.1893 -0.3027  0.2074
 4490TIP3   OH213433   6.810   5.673   3.327  0.6066 -0.0360  0.3769
 4490TIP3    H113434   6.715   5.673   3.315  0.7239 -0.2977 -0.6096
 4490TIP3    H213435   6.844   5.722   3.252  1.3346 -1.1089 -0.0182
 4491TIP3   OH213436   0.384   0.240   0.384 -0.6331  0.1931  0.2625
 4491TIP3    H113437   0.339   0.226   0.301  0.9833 -1.3005 -0.4400
 4491TIP3    H213438   0.330   0.303   0.431 -2.7100 -0.5106 -1.0496
 4492TIP3   OH213439   1.410   4.683   0.287  0.4560  0.2641 -0.0188
 4492TIP3    H113440   1.476   4.752   0.275  1.9758 -1.1149  0.0302
 4492TIP3    H213441   1.387   4.688   0.379  1.3625  0.0458  0.2358
 4493TIP3   OH213442   5.776   4.306   1.769  0.4341  0.0606  0.4159
 4493TIP3    H113443   5.838   4.241   1.735  1.2319  0.6176  0.7735
 4493TIP3    H213444   5.757   4.275   1.858  1.6306  0.8505  0.9736
 4494TIP3   OH213445   0.962   3.429   3.814 -0.3129  0.0210 -0.1566
 4494TIP3    H113446   0.962   3.340   3.850 -0.0813 -0.0147 -0.2386
 4494TIP3    H213447   0.887   3.471   3.854 -1.4319 -0.7272 -1.4033
 4495TIP3   OH213448   1.383   4.157   2.915  0.1084  0.3747  0.5527
 4495TIP3    H113449   1.386   4.148   3.010  2.2489  0.6261  0.5563
 4495TIP3    H213450   1.290   4.165   2.895 -0.7511 -3.3499  2.2286
 4496TIP3   OH213451   3.126   5.588   5.867 -0.4006  0.4486  0.5647
 4496TIP3    H113452   3.193   5.626   5.924 -0.0140  0.8525 -0.1510
 4496TIP3    H213453   3.163   5.503   5.841 -0.3003  0.5363  0.4189
 4497TIP3   OH213454   6.764   5.382   2.043 -0.1703 -0.4130  0.1465
 4497TIP3    H113455   6.776   5.439   2.119 -0.3769  1.9135 -1.4619
 4497TIP3    H213456   6.779   5.293   2.076  1.6109  0.6631  2.4799
 4498TIP3   OH213457   3.320   3.339   3.268 -0.0620  0.4167 -0.5790
 4498TIP3    H113458   3.405   3.380   3.286 -0.3117  1.0832 -0.8858
 4498TIP3    H213459   3.288   3.383   3.190 -1.3852  1.2626  0.3952
 4499TIP3   OH213460   2.217   2.432   0.887  0.4871 -0.6078  0.0126
 4499TIP3    H113461   2.212   2.476   0.972  0.9532 -2.2111  0.9096
 4499TIP3    H213462   2.166   2.352   0.898  1.7399 -1.5457 -0.7497
 4500TIP3   OH213463   3.573   4.770   2.276 -0.0426  0.4116 -0.3890
 4500TIP3    H113464   3.538   4.688   2.241 -0.6772  0.0554  0.9939
 4500TIP3    H213465   3.501   4.832   2.265 -1.1074 -0.2476  2.1857
 4501TIP3   OH213466   0.849   0.767   3.828 -0.6452 -0.5597 -0.4096
 4501TIP3    H113467   0.834   0.860   3.843  0.1651 -0.1272 -2.0411
 4501TIP3    H213468   0.801   0.723   3.898 -1.6937  1.0465 -0.0716
 4502TIP3   OH213469   3.612   6.103   3.726  0.0295  0.0348  0.4634
 4502TIP3    H113470   3.666   6.062   3.794  1.5458  1.9950  0.5356
 4502TIP3    H213471   3.623   6.048   3.649 -0.8739 -1.6315  1.4570
 4503TIP3   OH213472   3.133   5.805   5.081 -0.2871  0.5290  0.3506
 4503TIP3    H113473   3.211   5.854   5.106  1.2120 -2.0253  1.0911
 4503TIP3    H213474   3.072   5.816   5.155  1.0364 -0.6604  1.7003
 4504TIP3   OH213475   6.881   2.267   4.897  0.2239  0.5134 -0.6036
 4504TIP3    H113476   6.902   2.242   4.807 -0.7837 -1.5117 -0.3363
 4504TIP3    H213477   6.883   2.185   4.946 -0.1083  1.4431  1.0661
 4505TIP3   OH213478   4.703   4.668   0.308 -0.6068  0.4037  0.6706
 4505TIP3    H113479   4.764   4.620   0.364 -1.5488 -0.0777  1.3034
 4505TIP3    H213480   4.757   4.697   0.233  0.2354 -0.5884  0.8739
 4506TIP3   OH213481   6.821   4.499   5.609  0.2780  0.2899  0.0891
 4506TIP3    H113482   6.876   4.539   5.543 -0.3500  0.5068 -0.3129
 4506TIP3    H213483   6.859   4.526   5.692 -0.3563  2.0922 -0.1533
 4507TIP3   OH213484   2.036   0.329   1.056  0.0161  0.5167  0.1637
 4507TIP3    H113485   1.971   0.352   0.989 -0.3509  1.4719  0.8233
 4507TIP3    H213486   2.062   0.413   1.094  0.3269  0.0054  1.1199
 4508TIP3   OH213487   6.609   4.649   3.231 -0.4368  0.1205 -0.4055
 4508TIP3    H113488   6.539   4.602   3.185  0.6444 -1.2543 -0.7150
 4508TIP3    H213489   6.690   4.606   3.202  0.8151  3.2506 -1.9969
 4509TIP3   OH213490   3.531   5.950   4.676  0.3491 -0.1976 -0.2867
 4509TIP3    H113491   3.516   6.039   4.642 -0.8344 -0.7866 -1.3678
 4509TIP3    H213492   3.626   5.945   4.687  0.3323  1.8579  1.6920
 4510TIP3   OH213493   3.449   5.227   4.214  0.2196 -0.4547  0.0427
 4510TIP3    H113494   3.490   5.140   4.214  1.8936  0.3117 -0.2827
 4510TIP3    H213495   3.355   5.208   4.209  0.6046 -2.2262 -2.9127
 4511TIP3   OH213496   4.292   3.012   3.949  0.5462 -0.4019  0.5250
 4511TIP3    H113497   4.299   3.098   3.991 -1.8137  0.9027 -1.5128
 4511TIP3    H213498   4.381   2.992   3.920  1.5631  0.2566  2.9239
 4512TIP3   OH213499   4.485   0.881   1.576 -0.2606  0.2613  0.1978
 4512TIP3    H113500   4.398   0.916   1.552  0.4801  1.1737 -1.3384
 4512TIP3    H213501   4.470   0.788   1.592 -1.3749  0.1836 -1.0694
 4513TIP3   OH213502   3.967   0.797   2.523 -0.1187  0.1103  0.8675
 4513TIP3    H113503   3.883   0.788   2.479  0.3095  0.3639 -0.0322
 4513TIP3    H213504   3.974   0.719   2.578  0.9073 -2.1851 -2.2689
 4514TIP3   OH213505   4.033   3.194   2.607  0.1453  0.4042 -0.3612
 4514TIP3    H113506   4.100   3.208   2.674 -1.3194 -0.3193  1.3517
 4514TIP3    H213507   3.976   3.271   2.613 -0.5983 -0.1589  0.0092
 4515TIP3   OH213508   4.488   6.654   0.285 -0.9420 -0.2261 -0.4309
 4515TIP3    H113509   4.501   6.588   0.352 -2.1407 -0.1654 -0.1056
 4515TIP3    H213510   4.450   6.606   0.211  1.3123 -0.4845 -1.5008
 4516TIP3   OH213511   5.081   1.739   3.572  0.0444 -0.2457 -1.0519
 4516TIP3    H113512   5.141   1.679   3.616 -0.7998 -0.3050  0.0583
 4516TIP3    H213513   5.138   1.804   3.530  0.8910 -0.6203 -0.4996
 4517TIP3   OH213514   0.228   4.972   3.117  0.1688  0.1430  0.6791
 4517TIP3    H113515   0.180   4.899   3.078  0.9349 -0.2210  0.4048
 4517TIP3    H213516   0.278   4.933   3.188  0.8500  0.3319  0.3137
 4518TIP3   OH213517   0.038   0.985   4.652  0.1149  0.2861  0.4711
 4518TIP3    H113518   0.040   1.076   4.680 -1.0204  0.4274  0.1458
 4518TIP3    H213519  -0.055   0.962   4.651  0.1499 -0.0088 -2.2168
 4519TIP3   OH213520   6.592   4.996   1.808  0.3064  0.6215  0.0186
 4519TIP3    H113521   6.532   5.066   1.830 -0.7391 -0.6194  1.3832
 4519TIP3    H213522   6.671   5.015   1.859 -0.1706  0.5562  0.8015
 4520TIP3   OH213523   2.838   4.840   2.926 -0.2055  0.4655  0.0306
 4520TIP3    H113524   2.787   4.844   2.845 -0.5800 -0.0792  0.2277
 4520TIP3    H213525   2.772   4.839   2.996  0.1083  0.7727  0.3368
 4521TIP3   OH213526   4.255   2.130   0.207  0.2264 -0.0824 -0.2616
 4521TIP3    H113527   4.257   2.223   0.185 -0.1469 -0.1894 -0.7704
 4521TIP3    H213528   4.175   2.119   0.259  0.0984 -0.1778 -0.4782
 4522TIP3   OH213529   6.567   1.167   1.890 -0.1633  0.1505 -0.2165
 4522TIP3    H113530   6.507   1.174   1.964  0.7724 -0.5381  0.6319
 4522TIP3    H213531   6.510   1.170   1.813 -1.0197  2.5579  0.4418
 4523TIP3   OH213532   1.317   5.311   4.649 -0.3548  0.6340 -0.5118
 4523TIP3    H113533   1.246   5.303   4.713 -0.6640  0.8931 -0.8163
 4523TIP3    H213534   1.376   5.239   4.669 -0.1435  1.0607  0.4454
 4524TIP3   OH213535   1.575   3.948   5.319 -0.3276  0.0444  0.2703
 4524TIP3    H113536   1.583   3.863   5.275 -1.9705 -0.0262  0.0689
 4524TIP3    H213537   1.565   3.927   5.411 -3.3694 -0.1972 -0.0151
 4525TIP3   OH213538   7.224   0.565   3.756 -0.1385 -0.8973 -0.2778
 4525TIP3    H113539   7.183   0.481   3.777 -0.4489 -0.9331 -0.9796
 4525TIP3    H213540   7.197   0.624   3.827 -1.0315 -1.0463 -0.4783
 4526TIP3   OH213541   0.104   1.230   5.414 -0.4298  0.4939  0.0124
 4526TIP3    H113542   0.051   1.265   5.485 -0.3524 -0.2627  0.4489
 4526TIP3    H213543   0.111   1.136   5.432  2.9600  0.8432  1.2268
 4527TIP3   OH213544   4.348   5.732   3.644  0.1602 -0.0487  0.5854
 4527TIP3    H113545   4.362   5.696   3.731  0.5051 -0.2315  0.4600
 4527TIP3    H213546   4.287   5.671   3.602  0.7064 -0.4717  0.3905
 4528TIP3   OH213547   3.668   5.245   5.836  0.3793  0.0674  0.1414
 4528TIP3    H113548   3.755   5.248   5.877  1.2288 -1.1142 -1.4493
 4528TIP3    H213549   3.675   5.174   5.773 -2.1129 -0.7644  0.7219
 4529TIP3   OH213550   1.670   0.035   1.808  0.3274 -0.1108  0.2360
 4529TIP3    H113551   1.578   0.046   1.832  0.0305 -1.1696 -0.3752
 4529TIP3    H213552   1.705   0.124   1.808 -0.7012  0.3138  0.4279
 4530TIP3   OH213553   6.548   1.809   0.982  0.1829  0.3709 -0.3258
 4530TIP3    H113554   6.581   1.843   1.066  0.1000  1.3261 -0.6727
 4530TIP3    H213555   6.495   1.880   0.946 -0.7404 -0.4574 -0.6605
 4531TIP3   OH213556   1.832   1.304   4.851 -0.0464  0.0444  0.4590
 4531TIP3    H113557   1.899   1.372   4.843 -2.1167  2.1231 -0.4777
 4531TIP3    H213558   1.881   1.222   4.856  2.5387  1.4592 -0.0020
 4532TIP3   OH213559   0.437   4.272   1.216  0.1705  0.1191  0.4013
 4532TIP3    H113560   0.452   4.345   1.276  0.0655  0.2958  0.2116
 4532TIP3    H213561   0.365   4.223   1.257  2.2817 -1.7153  2.2303
 4533TIP3   OH213562   4.099   4.546   3.000 -0.2264  0.3748 -0.1317
 4533TIP3    H113563   4.150   4.597   3.062  1.3963  0.8950 -1.8198
 4533TIP3    H213564   4.130   4.456   3.012  0.7474  0.6085 -0.7753
 4534TIP3   OH213565   6.851   6.277   5.249 -1.0513  0.3065 -0.3166
 4534TIP3    H113566   6.845   6.323   5.332 -0.5892 -0.3084  0.0627
 4534TIP3    H213567   6.764   6.286   5.210 -1.8319 -0.9193  1.0450
 4535TIP3   OH213568   0.997   6.492   4.217  0.1320 -0.2545 -0.4115
 4535TIP3    H113569   0.916   6.463   4.175  0.2347 -0.7507 -0.2802
 4535TIP3    H213570   1.001   6.442   4.299  1.3146 -1.3703 -1.1124
 4536TIP3   OH213571   3.071   2.090   2.952  0.3531  0.5582  0.3351
 4536TIP3    H113572   3.092   2.044   2.871  0.1583  0.9699  0.0449
 4536TIP3    H213573   3.079   2.024   3.020 -0.1212  0.0454 -0.0982
 4537TIP3   OH213574   0.121   5.153   2.223 -0.0612 -0.2380 -0.0307
 4537TIP3    H113575   0.067   5.163   2.301  0.7085 -1.4022  0.6790
 4537TIP3    H213576   0.097   5.067   2.188 -2.0994  1.1999 -2.4618
 4538TIP3   OH213577   6.356   0.080   2.628 -0.1083  0.1106  0.6232
 4538TIP3    H113578   6.313   0.049   2.708 -1.0015  0.9596  0.4873
 4538TIP3    H213579   6.339   0.174   2.627 -2.6239 -0.2374 -2.0073
 4539TIP3   OH213580   2.591   0.410   1.431  0.0939  0.3210 -0.0811
 4539TIP3    H113581   2.513   0.455   1.399 -0.8063 -2.5291 -2.2431
 4539TIP3    H213582   2.598   0.331   1.378  2.7057 -1.1393  2.1363
 4540TIP3   OH213583   0.245   2.434   5.588  0.1775 -0.2487  0.6219
 4540TIP3    H113584   0.183   2.448   5.659  1.9077 -1.0817  2.3884
 4540TIP3    H213585   0.191   2.408   5.513 -1.6582  0.2221  1.7186
 4541TIP3   OH213586   2.041   5.760   1.930  0.3083 -0.0918  0.1994
 4541TIP3    H113587   2.004   5.671   1.929 -0.2114  0.0563  2.0847
 4541TIP3    H213588   1.965   5.817   1.917  0.2915  0.1205  1.1428
 4542TIP3   OH213589   0.916   4.486   3.409 -0.0570  0.3422 -0.5284
 4542TIP3    H113590   0.870   4.553   3.460 -0.6118 -0.3547 -0.0873
 4542TIP3    H213591   0.848   4.449   3.352 -0.0748 -0.7170  0.1474
 4543TIP3   OH213592   5.186   5.781   4.882 -0.2108  0.6187  0.8057
 4543TIP3    H113593   5.257   5.757   4.823  0.1208 -1.0288  1.8153
 4543TIP3    H213594   5.210   5.869   4.913  0.8987  0.4626  0.4292
 4544TIP3   OH213595   0.047   2.538   2.955  1.0194 -0.1830  0.2537
 4544TIP3    H113596  -0.018   2.484   2.910  0.5434 -0.3116  1.0593
 4544TIP3    H213597   0.116   2.552   2.891 -0.0257  0.3554 -0.7896
 4545TIP3   OH213598   4.642   3.337   2.804 -0.5071 -0.7199 -0.3793
 4545TIP3    H113599   4.655   3.276   2.732  2.4163 -0.7985  0.1174
 4545TIP3    H213600   4.610   3.417   2.763  1.0106 -0.7969 -1.7693
 4546TIP3   OH213601   0.909   4.780   0.690 -0.2694 -1.2089  0.2224
 4546TIP3    H113602   0.873   4.866   0.666 -0.1341 -1.0075  0.7071
 4546TIP3    H213603   0.839   4.738   0.740  0.1691 -0.7875  1.2281
 4547TIP3   OH213604   4.113   2.842   2.533  0.2106 -0.3132  0.3401
 4547TIP3    H113605   4.142   2.932   2.551  0.1243  0.1744 -1.6887
 4547TIP3    H213606   4.053   2.822   2.605  1.4655  0.6313  1.7119
 4548TIP3   OH213607   4.752   3.556   1.654 -0.2832 -0.3014 -0.0652
 4548TIP3    H113608   4.671   3.522   1.692  0.0581  0.7399  1.7705
 4548TIP3    H213609   4.728   3.641   1.617 -0.0091  0.1618  0.7772
 4549TIP3   OH213610   6.705   6.152   5.599  0.4407  0.0265 -0.4264
 4549TIP3    H113611   6.713   6.057   5.612  0.2045  0.1356  0.5981
 4549TIP3    H213612   6.628   6.163   5.544 -2.3233 -0.1993  3.0553
 4550TIP3   OH213613   5.692   0.159   1.097 -0.4177  0.0823 -0.0892
 4550TIP3    H113614   5.741   0.083   1.067 -0.1737  0.5657 -0.9430
 4550TIP3    H213615   5.710   0.227   1.031 -1.0298  0.7205  0.3889
 4551TIP3   OH213616   1.419   5.821   1.322  0.1263  0.1843  0.0032
 4551TIP3    H113617   1.494   5.778   1.281  0.9419  1.7447 -0.2024
 4551TIP3    H213618   1.443   5.913   1.328 -1.5113  0.6274  0.5563
 4552TIP3   OH213619   5.250   4.941   3.537  0.0472  0.4098  0.2090
 4552TIP3    H113620   5.315   4.902   3.595  0.7195 -0.8879 -1.3224
 4552TIP3    H213621   5.265   5.036   3.545  3.5759  0.1748 -1.5070
 4553TIP3   OH213622   1.605   4.554   0.528 -0.3893 -0.5708 -0.2843
 4553TIP3    H113623   1.619   4.465   0.562  0.2615 -0.2484  0.3170
 4553TIP3    H213624   1.676   4.566   0.465  0.6590  0.1840  0.9912
 4554TIP3   OH213625   1.435   1.734   5.641 -0.4115 -0.2997 -0.3294
 4554TIP3    H113626   1.478   1.716   5.724  0.5192  1.4145 -0.3881
 4554TIP3    H213627   1.341   1.737   5.662 -0.3212 -1.5013  0.3061
 4555TIP3   OH213628   5.137   3.998   5.073  0.3593 -0.5836 -0.1612
 4555TIP3    H113629   5.122   4.085   5.111  0.1780 -1.7737  2.7353
 4555TIP3    H213630   5.232   3.985   5.079  0.3868 -0.6146 -0.5987
 4556TIP3   OH213631   0.697   6.080   2.146  0.0087 -0.0775 -0.2397
 4556TIP3    H113632   0.656   6.119   2.223 -0.5278  1.5203 -1.2698
 4556TIP3    H213633   0.774   6.035   2.180  1.0187  2.4256  1.0434
 4557TIP3   OH213634   0.918   2.510   0.045  0.0185 -0.3155 -0.6072
 4557TIP3    H113635   0.827   2.537   0.056  0.0672 -1.1487  3.5450
 4557TIP3    H213636   0.960   2.585   0.002 -1.7139  2.2735  1.8180
 4558TIP3   OH213637   2.785   3.323   5.482  0.4896 -0.0883 -0.1598
 4558TIP3    H113638   2.859   3.321   5.421  2.8150 -1.6576  2.4489
 4558TIP3    H213639   2.771   3.232   5.506 -2.5932  0.1313 -0.7696
 4559TIP3   OH213640   6.328   5.345   2.259 -0.1925 -0.6008  0.5996
 4559TIP3    H113641   6.265   5.340   2.187 -0.7834 -0.5422  1.0984
 4559TIP3    H213642   6.306   5.427   2.304  1.1708  0.1440 -0.0505
 4560TIP3   OH213643   4.138   0.875   0.143 -0.5069 -0.3858 -0.0651
 4560TIP3    H113644   4.128   0.966   0.116 -0.5582 -0.6947 -1.1496
 4560TIP3    H213645   4.131   0.877   0.238 -1.6465  0.5992 -0.1487
 4561TIP3   OH213646   6.539   4.577   0.433  0.1831  0.2101  0.1703
 4561TIP3    H113647   6.558   4.511   0.501  0.3054  0.2659  0.1903
 4561TIP3    H213648   6.515   4.525   0.356 -0.9285  0.1590  0.5345
 4562TIP3   OH213649   4.876   6.486   0.816  0.0887 -0.1774  0.6574
 4562TIP3    H113650   4.826   6.529   0.746  1.0265 -2.8667 -1.8620
 4562TIP3    H213651   4.809   6.443   0.870 -0.6840  2.3465  1.9057
 4563TIP3   OH213652   0.416   1.742   3.238  0.3351  0.1025 -0.0475
 4563TIP3    H113653   0.333   1.696   3.248  0.5734 -0.0171  1.8886
 4563TIP3    H213654   0.391   1.834   3.224 -0.1945  0.3772  2.2630
 4564TIP3   OH213655   2.340   0.737   2.255  0.1286  0.6031  0.5291
 4564TIP3    H113656   2.283   0.663   2.235  0.5240 -0.0637  1.7252
 4564TIP3    H213657   2.377   0.764   2.171  0.2281 -0.7833  0.1073
 4565TIP3   OH213658   1.570   4.957   4.013  0.0112  0.2279  0.4604
 4565TIP3    H113659   1.604   4.987   3.929  1.5848  0.2570  1.0684
 4565TIP3    H213660   1.475   4.966   4.006  0.1068  0.1358 -1.3320
 4566TIP3   OH213661   2.832   6.257   5.446 -0.3009  0.8396  0.1989
 4566TIP3    H113662   2.744   6.221   5.430 -0.4608  1.9874 -1.9191
 4566TIP3    H213663   2.891   6.188   5.416 -0.4793  0.4098  0.8123
 4567TIP3   OH213664   3.212   5.735   2.445  0.0655 -0.3639 -0.2366
 4567TIP3    H113665   3.227   5.828   2.460 -0.7303  0.3229 -3.1150
 4567TIP3    H213666   3.116   5.726   2.443  0.1252 -1.3684  0.5372
 4568TIP3   OH213667   3.661   0.868   3.795  0.1559 -0.5447  0.1000
 4568TIP3    H113668   3.661   0.906   3.883  0.6292  0.2451 -0.2285
 4568TIP3    H213669   3.729   0.916   3.748  0.4949 -1.5346 -0.4548
 4569TIP3   OH213670   6.623   5.810   4.182  0.5065 -0.0556 -0.3434
 4569TIP3    H113671   6.607   5.720   4.151 -0.4955  0.2306 -0.6994
 4569TIP3    H213672   6.597   5.865   4.108 -0.4185  0.5780  0.4379
 4570TIP3   OH213673   0.815   5.878   1.357 -0.0294  0.0442  0.0287
 4570TIP3    H113674   0.820   5.848   1.448 -1.4172  3.3036  1.3162
 4570TIP3    H213675   0.767   5.808   1.312  2.3649 -2.5953  1.2086
 4571TIP3   OH213676   1.759   4.628   0.782 -0.0121 -0.7009  0.0218
 4571TIP3    H113677   1.829   4.693   0.783 -1.3196  0.7829 -0.3023
 4571TIP3    H213678   1.798   4.551   0.741  0.9147  0.7049 -1.8940
 4572TIP3   OH213679   2.333   3.302   4.919  0.3583  0.2940  0.6137
 4572TIP3    H113680   2.393   3.289   4.846 -1.2598  0.3734 -0.7792
 4572TIP3    H213681   2.283   3.220   4.924 -1.4518  1.2899 -0.2273
 4573TIP3   OH213682   6.409   0.798   5.788 -0.5522 -0.4511  0.3032
 4573TIP3    H113683   6.419   0.812   5.694 -1.7455 -1.5870 -0.0335
 4573TIP3    H213684   6.498   0.785   5.821 -0.1940 -0.9756 -0.8338
 4574TIP3   OH213685   1.694   1.511   3.387 -0.2241  0.1364 -0.5573
 4574TIP3    H113686   1.633   1.565   3.337 -0.3203  0.8808  0.3309
 4574TIP3    H213687   1.770   1.500   3.329 -0.3051  1.0271 -0.8444
 4575TIP3   OH213688   0.028   0.857   0.501 -0.5660  0.7013 -0.1114
 4575TIP3    H113689   0.068   0.804   0.569  0.0051  1.0282 -0.1899
 4575TIP3    H213690   0.035   0.804   0.421 -2.0444 -0.0731  0.2332
 4576TIP3   OH213691   5.739   0.559   0.500  0.2320  0.0838 -0.6343
 4576TIP3    H113692   5.666   0.496   0.500  0.3894 -0.1363  0.7118
 4576TIP3    H213693   5.805   0.518   0.556  1.4714  0.2223 -1.9402
 4577TIP3   OH213694   3.880   3.117   1.617  0.3451  0.8287 -0.6076
 4577TIP3    H113695   3.863   3.028   1.585 -0.0576  1.3068 -1.7846
 4577TIP3    H213696   3.975   3.120   1.632  0.2725  0.0092  0.0877
 4578TIP3   OH213697   1.714   2.270   2.453  0.4941  0.4838  0.9540
 4578TIP3    H113698   1.739   2.362   2.441  1.0120  0.2007 -0.3686
 4578TIP3    H213699   1.783   2.221   2.408 -0.9030 -0.4466 -0.2422
 4579TIP3   OH213700   6.538   6.723   0.043  0.1683  0.2574 -0.5004
 4579TIP3    H113701   6.453   6.735   0.085 -0.0081 -0.4209 -0.6533
 4579TIP3    H213702   6.583   6.658   0.098  1.1292  1.5856  0.3563
 4580TIP3   OH213703  -0.015   6.042   2.107 -0.8684  0.4042 -0.7030
 4580TIP3    H113704   0.072   6.077   2.124 -1.1082  0.2977  0.9182
 4580TIP3    H213705  -0.024   6.044   2.012  1.5930 -1.2825 -1.0711
 4581TIP3   OH213706   2.200   0.572   5.509 -0.3500 -0.3479 -0.0036
 4581TIP3    H113707   2.165   0.490   5.544 -0.6909 -0.1212  0.1915
 4581TIP3    H213708   2.139   0.597   5.440 -0.7505  0.2035  0.5407
 4582TIP3   OH213709   6.209   3.190   4.750  0.4045 -0.1650  0.0621
 4582TIP3    H113710   6.151   3.234   4.812  0.4976  1.1728 -0.7773
 4582TIP3    H213711   6.250   3.120   4.802 -0.8729 -0.2469  1.0310
 4583TIP3   OH213712   3.630   3.066   3.973 -0.6800 -0.5020 -0.3696
 4583TIP3    H113713   3.697   2.999   3.990 -0.4966 -0.4688 -0.9494
 4583TIP3    H213714   3.595   3.045   3.887  0.6566  1.1844 -1.4026
 4584TIP3   OH213715   5.820   6.161   3.283 -0.2800  0.2513 -0.4588
 4584TIP3    H113716   5.890   6.224   3.299 -0.9217  0.8149  0.2230
 4584TIP3    H213717   5.747   6.214   3.252 -0.5423 -0.2712 -0.7378
 4585TIP3   OH213718   3.402   0.869   1.704 -0.3114  0.2929 -0.2306
 4585TIP3    H113719   3.476   0.831   1.656 -0.3653 -0.4407  0.2463
 4585TIP3    H213720   3.428   0.864   1.796  0.3700  2.9192 -0.2014
 4586TIP3   OH213721   2.668   6.130   3.119  0.3735 -0.0550 -0.0743
 4586TIP3    H113722   2.728   6.200   3.093  0.8020 -0.5326 -0.3989
 4586TIP3    H213723   2.584   6.174   3.130  0.6630  0.5323 -0.1531
 4587TIP3   OH213724   2.581   2.302   1.324 -0.0271 -0.0062  0.0673
 4587TIP3    H113725   2.538   2.380   1.358 -0.1751 -1.0204  2.4260
 4587TIP3    H213726   2.670   2.331   1.301 -0.4028  1.0584 -0.0843
 4588TIP3   OH213727   1.396   5.531   1.080 -0.2388 -0.0618  0.6743
 4588TIP3    H113728   1.442   5.520   0.997 -1.1051  3.7769 -0.5472
 4588TIP3    H213729   1.466   5.537   1.146  0.5078 -2.1748  0.1284
 4589TIP3   OH213730   2.291   5.350   2.374 -0.7540 -0.3793  0.5915
 4589TIP3    H113731   2.337   5.323   2.454  0.9376  1.8844  0.5016
 4589TIP3    H213732   2.310   5.281   2.311 -0.1472 -1.0545  1.4796
 4590TIP3   OH213733   6.586   4.566   0.848 -0.1582 -0.4507 -0.5754
 4590TIP3    H113734   6.575   4.485   0.898 -1.3380 -0.1714 -0.3636
 4590TIP3    H213735   6.626   4.627   0.910 -0.4415 -0.4895 -0.3515
 4591TIP3   OH213736   1.221   2.864   0.150 -0.7832 -0.0025 -0.0398
 4591TIP3    H113737   1.295   2.892   0.096 -2.5047  0.0559 -2.5453
 4591TIP3    H213738   1.245   2.891   0.239  1.2695  1.8930 -1.0517
 4592TIP3   OH213739   1.544   3.881   2.311 -0.5889 -0.1211  0.1463
 4592TIP3    H113740   1.545   3.908   2.219  0.3194 -0.8175 -0.0608
 4592TIP3    H213741   1.501   3.796   2.310  1.7482 -1.3856 -0.0385
 4593TIP3   OH213742   3.125   2.598   1.058 -0.2015  0.4037 -1.0463
 4593TIP3    H113743   3.183   2.606   1.134  1.5240 -0.8929 -2.1580
 4593TIP3    H213744   3.053   2.543   1.088  2.1983 -3.1307 -1.1529
 4594TIP3   OH213745   0.600   5.410   1.052  0.7436 -0.4377 -0.5356
 4594TIP3    H113746   0.526   5.377   1.001  0.5581 -1.0225  0.0950
 4594TIP3    H213747   0.627   5.336   1.106 -1.2946  1.0330  2.8252
 4595TIP3   OH213748   1.559   4.175   0.173 -0.1881 -0.0324  0.0559
 4595TIP3    H113749   1.525   4.258   0.141 -0.6646 -0.1580  0.2220
 4595TIP3    H213750   1.654   4.187   0.178 -0.2654  0.5371  0.1892
 4596TIP3   OH213751   4.790   4.073   1.483 -0.1255  0.0373  0.0677
 4596TIP3    H113752   4.800   4.103   1.573  1.1872  0.3613 -0.1574
 4596TIP3    H213753   4.839   4.137   1.431 -0.6446 -0.2910 -0.8527
 4597TIP3   OH213754   5.138   1.036   5.461 -0.4769 -0.3978 -0.2467
 4597TIP3    H113755   5.175   1.027   5.549 -2.1907  1.1532  0.6988
 4597TIP3    H213756   5.143   1.129   5.441 -0.0515 -0.7232 -1.8651
 4598TIP3   OH213757   2.305   4.086   3.203 -0.4378 -0.7419 -0.3378
 4598TIP3    H113758   2.274   4.003   3.240  0.4777 -0.4249  1.2526
 4598TIP3    H213759   2.306   4.146   3.278  1.3730 -0.0180 -0.8886
 4599TIP3   OH213760   4.833   4.836   4.738 -0.3740  0.1589  0.2668
 4599TIP3    H113761   4.772   4.906   4.715 -0.9693  0.6569  3.0358
 4599TIP3    H213762   4.920   4.876   4.729 -0.6408  0.7699  0.3678
 4600TIP3   OH213763   4.198   1.353   1.162  0.2588 -0.3226 -0.2942
 4600TIP3    H113764   4.129   1.339   1.097  1.1986  0.3242 -1.4727
 4600TIP3    H213765   4.231   1.441   1.143  0.1588  0.1363  1.4735
 4601TIP3   OH213766   4.978   5.158   2.660 -0.0600 -0.3433  0.2250
 4601TIP3    H113767   4.957   5.120   2.574 -1.9030 -0.4431  0.6803
 4601TIP3    H213768   4.922   5.111   2.722 -0.3039  1.1318  1.1935
 4602TIP3   OH213769   0.062   2.229   4.637  0.3260 -0.0378  0.2171
 4602TIP3    H113770   0.097   2.315   4.660 -1.1655  0.9193 -0.9056
 4602TIP3    H213771   0.015   2.201   4.716  1.1791 -0.0491  0.7374
 4603TIP3   OH213772   1.639   4.329   2.111  0.2712 -0.6178 -0.6712
 4603TIP3    H113773   1.705   4.397   2.092 -0.2713  0.1830  0.2375
 4603TIP3    H213774   1.683   4.247   2.088  1.9810 -0.1965  0.8424
 4604TIP3   OH213775   4.828   0.482   0.674 -0.2419 -0.1132 -0.0545
 4604TIP3    H113776   4.881   0.561   0.666 -0.7547  0.1448 -1.0719
 4604TIP3    H213777   4.804   0.478   0.767 -1.1845  1.5611 -0.2004
 4605TIP3   OH213778   4.811   1.726   1.756  0.1989  0.2541  0.0267
 4605TIP3    H113779   4.844   1.813   1.779 -0.5686  0.5199  0.1586
 4605TIP3    H213780   4.782   1.735   1.666 -0.2414  0.2437  0.1663
 4606TIP3   OH213781   6.131   4.882   5.780  0.2339 -0.5042  0.7969
 4606TIP3    H113782   6.045   4.852   5.808  0.4784 -0.5599  1.5085
 4606TIP3    H213783   6.125   4.978   5.780  0.5258 -0.4691  2.0391
 4607TIP3   OH213784   5.346   2.187   4.853 -0.2320 -0.2569 -0.1885
 4607TIP3    H113785   5.425   2.230   4.885 -1.8603  1.6673  1.5504
 4607TIP3    H213786   5.336   2.110   4.909 -0.9030  0.9100  1.3844
 4608TIP3   OH213787   4.880   1.185   2.537  0.4072  0.0759 -0.0531
 4608TIP3    H113788   4.966   1.192   2.497  1.1653  0.3957  1.5499
 4608TIP3    H213789   4.822   1.162   2.465  1.8038 -0.0369 -1.1880
 4609TIP3   OH213790   1.628   2.586   2.850  0.2441 -0.0408 -0.2175
 4609TIP3    H113791   1.714   2.587   2.808  0.2718 -0.8863 -0.1944
 4609TIP3    H213792   1.571   2.634   2.790  1.0600  1.9811  0.5355
 4610TIP3   OH213793   3.424   4.734   3.359  0.1167  0.2305  0.5014
 4610TIP3    H113794   3.502   4.678   3.354  1.1254  1.7031 -1.4269
 4610TIP3    H213795   3.366   4.700   3.291 -0.2684  0.1264  0.8747
 4611TIP3   OH213796   3.745   0.376   0.278 -0.6443  0.6679  0.3424
 4611TIP3    H113797   3.677   0.312   0.258 -1.4096  0.8672  2.0855
 4611TIP3    H213798   3.827   0.329   0.266 -1.1174  0.1086 -0.7821
 4612TIP3   OH213799   1.322   3.566   4.519 -0.0494  0.1510  0.0113
 4612TIP3    H113800   1.243   3.548   4.467 -1.4106  0.8475  1.7611
 4612TIP3    H213801   1.387   3.503   4.486 -2.0929 -2.2090  0.1901
 4613TIP3   OH213802   1.754   6.428   5.370  0.6989 -0.3894 -0.7717
 4613TIP3    H113803   1.738   6.384   5.287  1.6498 -1.1566 -0.5555
 4613TIP3    H213804   1.838   6.473   5.359  0.3628  0.3262 -0.5491
 4614TIP3   OH213805   4.780   4.113   3.890 -0.1953 -0.1152 -0.2251
 4614TIP3    H113806   4.776   4.082   3.799 -2.8658  0.7034 -0.4791
 4614TIP3    H213807   4.839   4.189   3.887 -0.4850  0.0814 -1.3448
 4615TIP3   OH213808   4.246   6.469   5.830  0.5985  0.2732  0.2309
 4615TIP3    H113809   4.232   6.466   5.925 -2.8869 -4.9194 -0.0528
 4615TIP3    H213810   4.330   6.426   5.817 -0.5517 -2.3920  0.9988
 4616TIP3   OH213811   5.931   1.062   0.971  0.1649 -0.1532  0.2305
 4616TIP3    H113812   5.861   1.046   1.034 -1.5422  2.5649 -0.8244
 4616TIP3    H213813   5.976   1.140   1.004  1.2877 -0.5686 -0.2673
 4617TIP3   OH213814   2.701   2.358   2.689  0.0574  0.0427  0.2423
 4617TIP3    H113815   2.788   2.329   2.660  0.2703  0.2893  0.6246
 4617TIP3    H213816   2.681   2.432   2.633  0.5015  0.5658  0.7673
 4618TIP3   OH213817   6.249   4.718   3.782 -0.5024 -0.2114 -0.2819
 4618TIP3    H113818   6.239   4.677   3.697 -0.7323  1.0942 -0.9083
 4618TIP3    H213819   6.209   4.657   3.844  0.7827 -1.7685 -0.9223
 4619TIP3   OH213820   0.388   5.367   5.648 -0.2184  0.5260 -0.2306
 4619TIP3    H113821   0.306   5.417   5.654 -0.5268 -0.0900  1.2723
 4619TIP3    H213822   0.399   5.350   5.555 -0.7723  2.2907 -0.6432
 4620TIP3   OH213823   3.905   1.392   2.335  0.7361  0.1529 -0.1214
 4620TIP3    H113824   3.823   1.376   2.383 -0.0266  1.0262 -1.0805
 4620TIP3    H213825   3.886   1.361   2.246  0.6861  2.2964 -0.9068
 4621TIP3   OH213826   0.866   5.848   0.592  0.1347  0.3775 -0.6539
 4621TIP3    H113827   0.797   5.803   0.543 -0.5322 -2.7117  2.6943
 4621TIP3    H213828   0.830   5.934   0.612 -0.7506  0.5864 -2.8621
 4622TIP3   OH213829   6.210   1.760   4.691  0.6053 -0.4874  0.6683
 4622TIP3    H113830   6.167   1.683   4.730  0.6716 -0.8822 -0.0199
 4622TIP3    H213831   6.138   1.814   4.659  0.5971 -1.1562 -0.4983
 4623TIP3   OH213832   1.655   5.153   0.881  0.3097  0.3913  0.3608
 4623TIP3    H113833   1.730   5.141   0.822 -1.5631 -0.4262 -2.0019
 4623TIP3    H213834   1.663   5.081   0.944  0.0198 -1.5238 -1.6393
 4624TIP3   OH213835   0.668   5.673   0.079  0.2567 -0.2436 -0.2479
 4624TIP3    H113836   0.691   5.699  -0.010  1.0512 -1.5711 -0.4557
 4624TIP3    H213837   0.747   5.689   0.130  0.1114 -0.3745  0.0203
 4625TIP3   OH213838   6.259  -0.015   0.354  0.5332 -0.1596  0.2213
 4625TIP3    H113839   6.347  -0.048   0.374  1.0106  1.1995  0.4923
 4625TIP3    H213840   6.266   0.079   0.367 -0.0034  0.4586 -3.1289
 4626TIP3   OH213841   2.696   4.282   1.530  0.2011  0.0955 -0.2404
 4626TIP3    H113842   2.679   4.191   1.507  0.8789 -0.3185  0.8225
 4626TIP3    H213843   2.645   4.297   1.609 -0.4040  0.8399 -0.7592
 4627TIP3   OH213844   1.298   6.672   1.999  0.2793 -0.4113 -0.4577
 4627TIP3    H113845   1.254   6.589   2.015  0.6699 -0.4803  0.2981
 4627TIP3    H213846   1.383   6.647   1.963  0.8073 -0.3974  0.7256
 4628TIP3   OH213847   2.358   5.445   0.271 -0.2469  0.4795  0.1133
 4628TIP3    H113848   2.303   5.368   0.263 -1.2671  1.0191  1.4763
 4628TIP3    H213849   2.340   5.496   0.191 -0.3963 -0.1595 -0.2667
 4629TIP3   OH213850   5.811   3.346   0.109  0.1708 -0.0748  0.4235
 4629TIP3    H113851   5.895   3.392   0.100 -0.3029  0.4942 -1.3636
 4629TIP3    H213852   5.832   3.254   0.093  0.2091  0.2818 -1.8224
 4630TIP3   OH213853   6.549   6.136   3.712  0.1612 -0.1382 -0.6117
 4630TIP3    H113854   6.458   6.156   3.689  0.2823  0.8293 -0.3281
 4630TIP3    H213855   6.591   6.116   3.629 -0.0063  0.7707 -0.9361
 4631TIP3   OH213856   0.344   6.532   4.667 -0.3363 -0.4241 -0.4951
 4631TIP3    H113857   0.396   6.589   4.724 -2.1032  0.0596  0.7124
 4631TIP3    H213858   0.349   6.573   4.580  0.2315  0.3254 -0.1177
 4632TIP3   OH213859   0.355   5.770   4.607  0.2552 -0.0975 -0.4932
 4632TIP3    H113860   0.373   5.680   4.633 -0.6956 -0.7005 -1.8139
 4632TIP3    H213861   0.310   5.762   4.522  0.1944  1.6145 -0.6533
 4633TIP3   OH213862   5.834   2.150   5.434 -0.5271  0.2327  0.1853
 4633TIP3    H113863   5.884   2.230   5.448  0.9792 -0.4723 -0.8704
 4633TIP3    H213864   5.840   2.102   5.517 -0.4345  0.6785  0.4376
 4634TIP3   OH213865   6.110   2.046   1.425  0.2934 -0.1063 -0.0906
 4634TIP3    H113866   6.161   2.035   1.345  0.7975  0.5098  0.1355
 4634TIP3    H213867   6.156   2.114   1.474  1.1634 -1.8542  1.6626
 4635TIP3   OH213868   2.034   4.914   1.862 -0.0893  0.2778  0.0056
 4635TIP3    H113869   2.124   4.946   1.862 -0.1018  0.3074 -0.4978
 4635TIP3    H213870   1.981   4.991   1.884 -0.1908  0.8239 -1.9663
 4636TIP3   OH213871   2.662   1.566   1.218 -0.3028  0.4291  0.5295
 4636TIP3    H113872   2.732   1.576   1.152 -1.1378 -0.0750 -0.4666
 4636TIP3    H213873   2.709   1.553   1.300  0.7796  0.6250 -0.0313
 4637TIP3   OH213874   4.980   5.220   1.379 -0.1749  0.1642 -0.2428
 4637TIP3    H113875   5.013   5.291   1.325  0.3591 -0.3911 -0.6574
 4637TIP3    H213876   4.907   5.184   1.328  0.0683 -0.0979 -0.4069
 4638TIP3   OH213877   0.793   2.182   1.882  0.2006 -0.0993 -0.9580
 4638TIP3    H113878   0.722   2.121   1.904  1.0468 -0.8146 -0.1480
 4638TIP3    H213879   0.776   2.205   1.790 -1.7618  0.7168 -0.4326
 4639TIP3   OH213880   2.044   5.607   3.685  0.2390  0.7145 -0.4874
 4639TIP3    H113881   2.073   5.530   3.735  0.2798  0.0783 -1.4774
 4639TIP3    H213882   2.121   5.662   3.679 -0.1848  1.6442  1.6359
 4640TIP3   OH213883   5.022   3.694   0.171  0.0232 -0.1929  0.5509
 4640TIP3    H113884   5.045   3.601   0.162  1.2564  0.2674 -1.9564
 4640TIP3    H213885   5.104   3.736   0.198  0.1954  0.4736 -0.9132
 4641TIP3   OH213886   5.836   3.225   1.599  0.0714  0.0215  0.0663
 4641TIP3    H113887   5.900   3.154   1.589 -2.6521 -2.6204  0.1338
 4641TIP3    H213888   5.794   3.232   1.513 -1.2146 -0.0505  0.6664
 4642TIP3   OH213889   5.821   6.623   0.256  0.4256 -0.0662 -0.0072
 4642TIP3    H113890   5.778   6.547   0.218 -0.6710  1.0771 -1.1545
 4642TIP3    H213891   5.750   6.685   0.274  1.4801  1.6203 -1.3282
 4643TIP3   OH213892   3.756   3.170   2.336 -0.2036  0.0245 -0.1115
 4643TIP3    H113893   3.716   3.134   2.257 -2.4056 -1.0807  1.4030
 4643TIP3    H213894   3.778   3.094   2.389 -0.8601  0.7867  1.2998
 4644TIP3   OH213895   1.882   1.403   5.180  0.4092 -0.5816 -0.2511
 4644TIP3    H113896   1.944   1.439   5.244 -0.2060 -0.6202  0.3785
 4644TIP3    H213897   1.932   1.396   5.099  1.4068 -1.1559  0.3941
 4645TIP3   OH213898   4.770   4.340   3.470 -0.5813 -0.1669  0.3772
 4645TIP3    H113899   4.715   4.339   3.392 -0.0432 -0.7169  0.0020
 4645TIP3    H213900   4.764   4.251   3.505  0.2520 -0.2952  0.2020
 4646TIP3   OH213901   0.148   5.566   2.186  0.3099  0.1957  0.0533
 4646TIP3    H113902   0.156   5.490   2.242 -1.5363 -0.6684 -0.7613
 4646TIP3    H213903   0.238   5.589   2.162  0.9634 -0.8649  1.4121
 4647TIP3   OH213904   1.141   2.856   4.013  0.0602  0.3427 -0.3434
 4647TIP3    H113905   1.130   2.840   4.107  0.7102 -0.8941 -0.4730
 4647TIP3    H213906   1.231   2.888   4.004  0.2484 -0.2682 -0.6381
 4648TIP3   OH213907   0.605   2.332   2.577 -0.4210  0.0477 -0.2252
 4648TIP3    H113908   0.585   2.241   2.599  1.3269  0.2730  2.9177
 4648TIP3    H213909   0.666   2.326   2.503 -1.9952 -1.1645 -1.4856
 4649TIP3   OH213910   4.937   4.037   4.872 -0.3199  0.2208  0.0805
 4649TIP3    H113911   4.950   4.030   4.777 -0.8184 -0.1169  0.0324
 4649TIP3    H213912   5.025   4.050   4.907 -0.0177 -0.5785 -0.3524
 4650TIP3   OH213913   1.510   6.614   1.127  0.4048  0.6860 -0.5541
 4650TIP3    H113914   1.582   6.611   1.189  0.4013 -1.7140 -0.5775
 4650TIP3    H213915   1.529   6.690   1.072  3.0894 -0.0277 -0.7592
 4651TIP3   OH213916   4.920   3.374   2.128 -0.1595  0.2541  0.3605
 4651TIP3    H113917   4.833   3.344   2.154  0.2491 -1.0041  0.3804
 4651TIP3    H213918   4.947   3.312   2.060  2.0245 -1.4613  2.5939
 4652TIP3   OH213919   2.156   0.909   5.705  0.5191  0.3395 -0.3078
 4652TIP3    H113920   2.212   0.846   5.659  1.3879  0.7962  0.1121
 4652TIP3    H213921   2.208   0.938   5.779  0.2215  1.7209 -0.6109
 4653TIP3   OH213922   0.301   1.056   4.162  0.1542  0.2756 -0.1183
 4653TIP3    H113923   0.328   1.034   4.251 -0.0718 -2.0716 -0.5749
 4653TIP3    H213924   0.206   1.048   4.163  0.1969 -0.3749 -0.7136
 4654TIP3   OH213925   5.180   2.783   1.206 -0.3367 -0.5409 -0.3476
 4654TIP3    H113926   5.090   2.779   1.238 -0.1527  0.1628  0.2714
 4654TIP3    H213927   5.228   2.721   1.262 -0.3271 -0.5049 -0.3160
 4655TIP3   OH213928   5.476   5.751   5.159  0.3212 -0.1454 -0.3915
 4655TIP3    H113929   5.561   5.767   5.201 -0.8501 -0.4465  2.2741
 4655TIP3    H213930   5.441   5.838   5.142 -0.0587  0.0250  1.1864
 4656TIP3   OH213931   2.618   6.432   0.172 -0.4742  0.7596 -0.2777
 4656TIP3    H113932   2.542   6.458   0.224 -0.4070 -0.5068  0.5123
 4656TIP3    H213933   2.654   6.356   0.219  0.2656  0.2806 -1.5667
 4657TIP3   OH213934   3.125   0.776   4.164 -0.2212  0.1897  0.6197
 4657TIP3    H113935   3.103   0.869   4.153 -0.2398  0.1674  0.4639
 4657TIP3    H213936   3.197   0.761   4.102 -0.8813 -0.1389 -0.0925
 4658TIP3   OH213937   0.303   6.799   0.847  0.3626  0.7763  0.0205
 4658TIP3    H113938   0.343   6.838   0.924 -1.0584 -0.5062  1.4845
 4658TIP3    H213939   0.372   6.745   0.808  0.7736  0.5169  1.0821
 4659TIP3   OH213940   6.519   1.877   3.883 -0.1647 -0.9032 -0.5610
 4659TIP3    H113941   6.447   1.911   3.935  1.0392 -2.1297  2.0972
 4659TIP3    H213942   6.598   1.911   3.926  0.8961 -1.1649 -2.2097
 4660TIP3   OH213943   1.636   3.976   5.903  0.0567 -0.0470 -0.7236
 4660TIP3    H113944   1.555   3.926   5.896 -0.6254  1.1272 -1.7046
 4660TIP3    H213945   1.705   3.915   5.879 -0.3944 -1.3507  1.0879
 4661TIP3   OH213946   1.323   5.808   1.062  0.0505 -0.2462  0.0024
 4661TIP3    H113947   1.335   5.713   1.057  1.5315 -0.0637 -0.5471
 4661TIP3    H213948   1.332   5.828   1.155  0.2686 -0.5881  0.0565
 4662TIP3   OH213949   5.596   0.071   3.556  0.5738 -0.0188 -0.1092
 4662TIP3    H113950   5.653  -0.005   3.545  0.7116  0.0360  0.2322
 4662TIP3    H213951   5.508   0.035   3.545  0.6906  0.0458 -1.4997
 4663TIP3   OH213952   0.251   2.565   2.774 -0.9605  0.0770 -0.2348
 4663TIP3    H113953   0.287   2.584   2.688 -0.9571 -0.6437 -0.4005
 4663TIP3    H213954   0.316   2.507   2.815 -0.5643  1.0740  0.5734
 4664TIP3   OH213955   0.507   6.170   1.669  0.1656  0.0829 -0.3085
 4664TIP3    H113956   0.546   6.176   1.756 -1.0445  1.2929  0.1729
 4664TIP3    H213957   0.507   6.260   1.636 -0.1844 -0.2316 -1.2122
 4665TIP3   OH213958   5.292   5.966   2.804  0.1375  0.2316  0.1095
 4665TIP3    H113959   5.344   5.959   2.884 -1.7646 -0.9688  1.3132
 4665TIP3    H213960   5.203   5.985   2.834 -0.8454 -1.2873 -1.6246
 4666TIP3   OH213961   2.705   6.540   1.259 -0.3803 -0.4329 -0.0554
 4666TIP3    H113962   2.753   6.525   1.341  0.0021 -2.2060 -0.5498
 4666TIP3    H213963   2.738   6.623   1.226  0.5049 -0.3977  0.8745
 4667TIP3   OH213964   6.765   2.556   5.672  0.6878 -0.9482 -0.6522
 4667TIP3    H113965   6.718   2.569   5.755 -1.0810  1.0971 -1.8712
 4667TIP3    H213966   6.709   2.497   5.621  1.2555 -1.3687 -0.8085
 4668TIP3   OH213967   4.824   2.776   0.720 -0.6649 -0.3014  0.5695
 4668TIP3    H113968   4.830   2.714   0.792 -1.2435  0.0228  0.9089
 4668TIP3    H213969   4.799   2.724   0.645 -0.7688 -0.5354  0.7665
 4669TIP3   OH213970   2.407   0.832   0.820  0.1191 -0.0669  0.0279
 4669TIP3    H113971   2.417   0.900   0.754  1.1424 -0.7441 -0.5460
 4669TIP3    H213972   2.467   0.762   0.792 -0.2518 -0.8323  1.0690
 4670TIP3   OH213973   3.515   3.897   1.179 -0.0627 -0.3777  0.0838
 4670TIP3    H113974   3.589   3.876   1.122  1.1555  0.9113  1.1471
 4670TIP3    H213975   3.484   3.982   1.147 -0.9594 -0.8001 -0.2042
 4671TIP3   OH213976   0.086   0.478   1.710  0.7264 -0.2591  0.6267
 4671TIP3    H113977   0.130   0.446   1.631  0.5840 -0.0353  0.4549
 4671TIP3    H213978   0.015   0.417   1.725  1.2938 -0.8210  1.1009
 4672TIP3   OH213979   5.939   6.529   3.971 -0.4825 -0.6374  0.3283
 4672TIP3    H113980   5.874   6.463   3.948  0.2248 -1.5348  0.8774
 4672TIP3    H213981   6.013   6.480   4.007  1.1405  0.2118 -1.6146
 4673TIP3   OH213982   2.245   5.621   1.019  0.2511 -0.6036 -0.4308
 4673TIP3    H113983   2.230   5.532   0.986  1.5678 -0.5483 -1.2510
 4673TIP3    H213984   2.339   5.625   1.035  0.1943  0.6169 -0.3098
 4674TIP3   OH213985   5.398   1.400   4.544 -0.3178 -0.2184 -0.2869
 4674TIP3    H113986   5.403   1.339   4.618 -1.7702 -2.0933 -1.6652
 4674TIP3    H213987   5.459   1.364   4.479 -0.5938  0.2542 -0.8145
 4675TIP3   OH213988   0.961   6.047   5.379  0.4743 -0.0267  0.3788
 4675TIP3    H113989   0.962   5.958   5.414 -0.3714  0.2255  1.0880
 4675TIP3    H213990   0.995   6.038   5.290  1.0327 -0.9490  0.6666
 4676TIP3   OH213991   5.401   4.676   1.500  0.3052  0.5966  0.1606
 4676TIP3    H113992   5.368   4.613   1.563 -0.3483  1.0260  0.2552
 4676TIP3    H213993   5.335   4.745   1.497  1.4899  1.8167  0.8407
 4677TIP3   OH213994   1.403   5.656   3.124 -0.2248  0.2062 -0.1357
 4677TIP3    H113995   1.344   5.619   3.058  0.9427 -1.7433 -0.1833
 4677TIP3    H213996   1.423   5.744   3.093 -1.6896  0.2460 -1.0309
 4678TIP3   OH213997   3.529   3.819   2.310  0.1910  0.4248  0.1914
 4678TIP3    H113998   3.576   3.893   2.348 -0.7094  2.0492 -1.6697
 4678TIP3    H213999   3.520   3.842   2.217  0.4342 -2.3438 -0.5903
 4679TIP3   OH214000   5.555   3.998   0.403 -0.1552 -0.1133  0.4760
 4679TIP3    H114001   5.602   4.022   0.324  2.8354 -1.8104  1.5865
 4679TIP3    H214002   5.623   3.978   0.467 -2.3951 -2.0523  2.4747
 4680TIP3   OH214003   6.036   6.624   3.453  0.3602  0.0761  0.4360
 4680TIP3    H114004   5.985   6.544   3.440  0.5311  0.0651 -0.2309
 4680TIP3    H214005   5.978   6.694   3.422 -0.1460  0.3255  1.8701
 4681TIP3   OH214006   4.294   6.672   1.432  0.3593 -0.0001 -0.3340
 4681TIP3    H114007   4.252   6.599   1.387 -0.2729  0.4453 -0.4876
 4681TIP3    H214008   4.367   6.697   1.375 -0.7743  0.9281 -1.4362
 4682TIP3   OH214009   5.377   0.492   2.099 -0.2567 -0.1060 -0.2740
 4682TIP3    H114010   5.282   0.490   2.114 -0.0986 -1.6201  0.7376
 4682TIP3    H214011   5.391   0.570   2.046 -2.0862  0.0746 -0.5589
 4683TIP3   OH214012   7.132   5.512  -0.022  0.1154  0.1505  0.2779
 4683TIP3    H114013   7.068   5.582  -0.035 -0.9817 -0.2687  2.7997
 4683TIP3    H214014   7.166   5.527   0.067  0.6056 -1.9148  0.4917
 4684TIP3   OH214015   0.877   6.426   3.488 -0.3043 -0.8253 -0.2846
 4684TIP3    H114016   0.914   6.429   3.576 -1.2771  1.1936  0.1203
 4684TIP3    H214017   0.936   6.480   3.435 -0.6689 -0.5969 -0.4613
 4685TIP3   OH214018   2.564   0.250   2.431  0.7160 -0.1933 -0.0481
 4685TIP3    H114019   2.618   0.326   2.452  0.4384  0.4135 -1.4175
 4685TIP3    H214020   2.489   0.286   2.384 -0.8743 -1.0404  1.7433
 4686TIP3   OH214021   5.278   0.469   4.103  0.4376 -0.3491 -0.8466
 4686TIP3    H114022   5.287   0.477   4.198 -2.0053  1.1044 -0.6674
 4686TIP3    H214023   5.355   0.514   4.068  0.7088  0.2325  0.4488
 4687TIP3   OH214024   2.825   4.203   5.683  0.8369  0.1940  0.0044
 4687TIP3    H114025   2.920   4.198   5.672  0.9382 -0.1261  0.9293
 4687TIP3    H214026   2.792   4.220   5.595  1.7278  0.0196 -0.3816
 4688TIP3   OH214027   4.824   3.964   0.982 -0.1983 -0.0773 -0.1940
 4688TIP3    H114028   4.810   4.053   0.949  1.5692  0.6171  0.7712
 4688TIP3    H214029   4.787   3.965   1.070 -0.1139 -0.2628 -0.1558
 4689TIP3   OH214030   7.053   4.275   1.870 -0.1355  0.3959  0.3900
 4689TIP3    H114031   7.052   4.340   1.800  1.2501  1.3709  1.2307
 4689TIP3    H214032   7.128   4.299   1.924  0.6623 -2.1339  0.5221
 4690TIP3   OH214033   7.065   5.856   4.240  0.7081  0.0640  0.4360
 4690TIP3    H114034   6.990   5.915   4.227  1.2368  0.3903 -1.5518
 4690TIP3    H214035   7.128   5.884   4.174  1.0534 -2.6022 -0.4669
 4691TIP3   OH214036   7.073   5.254   1.495  0.2578 -0.0688 -0.6907
 4691TIP3    H114037   7.113   5.277   1.578 -0.9997  0.8386 -0.2983
 4691TIP3    H214038   7.105   5.319   1.433  1.0088 -0.6029 -0.8775
 4692TIP3   OH214039   2.403   2.258   3.212  0.2300  0.4428 -0.1138
 4692TIP3    H114040   2.494   2.245   3.239  1.0316 -0.5605 -2.9422
 4692TIP3    H214041   2.393   2.353   3.206  0.9873  0.5748  0.5106
 4693TIP3   OH214042   7.140   2.616   0.790 -0.4828  0.1446 -0.0344
 4693TIP3    H114043   7.108   2.668   0.715  0.1710  0.7382  0.0877
 4693TIP3    H214044   7.114   2.668   0.866 -1.3124 -0.5519  0.1748
 4694TIP3   OH214045   2.240   6.032   0.348 -0.8317  0.1076 -0.0303
 4694TIP3    H114046   2.193   6.006   0.427  0.1368 -0.7372  0.3020
 4694TIP3    H214047   2.236   6.128   0.348  0.4508  0.2408  1.9223
 4695TIP3   OH214048   5.653   6.008   4.829 -0.1231  0.2964  0.2791
 4695TIP3    H114049   5.723   5.946   4.809  0.7727  0.6142  2.1778
 4695TIP3    H214050   5.696   6.094   4.829 -0.5288  0.5200  1.2274
 4696TIP3   OH214051   4.249   6.287   2.436 -0.5113  0.7171 -0.4737
 4696TIP3    H114052   4.225   6.357   2.375 -0.3661  1.7168  0.5840
 4696TIP3    H214053   4.192   6.301   2.511 -0.7979 -0.5943 -0.4308
 4697TIP3   OH214054   6.439   0.321   0.841 -0.4783  0.8476  0.4934
 4697TIP3    H114055   6.485   0.361   0.915 -0.0062 -0.8478  1.1557
 4697TIP3    H214056   6.432   0.392   0.777  1.1094  1.7484  1.2408
 4698TIP3   OH214057   6.699   0.130   2.783  0.7386  0.3176 -0.0078
 4698TIP3    H114058   6.658   0.135   2.869 -0.2080 -1.1050 -0.3455
 4698TIP3    H214059   6.738   0.042   2.780 -0.2217 -0.0903 -1.4374
 4699TIP3   OH214060   0.375   6.313   4.395  0.6286  1.1067  0.2206
 4699TIP3    H114061   0.429   6.234   4.393 -1.0989 -0.1365 -1.2758
 4699TIP3    H214062   0.299   6.288   4.448 -0.1531  1.5887 -0.6553
 4700TIP3   OH214063   1.307   3.425   5.373 -0.1782 -0.2777 -0.4137
 4700TIP3    H114064   1.279   3.433   5.282 -0.0137 -1.7271 -0.6176
 4700TIP3    H214065   1.254   3.354   5.409 -0.6460  0.6406  0.8113
 4701TIP3   OH214066   1.141   2.783   3.584 -0.4646 -0.4375  0.2386
 4701TIP3    H114067   1.226   2.827   3.585 -0.5781 -0.2139  0.2146
 4701TIP3    H214068   1.160   2.694   3.556 -0.0168 -0.8554  1.7506
 4702TIP3   OH214069   2.151   4.404   1.008 -0.1073  0.4546  0.2449
 4702TIP3    H114070   2.240   4.381   1.035  0.6754  1.9517 -0.9452
 4702TIP3    H214071   2.160   4.486   0.959 -1.9182 -0.1706 -1.2923
 4703TIP3   OH214072   3.251   4.346   5.412  0.0145 -0.6177 -0.6334
 4703TIP3    H114073   3.215   4.257   5.411 -2.4400  0.2599  1.1688
 4703TIP3    H214074   3.191   4.396   5.357  1.2376  0.0111 -1.4246
 4704TIP3   OH214075   1.693   6.653   1.312 -0.0203 -0.1746  0.5097
 4704TIP3    H114076   1.788   6.642   1.303 -0.0454  0.6748 -1.2830
 4704TIP3    H214077   1.677   6.744   1.286 -1.2863 -0.1767  1.2048
 4705TIP3   OH214078   5.282   0.396   0.921  0.6515 -0.2059 -0.1494
 4705TIP3    H114079   5.254   0.421   0.833 -0.6223 -0.4789  0.1587
 4705TIP3    H214080   5.216   0.333   0.950  1.2233 -0.3437  0.8901
 4706TIP3   OH214081   4.544   1.513   0.391  0.1667 -0.6273 -0.2019
 4706TIP3    H114082   4.561   1.439   0.450  0.9202 -1.1017 -0.9867
 4706TIP3    H214083   4.475   1.563   0.434  0.0404 -1.4822  0.6182
 4707TIP3   OH214084   6.332   1.042   3.996  0.1164  0.1036  0.0101
 4707TIP3    H114085   6.257   1.004   4.042  0.8665  0.6335  1.7352
 4707TIP3    H214086   6.351   1.123   4.042  0.4753  1.0511 -1.7044
 4708TIP3   OH214087   5.270   1.977   1.674 -0.5593 -0.2497 -0.1552
 4708TIP3    H114088   5.318   2.032   1.612 -0.5484  0.3317  0.3554
 4708TIP3    H214089   5.188   1.956   1.630  0.0068 -0.9427 -0.8901
 4709TIP3   OH214090   0.031   4.260   0.211  0.2525  0.2484 -0.5890
 4709TIP3    H114091   0.051   4.342   0.256  1.7650  0.1452 -1.0247
 4709TIP3    H214092   0.116   4.218   0.198 -0.2796 -0.4159 -2.2009
 4710TIP3   OH214093   4.820   4.111   2.217 -0.4795 -0.1954  0.3534
 4710TIP3    H114094   4.892   4.063   2.258 -1.4888  0.0193  2.5156
 4710TIP3    H214095   4.831   4.201   2.248 -1.7297 -0.1854  0.7977
 4711TIP3   OH214096   1.853   6.102   3.087  0.0473  0.2652  0.0738
 4711TIP3    H114097   1.842   6.031   3.150  1.7526  0.0737  0.2202
 4711TIP3    H214098   1.766   6.141   3.078 -0.3500 -0.0546  2.1128
 4712TIP3   OH214099   6.534   0.295   3.655 -0.4793 -0.3472  0.0853
 4712TIP3    H114100   6.555   0.202   3.662 -0.0203 -0.1894  0.9792
 4712TIP3    H214101   6.455   0.298   3.602 -0.8151 -1.2852  0.5115
 4713TIP3   OH214102   6.550   5.486   4.345 -0.4503  0.3555 -0.4303
 4713TIP3    H114103   6.471   5.473   4.294 -0.5854 -0.7189  0.0182
 4713TIP3    H214104   6.535   5.435   4.425  0.9642 -0.4525 -0.6467
 4714TIP3   OH214105   6.771   3.004   4.365  0.6197 -0.1418 -0.2489
 4714TIP3    H114106   6.859   3.041   4.357  1.0320 -1.2603 -1.3109
 4714TIP3    H214107   6.748   3.015   4.457  0.9663  2.1235 -0.3910
 4715TIP3   OH214108   5.589   5.305   2.834  0.1641 -0.2190  0.3648
 4715TIP3    H114109   5.676   5.309   2.794 -0.3798 -0.7330 -0.8920
 4715TIP3    H214110   5.541   5.242   2.781 -1.2284  0.6463  0.5717
 4716TIP3   OH214111   4.228   3.967   5.196 -0.1229  0.6342 -0.9084
 4716TIP3    H114112   4.317   3.973   5.233  0.3801 -0.2023 -1.9270
 4716TIP3    H214113   4.171   3.987   5.270  0.8792 -0.0337  0.0967
 4717TIP3   OH214114   2.299   5.961   0.847  0.3009  0.6173  0.5561
 4717TIP3    H114115   2.364   6.020   0.810  2.1515  0.1646  2.8312
 4717TIP3    H214116   2.275   6.000   0.931 -1.0394 -0.1584  0.5783
 4718TIP3   OH214117   3.915   3.868   1.458  0.0282  0.0694  0.6090
 4718TIP3    H114118   3.876   3.907   1.380  1.0607  0.4096  0.2575
 4718TIP3    H214119   3.965   3.794   1.425  1.7837  1.1547  0.7331
 4719TIP3   OH214120   5.415   3.171   4.446  0.0061  0.1249  0.1514
 4719TIP3    H114121   5.449   3.226   4.375 -0.5908  0.1337 -0.1322
 4719TIP3    H214122   5.463   3.200   4.524  2.3496 -1.4366 -0.6197
 4720TIP3   OH214123   4.294   5.559   5.068  0.8446 -0.4565  0.0271
 4720TIP3    H114124   4.209   5.517   5.067  0.8076 -0.4026 -1.7624
 4720TIP3    H214125   4.315   5.575   4.976  1.0064  3.1047  0.5284
 4721TIP3   OH214126   4.697   1.431   4.300  0.4003  0.0881 -0.1489
 4721TIP3    H114127   4.767   1.440   4.364 -1.2581 -0.6632  1.8486
 4721TIP3    H214128   4.616   1.436   4.351 -0.9812 -2.0135 -1.9758
 4722TIP3   OH214129   4.039   1.043   5.395 -0.2047  0.2847 -0.2140
 4722TIP3    H114130   3.988   1.031   5.315 -1.0034  0.0735  0.3194
 4722TIP3    H214131   4.008   0.975   5.455 -0.3932  1.0991  0.6521
 4723TIP3   OH214132   4.209   4.716   0.828  0.6107 -0.4432  0.3886
 4723TIP3    H114133   4.198   4.659   0.905 -0.6081  0.8507  1.2239
 4723TIP3    H214134   4.178   4.663   0.755 -4.0161  0.1208  1.5698
 4724TIP3   OH214135   6.371   6.650   2.562  0.1440 -0.2079 -0.0361
 4724TIP3    H114136   6.356   6.654   2.467  0.7561 -0.9489 -0.1831
 4724TIP3    H214137   6.374   6.741   2.590  0.1639  0.0260 -0.7676
 4725TIP3   OH214138   6.104   3.704   3.723 -0.4047 -0.3471  0.0817
 4725TIP3    H114139   6.055   3.762   3.666 -2.2050  0.2117  2.0536
 4725TIP3    H214140   6.053   3.623   3.725 -0.0026 -0.6012  0.3509
 4726TIP3   OH214141   6.302   2.322   5.186  0.3863  0.1211  0.0441
 4726TIP3    H114142   6.320   2.320   5.092 -0.7399  0.4576 -0.2052
 4726TIP3    H214143   6.381   2.289   5.227 -0.6277 -4.7790 -1.2426
 4727TIP3   OH214144   5.751   3.893   0.967 -0.2296  0.1589  0.1015
 4727TIP3    H114145   5.727   3.913   0.876  1.2079  1.8247  0.0405
 4727TIP3    H214146   5.675   3.921   1.018  0.1399  2.1188 -0.3627
 4728TIP3   OH214147   0.085   4.699   0.600 -0.0762 -0.3042 -0.4588
 4728TIP3    H114148   0.024   4.644   0.551  1.7005 -3.5733  0.7313
 4728TIP3    H214149   0.036   4.725   0.678 -1.6446  1.7770 -2.0243
 4729TIP3   OH214150   0.263   3.413   5.430  0.1758 -0.0490 -0.6937
 4729TIP3    H114151   0.334   3.395   5.368  0.6848  0.2265 -0.2020
 4729TIP3    H214152   0.233   3.501   5.407  1.3726  0.6806  0.3760
 4730TIP3   OH214153   1.201   0.320   2.706  0.0405 -0.0974  0.8835
 4730TIP3    H114154   1.174   0.250   2.765 -0.4200 -0.2347  0.5172
 4730TIP3    H214155   1.119   0.359   2.676  0.1666 -1.2003 -1.0734
 4731TIP3   OH214156   3.501   3.790   3.485 -0.0230  0.4071 -0.1770
 4731TIP3    H114157   3.436   3.857   3.507  0.5550  0.0537  3.3008
 4731TIP3    H214158   3.450   3.709   3.476 -0.4287  0.7952 -1.4814
 4732TIP3   OH214159   3.107   1.653   3.272 -0.3948 -0.3726 -0.1321
 4732TIP3    H114160   3.020   1.629   3.303 -0.3750 -0.5423 -0.2088
 4732TIP3    H214161   3.147   1.698   3.347 -0.6987  0.0741 -0.2354
 4733TIP3   OH214162   3.558   2.460   4.086 -0.3311 -0.1886  0.3160
 4733TIP3    H114163   3.632   2.502   4.040  0.7289 -0.4602  1.7176
 4733TIP3    H214164   3.511   2.413   4.017  0.6118  0.2519 -0.6612
 4734TIP3   OH214165   6.150   4.225   5.582 -0.3047  0.5105  0.4018
 4734TIP3    H114166   6.160   4.316   5.553 -0.3265  0.4353  0.1563
 4734TIP3    H214167   6.166   4.173   5.503  1.8585  0.2095  0.9987
 4735TIP3   OH214168   0.388   5.296   0.912 -0.1951 -0.4712  0.4233
 4735TIP3    H114169   0.350   5.216   0.948 -0.5108 -0.8794 -0.7699
 4735TIP3    H214170   0.347   5.305   0.826 -0.6964  1.3597  0.8072
 4736TIP3   OH214171   6.966   1.503   5.169  0.0240 -0.4553  0.3031
 4736TIP3    H114172   7.047   1.473   5.210 -0.1228  1.3789  2.1356
 4736TIP3    H214173   6.897   1.460   5.220 -0.2184 -1.9106 -1.1699
 4737TIP3   OH214174   1.593   0.351   5.087 -0.0952  0.4201  0.1987
 4737TIP3    H114175   1.536   0.275   5.098 -1.5895  1.2298 -1.4881
 4737TIP3    H214176   1.643   0.332   5.008  1.0497  0.3222  0.9200
 4738TIP3   OH214177   0.933   0.628   5.289 -0.2746 -0.1921  0.0663
 4738TIP3    H114178   0.959   0.604   5.200  0.2861 -1.0844  0.4523
 4738TIP3    H214179   1.011   0.672   5.325  0.4145 -1.9943  0.8997
 4739TIP3   OH214180   5.089   3.831   2.422  0.0678  0.0218  0.1553
 4739TIP3    H114181   5.019   3.787   2.470  1.1117 -1.1367  0.6859
 4739TIP3    H214182   5.057   3.835   2.332 -1.2470  0.7914  0.6288
 4740TIP3   OH214183   6.018   4.439   3.119 -0.1437 -0.3389 -0.4889
 4740TIP3    H114184   6.039   4.485   3.201  2.5207 -2.9364  0.4458
 4740TIP3    H214185   5.924   4.457   3.106 -0.0403  2.4354  1.5593
 4741TIP3   OH214186   6.629   3.164   5.862 -0.0743  0.3104 -0.3520
 4741TIP3    H114187   6.590   3.247   5.834 -0.0447  0.7814  0.9042
 4741TIP3    H214188   6.686   3.188   5.935  0.2141 -0.7749 -0.2031
 4742TIP3   OH214189   6.617   1.799   3.137  0.1660  0.2201 -0.3783
 4742TIP3    H114190   6.670   1.763   3.208  0.6355 -0.5725 -1.1065
 4742TIP3    H214191   6.574   1.723   3.099 -1.1084  0.7934 -0.1291
 4743TIP3   OH214192   5.591   4.555   4.805 -0.2122  0.1925  0.4354
 4743TIP3    H114193   5.638   4.487   4.853  0.3456  0.2705  0.0124
 4743TIP3    H214194   5.498   4.535   4.818 -0.0545 -0.4477  0.5932
 4744TIP3   OH214195   2.364   6.780   0.295 -0.0520 -0.1572 -0.0818
 4744TIP3    H114196   2.457   6.771   0.313  0.1220 -0.1083 -0.9002
 4744TIP3    H214197   2.321   6.754   0.376  0.6988  1.9912  1.0771
 4745TIP3   OH214198   6.310   6.009   5.597  0.0558 -0.1630 -0.3749
 4745TIP3    H114199   6.280   6.095   5.625  0.2283  0.0914 -0.9603
 4745TIP3    H214200   6.378   5.985   5.660 -0.6426 -0.2940  0.3495
 4746TIP3   OH214201   6.213   6.627   0.434 -0.3694  0.1312 -0.0394
 4746TIP3    H114202   6.158   6.673   0.499  0.0249 -0.2760  0.5935
 4746TIP3    H214203   6.286   6.592   0.485 -0.8862 -1.5939 -0.4197
 4747TIP3   OH214204   3.005   0.330   4.279 -0.3610  0.2113  0.0532
 4747TIP3    H114205   2.996   0.414   4.234 -0.5016  0.8672  1.2849
 4747TIP3    H214206   2.924   0.283   4.257  0.1303 -0.0208 -1.4183
 4748TIP3   OH214207   1.855   5.571   5.131  0.0880  0.1611  0.8754
 4748TIP3    H114208   1.874   5.477   5.131 -0.6970 -0.0190  2.1113
 4748TIP3    H214209   1.767   5.577   5.166 -1.2158  1.1442 -2.2154
 4749TIP3   OH214210   2.307   0.387   2.371 -0.1115  0.0902  0.1890
 4749TIP3    H114211   2.254   0.309   2.388 -0.6842  0.1313 -1.2546
 4749TIP3    H214212   2.274   0.421   2.288  0.8005  1.3116  0.2922
 4750TIP3   OH214213   6.868   4.879   4.429 -0.2255 -0.2134 -0.3552
 4750TIP3    H114214   6.804   4.823   4.385 -1.5224  0.9434 -0.0369
 4750TIP3    H214215   6.895   4.942   4.362 -0.3852  0.0757 -0.1504
 4751TIP3   OH214216   1.742   4.016   0.892  0.7585 -0.2909 -0.3819
 4751TIP3    H114217   1.812   3.971   0.939 -0.4457 -1.3806  0.4508
 4751TIP3    H214218   1.749   4.107   0.920  1.5175 -0.4838  0.0797
 4752TIP3   OH214219   1.752   0.758   3.053 -0.0125 -0.4618  0.0818
 4752TIP3    H114220   1.677   0.775   3.109  0.6514 -1.9247  1.4929
 4752TIP3    H214221   1.807   0.836   3.061 -1.2504  0.5396 -0.8171
 4753TIP3   OH214222   0.766   3.027   3.056  0.0808 -0.3418 -0.0587
 4753TIP3    H114223   0.781   3.045   2.963 -0.5840 -1.4287 -0.4037
 4753TIP3    H214224   0.675   3.052   3.071  0.7903  1.9593  0.8962
 4754TIP3   OH214225   1.114   2.450   1.057 -0.3121  0.8448  0.1499
 4754TIP3    H114226   1.161   2.485   0.982  0.3627  0.9156  0.5997
 4754TIP3    H214227   1.089   2.526   1.109 -1.4698  0.8578 -0.3829
 4755TIP3   OH214228   6.484   5.659   0.972 -0.3828  0.1403 -0.2564
 4755TIP3    H114229   6.562   5.604   0.973  1.5866  2.6867  1.6080
 4755TIP3    H214230   6.471   5.679   0.879 -0.7601 -2.7527 -0.9098
 4756TIP3   OH214231   3.148   3.320   4.615  0.3448 -0.5870 -0.2959
 4756TIP3    H114232   3.062   3.298   4.578 -0.5297  1.0954  0.6067
 4756TIP3    H214233   3.141   3.294   4.707  0.6111 -0.0286 -0.1110
 4757TIP3   OH214234   5.865   3.425   2.812  0.4138  0.6216  0.1235
 4757TIP3    H114235   5.893   3.365   2.742  0.0280 -0.3430  0.7700
 4757TIP3    H214236   5.943   3.436   2.866 -0.5771 -3.1863  2.7258
 4758TIP3   OH214237   0.261   2.218   4.985  0.0031  0.6719  0.0323
 4758TIP3    H114238   0.233   2.282   5.051 -1.1668 -1.2407  1.4855
 4758TIP3    H214239   0.248   2.133   5.027  0.0494 -0.6013 -2.3702
 4759TIP3   OH214240   1.289   1.613   3.291 -0.0608 -0.6787 -0.2512
 4759TIP3    H114241   1.336   1.572   3.364  1.5346 -2.1727 -2.0103
 4759TIP3    H214242   1.236   1.543   3.253  0.1793 -0.2941 -1.3373
 4760TIP3   OH214243   0.222   5.477   5.076  0.2976 -0.3092 -0.2162
 4760TIP3    H114244   0.250   5.509   5.161  1.6817 -4.1586  1.0137
 4760TIP3    H214245   0.297   5.491   5.019  0.6007 -0.5850  0.1065
 4761TIP3   OH214246   4.196   4.467   5.255  0.1310  0.4457  0.1942
 4761TIP3    H114247   4.182   4.555   5.289  0.3754 -0.2065  2.0995
 4761TIP3    H214248   4.273   4.476   5.198  0.1441  1.4473  0.3458
 4762TIP3   OH214249  -0.007   0.368   4.082  0.4760 -0.3336 -0.0935
 4762TIP3    H114250   0.089   0.368   4.079  0.5154  1.9322 -0.3753
 4762TIP3    H214251  -0.028   0.420   4.159 -0.5078  0.7504 -1.0582
 4763TIP3   OH214252   0.806   0.422   2.171 -0.7394 -0.1685  0.1470
 4763TIP3    H114253   0.883   0.458   2.127 -1.1747  1.0073  0.2914
 4763TIP3    H214254   0.755   0.382   2.101  0.0128 -1.0162  0.0592
 4764TIP3   OH214255   4.488   1.326   4.435 -0.5783  0.0117  0.0994
 4764TIP3    H114256   4.446   1.266   4.496 -1.0603  1.5219  1.3099
 4764TIP3    H214257   4.416   1.378   4.398 -0.1091  0.3707 -0.3299
 4765TIP3   OH214258   5.893   3.874   2.530 -0.2259  0.0878  0.1887
 4765TIP3    H114259   5.839   3.948   2.555 -0.2263 -0.0194  0.5040
 4765TIP3    H214260   5.852   3.798   2.573  1.3766  0.2880  2.2029
 4766TIP3   OH214261   2.747   0.084   5.832 -0.5417  0.0769  0.0866
 4766TIP3    H114262   2.802   0.160   5.848 -0.3268 -0.3483  1.5067
 4766TIP3    H214263   2.711   0.098   5.744  1.1441  0.7644 -0.5368
 4767TIP3   OH214264   5.682   4.116   5.589  0.1184  0.1824 -0.0768
 4767TIP3    H114265   5.647   4.104   5.500  0.5161 -1.3100 -0.0569
 4767TIP3    H214266   5.749   4.184   5.579 -0.7817  1.0148 -0.6465
 4768TIP3   OH214267   1.354   0.011   4.023 -0.2594 -0.3892  0.3908
 4768TIP3    H114268   1.394   0.095   4.002 -2.4428  0.5902 -0.1935
 4768TIP3    H214269   1.311  -0.017   3.941 -2.3268 -0.3923  1.3992
 4769TIP3   OH214270   7.078   1.596   2.929 -0.0856  0.1147 -0.3751
 4769TIP3    H114271   7.068   1.673   2.873  0.1385 -0.1504 -0.7828
 4769TIP3    H214272   6.991   1.554   2.926  0.6872 -1.5976 -3.0577
 4770TIP3   OH214273   1.409   3.697   1.743  0.1448 -0.1061  0.6962
 4770TIP3    H114274   1.376   3.607   1.740 -1.0317  0.3262 -1.1415
 4770TIP3    H214275   1.486   3.696   1.686 -0.1362  0.1245  0.3027
 4771TIP3   OH214276   3.862   1.244   5.008 -0.0098 -0.3573  0.1373
 4771TIP3    H114277   3.850   1.190   5.085  0.8321  1.0219  1.2771
 4771TIP3    H214278   3.956   1.242   4.991 -0.1691 -0.5401 -0.7869
 4772TIP3   OH214279   1.811   0.404   5.284 -0.2800  0.5355  0.0666
 4772TIP3    H114280   1.728   0.430   5.243  0.6145  0.2856 -1.9968
 4772TIP3    H214281   1.809   0.308   5.283 -1.1652  0.4253  2.6870
 4773TIP3   OH214282   5.785   5.070   5.316  0.1449  0.0005 -0.0610
 4773TIP3    H114283   5.861   5.049   5.262 -0.7209 -1.0068 -0.9390
 4773TIP3    H214284   5.726   4.996   5.303 -1.7026  1.5228 -0.7341
 4774TIP3   OH214285   5.678   3.198   2.839 -0.0295 -0.3043 -0.9354
 4774TIP3    H114286   5.602   3.223   2.788  0.3862  2.1780 -0.4413
 4774TIP3    H214287   5.742   3.268   2.825  0.7653 -0.4264  1.5513
 4775TIP3   OH214288   0.867   0.464   1.752  0.0646  0.1416 -0.1196
 4775TIP3    H114289   0.853   0.446   1.845  0.3889 -1.7678 -0.3952
 4775TIP3    H214290   0.856   0.379   1.710  1.3907  0.6872 -1.6477
 4776TIP3   OH214291   4.987   1.947   2.080  0.2220  0.3212 -0.3539
 4776TIP3    H114292   5.044   1.870   2.076 -0.3409 -0.2796  1.7040
 4776TIP3    H214293   5.046   2.021   2.091  0.6975 -0.2877  1.7173
 4777TIP3   OH214294   6.683   0.590   3.174  0.3025  0.2229  0.4782
 4777TIP3    H114295   6.620   0.559   3.239  0.3312 -0.2790  0.2661
 4777TIP3    H214296   6.687   0.520   3.109  1.3892  0.0684  0.6932
 4778TIP3   OH214297   7.174   6.362   0.239 -0.3837  0.1293 -0.0279
 4778TIP3    H114298   7.255   6.319   0.213  0.3465  1.3331  0.2106
 4778TIP3    H214299   7.157   6.425   0.170  0.0019  1.3136  0.9226
 4779TIP3   OH214300   6.540   0.981   0.964  0.3550  0.1545 -0.5633
 4779TIP3    H114301   6.524   0.965   1.057 -1.1959 -2.2256 -1.1384
 4779TIP3    H214302   6.615   1.040   0.962  0.1609  0.6258  2.1829
 4780TIP3   OH214303   4.367   6.151   0.115  0.7679  0.5262 -0.3544
 4780TIP3    H114304   4.405   6.139   0.028  0.4287  0.6666 -0.5249
 4780TIP3    H214305   4.275   6.126   0.105  1.3157 -2.1506  0.6158
 4781TIP3   OH214306   3.599   3.010   0.853  0.2908  0.0572  0.4811
 4781TIP3    H114307   3.676   3.064   0.836  1.2199 -1.8014 -1.9164
 4781TIP3    H214308   3.631   2.940   0.910 -0.4633  0.9627  2.0815
 4782TIP3   OH214309   2.051   6.695   3.520 -0.9975 -0.2098 -0.4220
 4782TIP3    H114310   2.039   6.789   3.516 -0.1433 -0.0177  1.1144
 4782TIP3    H214311   2.127   6.677   3.465  1.4252  0.5620  2.4422
 4783TIP3   OH214312   2.477   0.232   4.287  0.0886 -0.4847 -0.4611
 4783TIP3    H114313   2.471   0.323   4.258  0.8640 -0.8579 -1.8588
 4783TIP3    H214314   2.440   0.180   4.215  1.2450 -1.3777 -0.4456
 4784TIP3   OH214315   4.201   2.057   3.475  0.3262 -0.4229 -0.1004
 4784TIP3    H114316   4.207   1.975   3.425 -0.7261 -0.9034  0.5236
 4784TIP3    H214317   4.152   2.033   3.554 -0.0772  0.8327  0.0463
 4785TIP3   OH214318   4.804   2.959   5.569  0.4595 -0.1589  0.0558
 4785TIP3    H114319   4.805   2.873   5.610  0.8328  0.5399  1.5601
 4785TIP3    H214320   4.775   2.942   5.479 -0.7967 -1.6874  0.7025
 4786TIP3   OH214321   7.155   0.955   4.203 -0.3176  0.7553  0.1851
 4786TIP3    H114322   7.120   1.019   4.142  0.7163  1.9319  0.7671
 4786TIP3    H214323   7.083   0.937   4.264 -1.3027 -0.3191 -1.2380
 4787TIP3   OH214324   1.065   5.347   2.116 -0.2849 -0.2443 -0.0336
 4787TIP3    H114325   1.003   5.387   2.055 -0.9884 -1.7897 -0.4076
 4787TIP3    H214326   1.025   5.262   2.137  0.6530 -0.3536  1.4545
 4788TIP3   OH214327   2.830   6.333   3.038  0.0822 -0.4104 -0.0403
 4788TIP3    H114328   2.888   6.326   3.113  1.4246 -0.2729 -1.0121
 4788TIP3    H214329   2.804   6.425   3.036 -0.7384 -0.6059  0.7750
 4789TIP3   OH214330   6.301   4.697   4.304  0.9888  0.0437 -0.1090
 4789TIP3    H114331   6.275   4.766   4.243 -0.1863  0.1323  0.4604
 4789TIP3    H214332   6.282   4.615   4.257 -2.3709  0.0472  0.9751
 4790TIP3   OH214333   4.712   6.242   0.263  0.0471 -0.2153  0.2184
 4790TIP3    H114334   4.799   6.271   0.289 -0.6820  0.5342  1.9531
 4790TIP3    H214335   4.708   6.263   0.169  1.0127  1.6800  0.5370
 4791TIP3   OH214336   5.035   1.640   5.200 -0.2781 -0.0623  0.2183
 4791TIP3    H114337   5.080   1.559   5.222 -1.7582 -0.9446  0.1459
 4791TIP3    H214338   5.048   1.697   5.276  0.4157 -0.5190  0.4482
 4792TIP3   OH214339   5.339   5.088   0.333  0.6853  0.0711 -0.6107
 4792TIP3    H114340   5.355   5.145   0.409  1.6224 -2.2878  1.0898
 4792TIP3    H214341   5.246   5.066   0.339  0.2683  1.5044 -1.3971
 4793TIP3   OH214342   0.525   2.605   1.157 -0.0851  0.3224  0.3921
 4793TIP3    H114343   0.535   2.689   1.203  0.2360 -0.1241  1.1628
 4793TIP3    H214344   0.433   2.604   1.129 -0.5037  0.2873  1.6973
 4794TIP3   OH214345   0.770   1.568   1.193 -0.0383 -0.1039  0.3581
 4794TIP3    H114346   0.776   1.664   1.191 -0.3420 -0.0582 -2.1216
 4794TIP3    H214347   0.676   1.550   1.191  0.0270 -0.4546  0.4027
 4795TIP3   OH214348   4.013   1.982   1.733 -0.3594 -0.1639 -0.2297
 4795TIP3    H114349   3.974   2.057   1.776 -0.5126  0.8182 -1.9733
 4795TIP3    H214350   3.946   1.952   1.671  0.4563 -0.4324 -1.0039
 4796TIP3   OH214351   2.600   1.396   2.001  0.3007  0.6485 -0.1006
 4796TIP3    H114352   2.652   1.387   2.080  0.8467 -0.0120 -0.5333
 4796TIP3    H214353   2.546   1.474   2.017 -0.0613  0.1614  1.1760
 4797TIP3   OH214354   4.431   0.411   3.861 -0.1195  0.0193 -0.3908
 4797TIP3    H114355   4.515   0.441   3.897 -1.0514  1.9832  0.2794
 4797TIP3    H214356   4.441   0.418   3.766  0.3835  0.5074 -0.3039
 4798TIP3   OH214357   2.946   3.257   4.397  0.1709  0.1407 -0.4200
 4798TIP3    H114358   2.936   3.349   4.374 -1.0377  0.4233  1.1238
 4798TIP3    H214359   2.999   3.221   4.326  1.8810  2.3032 -0.3580
 4799TIP3   OH214360   0.840   5.343   2.567  0.2399 -0.4748 -0.2579
 4799TIP3    H114361   0.761   5.297   2.595 -0.0490  0.4111  0.4110
 4799TIP3    H214362   0.816   5.435   2.567  1.7510 -0.0092  1.6807
 4800TIP3   OH214363   4.784   2.988   5.284 -0.2328 -0.5250 -0.0624
 4800TIP3    H114364   4.731   3.068   5.289  1.1037  0.3499  1.5689
 4800TIP3    H214365   4.874   3.021   5.281  0.2975 -1.9797 -0.6210
 4801TIP3   OH214366   5.335   0.905   2.786 -0.0997  0.3876  0.1932
 4801TIP3    H114367   5.303   0.814   2.787 -1.2717  0.7510  2.1088
 4801TIP3    H214368   5.386   0.912   2.706 -1.6684 -1.3904 -1.0554
 4802TIP3   OH214369   0.712   0.849   5.638  0.1169 -0.6250 -0.0420
 4802TIP3    H114370   0.680   0.845   5.548  0.5487 -0.0178 -0.2350
 4802TIP3    H214371   0.808   0.848   5.629  0.1686 -0.0027  0.3686
 4803TIP3   OH214372   6.947   4.602   2.773 -0.0993  0.0857 -0.2644
 4803TIP3    H114373   7.001   4.625   2.698 -0.1768  2.4070  0.3098
 4803TIP3    H214374   6.857   4.612   2.742 -0.1408  0.2568 -0.0895
 4804TIP3   OH214375   1.777   4.692   4.683  0.6195  0.2275  0.6170
 4804TIP3    H114376   1.721   4.736   4.619  0.4871 -1.2862 -0.3391
 4804TIP3    H214377   1.852   4.751   4.692  0.1200  1.0066 -0.0721
 4805TIP3   OH214378   6.275   0.066   1.975  0.4007 -0.1889  0.4603
 4805TIP3    H114379   6.210   0.006   2.010  0.1557 -0.9176 -1.1660
 4805TIP3    H214380   6.233   0.152   1.978 -1.5470 -0.8851 -2.4121
 4806TIP3   OH214381   2.714   2.368   0.049  0.1333  1.1214 -0.4445
 4806TIP3    H114382   2.643   2.308   0.026  0.6737 -0.2472  1.2153
 4806TIP3    H214383   2.790   2.335  -0.001  0.4666  0.2906  0.5806
 4807TIP3   OH214384   4.510   6.333   3.057 -0.1537  0.3291 -0.0055
 4807TIP3    H114385   4.518   6.417   3.012 -1.5975 -0.2653 -1.4815
 4807TIP3    H214386   4.576   6.278   3.014 -0.5987  0.1522 -0.4784
 4808TIP3   OH214387   5.986   6.497   4.319 -0.0216 -0.3564 -0.7850
 4808TIP3    H114388   5.998   6.449   4.400  1.0841 -0.2365 -0.8657
 4808TIP3    H214389   5.924   6.444   4.269  1.1918 -1.7537 -0.8890
 4809TIP3   OH214390   6.378   5.796   4.389 -0.0703  0.2109 -0.1143
 4809TIP3    H114391   6.392   5.749   4.306 -0.5227 -1.1640  0.5504
 4809TIP3    H214392   6.366   5.887   4.363 -0.9234 -0.2973 -1.6410
 4810TIP3   OH214393   3.492   5.448   0.820 -0.1669 -0.0456 -0.0648
 4810TIP3    H114394   3.507   5.376   0.759  2.0506  1.8185 -1.8608
 4810TIP3    H214395   3.412   5.489   0.789 -0.1351 -0.3086 -0.5092
 4811TIP3   OH214396   5.039   2.255   2.746  0.2247  0.3537  0.4333
 4811TIP3    H114397   5.062   2.239   2.837  1.8671 -0.0304 -0.0102
 4811TIP3    H214398   5.112   2.217   2.696 -1.2159 -0.5648 -1.0889
 4812TIP3   OH214399   1.199   5.033   3.478  0.2157 -0.2933  0.0400
 4812TIP3    H114400   1.239   5.109   3.434  1.1976 -1.0536 -0.4183
 4812TIP3    H214401   1.270   4.970   3.486 -0.8054 -1.5467 -0.4269
 4813TIP3   OH214402   6.363   0.200   3.454  0.7615  0.4010 -1.0133
 4813TIP3    H114403   6.328   0.152   3.379  0.7081 -2.5589  0.7496
 4813TIP3    H214404   6.443   0.153   3.477  0.5551  0.9526  1.0261
 4814TIP3   OH214405   5.017   1.750   5.451  0.2205 -0.5021  0.2673
 4814TIP3    H114406   5.096   1.752   5.504  0.7855  0.1351 -0.5773
 4814TIP3    H214407   4.945   1.753   5.515  0.8778 -0.3773  1.0142
 4815TIP3   OH214408   3.032   0.895   3.140 -0.2608 -0.2354  0.1212
 4815TIP3    H114409   3.091   0.963   3.172 -0.3501 -0.0501 -0.1048
 4815TIP3    H214410   3.064   0.814   3.181  1.8875 -0.6272 -2.1440
 4816TIP3   OH214411   1.014   4.872   3.379 -0.0970 -0.1296  0.4880
 4816TIP3    H114412   1.074   4.941   3.406  0.0955 -1.1389  2.9579
 4816TIP3    H214413   0.978   4.839   3.462 -1.9876 -1.3818 -0.7618
 4817TIP3   OH214414   0.858   2.359   0.426 -0.2802  0.0338  0.4216
 4817TIP3    H114415   0.910   2.431   0.461  0.1753  0.2343 -0.6390
 4817TIP3    H214416   0.809   2.397   0.353  1.1808 -1.0578 -1.1895
 4818TIP3   OH214417   6.604   2.348   0.870  0.1229 -0.2763  0.0497
 4818TIP3    H114418   6.519   2.306   0.867  0.0436 -0.2229  1.2598
 4818TIP3    H214419   6.663   2.287   0.827 -0.1528 -1.2318  1.0025
 4819TIP3   OH214420   1.990   3.348   5.518  0.2929  0.2666  0.5374
 4819TIP3    H114421   1.947   3.329   5.434  1.1814 -2.9759  0.6947
 4819TIP3    H214422   1.943   3.424   5.552 -2.2119 -0.2609 -1.4355
 4820TIP3   OH214423   4.956   2.324   5.307  0.3869  0.5498 -0.0852
 4820TIP3    H114424   5.006   2.371   5.374  1.3301 -0.8169  0.2184
 4820TIP3    H214425   4.992   2.235   5.309 -0.2003  0.2432 -1.7844
 4821TIP3   OH214426   5.629   4.406   0.956  0.3846 -0.5712  0.3641
 4821TIP3    H114427   5.662   4.457   0.882  1.1031 -0.9152  0.4410
 4821TIP3    H214428   5.657   4.455   1.033  0.6977 -0.8535  0.4305
 4822TIP3   OH214429   3.795   2.345   4.377  0.0283  0.2220 -0.4207
 4822TIP3    H114430   3.737   2.398   4.432  0.5070 -0.6683  0.9746
 4822TIP3    H214431   3.802   2.395   4.296 -0.0347  1.9933  0.6144
 4823TIP3   OH214432   6.509   0.727   2.312  0.2174 -0.4089 -0.0026
 4823TIP3    H114433   6.602   0.704   2.317 -0.1742 -2.4246 -0.6671
 4823TIP3    H214434   6.466   0.666   2.373 -0.6841  0.3760  0.1661
 4824TIP3   OH214435   1.077   2.443   5.819  0.0320  0.5122 -0.5152
 4824TIP3    H114436   1.025   2.490   5.885  0.2079 -2.0602  1.6346
 4824TIP3    H214437   1.012   2.410   5.757 -0.5532  0.1322  0.2805
 4825TIP3   OH214438   3.352   2.435   1.420  0.0325 -0.2331 -0.1650
 4825TIP3    H114439   3.445   2.412   1.418 -0.1025 -1.0715  1.5747
 4825TIP3    H214440   3.307   2.351   1.429 -0.8848  0.1853 -0.7869
 4826TIP3   OH214441   0.084   2.662   2.326  0.2425  0.2632  0.3773
 4826TIP3    H114442   0.052   2.659   2.416  0.0711  1.5163  0.3712
 4826TIP3    H214443   0.005   2.666   2.272  0.3629  0.6242  0.2266
 4827TIP3   OH214444   1.743   3.606   5.395 -0.0195  0.4819 -0.3160
 4827TIP3    H114445   1.788   3.636   5.316 -1.5434  1.7965 -0.7338
 4827TIP3    H214446   1.740   3.511   5.387  3.9037  0.1234  0.4413
 4828TIP3   OH214447   2.576   5.927   2.347  0.2768 -0.5367  0.2462
 4828TIP3    H114448   2.549   6.010   2.386 -0.2273 -0.0563 -1.0835
 4828TIP3    H214449   2.514   5.863   2.382 -1.5855  0.2634 -1.4141
 4829TIP3   OH214450   5.866   5.820   4.582  0.4892 -0.0210  0.0896
 4829TIP3    H114451   5.923   5.799   4.508 -0.6635  0.4071 -0.9428
 4829TIP3    H214452   5.801   5.750   4.583  0.4369  0.0290  0.6518
 4830TIP3   OH214453   7.243   0.011   1.756  0.0185  0.0633 -0.0211
 4830TIP3    H114454   7.162  -0.040   1.750  0.6055 -1.0312  1.0102
 4830TIP3    H214455   7.238   0.052   1.842  0.2680  0.5330 -0.2277
 4831TIP3   OH214456   0.615   3.741   3.222 -0.5012  0.3923  0.3234
 4831TIP3    H114457   0.573   3.655   3.224 -0.4930  0.3774 -0.1045
 4831TIP3    H214458   0.705   3.725   3.250 -1.2645  0.7182  3.2491
 4832TIP3   OH214459   0.301   2.504   1.935 -0.0774 -0.3838  0.0516
 4832TIP3    H114460   0.222   2.491   1.988  0.7278  1.0683  1.6856
 4832TIP3    H214461   0.273   2.484   1.846 -2.2298 -0.1605  0.6192
 4833TIP3   OH214462   3.251   0.159   0.440 -0.5677  0.3662 -1.6811
 4833TIP3    H114463   3.234   0.199   0.355  1.3938  1.9854 -1.3874
 4833TIP3    H214464   3.344   0.175   0.456  0.0518 -3.2485 -0.8885
 4834TIP3   OH214465   6.135   3.705   1.169 -0.2279 -0.3817  0.0681
 4834TIP3    H114466   6.111   3.637   1.231  1.5079 -0.8284  0.3112
 4834TIP3    H214467   6.062   3.767   1.171 -0.7828 -1.0427  1.5849
 4835TIP3   OH214468   5.317   5.682   5.773 -0.0584  0.1549 -0.0597
 4835TIP3    H114469   5.262   5.605   5.754 -1.1548  0.9247 -0.1395
 4835TIP3    H214470   5.397   5.667   5.724 -0.5878 -0.5582 -0.7401
 4836TIP3   OH214471   3.688   3.681   1.837  0.5918  0.0461  0.4735
 4836TIP3    H114472   3.752   3.623   1.877  1.2725 -0.1338 -0.8055
 4836TIP3    H214473   3.627   3.623   1.791  0.3908  0.2777  0.4418
 4837TIP3   OH214474   4.689   4.098   3.035  0.7121 -0.1885  0.0535
 4837TIP3    H114475   4.686   4.084   2.940  0.0414  0.0542  0.0294
 4837TIP3    H214476   4.597   4.110   3.060  0.8270 -0.8414  0.8294
 4838TIP3   OH214477   5.270   5.134   5.678 -0.5186  0.3259  0.1108
 4838TIP3    H114478   5.243   5.075   5.749  0.6130  0.0720  0.3503
 4838TIP3    H214479   5.200   5.127   5.614 -0.8012 -0.6625  0.5021
 4839TIP3   OH214480   1.092   5.763   5.479 -0.2499 -0.4101  0.2255
 4839TIP3    H114481   1.182   5.794   5.463 -1.5833  4.1628  0.0934
 4839TIP3    H214482   1.091   5.741   5.572  0.8120  0.3837  0.4468
 4840TIP3   OH214483   5.130   1.783   4.889  0.4237  0.5183 -0.1033
 4840TIP3    H114484   5.048   1.812   4.931  0.2328 -0.1103 -0.0333
 4840TIP3    H214485   5.195   1.789   4.959 -0.1773 -1.9039  0.7382
 4841TIP3   OH214486   1.826   0.911   5.039  0.0641  0.1188 -0.0509
 4841TIP3    H114487   1.847   0.981   5.101  1.5977 -0.9155  0.6616
 4841TIP3    H214488   1.828   0.953   4.953  2.2916  0.7369  0.2383
 4842TIP3   OH214489   5.616   0.223   4.020  0.2945  0.2890 -0.1220
 4842TIP3    H114490   5.521   0.212   4.011  0.3917 -1.5954  0.8303
 4842TIP3    H214491   5.651   0.134   4.025  2.1623  0.9442 -0.7025
 4843TIP3   OH214492   5.728   6.370   3.802 -0.0725 -0.1423 -0.2208
 4843TIP3    H114493   5.636   6.388   3.783 -0.2460 -1.5912 -0.8752
 4843TIP3    H214494   5.730   6.277   3.824  1.1683 -0.0042  0.3181
 4844TIP3   OH214495   0.517   3.793   0.749 -0.0751 -0.4261  0.3353
 4844TIP3    H114496   0.495   3.701   0.765 -3.2687  0.2643  0.6143
 4844TIP3    H214497   0.457   3.820   0.679 -0.4196  1.8411  1.4188
 4845TIP3   OH214498   4.376   6.394   3.568  0.1552 -0.5153 -0.0218
 4845TIP3    H114499   4.462   6.421   3.599  0.1452  0.6504 -0.9861
 4845TIP3    H214500   4.387   6.376   3.475 -0.8769  0.7844 -0.4260
 4846TIP3   OH214501   3.187   0.350   1.125 -0.1363 -1.0993 -0.1387
 4846TIP3    H114502   3.220   0.305   1.047  1.2779 -0.1075 -0.1432
 4846TIP3    H214503   3.092   0.334   1.124 -0.0226 -1.8103 -1.5761
 4847TIP3   OH214504   3.646   4.645   0.638 -0.1814  0.6869 -0.0287
 4847TIP3    H114505   3.671   4.611   0.552  0.9481 -2.4904  1.4113
 4847TIP3    H214506   3.723   4.693   0.668  0.8055 -1.2181  0.5997
 4848TIP3   OH214507   4.047   3.342   5.569 -0.0215  0.0854 -0.6266
 4848TIP3    H114508   4.116   3.293   5.615  0.4642  1.1991 -0.1453
 4848TIP3    H214509   4.019   3.408   5.631 -2.9329 -1.5094 -0.0587
 4849TIP3   OH214510   6.493   1.068   3.387  0.0363 -0.3185 -0.3108
 4849TIP3    H114511   6.483   0.976   3.409  2.2833 -0.1620  1.7977
 4849TIP3    H214512   6.457   1.115   3.463  0.0766  0.5191 -0.7887
 4850TIP3   OH214513   4.328   5.759   0.614 -0.1361  0.4908 -0.0773
 4850TIP3    H114514   4.389   5.685   0.604  0.2976  0.8772 -0.3051
 4850TIP3    H214515   4.251   5.734   0.563 -0.4789 -0.3265  0.8015
 4851TIP3   OH214516   6.891   4.861   3.529 -0.0010  0.7107  0.4237
 4851TIP3    H114517   6.811   4.849   3.478 -0.3606 -1.5069  1.4069
 4851TIP3    H214518   6.874   4.817   3.611  1.6033  1.7870  1.3903
 4852TIP3   OH214519   1.994   2.161   3.559 -0.0606 -0.3307  0.0153
 4852TIP3    H114520   2.007   2.133   3.650  0.3782  1.2052  0.4613
 4852TIP3    H214521   2.083   2.170   3.524 -0.2386 -1.6002 -0.8133
 4853TIP3   OH214522   5.213   5.121   2.200 -0.2051  0.3364 -0.0622
 4853TIP3    H114523   5.226   5.215   2.217  0.0764  0.0710  1.3061
 4853TIP3    H214524   5.158   5.119   2.121 -2.2108  1.7336  1.1829
 4854TIP3   OH214525   5.885   5.695   3.465  0.5814  0.4924 -0.3292
 4854TIP3    H114526   5.822   5.767   3.461  1.3085  1.2031  0.6115
 4854TIP3    H214527   5.923   5.701   3.552  1.6181 -0.2247 -0.7145
 4855TIP3   OH214528   1.789   1.543   0.903  0.0832 -0.8942  0.2943
 4855TIP3    H114529   1.827   1.571   0.820  1.6310  0.1625  1.3119
 4855TIP3    H214530   1.767   1.625   0.948  1.3874 -1.3638  1.8563
 4856TIP3   OH214531   1.148   4.398   3.694 -0.2441  0.1022 -0.1777
 4856TIP3    H114532   1.178   4.484   3.663  0.6735 -0.1966 -0.1570
 4856TIP3    H214533   1.202   4.381   3.772 -1.1408 -0.0398  0.4177
 4857TIP3   OH214534   1.707   0.816   4.019 -0.4161 -0.4421  0.4539
 4857TIP3    H114535   1.766   0.748   3.987  0.6780  0.1969  1.0756
 4857TIP3    H214536   1.759   0.897   4.015 -0.8617 -0.0500  2.0690
 4858TIP3   OH214537   0.352   2.720   5.775 -0.5734  0.7801 -0.0289
 4858TIP3    H114538   0.314   2.793   5.825 -0.4542  2.2181 -1.9061
 4858TIP3    H214539   0.299   2.716   5.695 -0.1780 -0.8162 -0.2373
 4859TIP3   OH214540   1.047   1.469   3.662 -0.0464  0.0951  0.0152
 4859TIP3    H114541   1.040   1.452   3.568 -1.2122  0.5080  0.0152
 4859TIP3    H214542   0.975   1.421   3.702  0.8428 -0.6453  0.8015
 4860TIP3   OH214543   1.788   0.269   1.275 -0.1142 -0.4679 -0.3804
 4860TIP3    H114544   1.697   0.277   1.303 -0.1948  0.2685 -0.8100
 4860TIP3    H214545   1.807   0.176   1.277 -0.4059 -0.5056  1.1832
 4861TIP3   OH214546   6.085   3.269   0.480  0.0036 -0.0514 -0.0191
 4861TIP3    H114547   6.058   3.361   0.486 -2.8915 -0.7279 -1.3549
 4861TIP3    H214548   6.019   3.221   0.529  0.7363 -1.5480 -0.4354
 4862TIP3   OH214549   0.949   1.173   5.455  0.6837 -0.6186 -0.7533
 4862TIP3    H114550   1.044   1.179   5.444  0.7416  0.5768  0.2354
 4862TIP3    H214551   0.933   1.191   5.548 -0.6524  1.4147 -1.3071
 4863TIP3   OH214552   2.432   6.282   3.116 -0.3242 -0.3201  0.0010
 4863TIP3    H114553   2.372   6.305   3.045 -0.2444 -1.0818 -0.3235
 4863TIP3    H214554   2.375   6.246   3.185 -0.2168 -1.5505 -0.5183
 4864TIP3   OH214555   0.765   2.177   3.592 -0.3667 -0.1252  0.0650
 4864TIP3    H114556   0.735   2.135   3.512 -0.0660  0.4261 -0.3483
 4864TIP3    H214557   0.767   2.107   3.657 -0.4991 -0.6048 -0.4408
 4865TIP3   OH214558   2.321   1.040   4.979 -0.0714 -0.3845 -0.0771
 4865TIP3    H114559   2.379   0.969   5.007  0.8012  0.8903  1.4671
 4865TIP3    H214560   2.263   0.998   4.915  1.4715 -2.0887 -0.4702
 4866TIP3   OH214561   0.041   1.350   2.599 -0.0563  0.3357  0.4630
 4866TIP3    H114562   0.058   1.308   2.684 -1.9227 -1.8104 -0.1090
 4866TIP3    H214563   0.074   1.439   2.609 -0.4273  0.2359  3.5268
 4867TIP3   OH214564   2.440   4.021   5.834  0.1908  0.2668  0.1841
 4867TIP3    H114565   2.412   4.107   5.801 -1.0103  0.9677  2.8307
 4867TIP3    H214566   2.367   3.963   5.815 -0.0947  0.4494  0.7028
 4868TIP3   OH214567   7.202   2.912   1.803 -0.1747 -0.0022  0.2768
 4868TIP3    H114568   7.110   2.888   1.817 -0.0915 -0.5253 -0.0414
 4868TIP3    H214569   7.229   2.951   1.885 -1.0772  1.4401 -0.0819
 4869TIP3   OH214570   4.131   5.342   0.938  0.3669  0.0113  0.0869
 4869TIP3    H114571   4.217   5.383   0.926 -0.5608  1.5321 -1.9786
 4869TIP3    H214572   4.133   5.308   1.027  1.8997  3.0668  1.3754
 4870TIP3   OH214573   0.267   2.670   0.185 -0.3402 -0.0736  0.3721
 4870TIP3    H114574   0.230   2.678   0.273  0.0068  2.9779  0.3378
 4870TIP3    H214575   0.210   2.722   0.130  0.3080 -0.7039 -0.9451
 4871TIP3   OH214576   0.789   3.311   1.023 -0.1271  0.0753  0.0879
 4871TIP3    H114577   0.710   3.336   0.974  0.5310  0.0628 -0.9970
 4871TIP3    H214578   0.755   3.266   1.101 -1.2298  1.3617  0.3997
 4872TIP3   OH214579   1.432   3.210   5.008 -0.5498  0.4164 -0.2583
 4872TIP3    H114580   1.480   3.164   5.077 -0.7787 -0.2994 -0.5662
 4872TIP3    H214581   1.340   3.198   5.032 -0.5979  1.0517 -0.1290
 4873TIP3   OH214582   6.882   4.761   0.572 -0.0652 -0.1690  0.0673
 4873TIP3    H114583   6.944   4.710   0.625 -0.9323 -0.9165  0.4013
 4873TIP3    H214584   6.803   4.764   0.625 -0.5570  0.1259 -0.6695
 4874TIP3   OH214585   1.164   6.497   5.391  0.9872  0.2565  0.2117
 4874TIP3    H114586   1.228   6.566   5.374  1.1383 -0.2575 -1.4226
 4874TIP3    H214587   1.205   6.418   5.358 -0.5459 -0.0570 -1.0499
 4875TIP3   OH214588   2.925   2.976   1.810  0.1327  0.5730  0.7860
 4875TIP3    H114589   2.894   3.026   1.886  0.6118  1.5028  0.3886
 4875TIP3    H214590   3.014   3.010   1.795  0.4594 -0.3971  0.4940
 4876TIP3   OH214591   6.889   0.946   0.462  0.1027  0.2564 -0.0821
 4876TIP3    H114592   6.938   0.864   0.470  0.1909  0.1270 -1.6314
 4876TIP3    H214593   6.831   0.948   0.538 -0.9321 -1.9486 -0.7606
 4877TIP3   OH214594   4.991   0.437   5.761 -0.3932 -0.1016  0.2902
 4877TIP3    H114595   5.010   0.365   5.822  0.5382  0.9159  1.2443
 4877TIP3    H214596   4.996   0.397   5.674 -0.1258 -1.2294  0.8096
 4878TIP3   OH214597   6.905   5.015   4.197  0.3562  0.1081 -0.0323
 4878TIP3    H114598   6.897   4.986   4.107 -1.1584 -1.0152  0.4233
 4878TIP3    H214599   6.895   5.111   4.192  0.3498  0.0655 -1.0420
 4879TIP3   OH214600   0.293   4.785   0.875 -0.8105 -0.2017 -0.1264
 4879TIP3    H114601   0.230   4.756   0.809 -0.4692 -1.2339 -0.0263
 4879TIP3    H214602   0.239   4.819   0.946 -1.2241 -0.1611 -0.4564
 4880TIP3   OH214603   6.397   3.331   0.664 -0.3515  0.1155  0.2280
 4880TIP3    H114604   6.408   3.345   0.758 -1.0630  0.7982  0.2112
 4880TIP3    H214605   6.355   3.411   0.632  1.2550  0.5480 -0.9399
 4881TIP3   OH214606   5.188   1.275   3.828 -0.2581  0.1603 -0.0085
 4881TIP3    H114607   5.144   1.359   3.838 -0.5392  0.1150 -0.8147
 4881TIP3    H214608   5.280   1.294   3.846 -0.5959  0.2164  1.9017
 4882TIP3   OH214609   3.628   3.192   2.034 -0.6602 -0.0202  0.3866
 4882TIP3    H114610   3.532   3.198   2.031 -0.9146 -2.7863 -2.2119
 4882TIP3    H214611   3.657   3.237   1.955  0.0166 -0.6841  0.2488
 4883TIP3   OH214612   0.572   3.418   4.494  0.4825 -0.1743 -0.3031
 4883TIP3    H114613   0.561   3.483   4.424 -1.1380 -1.0322 -0.9158
 4883TIP3    H214614   0.520   3.452   4.566 -1.5084 -1.3677 -1.0961
 4884TIP3   OH214615   0.392   2.694   5.131  0.3457  0.0859 -0.3723
 4884TIP3    H114616   0.378   2.763   5.067 -0.1373  0.3109 -0.0283
 4884TIP3    H214617   0.311   2.691   5.182  0.5503 -0.3964 -0.0639
 4885TIP3   OH214618   2.276   3.569   4.909 -0.2355 -0.0406 -0.0074
 4885TIP3    H114619   2.223   3.562   4.830 -1.8917 -1.0258  1.0937
 4885TIP3    H214620   2.306   3.479   4.925  1.4073  0.4285 -0.3503
 4886TIP3   OH214621   3.780   5.963   2.658 -0.4554 -0.4507  0.1265
 4886TIP3    H114622   3.760   6.037   2.601 -0.7336 -0.4101  0.2735
 4886TIP3    H214623   3.876   5.956   2.656 -0.3043  0.8056  1.2087
 4887TIP3   OH214624   7.153   5.717   2.922 -0.6092  0.6089 -0.1882
 4887TIP3    H114625   7.127   5.741   3.011 -1.3372 -1.2949  0.1655
 4887TIP3    H214626   7.097   5.770   2.865 -2.0740 -0.1216  0.5400
 4888TIP3   OH214627   5.615   2.740   1.667  0.0008 -0.0288 -0.1948
 4888TIP3    H114628   5.525   2.722   1.692  0.1384 -2.2160 -1.0143
 4888TIP3    H214629   5.666   2.716   1.745 -0.1596  2.7561  0.8580
 4889TIP3   OH214630   1.583   2.188   4.051  0.8863  0.4566 -0.1751
 4889TIP3    H114631   1.601   2.141   4.132  1.4553  0.4900 -0.2749
 4889TIP3    H214632   1.588   2.121   3.983  4.6904  1.0571 -0.6890
 4890TIP3   OH214633   0.157   0.960   5.466  0.0258  0.2254 -0.0580
 4890TIP3    H114634   0.161   0.876   5.420  0.2934  1.4997 -2.5125
 4890TIP3    H214635   0.176   0.938   5.557 -1.1812 -2.5411 -0.3631
 4891TIP3   OH214636   0.856   5.821   0.278  0.2248 -0.2767  0.2412
 4891TIP3    H114637   0.942   5.845   0.312  0.7982 -0.8248 -0.7723
 4891TIP3    H214638   0.806   5.903   0.277  2.1603  1.0977 -3.2996
 4892TIP3   OH214639   1.926   1.831   4.393  0.4081 -0.0923  0.0326
 4892TIP3    H114640   1.933   1.844   4.488  0.1562  1.2954 -0.1201
 4892TIP3    H214641   1.967   1.746   4.378 -0.7924 -1.0115  1.5589
 4893TIP3   OH214642   2.533   4.463   2.554  0.1448  0.4521 -0.0402
 4893TIP3    H114643   2.599   4.394   2.566  0.0689  0.5381  0.9503
 4893TIP3    H214644   2.467   4.445   2.621 -1.0505  0.1443 -1.2560
 4894TIP3   OH214645   4.490   5.909   2.671  0.3328 -0.1670 -0.2302
 4894TIP3    H114646   4.582   5.885   2.662  0.1027 -0.4333 -2.3146
 4894TIP3    H214647   4.484   5.997   2.635 -0.6250 -1.1271 -2.6104
 4895TIP3   OH214648   7.023   2.986   3.438 -0.1472  0.2910  0.2536
 4895TIP3    H114649   7.101   3.039   3.450 -0.5595  1.4845 -1.8169
 4895TIP3    H214650   6.951   3.042   3.467 -0.6864  1.4233 -2.8798
 4896TIP3   OH214651   0.225   0.530   3.135  0.4910 -0.5199 -0.0586
 4896TIP3    H114652   0.142   0.567   3.165  0.5133  1.0659 -1.7841
 4896TIP3    H214653   0.215   0.436   3.148 -0.4619 -0.1698  2.3695
 4897TIP3   OH214654   5.352   5.617   4.232 -0.3564  0.2365 -0.5153
 4897TIP3    H114655   5.391   5.682   4.173  0.8329  0.6387  0.6758
 4897TIP3    H214656   5.339   5.664   4.314  1.0284 -1.1636  0.5438
 4898TIP3   OH214657   2.769   1.625   5.685 -0.2281 -0.6370 -0.6565
 4898TIP3    H114658   2.827   1.653   5.614  0.0687  0.4092 -0.0128
 4898TIP3    H214659   2.827   1.588   5.751 -0.0841  1.7361  0.6310
 4899TIP3   OH214660   3.236   5.943   1.586  0.6251  0.3246  0.1132
 4899TIP3    H114661   3.289   5.872   1.549 -0.4560  0.7787 -2.5140
 4899TIP3    H214662   3.297   5.994   1.639  2.4949  0.0174 -1.6547
 4900TIP3   OH214663   4.527   6.440   2.315  0.2687 -0.2494  0.0904
 4900TIP3    H114664   4.485   6.511   2.364  1.4892  0.9944 -0.6105
 4900TIP3    H214665   4.584   6.397   2.379  1.2241  0.8441  0.0091
 4901TIP3   OH214666   6.517   4.388   2.189  0.3645  0.2238 -0.4572
 4901TIP3    H114667   6.598   4.402   2.239 -0.2268  2.0256  0.0551
 4901TIP3    H214668   6.530   4.437   2.108 -0.1478  0.3722 -0.4515
 4902TIP3   OH214669   2.145   4.668   1.163 -0.5464  0.0969  0.1969
 4902TIP3    H114670   2.206   4.622   1.220 -2.5698 -1.8448  0.9000
 4902TIP3    H214671   2.184   4.660   1.076  1.8745  1.8980  1.0003
 4903TIP3   OH214672   4.777   4.091   3.587 -0.1633  0.3658  0.4468
 4903TIP3    H114673   4.692   4.090   3.543  0.9933 -0.4611 -1.8789
 4903TIP3    H214674   4.830   4.027   3.540  1.9427  1.2668  1.4688
 4904TIP3   OH214675   2.179   3.767   2.011 -0.0042 -0.2139  0.2409
 4904TIP3    H114676   2.202   3.731   1.926 -0.5529 -1.0306  0.4190
 4904TIP3    H214677   2.103   3.824   1.994 -0.4235 -0.7611  0.2425
 4905TIP3   OH214678   2.675   2.207   0.976  0.0281  0.1837 -0.1601
 4905TIP3    H114679   2.608   2.265   1.012 -0.6702 -1.4110  1.2155
 4905TIP3    H214680   2.629   2.127   0.952  1.2891 -0.5963 -0.0957
 4906TIP3   OH214681   6.576   6.557   3.501 -0.3442  0.0677  0.1951
 4906TIP3    H114682   6.602   6.649   3.488 -0.4602 -0.0349 -0.8302
 4906TIP3    H214683   6.647   6.520   3.553  1.0467  0.1012 -1.5503
 4907TIP3   OH214684   4.296   1.072   0.804 -0.3639 -0.0411  0.2394
 4907TIP3    H114685   4.386   1.043   0.812 -0.5315 -0.6338  0.0408
 4907TIP3    H214686   4.302   1.157   0.759  0.0832 -0.1393  0.1105
 4908TIP3   OH214687   7.150   3.211   4.939  0.0227 -0.0843 -0.3539
 4908TIP3    H114688   7.065   3.237   4.973  0.0397  1.3277 -1.2866
 4908TIP3    H214689   7.198   3.179   5.015 -0.8403  0.4807  0.4488
 4909TIP3   OH214690   3.545   0.561   4.345 -0.0035 -0.2095  0.3988
 4909TIP3    H114691   3.557   0.526   4.256  1.3093  0.3316  0.3365
 4909TIP3    H214692   3.452   0.580   4.351 -0.3850 -1.6877 -0.3185
 4910TIP3   OH214693   4.183   2.843   4.721  0.0694 -0.5092  0.4067
 4910TIP3    H114694   4.218   2.872   4.805  1.3247  2.3983 -0.9732
 4910TIP3    H214695   4.260   2.825   4.667 -0.5243  1.6481 -1.3115
 4911TIP3   OH214696   1.928   2.204   1.446  0.1524 -0.4005  0.2061
 4911TIP3    H114697   1.964   2.259   1.516 -0.4005  0.2485 -0.0026
 4911TIP3    H214698   1.863   2.260   1.403  0.1851 -0.9338 -0.5598
 4912TIP3   OH214699   6.881   0.476   1.302 -0.5393 -0.2898  0.4322
 4912TIP3    H114700   6.961   0.446   1.260 -0.7762  0.4872 -0.5966
 4912TIP3    H214701   6.838   0.395   1.332  0.0982 -0.7822  0.0403
 4913TIP3   OH214702   5.179   3.354   0.339  0.1470 -0.3004  0.5464
 4913TIP3    H114703   5.213   3.296   0.271 -0.1056  0.5327 -0.3210
 4913TIP3    H214704   5.240   3.428   0.339 -0.5066  0.2485  0.3997
 4914TIP3   OH214705   4.306   3.281   0.126 -0.0984  0.7705 -0.3888
 4914TIP3    H114706   4.279   3.190   0.127 -0.5191  0.8752 -1.6050
 4914TIP3    H214707   4.225   3.330   0.110  0.4073  1.2338 -1.6120
 4915TIP3   OH214708   2.874   2.735   1.963  0.4215 -0.3356  0.4980
 4915TIP3    H114709   2.913   2.779   1.888 -0.8974 -0.3352 -0.2099
 4915TIP3    H214710   2.860   2.805   2.027 -0.4572  0.0716 -0.1179
 4916TIP3   OH214711   2.817   4.010   1.437  0.3557  0.0994  0.1021
 4916TIP3    H114712   2.777   3.926   1.418  2.9027 -1.6649  1.9569
 4916TIP3    H214713   2.891   4.016   1.378 -0.9529  2.0976 -1.4634
 4917TIP3   OH214714   4.418   0.895   1.188  0.4616  0.6399  0.2079
 4917TIP3    H114715   4.362   0.875   1.113  1.9621 -0.0984 -0.7493
 4917TIP3    H214716   4.368   0.960   1.238 -1.1604  0.1509 -0.6986
 4918TIP3   OH214717   1.712   4.348   0.725  0.0323  0.1712  0.3933
 4918TIP3    H114718   1.731   4.333   0.817 -0.1150 -0.2274  0.3581
 4918TIP3    H214719   1.630   4.302   0.709 -0.9241  1.7463  0.5025
 4919TIP3   OH214720   1.453   1.107   3.211  0.2707  0.0932  0.0153
 4919TIP3    H114721   1.484   1.151   3.290  2.6892  0.1068 -0.8663
 4919TIP3    H214722   1.461   1.014   3.231  1.1161  0.0979 -0.2920
 4920TIP3   OH214723   4.189   1.894   4.047  0.3360  0.2114 -0.3403
 4920TIP3    H114724   4.204   1.866   4.137 -0.2040 -1.1454 -0.6451
 4920TIP3    H214725   4.175   1.988   4.053  0.8020  0.2190  0.9242
 4921TIP3   OH214726   1.551   2.600   3.338 -0.3092 -0.2606 -0.6041
 4921TIP3    H114727   1.481   2.660   3.363  0.4750 -0.0103  1.1812
 4921TIP3    H214728   1.541   2.525   3.397  0.9960 -0.1332 -0.1663
 4922TIP3   OH214729   5.962   1.791   3.699  0.2432 -0.4355 -0.2972
 4922TIP3    H114730   5.979   1.883   3.721  1.0878 -0.1222 -2.0612
 4922TIP3    H214731   5.952   1.747   3.784  1.9684  0.8827  0.6583
 4923TIP3   OH214732   0.991   5.924   3.181 -0.5439 -0.9332  0.5897
 4923TIP3    H114733   1.008   5.893   3.270  1.6378  2.4617  1.5834
 4923TIP3    H214734   0.998   6.020   3.188  0.1439 -0.5332 -3.3013
 4924TIP3   OH214735   4.164   0.647   4.410  0.2013  0.1218  0.0366
 4924TIP3    H114736   4.235   0.583   4.412  1.1726  1.1457 -0.4042
 4924TIP3    H214737   4.095   0.605   4.358 -0.3168 -1.6285  1.9654
 4925TIP3   OH214738   4.429   0.788   0.459 -0.2596 -0.1099  0.0037
 4925TIP3    H114739   4.455   0.708   0.414 -2.1020  0.6541 -2.7123
 4925TIP3    H214740   4.497   0.803   0.524  1.5369 -2.4457 -1.1900
 4926TIP3   OH214741   6.394   0.470   3.846 -0.1521 -0.1754  0.5369
 4926TIP3    H114742   6.364   0.386   3.880 -0.3404  0.4157  1.8854
 4926TIP3    H214743   6.463   0.447   3.784 -0.0562 -1.3140  1.0376
 4927TIP3   OH214744   0.675   3.972   0.131 -0.6566 -0.0975 -0.3069
 4927TIP3    H114745   0.639   4.061   0.139  0.2585  0.2372  0.2564
 4927TIP3    H214746   0.703   3.950   0.220  0.7222 -0.2520 -0.7629
 4928TIP3   OH214747   4.992   2.391   2.120  0.0298  0.0956  0.0665
 4928TIP3    H114748   5.043   2.317   2.087 -0.9958 -1.1038  1.0197
 4928TIP3    H214749   4.970   2.442   2.043  1.1042 -0.3691 -0.5688
 4929TIP3   OH214750   5.125   2.852   1.783  0.7363 -0.1475  0.0649
 4929TIP3    H114751   5.059   2.809   1.729  0.5730 -0.2060  0.3102
 4929TIP3    H214752   5.121   2.944   1.756 -0.4499  0.1237  1.0680
 4930TIP3   OH214753   1.824   1.000   4.783 -0.7951  0.2816  0.2638
 4930TIP3    H114754   1.905   1.052   4.775 -2.4051  2.8317 -0.7720
 4930TIP3    H214755   1.817   0.952   4.701 -0.7801  0.7700 -0.0263
 4931TIP3   OH214756   5.884   6.360   5.638 -0.2637  0.2944 -0.2207
 4931TIP3    H114757   5.833   6.430   5.599 -1.2283 -0.1999  0.1222
 4931TIP3    H214758   5.855   6.357   5.729  0.0903 -0.2550 -0.1172
 4932TIP3   OH214759   1.598   2.296   1.080  0.2692  0.1652 -0.1340
 4932TIP3    H114760   1.642   2.309   1.164  1.2573  1.5207 -0.8228
 4932TIP3    H214761   1.509   2.328   1.094  1.0108  2.3613 -0.1380
 4933TIP3   OH214762   6.226   0.097   4.925 -0.4010  0.2393  0.3607
 4933TIP3    H114763   6.220   0.150   4.846  0.3099 -0.9357 -0.5277
 4933TIP3    H214764   6.197   0.010   4.898  1.5952 -0.6520  0.8771
 4934TIP3   OH214765   3.713   2.867   1.077 -0.0027  0.0324 -0.0447
 4934TIP3    H114766   3.687   2.955   1.106  0.6063  1.3136 -2.9395
 4934TIP3    H214767   3.773   2.836   1.144  0.5459  2.2907  0.6120
 4935TIP3   OH214768   3.486   1.394   0.772  0.2796 -0.0006  0.3153
 4935TIP3    H114769   3.513   1.465   0.713 -0.0545 -0.7923 -0.8347
 4935TIP3    H214770   3.493   1.315   0.718  1.8734 -1.0169  1.9478
 4936TIP3   OH214771   4.250   1.109   4.049 -0.1032 -0.0018  0.1849
 4936TIP3    H114772   4.299   1.190   4.036  0.1531 -0.4221 -1.9281
 4936TIP3    H214773   4.315   1.046   4.080  0.2648 -0.0152 -0.5841
 4937TIP3   OH214774   0.080   3.345   1.707 -0.1958  0.0860  0.1225
 4937TIP3    H114775   0.063   3.321   1.616 -3.5412  3.1314 -0.2952
 4937TIP3    H214776   0.006   3.310   1.756 -1.6452  3.3815  0.5337
 4938TIP3   OH214777   1.752   5.752   4.454  0.2990 -0.1155 -0.3706
 4938TIP3    H114778   1.769   5.804   4.533  1.2143  0.7332 -1.1104
 4938TIP3    H214779   1.704   5.675   4.486  0.8484  0.1057  1.0369
 4939TIP3   OH214780   2.403   5.120   3.279  0.5064  0.5095 -0.1299
 4939TIP3    H114781   2.353   5.060   3.335  0.5900  1.7477  1.3298
 4939TIP3    H214782   2.471   5.065   3.240  0.7442 -0.3115  1.3636
 4940TIP3   OH214783   1.023   4.154   3.667  0.8064  0.1158  0.2323
 4940TIP3    H114784   1.090   4.099   3.709  1.1198  0.7078  0.5243
 4940TIP3    H214785   1.056   4.243   3.678  1.3397  0.2524 -2.0176
 4941TIP3   OH214786  -0.001   0.915   0.086 -0.3616 -0.2911 -0.0370
 4941TIP3    H114787   0.040   0.969   0.154 -0.5396 -1.1964  0.8168
 4941TIP3    H214788   0.061   0.844   0.071  0.0067  0.2826 -1.3694
 4942TIP3   OH214789   5.736   5.191   3.267  0.2579 -0.1112  0.0413
 4942TIP3    H114790   5.654   5.142   3.257 -0.3767  1.0367 -0.6022
 4942TIP3    H214791   5.804   5.124   3.271 -0.6988 -1.0847  0.5197
 4943TIP3   OH214792   3.537   1.331   2.224 -0.0677 -0.3290 -0.0759
 4943TIP3    H114793   3.483   1.357   2.150 -2.0853 -0.4485  1.2634
 4943TIP3    H214794   3.529   1.404   2.286  1.4264 -0.3080  0.1361
 4944TIP3   OH214795   5.271   0.762   0.931  0.0549  0.2887  0.1900
 4944TIP3    H114796   5.180   0.733   0.924  0.1294  0.3921 -1.7891
 4944TIP3    H214797   5.265   0.850   0.969 -0.9234  1.1945 -1.8495
 4945TIP3   OH214798   3.912   3.501   5.724  0.5823  0.8318 -0.2163
 4945TIP3    H114799   3.942   3.551   5.800  0.0540 -1.1568  1.3956
 4945TIP3    H214800   3.826   3.538   5.703  1.9025  3.3098 -1.7792
 4946TIP3   OH214801   4.942   3.831   4.552  0.0765 -0.1947 -0.0614
 4946TIP3    H114802   5.005   3.841   4.481  0.4438 -0.7805  0.1701
 4946TIP3    H214803   4.980   3.764   4.608 -0.9189 -0.8289 -0.1117
 4947TIP3   OH214804   2.818   3.970   2.747 -0.2440 -0.2040 -0.5327
 4947TIP3    H114805   2.908   3.978   2.715 -0.1811 -0.2299 -0.3580
 4947TIP3    H214806   2.795   4.058   2.778  0.3919 -0.6284  1.2368
 4948TIP3   OH214807   5.885   3.708   4.807 -0.2375  0.4281  0.2505
 4948TIP3    H114808   5.932   3.683   4.727  0.8094 -0.6618  1.1612
 4948TIP3    H214809   5.848   3.626   4.840 -1.7800  1.0790  0.2074
 4949TIP3   OH214810   4.113   2.925   1.158 -0.3216 -0.2618  0.4638
 4949TIP3    H114811   4.209   2.926   1.160 -0.3001 -0.0512 -0.5159
 4949TIP3    H214812   4.091   2.833   1.140 -0.3899 -0.8597  3.1080
 4950TIP3   OH214813   2.589   1.272   0.320  0.0286 -0.2464  0.3169
 4950TIP3    H114814   2.507   1.224   0.313  0.8213 -2.0438  2.1780
 4950TIP3    H214815   2.589   1.305   0.410  2.1097 -1.9587  1.0369
 4951TIP3   OH214816   4.645   4.623   2.524  0.0152  0.3139 -0.9107
 4951TIP3    H114817   4.660   4.550   2.584  1.7135  0.3648 -1.2247
 4951TIP3    H214818   4.597   4.688   2.577  1.6527  0.4525  0.4971
 4952TIP3   OH214819   6.004   4.498   0.987 -0.8332 -0.2171  0.7415
 4952TIP3    H114820   6.093   4.509   0.955 -1.8092  1.6492 -1.6394
 4952TIP3    H214821   6.014   4.457   1.073  2.2538 -0.4975  0.3470
 4953TIP3   OH214822   0.131   2.333   1.196 -0.5053  0.5599 -0.4372
 4953TIP3    H114823   0.204   2.282   1.160  0.5070  1.9683 -0.4546
 4953TIP3    H214824   0.146   2.332   1.290 -1.3660 -0.4584 -0.2978
 4954TIP3   OH214825   0.272   4.648   2.827  0.5040  0.3382 -0.4926
 4954TIP3    H114826   0.342   4.704   2.794  1.6306 -0.8982 -0.3245
 4954TIP3    H214827   0.301   4.623   2.914 -0.4158  0.2267 -0.2112
 4955TIP3   OH214828   4.941   2.361   4.990 -0.5211 -0.7991  0.3158
 4955TIP3    H114829   5.002   2.417   5.039 -0.5763  1.1971 -1.7113
 4955TIP3    H214830   4.995   2.319   4.923 -0.6853 -2.3813  1.1417
 4956TIP3   OH214831   2.776   2.029   5.501 -0.1685 -1.2991  0.4629
 4956TIP3    H114832   2.714   2.091   5.463 -0.3677 -2.6557 -1.5675
 4956TIP3    H214833   2.778   2.051   5.594 -2.3115 -0.0670  0.2747
 4957TIP3   OH214834   1.422   3.977   2.081  0.1234 -0.3903  0.8428
 4957TIP3    H114835   1.334   3.944   2.065  0.2368 -0.3896  0.2166
 4957TIP3    H214836   1.460   3.988   1.994  0.5970  0.0028  1.0967
 4958TIP3   OH214837   3.613   3.165   5.848  0.0790 -0.3775  0.1008
 4958TIP3    H114838   3.674   3.204   5.785 -0.2635 -0.0849 -0.0580
 4958TIP3    H214839   3.583   3.240   5.900 -0.6095 -0.4177 -0.2259
 4959TIP3   OH214840   5.296   3.967   2.123 -0.2671 -0.4819 -0.2452
 4959TIP3    H114841   5.242   3.899   2.081 -1.3761  0.1124  0.1675
 4959TIP3    H214842   5.338   4.012   2.050  0.2865 -1.4432 -0.5399
 4960TIP3   OH214843   7.204   3.376   2.124  0.6350 -0.0614 -0.1598
 4960TIP3    H114844   7.142   3.344   2.058 -3.0108  3.1558  1.3247
 4960TIP3    H214845   7.173   3.338   2.206  1.9752 -0.0125  0.3904
 4961TIP3   OH214846   5.235   1.935   4.689  0.3424 -0.4937 -0.1626
 4961TIP3    H114847   5.215   1.874   4.760  1.2127 -0.9309 -0.2790
 4961TIP3    H214848   5.281   2.007   4.732  2.6760 -1.6789 -0.4949
 4962TIP3   OH214849   6.391   6.136   1.589  0.2807  0.2548 -0.0576
 4962TIP3    H114850   6.418   6.194   1.518 -0.0770  1.8549  1.0694
 4962TIP3    H214851   6.307   6.171   1.619  0.9377  0.3051  1.8575
 4963TIP3   OH214852   4.566   3.200   0.152 -0.0047  0.8079  0.4920
 4963TIP3    H114853   4.496   3.262   0.171 -0.3224 -0.4942  4.5526
 4963TIP3    H214854   4.521   3.120   0.125  0.0928  0.7222  0.5857
 4964TIP3   OH214855   3.028   3.313   4.879  0.1111 -0.4344 -0.7334
 4964TIP3    H114856   3.112   3.348   4.909  0.6496  0.2391 -2.8559
 4964TIP3    H214857   2.967   3.386   4.888 -1.0815 -1.6646  3.4470
 4965TIP3   OH214858   4.181   3.994   0.360 -0.6121 -0.5519 -0.1198
 4965TIP3    H114859   4.092   4.010   0.391 -0.8128 -2.5356  0.5185
 4965TIP3    H214860   4.205   4.073   0.312 -2.6766  0.0743 -0.2171
 4966TIP3   OH214861   4.392   3.462   0.927 -0.0009  0.3598  0.0737
 4966TIP3    H114862   4.309   3.415   0.928  0.6455 -0.8812  1.8543
 4966TIP3    H214863   4.458   3.393   0.930  1.0245  1.3389  1.1720
 4967TIP3   OH214864   2.279   2.600   2.969 -0.2949 -0.1722  0.2938
 4967TIP3    H114865   2.297   2.521   2.919 -1.8007 -0.6170  0.3858
 4967TIP3    H214866   2.299   2.576   3.060  1.1369  0.2063  0.1038
 4968TIP3   OH214867   6.932   0.141   0.268  0.0325 -0.0154 -0.3809
 4968TIP3    H114868   6.957   0.154   0.360 -0.1867  0.6118 -0.4125
 4968TIP3    H214869   6.904   0.049   0.264 -0.6655  0.1525  0.3473
 4969TIP3   OH214870   6.115   2.248   2.296 -0.0792 -0.1474  0.2365
 4969TIP3    H114871   6.112   2.170   2.241  0.1576  0.0872 -0.1112
 4969TIP3    H214872   6.174   2.308   2.250  1.9167 -0.7704  1.8080
 4970TIP3   OH214873   0.313   1.873   2.362  0.7007  0.0670 -0.2786
 4970TIP3    H114874   0.258   1.823   2.302 -0.0604  1.3201 -0.6713
 4970TIP3    H214875   0.361   1.933   2.305 -0.0320  1.2688  0.3386
 4971TIP3   OH214876   6.390   4.950   0.956  0.1108 -0.9739  0.2484
 4971TIP3    H114877   6.453   4.998   0.902  0.0166 -1.1142  0.0157
 4971TIP3    H214878   6.435   4.870   0.981  0.1128 -0.9606  0.2886
 4972TIP3   OH214879   0.010  -0.017   4.047  0.1429  0.5838 -0.4942
 4972TIP3    H114880   0.105  -0.000   4.048 -0.0868  2.1908  1.8948
 4972TIP3    H214881  -0.024   0.035   4.120 -2.4837 -0.6804 -0.7258
 4973TIP3   OH214882   6.253   4.736   5.553  0.8779  0.8176  0.5807
 4973TIP3    H114883   6.235   4.753   5.646  3.1651  0.6040  1.1161
 4973TIP3    H214884   6.252   4.822   5.512 -0.1048  0.9189  0.7826
 4974TIP3   OH214885   1.705   1.114   5.229  0.2381  0.3379  0.1075
 4974TIP3    H114886   1.777   1.074   5.278 -0.2483 -1.5378 -0.6078
 4974TIP3    H214887   1.640   1.137   5.296  0.1586 -0.9418  0.5032
 4975TIP3   OH214888   1.339   3.626   0.398  0.4615 -0.2235 -0.0051
 4975TIP3    H114889   1.335   3.639   0.493 -2.0404  1.0672 -0.2120
 4975TIP3    H214890   1.310   3.536   0.385 -0.7186  0.0736  0.4166
 4976TIP3   OH214891   1.941   0.360   0.783 -0.1358 -0.4479  0.0992
 4976TIP3    H114892   1.858   0.388   0.744  0.1997 -0.0831 -0.3570
 4976TIP3    H214893   1.984   0.311   0.714  0.2566 -0.1968  0.1650
 4977TIP3   OH214894   4.531   3.553   4.279  0.1120  0.1268  0.2163
 4977TIP3    H114895   4.545   3.525   4.369 -2.4822 -0.9412  0.4016
 4977TIP3    H214896   4.470   3.627   4.286  0.1833  0.2763 -0.6318
 4978TIP3   OH214897   0.291   4.972   0.579 -0.4388 -0.4725 -0.1278
 4978TIP3    H114898   0.249   4.890   0.554 -0.5844 -0.1295 -1.0645
 4978TIP3    H214899   0.295   5.023   0.497  0.4160  0.1104  0.2593
 4979TIP3   OH214900   2.739   3.038   5.454  0.0811  0.4725  0.0012
 4979TIP3    H114901   2.725   2.943   5.460 -2.9599  0.7133 -1.3347
 4979TIP3    H214902   2.784   3.050   5.371  0.9023  0.1889  0.3963
 4980TIP3   OH214903   4.167   3.263   0.704 -0.6934  0.0864  0.0402
 4980TIP3    H114904   4.116   3.216   0.638 -0.9310  1.2982 -0.6738
 4980TIP3    H214905   4.255   3.227   0.697 -0.3084  1.3042 -2.1167
 4981TIP3   OH214906   6.338   1.871   3.665  0.3418  0.0216 -0.3623
 4981TIP3    H114907   6.251   1.874   3.706  0.1011 -0.2220 -0.8406
 4981TIP3    H214908   6.397   1.845   3.735 -0.2636 -1.7585 -0.4715
 4982TIP3   OH214909   5.024   3.302   1.294 -0.2864  0.4835 -0.3794
 4982TIP3    H114910   5.098   3.245   1.314 -0.4525  0.2522 -0.4174
 4982TIP3    H214911   5.053   3.389   1.320 -0.7497  0.1133  1.5361
 4983TIP3   OH214912   1.972   1.560   0.258  0.4358  0.5414  0.0884
 4983TIP3    H114913   1.880   1.586   0.256 -0.3542 -1.8813 -3.0345
 4983TIP3    H214914   1.980   1.502   0.334 -1.5916 -1.8754 -1.3836
 4984TIP3   OH214915   3.356   2.239   4.395 -0.0936 -0.3016  0.1135
 4984TIP3    H114916   3.440   2.194   4.402  0.4595  0.6244 -0.4269
 4984TIP3    H214917   3.375   2.330   4.416 -1.1790 -0.2737  1.0569
 4985TIP3   OH214918   4.288   3.693   0.702  0.2543  0.8906  0.6087
 4985TIP3    H114919   4.234   3.626   0.744  0.6073 -0.1529 -0.5407
 4985TIP3    H214920   4.234   3.772   0.705  0.2794  0.8781  2.9912
 4986TIP3   OH214921   0.853   1.552   5.618  0.3916  0.3799  0.4409
 4986TIP3    H114922   0.886   1.628   5.666  1.3791  0.0173  0.3579
 4986TIP3    H214923   0.867   1.479   5.678  0.6281  0.0817  0.0254
 4987TIP3   OH214924   3.896   0.459   0.496 -0.2246  0.1619 -0.6774
 4987TIP3    H114925   3.974   0.439   0.444 -1.4326 -0.0530 -2.4975
 4987TIP3    H214926   3.823   0.454   0.433 -1.6561  0.8386  0.8521
 4988TIP3   OH214927   2.587   2.674   3.158  0.0657  0.6727  0.1075
 4988TIP3    H114928   2.619   2.692   3.246  0.2819 -1.1541  0.4462
 4988TIP3    H214929   2.498   2.710   3.157  0.2868  1.2698  0.8498
 4989TIP3   OH214930   0.030   0.600   4.664  0.0777 -0.0887 -0.3602
 4989TIP3    H114931   0.043   0.602   4.570 -0.3173  2.4420 -0.4497
 4989TIP3    H214932   0.095   0.661   4.699 -0.8949  0.3352  0.8031
 4990TIP3   OH214933   4.312   2.641   1.747  0.2634  0.4906 -0.0302
 4990TIP3    H114934   4.387   2.700   1.751  1.6135 -1.2294  1.7337
 4990TIP3    H214935   4.340   2.570   1.691 -1.4639  1.5277 -2.3829
 4991TIP3   OH214936   2.297   2.295   0.203  0.2458 -0.2976  0.4013
 4991TIP3    H114937   2.391   2.282   0.188 -0.1022 -0.4663 -2.1260
 4991TIP3    H214938   2.258   2.208   0.191 -0.2996 -0.1096  0.7731
 4992TIP3   OH214939   3.849   2.288   3.692 -0.4145  0.7872 -0.3883
 4992TIP3    H114940   3.757   2.260   3.700 -0.7433  1.0697 -2.4943
 4992TIP3    H214941   3.879   2.297   3.782 -1.7701 -1.5007  0.3812
 4993TIP3   OH214942   2.775   0.263   2.022  0.3064 -0.2911 -0.1789
 4993TIP3    H114943   2.847   0.228   2.074  1.4598  0.5124 -1.1909
 4993TIP3    H214944   2.807   0.261   1.932  1.0229  4.3918 -0.2850
 4994TIP3   OH214945   5.502   4.605   5.596  0.4431 -0.4178 -0.1476
 4994TIP3    H114946   5.506   4.524   5.646  0.3697  0.6533  1.6758
 4994TIP3    H214947   5.587   4.611   5.554 -0.0745 -2.1590 -1.5599
 4995TIP3   OH214948   3.059   3.111   0.342 -0.3740 -0.3810  0.0379
 4995TIP3    H114949   2.974   3.154   0.344 -0.3583 -0.2605 -1.3698
 4995TIP3    H214950   3.053   3.042   0.409 -1.9388 -1.0506 -0.7523
 4996TIP3   OH214951   0.034   2.814   1.133  0.0885 -0.2601  0.4734
 4996TIP3    H114952   0.097   2.862   1.187  0.0427  0.2088  0.1078
 4996TIP3    H214953   0.002   2.744   1.191 -0.2707  0.4896  1.2012
 4997TIP3   OH214954   1.869   3.665   2.555 -0.0950  0.3413  0.4395
 4997TIP3    H114955   1.812   3.589   2.544  0.0013  0.4228 -0.7520
 4997TIP3    H214956   1.844   3.701   2.640 -1.2513 -0.1011  0.3086
 4998TIP3   OH214957   2.062   2.065   3.799 -0.4832 -0.4226  0.1783
 4998TIP3    H114958   2.007   1.986   3.797  0.4390 -1.1366  1.3595
 4998TIP3    H214959   2.151   2.032   3.781  0.2771 -0.0604  2.7645
 4999TIP3   OH214960   1.203   2.104   0.354  0.3045 -0.1994 -0.4981
 4999TIP3    H114961   1.171   2.125   0.442 -0.3614 -2.3902 -0.1338
 4999TIP3    H214962   1.278   2.162   0.341  0.0327  0.6189  1.2558
 5000TIP3   OH214963   4.704   0.116   0.080 -0.0215  0.0296  0.0657
 5000TIP3    H114964   4.651   0.059   0.024 -1.0580  0.4299  0.6045
 5000TIP3    H214965   4.715   0.066   0.161 -2.0726  1.0645  1.0533
 5001TIP3   OH214966   3.064   0.042   4.480 -0.2887  0.0192 -0.1121
 5001TIP3    H114967   3.134   0.059   4.417  1.2522 -0.8897  1.2363
 5001TIP3    H214968   3.107   0.051   4.565 -1.3223 -2.3492  0.7576
 5002TIP3   OH214969   5.746   1.544   5.565  0.2252 -0.2995 -0.4001
 5002TIP3    H114970   5.823   1.490   5.545  0.0690 -1.1510  1.1588
 5002TIP3    H214971   5.776   1.634   5.556  1.2830 -0.6253 -0.2564
 5003TIP3   OH214972   1.823   6.553   4.961 -0.2793 -0.5695  0.2744
 5003TIP3    H114973   1.895   6.493   4.941  0.4658  0.0687  1.0069
 5003TIP3    H214974   1.775   6.559   4.878  1.1226 -0.1752 -0.5526
 5004TIP3   OH214975   3.385   1.124   1.964  0.0737  0.4921 -0.2809
 5004TIP3    H114976   3.357   1.159   1.880  0.3698 -0.0260 -0.6020
 5004TIP3    H214977   3.426   1.040   1.943 -2.7373 -1.2640  0.6725
 5005TIP3   OH214978   6.921   0.133   1.923 -0.1060  0.0118 -0.7658
 5005TIP3    H114979   6.832   0.129   1.958 -0.2091  0.2750 -0.9968
 5005TIP3    H214980   6.974   0.164   1.997 -0.2633  0.1946 -0.7284
 5006TIP3   OH214981   5.747   5.304   5.700  0.2955 -0.2381  0.3792
 5006TIP3    H114982   5.683   5.293   5.770  0.0279 -0.5369  0.0927
 5006TIP3    H214983   5.825   5.340   5.743  0.5509 -1.5253  1.0411
 5007TIP3   OH214984   5.856   4.665   3.613 -0.0015  0.5688  0.1983
 5007TIP3    H114985   5.828   4.679   3.703 -0.7709  1.3553 -0.1560
 5007TIP3    H214986   5.919   4.593   3.619 -1.4798 -0.7060  1.1058
 5008TIP3   OH214987   3.969   1.639   4.149 -0.3484 -0.3607  0.2262
 5008TIP3    H114988   3.901   1.581   4.183 -1.4340 -0.6641 -2.2351
 5008TIP3    H214989   3.937   1.727   4.167  0.6877 -0.4407  2.8166
 5009TIP3   OH214990   4.291   5.834   4.796 -0.0893  0.4044 -0.1600
 5009TIP3    H114991   4.366   5.782   4.824 -1.0242 -0.7789  0.2038
 5009TIP3    H214992   4.325   5.924   4.790  1.0015  0.1324  1.3774
 5010TIP3   OH214993   1.528   5.949   1.762 -0.0170 -0.9016 -0.0457
 5010TIP3    H114994   1.486   6.021   1.809  1.5460 -0.2993  0.4749
 5010TIP3    H214995   1.459   5.884   1.752 -0.6864 -0.6384  2.2206
 5011TIP3   OH214996   4.245   2.984   4.321 -0.6024  0.1660  0.6062
 5011TIP3    H114997   4.172   3.001   4.262 -2.7597 -1.4939  2.6193
 5011TIP3    H214998   4.275   2.897   4.296  0.7979  0.8546 -0.2369
 5012TIP3   OH214999   4.661   0.278   5.227  0.1371 -0.1275  0.0492
 5012TIP3    H115000   4.740   0.265   5.173 -1.0438 -3.1431 -1.1432
 5012TIP3    H215001   4.631   0.190   5.247 -2.1338  0.9476  1.7621
 5013TIP3   OH215002   1.250   0.715   5.242  0.6086  0.2615 -0.0090
 5013TIP3    H115003   1.237   0.726   5.147 -0.3292 -0.0217  0.0829
 5013TIP3    H215004   1.307   0.639   5.250 -0.5508 -0.6548 -0.2978
 5014TIP3   OH215005   6.159   5.000   2.709  0.0429 -0.7260 -1.7840
 5014TIP3    H115006   6.227   5.054   2.749 -0.5823 -0.3251 -1.2451
 5014TIP3    H215007   6.134   5.048   2.630 -1.7619  0.7758 -0.4190
 5015TIP3   OH215008   7.007   1.012   4.691  0.1719 -0.5283 -0.1306
 5015TIP3    H115009   6.952   1.090   4.692  0.6244 -0.1989  1.4142
 5015TIP3    H215010   6.980   0.963   4.768  1.0568 -1.0710 -0.1577
 5016TIP3   OH215011   3.564   1.644   2.631 -0.1945  0.5668  0.0967
 5016TIP3    H115012   3.505   1.700   2.681 -0.5685 -1.1766  1.7480
 5016TIP3    H215013   3.532   1.649   2.541  0.4216  3.7237 -0.0440
 5017TIP3   OH215014   2.131   2.262   3.001 -0.0546 -0.1535  1.1611
 5017TIP3    H115015   2.212   2.287   3.046 -0.5558  0.0638  1.9652
 5017TIP3    H215016   2.132   2.167   3.002  0.6688 -0.1765  0.2666
 5018TIP3   OH215017   4.495   2.156   2.345 -0.0005  0.3523  0.0658
 5018TIP3    H115018   4.538   2.195   2.268  0.1519  1.2276  0.5778
 5018TIP3    H215019   4.408   2.132   2.314 -0.2050  1.3893 -0.2007
 5019TIP3   OH215020   1.916   2.336   4.568  0.1082  0.0689 -0.1859
 5019TIP3    H115021   1.944   2.420   4.531  0.3757  0.1097  0.1034
 5019TIP3    H215022   1.836   2.314   4.521  2.1555 -1.5540 -3.2021
 5020TIP3   OH215023   7.105   5.587   4.581 -0.0133 -0.0293 -0.0075
 5020TIP3    H115024   7.100   5.649   4.509  0.4245  0.6656  0.5412
 5020TIP3    H215025   7.017   5.549   4.587  0.1195 -0.5688 -1.3020
 5021TIP3   OH215026   1.727   2.977   3.220  0.2013 -0.0024  0.0169
 5021TIP3    H115027   1.692   2.983   3.131 -0.0507 -0.4140  0.0842
 5021TIP3    H215028   1.804   3.033   3.219  0.3998 -0.2730 -0.5585
 5022TIP3   OH215029   4.974   3.564   3.888  0.1465 -0.0319  0.3363
 5022TIP3    H115030   4.934   3.629   3.945  1.7386  1.0740  0.2448
 5022TIP3    H215031   4.985   3.487   3.944  0.0530  0.4312  1.0050
 5023TIP3   OH215032   4.513   4.707   3.525 -0.1498 -0.3287 -0.2741
 5023TIP3    H115033   4.519   4.776   3.591 -0.4646 -1.7851  1.3395
 5023TIP3    H215034   4.590   4.653   3.539  0.0510 -0.3732 -1.4712
 5024TIP3   OH215035   7.076   4.805   2.579 -0.3147  0.0645  0.0147
 5024TIP3    H115036   7.075   4.898   2.602  2.5008  0.3993 -0.8432
 5024TIP3    H215037   7.148   4.768   2.629 -1.0772 -1.5757 -0.0368
 5025TIP3   OH215038   6.824   4.473   2.193 -0.1165  0.6203 -0.2239
 5025TIP3    H115039   6.871   4.502   2.272 -0.2735  1.6336 -0.4870
 5025TIP3    H215040   6.830   4.547   2.133 -1.4755  0.5167 -0.5212
 5026TIP3   OH215041   3.643   5.051   0.095 -0.1766 -0.0482  0.1734
 5026TIP3    H115042   3.630   5.056   0.190  2.2989  0.2039  0.5502
 5026TIP3    H215043   3.732   5.020   0.084 -1.4930 -3.6773 -2.1571
 5027TIP3   OH215044   0.227   1.251   4.504  0.6122 -0.8955 -0.3630
 5027TIP3    H115045   0.173   1.243   4.582  1.0753  0.2480  0.0872
 5027TIP3    H215046   0.208   1.171   4.454  1.1530 -2.1989  1.4168
 5028TIP3   OH215047   5.721   2.023   4.074 -0.1339  0.4423  0.0624
 5028TIP3    H115048   5.718   1.937   4.115 -1.5690  1.2092  1.7182
 5028TIP3    H215049   5.675   2.013   3.991 -1.3184 -0.1527  0.7717
 5029TIP3   OH215050   2.463   2.722   4.734 -0.1127  0.2150  0.2622
 5029TIP3    H115051   2.527   2.684   4.794 -0.5420 -2.3292 -0.7562
 5029TIP3    H215052   2.389   2.661   4.738 -1.2972  1.5457 -0.7275
 5030TIP3   OH215053   5.517   6.231   0.320  0.4268  0.0174 -0.0956
 5030TIP3    H115054   5.608   6.211   0.339 -0.2539 -2.3098  1.0690
 5030TIP3    H215055   5.477   6.248   0.405 -0.3292  0.6027 -0.5482
 5031TIP3   OH215056   3.592   1.272   4.979  0.4553 -0.0108 -0.4359
 5031TIP3    H115057   3.577   1.359   5.015 -0.3764  0.1696 -1.1859
 5031TIP3    H215058   3.679   1.247   5.010  0.9665  1.3427 -0.7323
 5032TIP3   OH215059   1.554   1.667   2.237  0.0037  0.0568 -0.4219
 5032TIP3    H115060   1.607   1.657   2.317 -1.4055 -0.8986  0.4336
 5032TIP3    H215061   1.542   1.761   2.229  1.6793  0.2935 -0.5514
 5033TIP3   OH215062   0.621   5.459   4.296  0.3261 -0.7222 -0.0701
 5033TIP3    H115063   0.628   5.364   4.306  1.0627 -0.7619 -0.8296
 5033TIP3    H215064   0.706   5.485   4.261 -0.0873  0.1314 -0.4648
 5034TIP3   OH215065   5.363   2.146   1.485  0.3180  0.4471 -0.4990
 5034TIP3    H115066   5.402   2.082   1.425  0.7229  1.8310 -1.7885
 5034TIP3    H215067   5.438   2.192   1.522  0.0517 -0.1581  0.8480
 5035TIP3   OH215068   6.258   1.860   0.533  0.4050  0.0512  0.4887
 5035TIP3    H115069   6.298   1.899   0.456  1.7948  0.7826  1.5237
 5035TIP3    H215070   6.246   1.768   0.510  1.4334  0.1129 -0.3577
 5036TIP3   OH215071   6.535   0.467   5.487 -0.2019  0.1075  0.2618
 5036TIP3    H115072   6.452   0.508   5.464 -0.1000  0.5233  0.6292
 5036TIP3    H215073   6.519   0.424   5.571 -0.2796 -0.5245 -0.0743
 5037TIP3   OH215074   3.233   2.586   4.031 -0.0866  0.0487  0.6053
 5037TIP3    H115075   3.177   2.627   4.096  0.3293  0.5933  0.6265
 5037TIP3    H215076   3.286   2.658   3.996  1.3762 -0.6114  1.3719
 5038TIP3   OH215077   3.067   0.813   5.450 -0.9223  0.1115 -0.2701
 5038TIP3    H115078   3.039   0.772   5.532 -0.8234 -1.0542 -0.8021
 5038TIP3    H215079   3.116   0.890   5.478 -2.6188  0.8995  0.7268
 5039TIP3   OH215080   5.764   3.462   4.863 -0.3216 -0.3293  0.2635
 5039TIP3    H115081   5.676   3.500   4.859 -0.5302 -0.8196  0.1771
 5039TIP3    H215082   5.750   3.368   4.863  0.2680 -0.4477 -1.3298
 5040TIP3   OH215083   5.996   5.142   4.499 -0.1899  0.7706 -0.2382
 5040TIP3    H115084   6.050   5.098   4.565 -1.8848 -0.6765  0.2519
 5040TIP3    H215085   6.005   5.088   4.421 -0.3326  0.9407 -0.3711
 5041TIP3   OH215086   2.343   1.391   3.204  0.5764 -0.4784 -0.9893
 5041TIP3    H115087   2.309   1.479   3.187  1.2521  0.1698  0.7577
 5041TIP3    H215088   2.280   1.332   3.162 -1.4199  0.7454  0.1555
 5042TIP3   OH215089   0.476   5.795   2.838 -0.1214  0.5623  0.6037
 5042TIP3    H115090   0.492   5.742   2.916 -0.7776  0.3104  0.5809
 5042TIP3    H215091   0.384   5.776   2.815  0.3118 -0.0651 -0.7398
 5043TIP3   OH215092   5.815   5.307   1.879 -0.0684  0.6897 -0.3354
 5043TIP3    H115093   5.870   5.233   1.904  1.0355  2.1655  2.0891
 5043TIP3    H215094   5.759   5.274   1.809  2.4787 -1.4947 -1.5224
 5044TIP3   OH215095   2.040   1.110   3.349 -0.1365  0.0732  0.1791
 5044TIP3    H115096   1.957   1.155   3.362  1.2914  2.6235  1.3995
 5044TIP3    H215097   2.086   1.164   3.285  0.5949 -1.3114 -0.5024
 5045TIP3   OH215098   5.614   4.062   1.171  0.1651 -0.0134 -0.2077
 5045TIP3    H115099   5.564   3.981   1.179  0.2253 -0.1157 -0.8491
 5045TIP3    H215100   5.677   4.058   1.243  0.5251 -0.7949 -0.5533
 5046TIP3   OH215101   0.052   2.184   5.562  0.1926  0.6773 -0.0206
 5046TIP3    H115102   0.047   2.090   5.544  1.8409  0.4883  0.3315
 5046TIP3    H215103   0.035   2.192   5.656  2.1943  0.4377  0.4175
 5047TIP3   OH215104   3.511   2.492   5.005  0.0625  0.3186  0.3511
 5047TIP3    H115105   3.423   2.472   4.975 -0.0701 -0.2163  1.0679
 5047TIP3    H215106   3.512   2.587   5.016  0.2308  0.5939 -1.6513
 5048TIP3   OH215107   4.716   3.566   0.958 -0.4484  0.0874  0.3116
 5048TIP3    H115108   4.712   3.538   0.866  3.7347  0.6244 -0.2250
 5048TIP3    H215109   4.722   3.484   1.007 -1.3112 -0.1666  0.0216
 5049TIP3   OH215110   1.898   5.445   1.448  0.3155 -0.8792 -0.2864
 5049TIP3    H115111   1.962   5.374   1.455  0.8812 -0.4440 -0.8565
 5049TIP3    H215112   1.821   5.405   1.407  0.5206 -1.2292 -0.3335
 5050TIP3   OH215113   2.576   6.183   1.321 -0.5384 -0.6808 -0.5409
 5050TIP3    H115114   2.638   6.254   1.336 -2.5167  0.7658  1.5884
 5050TIP3    H215115   2.586   6.126   1.397 -1.5056 -0.6261 -0.3578
 5051TIP3   OH215116   2.199   4.806   5.395  0.0415  0.9706 -0.0641
 5051TIP3    H115117   2.127   4.804   5.331 -2.4733  1.2695  2.5536
 5051TIP3    H215118   2.205   4.716   5.427 -0.0223  1.1989  0.5971
 5052TIP3   OH215119   0.055   4.562   1.531  0.1995  0.2141 -0.0042
 5052TIP3    H115120   0.082   4.483   1.579 -0.8836 -0.0790  0.1465
 5052TIP3    H215121   0.091   4.550   1.443 -0.3515 -0.6860 -0.1243
 5053TIP3   OH215122   7.030   2.943   0.185  0.4065 -0.3117 -0.2276
 5053TIP3    H115123   7.030   2.883   0.111 -0.4110 -0.1610 -0.3617
 5053TIP3    H215124   6.953   2.998   0.172  0.9439  0.5367  0.0841
 5054TIP3   OH215125   4.823   4.701   3.930 -0.0231  0.4869 -0.2042
 5054TIP3    H115126   4.770   4.683   4.008  0.3202 -0.1629 -0.1153
 5054TIP3    H215127   4.886   4.767   3.960  0.8980 -0.6487  0.4256
 5055TIP3   OH215128   5.924   1.675   0.351 -0.3951  0.0011  0.7404
 5055TIP3    H115129   5.833   1.684   0.323  0.2668  1.6271 -1.1255
 5055TIP3    H215130   5.938   1.747   0.412 -0.4668 -0.5456  1.4171
 5056TIP3   OH215131   3.870   1.922   5.685 -0.3647 -0.2832 -0.2656
 5056TIP3    H115132   3.835   1.989   5.744 -1.9016 -1.2005 -0.0725
 5056TIP3    H215133   3.965   1.930   5.693 -0.5351  0.6755  1.1122
 5057TIP3   OH215134   2.802   1.180   2.654  0.4140  0.0977 -0.6054
 5057TIP3    H115135   2.778   1.097   2.696  2.2058 -0.8416 -1.3151
 5057TIP3    H215136   2.768   1.172   2.565  0.4690  0.1957 -0.6351
 5058TIP3   OH215137   4.010   2.754   4.295 -0.2593  0.4990 -0.1253
 5058TIP3    H115138   4.000   2.828   4.355 -0.4122 -0.6097  1.2664
 5058TIP3    H215139   4.071   2.695   4.339 -0.5404 -0.4552 -0.9689
 5059TIP3   OH215140   6.729   6.243   1.539  0.5058  0.2366 -0.5394
 5059TIP3    H115141   6.815   6.247   1.498  1.1289  0.4266  0.7405
 5059TIP3    H215142   6.723   6.154   1.575  0.4189  0.4132 -0.1098
 5060TIP3   OH215143   3.120   6.548   2.470  0.0368  0.4259 -0.0995
 5060TIP3    H115144   3.182   6.487   2.510 -0.9770 -0.5794 -0.0131
 5060TIP3    H215145   3.130   6.629   2.520 -0.6121 -0.5382  1.6971
 5061TIP3   OH215146   1.226   4.823   1.591 -0.7379 -0.0665 -0.1953
 5061TIP3    H115147   1.149   4.767   1.595 -0.8160  0.1049  1.3712
 5061TIP3    H215148   1.288   4.782   1.651  0.1234  0.2013 -0.8822
 5062TIP3   OH215149   4.116   0.168   4.002  0.0993  0.7767  0.0442
 5062TIP3    H115150   4.144   0.089   3.955 -1.2865  0.0754  0.3515
 5062TIP3    H215151   4.165   0.239   3.960  0.7628 -0.1387 -0.7839
 5063TIP3   OH215152   7.074   3.533   3.394 -0.1481  0.4479 -0.0939
 5063TIP3    H115153   7.103   3.477   3.322  1.1701  2.3507 -1.1423
 5063TIP3    H215154   6.993   3.573   3.362 -2.1031 -2.0133  1.3484
 5064TIP3   OH215155   6.520   4.836   4.104 -0.0723  0.3549  0.1957
 5064TIP3    H115156   6.535   4.876   4.018 -0.6138  0.8160  0.3084
 5064TIP3    H215157   6.500   4.745   4.085  0.3079  0.3334 -0.1298
 5065TIP3   OH215158   3.895   0.448   2.875 -0.0517  0.3279 -0.0083
 5065TIP3    H115159   3.856   0.389   2.940 -1.8593  1.1058 -0.3211
 5065TIP3    H215160   3.879   0.406   2.791  0.6506  0.2033 -0.0842
 5066TIP3   OH215161   4.357   0.652   4.034  0.1428  0.0511 -0.6410
 5066TIP3    H115162   4.346   0.607   3.950  0.3757 -0.0304 -0.6300
 5066TIP3    H215163   4.290   0.615   4.091  1.2790 -1.3829 -0.1786
 5067TIP3   OH215164   3.900   3.799   4.698  0.1312 -0.2304 -0.1773
 5067TIP3    H115165   3.925   3.890   4.685  0.1025 -0.1183  0.4951
 5067TIP3    H215166   3.809   3.794   4.669  0.6542 -0.4538 -1.8755
 5068TIP3   OH215167   4.809   2.563   0.254  0.4089 -0.1673 -0.2804
 5068TIP3    H115168   4.808   2.658   0.245  0.8588 -0.1680 -0.3198
 5068TIP3    H215169   4.854   2.547   0.337 -1.6307 -0.2595  0.8941
 5069TIP3   OH215170   5.362   5.802   1.084  0.0837 -0.2774  0.3784
 5069TIP3    H115171   5.350   5.764   1.171 -0.9464 -0.5048  0.1447
 5069TIP3    H215172   5.275   5.831   1.058  0.9067  2.8998  0.8202
 5070TIP3   OH215173   2.790   5.428   0.819  0.1876 -0.0999 -0.1092
 5070TIP3    H115174   2.759   5.452   0.906 -1.0036  0.3835 -0.6434
 5070TIP3    H215175   2.884   5.445   0.821  0.0293  0.7318  0.8058
 5071TIP3   OH215176   4.955   0.725   2.102  0.2395  0.0286 -0.1861
 5071TIP3    H115177   4.866   0.689   2.098  0.8200 -1.6465  0.7453
 5071TIP3    H215178   4.968   0.747   2.194  0.6317  0.7418 -0.4039
 5072TIP3   OH215179   1.626   5.236   2.425 -0.3159 -0.7763 -0.2740
 5072TIP3    H115180   1.573   5.304   2.384  0.5707  0.0483 -0.0760
 5072TIP3    H215181   1.652   5.273   2.510  1.4789 -0.6852 -0.8138
 5073TIP3   OH215182   4.770   6.395   4.263 -0.4036  0.7240  0.2926
 5073TIP3    H115183   4.750   6.442   4.182  1.0808  0.6302 -0.1566
 5073TIP3    H215184   4.848   6.343   4.242  0.2441  0.9958  1.8984
 5074TIP3   OH215185   4.384   0.368   0.784 -0.3692  1.0997 -0.2322
 5074TIP3    H115186   4.363   0.302   0.851  1.2032  0.5171 -0.2497
 5074TIP3    H215187   4.357   0.328   0.702 -0.0010  0.7235 -0.1775
 5075TIP3   OH215188   3.704   4.767   5.153  0.0940 -0.2525 -0.0016
 5075TIP3    H115189   3.637   4.784   5.088 -0.1258 -2.0904 -0.3110
 5075TIP3    H215190   3.690   4.676   5.179  1.9172 -0.4156  0.5644
 5076TIP3   OH215191   0.117   5.175   1.947  0.6802  0.5262  0.5938
 5076TIP3    H115192   0.118   5.163   2.042  0.0742  0.7642  0.6365
 5076TIP3    H215193   0.148   5.092   1.912  2.7644  1.0558  1.0399
 5077TIP3   OH215194   1.695   0.137   1.003  0.4076 -0.1344  0.2570
 5077TIP3    H115195   1.659   0.089   0.928 -1.2051  0.1590  0.8089
 5077TIP3    H215196   1.774   0.088   1.026 -0.5360 -1.8336  0.0473
 5078TIP3   OH215197   3.438   6.606   2.594  0.1796  0.4271  0.2718
 5078TIP3    H115198   3.417   6.688   2.639  0.8795  1.4103 -1.1049
 5078TIP3    H215199   3.509   6.568   2.646 -0.7253  0.2397  1.4063
 5079TIP3   OH215200   3.443   3.530   5.421 -0.1333 -0.0490  0.4957
 5079TIP3    H115201   3.441   3.486   5.336 -2.2693 -0.1728  0.5431
 5079TIP3    H215202   3.514   3.487   5.468 -0.0757 -1.2411 -0.5964
 5080TIP3   OH215203   4.737   2.624   4.344 -0.0744  0.1429  0.2867
 5080TIP3    H115204   4.766   2.544   4.388 -0.8145  0.0311  0.5787
 5080TIP3    H215205   4.771   2.616   4.255  0.1990 -0.3029  0.4302
 5081TIP3   OH215206   0.924   1.784   5.763  0.1311 -0.4543  0.1646
 5081TIP3    H115207   0.873   1.840   5.704 -1.6797 -2.2839 -0.1273
 5081TIP3    H215208   0.900   1.814   5.851 -0.6201 -0.5603  0.0075
 5082TIP3   OH215209   1.531   6.516   0.419  0.0141  0.3989  0.2704
 5082TIP3    H115210   1.583   6.503   0.498 -1.0899 -1.4377  0.7326
 5082TIP3    H215211   1.465   6.447   0.421  0.1398  0.0834 -2.4023
 5083TIP3   OH215212   0.142   2.125   0.752  0.2180  0.1242 -0.0289
 5083TIP3    H115213   0.127   2.200   0.809  0.3778 -1.3742  2.1438
 5083TIP3    H215214   0.237   2.121   0.741  0.1920  0.3790 -0.3317
 5084TIP3   OH215215   6.315   2.878   3.410  0.0068  0.3158 -0.0648
 5084TIP3    H115216   6.340   2.792   3.376 -2.0367  0.2331 -1.5621
 5084TIP3    H215217   6.350   2.940   3.346 -0.2011  0.4604 -0.0373
 5085TIP3   OH215218   7.028   5.691   5.528  0.0623  0.0198 -0.5228
 5085TIP3    H115219   7.097   5.627   5.512 -0.0656 -1.1149  2.6762
 5085TIP3    H215220   6.963   5.674   5.460  1.2890 -1.3683 -1.3991
 5086TIP3   OH215221   6.830   3.166   5.295  0.0192 -0.1825 -0.6278
 5086TIP3    H115222   6.766   3.102   5.265 -0.9918  0.7870 -0.5954
 5086TIP3    H215223   6.846   3.221   5.218  0.8344 -0.4211 -0.6403
 5087TIP3   OH215224   5.723   6.091   2.538 -0.2104  0.0275  0.2888
 5087TIP3    H115225   5.661   6.162   2.555  1.2275  1.6137 -0.7458
 5087TIP3    H215226   5.721   6.038   2.617 -0.4401  1.9270  1.6306
 5088TIP3   OH215227   7.099   6.729   4.269 -0.4611  0.2154 -0.2772
 5088TIP3    H115228   7.148   6.693   4.195 -0.8985 -0.7682 -0.1055
 5088TIP3    H215229   7.017   6.678   4.270 -0.3189 -0.0048  1.0687
 5089TIP3   OH215230   7.190   5.836   4.477  0.3336  0.3909 -0.5902
 5089TIP3    H115231   7.125   5.834   4.407  0.2112 -0.7743 -0.4607
 5089TIP3    H215232   7.272   5.808   4.436  0.0871 -1.0913 -0.1169
 5090TIP3   OH215233   5.002   3.746   5.592 -0.1048  0.4912  0.2019
 5090TIP3    H115234   5.064   3.802   5.638 -1.5077  2.0539  0.2966
 5090TIP3    H215235   4.924   3.801   5.580 -1.4446 -1.3437  0.0023
 5091TIP3   OH215236   4.650   1.416   3.843  0.6120 -0.1341  0.1787
 5091TIP3    H115237   4.709   1.432   3.917  1.1214  0.2432 -0.2957
 5091TIP3    H215238   4.568   1.389   3.883  0.8953  0.0160  0.8812
 5092TIP3   OH215239   2.428   3.331   1.968  0.7050 -0.2420  0.2212
 5092TIP3    H115240   2.399   3.322   2.059  2.9438 -0.4991  0.9974
 5092TIP3    H215241   2.518   3.298   1.969  1.7022  2.1161 -1.5332
 5093TIP3   OH215242   2.233   4.795   2.782 -0.1827  1.0313 -0.2062
 5093TIP3    H115243   2.263   4.720   2.832 -0.7592  1.4658  0.8250
 5093TIP3    H215244   2.251   4.772   2.691 -1.9834 -1.1269 -0.0929
 5094TIP3   OH215245   6.873   6.594   4.375  1.0112 -0.4622  0.0536
 5094TIP3    H115246   6.800   6.576   4.435  0.7117 -0.7341 -0.3888
 5094TIP3    H215247   6.915   6.509   4.362  0.1780 -0.6825 -1.2831
 5095TIP3   OH215248   5.529   1.961   2.800 -0.6792  0.3081 -0.1423
 5095TIP3    H115249   5.477   1.970   2.721  1.8162  2.2303 -1.7253
 5095TIP3    H215250   5.619   1.950   2.769  0.2135 -0.5913  2.4294
 5096TIP3   OH215251   2.603   4.525   5.058 -0.1677  0.4451  0.4986
 5096TIP3    H115252   2.697   4.543   5.069  0.1571 -0.2422 -0.8832
 5096TIP3    H215253   2.587   4.447   5.110 -0.2177  1.1395  1.5579
 5097TIP3   OH215254   4.658   4.425   2.717 -0.1719 -0.1289  0.3575
 5097TIP3    H115255   4.741   4.415   2.765  0.2395 -1.0648 -0.5300
 5097TIP3    H215256   4.622   4.337   2.712 -1.3950  0.3180  0.9974
 5098TIP3   OH215257   0.367   1.276   5.702 -0.2207 -0.6549 -0.2905
 5098TIP3    H115258   0.431   1.280   5.631 -0.0639 -0.7123 -0.1527
 5098TIP3    H215259   0.410   1.319   5.776 -0.5392 -0.2298 -0.3465
 5099TIP3   OH215260   5.163   5.024   5.403  0.2233  0.2756  0.1301
 5099TIP3    H115261   5.258   5.019   5.408  0.3569  1.4983 -0.6903
 5099TIP3    H215262   5.144   5.043   5.311 -0.7598  0.7947  0.4238
 5100TIP3   OH215263   1.243   0.182   2.449  0.4919  0.0090 -0.0893
 5100TIP3    H115264   1.195   0.100   2.459 -1.4539  1.1858  0.8247
 5100TIP3    H215265   1.262   0.209   2.539 -1.1579  1.7549 -0.1929
 5101TIP3   OH215266   4.775   5.655   1.229  0.3584  0.4906  0.1123
 5101TIP3    H115267   4.831   5.729   1.254 -0.6054  0.7233  1.6621
 5101TIP3    H215268   4.801   5.636   1.139  2.9029  0.6238  0.7294
 5102TIP3   OH215269   4.125  -0.007   0.458  0.2097 -0.0685  0.6135
 5102TIP3    H115270   4.063   0.002   0.386  0.3447  2.8872  0.7546
 5102TIP3    H215271   4.211   0.008   0.418  0.3236  1.1797  1.2781
 5103TIP3   OH215272   3.382   4.090   1.478  0.4422 -0.1647  0.2789
 5103TIP3    H115273   3.346   4.083   1.567  0.1861 -0.9511  0.1189
 5103TIP3    H215274   3.462   4.142   1.489 -0.3781  1.0441  0.7326
 5104TIP3   OH215275   2.987   2.903   4.279  0.4093  0.1380  0.6726
 5104TIP3    H115276   2.904   2.952   4.278 -0.7723 -1.7567  1.4666
 5104TIP3    H215277   2.996   2.870   4.189  0.3458  0.4000  0.5677
 5105TIP3   OH215278   4.130   3.305   4.296  0.3542  0.0612  0.0967
 5105TIP3    H115279   4.101   3.223   4.255  1.6183 -0.6035  0.4498
 5105TIP3    H215280   4.090   3.374   4.244  0.7628 -0.7722 -1.3829
 5106TIP3   OH215281   6.948   1.871   1.532  0.5169 -0.7735 -0.2990
 5106TIP3    H115282   6.882   1.928   1.570 -0.2568 -1.5551 -0.4418
 5106TIP3    H215283   7.005   1.930   1.482 -0.0167 -0.0860 -0.1129
 5107TIP3   OH215284   5.190   3.863   3.724 -0.0882 -0.0969  0.0398
 5107TIP3    H115285   5.152   3.830   3.805  0.0206  1.1554  0.6271
 5107TIP3    H215286   5.222   3.951   3.746  0.4311  0.0578 -1.2176
 5108TIP3   OH215287   0.408   6.028   4.011  0.0938 -0.0321 -0.2495
 5108TIP3    H115288   0.384   6.117   3.985  0.0152  0.3744  1.1039
 5108TIP3    H215289   0.471   5.999   3.945  1.2226  1.5950  0.0599
 5109TIP3   OH215290   6.073   5.247   4.929  0.1633 -0.1752 -0.8050
 5109TIP3    H115291   6.134   5.319   4.947 -0.8798  0.9215 -1.4700
 5109TIP3    H215292   6.123   5.186   4.875  1.0629  0.0620 -0.2547
 5110TIP3   OH215293   4.850   0.772   1.244 -0.0388  0.0397 -0.3714
 5110TIP3    H115294   4.757   0.769   1.225 -0.3681  2.0952  0.5665
 5110TIP3    H215295   4.858   0.740   1.334  0.0111  0.7511 -0.1137
 5111TIP3   OH215296   4.447   5.438   0.679  0.5562 -0.3541  0.0072
 5111TIP3    H115297   4.361   5.401   0.658  0.4543 -0.0341 -0.1517
 5111TIP3    H215298   4.444   5.455   0.773  0.2207  0.2242 -0.1043
 5112TIP3   OH215299   4.471   2.441   3.565  0.1636 -0.0154 -0.3138
 5112TIP3    H115300   4.380   2.414   3.572  0.4801 -0.8268  0.8423
 5112TIP3    H215301   4.476   2.484   3.479 -1.5027  0.8971  0.0103
 5113TIP3   OH215302   0.106   5.480   1.577  0.4459  0.0525  0.0902
 5113TIP3    H115303   0.113   5.544   1.648 -1.6319  0.7479 -0.2673
 5113TIP3    H215304   0.073   5.400   1.620 -3.0891  1.1336 -0.2720
 5114TIP3   OH215305   6.752   0.159   4.782  0.8335  0.1731 -0.1993
 5114TIP3    H115306   6.720   0.238   4.739 -0.1313 -0.8949 -1.5507
 5114TIP3    H215307   6.805   0.191   4.855 -0.0561  2.0450 -0.3127
 5115TIP3   OH215308   0.852   5.336   4.534  0.8090  0.0601  0.5148
 5115TIP3    H115309   0.876   5.282   4.459  1.1483 -1.5545  1.7072
 5115TIP3    H215310   0.771   5.297   4.566  0.5868  0.8232  0.8888
 5116TIP3   OH215311   4.303   4.263   1.124  0.2460 -0.4650  0.3373
 5116TIP3    H115312   4.309   4.232   1.033  0.2525 -1.0964  0.5498
 5116TIP3    H215313   4.223   4.317   1.125  1.1034  0.8959 -0.4217
 5117TIP3   OH215314   5.295   2.540   0.928  0.0912 -0.0652 -0.6560
 5117TIP3    H115315   5.268   2.473   0.865 -0.3318 -1.0056  0.4993
 5117TIP3    H215316   5.226   2.606   0.924 -0.1332 -0.3096 -0.8817
 5118TIP3   OH215317   3.763   0.561   0.714  0.2336 -0.6611  0.0203
 5118TIP3    H115318   3.817   0.542   0.637  0.5764 -1.2278  0.3892
 5118TIP3    H215319   3.673   0.562   0.681  0.4707  0.5263 -0.6468
 5119TIP3   OH215320   2.189   5.266   0.531  0.0548 -0.1173  0.1620
 5119TIP3    H115321   2.226   5.335   0.586 -0.0261  0.1396 -0.1023
 5119TIP3    H215322   2.095   5.279   0.535  0.0733  0.2889 -0.5244
 5120TIP3   OH215323   5.971   3.527   5.864 -0.1465 -0.2926  0.5446
 5120TIP3    H115324   6.062   3.528   5.833  0.2405  0.4885  1.6385
 5120TIP3    H215325   5.936   3.443   5.833  0.4062  0.1540 -1.3774
 5121TIP3   OH215326   4.921   4.877   5.494 -0.6081  0.1282 -0.3891
 5121TIP3    H115327   4.996   4.928   5.463 -0.7425 -0.9882 -2.7938
 5121TIP3    H215328   4.844   4.925   5.464 -0.8097  0.0611  0.0061
 5122TIP3   OH215329   2.168   0.951   1.615 -0.0969  0.0291  0.1701
 5122TIP3    H115330   2.225   1.020   1.581 -0.3935  0.1098 -0.1780
 5122TIP3    H215331   2.106   0.996   1.671  0.0780 -0.0357  0.4152
 5123TIP3   OH215332   1.488   1.190   4.184  0.2274 -0.6166  0.1426
 5123TIP3    H115333   1.499   1.096   4.193 -2.6694 -1.2246 -1.4491
 5123TIP3    H215334   1.536   1.212   4.104  1.1363 -0.6507  0.6632
 5124TIP3   OH215335   3.421   0.860   2.610 -0.3130 -0.0183 -0.2826
 5124TIP3    H115336   3.460   0.790   2.557  1.8322  1.2372 -0.4942
 5124TIP3    H215337   3.365   0.908   2.549  0.5074  0.1743 -0.8961
 5125TIP3   OH215338   1.276   5.003   5.202  0.3166 -0.0746 -0.2205
 5125TIP3    H115339   1.275   5.099   5.198  1.3448  0.0171  1.1658
 5125TIP3    H215340   1.349   4.977   5.146  0.3657 -0.0263 -0.1782
 5126TIP3   OH215341   4.200   6.266   2.888 -0.2200  0.4438 -0.5381
 5126TIP3    H115342   4.243   6.322   2.953 -0.0146 -0.3166 -0.0075
 5126TIP3    H215343   4.257   6.191   2.879 -1.2940 -0.4673 -0.0177
 5127TIP3   OH215344   4.072   0.372   0.761 -0.1925  0.0792  0.5911
 5127TIP3    H115345   4.119   0.329   0.689 -0.4522  0.6884  0.0544
 5127TIP3    H215346   4.140   0.413   0.813 -0.1537  1.6955 -0.6615
 5128TIP3   OH215347   6.567   5.367   2.391 -0.5443 -0.2880 -0.0351
 5128TIP3    H115348   6.655   5.397   2.369  0.0300 -1.9800 -0.1872
 5128TIP3    H215349   6.523   5.356   2.307  0.0387 -2.0886 -0.1331
 5129TIP3   OH215350   0.837   3.887   5.430 -0.4267  0.2056 -0.3327
 5129TIP3    H115351   0.892   3.873   5.507  0.7239  0.4763 -1.0812
 5129TIP3    H215352   0.840   3.981   5.414 -2.1546  0.4247  0.3399
 5130TIP3   OH215353   1.910   5.155   0.782  0.0758 -0.0752 -0.1840
 5130TIP3    H115354   1.926   5.150   0.688  2.2162 -2.0952  0.2049
 5130TIP3    H215355   1.978   5.213   0.815 -1.3877  1.6092  0.0610
 5131TIP3   OH215356   6.381   6.361   5.277  0.1944  0.0944 -0.0511
 5131TIP3    H115357   6.450   6.427   5.270 -0.1803  0.3904 -1.2207
 5131TIP3    H215358   6.306   6.408   5.312  0.9230 -0.5277  2.6054
 5132TIP3   OH215359   0.834   3.315   0.133 -0.0494  0.2295 -0.1723
 5132TIP3    H115360   0.889   3.382   0.093 -0.6293  0.9280  0.1940
 5132TIP3    H215361   0.882   3.233   0.118  0.6828  0.7234 -0.5790
 5133TIP3   OH215362   5.371   1.187   3.601  0.0733 -0.2670 -0.4981
 5133TIP3    H115363   5.454   1.178   3.553  0.9339 -1.3671  1.0768
 5133TIP3    H215364   5.342   1.097   3.614  0.4629 -0.1162  1.9334
 5134TIP3   OH215365   3.423   6.048   0.167  0.2083 -0.5953  0.5240
 5134TIP3    H115366   3.369   6.115   0.211  0.8689 -0.4875  1.2011
 5134TIP3    H215367   3.445   6.087   0.083  3.4377  1.6148  2.1910
 5135TIP3   OH215368   3.859   3.552   5.311 -0.3741  0.5667 -0.0961
 5135TIP3    H115369   3.797   3.606   5.360 -2.0661 -0.3355 -1.1341
 5135TIP3    H215370   3.821   3.547   5.223  0.7432 -0.7305 -0.5335
 5136TIP3   OH215371   1.952   2.404   2.840  0.2854 -0.0224  1.0948
 5136TIP3    H115372   1.906   2.465   2.899  0.4202 -0.0613  1.2409
 5136TIP3    H215373   2.026   2.373   2.892  1.1256  0.8946  0.4905
 5137TIP3   OH215374   5.708   6.567   0.624  0.1157 -0.1574  0.1350
 5137TIP3    H115375   5.645   6.556   0.553  1.5786 -0.6883 -1.1375
 5137TIP3    H215376   5.792   6.581   0.579  1.3042 -1.7719  1.7436
 5138TIP3   OH215377   0.246   2.833   3.718 -0.0051 -0.4837  0.7376
 5138TIP3    H115378   0.266   2.746   3.752 -1.0522 -0.5845  1.1324
 5138TIP3    H215379   0.276   2.831   3.628 -1.9444 -2.0258  0.0412
 5139TIP3   OH215380   1.573   5.764   3.309  0.2094 -0.2053  0.0269
 5139TIP3    H115381   1.651   5.772   3.254 -1.2284  0.9453 -1.9911
 5139TIP3    H215382   1.517   5.702   3.262  0.1470 -1.6100  1.8280
 5140TIP3   OH215383   7.138   5.185   2.464  0.7109 -0.0555 -0.2530
 5140TIP3    H115384   7.093   5.141   2.536 -1.0257  2.4687  0.3503
 5140TIP3    H215385   7.194   5.250   2.507  0.4535  0.7588 -1.1084
 5141TIP3   OH215386   6.865   1.096   1.911  0.5492 -0.2025  0.3687
 5141TIP3    H115387   6.777   1.117   1.879 -0.2651  0.9062  3.0420
 5141TIP3    H215388   6.922   1.157   1.865 -0.2156 -0.2027 -0.6148
 5142TIP3   OH215389   6.081   2.372   2.580 -0.2599  0.1769 -0.3408
 5142TIP3    H115390   6.168   2.342   2.605  0.1864  0.6975 -1.2365
 5142TIP3    H215391   6.068   2.337   2.492 -0.1628  1.6767 -0.9720
 5143TIP3   OH215392   6.717   2.470   2.984 -0.4431  0.0651  0.1184
 5143TIP3    H115393   6.677   2.393   2.942 -0.9315  1.0992 -1.3892
 5143TIP3    H215394   6.803   2.440   3.012 -1.5687 -1.7583  1.9577
 5144TIP3   OH215395   2.972   2.174   3.772  0.2344  0.0264  0.1615
 5144TIP3    H115396   3.032   2.249   3.769  0.0873  0.3311  2.6467
 5144TIP3    H215397   3.028   2.101   3.800  0.5886 -1.1395 -3.1493
 5145TIP3   OH215398   1.521   3.037   4.697 -0.0709  0.1012 -0.2459
 5145TIP3    H115399   1.506   3.098   4.769 -1.0371  0.3882 -0.6777
 5145TIP3    H215400   1.560   2.960   4.739 -0.6174  0.2649  0.5861
 5146TIP3   OH215401   6.396   1.486   3.428  0.5910 -0.1038 -0.4518
 5146TIP3    H115402   6.337   1.463   3.356  2.7907  2.6584 -3.4525
 5146TIP3    H215403   6.363   1.570   3.460 -0.1842 -1.1581  1.7497
 5147TIP3   OH215404   3.195   1.061   3.662  0.1641 -0.0921 -0.3574
 5147TIP3    H115405   3.210   1.119   3.736  0.3842  0.2434 -0.6606
 5147TIP3    H215406   3.261   0.992   3.671  0.0657 -0.1552 -0.1346
 5148TIP3   OH215407   7.001   5.959   5.849  0.4969 -0.7079 -0.1310
 5148TIP3    H115408   7.045   5.945   5.765 -0.7961 -0.6690 -0.8501
 5148TIP3    H215409   7.029   6.046   5.877 -1.8533  0.9431 -2.3978
 5149TIP3   OH215410   1.548   0.954   4.734 -0.0395  0.4141 -0.1901
 5149TIP3    H115411   1.637   0.976   4.759  0.2720 -1.0327  0.0710
 5149TIP3    H215412   1.493   1.000   4.797  0.6323 -0.6904  1.2593
 5150TIP3   OH215413   4.472   1.669   5.085  0.1045 -0.5372 -0.0640
 5150TIP3    H115414   4.514   1.623   5.012  0.9663  0.3956 -0.1675
 5150TIP3    H215415   4.503   1.623   5.163  2.3890  0.8929 -0.0451
 5151TIP3   OH215416   1.650   5.529   5.339 -0.1481 -1.0048  0.1594
 5151TIP3    H115417   1.655   5.618   5.373  0.3727 -0.6081 -0.9302
 5151TIP3    H215418   1.569   5.494   5.376  1.1644 -1.2000  3.1834
 5152TIP3   OH215419   5.384   0.482   4.936  0.0322 -0.3018  0.3740
 5152TIP3    H115420   5.398   0.480   5.030  0.1252 -3.5430  0.4037
 5152TIP3    H215421   5.361   0.391   4.913 -1.2398  0.6355 -2.5394
 5153TIP3   OH215422   4.291   3.993   0.610  0.2458 -0.5268  0.2182
 5153TIP3    H115423   4.273   3.994   0.516 -0.2736  0.0298  0.3184
 5153TIP3    H215424   4.207   3.968   0.650 -0.4055  2.1134  0.6916
 5154TIP3   OH215425   5.349   4.670   3.156 -0.4855 -0.0117  0.2631
 5154TIP3    H115426   5.354   4.763   3.178 -1.7148  0.1492 -0.0958
 5154TIP3    H215427   5.268   4.639   3.197  0.2520 -1.0975  0.9688
 5155TIP3   OH215428   5.089   3.055   1.602  0.0087 -0.7631  0.2927
 5155TIP3    H115429   5.119   3.131   1.553 -0.9758  0.2100  1.1286
 5155TIP3    H215430   5.145   2.983   1.573  0.9174  0.2631 -0.5688
 5156TIP3   OH215431   6.528   3.011   2.933 -0.1548 -0.0892 -0.1059
 5156TIP3    H115432   6.464   3.082   2.942 -0.3008 -0.3239  0.8979
 5156TIP3    H215433   6.485   2.935   2.973  1.2682  0.0833  1.8859
 5157TIP3   OH215434   4.293   5.856   1.176 -0.2728  0.2752  0.4889
 5157TIP3    H115435   4.359   5.825   1.238 -2.1403 -0.3936  2.2739
 5157TIP3    H215436   4.240   5.918   1.227 -1.3181  0.4067 -0.7144
 5158TIP3   OH215437   4.756   4.159   5.234 -0.3034 -0.0252  0.1213
 5158TIP3    H115438   4.838   4.187   5.274  0.3424  1.1635 -1.9199
 5158TIP3    H215439   4.697   4.234   5.245 -0.4419 -0.0756 -0.2568
 5159TIP3   OH215440   0.399   3.189   4.417  0.3019 -0.2540 -0.0241
 5159TIP3    H115441   0.321   3.197   4.472 -0.0150 -0.8661 -0.3821
 5159TIP3    H215442   0.461   3.252   4.454 -0.4615  0.4413  0.0825
 5160TIP3   OH215443   4.752   5.850   3.570  0.1802  0.2777 -0.0225
 5160TIP3    H115444   4.732   5.765   3.608  0.8165 -0.2196 -0.7615
 5160TIP3    H215445   4.789   5.901   3.641  0.7212 -0.4002  0.1840
 5161TIP3   OH215446   0.277   1.016   5.074 -0.4348  0.0256  0.2246
 5161TIP3    H115447   0.373   1.014   5.066 -0.4084 -1.1570  0.7595
 5161TIP3    H215448   0.261   1.045   5.164 -0.6051  0.7363 -0.0222
 5162TIP3   OH215449   1.149   5.779   1.376 -0.4908 -0.1594  0.6216
 5162TIP3    H115450   1.234   5.821   1.377 -1.1253  1.1935  0.1591
 5162TIP3    H215451   1.168   5.685   1.368  0.9421  0.2336 -1.3260
 5163TIP3   OH215452   4.473   0.620   0.764 -0.5585 -0.6102  0.3204
 5163TIP3    H115453   4.565   0.619   0.735 -1.3626 -3.4549 -2.7647
 5163TIP3    H215454   4.457   0.531   0.794 -2.1421  0.0878  1.7050
 5164TIP3   OH215455   3.281   5.275   1.603 -0.3702  0.1188  0.5744
 5164TIP3    H115456   3.245   5.187   1.614  0.9532 -0.2875  1.9056
 5164TIP3    H215457   3.311   5.278   1.512  2.1215 -1.8272  1.2554
 5165TIP3   OH215458   1.697   0.309   0.323  0.6070  0.0857  0.3057
 5165TIP3    H115459   1.761   0.378   0.306  0.3135  0.3435  0.2371
 5165TIP3    H215460   1.627   0.353   0.372  1.0717 -0.4593  1.5190
 5166TIP3   OH215461   2.628   6.264   4.648 -0.3787 -0.4680  0.0015
 5166TIP3    H115462   2.586   6.256   4.734 -1.3266 -0.3567 -0.4354
 5166TIP3    H215463   2.643   6.173   4.621 -0.8235 -0.5250 -0.0633
 5167TIP3   OH215464   1.296   5.478   0.409  0.0057  0.4417 -0.6091
 5167TIP3    H115465   1.350   5.524   0.473  0.1772 -0.1543 -0.3245
 5167TIP3    H215466   1.216   5.454   0.457  0.7223 -1.2548 -0.1949
 5168TIP3   OH215467   3.509   6.255   3.369 -0.0807 -0.5513 -0.1738
 5168TIP3    H115468   3.496   6.218   3.281  0.4780 -0.6240 -0.2284
 5168TIP3    H215469   3.592   6.219   3.398 -0.6247 -1.1362  0.7066
 5169TIP3   OH215470   1.942   5.878   0.251  0.4044 -0.1171 -0.0217
 5169TIP3    H115471   2.031   5.912   0.258  0.3586  0.0362 -0.1684
 5169TIP3    H215472   1.950   5.784   0.269  0.6809 -0.2100 -0.6000
 5170TIP3   OH215473   0.854   3.996   2.484 -0.3150 -0.2524  0.4754
 5170TIP3    H115474   0.948   3.999   2.464  0.0195 -0.6476  1.8830
 5170TIP3    H215475   0.823   4.084   2.465  0.1148 -0.3906 -0.9973
 5171TIP3   OH215476   2.902   5.592   3.257 -0.4353 -0.0228  0.0164
 5171TIP3    H115477   2.823   5.546   3.230 -0.7330 -0.5527  1.6641
 5171TIP3    H215478   2.969   5.524   3.264  0.0501  0.3467 -0.8879
 5172TIP3   OH215479   4.052   4.042   5.389 -1.0085  0.3961 -0.5807
 5172TIP3    H115480   4.040   4.126   5.431 -0.1313  0.6526 -0.8323
 5172TIP3    H215481   4.003   3.980   5.443  0.5566  0.6093  1.1580
 5173TIP3   OH215482   0.812   6.041   3.850  0.3074  0.0319  0.1022
 5173TIP3    H115483   0.731   5.993   3.834  0.3516  0.3379 -1.1735
 5173TIP3    H215484   0.866   5.981   3.901 -0.4227 -0.4680  0.3021
 5174TIP3   OH215485   2.170   6.385   0.185 -0.2359  0.2006 -0.2864
 5174TIP3    H115486   2.206   6.345   0.264  1.3108  1.0558 -0.5166
 5174TIP3    H215487   2.148   6.310   0.129  1.5330 -0.3781 -0.2648
 5175TIP3   OH215488   5.303   5.522   5.371  0.3558 -0.4135  0.1257
 5175TIP3    H115489   5.324   5.453   5.434 -1.6885 -0.3098  1.0221
 5175TIP3    H215490   5.369   5.513   5.302  1.5922 -1.6779  1.4057
 5176TIP3   OH215491   4.589   6.520   3.681 -0.5155  0.1029  0.5539
 5176TIP3    H115492   4.655   6.452   3.686 -0.1692  0.2189 -1.4846
 5176TIP3    H215493   4.636   6.602   3.697 -0.2310  0.1384 -0.3905
 5177TIP3   OH215494   5.465   5.210   3.075  0.1289  0.2404  0.2650
 5177TIP3    H115495   5.521   5.249   3.007  2.2822  1.9353  2.8095
 5177TIP3    H215496   5.472   5.116   3.060  2.0383  0.4893 -0.7993
 5178TIP3   OH215497   3.659   4.082   4.403  0.0479  0.4065 -0.6302
 5178TIP3    H115498   3.736   4.025   4.401  1.4666  2.2115 -0.9159
 5178TIP3    H215499   3.661   4.127   4.318 -0.9972  0.8964 -0.4053
 5179TIP3   OH215500   4.261   3.761   3.271 -0.3222  0.0731 -0.5430
 5179TIP3    H115501   4.226   3.738   3.357  0.7178  1.0791  0.1843
 5179TIP3    H215502   4.355   3.744   3.277  0.2081  2.5795 -0.5463
 5180TIP3   OH215503   5.487   2.967   2.318  0.6402 -0.6482 -0.4319
 5180TIP3    H115504   5.402   3.010   2.307  0.0809 -1.4551  0.5849
 5180TIP3    H215505   5.526   3.010   2.394  1.2276 -0.1748 -0.9880
 5181TIP3   OH215506   5.560   1.340   3.262  0.3595  0.2983 -0.1277
 5181TIP3    H115507   5.519   1.310   3.181  0.2386 -0.3055  0.1493
 5181TIP3    H215508   5.510   1.417   3.287 -2.0667 -1.5934  1.3258
 5182TIP3   OH215509   4.824   4.665   1.633  0.5404  0.4287 -0.0655
 5182TIP3    H115510   4.752   4.691   1.576  1.3174  2.3367 -0.2464
 5182TIP3    H215511   4.819   4.726   1.707  0.5501 -0.9507  1.1265
 5183TIP3   OH215512   0.121   0.769   5.687 -0.0504  0.2928 -0.1840
 5183TIP3    H115513   0.144   0.683   5.652  0.1492  0.8245 -1.4035
 5183TIP3    H215514   0.204   0.808   5.712 -0.1880 -0.0660  0.8806
 5184TIP3   OH215515   3.468   6.584   2.244 -0.3320 -0.5322 -0.6526
 5184TIP3    H115516   3.466   6.594   2.339 -2.1014  1.4456 -0.8132
 5184TIP3    H215517   3.376   6.594   2.218 -0.2778 -3.5893 -2.3992
 5185TIP3   OH215518   6.188   3.982   3.429 -0.0040 -0.4953 -0.2044
 5185TIP3    H115519   6.240   4.056   3.398 -0.8820  1.3446  2.3744
 5185TIP3    H215520   6.118   3.973   3.365 -1.0636  2.3404  0.4072
 5186TIP3   OH215521   0.233   1.493  -0.027 -0.0642 -0.5104 -0.3097
 5186TIP3    H115522   0.195   1.464   0.056  1.1593  2.5831  1.5621
 5186TIP3    H215523   0.327   1.478  -0.016 -0.1321 -4.0734 -3.0744
 5187TIP3   OH215524   5.296   1.957   3.399  0.1237  0.1054 -0.6113
 5187TIP3    H115525   5.333   1.921   3.318  0.9453  0.1743 -0.2792
 5187TIP3    H215526   5.260   2.041   3.373 -0.6221 -0.3655 -1.1289
 5188TIP3   OH215527   5.335   6.017   0.825 -0.2426 -0.3481 -0.5642
 5188TIP3    H115528   5.355   6.044   0.915 -1.0775  0.2135 -0.5329
 5188TIP3    H215529   5.413   5.970   0.796  0.2873  0.0155  0.2347
 5189TIP3   OH215530   6.711   6.655   2.789  0.3178  0.6979 -0.3167
 5189TIP3    H115531   6.732   6.748   2.781 -0.0337  0.6995 -1.4379
 5189TIP3    H215532   6.624   6.653   2.829  0.6523  0.8134  0.4393
 5190TIP3   OH215533   0.477   5.796   4.870 -0.2508 -0.5507 -0.3094
 5190TIP3    H115534   0.562   5.841   4.875 -1.0962  1.0670  0.7222
 5190TIP3    H215535   0.454   5.798   4.777  0.1645  0.3740 -0.4094
 5191TIP3   OH215536   1.288   2.339   4.538 -0.3059  0.3561 -0.1912
 5191TIP3    H115537   1.196   2.351   4.518 -0.4728  0.7371  0.7401
 5191TIP3    H215538   1.313   2.259   4.493 -1.6938 -1.0647  1.4419
 5192TIP3   OH215539   1.636   5.781   5.389  0.5524 -0.6499  0.4790
 5192TIP3    H115540   1.676   5.868   5.389  0.9668 -0.8041  2.2912
 5192TIP3    H215541   1.578   5.782   5.465 -0.4068 -1.5510 -0.2163
 5193TIP3   OH215542   1.717   2.031   4.590 -0.0268  0.1764 -0.2138
 5193TIP3    H115543   1.785   2.054   4.653  0.1001 -1.3608  0.2349
 5193TIP3    H215544   1.639   2.077   4.622  0.5977  1.3491 -0.3199
 5194TIP3   OH215545   5.662   5.332   0.230  0.3441 -0.3819  0.6519
 5194TIP3    H115546   5.708   5.276   0.169 -0.9392 -0.0535 -0.6780
 5194TIP3    H215547   5.631   5.405   0.177 -0.3061  0.2164  1.8115
 5195TIP3   OH215548   6.239   1.582   0.464  0.3148  0.5660  0.0724
 5195TIP3    H115549   6.278   1.567   0.378  2.3204  1.3212  0.8069
 5195TIP3    H215550   6.183   1.505   0.478  1.1941 -0.3573 -1.2112
 5196TIP3   OH215551   1.425   3.307   5.709 -0.2497 -0.5593  0.2356
 5196TIP3    H115552   1.456   3.293   5.798 -3.7726  1.2889  1.9416
 5196TIP3    H215553   1.356   3.242   5.697 -0.5953 -0.0351 -0.7007
 5197TIP3   OH215554   3.646   3.086   4.598 -0.3403  0.0509 -0.2379
 5197TIP3    H115555   3.722   3.080   4.655  1.4131 -0.0278 -2.4775
 5197TIP3    H215556   3.581   3.133   4.651  1.1233 -0.0791  1.8189
 5198TIP3   OH215557   0.413   2.481   5.893  0.2456  0.2611  0.3037
 5198TIP3    H115558   0.335   2.430   5.872  1.0966 -0.6235 -0.7975
 5198TIP3    H215559   0.400   2.565   5.849 -1.1532  1.0719  2.1107
 5199TIP3   OH215560   4.241   6.628   3.447 -0.1349  0.2006 -0.2112
 5199TIP3    H115561   4.286   6.580   3.517 -0.7485  1.2803  0.9706
 5199TIP3    H215562   4.311   6.660   3.391  0.5164  0.8907  0.9531
 5200TIP3   OH215563   0.825   5.615   2.871  0.3314  0.2122 -0.4155
 5200TIP3    H115564   0.780   5.654   2.945 -1.3600 -1.4223 -0.4981
 5200TIP3    H215565   0.908   5.663   2.864 -1.2691  3.2400 -0.1521
 5201TIP3   OH215566   3.854   2.369   5.014  0.1067 -0.6652 -0.4684
 5201TIP3    H115567   3.934   2.415   4.987 -0.4518  0.1174 -0.8482
 5201TIP3    H215568   3.790   2.439   5.025  0.1964 -0.9511  2.6213
 5202TIP3   OH215569   1.539   1.679   3.171  0.1304 -0.2860 -0.0789
 5202TIP3    H115570   1.502   1.731   3.100 -2.1961  0.2669  1.4287
 5202TIP3    H215571   1.467   1.622   3.199  1.2020 -0.9873  1.3550
 5203TIP3   OH215572   5.475   1.471   0.772 -0.5572  0.0267  0.3258
 5203TIP3    H115573   5.542   1.404   0.785  2.1123  2.4334  0.0011
 5203TIP3    H215574   5.466   1.477   0.677  1.4643  2.0466  0.1876
 5204TIP3   OH215575   2.648   3.133   3.492  0.5500  0.3954 -0.0300
 5204TIP3    H115576   2.717   3.118   3.557  0.9468 -0.0955 -0.5597
 5204TIP3    H215577   2.689   3.113   3.408 -0.1082  0.5416 -0.3937
 5205TIP3   OH215578   1.817   5.814   2.581  0.2867 -0.7461 -0.2479
 5205TIP3    H115579   1.822   5.727   2.620  1.8274 -0.8444 -0.6050
 5205TIP3    H215580   1.829   5.801   2.488 -1.5483 -0.3238 -0.5787
 5206TIP3   OH215581   1.530   5.833   4.090  0.0945  0.0676 -0.5177
 5206TIP3    H115582   1.597   5.794   4.146  1.1804  0.3911 -1.5506
 5206TIP3    H215583   1.472   5.879   4.150  1.1448  0.2839  0.3493
 5207TIP3   OH215584   1.527   6.535   2.028  0.2095 -0.3386  0.0880
 5207TIP3    H115585   1.601   6.587   1.998 -0.2136 -0.1760 -0.6971
 5207TIP3    H215586   1.560   6.489   2.106  0.7680  0.6131  0.4288
 5208TIP3   OH215587   4.480   2.062   2.638 -0.3334  0.0899  0.4323
 5208TIP3    H115588   4.406   2.004   2.618  0.3287 -0.4499 -0.5273
 5208TIP3    H215589   4.532   2.064   2.558 -0.0785  1.6496  0.6025
 5209TIP3   OH215590   1.177   0.458   0.525 -0.0847 -1.0933 -0.2912
 5209TIP3    H115591   1.140   0.384   0.573 -0.7748  0.5354  1.8633
 5209TIP3    H215592   1.202   0.422   0.440 -0.9614 -3.6288  0.4428
 5210TIP3   OH215593   6.488   2.897   0.544  0.1731 -0.1299  0.0916
 5210TIP3    H115594   6.392   2.906   0.547  0.1419  1.3809 -2.5286
 5210TIP3    H215595   6.520   2.968   0.599 -0.0873 -2.4116  3.4784
 5211TIP3   OH215596   5.543   6.205   3.641 -0.3249  0.7935  0.5005
 5211TIP3    H115597   5.572   6.157   3.719 -0.4562 -1.3201 -0.6842
 5211TIP3    H215598   5.456   6.238   3.664 -0.7963 -0.6795  0.9357
 5212TIP3   OH215599   1.017   4.284   3.196 -0.2551  0.1040  0.0982
 5212TIP3    H115600   0.950   4.306   3.132  0.2434  0.2996 -0.3601
 5212TIP3    H215601   1.003   4.346   3.268 -0.3590  0.3563 -0.1394
 5213TIP3   OH215602   3.428   5.427   5.057 -0.0399  0.3391  0.2149
 5213TIP3    H115603   3.495   5.361   5.076 -0.5444 -0.2407  0.0063
 5213TIP3    H215604   3.378   5.435   5.138  1.7167  2.5154  1.1801
 5214TIP3   OH215605   0.744   3.486   2.823  0.3657  0.4870 -0.0710
 5214TIP3    H115606   0.669   3.507   2.879  0.7851 -0.5515  0.9131
 5214TIP3    H215607   0.799   3.564   2.827  0.5566  0.3098  1.2737
 5215TIP3   OH215608   2.426   6.240   3.822  0.0581  0.0132 -0.4894
 5215TIP3    H115609   2.487   6.301   3.864 -1.2492  0.7735  0.3555
 5215TIP3    H215610   2.340   6.280   3.834 -0.7796 -1.7317 -0.3978
 5216TIP3   OH215611   6.720   2.775   1.460 -0.0133  0.1669  0.0115
 5216TIP3    H115612   6.655   2.705   1.467 -0.9480  0.8199 -1.4759
 5216TIP3    H215613   6.793   2.735   1.413 -0.9724  0.3971 -1.7846
 5217TIP3   OH215614   1.072   1.109   1.284 -0.2206 -0.0783  0.7507
 5217TIP3    H115615   1.068   1.169   1.358  1.0376 -0.6624  1.3147
 5217TIP3    H215616   1.097   1.025   1.322 -0.6182 -0.6525 -0.2062
 5218TIP3   OH215617   1.757   0.533   0.637  0.0603 -0.8887 -0.1620
 5218TIP3    H115618   1.703   0.574   0.705  0.9251 -1.6733  1.0422
 5218TIP3    H215619   1.694   0.496   0.575 -0.8046  2.8438 -1.7992
 5219TIP3   OH215620   5.858   3.664   1.426  0.0529  0.4491  0.1260
 5219TIP3    H115621   5.799   3.594   1.396 -0.7830  0.6874  1.1654
 5219TIP3    H215622   5.940   3.648   1.379 -0.4056 -0.7045 -0.3163
 5220TIP3   OH215623   5.815   4.813   3.851 -0.9017 -1.0721 -0.1592
 5220TIP3    H115624   5.895   4.851   3.886 -0.7266 -0.9996 -0.6386
 5220TIP3    H215625   5.765   4.887   3.817 -1.2335 -1.1016  0.2468
 5221TIP3   OH215626   6.119   2.514   5.249 -0.3197  0.0217 -0.1917
 5221TIP3    H115627   6.162   2.586   5.203  1.3294 -1.0548 -0.4039
 5221TIP3    H215628   6.186   2.446   5.255 -1.4570 -1.0377  1.0834
 5222TIP3   OH215629   2.255   1.470   3.483 -0.3007  0.5724  0.0373
 5222TIP3    H115630   2.211   1.548   3.516 -2.8922  0.1412 -2.0133
 5222TIP3    H215631   2.277   1.491   3.392  0.3938 -0.5531 -0.0820
 5223TIP3   OH215632   4.924   5.866   2.535 -0.2675  0.4447 -0.6509
 5223TIP3    H115633   4.875   5.838   2.613  1.3384  0.9922  0.5996
 5223TIP3    H215634   4.901   5.958   2.524  0.9105  0.8829  0.3263
 5224TIP3   OH215635   2.049   3.698   3.808  0.6073 -0.3013 -0.6485
 5224TIP3    H115636   2.095   3.782   3.815  0.6706 -0.4415  1.3463
 5224TIP3    H215637   2.117   3.633   3.827  0.0982 -0.6560 -0.0092
 5225TIP3   OH215638   0.751   2.478   1.188 -0.1781  0.1246 -0.1249
 5225TIP3    H115639   0.662   2.504   1.165 -0.1887 -0.9145 -1.3592
 5225TIP3    H215640   0.804   2.505   1.113  0.5954  0.8330  0.6450
 5226TIP3   OH215641   6.943   1.157   5.125 -0.0485 -0.3833 -0.8891
 5226TIP3    H115642   6.939   1.215   5.050 -0.0327 -1.0948 -1.4525
 5226TIP3    H215643   6.892   1.201   5.193 -1.1934 -0.3619 -1.7474
 5227TIP3   OH215644   0.489   6.674   0.276 -0.5561 -0.6949 -0.2601
 5227TIP3    H115645   0.512   6.761   0.310 -2.1956 -0.3855  0.1517
 5227TIP3    H215646   0.435   6.692   0.199 -1.5994 -1.3191  0.3023
 5228TIP3   OH215647   4.226   5.923   2.171 -0.1182  0.1952  0.0408
 5228TIP3    H115648   4.280   5.902   2.248 -0.6568  1.1197  0.6996
 5228TIP3    H215649   4.238   5.849   2.112  1.7919  0.3239  0.2034
 5229TIP3   OH215650   2.389   2.983   4.674 -0.1686  0.4097  0.2378
 5229TIP3    H115651   2.443   2.909   4.704  0.1467 -0.3109 -1.9634
 5229TIP3    H215652   2.300   2.949   4.675 -0.0982  0.2052 -0.1235
 5230TIP3   OH215653   0.821   1.189   2.516 -0.3476  0.0089  0.2963
 5230TIP3    H115654   0.897   1.206   2.571  0.0594 -0.8517  0.0229
 5230TIP3    H215655   0.825   1.095   2.499 -0.0816  0.3519 -1.7562
 5231TIP3   OH215656   5.822   6.570   2.740 -0.1631  0.6961 -0.1901
 5231TIP3    H115657   5.822   6.657   2.780  2.2980 -0.2183  2.1421
 5231TIP3    H215658   5.752   6.523   2.785 -0.0757  0.8709  0.1335
 5232TIP3   OH215659   4.656   4.013   1.745 -0.1775 -0.3492  0.2825
 5232TIP3    H115660   4.709   4.085   1.709  0.7153 -0.0537  2.0770
 5232TIP3    H215661   4.566   4.046   1.741 -0.7171 -1.6311 -4.7088
 5233TIP3   OH215662   1.674   6.319   4.519 -0.6528  0.1111  0.7625
 5233TIP3    H115663   1.732   6.300   4.445  1.0648 -0.8694  2.2564
 5233TIP3    H215664   1.727   6.373   4.577 -0.7156 -1.7722  2.7182
 5234TIP3   OH215665   5.366   4.016   0.807 -0.1043 -0.6375  0.4582
 5234TIP3    H115666   5.399   4.091   0.856 -1.2889  0.8464 -0.8923
 5234TIP3    H215667   5.275   4.008   0.835 -0.3229 -0.8051 -0.2944
 5235TIP3   OH215668   4.795   4.386   2.285 -0.4683 -0.7783  0.1362
 5235TIP3    H115669   4.830   4.449   2.222 -0.6630 -0.4859  0.3181
 5235TIP3    H215670   4.703   4.409   2.294 -0.3580 -0.5751  0.8107
 5236TIP3   OH215671   3.179   6.047   2.202 -0.5520 -0.1376  0.0379
 5236TIP3    H115672   3.273   6.057   2.189 -0.4964  1.7064  1.3156
 5236TIP3    H215673   3.170   6.023   2.295 -1.3411  0.4271  0.1239
 5237TIP3   OH215674   0.997   6.262   1.525 -0.0775 -0.0851  0.2033
 5237TIP3    H115675   1.039   6.176   1.524  0.6608  0.2542 -1.5047
 5237TIP3    H215676   0.913   6.248   1.483  0.9635  0.3950 -2.2002
 5238TIP3   OH215677   5.929   5.956   0.015 -0.7986  0.8779  0.6747
 5238TIP3    H115678   5.963   6.043  -0.004 -0.4984  1.0014  1.7015
 5238TIP3    H215679   6.007   5.900   0.018 -1.1277  0.2213 -1.6348
 5239TIP3   OH215680   4.071   5.287   3.550 -0.1389 -0.1994 -0.2477
 5239TIP3    H115681   4.080   5.258   3.641  1.8211  1.4840  0.1605
 5239TIP3    H215682   3.977   5.298   3.538 -0.3535  1.6919  2.3426
 5240TIP3   OH215683   6.188   5.370   4.647 -0.0861 -0.1088  0.0602
 5240TIP3    H115684   6.190   5.448   4.702  1.1647  0.5527 -0.8799
 5240TIP3    H215685   6.097   5.362   4.619 -0.3514  0.6419  0.6716
 5241TIP3   OH215686   5.346   2.775   2.776 -0.1264 -0.1570  0.1025
 5241TIP3    H115687   5.355   2.864   2.810  1.5044 -0.9669  1.9943
 5241TIP3    H215688   5.328   2.722   2.854  1.1679 -1.7596 -0.6323
 5242TIP3   OH215689   0.676   0.921   1.700  0.0028  0.8957  0.1395
 5242TIP3    H115690   0.616   0.903   1.628  1.8456  0.6380 -1.4021
 5242TIP3    H215691   0.731   0.843   1.706  1.7176  2.0324 -0.0989
 5243TIP3   OH215692   6.720   1.445   4.426 -0.6834 -0.0472  0.0938
 5243TIP3    H115693   6.695   1.378   4.362 -1.5163  1.9465 -1.8000
 5243TIP3    H215694   6.649   1.509   4.423 -2.3879 -1.1904  5.3277
 5244TIP3   OH215695   2.168   2.817   0.852  0.4362 -0.4775 -0.0077
 5244TIP3    H115696   2.160   2.910   0.829  3.1179 -0.1145  0.0951
 5244TIP3    H215697   2.185   2.773   0.769  0.9557 -0.5689  0.1387
 5245TIP3   OH215698   0.470   6.489   4.159  0.1717  0.0643 -0.6485
 5245TIP3    H115699   0.493   6.468   4.249 -1.0340  0.6718 -0.1755
 5245TIP3    H215700   0.466   6.585   4.157 -2.4219  0.0226 -0.6147
 5246TIP3   OH215701   6.233   1.182   2.626 -0.4856 -0.5533 -0.2388
 5246TIP3    H115702   6.325   1.203   2.607 -0.6833 -1.8092 -3.1600
 5246TIP3    H215703   6.237   1.134   2.709  1.6837 -1.4479 -0.7653
 5247TIP3   OH215704   1.379   4.494   1.588 -0.1593 -0.0713  0.1700
 5247TIP3    H115705   1.396   4.580   1.549  1.1231 -0.6347 -0.5859
 5247TIP3    H215706   1.309   4.457   1.533 -1.4561  0.8554  1.1227
 5248TIP3   OH215707   6.304   6.377   4.326 -0.3710 -0.6824 -0.6900
 5248TIP3    H115708   6.279   6.461   4.286 -0.5598 -0.9291 -1.0980
 5248TIP3    H215709   6.255   6.374   4.408  0.8634  0.3416  0.1411
 5249TIP3   OH215710   0.303   3.040   2.128 -0.7245  0.0924  0.1807
 5249TIP3    H115711   0.325   2.947   2.140 -2.4646 -0.1821  1.8427
 5249TIP3    H215712   0.240   3.058   2.198 -1.3663  2.2170 -0.8726
 5250TIP3   OH215713   6.179   6.149   3.139  0.5290  0.2214 -0.1844
 5250TIP3    H115714   6.219   6.126   3.223 -1.3240  1.5695  1.1786
 5250TIP3    H215715   6.162   6.065   3.096  3.5858 -0.4306 -0.3214
 5251TIP3   OH215716   4.251   4.658   4.729 -1.0857  0.7424  0.2262
 5251TIP3    H115717   4.194   4.598   4.776  0.9711 -1.5020  0.0262
 5251TIP3    H215718   4.223   4.745   4.757 -2.6308 -0.3701  2.3553
 5252TIP3   OH215719   6.575   0.934   2.515  0.1661 -0.0759 -0.3543
 5252TIP3    H115720   6.524   0.875   2.570  0.0944  0.3080 -0.0030
 5252TIP3    H215721   6.539   0.922   2.427  1.0124 -1.5071 -0.5398
 5253TIP3   OH215722   3.901   6.776   0.058 -0.0213 -0.5516 -0.3806
 5253TIP3    H115723   3.922   6.725   0.136 -1.5270 -1.3758 -0.4836
 5253TIP3    H215724   3.926   6.866   0.080  0.6254 -0.9621  0.6137
 5254TIP3   OH215725   1.661   5.964   0.853 -0.4740  0.1670 -0.0115
 5254TIP3    H115726   1.689   6.046   0.893 -1.3944 -0.3754  1.8192
 5254TIP3    H215727   1.679   5.976   0.759  2.5449  1.1565  0.5888
 5255TIP3   OH215728   7.055   6.559   3.686  0.3117  0.6508 -0.1293
 5255TIP3    H115729   7.128   6.497   3.685  0.4501  0.7307  1.5998
 5255TIP3    H215730   7.074   6.617   3.760 -1.3214  0.9079  0.1225
 5256TIP3   OH215731   1.818   0.826   4.602  0.4464  0.2327 -0.0021
 5256TIP3    H115732   1.794   0.756   4.662 -0.4686  0.1888 -0.3902
 5256TIP3    H215733   1.755   0.818   4.530  1.4767  0.3181 -0.9462
 5257TIP3   OH215734   2.957   5.524   2.222  0.1462  0.0082 -0.0504
 5257TIP3    H115735   2.865   5.549   2.235 -0.0179 -1.0484  1.0644
 5257TIP3    H215736   2.983   5.567   2.141 -0.2999  3.1592  1.3528
 5258TIP3   OH215737   3.885   3.276   1.906 -0.2942 -0.1753  0.8270
 5258TIP3    H115738   3.878   3.222   1.827 -1.0483 -0.4823  1.0909
 5258TIP3    H215739   3.940   3.224   1.965 -0.2827 -0.2473  0.7531
 5259TIP3   OH215740   6.319   3.191   4.228 -0.2679 -0.4077 -0.0943
 5259TIP3    H115741   6.334   3.197   4.322  0.3476 -3.0799  0.0562
 5259TIP3    H215742   6.255   3.120   4.218 -2.5636  1.7098 -1.5870
 5260TIP3   OH215743   3.069   2.752   2.314  0.1364  0.3834  0.2071
 5260TIP3    H115744   3.079   2.667   2.270  1.4390  0.3580  0.5220
 5260TIP3    H215745   3.158   2.784   2.325 -0.3709  2.1178 -0.4986
 5261TIP3   OH215746   3.412   2.952   2.111  0.1849 -0.3327 -0.0442
 5261TIP3    H115747   3.395   3.030   2.057  2.2398  1.5717  1.8539
 5261TIP3    H215748   3.383   2.977   2.198 -1.1651 -2.5966  0.2261
 5262TIP3   OH215749   5.048   0.224   0.903 -0.4844  0.0984 -0.0193
 5262TIP3    H115750   4.966   0.240   0.950 -0.4481 -0.0729  0.1021
 5262TIP3    H215751   5.032   0.146   0.851 -0.1187 -0.4467  0.6703
 5263TIP3   OH215752   0.482   0.911   4.369 -0.2896  0.0255 -0.0951
 5263TIP3    H115753   0.495   0.941   4.279 -2.6938  2.3012  0.1703
 5263TIP3    H215754   0.530   0.974   4.423 -1.3216  0.5068  0.2909
 5264TIP3   OH215755   3.945   2.836   2.764  0.3885 -0.2094 -0.6571
 5264TIP3    H115756   3.856   2.865   2.785 -0.2851 -1.3037 -1.9013
 5264TIP3    H215757   3.995   2.855   2.844 -0.4327  2.4173 -0.6597
 5265TIP3   OH215758   0.815   3.394   0.691 -0.2756 -0.8737 -0.2030
 5265TIP3    H115759   0.735   3.360   0.730 -0.1137 -3.6473 -2.0195
 5265TIP3    H215760   0.791   3.415   0.601 -0.0102  2.8649  0.4378
 5266TIP3   OH215761   5.142   3.211   3.249  0.3177  0.0865  0.4391
 5266TIP3    H115762   5.200   3.250   3.315  0.3279 -1.1366  1.1719
 5266TIP3    H215763   5.067   3.180   3.298  0.0853 -0.3746 -0.1972
 5267TIP3   OH215764   3.890   2.649   3.499 -0.1530 -0.0354  0.1204
 5267TIP3    H115765   3.976   2.627   3.463 -0.3232 -0.9854  0.2720
 5267TIP3    H215766   3.878   2.742   3.477  0.0774 -0.3720 -1.6081
 5268TIP3   OH215767   3.070   1.153   4.417  0.0295  0.6275  0.6851
 5268TIP3    H115768   2.976   1.158   4.431 -0.1953  1.9976 -0.9544
 5268TIP3    H215769   3.088   1.060   4.403 -1.1149  0.3866  0.7428
 5269TIP3   OH215770   2.331   1.723   5.474  0.0770 -0.4224 -0.4998
 5269TIP3    H115771   2.413   1.751   5.515  0.9463 -0.7255 -1.9783
 5269TIP3    H215772   2.269   1.792   5.497  0.1590 -1.1344  2.3155
 5270TIP3   OH215773   2.734   2.972   0.090 -0.0797  0.3879 -0.4677
 5270TIP3    H115774   2.724   2.893   0.037 -1.4224 -0.7926  1.4211
 5270TIP3    H215775   2.774   2.941   0.172  0.6338  1.9146 -0.2019
 5271TIP3   OH215776   4.068   5.879   1.781 -0.1584 -0.6613 -0.0015
 5271TIP3    H115777   4.057   5.829   1.862 -0.4316  1.5717  1.4591
 5271TIP3    H215778   3.988   5.863   1.731 -1.0485 -0.3113  1.2556
 5272TIP3   OH215779   5.777   5.887   0.233 -0.0929 -0.1603 -0.4282
 5272TIP3    H115780   5.693   5.855   0.200  0.8988 -1.6303 -1.6939
 5272TIP3    H215781   5.825   5.914   0.154  1.1850 -0.8094  0.0945
 5273TIP3   OH215782   1.297   2.602   4.304  0.0519  0.3859 -0.1463
 5273TIP3    H115783   1.209   2.628   4.278 -0.3229 -0.8368 -0.1486
 5273TIP3    H215784   1.288   2.511   4.332  1.0384  0.6865  1.2480
 5274TIP3   OH215785   4.076   0.083   5.872  0.0774 -0.4469  0.0985
 5274TIP3    H115786   4.169   0.071   5.857  0.1120  1.4421 -1.4743
 5274TIP3    H215787   4.038  -0.005   5.861  1.2500 -0.6877 -2.7521
 5275TIP3   OH215788   6.857   0.791   1.526  0.6734 -0.2778 -0.3342
 5275TIP3    H115789   6.825   0.863   1.580  0.8127  0.0718 -0.7039
 5275TIP3    H215790   6.785   0.729   1.522  0.0778  0.4452 -1.0703
 5276TIP3   OH215791   0.457   0.310   0.644  0.1270  0.2549  0.0829
 5276TIP3    H115792   0.464   0.279   0.554  0.3409 -1.3259  0.6155
 5276TIP3    H215793   0.538   0.358   0.660  0.2463  0.2317 -0.4559
 5277TIP3   OH215794   2.131   1.336   5.594  0.0994  0.2929  0.4156
 5277TIP3    H115795   2.212   1.285   5.582  0.9976  2.0189 -1.4261
 5277TIP3    H215796   2.068   1.295   5.534  1.1867  1.9340 -2.0246
 5278TIP3   OH215797   0.377   0.867   1.617 -0.2678  0.5002  0.0738
 5278TIP3    H115798   0.429   0.813   1.558 -0.4593  0.6912 -0.2744
 5278TIP3    H215799   0.300   0.815   1.637 -0.5517  0.7176 -0.4250
 5279TIP3   OH215800   5.345   2.524   5.797 -0.6983  0.3058 -0.4037
 5279TIP3    H115801   5.398   2.469   5.739 -0.5534 -0.3558  0.3429
 5279TIP3    H215802   5.386   2.610   5.792  1.9512 -0.6775  1.9356
 5280TIP3   OH215803   1.185   4.753   0.170  0.4119  0.2084 -0.2594
 5280TIP3    H115804   1.272   4.725   0.198  0.6524 -0.6501 -1.7356
 5280TIP3    H215805   1.145   4.789   0.249  2.3316  1.2439  0.3221
 5281TIP3   OH215806   2.509   4.642   0.967 -0.2720  1.1281 -0.3402
 5281TIP3    H115807   2.533   4.566   0.915  0.1447  1.8584 -1.2490
 5281TIP3    H215808   2.471   4.606   1.047  1.7401 -0.0507  0.1437
 5282TIP3   OH215809   6.421   4.563   5.434 -0.0238  0.3208 -0.4947
 5282TIP3    H115810   6.347   4.623   5.427 -0.7397 -0.2277  1.6030
 5282TIP3    H215811   6.478   4.602   5.500 -0.5175 -1.2398  0.9323
 5283TIP3   OH215812   4.772   2.446   3.840 -0.5093  0.2424 -0.5088
 5283TIP3    H115813   4.754   2.475   3.929  0.2818  2.2404 -0.9455
 5283TIP3    H215814   4.856   2.401   3.846  0.7695  2.4477 -0.5434
 5284TIP3   OH215815   3.759   2.385   2.672 -0.4470  0.0998  0.0180
 5284TIP3    H115816   3.834   2.328   2.686 -0.6187 -0.1533 -0.0719
 5284TIP3    H215817   3.757   2.443   2.748 -0.5605 -0.3426  0.3545
 5285TIP3   OH215818   6.196   6.416   1.276  0.0184  0.3824 -0.0747
 5285TIP3    H115819   6.239   6.346   1.226 -1.3596  0.1831 -1.0296
 5285TIP3    H215820   6.187   6.488   1.213  0.7964  1.1843  0.7046
 5286TIP3   OH215821   0.800   5.794   3.658  0.0366  0.4090  0.3134
 5286TIP3    H115822   0.782   5.818   3.567 -1.2015 -0.2241  0.3643
 5286TIP3    H215823   0.885   5.833   3.677  0.0920  0.9607 -0.9621
 5287TIP3   OH215824   0.445   5.299   4.116  0.0547  0.3712 -0.5348
 5287TIP3    H115825   0.367   5.324   4.165  0.5398 -0.7127  0.8682
 5287TIP3    H215826   0.412   5.255   4.038 -0.7490  2.6621 -1.5858
 5288TIP3   OH215827   4.231   6.378   4.185  0.0785 -0.0504 -0.0846
 5288TIP3    H115828   4.143   6.367   4.223  0.6317  0.9636  1.6351
 5288TIP3    H215829   4.238   6.473   4.171  0.0825 -0.3506 -2.4078
 5289TIP3   OH215830   0.850   3.528   4.215  0.5088 -0.0772  0.6593
 5289TIP3    H115831   0.862   3.577   4.133 -1.2296 -1.4903 -0.5356
 5289TIP3    H215832   0.862   3.593   4.284 -1.2618  1.9695 -0.8199
 5290TIP3   OH215833   2.341   1.991   1.138 -0.5641  0.2609  0.1065
 5290TIP3    H115834   2.290   2.035   1.206 -1.8153  0.9348 -1.2116
 5290TIP3    H215835   2.325   1.898   1.154  0.7676  0.2899  1.9058
 5291TIP3   OH215836   6.282   0.251   1.613  0.3413 -0.3595 -0.0863
 5291TIP3    H115837   6.249   0.163   1.627 -1.0736  0.2866  0.9338
 5291TIP3    H215838   6.235   0.305   1.677 -0.0724  1.3897 -1.7583
 5292TIP3   OH215839   5.346   5.188   2.668 -0.2884 -0.3540 -0.1869
 5292TIP3    H115840   5.325   5.122   2.735  2.2290 -0.9141  0.1478
 5292TIP3    H215841   5.349   5.271   2.717 -0.6736 -0.4180 -0.0523
 5293TIP3   OH215842   0.740   6.528   4.072 -0.0141 -0.1347  0.6526
 5293TIP3    H115843   0.687   6.449   4.074 -0.2773 -0.0253 -1.0048
 5293TIP3    H215844   0.676   6.600   4.077 -0.1559  0.0092 -1.8982
 5294TIP3   OH215845   2.193   6.533   1.315  0.1398  0.2086  0.5804
 5294TIP3    H115846   2.144   6.512   1.394  1.6092  0.4981  1.6221
 5294TIP3    H215847   2.145   6.607   1.276 -1.8438 -1.3272 -0.0616
 5295TIP3   OH215848   0.063   1.318   0.948  0.3377  0.0917  0.0843
 5295TIP3    H115849   0.025   1.397   0.986 -0.6069 -0.9483  1.3940
 5295TIP3    H215850   0.086   1.343   0.859 -0.2397  1.7386  0.3618
 5296TIP3   OH215851   6.318   4.254   3.377 -0.1477  0.3767  0.2766
 5296TIP3    H115852   6.301   4.325   3.438 -1.5676 -0.6930  1.1812
 5296TIP3    H215853   6.318   4.295   3.290 -0.0160  1.5956  0.8447
 5297TIP3   OH215854   2.648   4.701   2.517 -0.0546  0.8702 -0.1773
 5297TIP3    H115855   2.714   4.726   2.581  1.6421 -0.3555 -1.3712
 5297TIP3    H215856   2.614   4.617   2.550 -1.3895  1.6998  0.6590
 5298TIP3   OH215857   2.621   2.974   3.062  0.5899  0.1772 -0.1606
 5298TIP3    H115858   2.579   3.049   3.020  0.9679  0.3528 -0.2357
 5298TIP3    H215859   2.619   2.994   3.155 -1.4699 -0.8411  0.0478
 5299TIP3   OH215860   2.950   0.813   4.981 -0.0877 -0.0938  0.2941
 5299TIP3    H115861   2.973   0.829   4.889 -2.2292  2.4697  0.0770
 5299TIP3    H215862   3.021   0.854   5.030  1.1184 -1.5588 -0.1420
 5300TIP3   OH215863   6.374   5.572   3.053  0.0756 -0.2702 -0.0769
 5300TIP3    H115864   6.450   5.569   2.994  0.0121  3.2208 -0.5308
 5300TIP3    H215865   6.299   5.553   2.996  0.2517  0.5227 -0.5890
 5301TIP3   OH215866   5.725   0.678   4.347  0.3747 -0.3647  0.3855
 5301TIP3    H115867   5.709   0.684   4.441  0.5656  0.7223  0.3667
 5301TIP3    H215868   5.637   0.668   4.309  0.3013 -0.8728  0.6736
 5302TIP3   OH215869   0.556   3.391   0.805 -0.0671  0.6959 -0.6239
 5302TIP3    H115870   0.495   3.349   0.745 -1.1810  1.9986 -0.4532
 5302TIP3    H215871   0.523   3.480   0.814 -1.0334  0.1283  3.2995
 5303TIP3   OH215872   5.358   2.926   0.890  0.0645 -0.0525  0.0767
 5303TIP3    H115873   5.415   2.866   0.938  0.9452  0.6263 -0.0926
 5303TIP3    H215874   5.332   2.992   0.955 -2.6419 -1.6937  0.8463
 5304TIP3   OH215875   4.335   5.158   3.554  0.1954 -0.6630 -0.3792
 5304TIP3    H115876   4.244   5.186   3.552 -0.2899 -2.1448 -0.2020
 5304TIP3    H215877   4.359   5.148   3.462 -0.3319 -1.7701 -0.4152
 5305TIP3   OH215878   4.959   3.673   3.163 -0.1342  1.1298 -0.1892
 5305TIP3    H115879   4.900   3.607   3.198 -0.4769  1.8871  0.6808
 5305TIP3    H215880   4.926   3.756   3.196  1.3200  1.5911  0.2077
 5306TIP3   OH215881   0.600   6.791   0.623 -0.0077 -0.0817  0.8599
 5306TIP3    H115882   0.562   6.718   0.672  0.1130 -0.3340  0.5866
 5306TIP3    H215883   0.548   6.794   0.542  0.7554 -0.6380  0.3368
 5307TIP3   OH215884   7.132   0.404   5.779 -0.5537  0.3208  0.3206
 5307TIP3    H115885   7.224   0.422   5.760 -0.7723  0.9323 -0.1989
 5307TIP3    H215886   7.129   0.310   5.795  0.3640  0.5026  1.6318
 5308TIP3   OH215887   6.844   3.213   1.962 -0.2166 -0.4060 -0.5643
 5308TIP3    H115888   6.788   3.157   2.016  0.7203 -0.8394 -0.0200
 5308TIP3    H215889   6.786   3.282   1.931 -0.8570 -0.3232  0.7486
 5309TIP3   OH215890   6.354   3.918   2.591 -0.1773 -0.3803  0.2136
 5309TIP3    H115891   6.396   3.921   2.505  0.7010  0.4732  0.6569
 5309TIP3    H215892   6.377   3.832   2.626  0.5162 -0.2439  0.1062
 5310TIP3   OH215893   1.892   6.446   1.430  0.4532  0.1378  0.0388
 5310TIP3    H115894   1.932   6.505   1.495  2.1438  0.0889 -0.9131
 5310TIP3    H215895   1.800   6.440   1.457  0.8523  1.0428  1.7416
 5311TIP3   OH215896   6.034   6.290   2.006  0.5389  0.1901  0.0902
 5311TIP3    H115897   6.068   6.340   2.080 -2.7271  1.9675  0.5619
 5311TIP3    H215898   6.033   6.353   1.934 -0.1447 -0.2928 -0.3307
 5312TIP3   OH215899   1.184   5.099   4.492 -0.4925  0.0003  0.2807
 5312TIP3    H115900   1.268   5.097   4.536 -0.7753 -0.7842  0.8110
 5312TIP3    H215901   1.125   5.141   4.555 -0.8064 -0.7510  0.4981
 5313TIP3   OH215902   4.286   1.150   0.303 -0.2129 -0.2397  0.4676
 5313TIP3    H115903   4.266   1.233   0.259  0.0477 -0.5754 -0.2899
 5313TIP3    H215904   4.376   1.159   0.332 -0.1250 -0.3341  0.2202
 5314TIP3   OH215905   3.565   4.535   5.470 -0.7451  0.2715  0.2814
 5314TIP3    H115906   3.613   4.521   5.388  0.5228  0.0332  1.0509
 5314TIP3    H215907   3.561   4.630   5.480  0.3886  0.2792  0.6865
 5315TIP3   OH215908   2.553   5.737   0.538  0.3933  0.0392  0.3116
 5315TIP3    H115909   2.585   5.811   0.486  1.4191 -0.8013 -0.2999
 5315TIP3    H215910   2.632   5.698   0.574 -0.1847 -0.4318  1.0800
 5316TIP3   OH215911   6.663   5.606   5.786  0.4461 -0.0231  0.1748
 5316TIP3    H115912   6.670   5.576   5.696  0.8918  0.1500  0.1466
 5316TIP3    H215913   6.749   5.586   5.824  0.1266 -0.4672  0.6744
 5317TIP3   OH215914   0.596   5.061   2.314  0.2874 -0.1015  0.1462
 5317TIP3    H115915   0.597   5.014   2.397 -0.3251 -0.1048  0.1593
 5317TIP3    H215916   0.508   5.099   2.309  0.9052  1.3996  0.3334
 5318TIP3   OH215917   5.255   1.812   0.498 -0.4071  0.0396  0.1165
 5318TIP3    H115918   5.245   1.732   0.446 -1.5809  0.9630 -1.1463
 5318TIP3    H215919   5.176   1.863   0.479 -0.1002  1.1238  1.5827
 5319TIP3   OH215920   0.460   4.262   5.656 -0.3827 -0.6358  0.2377
 5319TIP3    H115921   0.413   4.319   5.595 -1.2979 -2.3905 -0.7754
 5319TIP3    H215922   0.428   4.174   5.636  1.3580 -1.5863  1.3889
 5320TIP3   OH215923   7.043   5.884   4.699 -0.1381  0.3209 -0.0090
 5320TIP3    H115924   7.019   5.958   4.644  0.6505  0.6675  0.0898
 5320TIP3    H215925   7.126   5.853   4.663  0.1661  0.2748  0.7043
 5321TIP3   OH215926   6.001   4.719   4.243  0.1077 -0.5154  0.1910
 5321TIP3    H115927   6.062   4.674   4.302  2.7274 -0.2725 -2.1312
 5321TIP3    H215928   6.027   4.690   4.156 -2.7967  0.0934 -0.9750
 5322TIP3   OH215929   6.838   2.024   5.745 -0.0999 -0.4223 -0.3782
 5322TIP3    H115930   6.862   2.066   5.663  0.8347 -1.3116 -0.5922
 5322TIP3    H215931   6.819   2.096   5.805 -2.2318  0.2282 -1.7555
 5323TIP3   OH215932   5.949   4.844   3.266  0.0240  0.0683  0.3552
 5323TIP3    H115933   5.968   4.933   3.236  0.9847  0.1786  1.2478
 5323TIP3    H215934   5.876   4.854   3.326 -0.1369  0.1938  0.1422
 5324TIP3   OH215935   5.638   3.091   3.597 -0.3783 -0.0745  0.7717
 5324TIP3    H115936   5.714   3.066   3.650  0.4751 -1.1092 -0.8599
 5324TIP3    H215937   5.670   3.162   3.541 -0.1858 -1.3392 -0.8019
 5325TIP3   OH215938   6.840   6.245   3.865  0.0067  0.3210  0.7421
 5325TIP3    H115939   6.776   6.301   3.910  0.3469 -0.2026  1.8871
 5325TIP3    H215940   6.787   6.196   3.802 -0.4536  1.1572  0.4486
 5326TIP3   OH215941   2.791   6.573   5.437  0.3177  0.1474  0.2396
 5326TIP3    H115942   2.873   6.574   5.485  1.2613  2.5354 -1.2478
 5326TIP3    H215943   2.795   6.493   5.385  2.1176  0.6034 -0.3984
 5327TIP3   OH215944   1.312   5.775   3.463 -0.1967  0.4325  0.1555
 5327TIP3    H115945   1.393   5.805   3.424 -0.3027  1.6399  0.8144
 5327TIP3    H215946   1.311   5.814   3.551 -0.7415 -0.8465  0.7523
 5328TIP3   OH215947   1.508   1.797   0.048 -0.2914 -0.1777  0.8211
 5328TIP3    H115948   1.591   1.751   0.040 -1.5380 -2.6866  1.2736
 5328TIP3    H215949   1.458   1.745   0.110 -2.0197  1.5722  0.9949
 5329TIP3   OH215950   0.275   6.476   5.416  0.6936 -0.0305 -0.6743
 5329TIP3    H115951   0.360   6.432   5.420  0.5595 -0.2697 -0.3383
 5329TIP3    H215952   0.258   6.504   5.506 -0.1367 -1.0616 -0.4902
 5330TIP3   OH215953   0.048   0.853   2.607 -0.5212  0.1402  0.4936
 5330TIP3    H115954   0.031   0.937   2.565 -0.5148 -0.6484 -1.1779
 5330TIP3    H215955   0.099   0.874   2.685 -1.7529  1.7942  0.8962
 5331TIP3   OH215956   3.867   0.954   2.718 -0.5490  0.0801  0.3331
 5331TIP3    H115957   3.934   0.929   2.655  0.1757 -1.2495  1.5658
 5331TIP3    H215958   3.802   1.002   2.667  0.2443 -0.5247 -1.3096
 5332TIP3   OH215959   5.744   1.632   2.264 -0.5472  0.1599  0.3413
 5332TIP3    H115960   5.814   1.648   2.201 -0.0017  1.0515  1.1409
 5332TIP3    H215961   5.772   1.679   2.343 -2.4107  1.2153  0.4350
 5333TIP3   OH215962   6.160   4.582   2.921 -0.1075  0.3449 -0.3905
 5333TIP3    H115963   6.087   4.543   2.969 -0.7742  1.8495 -0.0977
 5333TIP3    H215964   6.125   4.666   2.890  1.2406  0.7146 -0.9704
 5334TIP3   OH215965   2.702   2.895   0.756  0.1741 -0.2609  0.3915
 5334TIP3    H115966   2.763   2.823   0.743  0.9192  0.1960  1.2449
 5334TIP3    H215967   2.754   2.964   0.798 -0.3969  0.9687 -0.8231
 5335TIP3   OH215968   6.376   1.558   4.074  0.0287  0.1100 -0.0941
 5335TIP3    H115969   6.320   1.620   4.026  0.3914  0.9772  0.5892
 5335TIP3    H215970   6.461   1.566   4.032 -0.2109 -0.8151 -0.7815
 5336TIP3   OH215971   1.407   4.955   0.378  0.8622 -0.0626 -0.1325
 5336TIP3    H115972   1.362   4.974   0.296 -1.6299  0.0139  1.1332
 5336TIP3    H215973   1.456   5.034   0.398  1.3262 -0.0105 -1.4281
 5337TIP3   OH215974   5.667   1.925   3.302  0.3388  0.1201  0.0029
 5337TIP3    H115975   5.592   1.956   3.252 -1.2783  1.0623  2.7842
 5337TIP3    H215976   5.718   2.004   3.321 -0.3021  0.1950  1.6364
 5338TIP3   OH215977   6.451   2.757   4.447  0.3431  0.4699  0.1063
 5338TIP3    H115978   6.367   2.760   4.402  0.2578  0.1649  0.2407
 5338TIP3    H215979   6.458   2.842   4.490  0.2581  0.6234 -0.1801
 5339TIP3   OH215980   4.714   3.808   5.883 -0.0222  0.3360  0.1239
 5339TIP3    H115981   4.621   3.829   5.884 -0.1228 -0.0830 -0.1254
 5339TIP3    H215982   4.757   3.892   5.864 -0.4563  0.2106 -1.5615
 5340TIP3   OH215983   1.354   3.688   0.683 -0.1458 -0.2264 -0.0667
 5340TIP3    H115984   1.426   3.697   0.745  1.2666 -0.5348 -1.5905
 5340TIP3    H215985   1.331   3.778   0.659 -1.1746 -0.0746  1.3747
 5341TIP3   OH215986   5.147   2.044   5.184  0.1230  0.4899 -0.3607
 5341TIP3    H115987   5.130   2.072   5.274 -1.5709  0.6105 -0.6836
 5341TIP3    H215988   5.200   2.114   5.147 -1.8419  2.0780 -0.3641
 5342TIP3   OH215989   1.596   6.425   5.804  0.3603 -0.3688  0.1568
 5342TIP3    H115990   1.601   6.437   5.899 -0.5646  0.3581  0.1270
 5342TIP3    H215991   1.660   6.487   5.768 -0.2873  0.3737  0.2578
 5343TIP3   OH215992   2.788   0.460   2.311 -0.4116 -0.2792 -0.1250
 5343TIP3    H115993   2.713   0.518   2.322 -0.9271 -0.9281 -0.1327
 5343TIP3    H215994   2.853   0.494   2.372  0.3370  1.9350 -2.0484
 5344TIP3   OH215995   0.064   3.409   5.763 -0.5147 -0.1863 -0.2981
 5344TIP3    H115996   0.123   3.345   5.801 -0.0092  0.4699  0.0361
 5344TIP3    H215997   0.045   3.470   5.834 -0.4548  0.4135 -0.7845
 5345TIP3   OH215998   4.071   3.100   4.105  0.3557  0.2115  0.1251
 5345TIP3    H115999   4.061   3.183   4.059  2.9109  0.8131  0.5146
 5345TIP3    H216000   4.111   3.042   4.041 -0.5031 -0.4507  0.1662
 5346TIP3   OH216001   6.487   3.194   3.790  0.2349 -0.0550  0.0968
 5346TIP3    H116002   6.564   3.143   3.816  0.0721 -0.5372 -0.3566
 5346TIP3    H216003   6.434   3.133   3.739 -0.5518  0.2042  0.5757
 5347TIP3   OH216004   4.117   5.645   2.857 -0.3943 -0.0348  0.0933
 5347TIP3    H116005   4.063   5.675   2.930  0.6706  1.5690  0.2671
 5347TIP3    H216006   4.181   5.586   2.896  0.8850  1.6771  0.7125
 5348TIP3   OH216007   5.280   3.783   1.870 -0.2399 -0.1999 -0.4909
 5348TIP3    H116008   5.220   3.709   1.877 -1.0127  0.2624 -1.7407
 5348TIP3    H216009   5.367   3.744   1.863 -0.5153 -0.9362  0.0955
 5349TIP3   OH216010   4.445   2.739   2.249 -0.3367 -0.3264 -0.1095
 5349TIP3    H116011   4.466   2.668   2.188  0.0652 -0.0387 -0.3113
 5349TIP3    H216012   4.477   2.707   2.334  0.0191 -0.3077 -0.2349
 5350TIP3   OH216013   1.019   0.508   2.901  0.3889 -0.3225  0.7741
 5350TIP3    H116014   0.931   0.490   2.935 -0.4453  3.2932  1.0265
 5350TIP3    H216015   1.008   0.510   2.806  0.4849 -1.0749  0.7470
 5351TIP3   OH216016   1.573   3.531   0.852 -0.2120 -0.4902 -0.5296
 5351TIP3    H116017   1.528   3.460   0.897 -2.7967 -0.0387 -2.1667
 5351TIP3    H216018   1.627   3.572   0.920 -0.2098 -2.7192  0.9226
 5352TIP3   OH216019   2.086   0.730   3.940  0.0181  0.2567  0.0172
 5352TIP3    H116020   2.000   0.738   3.900 -0.1791  2.8016  0.7476
 5352TIP3    H216021   2.136   0.675   3.880 -2.1466 -1.5431 -0.2674
 5353TIP3   OH216022   2.027   4.581   0.522  0.0537  0.1158  0.4331
 5353TIP3    H116023   2.083   4.518   0.567  0.3646  1.5988  2.2509
 5353TIP3    H216024   1.944   4.535   0.510 -0.3139 -0.1361  3.2996
 5354TIP3   OH216025   3.520   3.814   0.722 -0.2106 -0.1728 -0.1788
 5354TIP3    H116026   3.604   3.860   0.728  0.3845 -0.8578 -2.2392
 5354TIP3    H216027   3.460   3.878   0.684 -0.1661 -0.1930 -0.2839
 5355TIP3   OH216028   2.747   6.386   4.254  0.2010 -0.0710  0.2288
 5355TIP3    H116029   2.795   6.453   4.302  1.2698 -1.8778  1.8568
 5355TIP3    H216030   2.813   6.344   4.199 -0.4421  0.1831 -0.7431
 5356TIP3   OH216031   3.172   1.175   1.464 -0.2545  0.3327 -0.0635
 5356TIP3    H116032   3.105   1.117   1.428 -0.2736 -0.8807  1.7907
 5356TIP3    H216033   3.239   1.180   1.396 -0.9586 -0.6399 -0.8627
 5357TIP3   OH216034   4.537   2.291   0.909  0.0459  1.2051  0.7980
 5357TIP3    H116035   4.533   2.376   0.953  0.5335  0.7275  1.8126
 5357TIP3    H216036   4.626   2.259   0.925 -0.7779 -0.4864  2.4088
 5358TIP3   OH216037   6.623   1.639   2.315  0.7402 -0.3957  0.1103
 5358TIP3    H116038   6.552   1.616   2.375 -0.9937 -0.2157 -1.7965
 5358TIP3    H216039   6.648   1.557   2.274  1.9719 -0.5273  1.0524
 5359TIP3   OH216040   3.496   2.605   4.728 -0.1042 -0.4662 -0.6802
 5359TIP3    H116041   3.448   2.688   4.723  2.1530  0.9391 -0.3586
 5359TIP3    H216042   3.530   2.603   4.817 -0.2254 -1.8215 -0.6493
 5360TIP3   OH216043   2.742   5.676   3.574  0.8240  0.3877 -0.9624
 5360TIP3    H116044   2.682   5.628   3.517 -0.0911  0.7928 -0.3781
 5360TIP3    H216045   2.786   5.738   3.516  0.9234 -0.1295 -1.4555
 5361TIP3   OH216046   4.819   2.536   4.084  0.0276  0.3988 -0.3505
 5361TIP3    H116047   4.872   2.615   4.086  1.4115 -0.4834  2.3534
 5361TIP3    H216048   4.873   2.470   4.126 -3.0634 -0.6169  2.4147
 5362TIP3   OH216049   1.662   6.741   5.347 -0.3962  0.7752 -0.1548
 5362TIP3    H116050   1.757   6.740   5.330 -0.0199 -1.0725  1.7262
 5362TIP3    H216051   1.638   6.649   5.353 -1.2990  1.0975  4.2747
 5363TIP3   OH216052   1.028   4.079   5.623  0.1738 -0.1871 -0.1846
 5363TIP3    H116053   0.961   4.143   5.649  2.2294  2.3294 -0.6456
 5363TIP3    H216054   1.085   4.071   5.700  0.4099 -0.8612 -0.4228
 5364TIP3   OH216055   2.518   0.214   1.252 -0.7933  0.5244  0.0890
 5364TIP3    H116056   2.457   0.257   1.192 -1.8731 -0.2291  0.6184
 5364TIP3    H216057   2.526   0.125   1.219 -2.4781 -0.3210  1.7771
 5365TIP3   OH216058   2.087   4.225   1.906 -0.1873  0.3243  0.5276
 5365TIP3    H116059   2.106   4.319   1.907 -0.8466  0.4612  1.3097
 5365TIP3    H216060   2.107   4.197   1.817  0.6867  1.0638  0.4830
 5366TIP3   OH216061   0.641   5.632   0.714  0.2071 -0.9013  0.1263
 5366TIP3    H116062   0.695   5.699   0.756  1.1194 -0.8333 -1.1158
 5366TIP3    H216063   0.687   5.550   0.732  0.0803 -0.9826  0.0790
 5367TIP3   OH216064   5.285   2.300   5.236  0.4625 -0.4713  0.0827
 5367TIP3    H116065   5.372   2.319   5.270  0.4590 -0.4348  0.0714
 5367TIP3    H216066   5.260   2.379   5.188  0.7605 -0.7849 -0.6057
 5368TIP3   OH216067   3.767   0.516   2.215  0.3239  0.1911  0.1634
 5368TIP3    H116068   3.735   0.453   2.150 -0.8488  1.9173 -1.0055
 5368TIP3    H216069   3.697   0.522   2.280  0.4923  0.1954  0.3443
 5369TIP3   OH216070   2.402   1.727   3.042  0.6279  0.6001  0.2145
 5369TIP3    H116071   2.496   1.745   3.049  0.7336  0.1431 -0.0325
 5369TIP3    H216072   2.378   1.754   2.954  0.7980 -0.4915 -0.1804
 5370TIP3   OH216073   0.033   4.446   3.589  0.7500  0.2408  0.5972
 5370TIP3    H116074   0.029   4.350   3.589 -2.0971  0.2737  1.3917
 5370TIP3    H216075  -0.020   4.472   3.514  1.8697  1.2375  0.1203
 5371TIP3   OH216076   6.123   6.466   4.912 -0.4839 -0.7948  0.6552
 5371TIP3    H116077   6.058   6.468   4.842  0.7886 -1.2322 -0.5803
 5371TIP3    H216078   6.203   6.436   4.870 -0.0019 -2.4127  2.5781
 5372TIP3   OH216079   4.382   2.813   4.529 -0.2349  0.5555 -0.1740
 5372TIP3    H116080   4.458   2.869   4.510 -0.2350  0.3118 -0.9368
 5372TIP3    H216081   4.361   2.772   4.445  0.0911 -1.0123  0.4787
 5373TIP3   OH216082   0.769   1.851   1.240 -0.1311 -0.2508  0.3275
 5373TIP3    H116083   0.768   1.843   1.335  1.2007 -0.8166  0.3215
 5373TIP3    H216084   0.679   1.834   1.213 -0.7574  0.9227  1.5485
 5374TIP3   OH216085   0.589   1.283   0.978  0.5483 -0.7313 -0.2587
 5374TIP3    H116086   0.622   1.241   0.898 -0.7848 -2.6471  0.1142
 5374TIP3    H216087   0.505   1.239   0.994  0.5848 -0.0795  1.9468
 5375TIP3   OH216088   5.649   1.127   4.229  0.1624  0.0277  0.1107
 5375TIP3    H116089   5.614   1.056   4.283 -2.4506  1.8095  0.9746
 5375TIP3    H216090   5.632   1.206   4.281  1.3541  1.4483 -1.5591
 5376TIP3   OH216091   5.978   1.419   2.435 -0.0580  0.7501 -0.0743
 5376TIP3    H116092   5.882   1.414   2.429  0.0110  0.0066 -0.7174
 5376TIP3    H216093   5.998   1.381   2.520 -0.2637 -0.3761 -0.5013
 5377TIP3   OH216094   2.610   0.703   2.328 -0.0542  0.1718 -0.1826
 5377TIP3    H116095   2.515   0.708   2.324 -0.0535  3.3021  0.9312
 5377TIP3    H216096   2.629   0.682   2.420  0.3364 -0.6770 -0.4511
 5378TIP3   OH216097   5.243   0.882   3.681 -0.7676 -0.2698  0.2317
 5378TIP3    H116098   5.186   0.902   3.755 -0.4046  0.0145  0.4402
 5378TIP3    H216099   5.293   0.806   3.709 -0.9710 -0.4581  0.0876
 5379TIP3   OH216100   0.346   4.529   2.560  0.1304 -0.0970 -0.2856
 5379TIP3    H116101   0.362   4.567   2.646  4.1487 -2.3051  0.1958
 5379TIP3    H216102   0.262   4.485   2.568 -0.1268  0.6975  2.1462
 5380TIP3   OH216103   4.974   1.746   4.422 -0.0365  0.9727 -0.0814
 5380TIP3    H116104   4.917   1.786   4.488 -1.3652  2.2010 -1.8570
 5380TIP3    H216105   5.062   1.750   4.460 -0.9946 -0.4679  2.5122
 5381TIP3   OH216106   5.047   5.459   4.686 -0.4231 -0.6125 -0.3034
 5381TIP3    H116107   5.063   5.466   4.780 -0.3909  2.3959 -0.4607
 5381TIP3    H216108   5.133   5.438   4.649 -0.3363 -1.2959  0.2495
 5382TIP3   OH216109   0.871   2.531   2.909  0.2308  0.1500 -0.8964
 5382TIP3    H116110   0.784   2.559   2.879  0.6082  0.6202 -1.5722
 5382TIP3    H216111   0.907   2.482   2.836  0.4281 -0.2784 -0.5121
 5383TIP3   OH216112   5.581   0.870   3.728  0.6712 -0.4797  0.2984
 5383TIP3    H116113   5.617   0.902   3.811 -0.2943  0.9841  0.1765
 5383TIP3    H216114   5.618   0.928   3.662  1.2880 -1.5275 -0.3034
 5384TIP3   OH216115   3.298   3.192   0.212  0.3875  0.2352  0.0190
 5384TIP3    H116116   3.209   3.157   0.220  0.6232 -0.5936 -0.7854
 5384TIP3    H216117   3.354   3.124   0.249  0.7425  0.4060 -0.1958
 5385TIP3   OH216118   0.685   1.098   3.455  0.0133 -0.1065 -0.3615
 5385TIP3    H116119   0.615   1.048   3.498 -1.1145  2.7794  1.4448
 5385TIP3    H216120   0.641   1.175   3.419  1.8544  0.2933 -1.9411
 5386TIP3   OH216121   1.830   2.081   5.667  0.2511  0.1002  0.4402
 5386TIP3    H116122   1.886   2.158   5.659 -1.3621  1.7002  3.1209
 5386TIP3    H216123   1.872   2.027   5.733  0.5865 -0.6209 -0.3429
 5387TIP3   OH216124   4.767   6.531   1.272 -0.0074 -0.0527 -0.0221
 5387TIP3    H116125   4.835   6.464   1.257 -0.5313 -0.2521 -1.7614
 5387TIP3    H216126   4.740   6.558   1.184 -0.3088  1.9709  0.6348
 5388TIP3   OH216127   6.681   5.288   5.328 -0.4614  0.1980 -0.3815
 5388TIP3    H116128   6.722   5.236   5.259 -0.9776  0.6574 -1.0458
 5388TIP3    H216129   6.681   5.230   5.405  0.8772 -0.0136 -0.5242
 5389TIP3   OH216130   3.113   3.472   1.109  0.2884  0.3124 -0.2261
 5389TIP3    H116131   3.172   3.546   1.091  2.1889 -1.1001 -0.1056
 5389TIP3    H216132   3.038   3.487   1.052  1.0881  1.7899 -0.9578
 5390TIP3   OH216133   0.142   6.068   2.666  0.2543 -1.0144  0.3290
 5390TIP3    H116134   0.115   6.160   2.658  2.9251 -0.2162 -0.3538
 5390TIP3    H216135   0.060   6.019   2.665 -1.1649  1.1059 -2.6892
 5391TIP3   OH216136   6.231   2.724   4.271 -0.1235 -0.5337 -0.6995
 5391TIP3    H116137   6.255   2.794   4.211 -0.3799  0.7561  0.6443
 5391TIP3    H216138   6.149   2.690   4.237 -0.5332  0.5330 -0.8075
 5392TIP3   OH216139   0.678   5.345   5.746  0.2263  0.2393 -0.4739
 5392TIP3    H116140   0.595   5.393   5.739  0.4757  1.0182  1.2771
 5392TIP3    H216141   0.660   5.278   5.813  0.8656  0.1003 -0.4368
 5393TIP3   OH216142   4.004   4.986   3.659 -0.1124  0.2291 -0.4986
 5393TIP3    H116143   3.922   5.027   3.633 -0.7204  1.3202  2.7429
 5393TIP3    H216144   4.048   5.051   3.714  2.4719 -0.7444 -1.2283
 5394TIP3   OH216145   3.704   6.163   5.422 -0.1572  0.3053 -0.1020
 5394TIP3    H116146   3.621   6.195   5.458 -0.9642 -1.3200 -0.4117
 5394TIP3    H216147   3.685   6.149   5.329  0.4336 -0.2207 -0.1436
 5395TIP3   OH216148   5.526   0.718   2.690 -0.4922 -0.5265  0.4108
 5395TIP3    H116149   5.622   0.714   2.682 -0.5855 -0.1444 -1.3482
 5395TIP3    H216150   5.504   0.649   2.751  0.8704 -1.0259  0.3750
 5396TIP3   OH216151   1.688   4.095   4.831  0.1817 -0.2407 -0.2267
 5396TIP3    H116152   1.617   4.152   4.800 -0.1185 -0.6009 -0.2130
 5396TIP3    H216153   1.648   4.008   4.835 -0.1808 -0.0431  2.4032
 5397TIP3   OH216154   2.663   6.060   4.041 -0.0627 -0.6432 -0.1015
 5397TIP3    H116155   2.717   6.049   4.120  0.2970 -0.8586 -0.3729
 5397TIP3    H216156   2.620   5.976   4.030 -0.1581 -0.5941 -0.1033
 5398TIP3   OH216157   2.174   3.390   5.880  0.0029  0.4951  0.3707
 5398TIP3    H116158   2.171   3.460   5.815 -2.1123  2.4175  2.3675
 5398TIP3    H216159   2.084   3.384   5.913  1.1384  0.3291  3.8163
 5399TIP3   OH216160   6.297   4.626   1.179 -0.8525  0.2173 -0.2141
 5399TIP3    H116161   6.287   4.719   1.161 -1.9386  0.0228 -0.6753
 5399TIP3    H216162   6.386   4.617   1.213 -0.4892  1.3155 -0.8505
 5400TIP3   OH216163   4.546   3.732   3.174 -0.2079  0.0100 -0.2445
 5400TIP3    H116164   4.575   3.663   3.114  0.1043 -0.6284  0.6225
 5400TIP3    H216165   4.625   3.783   3.191 -0.4449  0.6277 -0.9106
 5401TIP3   OH216166   2.454   1.452   1.552  0.1869  0.8504  0.1893
 5401TIP3    H116167   2.375   1.506   1.565  0.2955  1.4130 -1.2124
 5401TIP3    H216168   2.517   1.486   1.614 -1.0074 -0.3979  2.2017
 5402TIP3   OH216169   3.334   2.145   4.835  0.2437 -0.5144 -0.7409
 5402TIP3    H116170   3.246   2.111   4.853 -0.0804  0.2028 -0.9531
 5402TIP3    H216171   3.385   2.067   4.815  0.1704 -1.1941  1.4057
 5403TIP3   OH216172   3.696   2.647   3.690 -0.7000 -0.0031  0.7288
 5403TIP3    H116173   3.771   2.616   3.638 -0.2485  1.5975  0.3684
 5403TIP3    H216174   3.666   2.725   3.644 -2.6381 -0.6259  0.8666
 5404TIP3   OH216175   2.948   2.023   4.158 -0.0786 -0.1779 -0.4523
 5404TIP3    H116176   2.970   1.959   4.226  0.5582 -0.6923 -1.1245
 5404TIP3    H216177   2.977   2.107   4.194 -0.5346 -0.3110  0.2626
 5405TIP3   OH216178   3.067   1.157   0.194 -0.3740  0.1642 -0.5049
 5405TIP3    H116179   2.984   1.185   0.233 -0.2258  1.3556 -1.0069
 5405TIP3    H216180   3.059   1.062   0.186 -1.5423  0.2229 -0.2155
 5406TIP3   OH216181   4.863   1.378   4.502 -0.3159  0.6974  0.3928
 5406TIP3    H116182   4.872   1.308   4.567  0.1622 -0.0277 -0.4445
 5406TIP3    H216183   4.938   1.367   4.444 -1.3074  0.6822 -0.9159
 5407TIP3   OH216184   6.734   6.789   3.436 -0.8652  0.1879 -0.6566
 5407TIP3    H116185   6.769   6.844   3.505 -0.0586 -0.4731 -0.5322
 5407TIP3    H216186   6.794   6.715   3.430 -1.3918 -0.1961 -1.4828
 5408TIP3   OH216187   6.351   6.095   4.275 -0.1565 -0.0180  0.0092
 5408TIP3    H116188   6.432   6.069   4.230 -0.9949 -1.6379 -0.6267
 5408TIP3    H216189   6.364   6.188   4.293  1.1843  0.1585 -1.5211
 5409TIP3   OH216190   5.426   2.738   5.191  0.0592  0.1279  0.1479
 5409TIP3    H116191   5.516   2.748   5.221 -0.3647  1.1312  1.1563
 5409TIP3    H216192   5.391   2.827   5.190 -0.8079 -0.2031 -0.6225
 5410TIP3   OH216193   6.562   2.375   4.066 -0.0813 -0.4814 -0.3462
 5410TIP3    H116194   6.641   2.422   4.095  1.3564 -0.9684 -3.1230
 5410TIP3    H216195   6.520   2.434   4.004  0.3580 -1.7902 -1.9486
 5411TIP3   OH216196   0.151   2.229   5.308 -0.3230 -0.1932  0.1164
 5411TIP3    H116197   0.224   2.168   5.318 -1.1405 -1.2353 -0.0803
 5411TIP3    H216198   0.107   2.226   5.393  0.5191  1.3567  0.6556
 5412TIP3   OH216199   0.588   3.797   0.336 -0.1350 -0.2592  0.0917
 5412TIP3    H116200   0.523   3.727   0.337  1.3817 -1.7336  0.7866
 5412TIP3    H216201   0.667   3.756   0.299  0.2334  1.6665 -1.4143
 5413TIP3   OH216202   6.782   6.619   2.494  0.1602  0.2015  0.1308
 5413TIP3    H116203   6.718   6.618   2.423  0.5855 -0.8851 -0.2574
 5413TIP3    H216204   6.729   6.619   2.574 -0.4398 -2.9083 -0.1268
 5414TIP3   OH216205   1.647   5.512   4.569  0.0915  0.4239  1.0031
 5414TIP3    H116206   1.596   5.477   4.496  0.9993  1.4550 -0.1508
 5414TIP3    H216207   1.636   5.447   4.638 -0.9280 -0.4944  0.0217
 5415TIP3   OH216208   4.188   1.811   2.939  0.3715 -0.1615 -0.0318
 5415TIP3    H116209   4.180   1.750   3.012  0.5310 -1.6823 -1.2575
 5415TIP3    H216210   4.282   1.814   2.921  0.3019 -0.0351 -0.3802
 5416TIP3   OH216211   7.077   0.624   1.487 -0.1733  0.4341  0.2720
 5416TIP3    H116212   6.991   0.660   1.465 -0.9005 -0.9998  0.6356
 5416TIP3    H216213   7.060   0.567   1.562  1.1489  0.3107  0.4920
 5417TIP3   OH216214   5.699   2.199   4.728  0.6948  0.6680 -0.1804
 5417TIP3    H116215   5.696   2.234   4.817 -2.5874 -0.0322  0.1446
 5417TIP3    H216216   5.749   2.118   4.735 -2.4675 -1.3120  1.9892
 5418TIP3   OH216217   6.914   4.148   2.830  0.2993 -0.0218  0.4371
 5418TIP3    H116218   6.878   4.099   2.757  2.0943  0.6710 -0.9837
 5418TIP3    H216219   6.891   4.096   2.907 -3.3770  0.2391 -0.2945
 5419TIP3   OH216220   2.309   5.792   0.162  0.7827 -0.2410  0.4918
 5419TIP3    H116221   2.263   5.873   0.181  1.2293  0.2360 -0.3980
 5419TIP3    H216222   2.292   5.736   0.238 -2.2743 -0.5472 -0.2937
 5420TIP3   OH216223   3.208   6.184   1.441 -0.4208  0.4666 -0.2393
 5420TIP3    H116224   3.220   6.091   1.419  0.2840  0.3777  0.4549
 5420TIP3    H216225   3.134   6.212   1.388 -0.2035 -0.3162 -0.9851
 5421TIP3   OH216226   3.956   2.321   1.359  0.4677 -0.0326 -0.0447
 5421TIP3    H116227   3.877   2.290   1.315  0.3313  0.2091  0.0303
 5421TIP3    H216228   3.927   2.351   1.444  0.6402  0.0597 -0.0167
 5422TIP3   OH216229   4.695   0.649   2.160 -0.3046  0.4379 -0.1103
 5422TIP3    H116230   4.741   0.601   2.228  1.6053 -0.0344 -1.6358
 5422TIP3    H216231   4.626   0.590   2.131  0.1724 -0.1936  0.0257
 5423TIP3   OH216232   6.348   1.063   1.429  0.2252 -0.2689 -0.0919
 5423TIP3    H116233   6.254   1.046   1.434 -0.0208  0.8736 -0.4487
 5423TIP3    H216234   6.358   1.119   1.352  0.8536  1.7567  1.3967
 5424TIP3   OH216235   3.033   6.720   5.202 -0.2338  0.3956 -0.0523
 5424TIP3    H116236   3.100   6.755   5.261  1.4019  0.9829 -2.1022
 5424TIP3    H216237   3.055   6.759   5.117 -2.3729 -0.5271 -1.0903
 5425TIP3   OH216238   1.555   0.086   2.671  0.1966 -0.7006  0.0354
 5425TIP3    H116239   1.522   0.175   2.679  0.9996 -0.2156 -1.6666
 5425TIP3    H216240   1.650   0.095   2.667  0.2730 -1.5702 -0.5844
 5426TIP3   OH216241   6.665   4.272   4.061  0.0562 -0.2535 -0.0606
 5426TIP3    H116242   6.606   4.305   4.129  1.3415 -0.6489  1.2935
 5426TIP3    H216243   6.613   4.206   4.016 -0.1951 -1.5397  1.9545
 5427TIP3   OH216244   4.073   2.831   0.465 -0.3921  0.2004 -0.7198
 5427TIP3    H116245   4.115   2.776   0.399 -2.6698  1.1667 -3.1843
 5427TIP3    H216246   4.051   2.771   0.536  1.1064 -1.1475 -1.3220
 5428TIP3   OH216247   4.680   0.140   0.806  0.1971 -0.0081 -0.4585
 5428TIP3    H116248   4.679   0.225   0.850 -2.0385 -0.3731  0.3756
 5428TIP3    H216249   4.692   0.076   0.877  1.3179 -0.4226 -1.0058
 5429TIP3   OH216250   3.577   0.038   4.847 -0.0767  0.5876  0.4445
 5429TIP3    H116251   3.505   0.042   4.910 -0.8926 -1.3422 -0.2978
 5429TIP3    H216252   3.655   0.021   4.900 -0.7529 -1.0690  0.9533
 5430TIP3   OH216253   6.004   6.797   0.158  0.0288  0.6551 -0.4493
 5430TIP3    H116254   5.940   6.848   0.110  0.8191  1.2109 -0.9431
 5430TIP3    H216255   5.952   6.735   0.210 -0.8610  0.4405 -1.5611
 5431TIP3   OH216256   3.783   1.565   3.409  0.5224 -0.3444 -0.2021
 5431TIP3    H116257   3.790   1.472   3.432  0.6910 -1.5908 -4.3857
 5431TIP3    H216258   3.696   1.575   3.372  1.1967  0.5938 -1.6606
 5432TIP3   OH216259   4.167   2.775   5.039 -0.2735  0.2483 -0.2045
 5432TIP3    H116260   4.192   2.718   5.112 -1.2209 -0.7795 -0.6393
 5432TIP3    H216261   4.135   2.855   5.080 -1.7217 -0.6951  0.5625
 5433TIP3   OH216262   0.439   2.331   2.149  0.2604  0.1774  0.7288
 5433TIP3    H116263   0.356   2.361   2.185  0.3378  1.4295 -0.1071
 5433TIP3    H216264   0.469   2.402   2.093  1.0904 -0.9355 -0.2913
 5434TIP3   OH216265   6.602   1.287   3.723 -0.0246  0.4424  0.4843
 5434TIP3    H116266   6.654   1.349   3.673  0.4172  0.5409  1.0573
 5434TIP3    H216267   6.665   1.240   3.777 -0.3237 -0.6483 -0.0710
 5435TIP3   OH216268   4.146   1.467   2.419  0.3624 -0.1227  0.2731
 5435TIP3    H116269   4.061   1.429   2.398  0.2661  0.4342 -0.4101
 5435TIP3    H216270   4.210   1.402   2.391  0.1818 -0.0743 -0.2749
 5436TIP3   OH216271   4.442   4.741   5.882  0.1970 -0.2194  0.0053
 5436TIP3    H116272   4.496   4.663   5.876 -0.1563 -0.8370  3.1243
 5436TIP3    H216273   4.354   4.712   5.860  0.5266  0.0888 -1.9375
 5437TIP3   OH216274   2.165   5.106   5.241  0.1990 -0.0571  0.4909
 5437TIP3    H116275   2.121   5.080   5.160 -1.1163  0.0901  1.1184
 5437TIP3    H216276   2.179   5.024   5.289  0.8507 -0.1297  0.1822
 5438TIP3   OH216277   0.980   3.285   5.665 -0.2403  0.1307 -0.2108
 5438TIP3    H116278   1.041   3.338   5.614  0.5068  0.8670  1.3618
 5438TIP3    H216279   1.024   3.200   5.676  0.3801  0.5458  0.6270
 5439TIP3   OH216280   3.138   3.732   0.418 -0.1990  0.0684 -0.1849
 5439TIP3    H116281   3.201   3.700   0.482  0.2866  0.6405 -0.3662
 5439TIP3    H216282   3.059   3.678   0.432  0.5832 -1.2063 -0.4815
 5440TIP3   OH216283   5.008   5.086   1.040  0.2065 -0.4904  0.5077
 5440TIP3    H116284   4.949   5.016   1.012  1.3159 -1.2654  0.0459
 5440TIP3    H216285   4.950   5.160   1.059 -1.1527 -1.9474  2.4605
 5441TIP3   OH216286   0.589   2.912   4.496 -0.2728  0.3836 -0.1265
 5441TIP3    H116287   0.651   2.839   4.507 -0.0027  0.4754 -0.9779
 5441TIP3    H216288   0.546   2.895   4.413 -1.9745 -0.0798  0.7976
 5442TIP3   OH216289   0.233   0.674   4.510 -0.1307  0.1490  0.3034
 5442TIP3    H116290   0.290   0.638   4.442  1.4802  0.1678  1.5666
 5442TIP3    H216291   0.293   0.698   4.581 -1.5718  1.5836  1.1144
 5443TIP3   OH216292   0.960   3.508   0.901 -0.1748  0.1542  0.1554
 5443TIP3    H116293   0.913   3.506   0.984 -1.5068  1.3850 -0.5309
 5443TIP3    H216294   0.899   3.470   0.838  0.5393 -0.0978 -0.3970
 5444TIP3   OH216295   5.435   0.182   5.009 -0.4042 -0.0728 -0.0823
 5444TIP3    H116296   5.383   0.188   4.929 -2.0083  0.7861  0.9800
 5444TIP3    H216297   5.498   0.112   4.992 -0.7243  0.0826 -2.0697
 5445TIP3   OH216298   4.973   0.959   5.233 -0.3427 -0.4544  0.8008
 5445TIP3    H116299   4.949   0.868   5.249  1.4173 -0.9702  0.6465
 5445TIP3    H216300   5.034   0.981   5.303  0.6905 -0.0017 -0.2123
 5446TIP3   OH216301   1.174   1.274   3.439 -0.0946 -0.0677 -0.1405
 5446TIP3    H116302   1.081   1.259   3.455 -0.1860  0.9236  0.4040
 5446TIP3    H216303   1.185   1.262   3.345 -0.6167 -0.9185 -0.1059
 5447TIP3   OH216304   0.896   4.402   1.177  0.0216 -0.0374 -0.1003
 5447TIP3    H116305   0.819   4.426   1.230  0.8477  0.0466  1.1177
 5447TIP3    H216306   0.930   4.324   1.220  1.7808  1.0823  0.6745
 5448TIP3   OH216307   5.813   5.943   4.108  0.5611  0.4571  0.5017
 5448TIP3    H116308   5.881   5.999   4.070 -1.0990  2.0912 -0.1582
 5448TIP3    H216309   5.822   5.860   4.061  0.9669  1.2199 -0.8323
 5449TIP3   OH216310   5.000   2.691   5.180  0.6666 -0.7171 -0.1337
 5449TIP3    H116311   4.975   2.736   5.261  0.6223  0.8863 -0.9849
 5449TIP3    H216312   4.932   2.626   5.166  0.2388 -0.4600  0.7054
 5450TIP3   OH216313   3.503   0.425   4.101  0.5707 -0.1184  0.0185
 5450TIP3    H116314   3.575   0.449   4.043  2.2497 -0.3336  1.8953
 5450TIP3    H216315   3.505   0.330   4.105  0.8650 -0.0842  0.8669
 5451TIP3   OH216316   6.453   6.722   2.856 -0.7452  0.0627 -0.4228
 5451TIP3    H116317   6.403   6.747   2.778 -1.3850 -0.8174 -0.3063
 5451TIP3    H216318   6.408   6.764   2.928 -0.5209  0.3665 -0.4582
 5452TIP3   OH216319   0.452   2.104   1.662  0.4409  0.3616 -0.3016
 5452TIP3    H116320   0.500   2.043   1.717 -2.1929 -0.8572  0.8084
 5452TIP3    H216321   0.484   2.087   1.573  2.0576 -0.3172  0.3732
 5453TIP3   OH216322   3.506   6.414   0.129  0.8039 -0.5342  0.7191
 5453TIP3    H116323   3.559   6.352   0.079  1.2151  0.3465  0.0312
 5453TIP3    H216324   3.567   6.453   0.192  1.1154  0.8345 -0.3987
 5454TIP3   OH216325   1.060   2.962   1.645  0.4932 -0.6928 -0.3126
 5454TIP3    H116326   1.025   2.979   1.733  1.7428 -0.9520  0.2577
 5454TIP3    H216327   0.995   3.000   1.586 -1.6979 -2.7275  0.5936
 5455TIP3   OH216328   1.643   0.827   0.325 -0.4693 -0.7061  0.1054
 5455TIP3    H116329   1.706   0.779   0.380 -0.1893 -3.0532 -2.0466
 5455TIP3    H216330   1.676   0.916   0.323 -0.3162 -0.5584  3.3844
 5456TIP3   OH216331   3.330   3.349   5.187 -0.1976 -0.1517 -0.0649
 5456TIP3    H116332   3.378   3.327   5.268 -0.7610  0.8694  0.5697
 5456TIP3    H216333   3.240   3.365   5.217 -0.1611  1.4006 -0.6997
 5457TIP3   OH216334   4.512   2.559   0.720  0.0588  0.1267 -0.6296
 5457TIP3    H116335   4.479   2.547   0.810  0.6205  1.0826 -0.2762
 5457TIP3    H216336   4.563   2.640   0.725 -1.9534  1.6025 -2.3910
 5458TIP3   OH216337   0.785   4.653   1.487  0.2420  0.1964 -0.3997
 5458TIP3    H116338   0.874   4.682   1.507 -0.3189  1.1190  0.9142
 5458TIP3    H216339   0.757   4.709   1.415  0.8913 -0.4560 -1.1800
 5459TIP3   OH216340   5.730   4.253   1.500  0.1354 -0.2104  0.1404
 5459TIP3    H116341   5.664   4.288   1.440  0.0351  0.1181  0.4460
 5459TIP3    H216342   5.707   4.289   1.585  0.7946  0.0144  0.2231
 5460TIP3   OH216343   4.327   1.637   3.128  0.8163  0.2509  0.1793
 5460TIP3    H116344   4.314   1.544   3.110  1.0067  0.0719  0.9543
 5460TIP3    H216345   4.335   1.643   3.223  1.7603  0.9400  0.0702
 5461TIP3   OH216346   6.795   6.317   0.443  0.2859 -0.0908 -0.3231
 5461TIP3    H116347   6.737   6.354   0.509  0.9195  2.9857 -1.3214
 5461TIP3    H216348   6.851   6.257   0.491 -2.1613 -1.4199  1.0471
 5462TIP3   OH216349   1.766   4.785   2.747 -0.1041  0.3890  0.5309
 5462TIP3    H116350   1.789   4.835   2.669 -1.4442 -1.1785 -0.9431
 5462TIP3    H216351   1.699   4.838   2.790 -2.1914 -0.4500 -1.5054
 5463TIP3   OH216352   6.608   2.530   1.562  0.0549 -0.0566 -0.1424
 5463TIP3    H116353   6.639   2.442   1.541  0.3426  0.0179 -0.0386
 5463TIP3    H216354   6.676   2.567   1.618  0.8729  0.9038 -1.6866
 5464TIP3   OH216355   0.649   1.200   5.701 -0.0492  0.5479  0.2920
 5464TIP3    H116356   0.735   1.240   5.712  1.8920 -3.2288  0.4071
 5464TIP3    H216357   0.623   1.176   5.790  1.0373 -2.3318 -0.0689
 5465TIP3   OH216358   6.001   5.195   5.754  0.0118  0.0926 -0.0407
 5465TIP3    H116359   5.963   5.208   5.667  2.3456  1.4627 -0.9497
 5465TIP3    H216360   6.000   5.282   5.794  1.5152  0.0639  0.1355
 5466TIP3   OH216361   6.650   0.651   5.221 -0.4049  0.0883 -0.2751
 5466TIP3    H116362   6.643   0.555   5.225  0.1109 -0.1456 -3.1672
 5466TIP3    H216363   6.569   0.680   5.180 -0.5864  0.9243  0.6360
 5467TIP3   OH216364   3.317   4.466   3.808 -0.1555  0.0031  0.3479
 5467TIP3    H116365   3.229   4.433   3.788  0.7338 -3.3833  1.2735
 5467TIP3    H216366   3.318   4.476   3.903  0.7031 -1.0378  0.4754
 5468TIP3   OH216367   4.923   2.525   2.663  0.2690 -0.3333  0.6658
 5468TIP3    H116368   4.988   2.460   2.689 -0.2408 -1.3917 -0.6070
 5468TIP3    H216369   4.841   2.476   2.653  0.3818 -0.0986 -2.7627
 5469TIP3   OH216370   6.533   4.633   1.298 -0.3793  0.6707 -1.0047
 5469TIP3    H116371   6.487   4.620   1.381  1.9709  1.9552  0.6066
 5469TIP3    H216372   6.625   4.623   1.320  0.2555 -2.2106 -4.1837
 5470TIP3   OH216373   0.318   0.091   3.179  0.2106 -0.1296 -0.1134
 5470TIP3    H116374   0.255   0.111   3.109  0.8925  0.5097 -0.5550
 5470TIP3    H216375   0.324   0.172   3.230  0.8651 -0.1042 -0.2234
 5471TIP3   OH216376   6.207   2.519   2.088  0.0684  0.5482  0.1091
 5471TIP3    H116377   6.238   2.594   2.138 -2.0137  0.5269  1.5421
 5471TIP3    H216378   6.122   2.497   2.126 -0.6086 -0.8899 -2.0027
 5472TIP3   OH216379   3.956   0.437   4.549  0.8347  0.2052  0.5803
 5472TIP3    H116380   3.910   0.436   4.633 -1.2418  0.9383 -0.4859
 5472TIP3    H216381   3.976   0.346   4.531  0.7394 -0.0199  1.5634
 5473TIP3   OH216382   6.072   1.355   4.925  0.6343 -0.4171  0.3013
 5473TIP3    H116383   6.043   1.442   4.900  0.4522 -0.6563 -0.3349
 5473TIP3    H216384   6.079   1.307   4.843  2.1766 -0.5654  0.4803
 5474TIP3   OH216385   0.850   2.039   4.311  0.4341 -0.2335 -0.0369
 5474TIP3    H116386   0.912   2.082   4.371 -0.3331  1.4972 -0.4423
 5474TIP3    H216387   0.866   2.080   4.226 -0.9692 -0.0714 -0.2437
 5475TIP3   OH216388   6.631   2.388   4.989 -0.5702  0.1258 -0.0490
 5475TIP3    H116389   6.711   2.363   4.941 -0.2684 -0.6002  0.8065
 5475TIP3    H216390   6.573   2.422   4.921 -0.2927 -1.2111 -1.0065
 5476TIP3   OH216391   6.142   0.117   5.221  0.3682 -1.0584  0.2052
 5476TIP3    H116392   6.190   0.199   5.232  0.6085 -0.9677 -1.2607
 5476TIP3    H216393   6.135   0.106   5.126 -2.3195 -1.1933  0.3450
 5477TIP3   OH216394   2.411   2.053   1.716  0.1119  0.3305 -0.2606
 5477TIP3    H116395   2.399   2.138   1.673 -1.2848  0.5834  0.5440
 5477TIP3    H216396   2.340   2.049   1.780  2.0747 -0.0090  2.0595
 5478TIP3   OH216397   4.877   0.312   4.299  0.0891  0.3209  0.0064
 5478TIP3    H116398   4.788   0.286   4.275  0.2734 -0.5263  0.2284
 5478TIP3    H216399   4.897   0.385   4.239  0.0493 -0.8923 -1.5602
 5479TIP3   OH216400   5.746   2.301   0.213 -0.4041 -0.1803  0.2284
 5479TIP3    H116401   5.656   2.284   0.186  0.3361 -1.4474 -1.6324
 5479TIP3    H216402   5.800   2.262   0.144  1.6601 -2.1894  2.7702
 5480TIP3   OH216403   4.745   0.135   4.961  0.2325 -0.1941 -0.2866
 5480TIP3    H116404   4.833   0.143   4.925  0.3740 -0.9535 -0.1307
 5480TIP3    H216405   4.724   0.042   4.951  0.6624 -0.6669  2.4994
 5481TIP3   OH216406   0.948   3.252   2.406 -0.3117  0.3867  0.0488
 5481TIP3    H116407   1.014   3.222   2.469  0.2115 -0.3331 -0.8226
 5481TIP3    H216408   0.865   3.239   2.451 -0.0876 -1.9401 -0.0528
 5482TIP3   OH216409   2.429   5.531   4.912  0.6661 -0.3149  0.7589
 5482TIP3    H116410   2.517   5.565   4.898  0.9378 -1.0061  0.7113
 5482TIP3    H216411   2.387   5.593   4.972  0.5963  0.9453 -0.5341
 5483TIP3   OH216412   4.282   2.054   0.588 -0.1442 -0.2923  0.0621
 5483TIP3    H116413   4.344   2.020   0.523 -0.2493  2.6387 -1.7535
 5483TIP3    H216414   4.196   2.028   0.555 -0.0877 -0.8094  0.3168
 5484TIP3   OH216415   2.383   4.563   5.530 -0.9507 -0.2086 -0.0244
 5484TIP3    H116416   2.440   4.638   5.549 -2.0549  1.3577 -2.3726
 5484TIP3    H216417   2.354   4.533   5.616  2.3508 -0.3032  1.2180
 5485TIP3   OH216418   6.259   1.665   0.972  0.1889  0.6242  0.1214
 5485TIP3    H116419   6.331   1.728   0.963  1.3046 -0.8647 -2.3608
 5485TIP3    H216420   6.198   1.688   0.903 -0.8825  0.7545  1.0787
 5486TIP3   OH216421   6.641   2.799   3.646 -0.7658 -0.0596  0.0699
 5486TIP3    H116422   6.722   2.752   3.662 -0.0977  1.4047  1.1269
 5486TIP3    H216423   6.652   2.884   3.689 -2.1431  0.8734 -1.2869
 5487TIP3   OH216424   6.378   1.992   4.712  0.4163  0.3055 -0.0037
 5487TIP3    H116425   6.321   1.916   4.699  0.8138 -0.1549  0.8641
 5487TIP3    H216426   6.440   1.965   4.779  0.3420  1.5223  0.5975
 5488TIP3   OH216427   1.042   2.812   0.893 -0.1299 -0.0508  0.4806
 5488TIP3    H116428   1.115   2.835   0.951 -0.2225  1.5029  0.0242
 5488TIP3    H216429   1.083   2.801   0.807 -0.0357 -2.0586  0.7515
 5489TIP3   OH216430   2.043   1.256   1.433  0.5599  0.5328 -0.9503
 5489TIP3    H116431   2.080   1.299   1.355  1.6400 -3.0425 -2.6096
 5489TIP3    H216432   1.950   1.247   1.413  0.5793  0.8338 -1.1973
 5490TIP3   OH216433   1.928   3.911   2.038  0.1987  0.1243  0.5742
 5490TIP3    H116434   1.868   3.983   2.018  2.2819  2.3635  1.8272
 5490TIP3    H216435   1.893   3.871   2.117 -0.6459  0.1325  0.2156
 5491TIP3   OH216436   2.054   0.701   0.136 -0.6567  0.1113 -0.3181
 5491TIP3    H116437   2.123   0.738   0.192 -0.6055  0.0534 -0.3437
 5491TIP3    H216438   2.068   0.742   0.051 -1.5485  1.2420  0.0389
 5492TIP3   OH216439   2.783   4.366   4.240 -0.2232 -0.6895 -0.4562
 5492TIP3    H116440   2.741   4.422   4.305 -0.3319 -0.3254 -0.8396
 5492TIP3    H216441   2.710   4.317   4.201 -0.0032 -2.1412  0.8404
 5493TIP3   OH216442   0.759   4.599   5.206  0.4083 -0.0358 -0.4998
 5493TIP3    H116443   0.774   4.674   5.149  0.5943  0.3925  0.0926
 5493TIP3    H216444   0.716   4.637   5.283  0.8952 -0.4583 -0.0068
 5494TIP3   OH216445   7.053   3.018   2.294  0.1521  0.0391  0.1347
 5494TIP3    H116446   7.094   2.946   2.342  0.3911 -1.3896 -2.0285
 5494TIP3    H216447   6.962   3.018   2.324  0.6508  0.2929  1.7296
 5495TIP3   OH216448   3.945   3.171   0.208 -0.0623  0.1493 -0.0670
 5495TIP3    H116449   3.938   3.086   0.163 -0.2927  0.4935 -0.6985
 5495TIP3    H216450   3.978   3.231   0.140  0.3028  0.5224  0.4314
 5496TIP3   OH216451   2.639   1.904   1.773  0.0445  0.0146  0.5249
 5496TIP3    H116452   2.551   1.942   1.767  0.0558 -0.0041 -5.2670
 5496TIP3    H216453   2.698   1.979   1.772  0.0436  0.0146 -0.4519
 5497TIP3   OH216454   1.276   5.529   2.467  0.1998  0.4192 -0.3334
 5497TIP3    H116455   1.249   5.620   2.455 -1.6467 -0.1538 -0.8648
 5497TIP3    H216456   1.205   5.477   2.429  2.1763 -1.2482 -1.9836
 5498TIP3   OH216457   7.171   4.928   0.417  0.1677  0.9681  0.5070
 5498TIP3    H116458   7.097   4.867   0.415  2.0507 -1.4842 -0.7802
 5498TIP3    H216459   7.179   4.952   0.509 -0.1780 -1.4601  1.2604
 5499TIP3   OH216460   6.619   0.283   3.284  0.3431  0.2773  0.3109
 5499TIP3    H116461   6.661   0.251   3.204 -0.4578  0.5051 -0.2084
 5499TIP3    H216462   6.673   0.248   3.355  1.0083 -0.0030 -0.3262
 5500TIP3   OH216463   7.078   4.948   1.699 -0.3681 -0.6989 -0.5576
 5500TIP3    H116464   6.984   4.963   1.683 -0.1573  1.9984  0.2806
 5500TIP3    H216465   7.081   4.913   1.789 -0.5354  0.0491 -0.2535
 5501TIP3   OH216466   0.102   1.099   2.231  0.3024 -0.1155 -0.2837
 5501TIP3    H116467   0.099   1.083   2.326  1.4033 -1.9580 -0.5075
 5501TIP3    H216468   0.013   1.083   2.201 -0.2705  1.3434  0.5244
 5502TIP3   OH216469   3.716   5.818   0.122 -0.0775 -0.0541 -0.2825
 5502TIP3    H116470   3.655   5.836   0.050  1.5725  0.9058 -1.4906
 5502TIP3    H216471   3.733   5.724   0.116 -1.6813 -0.4237  0.3223
 5503TIP3   OH216472   0.087   4.932   1.034  0.4632  0.2198 -1.0760
 5503TIP3    H116473   0.090   5.023   1.062  1.8900 -0.5208  1.4621
 5503TIP3    H216474   0.052   4.884   1.109 -1.2981 -1.2793 -2.7213
 5504TIP3   OH216475   0.614   1.594   3.717 -0.2873  0.5761 -0.4423
 5504TIP3    H116476   0.559   1.645   3.777  0.8502  0.8782  0.3897
 5504TIP3    H216477   0.572   1.604   3.632 -0.3750  2.5442 -0.2271
 5505TIP3   OH216478   6.796   2.569   0.363  0.2837  0.0734  0.1431
 5505TIP3    H116479   6.731   2.576   0.433 -0.0695 -1.5729  0.0239
 5505TIP3    H216480   6.838   2.485   0.377  0.1486 -0.3473 -1.6520
 5506TIP3   OH216481   4.898   3.296   1.789  0.4946 -0.1068 -0.2705
 5506TIP3    H116482   4.865   3.330   1.706 -0.8332 -0.0438  0.2579
 5506TIP3    H216483   4.830   3.237   1.820  2.0016 -1.9799 -0.3203
 5507TIP3   OH216484   1.778   4.119   5.540  0.5309  0.1385  0.0008
 5507TIP3    H116485   1.708   4.056   5.522  1.3153 -1.3042  1.6895
 5507TIP3    H216486   1.734   4.190   5.587 -0.0660 -0.0046 -0.3299
 5508TIP3   OH216487   3.547   4.491   2.326  0.2441  0.2849  0.8163
 5508TIP3    H116488   3.472   4.433   2.336  0.1427  0.4361  0.9605
 5508TIP3    H216489   3.595   4.457   2.251 -0.2832  0.5339  0.3623
 5509TIP3   OH216490   3.619   1.099   3.559  0.3952  0.1435 -0.1461
 5509TIP3    H116491   3.702   1.060   3.589  0.8753 -0.1429 -1.7152
 5509TIP3    H216492   3.552   1.040   3.592  0.9160 -0.3063  0.1322
 5510TIP3   OH216493   5.709   5.835   2.370  0.5218  0.2858  0.3539
 5510TIP3    H116494   5.614   5.833   2.383 -0.0261  1.8683 -2.5044
 5510TIP3    H216495   5.737   5.916   2.414  0.0581  1.2166 -0.9972
 5511TIP3   OH216496   4.342   2.458   5.750  0.3937 -0.3064 -0.3116
 5511TIP3    H116497   4.402   2.479   5.678  0.2726 -0.2905 -0.4075
 5511TIP3    H216498   4.257   2.447   5.708 -0.1510  1.9189  0.0906
 5512TIP3   OH216499   3.031   5.778   3.046  0.1268 -0.6836 -0.4421
 5512TIP3    H116500   2.984   5.740   3.120 -0.9848  0.0606 -0.7603
 5512TIP3    H216501   2.969   5.776   2.974  0.2886  1.0593 -0.6589
 5513TIP3   OH216502   4.408   1.247   3.210 -0.6027  0.1492 -0.7044
 5513TIP3    H116503   4.374   1.283   3.127 -1.0849 -0.4121 -0.7545
 5513TIP3    H216504   4.486   1.300   3.228 -0.6891  0.5098 -1.3363
 5514TIP3   OH216505   0.625   3.782   5.585 -0.3832 -0.2980  0.5834
 5514TIP3    H116506   0.559   3.850   5.598  0.8927  1.2190 -0.4228
 5514TIP3    H216507   0.696   3.826   5.538  0.4346 -2.3843 -0.2856
 5515TIP3   OH216508   0.404   1.479   1.539  0.0471 -0.2639  0.0462
 5515TIP3    H116509   0.343   1.509   1.472  1.1218  0.7546 -0.5348
 5515TIP3    H216510   0.406   1.384   1.530 -0.5220 -0.2091 -0.7550
 5516TIP3   OH216511   2.635   1.344   0.831 -0.5062  0.2571 -0.6605
 5516TIP3    H116512   2.600   1.325   0.744  1.4065  0.1799 -1.4545
 5516TIP3    H216513   2.709   1.402   0.816 -0.9139  1.3054  1.0444
 5517TIP3   OH216514   5.410   3.093   1.890  0.7880 -0.3136  0.3193
 5517TIP3    H116515   5.382   3.164   1.832  1.5459 -0.4221 -0.1789
 5517TIP3    H216516   5.328   3.053   1.919  0.3604 -2.0220 -2.8155
 5518TIP3   OH216517   0.217   2.421   4.317  0.2546  0.3472 -0.1080
 5518TIP3    H116518   0.298   2.448   4.274  0.5957 -0.0204  0.2885
 5518TIP3    H216519   0.185   2.348   4.263 -0.1721  0.9134 -0.6420
 5519TIP3   OH216520   1.997   3.976   1.239 -0.1042  0.2194 -0.1501
 5519TIP3    H116521   1.933   4.042   1.267 -0.3332  0.0907 -0.3676
 5519TIP3    H216522   1.948   3.893   1.241  0.5858 -0.1992  1.6372
 5520TIP3   OH216523   5.360   2.248   2.813 -0.1099 -0.1787 -0.0549
 5520TIP3    H116524   5.324   2.218   2.896  1.8579  0.6252  1.1372
 5520TIP3    H216525   5.411   2.174   2.780 -0.2526 -0.2231 -0.1816
 5521TIP3   OH216526   6.955   6.430   4.664 -0.3874 -0.3490  0.4362
 5521TIP3    H116527   7.000   6.509   4.696 -0.5467 -0.1318  0.1284
 5521TIP3    H216528   6.997   6.411   4.581 -0.8114 -0.1909  0.1844
 5522TIP3   OH216529   5.561   6.772   3.347  0.5758  0.1408  0.4483
 5522TIP3    H116530   5.558   6.852   3.398  1.2069  0.6031 -0.2258
 5522TIP3    H216531   5.478   6.772   3.298  1.3597  1.3545 -0.9613
 5523TIP3   OH216532   3.860   1.033   1.773 -0.3732 -0.0743  0.4548
 5523TIP3    H116533   3.831   1.003   1.860 -0.7186 -1.1013  0.0102
 5523TIP3    H216534   3.781   1.070   1.733  0.0125  1.3173  0.9335
 5524TIP3   OH216535   2.734   0.442   5.164  0.1806  0.4278 -0.5395
 5524TIP3    H116536   2.757   0.481   5.248  0.3303 -0.8578  0.0362
 5524TIP3    H216537   2.665   0.380   5.184  0.7822 -0.4867 -1.2213
 5525TIP3   OH216538   4.229   2.680   5.507 -0.3738 -0.9139  0.7780
 5525TIP3    H116539   4.294   2.735   5.464 -0.2024 -1.7123 -0.0144
 5525TIP3    H216540   4.278   2.603   5.535 -0.9120 -1.3943  0.4166
 5526TIP3   OH216541   5.951   0.371   3.495  0.1727  0.2995 -0.4427
 5526TIP3    H116542   5.869   0.382   3.543  0.1639 -0.5832 -0.2403
 5526TIP3    H216543   5.940   0.289   3.447  1.0880 -0.0330 -0.1070
 5527TIP3   OH216544   4.146   0.527   0.342 -0.4978  0.0812  0.7205
 5527TIP3    H116545   4.118   0.616   0.361 -1.0595  0.0269  0.1854
 5527TIP3    H216546   4.240   0.527   0.358  0.1382  1.6375 -2.2357
 5528TIP3   OH216547   0.318   1.946   2.092 -0.0266 -0.4427 -0.1411
 5528TIP3    H116548   0.337   2.001   2.016  1.5290 -1.6181 -0.6700
 5528TIP3    H216549   0.235   1.979   2.126  0.6931  1.9959 -0.5980
 5529TIP3   OH216550   5.258   3.822   5.443 -0.3190 -0.0982 -0.0315
 5529TIP3    H116551   5.277   3.730   5.462 -1.5456 -0.4036 -0.1903
 5529TIP3    H216552   5.241   3.861   5.529 -0.3140 -0.1402 -0.0112
 5530TIP3   OH216553   1.912   5.341   3.558  0.1763 -0.1234 -0.2369
 5530TIP3    H116554   1.950   5.289   3.629  0.5715  0.2857 -0.1408
 5530TIP3    H216555   1.907   5.430   3.595  0.1453  0.0382 -0.6320
 5531TIP3   OH216556   5.442   2.218   3.585 -0.0386 -0.1868 -0.1135
 5531TIP3    H116557   5.470   2.127   3.595 -0.5952 -0.5119 -1.2972
 5531TIP3    H216558   5.516   2.261   3.542  0.6694  0.2043  1.4465
 5532TIP3   OH216559   2.814   2.420   0.474 -0.1108 -0.2355 -0.6291
 5532TIP3    H116560   2.757   2.492   0.446  0.2102  0.4807  0.4950
 5532TIP3    H216561   2.901   2.448   0.448  0.0705  0.0001  0.2111
 5533TIP3   OH216562   5.484   3.111   1.423 -0.2335  0.2205 -0.2703
 5533TIP3    H116563   5.579   3.115   1.440 -0.5146  0.7767  1.4088
 5533TIP3    H216564   5.470   3.026   1.382  0.7317 -0.8742  1.5461
 5534TIP3   OH216565   1.139   1.276   1.032  0.3847  0.7415  0.0756
 5534TIP3    H116566   1.108   1.272   1.122 -1.3881  0.9684 -0.4851
 5534TIP3    H216567   1.126   1.368   1.006 -1.1702  0.2548 -1.0468
 5535TIP3   OH216568   0.007   6.525   4.109  0.4734 -0.4578 -0.5562
 5535TIP3    H116569   0.078   6.466   4.136  0.3636 -0.0748  0.6199
 5535TIP3    H216570  -0.046   6.472   4.049  1.4047 -0.9462 -0.9826
 5536TIP3   OH216571   4.710   5.189   5.236 -0.0157 -0.6294 -0.5767
 5536TIP3    H116572   4.793   5.208   5.193 -0.7212 -0.1966 -1.8094
 5536TIP3    H216573   4.646   5.244   5.191 -1.1394 -1.6538 -0.3154
 5537TIP3   OH216574   4.504   5.799   1.330 -0.2292  0.3296 -0.4310
 5537TIP3    H116575   4.494   5.821   1.423  0.0331  1.1416 -0.5908
 5537TIP3    H216576   4.588   5.752   1.325 -0.9033 -0.9689 -0.0541
 5538TIP3   OH216577   7.145   0.189   2.669 -0.0852 -0.1698  0.6046
 5538TIP3    H116578   7.200   0.111   2.658 -1.6812 -1.0953 -1.4101
 5538TIP3    H216579   7.183   0.254   2.610 -0.5483 -0.4980 -0.0745
 5539TIP3   OH216580   5.618   1.319   4.417 -0.1217 -0.9144  0.0289
 5539TIP3    H116581   5.685   1.351   4.355  0.1962 -2.4857 -0.4782
 5539TIP3    H216582   5.662   1.320   4.502 -0.1151 -0.0682  0.0331
 5540TIP3   OH216583   3.997   3.613   0.093  0.6263 -0.9897  0.4663
 5540TIP3    H116584   4.051   3.641   0.166  0.1142  0.1541  0.4305
 5540TIP3    H216585   4.053   3.622   0.016 -0.0733  2.0189  0.1601
 5541TIP3   OH216586   0.315   5.260   4.607 -0.3086  0.8464  0.2089
 5541TIP3    H116587   0.303   5.200   4.680 -0.3782 -0.4857 -0.8597
 5541TIP3    H216588   0.300   5.207   4.529  1.4794  1.7894 -0.8550
 5542TIP3   OH216589   2.361   0.159   4.684  0.0199  0.0308 -0.0287
 5542TIP3    H116590   2.309   0.159   4.764  1.7830 -0.0612  1.1765
 5542TIP3    H216591   2.356   0.069   4.652  1.3880 -0.6121  1.4476
 5543TIP3   OH216592   6.794   2.065   0.187  0.6121 -0.6546  0.3088
 5543TIP3    H116593   6.837   2.072   0.273  1.9539 -0.5068 -0.3543
 5543TIP3    H216594   6.828   2.139   0.137 -0.2605 -0.6633 -0.3219
 5544TIP3   OH216595   0.733   5.910   3.436 -0.1601  0.6801 -0.5615
 5544TIP3    H116596   0.699   5.995   3.464 -0.6675  0.6904 -1.1842
 5544TIP3    H216597   0.694   5.896   3.350  1.0221  0.4515 -1.0806
 5545TIP3   OH216598   1.385   1.865   2.976  0.0951  0.9609  0.0324
 5545TIP3    H116599   1.333   1.939   3.007 -0.5608  0.8338 -0.7258
 5545TIP3    H216600   1.474   1.900   2.970  0.4618  0.7133  2.9194
 5546TIP3   OH216601   0.649   4.131   1.751 -0.4475 -0.3067 -0.0717
 5546TIP3    H116602   0.729   4.117   1.701  0.3140  0.1534  0.9669
 5546TIP3    H216603   0.605   4.204   1.708  1.6710  2.1156  1.5434
 5547TIP3   OH216604   5.012   2.302   1.739 -1.0761 -0.0082 -0.9798
 5547TIP3    H116605   4.993   2.381   1.791 -0.5999  0.0847 -0.9413
 5547TIP3    H216606   5.107   2.303   1.729 -0.7621 -1.8017  0.9866
 5548TIP3   OH216607   3.449   4.950   4.885 -0.6645  0.3310  0.3838
 5548TIP3    H116608   3.438   4.901   4.966  0.0921  0.3393  0.5027
 5548TIP3    H216609   3.451   4.883   4.816 -1.0484  0.3054  0.3954
 5549TIP3   OH216610   5.789   4.904   3.483 -0.4816  0.0913  0.0759
 5549TIP3    H116611   5.697   4.916   3.507 -0.6322 -0.9194  0.0068
 5549TIP3    H216612   5.815   4.822   3.525  0.1398 -0.0941 -0.6477
 5550TIP3   OH216613   6.527   2.880   2.291 -0.3519  0.0092 -0.3392
 5550TIP3    H116614   6.461   2.817   2.319  0.3075 -1.2379 -1.4852
 5550TIP3    H216615   6.493   2.965   2.320 -1.6566 -0.7692  0.5169
 5551TIP3   OH216616   1.725   6.079   5.656 -0.2694 -0.2682 -0.2202
 5551TIP3    H116617   1.791   6.075   5.587 -0.3855 -0.5956 -0.3130
 5551TIP3    H216618   1.775   6.104   5.734 -0.2042  0.5170 -0.4988
 5552TIP3   OH216619   3.936   5.734   3.067 -0.2703  0.2981  0.3529
 5552TIP3    H116620   3.870   5.716   2.999 -0.3082  0.4997  0.3372
 5552TIP3    H216621   3.900   5.694   3.146 -1.4839  2.3327  0.8819
 5553TIP3   OH216622   2.757   5.528   1.504  0.2807  0.0662  0.5778
 5553TIP3    H116623   2.756   5.472   1.581  1.6761 -2.4386 -1.0755
 5553TIP3    H216624   2.814   5.482   1.442  0.6528  2.8374 -1.3239
 5554TIP3   OH216625   4.125   2.555   3.333 -0.0342  0.4108  0.4642
 5554TIP3    H116626   4.129   2.610   3.254 -0.4307  0.2643  0.3366
 5554TIP3    H216627   4.072   2.480   3.306  0.2151  0.1356  0.7384
 5555TIP3   OH216628   4.393   1.098   3.790  0.2066 -0.1990  0.0592
 5555TIP3    H116629   4.321   1.095   3.853  0.1395 -1.6763 -0.0584
 5555TIP3    H216630   4.441   1.178   3.812 -1.5361  0.8985  0.0443
 5556TIP3   OH216631   0.634   2.082   3.921 -0.4486  0.2123 -0.2098
 5556TIP3    H116632   0.642   1.991   3.949  1.5722  0.3523 -0.2061
 5556TIP3    H216633   0.568   2.080   3.852 -0.5360 -1.2303 -0.1140
 5557TIP3   OH216634   5.740   3.635   2.667 -0.5060 -0.1751  0.1782
 5557TIP3    H116635   5.778   3.571   2.727  0.2853  0.3414  0.2451
 5557TIP3    H216636   5.670   3.587   2.623 -1.8410 -0.2754  2.2598
 5558TIP3   OH216637   1.326   2.158   2.652  0.0275  0.1422 -0.1464
 5558TIP3    H116638   1.358   2.116   2.573 -0.3558 -0.4711  0.0230
 5558TIP3    H216639   1.401   2.208   2.685  0.3492 -0.0469 -0.5883
 5559TIP3   OH216640   5.417   5.017   0.958 -0.6963 -0.2303 -0.0345
 5559TIP3    H116641   5.374   5.082   0.902 -0.1004  0.8489  0.7055
 5559TIP3    H216642   5.508   5.045   0.962 -0.4346 -1.1023  0.3372
 5560TIP3   OH216643   6.714   2.979   1.651 -0.0762  0.3236  0.3927
 5560TIP3    H116644   6.730   2.913   1.584 -0.9501  0.6809 -0.1853
 5560TIP3    H216645   6.790   2.973   1.710  0.3556 -0.4696 -0.2318
 5561TIP3   OH216646   0.281   1.416   4.277 -0.5668  0.4498 -0.5700
 5561TIP3    H116647   0.288   1.381   4.366  2.3500 -0.5845 -1.0910
 5561TIP3    H216648   0.320   1.503   4.282  0.0569  0.1971 -0.9031
 5562TIP3   OH216649   1.609   6.385   1.389 -0.0098 -0.2355 -0.6947
 5562TIP3    H116650   1.655   6.317   1.339 -1.9175 -1.0639 -1.4142
 5562TIP3    H216651   1.638   6.467   1.350  2.8731 -0.4966  0.6411
 5563TIP3   OH216652   2.294   6.102   1.497  0.1917  0.3786  0.3423
 5563TIP3    H116653   2.202   6.118   1.518 -0.1076 -1.0859  0.2936
 5563TIP3    H216654   2.300   6.006   1.488  1.3432  0.5759 -1.4117
 5564TIP3   OH216655   3.246   0.423   4.175  0.1433 -0.3026 -0.2522
 5564TIP3    H116656   3.341   0.417   4.164  0.4969 -0.0993  2.1804
 5564TIP3    H216657   3.234   0.474   4.255 -2.1253  2.4517 -2.1373
 5565TIP3   OH216658   4.235   3.372   1.249 -0.8315 -0.4213 -0.1582
 5565TIP3    H116659   4.230   3.279   1.271  0.7147 -0.7313 -0.9647
 5565TIP3    H216660   4.262   3.373   1.157  0.9709  0.7906  0.3356
 5566TIP3   OH216661   3.072   0.212   3.317  0.1343  0.5547  0.1533
 5566TIP3    H116662   3.082   0.216   3.412 -0.4722  1.6435  0.1916
 5566TIP3    H216663   3.153   0.171   3.286  0.7360  0.9945  1.0800
 5567TIP3   OH216664   4.124   4.048   3.589 -0.3553 -0.1960  0.2147
 5567TIP3    H116665   4.089   4.123   3.638 -1.6659 -0.2583 -0.5764
 5567TIP3    H216666   4.195   4.014   3.644  0.5743  1.8740  0.4071
 5568TIP3   OH216667   3.434   2.957   0.318 -0.4565 -0.3238 -0.2812
 5568TIP3    H116668   3.425   2.869   0.282 -0.9533 -0.4679  0.1853
 5568TIP3    H216669   3.498   2.947   0.388  0.8736  0.0472 -1.3940
 5569TIP3   OH216670   5.886   3.969   2.183  0.1658  0.1581  0.4107
 5569TIP3    H116671   5.939   3.921   2.247 -0.9511  0.6239  1.7456
 5569TIP3    H216672   5.828   4.023   2.236 -1.0784  0.2769 -1.0061
 5570TIP3   OH216673   3.096   0.180   2.473 -0.3122  0.5221  0.7125
 5570TIP3    H116674   3.158   0.242   2.510  1.3977  0.2890 -1.5377
 5570TIP3    H216675   3.141   0.095   2.477  0.9576  0.7684 -3.5696
 5571TIP3   OH216676   5.116   0.452   1.158  0.2202 -0.1187  0.1051
 5571TIP3    H116677   5.199   0.500   1.150  0.4279 -0.3911  0.5424
 5571TIP3    H216678   5.052   0.506   1.112  0.5564  0.3095  0.1307
 5572TIP3   OH216679   5.368   6.370   2.275 -0.6737  0.4449  0.4448
 5572TIP3    H116680   5.291   6.426   2.281 -0.3954  0.7071  1.9804
 5572TIP3    H216681   5.352   6.301   2.340 -0.3445 -0.4400 -0.3859
 5573TIP3   OH216682   1.222   1.217   5.373  0.7435 -0.2951 -0.3756
 5573TIP3    H116683   1.291   1.270   5.413 -0.0766 -0.9397  2.0514
 5573TIP3    H216684   1.255   1.198   5.285  2.3624  1.7492 -0.2942
 5574TIP3   OH216685   3.957   4.916   1.472  0.0521 -0.3843 -0.0347
 5574TIP3    H116686   3.965   4.833   1.518 -0.7355 -0.0493  0.7316
 5574TIP3    H216687   3.916   4.893   1.388 -5.6302 -0.2830  2.2799
 5575TIP3   OH216688   2.156   2.661   4.040 -0.0708  0.2138  0.0752
 5575TIP3    H116689   2.072   2.631   4.075  0.2683 -1.0947 -0.2079
 5575TIP3    H216690   2.220   2.596   4.070  0.6755  0.6077 -0.6182
 5576TIP3   OH216691   5.752   3.502   3.051  0.1829 -0.7132 -0.5958
 5576TIP3    H116692   5.815   3.446   3.096 -0.6150 -0.6757  0.5959
 5576TIP3    H216693   5.763   3.480   2.959  0.0545 -2.6678 -0.1870
 5577TIP3   OH216694   2.633   4.527   4.408  0.3410  0.4050  0.5191
 5577TIP3    H116695   2.544   4.555   4.386  0.4790  1.2512  1.0073
 5577TIP3    H216696   2.634   4.519   4.503  0.7379  0.2044  0.5024
 5578TIP3   OH216697   3.989   1.807   3.888 -0.4030 -0.2236 -0.2349
 5578TIP3    H116698   3.908   1.839   3.929  0.2529  0.8249  0.2779
 5578TIP3    H216699   4.048   1.791   3.962  0.5548  1.0082 -0.7064
 5579TIP3   OH216700   7.172   5.512   1.363 -0.1531  0.4057 -0.3269
 5579TIP3    H116701   7.241   5.498   1.428 -0.1751 -0.2482 -0.4294
 5579TIP3    H216702   7.216   5.501   1.279 -0.1103  1.3209 -0.4328
 5580TIP3   OH216703   3.041   3.416   3.254  0.3391  0.5897 -0.0317
 5580TIP3    H116704   3.040   3.337   3.200  2.7584 -0.3149  1.1222
 5580TIP3    H216705   3.048   3.385   3.344 -1.1563  2.1161  0.6704
 5581TIP3   OH216706   4.047   1.816   1.977  0.2233 -0.4216 -0.0471
 5581TIP3    H116707   4.054   1.869   1.897 -2.1160 -0.0406 -0.0502
 5581TIP3    H216708   4.111   1.745   1.963  1.0391  0.5344 -1.5098
 5582TIP3   OH216709   1.569   4.828   3.406  0.5931 -0.0287 -0.0920
 5582TIP3    H116710   1.546   4.759   3.468 -0.3658  0.9107  0.6350
 5582TIP3    H216711   1.555   4.909   3.455  0.7472  0.7014 -1.2355
 5583TIP3   OH216712   4.321   4.222   0.852 -0.0298  0.2621  0.1893
 5583TIP3    H116713   4.232   4.211   0.817  0.4806 -2.3914 -0.5070
 5583TIP3    H216714   4.371   4.257   0.779  0.3972 -2.5450 -1.0018
 5584TIP3   OH216715   5.797   1.292   4.617 -0.9180  0.3563  0.2270
 5584TIP3    H116716   5.764   1.287   4.707  0.8156 -2.1052  0.8317
 5584TIP3    H216717   5.858   1.366   4.618 -2.6720  1.8645  0.3734
 5585TIP3   OH216718   4.962   0.779   0.663 -0.3343  0.0768 -0.2758
 5585TIP3    H116719   4.977   0.839   0.736 -1.3230 -0.6387  0.5505
 5585TIP3    H216720   4.954   0.835   0.586  0.5917  0.8546  0.1792
 5586TIP3   OH216721   4.639   6.225   1.627  0.6183 -0.0411  0.5766
 5586TIP3    H116722   4.567   6.186   1.578  0.7438  1.3224 -0.7739
 5586TIP3    H216723   4.667   6.300   1.574  1.7095  0.6651  2.0551
 5587TIP3   OH216724   2.453   6.542   0.812  0.0944 -0.1064 -0.0410
 5587TIP3    H116725   2.530   6.596   0.793 -0.3172  0.4395 -0.2136
 5587TIP3    H216726   2.466   6.511   0.901  1.1409 -1.1076 -0.5136
 5588TIP3   OH216727   5.747   1.149   2.958  0.1121 -0.4861 -0.2578
 5588TIP3    H116728   5.721   1.139   2.866  1.2668 -0.6586 -0.5897
 5588TIP3    H216729   5.727   1.064   2.997 -0.9161 -0.2293 -0.1952
 5589TIP3   OH216730   2.492   3.677   4.697 -0.1972  0.6019  0.2383
 5589TIP3    H116731   2.432   3.651   4.766 -0.9110 -0.2839 -0.6685
 5589TIP3    H216732   2.436   3.687   4.619  0.6029  1.3627 -0.2569
 5590TIP3   OH216733   3.791   2.648   2.523  0.1627 -0.1188 -0.7086
 5590TIP3    H116734   3.798   2.740   2.550 -1.9583 -0.5796  1.8550
 5590TIP3    H216735   3.703   2.622   2.551  0.6078 -2.8552 -1.6291
 5591TIP3   OH216736   3.119   2.274   1.168  0.5187  0.5398 -0.1587
 5591TIP3    H116737   3.083   2.309   1.086  1.8471 -0.1413 -1.0605
 5591TIP3    H216738   3.154   2.351   1.213  2.4310  0.6140 -1.6248
 5592TIP3   OH216739   7.064   4.271   1.021  0.9758  0.0080  0.5749
 5592TIP3    H116740   7.062   4.232   1.108  1.7638 -0.5005  0.3800
 5592TIP3    H216741   6.975   4.303   1.007  0.5212 -0.9834  1.0849
 5593TIP3   OH216742   7.022   3.472   2.865  0.8145 -0.1089  0.6170
 5593TIP3    H116743   7.043   3.394   2.814 -1.5307  0.8882 -2.2035
 5593TIP3    H216744   6.941   3.450   2.912 -1.0451  1.0248 -1.7753
 5594TIP3   OH216745   2.522   5.157   1.969  1.2191 -0.2996 -0.0916
 5594TIP3    H116746   2.567   5.187   1.890  0.4625 -1.0472 -0.8241
 5594TIP3    H216747   2.496   5.067   1.949 -0.0974 -0.0727  0.5283
 5595TIP3   OH216748   5.283   6.345   4.469 -0.2417 -0.0643 -0.2491
 5595TIP3    H116749   5.336   6.339   4.390  0.3446 -0.0581  0.1331
 5595TIP3    H216750   5.325   6.414   4.520  0.6352 -1.4580  0.9847
 5596TIP3   OH216751   2.039   3.919   0.981 -0.0194 -0.5192 -0.5410
 5596TIP3    H116752   2.046   3.930   1.076 -0.9061  0.2178 -0.5478
 5596TIP3    H216753   2.130   3.905   0.952  0.2213 -1.0976  0.4405
 5597TIP3   OH216754   5.772   3.382   1.814  0.0955 -0.0555  0.3062
 5597TIP3    H116755   5.732   3.332   1.885  0.2884 -0.4064  0.1701
 5597TIP3    H216756   5.796   3.316   1.748  1.7222  0.0243  0.7724
 5598TIP3   OH216757   2.039   5.354   4.628 -0.2322 -0.1201 -0.1224
 5598TIP3    H116758   2.115   5.296   4.639  0.4754  0.7031 -0.6140
 5598TIP3    H216759   1.996   5.321   4.549 -0.9641 -1.2047  0.7015
 5599TIP3   OH216760   1.879   3.413   4.349  0.4867 -0.1350 -0.0529
 5599TIP3    H116761   1.950   3.411   4.412  0.7071  1.3618 -0.2139
 5599TIP3    H216762   1.922   3.409   4.264  0.4845  1.7053 -0.1761
 5600TIP3   OH216763   6.924   3.714   4.482 -0.4029  0.1184 -0.0604
 5600TIP3    H116764   6.947   3.655   4.410 -1.3125  1.3680 -1.4254
 5600TIP3    H216765   6.982   3.688   4.554 -0.3936 -2.0472 -0.7860
 5601TIP3   OH216766   1.260   4.438   0.201 -0.0890  0.0356 -0.3534
 5601TIP3    H116767   1.305   4.397   0.127  2.9706  0.5819  1.0435
 5601TIP3    H216768   1.303   4.524   0.210 -0.8264  0.2530  1.6307
 5602TIP3   OH216769   2.642   6.736   0.784 -0.0483 -0.0718  0.4324
 5602TIP3    H116770   2.698   6.693   0.719  0.9732 -1.4338  2.1265
 5602TIP3    H216771   2.597   6.805   0.735 -1.3551 -2.6637 -2.3834
 5603TIP3   OH216772   5.857   3.357   2.325  0.5494  0.0798 -0.3498
 5603TIP3    H116773   5.926   3.314   2.275  1.0024  1.2937 -0.8004
 5603TIP3    H216774   5.882   3.449   2.328 -1.0749  0.5737 -0.5802
 5604TIP3   OH216775   4.876   3.032   1.262  0.3408  0.3537 -0.1267
 5604TIP3    H116776   4.968   3.059   1.255  0.2852  1.0888  1.4919
 5604TIP3    H216777   4.840   3.046   1.174  1.6629  0.4338 -0.6832
 5605TIP3   OH216778   3.245   1.741   1.724 -0.2905 -0.1940 -0.4478
 5605TIP3    H116779   3.172   1.761   1.783 -0.1086  0.3156 -0.3887
 5605TIP3    H216780   3.219   1.661   1.679  0.2402 -1.4912  1.4533
 5606TIP3   OH216781   0.141   2.729   5.528 -0.1179 -0.0267 -0.2890
 5606TIP3    H116782   0.054   2.748   5.562  0.6737  1.8894  0.8410
 5606TIP3    H216783   0.134   2.642   5.489 -1.9772 -0.8143  1.6541
 5607TIP3   OH216784   6.913   6.500   4.105  0.6667  0.4378  0.6815
 5607TIP3    H116785   6.913   6.585   4.060  0.6065  1.3320  2.3024
 5607TIP3    H216786   6.976   6.447   4.055  0.1718  1.1690 -0.7901
 5608TIP3   OH216787   4.997   2.891   0.494  0.2405  1.1142  0.4532
 5608TIP3    H116788   5.091   2.891   0.482  0.0887 -1.4621 -1.7574
 5608TIP3    H216789   4.983   2.842   0.576  0.8348 -0.2317 -0.2137
 5609TIP3   OH216790   1.082   0.857   1.388 -0.0889  0.0102 -0.5228
 5609TIP3    H116791   1.119   0.815   1.310  0.0108 -1.6758  0.3759
 5609TIP3    H216792   1.003   0.806   1.406  0.1747  0.0387  0.7767
 5610TIP3   OH216793   1.184   4.132   4.823 -0.0716 -0.5145  0.8043
 5610TIP3    H116794   1.197   4.082   4.904  2.4017  0.5840  1.1752
 5610TIP3    H216795   1.256   4.104   4.766 -1.1756 -0.5012 -0.6610
 5611TIP3   OH216796   4.327   2.090   1.538  0.4848  0.5302 -0.0311
 5611TIP3    H116797   4.336   2.030   1.612  1.8922 -0.4855 -0.9826
 5611TIP3    H216798   4.378   2.167   1.563  2.7822 -0.6582 -0.7291
 5612TIP3   OH216799   2.071   0.498   2.677  0.5988 -0.2343 -0.0411
 5612TIP3    H116800   2.100   0.532   2.762  0.3036 -1.7914  0.7064
 5612TIP3    H216801   2.152   0.485   2.627  0.9231 -1.0588  0.6855
 5613TIP3   OH216802   0.199   1.853   0.718  0.0673  0.3363 -0.4696
 5613TIP3    H116803   0.128   1.911   0.745 -1.1278 -1.3154  0.1381
 5613TIP3    H216804   0.221   1.881   0.630  0.8294  2.8647  0.4533
 5614TIP3   OH216805   5.972   2.018   5.801 -0.4824  0.5125 -0.0637
 5614TIP3    H116806   5.926   1.972   5.731 -0.5460  0.2794  0.1321
 5614TIP3    H216807   6.063   2.023   5.769 -0.7361  1.4524 -0.6932
 5615TIP3   OH216808   2.598   6.713   3.548 -0.3265 -0.5054 -0.3664
 5615TIP3    H116809   2.579   6.783   3.611  1.4612 -0.7257  0.4607
 5615TIP3    H216810   2.571   6.633   3.591 -0.9715 -0.4827 -0.7121
 5616TIP3   OH216811   5.209   1.074   0.518 -0.2705  0.1492  0.1160
 5616TIP3    H116812   5.151   1.000   0.501  1.7850 -1.7183  0.6500
 5616TIP3    H216813   5.291   1.050   0.475  0.6653  1.8209  0.8693
 5617TIP3   OH216814   4.302   0.219   1.051 -0.7061 -0.3463 -0.1666
 5617TIP3    H116815   4.378   0.237   1.106 -1.6518  0.0611  1.0531
 5617TIP3    H216816   4.328   0.144   0.997  0.8556  0.3318 -0.4019
 5618TIP3   OH216817   3.648   5.333   1.781 -0.1896  0.2393  0.3314
 5618TIP3    H116818   3.630   5.240   1.764  0.8088  0.3525 -1.5545
 5618TIP3    H216819   3.562   5.375   1.779 -0.4265 -0.2690 -1.4307
 5619TIP3   OH216820   2.157   5.350   3.764  0.1824  0.1803 -0.4251
 5619TIP3    H116821   2.219   5.283   3.794 -0.6872 -1.1514 -1.4776
 5619TIP3    H216822   2.083   5.343   3.825  0.0495  0.1193 -0.5937
 5620TIP3   OH216823   4.572   6.372   4.610 -0.4907 -0.0196 -0.5201
 5620TIP3    H116824   4.484   6.366   4.647 -0.6604  2.0918 -0.4993
 5620TIP3    H216825   4.557   6.377   4.515 -0.3508 -0.1228 -0.5482
 5621TIP3   OH216826   0.393   3.273   4.702 -0.0299 -0.0939 -0.2852
 5621TIP3    H116827   0.348   3.355   4.681  0.4878 -0.2238 -2.0635
 5621TIP3    H216828   0.347   3.240   4.779  0.0636  2.0776  0.7670
 5622TIP3   OH216829   3.306   4.207   2.843  0.3820 -0.1134  0.5928
 5622TIP3    H116830   3.378   4.238   2.898 -0.5804 -0.0675  1.8751
 5622TIP3    H216831   3.337   4.124   2.806  0.4412 -1.0178  2.5593
 5623TIP3   OH216832   3.790   6.387   3.261  0.0858  0.2204 -0.2716
 5623TIP3    H116833   3.724   6.334   3.215 -1.4120  0.9025  1.0006
 5623TIP3    H216834   3.864   6.390   3.200 -1.3273  0.0573 -2.0953
 5624TIP3   OH216835   2.679   2.136   2.876 -0.1686  0.5801  0.0437
 5624TIP3    H116836   2.748   2.143   2.942 -1.0247  2.1148  0.8278
 5624TIP3    H216837   2.685   2.217   2.827 -1.1145  0.5172 -0.1878
 5625TIP3   OH216838   6.173   2.886   2.706  0.1503 -0.5060 -0.1194
 5625TIP3    H116839   6.233   2.813   2.696  1.5923  0.8230 -1.9334
 5625TIP3    H216840   6.087   2.850   2.683  0.4068 -2.1349  1.2863
 5626TIP3   OH216841   6.838   1.508   3.014  0.0143 -0.2361  0.5587
 5626TIP3    H116842   6.852   1.433   3.072 -2.4884 -0.1960  1.3390
 5626TIP3    H216843   6.749   1.537   3.034  0.4451  2.1623 -0.6390
 5627TIP3   OH216844   4.162   6.523   2.307  0.2779  1.1711  0.2118
 5627TIP3    H116845   4.164   6.574   2.387  1.8374  1.0039  0.3045
 5627TIP3    H216846   4.072   6.531   2.276 -0.3149  1.3738  1.8801
 5628TIP3   OH216847   5.264   4.107   5.454  0.1155 -0.5070 -0.3017
 5628TIP3    H116848   5.259   4.104   5.550  1.3001  1.7221 -0.1322
 5628TIP3    H216849   5.283   4.016   5.429  0.0413 -1.0877  1.5580
 5629TIP3   OH216850   2.599   0.680   4.426 -0.1113 -0.5123  0.0931
 5629TIP3    H116851   2.653   0.642   4.496 -0.1531 -1.1047 -0.1921
 5629TIP3    H216852   2.663   0.718   4.366 -0.0933  0.4211  0.6843
 5630TIP3   OH216853   4.032   1.308   2.063 -0.2922  0.2037  0.1632
 5630TIP3    H116854   3.946   1.275   2.039 -0.5752  2.1192 -1.7862
 5630TIP3    H216855   4.067   1.243   2.124 -2.6323 -1.1865  0.1294
 5631TIP3   OH216856   2.374   0.634   0.463  0.1969 -0.5756 -0.3946
 5631TIP3    H116857   2.407   0.549   0.434  1.0945  0.0290 -1.2041
 5631TIP3    H216858   2.433   0.659   0.534  0.1064 -0.4993 -0.3473
 5632TIP3   OH216859   4.092   1.563   3.661  0.0455  0.2285  0.0895
 5632TIP3    H116860   4.126   1.488   3.614  2.1963  1.2142 -0.0237
 5632TIP3    H216861   4.081   1.532   3.751  0.4594 -0.3483 -0.0542
 5633TIP3   OH216862   5.090   4.282   2.442 -0.3162  0.3499  0.3284
 5633TIP3    H116863   5.025   4.272   2.512 -0.5540  1.4169  0.2721
 5633TIP3    H216864   5.063   4.361   2.395 -0.1029 -0.2937 -0.9155
 5634TIP3   OH216865   4.975   4.133   5.627 -0.2515  0.6408 -0.3043
 5634TIP3    H116866   5.053   4.080   5.643 -0.4301  0.3131 -0.4970
 5634TIP3    H216867   4.983   4.207   5.687 -0.9374 -0.5623  1.3578
 5635TIP3   OH216868   3.510   3.430   0.956 -0.2012  0.3247  0.6253
 5635TIP3    H116869   3.548   3.464   0.875 -1.1330  0.7946  0.3823
 5635TIP3    H216870   3.536   3.494   1.023 -1.5412  1.2898  0.2530
 5636TIP3   OH216871   2.233   0.281   3.872  0.2372  0.0492  0.2532
 5636TIP3    H116872   2.309   0.231   3.902  0.5220 -0.2889 -0.9662
 5636TIP3    H216873   2.257   0.372   3.886  0.9783 -0.0436 -0.3091
 5637TIP3   OH216874   6.602   0.416   4.280 -0.5700 -0.3634  0.0640
 5637TIP3    H116875   6.511   0.392   4.296 -0.7752  0.2441 -0.1508
 5637TIP3    H216876   6.652   0.336   4.297 -1.3482 -1.3322 -1.8368
 5638TIP3   OH216877   3.445   2.210   1.176  0.7120  0.4956 -0.6147
 5638TIP3    H116878   3.375   2.188   1.237  0.3327  1.2384 -0.7759
 5638TIP3    H216879   3.407   2.200   1.089  1.6461 -1.9332 -0.8304
 5639TIP3   OH216880   2.817   2.946   3.290  0.9138 -0.0188  0.3645
 5639TIP3    H116881   2.885   2.888   3.255 -0.6162 -0.7333 -1.5509
 5639TIP3    H216882   2.746   2.887   3.315 -0.6092  0.9693 -1.4644
 5640TIP3   OH216883   6.605   1.469   5.925  0.1310  0.5184 -0.2084
 5640TIP3    H116884   6.659   1.391   5.913  1.1291  0.9702  1.1075
 5640TIP3    H216885   6.596   1.506   5.837 -1.1842 -1.5506 -1.0456
 5641TIP3   OH216886   3.212   3.669   4.316  0.2064  0.1096  0.0218
 5641TIP3    H116887   3.228   3.589   4.265 -1.9187 -0.3520 -0.0249
 5641TIP3    H216888   3.117   3.677   4.318  0.3461  2.8961 -0.3197
 5642TIP3   OH216889   6.852   0.364   5.708  0.1671  0.5821  0.4823
 5642TIP3    H116890   6.847   0.409   5.624  0.7675  1.1621  0.7555
 5642TIP3    H216891   6.939   0.383   5.741  0.2546 -0.3681  0.8423
 5643TIP3   OH216892   3.731   0.415   3.170 -0.4983  0.3418 -0.0445
 5643TIP3    H116893   3.799   0.421   3.237  2.1071  0.3109 -2.5555
 5643TIP3    H216894   3.712   0.506   3.147  0.9407  0.3239 -1.4328
 5644TIP3   OH216895   5.404   4.248   2.583  0.0954  0.9022  0.8032
 5644TIP3    H116896   5.492   4.271   2.552  0.8702 -0.8494  1.5541
 5644TIP3    H216897   5.363   4.206   2.507  1.1547 -1.2619  1.3271
 5645TIP3   OH216898   3.912   2.343   2.096 -0.1034  0.0134  0.7529
 5645TIP3    H116899   3.893   2.423   2.145  1.1027  0.3437  0.7135
 5645TIP3    H216900   3.997   2.315   2.128  0.2329 -0.3366 -0.4136
 5646TIP3   OH216901   6.069   0.412   1.749 -0.6465 -0.0822 -0.3027
 5646TIP3    H116902   6.055   0.394   1.842 -1.4208  0.1159 -0.3679
 5646TIP3    H216903   6.106   0.501   1.747  1.2285 -0.8224 -0.0926
 5647TIP3   OH216904   1.700   4.436   4.216 -0.1078 -0.0334  0.0504
 5647TIP3    H116905   1.614   4.466   4.246 -0.7262 -1.5884 -0.0440
 5647TIP3    H216906   1.758   4.450   4.290 -0.0554  2.4591 -0.3869
 5648TIP3   OH216907   3.877   0.184   0.802 -0.0962 -0.2830 -0.1658
 5648TIP3    H116908   3.937   0.253   0.774  0.2675 -1.4583 -2.5063
 5648TIP3    H216909   3.790   0.221   0.789  0.0839  0.4273  0.5620
 5649TIP3   OH216910   6.075   4.867   3.949 -0.4505 -0.3833  0.4485
 5649TIP3    H116911   6.099   4.925   4.021 -0.1622 -0.5614  0.4991
 5649TIP3    H216912   6.157   4.824   3.925 -0.7750 -1.2462  0.8360
 5650TIP3   OH216913   0.264   2.571   1.181  0.2334 -1.0164  0.7180
 5650TIP3    H116914   0.216   2.654   1.182  1.5014 -0.0641 -2.8200
 5650TIP3    H216915   0.195   2.505   1.174 -0.7233 -0.1163  1.2641
 5651TIP3   OH216916   2.362   1.157   3.715  0.2491 -0.5839  0.2877
 5651TIP3    H116917   2.321   1.178   3.799 -0.1895 -0.4463  0.0414
 5651TIP3    H216918   2.294   1.175   3.650  1.0343  0.6976 -0.2171
 5652TIP3   OH216919   3.372   6.156   5.811  0.2439  0.0603  0.0750
 5652TIP3    H116920   3.433   6.203   5.867  1.3621 -1.5950  0.3089
 5652TIP3    H216921   3.301   6.218   5.795  1.1198  1.4156  1.2567
 5653TIP3   OH216922   0.839   2.279   3.949  0.1117 -0.3471 -0.1937
 5653TIP3    H116923   0.768   2.218   3.927 -0.0213  0.2697 -1.5400
 5653TIP3    H216924   0.810   2.363   3.914  0.8566  0.2406  0.5550
 5654TIP3   OH216925   1.056   3.845   2.724 -0.6414 -0.1490 -0.1726
 5654TIP3    H116926   0.988   3.815   2.784  0.3244  1.6152  1.9427
 5654TIP3    H216927   1.028   3.932   2.697 -0.1650 -0.1964 -0.8408
 5655TIP3   OH216928   1.418   1.360   5.860 -0.0384  0.0183  0.1318
 5655TIP3    H116929   1.451   1.447   5.840 -1.1924  0.5145  0.2547
 5655TIP3    H216930   1.430   1.310   5.780 -0.8949  0.7940 -0.5128
 5656TIP3   OH216931   2.962   0.268   1.404  0.0493 -0.2096  0.3979
 5656TIP3    H116932   2.870   0.259   1.429  0.1571  2.0046  1.8411
 5656TIP3    H216933   2.959   0.280   1.309 -1.0534 -1.0670  0.2969
 5657TIP3   OH216934   2.455   0.778   3.366 -0.2419  0.3336 -0.0049
 5657TIP3    H116935   2.521   0.835   3.327 -0.1394  0.6711  0.6402
 5657TIP3    H216936   2.397   0.838   3.414  0.0801 -0.1359  0.9929
 5658TIP3   OH216937   5.170   0.345   4.603 -0.2485 -0.4033  0.1587
 5658TIP3    H116938   5.087   0.388   4.624 -0.2696 -0.9989  1.3676
 5658TIP3    H216939   5.155   0.304   4.518 -1.0593 -0.1765  0.1810
 5659TIP3   OH216940   3.742   4.827   3.387 -0.2581  0.6086  0.0289
 5659TIP3    H116941   3.835   4.836   3.407  0.1550 -0.0190 -1.4690
 5659TIP3    H216942   3.740   4.793   3.298 -1.8769 -2.2142  1.0312
 5660TIP3   OH216943   2.477   4.639   2.094  0.3324  0.5006 -0.4128
 5660TIP3    H116944   2.564   4.602   2.105  0.9730  1.5949 -1.5524
 5660TIP3    H216945   2.420   4.581   2.145  1.8218  0.2875  1.1265
 5661TIP3   OH216946   0.821   1.292   0.471 -0.2743  0.2375 -0.0915
 5661TIP3    H116947   0.887   1.323   0.533 -1.7238  1.4717  0.9058
 5661TIP3    H216948   0.776   1.371   0.442 -1.4234 -0.5799 -0.6165
 5662TIP3   OH216949   3.700   5.620   4.560 -0.0421  0.6589  0.3478
 5662TIP3    H116950   3.781   5.582   4.528 -0.8791 -1.2060  0.2738
 5662TIP3    H216951   3.643   5.544   4.577 -1.8120  1.8929  0.2498
 5663TIP3   OH216952   4.017   3.036   1.990 -0.4517 -0.5532  0.5306
 5663TIP3    H116953   4.093   3.004   1.941 -1.1124  0.4891 -1.2666
 5663TIP3    H216954   4.050   3.050   2.079  1.1145 -1.3335  0.1053
 5664TIP3   OH216955   1.416   0.254   0.647  0.5944 -0.0014  0.1283
 5664TIP3    H116956   1.335   0.216   0.681 -0.2245  0.3481 -1.3438
 5664TIP3    H216957   1.459   0.291   0.724 -0.1871 -0.9954  1.0825
 5665TIP3   OH216958   4.576   3.064   2.339 -0.1861 -0.1835  0.5669
 5665TIP3    H116959   4.586   3.119   2.416 -0.9625  1.5064 -0.4788
 5665TIP3    H216960   4.623   2.984   2.360  1.3246  1.0183  2.0259
 5666TIP3   OH216961   6.280   1.739   1.864 -0.0084  0.5269  0.0715
 5666TIP3    H116962   6.250   1.822   1.901  2.2918  1.0747  0.8863
 5666TIP3    H216963   6.353   1.712   1.921 -1.2363 -2.5473  0.4044
 5667TIP3   OH216964   7.102   3.214   1.857 -0.2225  0.0311  0.1717
 5667TIP3    H116965   7.022   3.219   1.909 -0.2703  1.5894  0.0019
 5667TIP3    H216966   7.150   3.141   1.895 -1.6458 -0.8557  0.3690
 5668TIP3   OH216967   3.881   6.270   1.158  0.0816  0.0966  0.0410
 5668TIP3    H116968   3.815   6.231   1.216  0.3457  2.4162  2.0764
 5668TIP3    H216969   3.835   6.288   1.077 -2.0001  2.0157  1.5404
 5669TIP3   OH216970   0.060   2.120   3.852 -0.3415 -0.0497 -0.3376
 5669TIP3    H116971   0.065   2.037   3.806 -2.5400 -1.4908  1.8014
 5669TIP3    H216972   0.146   2.130   3.893 -0.0827 -1.3449 -0.5308
 5670TIP3   OH216973   2.458   1.589   2.206 -0.1794  1.0073 -0.0008
 5670TIP3    H116974   2.519   1.636   2.150 -1.5032  1.4951 -1.0850
 5670TIP3    H216975   2.377   1.584   2.156 -0.6393 -0.8790  0.8098
 5671TIP3   OH216976   5.060   5.016   0.714  0.4032 -0.0156  0.5551
 5671TIP3    H116977   5.076   4.925   0.738 -1.1682 -0.5882 -0.4541
 5671TIP3    H216978   5.071   5.064   0.796  1.9511 -0.9879  0.9632
 5672TIP3   OH216979   6.686   0.932   4.948  0.1356  0.2027  0.8248
 5672TIP3    H116980   6.678   1.023   4.922  1.1251  0.0586 -0.0605
 5672TIP3    H216981   6.596   0.902   4.961 -0.3497  0.6823 -1.1100
 5673TIP3   OH216982   2.359   1.185   4.393  0.4070 -0.4493  1.0923
 5673TIP3    H116983   2.388   1.120   4.330  2.9041  0.6758  0.9443
 5673TIP3    H216984   2.368   1.143   4.478 -0.6109 -1.1618  0.8572
 5674TIP3   OH216985   3.179   3.636   4.684  0.1980 -0.3912 -0.0384
 5674TIP3    H116986   3.202   3.550   4.648 -0.2284  0.0823 -1.5005
 5674TIP3    H216987   3.164   3.691   4.608  1.1318  1.1929  0.8732
 5675TIP3   OH216988   3.447   6.377   3.924 -0.2956  0.0347  0.0730
 5675TIP3    H116989   3.420   6.287   3.903  0.4317  0.0728 -1.1773
 5675TIP3    H216990   3.529   6.389   3.875  0.3906  0.9011  1.3896
 5676TIP3   OH216991   1.007   2.445   2.678 -0.4840 -0.0294  0.2462
 5676TIP3    H116992   1.097   2.447   2.645 -0.2787  0.5040  0.8263
 5676TIP3    H216993   0.963   2.382   2.620  0.3905 -0.7285  0.3035
 5677TIP3   OH216994   6.718   5.141   2.152  0.5058 -0.2132 -0.3763
 5677TIP3    H116995   6.692   5.107   2.237 -0.3750 -0.6881 -0.8246
 5677TIP3    H216996   6.775   5.072   2.116 -2.1802 -1.8888 -1.7702
 5678TIP3   OH216997   4.436   5.804   5.162  0.1735  0.5762  0.6381
 5678TIP3    H116998   4.500   5.734   5.171  0.8597  1.0125 -0.6788
 5678TIP3    H216999   4.354   5.758   5.141  0.5762  0.1523 -0.0341
 5679TIP3   OH217000   2.739   1.700   1.437 -0.5653 -0.3747 -0.2288
 5679TIP3    H117001   2.761   1.760   1.508 -1.2360 -1.8735  1.3282
 5679TIP3    H217002   2.650   1.725   1.411 -0.2877  0.2308 -0.6096
 5680TIP3   OH217003   4.006   3.349   5.125 -0.0746  0.2975 -0.6284
 5680TIP3    H117004   4.052   3.400   5.058 -1.3079  0.0574 -1.6905
 5680TIP3    H217005   4.003   3.260   5.090  1.1667 -0.3389  0.7635
 5681TIP3   OH217006   3.382   0.925   0.600 -0.0914  0.2798  0.1781
 5681TIP3    H117007   3.360   1.005   0.646 -0.5928  0.6270 -0.6377
 5681TIP3    H217008   3.384   0.951   0.507 -0.6998 -0.7374 -0.1350
 5682TIP3   OH217009   1.214   3.816   2.464  0.1274  0.0512  0.1113
 5682TIP3    H117010   1.177   3.904   2.455 -1.2001 -0.6108 -1.2457
 5682TIP3    H217011   1.268   3.821   2.543 -0.0811  2.0210  0.1752
 5683TIP3   OH217012   1.005   0.200   4.380  0.0595 -0.1860 -0.0348
 5683TIP3    H117013   0.944   0.188   4.452  0.0194 -1.0435 -0.1901
 5683TIP3    H217014   1.000   0.117   4.331  0.6858  0.0704 -0.5503
 5684TIP3   OH217015   2.569   2.882   4.452  0.0091 -0.7974 -0.0974
 5684TIP3    H117016   2.515   2.901   4.529  0.9602  0.4195  0.2953
 5684TIP3    H217017   2.629   2.956   4.446  1.3028 -1.8734 -0.8212
 5685TIP3   OH217018   4.056   5.393   4.544  0.2856  0.3653 -0.0692
 5685TIP3    H117019   4.144   5.356   4.532  1.1162  2.0152  0.5019
 5685TIP3    H217020   4.057   5.473   4.491 -1.0213  0.2218 -0.3413
 5686TIP3   OH217021   2.664   5.595   5.126 -0.0692  0.0170 -0.2347
 5686TIP3    H117022   2.580   5.612   5.169  0.1027 -0.9759  0.5551
 5686TIP3    H217023   2.663   5.649   5.047 -0.9836  0.8503  0.3227
 5687TIP3   OH217024   1.532   4.009   3.390 -0.5910 -0.1369 -0.2882
 5687TIP3    H117025   1.533   3.965   3.476 -0.5265 -0.9491 -0.6928
 5687TIP3    H217026   1.614   4.058   3.388 -1.6653  1.8565  1.0790
 5688TIP3   OH217027   1.027   3.497   1.334  0.4142 -0.1240  0.1393
 5688TIP3    H117028   0.946   3.518   1.379  0.4422 -2.0232  1.1661
 5688TIP3    H217029   1.001   3.442   1.260  0.7233 -0.2204  0.0989
 5689TIP3   OH217030   2.126   3.164   5.683 -0.3794  0.3368 -0.2164
 5689TIP3    H117031   2.091   3.225   5.619  1.4815  2.4497  0.6392
 5689TIP3    H217032   2.110   3.206   5.768 -1.4136 -1.6633  0.6468
 5690TIP3   OH217033   3.129   2.574   3.055 -0.3027 -0.3762  0.0717
 5690TIP3    H117034   3.122   2.588   3.150  0.2407 -1.4211  0.2848
 5690TIP3    H217035   3.065   2.504   3.038  0.7320 -1.3356 -0.0362
 5691TIP3   OH217036   3.794   0.143   0.477 -0.6829 -0.0222 -0.8403
 5691TIP3    H117037   3.820   0.206   0.545  1.1330 -0.6747 -0.8898
 5691TIP3    H217038   3.778   0.062   0.524 -1.5439  0.0665 -0.9617
 5692TIP3   OH217039   4.470   0.524   2.036 -0.2504 -0.5922 -0.0925
 5692TIP3    H117040   4.375   0.531   2.025 -0.4934 -1.6934  1.0703
 5692TIP3    H217041   4.481   0.465   2.110  1.3493 -0.0437  0.1416
 5693TIP3   OH217042   0.316   1.307   2.798  0.3531  0.1192 -0.1722
 5693TIP3    H117043   0.254   1.376   2.822 -0.1124  0.4554 -2.1370
 5693TIP3    H217044   0.350   1.275   2.882 -0.9232  1.3430  0.8713
 5694TIP3   OH217045   4.293   3.923   0.068  0.1345  0.3595 -0.6266
 5694TIP3    H117046   4.208   3.964   0.053  0.1482  0.4958 -0.3520
 5694TIP3    H217047   4.338   3.983   0.128  0.2174  0.0254 -0.3462
 5695TIP3   OH217048   0.181   6.225   2.385  0.1561  0.1829 -0.5069
 5695TIP3    H117049   0.115   6.263   2.443 -0.7757 -0.4205 -1.1470
 5695TIP3    H217050   0.260   6.222   2.438 -0.5726  0.0324  0.6086
 5696TIP3   OH217051   1.658   0.178   3.718  0.3492  0.1857  0.8749
 5696TIP3    H117052   1.574   0.146   3.684 -0.0757  0.8913  1.2287
 5696TIP3    H217053   1.684   0.113   3.782  0.9346 -0.9285 -0.4517
 5697TIP3   OH217054   4.480   0.624   2.405  0.1623  0.6341  0.3111
 5697TIP3    H117055   4.547   0.556   2.412  0.0834  0.6376  1.2025
 5697TIP3    H217056   4.400   0.577   2.381  0.5396  0.6709 -1.1082
 5698TIP3   OH217057   5.431   5.974   4.659 -0.1919  0.1927  0.2486
 5698TIP3    H117058   5.376   6.044   4.695 -0.1405 -0.1084  0.9381
 5698TIP3    H217059   5.519   5.998   4.687 -0.3340 -0.8661  1.7255
 5699TIP3   OH217060   6.871   5.268   3.877 -0.0002 -0.0677  0.0299
 5699TIP3    H117061   6.955   5.225   3.860  0.3062  0.4836  0.1343
 5699TIP3    H217062   6.814   5.239   3.806  0.6570  0.5615 -0.7666
 5700TIP3   OH217063   6.905   6.311   4.974 -0.6338  0.3453  0.1243
 5700TIP3    H117064   6.905   6.256   5.052  1.0499 -3.1992 -2.1046
 5700TIP3    H217065   6.996   6.341   4.966 -1.1876  2.2086  0.4186
 5701TIP3   OH217066   7.070   1.434   2.182 -0.6710 -0.3752  0.4863
 5701TIP3    H117067   7.006   1.411   2.249 -3.3693  0.2740 -1.7215
 5701TIP3    H217068   7.070   1.530   2.180 -0.7718 -0.3907 -0.5796
 5702TIP3   OH217069   5.378   4.825   1.900 -0.1279  0.0708  0.1090
 5702TIP3    H117070   5.296   4.865   1.870  0.3418 -0.1455 -1.6226
 5702TIP3    H217071   5.417   4.890   1.957 -0.8384  0.7855 -0.1957
 5703TIP3   OH217072   0.027   3.134   3.533 -0.8426 -0.3497  0.3423
 5703TIP3    H117073   0.053   3.127   3.625 -1.3738  0.6524  0.5835
 5703TIP3    H217074   0.109   3.154   3.487 -0.9293  1.6621  0.9496
 5704TIP3   OH217075   4.819   5.024   3.179 -0.1980 -0.0403  0.0192
 5704TIP3    H117076   4.784   4.963   3.244 -1.3919  1.8107  1.2384
 5704TIP3    H217077   4.741   5.064   3.140  0.5300  0.9658 -0.4489
 5705TIP3   OH217078   5.224   2.354   0.046  0.7265 -0.2626  0.2296
 5705TIP3    H117079   5.156   2.416   0.073 -1.0619 -1.7265 -0.6895
 5705TIP3    H217080   5.192   2.269   0.077  2.1940 -0.9890 -0.1830
 5706TIP3   OH217081   0.950   0.267   3.745 -0.2627  0.2744  0.0146
 5706TIP3    H117082   0.888   0.324   3.699 -1.1980 -0.2815  0.5388
 5706TIP3    H217083   0.961   0.307   3.831 -0.8091 -0.2388  0.3318
 5707TIP3   OH217084   6.434   4.148   5.609  0.5988  0.3124  0.1995
 5707TIP3    H117085   6.470   4.199   5.536  0.0166 -1.1368 -1.1503
 5707TIP3    H217086   6.352   4.112   5.574  1.7782 -2.9104  0.4601
 5708TIP3   OH217087   6.335   1.227   4.887  0.1531  0.9667  0.5424
 5708TIP3    H117088   6.371   1.316   4.891 -0.4703  1.2212  0.6932
 5708TIP3    H217089   6.254   1.237   4.837  0.3274  0.3958  0.1497
 5709TIP3   OH217090   2.387   1.548   3.762  0.7248 -0.0629  0.4289
 5709TIP3    H117091   2.383   1.586   3.850 -0.5259 -0.1233  0.4129
 5709TIP3    H217092   2.295   1.536   3.737  1.0740 -1.1048 -0.4286
 5710TIP3   OH217093   6.345   3.553   3.616 -0.0285  0.1236  0.1170
 5710TIP3    H117094   6.370   3.643   3.594  1.5072  0.1997  1.9909
 5710TIP3    H217095   6.281   3.562   3.687  1.0054 -0.2625  1.1179
 5711TIP3   OH217096   5.135   1.407   4.423 -0.6887  0.0645 -0.1669
 5711TIP3    H117097   5.123   1.502   4.416 -0.2186  0.2094  0.8542
 5711TIP3    H217098   5.219   1.397   4.469  0.3298 -0.8712 -2.1031
 5712TIP3   OH217099   3.215   2.223   4.156  0.6042  0.4151 -0.4820
 5712TIP3    H117100   3.247   2.249   4.243 -0.2308 -1.0163  0.3020
 5712TIP3    H217101   3.130   2.266   4.148  0.8758  0.9012 -0.7896
 5713TIP3   OH217102   5.236   0.062   3.585  0.1553  0.2015  0.0413
 5713TIP3    H117103   5.240  -0.007   3.652 -1.9016  0.0501  0.0772
 5713TIP3    H217104   5.184   0.023   3.515  1.2604  0.7953 -1.1412
 5714TIP3   OH217105   4.492   0.136   0.596  0.3342 -0.0667 -0.7489
 5714TIP3    H117106   4.572   0.176   0.630 -0.4162  1.7225 -1.0089
 5714TIP3    H217107   4.467   0.073   0.664  0.6337  1.1189  0.5037
 5715TIP3   OH217108   3.189   3.093   1.714 -0.2977 -0.0870  0.0894
 5715TIP3    H117109   3.275   3.065   1.681 -1.2014 -0.5907 -2.0092
 5715TIP3    H217110   3.169   3.172   1.664 -0.5142  0.7873  1.5081
 5716TIP3   OH217111   5.105   0.180   4.397  0.2822  0.7541  0.4973
 5716TIP3    H117112   5.025   0.220   4.363 -1.7076 -0.3438  3.5457
 5716TIP3    H217113   5.082   0.088   4.411  2.3810  0.2033  0.7252
 5717TIP3   OH217114   4.696   2.605   4.902  0.0408 -0.4042 -0.2241
 5717TIP3    H117115   4.707   2.511   4.918  1.8568 -0.2570 -0.4530
 5717TIP3    H217116   4.602   2.620   4.914 -0.2312 -2.1784  0.1591
 5718TIP3   OH217117   1.687   4.945   4.251 -0.1076 -0.5709 -0.3255
 5718TIP3    H117118   1.657   5.017   4.306  1.7079  0.4307 -0.5455
 5718TIP3    H217119   1.628   4.947   4.175 -0.4828  0.2975 -0.0266
 5719TIP3   OH217120   6.812   2.203   2.070 -0.1863  0.6521 -0.4242
 5719TIP3    H117121   6.779   2.221   1.981 -2.3663 -0.8675  0.0028
 5719TIP3    H217122   6.879   2.137   2.058  0.8085  1.7287 -1.0584
 5720TIP3   OH217123   6.518   4.608   2.017  0.1549 -0.5154 -0.1265
 5720TIP3    H117124   6.477   4.658   1.946 -0.0031 -0.0409  0.2946
 5720TIP3    H217125   6.545   4.674   2.081 -0.9657 -1.0323  0.9172
 5721TIP3   OH217126   0.050   4.990   1.497 -0.4006 -0.1374 -0.7406
 5721TIP3    H117127  -0.015   5.003   1.566 -0.9874 -0.1650 -1.2806
 5721TIP3    H217128   0.119   5.053   1.517 -0.0386 -0.8911  0.4949
 5722TIP3   OH217129   5.001   4.264   3.909 -0.2629  0.0821 -0.1621
 5722TIP3    H117130   5.003   4.352   3.946 -0.2656 -0.0770  0.2197
 5722TIP3    H217131   5.044   4.273   3.824 -0.4297  0.4894 -0.2058
 5723TIP3   OH217132   3.112   6.009   3.742 -0.2325  0.1781 -0.5751
 5723TIP3    H117133   3.074   5.954   3.810  0.1949  0.3266 -0.2115
 5723TIP3    H217134   3.121   5.951   3.666  0.6583 -0.3834 -0.0535
 5724TIP3   OH217135   6.317   2.885   1.574 -0.0632 -0.4056 -0.2748
 5724TIP3    H117136   6.335   2.972   1.541  0.2210  0.1965  1.3772
 5724TIP3    H217137   6.347   2.886   1.665 -1.1592 -1.8402  0.1611
 5725TIP3   OH217138   0.947   2.974   4.276  0.2991 -0.1874  0.4526
 5725TIP3    H117139   0.914   2.969   4.186 -2.5928 -0.8641  1.4375
 5725TIP3    H217140   0.925   2.889   4.314  1.4902  0.0857  1.8142
 5726TIP3   OH217141   2.276   5.215   2.121  0.4431  0.1424  0.1735
 5726TIP3    H117142   2.348   5.209   2.058  0.1623  0.8225 -0.2334
 5726TIP3    H217143   2.230   5.295   2.096 -1.1158 -0.8440 -0.3029
 5727TIP3   OH217144   2.679   3.313   3.219  0.0674  0.5094  0.2923
 5727TIP3    H117145   2.674   3.408   3.214 -1.7106  0.4750  0.7370
 5727TIP3    H217146   2.610   3.288   3.280  0.3779 -1.0871  0.0452
 5728TIP3   OH217147   2.675   3.137   1.250 -0.5305 -0.1313  0.1808
 5728TIP3    H117148   2.730   3.182   1.314  0.5114  1.9091 -1.9621
 5728TIP3    H217149   2.724   3.146   1.167 -3.0244 -0.2492 -1.3969
 5729TIP3   OH217150   1.015   4.213   1.347  0.3130 -0.5323  0.0877
 5729TIP3    H117151   1.096   4.262   1.357 -0.8121  1.4642  0.0104
 5729TIP3    H217152   1.029   4.157   1.271  0.6187  2.0953 -1.9519
 5730TIP3   OH217153   2.885   3.675   5.822 -0.1154  0.1594 -0.3336
 5730TIP3    H117154   2.954   3.724   5.778 -0.6320  0.8969 -0.3300
 5730TIP3    H217155   2.813   3.737   5.832 -0.9541 -0.7097 -0.7330
 5731TIP3   OH217156   5.191   2.415   0.460  0.0919  0.0556 -0.3505
 5731TIP3    H117157   5.216   2.368   0.380  0.9667 -0.3599  0.1578
 5731TIP3    H217158   5.100   2.442   0.444 -0.8680 -2.7885 -0.2195
 5732TIP3   OH217159   0.661   4.780   3.889  0.0707 -0.1031  0.3544
 5732TIP3    H117160   0.669   4.870   3.920 -0.0221  0.3047 -0.7752
 5732TIP3    H217161   0.624   4.788   3.801 -1.1370 -1.3122  0.7303
 5733TIP3   OH217162   5.784   0.804   5.659 -0.1547  0.4372  0.0915
 5733TIP3    H117163   5.741   0.776   5.578  1.4089  0.6123 -0.8248
 5733TIP3    H217164   5.787   0.725   5.714 -1.3938  0.3654  0.0820
 5734TIP3   OH217165   5.520   4.896   1.379  0.1442 -0.4878 -0.7321
 5734TIP3    H117166   5.469   4.816   1.374 -1.4533  0.4947 -0.9520
 5734TIP3    H217167   5.500   4.933   1.465 -2.1584  1.5214 -2.0032
 5735TIP3   OH217168   0.570   4.400   0.685  0.4320 -0.2911 -0.2460
 5735TIP3    H117169   0.589   4.446   0.767  0.2726 -0.9266  0.1543
 5735TIP3    H217170   0.567   4.307   0.709 -3.2855 -0.3250 -0.1923
 5736TIP3   OH217171   0.811   0.388   5.783 -0.2769 -0.0082  0.3890
 5736TIP3    H117172   0.874   0.414   5.851  0.1616 -2.3555  0.9500
 5736TIP3    H217173   0.737   0.352   5.832 -0.5626 -0.4353 -0.3413
 5737TIP3   OH217174   6.919   0.031   2.270 -0.3854 -1.0727  0.1537
 5737TIP3    H117175   6.915  -0.063   2.288  0.1739 -1.4430 -1.4932
 5737TIP3    H217176   6.837   0.065   2.305  0.8006 -1.5517  3.8095
 5738TIP3   OH217177   4.564   5.573   1.862 -0.3613  0.1030 -0.1527
 5738TIP3    H117178   4.634   5.635   1.843 -1.2788  1.8936  1.8507
 5738TIP3    H217179   4.609   5.496   1.898  0.5915  1.1649  0.9902
 5739TIP3   OH217180   6.404   0.670   4.063 -0.4227  0.3120  0.0999
 5739TIP3    H117181   6.416   0.605   3.994 -1.1536  1.2867 -0.9763
 5739TIP3    H217182   6.314   0.656   4.093  0.3249 -1.0548  1.9063
 5740TIP3   OH217183   5.188   3.185   4.626  0.1442 -0.0556  0.9806
 5740TIP3    H117184   5.222   3.134   4.700 -2.0870  0.0997  2.1814
 5740TIP3    H217185   5.252   3.169   4.556  0.9637 -2.3134  2.1136
 5741TIP3   OH217186   0.297   3.866   2.684  0.2118  0.4636  0.0251
 5741TIP3    H117187   0.250   3.782   2.684  0.0288  0.5629 -0.2613
 5741TIP3    H217188   0.252   3.919   2.751  0.3266  0.3354  0.2046
 5742TIP3   OH217189   4.441   0.321   4.728 -0.5070 -0.2914  0.4661
 5742TIP3    H117190   4.531   0.293   4.713 -0.4883 -0.0915  0.2003
 5742TIP3    H217191   4.432   0.324   4.824  0.2302  1.1137  0.5199
 5743TIP3   OH217192   3.682   6.659   0.692 -0.2713 -0.0565 -0.0526
 5743TIP3    H117193   3.693   6.607   0.612 -0.7576 -0.5549  0.1918
 5743TIP3    H217194   3.732   6.739   0.676 -0.1148 -0.2800 -0.7332
 5744TIP3   OH217195   1.500   3.675   2.025 -0.1453 -0.0638  0.2190
 5744TIP3    H117196   1.450   3.693   1.946 -0.1285  0.5020  0.3349
 5744TIP3    H217197   1.459   3.729   2.092 -0.6962 -1.1767  0.7954
 5745TIP3   OH217198   0.971   0.274   5.592  0.3253  0.3165  0.5319
 5745TIP3    H117199   0.896   0.293   5.648  0.5341 -2.0849  1.7832
 5745TIP3    H217200   0.941   0.203   5.535  0.9122  1.0277 -0.7071
 5746TIP3   OH217201   2.205   1.675   3.255 -0.3078  0.2691  1.0317
 5746TIP3    H117202   2.260   1.693   3.178 -1.5890 -0.4024 -0.0659
 5746TIP3    H217203   2.222   1.749   3.313  0.8712  0.6696  0.2267
 5747TIP3   OH217204   4.671   3.634   0.260  0.4611 -0.4829  0.2189
 5747TIP3    H117205   4.577   3.636   0.245  0.5888 -1.8173 -1.0399
 5747TIP3    H217206   4.709   3.662   0.177  1.1882  0.1339  0.7415
 5748TIP3   OH217207   1.833   1.899   3.732 -0.2560  0.4663 -0.7762
 5748TIP3    H117208   1.761   1.957   3.706 -0.2721  0.9739  0.3356
 5748TIP3    H217209   1.820   1.886   3.826  0.7262  0.0198 -0.6921
 5749TIP3   OH217210   5.220   3.434   4.494  0.0150  0.2448  0.3194
 5749TIP3    H117211   5.146   3.413   4.436 -0.0054 -0.7631  0.6970
 5749TIP3    H217212   5.224   3.361   4.556 -0.6198  1.7743  2.2707
 5750TIP3   OH217213   1.000   1.458   3.380 -0.2690 -0.2171  0.1505
 5750TIP3    H117214   0.976   1.490   3.294 -0.1310  0.1697  0.2557
 5750TIP3    H217215   1.096   1.463   3.382 -0.3276  0.8376  0.7334
 5751TIP3   OH217216   2.219   2.397   1.740 -0.0157 -0.2588  0.1003
 5751TIP3    H117217   2.278   2.347   1.683  0.8311  0.9130 -0.0899
 5751TIP3    H217218   2.131   2.369   1.714  0.4381 -1.6188 -0.0046
 5752TIP3   OH217219   6.281   5.994   1.299  0.2754  0.6617 -0.2828
 5752TIP3    H117220   6.354   6.007   1.238  0.6232  1.5806  0.3030
 5752TIP3    H217221   6.306   5.916   1.349  2.1480  2.3233  1.6180
 5753TIP3   OH217222   2.069   5.923   5.008  0.1796 -0.2618  0.0305
 5753TIP3    H117223   2.047   5.867   5.083 -0.3088 -0.3911 -0.2040
 5753TIP3    H217224   2.005   5.995   5.014 -0.5198 -0.8026 -0.8469
 5754TIP3   OH217225   7.183   6.350   5.474 -0.5760  0.4996 -0.0126
 5754TIP3    H117226   7.153   6.430   5.518  0.5111  0.1614  1.4198
 5754TIP3    H217227   7.132   6.280   5.514  1.1276  0.0641  1.5984
 5755TIP3   OH217228   5.208   0.398   2.920 -0.1755 -0.3722  0.1784
 5755TIP3    H117229   5.194   0.365   2.831  0.5883  0.2577 -0.1880
 5755TIP3    H217230   5.231   0.321   2.972 -0.2450 -0.6857 -0.2548
 5756TIP3   OH217231   4.846   2.493   2.339  0.1364  0.5604  0.3049
 5756TIP3    H117232   4.831   2.424   2.403 -0.3352  2.4714  2.3655
 5756TIP3    H217233   4.871   2.446   2.259  1.2861 -1.9132  1.9784
 5757TIP3   OH217234   0.410   4.002   5.643 -0.7348 -0.6070 -0.2512
 5757TIP3    H117235   0.343   3.934   5.635  0.2305 -1.5330 -0.6397
 5757TIP3    H217236   0.437   3.999   5.735 -0.9561 -0.4874 -0.1811
 5758TIP3   OH217237   4.552   1.727   1.847  0.5912  0.2771 -0.0071
 5758TIP3    H117238   4.647   1.722   1.841  0.6144 -1.2903  0.9913
 5758TIP3    H217239   4.526   1.646   1.893 -1.2494  0.4763 -0.5900
 5759TIP3   OH217240   3.188   1.974   3.319  0.6880  0.0577  0.4807
 5759TIP3    H117241   3.283   1.985   3.322  0.7972 -0.6405 -0.1230
 5759TIP3    H217242   3.170   1.904   3.382  0.6153 -0.0386  0.3537
 5760TIP3   OH217243   5.681   4.488   4.556  0.1360 -0.0000 -0.1729
 5760TIP3    H117244   5.642   4.469   4.641  1.0790 -0.5046  0.1533
 5760TIP3    H217245   5.641   4.571   4.529 -0.3608  0.0289  0.6333
 5761TIP3   OH217246   3.644   3.276   2.988  0.4244  0.4214  0.0308
 5761TIP3    H117247   3.625   3.369   3.004 -0.4610  0.1669  0.5587
 5761TIP3    H217248   3.596   3.230   3.057 -0.9221 -0.5597 -1.4924
 5762TIP3   OH217249   2.273   2.174   4.042  0.1672 -0.3702  0.4826
 5762TIP3    H117250   2.266   2.158   4.136  0.7776 -1.1337  0.4068
 5762TIP3    H217251   2.185   2.197   4.015 -0.0323 -0.2353  1.2290
 5763TIP3   OH217252   6.810   6.260   3.548  0.3111 -0.2546  0.0052
 5763TIP3    H117253   6.748   6.190   3.526 -0.1291  0.2262 -0.3298
 5763TIP3    H217254   6.896   6.220   3.538  0.0613 -0.7945 -0.0239
 5764TIP3   OH217255   4.335   4.671   4.153  0.3700  0.6427  0.3806
 5764TIP3    H117256   4.284   4.635   4.080 -0.7986  1.0513  0.9592
 5764TIP3    H217257   4.274   4.669   4.228  1.8124 -0.6046  1.5783
 5765TIP3   OH217258   4.612   0.245   4.226  0.0627 -1.1139  0.5346
 5765TIP3    H117259   4.545   0.232   4.158  0.5223  1.3676 -0.4891
 5765TIP3    H217260   4.564   0.241   4.308 -1.8928  2.7610 -0.2200
 5766TIP3   OH217261   6.604   1.507   3.228 -0.0770 -0.2431 -0.2684
 5766TIP3    H117262   6.537   1.534   3.290  0.1657  0.2239 -0.2041
 5766TIP3    H217263   6.622   1.416   3.250 -1.0884 -0.5427 -0.6594
 5767TIP3   OH217264   2.052   3.258   3.859  0.6549 -0.2229 -0.1277
 5767TIP3    H117265   2.103   3.177   3.868  0.7896 -0.0187  1.1857
 5767TIP3    H217266   2.118   3.327   3.858  0.5222 -0.1032 -0.9466
 5768TIP3   OH217267   5.810   1.156   5.280  0.2219  0.4512  0.2512
 5768TIP3    H117268   5.756   1.077   5.282  2.1153 -0.8887  1.6243
 5768TIP3    H217269   5.780   1.208   5.354  0.1839  0.1449  0.4545
 5769TIP3   OH217270   5.709   1.302   2.325  0.5543  0.1313 -0.6311
 5769TIP3    H117271   5.663   1.221   2.348  2.0403 -0.2521  1.2537
 5769TIP3    H217272   5.654   1.342   2.258 -1.9286 -0.8227  0.6947
 5770TIP3   OH217273   6.161   3.637   4.358 -0.3936 -0.2286 -0.3756
 5770TIP3    H117274   6.132   3.583   4.284  0.1275  1.0456 -1.5491
 5770TIP3    H217275   6.212   3.577   4.412 -2.6680 -1.7785  0.2104
 5771TIP3   OH217276   3.667   2.798   2.231  0.0921  0.2775  0.2818
 5771TIP3    H117277   3.606   2.852   2.180 -0.1472  0.2809  0.5693
 5771TIP3    H217278   3.714   2.860   2.286 -0.7401  0.1194  1.1889
 5772TIP3   OH217279   7.120   4.301   5.629 -0.4771  0.7003  0.2617
 5772TIP3    H117280   7.060   4.244   5.581  0.4921 -1.0902  1.0851
 5772TIP3    H217281   7.162   4.354   5.561 -0.5454 -0.3902 -0.6592
 5773TIP3   OH217282   0.383   5.052   4.421  0.1423  0.2433 -0.0793
 5773TIP3    H117283   0.316   5.054   4.353 -1.4062 -0.4770  1.3489
 5773TIP3    H217284   0.386   4.961   4.449  2.7436 -0.0251 -1.0332
 5774TIP3   OH217285   4.645   2.497   1.822 -0.5779  0.3320 -0.2140
 5774TIP3    H117286   4.661   2.469   1.731 -2.1043  0.4035 -0.5236
 5774TIP3    H217287   4.729   2.534   1.850 -0.0081  0.0948 -1.5173
 5775TIP3   OH217288   6.109   2.035   0.738  0.2734 -0.4181 -0.0452
 5775TIP3    H117289   6.165   2.107   0.709  0.5097 -0.3289  0.6139
 5775TIP3    H217290   6.121   2.032   0.833 -1.3345  0.0180  0.2035
 5776TIP3   OH217291   5.906   2.522   0.157  0.1143 -0.0020  0.1742
 5776TIP3    H117292   5.858   2.442   0.176 -1.0762  0.3660 -1.1205
 5776TIP3    H217293   5.998   2.496   0.157 -0.2510 -1.3562 -0.1505
 5777TIP3   OH217294   2.972   1.814   4.689  0.5325  0.0201  0.1321
 5777TIP3    H117295   2.899   1.872   4.713  1.1403  1.0415 -0.4365
 5777TIP3    H217296   2.931   1.743   4.641  0.0677  1.4966 -1.7530
 5778TIP3   OH217297   3.303   2.354   3.905  0.0843  0.0379  0.2305
 5778TIP3    H117298   3.268   2.435   3.942  0.2903  0.2801 -0.0972
 5778TIP3    H217299   3.288   2.288   3.973 -0.9100  0.1569  0.1455
 5779TIP3   OH217300   1.306   1.964   3.915 -0.9132 -0.5560  0.3917
 5779TIP3    H117301   1.212   1.976   3.928 -0.9163  0.9856 -0.6604
 5779TIP3    H217302   1.335   2.048   3.879  1.1027 -0.5500  1.8467
 5780TIP3   OH217303   0.426   4.957   2.534 -0.7865  0.0502 -0.5137
 5780TIP3    H117304   0.385   5.038   2.564  0.8702  0.7202  0.0312
 5780TIP3    H217305   0.462   4.917   2.613  0.9497  0.2875 -1.1540
 5781TIP3   OH217306   2.703   6.523   3.354  0.1042  0.2217  0.6095
 5781TIP3    H117307   2.760   6.569   3.415  2.3748 -1.8064  0.1681
 5781TIP3    H217308   2.705   6.432   3.382 -3.2608  0.0416  0.7298
 5782TIP3   OH217309   6.182   0.705   5.214  0.0975 -0.3846 -0.1633
 5782TIP3    H117310   6.112   0.718   5.149  0.6604  1.1516 -0.5019
 5782TIP3    H217311   6.139   0.660   5.286 -1.3583  0.8028 -0.2309
 5783TIP3   OH217312   0.580   3.111   5.736 -0.4974  0.2603  0.1461
 5783TIP3    H117313   0.591   3.182   5.800 -1.8662  1.8297 -1.2739
 5783TIP3    H217314   0.536   3.041   5.785  1.4482  0.0533  1.7412
 5784TIP3   OH217315   1.299   2.817   5.110 -0.0203  0.3766  0.2652
 5784TIP3    H117316   1.238   2.882   5.072 -3.3871 -1.6798  1.6732
 5784TIP3    H217317   1.364   2.870   5.156 -0.9762  2.7595 -0.9138
 5785TIP3   OH217318   6.792   3.814   5.491  0.2122 -0.8150 -0.2653
 5785TIP3    H117319   6.810   3.807   5.397 -1.6626 -1.1027 -0.6579
 5785TIP3    H217320   6.827   3.733   5.528  1.3346 -0.5129 -0.6441
 5786TIP3   OH217321   1.270   0.740   2.747  0.0380 -0.2383 -0.2847
 5786TIP3    H117322   1.197   0.769   2.693 -0.0870 -1.0102 -0.5482
 5786TIP3    H217323   1.336   0.710   2.684  0.8442  1.0085 -0.0776
 5787TIP3   OH217324   2.625   4.892   4.517 -0.2949 -0.1079 -0.8860
 5787TIP3    H117325   2.548   4.918   4.467 -0.7481 -1.5540 -0.9936
 5787TIP3    H217326   2.606   4.803   4.546  0.9916 -0.1871 -0.2026
 5788TIP3   OH217327   3.717   3.322   3.910  0.2783 -0.2498 -0.3848
 5788TIP3    H117328   3.676   3.245   3.948  0.2779  0.4630  1.1453
 5788TIP3    H217329   3.660   3.395   3.936  0.8690  0.3926 -0.8510
 5789TIP3   OH217330   4.891   1.543   4.982 -0.6632  0.4313 -0.4268
 5789TIP3    H117331   4.920   1.587   5.062 -0.3805 -2.0380  0.9244
 5789TIP3    H217332   4.971   1.505   4.945 -0.9555  0.6736 -1.3307
 5790TIP3   OH217333   1.611   4.857   0.714  0.6001 -0.4048  0.1857
 5790TIP3    H117334   1.663   4.777   0.721  1.2853  0.0942  1.1174
 5790TIP3    H217335   1.655   4.907   0.645  2.0356  0.4513  1.6408
 5791TIP3   OH217336   0.735   2.197   5.468 -0.1598  0.3277 -0.1616
 5791TIP3    H117337   0.666   2.216   5.531 -1.2273 -0.3365 -1.0937
 5791TIP3    H217338   0.691   2.199   5.383  0.4437 -2.3802 -0.6125
 5792TIP3   OH217339   3.275   2.148   1.976 -0.3376 -0.3448  0.0898
 5792TIP3    H117340   3.302   2.152   1.884 -0.1343 -0.4684  0.1414
 5792TIP3    H217341   3.258   2.239   2.000 -2.8503 -0.5323 -0.7653
 5793TIP3   OH217342   3.692   3.112   3.381 -0.2924 -0.2783  0.6148
 5793TIP3    H117343   3.620   3.099   3.442  0.6619  0.7709  1.9974
 5793TIP3    H217344   3.653   3.095   3.295 -1.8993 -0.8061  1.4037
 5794TIP3   OH217345   3.075   2.034   4.889 -0.5952  0.0423  0.2927
 5794TIP3    H117346   3.045   2.101   4.827 -1.2868  1.9802  2.6000
 5794TIP3    H217347   3.002   2.024   4.950  1.2943  0.7185  2.7924
 5795TIP3   OH217348   3.790   0.975   2.076 -0.3103 -0.0951 -0.1272
 5795TIP3    H117349   3.717   0.939   2.126  0.1452 -1.1606 -0.2006
 5795TIP3    H217350   3.862   0.913   2.090  0.9433  1.4909  0.8365
 5796TIP3   OH217351   7.194   4.497   4.168 -0.5953 -0.2175 -0.3857
 5796TIP3    H117352   7.113   4.494   4.220 -0.5526  0.3563 -0.2711
 5796TIP3    H217353   7.170   4.549   4.091  0.0226  1.2221  0.3380
 5797TIP3   OH217354   4.487   1.651   3.982  0.2002 -0.4929  0.4839
 5797TIP3    H117355   4.449   1.735   3.957 -2.0894 -1.0231  1.9035
 5797TIP3    H217356   4.575   1.653   3.945  0.7135  3.0468  1.5204
 5798TIP3   OH217357   1.535   3.877   0.781  0.1234  0.2472 -0.1858
 5798TIP3    H117358   1.600   3.927   0.831 -0.5098  0.4143  0.4853
 5798TIP3    H217359   1.451   3.917   0.804 -0.3006 -0.4983 -0.3976
 5799TIP3   OH217360   5.776   5.218   0.480 -0.2535 -1.0908  0.2484
 5799TIP3    H117361   5.742   5.140   0.525 -2.4122  0.2276  1.0750
 5799TIP3    H217362   5.736   5.215   0.393 -1.6486 -0.1564  0.8164
 5800TIP3   OH217363   3.298   4.832   2.238  0.0048 -0.0195  0.2674
 5800TIP3    H117364   3.299   4.927   2.238 -0.1068 -0.0194  0.0622
 5800TIP3    H217365   3.208   4.808   2.259 -0.4641 -0.0767 -1.6100
 5801TIP3   OH217366   2.116   4.114   1.666  0.7035  0.2965  0.3824
 5801TIP3    H117367   2.153   4.142   1.582  0.5893  0.1659  0.2877
 5801TIP3    H217368   2.146   4.023   1.676 -1.0256 -0.4181 -0.5381
 5802TIP3   OH217369   2.827   4.287   4.918  0.4361 -0.1528 -0.2610
 5802TIP3    H117370   2.839   4.226   4.845  0.0863  0.4854 -0.8578
 5802TIP3    H217371   2.865   4.242   4.993  1.7025 -0.4004 -1.0359
 5803TIP3   OH217372   4.671   2.345   4.997 -0.2437 -0.3402 -0.3043
 5803TIP3    H117373   4.761   2.316   4.986 -0.3793 -0.5288 -0.9867
 5803TIP3    H217374   4.621   2.292   4.934 -0.3792  1.9649 -2.2798
 5804TIP3   OH217375   5.747   5.877   3.199 -0.4925 -0.2215  0.4413
 5804TIP3    H117376   5.673   5.932   3.226  0.3915  0.1238  2.3859
 5804TIP3    H217377   5.821   5.937   3.198  0.1057 -0.9563  0.4832
 5805TIP3   OH217378   4.763   0.686   0.864  0.2092 -0.2383 -0.3117
 5805TIP3    H117379   4.792   0.751   0.800  0.7102 -0.5579 -0.4098
 5805TIP3    H217380   4.721   0.738   0.933  1.5271  0.2821  0.1199
 5806TIP3   OH217381   1.392   4.920   3.700  0.0810 -0.2154 -0.4347
 5806TIP3    H117382   1.336   4.941   3.775  1.7389  0.7725  0.5910
 5806TIP3    H217383   1.452   4.853   3.733 -0.7920 -1.6738 -1.6811
 5807TIP3   OH217384   3.437   3.199   4.134  0.4133 -0.0722 -0.3046
 5807TIP3    H117385   3.494   3.138   4.087  0.8639 -1.5558  1.9997
 5807TIP3    H217386   3.496   3.242   4.196 -0.5576  0.1458  0.4782
 5808TIP3   OH217387   1.220   1.582   2.452 -0.0450  0.2371  0.4401
 5808TIP3    H117388   1.125   1.586   2.453 -0.0424  2.9692  1.9919
 5808TIP3    H217389   1.245   1.607   2.363 -0.7656 -0.4821  0.0304
 5809TIP3   OH217390   5.383   3.681   5.112  0.1132 -0.0729  0.1116
 5809TIP3    H117391   5.418   3.761   5.071  1.1915  0.1076  1.3153
 5809TIP3    H217392   5.433   3.672   5.192 -1.2052 -1.0136  0.8630
 5810TIP3   OH217393   3.730   6.558   0.948 -0.1353 -0.3776  0.1106
 5810TIP3    H117394   3.671   6.596   0.882 -0.7525 -0.5343  0.5575
 5810TIP3    H217395   3.738   6.625   1.015 -0.7751 -0.8049  0.6274
 5811TIP3   OH217396   2.820   0.511   1.615  0.0839 -0.3037 -0.3587
 5811TIP3    H117397   2.825   0.505   1.520 -0.5521 -1.8039 -0.3351
 5811TIP3    H217398   2.818   0.605   1.633  1.0671  0.0158 -1.7585
 5812TIP3   OH217399   1.542   1.946   0.990  0.2691 -0.3925  0.3350
 5812TIP3    H117400   1.494   2.011   1.041 -0.8245 -0.0300 -1.0971
 5812TIP3    H217401   1.550   1.871   1.049 -0.9167  0.0193  1.0595
 5813TIP3   OH217402   6.403   4.184   2.643 -0.0492 -0.4370 -0.2796
 5813TIP3    H117403   6.360   4.204   2.726 -1.6357 -0.5332 -1.0562
 5813TIP3    H217404   6.393   4.089   2.634  0.0586 -0.4168 -0.6103
 5814TIP3   OH217405   0.792   2.829   4.851  0.2044 -0.4667 -0.0569
 5814TIP3    H117406   0.742   2.770   4.794  0.6896 -0.7583 -0.1863
 5814TIP3    H217407   0.808   2.778   4.930  2.4790 -1.3439 -0.9827
 5815TIP3   OH217408   1.870   5.424   5.528 -0.4898  0.0039 -0.1649
 5815TIP3    H117409   1.817   5.455   5.454 -1.1493  0.7566  0.6017
 5815TIP3    H217410   1.920   5.350   5.492 -3.7181 -2.2798 -0.3973
 5816TIP3   OH217411   4.396   3.242   1.873  0.5393 -0.1093  0.0010
 5816TIP3    H117412   4.327   3.262   1.935  0.1546  1.9143 -0.9969
 5816TIP3    H217413   4.434   3.160   1.904 -1.0983 -0.3075  1.5945
 5817TIP3   OH217414   2.304   0.794   3.030 -0.2157  0.4830 -0.6968
 5817TIP3    H117415   2.263   0.818   3.113 -1.0162 -0.6515 -0.7439
 5817TIP3    H217416   2.385   0.750   3.055 -0.2809  0.4596 -0.5238
 5818TIP3   OH217417   2.525   2.514   1.479  0.4503 -0.0866  0.2117
 5818TIP3    H117418   2.533   2.604   1.448  0.0150  0.8791  2.6522
 5818TIP3    H217419   2.606   2.497   1.527  0.3141 -0.8199  0.1986
 5819TIP3   OH217420   5.149   4.734   4.637  0.3185  0.0209  0.3167
 5819TIP3    H117421   5.104   4.704   4.717 -1.1064  1.4067  0.0746
 5819TIP3    H217422   5.224   4.675   4.629  0.0380 -0.6778  2.2229
 5820TIP3   OH217423   2.908   1.100   4.769 -0.0097  0.5414 -0.3046
 5820TIP3    H117424   2.932   1.192   4.762 -0.0972  0.5267 -0.8349
 5820TIP3    H217425   2.894   1.086   4.863 -0.7629  1.2586 -0.2959
 5821TIP3   OH217426   4.362   3.621   5.551 -0.0268 -0.0809  0.3907
 5821TIP3    H117427   4.340   3.541   5.598 -1.0384 -0.3963 -0.5723
 5821TIP3    H217428   4.286   3.638   5.496  0.9822  0.4272 -0.9084
 5822TIP3   OH217429   4.097   0.091   1.203 -0.2978  0.5026  0.1417
 5822TIP3    H117430   4.151   0.171   1.209 -1.3804  1.2794 -0.2099
 5822TIP3    H217431   4.104   0.065   1.111  1.5047 -0.8897  0.5981
 5823TIP3   OH217432   1.470   5.049   2.619 -0.0257  0.3803  0.2293
 5823TIP3    H117433   1.445   5.055   2.527  0.9813 -1.3035 -0.2051
 5823TIP3    H217434   1.464   5.138   2.652  0.0410  1.0956 -1.5875
 5824TIP3   OH217435   3.106   4.762   4.829  0.1019 -0.0640  0.4466
 5824TIP3    H117436   3.081   4.805   4.911  2.0275  0.1731  0.9461
 5824TIP3    H217437   3.062   4.814   4.761 -1.4469 -0.2068  1.2721
 5825TIP3   OH217438   0.286   5.019   4.739  0.3961  0.0641 -0.2273
 5825TIP3    H117439   0.195   5.017   4.767  0.5933  2.1771  0.7872
 5825TIP3    H217440   0.308   4.928   4.720 -2.1345 -0.4029 -1.3112
 5826TIP3   OH217441   0.714   1.805   5.040 -0.1457  0.2039  0.2875
 5826TIP3    H117442   0.768   1.727   5.045  0.4146  0.5794  0.2007
 5826TIP3    H217443   0.709   1.825   4.946 -1.7150 -0.6986  0.1416
 5827TIP3   OH217444   2.568   2.013   2.627 -0.0144  0.0486 -0.2968
 5827TIP3    H117445   2.587   2.088   2.683 -1.0557 -1.0715  1.6668
 5827TIP3    H217446   2.596   2.040   2.539 -0.9449  2.9485  0.2119
 5828TIP3   OH217447   5.750   2.202   5.805 -0.0242 -0.2059  0.5227
 5828TIP3    H117448   5.686   2.144   5.763 -0.3147 -0.0513  0.7437
 5828TIP3    H217449   5.825   2.146   5.825 -0.3032 -0.5062  0.7401
 5829TIP3   OH217450   4.939   3.056   3.393 -0.3443  0.3283  0.1442
 5829TIP3    H117451   4.969   2.971   3.362  0.3302  0.1166  1.3070
 5829TIP3    H217452   4.846   3.042   3.412  0.0640 -0.6194  1.7203
 5830TIP3   OH217453   6.546   5.883   5.334  0.3187 -0.1978 -0.6397
 5830TIP3    H117454   6.570   5.974   5.352 -0.0815  0.0814 -1.4574
 5830TIP3    H217455   6.487   5.888   5.259  1.3073 -1.2333 -1.5324
 5831TIP3   OH217456   0.594   4.221   3.748 -0.2787 -0.7813  0.4381
 5831TIP3    H117457   0.664   4.283   3.729  2.6131 -3.4679  1.2699
 5831TIP3    H217458   0.535   4.267   3.807  2.1167  0.9812  1.6248
 5832TIP3   OH217459   5.514   6.723   1.567 -0.6034 -0.1629 -0.6448
 5832TIP3    H117460   5.554   6.638   1.585 -0.6477  0.0958  0.7489
 5832TIP3    H217461   5.420   6.707   1.571 -0.6166  0.1252  0.6002
 5833TIP3   OH217462   5.923   1.730   5.464  0.3682 -0.0877 -0.3491
 5833TIP3    H117463   5.914   1.767   5.376  0.6532  0.6943 -0.0527
 5833TIP3    H217464   6.017   1.721   5.476  0.3150 -0.5664 -0.2715
 5834TIP3   OH217465   3.330   3.357   0.610  0.0796 -0.0398 -0.1743
 5834TIP3    H117466   3.270   3.303   0.661  0.7050  1.3057  2.1399
 5834TIP3    H217467   3.406   3.300   0.595 -0.7005 -0.9173 -0.9028
 5835TIP3   OH217468   3.458   5.226   0.589 -0.1525  0.2307  0.2906
 5835TIP3    H117469   3.533   5.276   0.557  0.1444 -0.5918 -0.3332
 5835TIP3    H217470   3.495   5.142   0.615 -0.8798 -0.2319 -0.1428
 5836TIP3   OH217471   3.784   3.139   4.348 -0.4823 -0.2980  0.9887
 5836TIP3    H117472   3.820   3.062   4.305 -0.0361 -0.2154  1.2124
 5836TIP3    H217473   3.747   3.105   4.430 -1.2070 -0.4327  0.6171
 5837TIP3   OH217474   2.374   4.049   2.727 -0.3456 -0.4596 -0.2669
 5837TIP3    H117475   2.408   4.005   2.805  0.8292  1.8007  0.6094
 5837TIP3    H217476   2.337   3.979   2.674  0.2664 -2.2930  1.5789
 5838TIP3   OH217477   6.837   1.708   5.050  0.0440  0.2089  0.6502
 5838TIP3    H117478   6.842   1.631   5.107  2.0845  1.0903  1.7783
 5838TIP3    H217479   6.797   1.676   4.969  0.9691 -2.0758  1.0230
 5839TIP3   OH217480   1.027   5.466   2.398 -0.3694  0.4949 -0.5230
 5839TIP3    H117481   0.965   5.406   2.440 -1.3664  2.0323  0.2700
 5839TIP3    H217482   1.010   5.456   2.305  1.4638 -2.5242 -0.6766
 5840TIP3   OH217483   4.526   3.825   5.674  0.0301 -0.4422  0.0762
 5840TIP3    H117484   4.474   3.786   5.603 -0.9330  0.0558  0.4812
 5840TIP3    H217485   4.615   3.793   5.659 -0.6607 -2.6173  0.2642
 5841TIP3   OH217486   3.659   2.231   2.293  0.3376 -0.4769  0.2306
 5841TIP3    H117487   3.734   2.200   2.343  0.6184 -0.5329 -0.2202
 5841TIP3    H217488   3.693   2.247   2.205  0.3569  1.7689  0.5911
 5842TIP3   OH217489   5.762   0.766   1.677  0.0612  0.6361  0.4198
 5842TIP3    H117490   5.778   0.715   1.598 -3.4063  1.7611 -1.1780
 5842TIP3    H217491   5.770   0.703   1.749 -0.1426 -1.2088 -1.1018
 5843TIP3   OH217492   3.097   0.996   2.534  0.9919 -0.3057  0.2735
 5843TIP3    H117493   3.126   1.080   2.569 -1.1904  0.7114 -0.1721
 5843TIP3    H217494   3.062   0.948   2.609  1.4447 -0.4692  0.3833
 5844TIP3   OH217495   4.016   2.110   2.226 -0.4022 -0.7023  0.0299
 5844TIP3    H117496   3.927   2.098   2.195 -1.7150  1.7530  2.4359
 5844TIP3    H217497   4.008   2.118   2.321  1.7609  3.4107  0.1184
 5845TIP3   OH217498   1.127   6.465   2.103 -0.2220 -0.9372  0.2798
 5845TIP3    H117499   1.089   6.490   2.187  0.3194  0.9517  0.0055
 5845TIP3    H217500   1.053   6.439   2.049 -0.7419 -0.6257  0.8414
 5846TIP3   OH217501   4.162   0.099   5.543 -0.0164 -0.0686  0.1961
 5846TIP3    H117502   4.124   0.015   5.514  2.8410 -1.1485 -0.7307
 5846TIP3    H217503   4.175   0.088   5.638  2.5391 -1.7421 -0.2530
 5847TIP3   OH217504   2.783   2.499   5.281  0.3078 -0.3309  0.4169
 5847TIP3    H117505   2.857   2.443   5.257  0.8324  0.1825  0.8130
 5847TIP3    H217506   2.797   2.579   5.231 -1.2432 -1.0697 -1.3165
 5848TIP3   OH217507   4.500   6.393   4.302 -0.6407 -0.1966 -0.2719
 5848TIP3    H117508   4.446   6.318   4.278 -0.4132 -1.2943  2.3307
 5848TIP3    H217509   4.590   6.366   4.281 -0.5213 -0.8395  0.9936
 5849TIP3   OH217510   7.074   3.289   2.376 -0.0708 -0.2094  0.0963
 5849TIP3    H117511   7.148   3.325   2.425  0.9319  1.4712 -2.3986
 5849TIP3    H217512   7.090   3.195   2.374  0.8713 -0.1037  1.3178
 5850TIP3   OH217513   0.264   4.826   0.084 -0.1888  0.2762 -0.1920
 5850TIP3    H117514   0.222   4.894   0.136  0.8937  1.4966 -0.8677
 5850TIP3    H217515   0.340   4.869   0.045 -1.1915 -0.4509 -3.1618
 5851TIP3   OH217516   1.001   1.706   2.037  0.3100  0.0714 -0.3193
 5851TIP3    H117517   1.079   1.669   1.995  1.8554  1.0134  1.5287
 5851TIP3    H217518   0.983   1.648   2.111 -0.5594  0.0445 -0.5442
 5852TIP3   OH217519   5.448   0.082   0.935 -0.2361  0.4389  0.3409
 5852TIP3    H117520   5.491   0.103   1.018 -0.3837  0.1212  0.4974
 5852TIP3    H217521   5.520   0.056   0.877 -0.3629 -2.1810  1.2166
 5853TIP3   OH217522   5.476   3.659   4.356  0.1870  0.1916 -0.1332
 5853TIP3    H117523   5.428   3.576   4.354 -0.1363  0.3697  0.1218
 5853TIP3    H217524   5.447   3.702   4.437  1.6091 -0.1857  0.6063
 5854TIP3   OH217525   2.418   3.434   2.824 -0.0438 -0.2850 -0.2524
 5854TIP3    H117526   2.323   3.429   2.811 -0.2177 -0.9823  1.0992
 5854TIP3    H217527   2.448   3.495   2.757 -1.1815 -1.5541 -2.0260
 5855TIP3   OH217528   6.745   0.867   3.577 -0.2880  0.2625 -0.1674
 5855TIP3    H117529   6.682   0.824   3.634 -1.4479  0.2801 -1.3941
 5855TIP3    H217530   6.823   0.880   3.632 -0.8706 -0.9621  0.9820
 5856TIP3   OH217531   6.690   4.726   5.375 -0.1242  0.0761  0.3559
 5856TIP3    H117532   6.782   4.717   5.399  0.0337 -1.0472 -0.5384
 5856TIP3    H217533   6.658   4.636   5.370 -1.2837  0.4516  0.6727
 5857TIP3   OH217534   6.916   5.502   3.051  0.1548  0.1677  0.6734
 5857TIP3    H117535   6.913   5.514   2.956 -0.2939 -0.1393  0.6433
 5857TIP3    H217536   6.870   5.579   3.086 -0.1913 -0.0117  0.6145
 5858TIP3   OH217537   2.912   5.988   2.756 -0.0711  0.0908  0.0540
 5858TIP3    H117538   2.995   6.026   2.784 -0.7041  1.0581  0.6575
 5858TIP3    H217539   2.911   6.000   2.661  0.8132 -0.6340 -0.0633
 5859TIP3   OH217540   5.924   3.904   1.177 -0.8048 -0.7583 -0.4879
 5859TIP3    H117541   5.856   3.897   1.110 -0.5489 -1.0065 -0.7180
 5859TIP3    H217542   5.880   3.947   1.251 -0.5404  1.5796 -1.5907
 5860TIP3   OH217543   3.377   4.814   5.402  0.3088 -0.3900  0.2514
 5860TIP3    H117544   3.360   4.898   5.446 -1.6288  0.2808 -1.6046
 5860TIP3    H217545   3.307   4.756   5.433 -0.1259 -0.3878 -0.6931
 5861TIP3   OH217546   3.848   4.523   5.574 -0.2367  0.6039  0.5501
 5861TIP3    H117547   3.774   4.583   5.584 -1.8073 -0.6021 -2.2748
 5861TIP3    H217548   3.916   4.575   5.532 -1.3591  0.6743 -1.3118
 5862TIP3   OH217549   4.423   2.038   2.923  0.0653  0.3531  0.1191
 5862TIP3    H117550   4.459   2.022   2.836 -0.5207 -0.2588 -0.0176
 5862TIP3    H217551   4.451   1.963   2.975 -1.2152 -0.2813 -0.0624
 5863TIP3   OH217552   7.135   6.819   2.171 -0.9233 -0.1326 -0.4814
 5863TIP3    H117553   7.153   6.738   2.122  1.6142  1.1245 -1.8188
 5863TIP3    H217554   7.175   6.804   2.257 -1.1352 -0.5775 -0.4571
 5864TIP3   OH217555   6.682   1.662   0.804 -0.1206 -0.6344 -0.4634
 5864TIP3    H117556   6.753   1.642   0.864  0.2364  1.9423  0.1190
 5864TIP3    H217557   6.611   1.695   0.859 -0.7814 -0.6992 -1.2429
 5865TIP3   OH217558   3.872   1.014   3.673  0.0748 -0.1612  0.2631
 5865TIP3    H117559   3.945   1.027   3.613  0.1679  1.1016  0.6361
 5865TIP3    H217560   3.902   1.051   3.756 -0.5856 -0.6180  0.7165
 5866TIP3   OH217561   1.215   1.744   4.244 -0.3323  0.0920  0.4528
 5866TIP3    H117562   1.166   1.746   4.327 -0.2556 -0.4380  0.5108
 5866TIP3    H217563   1.282   1.811   4.255 -0.5663  0.2964  0.6677
 5867TIP3   OH217564   3.684   1.673   4.757  0.2153 -0.4531 -0.0356
 5867TIP3    H117565   3.628   1.639   4.687  0.5008 -1.7657  0.3416
 5867TIP3    H217566   3.740   1.599   4.780  1.3075  0.4917  0.3995
 5868TIP3   OH217567   3.513   6.184   2.497 -0.0993  0.6345  0.0775
 5868TIP3    H117568   3.592   6.170   2.445 -0.0938  0.5342  0.1124
 5868TIP3    H217569   3.538   6.252   2.560  0.1059  0.2658  0.3975
 5869TIP3   OH217570   2.349   5.056   2.795 -0.3839 -0.3243 -0.0110
 5869TIP3    H117571   2.316   4.966   2.788  0.8398 -0.8777  0.9074
 5869TIP3    H217572   2.324   5.083   2.883  0.1278 -0.1394  0.0781
 5870TIP3   OH217573   6.705   2.758  -0.005 -0.1600 -0.1483  0.0799
 5870TIP3    H117574   6.710   2.852   0.011 -1.1803  0.5257 -2.8831
 5870TIP3    H217575   6.788   2.723   0.030  0.2404  1.7984  1.2358
 5871TIP3   OH217576   7.079   6.155   3.511 -0.2689 -0.0799  0.2408
 5871TIP3    H117577   7.071   6.163   3.416 -0.0722  0.5691  0.2718
 5871TIP3    H217578   7.079   6.061   3.528 -0.1174 -0.2005 -0.4157
 5872TIP3   OH217579   5.437   4.989   2.124  0.2897 -0.0082  0.2315
 5872TIP3    H117580   5.359   5.036   2.155  0.0638  0.7518 -1.4069
 5872TIP3    H217581   5.495   4.986   2.200 -0.7977  0.5638  1.1102
 5873TIP3   OH217582   5.973   5.677   3.741 -0.1430 -0.4999  0.2480
 5873TIP3    H117583   6.047   5.619   3.756  0.4821  0.2611  0.1643
 5873TIP3    H217584   5.957   5.718   3.826  0.6083  0.5698 -0.1072
 5874TIP3   OH217585   0.944   3.654   5.675  0.1000  0.3640 -0.1146
 5874TIP3    H117586   0.859   3.650   5.719  0.0773  0.7909 -0.1145
 5874TIP3    H217587   0.929   3.613   5.590  0.0687 -0.1908  0.1521
 5875TIP3   OH217588   5.571   0.964   4.415 -0.3110  0.2281 -0.2246
 5875TIP3    H117589   5.606   0.886   4.458  0.6156 -0.0034 -1.3376
 5875TIP3    H217590   5.479   0.944   4.400 -0.5702  0.1733  1.2727
 5876TIP3   OH217591   0.641   1.928   4.608  0.7444 -0.4263  0.0189
 5876TIP3    H117592   0.613   1.932   4.517  2.6816  1.4663 -0.5724
 5876TIP3    H217593   0.639   1.835   4.630 -0.3303 -0.8565 -1.7521
 5877TIP3   OH217594   4.669   5.515   0.510 -0.3062 -0.0603  0.6622
 5877TIP3    H117595   4.603   5.497   0.443  0.4018  1.7169 -0.5932
 5877TIP3    H217596   4.631   5.481   0.591 -1.7002 -1.2125 -0.4303
 5878TIP3   OH217597   7.128   2.131   3.541  0.7449  0.0663  0.4663
 5878TIP3    H117598   7.122   2.087   3.456  0.2208  2.5296 -0.8463
 5878TIP3    H217599   7.062   2.087   3.595  2.1856 -2.6323  0.2322
 5879TIP3   OH217600   4.291   0.679   2.704  0.7202  0.1151  0.0510
 5879TIP3    H117601   4.200   0.649   2.698  0.2863  1.5214 -1.1550
 5879TIP3    H217602   4.343   0.601   2.684 -0.2398 -0.5232 -0.0487
 5880TIP3   OH217603   6.633   5.222   1.621  0.0688  0.8082 -0.2679
 5880TIP3    H117604   6.692   5.285   1.578 -0.3551  2.5132  1.5026
 5880TIP3    H217605   6.621   5.257   1.709  0.9032 -2.5298  1.3313
 5881TIP3   OH217606   3.701   5.137   2.169  0.1021  0.4957 -0.1025
 5881TIP3    H117607   3.652   5.094   2.240 -0.0301 -1.8525 -1.5164
 5881TIP3    H217608   3.643   5.208   2.140 -0.7938  0.1326  0.7249
 5882TIP3   OH217609   0.267   6.792   5.560  0.5776  0.1062 -0.4793
 5882TIP3    H117610   0.191   6.765   5.510 -1.9932  2.5983  1.7351
 5882TIP3    H217611   0.272   6.730   5.632 -1.3227  1.5859  1.0188
 5883TIP3   OH217612   5.775   5.745   5.683  0.4884  0.6347  0.6320
 5883TIP3    H117613   5.849   5.706   5.637  0.0493 -1.6933  1.7480
 5883TIP3    H217614   5.811   5.774   5.766  0.7077  2.2229  0.0053
 5884TIP3   OH217615   0.313   2.129   3.997 -0.0809  0.4039 -0.2497
 5884TIP3    H117616   0.362   2.114   3.916 -1.3091  0.0481 -0.9603
 5884TIP3    H217617   0.367   2.190   4.047  0.9950  0.1498 -1.0613
 5885TIP3   OH217618   2.975   1.424   4.859 -0.0692 -0.4165 -0.2882
 5885TIP3    H117619   3.066   1.453   4.858 -0.4333  0.8330  0.8676
 5885TIP3    H217620   2.963   1.387   4.947 -1.6563  2.8543  1.0175
 5886TIP3   OH217621   1.890   6.710   1.577 -0.0083 -0.0008  0.5766
 5886TIP3    H117622   1.918   6.671   1.659 -0.5810 -0.6040  0.4905
 5886TIP3    H217623   1.894   6.804   1.593  1.6550 -0.0597  0.6948
 5887TIP3   OH217624   6.969   0.705   5.869 -0.0573 -0.0302  0.9758
 5887TIP3    H117625   7.007   0.771   5.926  1.9709 -1.2082  1.1252
 5887TIP3    H217626   7.011   0.721   5.784 -1.4775  0.4201  0.3327
 5888TIP3   OH217627   0.322   4.756   3.996  0.1772 -0.2191 -0.2537
 5888TIP3    H117628   0.375   4.802   4.061  0.6049  0.0084 -0.7624
 5888TIP3    H217629   0.288   4.825   3.939 -2.0379 -0.1712  1.0252
 5889TIP3   OH217630   5.546   0.731   3.118 -0.0283  0.0325 -0.4230
 5889TIP3    H117631   5.468   0.787   3.111 -0.2043 -0.3524 -2.1074
 5889TIP3    H217632   5.545   0.680   3.037 -0.0538 -2.6904  1.1903
 5890TIP3   OH217633   0.169   3.612   4.653  0.9937 -0.0452 -0.5458
 5890TIP3    H117634   0.085   3.566   4.649  0.2454  0.8833  2.0654
 5890TIP3    H217635   0.160   3.683   4.589 -0.6825  0.6136  0.3249
 5891TIP3   OH217636   3.290   2.629   5.546 -0.1419  0.1459  1.0433
 5891TIP3    H117637   3.303   2.723   5.549  0.0527  0.1113  1.2928
 5891TIP3    H217638   3.261   2.612   5.456  1.5658  0.2284  0.4375
 5892TIP3   OH217639   5.504   1.985   1.296 -0.5069 -0.5272 -0.0708
 5892TIP3    H117640   5.531   2.055   1.237  1.8504 -1.9019 -0.7413
 5892TIP3    H217641   5.477   1.914   1.237 -4.0948  0.0732  0.5697
 5893TIP3   OH217642   6.418   3.296   4.883  0.0037 -0.3383 -0.1254
 5893TIP3    H117643   6.341   3.338   4.846 -0.2053 -0.9102 -0.3502
 5893TIP3    H217644   6.386   3.214   4.920  0.6511 -1.0897 -1.1497
 5894TIP3   OH217645   2.063   3.119   1.199 -0.1635 -0.0677 -0.0282
 5894TIP3    H117646   2.076   3.038   1.247  1.4256 -0.7543 -1.4993
 5894TIP3    H217647   2.011   3.095   1.123  0.7972  0.1303 -0.7776
 5895TIP3   OH217648   3.681   6.744   2.117  0.6079 -0.1951  0.5429
 5895TIP3    H117649   3.612   6.687   2.151  0.2502 -0.2266 -0.2257
 5895TIP3    H217650   3.736   6.761   2.193 -1.8492  2.2422  1.9827
 5896TIP3   OH217651   1.351   3.440   1.748 -0.3634  0.4824  0.3917
 5896TIP3    H117652   1.424   3.391   1.787 -1.9795 -2.3243  0.1914
 5896TIP3    H217653   1.322   3.385   1.675 -2.7637  1.4151  0.5673
 5897TIP3   OH217654   0.457   3.554   3.730  0.1238 -0.6060  0.2461
 5897TIP3    H117655   0.430   3.466   3.757  2.7728 -1.5127  0.2869
 5897TIP3    H217656   0.464   3.549   3.635 -2.7450  0.5849 -0.1124
 5898TIP3   OH217657   3.335   6.161   3.725 -0.4284  0.0493 -0.1268
 5898TIP3    H117658   3.417   6.117   3.701 -1.0261 -0.6924 -0.8405
 5898TIP3    H217659   3.273   6.090   3.738 -1.6351  0.6944 -2.0644
 5899TIP3   OH217660   5.099   6.143   3.428 -0.4991 -0.4237 -0.3191
 5899TIP3    H117661   5.060   6.141   3.340  0.4992  0.4405 -0.7980
 5899TIP3    H217662   5.043   6.203   3.478  0.0419  0.5880 -0.9178
 5900TIP3   OH217663   1.130   5.034   3.737  0.1054  0.2149  0.1290
 5900TIP3    H117664   1.039   5.028   3.710  0.0395 -1.2910  0.6253
 5900TIP3    H217665   1.180   5.023   3.657 -0.1227  1.4321 -0.2093
 5901TIP3   OH217666   1.786   3.815   2.778  0.5567 -0.5712  0.3521
 5901TIP3    H117667   1.709   3.871   2.778 -0.1492 -1.5063 -0.0078
 5901TIP3    H217668   1.859   3.873   2.802 -0.2810  0.2813  0.9047
 5902TIP3   OH217669   4.594  -0.001   5.602 -0.2836 -0.0469 -0.8388
 5902TIP3    H117670   4.540   0.076   5.586 -0.2158  0.8338  2.4193
 5902TIP3    H217671   4.681   0.035   5.621  0.2312 -1.0800 -1.1699
 5903TIP3   OH217672   0.592   1.635   5.705  0.3616  0.7006 -0.1504
 5903TIP3    H117673   0.524   1.645   5.639  0.3969  1.1473 -0.1168
 5903TIP3    H217674   0.665   1.594   5.659 -0.2555 -0.6435  0.0199
 5904TIP3   OH217675   2.308   3.697   0.855 -0.3353 -0.3278 -0.4074
 5904TIP3    H117676   2.295   3.649   0.937 -0.4722  0.6665  0.1755
 5904TIP3    H217677   2.358   3.774   0.881  0.1215 -0.2961 -1.3666
 5905TIP3   OH217678   5.176   6.002   3.831 -0.1896  0.7923 -0.0946
 5905TIP3    H117679   5.198   6.094   3.843 -0.5477  0.6098  2.3608
 5905TIP3    H217680   5.128   5.978   3.910 -0.6120 -1.3681 -0.9424
 5906TIP3   OH217681   6.786   2.333   0.469  0.5992 -0.0834  0.4685
 5906TIP3    H117682   6.811   2.336   0.561  2.0758 -1.6999  0.1903
 5906TIP3    H217683   6.812   2.245   0.440  0.5297  0.5145 -1.5824
 5907TIP3   OH217684   4.182   6.375   0.387 -0.0170 -0.1740 -0.0005
 5907TIP3    H117685   4.117   6.309   0.408  0.3234  0.5044  3.9280
 5907TIP3    H217686   4.145   6.457   0.419  2.4156  0.3429  1.7708
 5908TIP3   OH217687   1.640   2.946   3.460  0.1211 -0.3698  0.3135
 5908TIP3    H117688   1.652   2.943   3.365  0.0755 -2.3593  0.3360
 5908TIP3    H217689   1.722   2.910   3.495  1.0536  2.3396  1.1653
 5909TIP3   OH217690   6.225   5.144   0.348 -0.0961 -0.9621 -0.0003
 5909TIP3    H117691   6.295   5.080   0.361 -0.5368 -1.6360 -0.8266
 5909TIP3    H217692   6.161   5.123   0.416  0.1050 -0.9039  0.2094
 5910TIP3   OH217693   6.831   3.976   2.635 -0.3517 -0.3429 -0.5614
 5910TIP3    H117694   6.902   3.916   2.656  0.8058  0.8771 -0.8615
 5910TIP3    H217695   6.810   3.958   2.544  2.2126  1.8212 -1.6815
 5911TIP3   OH217696   6.270   0.416   2.972  0.4300  0.1662 -0.1279
 5911TIP3    H117697   6.187   0.370   2.968  0.9499 -0.9561  1.3936
 5911TIP3    H217698   6.305   0.398   3.059  1.8097  1.4351 -0.3629
 5912TIP3   OH217699   0.418   1.728   4.050  0.3665 -0.4666 -0.0056
 5912TIP3    H117700   0.392   1.652   4.102 -3.2657  0.3360 -0.4135
 5912TIP3    H217701   0.396   1.804   4.104 -1.2684  0.3349 -1.7067
 5913TIP3   OH217702   5.036   3.569   5.862 -0.1793  0.5319  0.8032
 5913TIP3    H117703   5.047   3.609   5.776 -0.7016  1.4198  1.1393
 5913TIP3    H217704   5.051   3.641   5.924 -0.3753  0.0338  1.4381
 5914TIP3   OH217705   1.999   5.304   1.107  0.0645 -0.5201  0.0867
 5914TIP3    H117706   2.008   5.250   1.185  1.4657  0.4307  0.6263
 5914TIP3    H217707   2.089   5.327   1.083 -0.1785 -2.0623 -2.7533
 5915TIP3   OH217708   5.667   1.133   1.068  0.0226 -0.9091  0.2680
 5915TIP3    H117709   5.599   1.119   1.134 -0.0265 -1.6171  0.0682
 5915TIP3    H217710   5.651   1.222   1.037 -1.2079 -1.2811 -0.2210
 5916TIP3   OH217711   4.774   4.029   4.604  0.0924 -0.3937  0.1575
 5916TIP3    H117712   4.826   3.949   4.592 -0.5615 -0.8012 -0.0481
 5916TIP3    H217713   4.726   4.013   4.685 -0.6275 -0.5529 -0.2873
 5917TIP3   OH217714   3.350   0.901   1.117  0.2949 -0.1164 -0.0712
 5917TIP3    H117715   3.392   0.891   1.203  0.4801  0.4278 -0.0955
 5917TIP3    H217716   3.409   0.957   1.068  0.4652 -0.8892 -0.7561
 5918TIP3   OH217717   4.494   6.793   3.579 -0.7836 -0.4587  0.0431
 5918TIP3    H117718   4.528   6.710   3.612 -0.9647 -0.3165  0.6009
 5918TIP3    H217719   4.449   6.832   3.654  0.3752  0.7249  0.1600
 5919TIP3   OH217720   2.915   1.758   0.218  0.1239 -0.1178 -0.4611
 5919TIP3    H117721   2.988   1.696   0.223 -1.9087 -2.6483  0.3867
 5919TIP3    H217722   2.855   1.719   0.153 -0.9590  1.2760 -0.3379
 5920TIP3   OH217723   6.108   2.728   3.144  0.2373 -0.4273  0.7168
 5920TIP3    H117724   6.110   2.818   3.110  0.4029 -1.0337 -0.9320
 5920TIP3    H217725   6.138   2.674   3.072 -0.1097 -1.8603  1.6056
 5921TIP3   OH217726   4.986   0.128   1.394  0.8535  0.0024 -0.3285
 5921TIP3    H117727   4.951   0.040   1.381 -0.0110  0.5548 -2.0853
 5921TIP3    H217728   4.991   0.139   1.489 -1.4400 -1.0199 -0.0414
 5922TIP3   OH217729   3.905   2.656   0.639 -0.3230 -0.4250 -0.5653
 5922TIP3    H117730   3.910   2.562   0.619 -0.8584 -0.5928  0.0539
 5922TIP3    H217731   3.829   2.687   0.590 -0.5953 -0.4773 -0.1843
 5923TIP3   OH217732   1.697   6.612   3.778 -0.4047  0.6918  0.1953
 5923TIP3    H117733   1.667   6.598   3.688 -1.6203 -0.0666  0.6931
 5923TIP3    H217734   1.621   6.593   3.832  0.6292 -0.0131  1.4605
 5924TIP3   OH217735   1.542   1.826   5.224  0.6062 -0.7276 -0.4948
 5924TIP3    H117736   1.520   1.892   5.290  1.6711 -1.3928  0.5782
 5924TIP3    H217737   1.459   1.781   5.208  0.4539 -1.0499  0.9934
 5925TIP3   OH217738   4.218   0.774   3.215 -0.4793  0.1024  0.2636
 5925TIP3    H117739   4.271   0.721   3.275  1.7844  1.8951 -0.0347
 5925TIP3    H217740   4.218   0.861   3.255  0.6160  1.2066 -1.9989
 5926TIP3   OH217741   2.832   3.183   1.024  0.3127 -0.0427  0.6528
 5926TIP3    H117742   2.814   3.234   0.945  0.8765  0.9759  1.1567
 5926TIP3    H217743   2.915   3.138   1.005  0.9756  0.9959  1.0238
 5927TIP3   OH217744   5.897   3.686   0.049 -0.2491 -0.0526  0.6073
 5927TIP3    H117745   5.827   3.650  -0.005 -2.1292 -0.6707  3.2805
 5927TIP3    H217746   5.961   3.615   0.055 -0.9560 -0.6996  0.7447
 5928TIP3   OH217747   4.034   4.006   0.003 -0.3164 -0.4640 -0.2455
 5928TIP3    H117748   4.006   4.087   0.045 -0.1840  0.8518 -2.5029
 5928TIP3    H217749   3.959   3.947   0.011 -0.3978 -0.1827  1.4650
 5929TIP3   OH217750   3.198   4.363   2.621  0.0169 -0.3864 -0.4243
 5929TIP3    H117751   3.161   4.416   2.691 -1.6674 -0.5119 -1.1672
 5929TIP3    H217752   3.248   4.295   2.666  1.2639  1.1145  0.5562
 5930TIP3   OH217753   3.938   6.557   2.875 -0.3832 -0.0010 -0.2165
 5930TIP3    H117754   3.946   6.486   2.939 -0.1574  1.1536  1.0940
 5930TIP3    H217755   4.028   6.585   2.860 -0.5910  1.3269  0.8582
 5931TIP3   OH217756   2.016   2.956   2.983 -0.0456 -0.0877  0.1291
 5931TIP3    H117757   1.944   2.997   3.030  0.3836  1.4932 -0.5152
 5931TIP3    H217758   2.095   2.983   3.030  0.2932  0.3834 -0.6957
 5932TIP3   OH217759   1.426   1.223   3.751  0.5532 -0.2630  0.3816
 5932TIP3    H117760   1.396   1.188   3.835 -0.3563  0.1356  0.2434
 5932TIP3    H217761   1.439   1.317   3.767  0.5728 -0.2231  0.1336
 5933TIP3   OH217762   3.717   2.321   1.248  0.6456  0.4954  0.0819
 5933TIP3    H117763   3.645   2.291   1.192  1.0665  0.9467 -0.7244
 5933TIP3    H217764   3.676   2.384   1.308  0.2563  0.2942  0.0314
 5934TIP3   OH217765   0.930   4.239   4.105  0.0143 -0.2659  0.7432
 5934TIP3    H117766   0.975   4.167   4.061 -0.0205  0.2710 -0.2003
 5934TIP3    H217767   0.925   4.212   4.197  1.9625 -0.4718  0.8231
 5935TIP3   OH217768   2.413   6.002   4.327  0.0094 -0.2895 -0.5514
 5935TIP3    H117769   2.506   5.985   4.316 -0.1444 -1.0515 -0.7149
 5935TIP3    H217770   2.390   5.962   4.411 -0.2985 -0.6665 -0.8081
 5936TIP3   OH217771   4.494   1.809   3.018 -0.1743  0.2383  0.0696
 5936TIP3    H117772   4.422   1.765   3.063 -0.5370  1.7562  1.0764
 5936TIP3    H217773   4.572   1.762   3.046 -0.3605  1.2868  2.6215
 5937TIP3   OH217774   1.276   0.485   2.145 -0.6571 -0.0684 -0.3316
 5937TIP3    H117775   1.215   0.468   2.217 -0.8828  0.2220 -0.4511
 5937TIP3    H217776   1.330   0.406   2.140 -0.2251  0.1610  0.5634
 5938TIP3   OH217777   1.114   0.240   5.202  0.3833  0.1094  0.2783
 5938TIP3    H117778   1.132   0.323   5.246 -1.1694 -0.2915  1.7807
 5938TIP3    H217779   1.192   0.187   5.217  1.2810  1.1742 -0.4716
 5939TIP3   OH217780   0.119   4.577   1.871  0.0761 -0.0427 -0.3538
 5939TIP3    H117781   0.086   4.521   1.941  1.8194 -0.7686 -0.0740
 5939TIP3    H217782   0.136   4.517   1.798 -1.7394  0.7019 -1.4643
 5940TIP3   OH217783   2.041   0.212   0.567 -0.2159  0.2599 -0.4708
 5940TIP3    H117784   2.092   0.248   0.495 -0.4803  3.3114  0.7214
 5940TIP3    H217785   2.099   0.148   0.608  0.9974  0.5428 -1.6786
 5941TIP3   OH217786   4.066   3.869   0.739  0.1921 -0.3315 -0.0246
 5941TIP3    H117787   4.004   3.937   0.767  0.2154 -0.8022  1.2655
 5941TIP3    H217788   4.013   3.809   0.687  0.2760  0.8964 -1.6172
 5942TIP3   OH217789   1.347   5.763   1.652  0.5659  0.0206  0.3669
 5942TIP3    H117790   1.279   5.700   1.676  1.3444 -0.8680  0.2926
 5942TIP3    H217791   1.345   5.764   1.556 -0.5585  1.3726  0.3705
 5943TIP3   OH217792   0.869   5.144   4.360  0.4413  0.0506  0.0945
 5943TIP3    H117793   0.774   5.131   4.351  0.2604 -1.1193  2.7039
 5943TIP3    H217794   0.905   5.056   4.366  1.4972  0.5013  0.6220
 5944TIP3   OH217795   4.672   5.984   0.109 -0.1552  0.0593 -0.7134
 5944TIP3    H117796   4.670   5.892   0.082  1.5745 -0.6518  1.2689
 5944TIP3    H217797   4.746   6.021   0.060 -1.5730  0.7964 -2.4220
 5945TIP3   OH217798   3.234   4.654   1.377  0.0076  0.3198  0.6227
 5945TIP3    H117799   3.323   4.642   1.411 -0.8389  1.6117  3.7385
 5945TIP3    H217800   3.238   4.736   1.328  0.4648  0.6880  1.2506
 5946TIP3   OH217801   0.088   1.574   4.826 -0.0423 -0.1313  0.5701
 5946TIP3    H117802   0.021   1.509   4.803 -0.5916  0.8282 -0.6207
 5946TIP3    H217803   0.041   1.657   4.829  1.3430  0.8880 -2.2363
 5947TIP3   OH217804   6.241   0.927   0.638 -0.5160 -0.5888  0.1596
 5947TIP3    H117805   6.274   0.996   0.696 -0.8937 -1.2819  1.2356
 5947TIP3    H217806   6.304   0.925   0.565 -0.9397  1.4190 -0.3211
 5948TIP3   OH217807   1.900   1.002   4.060 -0.1013  0.0394 -0.2841
 5948TIP3    H117808   1.986   0.974   4.093 -0.5751 -1.0448  0.0879
 5948TIP3    H217809   1.919   1.078   4.004  1.3603 -1.4025 -1.8871
 5949TIP3   OH217810   2.717   4.246   5.417  0.0714 -0.0155 -0.6327
 5949TIP3    H117811   2.673   4.305   5.356  0.5572  1.1425  0.0897
 5949TIP3    H217812   2.668   4.164   5.411 -1.6059  0.9274 -0.5519
 5950TIP3   OH217813   3.558   0.367   5.098 -0.2122 -0.2545  0.5529
 5950TIP3    H117814   3.543   0.405   5.185  0.6863  1.2741  0.0838
 5950TIP3    H217815   3.649   0.389   5.078 -0.1999 -1.1887 -0.4958
 5951TIP3   OH217816   3.266   3.806   1.479 -0.4401 -0.3342 -0.2341
 5951TIP3    H117817   3.322   3.728   1.473  0.4236  0.2720 -0.2369
 5951TIP3    H217818   3.323   3.878   1.453 -0.8436  0.4725  1.0433
 5952TIP3   OH217819   5.159   4.145   1.555 -0.0898  0.3333  0.1919
 5952TIP3    H117820   5.181   4.142   1.648 -0.9475  0.1960  0.3994
 5952TIP3    H217821   5.131   4.056   1.534  1.2400  0.0503 -0.5015
 5953TIP3   OH217822   6.040   0.032   0.072 -0.5030 -0.3294 -0.3517
 5953TIP3    H117823   6.049   0.127   0.070 -1.1739 -0.2685 -1.5422
 5953TIP3    H217824   6.124  -0.001   0.041 -0.8992 -0.0584 -1.7610
 5954TIP3   OH217825   0.579   3.651   4.337 -0.0597  0.0712  0.0083
 5954TIP3    H117826   0.617   3.667   4.251 -0.2287  2.3553  0.3026
 5954TIP3    H217827   0.596   3.731   4.387  0.7646 -1.4684  2.4116
 5955TIP3   OH217828   6.003   6.495   1.803 -0.2116  0.6052 -0.1008
 5955TIP3    H117829   6.029   6.474   1.713 -0.1526  1.8408 -0.3984
 5955TIP3    H217830   5.908   6.480   1.804 -0.7036  3.0012 -1.1786
 5956TIP3   OH217831   5.650   4.509   3.952  0.3614  0.3816  0.0793
 5956TIP3    H117832   5.655   4.597   3.989  0.3919  1.2944 -1.9287
 5956TIP3    H217833   5.740   4.476   3.954  0.2068 -0.0047  1.6668
 5957TIP3   OH217834   2.008   1.140   1.780 -0.0063 -0.1966 -0.2946
 5957TIP3    H117835   1.944   1.201   1.744 -0.0103  1.6058  2.4295
 5957TIP3    H217836   1.956   1.076   1.829  0.1795  0.5682  0.9348
 5958TIP3   OH217837   0.850   3.783   2.903  0.0388 -0.3187 -0.2983
 5958TIP3    H117838   0.845   3.832   2.986  0.4628  2.4697 -1.7975
 5958TIP3    H217839   0.763   3.794   2.864 -0.3525 -2.1363 -0.0187
 5959TIP3   OH217840   4.144   5.193   0.285  0.0834  0.2274 -0.3011
 5959TIP3    H117841   4.216   5.250   0.309 -1.0761  1.4205  0.5105
 5959TIP3    H217842   4.143   5.125   0.353 -0.0519  0.6789  0.1528
 5960TIP3   OH217843   3.750   6.076   1.623  0.1723  0.6828 -0.0081
 5960TIP3    H117844   3.761   6.116   1.710  0.8016 -0.0639  0.2740
 5960TIP3    H217845   3.800   5.995   1.629  1.0003  1.0610 -1.3659
 5961TIP3   OH217846   1.379   6.212   5.858 -0.1066 -0.0869 -0.1366
 5961TIP3    H117847   1.432   6.134   5.844 -2.3507 -2.0833  1.6951
 5961TIP3    H217848   1.424   6.281   5.808  2.9738 -2.0676 -0.3576
 5962TIP3   OH217849   5.588   5.310   5.180  0.1235 -0.7580  0.2865
 5962TIP3    H117850   5.603   5.233   5.236  2.1051 -1.9017 -1.6361
 5962TIP3    H217851   5.665   5.313   5.123 -0.3807  2.1029 -0.4002
 5963TIP3   OH217852   4.194   5.720   5.442 -0.0195  0.3824  0.6689
 5963TIP3    H117853   4.134   5.732   5.516 -0.8126  1.4719 -0.1142
 5963TIP3    H217854   4.193   5.804   5.397  0.3616 -0.2992 -0.6609
 5964TIP3   OH217855   4.766   2.221   4.632  0.2403 -0.7360  0.5294
 5964TIP3    H117856   4.682   2.256   4.661 -0.3249 -0.0795 -1.6766
 5964TIP3    H217857   4.806   2.185   4.711 -0.4205  2.3123  2.3772
 5965TIP3   OH217858   5.968   5.700   2.429 -0.0864  0.8039 -0.6037
 5965TIP3    H117859   5.873   5.709   2.434 -0.0418  1.2775 -0.5421
 5965TIP3    H217860   6.002   5.780   2.469  0.3399  1.0362 -1.4016
 5966TIP3   OH217861   5.742   3.610   1.143  0.6220  0.1649 -0.1158
 5966TIP3    H117862   5.716   3.610   1.051  1.1091  0.5519 -0.2521
 5966TIP3    H217863   5.819   3.666   1.147  1.1712 -0.6089  0.3685
 5967TIP3   OH217864   0.052   1.623   1.666  0.4119  0.0191  0.3307
 5967TIP3    H117865   0.121   1.557   1.680 -0.7817 -1.8303 -1.7094
 5967TIP3    H217866   0.094   1.689   1.611  0.6683 -0.9927 -0.7383
 5968TIP3   OH217867   1.847   4.718   4.213 -0.0357 -0.1068 -0.3217
 5968TIP3    H117868   1.803   4.798   4.241  1.0830 -0.0022  1.2521
 5968TIP3    H217869   1.796   4.688   4.137 -0.6811  1.8882 -0.7416
 5969TIP3   OH217870   2.201   6.630   2.661  0.0391 -0.6499  0.7810
 5969TIP3    H117871   2.247   6.564   2.713  1.5444  0.9071  1.5564
 5969TIP3    H217872   2.241   6.713   2.688  0.3853  0.3396 -2.3546
 5970TIP3   OH217873   2.317   0.998   3.481 -0.6291 -0.2002 -0.0246
 5970TIP3    H117874   2.371   1.058   3.430 -0.4075  0.7587  1.2828
 5970TIP3    H217875   2.228   1.012   3.449 -0.2731 -1.0160 -1.4501
 5971TIP3   OH217876   6.075   0.236   2.858  0.0764  0.5259  0.4594
 5971TIP3    H117877   6.107   0.173   2.793  0.6055  1.6650 -0.4113
 5971TIP3    H217878   6.058   0.183   2.936  0.8066 -0.6533 -0.1544
 5972TIP3   OH217879   4.019   2.731   0.959  0.0343 -0.0397 -0.4809
 5972TIP3    H117880   4.003   2.726   0.864 -1.2069  0.5105 -0.3173
 5972TIP3    H217881   4.022   2.639   0.987 -1.5803 -0.2158 -0.7687
 5973TIP3   OH217882   2.025   5.284   2.704  0.5910  0.0379 -0.2991
 5973TIP3    H117883   2.049   5.207   2.653  0.6419  0.4265 -0.8838
 5973TIP3    H217884   2.107   5.311   2.746  0.1728 -1.3453  1.4915
 5974TIP3   OH217885   0.557   0.517   3.818 -0.4488 -0.1089  0.4763
 5974TIP3    H117886   0.546   0.428   3.853 -1.3363  0.1394  0.8415
 5974TIP3    H217887   0.475   0.536   3.774  1.0589 -0.9555 -3.0926
 5975TIP3   OH217888   1.247   0.174   1.157 -0.7214 -0.8906 -0.3692
 5975TIP3    H117889   1.332   0.199   1.195 -2.4164  0.6044  2.8062
 5975TIP3    H217890   1.217   0.102   1.212 -1.3917 -1.6733 -1.7100
 5976TIP3   OH217891   5.847   2.407   1.517 -0.2968  0.2617  0.1698
 5976TIP3    H117892   5.838   2.429   1.424 -1.6792  0.1071  0.2406
 5976TIP3    H217893   5.941   2.411   1.534  0.0056  0.0188 -1.3025
 5977TIP3   OH217894   0.360   1.395   2.524  0.1058 -0.1433 -0.8694
 5977TIP3    H117895   0.355   1.359   2.613  0.6034 -1.2678 -1.2783
 5977TIP3    H217896   0.344   1.489   2.535 -0.5453 -0.3713  0.3197
 5978TIP3   OH217897   3.830   5.807   5.327 -0.3868  0.5758  0.3034
 5978TIP3    H117898   3.904   5.746   5.331 -0.0275  0.7064 -2.3261
 5978TIP3    H217899   3.781   5.791   5.408  1.0860 -1.3506  0.9027
 5979TIP3   OH217900   1.299   5.684   4.091  0.2081 -0.0786  0.2001
 5979TIP3    H117901   1.391   5.692   4.065 -0.3566  0.0440 -1.9206
 5979TIP3    H217902   1.279   5.768   4.132  1.3416 -0.5676  1.8883
 5980TIP3   OH217903   1.785   4.644   3.223  0.0448  0.3371  0.3094
 5980TIP3    H117904   1.702   4.634   3.269  0.2251 -0.1607  0.5326
 5980TIP3    H217905   1.852   4.634   3.291  0.3026 -0.0418  0.0003
 5981TIP3   OH217906   1.083   0.901   0.976  0.1166  0.0420 -0.2273
 5981TIP3    H117907   1.122   0.850   0.905  1.2939  0.2339  0.2722
 5981TIP3    H217908   1.072   0.838   1.047 -1.1745 -0.1785 -0.5976
 5982TIP3   OH217909   4.656   6.331   4.856 -0.3561 -0.0489 -0.1710
 5982TIP3    H117910   4.592   6.320   4.926  1.0266  0.9539  1.3383
 5982TIP3    H217911   4.608   6.312   4.776 -2.2464 -0.3453  0.9718
 5983TIP3   OH217912   5.704   2.965   0.865 -0.0087 -0.1626  0.1226
 5983TIP3    H117913   5.714   2.915   0.784  2.8869 -0.5504  0.6264
 5983TIP3    H217914   5.745   2.910   0.932 -0.2638  1.1898  1.4269
 5984TIP3   OH217915   5.512   3.354   4.950  0.1258  0.6793  0.1054
 5984TIP3    H117916   5.421   3.376   4.929  0.6275  1.7063 -1.0389
 5984TIP3    H217917   5.527   3.394   5.036 -0.7119 -0.1516  0.6669
 5985TIP3   OH217918   2.090   4.159   2.764 -0.1759  0.0792  0.8667
 5985TIP3    H117919   2.081   4.249   2.730 -0.2262 -0.1525  0.2598
 5985TIP3    H217920   2.179   4.155   2.799 -0.2124  0.3998  1.0026
 5986TIP3   OH217921   5.786   1.633   1.110 -0.4439  0.9869 -0.2244
 5986TIP3    H117922   5.805   1.680   1.029 -0.2814 -0.4180 -1.0389
 5986TIP3    H217923   5.872   1.621   1.151 -0.1396 -0.7598 -1.2818
 5987TIP3   OH217924   6.288   1.231   5.520 -0.5915 -0.2105  0.2081
 5987TIP3    H117925   6.249   1.229   5.607 -0.6291  1.1603  0.2408
 5987TIP3    H217926   6.214   1.227   5.460 -0.7694  1.4551  0.2690
 5988TIP3   OH217927   6.987   3.662   0.142 -0.4000 -0.0119 -0.4688
 5988TIP3    H117928   6.981   3.580   0.191 -0.4873 -1.1172 -2.2163
 5988TIP3    H217929   7.050   3.643   0.072  1.4845  2.2125  0.4914
 5989TIP3   OH217930   6.292   5.419   4.977  0.1346  0.0280 -0.5863
 5989TIP3    H117931   6.357   5.481   4.945 -0.0300  0.4426 -0.1277
 5989TIP3    H217932   6.331   5.382   5.056 -0.5079  0.8744  0.1522
 5990TIP3   OH217933   4.762   2.166   3.822  0.2577 -0.2171 -0.5589
 5990TIP3    H117934   4.778   2.080   3.783 -0.0947 -0.9674  0.8977
 5990TIP3    H217935   4.806   2.163   3.907 -0.5533  0.6885 -0.0824
 5991TIP3   OH217936   3.868   5.201   3.202  0.4578  0.0963  0.3387
 5991TIP3    H117937   3.835   5.164   3.283  1.4367  0.2758  0.8347
 5991TIP3    H217938   3.839   5.140   3.134  0.5278 -0.6278  0.9456
 5992TIP3   OH217939   2.268   6.024   2.940  0.4149  0.6762 -0.0452
 5992TIP3    H117940   2.215   5.946   2.922  0.4644  0.5226  0.4649
 5992TIP3    H217941   2.209   6.082   2.989  0.5586  0.7116  0.0881
 5993TIP3   OH217942   4.326   5.354   4.033 -0.1092  0.2726  0.2385
 5993TIP3    H117943   4.332   5.259   4.045  1.7600  0.4971  1.4685
 5993TIP3    H217944   4.232   5.372   4.035 -0.4612 -1.4290  1.1043
 5994TIP3   OH217945   3.820   6.427  -0.010 -0.7953 -0.4891  0.0425
 5994TIP3    H117946   3.751   6.362   0.005 -2.1655  1.1188  0.9373
 5994TIP3    H217947   3.812   6.488   0.063  1.8435 -0.4266  0.3830
 5995TIP3   OH217948   1.252   3.851   0.282  0.2199 -0.4156 -0.3482
 5995TIP3    H117949   1.304   3.788   0.331 -0.9161  0.5152  2.2350
 5995TIP3    H217950   1.211   3.799   0.212 -0.9275 -2.6566  1.8574
 5996TIP3   OH217951   2.233   4.640   0.906  0.4216  0.5766 -0.2803
 5996TIP3    H117952   2.307   4.604   0.858 -0.4243 -0.7016 -0.6701
 5996TIP3    H217953   2.218   4.725   0.866  1.1396  0.4851 -0.7675
 5997TIP3   OH217954   3.445   0.149   4.061  0.0534  0.1739  0.5114
 5997TIP3    H117955   3.477   0.058   4.058  1.0130  0.5046  0.3497
 5997TIP3    H217956   3.359   0.142   4.102  0.2625 -0.7740  0.8287
 5998TIP3   OH217957   2.600   6.764   5.438  0.8711  0.8681  0.1536
 5998TIP3    H117958   2.559   6.791   5.356 -0.2376 -1.2890 -0.0640
 5998TIP3    H217959   2.662   6.695   5.413  0.1794 -0.1513  1.1350
 5999TIP3   OH217960   5.360   1.930   4.985  0.0227  0.3727 -0.1637
 5999TIP3    H117961   5.444   1.885   4.971  0.5296  0.8355  1.2057
 5999TIP3    H217962   5.351   1.933   5.080 -1.0254  1.3087 -0.2841
 6000TIP3   OH217963   3.501   4.478   5.807  0.1564  0.1320 -0.1729
 6000TIP3    H117964   3.426   4.463   5.748 -0.4980  1.6495  0.2390
 6000TIP3    H217965   3.530   4.566   5.787  0.6278  0.2579  1.0094
 6001TIP3   OH217966   6.286   4.565   2.243 -0.1519 -0.0227 -0.6563
 6001TIP3    H117967   6.299   4.527   2.331 -2.7578  0.4315 -0.0050
 6001TIP3    H217968   6.352   4.522   2.189 -0.3581 -2.5162  0.9130
 6002TIP3   OH217969   1.952   6.103   2.771 -0.3738 -0.1179 -0.1599
 6002TIP3    H117970   1.967   6.034   2.706  0.3969  0.1859 -0.3150
 6002TIP3    H217971   2.004   6.076   2.847 -0.8241 -0.1827  0.1299
 6003TIP3   OH217972   1.824   6.193   1.984  0.3748 -0.4747  0.1467
 6003TIP3    H117973   1.736   6.164   2.010 -0.3129  0.7998 -0.6535
 6003TIP3    H217974   1.883   6.131   2.027 -0.8777 -0.9200  1.3104
 6004TIP3   OH217975   2.809   1.381   4.460  0.5674 -0.6568  0.3226
 6004TIP3    H117976   2.835   1.289   4.469 -0.0914 -0.9527 -0.6602
 6004TIP3    H217977   2.728   1.378   4.410  0.9625  0.5208 -0.4209
 6005TIP3   OH217978   1.518   0.247   1.508 -0.1291  0.5878 -0.4254
 6005TIP3    H117979   1.470   0.254   1.425 -3.0513  1.0663  1.1576
 6005TIP3    H217980   1.500   0.158   1.539 -0.7589  1.0326  0.5707
 6006TIP3   OH217981   6.201   4.731   5.070  0.3502 -0.1395  0.4761
 6006TIP3    H117982   6.145   4.726   4.993  1.2817 -0.3327 -0.1991
 6006TIP3    H217983   6.227   4.823   5.076 -0.0673 -0.0394  0.8199
 6007TIP3   OH217984   5.946   2.772   4.336 -0.0089 -0.1864 -0.5810
 6007TIP3    H117985   5.968   2.706   4.269  0.8202  0.0978 -0.6050
 6007TIP3    H217986   5.881   2.729   4.391 -0.7205 -0.4235 -1.5707
 6008TIP3   OH217987   3.643   1.504   5.156  0.7800  0.1673 -0.1547
 6008TIP3    H117988   3.590   1.584   5.164  1.0725  0.1679  2.8719
 6008TIP3    H217989   3.734   1.535   5.158  0.8936 -0.1994  0.8215
 6009TIP3   OH217990   0.059   3.217   1.246 -0.1380 -0.3312  0.2914
 6009TIP3    H117991   0.097   3.140   1.205 -1.2380 -0.7943  0.0953
 6009TIP3    H217992  -0.034   3.214   1.221  0.0126  1.6698 -0.6707
 6010TIP3   OH217993   5.974   4.369   3.622  0.1137  0.2395 -0.1706
 6010TIP3    H117994   5.999   4.277   3.615 -0.7118 -0.1931  2.0106
 6010TIP3    H217995   6.052   4.417   3.593  1.1693 -1.1169  0.3198
 6011TIP3   OH217996   6.805   2.999   5.697 -0.7343  0.3000  0.0225
 6011TIP3    H117997   6.897   3.008   5.723 -0.9519 -1.6957  1.7750
 6011TIP3    H217998   6.756   3.028   5.774 -1.4726 -1.8756  0.4463
 6012TIP3   OH217999   4.338   3.550   0.428 -0.2084 -0.1552  0.1064
 6012TIP3    H118000   4.343   3.594   0.513  0.3791  0.4395 -0.2232
 6012TIP3    H218001   4.292   3.612   0.372  0.6173  0.0563 -0.3599
 6013TIP3   OH218002   4.139   6.225   1.506  0.5456  0.1990  0.1053
 6013TIP3    H118003   4.161   6.203   1.597 -0.9828  0.2629  0.5158
 6013TIP3    H218004   4.156   6.144   1.457 -1.0313 -0.6827  0.9051
 6014TIP3   OH218005   0.503   4.477   4.877  0.9799  0.2854  0.0060
 6014TIP3    H118006   0.492   4.563   4.918  1.2161  1.1579 -1.6767
 6014TIP3    H218007   0.572   4.434   4.928  1.8406  1.6545  0.0261
 6015TIP3   OH218008   0.571   3.226   2.792 -0.4541 -0.2848 -0.7531
 6015TIP3    H118009   0.638   3.288   2.821 -0.7092 -0.0163 -0.7285
 6015TIP3    H218010   0.500   3.236   2.855  0.5410 -2.5308  0.8445
 6016TIP3   OH218011   2.909   1.860   5.314  0.3803 -0.2967  0.5775
 6016TIP3    H118012   2.876   1.924   5.377  0.1127  0.4873 -0.3217
 6016TIP3    H218013   2.988   1.901   5.278  0.1735 -0.4465 -0.0550
 6017TIP3   OH218014   5.215   0.707   2.510  0.2527 -0.1882 -0.7212
 6017TIP3    H118015   5.219   0.681   2.602  0.3132 -1.2651 -1.0157
 6017TIP3    H218016   5.257   0.793   2.508  1.7091 -0.8423  0.0148
 6018TIP3   OH218017   0.621   2.250   5.211  0.1118  0.1123  0.2586
 6018TIP3    H118018   0.611   2.169   5.162 -0.6308 -0.0617  0.6867
 6018TIP3    H218019   0.552   2.307   5.179  0.0744  0.2563  0.5933
 6019TIP3   OH218020   1.670   5.713   2.113 -0.1921 -0.0092  0.2516
 6019TIP3    H118021   1.757   5.705   2.154 -0.1029  0.2126  0.1086
 6019TIP3    H218022   1.611   5.724   2.187 -0.1569 -0.6201  0.3754
 6020TIP3   OH218023   1.694   2.976   5.838  0.4620 -0.3518  0.3956
 6020TIP3    H118024   1.722   2.897   5.884  1.9422  0.4147  0.8471
 6020TIP3    H218025   1.601   2.984   5.860  0.3032 -1.9062  0.4043
 6021TIP3   OH218026   4.016   0.793   0.821 -0.4538  0.0153 -0.3241
 6021TIP3    H118027   4.059   0.758   0.742 -0.4004 -1.6235  0.3892
 6021TIP3    H218028   3.973   0.717   0.860 -1.7608  1.1073  0.4308
 6022TIP3   OH218029   5.093   3.943   4.341 -0.3690 -0.0649 -0.1201
 6022TIP3    H118030   5.080   3.988   4.258 -1.1616 -0.1436 -0.0430
 6022TIP3    H218031   5.086   3.850   4.320 -1.2833 -0.0604  0.1522
 6023TIP3   OH218032   4.477   2.514   5.505 -0.2672  0.2360 -1.1083
 6023TIP3    H118033   4.560   2.562   5.511  1.5389 -2.6230 -1.1439
 6023TIP3    H218034   4.493   2.448   5.438 -1.9139 -1.6003  0.2107
 6024TIP3   OH218035   4.884   1.566   2.008 -0.2715 -0.4815 -0.6886
 6024TIP3    H118036   4.840   1.625   1.948  1.2931  1.5627  0.0554
 6024TIP3    H218037   4.976   1.571   1.984  0.3862  0.2668  1.6663
 6025TIP3   OH218038   6.161   1.279   5.205 -0.2968  0.1960  0.1502
 6025TIP3    H118039   6.216   1.201   5.197 -0.9869 -0.2192 -0.6646
 6025TIP3    H218040   6.142   1.305   5.115 -0.2725  1.1716  0.4125
 6026TIP3   OH218041   7.150   3.340   1.486 -0.6263 -0.0446  0.5256
 6026TIP3    H118042   7.160   3.312   1.395 -0.9114  2.8497 -0.5157
 6026TIP3    H218043   7.055   3.341   1.500 -0.6026 -0.0516  0.6850
 6027TIP3   OH218044   4.397   2.716   1.243 -0.0873 -0.0811  0.2944
 6027TIP3    H118045   4.379   2.748   1.155 -1.2365  0.2647  0.6434
 6027TIP3    H218046   4.491   2.698   1.243 -0.2831 -1.4604 -1.4445
 6028TIP3   OH218047   7.056   5.372   3.294 -0.0664  0.0542 -0.1141
 6028TIP3    H118048   7.005   5.301   3.254  0.9320 -0.7936  0.0744
 6028TIP3    H218049   7.123   5.393   3.229  0.6125 -0.2600  0.4772
 6029TIP3   OH218050   0.738   6.323   5.526 -0.5488 -0.3251 -0.0086
 6029TIP3    H118051   0.650   6.347   5.495 -0.2136  2.6066  0.9929
 6029TIP3    H218052   0.797   6.369   5.466  0.2333  0.0075  1.0030
 6030TIP3   OH218053   4.376   4.570   5.076 -0.2429  0.1058  0.2796
 6030TIP3    H118054   4.376   4.603   4.986  2.6566  0.6698  0.3943
 6030TIP3    H218055   4.354   4.646   5.129 -0.3579  0.1632  0.1512
 6031TIP3   OH218056   5.894   2.298   2.057  0.0491  0.1095 -0.3498
 6031TIP3    H118057   5.853   2.298   1.970 -0.0943  0.4494 -0.2832
 6031TIP3    H218058   5.888   2.207   2.085 -2.4510  0.4392  0.4724
 6032TIP3   OH218059   6.107   0.711   0.579 -0.5421  0.4186 -0.2736
 6032TIP3    H118060   6.080   0.769   0.508 -1.0040  0.3869 -0.1264
 6032TIP3    H218061   6.149   0.768   0.643 -2.2890  0.8392  0.5507
 6033TIP3   OH218062   3.633   0.582   3.418  0.0013 -0.3504 -0.7901
 6033TIP3    H118063   3.655   0.640   3.346 -0.8234  1.8018  0.5743
 6033TIP3    H218064   3.541   0.602   3.437  0.7435  0.8418  2.1922
 6034TIP3   OH218065   7.108   6.824   0.620 -0.1957  0.3936  0.3468
 6034TIP3    H118066   7.028   6.827   0.673 -1.3303 -1.9481 -1.0556
 6034TIP3    H218067   7.118   6.731   0.599  2.5003  0.7343 -0.1727
 6035TIP3   OH218068   6.767   2.370   5.215  0.0681  0.2892 -0.1711
 6035TIP3    H118069   6.701   2.368   5.285 -0.0189  0.9405 -0.2315
 6035TIP3    H218070   6.717   2.383   5.135  0.2816  1.0055 -0.1940
 6036TIP3   OH218071   4.307   6.384   3.832  0.1631 -0.2610 -0.3086
 6036TIP3    H118072   4.287   6.469   3.870  3.0403 -0.1903  1.2495
 6036TIP3    H218073   4.321   6.402   3.739  1.7637  1.1898  0.1751
 6037TIP3   OH218074   6.910   0.538   1.712  0.0966 -0.4300 -0.1987
 6037TIP3    H118075   6.827   0.494   1.692 -0.0239  0.7227 -2.6453
 6037TIP3    H218076   6.884   0.623   1.749  0.1831 -0.2331 -0.5848
 6038TIP3   OH218077   3.338   0.646   3.589  0.1464 -0.4072 -0.2071
 6038TIP3    H118078   3.327   0.634   3.683  4.2911 -0.9904  0.3770
 6038TIP3    H218079   3.330   0.557   3.553 -0.0834 -0.3736 -0.2434
 6039TIP3   OH218080   1.252   0.725   1.584  0.0103  0.0130  0.0895
 6039TIP3    H118081   1.261   0.631   1.602  1.2618  0.2026  0.5583
 6039TIP3    H218082   1.168   0.733   1.539  1.4384 -1.8100 -3.2396
 6040TIP3   OH218083   3.646   4.553   4.149 -0.3794  0.1649  0.2986
 6040TIP3    H118084   3.721   4.493   4.146 -0.5574 -0.0275 -1.1840
 6040TIP3    H218085   3.595   4.524   4.224  0.0113 -0.9611  0.1540
 6041TIP3   OH218086   1.405   5.033   1.320 -0.1143 -0.2048 -0.1422
 6041TIP3    H118087   1.423   5.097   1.251  1.7680 -1.0118 -0.4579
 6041TIP3    H218088   1.333   4.980   1.286 -1.6184  1.5865  0.0657
 6042TIP3   OH218089   2.777   5.664   0.686  0.2522  0.0063  0.3060
 6042TIP3    H118090   2.771   5.583   0.736  0.8150  0.4831  1.1679
 6042TIP3    H218091   2.862   5.701   0.710  1.4442 -0.6586 -2.4158
 6043TIP3   OH218092   1.002   1.925   3.642 -0.2165  0.5687 -0.2553
 6043TIP3    H118093   0.964   1.870   3.574  1.3093  0.2478 -0.9035
 6043TIP3    H218094   1.067   1.978   3.596  0.5065  0.6845  0.8596
 6044TIP3   OH218095   3.447   2.550   4.321  0.2856  0.1019 -0.0985
 6044TIP3    H118096   3.485   2.525   4.236  0.8015  2.7174 -0.7396
 6044TIP3    H218097   3.440   2.645   4.316 -2.3286  0.0864  1.7414
 6045TIP3   OH218098   3.838   1.371   5.353 -0.1153  0.0907 -0.7692
 6045TIP3    H118099   3.847   1.276   5.357 -0.2019  0.0878 -0.6278
 6045TIP3    H218100   3.763   1.391   5.409  3.2451  0.7650  4.1384
 6046TIP3   OH218101   4.383   1.130   4.600  0.1253 -0.0183  0.3517
 6046TIP3    H118102   4.375   1.056   4.539  1.3228  0.4139 -0.3762
 6046TIP3    H218103   4.446   1.099   4.666  1.6037  0.7450 -0.6459
 6047TIP3   OH218104   1.578   2.976   4.084 -0.0239 -0.0308 -0.6621
 6047TIP3    H118105   1.658   2.976   4.033  0.1400 -0.2679 -0.4062
 6047TIP3    H218106   1.560   2.884   4.100  0.6616  0.0756  0.8566
 6048TIP3   OH218107   3.837   3.547   2.002 -0.8419 -0.3836  0.0235
 6048TIP3    H118108   3.886   3.477   1.959  1.0038  0.8863 -0.1016
 6048TIP3    H218109   3.817   3.513   2.089  1.1021 -0.6758  0.4125
 6049TIP3   OH218110   5.055   5.998   0.586  0.5595  0.2427 -0.1376
 6049TIP3    H118111   5.054   6.086   0.550  1.6302  0.6471  0.7745
 6049TIP3    H218112   5.144   5.967   0.570  0.2791 -0.5676 -0.1750
 6050TIP3   OH218113   6.018   5.883   5.817  0.1230 -0.0208  0.3061
 6050TIP3    H118114   6.038   5.828   5.742  0.1468 -0.4637  0.6375
 6050TIP3    H218115   5.962   5.952   5.781  0.7129  0.1791 -0.2586
 6051TIP3   OH218116   1.154   4.238   0.738  0.0521 -0.2251  0.3444
 6051TIP3    H118117   1.180   4.300   0.670 -0.4988  1.9095  1.9862
 6051TIP3    H218118   1.059   4.247   0.744 -0.1141 -1.6768  0.2423
 6052TIP3   OH218119   3.554   2.816   1.305 -0.2143 -0.0661  0.2923
 6052TIP3    H118120   3.647   2.796   1.314 -0.1674 -0.1495 -0.3572
 6052TIP3    H218121   3.552   2.903   1.264 -0.4255  0.6978  1.8252
 6053TIP3   OH218122   1.497   1.012   1.512 -0.2279 -0.0564 -0.4071
 6053TIP3    H118123   1.588   1.018   1.541  0.7875 -2.0919 -2.7670
 6053TIP3    H218124   1.457   0.949   1.572  0.0167  0.4960  0.3554
 6054TIP3   OH218125   6.998   2.207   5.216 -0.3936  0.5083 -0.5468
 6054TIP3    H118126   6.970   2.179   5.129 -1.6622 -1.6637  0.4702
 6054TIP3    H218127   6.929   2.268   5.245 -0.4032  0.5928 -0.7501
 6055TIP3   OH218128   6.416   6.765   0.816 -0.3854 -0.5430  0.0415
 6055TIP3    H118129   6.443   6.763   0.724 -1.3096 -0.0500 -0.2587
 6055TIP3    H218130   6.332   6.719   0.818 -1.2664  0.9845  0.2962
 6056TIP3   OH218131   0.838   3.481   5.417  0.3020 -0.2588  0.4849
 6056TIP3    H118132   0.833   3.386   5.404  0.2404 -0.1374 -0.4589
 6056TIP3    H218133   0.890   3.512   5.343  1.3862  0.3211  1.4447
 6057TIP3   OH218134   7.076   5.368   5.233 -1.0048  0.1505 -0.6047
 6057TIP3    H118135   7.158   5.347   5.277 -1.3836  0.7892  0.4559
 6057TIP3    H218136   7.102   5.400   5.147  0.0980  3.0242  0.6658
 6058TIP3   OH218137   1.698   0.758   1.967  0.2694 -0.8092 -0.1257
 6058TIP3    H118138   1.719   0.741   1.875 -1.5731 -0.3801 -0.6852
 6058TIP3    H218139   1.629   0.695   1.987  1.3743 -1.5953  1.3068
 6059TIP3   OH218140   1.314   5.929   4.264 -0.0500  0.1491 -0.4159
 6059TIP3    H118141   1.247   5.887   4.318 -1.2202  0.4247 -1.6029
 6059TIP3    H218142   1.368   5.978   4.327 -2.8550  2.5191  0.3719
 6060TIP3   OH218143   3.978   4.623   3.465  0.1811  0.1678 -0.1235
 6060TIP3    H118144   3.973   4.577   3.381 -1.4702 -0.8168  0.4731
 6060TIP3    H218145   3.986   4.553   3.530  3.2940  0.9510  0.5100
 6061TIP3   OH218146   3.822   3.858   4.414  0.0185 -0.1339  0.4850
 6061TIP3    H118147   3.879   3.902   4.351  1.5397 -1.1371  1.1078
 6061TIP3    H218148   3.785   3.784   4.365 -0.3281  0.2081  0.2285
 6062TIP3   OH218149   2.061   0.534   1.241  0.3760  0.0429  0.0101
 6062TIP3    H118150   2.086   0.626   1.232 -1.4812  0.8062  2.0094
 6062TIP3    H218151   2.089   0.510   1.329 -0.8543 -0.7183  0.2155
 6063TIP3   OH218152   3.249   3.009   2.913  0.0905 -0.0679 -0.1986
 6063TIP3    H118153   3.201   2.926   2.909 -1.9887  1.0930 -2.7661
 6063TIP3    H218154   3.320   2.999   2.850  0.8253 -0.3979  0.6597
 6064TIP3   OH218155   7.103   5.400   2.259 -0.7727  0.4711 -0.1044
 6064TIP3    H118156   7.074   5.339   2.191  2.7400  0.7121 -2.0744
 6064TIP3    H218157   7.130   5.343   2.331 -1.1384 -0.0532 -0.3743
 6065TIP3   OH218158   4.244   1.518   5.266 -0.0875 -0.4069  0.4765
 6065TIP3    H118159   4.231   1.443   5.324  0.9745 -0.4011  0.7558
 6065TIP3    H218160   4.163   1.525   5.216 -1.1172 -0.2859  2.0972
 6066TIP3   OH218161   5.401   6.377   4.830  0.7300 -0.1930 -0.0833
 6066TIP3    H118162   5.482   6.410   4.790  0.6605 -0.8438 -0.7944
 6066TIP3    H218163   5.416   6.385   4.924  0.6928  1.9056 -0.1985
 6067TIP3   OH218164   4.053   2.265   2.712  0.1635 -0.1797 -1.0032
 6067TIP3    H118165   4.099   2.325   2.769 -0.4799 -1.1544  0.6089
 6067TIP3    H218166   4.107   2.185   2.712 -1.8505 -1.7102  1.7240
 6068TIP3   OH218167   7.087   0.594   5.418 -0.7595  0.0513  0.7646
 6068TIP3    H118168   7.027   0.519   5.418 -1.6294  0.5652 -2.6289
 6068TIP3    H218169   7.171   0.559   5.448 -1.2866 -2.1757 -0.2222
 6069TIP3   OH218170   4.203   5.567   2.256  0.1448  0.6643  0.3229
 6069TIP3    H118171   4.291   5.575   2.292 -0.5767  0.7198  2.2059
 6069TIP3    H218172   4.176   5.478   2.276 -0.0290  0.4561 -0.7680
 6070TIP3   OH218173   6.053   1.549   0.104 -0.1749 -0.1903  0.3887
 6070TIP3    H118174   6.043   1.593   0.020  0.3768  0.4419  0.6436
 6070TIP3    H218175   6.022   1.612   0.169 -0.4752 -0.6229  0.6743
 6071TIP3   OH218176   5.897   4.490   4.989  0.5472 -0.2065  0.0511
 6071TIP3    H118177   5.967   4.450   5.042  1.6770  0.5020 -0.8630
 6071TIP3    H218178   5.926   4.479   4.899 -1.0246 -0.7846 -0.4158
 6072TIP3   OH218179   4.251   0.860   1.946  0.4067  0.4867 -0.1195
 6072TIP3    H118180   4.333   0.819   1.971  1.0106  0.2836 -2.2300
 6072TIP3    H218181   4.272   0.953   1.939  0.1338  0.5993  0.5074
 6073TIP3   OH218182   5.629   5.187   1.713 -0.2850 -0.4473 -0.1718
 6073TIP3    H118183   5.571   5.184   1.637 -1.0690 -0.1389  0.4058
 6073TIP3    H218184   5.626   5.098   1.748 -0.4960 -0.3975 -0.0688
 6074TIP3   OH218185   3.195   6.244   4.984  0.1990 -0.2261  0.1067
 6074TIP3    H118186   3.202   6.311   4.915 -0.7767 -0.0392  0.1692
 6074TIP3    H218187   3.249   6.171   4.952 -0.0381 -0.0459 -0.7404
 6075TIP3   OH218188   5.346   5.595   2.629  0.3082 -0.2038 -0.4436
 6075TIP3    H118189   5.255   5.619   2.645  0.7378  1.9239 -0.9220
 6075TIP3    H218190   5.361   5.520   2.687 -1.3033  0.3860  0.8228
 6076TIP3   OH218191   2.965   5.213   1.465 -0.0682  0.1141  0.3517
 6076TIP3    H118192   2.921   5.206   1.550  0.6513 -1.0732  0.6543
 6076TIP3    H218193   2.998   5.125   1.448  1.8511  0.8445 -0.0166
 6077TIP3   OH218194   2.647   2.745   5.440  0.0131  0.6066  0.3059
 6077TIP3    H118195   2.684   2.700   5.364  1.7913  0.2594  1.3230
 6077TIP3    H218196   2.554   2.722   5.439  0.0460  0.3813 -1.5812
 6078TIP3   OH218197   3.277   0.286   2.868 -0.1689  0.0697 -0.2573
 6078TIP3    H118198   3.205   0.302   2.929  0.2033 -0.3611  0.3048
 6078TIP3    H218199   3.356   0.307   2.917  0.2043 -1.3311 -0.2040
 6079TIP3   OH218200   0.317   5.165   2.655 -0.7544  0.2658 -0.0659
 6079TIP3    H118201   0.316   5.193   2.746  1.4669  0.9632 -0.1968
 6079TIP3    H218202   0.248   5.217   2.613 -1.2336  0.5363  1.0294
 6080TIP3   OH218203   1.856   5.732   1.234 -0.2832  0.0770 -0.6951
 6080TIP3    H118204   1.917   5.727   1.308  1.6199 -1.5287 -2.2555
 6080TIP3    H218205   1.772   5.701   1.270  0.3084  0.3881  1.0319
 6081TIP3   OH218206   0.744   0.510   3.019 -0.1746 -0.7135  0.9763
 6081TIP3    H118207   0.694   0.590   3.006 -0.4510 -0.8180  1.3827
 6081TIP3    H218208   0.770   0.512   3.111  0.4414 -0.7353  0.8083
 6082TIP3   OH218209   6.450   2.771   2.021 -0.1412  0.2285 -0.9111
 6082TIP3    H118210   6.475   2.710   2.091 -2.1176 -0.1428 -0.4675
 6082TIP3    H218211   6.483   2.730   1.941 -1.5397 -1.5346 -0.6326
 6083TIP3   OH218212   3.883   3.186   3.063  0.2716 -0.5974 -0.7056
 6083TIP3    H118213   3.804   3.216   3.018  0.0161 -0.7923 -0.3880
 6083TIP3    H218214   3.884   3.235   3.145  0.8323 -0.1115 -0.9953
 6084TIP3   OH218215   7.051   4.433   5.202 -0.1188 -0.4733 -0.3123
 6084TIP3    H118216   7.023   4.342   5.212 -0.2298 -0.5040 -0.8796
 6084TIP3    H218217   7.042   4.451   5.108 -2.1086  0.7773  0.0480
 6085TIP3   OH218218   1.770   3.228   0.967  0.3628 -0.6031  0.3335
 6085TIP3    H118219   1.750   3.159   0.903  1.9202 -0.8796  0.1192
 6085TIP3    H218220   1.717   3.206   1.043  0.1162 -1.4946 -0.0844
 6086TIP3   OH218221   5.125   2.730   2.091 -0.5766  0.0199 -1.1526
 6086TIP3    H118222   5.052   2.727   2.152 -0.5848 -0.5358 -1.1925
 6086TIP3    H218223   5.085   2.726   2.004 -0.5031 -0.2459 -1.1754
 6087TIP3   OH218224   6.916   4.668   3.069  0.2471 -1.1411 -0.0757
 6087TIP3    H118225   6.928   4.579   3.102  0.3322 -1.1407 -0.1057
 6087TIP3    H218226   6.966   4.671   2.988 -0.0172 -1.1611 -0.2392
 6088TIP3   OH218227   2.239   4.378   3.924  0.0216  0.5526 -0.4217
 6088TIP3    H118228   2.199   4.377   4.011  0.9221  1.8610  0.0400
 6088TIP3    H218229   2.229   4.468   3.894  1.7127  0.6670 -0.7085
 6089TIP3   OH218230   2.066   2.502   1.499  0.6661 -0.2398  0.1868
 6089TIP3    H118231   1.987   2.519   1.550  0.3781  0.7154 -0.5487
 6089TIP3    H218232   2.126   2.572   1.523 -0.0386  1.1686 -1.8660
 6090TIP3   OH218233   0.990   5.007   3.147 -0.1190 -0.0522  0.3871
 6090TIP3    H118234   0.938   4.952   3.087 -0.1688  1.1386 -0.6987
 6090TIP3    H218235   0.990   4.958   3.229 -1.8967 -0.7111  0.0552
 6091TIP3   OH218236   5.938   0.908   3.254  0.5297 -0.5039  0.2798
 6091TIP3    H118237   6.012   0.853   3.279  0.9686 -0.4548 -0.8459
 6091TIP3    H218238   5.976   0.995   3.242  0.3652 -0.5434 -0.6209
 6092TIP3   OH218239   0.901   6.384   5.319  0.7832 -0.4648  0.3648
 6092TIP3    H118240   0.863   6.327   5.252 -1.2277  0.7442  0.4260
 6092TIP3    H218241   0.977   6.424   5.276  0.8747 -1.4433 -0.4155
 6093TIP3   OH218242   2.005   2.285   3.924  0.1804  0.2919 -0.7467
 6093TIP3    H118243   2.045   2.206   3.889  0.2346  0.4772 -1.1091
 6093TIP3    H218244   1.926   2.298   3.871  0.2317  0.5392 -0.7661
 6094TIP3   OH218245   3.726   0.397   3.768  0.6526  0.4820  0.0249
 6094TIP3    H118246   3.738   0.319   3.823 -3.0749 -1.8008 -1.9649
 6094TIP3    H218247   3.763   0.372   3.684 -0.2372  1.0006 -0.5321
 6095TIP3   OH218248   1.927   3.417   1.899 -0.5524  0.1092 -0.5456
 6095TIP3    H118249   1.949   3.332   1.938  2.6918  2.1912  2.7911
 6095TIP3    H218250   1.887   3.467   1.970 -0.3522  2.0842 -1.7373
 6096TIP3   OH218251   1.046   2.398   5.369 -0.2669  0.1939  0.8721
 6096TIP3    H118252   1.121   2.448   5.335 -0.0038  0.5852  1.9911
 6096TIP3    H218253   1.076   2.307   5.368 -1.2247 -0.2204 -2.4772
 6097TIP3   OH218254   6.398   2.673   3.613 -0.3507  0.1841  0.7221
 6097TIP3    H118255   6.481   2.716   3.637  0.5623 -1.5064  0.7531
 6097TIP3    H218256   6.395   2.679   3.518  0.0512 -0.1568  0.6845
 6098TIP3   OH218257   6.017   2.355   2.862 -0.1773 -0.1744 -0.4246
 6098TIP3    H118258   5.929   2.318   2.871 -1.0432  1.8763  0.2064
 6098TIP3    H218259   6.040   2.340   2.770 -1.7722  0.3777 -0.9609
 6099TIP3   OH218260   1.698   3.420   3.159  0.1387  0.7963 -0.6676
 6099TIP3    H118261   1.700   3.343   3.216  2.3244  1.5155  0.3109
 6099TIP3    H218262   1.624   3.472   3.192 -0.8643 -0.4703 -0.8410
 6100TIP3   OH218263   6.661   4.886   3.354 -0.8396 -0.1886  0.0677
 6100TIP3    H118264   6.650   4.794   3.330  1.9451 -0.3901 -0.7108
 6100TIP3    H218265   6.683   4.930   3.272  1.3722  0.4769  0.9442
 6101TIP3   OH218266   3.869   3.397   1.031 -0.1782  0.4801 -0.4750
 6101TIP3    H118267   3.897   3.488   1.030 -0.4655  0.7052  2.3800
 6101TIP3    H218268   3.823   3.387   1.115 -2.4249 -1.6617 -1.8143
 6102TIP3   OH218269   1.197   3.496   2.689  0.0413 -0.2110 -0.0576
 6102TIP3    H118270   1.136   3.542   2.631 -1.0256 -1.1029  0.3176
 6102TIP3    H218271   1.175   3.527   2.777 -0.0625 -0.7374  0.1051
 6103TIP3   OH218272   5.976   1.332   5.657  0.2792 -0.3414  0.2311
 6103TIP3    H118273   5.924   1.252   5.660 -0.2668  0.0170  0.4561
 6103TIP3    H218274   6.001   1.341   5.566 -1.0327  0.0979 -0.1016
 6104TIP3   OH218275   0.116   1.802   5.820 -0.1810  0.4991  0.0367
 6104TIP3    H118276   0.137   1.710   5.807 -0.8371  0.0851  1.6303
 6104TIP3    H218277   0.165   1.827   5.898  0.7324  1.7801 -0.9106
 6105TIP3   OH218278   4.309   3.345   3.675  0.2314 -0.3614  0.5469
 6105TIP3    H118279   4.276   3.255   3.683  0.9419 -0.5692  1.3008
 6105TIP3    H218280   4.391   3.345   3.724  3.2186 -0.7142 -3.8801
 6106TIP3   OH218281   0.049   3.669   4.211 -0.0376 -0.2302 -0.0250
 6106TIP3    H118282   0.132   3.703   4.242 -0.0320 -1.0714  0.9414
 6106TIP3    H218283   0.071   3.618   4.133  0.5526 -1.5536  0.9854
 6107TIP3   OH218284   1.831   0.494   2.874 -1.0293 -0.0711  0.0838
 6107TIP3    H118285   1.806   0.580   2.908  0.1025 -0.1739  1.2821
 6107TIP3    H218286   1.906   0.512   2.817  0.6754 -0.4393  2.1085
 6108TIP3   OH218287   4.800   2.117   2.643  0.4655 -0.2946  0.0274
 6108TIP3    H118288   4.840   2.171   2.711  1.8133 -1.2734  0.0513
 6108TIP3    H218289   4.752   2.050   2.690 -1.2656  0.8408 -0.0023
 6109TIP3   OH218290   0.009   5.695   4.930  0.3884 -0.3953  0.3563
 6109TIP3    H118291   0.007   5.662   4.840  2.1177 -0.0420  0.1511
 6109TIP3    H218292   0.077   5.762   4.929 -0.8710  0.9662  1.5114
 6110TIP3   OH218293   4.486   4.391   2.056  0.4243 -0.4406  0.4785
 6110TIP3    H118294   4.457   4.300   2.054  1.3772 -0.7427 -0.0991
 6110TIP3    H218295   4.474   4.418   2.147 -0.4298 -0.9478  0.5315
 6111TIP3   OH218296   6.487   5.920   1.112  0.5576 -0.6405  0.4540
 6111TIP3    H118297   6.449   5.834   1.094 -1.4523  0.3416 -0.4881
 6111TIP3    H218298   6.579   5.912   1.087 -0.0163 -2.0127 -1.4678
 6112TIP3   OH218299   3.990   1.912   4.909 -0.3203  0.0030  0.2164
 6112TIP3    H118300   4.023   1.994   4.946  0.2674 -0.8911  1.7576
 6112TIP3    H218301   4.065   1.852   4.913 -0.0369 -0.0290 -2.9921
 6113TIP3   OH218302   3.661   3.440   4.799 -0.4639  0.1096 -0.4577
 6113TIP3    H118303   3.604   3.478   4.866  0.8199  1.0726  0.1481
 6113TIP3    H218304   3.688   3.514   4.745 -0.3727 -0.4455 -1.1952
 6114TIP3   OH218305   5.221   3.716   1.016 -0.0678 -0.3437 -0.3934
 6114TIP3    H118306   5.153   3.747   1.077  0.3971 -0.7856  0.3692
 6114TIP3    H218307   5.172   3.684   0.940 -0.7157 -0.5950  0.1157
 6115TIP3   OH218308   6.642   4.116   4.420  0.6974  0.0443 -0.3616
 6115TIP3    H118309   6.664   4.151   4.507  0.9046 -0.4061 -0.2302
 6115TIP3    H218310   6.571   4.172   4.389  1.0963  0.6539 -0.1980
 6116TIP3   OH218311   5.875   0.175   5.315 -0.0451  0.7203  0.1526
 6116TIP3    H118312   5.874   0.270   5.307  0.3068  0.7668  0.5928
 6116TIP3    H218313   5.968   0.152   5.314 -0.0824  0.4808  1.1014
 6117TIP3   OH218314   0.295   4.167   0.502 -0.4580 -0.1448 -0.1329
 6117TIP3    H118315   0.339   4.150   0.585 -1.0936 -1.3714 -0.0232
 6117TIP3    H218316   0.277   4.260   0.503 -0.8714 -0.2161  1.3273
 6118TIP3   OH218317   2.193   0.155   3.368  0.0775  0.2055  0.0742
 6118TIP3    H118318   2.187   0.093   3.440 -0.1154 -0.9824 -0.9321
 6118TIP3    H218319   2.130   0.224   3.389  0.0632 -0.0972  1.0491
 6119TIP3   OH218320   3.479   1.855   3.136  0.1610  0.3624 -0.3954
 6119TIP3    H118321   3.525   1.875   3.055 -2.1910  4.5676 -0.9976
 6119TIP3    H218322   3.411   1.792   3.110  0.3426  0.5573 -1.3686
 6120TIP3   OH218323   5.570   6.022   2.095  0.0263 -0.7476  0.1448
 6120TIP3    H118324   5.474   6.022   2.090  0.0022 -0.5602  0.5507
 6120TIP3    H218325   5.593   6.114   2.106  0.3086 -0.6897 -0.8348
 6121TIP3   OH218326   3.296   1.898   5.423  0.3983  0.8210 -0.2579
 6121TIP3    H118327   3.304   1.971   5.485  0.6660  0.4461  0.1589
 6121TIP3    H218328   3.385   1.880   5.396  0.6477 -0.9103  1.4959
 6122TIP3   OH218329   2.724   0.200   5.352 -0.2532  0.5334 -0.6038
 6122TIP3    H118330   2.709   0.167   5.264 -0.9486 -0.3274 -0.1879
 6122TIP3    H218331   2.695   0.128   5.409 -0.1829  1.2221  0.3215
 6123TIP3   OH218332   7.189   0.155   3.166  0.0125  0.3731  0.0884
 6123TIP3    H118333   7.139   0.103   3.229  0.4682 -1.2505 -0.8120
 6123TIP3    H218334   7.171   0.113   3.081  0.9954  1.2382 -0.5683
 6124TIP3   OH218335   2.963   6.683   2.926  0.1053  0.4005 -0.3335
 6124TIP3    H118336   2.950   6.637   2.843 -3.0338  1.5594 -0.6359
 6124TIP3    H218337   2.961   6.776   2.902  0.2977  0.7518  0.9304
 6125TIP3   OH218338   3.462   0.632   1.003 -0.3316  0.7235  0.2182
 6125TIP3    H118339   3.521   0.560   1.025  1.0174  0.8750 -2.5141
 6125TIP3    H218340   3.512   0.712   1.021 -1.1683  0.9801  1.5392
 6126TIP3   OH218341   2.612   5.745   1.461  0.1073  0.2569 -1.0270
 6126TIP3    H118342   2.651   5.658   1.461  1.9790  1.0511 -0.6493
 6126TIP3    H218343   2.673   5.799   1.511 -1.9469  1.4092  0.4013
 6127TIP3   OH218344   1.361   5.952   0.027  0.0425  0.3895 -0.2627
 6127TIP3    H118345   1.414   5.915   0.098 -0.0009  0.5018 -0.1714
 6127TIP3    H218346   1.277   5.907   0.034  0.4946 -0.6450 -1.1355
 6128TIP3   OH218347   0.923   1.995   5.104 -0.4279 -0.0656  0.5815
 6128TIP3    H118348   0.914   2.065   5.039 -1.6761 -0.9848 -0.2803
 6128TIP3    H218349   0.836   1.956   5.109 -0.1900 -0.4463  2.3567
 6129TIP3   OH218350   4.729   1.007   1.665  0.0271 -0.1534  0.1560
 6129TIP3    H118351   4.696   1.096   1.671 -1.9450 -0.8789  1.0772
 6129TIP3    H218352   4.651   0.954   1.647  1.1863 -1.6814 -0.6222
 6130TIP3   OH218353   4.344   4.327   2.866  0.4407 -0.3140  0.0334
 6130TIP3    H118354   4.283   4.253   2.871  0.9652 -0.9086 -1.5269
 6130TIP3    H218355   4.425   4.294   2.905 -0.3838  0.7445  2.8726
 6131TIP3   OH218356   5.296   0.160   4.766  0.4940  0.7316  0.1863
 6131TIP3    H118357   5.269   0.221   4.698 -0.4329  0.0395 -0.0847
 6131TIP3    H218358   5.278   0.073   4.730  2.0523  0.2682  0.4566
 6132TIP3   OH218359   7.131   3.523   2.577  0.0253  0.0729 -0.5428
 6132TIP3    H118360   7.076   3.518   2.655 -0.6234 -1.1276 -1.0527
 6132TIP3    H218361   7.076   3.566   2.512  0.4248  0.7158 -0.4607
 6133TIP3   OH218362   6.561   1.897   2.175 -0.4583 -0.0327  0.0659
 6133TIP3    H118363   6.605   1.850   2.246  0.5728  0.5861 -0.1356
 6133TIP3    H218364   6.468   1.883   2.191 -0.2108 -1.0227  0.7618
 6134TIP3   OH218365   6.725   0.303   0.208  0.1016  0.5603  0.0438
 6134TIP3    H118366   6.710   0.323   0.115  1.0998  3.7272  0.4425
 6134TIP3    H218367   6.800   0.244   0.208 -0.1267  0.2307 -1.1524
 6135TIP3   OH218368   2.282   2.259   3.690 -0.3255  0.5719  0.4152
 6135TIP3    H118369   2.241   2.318   3.754  0.8599  0.8426  0.9473
 6135TIP3    H218370   2.370   2.243   3.725 -0.3931 -0.9856 -0.0670
 6136TIP3   OH218371   1.266   1.049   0.797 -0.4386 -0.3558 -0.2887
 6136TIP3    H118372   1.180   1.081   0.823 -0.1869 -0.1943  0.3580
 6136TIP3    H218373   1.295   1.110   0.730 -0.2607  0.3735  0.4386
 6137TIP3   OH218374   7.078   1.135   2.172  0.0101 -0.2258 -0.1760
 6137TIP3    H118375   7.036   1.120   2.087 -0.4930  1.5608 -0.2664
 6137TIP3    H218376   7.007   1.126   2.235  0.2696 -0.9604  0.0251
 6138TIP3   OH218377   1.849   3.043   0.231 -0.1470  0.4762 -0.0493
 6138TIP3    H118378   1.814   3.132   0.232 -2.3217 -0.3135  0.0128
 6138TIP3    H218379   1.912   3.040   0.303  0.1097  2.0126 -0.1923
 6139TIP3   OH218380   4.822   5.514   2.261  0.0670 -0.1839 -0.3124
 6139TIP3    H118381   4.911   5.533   2.290  0.7855 -2.3561 -0.8827
 6139TIP3    H218382   4.795   5.592   2.212  1.4211  0.7503  0.3695
 6140TIP3   OH218383   4.437   1.227   5.588 -0.7558  0.1221  0.0099
 6140TIP3    H118384   4.390   1.220   5.504 -0.2459  0.2060 -0.2833
 6140TIP3    H218385   4.513   1.170   5.578  0.2938  1.5169 -0.2697
 6141TIP3   OH218386   3.088   1.819   1.420 -0.1242  0.2229 -0.1797
 6141TIP3    H118387   3.054   1.851   1.504 -1.0476 -0.6949 -0.1720
 6141TIP3    H218388   3.078   1.893   1.360 -0.9569  0.3867  0.1482
 6142TIP3   OH218389   3.041   1.521   4.033 -0.3125  0.5953  0.6923
 6142TIP3    H118390   2.957   1.548   3.997 -0.1608  0.4482  0.2168
 6142TIP3    H218391   3.041   1.554   4.123 -0.3238  1.7504  0.2798
 6143TIP3   OH218392   2.317   2.825   1.785 -0.4514  0.1865 -0.9186
 6143TIP3    H118393   2.310   2.750   1.726 -0.7381  1.2213 -2.2512
 6143TIP3    H218394   2.406   2.820   1.819 -1.0993 -1.9050  0.6502
 6144TIP3   OH218395   5.619   2.415   3.548  0.5255 -0.1287  0.7663
 6144TIP3    H118396   5.709   2.440   3.529 -0.4390  1.5895 -2.1713
 6144TIP3    H218397   5.582   2.490   3.597  0.5956 -0.7619  1.8322
 6145TIP3   OH218398   0.953   2.629   5.523 -0.5844  0.0098 -0.1950
 6145TIP3    H118399   0.883   2.650   5.461 -1.8214  1.7706  1.6593
 6145TIP3    H218400   1.029   2.612   5.468 -1.6998  1.1381 -2.2131
 6146TIP3   OH218401   3.266   4.998   1.802 -0.5862 -0.4016  0.0561
 6146TIP3    H118402   3.212   5.008   1.881 -0.6053  0.4399 -0.0520
 6146TIP3    H218403   3.236   4.917   1.762 -1.0466 -0.4827  0.5585
 6147TIP3   OH218404   6.072   4.713   5.310  0.5582 -0.5799  0.5570
 6147TIP3    H118405   6.121   4.730   5.230 -0.7027  1.6131  0.1506
 6147TIP3    H218406   6.106   4.778   5.372 -1.1940  0.4468  0.5078
 6148TIP3   OH218407   5.198   5.409   5.752 -0.0946 -0.3586  0.0058
 6148TIP3    H118408   5.115   5.380   5.788 -0.0636  0.7252  0.9842
 6148TIP3    H218409   5.254   5.331   5.754 -0.6664 -0.7550  0.5937
 6149TIP3   OH218410   2.576   1.055   3.110  0.4269 -0.0777 -0.2877
 6149TIP3    H118411   2.514   1.115   3.151  0.7196  0.0504 -0.0277
 6149TIP3    H218412   2.608   1.001   3.182  0.4626 -0.2816 -0.4566
 6150TIP3   OH218413   3.446   4.736   4.677 -0.0444  0.4844  0.0126
 6150TIP3    H118414   3.404   4.802   4.622 -1.5792 -0.5609 -0.1669
 6150TIP3    H218415   3.386   4.661   4.673  1.1352 -0.5573  1.0007
 6151TIP3   OH218416   0.600   1.908   5.388  0.1056 -0.1760  0.0882
 6151TIP3    H118417   0.685   1.878   5.358 -0.0692 -0.1401 -0.4454
 6151TIP3    H218418   0.609   1.914   5.483  0.7181 -0.0989  0.0281
 6152TIP3   OH218419   5.311   5.103   5.112 -1.0024  0.2929 -0.0393
 6152TIP3    H118420   5.295   5.010   5.094  0.2138  0.2637 -1.0939
 6152TIP3    H218421   5.287   5.148   5.031  3.2506  0.3159 -1.5113
 6153TIP3   OH218422   7.075   5.811   2.287 -0.2156 -0.7313  0.5170
 6153TIP3    H118423   7.004   5.876   2.279  0.0580 -0.4305  0.5183
 6153TIP3    H218424   7.154   5.860   2.264 -0.0021 -1.0543  0.5700
 6154TIP3   OH218425   2.126   1.224   3.616  0.4591 -0.4477  0.4284
 6154TIP3    H118426   2.079   1.202   3.535 -1.0583 -1.6866  1.5605
 6154TIP3    H218427   2.134   1.319   3.614 -0.0986 -0.4052 -0.8865
 6155TIP3   OH218428   6.349   5.992   0.175 -0.0458  0.2136  0.1845
 6155TIP3    H118429   6.279   5.954   0.122  0.8403  0.4491 -1.2419
 6155TIP3    H218430   6.359   6.081   0.141  0.8233  0.2315  0.4608
 6156TIP3   OH218431   2.055   6.721   4.628  0.3051  0.4576 -0.2073
 6156TIP3    H118432   2.081   6.732   4.536  2.6845  0.6813  0.4097
 6156TIP3    H218433   2.092   6.636   4.653 -0.9677  0.0513  0.3697
 6157TIP3   OH218434   6.017   0.740   5.509  0.2681  0.0164  0.3596
 6157TIP3    H118435   6.003   0.785   5.425  1.3226  0.6860  0.5251
 6157TIP3    H218436   5.929   0.731   5.546 -0.4783 -1.9827 -1.6353
 6158TIP3   OH218437   5.469   1.214   3.019 -0.7711  0.2129 -0.2463
 6158TIP3    H118438   5.559   1.216   2.987 -0.8434  0.1790 -0.4520
 6158TIP3    H218439   5.419   1.262   2.953 -1.0275 -0.4330 -0.5350
 6159TIP3   OH218440   6.173   0.760   3.304 -0.4978 -0.1255 -0.4213
 6159TIP3    H118441   6.150   0.711   3.384  0.1166  0.3253  0.0346
 6159TIP3    H218442   6.266   0.779   3.313 -0.8675  1.7866 -0.2230
 6160TIP3   OH218443   2.173   1.883   0.802 -0.1016  0.2362 -0.1561
 6160TIP3    H118444   2.240   1.950   0.788  0.9312 -1.0522 -1.6239
 6160TIP3    H218445   2.098   1.912   0.750 -0.0861  0.8298  0.1486
 6161TIP3   OH218446   0.751   4.397   1.424 -0.0279  0.1462 -0.0451
 6161TIP3    H118447   0.787   4.474   1.468 -1.7027  1.4869 -0.8949
 6161TIP3    H218448   0.789   4.323   1.470  0.3233  1.4807  1.9428
 6162TIP3   OH218449   6.841   3.485   3.821  0.1031 -0.4505 -0.1850
 6162TIP3    H118450   6.752   3.487   3.786  0.2660 -0.1407 -0.6049
 6162TIP3    H218451   6.889   3.548   3.766  0.4599 -0.2430  0.3599
 6163TIP3   OH218452   3.799   2.664   5.072 -0.5365  0.0089  0.6094
 6163TIP3    H118453   3.715   2.707   5.090 -1.4502 -2.2179  2.0264
 6163TIP3    H218454   3.849   2.675   5.153 -0.1598 -0.2217  0.4088
 6164TIP3   OH218455   1.423   1.979   1.606 -0.1066 -0.1063  0.0464
 6164TIP3    H118456   1.466   1.954   1.524 -1.3027 -2.2148 -0.0032
 6164TIP3    H218457   1.335   2.005   1.579  0.1855  1.4318  0.4586
 6165TIP3   OH218458   6.315   4.802   3.361  0.2384 -0.1932 -0.2211
 6165TIP3    H118459   6.301   4.766   3.274  0.9811 -0.3386 -0.2879
 6165TIP3    H218460   6.321   4.726   3.418 -3.5212 -0.0862  0.5391
 6166TIP3   OH218461   6.536   6.283   1.348 -0.0639 -0.1026  0.0411
 6166TIP3    H118462   6.563   6.367   1.311  1.4308 -1.1098 -1.2563
 6166TIP3    H218463   6.588   6.274   1.428 -1.3660  0.8592  1.0562
 6167TIP3   OH218464   6.944   0.837   4.921  0.0323 -0.7692  0.3705
 6167TIP3    H118465   6.857   0.871   4.938 -0.0294 -1.6333  2.0366
 6167TIP3    H218466   6.948   0.756   4.972  1.9182 -0.5748  0.6102
 6168TIP3   OH218467   6.563   5.179   2.683  0.2376  0.8778  0.4100
 6168TIP3    H118468   6.492   5.178   2.618  0.7164 -0.4998 -0.1276
 6168TIP3    H218469   6.527   5.229   2.757 -1.1985  0.4325  0.0508
 6169TIP3   OH218470   5.012   0.091   4.903  0.1462 -0.2392 -0.0697
 6169TIP3    H118471   5.011   0.031   4.829  1.9504 -0.3220 -0.0867
 6169TIP3    H218472   5.105   0.115   4.912 -0.1949  0.5966  1.4916
 6170TIP3   OH218473   3.497   5.089   2.381 -0.2997  0.4300  0.6981
 6170TIP3    H118474   3.423   5.110   2.325  0.0835  0.1485  0.0816
 6170TIP3    H218475   3.466   5.110   2.470 -1.0452  0.4953  0.4318
 6171TIP3   OH218476   6.091   5.304   3.582 -0.3406 -0.3070 -0.1071
 6171TIP3    H118477   6.072   5.348   3.499 -0.8918  0.5079  0.4336
 6171TIP3    H218478   6.090   5.211   3.561 -2.6866 -0.2267 -0.6100
 6172TIP3   OH218479   0.634   2.351   1.401  0.7840  0.0560  0.0796
 6172TIP3    H118480   0.558   2.407   1.419  1.3006 -0.2582  4.0795
 6172TIP3    H218481   0.685   2.401   1.337 -1.9001  0.9793 -1.5640
 6173TIP3   OH218482   3.296   4.369   2.368  0.1931  1.0417 -0.1701
 6173TIP3    H118483   3.217   4.401   2.325 -0.0235  0.1609 -0.4497
 6173TIP3    H218484   3.276   4.376   2.462 -0.3359  0.5448 -0.2405
 6174TIP3   OH218485   1.592   0.789   2.683 -0.3908  0.2256  0.1618
 6174TIP3    H118486   1.564   0.760   2.596  0.5218 -0.0352 -0.0506
 6174TIP3    H218487   1.560   0.720   2.741 -0.0072 -0.1904 -0.1076
 6175TIP3   OH218488   6.715   1.161   2.849  0.3946 -0.2311  0.0981
 6175TIP3    H118489   6.684   1.184   2.762  1.9222  0.6927 -0.2397
 6175TIP3    H218490   6.702   1.066   2.855 -1.3268 -0.0599 -0.4412
 6176TIP3   OH218491   6.757   1.999   3.481 -0.6139  0.2656 -0.0950
 6176TIP3    H118492   6.670   1.959   3.486 -1.5099  1.8965 -1.2192
 6176TIP3    H218493   6.776   2.027   3.571 -1.4703  0.2606  0.1019
 6177TIP3   OH218494   4.906   1.862   1.292 -0.4919  0.3989 -0.1828
 6177TIP3    H118495   4.909   1.948   1.248 -1.2237  0.3277 -0.3828
 6177TIP3    H218496   4.815   1.834   1.283 -0.4870  0.0516  0.7601
 6178TIP3   OH218497   6.776   5.293   3.140  0.2011 -0.4275 -0.6417
 6178TIP3    H118498   6.837   5.346   3.089 -1.9170  0.6033 -2.2303
 6178TIP3    H218499   6.768   5.340   3.223  2.0906 -1.0072 -0.0692
 6179TIP3   OH218500   2.202   1.658   0.953 -0.4120 -0.0165 -0.1961
 6179TIP3    H118501   2.284   1.649   1.000 -0.4063  1.2214  0.0556
 6179TIP3    H218502   2.210   1.740   0.905 -1.2128 -0.2492 -0.7531
 6180TIP3   OH218503   2.051   1.147   4.794 -0.1197 -0.4000  0.2844
 6180TIP3    H118504   2.080   1.235   4.817 -0.1887 -0.4621  0.6194
 6180TIP3    H218505   2.097   1.126   4.712 -1.5550  0.6894 -0.8482
 6181TIP3   OH218506   6.870   1.997   2.554 -0.0864  0.0214  0.0859
 6181TIP3    H118507   6.852   1.912   2.515 -1.1269  0.1381  0.2854
 6181TIP3    H218508   6.784   2.036   2.568  0.3859  1.1756 -0.1423
 6182TIP3   OH218509   0.104   3.839   4.525 -0.2054 -0.1473  0.0181
 6182TIP3    H118510   0.184   3.870   4.483 -0.5410  1.5635  0.5608
 6182TIP3    H218511   0.036   3.898   4.493 -1.1058 -1.0951  0.1659
 6183TIP3   OH218512   0.081   2.279   2.156  0.2652 -0.0048 -0.3433
 6183TIP3    H118513   0.097   2.321   2.071  0.6984 -1.9431 -1.2950
 6183TIP3    H218514  -0.010   2.298   2.176  0.4031  1.2244 -0.7983
 6184TIP3   OH218515   0.726   3.156   1.805  0.5448 -0.8135  0.9426
 6184TIP3    H118516   0.752   3.075   1.849  3.0844 -0.1398  0.8191
 6184TIP3    H218517   0.754   3.226   1.864 -0.7947  0.0260  0.6339
 6185TIP3   OH218518   1.624   5.713   4.776  0.1877 -0.4893  0.0307
 6185TIP3    H118519   1.706   5.757   4.757 -1.0909  1.5602 -1.1583
 6185TIP3    H218520   1.613   5.650   4.705 -0.0278  0.4344 -0.7882
 6186TIP3   OH218521   1.810   3.013   1.446 -0.3160  0.0956 -0.0192
 6186TIP3    H118522   1.854   2.958   1.511 -3.2196 -0.2548  1.8728
 6186TIP3    H218523   1.814   3.101   1.483  0.5894  0.4276 -0.8872
 6187TIP3   OH218524   0.723   5.110   4.996 -0.0820  0.0093  0.2551
 6187TIP3    H118525   0.628   5.103   5.011 -0.3060  2.6399  0.4905
 6187TIP3    H218526   0.752   5.179   5.056  1.4289  1.3252 -1.8372
 6188TIP3   OH218527   3.375   6.636   0.620  0.1013 -0.3017 -0.9487
 6188TIP3    H118528   3.455   6.684   0.638 -0.8141  1.4890 -1.3791
 6188TIP3    H218529   3.372   6.628   0.525 -0.1231 -0.5808 -0.9218
 6189TIP3   OH218530   1.620   1.978   2.208 -0.3685 -0.2300  0.2483
 6189TIP3    H118531   1.705   1.990   2.251 -0.2320  0.3840 -0.1832
 6189TIP3    H218532   1.642   1.941   2.122 -0.5006  0.3714 -0.0491
 6190TIP3   OH218533   2.447   0.967   2.555  0.0756 -0.3696 -0.3640
 6190TIP3    H118534   2.475   1.038   2.613 -1.0772  0.1134 -0.3796
 6190TIP3    H218535   2.422   1.011   2.474 -1.5590 -0.6527 -0.0580
 6191TIP3   OH218536   5.932   1.734   3.996 -0.2270  0.2123  0.2780
 6191TIP3    H118537   5.972   1.665   4.049 -0.2276  0.0837  0.1104
 6191TIP3    H218538   5.917   1.806   4.058  1.2741  0.6850  0.1211
 6192TIP3   OH218539   0.726   0.386   4.864 -0.1488 -0.3171  0.2561
 6192TIP3    H118540   0.642   0.341   4.856 -0.4393 -0.4127  2.8776
 6192TIP3    H218541   0.705   0.479   4.851 -0.8035 -0.2814  1.4158
 6193TIP3   OH218542   0.664   2.839   5.586  0.4987  0.1605  0.0415
 6193TIP3    H118543   0.669   2.832   5.682  0.0200  1.1045  0.1445
 6193TIP3    H218544   0.586   2.789   5.563 -1.9439  3.4303  0.6065
 6194TIP3   OH218545   6.802   3.296   5.586 -0.4281  0.0465  0.2201
 6194TIP3    H118546   6.816   3.205   5.611  0.9539  0.5983  1.5952
 6194TIP3    H218547   6.853   3.307   5.506  0.8216  0.0277  0.9886
 6195TIP3   OH218548   0.421   2.145   0.716 -0.4189  0.5755  0.0694
 6195TIP3    H118549   0.462   2.189   0.790  1.0551 -2.2680  1.0993
 6195TIP3    H218550   0.492   2.137   0.651 -0.3645 -1.0184  0.2911
 6196TIP3   OH218551   6.364   1.141   0.805  0.2500 -0.0212 -0.2107
 6196TIP3    H118552   6.411   1.080   0.861  0.4172  0.2710 -0.0372
 6196TIP3    H218553   6.382   1.227   0.841 -0.0027  0.1336 -0.4463
 6197TIP3   OH218554   0.794   5.041   0.641  0.2789  0.1488 -0.2749
 6197TIP3    H118555   0.771   5.131   0.619  1.3951  0.9829  1.6164
 6197TIP3    H218556   0.719   4.989   0.614 -1.7495  2.0614  1.2722
 6198TIP3   OH218557   4.168   1.766   4.284  0.0695  0.1492  0.6419
 6198TIP3    H118558   4.169   1.750   4.379 -1.8680 -1.0318  0.5252
 6198TIP3    H218559   4.132   1.685   4.247  1.3191  0.3736 -1.1750
 6199TIP3   OH218560   2.722   6.803   0.032 -0.6269  0.0070 -0.0904
 6199TIP3    H118561   2.750   6.866   0.098 -2.3008 -0.0688  0.7300
 6199TIP3    H218562   2.751   6.718   0.066 -1.4272 -0.0244  0.5378
 6200TIP3   OH218563   6.972   6.054   2.233 -0.1548 -0.1587 -0.2978
 6200TIP3    H118564   6.921   6.112   2.177  2.1227  1.5325 -0.7781
 6200TIP3    H218565   7.056   6.045   2.188  0.9991 -0.4626  1.7868
 6201TIP3   OH218566   0.530   3.009   3.983  0.6669  0.4613  0.3021
 6201TIP3    H118567   0.520   3.023   3.889  0.4731 -0.5024  0.1697
 6201TIP3    H218568   0.551   2.916   3.992  0.6116  0.5216  1.2205
 6202TIP3   OH218569   5.788   4.022   1.379  0.1728  0.2802 -0.4669
 6202TIP3    H118570   5.754   3.974   1.454 -0.6391 -0.7671 -1.4749
 6202TIP3    H218571   5.774   4.114   1.401 -0.5554 -0.0369  0.4379
 6203TIP3   OH218572   2.054   0.685   1.585  0.2179  0.0558  0.5709
 6203TIP3    H118573   2.078   0.777   1.593 -0.9687  0.4621 -0.2823
 6203TIP3    H218574   2.114   0.639   1.645  2.3288  1.1066 -0.6288
 6204TIP3   OH218575   0.884   5.531   0.307 -0.2641  0.1236  0.2078
 6204TIP3    H118576   0.883   5.624   0.284 -2.1904  0.1054  0.0524
 6204TIP3    H218577   0.891   5.531   0.403  1.5150  0.3457  0.1166
 6205TIP3   OH218578   5.862   4.365   5.484  0.4882  0.8870 -0.3072
 6205TIP3    H118579   5.877   4.283   5.438  0.7630  1.0665 -0.5409
 6205TIP3    H218580   5.948   4.408   5.486  0.6580  0.5235  1.0706
 6206TIP3   OH218581   5.329   1.327   1.887 -0.1765  0.5844  0.3638
 6206TIP3    H118582   5.411   1.376   1.873  0.8090 -1.3058 -0.8648
 6206TIP3    H218583   5.320   1.273   1.809 -2.9029  1.0822  0.2486
 6207TIP3   OH218584   6.282   2.102   4.431  0.3557 -0.3010 -0.2907
 6207TIP3    H118585   6.304   2.152   4.352  1.2951 -0.1955  0.0238
 6207TIP3    H218586   6.339   2.026   4.428  0.6132 -0.1460  0.4297
 6208TIP3   OH218587   5.415   4.218   0.118  0.3019  0.0920  0.0873
 6208TIP3    H118588   5.412   4.313   0.125  0.2867  0.1641 -0.7375
 6208TIP3    H218589   5.327   4.189   0.143  0.2283  0.3121  0.0821
 6209TIP3   OH218590   3.389   2.327   3.369 -0.1696  0.0287  0.3480
 6209TIP3    H118591   3.411   2.236   3.392  1.1422  0.2904  0.1937
 6209TIP3    H218592   3.455   2.352   3.304 -0.7668  0.9652  0.0921
 6210TIP3   OH218593   6.468   1.217   4.415  0.0824  0.3669  0.5987
 6210TIP3    H118594   6.444   1.286   4.354  0.3650 -0.1348 -0.1020
 6210TIP3    H218595   6.391   1.159   4.418 -0.8911  1.6448  2.6122
 6211TIP3   OH218596   3.291   5.123   2.219 -0.3559 -0.7355  0.5652
 6211TIP3    H118597   3.340   5.184   2.164 -0.3162 -1.8040 -0.6193
 6211TIP3    H218598   3.206   5.165   2.233 -1.0147 -1.1843 -1.7773
 6212TIP3   OH218599   1.690   1.726   0.555 -0.1067  0.0391 -0.1173
 6212TIP3    H118600   1.651   1.813   0.560  0.5630  0.5516 -2.4988
 6212TIP3    H218601   1.623   1.667   0.588 -1.2965  1.2816 -0.2578
 6213TIP3   OH218602   6.439   0.274   1.215 -0.2792  0.0638  0.3623
 6213TIP3    H118603   6.458   0.348   1.157 -1.7746  0.1053 -0.1077
 6213TIP3    H218604   6.350   0.249   1.193  0.2136 -1.9205  0.4964
 6214TIP3   OH218605   6.746   3.854   1.980  0.2199 -0.3355 -0.2846
 6214TIP3    H118606   6.668   3.865   1.927 -0.1144  1.9391  0.5845
 6214TIP3    H218607   6.818   3.850   1.917 -0.4141 -0.5054 -1.0077
 6215TIP3   OH218608   0.801   4.369   3.666  0.6606  0.4720 -0.0449
 6215TIP3    H118609   0.853   4.329   3.597  0.0230 -0.4380 -0.0213
 6215TIP3    H218610   0.759   4.444   3.623  3.4538  2.4636  0.4240
 6216TIP3   OH218611   0.292   1.518   5.512 -0.3649 -0.0742  0.2119
 6216TIP3    H118612   0.299   1.426   5.486 -1.4249  0.0090 -0.4319
 6216TIP3    H218613   0.370   1.559   5.475  1.1345 -1.0337  2.1214
 6217TIP3   OH218614   5.999   2.301   4.619  0.2513  0.0744 -0.0647
 6217TIP3    H118615   5.961   2.231   4.566  0.1898  0.0624 -0.0051
 6217TIP3    H218616   6.094   2.294   4.604  0.2487 -0.0469 -0.0275
 6218TIP3   OH218617   4.951   3.303   3.723 -0.4400 -0.3300 -0.2493
 6218TIP3    H118618   4.967   3.387   3.767 -0.8390 -0.6192  0.4683
 6218TIP3    H218619   5.018   3.244   3.758 -0.4298 -0.4231 -0.4247
 6219TIP3   OH218620   7.113   5.937   5.599 -0.1187 -0.0614 -0.2854
 6219TIP3    H118621   7.198   5.947   5.556  1.0028 -1.3926  1.4433
 6219TIP3    H218622   7.086   5.848   5.578  0.5551 -0.8266  1.7575
 6220TIP3   OH218623   5.804   5.938   5.411 -0.2545  0.5957 -0.1696
 6220TIP3    H118624   5.743   5.865   5.418  0.9910 -0.3579  1.3811
 6220TIP3    H218625   5.858   5.917   5.334  1.2027 -1.0517  1.2326
 6221TIP3   OH218626   5.245   4.398   0.861 -0.2176  0.1975 -0.3322
 6221TIP3    H118627   5.302   4.327   0.889 -0.3906  0.4676  0.7340
 6221TIP3    H218628   5.211   4.435   0.942 -0.5068  1.1892 -0.8895
 6222TIP3   OH218629   1.717   1.784   4.776  0.3591 -0.1599  0.0321
 6222TIP3    H118630   1.678   1.871   4.784 -1.9183 -1.0916 -0.1143
 6222TIP3    H218631   1.720   1.751   4.866  0.5407 -0.1927  0.0134
 6223TIP3   OH218632   5.275   0.782   1.891 -0.2944 -0.1975 -0.4335
 6223TIP3    H118633   5.347   0.822   1.941 -0.8380 -1.3110  1.3384
 6223TIP3    H218634   5.319   0.726   1.827  0.4495 -0.6730  0.4658
 6224TIP3   OH218635   5.150   5.953   5.364  0.1742 -0.0429 -0.4083
 6224TIP3    H118636   5.216   5.949   5.433  1.3836 -0.9594 -1.5649
 6224TIP3    H218637   5.175   5.885   5.303 -1.4944  0.0263 -1.2292
 6225TIP3   OH218638   4.979   0.726   3.670  0.5660  0.7035  0.9113
 6225TIP3    H118639   4.907   0.670   3.641  0.6437  2.0307 -2.2836
 6225TIP3    H218640   5.057   0.673   3.657  0.5893  1.2371 -1.4846
 6226TIP3   OH218641   6.677   0.359   5.288 -0.8841  0.2336  0.3885
 6226TIP3    H118642   6.617   0.392   5.355 -2.8665  1.5601 -1.8992
 6226TIP3    H218643   6.624   0.354   5.208  1.5785 -0.4541 -1.3207
 6227TIP3   OH218644   1.192   2.807   5.874  0.0234  0.3238 -0.0488
 6227TIP3    H118645   1.266   2.753   5.845 -0.0029 -0.2351  0.8795
 6227TIP3    H218646   1.119   2.778   5.820  0.4093  0.7068 -0.8021
 6228TIP3   OH218647   2.973   0.481   3.321  0.1977  0.2133  0.1038
 6228TIP3    H118648   2.909   0.506   3.388 -1.7312  0.7166 -1.7875
 6228TIP3    H218649   3.014   0.402   3.355 -2.0505 -0.6196  1.0959
 6229TIP3   OH218650   0.468   1.282   1.826  0.1273  0.1594  0.5378
 6229TIP3    H118651   0.545   1.321   1.867  0.6416  0.9451 -1.1073
 6229TIP3    H218652   0.400   1.349   1.833  0.1465  0.2016  0.3184
 6230TIP3   OH218653   4.421   2.041   0.825 -0.3054 -0.6346  0.0718
 6230TIP3    H118654   4.367   2.053   0.747  1.4005  0.7545 -0.9957
 6230TIP3    H218655   4.447   2.129   0.850  0.9942 -1.2088  0.8723
 6231TIP3   OH218656   0.911   3.219   4.546 -0.2174 -0.5643  0.2270
 6231TIP3    H118657   0.970   3.147   4.525 -0.2576 -0.6163  0.2940
 6231TIP3    H218658   0.827   3.177   4.567 -0.4047 -0.4662 -0.3149
 6232TIP3   OH218659   3.507   6.407   4.214 -0.4070  0.4035 -0.0838
 6232TIP3    H118660   3.586   6.460   4.202 -0.3000 -0.0260 -1.4511
 6232TIP3    H218661   3.492   6.367   4.129 -2.1852  0.5815  0.0988
 6233TIP3   OH218662   1.355   6.367   1.084 -0.2827 -0.3587 -0.2364
 6233TIP3    H118663   1.409   6.444   1.104  0.9746 -1.1396 -0.5945
 6233TIP3    H218664   1.329   6.379   0.993 -0.7160 -0.0014 -0.0739
 6234TIP3   OH218665   3.191   1.908   5.185 -0.0096 -0.3111 -0.3292
 6234TIP3    H118666   3.253   1.977   5.162 -1.3220  0.7128 -0.9645
 6234TIP3    H218667   3.207   1.890   5.277  0.4739  0.7191 -0.2083
 6235TIP3   OH218668   2.031   5.170   3.369  0.2271  0.2675 -0.4166
 6235TIP3    H118669   1.992   5.240   3.422  0.0845  0.6295 -0.9924
 6235TIP3    H218670   1.956   5.122   3.334  0.3142 -0.9323  0.9339
 6236TIP3   OH218671   6.755   0.494   0.672  0.0810  0.0700 -0.0370
 6236TIP3    H118672   6.699   0.556   0.718 -0.0473  0.3919 -0.6154
 6236TIP3    H218673   6.773   0.425   0.736  1.5801  1.5110  1.1582
 6237TIP3   OH218674   2.976   4.823   0.302  0.5003  0.0835 -0.5077
 6237TIP3    H118675   2.957   4.886   0.371  1.9350 -0.5071  0.4709
 6237TIP3    H218676   3.050   4.773   0.335  0.0335 -1.4613 -1.6877
 6238TIP3   OH218677   2.959   5.149   3.541  0.1141  0.4345  0.6483
 6238TIP3    H118678   3.015   5.131   3.466 -0.6759 -1.1752  0.4071
 6238TIP3    H218679   2.873   5.169   3.503 -0.5966 -1.5282  1.0787
 6239TIP3   OH218680   2.093   3.781   1.632 -0.3947  0.1126  0.0891
 6239TIP3    H118681   2.161   3.753   1.693 -0.8138  0.4250  0.7194
 6239TIP3    H218682   2.057   3.699   1.597 -0.5820 -0.1053  0.7614
 6240TIP3   OH218683   6.343   3.183   4.516 -0.8209  0.5727  0.1164
 6240TIP3    H118684   6.272   3.190   4.580 -1.3773  0.1399 -0.4381
 6240TIP3    H218685   6.411   3.131   4.561 -2.1483 -1.7813 -0.3991
 6241TIP3   OH218686   6.964   4.352   0.603  0.1387 -0.0786  0.0709
 6241TIP3    H118687   7.020   4.275   0.602  1.1503  0.6305 -1.5372
 6241TIP3    H218688   6.877   4.319   0.579  0.6302 -0.6795 -0.9356
 6242TIP3   OH218689   5.033   3.622   3.634  0.0408  0.2615 -0.1933
 6242TIP3    H118690   5.009   3.606   3.725  1.6612 -0.4738  0.1488
 6242TIP3    H218691   4.951   3.644   3.591 -1.1891 -1.7986  0.9327
 6243TIP3   OH218692   1.608   2.270   4.433 -0.1295  0.3670  0.8139
 6243TIP3    H118693   1.571   2.355   4.411 -0.3894  0.0199 -0.1183
 6243TIP3    H218694   1.535   2.220   4.470 -1.1282 -0.8919 -2.5379
 6244TIP3   OH218695   1.327   6.558   3.486 -0.2613  0.2992  0.0397
 6244TIP3    H118696   1.422   6.568   3.499  0.0488  0.4983 -2.0209
 6244TIP3    H218697   1.302   6.490   3.548  1.3418 -0.1364  0.2688
 6245TIP3   OH218698   1.721   1.650   0.282 -0.1226  0.3751 -0.4214
 6245TIP3    H118699   1.638   1.674   0.240  0.0207  2.7816  0.5306
 6245TIP3    H218700   1.697   1.633   0.373  0.2688 -0.1039 -0.4072
 6246TIP3   OH218701   4.314   4.065   3.343  0.6153  0.0486 -0.0697
 6246TIP3    H118702   4.269   3.985   3.369  0.3721  0.7949  2.0313
 6246TIP3    H218703   4.255   4.135   3.370  1.2755  0.9643 -0.9326
 6247TIP3   OH218704   3.614   5.345   4.048 -0.1509 -0.2086 -0.4049
 6247TIP3    H118705   3.563   5.297   4.113  0.0373  0.9411  0.6074
 6247TIP3    H218706   3.693   5.372   4.094 -0.4081  1.3833 -0.8396
 6248TIP3   OH218707   6.070   2.973   5.214  0.3023  0.2735 -0.0269
 6248TIP3    H118708   6.014   2.917   5.267 -0.6797  2.5419  1.4923
 6248TIP3    H218709   6.038   2.962   5.124 -1.0604 -0.2135  0.4932
 6249TIP3   OH218710   1.055   2.106   2.609  0.6491  0.3002  0.1437
 6249TIP3    H118711   1.144   2.093   2.639  1.0053  1.8239 -0.1481
 6249TIP3    H218712   1.060   2.100   2.514  0.2822 -0.4217  0.1641
 6250TIP3   OH218713   6.106   5.466   3.800  0.0426 -0.0411  0.5889
 6250TIP3    H118714   6.135   5.426   3.718 -1.0434 -0.6617  0.4913
 6250TIP3    H218715   6.028   5.417   3.825 -1.4490  2.0889  0.3877
 6251TIP3   OH218716   1.161   4.320   5.426 -0.2423  0.1708 -0.9576
 6251TIP3    H118717   1.180   4.414   5.421 -0.6082  0.3720  0.8294
 6251TIP3    H218718   1.067   4.314   5.411 -0.6598  0.3877  1.2262
 6252TIP3   OH218719   4.647   5.261   2.881 -0.3628  0.4557 -0.0588
 6252TIP3    H118720   4.636   5.292   2.791 -0.9683  0.2647 -0.0557
 6252TIP3    H218721   4.701   5.182   2.872 -1.8651 -0.5731 -0.4557
 6253TIP3   OH218722   2.730   1.017   5.736  0.4419 -0.0947 -0.2456
 6253TIP3    H118723   2.670   1.029   5.662 -0.6837  2.6563  0.9821
 6253TIP3    H218724   2.715   0.927   5.765 -0.3962 -0.6432 -2.2261
 6254TIP3   OH218725   1.803   5.829   3.157 -0.2290  0.6246  0.6391
 6254TIP3    H118726   1.769   5.853   3.071  1.2519  2.0723  0.3955
 6254TIP3    H218727   1.879   5.774   3.139 -1.4076 -1.2392  1.1250
 6255TIP3   OH218728   5.537   3.918   2.541  0.0708 -0.7508  0.2556
 6255TIP3    H118729   5.447   3.948   2.533  0.1213 -0.7060 -0.2165
 6255TIP3    H218730   5.551   3.865   2.462 -0.4520 -3.1650  1.6795
 6256TIP3   OH218731   3.557   2.787   5.062  0.8089  0.2252 -0.4086
 6256TIP3    H118732   3.581   2.865   5.012 -0.7134  1.4032  0.6035
 6256TIP3    H218733   3.526   2.821   5.146  0.7392 -1.5285  0.3172
 6257TIP3   OH218734   2.750   3.004   1.612  0.5702 -0.0880 -0.1220
 6257TIP3    H118735   2.787   2.960   1.689 -0.5249 -0.4575  0.2058
 6257TIP3    H218736   2.783   2.955   1.537 -0.4376 -1.3467  0.2300
 6258TIP3   OH218737   0.739   6.165   1.520  0.5757 -0.5928 -0.4020
 6258TIP3    H118738   0.678   6.146   1.449  0.1192  1.2503 -0.5438
 6258TIP3    H218739   0.715   6.102   1.589 -0.1731 -1.1986 -1.1845
 6259TIP3   OH218740   5.645   4.222   3.724  0.3652 -0.9110 -0.1061
 6259TIP3    H118741   5.722   4.215   3.781  1.2460  0.7349 -1.0238
 6259TIP3    H218742   5.680   4.221   3.635 -0.3868  2.0109 -0.5399
 6260TIP3   OH218743   2.133   4.301   0.468 -0.1307  0.5272  0.9726
 6260TIP3    H118744   2.139   4.378   0.410  1.4215 -1.4053 -1.6634
 6260TIP3    H218745   2.088   4.235   0.416  0.8546 -1.1641  2.1544
 6261TIP3   OH218746   2.093   2.083   1.224 -0.2683 -0.0411  0.0077
 6261TIP3    H118747   2.126   2.148   1.286  0.2889 -0.3527  0.0508
 6261TIP3    H218748   2.010   2.054   1.260 -0.0159 -0.1144  0.5387
 6262TIP3   OH218749   4.096   5.506   0.203  0.2595 -0.6602 -0.0354
 6262TIP3    H118750   4.004   5.491   0.223 -0.3583 -0.0288 -2.2033
 6262TIP3    H218751   4.105   5.601   0.196  1.7936 -0.4439  3.0169
 6263TIP3   OH218752   4.627   2.766   3.272  0.2043 -0.3415  0.5418
 6263TIP3    H118753   4.714   2.729   3.288 -0.0112 -0.9040  0.4329
 6263TIP3    H218754   4.573   2.690   3.249 -0.1852  0.0715  0.0758
 6264TIP3   OH218755   5.138   1.848   0.134  0.5622 -0.2311 -0.6436
 6264TIP3    H118756   5.063   1.842   0.075 -0.1113  0.5287  0.0991
 6264TIP3    H218757   5.138   1.764   0.180 -2.2977  1.0740  2.1437
 6265TIP3   OH218758   3.094   1.469   0.210 -0.0521  0.3541 -0.2740
 6265TIP3    H118759   3.049   1.390   0.182  0.1599  0.1175  0.0451
 6265TIP3    H218760   3.179   1.465   0.166 -0.2027  0.6170 -0.5904
 6266TIP3   OH218761   1.672   1.280   4.009 -0.7548 -0.2650 -0.0910
 6266TIP3    H118762   1.685   1.353   4.071 -0.4769 -0.9036  0.6163
 6266TIP3    H218763   1.759   1.242   3.999 -0.5536  0.5549 -1.8267
 6267TIP3   OH218764   4.302   1.735   3.618 -0.0920 -0.2388  0.3693
 6267TIP3    H118765   4.354   1.679   3.560 -0.3850  0.1147 -0.2386
 6267TIP3    H218766   4.218   1.690   3.627 -0.5260  0.3717 -0.5659
 6268TIP3   OH218767   4.929   1.230   0.420  0.2565 -0.3782  0.1799
 6268TIP3    H118768   4.990   1.233   0.346  1.1855  0.9492  0.9639
 6268TIP3    H218769   4.965   1.292   0.484 -0.8849 -0.9967  1.4755
 6269TIP3   OH218770   2.453   0.765   5.738 -0.1219 -0.0473  0.0806
 6269TIP3    H118771   2.547   0.752   5.743  0.1806  0.4123 -2.7910
 6269TIP3    H218772   2.415   0.686   5.776  1.4338 -0.8601 -0.0062
 6270TIP3   OH218773   0.095   1.893   0.390 -0.5539  0.4422  0.3930
 6270TIP3    H118774   0.118   1.977   0.350  0.1324 -0.5821 -1.4754
 6270TIP3    H218775   0.145   1.828   0.341 -1.5311 -1.1381  1.3897
 6271TIP3   OH218776   2.322   6.555   4.565 -0.7084  0.0450  0.6701
 6271TIP3    H118777   2.276   6.610   4.501 -0.0404  0.8923  0.9020
 6271TIP3    H218778   2.373   6.494   4.512  0.4986  1.2830  0.3456
 6272TIP3   OH218779   2.889   5.497   3.905 -0.1706 -0.1310  0.2146
 6272TIP3    H118780   2.833   5.485   3.829 -1.9192 -1.7230  1.6508
 6272TIP3    H218781   2.829   5.502   3.979  1.4832  0.7633  1.5913
 6273TIP3   OH218782   2.998   1.584   2.975  0.3447 -0.0078 -0.1449
 6273TIP3    H118783   2.907   1.568   2.951 -0.0558 -1.0337  1.8006
 6273TIP3    H218784   3.015   1.522   3.046  2.4019  0.5320 -0.1052
 6274TIP3   OH218785   7.167   6.245   1.033  0.1238  0.0407  0.2747
 6274TIP3    H118786   7.149   6.318   0.973 -0.7795 -0.8656 -0.6034
 6274TIP3    H218787   7.198   6.287   1.113 -2.2743  1.5400  0.5183
 6275TIP3   OH218788   0.874   5.350   3.636 -0.2645  0.1833  0.0167
 6275TIP3    H118789   0.913   5.340   3.549 -0.0550  1.3985 -0.0467
 6275TIP3    H218790   0.947   5.337   3.696 -0.5491 -1.4091  0.0766
 6276TIP3   OH218791   5.462   5.972   3.790 -0.0185 -0.5261  0.1355
 6276TIP3    H118792   5.456   5.919   3.711 -0.3820 -1.3905  0.7326
 6276TIP3    H218793   5.373   6.003   3.805 -0.1748 -1.2785  0.8155
 6277TIP3   OH218794   1.692   1.696   1.120  0.2094 -0.3392 -0.0599
 6277TIP3    H118795   1.716   1.651   1.201 -0.0921  0.8421  0.7056
 6277TIP3    H218796   1.759   1.763   1.108 -1.0951  1.1609  0.6124
 6278TIP3   OH218797   4.450   2.355   2.638 -0.2479 -0.0626 -0.1719
 6278TIP3    H118798   4.447   2.260   2.630 -0.1559 -0.1270  0.5115
 6278TIP3    H218799   4.421   2.387   2.553  0.5412 -0.7009 -0.6914
 6279TIP3   OH218800   2.012   6.443   3.004  0.5174  0.1111 -0.0677
 6279TIP3    H118801   2.061   6.379   3.056  2.7144  1.7626  0.0242
 6279TIP3    H218802   1.970   6.499   3.069  2.5116  1.6107  0.0121
 6280TIP3   OH218803   5.840   1.002   2.376  0.1266  0.1712 -0.1146
 6280TIP3    H118804   5.884   0.984   2.293  1.0852 -0.4365  0.5010
 6280TIP3    H218805   5.861   0.926   2.431 -0.8744  0.3434  0.5363
 6281TIP3   OH218806   1.908   6.495   0.604 -0.5200  0.1514  0.2285
 6281TIP3    H118807   1.886   6.416   0.655 -1.5353  0.9616  1.0960
 6281TIP3    H218808   1.940   6.461   0.521  0.5063 -1.2122  1.1286
 6282TIP3   OH218809   0.761   5.010   4.007 -0.2566 -0.0654  0.1835
 6282TIP3    H118810   0.851   5.005   4.040  0.5864  0.3306 -1.9079
 6282TIP3    H218811   0.741   5.103   4.007 -0.6054 -0.1402  0.4764
 6283TIP3   OH218812   1.560   3.256   1.463 -0.1994 -0.1371  0.0930
 6283TIP3    H118813   1.500   3.294   1.399 -0.1437 -0.8343 -0.3975
 6283TIP3    H218814   1.522   3.170   1.483  0.7442 -0.6880 -0.4106
 6284TIP3   OH218815   4.574   6.127   5.622  0.1935 -0.2590 -0.0519
 6284TIP3    H118816   4.669   6.116   5.625  0.0872 -1.4845 -0.4939
 6284TIP3    H218817   4.543   6.053   5.569 -1.1311 -0.7043  1.2604
 6285TIP3   OH218818   3.521   3.723   4.393  0.5969  0.0544 -0.3456
 6285TIP3    H118819   3.444   3.677   4.359  1.2189 -0.6216 -0.9124
 6285TIP3    H218820   3.587   3.711   4.324  1.8003 -1.0528  0.9279
 6286TIP3   OH218821   7.195   4.068   4.449 -0.1847  0.2402  0.2214
 6286TIP3    H118822   7.229   4.131   4.386  1.6593 -1.0831 -0.1836
 6286TIP3    H218823   7.149   4.122   4.514 -0.6282  1.7744 -1.2955
 6287TIP3   OH218824   1.832   4.825   0.318 -0.3540 -0.4063  0.1726
 6287TIP3    H118825   1.839   4.850   0.226  0.2269 -0.5657  0.1692
 6287TIP3    H218826   1.862   4.734   0.320  0.4003 -0.1496  0.6429
 6288TIP3   OH218827   5.287   1.349   0.925 -0.2852  0.2891 -0.0306
 6288TIP3    H118828   5.336   1.337   1.007 -0.9440  0.8708  0.4629
 6288TIP3    H218829   5.346   1.399   0.869 -0.5242  1.5125  0.7796
 6289TIP3   OH218830   2.787   3.064   4.157  0.8488  0.1924  0.2276
 6289TIP3    H118831   2.832   3.081   4.075 -0.6009  0.3378 -0.5693
 6289TIP3    H218832   2.737   3.143   4.175 -0.5664 -0.6308  0.0829
 6290TIP3   OH218833   1.943   3.710   4.604  0.3321  0.2758  0.1321
 6290TIP3    H118834   2.012   3.645   4.597  0.6859  0.6307  0.2887
 6290TIP3    H218835   1.982   3.791   4.573 -0.2196  0.3408 -0.4150
 6291TIP3   OH218836   0.909   1.571   0.305 -0.0028  0.0672 -0.0355
 6291TIP3    H118837   0.957   1.622   0.239  0.7641 -0.9943 -0.3144
 6291TIP3    H218838   0.880   1.637   0.368  3.1237  0.6260  0.9904
 6292TIP3   OH218839   1.684   2.436   4.138  0.1194 -0.0922  0.5552
 6292TIP3    H118840   1.660   2.343   4.140 -2.3294  0.4621  0.3857
 6292TIP3    H218841   1.644   2.473   4.216  0.3220  0.9764  0.1775
 6293TIP3   OH218842   4.900   5.969   2.221 -0.0305  0.2260 -0.0612
 6293TIP3    H118843   4.954   5.893   2.199  0.3189  0.7687 -1.1569
 6293TIP3    H218844   4.952   6.044   2.192 -0.0301  0.9526  1.7015
 6294TIP3   OH218845   5.813   4.447   0.078  0.2233 -0.0625  0.0241
 6294TIP3    H118846   5.773   4.370   0.119 -0.1931 -0.2338 -0.6842
 6294TIP3    H218847   5.782   4.521   0.130  0.9414 -0.4019  0.9461
 6295TIP3   OH218848   2.326   1.110   2.132 -0.5104  0.3425  0.7797
 6295TIP3    H118849   2.293   1.170   2.065 -0.4221 -2.0075 -1.5170
 6295TIP3    H218850   2.250   1.056   2.156  0.4265 -1.9669 -1.0576
 6296TIP3   OH218851   0.240   1.081   1.188  0.0204 -0.1592 -0.7557
 6296TIP3    H118852   0.293   1.119   1.258 -0.4507 -1.0142  0.0956
 6296TIP3    H218853   0.291   1.095   1.108  0.1806  1.5907 -0.3846
 6297TIP3   OH218854   3.706   4.769   3.128  0.4549 -0.0663  0.2910
 6297TIP3    H118855   3.760   4.696   3.097 -0.7393 -0.6410 -0.4993
 6297TIP3    H218856   3.624   4.761   3.079  0.4368  2.0576 -0.1577
 6298TIP3   OH218857   5.758   1.731   5.814  0.4928 -0.1921 -0.7457
 6298TIP3    H118858   5.828   1.667   5.827  1.6284  1.0043 -0.7612
 6298TIP3    H218859   5.732   1.756   5.903  0.6930 -0.0060 -0.7382
 6299TIP3   OH218860   1.263   0.907   2.145 -0.0911 -1.0766 -0.5374
 6299TIP3    H118861   1.295   0.872   2.062 -1.7696  0.2524 -1.8179
 6299TIP3    H218862   1.168   0.910   2.136 -0.2755 -0.1218  1.1134
 6300TIP3   OH218863   7.020   5.812   1.781 -0.5716 -0.9956 -0.5219
 6300TIP3    H118864   7.091   5.863   1.742 -0.5050 -1.6000 -1.2376
 6300TIP3    H218865   6.961   5.877   1.818 -0.2481 -0.4219 -0.9882
 6301TIP3   OH218866   6.962   3.268   0.548 -0.1540  0.1084  0.0055
 6301TIP3    H118867   6.944   3.357   0.518 -1.3477  0.3415  1.3049
 6301TIP3    H218868   7.038   3.278   0.605  0.1788  0.1662 -0.4426
 6302TIP3   OH218869   1.055   3.904   1.680  0.0357  0.0680 -0.5066
 6302TIP3    H118870   0.998   3.845   1.729 -1.5915  1.2608 -0.8876
 6302TIP3    H218871   1.063   3.864   1.593 -0.9978  0.3616 -0.7409
 6303TIP3   OH218872   6.200   2.971   5.632  0.2140  0.3383 -0.2631
 6303TIP3    H118873   6.293   2.970   5.654  0.7278 -0.7610 -2.2620
 6303TIP3    H218874   6.156   2.981   5.717  2.0848 -0.8058  0.9304
 6304TIP3   OH218875   4.143   5.903   3.877 -0.4903 -0.1480  0.3821
 6304TIP3    H118876   4.160   5.888   3.970  5.3066 -3.7120 -0.6941
 6304TIP3    H218877   4.087   5.830   3.851 -0.4476 -0.3102  0.7386
 6305TIP3   OH218878   5.861   2.152   1.306 -0.0154  0.3174  0.0652
 6305TIP3    H118879   5.888   2.207   1.233  1.0954 -0.0677  0.1603
 6305TIP3    H218880   5.941   2.105   1.332 -0.8713 -1.1820  0.1226
 6306TIP3   OH218881   0.977   6.243   5.586  0.1842  0.2182 -0.0724
 6306TIP3    H118882   0.986   6.187   5.508  0.9378 -0.4853  0.5091
 6306TIP3    H218883   0.884   6.267   5.587 -0.5721 -2.3472  0.5355
 6307TIP3   OH218884   4.449   4.055   2.441  0.3981  0.0679 -0.9307
 6307TIP3    H118885   4.375   4.062   2.502  1.9693  2.8713  0.8756
 6307TIP3    H218886   4.412   4.080   2.356 -0.8468  1.0289 -0.1503
 6308TIP3   OH218887   1.272   0.475   2.937 -0.3859 -0.3000 -0.3213
 6308TIP3    H118888   1.269   0.552   2.879  0.5550  0.1100  0.1514
 6308TIP3    H218889   1.188   0.432   2.923  0.4545 -1.2434 -3.3727
 6309TIP3   OH218890   2.355   3.201   5.484  0.3255 -0.1585 -0.0458
 6309TIP3    H118891   2.402   3.279   5.454 -1.9737  0.7204 -1.6760
 6309TIP3    H218892   2.342   3.215   5.578  1.1836  0.7194 -0.0445
 6310TIP3   OH218893   1.153   6.799   4.359  0.6982  0.2677 -0.4468
 6310TIP3    H118894   1.158   6.753   4.276  0.4517 -1.6358  0.5249
 6310TIP3    H218895   1.239   6.837   4.372  1.0155 -0.2066 -1.1462
 6311TIP3   OH218896   6.049   3.246   2.143 -0.3694 -0.8797 -1.4443
 6311TIP3    H118897   6.024   3.181   2.079 -0.7662 -1.7889 -0.3999
 6311TIP3    H218898   6.128   3.287   2.107  0.1114 -2.1984 -1.9457
 6312TIP3   OH218899   1.579   3.710   1.543 -0.0634  0.5383  0.2662
 6312TIP3    H118900   1.637   3.634   1.539 -0.2397  0.3889  0.5450
 6312TIP3    H218901   1.626   3.774   1.595  0.1139  0.6462 -0.0239
 6313TIP3   OH218902   3.310   2.887   2.588  0.1802  0.2667  0.1700
 6313TIP3    H118903   3.303   2.964   2.533 -1.5951 -0.7221 -1.1263
 6313TIP3    H218904   3.360   2.824   2.536  0.7252  0.1853  0.7802
 6314TIP3   OH218905   3.746   3.643   3.301 -0.5233  0.5335  0.0484
 6314TIP3    H118906   3.771   3.707   3.368 -0.4171 -0.3087  0.8385
 6314TIP3    H218907   3.796   3.669   3.224  2.3373 -0.6157  1.3492
 6315TIP3   OH218908   4.409   4.779   1.308  0.2605 -0.5829 -0.4584
 6315TIP3    H118909   4.401   4.683   1.308 -0.7009 -0.5154 -0.0150
 6315TIP3    H218910   4.356   4.808   1.234  0.3372 -0.3851 -0.4370
 6316TIP3   OH218911   6.565   2.841   3.958 -0.3559 -0.2841  0.3292
 6316TIP3    H118912   6.631   2.827   4.026 -1.0883  1.6765  1.5294
 6316TIP3    H218913   6.610   2.891   3.890 -0.1569 -0.4864  0.3109
 6317TIP3   OH218914   3.564   1.808   5.324 -0.4262 -0.0716 -0.0977
 6317TIP3    H118915   3.618   1.861   5.266  0.5863 -0.8851  0.0475
 6317TIP3    H218916   3.628   1.755   5.373 -1.1735  0.9762  2.1780
 6318TIP3   OH218917   3.044   4.141   2.148  0.0982 -0.1974  0.2008
 6318TIP3    H118918   3.068   4.111   2.236  1.9609  0.4003 -0.0546
 6318TIP3    H218919   3.097   4.088   2.089 -0.3881  0.0910 -0.5113
 6319TIP3   OH218920   3.891   3.382   3.238  0.0729  0.3667 -0.3424
 6319TIP3    H118921   3.976   3.419   3.213 -0.5434  0.5349 -2.3914
 6319TIP3    H218922   3.851   3.450   3.292  0.4178  1.1862 -1.0902
 6320TIP3   OH218923   3.598   5.558   2.559  0.0885 -0.0959  0.0735
 6320TIP3    H118924   3.662   5.491   2.538  2.1369  2.5045 -2.8995
 6320TIP3    H218925   3.530   5.548   2.491 -0.4447 -0.1411  0.6041
 6321TIP3   OH218926   6.618   6.112   4.204 -0.0083  0.3901 -0.5039
 6321TIP3    H118927   6.618   6.206   4.219  1.1369  0.0468  2.2109
 6321TIP3    H218928   6.690   6.079   4.257 -0.1260 -2.0084 -1.6696
 6322TIP3   OH218929   6.571   6.442   2.910 -0.0152 -0.6326  0.3219
 6322TIP3    H118930   6.659   6.450   2.948  0.3019 -0.6351 -0.3973
 6322TIP3    H218931   6.520   6.511   2.952 -0.2146 -1.8344  2.2002
 6323TIP3   OH218932   5.897   3.817   0.291 -0.0790 -0.0620 -0.3657
 6323TIP3    H118933   5.811   3.799   0.328  0.3789 -0.3548  0.6072
 6323TIP3    H218934   5.897   3.772   0.207 -0.4462 -1.1403  0.1822
 6324TIP3   OH218935   0.987   2.581   4.271 -0.1019  0.3568  0.0563
 6324TIP3    H118936   0.902   2.583   4.315 -0.7384 -0.2384 -1.0941
 6324TIP3    H218937   1.024   2.496   4.295 -0.7286 -0.2385 -1.0371
 6325TIP3   OH218938   5.674   4.674   1.618 -0.1474  0.1834 -0.7988
 6325TIP3    H118939   5.584   4.685   1.588 -0.1224  0.2932 -0.8364
 6325TIP3    H218940   5.725   4.671   1.537 -0.0834  0.4407 -0.7683
 6326TIP3   OH218941   6.437   2.614   5.339  0.7503 -0.3995 -0.5132
 6326TIP3    H118942   6.503   2.682   5.325  0.8672 -0.6938 -1.4611
 6326TIP3    H218943   6.354   2.661   5.344  1.0723  0.0334  1.3026
 6327TIP3   OH218944   4.691   4.552   4.312  0.1237 -0.1053  0.1902
 6327TIP3    H118945   4.642   4.582   4.236 -0.8378 -2.3598 -0.1515
 6327TIP3    H218946   4.776   4.594   4.304 -0.3220  0.5439 -1.5526
 6328TIP3   OH218947   1.047   0.395   0.136 -0.0620 -0.3823  0.0541
 6328TIP3    H118948   1.136   0.371   0.162 -0.0025  0.2915  0.4720
 6328TIP3    H218949   1.021   0.463   0.197 -1.5711 -1.8428  1.1266
 6329TIP3   OH218950   1.259   1.522   1.544  0.5277  0.2704  0.1539
 6329TIP3    H118951   1.206   1.594   1.577  0.7651  0.8311 -0.6503
 6329TIP3    H218952   1.334   1.564   1.501  1.0291 -0.4737  0.2700
 6330TIP3   OH218953   6.935   1.769   0.429 -0.6008 -0.2271  0.0872
 6330TIP3    H118954   6.893   1.694   0.388  0.3235 -0.3923 -0.5845
 6330TIP3    H218955   6.913   1.762   0.522 -0.2793 -1.4861  0.0792
 6331TIP3   OH218956   1.961   0.682   3.233 -0.2640  0.1686  0.5048
 6331TIP3    H118957   1.958   0.588   3.250 -3.0569  0.4267  1.8175
 6331TIP3    H218958   1.891   0.698   3.169  1.4761  1.1423 -1.2944
 6332TIP3   OH218959   1.351   0.628   3.155 -0.2976 -0.0712  0.1798
 6332TIP3    H118960   1.283   0.657   3.215 -0.6698 -0.0692 -0.2397
 6332TIP3    H218961   1.306   0.570   3.094 -0.1579  0.7884 -0.7662
 6333TIP3   OH218962   1.382   1.115   1.053  0.7173 -0.3123 -0.2370
 6333TIP3    H118963   1.333   1.192   1.083  0.2237 -0.8045  0.2412
 6333TIP3    H218964   1.337   1.088   0.972 -1.1846 -1.9975  1.2576
 6334TIP3   OH218965   2.808   1.571   4.664 -0.0368  0.2849 -0.2464
 6334TIP3    H118966   2.800   1.506   4.594 -0.9659 -0.0405  0.1444
 6334TIP3    H218967   2.872   1.532   4.724 -0.6359 -0.3238  0.0202
 6335TIP3   OH218968   6.903   2.972   4.929 -0.3175 -0.4842 -0.1352
 6335TIP3    H118969   6.950   2.891   4.945  1.4084 -0.0171 -2.3472
 6335TIP3    H218970   6.964   3.041   4.955 -1.8609  0.2094  2.0007
 6336TIP3   OH218971   4.335   3.903   5.448  0.5617 -0.0444  0.1793
 6336TIP3    H118972   4.414   3.953   5.468  0.3546  0.5775 -0.5225
 6336TIP3    H218973   4.263   3.959   5.477  0.3568 -0.4746  0.5262
 6337TIP3   OH218974   4.567   4.447   5.298  0.5451  0.0551  0.6566
 6337TIP3    H118975   4.642   4.426   5.354  0.2454  0.9111  1.4037
 6337TIP3    H218976   4.492   4.404   5.341  0.2356  1.0913  1.2073
 6338TIP3   OH218977   4.994   1.244   2.169 -0.3117  0.3714  0.4386
 6338TIP3    H118978   4.930   1.263   2.100 -0.3916 -0.0810  0.3848
 6338TIP3    H218979   4.950   1.179   2.225 -0.1025  0.4564  0.7009
 6339TIP3   OH218980   6.619   3.879   2.773  0.0070 -0.3593 -0.1019
 6339TIP3    H118981   6.692   3.932   2.741  1.2881 -0.9393  1.6933
 6339TIP3    H218982   6.572   3.937   2.833 -0.3020 -0.3578 -0.3455
 6340TIP3   OH218983   0.203   1.973   4.744  0.6081  0.1642  0.3914
 6340TIP3    H118984   0.193   2.068   4.747  0.0647  0.1113  0.1874
 6340TIP3    H218985   0.136   1.943   4.683  0.3904 -0.4091  0.9104
 6341TIP3   OH218986   6.764   6.186   2.874 -0.4283  0.4336 -0.0187
 6341TIP3    H118987   6.682   6.145   2.846 -0.3731  0.9207 -0.9396
 6341TIP3    H218988   6.785   6.248   2.804  0.2490  0.9781  0.6441
 6342TIP3   OH218989   0.697   6.152   0.153 -0.1865  0.0007  0.7807
 6342TIP3    H118990   0.651   6.180   0.074 -0.4420 -1.1381  0.5071
 6342TIP3    H218991   0.627   6.128   0.214  0.0247 -1.1799  0.5732
 6343TIP3   OH218992   6.518   6.325   5.748  1.0713 -0.5514 -0.3767
 6343TIP3    H118993   6.602   6.292   5.716 -0.2962 -2.4682 -2.2438
 6343TIP3    H218994   6.470   6.247   5.776 -0.3755  0.4192 -0.0354
 6344TIP3   OH218995   2.628   3.076   4.907 -0.0724  0.0416  0.1547
 6344TIP3    H118996   2.544   3.089   4.864  0.5859 -1.8186 -1.8872
 6344TIP3    H218997   2.685   3.038   4.839  2.1943  0.5181  1.6603
 6345TIP3   OH218998   2.373   0.175   1.522  0.1689 -0.3466 -0.2832
 6345TIP3    H118999   2.410   0.167   1.434  0.9044  0.4861 -0.0671
 6345TIP3    H219000   2.447   0.204   1.576 -0.5979  0.5449  0.3228
 6346TIP3   OH219001   6.933   6.605   0.042 -0.0345  0.3123 -0.4597
 6346TIP3    H119002   6.944   6.683   0.097 -1.5309 -0.2603  0.7164
 6346TIP3    H219003   7.005   6.610  -0.021  0.6369  1.9779  0.3756
 6347TIP3   OH219004   5.854   0.554   3.323  0.2066 -0.6827 -0.2182
 6347TIP3    H119005   5.893   0.505   3.395 -0.6140  0.0314  0.7208
 6347TIP3    H219006   5.808   0.627   3.364  0.3739  0.1944 -1.5126
 6348TIP3   OH219007   1.460   4.718   1.420  0.6816  0.1326  0.4873
 6348TIP3    H119008   1.387   4.681   1.371 -0.1317 -0.1720  1.8938
 6348TIP3    H219009   1.424   4.797   1.460  1.0814 -0.0993  1.3091
 6349TIP3   OH219010   5.598   4.792   3.064  0.0487  0.1342 -0.3351
 6349TIP3    H119011   5.666   4.836   3.013  0.6106 -1.2553 -0.8384
 6349TIP3    H219012   5.611   4.825   3.153  0.6536  0.7329 -0.6275
 6350TIP3   OH219013   3.498   3.367   0.143  0.2737  0.2700 -0.0868
 6350TIP3    H119014   3.499   3.399   0.053 -1.1159  0.0405 -0.2117
 6350TIP3    H219015   3.415   3.318   0.150  1.8483 -2.5835  0.3177
 6351TIP3   OH219016   1.322   4.668   4.065 -0.2763  0.6841  0.3836
 6351TIP3    H119017   1.301   4.575   4.073  0.7115  0.4607  0.4116
 6351TIP3    H219018   1.379   4.673   3.988  1.2828  0.9822  1.5212
 6352TIP3   OH219019   2.302   5.809   3.968  0.2324 -0.1400 -0.7630
 6352TIP3    H119020   2.268   5.800   3.879 -2.2506 -0.5982  0.1667
 6352TIP3    H219021   2.267   5.893   3.998  2.3209  0.7594 -0.6845
 6353TIP3   OH219022   4.454   2.460   1.991 -0.1852 -0.5646  0.2612
 6353TIP3    H119023   4.525   2.465   1.928 -1.6258 -2.4286 -1.6256
 6353TIP3    H219024   4.389   2.523   1.958 -0.2835 -0.3737  0.8096
 6354TIP3   OH219025   1.309   4.294   3.899 -0.0129 -1.2049 -0.4089
 6354TIP3    H119026   1.402   4.316   3.895 -0.3628  0.2104 -1.4850
 6354TIP3    H219027   1.298   4.253   3.985  0.9909  1.7185  1.2661
 6355TIP3   OH219028   1.767   1.832   5.082  0.0403 -0.1264  0.2818
 6355TIP3    H119029   1.836   1.838   5.149 -0.9170 -1.5138  1.4533
 6355TIP3    H219030   1.687   1.812   5.131 -0.7842 -0.7087 -1.2311
 6356TIP3   OH219031   3.772   5.664   3.756  0.1267  0.4584 -0.0249
 6356TIP3    H119032   3.761   5.751   3.795 -1.5602  0.8780 -1.2859
 6356TIP3    H219033   3.730   5.672   3.670 -0.1572 -1.6415 -0.1165
 6357TIP3   OH219034   5.497   5.336   3.323 -0.3279  0.1423 -0.4135
 6357TIP3    H119035   5.590   5.313   3.318  0.1359  1.7184  0.3235
 6357TIP3    H219036   5.457   5.290   3.248  0.9182 -1.0123 -0.4137
 6358TIP3   OH219037   5.772   6.516   5.068  0.1503  0.3632  0.2422
 6358TIP3    H119038   5.804   6.445   5.125  0.4015  2.0250  2.2784
 6358TIP3    H219039   5.843   6.530   5.006 -0.1925 -1.6054 -0.6782
 6359TIP3   OH219040   0.475   3.797   1.699  0.0336  0.3717 -0.2817
 6359TIP3    H119041   0.501   3.828   1.786 -0.4260 -0.9176  0.3522
 6359TIP3    H219042   0.556   3.773   1.656  0.2044  0.0796  0.1893
 6360TIP3   OH219043   4.465   1.274   4.011 -0.7232  0.2970 -0.0708
 6360TIP3    H119044   4.414   1.348   4.044 -1.2340 -0.5657  1.1431
 6360TIP3    H219045   4.531   1.258   4.079 -1.2830 -1.0119  0.1891
 6361TIP3   OH219046   2.469   5.896   2.594  0.1402  0.9822  0.1272
 6361TIP3    H119047   2.485   5.890   2.689  0.6180 -0.9548 -0.0198
 6361TIP3    H219048   2.469   5.805   2.565 -1.8186  1.4458 -1.4758
 6362TIP3   OH219049   0.867   4.668   2.367  0.3732 -0.8926 -0.3130
 6362TIP3    H119050   0.852   4.611   2.291  1.3930 -0.4318 -0.8888
 6362TIP3    H219051   0.938   4.627   2.414 -0.4988 -1.3704  0.6237
 6363TIP3   OH219052   1.845   3.814   2.282 -0.0009  0.0750  0.2297
 6363TIP3    H119053   1.753   3.839   2.294  0.5541  2.5066 -0.0981
 6363TIP3    H219054   1.869   3.771   2.363 -1.4184 -0.6136  0.3239
 6364TIP3   OH219055   5.294   5.205   3.530 -0.3350 -0.3270  0.2684
 6364TIP3    H119056   5.211   5.215   3.484  0.8448 -0.2448 -1.9821
 6364TIP3    H219057   5.354   5.263   3.484  1.1703 -0.9404  1.3667
 6365TIP3   OH219058   4.309   3.375   2.633 -0.1401  0.4236  0.2242
 6365TIP3    H119059   4.364   3.427   2.691 -0.7716  0.4349  0.8282
 6365TIP3    H219060   4.222   3.415   2.640 -0.1594  0.6339 -0.9963
 6366TIP3   OH219061   3.914   1.056   2.350  0.7234 -0.1932 -0.2394
 6366TIP3    H119062   3.871   0.981   2.392 -0.0104  0.0846 -0.4813
 6366TIP3    H219063   3.848   1.091   2.290  0.9475  0.8356  0.0978
 6367TIP3   OH219064   1.222   1.468   4.205  0.1643 -0.4541 -0.6923
 6367TIP3    H119065   1.223   1.564   4.196 -0.0453 -0.3278  0.3997
 6367TIP3    H219066   1.297   1.450   4.262 -1.3548 -0.6427  1.3641
 6368TIP3   OH219067   5.716   2.382   3.914  0.3937 -0.2073  0.0629
 6368TIP3    H119068   5.793   2.330   3.936  0.6358 -0.0293 -0.3426
 6368TIP3    H219069   5.728   2.404   3.821  0.7970  1.4185  0.4813
 6369TIP3   OH219070   4.709   3.589   4.810 -0.2928  0.0578 -0.1291
 6369TIP3    H119071   4.719   3.670   4.859 -0.3995 -0.5920  1.0101
 6369TIP3    H219072   4.782   3.534   4.839 -0.6142 -0.5021 -0.3547
 6370TIP3   OH219073   3.666   6.111   0.964 -0.8223 -0.3087 -0.4303
 6370TIP3    H119074   3.699   6.025   0.940  0.3868 -0.0634  0.2534
 6370TIP3    H219075   3.620   6.098   1.047 -0.6525 -0.3003 -0.3347
 6371TIP3   OH219076   1.922   1.051   4.380 -1.1497  0.0126 -0.1520
 6371TIP3    H119077   1.845   1.040   4.435 -1.3531 -2.2237 -0.7847
 6371TIP3    H219078   1.895   1.022   4.293 -0.1103  1.0255 -0.8562
 6372TIP3   OH219079   6.641   3.419   5.026  0.5315  0.1892  0.5522
 6372TIP3    H119080   6.586   3.453   4.955  0.8896 -1.0456 -0.3518
 6372TIP3    H219081   6.599   3.451   5.106  0.0676  1.5460 -0.2022
 6373TIP3   OH219082   1.753   0.976   0.575 -0.4155  0.0716  0.0500
 6373TIP3    H119083   1.742   1.053   0.519  1.3475  1.5666  1.6212
 6373TIP3    H219084   1.714   1.002   0.659 -1.0157 -1.2941  0.2198
 6374TIP3   OH219085   3.132   3.632   1.945 -0.3002  0.1263  0.4329
 6374TIP3    H119086   3.108   3.607   1.855  1.0864 -1.5473  0.4658
 6374TIP3    H219087   3.112   3.725   1.951 -2.3164 -0.1601 -0.9591
 6375TIP3   OH219088   4.695   2.758   2.080  0.1825  0.0845 -0.0169
 6375TIP3    H119089   4.777   2.776   2.126 -0.6489  0.6381  1.3007
 6375TIP3    H219090   4.697   2.664   2.064  1.0518  0.0831  0.0682
 6376TIP3   OH219091   5.604   2.912   4.653  0.1028  0.1875  0.0010
 6376TIP3    H119092   5.566   2.977   4.711 -0.9370 -0.1613 -0.2669
 6376TIP3    H219093   5.658   2.962   4.591  1.9027  0.5024  1.7144
 6377TIP3   OH219094   6.718   4.102   5.195 -0.1894 -0.3350 -0.1758
 6377TIP3    H119095   6.772   4.029   5.167 -1.5750 -1.2161 -0.6434
 6377TIP3    H219096   6.776   4.155   5.249  0.7833 -1.8966  0.3760
 6378TIP3   OH219097   0.257   5.143   1.646 -0.0824 -0.4985 -0.4244
 6378TIP3    H119098   0.341   5.186   1.631  0.2164 -1.3952 -1.5118
 6378TIP3    H219099   0.278   5.070   1.705  0.0672 -1.1573 -1.2644
 6379TIP3   OH219100   3.192   0.153   4.188 -0.3770 -0.4309  0.1058
 6379TIP3    H119101   3.134   0.226   4.208  0.0510 -0.2601  0.7732
 6379TIP3    H219102   3.135   0.086   4.150 -0.4954  0.8678 -2.1320
 6380TIP3   OH219103   6.037   5.103   5.181  0.3241  0.0483  0.4279
 6380TIP3    H119104   6.098   5.163   5.224  0.0032  1.3335 -0.8416
 6380TIP3    H219105   6.023   5.141   5.095 -0.3434 -1.5727 -0.2069
 6381TIP3   OH219106   0.906   4.442   0.429 -0.0345  0.2742  0.4351
 6381TIP3    H119107   0.972   4.512   0.421 -0.0235  0.1220 -1.1251
 6381TIP3    H219108   0.939   4.372   0.373 -2.0028  0.5853 -1.2213
 6382TIP3   OH219109   3.297   5.613   0.682 -0.5634  0.2573  0.1869
 6382TIP3    H119110   3.334   5.700   0.700 -0.7070  0.1793  0.9108
 6382TIP3    H219111   3.225   5.604   0.746 -0.3835 -0.4944  0.2949
 6383TIP3   OH219112   0.903   5.490   1.512  0.4063 -0.0066  0.2950
 6383TIP3    H119113   0.902   5.415   1.452  0.9108  0.3541 -0.1752
 6383TIP3    H219114   0.861   5.458   1.592 -0.9565 -0.2881 -0.5054
 6384TIP3   OH219115   2.621   2.265   5.328 -0.0318  0.1441  0.2374
 6384TIP3    H119116   2.667   2.349   5.338 -0.3629  0.3540  0.0402
 6384TIP3    H219117   2.620   2.250   5.234  0.3874 -0.2902  0.3002
 6385TIP3   OH219118   1.846   3.481   3.421  0.1829 -0.5443 -0.2450
 6385TIP3    H119119   1.832   3.399   3.373  0.4257 -1.0944  0.6138
 6385TIP3    H219120   1.765   3.529   3.409  0.1222 -0.8056 -0.9512
 6386TIP3   OH219121   3.539   4.230   0.685  0.3875 -0.5088  0.2765
 6386TIP3    H119122   3.550   4.294   0.755 -0.3142  0.1490 -0.2056
 6386TIP3    H219123   3.624   4.187   0.679  0.9550  0.5571  0.4245
 6387TIP3   OH219124   1.624   6.065   2.479 -0.0800 -0.3637  0.5233
 6387TIP3    H119125   1.617   5.991   2.419  1.1658  1.0361 -1.4708
 6387TIP3    H219126   1.717   6.068   2.504 -0.3599 -0.2164  1.6404
 6388TIP3   OH219127   4.621   6.065   3.413  0.4727 -1.0980 -0.0294
 6388TIP3    H119128   4.691   6.089   3.353  0.7844 -1.1201  0.3212
 6388TIP3    H219129   4.659   5.997   3.469  0.3409 -0.7585  0.4886
 6389TIP3   OH219130   6.534   4.554   4.092 -0.4031  0.0697  0.1738
 6389TIP3    H119131   6.603   4.561   4.026  0.3139  1.1371  1.0085
 6389TIP3    H219132   6.465   4.505   4.048  0.8036 -0.8960 -0.7458
 6390TIP3   OH219133   0.212   2.386   2.362  0.3708 -0.3237  0.0112
 6390TIP3    H119134   0.162   2.333   2.300 -1.5373 -0.5349  1.6592
 6390TIP3    H219135   0.191   2.477   2.339  0.6646 -0.3630 -0.4249
 6391TIP3   OH219136   0.674   0.946   2.771 -0.2143  0.3803 -0.3377
 6391TIP3    H119137   0.678   0.947   2.676  1.3064  1.3887 -0.2969
 6391TIP3    H219138   0.765   0.933   2.799 -0.9484 -3.2531  1.0068
 6392TIP3   OH219139   5.364   1.254   5.757  0.0265  1.0572  0.1279
 6392TIP3    H119140   5.350   1.290   5.844  0.0391 -0.2516  0.7061
 6392TIP3    H219141   5.458   1.265   5.741  0.7895 -1.8350  1.8422
 6393TIP3   OH219142   1.766   4.108   3.868 -0.5102  0.4051  0.1719
 6393TIP3    H119143   1.802   4.028   3.906 -1.8574 -0.1850  0.2558
 6393TIP3    H219144   1.807   4.179   3.917  1.0688 -0.1856 -0.2181
 6394TIP3   OH219145   1.994   0.061   5.524  0.2542  0.3005  0.3637
 6394TIP3    H119146   1.977   0.130   5.460 -1.0488 -0.6156 -0.3337
 6394TIP3    H219147   2.079   0.083   5.561  1.0007  0.9467 -1.5891
 6395TIP3   OH219148   0.021   4.253   4.980  0.4699  0.1698  0.0566
 6395TIP3    H119149   0.031   4.213   5.066  0.6890  1.1274  0.4839
 6395TIP3    H219150  -0.005   4.180   4.923  2.1851 -0.8691  0.5239
 6396TIP3   OH219151   4.734   2.203   1.888  0.1157 -0.5933 -0.1795
 6396TIP3    H119152   4.661   2.172   1.835 -2.7362  1.0372  2.4594
 6396TIP3    H219153   4.789   2.253   1.827 -1.2953 -1.2939 -2.1221
 6397TIP3   OH219154   4.183   3.733   0.265 -0.5427 -0.0712 -0.3171
 6397TIP3    H119155   4.227   3.771   0.188  0.6092  0.6489  0.6590
 6397TIP3    H219156   4.173   3.806   0.326 -0.0634 -0.9243  0.8261
 6398TIP3   OH219157   7.030   5.923   0.671  0.5237  0.6539  0.5133
 6398TIP3    H119158   6.992   5.944   0.586 -1.0036 -0.3234  0.9248
 6398TIP3    H219159   6.973   5.966   0.735  0.9906  0.4301  1.1009
 6399TIP3   OH219160   3.264   3.043   3.446  0.5327 -0.6834 -0.5436
 6399TIP3    H119161   3.222   3.007   3.524  0.9336 -1.7598 -0.8039
 6399TIP3    H219162   3.357   3.043   3.466  0.4831  1.5790 -0.0190
 6400TIP3   OH219163   6.986   6.780   5.778 -0.0021  0.1699  0.1284
 6400TIP3    H119164   6.982   6.708   5.841  0.0963 -0.4827 -0.5986
 6400TIP3    H219165   7.000   6.737   5.694 -1.1257  0.9639 -0.4788
 6401TIP3   OH219166   5.564   2.170   1.068  0.4105 -0.2424 -0.1714
 6401TIP3    H119167   5.532   2.181   0.979  0.4906  1.7331 -0.0156
 6401TIP3    H219168   5.660   2.171   1.060  0.4237 -1.2665 -0.1743
 6402TIP3   OH219169   6.202   1.739   3.905  0.0145 -0.2410 -0.4546
 6402TIP3    H119170   6.219   1.822   3.950 -2.6042  0.4723 -0.5743
 6402TIP3    H219171   6.111   1.719   3.927  0.6360 -3.2728 -0.2200
 6403TIP3   OH219172   2.930   3.888   4.920 -0.0117  0.3677  0.8978
 6403TIP3    H119173   2.855   3.896   4.862  0.7154  0.9751  0.0105
 6403TIP3    H219174   2.951   3.795   4.920 -0.0166  0.3653  0.1723
 6404TIP3   OH219175   1.297   6.396   0.815  0.6568  0.3671  0.0701
 6404TIP3    H119176   1.373   6.343   0.790  2.3008  2.1161  1.1445
 6404TIP3    H219177   1.250   6.408   0.733  1.1890 -1.2217 -0.5260
 6405TIP3   OH219178   0.463   2.594   4.785 -0.4640  0.1852 -0.0614
 6405TIP3    H119179   0.447   2.680   4.747  1.0662  0.5167 -0.0308
 6405TIP3    H219180   0.559   2.585   4.784 -0.5575 -1.1423  0.7436
 6406TIP3   OH219181   1.692   2.329   1.354  0.0945 -0.2332 -0.2365
 6406TIP3    H119182   1.688   2.422   1.332 -1.6932  0.0394  1.0594
 6406TIP3    H219183   1.667   2.325   1.446 -2.0567 -2.1609 -0.8234
 6407TIP3   OH219184   2.582   5.768   1.853 -0.3987  0.1846  0.1977
 6407TIP3    H119185   2.491   5.777   1.827 -0.9405  0.5376  2.0627
 6407TIP3    H219186   2.594   5.834   1.921  0.4819 -1.5944  1.8579
 6408TIP3   OH219187   2.624   4.055   0.453  0.0918  0.3218 -0.0865
 6408TIP3    H119188   2.589   4.139   0.484 -2.3730 -1.1079  1.4034
 6408TIP3    H219189   2.547   4.008   0.420  1.4541 -1.2292 -1.2429
 6409TIP3   OH219190   4.610   1.941   5.547 -0.3295 -0.3052 -0.3931
 6409TIP3    H119191   4.660   1.998   5.489 -0.7701  1.8705  1.2480
 6409TIP3    H219192   4.673   1.877   5.579  0.9767  1.1838  0.1151
 6410TIP3   OH219193   2.777   2.085   3.945 -0.4039  0.2272 -0.2155
 6410TIP3    H119194   2.841   2.095   4.015 -1.0949  0.4614  0.3934
 6410TIP3    H219195   2.820   2.120   3.867 -0.2231  1.4956  0.4368
 6411TIP3   OH219196   6.575   5.566   2.898  0.3837  0.6870 -0.1328
 6411TIP3    H119197   6.667   5.591   2.911  0.5266  0.4259 -0.6177
 6411TIP3    H219198   6.571   5.535   2.807 -0.2149  0.8339 -0.1603
 6412TIP3   OH219199   4.979   3.048   4.088  0.0165 -0.6859  0.2227
 6412TIP3    H119200   5.017   3.039   4.175 -0.2317  1.6142  0.6267
 6412TIP3    H219201   4.885   3.047   4.102 -0.0814  2.7084  0.4684
 6413TIP3   OH219202   3.022   2.299   1.852 -0.3732 -0.5880 -0.3742
 6413TIP3    H119203   3.036   2.272   1.943  1.8028  1.8572  0.1247
 6413TIP3    H219204   3.021   2.395   1.855 -0.3413 -0.4340 -2.9256
 6414TIP3   OH219205   1.871   5.113   3.112  0.0799 -0.1223  0.1410
 6414TIP3    H119206   1.887   5.025   3.078 -0.3859 -0.0728 -0.2100
 6414TIP3    H219207   1.778   5.114   3.133  0.1724  0.1477  0.5537
 6415TIP3   OH219208   2.274   2.719   0.554  0.1160  0.1528  0.3059
 6415TIP3    H119209   2.327   2.676   0.621 -1.2905 -1.7069  0.2797
 6415TIP3    H219210   2.278   2.661   0.478 -0.0263  1.1807 -0.5101
 6416TIP3   OH219211   3.545   3.474   3.358  0.1259  0.2282 -0.1958
 6416TIP3    H119212   3.589   3.448   3.439  1.9127 -0.9947 -1.4772
 6416TIP3    H219213   3.610   3.529   3.314 -0.5628  0.3293 -1.0869
 6417TIP3   OH219214   3.418   6.601   1.666  0.5066  0.1280  0.0400
 6417TIP3    H119215   3.374   6.686   1.671  1.2262  0.4407  2.0896
 6417TIP3    H219216   3.453   6.587   1.754  0.8264 -2.0815 -0.3757
 6418TIP3   OH219217   3.586   4.988   4.203 -0.3561  0.3416  0.4032
 6418TIP3    H119218   3.529   4.917   4.177 -1.3809  1.5733 -0.8428
 6418TIP3    H219219   3.621   4.962   4.289  0.8277 -2.5107 -0.8369
 6419TIP3   OH219220   4.011   2.902   0.176 -0.4021  0.3378  0.2361
 6419TIP3    H119221   4.090   2.853   0.197 -0.1282  1.1847  1.2564
 6419TIP3    H219222   3.949   2.876   0.244 -1.2548 -0.8195 -0.9223
 6420TIP3   OH219223   0.924   5.345   5.037 -0.1247  0.1406  0.4909
 6420TIP3    H119224   0.984   5.379   5.103  1.3600 -0.5162 -0.4565
 6420TIP3    H219225   0.955   5.382   4.955  0.6426 -2.1824 -0.3699
 6421TIP3   OH219226   6.299   1.821   2.205  0.3264 -0.0534 -0.2452
 6421TIP3    H119227   6.243   1.896   2.188  0.5672  0.0329 -0.6744
 6421TIP3    H219228   6.262   1.781   2.284 -0.3995 -0.0632 -0.5804
 6422TIP3   OH219229   6.566   2.047   5.324  0.7111  0.0172  0.5547
 6422TIP3    H119230   6.656   2.018   5.342  1.7535  2.1113 -0.8235
 6422TIP3    H219231   6.575   2.105   5.248 -1.6588  1.1857  1.0849
 6423TIP3   OH219232   4.460   5.107   2.081 -0.2751  0.4060 -0.0173
 6423TIP3    H119233   4.533   5.154   2.042 -0.5132 -0.6667 -1.9006
 6423TIP3    H219234   4.479   5.015   2.064 -2.0281  0.1029 -0.5637
 6424TIP3   OH219235   4.128   4.899   2.467  0.1927  0.2165 -0.7653
 6424TIP3    H119236   4.106   4.847   2.390  0.2733 -0.5516 -0.2773
 6424TIP3    H219237   4.114   4.840   2.541  0.1967  0.9183 -0.1921
 6425TIP3   OH219238   3.517   1.334   3.691 -0.5583 -0.1234  0.6176
 6425TIP3    H119239   3.432   1.313   3.729 -0.6769  0.7255  0.8198
 6425TIP3    H219240   3.541   1.255   3.641 -1.3988 -0.4096  0.6626
 6426TIP3   OH219241   6.905   6.201   0.672 -0.2393 -0.0770  0.2431
 6426TIP3    H119242   6.989   6.199   0.716 -0.3593 -1.3868  0.4557
 6426TIP3    H219243   6.846   6.243   0.734  0.1410  0.3951  0.2886
 6427TIP3   OH219244   3.221   0.428   5.776  0.5698  0.2490 -0.2888
 6427TIP3    H119245   3.195   0.402   5.688  3.4136 -0.1345 -1.1077
 6427TIP3    H219246   3.289   0.494   5.763 -1.2250  2.7092  1.7143
 6428TIP3   OH219247   0.896   1.217   3.097  0.1122  0.8092 -0.1842
 6428TIP3    H119248   0.828   1.182   3.040 -0.5106  1.9192 -0.1389
 6428TIP3    H219249   0.864   1.303   3.124  0.5763  0.4940  1.5200
 6429TIP3   OH219250   5.133   4.244   0.143  0.1297  0.3098  0.1003
 6429TIP3    H119251   5.063   4.262   0.206 -0.3424  1.7199 -0.7988
 6429TIP3    H219252   5.173   4.329   0.126  1.0121 -0.2279 -0.6387
 6430TIP3   OH219253   0.548   5.979   3.113 -0.6028 -0.4331 -0.2601
 6430TIP3    H119254   0.613   5.913   3.088 -0.1712  0.0841 -0.5184
 6430TIP3    H219255   0.584   6.062   3.080 -1.4811 -0.1644 -0.5598
 6431TIP3   OH219256   4.980   0.962   0.877  0.0253  0.0421  0.1165
 6431TIP3    H119257   4.993   0.946   0.970  0.0778  1.2715  0.3243
 6431TIP3    H219258   5.019   1.047   0.861 -0.0794 -0.1084 -1.0138
 6432TIP3   OH219259   6.083   1.439   2.869 -0.1106  0.3476 -0.5843
 6432TIP3    H119260   6.056   1.531   2.864 -0.8942  0.1455 -0.1757
 6432TIP3    H219261   6.176   1.440   2.843 -0.2389  1.1839 -1.0553
 6433TIP3   OH219262   1.866   4.264   2.418  0.0789 -0.2720 -0.3402
 6433TIP3    H119263   1.927   4.194   2.394  0.8852  0.5158 -0.6877
 6433TIP3    H219264   1.872   4.326   2.345  0.3084  0.7390  0.5091
 6434TIP3   OH219265   3.384   1.199   1.293  0.5127  0.1188 -0.1186
 6434TIP3    H119266   3.407   1.220   1.203  1.0222  1.3108  0.2626
 6434TIP3    H219267   3.456   1.236   1.345 -0.8337  1.4331  0.9086
 6435TIP3   OH219268   0.839   5.645   4.914  0.2839 -0.1884 -0.0712
 6435TIP3    H119269   0.929   5.660   4.889  0.4516  0.1899  0.7288
 6435TIP3    H219270   0.822   5.709   4.984  0.1982 -1.8795  1.5470
 6436TIP3   OH219271   2.893   5.051   0.801 -0.2707 -0.6593  0.9259
 6436TIP3    H119272   2.806   5.081   0.828 -0.2110 -1.0607  1.6028
 6436TIP3    H219273   2.938   5.129   0.770 -0.5363 -0.2743  1.5072
 6437TIP3   OH219274   6.105   3.566   3.335  0.0401 -0.0869 -0.0788
 6437TIP3    H119275   6.080   3.658   3.326  1.6418  0.4252  0.2058
 6437TIP3    H219276   6.106   3.551   3.429  1.2021  0.0736 -0.0434
 6438TIP3   OH219277   5.622   3.104   4.025 -0.0159  0.3129 -0.2137
 6438TIP3    H119278   5.686   3.161   4.068  0.3099 -0.3675  0.2272
 6438TIP3    H219279   5.645   3.016   4.055 -0.8260  0.0031 -0.4814
 6439TIP3   OH219280   6.840   2.544   1.748  0.1639  0.4438 -0.1090
 6439TIP3    H119281   6.831   2.449   1.754 -0.3093  0.3832 -1.5226
 6439TIP3    H219282   6.931   2.558   1.723  0.3821  0.4007  0.6369
 6440TIP3   OH219283   2.454   2.636   5.761  0.1605 -0.1162  0.3590
 6440TIP3    H119284   2.394   2.568   5.729 -0.1850  0.8202 -1.1047
 6440TIP3    H219285   2.540   2.609   5.731  0.1782 -0.4214  0.6779
 6441TIP3   OH219286   5.575   5.229   4.003 -0.5988 -0.3805 -0.0335
 6441TIP3    H119287   5.602   5.291   4.071 -0.4756 -1.0621  0.5416
 6441TIP3    H219288   5.482   5.217   4.018 -0.4482 -1.0152  0.4147
 6442TIP3   OH219289   6.595   5.919   3.166 -0.0159 -0.4741  0.3677
 6442TIP3    H119290   6.527   5.923   3.100 -0.5738 -0.4870  0.9294
 6442TIP3    H219291   6.561   5.857   3.231  0.4466 -0.3381  0.7420
 6443TIP3   OH219292   4.551   5.358   5.093  0.1270 -0.1239 -0.3224
 6443TIP3    H119293   4.621   5.419   5.067  1.1130 -0.3871  1.5117
 6443TIP3    H219294   4.480   5.415   5.121  0.8803  0.2421  0.9617
 6444TIP3   OH219295   2.206   2.321   1.339  0.5257  0.1263 -0.3995
 6444TIP3    H119296   2.166   2.386   1.397 -0.4163 -0.0106 -0.8859
 6444TIP3    H219297   2.213   2.366   1.255 -0.2895 -0.4635 -0.7818
 6445TIP3   OH219298   3.146   4.713   2.513 -0.3970  0.0938 -0.9096
 6445TIP3    H119299   3.108   4.726   2.600 -1.8178 -1.1164 -1.3051
 6445TIP3    H219300   3.236   4.687   2.531 -0.3341  0.9502  0.1519
 6446TIP3   OH219301   1.267   1.679   2.810 -0.3984  0.1394  0.1585
 6446TIP3    H119302   1.297   1.743   2.875 -0.7097  0.3090  0.1385
 6446TIP3    H219303   1.314   1.599   2.832 -0.6865  0.1271  0.7426
 6447TIP3   OH219304   2.516   2.601   5.096  0.3885  0.2686  1.1041
 6447TIP3    H119305   2.588   2.581   5.035  0.7669  2.2070  0.8660
 6447TIP3    H219306   2.506   2.696   5.092 -2.7725  0.0237  0.4977
 6448TIP3   OH219307   4.501   0.200   3.409 -0.6457  0.5167  0.0626
 6448TIP3    H119308   4.487   0.201   3.315  0.1818  0.6813 -0.0564
 6448TIP3    H219309   4.590   0.168   3.421  0.0778  2.6020  0.6858
 6449TIP3   OH219310   1.733   1.448   3.052 -0.2123  0.2440  0.1749
 6449TIP3    H119311   1.753   1.501   2.975 -1.2797 -1.3388 -1.2613
 6449TIP3    H219312   1.662   1.496   3.095  0.0115  0.8609 -0.1227
 6450TIP3   OH219313   5.368   3.366   5.277 -0.1579  0.1113 -0.3427
 6450TIP3    H119314   5.295   3.334   5.224  0.9656 -0.5922 -1.5297
 6450TIP3    H219315   5.391   3.292   5.333 -1.1106  0.7358  0.9438
 6451TIP3   OH219316   3.983   6.525   0.860  0.2502 -0.0121 -0.3149
 6451TIP3    H119317   3.895   6.536   0.896 -0.3085 -0.8057 -1.4090
 6451TIP3    H219318   4.022   6.612   0.867 -0.1026  0.0497  1.4624
 6452TIP3   OH219319   4.468   4.132   2.061  0.3406 -0.0432  0.3902
 6452TIP3    H119320   4.531   4.060   2.062 -1.3086 -1.6441  3.6445
 6452TIP3    H219321   4.385   4.091   2.037 -0.3391  1.1053  0.7058
 6453TIP3   OH219322   1.723   1.787   3.967 -0.2432  0.5624  0.1118
 6453TIP3    H119323   1.674   1.815   3.890 -1.7820 -1.3803  0.3075
 6453TIP3    H219324   1.658   1.783   4.037  0.7213  0.3977  1.0262
 6454TIP3   OH219325   6.660   0.995   0.205  0.0440 -0.0805  0.1356
 6454TIP3    H119326   6.640   0.976   0.113  0.3005 -0.8245  0.2333
 6454TIP3    H219327   6.749   0.962   0.218  0.1608  0.3737  0.5559
 6455TIP3   OH219328   5.046   3.059   5.328  0.1982 -0.6523  0.0808
 6455TIP3    H119329   5.120   3.056   5.268  0.3600 -3.1474  0.3004
 6455TIP3    H219330   5.071   3.000   5.400 -1.2257 -0.0732  1.1063
 6456TIP3   OH219331   3.181   1.383   1.206 -0.4822  0.3361 -0.2108
 6456TIP3    H119332   3.216   1.421   1.287  0.3842  1.5922 -1.1370
 6456TIP3    H219333   3.221   1.296   1.201 -1.7374 -0.3869  1.4611
 6457TIP3   OH219334   3.595   4.837   1.901  0.0970 -0.1286  0.3917
 6457TIP3    H119335   3.637   4.818   1.816 -1.4082 -0.9098 -0.2116
 6457TIP3    H219336   3.514   4.787   1.899 -1.3555  2.0681  1.1206
 6458TIP3   OH219337   0.855   4.821   5.071  0.4153 -0.0933 -0.7449
 6458TIP3    H119338   0.946   4.798   5.052  0.8603  0.3998  0.6872
 6458TIP3    H219339   0.859   4.914   5.095 -0.8698  0.7201 -3.3114
 6459TIP3   OH219340   4.826   3.840   3.786  0.4295  0.4999  0.5972
 6459TIP3    H119341   4.831   3.798   3.872 -0.5478  0.0218  0.4356
 6459TIP3    H219342   4.735   3.829   3.760  1.0845 -1.0387 -1.3236
 6460TIP3   OH219343   3.782   2.754   0.351  0.2016 -0.0509 -0.7067
 6460TIP3    H119344   3.694   2.724   0.375 -0.5700  1.2912 -1.7436
 6460TIP3    H219345   3.803   2.707   0.271 -0.6336  1.4008 -1.8289
 6461TIP3   OH219346   4.564   2.729   2.965  0.1130  0.1038  0.3808
 6461TIP3    H119347   4.492   2.677   3.000  0.7809 -0.4748  0.9402
 6461TIP3    H219348   4.561   2.714   2.871 -2.0138  2.0699  0.0461
 6462TIP3   OH219349   1.050   5.267   4.716 -0.1188 -0.2687 -0.1797
 6462TIP3    H119350   1.007   5.190   4.752  3.0641 -3.4252 -2.3915
 6462TIP3    H219351   0.982   5.312   4.667 -1.9781 -2.1003  0.5943
 6463TIP3   OH219352   4.496   2.375   5.272  0.2306 -0.1134 -0.9489
 6463TIP3    H119353   4.490   2.468   5.247 -1.5300 -0.5044 -2.1393
 6463TIP3    H219354   4.535   2.332   5.196 -0.8399 -0.6307 -1.2223
 6464TIP3   OH219355   4.338   4.276   4.752  0.3370 -0.1908  0.4692
 6464TIP3    H119356   4.341   4.186   4.719  0.0053 -1.0769  2.6351
 6464TIP3    H219357   4.278   4.321   4.694 -1.1310 -1.9507  0.5157
 6465TIP3   OH219358   5.379   1.735   5.292 -0.4537  0.5891  0.0229
 6465TIP3    H119359   5.298   1.775   5.323 -0.1895  0.6280  0.6939
 6465TIP3    H219360   5.359   1.642   5.286 -0.3018  0.4802  1.0387
 6466TIP3   OH219361   4.671   3.539   5.698 -0.2864  0.3107  0.0522
 6466TIP3    H119362   4.755   3.584   5.705 -0.6802  0.8623  1.6542
 6466TIP3    H219363   4.642   3.529   5.788 -1.2444 -1.2380 -0.3953
 6467TIP3   OH219364   2.456   4.057   4.464 -0.3097 -0.0315 -0.4993
 6467TIP3    H119365   2.492   4.016   4.386  0.5384  0.9597 -0.6493
 6467TIP3    H219366   2.518   4.036   4.533 -0.6815 -0.2937 -0.2395
 6468TIP3   OH219367   7.100   4.094   0.776  0.8968  0.0159  0.7596
 6468TIP3    H119368   7.107   4.144   0.857  0.5072 -0.1837  0.9193
 6468TIP3    H219369   7.064   4.009   0.803 -1.2494  0.6513  0.1310
 6469TIP3   OH219370   4.323   5.336   4.549  0.1501  0.4325 -0.5733
 6469TIP3    H119371   4.344   5.262   4.492 -0.5797 -0.7829  0.6860
 6469TIP3    H219372   4.408   5.375   4.568  0.5401  0.0071 -1.3509
 6470TIP3   OH219373   4.743   5.952   5.267 -0.0615 -0.1886 -0.4939
 6470TIP3    H119374   4.793   5.902   5.203  0.1332 -2.5322  1.3640
 6470TIP3    H219375   4.808   5.983   5.331 -0.1053  2.9496 -1.7730
 6471TIP3   OH219376   7.013   6.048   3.961  0.0825 -0.2153 -0.1846
 6471TIP3    H119377   6.954   6.122   3.944 -0.6495 -0.5447  0.8447
 6471TIP3    H219378   6.954   5.975   3.979  0.8096 -0.8045 -0.1671
 6472TIP3   OH219379   3.005   4.890   2.313  0.1697 -0.0750 -0.0354
 6472TIP3    H119380   3.054   4.848   2.384  0.1605  0.6874  0.4461
 6472TIP3    H219381   2.966   4.968   2.354  2.8322  2.2490 -1.5579
 6473TIP3   OH219382   3.469   6.581   3.061  0.4946  0.0982  0.1144
 6473TIP3    H119383   3.388   6.607   3.016  0.2026  0.7922  1.0058
 6473TIP3    H219384   3.440   6.520   3.129  1.0586 -1.8213 -1.2896
 6474TIP3   OH219385   6.140   0.011   5.465  0.1972  0.2088  0.1110
 6474TIP3    H119386   6.130   0.047   5.377  0.0444 -0.1071 -0.0028
 6474TIP3    H219387   6.215   0.058   5.502  1.0333 -0.5311 -0.6255
 6475TIP3   OH219388   5.223   3.235   4.213 -0.4319 -0.0673  0.2294
 6475TIP3    H119389   5.263   3.158   4.172 -0.4212 -0.2457  0.5741
 6475TIP3    H219390   5.159   3.200   4.274 -1.8213  0.2345 -1.0041
 6476TIP3   OH219391   2.889   1.483   0.696  0.0867  1.2038 -0.1475
 6476TIP3    H119392   2.944   1.485   0.617  1.8281 -0.0708  0.9587
 6476TIP3    H219393   2.884   1.390   0.719 -1.3667  1.4537  0.6120
 6477TIP3   OH219394   2.311   0.567   1.013 -0.2965  0.6610 -0.0960
 6477TIP3    H119395   2.224   0.594   0.981 -0.4993  2.8702  1.9946
 6477TIP3    H219396   2.369   0.638   0.988  0.7377 -0.3180 -0.5665
 6478TIP3   OH219397   6.332   3.960   4.977  0.5288  1.0314 -0.0828
 6478TIP3    H119398   6.265   3.999   4.921 -0.0218 -0.6070 -0.6138
 6478TIP3    H219399   6.413   3.967   4.926  0.2141  0.4249 -0.6758
 6479TIP3   OH219400   3.577   5.096   0.350  0.1365  0.4756  0.0848
 6479TIP3    H119401   3.492   5.126   0.380  0.7636  0.5987  1.8166
 6479TIP3    H219402   3.599   5.022   0.407  0.0205 -1.3565 -2.0911
 6480TIP3   OH219403   0.105   2.297   3.635 -0.4951 -0.4445 -0.2873
 6480TIP3    H119404   0.045   2.256   3.572 -0.5384  0.3766 -0.7970
 6480TIP3    H219405   0.074   2.267   3.720 -0.0797 -2.0582 -0.6628
 6481TIP3   OH219406   0.347   1.910   4.235  0.0925 -0.0094  0.0845
 6481TIP3    H119407   0.257   1.942   4.239 -0.0461 -0.2584 -0.8814
 6481TIP3    H219408   0.396   1.972   4.289 -0.9117 -0.8517  2.0858
 6482TIP3   OH219409   2.518   3.674   5.688  0.0775  0.1853  0.1480
 6482TIP3    H119410   2.574   3.745   5.720 -1.6403  1.3911  0.6292
 6482TIP3    H219411   2.558   3.594   5.722  0.9479  1.0729  1.2933
 6483TIP3   OH219412   6.699   6.661   5.316  0.0054 -0.6499 -0.6046
 6483TIP3    H119413   6.617   6.677   5.362 -0.3690 -1.7475 -0.8639
 6483TIP3    H219414   6.763   6.647   5.386 -0.6192 -2.5902 -0.3840
 6484TIP3   OH219415   4.080   0.191   4.484 -0.0543  0.1678 -0.2396
 6484TIP3    H119416   4.125   0.186   4.400 -0.5903 -1.1425 -0.4734
 6484TIP3    H219417   4.147   0.167   4.548 -0.1183 -0.7040 -0.4853
 6485TIP3   OH219418   1.418   2.757   2.671  0.0756  0.2227 -0.5685
 6485TIP3    H119419   1.343   2.805   2.705  0.1109 -0.1644  0.0560
 6485TIP3    H219420   1.473   2.825   2.630 -0.3233  0.5822 -0.5177
 6486TIP3   OH219421   2.046   2.690   2.502 -0.5819  0.1507 -0.1924
 6486TIP3    H119422   2.077   2.763   2.448 -0.1839 -0.3502 -0.6543
 6486TIP3    H219423   2.083   2.706   2.588 -1.2109  0.9565 -0.0590
 6487TIP3   OH219424   1.974   2.019   0.676 -0.5610  0.5908  0.0866
 6487TIP3    H119425   1.953   2.096   0.623 -0.9678  0.6346  0.3055
 6487TIP3    H219426   1.893   2.000   0.723 -0.4604  0.0360  0.0432
 6488TIP3   OH219427   0.067   4.672   2.638 -0.1984  0.2177 -0.0361
 6488TIP3    H119428   0.085   4.611   2.567 -0.2912  1.9826 -1.6819
 6488TIP3    H219429   0.137   4.658   2.701 -0.1079 -1.4001 -0.4591
 6489TIP3   OH219430   5.031   5.221   3.950 -0.3482 -0.1302  0.1143
 6489TIP3    H119431   5.024   5.274   4.029 -0.0429 -0.4825  0.3790
 6489TIP3    H219432   4.941   5.207   3.922 -0.4436  0.2866  0.2016
 6490TIP3   OH219433   2.555   1.405   0.571  0.1600 -0.1515  0.0647
 6490TIP3    H119434   2.536   1.496   0.549  0.7222 -0.3680 -1.4479
 6490TIP3    H219435   2.479   1.376   0.622 -1.2178  0.4557 -1.5405
 6491TIP3   OH219436   4.706   3.172   5.716 -0.2209  0.4192 -0.1214
 6491TIP3    H119437   4.668   3.227   5.647 -1.0543 -2.2926 -1.9844
 6491TIP3    H219438   4.764   3.112   5.669 -2.3005 -2.8222  1.1432
 6492TIP3   OH219439   2.921   4.417   0.278 -0.0359  0.2419 -0.3426
 6492TIP3    H119440   2.829   4.402   0.255  0.3419 -2.1099 -0.5480
 6492TIP3    H219441   2.928   4.388   0.368  1.0241 -2.2247 -1.1488
 6493TIP3   OH219442   0.278   0.817   2.758 -0.0117  0.4203 -0.0064
 6493TIP3    H119443   0.231   0.776   2.830  0.6429 -0.0517  0.1556
 6493TIP3    H219444   0.335   0.748   2.723 -0.9340  0.3705 -1.5377
 6494TIP3   OH219445   1.034   0.209   0.585  0.4574  0.2259  0.1507
 6494TIP3    H119446   1.019   0.115   0.595 -2.1364  0.6156  0.6909
 6494TIP3    H219447   0.995   0.248   0.663  0.3890  1.8318 -0.6359
 6495TIP3   OH219448   4.222   1.405   3.454  0.2429 -0.4146  0.6762
 6495TIP3    H119449   4.197   1.480   3.400  0.4606 -0.1650  0.9217
 6495TIP3    H219450   4.317   1.402   3.448  0.7197  2.0740  4.2292
 6496TIP3   OH219451   5.493   3.082   4.893 -0.2246 -0.2281  0.0701
 6496TIP3    H119452   5.490   3.177   4.878 -0.4066 -0.2436  0.0016
 6496TIP3    H219453   5.439   3.069   4.971  1.2365 -0.0761  1.1300
 6497TIP3   OH219454   0.481   4.268   2.444  0.1918  0.5176 -0.2928
 6497TIP3    H119455   0.427   4.347   2.433 -0.4550 -0.0333 -1.2963
 6497TIP3    H219456   0.465   4.218   2.363  0.3170 -0.8025  0.4799
 6498TIP3   OH219457   3.068   3.680   1.683 -0.6544 -0.1442 -0.8054
 6498TIP3    H119458   2.979   3.709   1.665 -0.1587  1.8087 -0.3596
 6498TIP3    H219459   3.121   3.722   1.615  0.2281  0.8582  0.4503
 6499TIP3   OH219460   1.711   6.130   1.319  0.2729  0.0207  0.3253
 6499TIP3    H119461   1.690   6.096   1.406  0.5493 -3.2673 -0.7641
 6499TIP3    H219462   1.628   6.132   1.272  0.4573 -0.5599 -0.0433
 6500TIP3   OH219463   2.411   6.116   1.756  0.2918  0.5677  0.1844
 6500TIP3    H119464   2.389   6.120   1.663  0.1078  1.0075  0.2470
 6500TIP3    H219465   2.364   6.039   1.789  1.6600 -0.6027 -0.4301
 6501TIP3   OH219466   0.654   4.270   5.364  0.0327 -0.4384  0.3821
 6501TIP3    H119467   0.719   4.203   5.388 -0.6837 -0.3096  3.1033
 6501TIP3    H219468   0.696   4.353   5.388  0.4271  0.0468 -1.8021
 6502TIP3   OH219469   6.268   5.409   4.209 -0.1157 -0.8788 -0.5182
 6502TIP3    H119470   6.272   5.353   4.132  1.0827 -1.7869  0.1807
 6502TIP3    H219471   6.251   5.349   4.282 -0.5795 -0.1165  0.0239
 6503TIP3   OH219472   2.819   6.128   3.812  0.5182 -0.4493 -0.0047
 6503TIP3    H119473   2.789   6.100   3.899  0.6256 -0.2761  0.0891
 6503TIP3    H219474   2.900   6.081   3.798  1.1049  0.3861  0.4823
 6504TIP3   OH219475   1.093   1.216   5.704  0.0694 -0.3024 -0.2620
 6504TIP3    H119476   1.172   1.204   5.651  0.6161 -2.1661  0.8882
 6504TIP3    H219477   1.082   1.133   5.751 -3.5344 -0.7759 -1.6042
 6505TIP3   OH219478   3.388   5.439   1.797  0.0547 -1.2218  0.0869
 6505TIP3    H119479   3.342   5.372   1.747 -4.6944  0.6847  1.3378
 6505TIP3    H219480   3.382   5.517   1.743 -2.3113  0.0930  2.0333
 6506TIP3   OH219481   3.249   2.263   3.078 -0.6620  0.0919  0.5871
 6506TIP3    H119482   3.266   2.207   3.154  1.2516  0.3860  0.4324
 6506TIP3    H219483   3.173   2.224   3.036  0.1040 -1.9174  0.9472
 6507TIP3   OH219484   4.728   5.705   5.514 -0.1429  0.0546  0.1093
 6507TIP3    H119485   4.668   5.777   5.534  0.7811  0.2256  2.5928
 6507TIP3    H219486   4.814   5.738   5.539  0.3916 -1.6952  0.6937
 6508TIP3   OH219487   1.393   5.898   3.022  0.0037 -0.1826  0.5949
 6508TIP3    H119488   1.311   5.942   3.045 -0.5049 -0.2384 -1.0444
 6508TIP3    H219489   1.392   5.892   2.927  1.6425 -0.7319  0.5804
 6509TIP3   OH219490   4.700   1.148   3.317  0.2423  0.2524 -0.0863
 6509TIP3    H119491   4.680   1.136   3.224 -0.1227  1.0085 -0.1100
 6509TIP3    H219492   4.619   1.127   3.362 -0.4744  2.6163 -0.1371
 6510TIP3   OH219493   3.914   4.251   1.408 -0.3976 -0.4711  0.1652
 6510TIP3    H119494   3.945   4.203   1.485 -1.0551 -0.5391  0.3950
 6510TIP3    H219495   3.869   4.185   1.355 -0.7803 -0.2268  0.1887
 6511TIP3   OH219496   6.883   2.617   0.983 -0.4376  0.3866  0.2450
 6511TIP3    H119497   6.814   2.677   0.955 -0.0419  0.3380 -0.9179
 6511TIP3    H219498   6.836   2.539   1.012 -0.8933  0.4573 -0.2678
 6512TIP3   OH219499   6.950   5.532   5.752 -0.1098  0.8770  0.0009
 6512TIP3    H119500   6.966   5.442   5.724 -2.3694  0.6241 -0.6700
 6512TIP3    H219501   6.985   5.586   5.681  1.3791  0.5768  0.4680
 6513TIP3   OH219502   1.338   0.925   3.514 -0.0865 -0.0535  0.5681
 6513TIP3    H119503   1.336   0.874   3.595  1.6661  1.7294  1.8344
 6513TIP3    H219504   1.425   0.964   3.512 -1.3914  3.1943 -0.0343
 6514TIP3   OH219505   6.415   0.834   3.568  0.7891 -0.2019  0.6549
 6514TIP3    H119506   6.331   0.870   3.596  0.2033 -1.7371  0.9627
 6514TIP3    H219507   6.479   0.870   3.629  0.4296  1.2556  0.2081
 6515TIP3   OH219508   2.739   0.647   1.362  0.5046  0.2821  0.2770
 6515TIP3    H119509   2.692   0.664   1.280 -0.5573  0.1361  0.8311
 6515TIP3    H219510   2.694   0.571   1.399  1.6966 -0.3575  0.4574
 6516TIP3   OH219511   6.748   5.498   0.650  0.2217  0.1540 -0.2309
 6516TIP3    H119512   6.681   5.466   0.589  1.2280  0.2716 -1.4460
 6516TIP3    H219513   6.818   5.530   0.593  0.7046  1.3472  0.9923
 6517TIP3   OH219514   0.199   2.810   4.017 -0.8601 -0.4290 -0.0153
 6517TIP3    H119515   0.272   2.831   3.958 -1.5824 -2.1761 -1.6449
 6517TIP3    H219516   0.177   2.894   4.058  2.6466  0.0244  1.3292
 6518TIP3   OH219517   6.348   3.540   1.035  0.2174  0.5098  0.1042
 6518TIP3    H119518   6.280   3.569   1.095  0.8550  1.2966  0.4677
 6518TIP3    H219519   6.363   3.448   1.059 -1.1399  0.1236 -0.4142
 6519TIP3   OH219520   3.658   3.572   0.428  0.1878 -0.1873  0.2759
 6519TIP3    H119521   3.592   3.587   0.361 -0.6617 -0.6689  0.9787
 6519TIP3    H219522   3.741   3.566   0.380 -0.2972  0.2598 -0.6345
 6520TIP3   OH219523   5.113   5.903   3.595 -0.1092 -0.6239  0.1046
 6520TIP3    H119524   5.176   5.959   3.550 -0.4423 -1.2014 -1.1101
 6520TIP3    H219525   5.117   5.931   3.687 -0.2888  1.3906 -0.4686
 6521TIP3   OH219526   0.541   1.585   0.550 -0.3408  0.3884  0.4686
 6521TIP3    H119527   0.623   1.616   0.588  0.2426 -0.6060  0.0714
 6521TIP3    H219528   0.526   1.499   0.591 -2.1533  1.3114  1.9068
 6522TIP3   OH219529   2.463   6.797   4.627 -0.1791 -0.0253 -0.4586
 6522TIP3    H119530   2.539   6.775   4.573  1.0763 -0.6525  1.4834
 6522TIP3    H219531   2.404   6.722   4.616  0.5164 -0.6296 -0.1896
 6523TIP3   OH219532   1.920   2.987   5.056 -0.1429  0.1890  0.0949
 6523TIP3    H119533   1.944   3.078   5.045  0.2587 -0.0429 -1.0974
 6523TIP3    H219534   1.911   2.975   5.151  0.1885  1.3540  0.2815
 6524TIP3   OH219535   3.526   4.460   4.371 -0.3000 -0.5871 -0.9918
 6524TIP3    H119536   3.438   4.421   4.372 -0.8870  0.6024  1.5087
 6524TIP3    H219537   3.567   4.428   4.452  1.4854 -0.8825 -1.9747
 6525TIP3   OH219538   6.531   4.639   3.511  0.5720 -0.2400  0.5000
 6525TIP3    H119539   6.461   4.573   3.506 -0.8209  1.2002  0.0731
 6525TIP3    H219540   6.572   4.636   3.424 -0.9416  0.9092 -0.3168
 6526TIP3   OH219541   6.866   3.732   3.679  0.1782  0.6962  0.3692
 6526TIP3    H119542   6.924   3.777   3.618 -0.1677 -1.2877 -1.5491
 6526TIP3    H219543   6.780   3.771   3.664  0.3898  1.3992  0.8923
 6527TIP3   OH219544   4.779   2.864   3.744 -0.2616 -0.1702 -0.1609
 6527TIP3    H119545   4.782   2.920   3.666  0.7820 -0.2071 -0.1696
 6527TIP3    H219546   4.818   2.781   3.716 -1.0272 -0.6140  0.0759
 6528TIP3   OH219547   4.265   1.266   0.594 -0.5647 -0.5584  0.7850
 6528TIP3    H119548   4.178   1.306   0.603  0.6064  2.8041 -0.9747
 6528TIP3    H219549   4.260   1.218   0.511 -1.2974 -2.2789  1.7685
 6529TIP3   OH219550   0.239   6.608   5.200  0.0056  0.3977  1.0479
 6529TIP3    H119551   0.285   6.560   5.131  0.3156  0.8328  0.9511
 6529TIP3    H219552   0.273   6.570   5.281  0.0921  0.3092  0.9712
 6530TIP3   OH219553   2.677   2.242   5.071 -0.3439  0.5744  0.0300
 6530TIP3    H119554   2.747   2.307   5.077  0.9079 -0.7453  0.1433
 6530TIP3    H219555   2.641   2.254   4.983  1.8326 -0.4942 -1.0708
 6531TIP3   OH219556   4.220   2.256   5.257 -0.0180 -0.3575 -0.1564
 6531TIP3    H119557   4.247   2.347   5.265 -0.7571 -0.1651  0.1867
 6531TIP3    H219558   4.303   2.207   5.252  0.3809  0.3074 -0.1456
 6532TIP3   OH219559   0.584   1.594   2.145  0.5632  0.2313  0.2444
 6532TIP3    H119560   0.605   1.666   2.204  1.0912 -0.1612  0.5493
 6532TIP3    H219561   0.551   1.525   2.204 -0.7384  0.5101 -0.1256
 6533TIP3   OH219562   4.183   1.916   3.224  0.2906 -0.2097  0.0932
 6533TIP3    H119563   4.239   1.988   3.193 -0.1324 -0.1402 -0.5315
 6533TIP3    H219564   4.095   1.953   3.224  0.1686 -0.4976  0.5142
 6534TIP3   OH219565   1.243   2.394   1.831 -0.0044  0.5598  0.2278
 6534TIP3    H119566   1.171   2.416   1.889 -1.0490  0.5894 -1.0297
 6534TIP3    H219567   1.220   2.435   1.747  1.4471  0.5252 -0.2225
 6535TIP3   OH219568   2.513   0.761   1.991  0.3116 -0.3732  0.1932
 6535TIP3    H119569   2.492   0.836   1.936  1.6257 -0.9979 -1.2435
 6535TIP3    H219570   2.537   0.692   1.929  1.9175 -1.0936  1.5247
 6536TIP3   OH219571   6.290   2.333   4.588 -0.2119  0.1994  0.0813
 6536TIP3    H119572   6.307   2.399   4.521 -0.6784  1.2378  0.9558
 6536TIP3    H219573   6.301   2.249   4.543  0.2389  0.8690 -1.0902
 6537TIP3   OH219574   3.001   2.278   5.327 -0.2765 -0.1476 -0.1430
 6537TIP3    H119575   3.048   2.231   5.259 -0.1424 -1.9169  1.1017
 6537TIP3    H219576   3.069   2.325   5.375 -0.0922 -0.5987  0.0467
 6538TIP3   OH219577   5.770   6.142   0.415 -0.2625  0.3942  0.3986
 6538TIP3    H119578   5.755   6.072   0.351 -0.7616  0.1271  0.7999
 6538TIP3    H219579   5.754   6.101   0.500  1.4741  0.4523  0.7924
 6539TIP3   OH219580   3.001   6.537   5.631  0.0565 -0.2361 -0.4175
 6539TIP3    H119581   3.072   6.592   5.598  0.5504  1.0458  2.4521
 6539TIP3    H219582   3.045   6.460   5.667 -0.0225  0.2218  0.7067
 6540TIP3   OH219583   5.509  -0.023   2.619 -0.4925 -0.1135 -0.0127
 6540TIP3    H119584   5.551   0.041   2.677  0.0434  0.0197 -0.5436
 6540TIP3    H219585   5.417   0.000   2.620 -0.5793 -0.4250  1.1950
 6541TIP3   OH219586   5.648   1.310   0.430  0.0259  0.2418 -0.0351
 6541TIP3    H119587   5.588   1.291   0.357  0.4211  1.3443 -0.6780
 6541TIP3    H219588   5.620   1.395   0.462  0.7884  0.4413  0.1271
 6542TIP3   OH219589   3.921   5.023  -0.012  0.0579  0.0213 -1.0572
 6542TIP3    H119590   3.933   5.112   0.021 -0.9593  0.2869 -1.3553
 6542TIP3    H219591   3.992   4.972   0.028 -0.5950  0.5138  0.8294
 6543TIP3   OH219592   5.993   5.392   0.513 -0.0913  0.1694  0.3982
 6543TIP3    H119593   5.921   5.330   0.502 -1.6472  1.9817 -0.0456
 6543TIP3    H219594   5.957   5.463   0.566  1.9351  0.2837  1.7616
 6544TIP3   OH219595   2.637   1.012   2.832  0.2256  0.7420 -0.1597
 6544TIP3    H119596   2.552   1.054   2.821 -0.7760 -0.9673  0.6026
 6544TIP3    H219597   2.641   0.991   2.926  1.2426  0.3292 -0.2868
 6545TIP3   OH219598   5.966   4.388   1.243 -0.0670 -0.4892  0.3826
 6545TIP3    H119599   5.952   4.315   1.182  0.9942 -0.4042  0.0157
 6545TIP3    H219600   6.031   4.355   1.305 -0.7622 -0.3971  1.1835
 6546TIP3   OH219601   4.721   2.418   1.559  0.3289  0.4125  0.2682
 6546TIP3    H119602   4.671   2.481   1.507  0.6810  0.1104 -0.4520
 6546TIP3    H219603   4.789   2.386   1.500  1.5005  0.9391  1.2892
 6547TIP3   OH219604   4.719   6.268   0.864  0.9713  0.0937  0.1815
 6547TIP3    H119605   4.713   6.279   0.769  1.1214  1.9762  0.3451
 6547TIP3    H219606   4.634   6.299   0.896  0.9216 -0.5398  0.6570
 6548TIP3   OH219607   5.212   6.269   5.542  0.0662 -0.6063 -0.3211
 6548TIP3    H119608   5.147   6.248   5.609  0.6899 -2.4769 -0.2629
 6548TIP3    H219609   5.295   6.276   5.589  0.3118 -0.7099 -0.7296
 6549TIP3   OH219610   2.793   6.726   3.174  0.1124 -0.0614  0.7267
 6549TIP3    H119611   2.802   6.650   3.232 -1.4984  0.2028  1.3783
 6549TIP3    H219612   2.790   6.689   3.086  1.6359 -0.5456  0.8550
 6550TIP3   OH219613   3.280   5.359   2.734  0.1076 -0.0554 -0.1845
 6550TIP3    H119614   3.224   5.361   2.812 -1.2043  0.3007 -1.0892
 6550TIP3    H219615   3.296   5.452   2.715  1.0205 -0.1592  0.0644
 6551TIP3   OH219616   6.484   5.257   2.952  0.4089 -0.2787 -0.4356
 6551TIP3    H119617   6.452   5.202   3.024 -1.5585  0.3360 -0.7629
 6551TIP3    H219618   6.566   5.294   2.984 -0.3916 -0.0500  1.5057
 6552TIP3   OH219619   1.642   2.497   0.228 -0.2218 -0.0720  0.4081
 6552TIP3    H119620   1.571   2.525   0.171 -2.0158 -1.1780  1.9642
 6552TIP3    H219621   1.639   2.558   0.302  0.5353 -0.0516  0.4233
 6553TIP3   OH219622   3.339   4.935   0.373 -0.3478  0.1189 -0.3048
 6553TIP3    H119623   3.329   5.028   0.355  0.4835  0.2102 -0.3057
 6553TIP3    H219624   3.420   4.928   0.423 -0.7487 -0.5330  0.2754
 6554TIP3   OH219625   1.574   2.104   5.800  0.2425 -0.2967  0.5167
 6554TIP3    H119626   1.500   2.133   5.748  0.7878 -0.7697 -0.5466
 6554TIP3    H219627   1.648   2.155   5.768  0.5649 -0.5044  0.9140
 6555TIP3   OH219628   3.983   0.588   3.821 -0.4292 -0.2525  0.3164
 6555TIP3    H119629   3.925   0.606   3.895  0.3443 -0.7530  1.0559
 6555TIP3    H219630   3.926   0.595   3.744 -1.2929  0.0492  0.9646
 6556TIP3   OH219631   1.059   6.026   0.318 -0.2613  0.5172 -0.0223
 6556TIP3    H119632   1.101   6.087   0.258 -0.0299  0.4753  0.0977
 6556TIP3    H219633   1.118   5.951   0.322 -1.1553 -0.2898 -1.1727
 6557TIP3   OH219634   5.531   1.508   1.949  0.1177 -0.3934 -0.2302
 6557TIP3    H119635   5.512   1.520   2.042 -0.5820  0.8391 -0.5040
 6557TIP3    H219636   5.617   1.549   1.936  0.2445 -0.6244 -0.1077
 6558TIP3   OH219637   3.254   0.156   1.733  0.0995  0.2408  0.3821
 6558TIP3    H119638   3.172   0.131   1.690 -0.2526 -0.8929  1.6370
 6558TIP3    H219639   3.312   0.182   1.661 -0.8294 -0.5127 -0.6726
 6559TIP3   OH219640   5.204   2.993   4.837  0.1927 -0.5758  0.1789
 6559TIP3    H119641   5.256   3.013   4.915  0.0985  0.8926 -0.0987
 6559TIP3    H219642   5.127   2.947   4.870 -0.7140  1.5636  1.2053
 6560TIP3   OH219643   7.106   2.897   1.379 -1.0692 -0.8192 -0.1506
 6560TIP3    H119644   7.075   2.806   1.384 -1.4398 -0.6344  1.4028
 6560TIP3    H219645   7.088   2.933   1.466 -1.1990  0.8440 -0.8428
 6561TIP3   OH219646   6.618   3.292   4.420 -0.7249  0.0016  0.2968
 6561TIP3    H119647   6.613   3.301   4.515  0.5009 -0.6886  0.4422
 6561TIP3    H219648   6.621   3.197   4.405  0.7105  0.1256 -0.3186
 6562TIP3   OH219649   6.356   2.973   1.880 -0.4430  0.0077 -0.1791
 6562TIP3    H119650   6.365   2.896   1.936 -0.2890 -0.0692 -0.3082
 6562TIP3    H219651   6.262   2.992   1.881 -0.4718 -0.1372 -0.0870
 6563TIP3   OH219652   0.480   2.060   2.561  0.3622  0.3544  0.0108
 6563TIP3    H119653   0.438   2.065   2.475 -2.3051 -0.2332  1.1900
 6563TIP3    H219654   0.499   1.967   2.574  0.7338  0.4373  0.0794
 6564TIP3   OH219655   4.538   6.072   4.564  0.5468  0.0595  0.2724
 6564TIP3    H119656   4.551   6.007   4.495  1.3810  1.9134 -1.4100
 6564TIP3    H219657   4.580   6.151   4.531 -3.2766  2.5155  0.6558
 6565TIP3   OH219658   3.189   1.601   4.449 -0.1184  0.2046 -0.5541
 6565TIP3    H119659   3.165   1.558   4.531 -0.0423  2.5451  0.7738
 6565TIP3    H219660   3.115   1.584   4.390 -1.4316  0.7061  0.8898
 6566TIP3   OH219661   0.189   2.952   2.559 -0.9004  0.0596  0.1901
 6566TIP3    H119662   0.244   2.881   2.526  0.7674  0.0360  2.7133
 6566TIP3    H219663   0.130   2.909   2.622 -1.0246  0.6822  0.5034
 6567TIP3   OH219664   4.190   2.157   4.019  0.2843  0.0408 -0.7978
 6567TIP3    H119665   4.231   2.230   4.065 -0.2588  0.2140 -0.5797
 6567TIP3    H219666   4.261   2.119   3.967  0.5107  0.9009 -1.1364
 6568TIP3   OH219667   1.357   1.334   2.138  0.2787 -0.5881 -0.0613
 6568TIP3    H119668   1.273   1.328   2.093  0.0800  3.1672 -0.5417
 6568TIP3    H219669   1.339   1.305   2.227 -1.2208 -0.9725 -0.4665
 6569TIP3   OH219670   0.894   5.021   5.569 -0.1025  0.5188 -0.5426
 6569TIP3    H119671   0.971   4.980   5.529  0.5840  1.0546  0.1907
 6569TIP3    H219672   0.828   4.952   5.571  1.4435 -1.0512  1.9275
 6570TIP3   OH219673   1.277   3.736   3.655  0.2653  0.4896 -0.3164
 6570TIP3    H119674   1.260   3.715   3.747  0.5085 -0.0824 -0.3990
 6570TIP3    H219675   1.258   3.655   3.608  2.6107 -0.0269 -0.4816
 6571TIP3   OH219676   2.477   1.182   3.341  0.4415 -0.3374  0.9667
 6571TIP3    H119677   2.568   1.201   3.360  0.6695 -1.3094  0.9176
 6571TIP3    H219678   2.433   1.267   3.341  1.7926  0.4475 -1.5408
 6572TIP3   OH219679   3.351   1.013   5.154  0.7179  0.1287  0.2294
 6572TIP3    H119680   3.287   0.942   5.143  0.0222  0.4017  2.0619
 6572TIP3    H219681   3.385   1.000   5.243  1.8676  1.0763 -0.0518
 6573TIP3   OH219682   6.473   5.551   2.053 -0.5517  0.0184 -0.0544
 6573TIP3    H119683   6.485   5.639   2.088  0.5934  0.3235 -1.1660
 6573TIP3    H219684   6.534   5.497   2.104 -1.7897 -0.3189  1.1509
 6574TIP3   OH219685   0.511   5.833   1.634  0.3016 -0.1500  0.4166
 6574TIP3    H119686   0.448   5.806   1.567 -0.6611 -0.2805  1.3416
 6574TIP3    H219687   0.544   5.750   1.670  1.4422 -0.0891 -0.4388
 6575TIP3   OH219688   3.126   6.128   2.475 -0.1601  0.3149  0.5855
 6575TIP3    H119689   3.141   6.083   2.558 -0.3830 -0.1548  0.3784
 6575TIP3    H219690   3.043   6.091   2.444 -0.1425  0.5864  0.2214
 6576TIP3   OH219691   3.686   3.941   1.646 -0.2808  0.2617 -0.6508
 6576TIP3    H119692   3.683   3.879   1.718 -0.0396  1.7500  0.7090
 6576TIP3    H219693   3.750   3.905   1.586  1.0803 -0.0272  0.8939
 6577TIP3   OH219694   5.561   5.589   0.805  0.0010  0.1897  0.5719
 6577TIP3    H119695   5.490   5.651   0.789  0.0021  0.5332  1.8392
 6577TIP3    H219696   5.639   5.633   0.771  0.0818  1.1096  1.9112
 6578TIP3   OH219697   0.382   4.673   1.864 -0.5584  0.4754  0.2623
 6578TIP3    H119698   0.415   4.716   1.942  0.7873 -1.0559  0.5927
 6578TIP3    H219699   0.289   4.656   1.883 -0.1254 -0.3309  1.7554
 6579TIP3   OH219700   3.192   6.614   4.555 -0.4857 -0.3938 -0.0264
 6579TIP3    H119701   3.098   6.598   4.540 -0.5799  1.4277 -1.8165
 6579TIP3    H219702   3.196   6.705   4.584  0.5285 -1.3805  3.3983
 6580TIP3   OH219703   4.186   4.053   2.052 -0.4244 -0.0390  0.4117
 6580TIP3    H119704   4.204   4.031   1.961 -0.2747  1.0564  0.1663
 6580TIP3    H219705   4.160   4.145   2.050 -0.9745 -0.1558  1.4100
 6581TIP3   OH219706   0.117   3.218   2.604  0.0384  0.0644  0.1566
 6581TIP3    H119707   0.167   3.138   2.621  1.5363  1.0990  0.9296
 6581TIP3    H219708   0.174   3.270   2.547 -0.6997  0.7629  0.0357
 6582TIP3   OH219709   5.769   1.916   4.856  0.4825 -0.0661  0.2313
 6582TIP3    H119710   5.770   1.842   4.795 -2.4393  0.9073 -1.1798
 6582TIP3    H219711   5.699   1.894   4.918 -0.2819  1.3660 -0.0817
 6583TIP3   OH219712   0.147   5.848   0.247 -0.4024 -0.3178  0.1489
 6583TIP3    H119713   0.107   5.908   0.310  0.5161  0.5983 -0.1053
 6583TIP3    H219714   0.240   5.871   0.248 -0.1706 -1.1689 -0.5872
 6584TIP3   OH219715   3.379   1.842   3.716  0.8976  0.7267 -0.1189
 6584TIP3    H119716   3.420   1.762   3.748  0.0553 -0.0962 -0.9965
 6584TIP3    H219717   3.385   1.903   3.789  0.5339 -0.5206  1.0069
 6585TIP3   OH219718   6.608   6.049   2.240 -0.0023 -0.3295 -0.0085
 6585TIP3    H119719   6.666   6.064   2.165  0.4467  2.1467  0.7481
 6585TIP3    H219720   6.528   6.098   2.219  0.1192  0.3760  1.0959
 6586TIP3   OH219721   6.734   2.458   2.550 -0.6977 -0.3159 -0.0039
 6586TIP3    H119722   6.767   2.536   2.507 -4.8813  1.9239  0.3085
 6586TIP3    H219723   6.699   2.404   2.479  1.0663 -1.4026 -0.1034
 6587TIP3   OH219724   1.301   4.414   0.535  0.3265 -0.7008 -0.5117
 6587TIP3    H119725   1.383   4.448   0.498 -0.4609  1.6808 -0.2849
 6587TIP3    H219726   1.242   4.490   0.536 -1.6757 -2.1661 -0.0285
 6588TIP3   OH219727   3.966   5.440   4.793 -0.5768  0.0958 -0.0213
 6588TIP3    H119728   3.976   5.406   4.704  0.7393  0.1984  0.0657
 6588TIP3    H219729   4.017   5.521   4.793 -0.1424 -0.1707  0.9690
 6589TIP3   OH219730   4.889   6.555   2.006 -0.1842 -0.5014  0.3236
 6589TIP3    H119731   4.872   6.504   2.085  0.6161 -1.4621 -0.1063
 6589TIP3    H219732   4.819   6.530   1.946 -0.0586 -0.7355  0.2756
 6590TIP3   OH219733   0.821   0.083   3.897  0.2338 -0.1814  0.6801
 6590TIP3    H119734   0.893   0.062   3.956  0.5703  0.7920  0.6323
 6590TIP3    H219735   0.855   0.154   3.842 -1.3867  1.6913  1.9675
 6591TIP3   OH219736   5.383   6.377   1.590 -0.5216  0.2724  0.0946
 6591TIP3    H119737   5.333   6.453   1.622 -1.9960 -0.9078  0.7301
 6591TIP3    H219738   5.402   6.326   1.669  1.5461  0.5704 -0.1762
 6592TIP3   OH219739   0.932   6.266   3.998  0.0199 -0.0345 -0.2426
 6592TIP3    H119740   0.879   6.201   3.952 -0.8941  1.4278 -1.3388
 6592TIP3    H219741   0.973   6.217   4.070 -0.6828 -1.7856 -0.9745
 6593TIP3   OH219742   6.541   1.561   5.199 -0.3296  0.2253 -0.2888
 6593TIP3    H119743   6.452   1.530   5.214  0.0325 -0.3122  0.8473
 6593TIP3    H219744   6.532   1.656   5.193 -1.1086  0.1150 -1.2980
 6594TIP3   OH219745   0.372   4.192   5.375  0.1439  0.0485  0.5751
 6594TIP3    H119746   0.466   4.178   5.374  0.0952 -0.3222  1.0481
 6594TIP3    H219747   0.361   4.279   5.414  0.2579 -0.2051  1.1810
 6595TIP3   OH219748   1.770   1.069   1.897  0.1329 -0.2251 -0.4585
 6595TIP3    H119749   1.733   1.142   1.946 -0.0399 -0.0817 -0.7950
 6595TIP3    H219750   1.740   0.991   1.943  1.6328 -0.0735  0.8399
 6596TIP3   OH219751   1.304   1.850   4.880  0.1960  0.0936 -0.1839
 6596TIP3    H119752   1.279   1.937   4.848 -1.6913 -0.6856 -0.9772
 6596TIP3    H219753   1.259   1.841   4.964  0.0956 -0.2509 -0.2727
 6597TIP3   OH219754   6.118   3.858   4.564  0.1757 -0.1771  0.1426
 6597TIP3    H119755   6.199   3.836   4.518 -0.2612  1.0201 -1.2725
 6597TIP3    H219756   6.049   3.817   4.512 -0.1516 -1.2271  1.3621
 6598TIP3   OH219757   1.515   4.102   5.643 -0.0421 -0.3973  0.0256
 6598TIP3    H119758   1.556   4.021   5.673  1.8930  0.7771  0.7533
 6598TIP3    H219759   1.484   4.144   5.724  0.8787  0.5391 -0.0816
 6599TIP3   OH219760   2.715   4.947   1.249  0.9861 -0.1910  0.2577
 6599TIP3    H119761   2.634   4.988   1.278  0.1991 -0.9608 -0.7868
 6599TIP3    H219762   2.770   5.020   1.221 -0.2242  0.2217 -1.1704
 6600TIP3   OH219763   2.125   4.514   1.933 -0.2275  0.5400  0.0301
 6600TIP3    H119764   2.035   4.543   1.916  0.4663  2.4924 -0.5399
 6600TIP3    H219765   2.162   4.580   1.990  0.1783 -1.4710  2.2503
 6601TIP3   OH219766   6.206   4.130   4.332 -0.4464 -0.9603 -0.3519
 6601TIP3    H119767   6.223   4.140   4.426  0.2297 -1.8231 -0.3709
 6601TIP3    H219768   6.209   4.036   4.316 -0.9127 -0.8507 -1.1846
 6602TIP3   OH219769   0.843   2.122   5.844 -0.3652 -0.6239  0.1708
 6602TIP3    H119770   0.865   2.208   5.808  0.1595 -0.4904  0.8047
 6602TIP3    H219771   0.750   2.128   5.865 -0.2790 -0.1378  0.4245
 6603TIP3   OH219772   2.365   2.262   1.545  0.3093 -0.3299  0.0850
 6603TIP3    H119773   2.306   2.237   1.474  2.2550 -2.1947 -1.0014
 6603TIP3    H219774   2.406   2.343   1.516 -1.7789  1.1235  0.9610
 6604TIP3   OH219775   3.582   6.153   5.158 -0.0651  0.2527 -0.1004
 6604TIP3    H119776   3.594   6.202   5.076 -2.1190 -0.7758 -1.1033
 6604TIP3    H219777   3.490   6.126   5.156  0.2610 -1.1892  1.7916
 6605TIP3   OH219778   7.140   1.320   5.648 -0.6306  0.3950 -0.8872
 6605TIP3    H119779   7.191   1.271   5.713 -0.0999  0.6051 -1.1390
 6605TIP3    H219780   7.066   1.262   5.627 -0.0649 -0.2607 -1.1134
 6606TIP3   OH219781   2.195   3.131   5.272  0.3189 -0.5497 -0.3813
 6606TIP3    H119782   2.101   3.132   5.291  0.1984  0.5781 -0.9500
 6606TIP3    H219783   2.236   3.141   5.358 -0.0560 -1.5458 -0.0714
 6607TIP3   OH219784   6.425   1.112   1.680  0.9996 -0.0257 -0.1728
 6607TIP3    H119785   6.405   1.092   1.589  2.1112 -1.7124 -0.0882
 6607TIP3    H219786   6.340   1.123   1.722  0.4704  0.2028 -1.2816
 6608TIP3   OH219787   4.106   1.874   0.713 -0.0252  0.0451 -0.0539
 6608TIP3    H119788   4.139   1.849   0.627  0.3273  1.6150 -0.4085
 6608TIP3    H219789   4.116   1.796   0.766  2.8077 -0.0630 -0.5892
 6609TIP3   OH219790   5.487   6.445   0.795 -0.0249 -0.0505 -0.1970
 6609TIP3    H119791   5.544   6.428   0.871  0.1565 -1.0954 -0.5407
 6609TIP3    H219792   5.548   6.465   0.724 -0.1594  0.2807 -0.2163
 6610TIP3   OH219793   3.452   3.464   5.700 -0.0324  0.0575 -0.4093
 6610TIP3    H119794   3.371   3.436   5.660  0.7844  0.3257 -2.3523
 6610TIP3    H219795   3.428   3.487   5.790 -1.6160 -2.1646 -0.1821
 6611TIP3   OH219796   4.662   4.159   0.329  0.0356 -1.1153 -0.6092
 6611TIP3    H119797   4.588   4.103   0.306  0.6680 -1.7830 -1.0835
 6611TIP3    H219798   4.692   4.126   0.414  0.0211 -1.0899 -0.5943
 6612TIP3   OH219799   0.721   5.577   2.627 -0.8080 -0.2692 -0.5023
 6612TIP3    H119800   0.717   5.669   2.599  1.7263 -0.2196 -0.9386
 6612TIP3    H219801   0.747   5.581   2.719 -1.0273 -0.5442 -0.4283
 6613TIP3   OH219802   0.489   1.417   3.898  0.2584 -0.2560  0.2452
 6613TIP3    H119803   0.444   1.379   3.823  0.3815 -0.3128  0.1989
 6613TIP3    H219804   0.582   1.413   3.874  0.4306 -1.7181  1.0420
 6614TIP3   OH219805   6.519   4.668   4.847  0.8088  0.2412  0.0189
 6614TIP3    H119806   6.517   4.659   4.943  1.9719 -3.5708 -0.1457
 6614TIP3    H219807   6.608   4.644   4.823 -0.0510 -1.0422 -2.1298
 6615TIP3   OH219808   4.991   0.552   4.603  0.2340  0.4211  0.5441
 6615TIP3    H119809   4.965   0.568   4.694  1.1333  0.4902  0.7910
 6615TIP3    H219810   4.939   0.616   4.553 -1.1554 -0.4053  0.8709
 6616TIP3   OH219811   0.635   5.406   5.110 -0.0546  0.1280  0.6666
 6616TIP3    H119812   0.632   5.502   5.115  0.6118  0.2360 -0.5595
 6616TIP3    H219813   0.699   5.388   5.041 -0.9187 -1.1816  0.1826
 6617TIP3   OH219814   7.012   2.483   5.371  0.0388 -0.6703 -0.9471
 6617TIP3    H119815   7.007   2.579   5.365  0.4888 -0.5695  0.1757
 6617TIP3    H219816   6.944   2.452   5.310 -0.6803  0.3741 -0.6971
 6618TIP3   OH219817   1.476   2.139   3.464 -0.7001 -0.1447 -0.1736
 6618TIP3    H119818   1.564   2.123   3.499 -0.3046 -2.0668 -1.8204
 6618TIP3    H219819   1.491   2.176   3.377 -1.4791 -0.8649 -0.6331
 6619TIP3   OH219820   0.646   1.639   3.107  0.3684 -0.3448 -0.8300
 6619TIP3    H119821   0.593   1.677   3.177  1.5338 -1.5911  0.8108
 6619TIP3    H219822   0.582   1.602   3.046 -0.7245  2.5641 -1.5712
 6620TIP3   OH219823   1.099   1.297   2.057  0.6697  0.1454  0.1117
 6620TIP3    H119824   1.041   1.292   2.133  0.6813 -0.6614  0.0727
 6620TIP3    H219825   1.044   1.333   1.987 -0.1358 -1.7072 -0.2496
 6621TIP3   OH219826   5.996   0.590   4.367 -0.2537  0.1571 -0.0975
 6621TIP3    H119827   6.029   0.501   4.377 -0.1156  0.2366  0.1837
 6621TIP3    H219828   5.911   0.580   4.324 -0.0009 -0.0722 -0.5494
 6622TIP3   OH219829   4.238   4.891   3.434  0.2025  0.0910  0.4029
 6622TIP3    H119830   4.177   4.924   3.368  0.6267 -0.8025 -0.4517
 6622TIP3    H219831   4.305   4.959   3.441  0.4133 -0.0162 -0.4459
 6623TIP3   OH219832   4.718   0.779   0.085  0.5836  0.2588  0.3439
 6623TIP3    H119833   4.718   0.858   0.031 -0.9385  0.4051  0.4926
 6623TIP3    H219834   4.653   0.722   0.042  0.1864 -0.0810  1.3659
 6624TIP3   OH219835   5.213   6.180   0.283  0.2057  0.5720 -0.3373
 6624TIP3    H119836   5.307   6.196   0.292  0.5283 -1.1937 -0.2586
 6624TIP3    H219837   5.198   6.176   0.189  0.6097 -1.0885 -0.3646
 6625TIP3   OH219838   0.174   4.221   1.312  0.1530 -0.0999 -0.2876
 6625TIP3    H119839   0.197   4.150   1.373  1.3256 -2.9254 -3.6368
 6625TIP3    H219840   0.079   4.219   1.308  0.1312 -0.9274  0.3166
 6626TIP3   OH219841   0.991   4.392   5.149  0.1842  0.6201 -0.4601
 6626TIP3    H119842   0.937   4.450   5.202 -2.3631 -0.0079 -2.1783
 6626TIP3    H219843   0.985   4.428   5.060  0.9704 -0.6300 -1.0501
 6627TIP3   OH219844   3.618   1.837   1.613 -0.4290 -0.2652  0.2199
 6627TIP3    H119845   3.562   1.914   1.605 -0.3558 -0.2887 -0.5855
 6627TIP3    H219846   3.641   1.833   1.706  0.5964  1.4258  0.0814
 6628TIP3   OH219847   4.861   0.094   5.609 -0.4963 -0.0993 -0.0371
 6628TIP3    H119848   4.891   0.184   5.601 -0.9498 -0.0276 -1.1838
 6628TIP3    H219849   4.921   0.044   5.553 -1.7813 -0.1070 -1.4814
 6629TIP3   OH219850   7.040   6.780   5.189 -0.4017  0.3879  0.3936
 6629TIP3    H119851   6.974   6.776   5.120  0.9285  0.7995 -0.9422
 6629TIP3    H219852   7.069   6.690   5.201 -1.9176  0.0419  1.7397
 6630TIP3   OH219853   6.070   3.313   1.175  0.2150 -0.2068  0.1999
 6630TIP3    H119854   6.122   3.243   1.135  0.0607  1.2838 -2.8746
 6630TIP3    H219855   5.981   3.299   1.143  0.0092  0.8851  0.2659
 6631TIP3   OH219856   2.785   5.363   5.245  0.1806  0.1008 -0.3186
 6631TIP3    H119857   2.713   5.303   5.261  0.1639  0.3913  0.7802
 6631TIP3    H219858   2.750   5.449   5.269  0.8633  0.2533  0.1476
 6632TIP3   OH219859   4.021   0.380   3.140  0.8820  0.0558 -0.0982
 6632TIP3    H119860   4.000   0.472   3.125 -0.8019 -0.6701 -2.9729
 6632TIP3    H219861   3.982   0.360   3.226  0.6597  1.8234  0.2429
 6633TIP3   OH219862   0.888   6.337   2.018 -0.2828  0.5241 -0.1839
 6633TIP3    H119863   0.878   6.339   1.923 -1.7091 -1.1327 -0.1119
 6633TIP3    H219864   0.815   6.391   2.051 -0.5171  0.1032 -0.0083
 6634TIP3   OH219865   0.748   3.307   2.009  0.2724  0.4846 -0.0926
 6634TIP3    H119866   0.802   3.385   2.025  1.5444  0.1142 -2.2203
 6634TIP3    H219867   0.678   3.337   1.952  1.1453 -0.0106 -1.4725
 6635TIP3   OH219868   4.799   6.090   1.280  0.1084 -0.4423 -0.2167
 6635TIP3    H119869   4.769   6.082   1.190 -1.5860  0.4324  0.2292
 6635TIP3    H219870   4.845   6.174   1.282  0.8291 -0.8251 -0.4303
 6636TIP3   OH219871   1.596   2.641   5.089 -0.6834 -0.4304 -0.3004
 6636TIP3    H119872   1.650   2.575   5.046 -1.2156 -0.4338 -0.9716
 6636TIP3    H219873   1.511   2.600   5.100 -0.6685 -0.2932  0.4246
 6637TIP3   OH219874   1.162   1.869   5.122 -0.3383  0.1328 -0.8427
 6637TIP3    H119875   1.140   1.810   5.194 -0.1662  1.8512  0.6972
 6637TIP3    H219876   1.087   1.928   5.115  0.2119  0.8171 -1.1564
 6638TIP3   OH219877   3.757   6.474   0.280 -0.4816 -0.3646  0.5551
 6638TIP3    H119878   3.812   6.538   0.325  0.0112 -0.6837  0.4122
 6638TIP3    H219879   3.763   6.396   0.335  0.4797 -0.9000 -0.2864
 6639TIP3   OH219880   6.393   1.566   3.767 -0.2493  0.1274 -0.3023
 6639TIP3    H119881   6.329   1.622   3.810 -0.1880 -0.1618  0.1725
 6639TIP3    H219882   6.345   1.487   3.743  0.1100 -0.4549  0.8275
 6640TIP3   OH219883   3.839   2.746   1.277  0.0819  0.1559  0.2649
 6640TIP3    H119884   3.892   2.678   1.236  1.2951  1.1155  0.1746
 6640TIP3    H219885   3.863   2.742   1.370 -0.2935  0.0751  0.3604
 6641TIP3   OH219886   1.146   5.765   4.385  0.3900 -0.2213 -0.4411
 6641TIP3    H119887   1.189   5.689   4.423 -0.1567 -0.4041 -0.1805
 6641TIP3    H219888   1.053   5.741   4.382  0.0661  0.7929  0.5557
 6642TIP3   OH219889   1.138   1.437   0.199  0.0896  0.4640  0.6968
 6642TIP3    H119890   1.060   1.426   0.253 -0.5047  0.8283 -0.0497
 6642TIP3    H219891   1.106   1.425   0.109  1.2850 -1.3565  0.4845
 6643TIP3   OH219892   4.984   0.928   4.855 -0.3704 -0.2223 -0.2858
 6643TIP3    H119893   5.013   0.849   4.900  1.2181  0.6100  0.2418
 6643TIP3    H219894   4.893   0.940   4.884 -0.3578 -1.3840  0.2857
 6644TIP3   OH219895   0.506   0.665   1.478  0.0118 -0.5939 -0.1591
 6644TIP3    H119896   0.594   0.629   1.491 -0.0643 -0.2467  1.6074
 6644TIP3    H219897   0.459   0.597   1.432  1.1508 -0.8683 -0.9595
 6645TIP3   OH219898   0.303   1.128   1.675 -1.0775  0.3696  0.6402
 6645TIP3    H119899   0.361   1.177   1.734 -0.4597 -0.9417  1.1621
 6645TIP3    H219900   0.355   1.052   1.648 -1.5716  0.6013 -1.1105
 6646TIP3   OH219901   5.040   2.373   0.901  0.0628 -0.6131  0.2519
 6646TIP3    H119902   5.031   2.389   0.995  0.3767  0.9162  0.0464
 6646TIP3    H219903   4.978   2.303   0.882 -0.7487 -0.2313  1.4150
 6647TIP3   OH219904   5.043   0.300   5.537  0.1135  0.1296 -0.2867
 6647TIP3    H119905   5.041   0.270   5.447 -0.6699 -0.8842  0.0571
 6647TIP3    H219906   5.110   0.245   5.579 -0.5917 -0.4430  0.0984
 6648TIP3   OH219907   2.715   0.390   2.841  0.7436 -0.9664  0.0871
 6648TIP3    H119908   2.749   0.307   2.809  4.2499  0.9243 -1.6849
 6648TIP3    H219909   2.783   0.425   2.897 -0.2509  1.0654  0.1346
 6649TIP3   OH219910   6.353   3.919   1.952 -0.3367  0.0618  0.0158
 6649TIP3    H119911   6.422   3.899   1.889 -0.1069  1.2957 -0.1411
 6649TIP3    H219912   6.395   3.912   2.037  0.8970  3.7640 -0.1230
 6650TIP3   OH219913   3.994   0.424   2.352  0.5510  0.1930 -0.6876
 6650TIP3    H119914   3.985   0.340   2.308  1.2053  0.1772 -0.8017
 6650TIP3    H219915   3.908   0.465   2.343  0.3651 -0.2660 -1.0404
 6651TIP3   OH219916   3.879   2.082   3.222  0.3703 -0.1126 -0.2646
 6651TIP3    H119917   3.910   2.094   3.132 -0.6813 -0.1389 -0.6417
 6651TIP3    H219918   3.853   1.990   3.226  0.6719 -0.1806  0.1556
 6652TIP3   OH219919   0.607   5.259   2.692  0.7272  0.5121 -0.1321
 6652TIP3    H119920   0.549   5.191   2.658 -0.4949  1.2913  0.3288
 6652TIP3    H219921   0.643   5.222   2.772  2.1336 -0.5836 -1.2138
 6653TIP3   OH219922   4.585   4.126   2.744  0.3431 -0.4477 -0.1377
 6653TIP3    H119923   4.603   4.086   2.658  3.5605  1.1711 -0.3754
 6653TIP3    H219924   4.521   4.068   2.784 -3.0576 -0.1376 -4.3988
 6654TIP3   OH219925   2.933   5.674   1.925 -0.1151  0.0736 -0.2563
 6654TIP3    H119926   3.025   5.676   1.896  0.6667  0.9073  2.0511
 6654TIP3    H219927   2.932   5.728   2.003 -2.1474 -1.7173  1.0546
 6655TIP3   OH219928   1.447   1.745   3.835  0.1063  0.1544 -0.1777
 6655TIP3    H119929   1.381   1.712   3.774 -0.8024 -2.6692  2.0721
 6655TIP3    H219930   1.404   1.817   3.881  0.0673  0.9453 -1.4383
 6656TIP3   OH219931   0.336   1.196   0.942 -0.0909  0.5779 -0.1440
 6656TIP3    H119932   0.329   1.205   0.847  0.2237 -4.0927 -0.8583
 6656TIP3    H219933   0.254   1.232   0.976 -1.1955  0.4307 -2.4552
 6657TIP3   OH219934   1.751   4.665   3.923 -0.8587  0.3785 -0.1862
 6657TIP3    H119935   1.823   4.619   3.879 -1.0175 -0.9055  0.8493
 6657TIP3    H219936   1.771   4.758   3.910  0.6925  0.0453 -0.3869
 6658TIP3   OH219937   6.000   5.947   2.560 -0.2781 -0.2807  0.6465
 6658TIP3    H119938   6.009   6.003   2.637 -0.4841 -0.3332  0.7096
 6658TIP3    H219939   5.941   5.996   2.502  0.2445 -0.0272  0.3207
 6659TIP3   OH219940   3.492   3.731   3.186 -0.3165 -0.2219  0.0743
 6659TIP3    H119941   3.413   3.702   3.232  0.0661  1.0199  1.6010
 6659TIP3    H219942   3.564   3.691   3.235  0.0700  0.5763  0.1835
 6660TIP3   OH219943   3.607   1.202   0.587  0.1908  0.0793  0.0251
 6660TIP3    H119944   3.667   1.131   0.610 -0.0010  0.0331  0.4056
 6660TIP3    H219945   3.524   1.158   0.567  0.3423  0.1250 -0.7284
 6661TIP3   OH219946   3.259   5.308   5.317  1.0996  0.3066 -0.3820
 6661TIP3    H119947   3.278   5.370   5.387 -0.5879  0.7545 -0.2816
 6661TIP3    H219948   3.176   5.337   5.281 -0.8006 -2.9535  0.9153
 6662TIP3   OH219949   4.720   4.476   0.725 -0.4650 -0.3550 -0.3019
 6662TIP3    H119950   4.811   4.499   0.707  0.7475 -2.1362  2.7524
 6662TIP3    H219951   4.681   4.556   0.759  0.6163 -0.1095  0.3872
 6663TIP3   OH219952   0.442   6.000   0.551 -0.1602 -0.1545 -0.6326
 6663TIP3    H119953   0.400   5.921   0.584  1.4989 -0.6362  0.4714
 6663TIP3    H219954   0.401   6.071   0.599 -0.4385 -0.5086 -0.3416
 6664TIP3   OH219955   3.478   0.922   0.313  0.3691  0.4550 -0.4512
 6664TIP3    H119956   3.413   0.852   0.308  0.9796 -0.0809 -1.0837
 6664TIP3    H219957   3.428   1.002   0.298 -0.2709  0.1199 -0.1429
 6665TIP3   OH219958   4.531   4.033   5.159 -0.7915 -0.2976 -0.5786
 6665TIP3    H119959   4.626   4.040   5.155 -0.7902  1.2497  0.7212
 6665TIP3    H219960   4.500   4.089   5.088 -0.7810 -1.8608 -1.8814
 6666TIP3   OH219961   2.950   6.491   0.434  0.1282  0.2994 -0.3740
 6666TIP3    H119962   2.908   6.545   0.502 -1.0850 -0.1450 -0.7382
 6666TIP3    H219963   2.885   6.423   0.415  1.1191 -0.5336 -0.8342
 6667TIP3   OH219964   0.419   3.263   1.098  0.2518  0.0783 -0.1045
 6667TIP3    H119965   0.383   3.303   1.018 -0.0719 -1.7754 -0.9319
 6667TIP3    H219966   0.374   3.179   1.105  2.3954 -1.0757  0.4099
 6668TIP3   OH219967   4.049   6.620   3.255 -0.6871 -0.1698  0.1010
 6668TIP3    H119968   4.101   6.597   3.332 -3.0724 -1.8049  1.3038
 6668TIP3    H219969   4.085   6.566   3.184 -0.8306 -1.3776  0.9396
 6669TIP3   OH219970   5.944   0.153   0.428 -0.4267 -0.0177 -0.7028
 6669TIP3    H119971   5.886   0.151   0.504 -0.5228 -1.6040 -0.7982
 6669TIP3    H219972   5.976   0.063   0.420  1.5882  0.6855 -1.0141
 6670TIP3   OH219973   6.168   4.337   1.429 -0.1551 -0.2268 -0.1991
 6670TIP3    H119974   6.257   4.354   1.458  0.4385 -1.4065 -1.2381
 6670TIP3    H219975   6.139   4.261   1.481 -0.2800 -0.3016 -0.3746
 6671TIP3   OH219976   3.782   1.371   0.814  0.7329 -0.3188  0.5755
 6671TIP3    H119977   3.695   1.333   0.819  1.3590 -1.7444  1.2446
 6671TIP3    H219978   3.833   1.308   0.763  1.0588  1.1795 -1.0446
 6672TIP3   OH219979   6.248   6.359   5.857 -0.2386 -0.0659 -0.2071
 6672TIP3    H119980   6.316   6.331   5.919  0.6176  0.0883 -1.0629
 6672TIP3    H219981   6.167   6.354   5.908  0.4137 -0.1595  0.8639
 6673TIP3   OH219982   0.176   2.482   4.764  0.0313  0.1510  0.3895
 6673TIP3    H119983   0.265   2.517   4.765  0.0888  0.1766 -1.6704
 6673TIP3    H219984   0.128   2.537   4.826  1.5562 -0.2520  1.9956
 6674TIP3   OH219985   6.710   2.877   0.368 -0.1985 -0.1451 -0.3052
 6674TIP3    H119986   6.715   2.787   0.400 -0.8247 -0.0001  0.2108
 6674TIP3    H219987   6.645   2.919   0.424  0.0244  0.6072 -0.6021
 6675TIP3   OH219988   0.558   5.670   5.117  0.0096  0.5706 -0.2432
 6675TIP3    H119989   0.530   5.710   5.035 -0.3465  0.8221 -0.0016
 6675TIP3    H219990   0.535   5.734   5.185 -0.2329  0.1229  0.1089
 6676TIP3   OH219991   0.094   6.791   5.338 -0.1674  0.4465 -0.4490
 6676TIP3    H119992   0.020   6.829   5.292  2.0130  2.6842 -2.3842
 6676TIP3    H219993   0.136   6.733   5.274 -0.3066 -0.9777  0.6860
 6677TIP3   OH219994   6.291   4.979   0.636 -0.2578  0.7966  0.2149
 6677TIP3    H119995   6.197   4.962   0.626 -0.2535  1.5788 -1.5055
 6677TIP3    H219996   6.326   4.897   0.671 -1.4430  0.1472 -0.0496
 6678TIP3   OH219997   6.523   0.882   3.840 -0.1236 -0.0796 -0.0347
 6678TIP3    H119998   6.583   0.854   3.910  0.9201  0.5581 -0.6352
 6678TIP3    H219999   6.454   0.930   3.886  0.2622 -0.1305  0.6163
 6679TIP3   OH220000   4.748   2.269   3.522 -0.0722 -0.2010 -0.1509
 6679TIP3    H120001   4.830   2.237   3.559  0.9281 -0.9358 -2.7610
 6679TIP3    H220002   4.774   2.324   3.449 -1.9168  1.8374  0.5985
 6680TIP3   OH220003   2.776   6.416   3.815  0.3401 -0.6840 -0.1293
 6680TIP3    H120004   2.807   6.326   3.812  0.5677 -0.6670  1.1833
 6680TIP3    H220005   2.726   6.422   3.896  0.8046  0.5149  0.0941
 6681TIP3   OH220006   2.463   5.866   1.092  0.9091 -0.2205  0.2218
 6681TIP3    H120007   2.500   5.778   1.104  0.0436 -0.3749  1.9862
 6681TIP3    H220008   2.374   5.850   1.061  1.0521  0.0678 -0.3481
 6682TIP3   OH220009   0.613   4.308   5.901  0.1190  0.1129  0.0625
 6682TIP3    H120010   0.582   4.248   5.969 -1.5559 -0.2112 -0.9290
 6682TIP3    H220011   0.580   4.270   5.820  0.9685  1.1947 -0.8033
 6683TIP3   OH220012   3.014   1.749   1.877  0.1168 -0.2516 -1.1323
 6683TIP3    H120013   3.053   1.710   1.955  1.9619 -2.4799 -2.9898
 6683TIP3    H220014   2.944   1.687   1.853 -0.1765  0.2066 -1.4593
 6684TIP3   OH220015   4.929   4.483   2.550 -0.2146 -0.0643 -0.1654
 6684TIP3    H120016   4.950   4.460   2.641  1.9545 -0.6808 -0.7525
 6684TIP3    H220017   4.849   4.435   2.531  0.9774 -2.4758  0.5068
 6685TIP3   OH220018   1.363   1.811   2.557 -0.1548 -0.1906  0.6610
 6685TIP3    H120019   1.322   1.807   2.643  1.3704 -2.9200  1.4009
 6685TIP3    H220020   1.341   1.728   2.516  0.4336  0.4113 -0.9678
 6686TIP3   OH220021   6.284   2.513   0.376  0.1947  0.1746 -0.6003
 6686TIP3    H120022   6.285   2.481   0.286  1.0379 -2.4665  0.2621
 6686TIP3    H220023   6.215   2.463   0.420  0.4541  0.6999  0.4578
 6687TIP3   OH220024   5.660   6.117   3.916  0.0486 -0.2221  0.2426
 6687TIP3    H120025   5.723   6.066   3.967  0.4329 -0.4241 -0.4186
 6687TIP3    H220026   5.601   6.051   3.880 -0.1100 -0.0966  0.2739
 6688TIP3   OH220027   3.914   5.356   1.293 -0.0733 -0.3301  0.5351
 6688TIP3    H120028   3.907   5.403   1.376  2.5437  2.5402 -0.6752
 6688TIP3    H220029   3.975   5.284   1.311 -0.2492 -0.2944  1.3001
 6689TIP3   OH220030   1.143   0.487   1.468 -0.6375 -0.0374  0.3961
 6689TIP3    H120031   1.090   0.408   1.476 -1.2024  0.3004  0.1344
 6689TIP3    H220032   1.225   0.458   1.428 -1.6036 -0.2053 -1.6111
 6690TIP3   OH220033   0.050   4.813   3.658  0.0806 -0.0077 -0.1560
 6690TIP3    H120034  -0.012   4.879   3.626 -0.3532 -1.0285 -1.4976
 6690TIP3    H220035   0.082   4.769   3.579 -0.6191 -2.2720  0.7459
 6691TIP3   OH220036   3.079   1.718   2.427 -0.2842  0.0217  0.7718
 6691TIP3    H120037   3.038   1.789   2.478 -0.0889 -0.6634  1.9240
 6691TIP3    H220038   3.118   1.661   2.493 -0.3798 -1.1378 -0.1392
 6692TIP3   OH220039   4.110   2.353   1.806  0.3077  0.5648 -0.0406
 6692TIP3    H120040   4.169   2.379   1.735  0.4784 -0.0279 -0.1220
 6692TIP3    H220041   4.154   2.280   1.849 -0.6426 -0.3140 -0.5012
 6693TIP3   OH220042   2.143   6.400   1.006  0.3473 -0.3580 -0.0645
 6693TIP3    H120043   2.187   6.348   1.073 -0.0665  2.5313  2.7112
 6693TIP3    H220044   2.050   6.390   1.024  0.0015 -1.9401 -2.2960
 6694TIP3   OH220045   4.272   3.399   5.723  0.5421 -0.3870  0.0383
 6694TIP3    H120046   4.217   3.364   5.794  0.6435  0.9551  0.8139
 6694TIP3    H220047   4.343   3.444   5.768  0.6368  0.4425 -0.9129
 6695TIP3   OH220048   2.259   0.389   2.038 -0.0222 -0.3026  0.2763
 6695TIP3    H120049   2.351   0.378   2.063  0.7275  1.6699 -1.2945
 6695TIP3    H220050   2.252   0.344   1.953  0.1840  1.5431 -0.7705
 6696TIP3   OH220051   3.368   1.768   4.117  0.0522  0.5436  0.2516
 6696TIP3    H120052   3.419   1.829   4.064 -0.1474  1.2111  0.8016
 6696TIP3    H220053   3.371   1.686   4.069  1.2487  0.6960  0.0388
 6697TIP3   OH220054   0.321   2.416   0.937 -0.2537 -0.2494 -0.0525
 6697TIP3    H120055   0.227   2.426   0.947 -0.1009  1.8167 -0.3017
 6697TIP3    H220056   0.344   2.346   0.998 -1.5884  0.9760  1.9910
 6698TIP3   OH220057   7.110   3.334   3.191  0.4717 -0.0110  0.0914
 6698TIP3    H120058   7.170   3.263   3.213 -0.0723  0.4156  3.3575
 6698TIP3    H220059   7.048   3.294   3.130  1.7718 -1.5161 -0.3319
 6699TIP3   OH220060   6.879   6.602   4.926  0.2521 -0.4001 -0.5616
 6699TIP3    H120061   6.831   6.520   4.921 -0.8209  0.2574 -1.5147
 6699TIP3    H220062   6.967   6.581   4.893  0.3102 -1.3873  0.2147
 6700TIP3   OH220063   4.906   0.528   5.172  0.1441  0.3570  0.1702
 6700TIP3    H120064   4.884   0.520   5.265  0.1021  1.6169  0.2814
 6700TIP3    H220065   5.002   0.536   5.170  0.0249  2.2237  0.2823
 6701TIP3   OH220066   1.236   4.831   2.282 -0.5510  0.3295 -0.5571
 6701TIP3    H120067   1.267   4.741   2.291  1.5179  0.9719 -0.6047
 6701TIP3    H220068   1.169   4.841   2.349  0.7998 -0.6140  1.0195
 6702TIP3   OH220069   4.116   2.519   4.406  0.4944 -0.2268  0.4537
 6702TIP3    H120070   4.127   2.498   4.313  1.0408 -0.7286  0.6225
 6702TIP3    H220071   4.043   2.465   4.435  0.5020 -0.2813  0.3734
 6703TIP3   OH220072   6.359   3.422   3.945 -0.1336  0.1985  0.1357
 6703TIP3    H120073   6.406   3.395   4.024 -0.2585  1.4126  0.6481
 6703TIP3    H220074   6.395   3.366   3.876  1.8921  0.8795  0.5569
 6704TIP3   OH220075   2.586   1.791   5.573  0.5390  0.4212  0.3807
 6704TIP3    H120076   2.614   1.712   5.618 -0.9299  0.1890  0.9520
 6704TIP3    H220077   2.666   1.828   5.536  1.3436 -0.9585  0.6848
 6705TIP3   OH220078   4.013   5.370   5.053  0.6913  0.3765 -0.1520
 6705TIP3    H120079   4.005   5.390   4.960  1.8291  2.2554  0.1004
 6705TIP3    H220080   3.954   5.432   5.096  1.9542  1.1740  0.4913
 6706TIP3   OH220081   1.876   6.110   0.426  0.3406 -0.4515 -0.0937
 6706TIP3    H120082   1.787   6.085   0.400  0.6140 -1.1879 -0.3384
 6706TIP3    H220083   1.885   6.201   0.397 -0.1000 -0.5873 -0.6721
 6707TIP3   OH220084   2.221   3.792   2.307  0.6151  0.0686 -0.3410
 6707TIP3    H120085   2.206   3.771   2.214  1.7527  1.8648 -0.9911
 6707TIP3    H220086   2.316   3.799   2.314  0.4425  2.0696  0.4374
 6708TIP3   OH220087   1.570   1.516   1.974 -0.2739 -0.5021  0.2761
 6708TIP3    H120088   1.566   1.556   2.061  0.4676  0.8130 -0.2703
 6708TIP3    H220089   1.500   1.450   1.975 -1.2558  0.5103  1.3476
 6709TIP3   OH220090   0.438   2.408   4.527 -0.0790 -0.1105  0.8316
 6709TIP3    H120091   0.433   2.368   4.615 -2.0452  1.8581  1.7039
 6709TIP3    H220092   0.381   2.353   4.473  0.9597 -1.1990  0.7990
 6710TIP3   OH220093   0.393   2.811   2.411  0.1999 -0.5898  0.1537
 6710TIP3    H120094   0.351   2.807   2.325  0.2906  0.6205  0.0426
 6710TIP3    H220095   0.415   2.720   2.431  0.9388 -0.7908 -1.4782
 6711TIP3   OH220096   6.853   1.346   3.593  0.0498 -0.1212 -0.0010
 6711TIP3    H120097   6.860   1.437   3.620 -2.5092 -0.3302  1.7049
 6711TIP3    H220098   6.911   1.299   3.654 -0.4591  0.1407  0.7029
 6712TIP3   OH220099   5.088   1.021   4.195 -0.1198 -0.4516 -0.2115
 6712TIP3    H120100   5.085   1.116   4.184 -0.8099 -0.4124  0.2600
 6712TIP3    H220101   5.015   0.988   4.143 -1.0913 -0.5556  1.1756
 6713TIP3   OH220102   5.063   0.334   3.403 -0.2025  0.1666 -0.1734
 6713TIP3    H120103   5.157   0.346   3.416 -0.2513 -1.5266  2.2869
 6713TIP3    H220104   5.054   0.241   3.379 -1.3636 -0.3223  1.9236
 6714TIP3   OH220105   4.927   6.345   4.927 -0.0651 -0.0386  0.3868
 6714TIP3    H120106   4.966   6.361   4.841  2.0254 -1.8795  0.8979
 6714TIP3    H220107   4.834   6.332   4.909  0.2987 -0.2744 -1.5718
 6715TIP3   OH220108   6.708   6.122   4.911  0.1504  0.0739 -0.2961
 6715TIP3    H120109   6.758   6.202   4.925 -0.8622  0.7113 -0.2025
 6715TIP3    H220110   6.758   6.054   4.956  0.8983  0.6936 -0.1686
 6716TIP3   OH220111   4.093   2.431   2.932 -0.7795  0.2197 -0.2698
 6716TIP3    H120112   3.999   2.449   2.922 -1.2042 -1.4436  0.4362
 6716TIP3    H220113   4.102   2.402   3.023  0.7409  2.0597  0.2261
 6717TIP3   OH220114   1.728   3.504   5.677 -0.5630 -0.6012 -0.1454
 6717TIP3    H120115   1.717   3.416   5.713 -0.9211 -0.6187 -0.2980
 6717TIP3    H220116   1.647   3.522   5.630 -0.3591 -0.3215 -0.3986
 6718TIP3   OH220117   2.084   3.481   3.590 -0.2992  0.1188 -0.5239
 6718TIP3    H120118   2.014   3.488   3.525  0.0311  0.6336 -0.8238
 6718TIP3    H220119   2.041   3.442   3.666 -0.7310 -0.3232 -0.9809
 6719TIP3   OH220120   4.775   1.658   3.585  0.4434  0.1170  0.1723
 6719TIP3    H120121   4.750   1.721   3.518 -0.2979 -0.5034 -0.1401
 6719TIP3    H220122   4.850   1.699   3.629 -0.2260  1.3625  0.1935
 6720TIP3   OH220123   4.343   0.811   2.950 -0.1956  0.3870  0.1559
 6720TIP3    H120124   4.294   0.773   3.022  0.6915 -0.6223  0.2478
 6720TIP3    H220125   4.320   0.757   2.874  0.0615  0.4829  0.0082
 6721TIP3   OH220126   0.743   2.706   3.215 -0.4858  0.1783  0.7358
 6721TIP3    H120127   0.778   2.751   3.291 -0.4360  1.1202  0.1744
 6721TIP3    H220128   0.820   2.679   3.165 -0.5067  1.4351 -0.0304
 6722TIP3   OH220129   0.237   4.653   3.517  0.0831 -0.0403 -0.0223
 6722TIP3    H120130   0.309   4.627   3.574 -0.2270 -0.9376 -0.0249
 6722TIP3    H220131   0.187   4.573   3.504 -0.7224  0.4969 -0.2995
 6723TIP3   OH220132   2.673   2.524   4.865 -0.2690  0.2186  0.8192
 6723TIP3    H120133   2.641   2.451   4.811 -1.3410  0.9396  0.4388
 6723TIP3    H220134   2.762   2.499   4.888  0.0543 -0.3448 -0.8782
 6724TIP3   OH220135   2.636   5.103   5.348 -0.3981 -0.3196  0.1974
 6724TIP3    H120136   2.712   5.087   5.292 -0.6240 -0.0124 -0.2031
 6724TIP3    H220137   2.561   5.090   5.290 -0.6076  1.4007  0.0490
 6725TIP3   OH220138   3.889   2.569   2.259  0.1617  0.2171  0.3520
 6725TIP3    H120139   3.862   2.556   2.350 -0.4721  1.2091  0.3302
 6725TIP3    H220140   3.868   2.661   2.241  0.0278 -0.0349 -0.8774
 6726TIP3   OH220141   3.381   5.838   3.369 -0.3940  0.1817 -0.0953
 6726TIP3    H120142   3.417   5.804   3.288  2.1845  0.9297  0.6260
 6726TIP3    H220143   3.371   5.762   3.425  0.7373  0.0025 -0.1145
 6727TIP3   OH220144   0.046   4.309   0.762 -0.1188  0.1360  0.2746
 6727TIP3    H120145  -0.020   4.378   0.748 -1.5111 -1.3069 -0.6781
 6727TIP3    H220146   0.030   4.278   0.851  0.7017  1.1965  0.8130
 6728TIP3   OH220147   0.430   6.470   1.141  0.5089  0.2192  0.3017
 6728TIP3    H120148   0.508   6.442   1.094 -0.0978 -0.0048 -0.6122
 6728TIP3    H220149   0.451   6.558   1.172  0.6213  0.7573 -1.2034
 6729TIP3   OH220150   7.185   5.698   3.962  0.1945  0.1698 -0.4544
 6729TIP3    H120151   7.265   5.741   3.992  0.2419 -1.0986  1.4115
 6729TIP3    H220152   7.205   5.668   3.873  0.5514  2.8426 -1.3591
 6730TIP3   OH220153   5.545   6.000   4.229  0.3574 -0.5025 -0.6196
 6730TIP3    H120154   5.631   6.032   4.204  0.1978 -0.2901 -0.9040
 6730TIP3    H220155   5.516   5.946   4.155  0.0894 -0.2656 -0.6930
 6731TIP3   OH220156   6.094   3.088   2.860  0.0656  0.2414  0.1869
 6731TIP3    H120157   6.001   3.068   2.871 -0.1931  0.4044 -1.5018
 6731TIP3    H220158   6.129   3.012   2.814  0.1612  1.3365 -1.6443
 6732TIP3   OH220159   6.068   4.186   5.027  0.2508  0.1649  0.2812
 6732TIP3    H120160   6.152   4.218   4.993 -0.4970  1.6511 -0.2175
 6732TIP3    H220161   6.073   4.091   5.015  1.1602  0.3858 -1.3525
 6733TIP3   OH220162   5.485   0.525   2.895  0.0456 -0.0020  0.4066
 6733TIP3    H120163   5.417   0.497   2.955  0.0044 -2.5918 -0.7135
 6733TIP3    H220164   5.532   0.445   2.873 -0.6189  0.5397 -3.8169
 6734TIP3   OH220165   4.008   5.282   0.046  0.4225 -0.1590  0.0195
 6734TIP3    H120166   3.995   5.364  -0.003 -0.1663 -1.0780 -1.4361
 6734TIP3    H220167   4.068   5.305   0.117 -1.3954  2.0383  0.9697
 6735TIP3   OH220168   2.866   0.505   3.064  0.4774 -0.2040 -0.0683
 6735TIP3    H120169   2.880   0.478   3.155 -2.2062 -0.2807  0.3982
 6735TIP3    H220170   2.887   0.599   3.064 -2.1382  0.4778  1.3847
 6736TIP3   OH220171   2.474   5.390   5.322 -0.0315  0.1213 -0.4324
 6736TIP3    H120172   2.484   5.297   5.305 -0.6890 -0.0901  0.3036
 6736TIP3    H220173   2.384   5.400   5.352  0.7481  0.6015  1.9342
 6737TIP3   OH220174   0.849   2.615   0.947  0.3028 -0.1906 -0.0284
 6737TIP3    H120175   0.910   2.688   0.932 -0.7471  1.5387  3.0587
 6737TIP3    H220176   0.771   2.638   0.898  0.4284  0.1284 -0.0815
 6738TIP3   OH220177   2.762   2.100   3.603 -0.0567 -0.2268  0.2448
 6738TIP3    H120178   2.753   2.179   3.549 -2.2561  0.4860  1.5618
 6738TIP3    H220179   2.843   2.114   3.652  0.6913  0.2018 -1.0421
 6739TIP3   OH220180   2.268   5.530   0.652 -0.0869  0.3229  0.0377
 6739TIP3    H120181   2.302   5.591   0.719 -2.7145  2.5543 -0.4752
 6739TIP3    H220182   2.344   5.512   0.596  1.2270  1.7009  1.2507
 6740TIP3   OH220183   6.231   0.719   3.822  0.1612  0.8728 -0.3236
 6740TIP3    H120184   6.193   0.718   3.910 -0.1650 -0.1450 -0.4580
 6740TIP3    H220185   6.286   0.640   3.819  4.3115  3.4071  0.6782
 6741TIP3   OH220186   1.310   5.866   4.925 -0.4047  0.5022 -0.0876
 6741TIP3    H120187   1.358   5.859   5.008 -0.5564 -2.7073 -0.1554
 6741TIP3    H220188   1.376   5.847   4.858 -0.9345 -0.1039 -0.4467
 6742TIP3   OH220189   1.005   6.434   4.742  0.4059 -0.0454 -0.0259
 6742TIP3    H120190   1.049   6.512   4.710  0.8735  0.1813  1.1085
 6742TIP3    H220191   1.059   6.361   4.711  0.4233  0.1230 -0.3929
 6743TIP3   OH220192   0.047   6.130   5.131  0.5167  0.0906 -0.3886
 6743TIP3    H120193   0.104   6.154   5.205 -0.7291  2.8755 -0.2053
 6743TIP3    H220194  -0.029   6.088   5.173  0.2006  0.8965 -0.1282
 6744TIP3   OH220195   2.415   1.164   2.736  0.1899 -0.2553 -0.2986
 6744TIP3    H120196   2.408   1.251   2.776  3.7863  1.0675 -2.1335
 6744TIP3    H220197   2.331   1.151   2.692 -0.1712  2.7291 -0.7060
 6745TIP3   OH220198   6.510   6.621   1.667 -0.2118  0.5754  0.3539
 6745TIP3    H120199   6.530   6.711   1.691  2.3574  0.6303 -1.5061
 6745TIP3    H220200   6.596   6.579   1.660 -1.1034 -1.0495 -2.1210
 6746TIP3   OH220201   1.251   5.114   0.169 -0.1617 -0.2991  0.1742
 6746TIP3    H120202   1.194   5.075   0.103  0.9875  0.9666 -1.6292
 6746TIP3    H220203   1.315   5.165   0.120 -1.2002  3.4781  2.3080
 6747TIP3   OH220204   3.044   6.453   1.851 -0.3375 -0.2106  0.4037
 6747TIP3    H120205   3.105   6.432   1.780  0.4222 -0.7484  1.1878
 6747TIP3    H220206   3.030   6.370   1.895 -0.7847  0.1231  0.8977
 6748TIP3   OH220207   7.030   2.064   4.022  0.0453 -0.0786  0.1930
 6748TIP3    H120208   7.097   2.126   3.994  0.1242  0.9068  2.3239
 6748TIP3    H220209   7.056   1.981   3.982  0.2770  1.0881 -2.2420
 6749TIP3   OH220210   7.085   0.592   2.916 -0.5080 -0.2106  0.1066
 6749TIP3    H120211   7.164   0.631   2.878 -0.8715  0.6909  0.2408
 6749TIP3    H220212   7.116   0.543   2.992  0.1143 -1.2759 -0.8066
 6750TIP3   OH220213   0.137   1.470   0.706  0.3802  0.5903  0.5705
 6750TIP3    H120214   0.162   1.557   0.737  0.3065  1.2375 -1.0968
 6750TIP3    H220215   0.114   1.482   0.614 -2.6701 -0.6030  1.0434
 6751TIP3   OH220216   2.687   5.060   4.019 -0.2125 -0.3734  0.1547
 6751TIP3    H120217   2.665   5.132   3.960 -1.0429 -1.1093 -0.4511
 6751TIP3    H220218   2.782   5.048   4.007 -0.2746 -0.1600 -0.6310
 6752TIP3   OH220219   0.326   5.577   3.830  0.0276  0.4598 -0.5751
 6752TIP3    H120220   0.267   5.503   3.813 -0.3837  0.0807  1.9992
 6752TIP3    H220221   0.358   5.561   3.919 -0.7737  3.8202  0.4539
 6753TIP3   OH220222   2.299   3.165   1.755 -0.0791 -0.2119 -0.5419
 6753TIP3    H120223   2.381   3.164   1.705  0.4803  1.2203  0.3083
 6753TIP3    H220224   2.323   3.197   1.842 -0.9650 -3.0291  0.8601
 6754TIP3   OH220225   5.197   6.208   2.943 -0.6189 -0.4343 -0.1804
 6754TIP3    H120226   5.269   6.270   2.949 -0.5272 -0.6501  1.2475
 6754TIP3    H220227   5.165   6.216   2.853 -0.2962  1.3187 -0.1593
 6755TIP3   OH220228   5.678   5.815   0.654  0.1910  0.0227  0.8800
 6755TIP3    H120229   5.741   5.813   0.583  1.8788 -1.9782  2.3195
 6755TIP3    H220230   5.670   5.908   0.677  1.4154  0.4565 -0.3580
 6756TIP3   OH220231   7.102   4.853   3.188  0.0348  0.0864 -0.0619
 6756TIP3    H120232   7.025   4.797   3.174  0.9605 -1.3325  0.2526
 6756TIP3    H220233   7.172   4.809   3.140  1.4304 -0.5576  2.4350
 6757TIP3   OH220234   6.560   4.488   4.603 -0.4849  0.2492  0.2719
 6757TIP3    H120235   6.565   4.576   4.565 -1.0417 -0.0493 -0.5233
 6757TIP3    H220236   6.499   4.498   4.676  1.2072  1.0001  1.6626
 6758TIP3   OH220237   5.778   5.032   4.149  0.3217  0.1575 -0.7182
 6758TIP3    H120238   5.749   5.076   4.069  1.3668 -0.0729 -1.2382
 6758TIP3    H220239   5.697   5.009   4.194 -0.2724  0.7563 -1.4530
 6759TIP3   OH220240   4.322   3.709   4.561 -0.0713 -0.1436 -0.0239
 6759TIP3    H120241   4.229   3.694   4.547 -0.4819  1.4535  0.7006
 6759TIP3    H220242   4.357   3.728   4.474 -0.4088 -0.8095 -0.3054
 6760TIP3   OH220243   4.215   2.252   5.541  0.6564  0.1806  0.5006
 6760TIP3    H120244   4.308   2.247   5.564  0.8451 -1.8485 -0.4896
 6760TIP3    H220245   4.213   2.237   5.446 -0.7319 -0.4449  0.6125
 6761TIP3   OH220246   1.744   5.297   2.665  0.1940  0.6161  0.2726
 6761TIP3    H120247   1.694   5.270   2.742 -0.0651  3.7286  1.3643
 6761TIP3    H220248   1.835   5.281   2.688 -0.0299 -1.4761 -0.1518
 6762TIP3   OH220249   0.181   4.789   1.648 -0.2908  0.5503  0.1449
 6762TIP3    H120250   0.126   4.849   1.598 -1.4430  1.4692  2.3695
 6762TIP3    H220251   0.129   4.710   1.657 -1.8616  1.7381  3.0412
 6763TIP3   OH220252   0.874   2.424   3.510 -0.1331  0.3214  0.1046
 6763TIP3    H120253   0.848   2.486   3.578  2.3985  1.2991  0.2791
 6763TIP3    H220254   0.819   2.348   3.526 -1.6199  1.5882  1.4342
 6764TIP3   OH220255   2.188   1.545   0.054  0.3556  0.3038  0.4885
 6764TIP3    H120256   2.134   1.571   0.129 -0.2600 -1.9855  0.9093
 6764TIP3    H220257   2.135   1.481   0.007  0.6126  1.8597 -2.1367
 6765TIP3   OH220258   2.099   0.831   4.191  0.0427  0.6139 -1.0980
 6765TIP3    H120259   2.032   0.779   4.235 -0.5318  0.2528 -2.3393
 6765TIP3    H220260   2.111   0.787   4.106  0.7382  1.5579 -1.5047
 6766TIP3   OH220261   5.123   0.789   3.176  0.1904 -0.3783  0.1656
 6766TIP3    H120262   5.204   0.837   3.197 -0.1865  0.4307 -0.1696
 6766TIP3    H220263   5.097   0.748   3.258  0.5547 -0.0497  0.4519
 6767TIP3   OH220264   2.411   5.989   3.693 -0.4185 -0.7058 -0.1065
 6767TIP3    H120265   2.399   6.080   3.719 -0.7027 -0.8299  0.2021
 6767TIP3    H220266   2.489   5.960   3.741 -0.9270 -0.9272  0.6123
 6768TIP3   OH220267   6.439   3.474   4.537  0.2723 -0.1449 -0.1098
 6768TIP3    H120268   6.400   3.386   4.543  0.1625 -0.1689 -1.0349
 6768TIP3    H220269   6.499   3.468   4.463 -0.6250  0.8940 -0.9437
 6769TIP3   OH220270   3.296   1.211   2.204  0.5882  0.3165 -0.3895
 6769TIP3    H120271   3.360   1.273   2.237  0.9353 -0.4790  0.4662
 6769TIP3    H220272   3.338   1.170   2.129  2.1410 -1.9363  1.5574
 6770TIP3   OH220273   2.178   3.965   3.825  0.1623  0.6831  0.3160
 6770TIP3    H120274   2.121   4.042   3.828 -0.7691  0.1478 -2.0341
 6770TIP3    H220275   2.246   3.989   3.762  1.4743  0.5770  1.6400
 6771TIP3   OH220276   0.624   2.576   0.017 -0.0914 -0.0084  0.2775
 6771TIP3    H120277   0.545   2.572  -0.036  0.6469  1.8147 -1.1172
 6771TIP3    H220278   0.615   2.657   0.068  0.5209 -0.1773  0.6665
 6772TIP3   OH220279   4.722   6.619   0.631 -0.0131 -0.2062 -0.0058
 6772TIP3    H120280   4.772   6.676   0.690  0.1599  1.3062 -1.5450
 6772TIP3    H220281   4.631   6.650   0.639 -0.2045 -0.8458  0.3959
 6773TIP3   OH220282   1.211   4.261   1.558 -0.1884  0.9392 -0.5457
 6773TIP3    H120283   1.244   4.203   1.490 -0.7004 -0.6714  0.5350
 6773TIP3    H220284   1.239   4.222   1.640 -0.7795  2.0847  0.2362
 6774TIP3   OH220285   2.819   4.942   4.324  0.3809  0.5272 -0.0634
 6774TIP3    H120286   2.745   4.993   4.292 -0.1100 -1.4987 -2.5071
 6774TIP3    H220287   2.782   4.888   4.394 -0.5839 -0.5604 -1.3494
 6775TIP3   OH220288   1.478   0.379   2.663  0.1791 -0.7791  0.1235
 6775TIP3    H120289   1.384   0.361   2.675  0.5481 -2.9281  0.1157
 6775TIP3    H220290   1.500   0.439   2.735 -1.3657  0.5356 -0.4304
 6776TIP3   OH220291   5.931   6.507   1.171 -0.5037  0.5215  0.6962
 6776TIP3    H120292   5.943   6.457   1.090 -2.7852  1.7735 -0.5266
 6776TIP3    H220293   5.987   6.463   1.235 -0.1801 -1.7700 -1.0299
 6777TIP3   OH220294   1.933   5.732   2.240 -0.4889 -0.0354  0.9811
 6777TIP3    H120295   1.977   5.756   2.159 -0.2308  1.1902  1.4567
 6777TIP3    H220296   2.004   5.715   2.302 -0.6843 -0.9672  0.9588
 6778TIP3   OH220297   7.082   1.739   5.232  0.0465 -0.0667 -0.0596
 6778TIP3    H120298   6.998   1.744   5.278 -1.1218  1.6435 -2.2044
 6778TIP3    H220299   7.077   1.657   5.183 -1.2988  0.9344 -1.7049
 6779TIP3   OH220300   3.811   1.629   0.515  0.4094  0.0278 -0.2095
 6779TIP3    H120301   3.813   1.571   0.439 -0.8335 -0.9245  0.4446
 6779TIP3    H220302   3.886   1.602   0.568  0.5611 -0.1308 -0.5044
 6780TIP3   OH220303   1.458   5.091   4.584  0.0778  0.3511  0.2982
 6780TIP3    H120304   1.481   5.015   4.638  0.0343  0.2664  0.1994
 6780TIP3    H220305   1.525   5.093   4.515  0.3815  0.7144  0.6008
 6781TIP3   OH220306   2.089   2.966   4.298 -0.6960  0.5951 -0.9465
 6781TIP3    H120307   2.172   2.953   4.253  1.7187  1.3988  2.8335
 6781TIP3    H220308   2.073   3.060   4.295 -0.4430  0.6774 -0.1485
 6782TIP3   OH220309   4.091   1.992   2.740  0.5347  0.3810  0.0807
 6782TIP3    H120310   4.127   1.955   2.660  2.9159  1.1815  0.7047
 6782TIP3    H220311   4.130   1.940   2.811  1.3878  1.9578  0.8220
 6783TIP3   OH220312   0.011   1.294   4.184 -0.4844  0.7361  0.2056
 6783TIP3    H120313   0.082   1.355   4.203 -0.5568  0.9022 -0.0592
 6783TIP3    H220314   0.020   1.275   4.091  0.5912 -0.9671  0.5899
 6784TIP3   OH220315   0.858   5.996   1.734  0.3576 -0.0695  0.2630
 6784TIP3    H120316   0.836   5.904   1.717 -3.9990  0.7333  0.3618
 6784TIP3    H220317   0.932   6.015   1.677  0.3476 -3.1884 -0.9575
 6785TIP3   OH220318   1.327   6.319   0.448 -0.3137 -0.7946  0.7077
 6785TIP3    H120319   1.371   6.238   0.473 -2.0083 -1.9234  0.2169
 6785TIP3    H220320   1.256   6.328   0.511 -1.2827 -0.7223 -0.3646
 6786TIP3   OH220321   4.665   2.806   0.063 -0.1622 -0.2682  0.2436
 6786TIP3    H120322   4.716   2.857   0.126 -0.4731 -0.1514  0.4022
 6786TIP3    H220323   4.595   2.865   0.035 -0.9801 -0.8558  1.0000
 6787TIP3   OH220324   6.133   5.651   0.364 -0.1942 -0.8567 -0.3415
 6787TIP3    H120325   6.223   5.633   0.336 -0.1407 -1.0394 -0.0474
 6787TIP3    H220326   6.086   5.568   0.352 -0.5772 -0.4928 -1.4807
 6788TIP3   OH220327   6.514   5.034   0.479 -0.4200  0.5364 -0.1138
 6788TIP3    H120328   6.445   5.061   0.539 -2.8563 -0.8486 -2.1060
 6788TIP3    H220329   6.482   4.953   0.440  1.9662  0.2730 -1.7554
 6789TIP3   OH220330   1.929   2.583   0.900  0.3049  0.5047  0.6399
 6789TIP3    H120331   2.011   2.535   0.899  1.0782  1.7850  0.4559
 6789TIP3    H220332   1.864   2.520   0.870  1.4143 -0.1949 -0.3816
 6790TIP3   OH220333   1.215   3.799   5.482  0.1043  0.5884 -0.1805
 6790TIP3    H120334   1.165   3.813   5.563 -1.0656 -0.5426 -0.6680
 6790TIP3    H220335   1.230   3.887   5.447 -0.0389  1.0433  0.8767
 6791TIP3   OH220336   2.747   0.189   4.193 -0.0602  0.2313  0.5676
 6791TIP3    H120337   2.726   0.100   4.165 -0.4998  0.6844 -0.6194
 6791TIP3    H220338   2.672   0.216   4.246 -0.0877  0.0231  0.6353
 6792TIP3   OH220339   4.593   0.725   1.358  0.1054  0.3918 -0.2408
 6792TIP3    H120340   4.518   0.781   1.340  0.5027  1.3193  0.8946
 6792TIP3    H220341   4.637   0.766   1.432  1.6125 -0.2435 -0.7362
 6793TIP3   OH220342   4.126   6.259   3.519  0.8725  0.5590 -0.1021
 6793TIP3    H120343   4.122   6.206   3.599  0.0522 -1.1682 -1.2347
 6793TIP3    H220344   4.214   6.298   3.521  1.0008  0.2712  1.4456
 6794TIP3   OH220345   0.782   0.213   0.860  0.1360  0.0656  0.2164
 6794TIP3    H120346   0.713   0.148   0.847 -0.0713  0.5040 -1.0585
 6794TIP3    H220347   0.765   0.280   0.794  0.8958  0.9555  0.8833
 6795TIP3   OH220348   2.239   4.790   5.773 -0.8803 -0.0922  0.5338
 6795TIP3    H120349   2.169   4.829   5.826  0.7677 -0.0271  2.7639
 6795TIP3    H220350   2.253   4.704   5.811 -0.1595 -0.3478 -0.2865
 6796TIP3   OH220351   6.575   1.273   5.484 -0.0419  0.2765  0.4041
 6796TIP3    H120352   6.620   1.189   5.495  0.7755 -0.0079 -3.6645
 6796TIP3    H220353   6.482   1.250   5.482  0.0874 -0.3071  0.8757
 6797TIP3   OH220354   2.960   1.976   2.514 -0.1104 -0.1758  0.7156
 6797TIP3    H120355   2.982   1.932   2.596  1.2804  0.2932  0.6182
 6797TIP3    H220356   2.965   2.069   2.534 -0.2761 -0.0587  0.2299
 6798TIP3   OH220357   6.133   0.417   3.230 -0.3987  0.2117  0.6646
 6798TIP3    H120358   6.123   0.463   3.313  1.2844 -0.4661  1.3051
 6798TIP3    H220359   6.044   0.409   3.195 -1.0623  1.0795  2.0819
 6799TIP3   OH220360   1.678   5.928   3.888 -0.0573  0.1905  0.4770
 6799TIP3    H120361   1.610   5.883   3.938  1.3565 -3.0112 -0.2121
 6799TIP3    H220362   1.758   5.915   3.940  0.3820  2.5109  0.5089
 6800TIP3   OH220363   6.760   3.311   1.239  0.1434 -0.2016  0.0266
 6800TIP3    H120364   6.761   3.284   1.147 -1.7445 -1.4614  0.3119
 6800TIP3    H220365   6.786   3.232   1.287 -3.6010 -1.2217  0.7670
 6801TIP3   OH220366   5.801   4.102   4.963 -0.1814 -0.4767 -0.3245
 6801TIP3    H120367   5.874   4.111   5.024 -0.5791 -0.4381  0.1535
 6801TIP3    H220368   5.796   4.008   4.946  0.6754 -0.3698 -1.2317
 6802TIP3   OH220369   3.981   4.114   0.506  0.2605  0.1759  0.0173
 6802TIP3    H120370   3.945   4.203   0.499  0.4148  0.4287  1.9706
 6802TIP3    H220371   3.916   4.065   0.556  0.4569 -0.6596 -0.5289
 6803TIP3   OH220372   5.365   4.642   4.017 -0.2453  0.5525  0.5261
 6803TIP3    H120373   5.323   4.728   4.012  1.0253  1.1224 -1.5869
 6803TIP3    H220374   5.452   4.661   4.052 -0.8609 -0.3113  2.7056
 6804TIP3   OH220375   0.535   6.654   0.859  0.4201 -0.0688 -0.3730
 6804TIP3    H120376   0.515   6.700   0.941 -0.6479  0.2513 -0.7990
 6804TIP3    H220377   0.569   6.569   0.887  2.0230  0.7926  0.4266
 6805TIP3   OH220378   0.146   4.128   1.852 -0.1977  0.3926  0.1225
 6805TIP3    H120379   0.229   4.099   1.889 -0.5215 -0.5901  0.1031
 6805TIP3    H220380   0.080   4.105   1.918 -0.4015  1.6590  0.3813
 6806TIP3   OH220381   5.833   4.924   5.815 -0.3580  0.5213  0.1022
 6806TIP3    H120382   5.875   4.915   5.729  0.6156  0.3888  0.5826
 6806TIP3    H220383   5.769   4.994   5.803 -0.4814  0.2641 -0.8237
 6807TIP3   OH220384   0.572   1.643   4.672 -0.2314  0.0307 -0.0981
 6807TIP3    H120385   0.661   1.630   4.639 -0.5806  0.6702 -1.3355
 6807TIP3    H220386   0.539   1.554   4.688  1.7540 -0.2568  3.7125
 6808TIP3   OH220387   6.183   1.462   1.923 -0.2633  0.4763  0.1620
 6808TIP3    H120388   6.124   1.496   1.856 -2.4941 -1.1225  1.2103
 6808TIP3    H220389   6.255   1.422   1.873 -0.3418  1.8964 -1.1664
 6809TIP3   OH220390   6.912   1.432   0.942 -0.2534  0.3584 -0.0877
 6809TIP3    H120391   6.977   1.441   0.872  0.7376 -2.1516  0.3765
 6809TIP3    H220392   6.860   1.356   0.916  0.4827 -0.9828  2.0811
 6810TIP3   OH220393   0.824   5.986   0.892 -0.1171 -0.0084 -0.2309
 6810TIP3    H120394   0.738   6.027   0.896 -0.1890 -0.1368 -0.5094
 6810TIP3    H220395   0.861   6.002   0.979  0.1428  1.2856 -0.5493
 6811TIP3   OH220396   1.389   3.796   2.690 -0.4364 -0.2040  0.2615
 6811TIP3    H120397   1.368   3.754   2.774  0.2681 -2.3047 -0.5314
 6811TIP3    H220398   1.450   3.866   2.713 -1.0641 -0.0786  1.6089
 6812TIP3   OH220399   4.395   5.368   5.609  0.0117 -0.4492 -0.6259
 6812TIP3    H120400   4.411   5.434   5.542  0.7704 -0.4629 -0.4608
 6812TIP3    H220401   4.440   5.290   5.577  1.0569 -0.2384  0.2620
 6813TIP3   OH220402   1.229   1.602   1.894  0.0948  0.1460 -0.4108
 6813TIP3    H120403   1.250   1.514   1.861  0.1210  0.1988 -0.5330
 6813TIP3    H220404   1.301   1.657   1.865  0.8011 -0.0685  0.8732
 6814TIP3   OH220405   7.193   5.505   0.469 -0.4221  0.3656 -0.3471
 6814TIP3    H120406   7.210   5.594   0.501 -0.9700  0.2440  0.2927
 6814TIP3    H220407   7.098   5.498   0.467 -0.3820 -0.3350 -0.0369
 6815TIP3   OH220408   5.475   1.936   2.043 -0.1225  0.5926 -0.0240
 6815TIP3    H120409   5.528   1.902   1.970  0.3523  2.7320 -0.7422
 6815TIP3    H220410   5.423   2.006   2.004 -0.9534  0.8151  1.4163
 6816TIP3   OH220411   2.545   0.609   2.953 -0.4834  0.5388  0.0734
 6816TIP3    H120412   2.535   0.673   2.882 -0.9643 -0.6438 -0.9687
 6816TIP3    H220413   2.601   0.541   2.916 -1.0186 -0.2691  0.7076
 6817TIP3   OH220414   5.382   5.314   4.374  0.2158 -0.0965 -0.0180
 6817TIP3    H120415   5.471   5.298   4.343  0.2560  0.2417 -0.0738
 6817TIP3    H220416   5.335   5.348   4.298  0.1904  0.2786  0.1600
 6818TIP3   OH220417   6.394   1.483   4.355 -0.2033  0.3903  0.2880
 6818TIP3    H120418   6.414   1.564   4.403 -1.1645 -0.2266  1.8156
 6818TIP3    H220419   6.399   1.508   4.263  1.3733  1.7222  0.6849
 6819TIP3   OH220420   0.630   5.184   5.510 -0.1413 -0.0713 -0.4873
 6819TIP3    H120421   0.611   5.204   5.602 -1.7789 -1.1388 -0.5467
 6819TIP3    H220422   0.725   5.169   5.508 -0.0701 -0.0143  1.0179
 6820TIP3   OH220423   4.181   3.752   3.542 -0.3425  0.4237  0.4394
 6820TIP3    H120424   4.170   3.844   3.565 -1.2215  0.0481  1.6052
 6820TIP3    H220425   4.244   3.719   3.606 -0.2892  0.1305  0.2364
 6821TIP3   OH220426   6.081   4.841   4.555 -0.6080  0.0148  0.0543
 6821TIP3    H120427   6.162   4.829   4.605 -0.3053  1.2557 -0.0966
 6821TIP3    H220428   6.106   4.901   4.484 -1.4960 -0.1550 -0.4131
 6822TIP3   OH220429   2.434   1.855   0.046  0.1993 -0.1327  0.4295
 6822TIP3    H120430   2.501   1.797   0.081  1.7568  0.0858 -1.9211
 6822TIP3    H220431   2.360   1.847   0.106  1.5275 -2.0665  1.9098
 6823TIP3   OH220432   7.042   6.162   3.244  0.6560 -0.7771  0.2622
 6823TIP3    H120433   6.999   6.210   3.174 -0.4406 -0.1669  1.3030
 6823TIP3    H220434   7.117   6.119   3.202  0.8644  0.7080 -0.9806
 6824TIP3   OH220435   3.562   0.986   2.929 -0.3969 -0.4131 -0.4767
 6824TIP3    H120436   3.575   0.898   2.964 -0.4418 -0.7319 -1.2380
 6824TIP3    H220437   3.526   1.036   3.002  1.9733 -0.3559  0.7151
 6825TIP3   OH220438   0.098   4.445   5.342 -0.4364 -0.2820  0.3675
 6825TIP3    H120439   0.156   4.443   5.266 -0.7346 -1.0846  0.1447
 6825TIP3    H220440   0.010   4.430   5.305 -0.5231 -1.2164  0.9033
 6826TIP3   OH220441   1.793   1.419   2.466  0.7633  0.3230  0.0291
 6826TIP3    H120442   1.730   1.489   2.448  0.0214  0.2825  2.2705
 6826TIP3    H220443   1.878   1.456   2.440  0.0847  1.0621 -1.2527
 6827TIP3   OH220444   2.326   0.555   5.897  0.1582  0.7697  0.2391
 6827TIP3    H120445   2.246   0.509   5.872  0.4231  0.8249 -0.7409
 6827TIP3    H220446   2.397   0.494   5.876  0.3957  0.8284  0.8452
 6828TIP3   OH220447   5.535   4.286   2.179  0.2490 -0.4269 -0.4690
 6828TIP3    H120448   5.547   4.371   2.137 -1.8802  0.1206 -0.1089
 6828TIP3    H220449   5.440   4.275   2.183  0.4637 -2.2454  0.6666
 6829TIP3   OH220450   3.530   2.174   5.460  0.4423  0.2443 -0.4047
 6829TIP3    H120451   3.504   2.131   5.378  0.4865 -0.1142 -0.2332
 6829TIP3    H220452   3.624   2.157   5.467  0.4362  0.2645 -0.2757
 6830TIP3   OH220453   0.716   2.612   4.380  0.3170 -0.3092 -0.0211
 6830TIP3    H120454   0.625   2.637   4.396  0.2032  0.6648 -1.9663
 6830TIP3    H220455   0.711   2.544   4.313  0.9800 -1.4711  1.0490
 6831TIP3   OH220456   5.285   1.083   4.015  0.1759 -0.2176 -0.0035
 6831TIP3    H120457   5.236   1.050   4.090 -0.7143 -1.1853 -0.9878
 6831TIP3    H220458   5.220   1.124   3.959  0.8522  0.6129 -0.2155
 6832TIP3   OH220459   5.678   2.818   5.279  0.2772 -0.2533 -0.3932
 6832TIP3    H120460   5.768   2.787   5.290  0.0483 -0.3799  1.4875
 6832TIP3    H220461   5.657   2.859   5.363 -1.0239  0.8331 -1.2271
 6833TIP3   OH220462   2.658   4.717   0.228  0.0342  0.4159 -0.0165
 6833TIP3    H120463   2.748   4.717   0.193 -0.0985 -1.5019 -0.4538
 6833TIP3    H220464   2.667   4.678   0.315 -0.3470  0.4329  0.0294
 6834TIP3   OH220465   1.086   6.001   1.532  0.5940 -0.6570  0.0604
 6834TIP3    H120466   1.116   5.947   1.605  1.4515 -2.3501 -1.4686
 6834TIP3    H220467   1.071   5.939   1.461 -2.4338  0.6483 -0.5970
 6835TIP3   OH220468   5.333   6.184   3.273  0.3263 -0.0566 -0.1563
 6835TIP3    H120469   5.322   6.097   3.234 -1.0452  0.6187 -1.3709
 6835TIP3    H220470   5.293   6.177   3.360  0.8159 -0.8104  0.0134
 6836TIP3   OH220471   6.819   3.651   3.248 -0.0101  0.4630 -0.0680
 6836TIP3    H120472   6.753   3.606   3.301  0.9313  0.1720  0.8955
 6836TIP3    H220473   6.776   3.664   3.163 -0.8777 -0.8089  0.1316
 6837TIP3   OH220474   2.483   2.322   0.588  0.5573 -0.1763  0.9212
 6837TIP3    H120475   2.403   2.304   0.638  1.0483 -0.8268  1.5049
 6837TIP3    H220476   2.547   2.261   0.624  1.0229 -0.4336 -0.3019
 6838TIP3   OH220477   4.329   5.143   2.657  0.0987  0.8210  0.4978
 6838TIP3    H120478   4.409   5.139   2.604  0.2590 -1.4836  0.7790
 6838TIP3    H220479   4.323   5.055   2.695 -1.4412  1.6168  2.1783
 6839TIP3   OH220480   2.455   4.302   4.878  0.5604 -0.4786 -1.2761
 6839TIP3    H120481   2.431   4.385   4.920 -0.1084 -1.5753  0.6108
 6839TIP3    H220482   2.545   4.285   4.908 -0.7675 -2.5545  2.1254
 6840TIP3   OH220483   6.894   1.718   4.081 -0.7782  0.6715  0.0821
 6840TIP3    H120484   6.956   1.697   4.151  0.0998 -1.0395 -1.1592
 6840TIP3    H220485   6.948   1.737   4.005 -1.7027 -1.4358 -1.1805
 6841TIP3   OH220486   2.774   5.994   1.063  0.1018  0.2981  0.8719
 6841TIP3    H120487   2.788   5.933   1.135 -0.4315  1.0705  1.6544
 6841TIP3    H220488   2.681   6.019   1.070 -0.0627  0.0842 -0.3268
 6842TIP3   OH220489   2.761   5.888   5.015 -0.3606 -0.4060  0.4368
 6842TIP3    H120490   2.748   5.931   5.100 -0.5678 -0.0554  0.2322
 6842TIP3    H220491   2.851   5.911   4.990 -0.2590 -0.6087  0.6171
 6843TIP3   OH220492   5.620   6.352   5.323  0.1342  0.2821  0.7147
 6843TIP3    H120493   5.657   6.417   5.383  2.2479 -0.5005  0.3516
 6843TIP3    H220494   5.688   6.339   5.257 -0.2796 -2.1604  0.6834
 6844TIP3   OH220495   1.527   2.366   1.968 -0.8064 -0.3185  0.3913
 6844TIP3    H120496   1.489   2.306   1.904 -0.7977  0.0449  0.0374
 6844TIP3    H220497   1.480   2.448   1.954  1.2844  0.6840 -1.3072
 6845TIP3   OH220498   5.384   1.517   3.387 -0.1125 -1.2308 -0.1017
 6845TIP3    H120499   5.306   1.504   3.442  0.0864  0.5575  0.6732
 6845TIP3    H220500   5.348   1.545   3.302 -0.3378 -0.8569  0.1129
 6846TIP3   OH220501   0.437   0.627   4.331  0.9224  0.0944  0.0109
 6846TIP3    H120502   0.508   0.577   4.373  1.1260 -0.0710 -0.5149
 6846TIP3    H220503   0.454   0.718   4.356  1.7081  0.1426 -0.6243
 6847TIP3   OH220504   2.365   3.938   0.387  0.0375  0.2554  0.3313
 6847TIP3    H120505   2.342   3.852   0.421  0.0488  0.3980  0.7143
 6847TIP3    H220506   2.303   3.954   0.316 -0.2493  0.1206  0.5497
 6848TIP3   OH220507   3.300   4.395   1.230  0.0772  0.3778  0.1849
 6848TIP3    H120508   3.250   4.451   1.288  0.2932  0.1706  0.5752
 6848TIP3    H220509   3.374   4.449   1.200 -0.4968  0.7608 -0.5791
 6849TIP3   OH220510   1.131   3.349   2.146 -0.4993 -0.0420  0.3388
 6849TIP3    H120511   1.161   3.266   2.110  1.3494 -0.1160  1.9020
 6849TIP3    H220512   1.069   3.325   2.214  0.3238 -0.2039  1.0546
 6850TIP3   OH220513   5.527   0.287   3.697  0.5606 -0.2821 -0.8239
 6850TIP3    H120514   5.542   0.199   3.664 -0.3853 -0.5792 -0.4854
 6850TIP3    H220515   5.615   0.322   3.712  0.9448 -1.4958 -0.0987
 6851TIP3   OH220516   2.541   5.637   5.451  0.2607  0.5945  0.7762
 6851TIP3    H120517   2.500   5.703   5.395  2.1732  0.4020 -0.9920
 6851TIP3    H220518   2.520   5.554   5.408  1.9720  0.4643  0.1057
 6852TIP3   OH220519   5.887   3.895   4.136  0.3209  0.7076  0.0400
 6852TIP3    H120520   5.793   3.904   4.123  0.2585  1.0847  0.7102
 6852TIP3    H220521   5.912   3.972   4.188  0.7193 -0.1902  1.2135
 6853TIP3   OH220522   6.832   5.281   1.116  0.0794  0.4289 -0.4570
 6853TIP3    H120523   6.828   5.377   1.120  0.2893  0.4016  1.5562
 6853TIP3    H220524   6.897   5.263   1.048 -0.4332  1.6840 -1.3309
 6854TIP3   OH220525   3.150   3.164   3.918  0.3187  0.0899  0.2713
 6854TIP3    H120526   3.228   3.211   3.889 -1.1324  1.3983 -1.8311
 6854TIP3    H220527   3.157   3.078   3.877 -0.2635  0.9190 -1.7128
 6855TIP3   OH220528   2.777   6.800   1.023 -0.2634 -0.5277 -0.3721
 6855TIP3    H120529   2.724   6.771   0.949 -1.1381 -0.1235  0.0722
 6855TIP3    H220530   2.861   6.824   0.985 -0.0804 -2.0601 -0.9698
 6856TIP3   OH220531   2.200   5.000   3.058 -0.6560  0.0508 -0.2357
 6856TIP3    H120532   2.179   4.906   3.059  1.8281 -0.5878 -0.6294
 6856TIP3    H220533   2.118   5.043   3.035 -1.9390 -1.9999  0.2330
 6857TIP3   OH220534   4.116   3.116   0.492 -0.2784  0.2923  0.0376
 6857TIP3    H120535   4.139   3.024   0.500 -1.0121 -0.0605 -1.5216
 6857TIP3    H220536   4.166   3.147   0.417 -1.0784  0.7952 -0.2951
 6858TIP3   OH220537   4.489   5.218   1.732 -0.7408 -0.8626  0.2097
 6858TIP3    H120538   4.406   5.170   1.739 -0.9200 -0.5384  0.3083
 6858TIP3    H220539   4.466   5.299   1.688 -0.4755 -0.7635  0.2538
 6859TIP3   OH220540   3.258   2.087   0.524 -0.1191 -0.0221  0.2906
 6859TIP3    H120541   3.179   2.044   0.492 -0.9541 -0.5223  2.7627
 6859TIP3    H220542   3.226   2.149   0.590  1.4089  1.3538 -0.2040
 6860TIP3   OH220543   2.081   0.238   5.268 -0.0443 -0.2428  0.0983
 6860TIP3    H120544   2.019   0.268   5.201  2.5187  1.9086 -1.4874
 6860TIP3    H220545   2.115   0.156   5.233 -1.4312 -1.1008  0.6681
 6861TIP3   OH220546   0.119   4.369   4.562 -0.0326  0.8560 -0.0213
 6861TIP3    H120547   0.096   4.347   4.472  0.4508  0.0616  0.0422
 6861TIP3    H220548   0.059   4.318   4.615 -0.4563  1.4845  0.1123
 6862TIP3   OH220549   3.111   2.545   0.788  0.1457 -0.5176 -0.0605
 6862TIP3    H120550   3.109   2.505   0.875 -1.9437  0.7354  0.5541
 6862TIP3    H220551   3.080   2.635   0.802 -0.9172 -0.4849 -2.1496
 6863TIP3   OH220552   6.964   4.661   0.955  0.1557  0.6468 -0.0761
 6863TIP3    H120553   6.918   4.730   1.002 -0.6892 -0.3523  0.5970
 6863TIP3    H220554   6.921   4.580   0.982  2.8243 -0.4447  1.2969
 6864TIP3   OH220555   0.575   0.131   0.157  0.1803 -0.6060 -0.3918
 6864TIP3    H120556   0.519   0.173   0.092 -0.7532  0.3635  1.0037
 6864TIP3    H220557   0.661   0.170   0.143  0.3251 -1.3742 -1.8881
 6865TIP3   OH220558   0.868   2.937   2.552  0.3191 -0.2195  0.8518
 6865TIP3    H120559   0.948   2.970   2.511 -1.1892  1.2581 -1.1086
 6865TIP3    H220560   0.895   2.856   2.595  2.8577  0.2354  0.2942
 6866TIP3   OH220561   4.361   1.931   1.762  0.2180  0.0317 -0.0654
 6866TIP3    H120562   4.301   1.876   1.812  1.4496 -1.6017 -0.2644
 6866TIP3    H220563   4.445   1.885   1.767  1.0178  1.2523 -1.3305
 6867TIP3   OH220564   6.326   1.746   1.288 -0.0233 -0.5538  0.0655
 6867TIP3    H120565   6.330   1.821   1.228 -0.2896 -0.6113 -0.0252
 6867TIP3    H220566   6.240   1.706   1.271 -0.1492 -0.5025  0.5717
 6868TIP3   OH220567   3.934   6.080   5.490  0.0901 -0.7377 -0.4409
 6868TIP3    H120568   3.839   6.090   5.479 -0.2539 -1.0342  1.8195
 6868TIP3    H220569   3.962   6.162   5.530  0.9303 -0.3902 -1.6844
 6869TIP3   OH220570   5.020   5.581   1.055  0.3420 -0.6164 -0.2251
 6869TIP3    H120571   5.059   5.567   1.141  3.8551 -0.8049 -1.6443
 6869TIP3    H220572   5.079   5.535   0.995  0.8532  3.3339 -3.1647
 6870TIP3   OH220573   7.001   2.509   4.938  0.2559 -0.1096 -0.6613
 6870TIP3    H120574   6.939   2.562   4.988 -0.6068 -0.3144 -1.4855
 6870TIP3    H220575   6.953   2.429   4.915  1.4487 -1.1595  0.3293
 6871TIP3   OH220576   5.627   0.658   0.168 -0.3542  0.9367  0.2801
 6871TIP3    H120577   5.629   0.714   0.246 -1.0428 -2.8549  3.3650
 6871TIP3    H220578   5.704   0.601   0.178 -1.4751 -0.8511 -0.7514
 6872TIP3   OH220579   4.406   4.851   4.566 -0.8959 -0.3581  0.4371
 6872TIP3    H120580   4.414   4.871   4.473  1.6637  0.5258  0.7594
 6872TIP3    H220581   4.368   4.764   4.569 -0.5231 -0.6205 -1.4734
 6873TIP3   OH220582   3.950   6.220   0.447  0.4364  0.2330 -0.9057
 6873TIP3    H120583   3.925   6.128   0.441 -0.4237  0.2601  1.1703
 6873TIP3    H220584   3.869   6.265   0.467  1.2547  1.0481  0.7982
 6874TIP3   OH220585   1.202   2.913   2.698 -0.1648 -0.3027 -0.1856
 6874TIP3    H120586   1.142   2.928   2.771 -1.2801 -1.6848 -0.7739
 6874TIP3    H220587   1.258   2.990   2.697  0.3327 -0.5375  2.5465
 6875TIP3   OH220588   5.662   1.764   0.293  0.5465  0.4412 -1.0112
 6875TIP3    H120589   5.646   1.807   0.209  1.9673  0.2218 -1.4098
 6875TIP3    H220590   5.609   1.685   0.290 -1.3829  1.6528 -0.6450
 6876TIP3   OH220591   6.442   5.363   5.564  0.2173 -0.4258 -0.7367
 6876TIP3    H120592   6.518   5.341   5.617  0.2290  1.5158  0.1591
 6876TIP3    H220593   6.408   5.279   5.533  0.8996 -1.5687  1.4134
 6877TIP3   OH220594   3.015   2.021   1.211  0.2640 -0.4725 -0.5565
 6877TIP3    H120595   3.052   1.964   1.144  1.8517  0.3636 -0.4607
 6877TIP3    H220596   3.052   2.107   1.191 -1.2477  0.3152 -0.0912
 6878TIP3   OH220597   2.973   6.301   3.262 -0.0913 -0.1542  0.0222
 6878TIP3    H120598   2.910   6.298   3.334 -0.5223 -1.1531 -0.3736
 6878TIP3    H220599   3.058   6.300   3.305 -0.3108 -2.7151  0.5345
 6879TIP3   OH220600   5.496   6.697   2.501 -0.0248  0.3199  0.0246
 6879TIP3    H120601   5.510   6.603   2.515 -1.4243  0.2433  1.1269
 6879TIP3    H220602   5.573   6.725   2.452  1.9369 -0.8167  2.2208
 6880TIP3   OH220603   6.916   3.889   3.253  0.5338 -0.4297 -0.1809
 6880TIP3    H120604   6.932   3.932   3.337  0.1869 -0.3405 -0.1555
 6880TIP3    H220605   6.870   3.808   3.276  1.6862 -1.1070 -0.1875
 6881TIP3   OH220606   0.120   1.951   0.111  0.7012  0.5457  0.2611
 6881TIP3    H120607   0.151   2.005   0.038 -0.2916  0.9467  0.1268
 6881TIP3    H220608   0.168   1.868   0.100  1.4451  1.0203 -0.1466
 6882TIP3   OH220609   6.135   0.889   1.602 -0.4623 -0.3560 -0.2297
 6882TIP3    H120610   6.143   0.974   1.644  1.0261 -1.1862  1.2898
 6882TIP3    H220611   6.102   0.908   1.514  0.4718  1.8393 -0.1564
 6883TIP3   OH220612   0.616   4.507   4.505  0.3363 -0.3943 -0.3417
 6883TIP3    H120613   0.521   4.503   4.497  0.4042 -0.0305 -1.4431
 6883TIP3    H220614   0.641   4.587   4.459  1.0619  0.3096  1.1804
 6884TIP3   OH220615   5.901   2.852   1.093  0.3614 -0.2418 -0.5292
 6884TIP3    H120616   5.996   2.859   1.081  0.5740 -0.6574  0.6929
 6884TIP3    H220617   5.885   2.899   1.176  0.2074 -4.0602  1.8358
 6885TIP3   OH220618   0.448   0.056   2.546  0.8826  0.1460  0.5182
 6885TIP3    H120619   0.401   0.075   2.465  2.0639  0.5821 -0.1020
 6885TIP3    H220620   0.511  -0.012   2.522  1.3107  0.3468  1.0401
 6886TIP3   OH220621   4.941   1.964   1.787 -0.0384  0.3835 -0.0812
 6886TIP3    H120622   4.992   2.035   1.747 -1.3377  1.5429  0.2469
 6886TIP3    H220623   4.920   1.996   1.875 -1.4410  0.0168 -0.2587
 6887TIP3   OH220624   3.104   3.751   2.513  0.3460 -0.4915  0.6575
 6887TIP3    H120625   3.131   3.734   2.422 -0.3507 -0.2109  0.3850
 6887TIP3    H220626   3.178   3.722   2.566  1.8152  1.5821 -0.1122
 6888TIP3   OH220627   6.258   2.008   2.432  0.3836 -0.2098 -0.0994
 6888TIP3    H120628   6.277   2.070   2.503 -0.2173 -2.1020  1.8402
 6888TIP3    H220629   6.173   2.035   2.399 -0.0125 -0.1311  0.9324
 6889TIP3   OH220630   2.937   6.621   3.463  0.0426 -0.1287  0.3333
 6889TIP3    H120631   2.974   6.533   3.455 -1.5050 -0.8490  0.7212
 6889TIP3    H220632   2.934   6.637   3.558  0.4122  0.4100  0.2640
 6890TIP3   OH220633   3.546   6.084   2.811 -0.0344  0.1741 -0.5600
 6890TIP3    H120634   3.603   6.026   2.761 -1.1113 -0.6372 -0.8979
 6890TIP3    H220635   3.546   6.166   2.762  2.6849  1.0604  0.7037
 6891TIP3   OH220636   5.872   4.851   0.393 -0.1076  0.0934 -0.3122
 6891TIP3    H120637   5.840   4.930   0.349 -0.6369  0.1027  0.0804
 6891TIP3    H220638   5.965   4.847   0.371 -0.7449 -1.1030 -3.3227
 6892TIP3   OH220639   1.215   6.714   1.135  0.2510 -0.2566 -0.2079
 6892TIP3    H120640   1.282   6.782   1.142 -0.5330  0.6271 -1.0664
 6892TIP3    H220641   1.144   6.744   1.191 -1.4024  1.2683 -2.9076
 6893TIP3   OH220642   4.866   5.364   5.690  0.0279  0.4040 -0.2283
 6893TIP3    H120643   4.866   5.304   5.764  0.5646  2.1970  1.2930
 6893TIP3    H220644   4.776   5.397   5.686  0.0853  0.5686 -0.1587
 6894TIP3   OH220645   5.329   6.714   3.200 -0.0564  0.0102 -0.8601
 6894TIP3    H120646   5.303   6.627   3.172 -0.6086 -0.0306 -0.2639
 6894TIP3    H220647   5.247   6.764   3.201 -0.1279 -0.0757  0.9327
 6895TIP3   OH220648   5.009   3.769   4.969 -0.5821 -0.1432  0.2647
 6895TIP3    H120649   5.050   3.718   5.038 -1.7263 -0.7182  0.5457
 6895TIP3    H220650   5.018   3.860   4.997  1.4970 -0.1474 -0.2509
 6896TIP3   OH220651   3.510   4.607   1.451  0.1029  0.4762  0.8360
 6896TIP3    H120652   3.536   4.608   1.359 -1.5243 -2.1558  0.2594
 6896TIP3    H220653   3.593   4.602   1.499  0.9122 -0.4048 -0.6013
 6897TIP3   OH220654   4.835   4.751   2.774 -0.0808  0.1571  0.1785
 6897TIP3    H120655   4.851   4.720   2.685  3.0447  1.3707  0.2046
 6897TIP3    H220656   4.836   4.672   2.827  0.6420 -0.3447 -0.5629
 6898TIP3   OH220657   6.780   0.599   5.482  0.2604  0.3089  0.2673
 6898TIP3    H120658   6.818   0.659   5.418 -0.6281  1.4380  0.7694
 6898TIP3    H220659   6.706   0.559   5.437  0.3636  0.1976  0.1961
 6899TIP3   OH220660   3.272   1.669   5.623  0.3267  0.0993 -0.3508
 6899TIP3    H120661   3.259   1.595   5.564 -0.5510 -1.1384  1.3222
 6899TIP3    H220662   3.268   1.746   5.566 -1.6373 -0.9592 -1.7666
 6900TIP3   OH220663   0.195   3.081   4.064  0.5090 -0.0023  0.4318
 6900TIP3    H120664   0.144   3.147   4.110 -0.5256  0.8186 -1.7990
 6900TIP3    H220665   0.255   3.130   4.008 -0.3850 -0.9020 -1.3967
 6901TIP3   OH220666   6.558   3.161   0.489  0.1889  0.0881 -0.1827
 6901TIP3    H120667   6.501   3.229   0.525 -1.3584 -1.3979  0.3587
 6901TIP3    H220668   6.514   3.132   0.409  1.6904  0.8240 -1.3201
 6902TIP3   OH220669   1.342   2.157   5.659  0.4087 -0.1512 -0.4409
 6902TIP3    H120670   1.271   2.144   5.721 -0.5890  1.3747 -1.1914
 6902TIP3    H220671   1.299   2.164   5.574  1.1565  2.9583 -0.6777
 6903TIP3   OH220672   5.238   3.416   3.695  0.2542  0.7590  0.0233
 6903TIP3    H120673   5.199   3.498   3.665  0.3867  1.0387  0.5835
 6903TIP3    H220674   5.304   3.444   3.760 -0.6358  0.1548  1.2316
 6904TIP3   OH220675   1.269   2.757   3.309 -0.1265  0.1733 -0.3922
 6904TIP3    H120676   1.199   2.802   3.263  1.4575  1.6146 -1.5310
 6904TIP3    H220677   1.276   2.671   3.267 -0.7495  0.2880 -0.7244
 6905TIP3   OH220678   0.460   6.625   3.647 -0.5595  0.0311 -0.4640
 6905TIP3    H120679   0.425   6.574   3.719 -0.3414 -1.6449 -1.4975
 6905TIP3    H220680   0.548   6.650   3.676 -0.9384  0.4600  0.3410
 6906TIP3   OH220681   1.492   5.474   2.306 -0.1474  0.4930  0.4472
 6906TIP3    H120682   1.453   5.423   2.235  0.5533  0.8468 -0.2155
 6906TIP3    H220683   1.418   5.503   2.359 -0.7800  1.0475 -0.7024
 6907TIP3   OH220684   1.212   3.807   1.954  0.7993 -0.2045 -0.4975
 6907TIP3    H120685   1.181   3.717   1.965 -2.4620  0.7754 -0.4530
 6907TIP3    H220686   1.196   3.827   1.862  0.1409  0.7169 -0.2055
 6908TIP3   OH220687   6.677   1.392   1.783  0.3608 -0.0909  0.2572
 6908TIP3    H120688   6.773   1.393   1.784  0.3614 -0.2114  0.3331
 6908TIP3    H220689   6.653   1.325   1.847  0.2413 -1.0704 -0.7853
 6909TIP3   OH220690   1.824   0.423   5.568 -0.2342 -0.2153 -0.1545
 6909TIP3    H120691   1.751   0.478   5.596 -0.3169 -0.1985 -0.4032
 6909TIP3    H220692   1.814   0.416   5.473  0.2138 -0.0303 -0.2196
 6910TIP3   OH220693   4.477   3.221   3.245 -0.1834  0.2829 -0.5232
 6910TIP3    H120694   4.515   3.270   3.172  4.0812 -1.1562  0.4703
 6910TIP3    H220695   4.468   3.132   3.213  0.7254 -0.1375  0.3432
 6911TIP3   OH220696   6.292   5.492   2.600 -0.1478  0.0450  0.2336
 6911TIP3    H120697   6.354   5.423   2.574 -0.5919 -0.2732  0.0129
 6911TIP3    H220698   6.301   5.558   2.531 -0.3053 -0.1607  0.0132
 6912TIP3   OH220699   2.840   4.561   4.837 -0.7790 -0.1511  0.2563
 6912TIP3    H120700   2.884   4.562   4.752 -0.0001  0.1247  0.6477
 6912TIP3    H220701   2.827   4.468   4.856 -0.0654 -0.2519  0.2778
 6913TIP3   OH220702   3.506   1.581   4.580 -0.1734  0.0050  0.3505
 6913TIP3    H120703   3.448   1.505   4.584 -0.1381  0.0048  0.9313
 6913TIP3    H220704   3.527   1.591   4.487  0.6702 -1.3476  0.3705
 6914TIP3   OH220705   1.568   6.204   1.590 -0.4461  0.6896  0.1386
 6914TIP3    H120706   1.488   6.155   1.578  0.2970 -0.2140 -1.3701
 6914TIP3    H220707   1.557   6.282   1.534 -0.3658  0.6798  0.1089
 6915TIP3   OH220708   2.811   3.654   1.922 -0.1885  0.0899 -0.3828
 6915TIP3    H120709   2.843   3.670   1.833  0.6333 -0.2827 -0.1619
 6915TIP3    H220710   2.775   3.738   1.950  0.9960  0.6554 -0.4900
 6916TIP3   OH220711   1.370   0.744   3.714  0.1491 -0.1383  0.1655
 6916TIP3    H120712   1.446   0.702   3.754  0.8401  2.6300  2.0639
 6916TIP3    H220713   1.294   0.698   3.750  0.8658 -0.5631  1.1488
 6917TIP3   OH220714   5.402   3.971   4.633  0.3188 -0.1652 -0.8088
 6917TIP3    H120715   5.448   4.053   4.649 -1.6213  0.6723  0.9392
 6917TIP3    H220716   5.472   3.905   4.631  1.7336  1.1962  0.3184
 6918TIP3   OH220717   2.063   1.716   1.737  0.3397 -0.6409  0.3464
 6918TIP3    H120718   2.005   1.749   1.805  2.8285  1.9984  1.4295
 6918TIP3    H220719   2.150   1.718   1.778  1.7106 -0.5606 -2.3716
 6919TIP3   OH220720   2.361   2.745   4.323 -0.4539 -0.3998 -0.6715
 6919TIP3    H120721   2.446   2.778   4.351 -1.4373  0.0709  2.1002
 6919TIP3    H220722   2.334   2.802   4.252 -0.1860  2.1168  1.1197
 6920TIP3   OH220723   2.367   6.622   3.910 -0.2472 -0.2883  0.1103
 6920TIP3    H120724   2.329   6.708   3.924  0.1177 -0.0606 -0.2751
 6920TIP3    H220725   2.412   6.628   3.826  0.3544 -0.6464  0.3941
 6921TIP3   OH220726   5.805   0.693   2.708  0.4372 -0.9788  0.1705
 6921TIP3    H120727   5.829   0.775   2.750  0.8331 -1.1046  0.1981
 6921TIP3    H220728   5.862   0.628   2.749  0.6243 -1.1498 -0.3517
 6922TIP3   OH220729   6.912   4.356   2.511  0.1617  0.2858 -0.4480
 6922TIP3    H120730   6.845   4.287   2.510  0.9283 -0.4889  0.0890
 6922TIP3    H220731   6.866   4.434   2.543 -0.5703 -0.1388 -0.4473
 6923TIP3   OH220732   1.280   4.982   0.680  0.4544 -0.2919 -0.6715
 6923TIP3    H120733   1.205   5.033   0.708  0.4585 -0.8433  0.3827
 6923TIP3    H220734   1.341   5.047   0.645  0.7861  0.5593  1.3503
 6924TIP3   OH220735   6.773   5.149   3.629 -0.1404  0.1783  0.3768
 6924TIP3    H120736   6.725   5.072   3.598  0.5424 -0.5226  1.0038
 6924TIP3    H220737   6.784   5.204   3.552 -1.4819  0.1078  0.1147
 6925TIP3   OH220738   6.591   1.497   1.530  0.1716  0.9253  0.3061
 6925TIP3    H120739   6.520   1.553   1.560 -1.1674 -0.7315  0.4073
 6925TIP3    H220740   6.642   1.478   1.609  0.1564  1.3454  0.4165
 6926TIP3   OH220741   4.441   6.660   2.463  0.3643  0.7717 -0.3541
 6926TIP3    H120742   4.462   6.586   2.521 -0.1352  0.7048 -0.2510
 6926TIP3    H220743   4.474   6.737   2.509 -1.0033  0.8449  0.5553
 6927TIP3   OH220744   0.954   5.279   5.377  0.1146 -0.1356  0.2793
 6927TIP3    H120745   0.946   5.215   5.306  0.0336 -0.9894  1.0281
 6927TIP3    H220746   1.031   5.331   5.355  0.3543 -0.6840 -0.2115
 6928TIP3   OH220747   4.212   6.450   1.318 -0.8269  0.9658  0.0510
 6928TIP3    H120748   4.182   6.389   1.386  0.1971 -1.2173 -1.3442
 6928TIP3    H220749   4.132   6.480   1.275 -1.3091 -1.0740 -0.5835
 6929TIP3   OH220750   5.060   4.926   4.408 -0.0007  1.0143 -0.1976
 6929TIP3    H120751   5.147   4.886   4.401  0.1034  1.2199 -0.0756
 6929TIP3    H220752   5.046   4.937   4.502 -1.5892 -2.1441  0.0792
 6930TIP3   OH220753   4.166   2.583   2.024 -0.1050  0.2160  0.3117
 6930TIP3    H120754   4.147   2.572   1.931 -2.4109  1.5867  0.5554
 6930TIP3    H220755   4.150   2.496   2.061 -0.6996  0.0281 -0.3544
 6931TIP3   OH220756   7.059   2.760   3.898 -0.0575  0.4488  0.2778
 6931TIP3    H120757   7.106   2.689   3.942  0.5412  1.3313  1.1009
 6931TIP3    H220758   7.127   2.820   3.869 -0.5571  0.6626 -0.4710
 6932TIP3   OH220759   1.993   0.616   5.328  0.5570 -0.7353  0.2208
 6932TIP3    H120760   1.922   0.663   5.370  1.8069  0.6230  0.8966
 6932TIP3    H220761   1.958   0.528   5.312 -0.5874 -0.7142  2.3647
 6933TIP3   OH220762   2.267   4.326   4.669 -0.3305  0.4679  0.5851
 6933TIP3    H120763   2.212   4.340   4.746  0.3189 -2.3906  1.6907
 6933TIP3    H220764   2.357   4.335   4.701 -0.0587  1.6301 -0.4203
 6934TIP3   OH220765   6.768   6.071   5.934  0.0366  0.2639 -0.3403
 6934TIP3    H120766   6.846   6.021   5.909  0.3389  0.7844 -0.4462
 6934TIP3    H220767   6.727   6.094   5.851  0.5294  1.1813 -0.3456
 6935TIP3   OH220768   3.427   0.713   4.912 -0.3657 -0.3397  0.2390
 6935TIP3    H120769   3.498   0.759   4.865  1.1206 -0.1072  2.5383
 6935TIP3    H220770   3.347   0.753   4.879  0.7111  1.3710 -0.4621
 6936TIP3   OH220771   4.858   3.727   2.559 -0.0751  1.1665 -0.0611
 6936TIP3    H120772   4.903   3.675   2.626  1.2616  1.3950 -0.7492
 6936TIP3    H220773   4.843   3.812   2.601 -1.2103  0.6219  0.6689
 6937TIP3   OH220774   5.439   1.212   4.733 -0.0876 -0.0770 -0.1792
 6937TIP3    H120775   5.469   1.222   4.823 -2.4882 -0.6562  0.7869
 6937TIP3    H220776   5.415   1.119   4.726  0.7334 -0.2103 -1.6659
 6938TIP3   OH220777   7.088   4.027   4.817 -0.3824 -0.5400 -0.5954
 6938TIP3    H120778   7.164   3.976   4.789 -0.5595 -0.3632 -1.4200
 6938TIP3    H220779   7.019   3.962   4.830  0.1842 -0.8316  1.2188
 6939TIP3   OH220780   1.186   0.842   0.577  0.1524 -0.1922 -0.1414
 6939TIP3    H120781   1.256   0.802   0.524 -0.1523  0.1781 -0.8431
 6939TIP3    H220782   1.191   0.797   0.661  3.2463  1.8433  0.9525
 6940TIP3   OH220783   6.059   1.187   1.371 -0.1009  0.3118  0.1234
 6940TIP3    H120784   6.075   1.097   1.345 -0.4213 -0.0316  1.0511
 6940TIP3    H220785   6.006   1.180   1.451  2.3781  1.2205  1.9854
 6941TIP3   OH220786   5.746   2.215   4.261  0.4804 -0.3630  0.3984
 6941TIP3    H120787   5.739   2.143   4.197 -0.3626  1.7671 -2.0943
 6941TIP3    H220788   5.661   2.258   4.257  1.6628  2.1112  0.0438
 6942TIP3   OH220789   1.936   0.630   3.552  0.6786 -0.0635  0.0241
 6942TIP3    H120790   1.949   0.672   3.466  1.0592 -1.6059 -0.7114
 6942TIP3    H220791   2.015   0.652   3.601  2.1857 -2.0971 -1.3263
 6943TIP3   OH220792   3.475   3.907   4.828  0.0629  0.0938 -0.0827
 6943TIP3    H120793   3.465   3.976   4.763  0.4419  1.3967  1.1819
 6943TIP3    H220794   3.387   3.897   4.865  0.3621  1.2534  1.0112
 6944TIP3   OH220795   6.787   1.036   1.043 -0.3244 -0.6997 -0.1367
 6944TIP3    H120796   6.848   0.962   1.034  0.6934  0.2513 -1.6193
 6944TIP3    H220797   6.829   1.093   1.107 -1.0460 -1.3205  0.9100
 6945TIP3   OH220798   1.992   4.880   4.707  0.3968 -0.4735  0.1354
 6945TIP3    H120799   2.076   4.910   4.741  0.5984 -1.1185  0.2230
 6945TIP3    H220800   2.011   4.852   4.617  0.1009  0.1544 -0.1289
 6946TIP3   OH220801   4.927   2.472   0.474 -0.1546  0.4853 -0.3125
 6946TIP3    H120802   4.913   2.491   0.567  1.3149  0.5764 -0.0859
 6946TIP3    H220803   4.926   2.377   0.469  0.8252  0.4457 -0.0008
 6947TIP3   OH220804   6.574   6.154   2.636 -0.2186 -0.3390 -0.2455
 6947TIP3    H120805   6.563   6.238   2.592 -1.5376 -0.7327 -0.7466
 6947TIP3    H220806   6.524   6.163   2.717 -0.3130 -0.6158 -0.2728
 6948TIP3   OH220807   5.540   3.533   2.481 -0.2752 -0.9118 -0.5633
 6948TIP3    H120808   5.456   3.578   2.493  0.7115  0.5577  1.4519
 6948TIP3    H220809   5.537   3.501   2.391 -1.8586  1.5060 -1.4788
 6949TIP3   OH220810   3.245   6.799   4.941 -0.0858 -0.2796  0.5597
 6949TIP3    H120811   3.276   6.807   4.852  1.1230  3.4728  1.1192
 6949TIP3    H220812   3.324   6.789   4.994 -0.3060  1.8729  1.4250
 6950TIP3   OH220813   4.931   3.701   1.068 -0.0650 -0.1428 -0.2399
 6950TIP3    H120814   4.870   3.655   1.009  0.2023  0.1876 -0.7818
 6950TIP3    H220815   4.911   3.794   1.057 -0.7182 -0.1177  0.9826
 6951TIP3   OH220816   6.449   6.228   0.048 -0.3274 -0.1342 -0.3934
 6951TIP3    H120817   6.483   6.290  -0.017  0.0800  0.6533  0.5367
 6951TIP3    H220818   6.521   6.217   0.110 -0.4063 -1.5539 -0.5393
 6952TIP3   OH220819   4.509   0.582   5.630  0.4442  0.1978  0.1131
 6952TIP3    H120820   4.501   0.587   5.535  0.3186 -0.1809  0.1020
 6952TIP3    H220821   4.501   0.672   5.660  0.6440  0.3387 -0.2481
 6953TIP3   OH220822   1.526   4.175   5.087  0.1877  0.2282  0.3688
 6953TIP3    H120823   1.600   4.147   5.032  0.1558  0.1842  0.3484
 6953TIP3    H220824   1.558   4.166   5.176  0.1595  0.0794  0.3627
 6954TIP3   OH220825   0.982  -0.005   3.183  0.5635  0.1055 -0.0474
 6954TIP3    H120826   0.920  -0.024   3.253 -0.3490  1.7254 -0.3878
 6954TIP3    H220827   1.027   0.075   3.211  0.5285  0.4993 -1.0763
 6955TIP3   OH220828   1.115   4.899   5.425 -0.1615 -0.0562 -0.1383
 6955TIP3    H120829   1.167   4.922   5.348  0.0910  1.2510  0.3968
 6955TIP3    H220830   1.178   4.890   5.496 -0.2850 -2.2324 -0.2434
 6956TIP3   OH220831   2.862   0.400   5.472 -0.8358 -0.3206  0.1605
 6956TIP3    H120832   2.820   0.335   5.416 -2.1140  0.9599 -0.4386
 6956TIP3    H220833   2.796   0.469   5.481  0.5038  0.9231  0.6966
 6957TIP3   OH220834   4.916   5.363   0.495  0.0582  0.1306 -0.0841
 6957TIP3    H120835   4.950   5.337   0.410 -0.0301 -0.3220  0.0151
 6957TIP3    H220836   4.838   5.416   0.475  0.4569  0.6452 -0.2949
 6958TIP3   OH220837   6.114   0.902   0.381 -0.1592 -0.2900 -0.6489
 6958TIP3    H120838   6.160   0.979   0.346  0.6967  0.8471  2.6351
 6958TIP3    H220839   6.167   0.828   0.352  2.4946  0.8271  0.9717
 6959TIP3   OH220840   6.048   1.844   5.020  0.2559 -0.1050 -0.5211
 6959TIP3    H120841   6.124   1.901   5.022 -0.3027  0.6456  0.6748
 6959TIP3    H220842   5.975   1.899   5.050 -0.3413 -1.3596  0.4774
 6960TIP3   OH220843   6.205   4.502   1.700 -0.3756 -0.3587  0.1729
 6960TIP3    H120844   6.260   4.477   1.774  1.0259  1.2326 -0.2745
 6960TIP3    H220845   6.118   4.514   1.739  0.5275  1.4313  1.8329
 6961TIP3   OH220846   2.606   5.851   3.107 -0.0686 -0.0725 -0.1313
 6961TIP3    H120847   2.674   5.809   3.054  1.2798  1.2938  0.4567
 6961TIP3    H220848   2.642   5.937   3.129  0.0623 -1.0395  4.1758
 6962TIP3   OH220849   7.080   2.750   5.301  0.2832  0.1373  0.0348
 6962TIP3    H120850   7.059   2.804   5.378 -0.4353  0.7677 -0.5866
 6962TIP3    H220851   7.161   2.788   5.267 -0.0964  0.6910 -0.2671
 6963TIP3   OH220852   6.447   6.102   0.686 -0.5851  0.5257  0.3730
 6963TIP3    H120853   6.543   6.102   0.684 -0.5133  2.1888  1.7746
 6963TIP3    H220854   6.421   6.082   0.596  1.0068 -3.0025  0.4967
 6964TIP3   OH220855   4.891   2.422   4.472  0.5397  0.0976 -0.4833
 6964TIP3    H120856   4.838   2.361   4.525 -1.0833  1.2040 -0.7579
 6964TIP3    H220857   4.919   2.490   4.534  0.6571  0.1371 -0.5792
 6965TIP3   OH220858   7.152   5.738   3.202 -0.2196  0.2505 -0.0400
 6965TIP3    H120859   7.221   5.672   3.192 -1.7289 -1.1825 -1.5789
 6965TIP3    H220860   7.109   5.715   3.284  0.5429  0.6289  0.4861
 6966TIP3   OH220861   3.274   2.664   5.255 -0.2720 -0.7588  0.3674
 6966TIP3    H120862   3.340   2.618   5.204 -2.2542 -1.9222 -1.2867
 6966TIP3    H220863   3.321   2.736   5.297  1.8488 -1.0187 -1.4386
 6967TIP3   OH220864   1.053   4.615   1.551  0.4133  0.5469  0.3810
 6967TIP3    H120865   1.024   4.529   1.583  2.0072  0.3059  1.3422
 6967TIP3    H220866   1.103   4.596   1.472  1.4257  0.4551  1.0131
 6968TIP3   OH220867   4.069   1.797   1.356 -0.2218  0.2273 -0.1597
 6968TIP3    H120868   3.998   1.817   1.417 -0.9831 -1.4708 -0.4230
 6968TIP3    H220869   4.119   1.878   1.350 -1.4876  1.1363  0.8978
 6969TIP3   OH220870   6.508   4.209   0.065 -0.1387 -0.0546  0.2158
 6969TIP3    H120871   6.421   4.196   0.101 -0.7440 -0.3092 -1.2639
 6969TIP3    H220872   6.563   4.147   0.113 -0.3412  1.4161  2.4981
 6970TIP3   OH220873   6.786   1.943   4.452 -0.2175 -0.2475  0.2015
 6970TIP3    H120874   6.831   1.862   4.474  1.0278  0.6608  1.1578
 6970TIP3    H220875   6.832   1.977   4.375  0.4944  0.4502  0.9063
 6971TIP3   OH220876   0.156   0.308   3.288  0.1747  0.2637 -0.0253
 6971TIP3    H120877   0.120   0.333   3.373  0.5501 -0.5360  0.3712
 6971TIP3    H220878   0.106   0.230   3.263  0.2556  0.3353 -0.4143
 6972TIP3   OH220879   6.072   5.094   0.121  0.3342  0.4889  0.7440
 6972TIP3    H120880   6.114   5.105   0.206  0.2003 -0.6064  0.9752
 6972TIP3    H220881   6.134   5.042   0.070 -0.7323 -1.2363  1.1255
 6973TIP3   OH220882   1.422   1.385   1.173  0.5945 -0.4331 -0.2018
 6973TIP3    H120883   1.408   1.324   1.245  0.6106 -1.7765 -1.3104
 6973TIP3    H220884   1.498   1.351   1.127  2.1983  1.8483  0.5831
 6974TIP3   OH220885   3.094   6.719   0.324 -0.3581  0.5021 -0.7382
 6974TIP3    H120886   3.049   6.666   0.390  0.7578  0.5734  0.0910
 6974TIP3    H220887   3.186   6.697   0.335 -0.2136 -0.2255 -2.9217
 6975TIP3   OH220888   4.950   0.597   4.901 -0.3872 -0.0966 -0.1871
 6975TIP3    H120889   4.951   0.584   4.995 -1.1890 -0.5729 -0.2344
 6975TIP3    H220890   4.866   0.560   4.872 -1.2687  2.2247 -0.7877
 6976TIP3   OH220891   6.741   3.534   4.751 -0.5024  0.0191 -0.1283
 6976TIP3    H120892   6.835   3.515   4.747 -0.5997 -0.2687 -1.9475
 6976TIP3    H220893   6.734   3.625   4.722 -0.8749 -0.3866 -1.3753
 6977TIP3   OH220894   1.600   1.134   0.763  0.2739  0.2395 -0.4286
 6977TIP3    H120895   1.547   1.084   0.824  0.0294  0.0123 -0.8211
 6977TIP3    H220896   1.538   1.192   0.719  0.7141  1.6989  0.8031
 6978TIP3   OH220897   3.119   0.408   3.932 -0.4269 -0.1592 -0.4490
 6978TIP3    H120898   3.156   0.446   4.012 -1.5409 -0.8745  0.4384
 6978TIP3    H220899   3.038   0.365   3.961 -0.0292 -1.8519 -1.6688
 6979TIP3   OH220900   0.652   3.822   4.566 -0.8082  0.0885  0.2022
 6979TIP3    H120901   0.615   3.799   4.652 -0.5404 -0.3157  0.2119
 6979TIP3    H220902   0.720   3.886   4.587  0.8063 -1.6591  0.5449
 6980TIP3   OH220903   4.696   4.501   5.038 -0.1221 -0.3346 -0.4724
 6980TIP3    H120904   4.661   4.503   5.127  0.6244  0.4435 -0.1806
 6980TIP3    H220905   4.622   4.526   4.983 -0.3956 -0.0791 -0.0020
 6981TIP3   OH220906   6.670   0.997   2.126  0.2216 -0.2932  0.1265
 6981TIP3    H120907   6.633   0.919   2.085  0.6959 -0.3132 -0.2708
 6981TIP3    H220908   6.683   1.058   2.054  1.3235 -0.4312  0.2012
 6982TIP3   OH220909   7.051   6.751   1.392  0.1625 -0.1703 -0.3528
 6982TIP3    H120910   6.980   6.733   1.453 -0.4130 -2.0135 -1.4803
 6982TIP3    H220911   7.036   6.842   1.363 -0.5799  0.1138  0.8638
 6983TIP3   OH220912   6.820   4.434   1.043 -0.3019  0.2169 -0.3385
 6983TIP3    H120913   6.745   4.405   0.992 -1.3867  1.4117  0.5462
 6983TIP3    H220914   6.798   4.414   1.134  1.8169 -2.3606 -0.2409
 6984TIP3   OH220915   1.281   6.500   3.916 -0.1989 -0.3991 -0.0474
 6984TIP3    H120916   1.313   6.433   3.855 -1.6744 -0.2304 -1.0732
 6984TIP3    H220917   1.347   6.569   3.914  1.1409 -1.6201  0.7020
 6985TIP3   OH220918   4.332   3.044   2.588  0.4813  0.3975 -0.3122
 6985TIP3    H120919   4.339   3.139   2.593  1.2217  0.4268 -1.6275
 6985TIP3    H220920   4.330   3.025   2.495 -0.9646 -0.8052 -0.0746
 6986TIP3   OH220921   3.512   0.219   0.496  0.2746 -0.0724  0.4064
 6986TIP3    H120922   3.548   0.190   0.412 -0.9521  0.8495 -0.4810
 6986TIP3    H220923   3.587   0.217   0.556  1.2457 -0.4781 -0.7741
 6987TIP3   OH220924   7.253   0.763   2.279 -0.2977 -0.3319 -0.2942
 6987TIP3    H120925   7.215   0.733   2.362 -0.8333 -0.2866 -0.5173
 6987TIP3    H220926   7.177   0.776   2.221 -0.0141  0.5964 -0.4790
 6988TIP3   OH220927   0.920   4.362   0.700 -0.3153  0.6992  0.1120
 6988TIP3    H120928   0.902   4.391   0.611  1.3283 -0.0426 -0.4968
 6988TIP3    H220929   0.838   4.379   0.748 -0.7663  2.4264 -1.1735
 6989TIP3   OH220930   2.266   0.573   3.784 -0.1213  0.5529  0.5005
 6989TIP3    H120931   2.333   0.641   3.785  1.5434 -0.9874  1.1049
 6989TIP3    H220932   2.259   0.548   3.692  1.2021 -0.1959  0.5688
 6990TIP3   OH220933   5.843   0.505   0.211 -0.0241  0.0057  0.0726
 6990TIP3    H120934   5.808   0.418   0.194  1.1836 -0.3902 -0.5405
 6990TIP3    H220935   5.936   0.490   0.228  0.0718  1.1163  0.5873
 6991TIP3   OH220936   1.346   4.357   0.914 -0.2101 -0.2117  0.0865
 6991TIP3    H120937   1.380   4.269   0.895  0.5747  0.0239  0.3630
 6991TIP3    H220938   1.267   4.364   0.860 -0.3326 -1.1190  0.1284
 6992TIP3   OH220939   5.811   2.030   2.096 -0.2965  0.5338 -0.0428
 6992TIP3    H120940   5.741   2.015   2.159  0.6406  0.4087  0.9897
 6992TIP3    H220941   5.789   1.974   2.022 -0.3990 -0.8042  0.9691
 6993TIP3   OH220942   6.443   5.393   3.505 -0.4713  0.3089  0.5188
 6993TIP3    H120943   6.391   5.456   3.555  0.4817  2.0124 -0.5445
 6993TIP3    H220944   6.402   5.392   3.419  0.1105  0.2306  0.2400
 6994TIP3   OH220945   2.493   6.217   5.909  0.4446  0.0794 -0.0976
 6994TIP3    H120946   2.524   6.176   5.829  1.3678  3.2704 -1.5488
 6994TIP3    H220947   2.455   6.300   5.881  1.1635  1.5279  2.7465
 6995TIP3   OH220948   2.639   5.215   3.812  0.1872 -0.4994  0.5500
 6995TIP3    H120949   2.697   5.170   3.751  0.8656 -0.2739  1.0169
 6995TIP3    H220950   2.644   5.307   3.786  0.5801 -0.3823  1.0100
 6996TIP3   OH220951   7.073   3.664   4.693 -0.1562 -0.3093  0.2419
 6996TIP3    H120952   7.039   3.719   4.764  0.4639 -0.8710  0.9835
 6996TIP3    H220953   7.132   3.603   4.736  2.8305  1.4070 -1.1028
 6997TIP3   OH220954   4.982   6.305   1.251  0.2013 -0.1283 -0.0097
 6997TIP3    H120955   5.033   6.231   1.218  0.6148  0.1142  0.0819
 6997TIP3    H220956   5.019   6.323   1.337 -1.6436 -1.5252  1.1506
 6998TIP3   OH220957   5.170   2.205   3.373 -0.1368  0.0042 -0.0286
 6998TIP3    H120958   5.152   2.183   3.465 -1.0610  0.6433 -0.0446
 6998TIP3    H220959   5.214   2.290   3.376  1.7913 -0.9528 -0.0718
 6999TIP3   OH220960   3.080   6.697   2.231 -0.5056 -0.3792  0.7888
 6999TIP3    H120961   3.092   6.616   2.280 -2.3565 -0.9013  0.4467
 6999TIP3    H220962   3.050   6.670   2.145 -0.6627  0.6378  0.5037
 7000TIP3   OH220963   0.277   5.514   4.704 -0.0102 -0.4939 -0.6611
 7000TIP3    H120964   0.292   5.435   4.653  0.7498  0.0537 -1.3041
 7000TIP3    H220965   0.302   5.490   4.794 -1.1732 -1.4014 -0.5570
 7001TIP3   OH220966   5.770   1.005   1.804 -0.2854  0.3113  0.4489
 7001TIP3    H120967   5.741   0.919   1.773 -2.8304  0.6513  1.6097
 7001TIP3    H220968   5.854   0.989   1.847  0.2887 -1.1965 -1.1345
 7002TIP3   OH220969   2.895   6.043   0.182 -0.5900  0.2017  0.1403
 7002TIP3    H120970   2.863   5.966   0.135  1.1132  0.0302 -0.8320
 7002TIP3    H220971   2.933   6.008   0.263 -0.5612  0.1024  0.0843
 7003TIP3   OH220972   3.314   1.653   3.083  1.4447 -0.1364 -0.5653
 7003TIP3    H120973   3.232   1.637   3.130  2.0362  0.2404  0.6307
 7003TIP3    H220974   3.298   1.620   2.994 -0.0777  0.1803 -0.4235
 7004TIP3   OH220975   3.162   4.027   0.084  0.2737 -0.5168  0.2389
 7004TIP3    H120976   3.254   4.005   0.074  0.3616  0.3178 -1.1328
 7004TIP3    H220977   3.160   4.089   0.157  0.6990 -1.0367  0.7010
 7005TIP3   OH220978   3.153   6.030   5.543 -0.0900 -0.0828  0.0223
 7005TIP3    H120979   3.126   5.950   5.588  0.7923 -0.0783  0.5981
 7005TIP3    H220980   3.245   6.015   5.520 -0.2655  0.2747 -0.9970
 7006TIP3   OH220981   0.404   0.479   2.451 -0.5905 -0.3640 -0.5594
 7006TIP3    H120982   0.469   0.410   2.467 -0.6820 -0.0421  1.5266
 7006TIP3    H220983   0.456   0.556   2.428 -0.0524  0.1050  1.8568
 7007TIP3   OH220984   6.123   0.488   1.093 -0.3980 -0.2277 -0.0349
 7007TIP3    H120985   6.177   0.564   1.074 -1.8382  0.0182 -4.0850
 7007TIP3    H220986   6.041   0.524   1.127 -1.2987  0.2208 -2.4915
 7008TIP3   OH220987   5.358   3.849   1.415  0.3320 -0.2115  0.0452
 7008TIP3    H120988   5.267   3.876   1.409 -0.1970 -1.7230  0.8540
 7008TIP3    H220989   5.406   3.929   1.435 -0.7097  0.7358 -1.1042
 7009TIP3   OH220990   5.273   4.400   5.862  0.0788 -0.1940  0.0419
 7009TIP3    H120991   5.280   4.492   5.889 -0.6849  0.7201 -2.4809
 7009TIP3    H220992   5.359   4.379   5.826  0.1670 -0.3548  0.3520
 7010TIP3   OH220993   5.658   6.101   0.710 -0.1407 -0.1977  0.0206
 7010TIP3    H120994   5.696   6.169   0.766  0.2973  0.4028 -0.9678
 7010TIP3    H220995   5.565   6.123   0.705 -0.1694 -0.2223  0.4739
 7011TIP3   OH220996   1.630   1.429   2.780  0.1359 -0.5110  0.3387
 7011TIP3    H120997   1.547   1.441   2.734  0.2565  1.6851  0.5876
 7011TIP3    H220998   1.608   1.372   2.854 -1.1005 -0.2429  0.2093
 7012TIP3   OH220999   0.215   5.386   4.240  0.8884 -0.1577  0.8902
 7012TIP3    H121000   0.148   5.317   4.241  0.4237  0.0124 -2.7601
 7012TIP3    H221001   0.193   5.442   4.314 -1.6481 -1.3437  1.1514
 7013TIP3   OH221002   4.925   0.168   2.409  0.8553 -0.0524 -0.7104
 7013TIP3    H121003   4.917   0.118   2.490 -0.6533  2.5228  0.8756
 7013TIP3    H221004   5.014   0.203   2.411  0.2780  1.5062  0.8962
 7014TIP3   OH221005   6.096   1.592   3.114  0.4598  0.1137 -0.1321
 7014TIP3    H121006   6.049   1.614   3.194  1.3008  1.7259 -0.0547
 7014TIP3    H221007   6.152   1.518   3.138  0.9669  0.8083  0.8706
 7015TIP3   OH221008   1.316   3.354   0.538 -0.0532  0.2265  0.2772
 7015TIP3    H121009   1.311   3.319   0.449 -0.2244  1.5074 -0.2333
 7015TIP3    H221010   1.227   3.348   0.571 -0.1175  0.3518  0.1262
 7016TIP3   OH221011   2.952   3.878   0.245 -0.5149  0.0999 -0.1656
 7016TIP3    H121012   2.999   3.850   0.166 -0.0971 -1.4454  0.5872
 7016TIP3    H221013   2.995   3.832   0.317 -0.8984  1.4677  0.9930
 7017TIP3   OH221014   6.039   2.938   3.345  0.0733  0.0303 -0.0698
 7017TIP3    H121015   6.121   2.926   3.392  0.8002  0.0798 -1.2845
 7017TIP3    H221016   6.010   2.849   3.324 -1.2576 -0.1167  2.0590
 7018TIP3   OH221017   1.163   3.632   5.226  0.2522  0.1039 -0.0391
 7018TIP3    H121018   1.203   3.655   5.310  1.4950 -0.8290 -0.3305
 7018TIP3    H221019   1.087   3.689   5.219 -0.9527 -1.0270  2.5336
 7019TIP3   OH221020   4.668   3.640   2.918  0.0689  0.7395  0.5033
 7019TIP3    H121021   4.743   3.653   2.860 -1.2195  3.2612 -0.7569
 7019TIP3    H221022   4.672   3.547   2.941  1.4324 -0.1103 -2.5692
 7020TIP3   OH221023   0.993   1.680   2.728 -0.3041  0.6404  0.1016
 7020TIP3    H121024   0.968   1.591   2.753 -1.9058  0.6813 -1.1677
 7020TIP3    H221025   1.089   1.681   2.732 -0.2688 -1.1198  0.2167
 7021TIP3   OH221026   5.800   0.242   0.205  0.5344 -0.0697 -0.5467
 7021TIP3    H121027   5.871   0.202   0.256  0.3188  0.7774  0.4375
 7021TIP3    H221028   5.772   0.173   0.145  2.9584 -0.0841 -1.7755
 7022TIP3   OH221029   3.078   1.171   0.545 -0.4798 -0.4894  0.1861
 7022TIP3    H121030   3.042   1.103   0.487  1.5444 -1.0568 -0.4607
 7022TIP3    H221031   3.012   1.179   0.614 -2.5014 -0.5068 -1.6100
 7023TIP3   OH221032   3.103   3.637   0.138 -0.0911  0.3757 -0.2753
 7023TIP3    H121033   3.163   3.648   0.212  0.6321  0.8264 -0.9273
 7023TIP3    H221034   3.030   3.587   0.175 -0.0023  1.0622  0.8867
 7024TIP3   OH221035   1.230   1.319   3.955  0.0373  0.2421 -0.1813
 7024TIP3    H121036   1.237   1.367   4.037  2.3632  0.3044 -0.3553
 7024TIP3    H221037   1.257   1.381   3.888  1.8186 -0.8792 -0.5564
 7025TIP3   OH221038   3.735   3.253   5.032 -0.2983 -0.3904 -0.8350
 7025TIP3    H121039   3.775   3.234   4.948  0.1637 -2.2457 -0.2353
 7025TIP3    H221040   3.808   3.277   5.089 -0.5949  0.7397 -0.9025
 7026TIP3   OH221041   7.125  -0.008   0.880 -0.0632 -0.5963 -0.4732
 7026TIP3    H121042   7.192   0.027   0.939  0.2990  0.4387 -1.4544
 7026TIP3    H221043   7.080   0.070   0.847 -0.5744 -1.1860 -1.1847
 7027TIP3   OH221044   5.389   0.833   5.501 -0.2423 -0.7261 -0.1590
 7027TIP3    H121045   5.427   0.920   5.511 -2.8591  0.4204  0.7807
 7027TIP3    H221046   5.368   0.806   5.590 -2.4232 -0.8333 -0.6576
 7028TIP3   OH221047   4.324   4.068   1.330  0.1791  0.3936  0.2842
 7028TIP3    H121048   4.240   4.024   1.319  0.6314 -0.2290 -0.9645
 7028TIP3    H221049   4.314   4.150   1.282 -0.1493  0.9545  1.2901
 7029TIP3   OH221050   1.203   1.532   4.548  0.1763 -0.1172 -0.3956
 7029TIP3    H121051   1.253   1.614   4.554  0.3996 -0.3164  0.5161
 7029TIP3    H221052   1.259   1.474   4.497  0.7640 -0.2394  0.3657
 7030TIP3   OH221053   2.164   5.596   2.300  0.0548 -0.4350 -0.5247
 7030TIP3    H121054   2.181   5.512   2.342  2.3384  0.1403 -0.2000
 7030TIP3    H221055   2.151   5.575   2.207 -1.0938 -1.2872 -0.1926
 7031TIP3   OH221056   2.033   3.222   0.467 -0.1061 -0.6335 -0.3697
 7031TIP3    H121057   2.087   3.238   0.544 -0.6425 -1.1124  0.1188
 7031TIP3    H221058   1.944   3.219   0.501 -0.3707 -0.6387 -1.0467
 7032TIP3   OH221059   4.771   3.255   3.051  0.6870  0.2508 -0.5094
 7032TIP3    H121060   4.742   3.179   3.100 -2.1575  2.6761  1.9995
 7032TIP3    H221061   4.729   3.246   2.966 -0.4799 -0.5295  0.1158
 7033TIP3   OH221062   5.353   3.723   0.699 -0.4889 -0.1755  0.3343
 7033TIP3    H121063   5.388   3.807   0.731  0.0189 -0.4574  0.5359
 7033TIP3    H221064   5.322   3.679   0.779 -0.5699 -0.2626  0.2542
 7034TIP3   OH221065   4.611   3.700   2.162  0.3505 -0.1228 -0.3109
 7034TIP3    H121066   4.638   3.787   2.133 -0.0913 -0.6710 -2.5105
 7034TIP3    H221067   4.528   3.685   2.116  0.9019 -2.0876 -0.7127
 7035TIP3   OH221068   5.058   4.534   4.852  0.2040  0.1268  0.1942
 7035TIP3    H121069   5.031   4.610   4.903 -0.3547 -0.1998  0.3954
 7035TIP3    H221070   4.982   4.475   4.854  0.2404  0.0227 -0.8532
 7036TIP3   OH221071   0.537   1.620   5.422  0.4047  0.3297 -0.1445
 7036TIP3    H121072   0.589   1.585   5.350 -2.3338  0.9619 -2.6381
 7036TIP3    H221073   0.551   1.714   5.419  0.7457  0.3050  0.5679
 7037TIP3   OH221074   7.074   4.816   4.595 -0.4921 -0.0858 -0.1673
 7037TIP3    H121075   6.997   4.834   4.540  0.6685 -1.4966 -2.3646
 7037TIP3    H221076   7.126   4.896   4.588 -0.8160  0.1181 -0.3183
 7038TIP3   OH221077   1.221   0.481   4.080 -0.4206 -0.0470  0.0821
 7038TIP3    H121078   1.247   0.535   4.155 -0.5332  0.7755 -0.4531
 7038TIP3    H221079   1.239   0.536   4.004 -0.7515 -0.6880 -0.4689
 7039TIP3   OH221080   3.402   5.633   0.170  0.2550 -0.2393  0.2525
 7039TIP3    H121081   3.361   5.651   0.085 -1.2017  0.7909  1.1406
 7039TIP3    H221082   3.449   5.551   0.156  1.4350  0.7244 -2.0124
 7040TIP3   OH221083   5.977   5.494   1.061  0.1227  0.4412  0.7426
 7040TIP3    H121084   5.956   5.442   0.984 -0.6592  0.3647  0.9905
 7040TIP3    H221085   5.904   5.556   1.068  0.9147  1.4298  0.5861
 7041TIP3   OH221086   3.063   4.178   4.767 -0.1787  0.4110 -0.2288
 7041TIP3    H121087   3.062   4.085   4.788  0.6894  0.4881  0.1976
 7041TIP3    H221088   2.981   4.193   4.719 -0.6577 -0.4190  0.3109
 7042TIP3   OH221089   5.120   3.529   1.413 -0.5882  0.5259  0.2843
 7042TIP3    H121090   5.158   3.517   1.500 -0.0542  1.2988  0.1683
 7042TIP3    H221091   5.193   3.557   1.359 -0.9391  0.1532 -0.3977
 7043TIP3   OH221092   6.051   1.678   2.382 -0.7259  0.0169 -0.0296
 7043TIP3    H121093   6.029   1.588   2.405  2.7228 -0.8740  0.3186
 7043TIP3    H221094   6.099   1.670   2.299  0.3579  1.4129  0.4299
 7044TIP3   OH221095   6.507   4.946   5.697  0.0521  0.0076  0.2193
 7044TIP3    H121096   6.544   4.860   5.682 -0.7530 -0.8433  2.6617
 7044TIP3    H221097   6.522   4.964   5.790 -0.2973  2.2665 -0.0863
 7045TIP3   OH221098   0.271   4.428   0.555  0.1100  0.3285  0.2571
 7045TIP3    H121099   0.193   4.470   0.592 -0.6927 -0.8177 -0.0910
 7045TIP3    H221100   0.331   4.419   0.629 -0.5089  0.2643  0.7582
 7046TIP3   OH221101   1.419   1.638   1.208  0.0426 -0.0983  0.3785
 7046TIP3    H121102   1.490   1.660   1.149  0.8536 -1.2013  0.9029
 7046TIP3    H221103   1.416   1.542   1.208 -2.2065 -0.0919 -0.5009
 7047TIP3   OH221104   3.303   4.233   4.433  0.3184 -0.0709 -0.0537
 7047TIP3    H121105   3.307   4.143   4.401  1.4526  0.4377 -1.4118
 7047TIP3    H221106   3.210   4.256   4.428  0.4314  0.1817 -3.7298
 7048TIP3   OH221107   5.951   6.667   5.385  0.3818 -0.5707  0.3367
 7048TIP3    H121108   5.948   6.627   5.297  0.4491 -0.8844  0.4750
 7048TIP3    H221109   6.014   6.738   5.377  1.6145 -1.6110  0.5424
 7049TIP3   OH221110   2.523   2.531   0.412  0.2671 -0.4414  0.5763
 7049TIP3    H121111   2.500   2.465   0.477 -1.4149 -1.7134 -1.2064
 7049TIP3    H221112   2.440   2.565   0.381  1.0672  1.1660  0.0555
 7050TIP3   OH221113   6.176   6.632   0.747 -0.2161  0.1085  0.4271
 7050TIP3    H121114   6.087   6.653   0.775 -0.2555  2.8630 -1.3651
 7050TIP3    H221115   6.170   6.542   0.714 -2.3508  0.2524  0.2767
 7051TIP3   OH221116   6.714   5.070   2.438 -0.3124 -0.4424 -0.2588
 7051TIP3    H121117   6.730   5.028   2.523 -1.3517  0.6097  0.4912
 7051TIP3    H221118   6.698   5.162   2.460 -0.5277 -0.1437 -1.6138
 7052TIP3   OH221119   6.614   3.315   2.568 -0.1685  0.0274  0.1418
 7052TIP3    H121120   6.671   3.391   2.559  0.8775 -0.7478  0.0800
 7052TIP3    H221121   6.661   3.256   2.628 -1.2290 -0.3264  0.6662
 7053TIP3   OH221122   4.387   1.391   2.971  0.5206  0.0406 -0.2535
 7053TIP3    H121123   4.341   1.336   2.907 -0.0594  1.1807 -0.8610
 7053TIP3    H221124   4.445   1.445   2.918  0.2998  0.7513  0.2112
 7054TIP3   OH221125   2.289   1.761   1.925  0.0981 -0.0320  0.3975
 7054TIP3    H121126   2.269   1.690   1.986  0.6110  0.4640  1.1643
 7054TIP3    H221127   2.381   1.781   1.941  0.0414  0.5984 -0.0245
 7055TIP3   OH221128   5.947   0.161   2.263  0.4608 -0.0658  0.2129
 7055TIP3    H121129   5.967   0.152   2.170  1.1417  1.8352  0.1236
 7055TIP3    H221130   5.860   0.124   2.273  0.8008 -1.2514 -0.9742
 7056TIP3   OH221131   6.761   6.504   1.615  0.3571  0.0370  0.2699
 7056TIP3    H121132   6.852   6.533   1.616  1.2962 -2.3636  3.9353
 7056TIP3    H221133   6.766   6.410   1.596 -1.4744  0.0082 -0.2799
 7057TIP3   OH221134   1.127   1.901   0.507 -0.0291  0.4116 -0.8227
 7057TIP3    H121135   1.039   1.878   0.476 -0.0159  1.0966 -1.4178
 7057TIP3    H221136   1.158   1.966   0.444  0.8154  0.3533 -0.4835
 7058TIP3   OH221137   4.179   0.142   1.717  0.8077  0.2451 -0.0277
 7058TIP3    H121138   4.173   0.219   1.774 -2.1292 -0.4710  0.8226
 7058TIP3    H221139   4.141   0.171   1.634 -1.1128 -0.4191  0.5629
 7059TIP3   OH221140   0.476   6.221   5.829 -0.1492 -0.0403 -0.5836
 7059TIP3    H121141   0.384   6.197   5.822 -0.1410 -0.0854 -0.5408
 7059TIP3    H221142   0.519   6.174   5.758 -0.3132  0.7737 -1.2250
 7060TIP3   OH221143   3.958   3.151   3.810  0.6509  0.2825  0.8890
 7060TIP3    H121144   3.890   3.169   3.875 -0.3263  0.8143 -0.2578
 7060TIP3    H221145   3.989   3.238   3.783  0.6406  0.0800  0.2213
 7061TIP3   OH221146   4.742   2.765   4.677 -0.6513  0.1877 -0.5966
 7061TIP3    H121147   4.729   2.701   4.747 -1.0233  1.4906  0.5952
 7061TIP3    H221148   4.819   2.734   4.630  0.6791  0.0966  1.4690
 7062TIP3   OH221149   5.036   4.723   3.095 -0.1149 -0.2975  0.2817
 7062TIP3    H121150   5.067   4.660   3.159  0.8780 -2.3673 -2.1027
 7062TIP3    H221151   4.949   4.691   3.070 -1.3922  1.6252  1.9161
 7063TIP3   OH221152   6.215   5.904   2.129 -0.0052 -0.3982 -0.0822
 7063TIP3    H121153   6.129   5.864   2.120  0.2270 -1.0817  0.6156
 7063TIP3    H221154   6.202   5.980   2.185  0.2753 -2.1345  2.5154
 7064TIP3   OH221155   2.805   4.859   2.088  0.1307 -0.1649 -0.5778
 7064TIP3    H121156   2.868   4.896   2.151 -0.1142 -1.5586  0.5318
 7064TIP3    H221157   2.771   4.781   2.131 -3.3775  1.2181 -0.5511
 7065TIP3   OH221158   5.942   0.883   0.055 -0.4760  0.3072  0.0657
 7065TIP3    H121159   6.018   0.932   0.084 -0.1668  0.7015 -1.3215
 7065TIP3    H221160   5.977   0.800   0.024 -0.9021 -0.4852  1.5862
 7066TIP3   OH221161   2.830   5.954   5.710 -0.3645  0.4671  0.2331
 7066TIP3    H121162   2.773   5.902   5.767 -1.5505  1.6941  0.2016
 7066TIP3    H221163   2.897   5.892   5.680 -2.4822 -1.4102 -0.8717
 7067TIP3   OH221164   1.003   0.300   4.869  0.1760 -0.4110  0.1490
 7067TIP3    H121165   0.911   0.325   4.857  0.3080 -0.0260 -0.0678
 7067TIP3    H221166   1.012   0.290   4.964  0.6380  2.4475  0.4762
 7068TIP3   OH221167   4.499   4.862   2.892 -0.0479 -0.8248  0.3475
 7068TIP3    H121168   4.509   4.871   2.797  0.9253  0.1728  0.5237
 7068TIP3    H221169   4.483   4.769   2.905  1.8177 -1.3300 -0.6397
 7069TIP3   OH221170   7.137   3.390   4.538 -0.2650 -0.5580  0.2647
 7069TIP3    H121171   7.213   3.333   4.523  0.2663  0.3625 -0.6045
 7069TIP3    H221172   7.154   3.430   4.623  0.9704  0.7283 -0.5346
 7070TIP3   OH221173   6.494   4.935   5.313  0.2064  0.0943  0.0238
 7070TIP3    H121174   6.534   4.957   5.229 -0.4175 -1.7636 -0.8022
 7070TIP3    H221175   6.550   4.866   5.349 -0.8369 -0.7942 -0.0055
 7071TIP3   OH221176   2.315   3.332   3.470  0.4957  0.0959 -0.0379
 7071TIP3    H121177   2.340   3.403   3.410  1.4330  1.4200  1.7966
 7071TIP3    H221178   2.237   3.366   3.515  0.7348 -0.1899  0.5956
 7072TIP3   OH221179   5.280   0.054   1.884 -0.0577  0.1868  0.0468
 7072TIP3    H121180   5.247   0.125   1.939  0.6113 -0.1977  0.9695
 7072TIP3    H221181   5.286  -0.021   1.943  1.4268 -0.0305 -0.3243
 7073TIP3   OH221182   5.585   6.709   3.695 -0.6367  0.0761  0.4236
 7073TIP3    H121183   5.639   6.754   3.760  0.6668  1.8753 -1.7601
 7073TIP3    H221184   5.513   6.770   3.678 -1.7263 -0.9731  1.0930
 7074TIP3   OH221185   0.405   6.131   5.466  0.0091 -0.1515  0.5777
 7074TIP3    H121186   0.443   6.113   5.380 -0.0350  0.3968  0.4419
 7074TIP3    H221187   0.475   6.108   5.528 -0.2644 -1.4144  0.4563
 7075TIP3   OH221188   2.124   6.626   5.870 -0.3952 -0.3669 -0.9748
 7075TIP3    H121189   2.113   6.632   5.965 -3.4824 -1.7505 -1.1420
 7075TIP3    H221190   2.213   6.658   5.855  0.0903  0.2313  2.3192
 7076TIP3   OH221191   1.115   4.023   5.880  0.6107  0.0259 -0.3260
 7076TIP3    H121192   1.190   3.965   5.864  0.0006 -1.2825  1.2169
 7076TIP3    H221193   1.066   3.979   5.950 -2.1948  0.2571 -1.9890
 7077TIP3   OH221194   4.387   4.197   4.312 -0.5497  0.6515  0.0745
 7077TIP3    H121195   4.464   4.226   4.360  0.5681  0.0282 -1.2587
 7077TIP3    H221196   4.363   4.114   4.352  0.1880  0.2792 -0.2577
 7078TIP3   OH221197   0.006   6.233   2.966 -1.1529  0.8946 -0.0926
 7078TIP3    H121198   0.012   6.212   2.873  0.6723  1.8724 -0.2550
 7078TIP3    H221199  -0.002   6.149   3.010  1.8813  0.0238 -0.9521
 7079TIP3   OH221200   6.503   0.689   1.883  0.3809  0.9363 -0.3951
 7079TIP3    H121201   6.469   0.698   1.794  0.9859 -1.3494 -0.9329
 7079TIP3    H221202   6.598   0.697   1.875  0.6273 -1.2274 -0.3540
 7080TIP3   OH221203   5.703   0.399   5.007 -0.1860  0.5940  0.5094
 7080TIP3    H121204   5.641   0.436   5.070 -0.2792  0.5585  0.4391
 7080TIP3    H221205   5.705   0.463   4.936  0.0924  0.7470  0.6502
 7081TIP3   OH221206   0.904   3.736   1.830 -0.4885 -0.2368 -0.2110
 7081TIP3    H121207   0.897   3.654   1.782 -0.1948 -0.3516 -0.0572
 7081TIP3    H221208   0.861   3.719   1.914  1.5745 -0.9649  0.7660
 7082TIP3   OH221209   1.921   4.875   5.533  0.2164  0.4229 -0.6571
 7082TIP3    H121210   2.010   4.910   5.535  0.2288  0.5384 -2.0231
 7082TIP3    H221211   1.921   4.811   5.462 -0.5052 -0.4289  0.0740
 7083TIP3   OH221212   2.956   3.617   3.063 -0.1867  0.2550 -0.3600
 7083TIP3    H121213   2.937   3.585   2.975  0.2339 -1.6001  0.1849
 7083TIP3    H221214   2.978   3.538   3.114  0.4864  1.3718  1.1742
 7084TIP3   OH221215   6.025   4.975   4.286 -0.0327  0.0317  0.0678
 7084TIP3    H121216   5.938   4.999   4.253 -0.1779 -1.1504 -0.4918
 7084TIP3    H221217   6.036   4.884   4.258 -0.0302 -0.9587  3.0225
 7085TIP3   OH221218   1.602   4.398   3.919 -0.3411 -0.3602  0.1572
 7085TIP3    H121219   1.664   4.331   3.951 -1.2401 -0.6153  1.4483
 7085TIP3    H221220   1.633   4.479   3.959  0.8710  0.0891 -1.5732
 7086TIP3   OH221221   6.286   0.852   2.411  0.0294  0.6530  0.0850
 7086TIP3    H121222   6.349   0.805   2.357  0.5670  0.1124  1.1515
 7086TIP3    H221223   6.239   0.783   2.458 -1.6739  1.0190 -0.9958
 7087TIP3   OH221224   5.593   3.658   3.884  0.4408 -0.0945  0.5769
 7087TIP3    H121225   5.561   3.655   3.794 -0.7398 -1.3469  0.9909
 7087TIP3    H221226   5.609   3.750   3.901 -0.4975  0.2992 -0.5378
 7088TIP3   OH221227   4.961   2.297   1.461  0.4536 -0.7315 -0.1872
 7088TIP3    H121228   5.049   2.302   1.426  1.0790 -3.6106  0.6622
 7088TIP3    H221229   4.973   2.285   1.556 -1.0084  1.7263  0.3989
 7089TIP3   OH221230   3.893   6.073   4.605 -0.4903 -0.4694 -0.3336
 7089TIP3    H121231   3.874   5.984   4.635 -2.3196 -0.4608 -1.2692
 7089TIP3    H221232   3.969   6.064   4.548  0.4569 -1.1286  0.9995
 7090TIP3   OH221233   6.411   5.008   2.099  0.1687  0.3750  0.6156
 7090TIP3    H121234   6.494   4.985   2.140  0.6612  0.1221 -0.4792
 7090TIP3    H221235   6.427   5.093   2.058  0.3145 -0.2637 -0.7042
 7091TIP3   OH221236   4.528   0.426   1.357  0.4786  0.1145  0.0844
 7091TIP3    H121237   4.562   0.513   1.378  0.0696  0.2131  0.3615
 7091TIP3    H221238   4.459   0.443   1.293  0.3909 -0.0018  0.1470
 7092TIP3   OH221239   0.771   5.057   0.926 -0.0384  0.3670  0.1347
 7092TIP3    H121240   0.815   5.101   0.854 -0.0393  0.1806  0.0184
 7092TIP3    H221241   0.719   4.988   0.884  2.0819 -1.5798  0.4581
 7093TIP3   OH221242   6.271   1.715   3.417  0.4745  0.1218 -0.0679
 7093TIP3    H121243   6.313   1.764   3.488  1.0516 -0.3582 -0.0737
 7093TIP3    H221244   6.266   1.778   3.345 -1.5233  1.1048  0.8530
 7094TIP3   OH221245   2.142   5.616   1.687 -0.1588  0.3283 -0.2563
 7094TIP3    H121246   2.049   5.627   1.669  0.0470  1.1147 -0.8652
 7094TIP3    H221247   2.177   5.573   1.608 -0.2314 -1.1807  0.4966
 7095TIP3   OH221248   3.237   4.561   4.712 -0.0701 -0.1817 -0.1211
 7095TIP3    H121249   3.198   4.632   4.764  1.4067 -0.1425  1.0063
 7095TIP3    H221250   3.203   4.481   4.751  1.4041 -0.1677  1.2990
 7096TIP3   OH221251   0.565   1.650   3.445  0.1321 -0.2704  0.2028
 7096TIP3    H121252   0.648   1.695   3.433 -0.2663  0.4017 -0.0954
 7096TIP3    H221253   0.511   1.677   3.371  0.0154 -1.5747 -0.2126
 7097TIP3   OH221254   5.422   5.996   5.071  0.0962 -0.6123 -0.6552
 7097TIP3    H121255   5.364   6.064   5.103  0.4511 -0.7951  0.4020
 7097TIP3    H221256   5.465   6.035   4.994 -0.1183  0.1449 -0.3898
 7098TIP3   OH221257   3.954   6.505   5.072 -0.3188 -0.2293  0.5079
 7098TIP3    H121258   3.911   6.445   5.133  0.4327 -0.9623  0.3428
 7098TIP3    H221259   4.047   6.498   5.094 -0.0887 -0.1505 -0.4026
 7099TIP3   OH221260   4.797   5.053   1.259 -0.0511 -0.9183  0.0213
 7099TIP3    H121261   4.712   5.094   1.254  0.4672  0.1966  0.1171
 7099TIP3    H221262   4.801   4.995   1.183 -0.3190  0.1561 -0.8375
 7100TIP3   OH221263   0.779   0.803   3.251  0.7058 -0.1454  0.2468
 7100TIP3    H121264   0.799   0.823   3.343 -1.1020  3.7494  0.0371
 7100TIP3    H221265   0.766   0.709   3.249  1.6050 -0.4896  3.8251
 7101TIP3   OH221266   1.130   0.229   0.862 -0.0450  0.3078  0.1442
 7101TIP3    H121267   1.076   0.161   0.821  0.4528  0.6327 -1.0892
 7101TIP3    H221268   1.155   0.191   0.946  0.0752 -0.9713 -0.4432
 7102TIP3   OH221269   2.941   5.116   2.503  0.6093 -0.5229  0.6181
 7102TIP3    H121270   2.975   5.094   2.590  0.7638  2.2279  1.3286
 7102TIP3    H221271   3.005   5.178   2.467  0.7881 -1.9424 -1.7092
 7103TIP3   OH221272   0.635   2.366   0.809  0.2427 -0.3050 -0.7278
 7103TIP3    H121273   0.624   2.461   0.814 -0.7725 -0.2623 -2.8158
 7103TIP3    H221274   0.728   2.354   0.790  0.7286  0.1359  1.1004
 7104TIP3   OH221275   6.848   6.454   5.480  0.4300 -0.1173 -0.3714
 7104TIP3    H121276   6.925   6.509   5.488  0.0358  0.5699 -1.0815
 7104TIP3    H221277   6.791   6.480   5.553  1.1330 -1.0975  0.5505
 7105TIP3   OH221278   6.963   0.044   5.290 -0.2219  0.2931  0.2482
 7105TIP3    H121279   6.975  -0.042   5.249 -0.4823  0.6915 -0.6755
 7105TIP3    H221280   6.883   0.035   5.341 -0.1364 -0.0720  0.3213
 7106TIP3   OH221281   5.725   6.232   1.566 -0.0680 -0.2468  0.5012
 7106TIP3    H121282   5.754   6.162   1.625 -0.4538 -0.7230  0.1379
 7106TIP3    H221283   5.636   6.252   1.595 -0.7502 -1.3796 -0.7012
 7107TIP3   OH221284   4.887   3.739   1.367  0.1070 -1.0065 -0.2344
 7107TIP3    H121285   4.829   3.672   1.405 -0.9876 -0.3036 -0.6118
 7107TIP3    H221286   4.892   3.718   1.274 -1.7220  0.4176 -0.7206
 7108TIP3   OH221287   3.792   5.101   3.977 -0.2153 -0.1811  0.7886
 7108TIP3    H121288   3.718   5.065   4.027 -1.3463 -0.4761 -1.0120
 7108TIP3    H221289   3.756   5.177   3.932  0.5188 -0.4531 -0.2904
 7109TIP3   OH221290   6.506   1.321   2.619 -0.2762 -0.0822 -0.1836
 7109TIP3    H121291   6.580   1.266   2.590 -1.2059 -0.3020 -2.3101
 7109TIP3    H221292   6.515   1.402   2.568 -1.1277  0.1552  0.0308
 7110TIP3   OH221293   2.279   5.066   1.616 -0.4458  0.0637 -0.1448
 7110TIP3    H121294   2.278   4.971   1.627  0.2715 -0.0252 -0.7549
 7110TIP3    H221295   2.241   5.100   1.697  0.5616 -0.7002  0.6797
 7111TIP3   OH221296   5.675   3.685   2.047 -0.1482  0.5542 -0.2427
 7111TIP3    H121297   5.640   3.612   2.097  2.6155 -0.6481  0.1251
 7111TIP3    H221298   5.620   3.690   1.969 -1.9976 -0.1911  0.9723
 7112TIP3   OH221299   2.511   2.724   1.315  0.3694 -0.5966  0.5246
 7112TIP3    H121300   2.431   2.777   1.317 -0.1897 -1.4187  2.2704
 7112TIP3    H221301   2.582   2.787   1.325  0.2393  0.4683 -3.6699
 7113TIP3   OH221302   6.344   6.141   3.385  0.0409 -0.1208  0.0959
 7113TIP3    H121303   6.352   6.220   3.439  0.5420 -0.3189  0.3219
 7113TIP3    H221304   6.434   6.113   3.371 -0.1536 -1.0772  0.6505
 7114TIP3   OH221305   4.195   2.810   2.174 -0.0725 -0.2139  0.5274
 7114TIP3    H121306   4.180   2.741   2.110 -0.1474 -0.0599  0.3791
 7114TIP3    H221307   4.271   2.780   2.225 -0.0462 -0.3588  0.4025
 7115TIP3   OH221308   5.964   2.987   2.478  0.4047  0.0544  0.1969
 7115TIP3    H121309   5.869   2.979   2.480 -0.0303  2.8338 -2.2340
 7115TIP3    H221310   5.996   2.900   2.456 -1.5329 -0.9578  1.1819
 7116TIP3   OH221311   1.398   0.534   1.334  0.0338  0.2171  0.7235
 7116TIP3    H121312   1.482   0.580   1.335 -0.6777  1.5857  0.4351
 7116TIP3    H221313   1.340   0.589   1.387 -1.4580  0.9183 -1.4754
 7117TIP3   OH221314   2.259   6.574   5.312  0.8304  0.4443 -0.0898
 7117TIP3    H121315   2.264   6.492   5.263 -0.7646  0.9216 -1.1386
 7117TIP3    H221316   2.277   6.550   5.403  1.8042 -0.8092 -0.5977
 7118TIP3   OH221317   3.342   0.147   2.641 -0.2856 -0.3753  0.5111
 7118TIP3    H121318   3.363   0.218   2.580 -0.8630 -0.8088 -0.2018
 7118TIP3    H221319   3.319   0.192   2.722  0.4390  0.2074  0.4067
 7119TIP3   OH221320   0.099   5.473   5.784 -0.0880 -0.3034 -0.3433
 7119TIP3    H121321   0.081   5.560   5.821  3.7199  0.0414  1.1608
 7119TIP3    H221322   0.071   5.412   5.853 -0.4084 -0.1155 -0.3052
 7120TIP3   OH221323   0.236   6.144   1.943  0.2703  0.2321  0.1530
 7120TIP3    H121324   0.251   6.233   1.911  1.5483 -0.1864 -0.4985
 7120TIP3    H221325   0.182   6.103   1.875  0.0405  0.3834  0.2443
 7121TIP3   OH221326   3.610   1.811   4.338  0.0085 -0.2188  0.1035
 7121TIP3    H121327   3.610   1.863   4.418  0.8736 -2.1297  1.4144
 7121TIP3    H221328   3.518   1.810   4.309 -0.1977  1.0395  0.6705
 7122TIP3   OH221329   0.601   0.296   3.951  0.0984  0.3317  0.0469
 7122TIP3    H121330   0.641   0.325   4.033 -1.4063 -0.2623  1.0344
 7122TIP3    H221331   0.654   0.222   3.923  2.7407  2.6060 -1.4238
 7123TIP3   OH221332   4.971   4.666   5.679 -0.6971  0.2837 -0.1295
 7123TIP3    H121333   4.968   4.732   5.610  0.1137  0.0022 -0.4514
 7123TIP3    H221334   5.043   4.694   5.735 -0.3225 -0.3428 -0.2924
 7124TIP3   OH221335   2.037   4.786   4.442  0.5062 -0.0592 -0.2817
 7124TIP3    H121336   2.056   4.694   4.461 -1.1330 -0.4486 -0.3771
 7124TIP3    H221337   1.950   4.784   4.402  0.2772  1.5786  0.0843
 7125TIP3   OH221338   5.322   1.042   0.942 -0.6462 -0.0004 -0.7478
 7125TIP3    H121339   5.241   1.076   0.906 -0.6691  0.2417 -0.4741
 7125TIP3    H221340   5.371   1.009   0.867 -0.8499  0.1687 -0.9524
 7126TIP3   OH221341   2.714   5.151   5.931  0.1083 -0.8663  0.0818
 7126TIP3    H121342   2.680   5.088   5.867  1.2403 -1.4127 -0.0132
 7126TIP3    H221343   2.766   5.212   5.878  0.3926 -0.8514  0.3771
 7127TIP3   OH221344   3.198   6.050   2.726  0.5698  0.0208 -0.2346
 7127TIP3    H121345   3.285   6.012   2.721  0.6700  0.1620  0.3584
 7127TIP3    H221346   3.181   6.060   2.820  0.2483  0.7444 -0.3596
 7128TIP3   OH221347   6.753   6.806   1.055  0.3495  0.2192  0.0451
 7128TIP3    H121348   6.811   6.880   1.073  1.8659 -0.6458 -1.1048
 7128TIP3    H221349   6.796   6.731   1.097 -0.0712 -0.3905 -0.5902
 7129TIP3   OH221350   4.212   4.689   2.155 -0.0324  0.2012 -0.3002
 7129TIP3    H121351   4.132   4.682   2.206  0.2450  1.5070  0.3536
 7129TIP3    H221352   4.208   4.616   2.094  0.4465 -2.6297  2.7340
 7130TIP3   OH221353   1.844   1.156   2.638 -0.0083 -0.0040 -0.0748
 7130TIP3    H121354   1.926   1.109   2.655  0.6397  0.0461 -2.6304
 7130TIP3    H221355   1.871   1.246   2.621 -0.6013  0.0629 -0.7137
 7131TIP3   OH221356   6.527   1.781   2.692  0.8009 -0.1872 -0.6238
 7131TIP3    H121357   6.572   1.699   2.676 -0.4724 -1.1817  0.6148
 7131TIP3    H221358   6.436   1.765   2.666 -0.1483 -0.2033  2.2670
 7132TIP3   OH221359   1.324   6.042   0.935 -0.0287 -0.1792 -0.8329
 7132TIP3    H121360   1.317   5.958   0.980 -0.7451 -0.4104 -1.3601
 7132TIP3    H221361   1.291   6.025   0.847 -0.2159  0.6610 -0.9338
 7133TIP3   OH221362   4.590   5.256   1.087 -0.1889 -0.0495 -0.3066
 7133TIP3    H121363   4.679   5.261   1.054 -0.2884 -0.3176 -0.6212
 7133TIP3    H221364   4.579   5.335   1.140 -0.7917  1.7060 -2.8540
 7134TIP3   OH221365   6.985   4.693   0.347 -0.0226 -0.3399 -0.6339
 7134TIP3    H121366   6.981   4.600   0.323 -1.3107  0.1894 -2.7205
 7134TIP3    H221367   6.933   4.699   0.427  0.2964 -1.4473 -0.3285
 7135TIP3   OH221368   2.821   5.853   2.156  0.2517 -0.2183  0.0630
 7135TIP3    H121369   2.770   5.821   2.230 -0.4721  1.9707  0.5884
 7135TIP3    H221370   2.762   5.848   2.081 -0.8883  2.3132  0.6683
 7136TIP3   OH221371   3.325   4.929   3.163 -0.0828  0.0158 -0.1869
 7136TIP3    H121372   3.305   4.837   3.150  1.8935 -0.2530 -1.7549
 7136TIP3    H221373   3.333   4.965   3.074  0.1263  1.4781  0.3853
 7137TIP3   OH221374   6.255   1.464   4.605 -0.2911 -0.5909 -0.1054
 7137TIP3    H121375   6.337   1.489   4.647 -0.4838  1.8861 -1.0193
 7137TIP3    H221376   6.280   1.446   4.514 -0.8874  1.3244 -0.6741
 7138TIP3   OH221377   0.606   1.811   2.311  0.0267 -0.6381  0.1106
 7138TIP3    H121378   0.592   1.790   2.403  3.4745  1.4769  1.3338
 7138TIP3    H221379   0.563   1.896   2.299  3.0142  1.1545  1.1255
 7139TIP3   OH221380   6.036   1.642   1.746 -0.0090  0.8381 -0.0407
 7139TIP3    H121381   6.034   1.627   1.651  1.6652 -2.5133  0.2901
 7139TIP3    H221382   6.127   1.665   1.764  0.2874 -0.9615  0.9544
 7140TIP3   OH221383   1.768   6.645   2.819  0.0465  0.0779 -0.7390
 7140TIP3    H121384   1.779   6.550   2.823 -0.9862 -0.0652 -1.1107
 7140TIP3    H221385   1.751   6.672   2.909 -1.4281 -0.3300 -0.8757
 7141TIP3   OH221386   3.708   5.714   2.111 -0.0648  0.0803  0.5050
 7141TIP3    H121387   3.736   5.796   2.153  0.0044  0.3895 -0.1292
 7141TIP3    H221388   3.774   5.650   2.138 -0.3533  0.1184  1.3540
 7142TIP3   OH221389   7.187   3.361   0.688  0.5615 -0.0677  0.0903
 7142TIP3    H121390   7.256   3.344   0.751 -1.1688 -0.2785  2.0278
 7142TIP3    H221391   7.160   3.451   0.704 -0.3186 -0.3219  0.0929
 7143TIP3   OH221392   5.538   2.546   4.929  0.2742  0.6389 -0.3786
 7143TIP3    H121393   5.567   2.556   4.838  2.0658 -1.3349 -0.1110
 7143TIP3    H221394   5.443   2.550   4.924  0.3131  0.4724 -2.3591
 7144TIP3   OH221395   4.139   2.613   2.392 -0.0394 -0.0716 -0.2393
 7144TIP3    H121396   4.141   2.685   2.455 -0.4497  0.1682 -0.4955
 7144TIP3    H221397   4.050   2.614   2.357  0.4060  0.3177 -1.4072
 7145TIP3   OH221398   4.316   5.273   1.129  0.3741  0.6553 -0.2150
 7145TIP3    H121399   4.384   5.224   1.083 -0.6193  0.1978 -1.2341
 7145TIP3    H221400   4.327   5.248   1.221  0.2762 -1.0531 -0.6254
 7146TIP3   OH221401   4.664   6.798   3.363  0.2019  0.0894  0.0676
 7146TIP3    H121402   4.665   6.710   3.326  0.1082  0.1740 -0.1389
 7146TIP3    H221403   4.608   6.791   3.441 -0.2599  0.0850 -0.2553
 7147TIP3   OH221404   6.604   1.679   1.224 -0.6581  0.1501 -0.5619
 7147TIP3    H121405   6.509   1.690   1.211 -0.3132  1.8108 -2.1166
 7147TIP3    H221406   6.613   1.662   1.317 -2.4836 -0.0012 -0.3615
 7148TIP3   OH221407   6.108   2.163   1.829  0.2452 -0.2546  0.2206
 7148TIP3    H121408   6.094   2.221   1.755 -0.5022  1.5421  1.6704
 7148TIP3    H221409   6.028   2.110   1.834  0.7186 -1.0859 -0.8172
 7149TIP3   OH221410   4.764   5.515   4.984  0.3744 -0.3035  0.3357
 7149TIP3    H121411   4.759   5.610   4.982 -0.6685 -0.3235  1.2426
 7149TIP3    H221412   4.842   5.494   4.932 -0.2667  0.9527 -1.2250
 7150TIP3   OH221413   2.597   1.847   4.885  0.2466 -0.1606  0.0599
 7150TIP3    H121414   2.571   1.905   4.956  0.5714  0.1788 -0.0988
 7150TIP3    H221415   2.630   1.905   4.817  0.8458 -0.5485  0.0157
 7151TIP3   OH221416   3.972   2.521   1.180 -0.6294  0.1822  0.4030
 7151TIP3    H121417   3.942   2.473   1.258 -1.7927  1.2114  0.6196
 7151TIP3    H221418   3.939   2.469   1.106  0.5250 -0.8278  0.5664
 7152TIP3   OH221419   5.290   1.519   3.133 -0.1792  0.2321  0.3499
 7152TIP3    H121420   5.263   1.597   3.084  1.0915 -0.9384 -2.3988
 7152TIP3    H221421   5.240   1.448   3.093  0.9636 -0.7990  0.7220
 7153TIP3   OH221422   1.264   2.197   2.162  0.2603  0.5263  0.3506
 7153TIP3    H121423   1.299   2.230   2.079 -0.3884 -0.3790 -0.3033
 7153TIP3    H221424   1.275   2.102   2.157 -2.0358  0.2113  0.1997
 7154TIP3   OH221425   0.378   0.133   1.505  0.0218  0.0987 -0.1498
 7154TIP3    H121426   0.366   0.200   1.438 -2.2757 -0.4433 -0.3410
 7154TIP3    H221427   0.325   0.163   1.579 -2.6343 -2.3508 -0.9193
 7155TIP3   OH221428   6.094   0.637   4.642 -0.1208  0.1513 -0.1773
 7155TIP3    H121429   6.031   0.709   4.643 -2.2110 -1.5916  0.8618
 7155TIP3    H221430   6.092   0.604   4.552  0.3779  0.9425 -0.4931
 7156TIP3   OH221431   4.897   2.116   4.304 -0.1813 -0.6708 -0.3636
 7156TIP3    H121432   4.895   2.205   4.271 -1.1372 -0.1864  0.9069
 7156TIP3    H221433   4.954   2.120   4.381 -0.7039 -1.0251  0.0468
 7157TIP3   OH221434   3.439   0.074   3.483 -0.1047  0.1188 -0.0084
 7157TIP3    H121435   3.411   0.019   3.556  0.5704  0.4802  0.5395
 7157TIP3    H221436   3.391   0.040   3.407 -0.7437 -0.3241  0.5813
 7158TIP3   OH221437   4.991   4.543   3.769  0.4322 -0.4597  0.1109
 7158TIP3    H121438   4.937   4.596   3.828  0.3193 -0.6722  0.2009
 7158TIP3    H221439   5.045   4.607   3.723  1.6250 -0.4009  1.5285
 7159TIP3   OH221440   7.096   4.222   4.631  0.3518  0.0121  0.2276
 7159TIP3    H121441   7.082   4.171   4.710 -1.2897  0.4419  0.2571
 7159TIP3    H221442   7.008   4.241   4.599  0.9699 -0.5710 -1.9915
 7160TIP3   OH221443   4.214   4.587   1.076  0.3061 -0.0801  0.1823
 7160TIP3    H121444   4.168   4.596   1.159 -1.6878 -2.2158 -0.5839
 7160TIP3    H221445   4.264   4.505   1.085 -1.1875 -1.2009 -1.1883
 7161TIP3   OH221446   1.721   2.604   1.368  0.3520 -0.3525 -0.5996
 7161TIP3    H121447   1.669   2.638   1.295  0.1194  1.7570  0.4921
 7161TIP3    H221448   1.686   2.648   1.445  1.7618 -1.2046  0.5697
 7162TIP3   OH221449   0.545   3.802   2.311  0.1318  0.3213 -0.5769
 7162TIP3    H121450   0.493   3.860   2.368 -0.5236  0.5442 -1.3789
 7162TIP3    H221451   0.493   3.794   2.232  0.4958 -0.9189 -0.7089
 7163TIP3   OH221452   2.994   1.580   5.465  0.0557 -0.2903 -0.3039
 7163TIP3    H121453   3.026   1.657   5.420 -0.6151 -0.1676 -0.5796
 7163TIP3    H221454   3.062   1.514   5.453 -0.0056 -0.1780 -1.2774
 7164TIP3   OH221455   4.507   5.962   5.401 -0.0151 -0.1724  0.2897
 7164TIP3    H121456   4.452   5.895   5.360  0.1794 -0.5306  0.6086
 7164TIP3    H221457   4.585   5.965   5.346 -0.5667  0.7214 -0.4811
 7165TIP3   OH221458   0.560   4.256   0.212 -0.2703  0.6617  0.2168
 7165TIP3    H121459   0.480   4.301   0.239 -0.4417  0.3270  0.2702
 7165TIP3    H221460   0.583   4.201   0.287  0.3744  1.2451  0.4610
 7166TIP3   OH221461   3.381   1.776   2.392  0.0981  0.2397  0.1100
 7166TIP3    H121462   3.346   1.852   2.345  0.1916  0.4736  0.4149
 7166TIP3    H221463   3.337   1.778   2.477  0.0253 -0.1081  0.0824
 7167TIP3   OH221464   6.636   3.286   4.708 -0.1622 -0.4755 -0.1858
 7167TIP3    H121465   6.553   3.284   4.754  0.0072  0.5687  0.1974
 7167TIP3    H221466   6.668   3.375   4.721  0.6123 -0.6173 -1.0435
 7168TIP3   OH221467   1.498   2.680   4.123 -0.1778  0.0199  0.0254
 7168TIP3    H121468   1.439   2.651   4.193  1.1811 -0.4485  1.0188
 7168TIP3    H221469   1.520   2.600   4.075 -1.0546  0.3304 -0.9363
 7169TIP3   OH221470   2.519   3.340   1.006 -0.6111  0.1014 -0.0995
 7169TIP3    H121471   2.531   3.377   1.093 -1.4549  0.9753 -0.3339
 7169TIP3    H221472   2.431   3.303   1.006 -0.4407 -0.3193 -0.4328
 7170TIP3   OH221473   4.464   3.272   4.505 -0.1934  0.1510  0.2706
 7170TIP3    H121474   4.498   3.359   4.523 -1.8088  0.7871  0.4441
 7170TIP3    H221475   4.390   3.262   4.566 -1.2036 -0.5662 -1.0178
 7171TIP3   OH221476   2.076   5.044   2.552  0.3320 -0.1680  0.7356
 7171TIP3    H121477   2.135   5.043   2.476 -1.4832  0.3286 -0.7748
 7171TIP3    H221478   2.064   4.952   2.574  0.7351 -0.3360  0.2651
 7172TIP3   OH221479   6.920   2.576   0.097 -0.9391 -0.5480 -0.2879
 7172TIP3    H121480   6.994   2.630   0.126 -0.9083 -0.1236 -1.1345
 7172TIP3    H221481   6.873   2.556   0.178 -0.8038  0.5400  0.0832
 7173TIP3   OH221482   0.245   1.597   1.025 -0.1364 -0.4507  0.2468
 7173TIP3    H121483   0.298   1.613   0.947 -0.5668 -0.4542 -0.0485
 7173TIP3    H221484   0.180   1.666   1.025  0.4228  0.1069  1.1157
 7174TIP3   OH221485   5.153   0.223   0.374  0.7348  0.0187 -0.0573
 7174TIP3    H121486   5.124   0.283   0.443  0.6168  0.0059 -0.0955
 7174TIP3    H221487   5.115   0.259   0.294 -1.5445 -1.5450  0.2387
 7175TIP3   OH221488   6.315   2.141   2.678 -0.3490 -0.2465  0.3995
 7175TIP3    H121489   6.345   2.209   2.739  1.5638 -1.4527  0.9035
 7175TIP3    H221490   6.252   2.090   2.729  1.0661 -1.1067  1.3611
 7176TIP3   OH221491   5.084   5.079   3.152  0.4921  0.0280  0.0948
 7176TIP3    H121492   5.084   5.132   3.072  0.3560  1.4111  0.9614
 7176TIP3    H221493   4.998   5.037   3.154  0.9352 -0.9713 -1.0602
 7177TIP3   OH221494   0.086   3.659   3.513  0.2568  0.0405  0.1997
 7177TIP3    H121495   0.016   3.612   3.468  0.0659  0.1690  0.3634
 7177TIP3    H221496   0.047   3.689   3.594  0.3521  0.5704  0.0538
 7178TIP3   OH221497   6.727   2.442   1.135 -0.7442  0.2763  0.2200
 7178TIP3    H121498   6.751   2.357   1.170  1.1578 -0.1656 -1.8866
 7178TIP3    H221499   6.650   2.426   1.081 -2.3792  0.5773  2.3265
 7179TIP3   OH221500   3.006   1.171   1.833  0.5157  0.0473 -0.5984
 7179TIP3    H121501   2.914   1.148   1.839  0.4737  0.5473  1.4043
 7179TIP3    H221502   3.038   1.125   1.755 -1.1798 -0.9059 -0.7647
 7180TIP3   OH221503   2.845   2.017   5.073 -0.0089  0.8092 -0.4746
 7180TIP3    H121504   2.789   2.094   5.082 -1.3939 -0.3292  1.3105
 7180TIP3    H221505   2.786   1.943   5.091  1.7516 -0.5355 -0.0399
 7181TIP3   OH221506   1.830  -0.001   5.726  0.2313 -0.7304  0.1940
 7181TIP3    H121507   1.882   0.025   5.650 -1.7137 -0.1047 -0.9924
 7181TIP3    H221508   1.799   0.082   5.764 -0.1478 -1.0995  0.7066
 7182TIP3   OH221509   4.996   1.107   3.056  0.1994  0.0966  0.3631
 7182TIP3    H121510   4.995   1.189   3.105  0.5889 -0.6587  1.6992
 7182TIP3    H221511   5.049   1.048   3.110  0.2252 -0.9288 -0.7430
 7183TIP3   OH221512   1.456   1.152   1.808  0.4110  0.0384  0.8137
 7183TIP3    H121513   1.461   1.067   1.765 -0.7097 -0.7749  2.2023
 7183TIP3    H221514   1.482   1.135   1.898 -2.9302  0.4233  1.9854
 7184TIP3   OH221515   6.835   4.292   4.545  0.5518  0.1321 -0.3000
 7184TIP3    H121516   6.857   4.379   4.579 -0.3677  0.6922 -1.0973
 7184TIP3    H221517   6.806   4.308   4.456 -0.8597 -0.8488 -0.0398
 7185TIP3   OH221518   1.739   0.605   4.754 -0.4933  0.1491 -0.0738
 7185TIP3    H121519   1.748   0.564   4.840 -0.7807 -0.8642 -0.5150
 7185TIP3    H221520   1.659   0.658   4.760  0.8769  2.2493  1.1082
 7186TIP3   OH221521   1.612   5.505   1.233  0.1350  0.2625 -0.1208
 7186TIP3    H121522   1.699   5.495   1.195 -0.1682 -0.9943 -0.5253
 7186TIP3    H221523   1.600   5.427   1.287 -1.1792 -0.1810 -0.9936
 7187TIP3   OH221524   4.471   6.626   4.167  0.9212 -0.3280 -0.3968
 7187TIP3    H121525   4.478   6.533   4.190  1.1111 -0.0998  0.5208
 7187TIP3    H221526   4.520   6.671   4.237  1.2219  0.4289 -1.0851
 7188TIP3   OH221527   3.766   1.251   2.135 -0.0489  0.0264  0.0428
 7188TIP3    H121528   3.673   1.270   2.149 -0.0784  0.6185 -0.9328
 7188TIP3    H221529   3.767   1.162   2.100 -0.1913 -0.2284  0.6633
 7189TIP3   OH221530   0.058   1.487   1.987  0.1697 -0.0638 -0.2709
 7189TIP3    H121531   0.017   1.573   1.994 -0.9495 -0.5389 -0.8572
 7189TIP3    H221532   0.115   1.493   1.911  0.2452  0.2084 -0.1944
 7190TIP3   OH221533   4.519   5.129   4.377 -0.2413 -0.2682  0.0101
 7190TIP3    H121534   4.522   5.034   4.373 -0.3754 -0.3007  0.5677
 7190TIP3    H221535   4.458   5.155   4.308 -0.5598 -0.6152  0.1597
 7191TIP3   OH221536   6.301   3.689   2.351 -0.2413 -0.3490  0.2738
 7191TIP3    H121537   6.384   3.644   2.363 -0.6132 -1.4185 -1.0100
 7191TIP3    H221538   6.325   3.781   2.341  0.7828 -0.6432 -0.0476
 7192TIP3   OH221539   5.730   0.059   1.656 -0.4134 -0.4060 -0.2734
 7192TIP3    H121540   5.755   0.092   1.570 -1.4642 -0.0263 -0.4400
 7192TIP3    H221541   5.768   0.121   1.718 -0.7518  0.0429 -0.5134
 7193TIP3   OH221542   0.889   6.218   2.786 -0.3661  0.3582 -0.2895
 7193TIP3    H121543   0.934   6.216   2.871  1.8507 -0.8674 -1.4019
 7193TIP3    H221544   0.869   6.310   2.772  1.6233  0.9712  0.4383
 7194TIP3   OH221545   1.960   1.657   0.718  0.5570 -0.5499  0.5139
 7194TIP3    H121546   1.915   1.705   0.648 -0.6811  1.9168  2.7997
 7194TIP3    H221547   2.041   1.706   0.733  0.0547 -0.0702  1.8059
 7195TIP3   OH221548   6.514   5.275   3.748  0.3928  0.1607 -0.2816
 7195TIP3    H121549   6.596   5.321   3.769  1.1477 -1.4857  0.5942
 7195TIP3    H221550   6.495   5.300   3.658  0.5996  2.3706  0.2308
 7196TIP3   OH221551   0.129   1.631   2.275  0.6414  0.6541  0.2655
 7196TIP3    H121552   0.145   1.545   2.315  0.9776  1.0232  0.9446
 7196TIP3    H221553   0.129   1.614   2.181  0.5005 -0.1248  0.3977
 7197TIP3   OH221554   2.641   4.872   0.933 -0.1780 -0.2069  0.3060
 7197TIP3    H121555   2.598   4.798   0.976 -2.2816  0.3473 -0.7522
 7197TIP3    H221556   2.727   4.837   0.906 -0.4171 -1.7139  1.3811
 7198TIP3   OH221557   0.188   1.924   5.575 -0.0549  0.5900 -0.0005
 7198TIP3    H121558   0.143   1.883   5.649 -1.6829  0.5013 -0.9726
 7198TIP3    H221559   0.165   1.869   5.500 -1.3379  2.5308 -1.1441
 7199TIP3   OH221560   1.041   3.265   4.207 -0.5612 -0.2736  0.0677
 7199TIP3    H121561   0.995   3.187   4.238 -1.5857  0.2010 -0.2427
 7199TIP3    H221562   1.024   3.266   4.113  1.2507 -0.8537 -0.3161
 7200TIP3   OH221563   5.303   4.820   5.065 -0.4591 -0.1024  0.1858
 7200TIP3    H121564   5.327   4.739   5.111  1.6807  1.2401  1.5909
 7200TIP3    H221565   5.374   4.835   5.003 -0.3596  1.1217  0.5626
 7201TIP3   OH221566   4.285   0.209   2.172  0.1013 -0.0862 -0.8994
 7201TIP3    H121567   4.282   0.239   2.081  1.7105  4.4248  0.2575
 7201TIP3    H221568   4.204   0.160   2.184 -0.9916  0.6058 -4.2806
 7202TIP3   OH221569   0.970   6.109   3.598  0.2810  0.2225  0.3137
 7202TIP3    H121570   0.939   6.119   3.688  1.9238 -1.6266  1.1398
 7202TIP3    H221571   1.038   6.043   3.602  1.0567  0.7345 -2.1712
 7203TIP3   OH221572   5.211   4.731   0.789 -0.2369 -0.0402  0.0074
 7203TIP3    H121573   5.276   4.701   0.725  2.2932  2.4177  1.1841
 7203TIP3    H221574   5.253   4.717   0.874 -2.2982 -0.5519  0.9953
 7204TIP3   OH221575   1.199   2.947   5.424  0.2311  0.4645 -0.1606
 7204TIP3    H121576   1.159   2.869   5.387 -0.1881  0.2312  0.7478
 7204TIP3    H221577   1.288   2.920   5.448  0.1130  0.2850  0.0778
 7205TIP3   OH221578   4.223   4.760   0.415  0.3985  0.2453 -0.2895
 7205TIP3    H121579   4.285   4.741   0.344  1.9603 -0.2075  1.1424
 7205TIP3    H221580   4.226   4.855   0.425  0.4037  0.2809 -0.5923
 7206TIP3   OH221581   2.487   3.202   2.961 -0.5733 -0.0151  0.2124
 7206TIP3    H121582   2.469   3.260   2.887  1.2204 -1.3761 -1.4004
 7206TIP3    H221583   2.447   3.245   3.036 -1.2841  2.1180 -1.3074
 7207TIP3   OH221584   3.088   2.086   0.820 -0.0981 -0.3936 -0.7713
 7207TIP3    H121585   3.010   2.056   0.773 -0.4450 -2.1479  0.7898
 7207TIP3    H221586   3.099   2.022   0.890  1.5686  0.9756  0.2884
 7208TIP3   OH221587   2.617   3.580   2.177  0.0974 -0.5078 -0.8739
 7208TIP3    H121588   2.588   3.669   2.153 -1.8833 -0.5596  0.9968
 7208TIP3    H221589   2.689   3.595   2.238  0.3008 -0.2096 -1.1794
 7209TIP3   OH221590   5.180   3.072   1.314  0.0599  0.4701  0.4438
 7209TIP3    H121591   5.242   3.096   1.246 -0.7274  0.4476 -0.2941
 7209TIP3    H221592   5.188   2.977   1.321 -1.7464  0.0978 -1.5400
 7210TIP3   OH221593   3.956   1.148   4.645  0.2325  0.1721 -0.3623
 7210TIP3    H121594   4.025   1.215   4.639  1.6836 -1.0200  1.7672
 7210TIP3    H221595   3.925   1.138   4.555  2.1332  1.4866 -1.2318
 7211TIP3   OH221596   1.256   5.538   4.493  0.4050 -0.0714 -0.0579
 7211TIP3    H121597   1.257   5.467   4.429  0.2522  0.1171 -0.2733
 7211TIP3    H221598   1.299   5.502   4.571  1.6788  0.0765 -0.6667
 7212TIP3   OH221599   3.777   2.603   4.224  0.6795  0.0371  0.1927
 7212TIP3    H121600   3.686   2.572   4.221  0.5187  0.4930 -3.1848
 7212TIP3    H221601   3.774   2.681   4.280 -1.1225  0.2912 -0.1931
 7213TIP3   OH221602   0.321   5.199   5.126  0.8510  0.0911  0.2008
 7213TIP3    H121603   0.293   5.212   5.216  0.6088 -1.9373  0.4793
 7213TIP3    H221604   0.272   5.263   5.075 -1.3495 -0.7585  1.1483
 7214TIP3   OH221605   3.616   2.226   3.868 -0.5567 -0.2667 -0.1448
 7214TIP3    H121606   3.564   2.240   3.948  0.9922  0.1964  0.8255
 7214TIP3    H221607   3.662   2.143   3.884 -0.6409 -0.4438 -0.7984
 7215TIP3   OH221608   7.156   0.281   3.808 -0.1560 -0.5957  0.4873
 7215TIP3    H121609   7.222   0.216   3.783  0.1281 -0.0630 -0.1493
 7215TIP3    H221610   7.180   0.306   3.898  1.3876  0.6453 -0.2227
 7216TIP3   OH221611   3.786   2.355   4.692  0.3870 -0.3773  0.2586
 7216TIP3    H121612   3.767   2.275   4.741 -0.0929 -0.2478  0.2901
 7216TIP3    H221613   3.707   2.370   4.640 -0.8486  1.7681  2.5266
 7217TIP3   OH221614   3.851   1.135   2.920  0.2571  0.0899  0.5746
 7217TIP3    H121615   3.759   1.111   2.907  0.4976 -1.3736  1.4964
 7217TIP3    H221616   3.899   1.085   2.854  0.4290  0.7656  0.1694
 7218TIP3   OH221617   1.385   6.451   1.562 -0.2155  0.4360  0.0507
 7218TIP3    H121618   1.480   6.457   1.545 -0.1335 -2.7715 -1.3417
 7218TIP3    H221619   1.345   6.483   1.481 -0.3487  1.6658  0.5895
 7219TIP3   OH221620   3.265   0.598   1.221 -0.0688  0.6661 -0.3771
 7219TIP3    H121621   3.236   0.511   1.192 -0.0452  0.7837 -0.7464
 7219TIP3    H221622   3.192   0.629   1.275 -0.6081  0.9266 -1.2446
 7220TIP3   OH221623   2.865   4.819   0.041  0.1042 -0.4035  0.2856
 7220TIP3    H121624   2.868   4.914   0.050  0.0239 -0.4141  0.4231
 7220TIP3    H221625   2.931   4.786   0.101  0.3001 -0.4247  0.0610
 7221TIP3   OH221626   0.750   4.341   0.902  0.3300 -0.0596  0.5720
 7221TIP3    H121627   0.753   4.246   0.901 -0.1263 -0.0889  1.2453
 7221TIP3    H221628   0.720   4.363   0.991  0.9261  0.7220  0.5839
 7222TIP3   OH221629   2.278   6.283   1.224 -0.4032 -0.3625 -0.0525
 7222TIP3    H121630   2.253   6.374   1.239 -0.8780 -0.5586  0.3751
 7222TIP3    H221631   2.346   6.266   1.290 -2.1706 -1.0880  1.6817
 7223TIP3   OH221632   3.613   0.807   5.512  0.7984 -0.2681 -0.0093
 7223TIP3    H121633   3.592   0.889   5.466 -1.7578 -1.6066 -1.4234
 7223TIP3    H221634   3.604   0.830   5.605  0.4074  1.1224 -0.3578
 7224TIP3   OH221635   4.722   5.595   3.654  0.1021  0.0498  0.0896
 7224TIP3    H121636   4.723   5.574   3.748  0.9835  2.6224  0.7382
 7224TIP3    H221637   4.808   5.565   3.623 -0.7128 -2.0805 -0.2894
 7225TIP3   OH221638   6.684   2.260   1.499 -0.0946  0.3037  0.6007
 7225TIP3    H121639   6.667   2.166   1.502 -1.3887  0.4172 -1.1869
 7225TIP3    H221640   6.743   2.271   1.424  0.8392  0.8286  1.3972
 7226TIP3   OH221641   5.155   3.052   1.989  0.0923  0.1446  0.1259
 7226TIP3    H121642   5.166   3.021   2.079  1.0971 -0.4079 -0.1704
 7226TIP3    H221643   5.110   2.981   1.944  0.7222 -0.1231 -0.1005
 7227TIP3   OH221644  -0.005   0.946   1.707 -0.1803  0.7636  0.5236
 7227TIP3    H121645  -0.039   0.984   1.626 -0.9375 -1.6029 -0.3458
 7227TIP3    H221646   0.057   0.879   1.678 -0.0164  0.2902  1.9178
 7228TIP3   OH221647   1.771   1.237   1.383  0.4843 -0.5931  0.6804
 7228TIP3    H121648   1.690   1.191   1.362 -0.0326  1.3993 -2.3178
 7228TIP3    H221649   1.744   1.311   1.437 -0.3043  1.6962 -2.5974
 7229TIP3   OH221650   1.179   3.997   4.425 -0.5471 -0.1568  0.0003
 7229TIP3    H121651   1.268   4.014   4.395 -0.4703 -1.2782 -0.4564
 7229TIP3    H221652   1.188   3.975   4.518 -0.0684 -2.1567 -0.4619
 7230TIP3   OH221653   0.823   2.922   0.779 -0.3133 -0.4303 -0.1890
 7230TIP3    H121654   0.777   2.840   0.799 -0.9555 -0.0984 -0.2591
 7230TIP3    H221655   0.915   2.903   0.794 -0.4845 -1.0955  0.0335
 7231TIP3   OH221656   1.418   4.059   4.334  0.1683  0.8040  0.2182
 7231TIP3    H121657   1.477   3.988   4.311  0.0095  0.3842  1.0727
 7231TIP3    H221658   1.471   4.118   4.387 -0.2442  0.2583  1.2685
 7232TIP3   OH221659   5.832   3.616   5.216 -0.0658 -0.5433 -0.2415
 7232TIP3    H121660   5.906   3.640   5.272 -1.3499 -0.1276  1.3677
 7232TIP3    H221661   5.866   3.619   5.127  1.7378  0.0057  0.4367
 7233TIP3   OH221662   1.098   6.522   3.331 -0.0861  0.1973  0.2083
 7233TIP3    H121663   1.111   6.484   3.244 -1.0981  0.9747 -0.2971
 7233TIP3    H221664   1.183   6.512   3.374  0.4401 -0.1696 -0.8752
 7234TIP3   OH221665   3.213   3.874   3.523  0.1941 -0.0826 -0.0521
 7234TIP3    H121666   3.197   3.802   3.584  1.7250 -0.2124  0.2407
 7234TIP3    H221667   3.166   3.948   3.561 -1.4454 -0.9035 -0.3819
 7235TIP3   OH221668   5.906   1.252   0.662  0.0598  0.1438 -0.1343
 7235TIP3    H121669   5.812   1.244   0.680  0.1339 -1.9166 -0.3798
 7235TIP3    H221670   5.944   1.171   0.697  1.6178  0.5575 -0.7900
 7236TIP3   OH221671   1.340   3.139   2.633  0.0954 -0.0869  0.7492
 7236TIP3    H121672   1.371   3.205   2.572 -1.6027  0.2974  0.2658
 7236TIP3    H221673   1.386   3.159   2.715 -0.1752  1.5183  0.5416
 7237TIP3   OH221674   3.365   4.726   0.185 -0.5232  0.4067 -0.1558
 7237TIP3    H121675   3.358   4.816   0.216 -0.9132  0.8759 -1.5546
 7237TIP3    H221676   3.328   4.673   0.256 -0.4675  1.3552  0.5926
 7238TIP3   OH221677   5.242   2.364   0.715  0.3341  0.0447 -0.5534
 7238TIP3    H121678   5.230   2.383   0.622 -0.2200  2.6146 -0.0155
 7238TIP3    H221679   5.157   2.383   0.755  1.5405  2.7829  0.9765
 7239TIP3   OH221680   4.746   6.080   2.438 -0.0772 -0.2403  0.3028
 7239TIP3    H121681   4.783   6.031   2.365  0.4886 -0.0414  0.4509
 7239TIP3    H221682   4.651   6.069   2.429  0.0469 -2.1299  0.8636
 7240TIP3   OH221683   3.602   3.554   0.697 -0.2217  0.3615  0.2411
 7240TIP3    H121684   3.595   3.568   0.603 -0.6595  0.1584  0.2391
 7240TIP3    H221685   3.587   3.640   0.736 -1.0789  0.2500  0.1634
 7241TIP3   OH221686   5.585   3.215   2.442 -0.0644  0.2554 -0.0304
 7241TIP3    H121687   5.557   3.244   2.529 -3.2928 -1.6759 -0.2752
 7241TIP3    H221688   5.679   3.203   2.450  0.0233  1.8604  2.6232
 7242TIP3   OH221689   1.414   5.737   5.185  0.0156  0.3042  0.1635
 7242TIP3    H121690   1.502   5.732   5.147 -0.0628  1.0922 -0.1367
 7242TIP3    H221691   1.428   5.734   5.279  0.4077  0.9764  0.1299
 7243TIP3   OH221692   3.459   1.187   3.176 -0.2295 -0.7050  0.4481
 7243TIP3    H121693   3.415   1.224   3.100  2.4073  1.6311 -0.0869
 7243TIP3    H221694   3.483   1.262   3.230  2.9379 -1.7250  0.7062
 7244TIP3   OH221695   4.637   5.499   5.683  0.3432  0.7294  0.4705
 7244TIP3    H121696   4.670   5.576   5.638 -1.0829  0.8018 -0.5272
 7244TIP3    H221697   4.567   5.466   5.627 -0.8231  0.2237  2.1283
 7245TIP3   OH221698   0.397   4.564   3.048  0.3015 -0.1210 -0.1997
 7245TIP3    H121699   0.446   4.629   3.098  0.3984 -0.2435 -0.1346
 7245TIP3    H221700   0.460   4.495   3.030 -0.2899 -1.1117  1.3926
 7246TIP3   OH221701   1.691   5.605   3.790 -1.0462 -0.5144 -0.3280
 7246TIP3    H121702   1.768   5.630   3.841 -2.0262  0.5573  0.6983
 7246TIP3    H221703   1.710   5.635   3.701 -0.7621  0.8450  0.1736
 7247TIP3   OH221704   5.636   3.869   2.781  0.4761 -0.1145  0.0107
 7247TIP3    H121705   5.577   3.891   2.709  1.7554  2.1828 -0.4396
 7247TIP3    H221706   5.680   3.788   2.754  0.1224  0.1146 -1.2770
 7248TIP3   OH221707   4.697   3.453   3.650  0.5546  0.8532  0.6080
 7248TIP3    H121708   4.742   3.501   3.580  0.0312  0.5408  0.0340
 7248TIP3    H221709   4.642   3.390   3.603 -1.7452  2.3150  1.1742
 7249TIP3   OH221710   2.468   5.506   4.532 -0.0041  0.3041 -0.3713
 7249TIP3    H121711   2.447   5.414   4.514 -0.3957  0.5581 -1.3018
 7249TIP3    H221712   2.546   5.503   4.587 -1.3148 -0.6448  1.5756
 7250TIP3   OH221713   5.962   6.681   0.930 -0.0206 -0.0918 -0.7166
 7250TIP3    H121714   5.902   6.750   0.903 -0.6158  0.3335  1.4729
 7250TIP3    H221715   5.906   6.614   0.968  0.7308 -0.6840 -0.6382
 7251TIP3   OH221716   6.487   2.659   1.253  0.3768  0.2135  0.4008
 7251TIP3    H121717   6.570   2.615   1.233  0.7617  1.5037 -1.0921
 7251TIP3    H221718   6.511   2.752   1.258 -1.1182  0.7243 -1.0725
 7252TIP3   OH221719   3.154   2.514   5.025 -0.1589 -0.0527 -0.3877
 7252TIP3    H121720   3.161   2.566   5.105  0.0687  1.3524 -1.2705
 7252TIP3    H221721   3.104   2.569   4.965  1.8293  0.0877 -2.0670
 7253TIP3   OH221722   3.813   6.656   3.678  0.5718  0.0620 -0.1595
 7253TIP3    H121723   3.809   6.605   3.597 -0.0062  0.7230 -0.5564
 7253TIP3    H221724   3.789   6.745   3.652 -0.9493  0.0227  0.9608
 7254TIP3   OH221725   5.113   4.801   2.552  0.1280 -0.3354 -0.1489
 7254TIP3    H121726   5.058   4.847   2.488  1.1710 -0.5660 -1.2491
 7254TIP3    H221727   5.087   4.710   2.544 -0.9364 -0.1609  1.0112
 7255TIP3   OH221728   4.863   0.984   1.958  0.2121  0.7872  0.1718
 7255TIP3    H121729   4.774   0.956   1.933  1.0628 -0.1717 -1.9992
 7255TIP3    H221730   4.873   1.071   1.920  0.5259  0.5020 -0.4031
 7256TIP3   OH221731   1.253   0.032   5.717 -0.4490  0.1309  0.6034
 7256TIP3    H121732   1.286   0.052   5.629 -0.2620  1.6585  1.0033
 7256TIP3    H221733   1.285  -0.057   5.735 -1.1707 -0.5447 -1.1752
 7257TIP3   OH221734   5.350   0.251   5.268  0.0772 -0.1662 -1.1724
 7257TIP3    H121735   5.391   0.328   5.307 -1.1440  0.5519 -1.2774
 7257TIP3    H221736   5.398   0.238   5.187 -0.0349  0.8135 -1.4136
 7258TIP3   OH221737   2.139   5.905   2.515  0.1585  0.2497  0.0728
 7258TIP3    H121738   2.121   5.821   2.558 -0.2974  0.4624  0.2958
 7258TIP3    H221739   2.230   5.897   2.485 -0.3324 -0.8679 -1.1727
 7259TIP3   OH221740   1.239   5.378   5.625  0.1450  0.0764  0.3842
 7259TIP3    H121741   1.148   5.388   5.653  0.8292  2.6420  2.0294
 7259TIP3    H221742   1.282   5.336   5.700  0.7185  0.9487  0.5617
 7260TIP3   OH221743   3.005   4.249   2.420  0.3178 -0.1686 -0.6233
 7260TIP3    H121744   3.082   4.194   2.436 -0.0550 -0.7190 -0.6572
 7260TIP3    H221745   2.932   4.186   2.418 -0.7255  0.6306  3.3301
 7261TIP3   OH221746   4.360   6.765   5.892  0.5334 -0.2496 -0.2931
 7261TIP3    H121747   4.399   6.817   5.822  0.1022 -0.0437 -0.3898
 7261TIP3    H221748   4.303   6.827   5.938 -0.9103 -0.8828 -1.1308
 7262TIP3   OH221749   4.726   5.755   0.371  0.7143  0.2108  0.4932
 7262TIP3    H121750   4.687   5.835   0.405  2.1633  0.9067  0.5805
 7262TIP3    H221751   4.703   5.688   0.436  1.7107  1.0990  1.7955
 7263TIP3   OH221752   2.153   0.967   0.894  0.3351 -0.4382 -0.6757
 7263TIP3    H121753   2.142   1.055   0.860  2.0105  1.3130  2.8613
 7263TIP3    H221754   2.241   0.941   0.867  0.3989 -0.4221 -0.4854
 7264TIP3   OH221755   3.152   0.471   1.489  0.0537  0.5541  0.4450
 7264TIP3    H121756   3.098   0.392   1.475  1.5019 -0.3919 -0.0686
 7264TIP3    H221757   3.233   0.438   1.528  0.2141  1.9658  1.3648
 7265TIP3   OH221758   3.212   3.942   3.242  0.7158 -0.0109 -0.3296
 7265TIP3    H121759   3.177   3.898   3.164 -1.3793  1.1847 -0.1425
 7265TIP3    H221760   3.232   3.871   3.303 -2.1931 -0.8305 -0.1803
 7266TIP3   OH221761   1.041   3.512   0.041 -0.0732  0.8333 -0.2935
 7266TIP3    H121762   1.099   3.588   0.052  1.7874 -0.6313  0.6083
 7266TIP3    H221763   1.055   3.485  -0.050  1.8032 -0.3264  0.2918
 7267TIP3   OH221764   6.725   0.036   0.525  0.1521  0.0547  0.3116
 7267TIP3    H121765   6.792   0.057   0.460 -0.0210 -0.9953 -0.2161
 7267TIP3    H221766   6.660   0.105   0.515  0.5450  0.3839 -0.0312
 7268TIP3   OH221767   6.973   3.778   5.261  0.4122  0.0617  0.3673
 7268TIP3    H121768   7.038   3.773   5.191  0.8607 -1.6096  0.8519
 7268TIP3    H221769   7.025   3.780   5.341 -0.1032 -1.5241  0.7699
 7269TIP3   OH221770   2.797   0.716   3.988 -0.2706  0.0807  0.3166
 7269TIP3    H121771   2.848   0.792   3.959  0.9417 -0.8741 -0.1165
 7269TIP3    H221772   2.735   0.752   4.052  0.7200  1.3321  0.6122
 7270TIP3   OH221773   5.934   0.710   2.462 -0.4441  0.3071 -0.5674
 7270TIP3    H121774   5.881   0.718   2.541 -1.4872  1.8166 -1.3670
 7270TIP3    H221775   6.023   0.698   2.493 -0.9629 -0.1458  0.8179
 7271TIP3   OH221776   6.614   1.290   4.134 -0.4493  0.5716 -0.0748
 7271TIP3    H121777   6.700   1.317   4.165 -0.7306  1.0310  0.3119
 7271TIP3    H221778   6.605   1.333   4.049  0.4800 -0.9965 -0.9973
 7272TIP3   OH221779   1.023   3.963   2.128 -0.3302 -0.1319 -0.4273
 7272TIP3    H121780   0.946   3.919   2.164 -0.9515  0.4468 -1.0307
 7272TIP3    H221781   1.069   3.895   2.080 -0.4617 -0.4798 -0.0695
 7273TIP3   OH221782   3.809   5.834   4.706  0.1470 -0.5291  0.4793
 7273TIP3    H121783   3.862   5.792   4.773  0.0093 -1.5450 -0.0373
 7273TIP3    H221784   3.759   5.763   4.666 -0.2541  0.1518 -0.2705
 7274TIP3   OH221785   2.737   5.299   4.868 -0.2842  0.2334 -0.0486
 7274TIP3    H121786   2.781   5.221   4.833 -1.1992  0.1752 -1.1462
 7274TIP3    H221787   2.692   5.268   4.947  1.7089  0.3300  1.1767
 7275TIP3   OH221788   3.458   2.439   3.105 -0.2118 -0.5595 -0.1965
 7275TIP3    H121789   3.436   2.509   3.166  0.5551  0.2373 -0.7994
 7275TIP3    H221790   3.375   2.394   3.089 -0.9918  0.9679 -0.7086
 7276TIP3   OH221791   3.715   1.325   5.614  0.0467 -0.0534  0.1811
 7276TIP3    H121792   3.711   1.229   5.617  0.1215 -0.1813 -1.9841
 7276TIP3    H221793   3.783   1.349   5.676  0.7527 -1.4835 -0.0093
 7277TIP3   OH221794   5.488   3.801   5.667  0.4027  0.0807  0.1378
 7277TIP3    H121795   5.406   3.850   5.676  0.1045 -0.6591  1.8289
 7277TIP3    H221796   5.550   3.849   5.722  0.3579 -0.8595  1.0454
 7278TIP3   OH221797   2.010   3.800   5.302 -0.5573 -0.4914 -0.6380
 7278TIP3    H121798   1.963   3.772   5.224 -1.2426  0.0163 -0.4188
 7278TIP3    H221799   2.071   3.729   5.321 -1.0207 -1.0191 -1.1061
 7279TIP3   OH221800   2.536   4.846   4.106  0.4452  0.1801 -0.2955
 7279TIP3    H121801   2.605   4.792   4.142 -0.8657 -0.3179  1.6083
 7279TIP3    H221802   2.578   4.931   4.090  1.4229 -0.0083  1.1090
 7280TIP3   OH221803   0.784   3.983   0.638 -0.4711  0.2881 -0.1877
 7280TIP3    H121804   0.851   4.012   0.576 -1.2671  0.8145 -0.8009
 7280TIP3    H221805   0.784   3.887   0.630  1.7838  0.0517  1.4643
 7281TIP3   OH221806   3.721   1.652   0.781 -0.3790  0.4805 -0.1672
 7281TIP3    H121807   3.736   1.559   0.800  1.5348  0.6614 -0.6543
 7281TIP3    H221808   3.727   1.658   0.686 -0.7572  1.0695 -0.1587
 7282TIP3   OH221809   2.484   1.156   2.361 -0.2037  0.4470 -0.0028
 7282TIP3    H121810   2.416   1.209   2.402 -0.9611 -1.0249  0.7127
 7282TIP3    H221811   2.451   1.140   2.272  1.1298  3.0716 -1.0962
 7283TIP3   OH221812   4.982   2.710   2.888 -0.1154  0.3951  0.0767
 7283TIP3    H121813   4.993   2.632   2.942  1.3576  1.1817  0.9736
 7283TIP3    H221814   4.986   2.677   2.798  0.4886 -0.5578  0.4357
 7284TIP3   OH221815   2.293   2.522   3.251 -0.1726  0.4554 -0.2236
 7284TIP3    H121816   2.225   2.589   3.245 -0.0569  0.6607  0.7270
 7284TIP3    H221817   2.311   2.514   3.344  1.5902  0.8772 -0.4933
 7285TIP3   OH221818   2.300   6.722   0.570 -0.6445 -0.4217 -0.0796
 7285TIP3    H121819   2.229   6.705   0.632  0.3970 -1.7523  0.8254
 7285TIP3    H221820   2.377   6.735   0.626  0.1706 -0.8231 -1.0722
 7286TIP3   OH221821   5.193   2.283   1.322 -0.1920  0.1750 -0.0165
 7286TIP3    H121822   5.269   2.246   1.367  0.8153  1.8253 -0.2934
 7286TIP3    H221823   5.216   2.374   1.306 -2.0796  0.6154 -0.4818
 7287TIP3   OH221824   4.198   0.942   2.581  0.0896 -0.5162 -0.4568
 7287TIP3    H121825   4.114   0.897   2.575 -0.2151 -0.5750  2.6811
 7287TIP3    H221826   4.259   0.875   2.611  0.4401  0.3133  0.7379
 7288TIP3   OH221827   0.523   6.538   2.279 -0.3210 -0.1259 -0.6686
 7288TIP3    H121828   0.447   6.487   2.252 -1.8233  0.6600  1.7262
 7288TIP3    H221829   0.503   6.628   2.254 -0.5962  0.2114  0.6734
 7289TIP3   OH221830   4.806   4.967   0.332 -0.3836 -0.0656 -0.3852
 7289TIP3    H121831   4.729   4.960   0.275 -1.0869  1.6107  0.2933
 7289TIP3    H221832   4.774   5.012   0.410  1.1098 -0.1089  0.2868
 7290TIP3   OH221833   4.242   2.725   3.521 -0.5670  0.5874  0.1186
 7290TIP3    H121834   4.238   2.648   3.577  0.0783 -0.5041 -1.2854
 7290TIP3    H221835   4.223   2.693   3.433  3.2622  1.2617 -1.1652
 7291TIP3   OH221836   3.524   1.967   0.932  0.2628 -0.0990 -0.5390
 7291TIP3    H121837   3.467   2.044   0.937 -2.1265 -1.7571 -0.2575
 7291TIP3    H221838   3.538   1.941   1.023  4.1720  1.9926 -0.3669
 7292TIP3   OH221839   6.713   2.992   3.375 -0.2611  0.1885  0.0940
 7292TIP3    H121840   6.621   2.982   3.350 -0.2950  2.1243 -0.7463
 7292TIP3    H221841   6.711   3.058   3.444  0.4291 -0.5329  0.8220
 7293TIP3   OH221842   1.841   2.598   2.680 -0.3545 -0.1409  0.3209
 7293TIP3    H121843   1.911   2.638   2.629 -1.4543 -0.0708 -1.2209
 7293TIP3    H221844   1.884   2.533   2.735  0.7787 -1.1336 -1.6380
 7294TIP3   OH221845   1.127   2.355   3.467  0.2244 -0.0633  0.6671
 7294TIP3    H121846   1.038   2.390   3.470 -0.4395 -1.7546  1.9444
 7294TIP3    H221847   1.134   2.314   3.381  0.3273  1.3658 -0.0383
 7295TIP3   OH221848   2.664   5.504   0.047  0.0964 -0.3025 -0.3121
 7295TIP3    H121849   2.698   5.558   0.119 -1.2585  0.5410 -0.2613
 7295TIP3    H221850   2.678   5.414   0.077  0.3971  0.0299  0.6021
 7296TIP3   OH221851   0.305   1.875   2.894  0.0702  0.1696 -0.2456
 7296TIP3    H121852   0.362   1.952   2.894  0.7692 -0.3369  0.3551
 7296TIP3    H221853   0.217   1.910   2.909  0.3264  0.8784 -0.3448
 7297TIP3   OH221854   3.407   6.322   5.437  0.7671 -0.0046  0.2762
 7297TIP3    H121855   3.354   6.318   5.358  0.9485  0.7389  0.1181
 7297TIP3    H221856   3.385   6.406   5.477  0.4998 -0.4687  1.1435
 7298TIP3   OH221857   4.474   5.205   4.865 -0.2561  0.2210 -0.4331
 7298TIP3    H121858   4.515   5.245   4.942 -0.0081 -2.9275  1.2213
 7298TIP3    H221859   4.384   5.237   4.866  0.3777  2.1459 -0.3471
 7299TIP3   OH221860   5.086   2.253   4.754 -0.4036  0.1139  0.4531
 7299TIP3    H121861   5.169   2.222   4.791  0.1432  0.3442 -0.5540
 7299TIP3    H221862   5.089   2.227   4.663 -0.8617  1.2708  0.0861
 7300TIP3   OH221863   3.832   3.699   2.451 -0.2253 -0.0580 -0.2886
 7300TIP3    H121864   3.889   3.622   2.443 -0.2826 -0.0721 -0.5555
 7300TIP3    H221865   3.822   3.731   2.361 -0.7411 -0.1252 -0.2551
 7301TIP3   OH221866   4.433   0.896   4.138 -0.3098 -0.3357  0.5978
 7301TIP3    H121867   4.373   0.902   4.213  0.2443  1.7265  0.9390
 7301TIP3    H221868   4.416   0.810   4.101 -0.7527 -1.3657  2.9750
 7302TIP3   OH221869   0.473   6.388   3.091  0.0413  0.6186  0.1759
 7302TIP3    H121870   0.427   6.456   3.041 -0.0439  0.0379 -0.5529
 7302TIP3    H221871   0.533   6.349   3.028  2.2571  1.9658  1.3345
 7303TIP3   OH221872   1.997   2.824   2.169  0.2546  0.2856  0.0253
 7303TIP3    H121873   2.026   2.862   2.087 -0.4614 -0.6295 -0.6744
 7303TIP3    H221874   2.078   2.808   2.218  0.7831 -0.2186 -0.9754
 7304TIP3   OH221875   4.206   3.121   4.803  0.7338 -0.1450  0.2063
 7304TIP3    H121876   4.262   3.195   4.827  1.4612 -0.9263  1.0156
 7304TIP3    H221877   4.205   3.122   4.707 -0.2064  1.5719  0.1862
 7305TIP3   OH221878   2.928   2.400   2.320 -0.0094  0.3534 -0.3595
 7305TIP3    H121879   2.999   2.411   2.257 -0.0560 -0.6642 -0.6088
 7305TIP3    H221880   2.867   2.471   2.300  0.2771  0.4119 -1.0410
 7306TIP3   OH221881   1.872   5.539   0.497 -0.1195  0.4327 -0.3487
 7306TIP3    H121882   1.866   5.445   0.515  0.2233  0.5675  0.4995
 7306TIP3    H221883   1.906   5.577   0.578  0.3050  1.2145 -0.8821
 7307TIP3   OH221884   5.053   5.226   3.395  0.0700  0.0661  0.4113
 7307TIP3    H121885   4.979   5.286   3.382  0.1200  0.3454  1.3267
 7307TIP3    H221886   5.060   5.177   3.312 -0.2050  1.0618 -0.2188
 7308TIP3   OH221887   7.209   4.807   4.993  0.3318 -0.1751  0.2001
 7308TIP3    H121888   7.231   4.879   4.935 -1.0869 -0.4280 -0.7007
 7308TIP3    H221889   7.231   4.728   4.943  2.2956 -0.4144  1.3442
 7309TIP3   OH221890   5.548   5.723   1.463  0.0807 -0.0183  0.0425
 7309TIP3    H121891   5.550   5.807   1.417  0.9382 -0.0782 -0.0410
 7309TIP3    H221892   5.636   5.688   1.453  0.2800 -0.0730  1.6635
 7310TIP3   OH221893   0.275   1.507   1.777 -0.1031  0.2306 -0.0453
 7310TIP3    H121894   0.324   1.498   1.695  2.0780  0.4503  1.1505
 7310TIP3    H221895   0.310   1.587   1.817 -1.1304  0.1389  1.0869
 7311TIP3   OH221896   0.112   3.520   2.948 -0.0170 -0.1673 -0.1960
 7311TIP3    H121897   0.038   3.518   3.008  1.0879  1.7324  1.3250
 7311TIP3    H221898   0.132   3.428   2.932 -1.3110 -0.7082  1.1136
 7312TIP3   OH221899   3.420   1.810   0.699  0.4000 -0.1413  0.0939
 7312TIP3    H121900   3.461   1.783   0.781 -2.0954 -0.9178  1.1866
 7312TIP3    H221901   3.399   1.902   0.710  4.5516  1.2621 -1.7606
 7313TIP3   OH221902   0.480   4.477   1.400  0.4387  0.5774  0.0628
 7313TIP3    H121903   0.468   4.567   1.428  1.3230  0.6144  0.3583
 7313TIP3    H221904   0.575   4.464   1.399  0.3179 -0.7062  1.2274
 7314TIP3   OH221905   4.342   3.631   4.813 -0.0960  0.1001 -0.3390
 7314TIP3    H121906   4.366   3.713   4.857  1.5645  0.8854 -2.5286
 7314TIP3    H221907   4.327   3.656   4.722 -0.4440 -1.8958 -0.8787
 7315TIP3   OH221908   1.325   1.035   0.093  0.1920  0.1415 -0.4433
 7315TIP3    H121909   1.306   1.019   0.186 -0.6068 -2.1408 -0.9360
 7315TIP3    H221910   1.249   1.001   0.047  0.0900  2.2211 -1.9529
 7316TIP3   OH221911   5.401   5.188   0.083 -0.2264 -0.4678  0.2466
 7316TIP3    H121912   5.355   5.270   0.068  0.7611  0.2299  0.8275
 7316TIP3    H221913   5.360   5.152   0.162  0.3477  0.2820  0.9204
 7317TIP3   OH221914   1.012   1.338   5.177  0.2967 -0.2216  0.0814
 7317TIP3    H121915   1.093   1.294   5.205  1.0505  2.1246  1.9097
 7317TIP3    H221916   0.944   1.272   5.188  1.5849 -1.4268  1.2293
 7318TIP3   OH221917   2.959   4.978   4.050  0.0561 -0.5454  0.2522
 7318TIP3    H121918   3.020   4.905   4.044  1.2275  0.3492  1.0477
 7318TIP3    H221919   2.930   4.979   4.141  0.6149  0.4284  0.4259
 7319TIP3   OH221920   3.033   5.110   4.907 -0.0726 -0.5593  0.2383
 7319TIP3    H121921   3.083   5.189   4.886 -2.2241  0.8218  0.1203
 7319TIP3    H221922   3.035   5.059   4.825  0.4050 -0.1433 -0.0185
 7320TIP3   OH221923   1.942   4.135   5.337  0.6646 -0.3003  0.7071
 7320TIP3    H121924   1.966   4.043   5.321  0.2633 -0.2969  0.0268
 7320TIP3    H221925   1.889   4.132   5.416 -2.3965 -1.1841 -1.2227
 7321TIP3   OH221926   1.649   1.710   1.794  0.0907 -0.3358 -0.4001
 7321TIP3    H121927   1.633   1.627   1.841 -0.0473 -0.0531  0.0600
 7321TIP3    H221928   1.685   1.768   1.861 -0.3229  0.1437 -0.5931
 7322TIP3   OH221929   5.843   4.895   4.678 -0.2229 -0.8922  0.4656
 7322TIP3    H121930   5.756   4.868   4.647  0.3742 -1.9367 -0.3645
 7322TIP3    H221931   5.904   4.857   4.615  0.8083  0.6778  0.4614
 7323TIP3   OH221932   0.680   2.378   5.901 -0.3675 -0.6461  0.2151
 7323TIP3    H121933   0.734   2.406   5.828 -0.0542 -0.5682  0.4744
 7323TIP3    H221934   0.590   2.381   5.867 -0.4631  1.6528  0.5090
 7324TIP3   OH221935   5.449   6.174   1.046  0.1011 -0.0785  0.2282
 7324TIP3    H121936   5.375   6.233   1.057  0.4593  0.5497 -0.6083
 7324TIP3    H221937   5.526   6.229   1.062  0.4337 -0.3484 -0.4080
 7325TIP3   OH221938   2.028   2.869   1.288  0.0171  0.2676 -1.2601
 7325TIP3    H121939   1.943   2.886   1.330 -0.0312  1.0402 -1.6712
 7325TIP3    H221940   2.027   2.774   1.272 -0.0499 -0.0304  0.2830
 7326TIP3   OH221941   0.958   5.399   3.375 -0.2689 -0.1201  0.1341
 7326TIP3    H121942   0.996   5.348   3.303  1.9198 -0.2705  1.3178
 7326TIP3    H221943   1.030   5.455   3.405 -2.0483  2.3195  0.1385
 7327TIP3   OH221944   2.247   6.683   3.331  0.0066 -0.6673 -0.1752
 7327TIP3    H121945   2.204   6.713   3.251  1.1463  1.6036 -0.0158
 7327TIP3    H221946   2.315   6.623   3.300 -0.4148 -0.8413 -0.7883
 7328TIP3   OH221947   3.564   5.887   1.966  0.0695 -0.2240  0.5418
 7328TIP3    H121948   3.506   5.904   2.040  0.9944 -1.2670  1.5394
 7328TIP3    H221949   3.614   5.810   1.992  0.5309 -0.5214 -1.1096
 7329TIP3   OH221950   2.673   5.372   2.735  0.3160 -0.1593 -0.3333
 7329TIP3    H121951   2.631   5.301   2.687 -0.7679  0.3846 -0.2273
 7329TIP3    H221952   2.709   5.331   2.814 -2.4314 -0.2531  0.9774
 7330TIP3   OH221953   2.964   3.052   4.908 -0.1443 -0.0291  0.5362
 7330TIP3    H121954   3.000   3.141   4.902  0.7418 -0.4480 -0.5190
 7330TIP3    H221955   2.914   3.041   4.827 -2.8953  0.5822  1.9957
 7331TIP3   OH221956   1.297   2.386   1.470 -0.3256  0.0570 -0.0703
 7331TIP3    H121957   1.257   2.300   1.459  1.0890 -0.6409  0.0101
 7331TIP3    H221958   1.226   2.442   1.501 -1.0337 -1.3467  0.9733
 7332TIP3   OH221959   4.523   3.220   3.804 -0.3113  0.5075  0.5938
 7332TIP3    H121960   4.609   3.242   3.767 -0.2641  0.3982  0.6394
 7332TIP3    H221961   4.528   3.127   3.824 -1.3700 -0.1415 -1.9100
 7333TIP3   OH221962   5.466   4.200   0.976 -0.1009  1.0278  0.0412
 7333TIP3    H121963   5.514   4.144   1.037  0.4987 -1.3354 -2.4216
 7333TIP3    H221964   5.519   4.280   0.971  2.1296 -0.3726 -0.4315
 7334TIP3   OH221965   2.975   0.933   0.398 -0.2967 -0.4295  0.0798
 7334TIP3    H121966   2.945   0.848   0.430  0.6715 -0.8262 -0.0217
 7334TIP3    H221967   3.023   0.912   0.317  0.2986  0.1568  0.2700
 7335TIP3   OH221968   4.681   0.028   1.600  0.1030 -0.7654 -0.3364
 7335TIP3    H121969   4.616   0.051   1.534  0.2277  2.6258  0.5260
 7335TIP3    H221970   4.743  -0.029   1.554  0.1498  1.3906 -3.1810
 7336TIP3   OH221971   6.680   2.562   0.711 -0.0720 -0.1328  0.3697
 7336TIP3    H121972   6.636   2.504   0.774 -0.9231 -1.6509 -1.5289
 7336TIP3    H221973   6.624   2.561   0.634  2.3210 -0.6336 -1.4755
 7337TIP3   OH221974   2.141   5.357   0.819 -0.0343  0.2296 -0.1378
 7337TIP3    H121975   2.217   5.353   0.877  1.4958  1.7119 -1.9320
 7337TIP3    H221976   2.153   5.437   0.768 -2.2961 -0.0164 -1.1915
 7338TIP3   OH221977   3.076   4.901   5.067 -0.0579 -0.0566 -0.4374
 7338TIP3    H121978   3.169   4.880   5.070  0.7510  3.1841  1.9863
 7338TIP3    H221979   3.070   4.979   5.011 -1.4447 -0.4751 -0.9395
 7339TIP3   OH221980   2.835   5.146   5.095 -0.5054 -0.2040  0.0963
 7339TIP3    H121981   2.916   5.131   5.046 -0.6187  1.3539 -0.6151
 7339TIP3    H221982   2.853   5.224   5.148 -1.1415 -0.5581  0.8659
 7340TIP3   OH221983   4.839   0.353   3.537  0.2608  0.2981  0.1128
 7340TIP3    H121984   4.926   0.334   3.501  0.5255  0.8928  0.4337
 7340TIP3    H221985   4.796   0.267   3.541  0.2235  0.2063 -1.5872
 7341TIP3   OH221986   0.448   3.593   4.670  0.1935  0.1679 -0.0467
 7341TIP3    H121987   0.354   3.597   4.658  0.1366 -0.3467  0.2197
 7341TIP3    H221988   0.469   3.672   4.720 -0.0647  0.3846 -0.2765
 7342TIP3   OH221989   6.502   0.736   2.723 -0.7772 -0.5949  0.0123
 7342TIP3    H121990   6.576   0.676   2.711  0.5534  0.9873 -0.0948
 7342TIP3    H221991   6.428   0.679   2.741 -0.0986 -2.4382 -2.3944
 7343TIP3   OH221992   1.076   5.516   0.856 -0.2415 -0.4873 -0.5937
 7343TIP3    H121993   1.056   5.609   0.853 -2.2232 -0.8047  0.8466
 7343TIP3    H221994   0.991   5.473   0.850  0.3898 -2.1257  1.1277
 7344TIP3   OH221995   4.913   2.745   2.293  0.3150 -0.3466 -0.8479
 7344TIP3    H121996   4.904   2.656   2.329 -1.2602  0.0765 -0.0932
 7344TIP3    H221997   4.846   2.796   2.339  1.1473  1.2324 -1.3114
 7345TIP3   OH221998   1.839   3.614   1.724  0.2447 -0.2908 -0.3049
 7345TIP3    H121999   1.809   3.563   1.648  1.6827 -0.4290 -0.8305
 7345TIP3    H222000   1.861   3.548   1.790 -0.5103 -0.1980  0.0408
 7346TIP3   OH222001   1.582   5.231   2.908 -0.5083  0.1357  0.0080
 7346TIP3    H122002   1.489   5.253   2.907 -0.1393  1.8510  0.2431
 7346TIP3    H222003   1.615   5.270   2.989  0.7967  1.3003 -1.0455
 7347TIP3   OH222004   4.816   1.656  -0.002  0.2701 -0.5419 -0.6468
 7347TIP3    H122005   4.735   1.660  -0.053  0.0718  0.4291 -0.2786
 7347TIP3    H222006   4.787   1.656   0.089  0.6444 -1.6047 -0.5183
 7348TIP3   OH222007   5.220   0.030   2.575 -0.5898 -0.3588 -0.0905
 7348TIP3    H122008   5.216   0.122   2.602  1.2294  1.2718 -4.4837
 7348TIP3    H222009   5.134  -0.005   2.600 -1.1242  2.2364  2.3331
 7349TIP3   OH222010   5.365   6.698   5.518  0.5821 -0.3816 -0.0437
 7349TIP3    H122011   5.290   6.720   5.573  0.9113 -0.7658  0.5642
 7349TIP3    H222012   5.339   6.618   5.473  0.0526  0.2884 -0.9689
 7350TIP3   OH222013   3.527   5.784   4.419  0.2490 -0.2318  0.2922
 7350TIP3    H122014   3.575   5.720   4.472  0.5762 -0.2044  0.0376
 7350TIP3    H222015   3.505   5.854   4.480  3.1401  1.2014 -0.1253
 7351TIP3   OH222016   3.192   5.100   4.228 -0.8937 -0.3542  0.7327
 7351TIP3    H122017   3.216   5.042   4.156  1.4382 -0.0936  1.2202
 7351TIP3    H222018   3.174   5.041   4.302  0.8554 -0.5346  1.0546
 7352TIP3   OH222019   0.031   1.465   5.281  0.1490 -0.2897  0.1351
 7352TIP3    H122020   0.013   1.505   5.366 -0.5846 -0.2840 -0.0152
 7352TIP3    H222021   0.078   1.385   5.301 -0.6056 -0.6235  0.5895
 7353TIP3   OH222022   1.781   4.997   2.536  0.3029  0.0492  0.8956
 7353TIP3    H122023   1.816   5.077   2.576  0.6757  0.7851 -0.8349
 7353TIP3    H222024   1.704   5.026   2.487 -0.4777 -0.9306  1.4915
 7354TIP3   OH222025   4.241   1.383   5.739 -0.4009  0.4305 -0.4089
 7354TIP3    H122026   4.292   1.437   5.679 -2.2421  0.5490 -1.9199
 7354TIP3    H222027   4.308   1.334   5.789  1.2189  2.1585 -0.7748
 7355TIP3   OH222028   3.525   5.691   0.955  0.0416 -0.6763 -0.5986
 7355TIP3    H122029   3.494   5.661   1.040 -1.2725  0.1925 -0.7217
 7355TIP3    H222030   3.532   5.612   0.902 -1.0225 -1.0280 -0.2394
 7356TIP3   OH222031   5.976   3.379   4.273 -0.9825  0.1532  0.0452
 7356TIP3    H122032   6.047   3.393   4.210 -0.2505  0.8122  0.9907
 7356TIP3    H222033   5.928   3.461   4.273  0.6507  1.2004  2.3080
 7357TIP3   OH222034   3.054   6.745   1.473  0.6050  0.2177 -0.4661
 7357TIP3    H122035   3.067   6.741   1.378  1.4765  2.6162 -0.5240
 7357TIP3    H222036   3.133   6.788   1.505 -0.3735  0.8594  1.1595
 7358TIP3   OH222037   3.888   3.177   5.357  0.4698  0.4961  0.4432
 7358TIP3    H122038   3.951   3.125   5.308 -0.1131  0.4892 -0.3152
 7358TIP3    H222039   3.803   3.155   5.318  0.0744  1.0547  0.9606
 7359TIP3   OH222040   5.534   2.394   5.321  0.0981  0.1312  0.1390
 7359TIP3    H122041   5.588   2.462   5.361  1.0306 -0.1336 -0.6216
 7359TIP3    H222042   5.596   2.342   5.270 -0.7044 -0.9094  0.2064
 7360TIP3   OH222043   4.922   1.535   0.890  0.1009  0.2452  0.2948
 7360TIP3    H122044   4.846   1.581   0.856  0.0900 -0.6417 -0.9620
 7360TIP3    H222045   4.985   1.535   0.818  1.2369  0.7956  1.2419
 7361TIP3   OH222046   6.237   3.023   0.556  0.4360  0.3776 -0.0300
 7361TIP3    H122047   6.198   2.967   0.489  0.2440  0.2913  0.1548
 7361TIP3    H222048   6.226   3.112   0.521  0.2423  0.3401 -0.0652
 7362TIP3   OH222049   3.176   6.245   0.565 -0.1877 -0.5725 -0.0663
 7362TIP3    H122050   3.169   6.168   0.622 -0.9406 -0.2108  0.3438
 7362TIP3    H222051   3.180   6.319   0.625  0.1814 -0.2629 -0.4678
 7363TIP3   OH222052   0.900   6.736   4.896 -0.7678  0.0993 -0.3420
 7363TIP3    H122053   0.923   6.664   4.838  0.8281  1.7522 -1.9030
 7363TIP3    H222054   0.950   6.720   4.975  0.3485 -0.0113 -1.0520
 7364TIP3   OH222055   2.908   5.664   4.708  0.1432 -0.6142  0.6744
 7364TIP3    H122056   2.930   5.750   4.744 -1.1336  0.2850 -0.5411
 7364TIP3    H222057   2.991   5.631   4.673  0.3419  0.9765 -0.4822
 7365TIP3   OH222058   1.929   6.377   0.330 -0.0422 -0.6538  0.0669
 7365TIP3    H122059   1.889   6.422   0.255 -0.2360 -1.0211 -0.0524
 7365TIP3    H222060   2.023   6.387   0.316 -0.0246  1.8078  1.2973
 7366TIP3   OH222061   0.842   1.927   4.811 -0.1195 -0.0731 -0.3821
 7366TIP3    H122062   0.788   1.975   4.748 -2.0309  1.7315  2.4126
 7366TIP3    H222063   0.906   1.991   4.841  1.7339 -1.3354 -1.3964
 7367TIP3   OH222064   3.166   5.204   4.653  0.4430 -0.7342 -0.2273
 7367TIP3    H122065   3.217   5.226   4.731 -1.1073  2.6691 -0.0141
 7367TIP3    H222066   3.200   5.262   4.584  1.8678 -3.7275 -2.3108
 7368TIP3   OH222067   0.930   6.552   0.703 -0.2608 -0.1513 -0.1000
 7368TIP3    H122068   0.913   6.638   0.665  0.3519 -0.1265 -0.3361
 7368TIP3    H222069   0.968   6.570   0.789 -0.1441 -0.1846 -0.1442
 7369TIP3   OH222070   0.445   2.659   4.418  0.2801  0.1299  0.0462
 7369TIP3    H122071   0.449   2.588   4.482 -2.1897 -0.0418  0.0810
 7369TIP3    H222072   0.358   2.696   4.428  0.1044  0.6574 -2.6267
 7370TIP3   OH222073   3.105   4.208   1.470  0.3139 -0.4312  0.1013
 7370TIP3    H122074   3.177   4.205   1.407 -0.4184  1.5999 -0.9310
 7370TIP3    H222075   3.144   4.179   1.553  2.0403 -0.3979 -0.6577
 7371TIP3   OH222076   5.279   0.955   5.005 -0.2894  0.2383 -0.1470
 7371TIP3    H122077   5.247   0.887   4.946  0.7236 -0.3698 -0.0266
 7371TIP3    H222078   5.264   0.921   5.092 -0.9766  0.7502 -0.0607
 7372TIP3   OH222079   5.445   5.285   1.545 -0.2430 -0.0761 -0.1777
 7372TIP3    H122080   5.353   5.263   1.528 -0.5730  0.0419  1.3060
 7372TIP3    H222081   5.442   5.371   1.588  0.5395 -0.1807  0.1059
 7373TIP3   OH222082   4.900   0.819   2.759  0.2544  0.0795 -0.3627
 7373TIP3    H122083   4.860   0.887   2.813 -1.3829 -1.2402  0.1721
 7373TIP3    H222084   4.966   0.779   2.816  0.8182  0.8129 -0.4843
 7374TIP3   OH222085   7.122   4.273   2.713  0.1604 -0.3762 -0.0414
 7374TIP3    H122086   7.045   4.235   2.757  1.0227 -1.0888  0.9104
 7374TIP3    H222087   7.086   4.317   2.636 -1.2260 -0.5082  0.4905
 7375TIP3   OH222088   5.940   4.069   1.773 -0.5536 -0.1288  0.0406
 7375TIP3    H122089   6.014   4.095   1.828 -1.4985  1.6131  0.5601
 7375TIP3    H222090   5.876   4.033   1.833 -0.6680 -0.3941 -0.2362
 7376TIP3   OH222091   0.332   5.651   1.038  0.0518 -0.4986  0.0355
 7376TIP3    H122092   0.317   5.647   0.943  1.3763  0.7212 -0.2591
 7376TIP3    H222093   0.329   5.744   1.059  2.1665 -0.5321  0.7420
 7377TIP3   OH222094   4.456   4.679   0.573  0.1318 -0.1830  0.6900
 7377TIP3    H122095   4.490   4.666   0.485  0.2352 -1.2302  0.8726
 7377TIP3    H222096   4.375   4.729   0.561  0.1412 -0.3266  0.0066
 7378TIP3   OH222097   1.373   6.414   5.045 -0.1646  0.0085 -0.2137
 7378TIP3    H122098   1.400   6.505   5.031  1.1166 -0.4247 -0.7004
 7378TIP3    H222099   1.390   6.398   5.138  0.4076  0.0220 -0.3120
 7379TIP3   OH222100   0.550   3.484   1.178 -0.3381 -0.3258  0.4016
 7379TIP3    H122101   0.590   3.475   1.264  1.6408 -3.5865 -0.6504
 7379TIP3    H222102   0.486   3.413   1.174 -0.4372 -0.1865 -0.7813
 7380TIP3   OH222103   2.521   5.612   2.605 -0.2572  0.0569 -0.4135
 7380TIP3    H122104   2.554   5.526   2.629 -1.9566 -0.6069 -0.3331
 7380TIP3    H222105   2.443   5.595   2.551 -1.7782  1.4715  1.1702
 7381TIP3   OH222106   6.378   1.839   4.191 -0.2534 -0.3162  0.4483
 7381TIP3    H122107   6.366   1.918   4.140  0.9171  0.5906  1.5297
 7381TIP3    H222108   6.455   1.855   4.244 -0.2974 -1.9765  1.0956
 7382TIP3   OH222109   6.725   3.149   2.783 -0.1419 -0.1924  0.2972
 7382TIP3    H122110   6.666   3.100   2.839  0.1991 -0.1118  0.7313
 7382TIP3    H222111   6.778   3.201   2.843  0.5609 -0.4780 -0.0676
 7383TIP3   OH222112   3.779   4.350   1.770  0.4712  0.0454 -0.8451
 7383TIP3    H122113   3.822   4.284   1.825 -0.1437  0.1286 -0.2500
 7383TIP3    H222114   3.748   4.416   1.833  0.2524  0.4255 -1.3512
 7384TIP3   OH222115   1.016   4.254   4.618 -0.1632  0.2605  0.1791
 7384TIP3    H122116   0.968   4.317   4.672  0.2782 -0.3509  1.3017
 7384TIP3    H222117   1.070   4.205   4.680 -0.4322 -1.1768 -0.6806
 7385TIP3   OH222118   4.494   2.431   4.369 -0.1941 -0.3451 -0.0341
 7385TIP3    H122119   4.535   2.510   4.404 -1.7945  1.9072 -2.7964
 7385TIP3    H222120   4.442   2.396   4.442  1.3220  0.5106  1.5357
 7386TIP3   OH222121   2.601   3.619   3.144 -0.1849  0.8821 -0.2946
 7386TIP3    H122122   2.565   3.610   3.056 -0.9394  0.5415  0.0365
 7386TIP3    H222123   2.627   3.711   3.150 -0.2728  0.9425 -0.8187
 7387TIP3   OH222124   2.037   0.736   2.538  0.0063 -0.2524  0.0999
 7387TIP3    H122125   1.986   0.771   2.612  0.4055  1.5450 -0.4225
 7387TIP3    H222126   2.082   0.660   2.574 -2.2084 -1.2991  0.8629
 7388TIP3   OH222127   0.017   3.672   5.644 -0.5502  0.2581  0.5347
 7388TIP3    H122128  -0.024   3.724   5.575 -0.6378  0.0648  0.4417
 7388TIP3    H222129   0.047   3.593   5.599 -0.6127  0.1299  0.7202
 7389TIP3   OH222130   3.317   5.497   0.440  0.3469  0.0879 -0.2542
 7389TIP3    H122131   3.379   5.546   0.385 -0.6611 -0.7965 -2.3210
 7389TIP3    H222132   3.320   5.541   0.525  3.2440  0.5106 -0.4642
 7390TIP3   OH222133   5.269   6.627   3.694 -0.6377 -0.5795  0.2959
 7390TIP3    H122134   5.281   6.581   3.611  2.9222  0.9452 -0.2091
 7390TIP3    H222135   5.319   6.708   3.683 -0.5351 -0.0620  3.7374
 7391TIP3   OH222136   4.374   4.615   1.729 -0.2379  0.1309 -0.1774
 7391TIP3    H122137   4.383   4.708   1.713 -0.8432  0.5478  1.6634
 7391TIP3    H222138   4.462   4.580   1.721 -0.2739  0.4634 -2.8527
 7392TIP3   OH222139   2.667   2.530   0.785 -0.0311 -0.9633  0.0608
 7392TIP3    H122140   2.583   2.566   0.756 -0.9033 -2.2409  0.8636
 7392TIP3    H222141   2.670   2.442   0.748  1.3151 -0.6858 -0.5510
 7393TIP3   OH222142   5.624   5.744   5.433  0.0270 -0.4500 -0.1968
 7393TIP3    H122143   5.660   5.733   5.521  1.9057 -1.2558 -1.0137
 7393TIP3    H222144   5.594   5.657   5.408 -0.6862 -0.1834 -0.2989
 7394TIP3   OH222145   4.164   6.138   1.750 -0.3120  0.3447  0.0097
 7394TIP3    H122146   4.128   6.049   1.744  0.3466  0.0567  0.1728
 7394TIP3    H222147   4.186   6.148   1.843  1.6825 -0.1835 -0.3514
 7395TIP3   OH222148   1.201   0.195   2.995  0.5750 -0.0852  0.5979
 7395TIP3    H122149   1.230   0.285   3.012 -0.3604  0.3303  0.1055
 7395TIP3    H222150   1.279   0.142   3.005  1.2322  0.8417  0.5166
 7396TIP3   OH222151   0.931   4.979   2.292  0.2212  0.1337  0.7146
 7396TIP3    H122152   0.878   4.946   2.365 -1.7840 -1.3443 -1.2702
 7396TIP3    H222153   1.009   4.923   2.293 -0.2281 -0.5015  1.1521
 7397TIP3   OH222154   0.260   3.041   1.083 -0.2720  0.0459 -0.0200
 7397TIP3    H122155   0.207   2.978   1.034 -1.6512  0.0650  1.3832
 7397TIP3    H222156   0.262   3.008   1.172  1.2829  0.5832  0.1824
 7398TIP3   OH222157   2.524   1.686   0.583  0.2354 -0.3621 -0.0284
 7398TIP3    H122158   2.458   1.693   0.652  0.1126 -1.2052 -0.0502
 7398TIP3    H222159   2.528   1.773   0.545 -0.0107  0.0001  0.7581
 7399TIP3   OH222160   2.541   3.160  -0.002 -0.1113 -0.3378  0.0111
 7399TIP3    H122161   2.597   3.085   0.017  0.7943  0.2634 -0.2358
 7399TIP3    H222162   2.536   3.208   0.080 -0.1459 -0.3031 -0.0113
 7400TIP3   OH222163   4.168   5.241   4.806  0.1236  0.2045  0.0107
 7400TIP3    H122164   4.096   5.227   4.867  1.2647  2.2185  2.0017
 7400TIP3    H222165   4.163   5.334   4.785  0.4461 -0.2220 -2.1626
 7401TIP3   OH222166   5.914   3.075   3.654 -0.5045  0.1692  0.2462
 7401TIP3    H122167   5.897   2.990   3.695 -0.7134  0.2934  0.4183
 7401TIP3    H222168   5.924   3.136   3.727  2.1623 -0.1415  0.2394
 7402TIP3   OH222169   3.240   6.390   1.641 -0.0005  0.5251  0.1704
 7402TIP3    H122170   3.307   6.457   1.647  0.5548 -0.1725  2.4964
 7402TIP3    H222171   3.255   6.348   1.556  1.3100  1.5799 -0.1387
 7403TIP3   OH222172   4.715   2.969   3.090  0.0744 -0.2560 -0.1564
 7403TIP3    H122173   4.669   2.908   3.148 -0.0850  0.7615  0.8244
 7403TIP3    H222174   4.680   2.952   3.003  0.2770 -1.7896  0.0401
 7404TIP3   OH222175   2.893   6.078   4.499 -0.5555 -0.1328 -0.4866
 7404TIP3    H122176   2.946   6.156   4.482 -1.4360  0.0701 -2.5984
 7404TIP3    H222177   2.956   6.010   4.520  0.2764  0.9083  0.5523
 7405TIP3   OH222178   2.410   4.803   1.437 -0.1861  0.4131  0.1734
 7405TIP3    H122179   2.471   4.779   1.507 -1.8415  0.9541  1.8546
 7405TIP3    H222180   2.372   4.720   1.409 -0.8657  0.3647  1.2095
 7406TIP3   OH222181   2.289   5.705   0.431  0.2642 -0.6142  0.5090
 7406TIP3    H122182   2.238   5.776   0.470  0.2864  0.1942 -0.8706
 7406TIP3    H222183   2.356   5.685   0.496 -0.5251 -0.2406  1.4532
 7407TIP3   OH222184   2.803   5.795   1.682  0.3282 -0.1438  0.3703
 7407TIP3    H122185   2.868   5.759   1.742 -0.1548  1.0156  1.6446
 7407TIP3    H222186   2.722   5.795   1.732 -0.2222  0.3005 -0.4978
 7408TIP3   OH222187   3.689   4.528   2.094  0.2308 -0.1363  0.4698
 7408TIP3    H122188   3.758   4.593   2.108 -1.3784  1.4320  1.4849
 7408TIP3    H222189   3.612   4.579   2.069 -0.3977 -1.9045 -1.5337
 7409TIP3   OH222190   5.401   4.899   4.394  0.3501  0.3442 -0.1843
 7409TIP3    H122191   5.436   4.840   4.460 -0.7200 -1.3730 -1.1007
 7409TIP3    H222192   5.373   4.976   4.443 -2.1346 -1.6048  1.7312
 7410TIP3   OH222193   2.704   2.437   3.065 -0.4246 -0.4054  0.1965
 7410TIP3    H122194   2.648   2.486   3.126  2.3448 -0.2678  2.8599
 7410TIP3    H222195   2.730   2.502   2.999 -2.8216 -0.3459 -0.8020
 7411TIP3   OH222196   1.556   2.491   5.331  0.0046  0.6264 -0.3837
 7411TIP3    H122197   1.615   2.433   5.380 -0.5877  0.2783 -0.0693
 7411TIP3    H222198   1.611   2.529   5.263  0.2299 -0.9401 -1.1275
 7412TIP3   OH222199   0.688   0.680   5.191  0.0574  0.3492  0.5304
 7412TIP3    H122200   0.656   0.593   5.213 -1.4526  0.2823 -1.6280
 7412TIP3    H222201   0.783   0.673   5.198  0.1392 -2.1109 -1.4192
 7413TIP3   OH222202   2.379   5.182   3.868 -0.4882  0.0099  0.2073
 7413TIP3    H122203   2.339   5.110   3.820  0.2591  0.7093 -1.5253
 7413TIP3    H222204   2.473   5.171   3.854 -0.0302 -0.7955  3.0563
 7414TIP3   OH222205   6.270   1.350   3.197  0.3370 -0.1931 -0.2508
 7414TIP3    H122206   6.340   1.325   3.137 -2.0784 -0.9906 -2.9934
 7414TIP3    H222207   6.204   1.282   3.185 -1.7980  1.6389  0.5132
 7415TIP3   OH222208   6.269   0.093   0.726 -0.3501  0.1234  0.4009
 7415TIP3    H122209   6.255   0.170   0.782  0.0360 -0.0518  0.7457
 7415TIP3    H222210   6.307   0.129   0.646  3.3280  0.0057  1.9180
 7416TIP3   OH222211   3.961   6.744   4.705 -0.0914  0.1504 -0.3890
 7416TIP3    H122212   3.976   6.831   4.742  1.5826  1.0702 -2.9606
 7416TIP3    H222213   4.044   6.698   4.719 -0.0979 -0.1331 -1.2568
 7417TIP3   OH222214   4.848   0.538   2.398  0.7690  0.6549 -0.1222
 7417TIP3    H122215   4.801   0.478   2.456  0.8095  0.1167 -0.6280
 7417TIP3    H222216   4.928   0.491   2.375  1.3894  1.4124  0.4389
 7418TIP3   OH222217   2.288   3.652   1.771  0.1694 -0.5034 -0.2456
 7418TIP3    H122218   2.382   3.634   1.770  0.2688  0.0084 -0.4395
 7418TIP3    H222219   2.247   3.570   1.745  0.5269 -0.9529  0.5962
 7419TIP3   OH222220   3.123   3.016   1.238 -0.0351  0.0770  0.8249
 7419TIP3    H122221   3.212   3.010   1.274 -0.3079 -2.3278  1.2409
 7419TIP3    H222222   3.077   2.941   1.274 -2.3028  1.2939  0.6614
 7420TIP3   OH222223   5.206   5.878   2.548 -0.5008  0.2125  0.0459
 7420TIP3    H122224   5.240   5.894   2.636  0.6662 -1.1749 -0.1264
 7420TIP3    H222225   5.114   5.856   2.561 -1.0739  2.6854  0.6388
 7421TIP3   OH222226   1.983   5.686   0.699  0.3367 -0.2836  0.5314
 7421TIP3    H122227   2.078   5.687   0.689  0.3988  1.1222  1.0654
 7421TIP3    H222228   1.969   5.658   0.790  0.3266  1.2021  1.0107
 7422TIP3   OH222229   1.817   2.570   1.656 -0.5123  0.4239  0.4198
 7422TIP3    H122230   1.757   2.513   1.609 -0.2422  1.7805 -1.6897
 7422TIP3    H222231   1.786   2.568   1.747 -2.2635 -0.7552 -0.1598
 7423TIP3   OH222232   3.466   2.864   5.342 -0.1424  0.3719 -0.1844
 7423TIP3    H122233   3.519   2.935   5.305 -0.1190  0.6219  0.3069
 7423TIP3    H222234   3.519   2.831   5.415 -1.0212  1.2096  0.8722
 7424TIP3   OH222235   4.671   0.449   1.870  0.2766  0.4415 -0.4827
 7424TIP3    H122236   4.699   0.513   1.804  0.9134  1.1258  0.4238
 7424TIP3    H222237   4.611   0.498   1.926 -0.1288 -0.0866 -0.4510
 7425TIP3   OH222238   1.126   6.541   0.058  0.0680 -0.0611 -0.1981
 7425TIP3    H122239   1.039   6.505   0.074  0.0328  0.9077  2.2888
 7425TIP3    H222240   1.113   6.606  -0.011 -1.5278  1.1137  1.1264
 7426TIP3   OH222241   1.814   0.053   2.605  0.2474 -0.2843  0.7114
 7426TIP3    H122242   1.866   0.103   2.669  0.0117  1.5638 -0.4610
 7426TIP3    H222243   1.868   0.051   2.526 -0.7554  0.2142 -0.0034
 7427TIP3   OH222244   0.639   3.969   5.870  0.1942 -0.3863  0.6475
 7427TIP3    H122245   0.615   3.876   5.872  0.9389 -0.5968 -0.0831
 7427TIP3    H222246   0.707   3.978   5.937  1.1497 -0.6672 -0.2685
 7428TIP3   OH222247   4.022   5.793   3.466  0.4567 -0.3572 -0.5522
 7428TIP3    H122248   4.066   5.708   3.474 -0.4329 -0.6646  1.9969
 7428TIP3    H222249   4.092   5.858   3.476  1.0749 -0.7550 -2.0825
 7429TIP3   OH222250   2.810   5.689   5.559 -0.3911  0.0145 -0.0452
 7429TIP3    H122251   2.829   5.596   5.570  0.4232  0.0889 -0.7056
 7429TIP3    H222252   2.716   5.692   5.541 -0.1532 -0.8390 -1.5997
 7430TIP3   OH222253   7.222   2.341   5.127 -0.1517  0.3808  0.6807
 7430TIP3    H122254   7.141   2.302   5.159 -0.6930 -0.3903 -1.4418
 7430TIP3    H222255   7.291   2.288   5.167 -0.7838 -0.4386  0.7258
 7431TIP3   OH222256   5.375   0.576   1.090  0.3321 -0.1335 -0.0059
 7431TIP3    H122257   5.368   0.651   1.032  0.1667  0.6202  0.9637
 7431TIP3    H222258   5.356   0.500   1.034  0.7465  0.5105 -1.0497
 7432TIP3   OH222259   1.726   4.321   5.853  0.1226 -0.7411  0.2874
 7432TIP3    H122260   1.698   4.353   5.768  0.6818  1.5813  0.9033
 7432TIP3    H222261   1.649   4.275   5.888 -0.7249 -0.1448 -0.7306
 7433TIP3   OH222262   4.114   1.662   0.064 -0.0911  0.3710 -0.3104
 7433TIP3    H122263   4.103   1.749   0.101 -0.5935  0.7697 -1.3540
 7433TIP3    H222264   4.034   1.616   0.086  0.1706  0.1690  0.2337
 7434TIP3   OH222265   5.034   2.545   0.119 -0.1154  0.2703 -0.1073
 7434TIP3    H122266   5.079   2.589   0.192 -0.0370  1.5352 -0.8859
 7434TIP3    H222267   4.946   2.526   0.152 -0.0502  0.7542  0.3537
 7435TIP3   OH222268   1.817   1.605   3.613  0.3893  0.3305 -0.5830
 7435TIP3    H122269   1.782   1.564   3.535 -0.5402 -0.2093  0.1040
 7435TIP3    H222270   1.743   1.652   3.651  1.4666  2.9482 -1.4894
 7436TIP3   OH222271   5.501   4.743   5.861  0.3460  0.1786 -0.1120
 7436TIP3    H122272   5.525   4.731   5.769  0.8076 -0.6874  0.1022
 7436TIP3    H222273   5.529   4.661   5.903 -0.2935  0.3735  0.7085
 7437TIP3   OH222274   2.671   0.523   2.569 -0.4091 -0.1420 -0.1258
 7437TIP3    H122275   2.695   0.443   2.616 -0.4838  0.4340  0.9069
 7437TIP3    H222276   2.620   0.573   2.632 -2.3024 -0.2586 -1.4660
 7438TIP3   OH222277   6.720   5.372   3.449 -0.5576  0.3095  0.0553
 7438TIP3    H122278   6.753   5.426   3.521 -0.8330 -0.2038  0.5761
 7438TIP3    H222279   6.626   5.384   3.451 -0.6508 -0.4176  0.3724
 7439TIP3   OH222280   0.097   5.363   0.838  0.1794  0.1811  0.0114
 7439TIP3    H122281   0.146   5.283   0.858 -0.9428 -0.3055  0.9637
 7439TIP3    H222282   0.076   5.400   0.923  0.2558  1.2374 -0.4159
 7440TIP3   OH222283   4.943   1.000   0.197 -0.3566 -0.7061  0.2834
 7440TIP3    H122284   4.960   1.094   0.200 -0.9412 -0.6243  1.3814
 7440TIP3    H222285   4.922   0.983   0.105  1.4051 -0.0888 -0.2777
 7441TIP3   OH222286   3.183   5.283   0.120  0.1671 -0.1393 -0.4945
 7441TIP3    H122287   3.108   5.327   0.082  0.7177  0.6124 -0.7394
 7441TIP3    H222288   3.255   5.345   0.111  0.6622 -0.5522  0.3775
 7442TIP3   OH222289   0.212   4.499   1.304  0.1217 -0.3190 -0.0666
 7442TIP3    H122290   0.197   4.413   1.265 -2.5030 -1.0160  2.0918
 7442TIP3    H222291   0.299   4.493   1.343  0.9912 -1.0755 -1.9821
 7443TIP3   OH222292   0.864   1.306   2.222  0.7614  0.0237 -0.3638
 7443TIP3    H122293   0.816   1.283   2.302 -0.0584  0.1537 -0.8010
 7443TIP3    H222294   0.893   1.396   2.237  0.2943  0.1781 -0.3441
 7444TIP3   OH222295   3.950   5.639   1.083 -0.0220 -0.4336  0.2456
 7444TIP3    H122296   3.876   5.620   1.140 -0.0784 -0.9298  0.0143
 7444TIP3    H222297   3.961   5.734   1.088  0.5139 -0.5427  1.7515
 7445TIP3   OH222298   1.921   5.588   3.988  0.3150 -0.0405 -0.2644
 7445TIP3    H122299   1.926   5.493   3.986 -2.4896 -0.2829 -0.6145
 7445TIP3    H222300   1.949   5.613   4.076 -0.2970 -1.3479  0.3245
 7446TIP3   OH222301   6.699   2.203   2.871  0.2038 -0.2309 -0.1652
 7446TIP3    H122302   6.699   2.112   2.903  1.1188 -0.5640 -1.0872
 7446TIP3    H222303   6.655   2.198   2.786 -1.3868  0.5077  0.5698
 7447TIP3   OH222304   3.006   2.174   2.119 -0.0240  0.1558 -0.0896
 7447TIP3    H122305   2.962   2.094   2.147 -0.7111  0.8992  1.0452
 7447TIP3    H222306   3.099   2.155   2.127 -0.0847 -1.3009 -2.0964
 7448TIP3   OH222307   0.623   3.130   0.213  0.9319  0.5469  0.0917
 7448TIP3    H122308   0.583   3.171   0.290  0.3496  0.6886 -0.2764
 7448TIP3    H222309   0.686   3.194   0.180  0.2396  1.0312 -0.3067
 7449TIP3   OH222310   1.228   0.150   1.776  0.5453  0.4704 -0.0642
 7449TIP3    H122311   1.264   0.061   1.780 -0.1320  0.0321 -2.5711
 7449TIP3    H222312   1.294   0.203   1.820  1.7175 -1.0546  0.1225
 7450TIP3   OH222313   0.334   5.538   0.300 -0.0202  0.1594 -0.0738
 7450TIP3    H122314   0.339   5.569   0.391 -0.6184  0.8152 -0.2640
 7450TIP3    H222315   0.344   5.616   0.247  0.6806 -0.2725 -0.5861
 7451TIP3   OH222316   6.858   0.976   3.964  0.4407 -0.0760  0.9518
 7451TIP3    H122317   6.782   0.924   3.990  0.9584 -1.3805  0.0344
 7451TIP3    H222318   6.932   0.916   3.976  1.2522  0.9604  1.2460
 7452TIP3   OH222319   4.543   0.834   3.585 -0.1233  0.4974 -0.8082
 7452TIP3    H122320   4.513   0.892   3.515 -2.1604 -1.3808 -1.5977
 7452TIP3    H222321   4.563   0.751   3.541 -0.5586 -0.4448  0.6876
 7453TIP3   OH222322   2.495   0.360   5.827  0.4497 -0.5021  0.2601
 7453TIP3    H122323   2.556   0.328   5.893  0.7886 -1.3521 -0.4368
 7453TIP3    H222324   2.434   0.287   5.814 -0.0702 -0.0589  0.1823
 7454TIP3   OH222325   1.688   1.963   1.468 -0.0403  0.6103 -0.5707
 7454TIP3    H122326   1.779   1.972   1.440 -0.0166  1.0159 -0.3682
 7454TIP3    H222327   1.638   1.963   1.387  0.1482  0.2958 -0.6875
 7455TIP3   OH222328   6.485   4.106   3.943  0.1116  0.7929  0.0116
 7455TIP3    H122329   6.447   4.068   3.864  1.5533 -0.4216 -0.1397
 7455TIP3    H222330   6.495   4.033   4.003 -0.7945  1.6685  1.3003
 7456TIP3   OH222331   5.304   3.653   4.651 -0.1707 -0.0361 -0.6238
 7456TIP3    H122332   5.284   3.587   4.584 -0.6699 -0.1100 -0.4018
 7456TIP3    H222333   5.220   3.670   4.694  0.2529 -0.4176  0.3758
 7457TIP3   OH222334   2.951   4.966   0.542 -1.0453  0.3991 -0.3674
 7457TIP3    H122335   2.901   4.972   0.623 -0.6956  0.7048 -0.1755
 7457TIP3    H222336   3.035   4.930   0.569 -1.0055  0.2955 -0.6287
 7458TIP3   OH222337   2.889   3.444   2.089  0.1885 -0.8340 -0.3737
 7458TIP3    H122338   2.969   3.490   2.063  0.3497  0.1611  1.6230
 7458TIP3    H222339   2.818   3.498   2.053  0.4115 -0.8071 -0.7742
 7459TIP3   OH222340   0.030   0.395   4.408 -0.2946 -0.6341  0.3440
 7459TIP3    H122341   0.102   0.445   4.370 -1.7673  0.9353 -0.5354
 7459TIP3    H222342   0.061   0.372   4.496  0.9786  0.6574  0.2771
 7460TIP3   OH222343   0.410   1.706   1.940 -0.2126 -0.3871  0.9481
 7460TIP3    H122344   0.462   1.677   2.014 -1.7137 -1.4683  1.6378
 7460TIP3    H222345   0.364   1.784   1.971 -0.3098 -0.4308  0.9140
 7461TIP3   OH222346   2.385   3.576   3.326  0.1930 -0.8579 -0.6097
 7461TIP3    H122347   2.343   3.650   3.284 -1.4568 -1.4707 -0.1263
 7461TIP3    H222348   2.455   3.551   3.267  0.9195  1.1818 -0.6808
 7462TIP3   OH222349   3.012   3.561   0.770  0.1361  0.5590  0.0563
 7462TIP3    H122350   3.092   3.601   0.737  0.5400  1.0890  1.5832
 7462TIP3    H222351   3.023   3.467   0.755  1.1604  0.6048  0.4513
 7463TIP3   OH222352   2.936   1.415   5.151  0.2767 -0.0966  0.3874
 7463TIP3    H122353   3.022   1.387   5.180 -0.4586 -2.2051  0.7384
 7463TIP3    H222354   2.881   1.410   5.230 -0.3142  0.5516  0.0295
 7464TIP3   OH222355   6.447   6.734   5.395 -0.3165  0.2176 -0.0155
 7464TIP3    H122356   6.371   6.790   5.412  0.6917  0.8683  3.0478
 7464TIP3    H222357   6.443   6.668   5.464  1.8973  0.2913  0.2429
 7465TIP3   OH222358   0.817   4.682   0.940 -0.3093  0.3772  0.0773
 7465TIP3    H122359   0.811   4.587   0.931  2.4004 -0.3813  3.9423
 7465TIP3    H222360   0.748   4.705   1.001 -0.5625  0.8408 -0.3716
 7466TIP3   OH222361   6.097   0.963   4.906  0.4067  0.0933 -0.1153
 7466TIP3    H122362   6.062   1.052   4.909 -0.4373 -0.2264 -0.3214
 7466TIP3    H222363   6.026   0.908   4.939  0.8578 -0.5270 -0.1633
 7467TIP3   OH222364   5.259   4.421   1.570 -0.0662  0.5322  0.1975
 7467TIP3    H122365   5.231   4.330   1.575  1.6501 -0.0859 -0.5940
 7467TIP3    H222366   5.262   4.450   1.661  1.9283 -1.0868  0.7287
 7468TIP3   OH222367   6.106   2.324   0.830  0.0915  0.5626 -0.4140
 7468TIP3    H122368   6.094   2.377   0.751 -0.0464  0.4899 -0.4437
 7468TIP3    H222369   6.198   2.298   0.828 -0.2313 -0.6424 -1.3324
 7469TIP3   OH222370   1.111   2.218   1.182 -0.2079 -0.1494 -0.7595
 7469TIP3    H122371   1.092   2.306   1.151 -0.2761  0.1176  0.0147
 7469TIP3    H222372   1.053   2.161   1.131 -1.0333  0.3727 -0.4195
 7470TIP3   OH222373   3.039   4.822   0.820 -0.2259 -0.3561 -0.4380
 7470TIP3    H122374   2.987   4.902   0.826  0.2089 -0.1078  0.0957
 7470TIP3    H222375   2.975   4.754   0.796 -0.7963 -0.0583  0.2090
 7471TIP3   OH222376   4.658   6.074   1.053  0.6468  0.4028 -0.3413
 7471TIP3    H122377   4.708   6.121   0.986  0.3237  0.8655 -0.2593
 7471TIP3    H222378   4.575   6.053   1.011  0.4841  0.6019 -0.1154
 7472TIP3   OH222379   1.672   1.304   0.142  0.0095 -0.0307  0.3772
 7472TIP3    H122380   1.597   1.284   0.087 -0.9654  0.2579  1.5761
 7472TIP3    H222381   1.635   1.336   0.224  1.4410  0.4500  0.8742
 7473TIP3   OH222382   4.023   1.519   0.644 -0.4986  0.0601 -0.0713
 7473TIP3    H122383   4.055   1.564   0.722  0.6220  0.3084 -0.6489
 7473TIP3    H222384   4.004   1.430   0.673  2.7374 -0.7478 -0.0912
 7474TIP3   OH222385   1.556   3.834   3.608  0.7493  0.1343 -0.1428
 7474TIP3    H122386   1.511   3.758   3.647 -2.2114  1.1646 -1.2410
 7474TIP3    H222387   1.544   3.904   3.672  2.2332  0.0552  0.2412
 7475TIP3   OH222388   1.448   2.622   3.810 -0.5441 -0.2659 -0.0126
 7475TIP3    H122389   1.472   2.575   3.890 -0.3251 -0.7160 -0.3383
 7475TIP3    H222390   1.368   2.580   3.780 -0.9391  0.2725  0.2726
 7476TIP3   OH222391  -0.029   3.991   0.055  0.3690  0.1035  0.3654
 7476TIP3    H122392   0.052   3.942   0.037  0.7064  1.5073 -2.4044
 7476TIP3    H222393  -0.004   4.055   0.121  0.5302 -1.7118  2.1996
 7477TIP3   OH222394   3.894   4.056   4.628  0.2101  0.3945  0.6507
 7477TIP3    H122395   3.883   4.002   4.549  1.4793  1.6178 -0.4159
 7477TIP3    H222396   3.845   4.136   4.609 -1.4657 -0.2184  2.1295
 7478TIP3   OH222397   4.037   3.677   4.238  0.1210 -0.2841 -0.1646
 7478TIP3    H122398   4.052   3.645   4.327  0.0535  1.9934  0.7612
 7478TIP3    H222399   4.101   3.748   4.227 -0.0265 -0.3737 -1.8521
 7479TIP3   OH222400   3.058   0.282   0.682  0.1529  0.4725  0.3086
 7479TIP3    H122401   3.121   0.247   0.745  0.4886  1.7841  0.7284
 7479TIP3    H222402   3.029   0.205   0.632  0.4373 -0.4850  1.5516
 7480TIP3   OH222403   6.920   4.757   2.106 -0.2471  0.7621 -0.2492
 7480TIP3    H122404   6.849   4.790   2.162 -1.4318 -2.1813  0.1778
 7480TIP3    H222405   6.999   4.767   2.159 -0.7864  1.4505  0.4389
 7481TIP3   OH222406   6.016   0.345   2.444 -0.7001 -0.2328  0.2573
 7481TIP3    H122407   5.984   0.288   2.375 -0.5589  1.9445 -1.7395
 7481TIP3    H222408   5.989   0.433   2.418 -1.3798  0.6437  3.4462
 7482TIP3   OH222409   3.528   6.304   2.194 -0.2167  0.0522 -0.4338
 7482TIP3    H122410   3.504   6.381   2.245 -1.2038 -0.8317  0.4804
 7482TIP3    H222411   3.530   6.336   2.103 -1.2331  1.0287 -0.1463
 7483TIP3   OH222412   6.447   5.537   1.576 -0.4880  0.1910  0.5264
 7483TIP3    H122413   6.488   5.619   1.551  0.7800 -0.2193  1.2190
 7483TIP3    H222414   6.495   5.470   1.528 -2.0296 -0.1169 -0.6669
 7484TIP3   OH222415   1.839   0.115   3.061 -0.1175 -0.0807 -0.0775
 7484TIP3    H122416   1.844   0.051   2.991 -2.5361  1.1071 -1.4533
 7484TIP3    H222417   1.795   0.069   3.133 -0.7426 -0.3271 -0.6098
 7485TIP3   OH222418   2.772   2.682   4.456 -0.4069  0.0557 -0.6125
 7485TIP3    H122419   2.684   2.719   4.457 -1.3351 -1.9724 -1.8191
 7485TIP3    H222420   2.802   2.693   4.366  0.5920  0.7052 -0.2186
 7486TIP3   OH222421   1.063   4.634   2.890 -0.4898 -0.0407  0.1968
 7486TIP3    H122422   1.143   4.583   2.876 -0.8604 -0.2653 -1.3594
 7486TIP3    H222423   1.046   4.628   2.984  0.3897 -1.4084  0.2993
 7487TIP3   OH222424   1.766   2.670   2.127 -0.3860 -0.4410  0.2201
 7487TIP3    H122425   1.856   2.700   2.117 -0.0518 -0.9961  1.3715
 7487TIP3    H222426   1.712   2.742   2.094  0.4475  0.3767  0.6240
 7488TIP3   OH222427   3.801   5.940   3.822 -0.3546 -0.0816 -0.3305
 7488TIP3    H122428   3.851   5.995   3.882  0.9517 -0.5199 -0.9631
 7488TIP3    H222429   3.847   5.949   3.738 -1.0313 -0.9243 -0.8043
 7489TIP3   OH222430   2.004   5.832   1.449 -0.9908  0.3427 -0.3942
 7489TIP3    H122431   2.040   5.921   1.452 -0.0468 -0.0629  1.6109
 7489TIP3    H222432   2.063   5.785   1.390  0.2529  0.3467  0.8056
 7490TIP3   OH222433   6.364   3.884   1.584 -0.9696  0.3227 -0.0769
 7490TIP3    H122434   6.384   3.865   1.492 -2.1118  3.3002 -1.0480
 7490TIP3    H222435   6.275   3.852   1.596 -1.6152  1.8005 -0.6936
 7491TIP3   OH222436   1.768   4.164   3.397 -0.2301 -0.9435 -0.4317
 7491TIP3    H122437   1.749   4.237   3.456 -3.9129 -2.3512  0.3764
 7491TIP3    H222438   1.799   4.094   3.455 -0.2670 -1.1614 -0.6727
 7492TIP3   OH222439   6.128   1.540   3.567 -0.1581 -0.1454 -0.0783
 7492TIP3    H122440   6.180   1.609   3.526  0.0528 -0.1841  0.1203
 7492TIP3    H222441   6.042   1.580   3.581 -0.5671 -0.4739 -1.5348
 7493TIP3   OH222442   5.391   4.412   0.394  0.0233  0.0664  0.7107
 7493TIP3    H122443   5.386   4.325   0.434  1.2859  0.2982  1.3947
 7493TIP3    H222444   5.369   4.473   0.464 -3.0786  0.2821 -0.2653
 7494TIP3   OH222445   1.412   4.286   4.831 -0.0964 -0.5452  0.3961
 7494TIP3    H122446   1.383   4.315   4.918 -1.9054  1.2980 -0.7471
 7494TIP3    H222447   1.339   4.234   4.798 -0.0530  0.0171 -0.5995
 7495TIP3   OH222448   5.266   3.497   4.933  0.3836  0.4423 -0.0540
 7495TIP3    H122449   5.323   3.556   4.983  0.6612 -1.4223  1.9443
 7495TIP3    H222450   5.236   3.551   4.859  1.4402  2.7383  1.0735
 7496TIP3   OH222451   3.126   5.729   0.282 -0.1082  0.2194  0.7151
 7496TIP3    H122452   3.114   5.754   0.190 -0.2552 -2.5718 -0.1291
 7496TIP3    H222453   3.209   5.680   0.282 -0.4139 -0.3238  1.9397
 7497TIP3   OH222454   6.244   1.702   2.613 -0.7281  0.5327 -0.1348
 7497TIP3    H122455   6.220   1.783   2.568 -1.6812  1.0847  1.2744
 7497TIP3    H222456   6.168   1.681   2.667 -0.0170 -0.6254  0.4627
 7498TIP3   OH222457   6.513   0.505   1.054 -0.2486 -0.6233 -0.3194
 7498TIP3    H122458   6.441   0.557   1.019 -0.3582 -0.5536  0.0024
 7498TIP3    H222459   6.575   0.570   1.088  0.0792 -0.6756 -0.8061
 7499TIP3   OH222460   3.430   5.852   3.807 -0.0701  0.0305 -0.1974
 7499TIP3    H122461   3.478   5.770   3.821 -2.5703 -2.2363 -3.3166
 7499TIP3    H222462   3.469   5.889   3.727 -0.6241  0.4716 -0.2717
 7500TIP3   OH222463   6.459   5.314   0.997  0.3863 -0.0256  0.6561
 7500TIP3    H122464   6.526   5.382   0.986  0.7786 -0.6947 -1.8159
 7500TIP3    H222465   6.376   5.361   0.984  0.6192  0.1453 -0.3404
 7501TIP3   OH222466   3.828   2.713   5.826 -0.8184 -0.2116  0.4654
 7501TIP3    H122467   3.846   2.696   5.734 -1.2974 -1.0093  0.5065
 7501TIP3    H222468   3.905   2.760   5.857  1.2958 -3.4328  0.6076
 7502TIP3   OH222469   2.291   2.885   1.395  0.1805  0.2356  0.0995
 7502TIP3    H122470   2.223   2.865   1.332  0.2501 -1.5542  0.5554
 7502TIP3    H222471   2.254   2.955   1.449 -0.4526  0.7388 -0.9598
 7503TIP3   OH222472   0.186   0.530   5.569  0.1561 -0.4158 -0.1446
 7503TIP3    H122473   0.166   0.439   5.545  1.5498 -0.9303  0.5049
 7503TIP3    H222474   0.210   0.525   5.661 -0.2637  0.7188  0.0363
 7504TIP3   OH222475   1.054   4.669   0.455 -0.1109 -0.0889  0.1681
 7504TIP3    H122476   0.974   4.662   0.508 -0.5421  0.6547 -0.3697
 7504TIP3    H222477   1.068   4.763   0.446  0.7905 -0.2141  0.1867
 7505TIP3   OH222478   4.665   6.034   4.884  0.2927 -0.2250  0.0960
 7505TIP3    H122479   4.675   6.123   4.852  1.0358 -0.2025  0.3530
 7505TIP3    H222480   4.621   6.043   4.969  0.5833 -0.0776  0.2343
 7506TIP3   OH222481   2.841   5.568   5.887 -0.5225  0.4979  0.4218
 7506TIP3    H122482   2.806   5.512   5.819  0.4345  0.6635 -0.2282
 7506TIP3    H222483   2.929   5.590   5.857  1.2501 -2.0768  3.1925
 7507TIP3   OH222484   6.757   3.021   4.690  0.0361 -0.4879  0.2741
 7507TIP3    H122485   6.736   3.068   4.771  0.0934  1.8117 -0.9672
 7507TIP3    H222486   6.850   3.038   4.675 -0.1422 -0.2769 -0.6444
 7508TIP3   OH222487   5.642   3.033   5.483  0.4561  0.0195  0.3581
 7508TIP3    H122488   5.695   3.029   5.563  0.3239  1.1209  0.5253
 7508TIP3    H222489   5.690   3.093   5.426 -0.7005  1.2464  0.6122
 7509TIP3   OH222490   4.814   6.767   5.027 -0.1192 -0.0520  1.0438
 7509TIP3    H122491   4.797   6.698   4.962  1.3030 -0.0230  0.6020
 7509TIP3    H222492   4.781   6.731   5.109 -2.7710  0.2495  0.2139
 7510TIP3   OH222493   5.927   1.117   4.098 -0.3372 -0.1152 -0.3788
 7510TIP3    H122494   5.922   1.193   4.039  0.8533 -0.1650 -0.5827
 7510TIP3    H222495   5.839   1.108   4.133 -0.4896  1.4263 -0.2895
 7511TIP3   OH222496   3.059   4.548   0.099  0.5705  0.0559  0.5611
 7511TIP3    H122497   2.998   4.502   0.156  0.7901 -1.6813 -0.5435
 7511TIP3    H222498   3.145   4.513   0.123  0.8175  0.3573  0.1299
 7512TIP3   OH222499   5.034   5.881   2.836 -0.3511  0.0062 -0.2339
 7512TIP3    H122500   5.050   5.788   2.820  0.9090  0.0336  0.7620
 7512TIP3    H222501   4.987   5.883   2.919 -0.5496  0.2510 -0.3526
 7513TIP3   OH222502   4.209   6.219   3.256 -0.5695 -0.1519 -0.3609
 7513TIP3    H122503   4.302   6.197   3.265 -0.6333 -0.5829 -0.7228
 7513TIP3    H222504   4.175   6.220   3.345 -0.0918  0.5896 -0.1750
 7514TIP3   OH222505   4.087   2.695   1.610 -0.3412  0.0176  0.4796
 7514TIP3    H122506   4.158   2.666   1.667 -0.0945 -0.1522  0.0893
 7514TIP3    H222507   4.115   2.672   1.521  0.9828  3.4698 -0.1738
 7515TIP3   OH222508   4.425   4.506   0.020 -0.4409 -0.0095  0.2387
 7515TIP3    H122509   4.453   4.508   0.111  1.1269 -0.3888 -0.2056
 7515TIP3    H222510   4.420   4.412  -0.001  1.7038  0.0414 -0.7514
 7516TIP3   OH222511   7.096   5.249   0.620 -0.3154 -0.2365 -0.1874
 7516TIP3    H122512   7.154   5.189   0.573 -1.4011 -0.6105 -1.0988
 7516TIP3    H222513   7.132   5.336   0.602  0.6906 -0.5382  0.3194
 7517TIP3   OH222514  -0.020   0.140   4.266 -0.3019 -0.1505  0.1795
 7517TIP3    H122515  -0.014   0.222   4.315  0.3894 -0.1148  0.0401
 7517TIP3    H222516   0.069   0.105   4.267 -0.5580 -0.8155  0.0912
 7518TIP3   OH222517   5.576   0.127   1.940 -0.3007 -0.1445  0.2502
 7518TIP3    H122518   5.488   0.109   1.905  0.4269  0.1033 -1.8300
 7518TIP3    H222519   5.575   0.221   1.959 -0.5919 -0.2087  0.5661
 7519TIP3   OH222520   0.991   0.722   4.410 -0.7586  0.3827 -0.1592
 7519TIP3    H122521   0.998   0.714   4.315  1.5178 -0.3326  0.0031
 7519TIP3    H222522   1.041   0.801   4.432 -0.2464 -0.1108  0.5158
 7520TIP3   OH222523   2.568   5.797   4.011  0.7577 -0.1416  0.3096
 7520TIP3    H122524   2.473   5.806   4.003  0.8824  0.3243 -0.8559
 7520TIP3    H222525   2.582   5.709   4.045 -0.0940 -0.2295  0.4424
 7521TIP3   OH222526   3.205   1.747   0.509 -0.8578 -0.1100 -0.2538
 7521TIP3    H122527   3.284   1.790   0.543 -0.8780 -0.0463 -0.2878
 7521TIP3    H222528   3.147   1.819   0.485  0.0154 -0.0846 -2.5080
 7522TIP3   OH222529   7.128   1.076   3.926 -0.2442  0.3181 -0.2186
 7522TIP3    H122530   7.185   1.133   3.874 -0.1834  0.8120  0.3846
 7522TIP3    H222531   7.040   1.096   3.896 -0.4905  2.6945  1.8001
 7523TIP3   OH222532   2.667   5.273   2.185  0.7540 -0.0084  0.2091
 7523TIP3    H122533   2.621   5.357   2.190 -0.9952 -0.9615  0.8944
 7523TIP3    H222534   2.619   5.223   2.120  2.8519  0.0915 -1.5098
 7524TIP3   OH222535   6.117   6.374   0.657  0.2848  0.2307  0.4753
 7524TIP3    H122536   6.147   6.314   0.725 -0.9084 -1.3478 -0.3378
 7524TIP3    H222537   6.191   6.383   0.598  0.3531 -0.7880  0.3877
 7525TIP3   OH222538   3.729   4.193   3.245  0.0029 -0.1021 -0.1732
 7525TIP3    H122539   3.790   4.139   3.294 -0.2076 -0.8033 -0.6716
 7525TIP3    H222540   3.643   4.153   3.261 -0.2578  0.5445  0.0792
 7526TIP3   OH222541   4.474   1.365   2.563 -0.1933  0.2071 -0.1227
 7526TIP3    H122542   4.453   1.274   2.540  1.1894 -0.6878  1.8649
 7526TIP3    H222543   4.402   1.393   2.619  0.9135 -0.8827  1.9788
 7527TIP3   OH222544   2.610   1.746   4.576 -0.1133 -0.5376  0.2120
 7527TIP3    H122545   2.673   1.682   4.609 -0.2095 -0.6212  0.2314
 7527TIP3    H222546   2.572   1.704   4.498  0.5807 -0.0834 -0.3817
 7528TIP3   OH222547   7.032   3.039   4.574 -0.2552  0.1836 -0.1637
 7528TIP3    H122548   7.072   3.013   4.491 -2.3192  1.2241 -1.5745
 7528TIP3    H222549   7.099   3.021   4.640  1.4814 -0.6220 -2.0451
 7529TIP3   OH222550   3.673   6.126   1.304 -0.4185 -0.2974 -0.2623
 7529TIP3    H122551   3.736   6.061   1.274 -1.4896 -1.0101 -1.0528
 7529TIP3    H222552   3.659   6.105   1.397 -0.1558 -0.6951 -0.3120
 7530TIP3   OH222553   4.940   3.375   0.457  0.5214 -0.2102  0.0698
 7530TIP3    H122554   4.889   3.384   0.376  1.7105 -0.7736 -0.7665
 7530TIP3    H222555   5.031   3.384   0.429  0.9890 -1.1023  1.2369
 7531TIP3   OH222556   4.365   5.072   1.357  0.2673 -0.0383 -0.8188
 7531TIP3    H122557   4.444   5.124   1.369 -0.6444  0.8802  2.3557
 7531TIP3    H222558   4.397   4.982   1.347  1.7523  0.2492  0.8315
 7532TIP3   OH222559   2.172   1.684   3.640  0.3667  0.2442 -0.0722
 7532TIP3    H122560   2.118   1.739   3.584 -0.3591 -0.0724  0.3007
 7532TIP3    H222561   2.114   1.614   3.669  1.1482 -0.4639 -0.1620
 7533TIP3   OH222562   1.372   3.313   3.829 -0.6542  0.5712  0.3293
 7533TIP3    H122563   1.357   3.238   3.887  0.8154  0.8376  1.1085
 7533TIP3    H222564   1.350   3.280   3.741 -0.1774 -0.7380  0.6686
 7534TIP3   OH222565   6.969   4.187   5.255 -0.1468  0.4917 -0.1016
 7534TIP3    H122566   7.038   4.131   5.220 -2.3616 -1.4173 -1.6280
 7534TIP3    H222567   6.959   4.159   5.346  2.6589  2.5336  1.0197
 7535TIP3   OH222568   3.407   4.359   0.485 -0.4504  0.1648  0.3941
 7535TIP3    H122569   3.471   4.315   0.542 -2.5152 -2.1110  1.0920
 7535TIP3    H222570   3.324   4.353   0.533 -1.6891  0.8630 -1.5684
 7536TIP3   OH222571   2.088   2.723   3.239  0.2241  0.3277 -0.5977
 7536TIP3    H122572   1.995   2.735   3.262  0.3139 -0.5355  0.2679
 7536TIP3    H222573   2.114   2.807   3.201 -0.1395  1.6362  1.8183
 7537TIP3   OH222574   4.740   0.441   4.808  0.0825  0.2180 -0.0120
 7537TIP3    H122575   4.793   0.378   4.760  0.8365 -0.2355  1.3755
 7537TIP3    H222576   4.678   0.388   4.858 -0.5921  0.6814 -0.3320
 7538TIP3   OH222577   2.946   2.351   2.957 -0.1436  0.6718  0.4777
 7538TIP3    H122578   2.970   2.280   3.017  1.8709  0.0849 -0.9238
 7538TIP3    H222579   2.855   2.371   2.979  0.1498 -0.2899  2.9241
 7539TIP3   OH222580   5.888   0.687   0.844 -0.3674  0.7483  0.1866
 7539TIP3    H122581   5.895   0.737   0.762  0.1980  0.2961 -0.0433
 7539TIP3    H222582   5.803   0.714   0.881 -1.6715 -0.6371 -1.6031
 7540TIP3   OH222583   2.425   3.248   0.431 -0.0716 -0.3196  0.2014
 7540TIP3    H122584   2.396   3.157   0.438 -0.6764 -0.1185  0.3662
 7540TIP3    H222585   2.433   3.278   0.522 -1.0187  0.1420  0.1455
 7541TIP3   OH222586   4.961   2.109   4.009  0.0855 -0.2079 -0.4190
 7541TIP3    H122587   4.959   2.096   4.104  0.4346 -0.0181 -0.3858
 7541TIP3    H222588   5.005   2.032   3.975 -2.2225 -1.5312 -0.6581
 7542TIP3   OH222589   3.530   5.251   3.515  0.1923 -0.2291 -0.0797
 7542TIP3    H122590   3.529   5.217   3.426 -1.0389  0.9387 -0.5427
 7542TIP3    H222591   3.443   5.290   3.528  1.3251  2.3656  0.5229
 7543TIP3   OH222592   3.391   3.783   5.761  0.1216 -0.6437  1.0186
 7543TIP3    H122593   3.302   3.747   5.755 -0.8887  1.4457  2.0811
 7543TIP3    H222594   3.404   3.798   5.854  1.2384 -0.0914  0.7839
 7544TIP3   OH222595   1.407   5.447   5.435 -0.6563 -0.3974 -0.5016
 7544TIP3    H122596   1.318   5.451   5.469 -0.1187  0.8454  0.8512
 7544TIP3    H222597   1.463   5.445   5.512  0.5584  0.7671 -1.2963
 7545TIP3   OH222598   3.433   6.543   0.917 -0.2928 -0.0029  0.0102
 7545TIP3    H122599   3.397   6.501   0.838  0.1720 -0.5714  0.0944
 7545TIP3    H222600   3.481   6.473   0.961  0.0413  0.4935  0.4358
 7546TIP3   OH222601   1.173   4.037   5.350 -0.2558  0.7568 -0.1816
 7546TIP3    H122602   1.112   4.073   5.414  0.4889  1.6462  0.0566
 7546TIP3    H222603   1.230   4.110   5.327  0.2607  0.1382 -0.9477
 7547TIP3   OH222604   2.952   6.171   4.860  0.0597  0.2888  0.1675
 7547TIP3    H122605   2.939   6.244   4.800 -1.9400  1.7573  2.2018
 7547TIP3    H222606   3.038   6.188   4.900  1.7929 -1.1421 -2.6392
 7548TIP3   OH222607   1.920   4.635   0.077  0.0574 -0.1460 -0.0545
 7548TIP3    H122608   1.995   4.688   0.050 -0.6048  0.5977 -0.4627
 7548TIP3    H222609   1.905   4.576   0.003  1.1998 -1.3826  0.6623
 7549TIP3   OH222610   0.821   5.636   3.303 -0.0297 -0.4213  0.1780
 7549TIP3    H122611   0.854   5.550   3.332 -1.7959 -0.6228  1.7715
 7549TIP3    H222612   0.896   5.695   3.315  1.2992 -1.7343 -1.1677
 7550TIP3   OH222613   6.169   2.227   4.906  0.0052 -0.2140  0.2252
 7550TIP3    H122614   6.121   2.297   4.949  0.0902  0.2137 -0.3730
 7550TIP3    H222615   6.105   2.187   4.847  0.5368  0.8041 -1.0984
 7551TIP3   OH222616   3.148   5.982   3.446  0.0506 -0.9488 -0.5640
 7551TIP3    H122617   3.161   6.076   3.434 -0.1786 -1.0731 -1.9440
 7551TIP3    H222618   3.224   5.941   3.403 -0.0754 -1.4046 -0.3623
 7552TIP3   OH222619   2.961   5.490   0.052 -0.0618  0.1861  0.6098
 7552TIP3    H122620   2.930   5.563   0.106 -1.3972 -0.5303  0.8736
 7552TIP3    H222621   2.894   5.482  -0.016  0.7647  0.0373 -0.2006
 7553TIP3   OH222622   0.484   4.523   2.201  0.5542  0.0698  0.4782
 7553TIP3    H122623   0.468   4.601   2.254  0.5600  0.2343  0.2393
 7553TIP3    H222624   0.578   4.529   2.180  0.9636 -0.8785  1.8635
 7554TIP3   OH222625   5.060   3.667   4.272  0.6994  0.0493  0.0928
 7554TIP3    H122626   5.143   3.620   4.276  0.7355  0.2021  2.3407
 7554TIP3    H222627   4.994   3.601   4.291  0.5425  0.4177  0.8675
 7555TIP3   OH222628   0.625   2.601   1.586 -0.0301 -0.1350 -0.0705
 7555TIP3    H122629   0.637   2.518   1.631  0.0177  0.1633  0.4778
 7555TIP3    H222630   0.537   2.596   1.550 -1.5813  1.0122  3.1448
 7556TIP3   OH222631   5.886   4.172   5.324  0.4338 -0.1330  0.1216
 7556TIP3    H122632   5.980   4.181   5.311 -0.0108  0.5350 -3.4475
 7556TIP3    H222633   5.864   4.086   5.287 -0.6014  0.5627 -0.9410
 7557TIP3   OH222634   2.013   1.378   4.090 -0.1142 -0.6313  0.1979
 7557TIP3    H122635   2.074   1.387   4.163  0.3722  0.7465 -0.3361
 7557TIP3    H222636   2.069   1.362   4.014 -0.6581 -2.9101  0.2064
 7558TIP3   OH222637   2.839   0.884   3.565  0.3791  0.1911  0.2632
 7558TIP3    H122638   2.775   0.912   3.630 -0.3671 -0.6076 -0.1061
 7558TIP3    H222639   2.911   0.947   3.573 -0.2364  0.8169  1.0139
 7559TIP3   OH222640   1.971   6.001   0.822 -0.5850 -0.5306  0.7781
 7559TIP3    H122641   1.941   5.910   0.811  0.0805 -0.7886  1.0213
 7559TIP3    H222642   2.025   5.998   0.901  0.3526 -0.1560  0.1694
 7560TIP3   OH222643   1.772   2.120   0.327  0.2618 -0.3984 -0.5378
 7560TIP3    H122644   1.850   2.068   0.343  0.7319  0.7387  1.1438
 7560TIP3    H222645   1.803   2.194   0.275 -0.2241 -1.2623 -2.1069
 7561TIP3   OH222646   2.443   1.830   1.543 -0.2984  0.2852 -0.0911
 7561TIP3    H122647   2.520   1.875   1.509  0.8249  1.3044  3.3724
 7561TIP3    H222648   2.384   1.900   1.571 -0.9862 -0.4526  0.3701
 7562TIP3   OH222649   4.943   3.248   0.723 -0.1719  0.3468  0.0345
 7562TIP3    H122650   4.941   3.325   0.666 -0.1081  0.7074  0.5193
 7562TIP3    H222651   4.957   3.283   0.811  0.1748 -0.2412  0.2190
 7563TIP3   OH222652   4.811   5.362   3.431 -0.4937 -0.5845 -0.1298
 7563TIP3    H122653   4.720   5.368   3.402 -0.5169  1.5535  0.2203
 7563TIP3    H222654   4.840   5.453   3.439  1.8519 -1.2035 -0.7267
 7564TIP3   OH222655   0.641   2.801   2.155 -0.5492 -0.0420  0.4339
 7564TIP3    H122656   0.638   2.889   2.192 -1.2691 -0.5917  1.7375
 7564TIP3    H222657   0.724   2.765   2.184 -0.8205 -0.2372  0.9797
 7565TIP3   OH222658   3.150   0.089   4.742 -0.0687 -0.1199  0.6577
 7565TIP3    H122659   3.066   0.057   4.774 -0.1607 -0.2741  0.2688
 7565TIP3    H222660   3.215   0.031   4.780 -0.1266  0.0813  1.0672
 7566TIP3   OH222661   2.998   2.835   0.900  0.0090  0.5626 -0.3657
 7566TIP3    H122662   3.005   2.929   0.917  2.3146  0.1473  1.4936
 7566TIP3    H222663   3.087   2.802   0.911 -0.6953 -1.8376 -1.2397
 7567TIP3   OH222664   6.075   0.464   4.876 -0.1138 -0.1816 -0.3339
 7567TIP3    H122665   6.054   0.491   4.787  0.5705  0.7530 -0.2345
 7567TIP3    H222666   6.169   0.447   4.874 -0.5119 -2.7205 -0.4001
 7568TIP3   OH222667   0.923   0.954   0.619  0.8512 -0.0035 -0.0840
 7568TIP3    H122668   0.887   0.986   0.536 -1.3236  0.0954  0.8109
 7568TIP3    H222669   1.013   0.931   0.600  1.4420  3.1171 -1.6802
 7569TIP3   OH222670   1.547   5.628   1.798 -0.7543 -0.2904  0.6512
 7569TIP3    H122671   1.616   5.643   1.733 -1.6245 -1.5581 -0.6264
 7569TIP3    H222672   1.472   5.678   1.765 -0.7563  0.2926  1.5134
 7570TIP3   OH222673   1.007   4.048   0.480  0.0061 -0.0393  1.1202
 7570TIP3    H122674   1.010   3.979   0.413 -0.3390  0.0908  0.9642
 7570TIP3    H222675   1.010   4.130   0.429  1.0790  0.0641  1.3403
 7571TIP3   OH222676   1.543   4.639   2.555  0.4033  0.2429  0.2776
 7571TIP3    H122677   1.599   4.686   2.494  0.4784  1.0469  0.9559
 7571TIP3    H222678   1.454   4.659   2.526  0.4270 -0.9773 -0.7553
 7572TIP3   OH222679   6.867   2.869   2.104  0.6255 -0.0135  0.5833
 7572TIP3    H122680   6.779   2.905   2.090  0.6242  0.8528  2.5362
 7572TIP3    H222681   6.908   2.928   2.167  2.8791 -0.0334 -0.7382
 7573TIP3   OH222682   1.563   1.931   0.394  0.5067  0.2988  0.3014
 7573TIP3    H122683   1.486   1.988   0.382  0.1702 -0.4037 -1.0855
 7573TIP3    H222684   1.631   1.972   0.341  0.1967 -0.6744 -0.8892
 7574TIP3   OH222685   4.822   2.917   2.731 -0.5598 -0.1302 -0.1307
 7574TIP3    H122686   4.857   2.848   2.787  0.5413 -0.8243 -1.5958
 7574TIP3    H222687   4.875   2.994   2.752  0.9394 -0.7887 -1.2565
 7575TIP3   OH222688   4.235   0.470   5.647 -0.6966  0.0977 -0.2139
 7575TIP3    H122689   4.270   0.397   5.698 -0.5269 -0.1181 -0.6375
 7575TIP3    H222690   4.295   0.542   5.664  0.4890 -0.5057 -1.6251
 7576TIP3   OH222691   3.874   2.884   3.382  0.2240  0.1532 -0.6693
 7576TIP3    H122692   3.959   2.918   3.354  0.4919 -0.2416 -0.3515
 7576TIP3    H222693   3.824   2.961   3.409  0.8205  0.3011  0.0438
 7577TIP3   OH222694   3.317   3.423   4.909  0.2642 -0.1593 -0.0640
 7577TIP3    H122695   3.334   3.401   5.001 -1.2079  0.6344  0.4372
 7577TIP3    H222696   3.295   3.517   4.910  1.1939  0.1007 -1.3759
 7578TIP3   OH222697   4.062   4.305   5.499 -0.0236  0.2480  0.3946
 7578TIP3    H122698   3.996   4.365   5.534  0.8048  0.0001  2.5518
 7578TIP3    H222699   4.106   4.355   5.429  0.2835  1.9845  1.7610
 7579TIP3   OH222700   0.747   0.569   5.520  0.1783 -0.7427  0.5102
 7579TIP3    H122701   0.730   0.475   5.513  2.6847 -1.2239  0.0633
 7579TIP3    H222702   0.799   0.590   5.443 -1.0797  1.2517  0.1229
 7580TIP3   OH222703   3.261   2.907   3.790  0.1762 -0.4059  0.4704
 7580TIP3    H122704   3.293   2.844   3.855  1.2054  1.4027  1.7934
 7580TIP3    H222705   3.340   2.941   3.748 -0.3931 -0.3328 -0.5834
 7581TIP3   OH222706   6.174   3.504   4.124  0.1621  0.3513 -0.2662
 7581TIP3    H122707   6.258   3.500   4.170  0.2287  3.3465  0.1301
 7581TIP3    H222708   6.197   3.500   4.031  0.7726  0.9973 -0.1557
 7582TIP3   OH222709   0.332   0.038   5.083 -0.2205 -0.4659  0.0217
 7582TIP3    H122710   0.255   0.010   5.034 -0.8667 -1.6808  1.6852
 7582TIP3    H222711   0.384  -0.042   5.095  0.0934 -0.1286  1.0132
 7583TIP3   OH222712   6.398   0.111   5.552 -0.6838  0.6339  0.1912
 7583TIP3    H122713   6.426   0.044   5.615  0.4822  0.6317 -0.2973
 7583TIP3    H222714   6.424   0.194   5.593  1.3069  0.5677 -0.8287
 7584TIP3   OH222715   4.946   0.109   0.609  0.3297  0.3461 -0.0613
 7584TIP3    H122716   4.967   0.070   0.524 -1.4832 -1.0399  0.0730
 7584TIP3    H222717   4.874   0.170   0.590 -1.7606 -1.7159  0.7265
 7585TIP3   OH222718   2.163   0.097   4.887  0.5327 -0.2551  0.2775
 7585TIP3    H122719   2.123   0.024   4.840 -1.5714  1.6110 -1.1096
 7585TIP3    H222720   2.089   0.139   4.932  1.5549  1.2989  0.5842
 7586TIP3   OH222721   1.854   4.653   5.671  0.1037 -0.1146  0.2836
 7586TIP3    H122722   1.874   4.747   5.668 -0.6033  0.0564  0.4890
 7586TIP3    H222723   1.902   4.620   5.746  2.4792 -0.4801 -1.2943
 7587TIP3   OH222724   6.698   4.719   1.660 -0.3647 -0.6202 -0.6687
 7587TIP3    H122725   6.730   4.773   1.588 -0.1641 -1.3284 -1.1248
 7587TIP3    H222726   6.629   4.771   1.701  1.6336  1.1997  0.6410
 7588TIP3   OH222727   2.185   5.699   1.284 -0.4561 -0.1977 -0.2202
 7588TIP3    H122728   2.170   5.622   1.339  0.1402  0.2492  0.6019
 7588TIP3    H222729   2.213   5.664   1.200 -0.6485 -0.8861 -0.0030
 7589TIP3   OH222730   6.801   4.454   3.219 -0.3562 -0.3580  0.4006
 7589TIP3    H122731   6.811   4.425   3.310 -0.5267  0.0438  0.5472
 7589TIP3    H222732   6.737   4.394   3.182 -0.8142 -0.0862  0.7434
 7590TIP3   OH222733   2.541   6.592   4.158 -0.3040 -0.4416  0.7858
 7590TIP3    H122734   2.621   6.644   4.147  0.9022 -1.9923  1.8137
 7590TIP3    H222735   2.516   6.566   4.069  0.2320  0.1900  0.4417
 7591TIP3   OH222736   4.846   1.864   4.940  0.1555 -0.4045 -0.3688
 7591TIP3    H122737   4.783   1.852   4.870 -0.6013  0.1777  0.1962
 7591TIP3    H222738   4.805   1.822   5.016  1.0956 -1.2942 -0.3230
 7592TIP3   OH222739   2.198   3.930   2.537  0.1299 -0.5556 -0.1419
 7592TIP3    H122740   2.194   3.858   2.474 -2.4755  0.6277 -1.5222
 7592TIP3    H222741   2.161   4.005   2.489  1.8694  1.4868  1.5138
 7593TIP3   OH222742   0.202   4.625   4.217 -0.6304 -0.6950  0.2648
 7593TIP3    H122743   0.129   4.565   4.202  0.1690 -1.8043  0.6494
 7593TIP3    H222744   0.227   4.656   4.130 -0.8012 -1.2285  0.0234
 7594TIP3   OH222745   5.207   3.563   3.231 -0.2734  0.0873 -0.6905
 7594TIP3    H122746   5.191   3.472   3.209 -0.8102  0.1505 -0.5799
 7594TIP3    H222747   5.125   3.608   3.208  0.0538  0.5736 -0.9341
 7595TIP3   OH222748   4.230   3.374   1.699  0.1056  0.0045 -0.3225
 7595TIP3    H122749   4.206   3.285   1.725  0.9586 -0.5435 -1.3133
 7595TIP3    H222750   4.318   3.387   1.734 -0.8213  1.3042  1.6897
 7596TIP3   OH222751   1.229   3.483   0.813  0.1181  0.4189  0.1565
 7596TIP3    H122752   1.264   3.551   0.755  0.1222  0.3186  0.0397
 7596TIP3    H222753   1.138   3.510   0.829  0.4287  1.0155  0.9762
 7597TIP3   OH222754   7.092   0.012   1.359  0.2526  0.4211 -0.6540
 7597TIP3    H122755   7.150   0.068   1.411 -0.0898 -0.2510  0.5010
 7597TIP3    H222756   7.116  -0.077   1.384 -0.1325  0.0877 -1.4393
 7598TIP3   OH222757   4.187   3.563   4.000 -0.2005  0.1668  0.0557
 7598TIP3    H122758   4.274   3.555   4.040  0.9063  1.4510 -1.9007
 7598TIP3    H222759   4.126   3.546   4.072  1.6526  0.9117  1.9284
 7599TIP3   OH222760   0.719   6.582   1.433 -0.1061  0.3434  0.2269
 7599TIP3    H122761   0.791   6.545   1.382  0.2316  0.5709  0.5283
 7599TIP3    H222762   0.715   6.674   1.406 -0.2195  0.3557  0.2832
 7600TIP3   OH222763   0.416   2.514   1.437 -0.1844  0.1545  0.1344
 7600TIP3    H122764   0.393   2.572   1.364  1.2766  0.6857  0.0786
 7600TIP3    H222765   0.338   2.459   1.449 -1.3719  1.6935 -0.2176
 7601TIP3   OH222766   5.353   4.401   2.915 -0.2853 -0.1032 -0.1407
 7601TIP3    H122767   5.308   4.404   2.830  1.4025 -1.3200 -1.1521
 7601TIP3    H222768   5.314   4.326   2.960 -0.1967 -0.3577 -0.4776
 7602TIP3   OH222769   2.945   0.846   2.756 -0.2993 -0.0215 -0.4967
 7602TIP3    H122770   3.009   0.787   2.795  0.0905  0.9143  0.3330
 7602TIP3    H222771   2.866   0.834   2.810 -0.3519 -0.0786 -0.5856
 7603TIP3   OH222772   5.233   2.506   4.841 -0.0285 -0.6855  0.2555
 7603TIP3    H122773   5.217   2.521   4.934  0.6368  0.6680  0.1897
 7603TIP3    H222774   5.151   2.473   4.807 -0.9425  0.7635  0.9526
 7604TIP3   OH222775   6.369   5.747   2.782 -0.0088 -0.1225 -0.0666
 7604TIP3    H122776   6.443   5.688   2.764 -0.0256  0.1938 -1.2663
 7604TIP3    H222777   6.295   5.688   2.795  0.6769 -0.5181  2.5570
 7605TIP3   OH222778   6.450   5.408   4.581  0.0309 -0.0750  0.0476
 7605TIP3    H122779   6.428   5.500   4.596  1.3585  0.0178  1.8602
 7605TIP3    H222780   6.372   5.360   4.611 -0.1344  0.4189  0.4337
 7606TIP3   OH222781   2.358   3.652   4.434  0.1993 -0.5407  0.0799
 7606TIP3    H122782   2.314   3.574   4.400 -0.2720 -0.2537  0.0221
 7606TIP3    H222783   2.294   3.722   4.424  0.3671 -0.2780  0.7560
 7607TIP3   OH222784   3.851   2.578   2.856 -0.0317  0.3526 -0.2042
 7607TIP3    H122785   3.767   2.607   2.820  0.6484  0.2711 -1.9117
 7607TIP3    H222786   3.917   2.611   2.796  1.0795 -0.7694  0.3383
 7608TIP3   OH222787   6.188   3.883   4.219  0.2166 -0.5909  0.2610
 7608TIP3    H122788   6.190   3.792   4.250  3.4469 -0.2487  1.4354
 7608TIP3    H222789   6.195   3.876   4.124 -1.5429 -1.5522  0.1666
 7609TIP3   OH222790   1.709   0.256   4.835  0.5523 -0.2241  0.2689
 7609TIP3    H122791   1.743   0.177   4.792  1.5441 -2.3122  4.3762
 7609TIP3    H222792   1.616   0.257   4.812  1.1632 -0.5775 -2.5687
 7610TIP3   OH222793   5.339   0.953   2.466 -0.0864  0.4248  0.9094
 7610TIP3    H122794   5.430   0.977   2.485  0.6184  1.2415 -2.7755
 7610TIP3    H222795   5.289   1.033   2.483  0.5629  1.2494 -0.9028
 7611TIP3   OH222796   1.618   6.342   2.538 -0.4669  0.2363  0.5744
 7611TIP3    H122797   1.698   6.349   2.591  0.3167 -0.6490 -0.4421
 7611TIP3    H222798   1.608   6.248   2.523 -0.5045  0.4762 -1.0692
 7612TIP3   OH222799   6.814   5.757   5.365  0.1418 -0.0081  0.6240
 7612TIP3    H122800   6.726   5.796   5.365  0.2618  0.2871 -0.4061
 7612TIP3    H222801   6.803   5.673   5.321  0.2607 -0.2602  1.0692
 7613TIP3   OH222802   1.299   3.343   1.257  0.0576 -0.3986 -0.0565
 7613TIP3    H122803   1.316   3.422   1.204 -0.8336 -0.5659 -0.6129
 7613TIP3    H222804   1.244   3.288   1.201 -1.6862 -0.1989  1.3739
 7614TIP3   OH222805   0.667   3.051   0.576  0.1043 -0.1681  0.0532
 7614TIP3    H122806   0.663   2.986   0.506  0.6768 -0.7737  0.5797
 7614TIP3    H222807   0.715   3.008   0.647 -1.6945 -0.1013  1.3865
 7615TIP3   OH222808   6.506   5.374   1.356 -0.4542 -0.1702  0.4391
 7615TIP3    H122809   6.541   5.313   1.291 -0.2101  1.1943 -0.7531
 7615TIP3    H222810   6.553   5.456   1.340 -2.5111  1.0580  0.3501
 7616TIP3   OH222811   3.397   1.600   1.217 -0.3189  0.3645  0.0967
 7616TIP3    H122812   3.342   1.580   1.141  0.3300 -0.7061 -0.1282
 7616TIP3    H222813   3.347   1.569   1.292 -0.9721  1.4446  0.1249
 7617TIP3   OH222814   3.037   1.257   2.879 -0.0927 -0.1481  0.1183
 7617TIP3    H122815   3.004   1.285   2.793 -1.5661 -1.9025  0.0470
 7617TIP3    H222816   2.958   1.232   2.927  0.9512 -2.1307  0.8732
 7618TIP3   OH222817   1.966   0.238   2.079  0.1123 -0.2113 -0.1541
 7618TIP3    H122818   1.928   0.308   2.132  0.7324  0.0538 -0.0439
 7618TIP3    H222819   2.058   0.265   2.067 -0.1839  0.1549 -2.0167
 7619TIP3   OH222820   4.103   3.699   1.306  0.7310 -0.1726 -0.4533
 7619TIP3    H122821   4.136   3.634   1.368  0.2829 -0.3427 -0.3891
 7619TIP3    H222822   4.142   3.673   1.222  1.1037 -0.1143 -0.2995
 7620TIP3   OH222823   4.778   3.476   3.237 -0.4376 -0.1929 -0.3654
 7620TIP3    H122824   4.777   3.417   3.162 -1.5662  0.5115 -0.9312
 7620TIP3    H222825   4.836   3.433   3.300  1.0770 -0.4751 -1.8643
 7621TIP3   OH222826   4.491   6.488   0.506  0.6093  0.0935  0.3299
 7621TIP3    H122827   4.462   6.409   0.552  0.3865 -0.0370 -0.0265
 7621TIP3    H222828   4.505   6.552   0.575  1.9902 -0.6128  0.7531
 7622TIP3   OH222829   1.064   4.278   0.303 -0.0160  0.0319  0.0735
 7622TIP3    H122830   1.045   4.253   0.213 -0.8130  2.6916 -0.5772
 7622TIP3    H222831   1.151   4.318   0.300  0.6443 -1.2746  0.8188
 7623TIP3   OH222832   0.820   5.412   0.867  0.6480  0.5644 -0.2608
 7623TIP3    H122833   0.740   5.435   0.914  0.4113  0.7081 -0.7241
 7623TIP3    H222834   0.790   5.354   0.797  1.2362 -1.3510  0.9804
 7624TIP3   OH222835   0.014   4.050   0.535  0.1050  0.0771 -0.2068
 7624TIP3    H122836   0.089   4.109   0.547 -0.4421  0.5283  1.1172
 7624TIP3    H222837  -0.039   4.062   0.613 -0.4755 -1.5364 -0.3182
 7625TIP3   OH222838   2.291   2.664   1.564 -0.5590  0.4717  0.0763
 7625TIP3    H122839   2.321   2.740   1.514 -1.4317 -0.5042 -2.0443
 7625TIP3    H222840   2.368   2.608   1.571 -0.3373  0.7854  0.1555
 7626TIP3   OH222841   0.993   2.723   2.676  0.1697  0.1972  0.5110
 7626TIP3    H122842   1.015   2.632   2.656  1.1793  0.6499 -0.5392
 7626TIP3    H222843   1.075   2.771   2.669 -0.4167  1.2691  0.6341
 7627TIP3   OH222844   6.520   6.164   5.407  0.2292  0.2226 -0.2464
 7627TIP3    H122845   6.506   6.239   5.349 -1.6874 -0.2449 -0.4579
 7627TIP3    H222846   6.434   6.146   5.443  1.2275 -0.0203  2.1528
 7628TIP3   OH222847   4.763   4.596   3.570 -0.1351 -0.1235  0.0552
 7628TIP3    H122848   4.773   4.506   3.540 -0.5654 -0.7655  1.6910
 7628TIP3    H222849   4.820   4.602   3.647 -0.2232  0.9655  0.0553
 7629TIP3   OH222850   2.379   1.322   4.085  0.5964  0.1384  0.5652
 7629TIP3    H122851   2.325   1.349   4.159 -0.3419 -0.6673  0.1990
 7629TIP3    H222852   2.318   1.278   4.025  1.4364  0.2893 -0.4347
 7630TIP3   OH222853   1.355   6.484   2.285 -0.0709 -0.8758  0.5942
 7630TIP3    H122854   1.280   6.475   2.226 -0.7415 -0.2687  1.3392
 7630TIP3    H222855   1.428   6.446   2.236  0.0003  1.9574 -1.7668
 7631TIP3   OH222856   4.401   6.744   1.003  0.5573  0.1649  0.6374
 7631TIP3    H122857   4.320   6.795   1.013  0.3296 -0.3616  1.5622
 7631TIP3    H222858   4.441   6.745   1.089  0.6115 -1.1019  0.6473
 7632TIP3   OH222859   6.566   3.830   0.995 -0.2832  0.1777  0.3170
 7632TIP3    H122860   6.479   3.868   0.985  0.7183  2.1573 -1.6724
 7632TIP3    H222861   6.579   3.777   0.917 -0.0572 -0.9922  1.1090
 7633TIP3   OH222862   6.898   1.143   3.377  0.2501 -0.0628  0.1136
 7633TIP3    H122863   6.954   1.068   3.394  0.3476 -0.1063 -0.3654
 7633TIP3    H222864   6.886   1.186   3.462  2.2221  0.7993 -0.0047
 7634TIP3   OH222865   1.005   0.005   2.924 -0.0491 -0.3216  0.6878
 7634TIP3    H122866   0.961  -0.001   3.008 -2.2623  1.3342 -0.2608
 7634TIP3    H222867   1.074   0.070   2.937 -0.6282  0.2085  1.1073
 7635TIP3   OH222868   6.635   1.380   1.133 -0.3036 -0.2441 -0.4089
 7635TIP3    H122869   6.722   1.340   1.128 -1.2403 -2.6041  0.6491
 7635TIP3    H222870   6.648   1.470   1.104  2.4453 -0.5823 -0.4478
 7636TIP3   OH222871   2.343   2.147   0.864  0.2945 -0.2271  0.4715
 7636TIP3    H122872   2.251   2.163   0.888  0.0651 -0.6669 -0.0779
 7636TIP3    H222873   2.391   2.217   0.908 -0.2656 -0.1775  1.0291
 7637TIP3   OH222874   5.177   3.976   3.349  0.1758 -0.2259  0.4159
 7637TIP3    H122875   5.244   3.972   3.417 -0.1291  0.2347  0.7476
 7637TIP3    H222876   5.096   3.950   3.394 -0.0745  0.3339  0.2942
 7638TIP3   OH222877   2.034   0.119   0.019  1.1794 -0.4509 -0.8176
 7638TIP3    H122878   2.045   0.066   0.098  1.6560 -0.6732 -1.0273
 7638TIP3    H222879   2.011   0.206   0.052  2.0870 -0.3576 -0.3940
 7639TIP3   OH222880   3.937   5.769   4.193  0.3565 -0.0206 -0.1979
 7639TIP3    H122881   3.874   5.841   4.188  0.8142  0.3631 -0.5272
 7639TIP3    H222882   4.018   5.806   4.159  1.1265 -0.1175  1.4706
 7640TIP3   OH222883   2.580   3.425   5.795  0.0231  1.0274  0.1319
 7640TIP3    H122884   2.661   3.411   5.844  0.7249 -1.1824 -1.4750
 7640TIP3    H222885   2.549   3.337   5.774 -2.2342  1.8402 -0.2411
 7641TIP3   OH222886   1.361   6.372   1.813 -0.0570 -0.7647 -0.0503
 7641TIP3    H122887   1.371   6.389   1.719 -0.9026  1.4603  0.2125
 7641TIP3    H222888   1.435   6.418   1.854 -0.0078 -1.2575  0.4269
 7642TIP3   OH222889   0.915   3.066   1.112  0.0418 -0.4062  0.1041
 7642TIP3    H122890   0.877   2.989   1.155  0.4785 -0.8362 -0.2666
 7642TIP3    H222891   0.881   3.062   1.022  0.7925 -0.6831 -0.1757
 7643TIP3   OH222892   2.741   2.434   1.600 -0.3134  0.0685 -0.7802
 7643TIP3    H122893   2.779   2.451   1.687 -1.2313 -1.3587 -0.0568
 7643TIP3    H222894   2.816   2.423   1.543  0.4401 -2.4125  0.5548
 7644TIP3   OH222895   5.309   3.995   2.402  0.6203 -0.3370  0.1399
 7644TIP3    H122896   5.319   3.998   2.306 -2.5279  0.7812 -0.2715
 7644TIP3    H222897   5.230   3.944   2.416 -1.7459  3.3152  1.7095
 7645TIP3   OH222898   5.050   2.101   0.770 -0.5693 -1.2333  0.3809
 7645TIP3    H122899   5.101   2.167   0.817 -2.1146 -0.3521  0.8916
 7645TIP3    H222900   5.101   2.021   0.780 -0.0493 -0.7306  2.2064
 7646TIP3   OH222901   6.076   5.916   0.796 -0.3255  0.4607 -0.0663
 7646TIP3    H122902   6.120   5.845   0.749  0.0278  0.2643  0.5413
 7646TIP3    H222903   5.994   5.928   0.750  1.0456  2.0036 -2.2852
 7647TIP3   OH222904   0.968   4.432   3.929 -0.4324 -0.0372 -0.5673
 7647TIP3    H122905   0.958   4.375   3.854  1.5971 -0.7865 -0.3269
 7647TIP3    H222906   0.953   4.375   4.005  0.2081  0.0669 -0.3580
 7648TIP3   OH222907   6.441   5.218   1.917  0.1145 -0.1299 -0.0018
 7648TIP3    H122908   6.374   5.226   1.849 -1.5473  0.7333  1.6094
 7648TIP3    H222909   6.485   5.303   1.917 -0.1913  0.0339  0.2589
 7649TIP3   OH222910   3.991   6.007   0.653  0.7231  0.4659 -0.5195
 7649TIP3    H122911   4.024   5.956   0.727 -0.6128 -0.4807 -0.5351
 7649TIP3    H222912   4.021   6.096   0.669  1.2788  0.0791  0.6511
 7650TIP3   OH222913   0.737   2.888   1.904  0.2067 -0.5571  0.4146
 7650TIP3    H122914   0.663   2.874   1.845 -1.5222  2.0639  1.7924
 7650TIP3    H222915   0.711   2.845   1.985  0.1810  0.3487  0.8957
 7651TIP3   OH222916   6.126   5.908   3.014 -0.0433  0.3488  0.1802
 7651TIP3    H122917   6.073   5.861   3.078 -1.3659  1.6429  0.0865
 7651TIP3    H222918   6.209   5.861   3.013 -0.8173 -1.1107  1.1013
 7652TIP3   OH222919   7.064   2.470   3.661  0.2439 -0.3275 -0.5971
 7652TIP3    H122920   7.085   2.390   3.614  0.7451  0.0424 -1.0143
 7652TIP3    H222921   7.096   2.541   3.605 -0.7374  0.1984 -0.5228
 7653TIP3   OH222922   5.364   0.941   4.713 -0.5032 -0.1753 -0.6296
 7653TIP3    H122923   5.274   0.910   4.700 -0.7712  0.0006  0.6513
 7653TIP3    H222924   5.405   0.872   4.765 -0.0881  0.0501 -0.6563
 7654TIP3   OH222925   6.106   3.912   3.946 -0.5699  0.1345  0.0488
 7654TIP3    H122926   6.033   3.883   4.000  0.3719 -1.1349  0.6978
 7654TIP3    H222927   6.130   3.835   3.895  2.3581 -0.5804  2.2274
 7655TIP3   OH222928   2.555   4.754   1.706  0.0790  0.4900  0.5013
 7655TIP3    H122929   2.564   4.830   1.763  1.9557  2.3211 -2.0210
 7655TIP3    H222930   2.644   4.737   1.675 -0.0917 -3.3184  1.5135
 7656TIP3   OH222931   2.230   2.186   3.429  0.4258  0.2342 -0.2935
 7656TIP3    H122932   2.280   2.223   3.356 -1.1234  1.1362 -0.9534
 7656TIP3    H222933   2.259   2.235   3.505  0.3154  0.9893 -0.7270
 7657TIP3   OH222934   2.507   4.801   5.669 -0.2995 -0.4991 -0.0731
 7657TIP3    H122935   2.418   4.805   5.704 -0.4059 -1.7478 -0.1613
 7657TIP3    H222936   2.560   4.851   5.732 -0.8816 -0.6730  0.5655
 7658TIP3   OH222937   1.369   3.565   4.798 -0.3100  0.3323  0.6079
 7658TIP3    H122938   1.363   3.541   4.706  0.6525 -0.0098  0.6248
 7658TIP3    H222939   1.433   3.504   4.835  0.1369  1.1717  1.2578
 7659TIP3   OH222940   7.023   5.595   4.154 -0.4164  0.4298 -0.1632
 7659TIP3    H122941   7.005   5.677   4.199 -0.3923  0.0290  0.5917
 7659TIP3    H222942   7.090   5.617   4.090  0.1243  0.8438  0.5354
 7660TIP3   OH222943   2.501   6.716   2.983  0.3437 -0.0175 -0.5028
 7660TIP3    H122944   2.563   6.675   2.923  0.2456  0.7396 -1.1383
 7660TIP3    H222945   2.462   6.643   3.032  2.0778 -0.4836  0.2632
 7661TIP3   OH222946   2.795   3.192   0.347 -0.6466 -0.2906  0.5891
 7661TIP3    H122947   2.715   3.208   0.298 -0.6048 -0.2549  0.5325
 7661TIP3    H222948   2.767   3.142   0.424 -0.6319 -0.8316  0.2424
 7662TIP3   OH222949   3.995   3.111   5.027  0.6249  0.2008  0.0977
 7662TIP3    H122950   4.043   3.071   5.100  2.1413  1.8732  0.0877
 7662TIP3    H222951   4.055   3.104   4.952 -0.5771 -0.7494 -0.8084
 7663TIP3   OH222952   0.791   2.501   1.851 -0.0698 -0.0448 -0.1788
 7663TIP3    H122953   0.704   2.508   1.890 -0.5558 -2.0154 -0.8282
 7663TIP3    H222954   0.790   2.418   1.804  2.3670 -0.4135  0.2801
 7664TIP3   OH222955   6.289   4.242   4.884  0.1548 -0.1925  0.1321
 7664TIP3    H122956   6.369   4.247   4.936  0.6775 -0.9266 -0.5831
 7664TIP3    H222957   6.288   4.324   4.834  2.1743 -1.4893 -2.2506
 7665TIP3   OH222958   5.240   4.725   5.676  0.4185  0.6916 -0.3010
 7665TIP3    H122959   5.319   4.681   5.646  1.1229  1.5118  0.3082
 7665TIP3    H222960   5.231   4.801   5.619  0.1411  0.6713 -0.2868
 7666TIP3   OH222961   0.909   2.746   2.148  0.0610  0.6997 -0.1219
 7666TIP3    H122962   0.959   2.722   2.070 -1.5514  0.2982 -1.0833
 7666TIP3    H222963   0.939   2.834   2.170  0.4433  0.8664 -1.2725
 7667TIP3   OH222964   4.965   2.683   4.907 -0.0434  0.1615 -0.0022
 7667TIP3    H122965   4.876   2.652   4.924 -1.1794  2.4418 -1.3204
 7667TIP3    H222966   4.972   2.765   4.956 -0.0896  1.9739 -2.8286
 7668TIP3   OH222967   3.976   2.737   5.595  0.1405  0.2160 -0.1708
 7668TIP3    H122968   3.983   2.828   5.567 -1.1683  0.2070 -0.5915
 7668TIP3    H222969   4.065   2.702   5.588  0.9193  1.7928  1.2436
 7669TIP3   OH222970   0.151   0.112   3.789  0.3061 -0.3586 -0.0817
 7669TIP3    H122971   0.208   0.059   3.844  2.2300  0.6526 -1.0049
 7669TIP3    H222972   0.196   0.117   3.705 -0.8769  0.9296 -0.6841
 7670TIP3   OH222973   0.323   0.395   4.643 -0.2535 -0.1073 -0.1506
 7670TIP3    H122974   0.233   0.379   4.613 -0.2348  0.4410 -0.5280
 7670TIP3    H222975   0.313   0.434   4.729 -0.3723 -0.1601 -0.1400
 7671TIP3   OH222976   6.225   4.469   5.810  0.5032  0.3559  0.2079
 7671TIP3    H122977   6.241   4.391   5.863 -1.7455 -1.0768 -1.0529
 7671TIP3    H222978   6.135   4.494   5.831  0.2265  0.9038 -1.4498
 7672TIP3   OH222979   6.447   3.056   3.215 -0.0097 -0.7033  0.0535
 7672TIP3    H122980   6.524   3.077   3.162 -0.9716 -1.0914 -1.5478
 7672TIP3    H222981   6.374   3.099   3.170 -0.8232 -0.7674  1.2650
 7673TIP3   OH222982   2.575   6.045   4.869 -0.1887 -0.0361  0.7922
 7673TIP3    H122983   2.632   5.994   4.926 -1.6916 -1.7478  0.8672
 7673TIP3    H222984   2.606   6.025   4.780 -0.9136 -1.3499  0.8059
 7674TIP3   OH222985   6.036   3.609   2.336  0.0180 -0.4740  0.5284
 7674TIP3    H122986   6.124   3.644   2.327  0.3398 -1.0452  1.3639
 7674TIP3    H222987   5.986   3.679   2.378  0.4459 -0.6747  1.3957
 7675TIP3   OH222988   5.679   4.575   5.187  0.5527  0.6151 -0.2579
 7675TIP3    H122989   5.707   4.606   5.101 -0.1428  0.5687 -0.5052
 7675TIP3    H222990   5.696   4.480   5.184 -1.4390  0.2375 -1.1527
 7676TIP3   OH222991   6.436   2.816   5.046 -0.2808 -0.5121 -0.4570
 7676TIP3    H122992   6.355   2.766   5.031  0.5638 -1.3431 -2.7225
 7676TIP3    H222993   6.453   2.806   5.139 -2.1590 -1.2975 -0.1454
 7677TIP3   OH222994   0.840   6.802   2.284 -0.2049 -0.4403  0.1286
 7677TIP3    H122995   0.846   6.888   2.241 -2.3866 -0.3603 -0.1005
 7677TIP3    H222996   0.888   6.743   2.226 -0.3031  0.2829 -0.7118
 7678TIP3   OH222997   2.884   2.830   1.454 -0.3492 -0.3012 -0.1718
 7678TIP3    H122998   2.975   2.841   1.480 -0.3790  0.5285 -0.4017
 7678TIP3    H222999   2.881   2.742   1.415  0.0682 -0.8506  0.9866
 7679TIP3   OH223000   4.945   1.315   1.678  0.1393 -0.1705  0.3273
 7679TIP3    H123001   5.027   1.361   1.693  0.2525 -0.5939  1.0410
 7679TIP3    H223002   4.958   1.268   1.596  0.1213  0.8365 -0.2591
 7680TIP3   OH223003   0.320   6.809   2.907 -0.3208 -0.2303 -0.2474
 7680TIP3    H123004   0.305   6.764   2.991  1.4804 -0.3609  0.0454
 7680TIP3    H223005   0.415   6.823   2.904 -0.5098  0.9775 -1.6678
 7681TIP3   OH223006   5.267   4.280   1.812 -0.3310 -0.0146 -0.0747
 7681TIP3    H123007   5.227   4.330   1.884 -0.3674 -0.8885  0.5224
 7681TIP3    H223008   5.228   4.193   1.819  1.0645 -0.6529  0.0080
 7682TIP3   OH223009   1.904   1.633   1.952 -0.2692 -0.3799 -0.5118
 7682TIP3    H123010   1.895   1.658   2.044 -2.4627  0.9782 -1.0199
 7682TIP3    H223011   1.887   1.539   1.951  2.6448 -1.0549  0.7497
 7683TIP3   OH223012   5.816   6.725   4.311 -0.3621 -0.3288  0.1586
 7683TIP3    H123013   5.862   6.641   4.310 -1.1801 -0.8698  2.3263
 7683TIP3    H223014   5.723   6.701   4.311 -0.6066  0.6018  0.2234
 7684TIP3   OH223015   4.553   2.181   3.361  0.0028 -0.4945 -0.6363
 7684TIP3    H123016   4.605   2.230   3.425  0.6742 -0.8181 -0.9165
 7684TIP3    H223017   4.467   2.223   3.361 -0.1561 -0.7996  0.8292
 7685TIP3   OH223018   0.220   1.483   3.640 -0.5855 -0.1837  0.0216
 7685TIP3    H123019   0.245   1.567   3.680  0.4049 -0.2316 -0.4705
 7685TIP3    H223020   0.302   1.435   3.633 -0.3961  0.3968 -3.4333
 7686TIP3   OH223021   7.189   3.616   1.706  0.5340  0.1985 -0.9629
 7686TIP3    H123022   7.183   3.524   1.682 -1.8393  0.2059 -0.6405
 7686TIP3    H223023   7.280   3.628   1.733  0.7505 -2.2009 -0.3873
 7687TIP3   OH223024   5.978   5.369   1.514 -0.2208  0.6592  0.5824
 7687TIP3    H123025   5.963   5.276   1.532 -0.3026  0.2129 -1.5370
 7687TIP3    H223026   5.966   5.412   1.599 -1.7134 -1.0730  1.3170
 7688TIP3   OH223027   1.731   2.789   0.144 -0.4845 -0.0234 -0.2621
 7688TIP3    H123028   1.816   2.758   0.114 -0.7929 -0.9633 -0.2091
 7688TIP3    H223029   1.748   2.876   0.180  0.8630 -1.0190  1.6787
 7689TIP3   OH223030   1.835   4.170   1.701 -0.2778  0.0120  0.4084
 7689TIP3    H123031   1.923   4.144   1.728  0.4530  1.8046 -0.1076
 7689TIP3    H223032   1.844   4.261   1.672 -2.7629  1.0521  2.4979
 7690TIP3   OH223033   0.665   6.049   5.299 -0.5218  0.0940 -0.0732
 7690TIP3    H123034   0.698   6.107   5.230 -1.6449  2.6887  1.4121
 7690TIP3    H223035   0.742   6.029   5.352 -0.3353  1.6538  0.3046
 7691TIP3   OH223036   3.414   6.383   3.598 -0.0082  0.1007 -0.7965
 7691TIP3    H123037   3.443   6.342   3.517  0.2843  0.5740 -0.9354
 7691TIP3    H223038   3.379   6.311   3.650  1.6623 -0.5739 -0.5196
 7692TIP3   OH223039   5.012   1.359   3.173  0.6951  0.1551  0.2402
 7692TIP3    H123040   5.012   1.428   3.240  0.8316  0.5855 -0.1948
 7692TIP3    H223041   5.036   1.405   3.093  1.3317 -0.5118  0.0473
 7693TIP3   OH223042   0.930   6.262   0.430 -0.1987  0.3508 -0.3695
 7693TIP3    H123043   0.953   6.181   0.383 -2.2360  0.0524 -0.9463
 7693TIP3    H223044   0.861   6.236   0.491  1.7270  0.9269  2.2640
 7694TIP3   OH223045   2.798   5.793   2.911 -0.1110  0.0785  0.1394
 7694TIP3    H123046   2.823   5.880   2.880 -0.4009  0.2290  0.3176
 7694TIP3    H223047   2.750   5.754   2.838 -2.4894  1.1698  1.0288
 7695TIP3   OH223048   1.917   3.097   2.362 -0.5955  0.0163  0.1695
 7695TIP3    H123049   1.983   3.085   2.430 -2.5592  2.2399  2.6733
 7695TIP3    H223050   1.934   3.184   2.328 -0.1718 -0.7472 -1.7109
 7696TIP3   OH223051   5.904   1.310   3.518  0.3663  0.9064  0.2568
 7696TIP3    H123052   5.884   1.385   3.575 -1.4808  1.1393 -0.6092
 7696TIP3    H223053   5.887   1.233   3.573 -0.8509  1.1290  0.2208
 7697TIP3   OH223054   4.360   3.776   1.594 -0.3378 -0.0527  0.1225
 7697TIP3    H123055   4.380   3.683   1.582  1.4524  0.4039 -0.8313
 7697TIP3    H223056   4.295   3.796   1.526  0.1316 -0.3741 -0.4328
 7698TIP3   OH223057   5.061   6.706   4.490  0.0515 -0.3322 -0.6312
 7698TIP3    H123058   5.028   6.763   4.560  1.3956  0.9824 -1.0053
 7698TIP3    H223059   4.997   6.635   4.485 -0.0991 -0.4688  1.9008
 7699TIP3   OH223060   4.148   6.166   1.094  0.1953 -0.0864 -0.3022
 7699TIP3    H123061   4.066   6.201   1.129  0.6326  0.5005  0.1403
 7699TIP3    H223062   4.206   6.160   1.169  0.5679 -0.5007 -0.6164
 7700TIP3   OH223063   1.603   6.801   0.943 -0.3903  0.3958 -0.1799
 7700TIP3    H123064   1.550   6.868   0.900  1.8843  2.6372  0.2858
 7700TIP3    H223065   1.657   6.765   0.873  0.3901  1.0944  0.0552
 7701TIP3   OH223066   6.830   0.838   2.479  0.3307 -0.1044  0.9055
 7701TIP3    H123067   6.740   0.852   2.508 -0.1570 -0.0006 -0.5864
 7701TIP3    H223068   6.828   0.753   2.434  0.6802  0.4976 -0.2678
 7702TIP3   OH223069   2.557   1.459   3.016  0.0002  0.6490  0.5036
 7702TIP3    H123070   2.507   1.441   3.095 -0.1005  0.3498  0.3762
 7702TIP3    H223071   2.492   1.460   2.945  0.3897 -2.2220 -0.0331
 7703TIP3   OH223072   6.299   1.055   5.105 -0.0548 -0.1605  0.5864
 7703TIP3    H123073   6.348   1.106   5.040 -1.1394 -0.3252 -0.4013
 7703TIP3    H223074   6.243   0.998   5.052 -2.3365  0.9954  1.6210
 7704TIP3   OH223075   5.411   4.276   3.261  0.8400 -0.6306  0.7619
 7704TIP3    H123076   5.428   4.186   3.235  4.2230  0.5144 -1.6546
 7704TIP3    H223077   5.362   4.314   3.188  0.8707 -0.0961  1.0134
 7705TIP3   OH223078   6.434   4.021   2.937 -0.4879  0.0576 -0.3916
 7705TIP3    H123079   6.340   4.005   2.931 -0.3774 -0.3103 -1.1898
 7705TIP3    H223080   6.444   4.074   3.017 -1.0741 -2.2134  1.2916
 7706TIP3   OH223081   6.299   1.127   2.888  0.1461 -0.1238 -0.3905
 7706TIP3    H123082   6.260   1.081   2.963 -0.4060  1.0465  0.0676
 7706TIP3    H223083   6.377   1.169   2.925 -0.5693  1.1347 -0.2365
 7707TIP3   OH223084   2.578   3.956   4.737 -0.1481 -0.0420  1.0536
 7707TIP3    H123085   2.497   3.978   4.783 -0.7309  0.9686 -0.3724
 7707TIP3    H223086   2.578   3.860   4.733 -1.5137 -0.0525  0.6933
 7708TIP3   OH223087   4.176   1.447   4.861 -0.5059 -0.3117 -0.0839
 7708TIP3    H123088   4.189   1.438   4.766  1.8579  0.3779  0.1030
 7708TIP3    H223089   4.177   1.357   4.894 -1.5780 -0.5698 -0.7217
 7709TIP3   OH223090   3.157   6.149   4.500 -0.1717  0.2059  0.6584
 7709TIP3    H123091   3.187   6.180   4.415  1.6685  1.6736  1.7555
 7709TIP3    H223092   3.172   6.054   4.497 -1.3356  0.0298 -1.0564
 7710TIP3   OH223093   4.819   1.765   5.652 -0.3592  0.3180 -0.0953
 7710TIP3    H123094   4.781   1.694   5.703 -1.2224  0.2518 -0.8170
 7710TIP3    H223095   4.853   1.826   5.718 -1.4904  0.2562  0.5746
 7711TIP3   OH223096   0.885   5.292   0.184 -0.0828  0.3487 -0.2646
 7711TIP3    H123097   0.871   5.383   0.209 -0.0422  0.1435  0.5379
 7711TIP3    H223098   0.970   5.269   0.222 -1.7903 -1.1835  3.0871
 7712TIP3   OH223099   1.035   2.629   1.903 -0.2113 -0.4118  0.4088
 7712TIP3    H123100   0.943   2.614   1.882 -1.1896  3.0238  1.5842
 7712TIP3    H223101   1.064   2.547   1.944 -2.0212 -2.3715 -1.9392
 7713TIP3   OH223102   5.021   5.933   0.269  0.2852 -0.0741 -0.3050
 7713TIP3    H123103   5.075   6.011   0.254  1.7764 -1.0263 -0.1620
 7713TIP3    H223104   4.995   5.939   0.361  1.7617 -0.5184  0.1750
 7714TIP3   OH223105   1.262   6.796   3.700  0.2902 -0.4545  0.3794
 7714TIP3    H123106   1.170   6.811   3.724  0.2616 -1.5180  0.9914
 7714TIP3    H223107   1.263   6.707   3.663  0.9198 -0.0927 -0.5059
 7715TIP3   OH223108   5.172   4.437   2.007  0.3393  0.2907  0.4422
 7715TIP3    H123109   5.128   4.512   2.047  0.4048 -0.5024  2.0783
 7715TIP3    H223110   5.214   4.392   2.080 -0.2977 -1.7377 -0.3621
 7716TIP3   OH223111   0.631   0.312   5.484 -0.1348  0.0345 -0.6195
 7716TIP3    H123112   0.615   0.276   5.571  2.3995  1.5529  0.5863
 7716TIP3    H223113   0.627   0.237   5.426 -0.3791 -1.2724  1.0057
 7717TIP3   OH223114   4.179   4.583   3.949 -0.7369  0.5342  0.3429
 7717TIP3    H123115   4.227   4.505   3.922  2.3962  1.8185  1.7230
 7717TIP3    H223116   4.103   4.586   3.891 -0.7417 -3.2229 -0.0467
 7718TIP3   OH223117   3.914   6.102   2.886  0.3214  0.0172 -0.0505
 7718TIP3    H123118   3.904   6.062   2.799  2.1673  1.3877 -0.9602
 7718TIP3    H223119   3.989   6.057   2.925  0.0236 -0.0162  0.4926
 7719TIP3   OH223120   6.903   0.393   3.733 -0.1500  0.2537 -0.5490
 7719TIP3    H123121   6.988   0.371   3.773 -0.1602  1.8416  0.4449
 7719TIP3    H223122   6.853   0.312   3.737  0.6986 -0.2463  0.5157
 7720TIP3   OH223123   6.919   4.413   1.685 -0.2439  0.0346 -0.2292
 7720TIP3    H123124   6.831   4.421   1.648 -0.6011  1.0105  0.7916
 7720TIP3    H223125   6.948   4.504   1.698  1.5086 -0.2135 -1.8853
 7721TIP3   OH223126   6.546   3.885   5.359 -0.2430  0.2543  0.5048
 7721TIP3    H123127   6.639   3.894   5.381 -0.6233  0.0384  2.4110
 7721TIP3    H223128   6.524   3.967   5.314  0.7738  0.4719  0.3775
 7722TIP3   OH223129   3.770   3.413   1.564 -0.1202  0.7222 -0.2121
 7722TIP3    H123130   3.798   3.335   1.613 -0.9624  1.0635  0.8505
 7722TIP3    H223131   3.843   3.474   1.573  1.0786 -0.3476 -2.0880
 7723TIP3   OH223132   2.564  -0.007   2.654 -0.0849  0.4559 -0.7567
 7723TIP3    H123133   2.625   0.005   2.727 -2.4501  0.1055  1.4399
 7723TIP3    H223134   2.571   0.074   2.604  1.1664  0.9867  0.2198
 7724TIP3   OH223135   4.561   6.275   3.912 -0.1871  0.1747  0.0572
 7724TIP3    H123136   4.624   6.345   3.932 -1.0401  1.2967 -0.9992
 7724TIP3    H223137   4.482   6.321   3.884 -0.6003 -1.2073 -1.2277
 7725TIP3   OH223138   6.315   0.220   4.002  0.4189 -0.6437  0.0845
 7725TIP3    H123139   6.327   0.257   4.090  0.1811 -0.9924  0.2651
 7725TIP3    H223140   6.365   0.139   4.003  0.0473 -0.8757  0.0461
 7726TIP3   OH223141   4.123   3.957   3.100  0.1991  0.0594  0.0422
 7726TIP3    H123142   4.031   3.960   3.126  0.3015 -1.7570  0.7528
 7726TIP3    H223143   4.165   3.905   3.168  0.8999 -2.9656 -2.4904
 7727TIP3   OH223144   0.308   1.715   3.781  0.2038  0.1183 -0.1938
 7727TIP3    H123145   0.235   1.775   3.764 -0.2696  0.0859  1.5432
 7727TIP3    H223146   0.328   1.727   3.874  0.9582 -1.4867 -0.1158
 7728TIP3   OH223147   3.798   3.195   0.861  0.4414 -0.0365 -0.4659
 7728TIP3    H123148   3.871   3.138   0.884 -1.9563 -2.3352  2.2317
 7728TIP3    H223149   3.800   3.264   0.928 -0.1763 -0.4826  0.0283
 7729TIP3   OH223150   6.640   2.880   2.634  0.1319 -0.3171 -0.3129
 7729TIP3    H123151   6.630   2.819   2.707 -0.8634 -0.2212 -0.3582
 7729TIP3    H223152   6.579   2.951   2.653 -1.3563 -1.0574 -2.0025
 7730TIP3   OH223153   5.531   1.485   2.243 -0.1887 -0.6206 -0.2770
 7730TIP3    H123154   5.612   1.531   2.265  1.0482 -1.3943 -2.8558
 7730TIP3    H223155   5.462   1.540   2.279  1.3989  0.9848  0.4789
 7731TIP3   OH223156   1.951   2.442   3.524 -0.4952  0.1762  0.5280
 7731TIP3    H123157   1.857   2.457   3.525 -0.9278 -1.5065 -2.6953
 7731TIP3    H223158   1.960   2.347   3.532  1.1661  0.4365  3.1694
 7732TIP3   OH223159   2.923   3.091   5.189 -0.1853 -0.6237 -0.0922
 7732TIP3    H123160   2.972   3.051   5.117  0.8793  0.6361 -0.1036
 7732TIP3    H223161   2.989   3.110   5.255 -1.1931 -2.0694  1.4109
 7733TIP3   OH223162   3.807   1.771   2.760 -0.7177  0.1247  0.5461
 7733TIP3    H123163   3.879   1.833   2.751  0.4656 -1.3272 -0.5705
 7733TIP3    H223164   3.735   1.822   2.795  0.2204  2.1103 -0.2827
 7734TIP3   OH223165   7.185   3.572   1.017  0.0883  0.0409  0.0784
 7734TIP3    H123166   7.187   3.666   1.001  1.8508  0.0859  0.3633
 7734TIP3    H223167   7.173   3.565   1.112  1.7662  0.0665  0.3345
 7735TIP3   OH223168   3.993   2.640   4.881 -0.0880  0.2301  0.2434
 7735TIP3    H123169   4.063   2.703   4.898 -0.6707  1.5702 -1.9959
 7735TIP3    H223170   3.935   2.648   4.957  1.0136  0.6821  1.0798
 7736TIP3   OH223171   5.074   1.853   2.741 -0.3748 -0.4048 -0.0736
 7736TIP3    H123172   5.111   1.898   2.665  0.0572  0.7570  0.7906
 7736TIP3    H223173   4.990   1.896   2.755  0.3439  0.6635  1.1775
 7737TIP3   OH223174   3.931   5.099   2.517  0.0933 -0.3586  0.6252
 7737TIP3    H123175   3.994   5.029   2.501  1.5670  0.9686  0.3020
 7737TIP3    H223176   3.964   5.173   2.466 -2.6588 -0.0564 -0.8905
 7738TIP3   OH223177   4.230   2.447   3.748 -0.1543 -0.0132 -0.5979
 7738TIP3    H123178   4.225   2.367   3.800 -1.2884 -0.0974 -0.8231
 7738TIP3    H223179   4.175   2.430   3.672  0.6913  0.4807 -1.3460
 7739TIP3   OH223180   6.916   0.990   2.696  0.1507  0.1241  0.8534
 7739TIP3    H123181   6.891   0.987   2.604  0.2898 -0.0448  0.8210
 7739TIP3    H223182   6.907   0.900   2.727  1.4506 -0.0897  0.6416
 7740TIP3   OH223183   1.942   2.971   4.553  0.3270 -0.2078  0.4917
 7740TIP3    H123184   2.012   2.993   4.493  0.4293 -0.2591  0.5918
 7740TIP3    H223185   1.985   2.962   4.638 -0.0696  1.6165  0.9270
 7741TIP3   OH223186   0.406   6.427   5.033  0.2311  0.2511 -0.0858
 7741TIP3    H123187   0.475   6.485   5.001 -0.1691  0.9612  0.3146
 7741TIP3    H223188   0.362   6.396   4.954  2.1833 -1.7517 -0.4872
 7742TIP3   OH223189   2.083   2.186   0.966 -0.0220 -0.5176  0.2755
 7742TIP3    H123190   1.988   2.177   0.968  0.1084 -1.9150  1.2980
 7742TIP3    H223191   2.111   2.168   1.055  1.1438  0.9802  0.2528
 7743TIP3   OH223192   3.304   1.213   3.849  0.3091 -0.3741 -0.3790
 7743TIP3    H123193   3.344   1.288   3.894 -0.9194  0.2997 -0.3602
 7743TIP3    H223194   3.352   1.137   3.882  1.4713  0.3855 -0.2652
 7744TIP3   OH223195   4.411   2.990   3.152  0.0276 -0.1413 -0.1892
 7744TIP3    H123196   4.464   2.915   3.181 -1.3740 -0.3862  1.9902
 7744TIP3    H223197   4.358   2.955   3.081  0.6610 -0.7134 -0.3962
 7745TIP3   OH223198   6.983   6.067   0.930  0.1489 -0.2260  0.3262
 7745TIP3    H123199   7.061   6.098   0.977  0.0129  0.3856  0.1557
 7745TIP3    H223200   6.914   6.128   0.955 -0.0263 -0.1487 -0.3332
 7746TIP3   OH223201   1.181   0.809   4.934  0.9348  0.0104  0.2581
 7746TIP3    H123202   1.236   0.886   4.947 -1.4568  2.0281 -0.6480
 7746TIP3    H223203   1.230   0.754   4.874  1.0116  2.9564 -2.6891
 7747TIP3   OH223204   6.432   0.475   3.280 -0.2432 -0.3854  0.5849
 7747TIP3    H123205   6.490   0.402   3.261 -0.4953 -0.5344  0.3863
 7747TIP3    H223206   6.345   0.436   3.288 -0.4527 -0.0485  0.0296
 7748TIP3   OH223207   2.673   5.866   3.776 -1.1464  0.3711 -0.0446
 7748TIP3    H123208   2.643   5.837   3.863 -0.2490  0.0975  0.1830
 7748TIP3    H223209   2.674   5.786   3.724 -0.5161  0.3148  0.0438
 7749TIP3   OH223210   1.509   5.344   0.789 -0.0704  0.3283 -0.0540
 7749TIP3    H123211   1.572   5.283   0.827  0.7071  1.3095  0.2811
 7749TIP3    H223212   1.554   5.429   0.792 -1.9010  1.3103  1.4147
 7750TIP3   OH223213   4.031   0.550   2.635 -0.0895 -0.4040 -0.3271
 7750TIP3    H123214   4.010   0.485   2.568 -2.5143 -0.3778  0.3017
 7750TIP3    H223215   3.982   0.520   2.712 -0.9486  1.9109  0.0945
 7751TIP3   OH223216   3.977   2.878   2.283 -0.3023 -0.4934 -0.1232
 7751TIP3    H123217   4.053   2.856   2.230 -0.3260 -2.0126  0.4118
 7751TIP3    H223218   4.011   2.882   2.372 -0.6278  0.0694 -0.0221
 7752TIP3   OH223219   5.243   0.812   5.250  0.2224 -0.1374  0.1522
 7752TIP3    H123220   5.179   0.742   5.237  0.5799 -0.2971 -0.8358
 7752TIP3    H223221   5.255   0.816   5.345  0.2277 -1.4471  0.2259
 7753TIP3   OH223222   5.181   1.651   4.153  0.3524  0.2147 -0.1533
 7753TIP3    H123223   5.200   1.714   4.222 -0.7335 -1.0753  1.3872
 7753TIP3    H223224   5.263   1.604   4.140  0.1015 -0.8263  1.6843
 7754TIP3   OH223225   6.745   4.674   4.285 -0.1551 -0.4055 -0.4942
 7754TIP3    H123226   6.691   4.679   4.363  0.0857  0.4011 -0.3585
 7754TIP3    H223227   6.684   4.655   4.214 -0.7526  1.1735 -0.4524
 7755TIP3   OH223228   6.848   5.811   3.094  0.1013  0.4977  0.3203
 7755TIP3    H123229   6.766   5.849   3.123  0.0100  1.3563 -0.9653
 7755TIP3    H223230   6.883   5.874   3.031  1.6815  0.0831  0.7339
 7756TIP3   OH223231   1.720   6.033   5.339  0.0295  0.1414 -0.9916
 7756TIP3    H123232   1.815   6.039   5.354 -0.0686 -1.0500  0.3652
 7756TIP3    H223233   1.686   6.118   5.365  0.4475 -0.3228  1.2871
 7757TIP3   OH223234   5.388   3.147   1.094  0.4963 -0.1318  0.2424
 7757TIP3    H123235   5.347   3.224   1.055  0.2073  0.6047  1.9024
 7757TIP3    H223236   5.458   3.182   1.149 -0.7278 -0.8701  2.3642
 7758TIP3   OH223237   6.378   5.231   0.708 -0.0382  0.2470 -1.1966
 7758TIP3    H123238   6.335   5.146   0.712 -0.7649  0.5990 -1.2219
 7758TIP3    H223239   6.430   5.236   0.788  0.9145 -0.6683 -1.7220
 7759TIP3   OH223240   4.515   4.531   4.592  0.1246  0.5819  0.4085
 7759TIP3    H123241   4.420   4.521   4.580  0.0384  2.1587 -0.5411
 7759TIP3    H223242   4.524   4.604   4.653  0.7358 -0.0600  1.1017
 7760TIP3   OH223243   6.572   5.584   5.198  0.2327 -0.5275  0.3356
 7760TIP3    H123244   6.668   5.578   5.201  0.2607  0.3395  1.5147
 7760TIP3    H223245   6.543   5.493   5.208  0.9219 -1.2700 -3.0558
 7761TIP3   OH223246   4.994   1.221   1.020  0.4957  0.2360 -0.1956
 7761TIP3    H123247   4.920   1.278   1.000  0.7872  0.3045 -1.1064
 7761TIP3    H223248   5.063   1.248   0.959  1.7672  1.1123  1.5226
 7762TIP3   OH223249   6.584   4.365   2.857  0.1488  0.0679  0.0315
 7762TIP3    H123250   6.568   4.318   2.775 -0.0817 -2.1316  1.2550
 7762TIP3    H223251   6.551   4.454   2.840  1.1453  0.0382 -2.5896
 7763TIP3   OH223252   1.919   2.429   5.247 -0.3087 -0.6072  0.4781
 7763TIP3    H123253   1.837   2.388   5.221 -0.4979  0.0012  0.0900
 7763TIP3    H223254   1.951   2.471   5.167  1.6421 -2.8962 -0.0595
 7764TIP3   OH223255   4.590   4.164   1.132 -0.3702  0.6684 -0.6062
 7764TIP3    H123256   4.495   4.162   1.144 -0.2399  0.8445  0.5083
 7764TIP3    H223257   4.621   4.085   1.175  0.2572  2.0958  1.7164
 7765TIP3   OH223258   7.066   5.573   3.482  0.4117  0.3794 -0.7657
 7765TIP3    H123259   7.069   5.511   3.409  0.0785  1.3595 -1.6341
 7765TIP3    H223260   6.973   5.586   3.499  0.4907 -0.1059  0.0713
 7766TIP3   OH223261   5.039   5.589   1.980 -0.3439  0.4215 -0.2984
 7766TIP3    H123262   5.116   5.540   1.950 -0.3076  0.0922  0.3074
 7766TIP3    H223263   5.069   5.679   1.988  0.0701  0.2381  0.2458
 7767TIP3   OH223264   4.986   2.624   4.620 -0.1376  0.4588 -0.0602
 7767TIP3    H123265   5.024   2.643   4.706 -0.4381  0.2030  0.1286
 7767TIP3    H223266   5.053   2.653   4.558  0.6789 -0.6273  0.2788
 7768TIP3   OH223267   5.941   3.856   5.041  0.3018 -0.2344 -0.3363
 7768TIP3    H123268   5.935   3.793   4.970 -1.5227 -3.2440  2.2552
 7768TIP3    H223269   6.031   3.848   5.073  1.0328  0.9034 -1.9918
 7769TIP3   OH223270   0.636   4.215   4.582 -0.5226  0.1080  0.2849
 7769TIP3    H123271   0.634   4.187   4.490 -0.3589 -0.5483  0.4738
 7769TIP3    H223272   0.630   4.310   4.578  1.5928  0.2698 -0.5185
 7770TIP3   OH223273   6.375   3.568   0.201  0.0761 -0.6195 -0.1020
 7770TIP3    H123274   6.425   3.540   0.124 -1.0298 -1.2780 -0.6236
 7770TIP3    H223275   6.405   3.657   0.219 -0.5720  0.0643 -2.1342
 7771TIP3   OH223276   1.431   5.055   1.765  0.1036 -0.4470 -0.1256
 7771TIP3    H123277   1.431   5.022   1.675 -0.4842  0.7640 -0.5904
 7771TIP3    H223278   1.457   5.147   1.757 -1.7127  0.1846  0.7130
 7772TIP3   OH223279   0.746   6.850   5.587  0.3147 -0.3499 -0.6699
 7772TIP3    H123280   0.671   6.791   5.578  1.3223 -1.5317 -1.6396
 7772TIP3    H223281   0.823   6.796   5.569  1.4919  0.6585  0.9728
 7773TIP3   OH223282   3.727   0.643   3.959  0.6626  0.4025 -0.1324
 7773TIP3    H123283   3.682   0.685   3.887  0.0553  0.9975  0.5742
 7773TIP3    H223284   3.729   0.708   4.029  1.9393  0.1206  0.1352
 7774TIP3   OH223285   1.003   3.123   1.366 -0.0087  0.1029 -0.0874
 7774TIP3    H123286   0.950   3.124   1.286 -0.0339  2.1803 -0.1024
 7774TIP3    H223287   0.940   3.134   1.437  0.1252 -0.5694  0.1436
 7775TIP3   OH223288   3.696   2.418   3.446 -0.1266  0.0408  0.1046
 7775TIP3    H123289   3.754   2.486   3.411  0.2930 -0.6872 -0.6539
 7775TIP3    H223290   3.695   2.434   3.541  2.3145 -0.6488  0.3243
 7776TIP3   OH223291   3.343   3.217   1.025  0.5308 -0.1860  0.1127
 7776TIP3    H123292   3.313   3.301   0.990  0.0952 -1.3015 -2.4061
 7776TIP3    H223293   3.432   3.207   0.990  0.7626 -0.5727  0.7899
 7777TIP3   OH223294   2.750   6.314   2.007  0.1388 -0.4778 -0.2311
 7777TIP3    H123295   2.722   6.287   1.920  0.9540 -0.2903 -0.5641
 7777TIP3    H223296   2.843   6.291   2.010  0.1348 -0.4073  0.5572
 7778TIP3   OH223297   6.537   0.687   0.221 -0.3852  0.0491 -0.5006
 7778TIP3    H123298   6.629   0.714   0.222  0.6271 -2.8810  1.3840
 7778TIP3    H223299   6.522   0.654   0.132  0.1806  1.0900 -0.9940
 7779TIP3   OH223300   4.080   4.222   0.739  0.0220 -0.5649 -0.6164
 7779TIP3    H123301   3.987   4.242   0.753 -0.0063  0.2298 -1.8196
 7779TIP3    H223302   4.083   4.183   0.651  1.0722  1.5033 -1.5780
 7780TIP3   OH223303   1.720   5.607   0.279  0.1102 -0.3280 -0.4275
 7780TIP3    H123304   1.751   5.583   0.367  0.6808 -0.9448 -0.7917
 7780TIP3    H223305   1.647   5.547   0.262  0.8612 -1.1210 -0.9109
 7781TIP3   OH223306   6.324   3.565   4.938  0.1552  0.6948 -0.0813
 7781TIP3    H123307   6.351   3.645   4.982  1.0268  0.4078 -0.0689
 7781TIP3    H223308   6.332   3.497   5.004  1.3596  0.2811 -0.6245
 7782TIP3   OH223309   3.418   5.076   5.201  0.3049  0.2020 -0.3778
 7782TIP3    H123310   3.384   5.153   5.245 -0.3979 -0.8652  1.0257
 7782TIP3    H223311   3.455   5.022   5.271  1.9225 -0.2019 -1.4574
 7783TIP3   OH223312   1.552   3.645   0.226 -0.3591  0.2042 -0.3428
 7783TIP3    H123313   1.564   3.739   0.241  1.8932 -0.2668  1.2184
 7783TIP3    H223314   1.489   3.618   0.292  0.7235  0.2429  0.7330
 7784TIP3   OH223315   4.343   3.625   3.737  0.1478 -0.3352 -0.1543
 7784TIP3    H123316   4.329   3.531   3.727 -1.6552 -0.1414  0.2548
 7784TIP3    H223317   4.344   3.639   3.832  0.7326  0.0237 -0.2090
 7785TIP3   OH223318   0.384   1.223   5.393  0.1870  0.0612 -0.4951
 7785TIP3    H123319   0.390   1.275   5.312 -0.2928  0.2336 -0.4225
 7785TIP3    H223320   0.293   1.234   5.422  0.6624  1.0185  0.7380
 7786TIP3   OH223321   3.983   3.115   1.336 -0.0852  0.0302  0.1473
 7786TIP3    H123322   4.047   3.126   1.407  1.3616 -0.0454 -1.0874
 7786TIP3    H223323   4.011   3.035   1.292 -1.4244 -0.3437 -0.0653
 7787TIP3   OH223324   6.364   4.182   2.245  0.2336 -0.2098  0.2160
 7787TIP3    H123325   6.280   4.221   2.271  0.5394  0.0848  0.7783
 7787TIP3    H223326   6.418   4.257   2.219  1.0359 -0.1705  1.8960
 7788TIP3   OH223327   0.063   2.014   4.355  0.2872 -0.2625  0.0585
 7788TIP3    H123328   0.044   2.097   4.312  2.1681  0.1279 -0.1102
 7788TIP3    H223329   0.073   1.952   4.283  2.0064  0.0801 -0.0348
 7789TIP3   OH223330   6.575   5.820   0.200 -0.4057 -0.7497  0.0256
 7789TIP3    H123331   6.555   5.769   0.121  1.3222 -0.3750 -0.7028
 7789TIP3    H223332   6.494   5.868   0.218 -1.0960 -1.4566 -1.0362
 7790TIP3   OH223333   6.082   0.274   3.878 -0.0665  0.6415 -0.2788
 7790TIP3    H123334   6.024   0.283   3.954 -0.2888 -0.0814 -0.3646
 7790TIP3    H223335   6.163   0.238   3.914  0.2840  1.4972 -0.1855
 7791TIP3   OH223336   6.787   5.649   0.207 -0.2024 -0.5237 -0.3171
 7791TIP3    H123337   6.827   5.679   0.126  1.7349  0.7415  0.9973
 7791TIP3    H223338   6.708   5.702   0.216  1.1557  1.5990  0.0448
 7792TIP3   OH223339   6.693   0.401   1.688  0.1214  0.0412  0.3805
 7792TIP3    H123340   6.702   0.307   1.701  1.6389  0.3823  2.3609
 7792TIP3    H223341   6.618   0.410   1.629  0.7735 -2.4296 -0.9876
 7793TIP3   OH223342   7.221   0.121   5.320  0.5674  0.0356 -0.6156
 7793TIP3    H123343   7.133   0.083   5.320  0.2878  0.6681 -0.6551
 7793TIP3    H223344   7.279   0.048   5.340  0.2952 -0.9480 -3.1832
 7794TIP3   OH223345   1.894   4.774   1.118  0.3932  0.1951  0.2151
 7794TIP3    H123346   1.979   4.736   1.139 -0.1319 -0.5411  1.0506
 7794TIP3    H223347   1.831   4.702   1.131 -0.3548  0.7088 -0.4405
 7795TIP3   OH223348   0.436   3.539   3.209 -0.3087 -0.0923  0.2974
 7795TIP3    H123349   0.416   3.445   3.210 -1.1313  0.0763  0.2060
 7795TIP3    H223350   0.352   3.582   3.223  0.0661  0.6382  0.3644
 7796TIP3   OH223351   2.130   4.201   3.709  0.4088 -0.1440 -1.0678
 7796TIP3    H123352   2.164   4.239   3.627 -1.0306  1.4509 -0.9824
 7796TIP3    H223353   2.146   4.268   3.775  0.5577 -0.9647 -0.2540
 7797TIP3   OH223354   3.865   1.771   5.143 -0.0395 -0.3025 -0.7490
 7797TIP3    H123355   3.922   1.847   5.131 -0.0551  0.5469  3.2160
 7797TIP3    H223356   3.925   1.697   5.153  0.4064  0.2891  1.5264
 7798TIP3   OH223357   4.776   3.884   3.218 -0.3983  0.3294  0.3121
 7798TIP3    H123358   4.746   3.942   3.148 -0.5590 -1.6575 -1.3882
 7798TIP3    H223359   4.772   3.937   3.297 -1.3747  2.3337 -0.9968
 7799TIP3   OH223360   1.580   5.301   4.753 -0.1198 -0.7230 -0.1474
 7799TIP3    H123361   1.610   5.212   4.734 -1.3151 -1.2548  0.3288
 7799TIP3    H223362   1.493   5.289   4.792 -0.5138  0.6872 -0.5385
 7800TIP3   OH223363   5.113   2.912   2.441  0.2938  0.7633 -0.3453
 7800TIP3    H123364   5.103   2.904   2.536  0.4529  1.4591 -0.2633
 7800TIP3    H223365   5.036   2.869   2.405 -0.5415  1.7961  0.1487
 7801TIP3   OH223366   5.726   3.197   5.286 -0.0577 -0.1638 -0.0872
 7801TIP3    H123367   5.684   3.271   5.241  0.8416 -0.1256 -0.9046
 7801TIP3    H223368   5.756   3.141   5.215 -1.2179 -1.6324  0.5266
 7802TIP3   OH223369   1.642   0.082   4.234  0.4703  0.1185  0.1548
 7802TIP3    H123370   1.584   0.155   4.253 -1.5855 -1.1181 -0.8829
 7802TIP3    H223371   1.628   0.021   4.306  0.7284 -0.0500  0.0638
 7803TIP3   OH223372   5.306   5.702   2.221 -0.1312 -0.9159 -0.5671
 7803TIP3    H123373   5.348   5.629   2.175  0.1613  0.7461 -3.1486
 7803TIP3    H223374   5.370   5.728   2.288  0.9650 -1.3320 -1.4142
 7804TIP3   OH223375   2.920   5.293   3.199  0.1543 -0.3635 -0.2218
 7804TIP3    H123376   3.008   5.309   3.231 -0.7236  1.1616  1.6149
 7804TIP3    H223377   2.866   5.283   3.278 -1.7210  1.2380 -1.1864
 7805TIP3   OH223378   6.157   4.365   0.749  0.2331  0.0094  0.6038
 7805TIP3    H123379   6.208   4.440   0.781  1.7174  0.3076 -2.1342
 7805TIP3    H223380   6.159   4.375   0.654 -3.4192 -1.0785  0.2976
 7806TIP3   OH223381   5.832   1.549   1.909 -0.7715  0.6525  0.0263
 7806TIP3    H123382   5.888   1.564   1.833 -3.1516  1.1379 -1.7451
 7806TIP3    H223383   5.855   1.461   1.939 -0.3195  0.0990 -1.7922
 7807TIP3   OH223384   1.570   1.124   2.054  0.9665 -0.0369  0.3531
 7807TIP3    H123385   1.506   1.178   2.100  0.7788  0.8687 -0.8930
 7807TIP3    H223386   1.603   1.063   2.120 -1.2067 -0.5801  1.0386
 7808TIP3   OH223387   3.834   0.184   3.592 -0.6263 -0.2932  0.4163
 7808TIP3    H123388   3.832   0.121   3.664  0.7591 -0.9699 -0.0971
 7808TIP3    H223389   3.796   0.138   3.518  0.9274 -0.7875 -0.1180
 7809TIP3   OH223390   6.697   6.192   3.154 -0.4983 -0.6866 -0.0643
 7809TIP3    H123391   6.665   6.103   3.172 -2.7164 -0.0998 -0.7225
 7809TIP3    H223392   6.730   6.188   3.064  1.2489 -1.2742  0.5774
 7810TIP3   OH223393   7.221   3.886   2.510 -0.2360 -0.1431  0.0917
 7810TIP3    H123394   7.271   3.870   2.590  1.2770  1.0110 -0.5766
 7810TIP3    H223395   7.183   3.974   2.523 -0.1604 -0.0419 -0.3734
 7811TIP3   OH223396   1.553   0.204   0.133  0.3990 -0.6438  0.0088
 7811TIP3    H123397   1.512   0.121   0.155  0.0131  0.0212  1.9967
 7811TIP3    H223398   1.616   0.219   0.203 -0.6732  1.4844  0.6029
 7812TIP3   OH223399   6.632   2.982   2.035  0.7647 -0.3402  0.2956
 7812TIP3    H123400   6.604   2.958   1.946 -1.5535  3.2225 -0.1656
 7812TIP3    H223401   6.573   2.934   2.093 -1.3348  1.2347 -0.4100
 7813TIP3   OH223402   2.486   0.929   5.521  0.8040  0.0259  0.0005
 7813TIP3    H123403   2.480   0.853   5.579 -0.6606  1.2945  1.6159
 7813TIP3    H223404   2.504   0.892   5.434  0.3041 -2.1354  0.7568
 7814TIP3   OH223405   3.319   1.432   5.887  0.6292 -0.7457  0.3596
 7814TIP3    H123406   3.366   1.382   5.821 -0.1722 -1.8270  0.5781
 7814TIP3    H223407   3.304   1.517   5.847 -0.2803 -1.5388 -1.0506
 7815TIP3   OH223408   3.055   0.619   2.835 -0.0684  0.6246  0.3975
 7815TIP3    H123409   3.115   0.631   2.762  1.4532  2.3379  1.8220
 7815TIP3    H223410   3.107   0.575   2.903 -1.8401 -2.2677  0.0615
 7816TIP3   OH223411   1.952   6.451   4.387 -0.3082  0.2888 -0.5177
 7816TIP3    H123412   2.046   6.466   4.391 -0.2623 -0.3206  1.2684
 7816TIP3    H223413   1.941   6.386   4.318  0.7639 -0.8383  0.3465
 7817TIP3   OH223414   6.383   1.146   2.085  0.5557  0.8822 -0.2036
 7817TIP3    H123415   6.336   1.146   2.169  0.3453  1.0771 -0.3224
 7817TIP3    H223416   6.375   1.055   2.054 -1.1411  1.2578 -0.9999
 7818TIP3   OH223417   4.814   5.094   0.620  0.2136  0.3640  0.1281
 7818TIP3    H123418   4.895   5.051   0.644 -0.4177  0.3604  2.4800
 7818TIP3    H223419   4.840   5.180   0.587  1.1914  0.0333  0.0265
 7819TIP3   OH223420   6.323   5.508   1.831 -0.5480  0.2384 -0.0715
 7819TIP3    H123421   6.388   5.520   1.900 -2.0203  0.7344  1.3128
 7819TIP3    H223422   6.367   5.534   1.751  1.2297 -0.3369  0.6709
 7820TIP3   OH223423   3.142   0.755   5.763 -0.3047  0.4507  0.3701
 7820TIP3    H123424   3.109   0.793   5.844 -0.2855  0.8354  0.1981
 7820TIP3    H223425   3.097   0.670   5.756 -2.0698  1.3914 -0.3891
 7821TIP3   OH223426   6.846   1.443   5.602  0.1080  0.5719 -0.3165
 7821TIP3    H123427   6.767   1.389   5.608  0.7486 -0.3093  0.2033
 7821TIP3    H223428   6.839   1.503   5.676 -0.5847  1.2032 -0.8738
 7822TIP3   OH223429   5.525   4.419   1.917  0.2751 -0.2394 -0.7921
 7822TIP3    H123430   5.448   4.436   1.863 -0.4621  0.1092  0.3361
 7822TIP3    H223431   5.566   4.342   1.877 -1.8432 -1.7784 -0.2008
 7823TIP3   OH223432   5.867   3.636   4.273 -0.3956  0.1521 -0.4939
 7823TIP3    H123433   5.893   3.725   4.251 -0.8597  0.2593 -0.6243
 7823TIP3    H223434   5.780   3.626   4.234 -0.5594 -0.1909 -0.0544
 7824TIP3   OH223435   7.098   2.393   2.771  0.7038 -0.2375  0.1354
 7824TIP3    H123436   7.061   2.446   2.700  1.1810 -0.5927 -0.3830
 7824TIP3    H223437   7.055   2.308   2.762 -0.9289  0.3564  1.6712
 7825TIP3   OH223438   0.620   2.208   0.545  0.2547  0.2198 -0.0356
 7825TIP3    H123439   0.680   2.281   0.559 -1.2169  1.6725 -0.9214
 7825TIP3    H223440   0.666   2.151   0.483  1.1859  0.6918  0.2011
 7826TIP3   OH223441   4.458   6.614   5.605  0.1711  0.2136  0.6268
 7826TIP3    H123442   4.452   6.698   5.651 -2.1884  1.4738 -1.7277
 7826TIP3    H223443   4.435   6.549   5.671 -1.3634  1.7610  1.7112
 7827TIP3   OH223444   4.025   0.974   4.163 -0.1925 -0.3834 -0.7567
 7827TIP3    H123445   3.953   0.950   4.105 -0.8894  1.0739 -0.5459
 7827TIP3    H223446   4.080   1.032   4.111  0.5714 -1.0861 -0.7510
 7828TIP3   OH223447   5.969   2.382   5.074  0.0583  0.5993 -0.2132
 7828TIP3    H123448   5.953   2.472   5.044 -0.3124  1.0701  1.3251
 7828TIP3    H223449   6.016   2.392   5.156  1.0359 -0.6572 -0.5934
 7829TIP3   OH223450   7.046   4.732   4.137 -0.1788  0.5869 -0.1640
 7829TIP3    H123451   6.975   4.742   4.201 -1.8601  1.2092 -2.0204
 7829TIP3    H223452   7.009   4.766   4.055  1.7127 -0.6053 -1.5876
 7830TIP3   OH223453   4.702   4.656   5.724 -0.0007  0.3949 -0.0673
 7830TIP3    H123454   4.795   4.678   5.727 -0.2433  1.3027  1.3283
 7830TIP3    H223455   4.664   4.722   5.665  0.2878 -0.2964 -1.0681
 7831TIP3   OH223456   5.940   0.162   3.305 -0.7776  0.2944 -0.1787
 7831TIP3    H123457   6.035   0.151   3.306 -0.9183 -1.2565 -0.9102
 7831TIP3    H223458   5.906   0.083   3.348 -1.7493  0.4435 -0.6430
 7832TIP3   OH223459   1.333   6.642   5.777  0.5251  0.4205  0.2207
 7832TIP3    H123460   1.349   6.641   5.872  1.2500  1.5751  0.1182
 7832TIP3    H223461   1.269   6.571   5.764  2.6837 -1.8499  1.1329
 7833TIP3   OH223462   2.263   6.771   1.865 -0.2468 -0.6411  0.1578
 7833TIP3    H123463   2.291   6.777   1.774  0.2458  3.1603  0.3647
 7833TIP3    H223464   2.334   6.725   1.910  0.1469 -1.3298 -1.1339
 7834TIP3   OH223465   5.425   2.829   5.773  0.0144 -0.1361 -0.0412
 7834TIP3    H123466   5.455   2.905   5.824 -0.5090 -0.3462  0.5895
 7834TIP3    H223467   5.351   2.862   5.722 -0.5534 -0.3424  0.6330
 7835TIP3   OH223468   0.077   5.949   0.815 -0.1064 -0.1663  0.2843
 7835TIP3    H123469   0.060   5.921   0.905 -1.8818  0.4191  0.1699
 7835TIP3    H223470  -0.007   5.984   0.785  0.2467 -1.0503 -1.8584
 7836TIP3   OH223471   3.285   1.907   4.626 -0.1905  0.1510  0.4401
 7836TIP3    H123472   3.234   1.965   4.570 -0.9066 -0.8509  0.0298
 7836TIP3    H223473   3.326   1.845   4.566  1.2647  0.7203  0.7928
 7837TIP3   OH223474   4.715   6.755   3.784 -0.0154  0.3620  0.3321
 7837TIP3    H123475   4.782   6.800   3.734 -0.2414 -0.1744 -0.4789
 7837TIP3    H223476   4.725   6.787   3.873  1.2322  0.3818  0.1998
 7838TIP3   OH223477   2.722   4.241   2.950  0.0457  0.1242 -0.3938
 7838TIP3    H123478   2.630   4.266   2.950  0.2911  1.0767  0.5099
 7838TIP3    H223479   2.752   4.264   2.862 -0.6485 -0.5149 -0.8110
 7839TIP3   OH223480   0.433   1.255   1.328 -1.0674  0.7419  0.2139
 7839TIP3    H123481   0.492   1.194   1.285  0.6315  0.8845  2.2152
 7839TIP3    H223482   0.478   1.340   1.324 -2.6322  1.5704 -1.0584
 7840TIP3   OH223483   6.586   2.384   5.421  1.0322  0.4923 -0.5322
 7840TIP3    H123484   6.530   2.343   5.487  0.5117 -0.1563 -1.3574
 7840TIP3    H223485   6.544   2.467   5.402  1.5425  0.9904  0.4136
 7841TIP3   OH223486   4.571   3.236   0.924  0.7730 -0.2120 -0.6520
 7841TIP3    H123487   4.658   3.200   0.908  0.3107 -1.8188  0.1880
 7841TIP3    H223488   4.518   3.160   0.949 -0.1313  1.1386  1.8424
 7842TIP3   OH223489   5.837   6.113   2.271 -0.5771  0.3855  0.1265
 7842TIP3    H123490   5.812   6.128   2.362  1.9389  0.1432  0.9336
 7842TIP3    H223491   5.827   6.198   2.229  0.5686  1.1227  1.2790
 7843TIP3   OH223492   4.459   3.466   5.111  0.2454  0.2767 -0.0287
 7843TIP3    H123493   4.545   3.464   5.153 -0.5345 -1.8276  1.6700
 7843TIP3    H223494   4.448   3.557   5.082  3.3610  0.4060 -1.1080
 7844TIP3   OH223495   0.520   1.192   4.378 -0.5668  0.2282  0.2184
 7844TIP3    H123496   0.452   1.224   4.437 -0.9595  0.0257 -0.1217
 7844TIP3    H223497   0.527   1.258   4.310  0.5558  0.9341  0.9888
 7845TIP3   OH223498   5.658   0.993   3.966  0.7182  0.1729  0.2529
 7845TIP3    H123499   5.610   1.056   4.020  0.7404 -0.0823  0.5719
 7845TIP3    H223500   5.691   0.928   4.028  0.8594 -0.0487 -0.0516
 7846TIP3   OH223501   3.089   4.529   0.717 -0.2284  0.1442 -0.4741
 7846TIP3    H123502   3.081   4.505   0.809  1.6418  0.9154 -0.0609
 7846TIP3    H223503   3.173   4.575   0.711 -0.7521  0.9706 -2.3828
 7847TIP3   OH223504   2.532   5.972   2.847 -0.3383  0.2163 -0.8031
 7847TIP3    H123505   2.451   5.952   2.893 -0.2457  2.9322  0.7233
 7847TIP3    H223506   2.586   6.017   2.912  1.4126  0.6798 -2.4849
 7848TIP3   OH223507   0.051   4.035   1.595 -0.3271 -0.5555  0.0895
 7848TIP3    H123508  -0.044   4.034   1.609 -0.2839  0.0541  0.4750
 7848TIP3    H223509   0.088   4.040   1.684  0.0042  1.3473 -0.1087
 7849TIP3   OH223510   0.040   4.888   4.111  0.1970  0.2040  0.1183
 7849TIP3    H123511  -0.028   4.822   4.124  0.1924  0.2445  0.3126
 7849TIP3    H223512   0.057   4.887   4.017  1.2368 -1.1211  0.2825
 7850TIP3   OH223513   3.400   2.773   3.967 -0.3469  0.0337 -0.1576
 7850TIP3    H123514   3.479   2.724   3.946 -0.1495 -0.3275  1.2765
 7850TIP3    H223515   3.410   2.794   4.060 -1.2904  1.2043 -0.3070
 7851TIP3   OH223516   3.561   4.328   4.995 -0.1992  0.0575 -0.2969
 7851TIP3    H123517   3.520   4.384   4.929 -0.0687  0.9811  0.3790
 7851TIP3    H223518   3.654   4.327   4.970  0.1774  1.8473  0.8072
 7852TIP3   OH223519   6.946   1.377   1.746 -0.2021 -0.4815  0.2483
 7852TIP3    H123520   7.016   1.336   1.694 -0.0645 -0.4812  0.4317
 7852TIP3    H223521   6.990   1.450   1.791 -0.3235 -0.4749  0.3556
 7853TIP3   OH223522   6.009   0.451   0.834 -0.4923  0.1781 -0.3248
 7853TIP3    H123523   6.042   0.432   0.922 -3.5512 -1.5365  0.6286
 7853TIP3    H223524   5.957   0.530   0.845 -1.7778 -0.6384 -0.2464
 7854TIP3   OH223525   4.157   1.511   1.430  0.3477  0.3900  0.6495
 7854TIP3    H123526   4.109   1.585   1.393 -0.4466 -0.3731  0.1350
 7854TIP3    H223527   4.159   1.446   1.360  1.1701 -0.0282  1.0489
 7855TIP3   OH223528   1.426   0.831   0.866 -0.0437 -0.3077 -0.0391
 7855TIP3    H123529   1.374   0.903   0.832 -0.3115 -0.7025 -0.4885
 7855TIP3    H223530   1.401   0.756   0.812  1.8028 -0.2721 -1.0182
 7856TIP3   OH223531   0.883   0.463   0.973 -0.1422  0.2376 -0.2382
 7856TIP3    H123532   0.972   0.463   1.010 -0.5032 -0.3967  0.6738
 7856TIP3    H223533   0.875   0.376   0.932  0.1272  0.8007 -1.5533
 7857TIP3   OH223534   3.365   2.204   0.909 -0.3506 -0.1499 -0.2968
 7857TIP3    H123535   3.301   2.172   0.846  0.1130  0.6866 -1.2127
 7857TIP3    H223536   3.363   2.299   0.899 -0.4184  0.0170  1.1091
 7858TIP3   OH223537   2.393   0.572   1.284  0.3543  0.2461  0.3831
 7858TIP3    H123538   2.373   0.661   1.315 -0.5210 -0.1209  0.9188
 7858TIP3    H223539   2.353   0.569   1.197  1.0774  0.6266  0.0278
 7859TIP3   OH223540   1.086   6.641   5.072 -0.2992 -0.0463 -0.3537
 7859TIP3    H123541   1.103   6.550   5.047 -0.0659  0.1571 -0.9561
 7859TIP3    H223542   1.150   6.660   5.140 -0.0646 -0.2008 -0.5300
 7860TIP3   OH223543   4.646   1.008   0.320 -0.4080 -0.0140 -0.1441
 7860TIP3    H123544   4.726   1.045   0.283 -0.5584 -0.1406 -0.5960
 7860TIP3    H223545   4.578   1.024   0.255 -0.9008  0.6784  0.5194
 7861TIP3   OH223546   1.555   5.886   3.612 -0.2302 -0.2566 -0.6631
 7861TIP3    H123547   1.627   5.912   3.669  0.0452  0.5338 -1.3626
 7861TIP3    H223548   1.573   5.794   3.592  0.1598 -0.2812 -0.2258
 7862TIP3   OH223549   3.752   4.735   3.930  0.3212  0.1578 -0.5391
 7862TIP3    H123550   3.682   4.797   3.913  0.2520  0.7505  1.6308
 7862TIP3    H223551   3.711   4.666   3.981  1.3727  0.7950  1.2492
 7863TIP3   OH223552   6.863   5.844   4.054 -0.1180 -0.1025  0.9323
 7863TIP3    H123553   6.874   5.762   4.006 -1.5493 -0.4627  1.1970
 7863TIP3    H223554   6.794   5.827   4.117  1.4179  0.5071  2.8641
 7864TIP3   OH223555   5.765   5.754   5.086 -0.3098 -0.3057 -0.3952
 7864TIP3    H123556   5.790   5.782   4.998 -0.4192 -1.6170 -0.8581
 7864TIP3    H223557   5.846   5.723   5.125 -0.4752 -0.7922 -0.4407
 7865TIP3   OH223558   3.036   1.727   3.775  0.0578 -0.4366 -0.0352
 7865TIP3    H123559   3.101   1.686   3.832  1.6211  0.8703 -0.8138
 7865TIP3    H223560   2.970   1.659   3.762  2.0153 -2.3553 -0.4518
 7866TIP3   OH223561   6.138   4.921   2.255  0.2367  0.2402 -0.3122
 7866TIP3    H123562   6.229   4.949   2.266  0.4386 -0.7229  0.6295
 7866TIP3    H223563   6.087   4.995   2.288  0.7269  0.1576  0.6953
 7867TIP3   OH223564   4.861   1.019   2.250 -0.4374 -0.1758 -0.1501
 7867TIP3    H123565   4.793   0.976   2.302 -0.2693 -1.0804 -0.6544
 7867TIP3    H223566   4.834   1.005   2.160 -0.7457  1.4163 -0.3238
 7868TIP3   OH223567   1.033   1.218   4.142 -0.5086 -0.2878 -0.2972
 7868TIP3    H123568   0.994   1.295   4.104  0.1189  0.0339 -0.3096
 7868TIP3    H223569   1.127   1.226   4.122 -0.2264 -0.3187  0.9250
 7869TIP3   OH223570   1.569   6.204   3.048 -0.3060  0.0454  0.0812
 7869TIP3    H123571   1.544   6.196   2.956 -0.6876  1.0226  0.0885
 7869TIP3    H223572   1.537   6.123   3.088 -1.3760  0.2129 -0.3812
 7870TIP3   OH223573   1.260   4.344   5.052 -0.7039 -0.3403 -0.2045
 7870TIP3    H123574   1.298   4.258   5.066 -0.7890 -0.6740 -1.8042
 7870TIP3    H223575   1.168   4.334   5.076 -0.3120 -0.1281  1.5244
 7871TIP3   OH223576   7.212   5.006   0.669 -0.2017  0.2253 -0.0028
 7871TIP3    H123577   7.259   5.067   0.725 -0.1337 -1.0857  1.4412
 7871TIP3    H223578   7.195   4.930   0.725 -1.6351 -0.4529 -1.2809
 7872TIP3   OH223579   5.615   4.735   0.749  0.4113  0.1164 -0.0311
 7872TIP3    H123580   5.677   4.665   0.731 -0.2056 -0.9783  1.8168
 7872TIP3    H223581   5.617   4.744   0.844  0.0973  2.2956 -0.1858
 7873TIP3   OH223582   2.215   4.140   1.408 -0.0092 -0.1016 -0.1765
 7873TIP3    H123583   2.197   4.066   1.350 -2.2460 -0.0214  0.3253
 7873TIP3    H223584   2.163   4.212   1.371  2.0279  1.2608 -0.5963
 7874TIP3   OH223585   3.165   6.120   0.830 -0.6348  0.4877  0.1102
 7874TIP3    H123586   3.129   6.157   0.911 -0.5678  0.4947  0.1368
 7874TIP3    H223587   3.260   6.123   0.842 -0.6328 -1.7278  1.0307
 7875TIP3   OH223588   6.603   6.588   1.355 -0.4380  0.2981  0.6449
 7875TIP3    H123589   6.551   6.648   1.301 -2.1115  0.0024  1.8401
 7875TIP3    H223590   6.671   6.644   1.392 -1.1092  1.1754  0.6171
 7876TIP3   OH223591   3.023   5.570   5.003  0.7904 -0.0279 -0.5447
 7876TIP3    H123592   3.059   5.658   5.016  2.3802 -0.6008 -0.8468
 7876TIP3    H223593   2.949   5.583   4.944 -0.3535  1.3552  1.0685
 7877TIP3   OH223594   3.070   2.827   4.014  0.1229  0.2878 -0.0187
 7877TIP3    H123595   3.096   2.846   3.923 -0.6453 -0.2290 -0.3531
 7877TIP3    H223596   3.012   2.752   4.007 -1.0414  1.0886  0.7604
 7878TIP3   OH223597   1.157   0.712   1.168  0.2528 -0.2026  0.1909
 7878TIP3    H123598   1.149   0.617   1.164 -0.1370 -0.1629 -0.0347
 7878TIP3    H223599   1.251   0.728   1.171  0.3061 -0.6232  1.0357
 7879TIP3   OH223600   2.170   6.233   5.534  0.3339  0.0424  0.5517
 7879TIP3    H123601   2.154   6.327   5.528 -1.2265 -0.2943 -3.5241
 7879TIP3    H223602   2.260   6.222   5.504  0.2980  0.1779  0.3939
 7880TIP3   OH223603   3.744   0.660   0.274 -0.0879 -0.0716  0.0211
 7880TIP3    H123604   3.777   0.570   0.273  1.8526  0.5924 -0.9014
 7880TIP3    H223605   3.656   0.653   0.238  0.4262 -1.4857 -1.1009
 7881TIP3   OH223606   1.068   6.466   2.576  0.3872  0.4502 -0.1050
 7881TIP3    H123607   1.085   6.532   2.510  0.6459  0.8787  0.3878
 7881TIP3    H223608   1.138   6.401   2.564 -0.4282 -0.2550 -1.2335
 7882TIP3   OH223609   7.084   1.693   2.239  0.2473 -0.0972  0.2822
 7882TIP3    H123610   7.144   1.662   2.307  0.5174 -0.8105 -0.2571
 7882TIP3    H223611   7.142   1.734   2.174 -0.2518  3.5484  1.9385
 7883TIP3   OH223612   3.971   3.012   0.942  0.5053 -0.0645 -0.1445
 7883TIP3    H123613   4.029   2.982   1.011  1.1603 -0.3383 -0.7923
 7883TIP3    H223614   3.915   2.937   0.923  1.5066 -0.6030 -1.1068
 7884TIP3   OH223615   2.949   4.430   4.618  0.3851  0.6284 -0.3116
 7884TIP3    H123616   3.010   4.442   4.545 -1.5870  1.0841 -1.9788
 7884TIP3    H223617   2.897   4.354   4.593  0.7182 -0.2341  1.4461
 7885TIP3   OH223618   0.257   5.932   5.288  0.1323  0.0877  0.1407
 7885TIP3    H123619   0.181   5.921   5.345 -0.1125 -1.9205 -0.5185
 7885TIP3    H223620   0.328   5.956   5.348 -0.6863  0.6099  0.9337
 7886TIP3   OH223621   5.672   3.638   5.452 -0.2078 -1.1855 -0.3434
 7886TIP3    H123622   5.762   3.657   5.427 -0.3561 -0.7918 -0.5965
 7886TIP3    H223623   5.621   3.710   5.414 -0.7485 -1.9213 -1.0396
 7887TIP3   OH223624   0.577   4.889   0.828 -0.3856  0.1244  0.4200
 7887TIP3    H123625   0.556   4.905   0.736  0.5433  4.4009  0.7433
 7887TIP3    H223626   0.503   4.839   0.861 -1.7807  0.3068 -2.1750
 7888TIP3   OH223627   6.960   0.220   0.547  0.8626  0.4433  0.4461
 7888TIP3    H123628   7.050   0.219   0.582  1.5269  1.3951 -1.1294
 7888TIP3    H223629   6.904   0.225   0.624  2.2310  1.4701  1.4173
 7889TIP3   OH223630   5.241   3.379   1.030  0.0796 -0.6986 -0.0873
 7889TIP3    H123631   5.253   3.473   1.017  0.9709 -0.5549  1.5109
 7889TIP3    H223632   5.150   3.371   1.060 -0.3726 -0.5016 -1.3511
 7890TIP3   OH223633   4.946   6.685   3.260 -0.3957  0.3523  0.1917
 7890TIP3    H123634   5.001   6.757   3.228 -0.5004  0.6752  0.7129
 7890TIP3    H223635   4.889   6.664   3.187  2.0129 -1.6731 -1.2811
 7891TIP3   OH223636   1.687   5.366   2.034 -0.4138 -0.2728  0.0861
 7891TIP3    H123637   1.593   5.349   2.048 -0.6672  1.0347  0.1246
 7891TIP3    H223638   1.723   5.377   2.121 -0.6074  1.0370  0.0186
 7892TIP3   OH223639   2.395   1.878   2.803 -0.2186  0.0644 -0.8621
 7892TIP3    H123640   2.380   1.966   2.838  0.0369  0.1566 -0.9833
 7892TIP3    H223641   2.468   1.888   2.742  0.0123 -0.2846 -0.6548
 7893TIP3   OH223642   2.372   6.445   2.763  0.2833  0.4355 -0.9898
 7893TIP3    H123643   2.373   6.349   2.765  1.4823  0.4411  0.5563
 7893TIP3    H223644   2.461   6.470   2.784 -0.2013  1.9078 -0.5934
 7894TIP3   OH223645   2.877   0.621   3.614 -0.2788 -0.1392 -0.0538
 7894TIP3    H123646   2.886   0.712   3.587 -1.2234  0.2690  0.9442
 7894TIP3    H223647   2.783   0.610   3.630 -0.2385 -1.4100 -0.5711
 7895TIP3   OH223648   1.940   6.218   3.776  0.0482  0.3490 -0.3420
 7895TIP3    H123649   2.035   6.229   3.773  0.1832 -0.0568  1.3067
 7895TIP3    H223650   1.927   6.138   3.827 -1.1920  1.0012  0.4103
 7896TIP3   OH223651   1.732   2.400   0.765  0.7388 -0.0925  0.3799
 7896TIP3    H123652   1.749   2.403   0.671  4.0450  0.8592  0.8702
 7896TIP3    H223653   1.734   2.306   0.786  0.7895 -0.2716 -0.3731
 7897TIP3   OH223654   3.999   1.351   4.217 -0.1088 -0.3027  0.1695
 7897TIP3    H123655   3.908   1.381   4.214 -1.5350 -4.0734  0.5248
 7897TIP3    H223656   3.998   1.278   4.278  2.4846 -2.4518 -2.1050
 7898TIP3   OH223657   3.189   5.338   5.660  0.1797  0.1052  0.4045
 7898TIP3    H123658   3.195   5.308   5.751  1.8915  0.4311  0.4141
 7898TIP3    H223659   3.279   5.347   5.631 -0.2540 -2.0919 -2.0468
 7899TIP3   OH223660   3.933   0.549   5.445  0.2188 -0.3254 -0.3334
 7899TIP3    H123661   3.992   0.476   5.424  1.5014  0.2499  1.1474
 7899TIP3    H223662   3.899   0.528   5.532 -1.5207 -0.4550 -1.0010
 7900TIP3   OH223663   2.606   6.709   4.422 -0.0952  0.3085 -0.1617
 7900TIP3    H123664   2.542   6.661   4.371 -0.7402  2.1552 -1.1704
 7900TIP3    H223665   2.689   6.664   4.405 -0.4436  0.3208 -2.1377
 7901TIP3   OH223666   5.760   4.129   0.793  0.4746 -0.1857 -0.4698
 7901TIP3    H123667   5.844   4.147   0.751  0.6489  1.6774  0.5823
 7901TIP3    H223668   5.753   4.194   0.863 -1.0300 -1.4560  0.6414
 7902TIP3   OH223669   6.672   6.680   0.821  0.8670 -0.0898  0.2360
 7902TIP3    H123670   6.729   6.699   0.895  0.9131  0.2891  0.1047
 7902TIP3    H223671   6.584   6.675   0.859  1.1476 -2.3139  0.7149
 7903TIP3   OH223672   3.805   4.227   4.938  0.0358  0.0326 -0.0277
 7903TIP3    H123673   3.867   4.228   4.865 -0.9725  3.1486 -0.9882
 7903TIP3    H223674   3.861   4.222   5.016  1.2843 -0.6349 -0.9338
 7904TIP3   OH223675   4.083   6.793   3.587  0.7357 -0.3358  0.0078
 7904TIP3    H123676   3.997   6.754   3.600 -0.3978  1.8329 -0.5562
 7904TIP3    H223677   4.124   6.739   3.521 -1.5660  0.4700 -2.2300
 7905TIP3   OH223678   3.610   4.619   0.091  0.2559 -0.3059 -0.4853
 7905TIP3    H123679   3.658   4.690   0.049 -0.3454  0.3085 -0.1692
 7905TIP3    H223680   3.523   4.657   0.109  0.0326 -1.0198 -0.0193
 7906TIP3   OH223681   5.899   2.884   1.388 -0.3266 -0.4332 -0.1054
 7906TIP3    H123682   5.962   2.938   1.436  0.1567 -0.9149 -0.1851
 7906TIP3    H223683   5.950   2.810   1.357 -0.5828 -0.0449 -1.5418
 7907TIP3   OH223684   2.644   4.296   0.667  0.4894 -0.2177 -0.1167
 7907TIP3    H123685   2.586   4.365   0.634  3.0941  0.8298 -2.9704
 7907TIP3    H223686   2.728   4.312   0.624  2.8641 -1.9239  3.3718
 7908TIP3   OH223687   1.576   2.837   2.035 -0.3086  0.5300 -0.1501
 7908TIP3    H123688   1.575   2.897   1.961  0.1645  0.0605 -0.5393
 7908TIP3    H223689   1.485   2.835   2.066 -0.3824  1.2205 -0.3083
 7909TIP3   OH223690   6.001   6.337   3.358  0.1359 -0.1281  0.0157
 7909TIP3    H123691   6.015   6.314   3.450  0.4880 -0.6404 -0.1593
 7909TIP3    H223692   6.088   6.334   3.319  0.2490  1.7730  0.0206
 7910TIP3   OH223693   1.489   6.142   0.566 -0.1369  0.3301 -0.4260
 7910TIP3    H123694   1.546   6.172   0.636 -0.3209 -0.1922 -0.0455
 7910TIP3    H223695   1.549   6.101   0.503  0.0659  1.0918 -0.7474
 7911TIP3   OH223696   5.225   5.173   1.433 -0.1778  0.0894 -0.0504
 7911TIP3    H123697   5.135   5.200   1.417  0.5617  1.2643 -2.7944
 7911TIP3    H223698   5.265   5.169   1.346  2.5866  0.2399  1.1105
 7912TIP3   OH223699   1.833   6.025   0.025 -0.2165 -0.2787 -0.1483
 7912TIP3    H123700   1.861   5.987   0.108 -0.5878  1.1913  0.6822
 7912TIP3    H223701   1.748   6.064   0.044  0.3501  1.3542 -0.8249
 7913TIP3   OH223702   4.591   5.180   1.488 -0.3197 -0.0478  0.4689
 7913TIP3    H123703   4.580   5.182   1.583 -0.1320  0.0439  0.4882
 7913TIP3    H223704   4.654   5.250   1.469 -0.5012  0.0611  0.2573
 7914TIP3   OH223705   5.874   4.137   3.865  0.1552  0.0470  0.2372
 7914TIP3    H123706   5.924   4.094   3.796 -0.0658  1.6092 -0.9510
 7914TIP3    H223707   5.939   4.185   3.915  0.1597 -0.1096  0.3846
 7915TIP3   OH223708   5.306   6.207   5.210 -0.4496 -0.3251  0.3304
 7915TIP3    H123709   5.296   6.198   5.304 -0.0449  1.8007  0.6128
 7915TIP3    H223710   5.216   6.203   5.176 -1.3311  4.3743  1.4369
 7916TIP3   OH223711   3.848   4.727   4.446 -0.5766 -0.1446 -0.6968
 7916TIP3    H123712   3.865   4.639   4.478 -1.0222 -1.0708 -2.8238
 7916TIP3    H223713   3.880   4.727   4.356  0.1059  2.1191 -0.5197
 7917TIP3   OH223714   6.878   3.871   0.280  0.0051  0.3972  0.4531
 7917TIP3    H123715   6.902   3.788   0.238  0.3522  0.0458  1.3329
 7917TIP3    H223716   6.944   3.932   0.250 -0.6746  0.5534 -0.7941
 7918TIP3   OH223717   1.635   5.332   3.850 -0.1740  0.0264  0.2181
 7918TIP3    H123718   1.553   5.347   3.896  0.5866  1.9141  1.0691
 7918TIP3    H223719   1.657   5.417   3.812  0.5616 -0.8472 -1.4213
 7919TIP3   OH223720   7.015   5.740   0.892 -0.0512  0.0825 -0.3213
 7919TIP3    H123721   7.106   5.727   0.916 -0.0492  2.7311  1.5615
 7919TIP3    H223722   7.017   5.802   0.819 -0.3088  0.9015  0.3425
 7920TIP3   OH223723   6.594   1.281   0.527 -0.3268 -0.5460 -0.3208
 7920TIP3    H123724   6.686   1.270   0.505 -0.3606  0.9187 -1.3414
 7920TIP3    H223725   6.551   1.205   0.487  0.3829 -1.0849 -0.0873
 7921TIP3   OH223726   5.966   4.574   1.803 -0.0930  0.5393 -0.5315
 7921TIP3    H123727   5.976   4.518   1.880  1.9385  2.7138  0.9250
 7921TIP3    H223728   5.881   4.550   1.767 -0.1900 -2.0214  1.1489
 7922TIP3   OH223729   3.137   3.920   4.517  0.1096 -0.3392 -0.0771
 7922TIP3    H123730   3.226   3.954   4.514  0.3778 -1.0883 -1.4812
 7922TIP3    H223731   3.098   3.947   4.434 -0.8947 -0.2661  0.3987
 7923TIP3   OH223732   6.725   0.645   1.184 -0.1796 -0.0579 -0.5826
 7923TIP3    H123733   6.781   0.579   1.226  1.2239  1.0584 -0.6318
 7923TIP3    H223734   6.785   0.697   1.130 -1.2624  1.2036 -0.6185
 7924TIP3   OH223735   4.938   5.877   3.394  0.0049 -0.2363 -0.6197
 7924TIP3    H123736   5.012   5.880   3.454 -0.7445  0.2101  0.3209
 7924TIP3    H223737   4.864   5.853   3.449 -0.3910 -1.6791 -1.7267
 7925TIP3   OH223738   5.810   1.928   5.618  0.0514 -0.1956 -0.0087
 7925TIP3    H123739   5.857   1.877   5.552  2.0028 -1.2985  2.1005
 7925TIP3    H223740   5.765   1.863   5.671  0.9588  0.3840  1.5302
 7926TIP3   OH223741   1.130   6.692   2.423 -0.6044  0.7971  0.1259
 7926TIP3    H123742   1.066   6.763   2.426 -0.5514  0.8873 -0.7687
 7926TIP3    H223743   1.195   6.720   2.359  0.5944  0.9068  1.3390
 7927TIP3   OH223744   1.667   2.899   2.960  1.0685  0.0612  0.0662
 7927TIP3    H123745   1.709   2.901   2.874 -0.0870  1.2275 -0.5039
 7927TIP3    H223746   1.654   2.806   2.978  0.2434 -0.1886 -1.5936
 7928TIP3   OH223747   4.167   6.665   0.170  0.0233 -0.5986  0.0945
 7928TIP3    H123748   4.231   6.594   0.176  0.4245 -0.1466  1.6352
 7928TIP3    H223749   4.150   6.689   0.261 -1.5236  0.0343 -0.3355
 7929TIP3   OH223750   3.168   4.810   4.103  0.6055  0.1815  0.1554
 7929TIP3    H123751   3.167   4.723   4.063  0.1482  0.2159  0.0834
 7929TIP3    H223752   3.247   4.852   4.069 -0.4802  0.7186 -1.8094
 7930TIP3   OH223753   5.249   3.262   0.090 -0.6947 -0.2622  0.1776
 7930TIP3    H123754   5.221   3.310   0.012  0.5782 -3.4075 -2.4544
 7930TIP3    H223755   5.340   3.288   0.103 -0.9486  0.3672  0.7333
 7931TIP3   OH223756   4.146   6.239   5.212 -0.0321 -0.0293 -0.0146
 7931TIP3    H123757   4.184   6.284   5.136  0.4247  0.6346  0.5933
 7931TIP3    H223758   4.149   6.304   5.282 -0.5864 -0.5872  0.5410
 7932TIP3   OH223759   4.267   0.436   1.240 -0.3348 -0.3789  0.1981
 7932TIP3    H123760   4.254   0.381   1.163 -0.6370 -0.7546  0.5158
 7932TIP3    H223761   4.202   0.406   1.303  0.3869 -0.5784  0.8725
 7933TIP3   OH223762   2.658   2.730   3.420 -0.0948  0.4645  0.0443
 7933TIP3    H123763   2.694   2.656   3.467 -0.0870  0.2252 -0.3307
 7933TIP3    H223764   2.628   2.790   3.488 -1.7450 -0.6699  0.3813
 7934TIP3   OH223765   5.649   1.187   2.005  0.3052  0.3739  0.1554
 7934TIP3    H123766   5.689   1.127   1.942 -2.8807  1.3357 -3.1114
 7934TIP3    H223767   5.647   1.271   1.960 -3.0349  0.8957  0.9891
 7935TIP3   OH223768   1.282   0.933   4.355 -0.3405  0.4364 -0.3642
 7935TIP3    H123769   1.267   1.026   4.373  2.8112  0.8656  0.7629
 7935TIP3    H223770   1.352   0.932   4.290  1.0005 -1.0505  0.9926
 7936TIP3   OH223771   5.056   6.366   1.878 -0.3039 -0.0540 -0.1873
 7936TIP3    H123772   5.016   6.409   1.953  2.4199  0.0257  1.3506
 7936TIP3    H223773   5.020   6.412   1.802 -2.0280  0.8406  1.1042
 7937TIP3   OH223774   6.106   3.364   1.779 -0.1154 -0.3353  0.0308
 7937TIP3    H123775   6.018   3.370   1.741 -0.4081  0.3102  0.7700
 7937TIP3    H223776   6.162   3.415   1.720 -0.2624 -0.6489 -0.3790
 7938TIP3   OH223777   6.806   2.075   3.772 -0.1865 -0.1176  0.2793
 7938TIP3    H123778   6.839   2.153   3.816 -2.3183  0.3053  1.2407
 7938TIP3    H223779   6.745   2.036   3.834  1.5491 -3.1910  0.2510
 7939TIP3   OH223780   3.539   4.183   0.240 -0.3600 -0.0483  1.1992
 7939TIP3    H123781   3.586   4.137   0.309 -1.4616 -0.2005  1.8543
 7939TIP3    H223782   3.475   4.237   0.285 -0.9606  0.0115  0.3078
 7940TIP3   OH223783   0.055   1.118   0.297 -0.1264  0.3760  0.0461
 7940TIP3    H123784   0.037   1.109   0.391  1.9069  2.0267  0.6456
 7940TIP3    H223785   0.142   1.081   0.285 -1.4365 -2.5556 -1.8339
 7941TIP3   OH223786   1.477   0.917   4.150  0.1202  0.6566 -0.5699
 7941TIP3    H123787   1.404   0.908   4.089 -0.5492  1.3726  0.1012
 7941TIP3    H223788   1.550   0.873   4.107 -0.2684  1.3336 -1.9839
 7942TIP3   OH223789   1.905   6.339   1.157  0.0943  0.0298  0.6451
 7942TIP3    H123790   1.895   6.247   1.182  0.5592 -0.7126 -1.6716
 7942TIP3    H223791   1.909   6.386   1.240 -0.3981 -2.0045  1.8908
 7943TIP3   OH223792   1.181   4.863   1.989 -0.7037  0.4469  0.0079
 7943TIP3    H123793   1.155   4.777   2.022 -2.3927  0.2447 -1.6960
 7943TIP3    H223794   1.233   4.901   2.060 -0.7771 -1.5507  1.2093
 7944TIP3   OH223795   0.710   5.966   4.897 -0.1412  0.0045 -0.2662
 7944TIP3    H123796   0.733   5.937   4.985 -0.4668  0.2412 -0.1010
 7944TIP3    H223797   0.639   6.028   4.910  1.4887  2.0284 -0.4907
 7945TIP3   OH223798   5.775   2.228   2.816  0.2205 -0.4822  0.2814
 7945TIP3    H123799   5.817   2.142   2.806  0.4567 -0.1095 -3.4776
 7945TIP3    H223800   5.753   2.254   2.727  0.6934  3.6581  1.1718
 7946TIP3   OH223801   3.354   1.140   0.184 -0.1576 -0.2528  0.1944
 7946TIP3    H123802   3.381   1.225   0.219 -0.5611 -0.4505  1.0201
 7946TIP3    H223803   3.259   1.145   0.180 -0.1234 -0.1889 -1.0518
 7947TIP3   OH223804   3.646   1.958   2.895  0.2035 -0.2261 -0.3052
 7947TIP3    H123805   3.738   1.973   2.919  0.2677  0.2040 -0.7927
 7947TIP3    H223806   3.599   2.033   2.933  0.2034  0.0785 -0.8982
 7948TIP3   OH223807   1.389   1.478   0.846 -0.2488  0.2275  0.0781
 7948TIP3    H123808   1.451   1.458   0.917 -0.4077  1.7093  0.6760
 7948TIP3    H223809   1.318   1.524   0.890  0.0891  2.0281 -1.1474
 7949TIP3   OH223810   4.396   5.127   3.297  0.3517  0.1935 -0.1099
 7949TIP3    H123811   4.460   5.092   3.235 -2.1701 -2.0527 -1.6586
 7949TIP3    H223812   4.313   5.123   3.250 -1.1815  1.6043  2.3040
 7950TIP3   OH223813   2.768   4.069   0.115  0.3382 -0.3437 -0.4172
 7950TIP3    H123814   2.791   4.160   0.134  0.0725 -0.3656  0.0220
 7950TIP3    H223815   2.852   4.023   0.113  0.5221  0.0266 -1.2745
 7951TIP3   OH223816   1.778   2.775   1.021  0.2656  0.1122  0.3714
 7951TIP3    H123817   1.694   2.742   0.991  0.0816 -1.0368  2.0403
 7951TIP3    H223818   1.843   2.722   0.975  0.0521  0.0434  0.1505
 7952TIP3   OH223819   3.979   2.124   0.303 -0.2691  0.1457  0.6589
 7952TIP3    H123820   3.943   2.070   0.373 -0.9053  0.1069  0.3105
 7952TIP3    H223821   3.926   2.204   0.305 -0.3365  0.1165  0.1802
 7953TIP3   OH223822   0.996   4.011   3.946 -0.0049 -0.1061 -0.1197
 7953TIP3    H123823   1.060   3.964   3.892  0.5515 -0.6282  0.9633
 7953TIP3    H223824   0.923   4.029   3.886  0.1825 -1.4974 -0.8110
 7954TIP3   OH223825   0.127   1.515   2.899 -0.3081  0.4873 -0.2228
 7954TIP3    H123826   0.135   1.542   2.991 -1.7539  1.9644 -0.4841
 7954TIP3    H223827   0.049   1.561   2.867 -1.7053 -2.4197 -1.3632
 7955TIP3   OH223828   2.586   4.046   3.829 -0.2677 -0.6237  0.7195
 7955TIP3    H123829   2.565   4.138   3.814  0.0125 -0.7307 -0.4277
 7955TIP3    H223830   2.533   3.998   3.766  1.3767 -1.0689 -0.4067
 7956TIP3   OH223831   0.118   0.913   0.986  0.3677 -0.2439 -0.1558
 7956TIP3    H123832   0.136   0.840   1.044  1.4946  0.3858  0.3207
 7956TIP3    H223833   0.140   0.991   1.038 -1.5980  0.4991 -0.3419
 7957TIP3   OH223834   4.742   0.220   4.620 -0.1026 -0.3610 -0.5913
 7957TIP3    H123835   4.761   0.224   4.526 -0.5993 -0.4316 -0.6941
 7957TIP3    H223836   4.795   0.146   4.651 -0.4926 -0.8020 -0.9526
 7958TIP3   OH223837   6.205   1.030   1.160 -0.3312 -0.1718  0.6129
 7958TIP3    H123838   6.211   0.965   1.090 -3.1410 -1.9264  1.8475
 7958TIP3    H223839   6.170   1.108   1.116  1.8221  0.1666 -0.6341
 7959TIP3   OH223840   0.921   4.004   5.074  0.1839  0.2385  0.4645
 7959TIP3    H123841   0.847   4.022   5.017  0.3519  0.5327  0.3341
 7959TIP3    H223842   0.987   3.964   5.017 -0.6387 -2.0197  0.9842
 7960TIP3   OH223843   1.815   6.598   5.727  0.0108  0.2205 -0.5669
 7960TIP3    H123844   1.821   6.689   5.697  2.7809  0.7637  1.2908
 7960TIP3    H223845   1.904   6.565   5.720 -0.3662 -1.3973  1.5844
 7961TIP3   OH223846   5.090   4.911   4.920 -0.3660  0.1805 -0.1903
 7961TIP3    H123847   5.174   4.892   4.961  0.8906 -0.4361 -2.8507
 7961TIP3    H223848   5.030   4.848   4.960  0.3960  0.5850  1.7116
 7962TIP3   OH223849   4.251   6.454   3.087 -0.4371 -0.4762 -0.2196
 7962TIP3    H123850   4.347   6.454   3.085 -0.2220  3.8746  0.5796
 7962TIP3    H223851   4.229   6.405   3.167  1.2054 -0.2472  0.4185
 7963TIP3   OH223852   0.599   0.105   2.967  0.9466 -0.0347 -0.0658
 7963TIP3    H123853   0.642   0.045   2.905  2.3357  0.1818  0.6390
 7963TIP3    H223854   0.540   0.049   3.017  0.8581 -0.4676 -0.6421
 7964TIP3   OH223855   4.294   2.025   2.251  0.4724  0.1012  0.1545
 7964TIP3    H123856   4.208   1.996   2.220  0.4877  1.9348 -1.8033
 7964TIP3    H223857   4.356   1.973   2.201  0.5480 -0.5965  0.9381
 7965TIP3   OH223858   7.037   2.196   0.899  0.1653 -0.1055  0.6303
 7965TIP3    H123859   6.964   2.208   0.839 -1.2555 -1.5850  1.9565
 7965TIP3    H223860   7.043   2.102   0.912  4.1827 -0.3507 -1.5407
 7966TIP3   OH223861   1.534   5.829   0.235 -0.2899 -0.1980  0.4800
 7966TIP3    H123862   1.494   5.835   0.322 -0.2766  0.4623  0.4472
 7966TIP3    H223863   1.601   5.762   0.244 -2.1602 -2.2320  0.2321
 7967TIP3   OH223864   2.485   3.010   5.301 -0.0510 -0.0068 -0.2142
 7967TIP3    H123865   2.421   3.080   5.310 -0.3143 -0.3452  0.6848
 7967TIP3    H223866   2.560   3.039   5.353 -0.0873 -0.2936  0.0047
 7968TIP3   OH223867   5.605   0.326   2.177 -0.0904  0.5729 -0.1353
 7968TIP3    H123868   5.682   0.377   2.205  0.1708  0.4560 -0.6266
 7968TIP3    H223869   5.533   0.389   2.180  0.4256  1.3054 -1.8047
 7969TIP3   OH223870   0.100   4.032   5.833  0.0408  0.3011 -0.2147
 7969TIP3    H123871   0.046   3.990   5.767  0.4535  0.8806 -0.9321
 7969TIP3    H223872   0.040   4.089   5.882 -0.2305  0.0027 -0.2034
 7970TIP3   OH223873   5.260   1.306   2.169  0.1479  0.5166 -0.0688
 7970TIP3    H123874   5.168   1.285   2.155  0.6120 -0.2645 -2.4587
 7970TIP3    H223875   5.295   1.318   2.080  2.4549  0.3076  0.7548
 7971TIP3   OH223876   3.446   2.441   2.806 -0.2491  0.0051  0.0474
 7971TIP3    H123877   3.437   2.421   2.899  1.2155 -0.0547  0.1926
 7971TIP3    H223878   3.357   2.462   2.778 -0.9514 -1.3737  1.1197
 7972TIP3   OH223879   1.173   4.608   3.350  0.1770  0.1616  0.7107
 7972TIP3    H123880   1.170   4.517   3.379 -0.8890 -0.1046 -0.1933
 7972TIP3    H223881   1.174   4.659   3.432  2.4610 -0.6548  1.2566
 7973TIP3   OH223882   5.294   3.508   4.197  0.5155 -0.1145 -0.1026
 7973TIP3    H123883   5.295   3.413   4.208  2.2414 -0.1853 -0.7301
 7973TIP3    H223884   5.335   3.523   4.113  1.9335  1.2811  0.7945
 7974TIP3   OH223885   5.388   1.619   0.252  0.7877  0.1563 -0.2322
 7974TIP3    H123886   5.391   1.712   0.230  1.1080  0.4887  1.0852
 7974TIP3    H223887   5.364   1.576   0.171 -4.2917  1.7584  0.1002
 7975TIP3   OH223888   6.944   2.085   0.409 -0.1192  0.1012 -0.1522
 7975TIP3    H123889   6.963   1.992   0.421  0.7161  0.4049  1.1043
 7975TIP3    H223890   7.017   2.118   0.358 -0.0155  0.2082  0.0621
 7976TIP3   OH223891   4.831   4.482   0.458 -0.4036 -0.5015 -0.3779
 7976TIP3    H123892   4.832   4.390   0.431 -0.2524  0.0218 -2.3250
 7976TIP3    H223893   4.913   4.495   0.505 -0.0311 -1.1587 -0.8370
 7977TIP3   OH223894   2.826   3.960   3.762  0.2352 -0.2060  0.5240
 7977TIP3    H123895   2.861   3.886   3.811 -1.4268 -1.6160 -0.3474
 7977TIP3    H223896   2.744   3.981   3.805  0.1040  0.3378  0.0201
 7978TIP3   OH223897   1.086   5.740   3.700 -0.4825  0.1082 -0.3242
 7978TIP3    H123898   1.151   5.793   3.746 -2.8379  1.1540  2.0373
 7978TIP3    H223899   1.091   5.654   3.744 -1.9730  0.7850  1.3011
 7979TIP3   OH223900   5.571   5.969   1.324 -0.6256 -0.1591 -0.1352
 7979TIP3    H123901   5.615   5.974   1.239  0.9541  0.5173  0.6830
 7979TIP3    H223902   5.508   6.041   1.322 -0.5749 -0.1207 -0.7086
 7980TIP3   OH223903   0.128   0.632   2.868  0.0025  0.0883  0.4141
 7980TIP3    H123904   0.157   0.572   2.799  0.6931 -0.6707  1.3438
 7980TIP3    H223905   0.161   0.594   2.949 -0.2118  1.3278  1.1098
 7981TIP3   OH223906   1.664   4.570   1.171 -0.1785  0.1833 -0.1473
 7981TIP3    H123907   1.611   4.523   1.236 -0.0674  2.2146  1.5176
 7981TIP3    H223908   1.600   4.605   1.110 -0.3380 -1.2309 -0.8249
 7982TIP3   OH223909   3.053   6.092   5.263 -0.1905  0.2049 -0.5191
 7982TIP3    H123910   3.141   6.105   5.226 -0.3987  3.3758 -0.1726
 7982TIP3    H223911   3.068   6.078   5.356 -0.0605  0.7376 -0.4610
 7983TIP3   OH223912   0.569   4.365   2.967  0.1976 -0.1321 -0.4844
 7983TIP3    H123913   0.552   4.286   2.914  1.3245  0.3805 -1.6524
 7983TIP3    H223914   0.664   4.369   2.973  0.1019  0.3144  0.8775
 7984TIP3   OH223915   4.001   2.924   4.550 -0.4235 -0.0385 -0.2528
 7984TIP3    H123916   4.074   2.911   4.611  0.1631 -0.9840 -1.1258
 7984TIP3    H223917   3.966   2.837   4.535 -0.5987  0.1879 -1.2152
 7985TIP3   OH223918   1.049   2.541   5.026  0.2547 -0.1672  0.2253
 7985TIP3    H123919   0.999   2.463   5.054 -0.1658 -0.0599 -0.2159
 7985TIP3    H223920   1.000   2.615   5.061 -0.3239 -0.0247 -0.8362
 7986TIP3   OH223921   0.012   2.443   0.186  0.5356  0.2266 -0.3186
 7986TIP3    H123922   0.071   2.397   0.244 -2.5082 -0.4246  2.5990
 7986TIP3    H223923  -0.004   2.527   0.230 -1.6122 -0.1563 -0.2285
 7987TIP3   OH223924   0.148   0.445   0.952 -0.1315  0.2416  0.3161
 7987TIP3    H123925   0.191   0.360   0.958 -0.3586 -0.0009 -1.1445
 7987TIP3    H223926   0.185   0.485   0.873  0.4163  1.7619  1.2984
 7988TIP3   OH223927   3.377   1.635   5.201  0.2445  0.0717  1.3754
 7988TIP3    H123928   3.357   1.584   5.279  1.1439  1.8026  2.8372
 7988TIP3    H223929   3.412   1.718   5.235  2.8405  0.0453 -0.8622
 7989TIP3   OH223930   6.599   5.728   1.777 -0.1370  0.0248  0.1594
 7989TIP3    H123931   6.578   5.773   1.695  0.2528 -0.6214 -0.3082
 7989TIP3    H223932   6.585   5.794   1.845 -0.4578  0.5741 -0.4246
 7990TIP3   OH223933   5.126   2.877   0.755  0.5139  0.3395  0.2950
 7990TIP3    H123934   5.214   2.888   0.793  0.7828  0.9689 -0.4814
 7990TIP3    H223935   5.080   2.822   0.818  1.6683 -0.5386  0.4008
 7991TIP3   OH223936   2.761   1.082   1.877  0.1516 -0.2563  0.1727
 7991TIP3    H123937   2.672   1.086   1.841 -0.0051  1.9195  0.6767
 7991TIP3    H223938   2.754   1.125   1.962  1.8958  1.0693 -0.3024
 7992TIP3   OH223939   3.519   1.877   1.176  0.3488  0.1180 -0.0994
 7992TIP3    H123940   3.471   1.801   1.207  0.1873  0.8323  1.5181
 7992TIP3    H223941   3.517   1.938   1.250 -0.2910  2.0600 -1.6296
 7993TIP3   OH223942   6.112   5.669   4.450 -0.3590  0.5244  0.2008
 7993TIP3    H123943   6.201   5.668   4.414  0.1298  2.1717  1.3092
 7993TIP3    H223944   6.060   5.717   4.385 -0.0168  1.2506  0.4561
 7994TIP3   OH223945   4.919   3.942   0.275 -0.3898 -0.0817  0.4786
 7994TIP3    H123946   4.957   3.862   0.237 -2.4136 -0.7233 -0.3747
 7994TIP3    H223947   4.853   3.970   0.211 -1.3691  0.9182  1.8514
 7995TIP3   OH223948   0.085   0.018   0.453  0.3321 -0.2635  0.0572
 7995TIP3    H123949   0.050  -0.062   0.492 -1.9063  1.8218  2.7061
 7995TIP3    H223950   0.110   0.072   0.527  0.2613  2.1318 -1.5594
 7996TIP3   OH223951   1.130   0.628   5.534 -0.0027  0.2547 -0.5549
 7996TIP3    H123952   1.149   0.536   5.521 -1.3608  0.1379 -1.8851
 7996TIP3    H223953   1.194   0.674   5.480  0.1910  0.0725 -0.4822
 7997TIP3   OH223954   1.481   0.365   3.184  0.1116 -0.1358 -0.8516
 7997TIP3    H123955   1.533   0.351   3.105 -0.2588  1.9624 -1.5379
 7997TIP3    H223956   1.422   0.438   3.161  0.0475  0.5894  1.3760
 7998TIP3   OH223957   4.778   5.747   1.853 -0.1004  0.4676  0.1107
 7998TIP3    H123958   4.767   5.828   1.804  0.2431 -0.3505 -1.3870
 7998TIP3    H223959   4.868   5.748   1.884 -0.1141  0.6825  0.1392
 7999TIP3   OH223960   5.437   2.305   4.603  0.3734 -0.4694 -0.4094
 7999TIP3    H123961   5.378   2.269   4.669 -0.9186 -0.9313 -1.7528
 7999TIP3    H223962   5.525   2.282   4.634 -0.1409 -0.1408  1.4224
 8000TIP3   OH223963   1.636   0.378   2.432  0.4356 -0.5575  0.7742
 8000TIP3    H123964   1.601   0.433   2.362  0.6348 -1.7916 -0.3239
 8000TIP3    H223965   1.564   0.371   2.495  0.5668  1.3233  1.1819
 8001TIP3   OH223966   4.913   0.135   3.737  0.0784 -0.0711 -0.1702
 8001TIP3    H123967   4.905   0.229   3.752  0.1077 -0.1568  0.4035
 8001TIP3    H223968   4.923   0.097   3.824  2.7486 -0.3732 -0.5328
 8002TIP3   OH223969   3.766   3.437   2.233  0.1036  0.0822 -0.1934
 8002TIP3    H123970   3.754   3.343   2.238  0.4422 -0.0717 -1.6126
 8002TIP3    H223971   3.688   3.474   2.272 -1.4775 -0.8323 -2.2825
 8003TIP3   OH223972   4.225   2.082   4.355  0.3388 -0.0506  0.4101
 8003TIP3    H123973   4.132   2.060   4.366  0.5228 -0.0413  2.4293
 8003TIP3    H223974   4.272   2.007   4.392  1.0663  1.1087  1.9313
 8004TIP3   OH223975   1.765   3.293   2.156 -0.2102  0.1534 -0.1970
 8004TIP3    H123976   1.764   3.197   2.150 -0.0966  0.1385 -0.0061
 8004TIP3    H223977   1.847   3.313   2.201 -0.2856  0.3338 -0.1376
 8005TIP3   OH223978   4.298   5.315   2.153 -0.3503  0.4148 -0.1686
 8005TIP3    H123979   4.334   5.228   2.138 -0.3624  0.6078 -1.3920
 8005TIP3    H223980   4.369   5.375   2.129 -0.0942  0.7639  1.3125
 8006TIP3   OH223981   5.213   2.551   5.118 -0.0103  0.1603 -0.8704
 8006TIP3    H123982   5.143   2.616   5.131 -0.8546 -0.7777 -0.5736
 8006TIP3    H223983   5.293   2.598   5.137 -0.5357  1.3522 -1.4974
 8007TIP3   OH223984   5.803   1.464   4.243 -0.4866  0.1887 -0.2316
 8007TIP3    H123985   5.883   1.465   4.191 -0.3053 -1.6203 -0.0701
 8007TIP3    H223986   5.738   1.506   4.188 -0.3462 -1.8074 -2.0467
 8008TIP3   OH223987   3.123   2.095   4.416  0.2803 -0.3120 -0.3521
 8008TIP3    H123988   3.187   2.052   4.360 -0.8117 -1.1651 -0.9817
 8008TIP3    H223989   3.167   2.174   4.446  1.9416 -1.3236 -0.0327
 8009TIP3   OH223990   4.363   1.843   5.580 -0.0421 -0.0841 -0.5821
 8009TIP3    H123991   4.306   1.857   5.505 -0.0719  0.1796 -0.5132
 8009TIP3    H223992   4.442   1.893   5.559 -0.5839  1.1261  0.1647
 8010TIP3   OH223993   1.484   4.910   0.097  0.1661 -0.0257 -0.0474
 8010TIP3    H123994   1.579   4.913   0.110  0.0337 -0.0154  1.0568
 8010TIP3    H223995   1.463   4.990   0.050  0.7971 -0.4152 -1.0246
 8011TIP3   OH223996   3.021   0.104   2.885 -0.1436 -0.0146 -0.2282
 8011TIP3    H123997   3.075   0.052   2.945 -1.6764 -0.3730  0.8888
 8011TIP3    H223998   3.038   0.195   2.910  3.2810  0.2684 -2.8004
 8012TIP3   OH223999   1.963   1.861   1.373  0.1539 -0.1243  0.4049
 8012TIP3    H124000   1.905   1.785   1.374 -0.7947  0.5796  0.2015
 8012TIP3    H224001   2.050   1.824   1.357 -0.5890 -0.9777 -2.1518
 8013TIP3   OH224002   4.964   3.285   1.032  0.4784 -0.1870 -0.2531
 8013TIP3    H124003   4.946   3.303   1.124  1.4015 -0.3484 -0.0314
 8013TIP3    H224004   4.967   3.189   1.026  0.0391 -0.1832 -0.5238
 8014TIP3   OH224005   4.887   4.688   5.269  0.0502 -0.4702  0.4334
 8014TIP3    H124006   4.898   4.595   5.288  0.8530 -0.0660  2.1504
 8014TIP3    H224007   4.929   4.732   5.343  0.4594  1.2642 -0.7898
 8015TIP3   OH224008   3.927   6.210   5.039 -0.1852  0.6361 -0.0338
 8015TIP3    H124009   3.970   6.209   5.125 -0.0627  0.6090 -0.0949
 8015TIP3    H224010   3.993   6.175   4.979 -1.0957 -1.7743  0.2547
 8016TIP3   OH224011   0.388   2.017   3.149  0.1366  0.2284 -0.1548
 8016TIP3    H124012   0.334   2.091   3.123  1.6483  1.9372  1.2945
 8016TIP3    H224013   0.473   2.034   3.108  0.1606 -1.4080 -0.8539
 8017TIP3   OH224014   6.382   6.468   1.867  0.3017 -0.1831  0.3187
 8017TIP3    H124015   6.351   6.383   1.835  1.7546 -0.9724  0.9399
 8017TIP3    H224016   6.425   6.508   1.792  1.9466 -1.1739  0.6845
 8018TIP3   OH224017   2.232   5.510   5.137 -0.0068  0.0068  0.8949
 8018TIP3    H124018   2.195   5.488   5.222 -0.9681  0.2479  0.5539
 8018TIP3    H224019   2.212   5.434   5.082 -1.0595  0.6287  0.3967
 8019TIP3   OH224020   4.910   4.573   4.579 -0.0053 -0.3717  1.0554
 8019TIP3    H124021   4.884   4.633   4.649  0.4075 -0.1477  1.0209
 8019TIP3    H224022   4.999   4.601   4.555  0.2980 -1.1564  1.2146
 8020TIP3   OH224023   5.126   1.154   1.245  0.4102 -0.3120  0.1487
 8020TIP3    H124024   5.069   1.180   1.317  0.7697  0.8711  0.0291
 8020TIP3    H224025   5.078   1.180   1.166  0.8421  0.1509  0.0320
 8021TIP3   OH224026   4.460   0.323   4.993 -0.4663  0.3488  0.3229
 8021TIP3    H124027   4.526   0.283   5.050 -0.8871 -1.4120 -0.3679
 8021TIP3    H224028   4.386   0.342   5.051  0.1670  1.2021  0.8705
 8022TIP3   OH224029   5.841   4.371   0.553  0.4897  0.0051  0.4115
 8022TIP3    H124030   5.903   4.309   0.517  2.7276  2.6147 -0.5241
 8022TIP3    H224031   5.780   4.389   0.482 -3.1063 -4.1631  1.8992
 8023TIP3   OH224032   5.725   4.504   1.191 -0.3697  0.2721 -0.0963
 8023TIP3    H124033   5.666   4.469   1.258  0.7933 -0.7372  0.4496
 8023TIP3    H224034   5.812   4.477   1.220  0.1704 -0.2866 -2.0645
 8024TIP3   OH224035   4.327   4.958   5.701  0.2951 -0.4774  0.1495
 8024TIP3    H124036   4.315   4.885   5.641 -2.2414 -0.6370  0.7535
 8024TIP3    H224037   4.356   4.918   5.783 -1.6599 -0.9444  0.6595
 8025TIP3   OH224038   3.226   6.253   3.389  0.0730 -0.0271 -0.2027
 8025TIP3    H124039   3.312   6.216   3.369 -0.7509 -1.1507 -1.8728
 8025TIP3    H224040   3.234   6.345   3.366  0.2668 -0.5395 -2.3974
 8026TIP3   OH224041   2.996   0.852   4.696  0.4687 -0.4111  0.0123
 8026TIP3    H124042   3.092   0.850   4.700  0.5083  1.2597  0.5808
 8026TIP3    H224043   2.972   0.939   4.727 -1.2447 -0.7506 -0.2403
 8027TIP3   OH224044   1.936   4.280   2.141 -0.0736 -0.6870 -0.2693
 8027TIP3    H124045   1.980   4.233   2.071  1.4362  0.4524 -0.1263
 8027TIP3    H224046   1.899   4.358   2.099 -1.8738 -1.5286 -0.3527
 8028TIP3   OH224047   4.292   2.880   1.474 -0.6104 -0.4628  0.1130
 8028TIP3    H124048   4.228   2.810   1.484 -1.2608  0.3380  1.8765
 8028TIP3    H224049   4.377   2.836   1.480 -0.9699 -1.3814 -1.1321
 8029TIP3   OH224050   4.912   5.029   2.406  0.2547  0.5887  0.1857
 8029TIP3    H124051   4.912   5.058   2.315  0.9496  0.3601  0.1077
 8029TIP3    H224052   4.886   4.937   2.402  1.6803  0.1742  0.0716
 8030TIP3   OH224053   6.803   0.048   4.030  0.1014 -0.1533 -0.2975
 8030TIP3    H124054   6.860   0.125   4.035 -0.1922 -0.0314  2.0886
 8030TIP3    H224055   6.858  -0.024   4.063  0.0120 -0.7727 -1.4538
 8031TIP3   OH224056   4.253   5.997   5.625 -0.2404  0.1087 -0.0639
 8031TIP3    H124057   4.320   5.957   5.569  0.8169  0.2365  1.0606
 8031TIP3    H224058   4.214   6.065   5.571  0.8698  0.3361 -0.6101
 8032TIP3   OH224059   3.799   0.571   0.978  0.4269  0.2410 -0.1161
 8032TIP3    H124060   3.798   0.561   0.883 -0.3512 -2.1546  0.0760
 8032TIP3    H224061   3.750   0.651   0.995  0.3233  0.5346 -1.7227
 8033TIP3   OH224062   0.367   5.946   1.009 -0.1072 -0.2677  0.4871
 8033TIP3    H124063   0.447   5.975   1.053 -0.5275 -1.7291  2.3532
 8033TIP3    H224064   0.301   6.011   1.032  0.1928  0.1723  0.1250
 8034TIP3   OH224065   5.665   4.672   1.889  0.0400 -0.1259  0.1706
 8034TIP3    H124066   5.674   4.650   1.796 -0.9845  0.0946  0.0090
 8034TIP3    H224067   5.612   4.601   1.925  0.7209 -0.3905  0.6734
 8035TIP3   OH224068   4.420   5.116   0.886  0.2203 -0.4678  0.9399
 8035TIP3    H124069   4.472   5.181   0.933 -1.0547  1.5046 -0.2260
 8035TIP3    H224070   4.431   5.138   0.793 -0.4052 -1.8066  0.5170
 8036TIP3   OH224071   4.787   5.090   2.156 -0.2716 -0.1766 -0.2054
 8036TIP3    H124072   4.725   5.129   2.219 -1.0145  0.0696 -1.0678
 8036TIP3    H224073   4.745   5.102   2.071  2.3219  2.7146 -1.2301
 8037TIP3   OH224074   0.530   3.464   0.125 -0.0363 -0.3800 -0.2569
 8037TIP3    H124075   0.460   3.411   0.088 -0.9618  3.0806 -4.1484
 8037TIP3    H224076   0.589   3.482   0.052  0.8614  2.8258  1.0699
 8038TIP3   OH224077   1.980   3.072   2.697  0.5213  0.3523 -0.2529
 8038TIP3    H124078   2.059   3.018   2.693  1.4371  1.6584 -3.7946
 8038TIP3    H224079   1.908   3.009   2.702  1.6048 -1.3009 -3.0995
 8039TIP3   OH224080   1.761   5.208   1.739  0.1193  0.3042 -0.7364
 8039TIP3    H124081   1.670   5.234   1.733  0.0891  0.1949 -0.7516
 8039TIP3    H224082   1.801   5.273   1.796 -0.0487  0.1426 -0.4317
 8040TIP3   OH224083   1.347   0.626   0.163 -0.9652 -0.3871 -0.2326
 8040TIP3    H124084   1.296   0.577   0.099  0.2403  0.7428 -2.1606
 8040TIP3    H224085   1.424   0.657   0.115  0.0993  0.3832  1.8165
 8041TIP3   OH224086   1.279   2.881   2.053 -0.4293  0.2095 -0.4488
 8041TIP3    H124087   1.317   2.886   2.141 -1.8163 -0.8629  0.2460
 8041TIP3    H224088   1.207   2.820   2.062 -0.5524  0.0301 -2.3770
 8042TIP3   OH224089   4.900   0.211   1.648  0.6653 -0.3826  0.0058
 8042TIP3    H124090   4.907   0.249   1.735  2.0858  0.7384 -0.5612
 8042TIP3    H224091   4.818   0.161   1.650 -0.2638  1.1138  1.4043
 8043TIP3   OH224092   3.164   1.006   1.666 -0.2256  0.0006  0.0436
 8043TIP3    H124093   3.255   0.981   1.683 -0.7793 -1.7782  0.6618
 8043TIP3    H224094   3.170   1.075   1.600  1.5165 -1.2003 -1.1401
 8044TIP3   OH224095   5.340   3.502   2.009 -0.0870  0.4977 -0.2857
 8044TIP3    H124096   5.336   3.426   2.066  0.6626  0.4599 -0.2765
 8044TIP3    H224097   5.259   3.550   2.028 -0.3786 -0.0914 -0.0121
 8045TIP3   OH224098   5.441   0.999   2.023  0.1896  0.3472  0.1669
 8045TIP3    H124099   5.531   0.994   1.990 -0.5039  0.2984 -1.8464
 8045TIP3    H224100   5.431   1.090   2.050  0.8431  0.3533  0.3992
 8046TIP3   OH224101   4.256   6.401   4.825  0.0686  0.0272  0.2425
 8046TIP3    H124102   4.205   6.468   4.780 -0.0966 -0.9874 -1.1513
 8046TIP3    H224103   4.193   6.333   4.848  0.5136 -0.4922 -0.0320
 8047TIP3   OH224104   6.902   1.227   3.050  0.3473 -0.2808  0.0278
 8047TIP3    H124105   6.885   1.137   3.080 -1.1788  0.1838  0.6740
 8047TIP3    H224106   6.846   1.238   2.973 -1.1107  0.7557  1.1825
 8048TIP3   OH224107   6.811   1.214   0.380  0.5515  0.0536  0.0840
 8048TIP3    H124108   6.859   1.135   0.404 -0.1395 -0.2797  0.4126
 8048TIP3    H224109   6.801   1.207   0.285  1.3094  0.2282 -0.0154
 8049TIP3   OH224110   1.788   2.435   1.947 -0.7762  0.0566  0.2685
 8049TIP3    H124111   1.696   2.431   1.971 -1.0424  1.8671 -0.3198
 8049TIP3    H224112   1.834   2.454   2.029 -1.1177  0.9404  0.2559
 8050TIP3   OH224113   5.033   2.371   3.890 -0.3913 -0.1768 -0.2507
 8050TIP3    H124114   5.017   2.281   3.920  0.3203 -0.1799  0.1369
 8050TIP3    H224115   5.042   2.422   3.970  1.4708 -0.1826 -0.4257
 8051TIP3   OH224116   3.763   1.195   1.127  0.3665 -0.7857  0.1940
 8051TIP3    H124117   3.811   1.112   1.133  0.6796 -0.6780 -0.6289
 8051TIP3    H224118   3.810   1.244   1.059 -2.2836 -1.6406 -2.4760
 8052TIP3   OH224119   0.681   2.229   4.858  0.2169 -0.1618  0.4019
 8052TIP3    H124120   0.592   2.261   4.848 -0.8552 -2.4572  1.8091
 8052TIP3    H224121   0.708   2.206   4.769 -1.3099 -1.1427  0.1552
 8053TIP3   OH224122   6.269   1.918   5.692  0.4426  0.5739  0.7056
 8053TIP3    H124123   6.326   1.993   5.676 -0.8793  1.3596 -0.5469
 8053TIP3    H224124   6.219   1.908   5.612 -1.4597  0.1621  1.8721
 8054TIP3   OH224125   3.326   0.138   4.433  0.8628 -0.4135  0.2288
 8054TIP3    H124126   3.310   0.139   4.339  2.1055 -0.7016 -0.0065
 8054TIP3    H224127   3.400   0.078   4.444  0.7285 -0.3929  1.3915
 8055TIP3   OH224128   5.799   3.909   1.940  0.9953 -0.2355 -0.2626
 8055TIP3    H124129   5.769   3.820   1.955 -0.7999  0.3980  0.0737
 8055TIP3    H224130   5.854   3.929   2.016  1.5227 -1.0729 -0.4048
 8056TIP3   OH224131   1.260   1.355   1.766  0.2152  0.1403 -0.0387
 8056TIP3    H124132   1.334   1.295   1.774  1.1343  1.0917 -1.1577
 8056TIP3    H224133   1.266   1.391   1.678 -0.7553  1.3095  0.3361
 8057TIP3   OH224134   5.913   3.975   5.854 -0.2548  0.0001 -1.2382
 8057TIP3    H124135   5.916   3.939   5.765  1.1735  1.1704 -1.7085
 8057TIP3    H224136   5.966   4.055   5.849 -2.8953  1.9454 -0.1305
 8058TIP3   OH224137   5.035   5.917   4.047 -0.1358 -0.4159 -0.1816
 8058TIP3    H124138   4.939   5.919   4.044 -0.1246  2.2262 -0.6836
 8058TIP3    H224139   5.055   5.908   4.140 -0.9599  2.3329  0.3604
 8059TIP3   OH224140   3.386   3.661   1.779  0.2359 -0.2172  0.0971
 8059TIP3    H124141   3.298   3.676   1.746  0.1375  0.2250  0.5446
 8059TIP3    H224142   3.435   3.625   1.704 -0.0981  0.3312 -0.3866
 8060TIP3   OH224143   4.892   4.192   2.647 -0.1089  0.5443 -0.1022
 8060TIP3    H124144   4.807   4.183   2.605  0.2830 -0.3573 -0.7469
 8060TIP3    H224145   4.903   4.110   2.696 -0.2264  1.2590  1.1519
 8061TIP3   OH224146   4.562   4.449   0.255 -0.2468  0.2247 -0.2781
 8061TIP3    H124147   4.620   4.379   0.226  0.7790  0.7583  0.4110
 8061TIP3    H224148   4.621   4.515   0.292 -1.3992 -0.2310  2.6432
 8062TIP3   OH224149   3.608   5.063   5.617  0.0864 -0.2430  0.0294
 8062TIP3    H124150   3.566   4.994   5.566 -1.1159  1.5871 -1.6013
 8062TIP3    H224151   3.690   5.080   5.571  0.3966 -0.6008  0.4478
 8063TIP3   OH224152   1.598   6.390   0.177 -0.4290  0.1329  0.5347
 8063TIP3    H124153   1.541   6.450   0.128 -0.7463  0.1754  0.9506
 8063TIP3    H224154   1.605   6.430   0.264 -0.4015 -0.2823  0.7231
 8064TIP3   OH224155   5.553   1.769   2.478  0.2481  0.2520  0.3751
 8064TIP3    H124156   5.490   1.727   2.420  1.2661  0.8405 -1.2123
 8064TIP3    H224157   5.582   1.847   2.431  0.4554  1.2584  2.0693
 8065TIP3   OH224158   6.181   3.070   1.044  0.3378  0.8341  0.1713
 8065TIP3    H124159   6.257   3.065   0.985 -0.3078  0.4736 -0.6517
 8065TIP3    H224160   6.174   2.982   1.081 -0.5955  0.4220 -0.9453
 8066TIP3   OH224161   4.394   3.123   5.220  0.6100  0.3813  0.2657
 8066TIP3    H124162   4.305   3.089   5.216  0.3525  0.9852  0.8324
 8066TIP3    H224163   4.425   3.118   5.129  0.3213 -0.6500  0.2088
 8067TIP3   OH224164   3.261   2.682   0.312 -0.0409  0.1688 -0.0318
 8067TIP3    H124165   3.232   2.739   0.241 -0.8907  1.3700  1.2202
 8067TIP3    H224166   3.275   2.597   0.270  0.6137  1.1006 -1.8380
 8068TIP3   OH224167   5.489   6.303   4.029  0.2435 -0.3708 -0.6557
 8068TIP3    H124168   5.558   6.243   4.001 -0.4289 -0.2431 -2.7101
 8068TIP3    H224169   5.489   6.373   3.964 -1.6834 -0.2601 -0.5990
 8069TIP3   OH224170   4.752   3.060   1.495  0.1114 -0.7201 -0.2447
 8069TIP3    H124171   4.800   3.133   1.535 -1.4515  1.2495 -1.7844
 8069TIP3    H224172   4.796   3.045   1.411 -0.1988 -0.8686 -0.3833
 8070TIP3   OH224173   0.707   1.050   4.165 -0.1484 -0.2599 -0.0232
 8070TIP3    H124174   0.768   1.027   4.095  0.5146  1.6440 -0.1127
 8070TIP3    H224175   0.634   1.093   4.120 -1.4274 -2.1431  0.1294
 8071TIP3   OH224176   2.080   4.841   0.521  0.1409 -0.1011 -0.2473
 8071TIP3    H124177   2.044   4.752   0.518 -1.9373  0.6860 -0.2936
 8071TIP3    H224178   2.127   4.845   0.605 -1.6160 -0.6098  0.8218
 8072TIP3   OH224179   6.683   0.880   2.884  0.4367  0.6856  0.0907
 8072TIP3    H124180   6.605   0.844   2.841 -0.2767  0.5520  1.4158
 8072TIP3    H224181   6.754   0.823   2.857 -0.1604  0.0352 -0.1410
 8073TIP3   OH224182   0.557   4.120   0.709  0.0726  0.3954 -0.1298
 8073TIP3    H124183   0.640   4.071   0.706  0.6333  1.3624 -0.8992
 8073TIP3    H224184   0.519   4.097   0.794 -0.4681 -2.6240 -1.0701
 8074TIP3   OH224185   0.614   1.040   1.938 -0.2868  0.0653  0.3563
 8074TIP3    H124186   0.612   0.988   1.857 -1.3061 -1.4715  1.3097
 8074TIP3    H224187   0.605   1.130   1.909 -2.9591 -0.5932 -1.1491
 8075TIP3   OH224188   3.553   5.574   5.445  0.3425  0.4643 -0.0675
 8075TIP3    H124189   3.572   5.658   5.485  0.3932  1.2524 -1.6394
 8075TIP3    H224190   3.458   5.576   5.429  0.5015  0.7147 -1.0851
 8076TIP3   OH224191   1.159   0.489   1.793 -0.4829  0.6543  0.1201
 8076TIP3    H124192   1.231   0.465   1.735  0.1890 -1.4758  1.7306
 8076TIP3    H224193   1.082   0.488   1.736  0.2013 -1.0151 -0.8429
 8077TIP3   OH224194   6.257   3.359   2.018 -0.5311  0.2762 -0.0800
 8077TIP3    H124195   6.271   3.452   2.038 -3.2612  0.6278  0.5991
 8077TIP3    H224196   6.223   3.359   1.928 -0.0659 -0.1328 -0.2596
 8078TIP3   OH224197   7.113   3.025   0.438  0.3519 -0.1032 -0.4596
 8078TIP3    H124198   7.062   3.104   0.458 -1.0499 -0.8685 -0.8867
 8078TIP3    H224199   7.104   3.015   0.343  1.8039  0.0583 -0.6343
 8079TIP3   OH224200   2.546   4.136   0.889 -0.0607  0.3484 -0.2517
 8079TIP3    H124201   2.574   4.195   0.818 -0.0373 -0.1454 -0.6522
 8079TIP3    H224202   2.593   4.055   0.873 -0.5297  0.0280 -0.0219
 8080TIP3   OH224203   2.302   3.835   5.028  0.1857  0.7333 -0.2178
 8080TIP3    H124204   2.313   3.751   4.985 -0.0609  0.4345  0.2814
 8080TIP3    H224205   2.271   3.813   5.116  0.6815  1.3215  0.1157
 8081TIP3   OH224206   6.322   0.759   1.246  0.2413 -0.5200  0.0141
 8081TIP3    H124207   6.272   0.840   1.251  2.6809  1.0186  0.8255
 8081TIP3    H224208   6.297   0.712   1.326  1.1237  0.9118  1.1840
 8082TIP3   OH224209   0.627   3.963   5.058  0.4007 -0.4275 -0.5693
 8082TIP3    H124210   0.609   4.008   4.976  3.8749  1.4952 -0.4917
 8082TIP3    H224211   0.674   3.883   5.032 -0.8200 -1.1932 -0.4918
 8083TIP3   OH224212   3.826   3.343   0.631 -0.4135 -0.3705 -0.0537
 8083TIP3    H124213   3.758   3.410   0.625  0.9665  1.3612  2.1144
 8083TIP3    H224214   3.814   3.304   0.717  2.3719  1.2953  1.2025
 8084TIP3   OH224215   6.245   6.278   5.600 -0.4607  0.1210  0.0296
 8084TIP3    H124216   6.253   6.326   5.682  1.1650  1.1159 -0.6653
 8084TIP3    H224217   6.217   6.344   5.536 -1.7766 -0.6550 -0.2394
 8085TIP3   OH224218   4.313   5.502   4.770 -0.2035  0.4622 -0.2349
 8085TIP3    H124219   4.295   5.459   4.686  1.1714  0.1268 -0.3793
 8085TIP3    H224220   4.399   5.543   4.758 -0.1229  0.6534  0.9097
 8086TIP3   OH224221   2.465   1.958   3.970  0.1638  0.0791 -0.0279
 8086TIP3    H124222   2.399   2.023   3.996  0.2164 -0.3554  1.2466
 8086TIP3    H224223   2.488   1.982   3.880  0.3105  1.9442  0.4631
 8087TIP3   OH224224   1.374   1.582   4.919 -0.3825  0.6173  0.1744
 8087TIP3    H124225   1.360   1.676   4.934  0.5936  0.7248  0.4899
 8087TIP3    H224226   1.469   1.570   4.931 -0.7147 -0.7151  1.9073
 8088TIP3   OH224227   2.657   6.289   1.751 -0.0367 -0.4521 -0.3959
 8088TIP3    H124228   2.619   6.373   1.727 -1.3291 -0.8951  0.0185
 8088TIP3    H224229   2.584   6.227   1.746  0.7081 -1.4036  0.0889
 8089TIP3   OH224230   0.944   0.264   1.343  0.0278 -0.2109 -0.1120
 8089TIP3    H124231   1.018   0.241   1.399  0.9939 -0.4534 -1.4460
 8089TIP3    H224232   0.876   0.201   1.366  0.4664 -0.4285  0.6446
 8090TIP3   OH224233   1.889   3.297   0.738  0.1861  0.1311  0.3650
 8090TIP3    H124234   1.822   3.285   0.670 -0.2670  0.2875  0.7775
 8090TIP3    H224235   1.840   3.294   0.821  0.7461 -0.1543  0.6898
 8091TIP3   OH224236   3.332   3.585   3.553  0.3819 -0.2034 -0.0078
 8091TIP3    H124237   3.308   3.594   3.645  0.4516  0.6082 -0.0682
 8091TIP3    H224238   3.302   3.497   3.530 -0.8535  0.0742  0.4289
 8092TIP3   OH224239   1.543   1.984   5.440  0.3629 -0.3053 -0.0218
 8092TIP3    H124240   1.546   1.952   5.531  2.2903 -3.6218 -1.0806
 8092TIP3    H224241   1.634   2.003   5.418 -0.1124  0.7220 -1.2238
 8093TIP3   OH224242   1.663   0.147   2.255  0.6210  0.3317  0.2765
 8093TIP3    H124243   1.659   0.223   2.312  1.7703  1.1589 -0.7090
 8093TIP3    H224244   1.744   0.102   2.280 -0.2894 -0.8888  1.1941
 8094TIP3   OH224245   0.741   2.027   2.889  0.4380  0.2045 -0.0803
 8094TIP3    H124246   0.768   1.979   2.810  0.9646 -0.8065  0.6954
 8094TIP3    H224247   0.802   2.101   2.893 -0.7723  1.3604 -1.6300
 8095TIP3   OH224248   2.319   4.451   5.274 -0.1797  0.6082  0.4981
 8095TIP3    H124249   2.306   4.538   5.235 -1.0243  0.1627 -0.2446
 8095TIP3    H224250   2.342   4.469   5.365  2.5896  1.7118 -0.3252
 8096TIP3   OH224251   2.699   2.442   4.035  0.4376 -0.2333  0.3610
 8096TIP3    H124252   2.672   2.355   4.064 -1.4172 -0.0238 -0.5790
 8096TIP3    H224253   2.642   2.502   4.084  2.0570  0.5343  1.4061
 8097TIP3   OH224254   2.926   6.538   2.702  0.8531 -0.8065 -0.2852
 8097TIP3    H124255   2.921   6.444   2.719  0.2761 -0.8161 -0.4685
 8097TIP3    H224256   2.957   6.545   2.612 -0.9401 -0.8799 -0.9456
 8098TIP3   OH224257   6.630   1.527   3.941  0.0652 -0.1976 -0.1582
 8098TIP3    H124258   6.589   1.535   3.855  1.0555  1.8082 -0.5046
 8098TIP3    H224259   6.724   1.541   3.924  0.3417 -0.3082  1.1758
 8099TIP3   OH224260   2.100   6.142   0.052 -0.4073 -0.0616 -0.4664
 8099TIP3    H124261   2.154   6.089  -0.007  0.0059 -0.6058  0.3686
 8099TIP3    H224262   2.011   6.108   0.041 -0.5143  0.5185 -1.5006
 8100TIP3   OH224263   5.372   1.946   4.180  0.7145 -0.2859  0.2026
 8100TIP3    H124264   5.400   2.008   4.113  0.3337 -0.2032  0.1176
 8100TIP3    H224265   5.341   2.001   4.252  0.2535 -0.3726  0.0759
 8101TIP3   OH224266   4.249   5.317   3.096  0.5009  0.5376 -0.7141
 8101TIP3    H124267   4.180   5.347   3.156 -0.6314 -1.4995 -0.9262
 8101TIP3    H224268   4.203   5.295   3.015  1.2378 -1.5603 -0.6274
 8102TIP3   OH224269   5.147   5.907   4.312  0.0598  0.1603  0.0512
 8102TIP3    H124270   5.199   5.880   4.387 -0.8329 -1.1374  0.2323
 8102TIP3    H224271   5.072   5.954   4.351  0.1875  0.4950 -0.1018
 8103TIP3   OH224272   4.397   4.188   0.230  0.5536  0.1594 -0.0061
 8103TIP3    H124273   4.384   4.266   0.284  0.0222  0.1871 -0.1626
 8103TIP3    H224274   4.346   4.206   0.151  0.5113 -0.3084 -0.0864
 8104TIP3   OH224275   2.803   2.159   1.779 -0.3018  0.4100  0.3531
 8104TIP3    H124276   2.875   2.216   1.807  0.0037  0.1209  0.1708
 8104TIP3    H224277   2.732   2.219   1.756 -1.2757  0.6311  3.5681
 8105TIP3   OH224278   4.184   4.939   4.268  0.0096  0.5897  0.3291
 8105TIP3    H124279   4.108   4.930   4.210 -0.2749  1.1759  0.6039
 8105TIP3    H224280   4.148   4.925   4.356  0.1110  1.4394  0.5100
 8106TIP3   OH224281   0.363   4.532   0.086  0.1638 -0.1222  0.7302
 8106TIP3    H124282   0.364   4.505   0.178 -0.8979 -2.2024  0.2021
 8106TIP3    H224283   0.324   4.619   0.086 -2.5778 -1.2430  2.0558
 8107TIP3   OH224284   0.148   2.253   0.348 -0.1032 -0.2404 -0.0279
 8107TIP3    H124285   0.067   2.208   0.323  0.2910 -0.8307 -0.2397
 8107TIP3    H224286   0.217   2.189   0.333  0.2419 -0.3507  1.8085
 8108TIP3   OH224287   6.307   4.881   1.240  0.7149  0.0067  0.0504
 8108TIP3    H124288   6.351   4.916   1.317  2.8401 -0.1148 -1.0350
 8108TIP3    H224289   6.291   4.957   1.184 -1.0329  0.1293  0.6433
 8109TIP3   OH224290   1.484   5.662   0.658  0.1346 -0.2890 -0.0175
 8109TIP3    H124291   1.519   5.664   0.747  0.2398  2.0322 -0.0496
 8109TIP3    H224292   1.538   5.724   0.610 -0.0422 -1.3656 -1.6967
 8110TIP3   OH224293   1.144   5.630   5.139  0.5347  0.0730 -0.4490
 8110TIP3    H124294   1.237   5.651   5.132  0.7492 -0.9675 -1.0138
 8110TIP3    H224295   1.100   5.714   5.147  1.5611  0.5571  0.3696
 8111TIP3   OH224296   5.753   4.621   5.451  0.3585  0.1192 -0.5081
 8111TIP3    H124297   5.790   4.532   5.453  0.1482  0.0082 -1.4299
 8111TIP3    H224298   5.707   4.627   5.367 -1.8565  0.2017  0.6237
 8112TIP3   OH224299   4.399   2.716   2.652  0.4566 -0.0713 -0.2538
 8112TIP3    H124300   4.423   2.667   2.573  2.1729 -0.0435  0.2162
 8112TIP3    H224301   4.373   2.802   2.619  1.4497  0.0398 -0.7871
 8113TIP3   OH224302   4.523   4.883   2.618 -0.4942 -0.0469 -0.1864
 8113TIP3    H124303   4.470   4.874   2.539 -1.5323  0.2336  0.4619
 8113TIP3    H224304   4.595   4.941   2.592  0.3705 -1.6189 -1.4777
 8114TIP3   OH224305   6.334   1.949   0.279 -0.2749 -0.1785 -0.2881
 8114TIP3    H124306   6.407   2.004   0.250  0.7314 -0.4627  1.5552
 8114TIP3    H224307   6.344   1.868   0.229 -0.3961  0.4319 -1.3251
 8115TIP3   OH224308   4.806   2.649   0.990  0.4969 -0.0847  0.4552
 8115TIP3    H124309   4.776   2.585   1.055  0.2311  0.0821  0.4970
 8115TIP3    H224310   4.770   2.732   1.020 -0.8254 -0.2227 -0.6656
 8116TIP3   OH224311   1.923   3.988   4.642  0.1365 -0.6771  0.1952
 8116TIP3    H124312   1.870   3.909   4.652 -0.9585  0.0323  0.0858
 8116TIP3    H224313   1.905   4.040   4.720 -0.9508  0.4968 -0.8022
 8117TIP3   OH224314   4.547   3.293   3.493 -0.7594  0.1432 -0.0021
 8117TIP3    H124315   4.539   3.268   3.401 -0.6194 -1.7580  0.4594
 8117TIP3    H224316   4.457   3.287   3.527 -0.8726  1.2272 -0.0977
 8118TIP3   OH224317   5.236   4.861   3.833  0.1614 -0.2295  0.1617
 8118TIP3    H124318   5.169   4.870   3.900 -0.7367 -0.6965 -0.6546
 8118TIP3    H224319   5.203   4.793   3.774  2.3278 -2.0913  0.9258
 8119TIP3   OH224320   2.292   5.321   1.061  0.2011 -0.1317 -0.6022
 8119TIP3    H124321   2.373   5.371   1.058 -0.7684  1.4399 -2.0844
 8119TIP3    H224322   2.319   5.230   1.047  1.8572  0.0716  0.8421
 8120TIP3   OH224323   7.206   1.148   0.601 -0.1487 -0.0699  0.4802
 8120TIP3    H124324   7.122   1.174   0.637  0.6642 -0.2581  2.7021
 8120TIP3    H224325   7.206   1.052   0.607 -0.0252 -0.1142 -0.1411
 8121TIP3   OH224326   6.601   1.750   1.737  0.4177 -0.3569 -0.6170
 8121TIP3    H124327   6.613   1.830   1.788 -0.6225 -0.3434 -0.3762
 8121TIP3    H224328   6.661   1.687   1.777  2.5901  0.7613 -1.9245
 8122TIP3   OH224329   5.852   5.113   1.560  0.3576  0.2525 -0.3298
 8122TIP3    H124330   5.772   5.137   1.606  0.1757  1.0843 -1.0491
 8122TIP3    H224331   5.827   5.110   1.468  0.7082 -1.4240 -0.3971
 8123TIP3   OH224332   6.470   3.902   0.692 -0.0419 -1.0449 -0.5362
 8123TIP3    H124333   6.563   3.906   0.672 -0.2107  0.3597 -1.1672
 8123TIP3    H224334   6.450   3.808   0.694  1.5840 -1.4091  0.7271
 8124TIP3   OH224335   2.211   6.650   0.901  1.3278  0.1437  0.2015
 8124TIP3    H124336   2.302   6.620   0.894  1.0357 -1.4466  2.0929
 8124TIP3    H224337   2.163   6.572   0.929 -0.3144  1.3638  0.9219
 8125TIP3   OH224338   6.072   5.601   5.007  0.2049  0.1786  0.0346
 8125TIP3    H124339   6.146   5.540   5.015 -0.3447 -0.7344 -1.4089
 8125TIP3    H224340   6.093   5.654   4.931 -0.8319 -0.4444 -0.7201
 8126TIP3   OH224341   6.660   6.417   4.723 -0.5535  0.0887  0.0364
 8126TIP3    H124342   6.743   6.370   4.733 -0.1961  0.6755 -0.0962
 8126TIP3    H224343   6.653   6.432   4.629  0.3630  2.0610  0.2267
 8127TIP3   OH224344   6.553   5.974   4.528  0.3188 -0.2483 -0.0169
 8127TIP3    H124345   6.585   5.884   4.531 -0.1174 -0.3876  1.7508
 8127TIP3    H224346   6.595   6.012   4.451 -0.1805 -2.1942 -1.3081
 8128TIP3   OH224347   2.431   6.483   5.532  0.2262  0.2936  0.2247
 8128TIP3    H124348   2.477   6.483   5.448 -1.7225  0.7174 -0.9118
 8128TIP3    H224349   2.440   6.573   5.563 -0.1090  0.4731 -0.1765
 8129TIP3   OH224350   6.216   4.438   0.103 -0.5116  0.0841  0.2610
 8129TIP3    H124351   6.137   4.467   0.149 -0.9125 -0.9086  0.2265
 8129TIP3    H224352   6.183   4.392   0.026  0.1289  0.4268 -0.2285
 8130TIP3   OH224353   4.063   4.691   1.783 -0.0331  0.0342  0.2344
 8130TIP3    H124354   4.085   4.662   1.872 -0.1838 -0.3686  0.1400
 8130TIP3    H224355   4.130   4.651   1.728  0.3816  0.7273  0.2288
 8131TIP3   OH224356   6.191   5.236   2.880  0.2112  0.3538  0.4962
 8131TIP3    H124357   6.240   5.197   2.952  2.4850 -0.3294 -1.2641
 8131TIP3    H224358   6.234   5.321   2.865  0.5234  0.0129 -0.7006
 8132TIP3   OH224359   3.930   4.712   4.151 -0.8260 -0.0803 -0.0879
 8132TIP3    H124360   3.857   4.708   4.088 -0.2442 -0.2805 -0.7599
 8132TIP3    H224361   3.981   4.788   4.123 -1.4041  0.7726  1.0940
 8133TIP3   OH224362   2.576   2.400   2.290 -0.3115  0.0998 -0.4444
 8133TIP3    H124363   2.491   2.375   2.325 -0.0098 -1.5962 -0.8223
 8133TIP3    H224364   2.593   2.487   2.327 -2.6907  1.0002 -1.2795
 8134TIP3   OH224365   2.973   4.913   4.646 -0.0264  0.1290 -0.0423
 8134TIP3    H124366   2.931   4.842   4.597  1.1124 -0.2318 -0.5139
 8134TIP3    H224367   3.033   4.954   4.584 -0.2455  1.1530  0.3932
 8135TIP3   OH224368   4.298   3.369   5.316 -0.5567  0.5550 -0.0423
 8135TIP3    H124369   4.343   3.419   5.248  0.9257  0.5624  0.9015
 8135TIP3    H224370   4.333   3.280   5.308 -2.4545 -0.1697 -1.0757
 8136TIP3   OH224371   2.655   5.221   0.717 -0.2601 -0.0911 -0.1724
 8136TIP3    H124372   2.626   5.238   0.628 -0.0098 -0.9145 -0.4198
 8136TIP3    H224373   2.702   5.300   0.743  0.3988 -0.1802 -1.0782
 8137TIP3   OH224374   6.221   4.386   4.259  0.2552  0.3069 -0.3011
 8137TIP3    H124375   6.218   4.391   4.163 -0.3563  1.0095 -0.2508
 8137TIP3    H224376   6.203   4.294   4.278  0.9408  0.0412 -0.8767
 8138TIP3   OH224377   6.710   4.212   4.782 -0.4449 -0.2409  0.0684
 8138TIP3    H124378   6.662   4.294   4.784 -2.7306 -1.4757 -0.7219
 8138TIP3    H224379   6.770   4.221   4.708  0.0259  1.0495  0.5895
 8139TIP3   OH224380   4.513   0.625   4.526 -0.4511  0.2432  0.0623
 8139TIP3    H124381   4.492   0.549   4.472  0.1746 -0.0402  0.2045
 8139TIP3    H224382   4.495   0.596   4.615 -0.4797  0.3574  0.0934
 8140TIP3   OH224383   4.482   5.823   3.907  0.3861 -0.0431 -0.2009
 8140TIP3    H124384   4.445   5.740   3.879  0.8770  0.3859 -2.2772
 8140TIP3    H224385   4.562   5.833   3.854  1.4597  0.7927  1.4847
 8141TIP3   OH224386   1.542   2.437   3.550  0.1990 -0.1449 -0.0555
 8141TIP3    H124387   1.606   2.436   3.622  1.2239  1.2486 -0.8841
 8141TIP3    H224388   1.460   2.463   3.592  0.1303 -1.9408  1.0262
 8142TIP3   OH224389   5.868   1.071   5.642  0.3936 -0.0323 -0.3774
 8142TIP3    H124390   5.864   1.095   5.735  1.5025 -1.4186  0.0665
 8142TIP3    H224391   5.821   0.988   5.637  0.9969 -0.3510 -0.9043
 8143TIP3   OH224392   3.185   6.375   4.720 -0.1066 -0.0090 -0.5500
 8143TIP3    H124393   3.203   6.451   4.665 -1.8970  0.3492 -0.7065
 8143TIP3    H224394   3.116   6.328   4.674 -0.9014 -0.2706  0.8461
 8144TIP3   OH224395   3.292   0.295   4.879 -0.0670  0.3329 -0.2087
 8144TIP3    H124396   3.247   0.243   4.812 -0.7462  0.7326 -0.0745
 8144TIP3    H224397   3.281   0.244   4.959 -0.9902  0.8004 -0.0177
 8145TIP3   OH224398   6.174   6.728   1.788 -0.6943  0.2384 -0.4949
 8145TIP3    H124399   6.133   6.644   1.768 -0.8352  0.4509 -1.1118
 8145TIP3    H224400   6.245   6.736   1.724  0.9140 -0.5205  1.0843
 8146TIP3   OH224401   1.120   1.821   0.975  0.3193 -0.0375  0.2191
 8146TIP3    H124402   1.042   1.868   1.007 -0.7201 -1.1362 -0.5841
 8146TIP3    H224403   1.162   1.883   0.916 -1.6583 -0.4005 -1.7222
 8147TIP3   OH224404   1.170   3.372   5.116 -0.3783 -0.0134  0.2427
 8147TIP3    H124405   1.173   3.464   5.144 -1.9111  0.0192  0.3834
 8147TIP3    H224406   1.080   3.359   5.088  0.3029 -0.9554 -1.6420
 8148TIP3   OH224407   3.871   6.470   4.800 -0.1544 -0.1102  0.5660
 8148TIP3    H124408   3.797   6.530   4.799  0.3393  0.6057  2.2394
 8148TIP3    H224409   3.906   6.476   4.889  2.9059  0.8113 -0.5507
 8149TIP3   OH224410   4.420   0.198   4.399  0.0560 -0.5192  0.2997
 8149TIP3    H124411   4.400   0.153   4.481 -0.5711 -0.2918  0.2732
 8149TIP3    H224412   4.358   0.163   4.336  0.8594 -1.0575 -0.2105
 8150TIP3   OH224413   0.530   4.866   0.308 -0.4206  0.1218 -0.4205
 8150TIP3    H124414   0.546   4.772   0.320  1.4434  0.3796 -0.6065
 8150TIP3    H224415   0.560   4.884   0.219  0.6992  1.1735  0.1524
 8151TIP3   OH224416   1.830   6.506   4.624 -0.1723  0.0310 -0.1407
 8151TIP3    H124417   1.841   6.597   4.652 -1.6836  0.4506 -0.8431
 8151TIP3    H224418   1.859   6.505   4.533  1.5085 -0.5995  0.3665
 8152TIP3   OH224419   5.729   3.067   5.039 -0.3450  0.6637 -0.5369
 8152TIP3    H124420   5.726   2.973   5.025  0.3267  0.4598  0.5812
 8152TIP3    H224421   5.660   3.102   4.982 -0.7147 -0.5115 -0.8346
 8153TIP3   OH224422   3.911   2.660   4.614  0.4328  0.1046  0.1546
 8153TIP3    H124423   3.894   2.566   4.615  0.6052  0.0658 -0.2511
 8153TIP3    H224424   3.941   2.680   4.703 -3.0213  0.4282  1.4084
 8154TIP3   OH224425   2.917   4.333   1.327  0.2676 -0.0880 -0.3300
 8154TIP3    H124426   2.843   4.278   1.300 -0.8506  0.5731  1.2673
 8154TIP3    H224427   2.980   4.271   1.365 -1.0767 -0.2945  1.6683
 8155TIP3   OH224428   7.048   0.479   4.874 -0.2106  0.9377 -0.2736
 8155TIP3    H124429   7.085   0.560   4.910  0.4909  0.2373  0.6333
 8155TIP3    H224430   7.029   0.425   4.951  0.2150 -0.1325 -0.8907
 8156TIP3   OH224431   1.387   5.371   3.928  0.0655  0.1896 -0.0355
 8156TIP3    H124432   1.419   5.439   3.987  1.2680 -1.2214  1.0008
 8156TIP3    H224433   1.384   5.292   3.981  1.5215 -1.2173 -1.9095
 8157TIP3   OH224434   1.391   2.905   3.511  0.3937 -0.1474 -0.6608
 8157TIP3    H124435   1.478   2.936   3.487  1.2249 -2.4992 -0.9385
 8157TIP3    H224436   1.355   2.870   3.429 -0.3052 -0.3437 -0.2742
 8158TIP3   OH224437   5.052   3.981   0.530 -0.0814 -0.7551 -0.1238
 8158TIP3    H124438   5.007   3.990   0.445  0.0173  0.9077 -0.0351
 8158TIP3    H224439   5.006   3.910   0.574 -2.2470  0.4381 -0.3104
 8159TIP3   OH224440   2.579   0.877   1.053  0.0820 -0.3343  1.0922
 8159TIP3    H124441   2.529   0.865   0.973 -0.0820  2.3270  0.6981
 8159TIP3    H224442   2.613   0.790   1.074  0.0335 -1.1382 -1.7824
 8160TIP3   OH224443   3.231   2.624   5.823 -0.4482  0.0422 -0.2699
 8160TIP3    H124444   3.263   2.622   5.733  1.0289  0.9211  0.1967
 8160TIP3    H224445   3.284   2.559   5.869 -0.7720  0.0268  0.0862
 8161TIP3   OH224446   4.670   2.326   2.808  0.0585 -0.3336 -0.1363
 8161TIP3    H124447   4.643   2.238   2.834  1.1453 -0.8686 -0.7675
 8161TIP3    H224448   4.607   2.351   2.741 -0.4293 -0.5124  0.2515
 8162TIP3   OH224449   4.018   1.564   2.674 -0.3460  1.3215  0.0673
 8162TIP3    H124450   4.067   1.537   2.597 -0.5559 -0.8276  0.6259
 8162TIP3    H224451   4.085   1.594   2.736  0.3235 -1.0554  0.6166
 8163TIP3   OH224452   0.641   4.068   0.401  0.4593  0.1513  0.3363
 8163TIP3    H124453   0.614   4.080   0.492  0.9718  1.3616  0.3480
 8163TIP3    H224454   0.610   3.981   0.378 -1.4439  0.5984  1.0324
 8164TIP3   OH224455   7.164   6.123   4.886 -0.2322 -0.1403  0.1989
 8164TIP3    H124456   7.214   6.130   4.967  1.7149  0.4069 -0.9814
 8164TIP3    H224457   7.159   6.029   4.869  1.0074 -0.2014  0.0331
 8165TIP3   OH224458   0.123   5.964   3.609  0.8998 -0.1651  0.6785
 8165TIP3    H124459   0.148   6.041   3.558  0.3832 -2.2708 -3.1377
 8165TIP3    H224460   0.205   5.916   3.621  0.9098  0.0059  1.3578
 8166TIP3   OH224461   6.874   0.478   2.627 -0.4371  0.3542 -0.1521
 8166TIP3    H124462   6.804   0.415   2.610 -0.9139  0.6416  0.6773
 8166TIP3    H224463   6.952   0.425   2.638 -0.5908  0.0022 -0.7330
 8167TIP3   OH224464   5.809   6.249   1.308  0.0117 -0.0476  0.2861
 8167TIP3    H124465   5.765   6.237   1.392 -0.0698  0.8996  0.3850
 8167TIP3    H224466   5.891   6.200   1.317  0.3934  0.7319  1.2332
 8168TIP3   OH224467   3.424   0.740   2.857 -0.3036  0.2521  0.3527
 8168TIP3    H124468   3.477   0.663   2.836  0.2692  0.4830  0.9074
 8168TIP3    H224469   3.436   0.799   2.783 -0.5997 -0.1123  0.0089
 8169TIP3   OH224470   6.978   5.166   0.231 -0.2577  0.0745  0.1663
 8169TIP3    H124471   7.051   5.112   0.261  0.2434  0.9792  0.6103
 8169TIP3    H224472   6.900   5.118   0.258  0.1728 -0.6414  0.1618
 8170TIP3   OH224473   1.550   4.403   1.356 -0.1489 -0.3598 -0.3386
 8170TIP3    H124474   1.540   4.311   1.379 -0.9347  0.0033  0.8674
 8170TIP3    H224475   1.511   4.450   1.429 -0.1743  0.9276 -1.1524
 8171TIP3   OH224476   6.418   3.732   5.598  0.5232  0.0082 -0.0408
 8171TIP3    H124477   6.465   3.770   5.524  2.2672 -0.0860  0.9373
 8171TIP3    H224478   6.419   3.801   5.665 -0.8903  0.0425 -0.0327
 8172TIP3   OH224479   4.481   5.638   2.746  0.2076 -0.3494 -0.1878
 8172TIP3    H124480   4.463   5.624   2.839  0.0109 -1.0961 -0.3284
 8172TIP3    H224481   4.453   5.728   2.729  0.2198 -0.2170  0.4701
 8173TIP3   OH224482   4.919   2.429   1.186  0.3876  0.2301 -0.3615
 8173TIP3    H124483   4.931   2.411   1.280 -0.3576  1.0276 -0.1006
 8173TIP3    H224484   4.830   2.463   1.180 -0.4982 -2.1224 -1.7170
 8174TIP3   OH224485   3.173   3.344   3.493 -0.4066 -0.1200  0.1328
 8174TIP3    H124486   3.225   3.362   3.415  0.0237 -1.3906  0.0979
 8174TIP3    H224487   3.189   3.251   3.511 -2.0688 -0.3444  0.5679
 8175TIP3   OH224488   5.715   6.606   3.485 -0.6714  0.0424  0.4828
 8175TIP3    H124489   5.676   6.677   3.435  2.5373  1.8552  0.2857
 8175TIP3    H224490   5.686   6.622   3.575 -1.3716  0.5810  0.1707
 8176TIP3   OH224491   6.384   4.549   3.090  0.1626 -0.3122  0.0185
 8176TIP3    H124492   6.359   4.461   3.118 -0.6708 -0.1805 -0.2737
 8176TIP3    H224493   6.326   4.567   3.016 -0.5793  0.9847  0.8867
 8177TIP3   OH224494   0.245   1.663   0.301  0.5383  0.2048 -0.6615
 8177TIP3    H124495   0.158   1.625   0.296  0.7033 -0.1206 -1.1514
 8177TIP3    H224496   0.274   1.670   0.210  1.0879  0.1576 -0.4969
 8178TIP3   OH224497   0.978   0.643   5.760  0.3112 -0.0934 -0.4039
 8178TIP3    H124498   1.010   0.624   5.672  1.9902  0.2428  0.0841
 8178TIP3    H224499   1.058   0.652   5.812 -0.6449 -0.0606  1.1070
 8179TIP3   OH224500   2.788   5.179   5.550 -0.0194  0.2294  0.0742
 8179TIP3    H124501   2.719   5.154   5.489 -0.7235 -0.1955  1.0214
 8179TIP3    H224502   2.854   5.109   5.541  0.0123  0.3155 -0.3913
 8180TIP3   OH224503   0.742   0.055   1.336  0.2367 -0.1684 -0.8971
 8180TIP3    H124504   0.746   0.007   1.419  1.0914 -0.8204 -1.2956
 8180TIP3    H224505   0.651   0.046   1.307  0.0092 -0.2054 -0.1903
 8181TIP3   OH224506   1.737   2.360   3.808  0.4562 -0.1693 -0.4705
 8181TIP3    H124507   1.721   2.448   3.774 -0.3990  0.5383  1.6105
 8181TIP3    H224508   1.699   2.361   3.896  0.3489 -2.6589 -0.4228
 8182TIP3   OH224509   3.099   4.711   1.674 -0.3374 -0.5037 -0.4370
 8182TIP3    H124510   3.047   4.641   1.637 -0.9046 -0.3877  0.1195
 8182TIP3    H224511   3.035   4.776   1.702  0.1119 -0.2937  0.1222
 8183TIP3   OH224512   0.557   0.974   5.087  0.0007 -0.0604 -0.3256
 8183TIP3    H124513   0.623   0.974   5.156 -0.8226 -0.7289  0.4722
 8183TIP3    H224514   0.608   0.963   5.006  0.9926  1.0726  0.1177
 8184TIP3   OH224515   5.586   4.780   4.661 -0.4094  0.2779  0.3118
 8184TIP3    H124516   5.520   4.747   4.600 -0.4272 -0.1064  0.5355
 8184TIP3    H224517   5.599   4.708   4.723  0.0049  0.4613  0.4407
 8185TIP3   OH224518   3.567   1.614   5.623  0.7318 -0.4456  0.3246
 8185TIP3    H124519   3.489   1.651   5.583  0.6920 -0.1735  0.6534
 8185TIP3    H224520   3.559   1.519   5.607 -0.3124 -0.5691  1.4791
 8186TIP3   OH224521   1.985   2.805   5.310 -0.1090 -0.2151 -0.2956
 8186TIP3    H124522   1.959   2.726   5.356 -0.1551  0.0817  0.1963
 8186TIP3    H224523   1.915   2.868   5.327  0.0313  0.0024 -0.4993
 8187TIP3   OH224524   5.040   4.698   2.019  0.1348  0.2066 -0.2091
 8187TIP3    H124525   5.102   4.748   2.072 -0.8929  1.5380 -0.2321
 8187TIP3    H224526   5.062   4.720   1.929 -0.1595  0.4259 -0.2280
 8188TIP3   OH224527   0.955   6.350   4.442 -0.4683  0.1506  0.0538
 8188TIP3    H124528   1.026   6.383   4.497  0.6914 -1.7281 -0.2470
 8188TIP3    H224529   0.878   6.400   4.471  0.1387 -0.4613  3.1367
 8189TIP3   OH224530   5.697   3.906   3.928  0.1970 -0.0028  0.7724
 8189TIP3    H124531   5.792   3.897   3.929  0.1526 -0.7279 -0.2301
 8189TIP3    H224532   5.682   4.001   3.926  0.9981  0.1540 -2.1033
 8190TIP3   OH224533   6.361   2.687   2.669 -0.4817  0.3711 -0.7114
 8190TIP3    H124534   6.355   2.595   2.642 -0.5765  0.3811 -0.7245
 8190TIP3    H224535   6.450   2.697   2.701 -0.9045 -0.0967  0.6506
 8191TIP3   OH224536   4.062   1.201   3.589  0.1821  0.1241 -0.0392
 8191TIP3    H124537   3.996   1.267   3.611  0.4041  0.1687  0.5045
 8191TIP3    H224538   4.126   1.248   3.536  1.4440  0.9223  2.0514
 8192TIP3   OH224539   0.172   2.939   1.333 -0.1877 -0.3953  0.1535
 8192TIP3    H124540   0.082   2.950   1.364  0.4181 -0.6863  2.1537
 8192TIP3    H224541   0.225   2.947   1.412  1.5932  0.2072 -1.0468
 8193TIP3   OH224542   5.646   3.980   5.830 -0.1922 -0.3095 -0.3256
 8193TIP3    H124543   5.736   3.969   5.862 -0.5382  0.9944  1.2088
 8193TIP3    H224544   5.653   4.038   5.755  0.2211  0.0734  0.0069
 8194TIP3   OH224545   1.411   2.112   5.226  0.2335  0.5817  0.1950
 8194TIP3    H124546   1.332   2.062   5.208  0.7457 -0.1136 -0.1989
 8194TIP3    H224547   1.446   2.072   5.306  0.8746 -0.0037 -0.3588
 8195TIP3   OH224548   7.040   2.662   2.052  0.2031  0.8020  0.0528
 8195TIP3    H124549   6.953   2.623   2.061  1.0763 -1.3664 -0.3828
 8195TIP3    H224550   7.027   2.754   2.074 -1.7257  0.0486  2.5991
 8196TIP3   OH224551   0.658   4.588   2.598  0.3151  0.6019 -0.0826
 8196TIP3    H124552   0.703   4.509   2.628 -0.2170  0.1257 -0.5123
 8196TIP3    H224553   0.589   4.556   2.540 -0.6851  1.3016  0.6802
 8197TIP3   OH224554   2.846   2.322   1.261  0.3895  0.3274  0.5544
 8197TIP3    H124555   2.884   2.254   1.317  1.1892  0.4765  0.1923
 8197TIP3    H224556   2.848   2.285   1.173 -0.5070  0.2539  0.5474
 8198TIP3   OH224557   6.883   2.936   4.014  0.3477  0.0199  0.4401
 8198TIP3    H124558   6.955   2.999   4.018  0.8864 -0.3647 -1.6705
 8198TIP3    H224559   6.925   2.853   3.991 -0.6222 -0.5043  0.4855
 8199TIP3   OH224560   3.726   6.561   4.180  0.6289 -0.4357  0.0644
 8199TIP3    H124561   3.776   6.607   4.113  1.2315 -1.5204 -0.2606
 8199TIP3    H224562   3.777   6.571   4.260  0.9144 -0.7866 -0.0719
 8200TIP3   OH224563   1.546   2.641   1.109 -0.0101 -0.5949  0.4091
 8200TIP3    H124564   1.482   2.581   1.146  0.8345 -1.5642  0.3364
 8200TIP3    H224565   1.525   2.644   1.015 -0.6266 -0.0353  0.5549
 8201TIP3   OH224566   5.879   4.745   2.106  0.7144  0.0247 -0.5766
 8201TIP3    H124567   5.822   4.712   2.036  1.3857  1.5414 -1.8916
 8201TIP3    H224568   5.847   4.833   2.124  0.9658 -0.1033  0.5926
 8202TIP3   OH224569   0.471   2.628   0.366  0.0908  0.3123  0.5968
 8202TIP3    H124570   0.419   2.562   0.413 -1.7751  0.7360 -0.7894
 8202TIP3    H224571   0.424   2.642   0.284  2.1324  1.1374 -0.4996
 8203TIP3   OH224572   0.531   1.370   2.289 -0.3078  0.1870 -0.0668
 8203TIP3    H124573   0.512   1.393   2.380  0.2159  0.7009 -0.0711
 8203TIP3    H224574   0.548   1.276   2.290  0.3502  0.3004  0.4973
 8204TIP3   OH224575   2.876   4.942   3.207 -0.3421 -0.3525 -0.2522
 8204TIP3    H124576   2.946   4.980   3.259 -2.1756  0.4962  1.7518
 8204TIP3    H224577   2.869   4.998   3.130  0.4097  0.2532  0.1125
 8205TIP3   OH224578   4.506   2.660   5.277  0.1207  0.0324 -0.1608
 8205TIP3    H124579   4.594   2.628   5.294 -0.0219 -0.8584 -0.9991
 8205TIP3    H224580   4.505   2.748   5.314  0.6436 -0.7654  1.8630
 8206TIP3   OH224581   2.432   2.297   1.064 -0.4113 -0.1528  0.2835
 8206TIP3    H124582   2.461   2.384   1.094 -0.7368  0.1839 -0.3491
 8206TIP3    H224583   2.456   2.238   1.136 -0.0331  0.4317  0.6548
 8207TIP3   OH224584   4.579   4.337   1.487 -0.0506 -0.9616  0.8592
 8207TIP3    H124585   4.609   4.361   1.575  0.7958  1.6012 -0.0434
 8207TIP3    H224586   4.654   4.295   1.447  1.6680  2.8599 -0.4050
 8208TIP3   OH224587   6.968   6.432   5.786 -0.0927  0.1827  0.2350
 8208TIP3    H124588   6.980   6.356   5.729 -0.4421 -0.1857  0.6434
 8208TIP3    H224589   6.890   6.476   5.752 -0.5210 -0.2451  0.6436
 8209TIP3   OH224590   1.906   3.090   5.316  0.6011  1.2182 -0.4234
 8209TIP3    H124591   1.850   3.166   5.302 -0.3981  0.7365  0.8039
 8209TIP3    H224592   1.893   3.067   5.408  1.6278  0.1492 -0.5242
 8210TIP3   OH224593   4.915   6.414   0.266  0.1703  0.2516  0.1620
 8210TIP3    H124594   4.997   6.433   0.220 -0.0193 -0.7394 -0.6171
 8210TIP3    H224595   4.852   6.478   0.231  0.2211 -0.0021 -0.3987
 8211TIP3   OH224596   6.357   0.644   4.451  0.0741 -0.1825  0.4971
 8211TIP3    H124597   6.444   0.681   4.433 -0.3667  0.7544  0.2395
 8211TIP3    H224598   6.350   0.647   4.546 -0.8301  2.5954  0.4446
 8212TIP3   OH224599   0.153   3.538   3.993 -0.3623  0.2322  0.0701
 8212TIP3    H124600   0.087   3.507   3.931 -0.7870 -1.9108  1.4532
 8212TIP3    H224601   0.236   3.502   3.961 -0.3470  0.4279 -0.1026
 8213TIP3   OH224602   6.263   4.949   4.148  0.2443  0.1677  0.4930
 8213TIP3    H124603   6.355   4.951   4.173  0.0512 -1.8858  1.5971
 8213TIP3    H224604   6.217   4.993   4.220  0.1806 -0.9008  1.1262
 8214TIP3   OH224605   1.161   6.373   3.686 -0.3896 -0.1026  0.2080
 8214TIP3    H124606   1.117   6.420   3.757 -2.0864 -1.1074 -0.1226
 8214TIP3    H224607   1.151   6.281   3.710 -1.5561 -0.4969 -1.6061
 8215TIP3   OH224608   0.170   0.047   4.730 -0.1640  0.3473  0.5129
 8215TIP3    H124609   0.167   0.142   4.744 -0.9523  0.1232  2.0624
 8215TIP3    H224610   0.078   0.019   4.737  0.3092 -0.8361  2.6001
 8216TIP3   OH224611   5.172   2.065   3.706  0.3938  0.5174 -0.5527
 8216TIP3    H124612   5.250   2.016   3.681 -0.3344 -0.8311 -0.2746
 8216TIP3    H224613   5.176   2.069   3.802 -0.3829 -0.4629 -0.4649
 8217TIP3   OH224614   3.150   2.317   0.651 -0.4332 -0.2610  0.8125
 8217TIP3    H124615   3.088   2.306   0.579  0.8616 -0.8361 -0.2525
 8217TIP3    H224616   3.112   2.387   0.705 -0.9163  0.9460 -0.9953
 8218TIP3   OH224617   3.924   5.000   4.829  0.2987  0.5093 -0.0158
 8218TIP3    H124618   3.944   4.921   4.779  1.0217  1.6707 -1.6586
 8218TIP3    H224619   3.884   4.968   4.909  2.1824 -1.6250  0.1819
 8219TIP3   OH224620   4.496   1.199  -0.036  0.2616 -0.2027  0.2087
 8219TIP3    H124621   4.457   1.126   0.013  0.4135  0.2432  1.0106
 8219TIP3    H224622   4.538   1.253   0.031 -0.8526  1.2562 -0.2216
 8220TIP3   OH224623   0.642   3.158   4.619  0.2663  0.2892 -0.0743
 8220TIP3    H124624   0.618   3.088   4.559 -0.6292  0.5223 -0.0014
 8220TIP3    H224625   0.560   3.203   4.638  0.4357 -0.1230  1.7707
 8221TIP3   OH224626   2.056   1.498   2.433 -0.3543  0.2996  0.1838
 8221TIP3    H124627   2.133   1.444   2.421 -0.4558  0.6875 -2.8913
 8221TIP3    H224628   2.090   1.581   2.469  0.2132 -0.5150  1.6166
 8222TIP3   OH224629   1.633   2.561   4.708  0.0087 -0.4654 -0.0198
 8222TIP3    H124630   1.548   2.605   4.701 -0.3870 -1.4345 -1.7234
 8222TIP3    H224631   1.695   2.620   4.665 -0.6360 -1.7505 -2.9271
 8223TIP3   OH224632   1.865   2.485   2.354  0.4907 -0.9919  0.0796
 8223TIP3    H124633   1.833   2.526   2.274  1.4164 -2.7109 -1.2299
 8223TIP3    H224634   1.911   2.555   2.400 -1.1987  0.3644 -0.1865
 8224TIP3   OH224635   5.663   6.349   1.086 -0.1014 -0.2530  0.4522
 8224TIP3    H124636   5.690   6.438   1.065  0.0925 -0.1272  1.2089
 8224TIP3    H224637   5.736   6.313   1.137  0.0367 -1.0112 -0.2677
 8225TIP3   OH224638   3.630   4.409   0.863  0.6669 -0.3184 -0.5814
 8225TIP3    H124639   3.599   4.499   0.868 -0.8580 -0.6010 -3.4102
 8225TIP3    H224640   3.715   4.415   0.820  0.9039 -0.2067 -0.1098
 8226TIP3   OH224641   0.961   5.853   3.976  0.0339 -0.0404 -0.3564
 8226TIP3    H124642   0.986   5.761   3.964  0.9355  0.2036 -0.4506
 8226TIP3    H224643   0.904   5.853   4.053  0.1439 -0.6540 -0.2681
 8227TIP3   OH224644   1.900   0.311   5.037  0.2993  0.0254  0.3746
 8227TIP3    H124645   1.866   0.400   5.024  1.0999  0.1614 -0.9778
 8227TIP3    H224646   1.827   0.254   5.015 -0.2291  0.3395  1.2774
 8228TIP3   OH224647   2.453   1.175   0.094 -0.2817 -0.2825  0.1635
 8228TIP3    H124648   2.372   1.215   0.127 -0.3993 -0.2138 -0.1952
 8228TIP3    H224649   2.506   1.250   0.066 -0.5404 -0.3699 -0.5997
 8229TIP3   OH224650   1.057   2.154   4.028  0.3565  0.4363 -0.2980
 8229TIP3    H124651   0.983   2.206   3.995  1.0515  0.8849 -1.1765
 8229TIP3    H224652   1.041   2.067   3.992  0.9916  0.8682 -1.7151
 8230TIP3   OH224653   6.187   2.581   2.921 -0.1005  0.0795  0.1436
 8230TIP3    H124654   6.146   2.628   2.848 -0.9456  1.4896  1.4532
 8230TIP3    H224655   6.135   2.501   2.930  0.2156 -0.2702 -0.9786
 8231TIP3   OH224656   1.410   0.479   1.648 -0.1311  0.0009 -0.0449
 8231TIP3    H124657   1.498   0.506   1.675 -0.0545 -0.3073  0.0122
 8231TIP3    H224658   1.420   0.389   1.618  0.3816  1.1707 -3.9278
 8232TIP3   OH224659   0.946   1.852   2.362 -0.1591 -0.6580  0.9708
 8232TIP3    H124660   0.903   1.891   2.286  1.3207 -0.0848  0.3922
 8232TIP3    H224661   0.920   1.908   2.435 -2.1288 -1.5940  1.0530
 8233TIP3   OH224662   5.253   0.253   2.106  0.0600 -0.3962  0.1515
 8233TIP3    H124663   5.171   0.303   2.108  0.0476 -0.3187  3.4390
 8233TIP3    H224664   5.321   0.318   2.121  0.4695 -0.7976  0.0307
 8234TIP3   OH224665   2.223   5.493   1.461 -0.0857  0.5579 -0.2139
 8234TIP3    H124666   2.185   5.406   1.473  0.8736 -0.0801 -1.6806
 8234TIP3    H224667   2.314   5.484   1.488  0.1019  1.0382 -0.6792
 8235TIP3   OH224668   4.162   0.824   0.420 -0.9342  0.4077 -0.7311
 8235TIP3    H124669   4.141   0.782   0.504  0.5608 -1.4729 -1.2474
 8235TIP3    H224670   4.257   0.829   0.418 -0.9049 -0.3022 -2.6573
 8236TIP3   OH224671   2.019   1.462   3.750  0.4042  0.1448  0.4413
 8236TIP3    H124672   1.971   1.384   3.777  0.8652  0.3630  1.9977
 8236TIP3    H224673   1.964   1.503   3.684 -0.6129 -0.6388  0.7896
 8237TIP3   OH224674   7.209   6.545   5.836 -0.3046 -0.2999 -1.1144
 8237TIP3    H124675   7.122   6.507   5.827  0.5424 -2.6070 -0.4076
 8237TIP3    H224676   7.215   6.573   5.927 -0.3275 -0.0917 -1.1767
 8238TIP3   OH224677   2.583   1.046   3.965  0.4312 -0.0003  0.5216
 8238TIP3    H124678   2.637   1.114   4.005 -1.2396 -0.1984  3.3051
 8238TIP3    H224679   2.505   1.041   4.019 -0.3063 -2.9380 -0.6030
 8239TIP3   OH224680   2.128   6.055   4.336 -0.1778 -0.5594 -0.8104
 8239TIP3    H124681   2.130   6.151   4.333  0.1611 -0.4464  1.6793
 8239TIP3    H224682   2.217   6.029   4.310  1.5153  0.1182  3.4944
 8240TIP3   OH224683   4.515   3.185   1.478 -0.1299 -0.0102  0.6871
 8240TIP3    H124684   4.597   3.136   1.492  0.0371  0.1220  0.1786
 8240TIP3    H224685   4.507   3.240   1.556  1.7441  2.0885 -0.4905
 8241TIP3   OH224686   5.627   5.052   0.644 -0.2841  0.0305 -0.0520
 8241TIP3    H124687   5.567   4.978   0.635  1.0472 -1.7946  3.6658
 8241TIP3    H224688   5.627   5.072   0.738  0.0694  4.3313 -0.7622
 8242TIP3   OH224689   0.969   0.849   5.561  0.2424 -0.3974 -0.4706
 8242TIP3    H124690   1.034   0.780   5.568  2.2298  1.4480  0.5917
 8242TIP3    H224691   1.000   0.917   5.621 -0.0488  2.5934 -3.4298
 8243TIP3   OH224692   2.084   2.908   1.891 -0.1707  0.4663 -0.9307
 8243TIP3    H124693   2.048   2.820   1.884 -0.3927  0.5928 -1.4343
 8243TIP3    H224694   2.178   2.897   1.884 -0.0182  0.0537  1.0700
 8244TIP3   OH224695   2.618   4.942   3.206 -0.4148  0.2686  0.1216
 8244TIP3    H124696   2.602   4.874   3.142 -1.6775  0.8928 -0.2607
 8244TIP3    H224697   2.706   4.923   3.241  0.0543 -0.4013 -1.3626
 8245TIP3   OH224698   1.595   6.366   2.234  0.4459  0.1946 -0.3329
 8245TIP3    H124699   1.616   6.334   2.322  1.6037  0.4878 -0.4817
 8245TIP3    H224700   1.591   6.287   2.180  1.4592  0.1394 -0.3422
 8246TIP3   OH224701   7.068   2.397   1.361  0.7107 -0.6940  0.2438
 8246TIP3    H124702   7.008   2.328   1.331  0.1139  0.5559 -1.6625
 8246TIP3    H224703   7.137   2.398   1.295 -0.1693  1.5786 -0.7575
 8247TIP3   OH224704   4.855   4.243   4.430  0.8815  0.1452  0.1658
 8247TIP3    H124705   4.822   4.228   4.342 -0.7525  1.1824  0.5529
 8247TIP3    H224706   4.834   4.163   4.478  0.0237  0.3191  0.0903
 8248TIP3   OH224707   6.669   2.267   3.334 -0.3720  0.7550  0.1064
 8248TIP3    H124708   6.604   2.221   3.281 -1.0748  2.0219 -0.1735
 8248TIP3    H224709   6.715   2.198   3.381 -2.7905 -0.1389  1.3206
 8249TIP3   OH224710   4.175   4.059   1.782 -0.1663  0.3190  0.0608
 8249TIP3    H124711   4.099   4.087   1.731  1.2095  1.0398 -1.7168
 8249TIP3    H224712   4.248   4.066   1.721  1.1624 -1.5777  1.3298
 8250TIP3   OH224713   5.530   1.614   2.800  0.1477 -0.2192  0.6221
 8250TIP3    H124714   5.559   1.646   2.886  1.4475 -0.1388  0.1669
 8250TIP3    H224715   5.589   1.542   2.780 -0.9690 -1.0961  0.3521
 8251TIP3   OH224716   1.182   6.082   2.971 -0.3877  0.0126  0.0393
 8251TIP3    H124717   1.231   6.162   2.955 -2.8789  1.7086  0.3848
 8251TIP3    H224718   1.132   6.068   2.891  0.2976 -1.4747 -0.1694
 8252TIP3   OH224719   5.818   4.245   4.746  0.0675  0.1573  0.4039
 8252TIP3    H124720   5.724   4.235   4.730  0.6691 -2.5379 -2.3302
 8252TIP3    H224721   5.832   4.208   4.833 -1.2892 -0.0415  0.5624
 8253TIP3   OH224722   5.733   4.676   4.278  0.1779  0.2821  0.3688
 8253TIP3    H124723   5.720   4.704   4.188  0.2779  0.2813  0.3544
 8253TIP3    H224724   5.821   4.707   4.301  0.9748 -1.4626 -0.1869
 8254TIP3   OH224725   2.397   5.736   5.217 -0.7226  0.5866  0.2177
 8254TIP3    H124726   2.328   5.765   5.276 -1.8467  0.4052 -0.9548
 8254TIP3    H224727   2.379   5.644   5.201 -1.0417  0.8531 -1.1366
 8255TIP3   OH224728   0.867   1.908   2.666 -0.1317  0.0279  0.2920
 8255TIP3    H124729   0.917   1.827   2.679  0.5571  0.5117  0.7595
 8255TIP3    H224730   0.934   1.975   2.654 -0.6977  0.2677 -1.8608
 8256TIP3   OH224731   5.754   5.953   2.787  0.0701  0.7539  0.4722
 8256TIP3    H124732   5.700   6.003   2.849  0.3878 -0.1045  1.4599
 8256TIP3    H224733   5.843   5.983   2.803  0.2398  0.0198  0.9416
 8257TIP3   OH224734   4.676   1.619   5.434  0.0475 -0.7664  0.0974
 8257TIP3    H124735   4.602   1.562   5.412  0.9978 -2.3997  0.9551
 8257TIP3    H224736   4.684   1.612   5.529 -0.5158  1.7670  0.3899
 8258TIP3   OH224737   4.854   3.812   4.062 -0.4114 -0.5251 -0.2152
 8258TIP3    H124738   4.816   3.800   4.149 -0.5399  0.6850 -0.0990
 8258TIP3    H224739   4.879   3.904   4.058 -0.3867 -0.5657 -1.4530
 8259TIP3   OH224740   4.369   3.354   4.880 -0.1956 -0.2898  0.3539
 8259TIP3    H124741   4.387   3.441   4.845  0.7829 -0.5315  0.2363
 8259TIP3    H224742   4.385   3.362   4.974 -0.4103 -0.2653  0.3885
 8260TIP3   OH224743   4.329   0.403   2.724  0.4199  0.7666 -0.0485
 8260TIP3    H124744   4.281   0.338   2.776  0.9781  0.3154 -0.0881
 8260TIP3    H224745   4.307   0.381   2.633  2.2285 -0.7065 -0.1849
 8261TIP3   OH224746   2.707   1.834   4.003 -0.8090  0.0475  0.4149
 8261TIP3    H124747   2.618   1.833   3.966 -0.5321  2.1814 -0.4958
 8261TIP3    H224748   2.720   1.925   4.029  1.1730 -0.1931  0.3873
 8262TIP3   OH224749   2.289   5.577   3.477  0.6642 -0.2524 -0.1957
 8262TIP3    H124750   2.262   5.491   3.510  1.3381 -0.7416 -0.8964
 8262TIP3    H224751   2.242   5.587   3.395 -1.3811  1.1708  1.0449
 8263TIP3   OH224752   6.021   4.519   4.425  0.2529  0.4667 -0.0700
 8263TIP3    H124753   6.005   4.497   4.516 -1.2146 -0.1493 -0.4415
 8263TIP3    H224754   6.099   4.468   4.401  0.7889  0.8206  0.8791
 8264TIP3   OH224755   5.513   2.546   0.225 -0.4065  0.0516 -0.0397
 8264TIP3    H124756   5.440   2.569   0.168 -1.9082 -0.6281  1.5519
 8264TIP3    H224757   5.494   2.458   0.255  1.0168 -0.0933  0.5390
 8265TIP3   OH224758   1.870   5.559   1.926  0.1629  0.4773 -0.0705
 8265TIP3    H124759   1.807   5.495   1.958 -0.2666  1.0955  0.3557
 8265TIP3    H224760   1.818   5.619   1.872  0.1075  1.7686  1.3649
 8266TIP3   OH224761   6.475   4.426   0.226 -0.3097  0.8517 -0.6908
 8266TIP3    H124762   6.383   4.421   0.201 -0.3588 -1.1157 -0.3109
 8266TIP3    H224763   6.521   4.381   0.155  0.2700  1.0436 -0.4429
 8267TIP3   OH224764   2.573   3.511   1.205  0.7146 -0.0035  0.0688
 8267TIP3    H124765   2.541   3.526   1.294  1.0611 -1.4367  0.4631
 8267TIP3    H224766   2.534   3.581   1.153 -0.2534  0.3104  1.1784
 8268TIP3   OH224767   5.369   3.934   4.348 -0.6095  0.2303 -0.1778
 8268TIP3    H124768   5.365   3.974   4.435 -0.9097 -2.9017  1.3681
 8268TIP3    H224769   5.284   3.891   4.338  0.4002 -1.7246 -0.8171
 8269TIP3   OH224770   3.303   5.025   3.944 -0.6309 -0.2830 -0.0352
 8269TIP3    H124771   3.298   5.120   3.950 -1.7626 -0.2916 -0.5539
 8269TIP3    H224772   3.255   5.003   3.864 -0.4309 -1.2907  0.1038
 8270TIP3   OH224773   1.565   6.731   5.668 -0.2191  0.6014  0.4218
 8270TIP3    H124774   1.517   6.760   5.591 -1.3288 -0.5175  0.6573
 8270TIP3    H224775   1.501   6.681   5.719  0.4336  1.4694  2.1743
 8271TIP3   OH224776   2.356   5.735   3.168 -0.8318  1.0976 -0.3809
 8271TIP3    H124777   2.361   5.786   3.248  0.7531  1.7242 -0.8301
 8271TIP3    H224778   2.425   5.771   3.112  0.9168 -1.9742 -0.4638
 8272TIP3   OH224779   2.401   6.488   0.417 -0.2164  0.4679 -0.1443
 8272TIP3    H124780   2.354   6.541   0.481 -1.4529 -0.9598  0.1632
 8272TIP3    H224781   2.477   6.454   0.465 -1.1004 -0.5437  0.5540
 8273TIP3   OH224782   6.316   1.036   3.183 -0.3729 -0.2554 -0.3712
 8273TIP3    H124783   6.352   1.057   3.269  0.7155  0.7989 -1.0544
 8273TIP3    H224784   6.363   0.958   3.155  1.1822  0.8695 -1.0744
 8274TIP3   OH224785   5.913   6.291   3.044  0.2309  0.1551 -0.7672
 8274TIP3    H124786   5.983   6.251   3.095 -0.0708  0.4973 -0.0599
 8274TIP3    H224787   5.887   6.367   3.096 -0.1212  0.4874 -1.4173
 8275TIP3   OH224788   5.348   2.687   2.219  0.3999 -0.0748  0.3986
 8275TIP3    H124789   5.350   2.737   2.300 -1.6923  0.5384  0.1393
 8275TIP3    H224790   5.275   2.725   2.170  2.4802  0.5891 -2.4509
 8276TIP3   OH224791   5.461   0.682   0.728  0.5661 -0.4272 -0.6275
 8276TIP3    H124792   5.380   0.695   0.777  0.2268 -6.3359  1.2392
 8276TIP3    H224793   5.433   0.680   0.637 -0.7099  0.9360 -0.3063
 8277TIP3   OH224794   3.189   1.784   3.516  0.1285  0.3288  0.2509
 8277TIP3    H124795   3.265   1.794   3.573 -0.3300 -0.2892  0.9929
 8277TIP3    H224796   3.116   1.772   3.576 -0.8467  2.5697 -0.3797
 8278TIP3   OH224797   3.912   4.834   5.321 -0.5916 -0.1641 -0.3825
 8278TIP3    H124798   3.834   4.803   5.275 -1.7846  1.2376  0.5966
 8278TIP3    H224799   3.960   4.884   5.256 -1.7164  0.8985 -0.4359
 8279TIP3   OH224800   7.119   6.737   3.887 -0.1690 -1.0178  0.4511
 8279TIP3    H124801   7.047   6.750   3.948 -0.3322 -3.3301  0.8390
 8279TIP3    H224802   7.175   6.814   3.899 -1.9877  0.2751  0.9290
 8280TIP3   OH224803   3.707   6.706   4.799 -0.1235  0.0702 -0.0187
 8280TIP3    H124804   3.795   6.729   4.770 -0.8404  3.1180 -0.1546
 8280TIP3    H224805   3.659   6.686   4.718 -0.3663  1.7672 -0.3283
 8281TIP3   OH224806   4.253   2.405   4.951  0.1561  0.3233  0.1881
 8281TIP3    H124807   4.272   2.443   4.866  0.0995 -0.6807 -0.2868
 8281TIP3    H224808   4.226   2.479   5.005 -0.6850  0.8518 -0.9233
 8282TIP3   OH224809   2.748   5.298   3.414 -0.8234 -0.1324  0.1363
 8282TIP3    H124810   2.700   5.381   3.415 -0.8170 -0.1318  0.5835
 8282TIP3    H224811   2.720   5.252   3.493  0.7855  0.3919  1.0672
 8283TIP3   OH224812   2.533   1.192   1.499  0.1183  0.0216 -0.0611
 8283TIP3    H124813   2.528   1.288   1.505 -0.6070 -0.0193  0.1449
 8283TIP3    H224814   2.535   1.163   1.590  0.7455 -0.1483 -0.1258
 8284TIP3   OH224815   6.480   0.423   2.708  0.2401 -0.0705  0.6468
 8284TIP3    H124816   6.549   0.363   2.678  0.2591  1.4498 -2.8495
 8284TIP3    H224817   6.402   0.393   2.662 -0.0672  1.6874 -0.0260
 8285TIP3   OH224818   4.089   4.478   0.304 -0.5188 -0.1669  0.0304
 8285TIP3    H124819   4.180   4.452   0.318 -0.1199  1.5723  0.9326
 8285TIP3    H224820   4.089   4.521   0.218 -0.0439  1.5278  0.8330
 8286TIP3   OH224821   1.259   4.437   1.890  0.0231 -0.3377 -0.7289
 8286TIP3    H124822   1.323   4.390   1.943 -0.0565 -0.1050 -0.4212
 8286TIP3    H224823   1.245   4.381   1.813 -1.0361 -1.4331  0.2319
 8287TIP3   OH224824   5.876   3.082   0.060  0.0928  0.1178 -0.1428
 8287TIP3    H124825   5.906   3.057  -0.027 -0.5343  2.0055 -0.9430
 8287TIP3    H224826   5.849   3.000   0.101  2.3034 -1.0836 -0.9414
 8288TIP3   OH224827   6.105   0.778   3.031  0.0093 -0.9243 -0.1133
 8288TIP3    H124828   6.148   0.768   3.116  1.5230 -3.4219 -1.0564
 8288TIP3    H224829   6.023   0.729   3.040  0.3419 -1.4984 -0.1995
 8289TIP3   OH224830   4.523   1.385   3.501 -0.0663 -0.3127 -0.1447
 8289TIP3    H124831   4.508   1.291   3.508 -0.7278 -0.1244  1.4465
 8289TIP3    H224832   4.608   1.399   3.542  0.0850 -0.2214 -0.4849
 8290TIP3   OH224833   2.138   1.196   5.182  0.0017  0.1502  0.1481
 8290TIP3    H124834   2.162   1.164   5.095  0.4846 -0.7733  0.6041
 8290TIP3    H224835   2.164   1.288   5.182 -1.2477  0.5433 -1.1353
 8291TIP3   OH224836   0.645   1.132   2.978 -0.6366  0.3675  0.2619
 8291TIP3    H124837   0.581   1.169   3.039 -0.0819 -1.7901  2.2511
 8291TIP3    H224838   0.591   1.084   2.914 -1.0924  0.0408  0.8837
 8292TIP3   OH224839   5.281   6.287   3.628 -0.0783  0.9394 -0.3280
 8292TIP3    H124840   5.277   6.360   3.567  0.6212 -1.0086 -2.8845
 8292TIP3    H224841   5.195   6.245   3.623  0.3186  0.1509 -0.8499
 8293TIP3   OH224842   3.543   4.255   2.982 -0.2767 -0.3946  0.0610
 8293TIP3    H124843   3.602   4.310   2.930 -0.3383 -1.0426 -0.7223
 8293TIP3    H224844   3.601   4.191   3.024 -0.1750  0.3995  1.1794
 8294TIP3   OH224845   3.138   4.220   0.344 -0.5732  0.2185 -0.1901
 8294TIP3    H124846   3.045   4.197   0.354 -1.7236  4.7126  2.0216
 8294TIP3    H224847   3.175   4.207   0.431  0.6058 -0.3091 -0.7531
 8295TIP3   OH224848   0.184   5.007   0.301  0.0875 -0.0857 -0.0075
 8295TIP3    H124849   0.106   4.989   0.353  0.9344  0.1266  1.3735
 8295TIP3    H224850   0.166   5.091   0.260 -0.9944 -0.7184 -0.8859
 8296TIP3   OH224851   4.791   5.775   4.951 -0.0819  0.0529  0.5543
 8296TIP3    H124852   4.873   5.786   4.998  1.2771 -0.6222 -1.5230
 8296TIP3    H224853   4.772   5.861   4.916 -0.2112  0.1857  0.9456
 8297TIP3   OH224854   1.660   2.967   2.267 -0.2712  0.2816 -0.7708
 8297TIP3    H124855   1.676   2.917   2.187 -0.6117  1.4787 -1.6317
 8297TIP3    H224856   1.740   3.017   2.280 -0.0025 -0.3344 -0.0282
 8298TIP3   OH224857   3.194   0.877   0.808  0.1849  0.4538 -0.7696
 8298TIP3    H124858   3.233   0.859   0.723  2.0341 -0.0764  0.1391
 8298TIP3    H224859   3.226   0.965   0.831  1.9614 -0.4705  0.5247
 8299TIP3   OH224860   0.339   0.680   1.878  0.0068 -0.2563  0.2491
 8299TIP3    H124861   0.367   0.738   1.949 -0.6180 -0.9763  1.0974
 8299TIP3    H224862   0.264   0.725   1.838  1.8415  1.3665 -1.6164
 8300TIP3   OH224863   2.634   2.945   0.477 -0.1550 -0.0139 -0.0172
 8300TIP3    H124864   2.543   2.969   0.464  0.0133 -0.3485 -2.1301
 8300TIP3    H224865   2.642   2.931   0.571 -2.4011 -0.5150  0.1474
 8301TIP3   OH224866   6.302   6.798   1.532 -0.4514  0.2606 -0.4617
 8301TIP3    H124867   6.394   6.777   1.518 -0.2342  1.0924 -0.3452
 8301TIP3    H224868   6.255   6.719   1.504  0.3051 -0.2793 -0.2530
 8302TIP3   OH224869   0.891   1.601   2.271  0.5957  0.3353 -0.1570
 8302TIP3    H124870   0.845   1.570   2.349 -0.0039 -2.0728 -1.3813
 8302TIP3    H224871   0.932   1.683   2.299 -1.2307  0.6008  2.1019
 8303TIP3   OH224872   4.184   2.309   2.159 -0.5219 -0.0566 -0.2899
 8303TIP3    H124873   4.146   2.229   2.194  1.9740 -0.6212  1.3969
 8303TIP3    H224874   4.228   2.281   2.078  1.1774 -0.6703  0.7998
 8304TIP3   OH224875   1.361   2.647   5.730 -0.3996 -0.4811  0.1974
 8304TIP3    H124876   1.442   2.600   5.750  0.9594  0.7412 -1.9824
 8304TIP3    H224877   1.310   2.586   5.677  0.4492 -0.2945 -0.8831
 8305TIP3   OH224878   6.969   5.302   5.612  0.6349  0.0635 -0.0536
 8305TIP3    H124879   6.955   5.238   5.682 -0.6912 -0.5265 -0.8405
 8305TIP3    H224880   6.976   5.250   5.533  0.4546  0.8500 -0.5939
 8306TIP3   OH224881   0.937   4.110   4.364  0.1062 -0.0657 -0.3095
 8306TIP3    H124882   1.017   4.060   4.375 -0.5104 -1.1677 -0.7066
 8306TIP3    H224883   0.932   4.165   4.443  0.8112 -0.5971  0.1127
 8307TIP3   OH224884   5.637   1.662   1.360 -0.1573 -0.1436  0.7025
 8307TIP3    H124885   5.676   1.665   1.273 -0.7053 -0.4669  0.4455
 8307TIP3    H224886   5.549   1.626   1.347 -0.4543  0.3281  1.3098
 8308TIP3   OH224887   5.681   1.910   1.498  0.3965  0.2322  0.3864
 8308TIP3    H124888   5.675   1.838   1.435  1.2673  0.3429  0.1664
 8308TIP3    H224889   5.661   1.989   1.447  0.2904  0.2370  0.4350
 8309TIP3   OH224890   6.332   4.234   0.418  0.0364  0.1071 -0.1360
 8309TIP3    H124891   6.413   4.282   0.405  0.5454 -0.3398  1.1793
 8309TIP3    H224892   6.344   4.189   0.502 -1.7085  0.3071  0.2661
 8310TIP3   OH224893   6.338   0.496   5.904  0.5088  0.6408 -0.0412
 8310TIP3    H124894   6.293   0.542   5.833  1.2385 -0.9717 -1.6383
 8310TIP3    H224895   6.429   0.527   5.898  0.5169  0.7178  0.4096
 8311TIP3   OH224896   5.732   3.420   3.504 -0.0309 -0.0963  0.8981
 8311TIP3    H124897   5.824   3.442   3.516 -0.5070  1.4580  2.0405
 8311TIP3    H224898   5.687   3.504   3.499 -1.4863 -0.8155  1.1572
 8312TIP3   OH224899   3.293   3.611   0.703 -0.3445  0.3059  0.2792
 8312TIP3    H124900   3.384   3.639   0.709 -0.1947 -0.0426 -0.2182
 8312TIP3    H224901   3.298   3.517   0.682 -0.8159  0.2928  0.2052
 8313TIP3   OH224902   5.652   2.646   1.920 -0.2166 -0.1927 -0.1635
 8313TIP3    H124903   5.676   2.618   2.009 -2.7377 -1.0721  0.3267
 8313TIP3    H224904   5.581   2.710   1.933  0.5441  0.9881 -1.5222
 8314TIP3   OH224905   4.818   4.383   4.763  0.0900 -0.6763  0.3478
 8314TIP3    H124906   4.885   4.404   4.698 -0.7798 -0.0799 -0.3770
 8314TIP3    H224907   4.865   4.334   4.831  1.0184 -1.2624 -0.6969
 8315TIP3   OH224908   5.224   5.233   4.884  0.3240  0.4253 -0.2389
 8315TIP3    H124909   5.180   5.316   4.901  1.7346  1.5719 -1.9243
 8315TIP3    H224910   5.274   5.247   4.804  2.0572 -1.4736  0.3998
 8316TIP3   OH224911   5.308   1.156   1.652  0.6359 -0.3472  0.2386
 8316TIP3    H124912   5.399   1.180   1.637  1.3247 -1.5717  2.0292
 8316TIP3    H224913   5.285   1.097   1.580  1.0879  0.3551 -0.4834
 8317TIP3   OH224914   4.416   6.010   0.978  0.4631  0.9018  0.7865
 8317TIP3    H124915   4.392   5.950   1.049 -0.4659  0.2299 -0.0664
 8317TIP3    H224916   4.345   6.074   0.976  0.1883  0.5855  0.1088
 8318TIP3   OH224917   5.636   4.763   4.031 -0.1390 -0.1894 -0.3449
 8318TIP3    H124918   5.704   4.777   3.965  1.0050  0.6302  0.9787
 8318TIP3    H224919   5.600   4.850   4.049 -1.8918 -0.6592 -1.3479
 8319TIP3   OH224920   1.591   5.441   5.639  0.1025 -0.3771  0.4336
 8319TIP3    H124921   1.685   5.458   5.629 -0.1535  1.8226  1.2180
 8319TIP3    H224922   1.576   5.446   5.733 -0.7495 -1.0752  0.3418
 8320TIP3   OH224923   0.651   2.041   3.366 -0.4332  0.0241 -0.6390
 8320TIP3    H124924   0.690   2.017   3.282  0.1597  1.6852 -0.8718
 8320TIP3    H224925   0.560   2.013   3.359  0.0196 -1.3867 -1.1694
 8321TIP3   OH224926   2.795   3.063   3.719 -0.0868 -0.1718  1.0386
 8321TIP3    H124927   2.811   3.103   3.805  1.5114 -0.3187  0.8509
 8321TIP3    H224928   2.883   3.048   3.684 -0.7159 -0.1312 -0.6228
 8322TIP3   OH224929   1.559   2.282   2.716  0.0399 -0.4441 -0.1971
 8322TIP3    H124930   1.617   2.288   2.640  1.5385 -1.9226  0.7342
 8322TIP3    H224931   1.575   2.362   2.765  1.5732 -0.9258  0.1646
 8323TIP3   OH224932   1.357   1.011   4.925 -0.1543  0.2163 -0.9017
 8323TIP3    H124933   1.331   1.084   4.981  1.1755  0.7774 -0.9908
 8323TIP3    H224934   1.311   1.027   4.842 -0.5401  0.4655 -0.6455
 8324TIP3   OH224935   3.645   1.828   4.989  0.4764  0.4006  0.3654
 8324TIP3    H124936   3.723   1.818   5.043 -0.0564 -0.4642  0.9904
 8324TIP3    H224937   3.666   1.784   4.907  0.6175  0.0956  0.5656
 8325TIP3   OH224938   1.055   2.638   1.229 -0.6747  0.0430 -0.3362
 8325TIP3    H124939   1.061   2.731   1.253  0.2442 -0.1500  0.2138
 8325TIP3    H224940   1.011   2.597   1.304 -0.0160 -0.1538 -0.0497
 8326TIP3   OH224941   2.392   0.313   1.008 -0.1257 -0.4665  0.0983
 8326TIP3    H124942   2.361   0.404   1.011  1.7592  0.2341 -0.2954
 8326TIP3    H224943   2.316   0.263   0.980 -1.3183  0.9266  0.6981
 8327TIP3   OH224944   1.594   3.193   4.266 -0.1379  0.1986  0.3720
 8327TIP3    H124945   1.642   3.159   4.342  0.5506 -1.4800 -0.7478
 8327TIP3    H224946   1.595   3.121   4.203 -0.9461  1.4341 -1.1231
 8328TIP3   OH224947   4.851   4.385   5.371  0.1141  0.0789 -0.4243
 8328TIP3    H124948   4.818   4.361   5.458 -0.1683 -2.1727 -1.0800
 8328TIP3    H224949   4.942   4.411   5.387  0.7081 -2.1959  0.3846
 8329TIP3   OH224950   2.959   6.340   2.297  1.1468 -0.1546 -0.0230
 8329TIP3    H124951   2.970   6.420   2.349 -1.7182 -0.8470  1.8500
 8329TIP3    H224952   2.998   6.271   2.351  0.4876 -0.5135 -0.0040
 8330TIP3   OH224953   1.562   0.641   2.317  0.1431 -0.4156  0.8561
 8330TIP3    H124954   1.556   0.696   2.239 -0.0523 -0.5329  0.7886
 8330TIP3    H224955   1.654   0.648   2.344 -0.0035  0.3783  1.1651
 8331TIP3   OH224956   6.895   3.300   5.034 -0.2168  0.4092  0.5844
 8331TIP3    H124957   6.896   3.295   4.938 -0.0334  0.6416  0.5739
 8331TIP3    H224958   6.807   3.334   5.054 -0.0757  0.8483  0.4715
 8332TIP3   OH224959   1.689   1.591   5.359 -0.2728 -0.6839  0.4555
 8332TIP3    H124960   1.685   1.588   5.454  0.6183 -1.6103  0.4738
 8332TIP3    H224961   1.631   1.664   5.335  0.2284  0.1804  1.7509
 8333TIP3   OH224962   2.266   4.208   2.261 -0.4810  0.0595  0.3797
 8333TIP3    H124963   2.325   4.161   2.320 -2.4013  0.5580  2.8441
 8333TIP3    H224964   2.179   4.173   2.281 -1.4045  1.4024 -1.0430
 8334TIP3   OH224965   0.496   0.052   1.190 -0.1936  0.3329  0.6264
 8334TIP3    H124966   0.466   0.101   1.114 -1.2377  0.4041  1.0614
 8334TIP3    H224967   0.421  -0.003   1.215 -0.2021  0.9750  2.1371
 8335TIP3   OH224968   4.591   0.842   5.486 -0.2670  0.0420 -0.0187
 8335TIP3    H124969   4.496   0.850   5.486 -0.5072 -2.1791 -0.5108
 8335TIP3    H224970   4.616   0.853   5.578 -0.7302  2.6093 -0.1293
 8336TIP3   OH224971   0.475   4.020   3.951 -0.0041  0.2602  0.2685
 8336TIP3    H124972   0.415   4.070   3.897  1.2925 -0.3424 -1.8454
 8336TIP3    H224973   0.560   4.062   3.937  0.5556 -0.6121  0.9476
 8337TIP3   OH224974   0.479   2.762   3.224 -0.1980  0.4694  0.3214
 8337TIP3    H124975   0.454   2.784   3.134 -0.5432 -0.2837  0.2222
 8337TIP3    H224976   0.573   2.744   3.219 -0.3077 -0.0511  0.0035
 8338TIP3   OH224977   6.955   5.619   0.453  0.0469  0.1055  0.1230
 8338TIP3    H124978   6.942   5.617   0.358  1.5467 -1.2991 -0.0945
 8338TIP3    H224979   6.893   5.685   0.484 -0.1797  0.9114 -1.8712
 8339TIP3   OH224980   6.082   0.294   1.995 -0.2322 -0.5597 -0.3319
 8339TIP3    H124981   6.003   0.249   1.964 -1.5986  1.7539 -0.4325
 8339TIP3    H224982   6.048   0.365   2.050  1.7847  0.7343 -0.6842
 8340TIP3   OH224983   0.263   0.439   4.268 -0.7210  0.8249  0.6017
 8340TIP3    H124984   0.289   0.405   4.182 -1.5989 -0.5206  0.8312
 8340TIP3    H224985   0.322   0.513   4.283 -1.1890  1.7519 -1.5870
 8341TIP3   OH224986   3.530   0.942   3.231  0.2853  0.1304  0.2522
 8341TIP3    H124987   3.518   1.034   3.252 -1.3433  0.1591 -0.6172
 8341TIP3    H224988   3.475   0.895   3.294 -1.2636 -0.0264 -1.1353
 8342TIP3   OH224989   2.881   3.208   3.933 -0.1632  0.3331  0.7032
 8342TIP3    H124990   2.975   3.191   3.923 -0.6334 -2.1223 -0.2359
 8342TIP3    H224991   2.874   3.304   3.938  2.1996  0.6923 -1.2916
 8343TIP3   OH224992   1.197   1.091   3.125 -0.3441 -0.2291  0.4514
 8343TIP3    H124993   1.225   1.033   3.054  0.6998 -0.6342  1.1523
 8343TIP3    H224994   1.278   1.110   3.173 -1.1919 -1.0591  2.3213
 8344TIP3   OH224995   0.020   2.585   4.989 -0.2833  0.0775 -0.6233
 8344TIP3    H124996  -0.061   2.552   4.952  0.7320 -1.8435 -1.3105
 8344TIP3    H224997   0.041   2.522   5.059 -0.1337  1.3967  0.5568
 8345TIP3   OH224998   4.093   4.244   3.987 -0.4356  0.7199  0.0308
 8345TIP3    H124999   4.163   4.261   3.923 -0.1010  0.7859  0.4085
 8345TIP3    H225000   4.072   4.151   3.975 -0.4200  0.7471 -0.2198
 8346TIP3   OH225001   3.889   1.490   0.116  0.3522 -0.0255  0.4895
 8346TIP3    H125002   3.811   1.486   0.173  0.0447 -0.3080  0.0572
 8346TIP3    H225003   3.866   1.434   0.041  0.7172  0.4127  0.0477
 8347TIP3   OH225004   3.061   2.448   3.762  0.5820 -0.1125  0.3906
 8347TIP3    H125005   3.150   2.415   3.748  0.9156  0.7667  0.3810
 8347TIP3    H225006   3.052   2.456   3.857  0.6635  0.1763  0.3766
 8348TIP3   OH225007   3.806   5.810   1.671  0.0940  0.4146 -0.4539
 8348TIP3    H125008   3.848   5.790   1.588  0.7284 -0.6176  0.0838
 8348TIP3    H225009   3.816   5.729   1.722 -2.7920 -0.0047 -0.3883
 8349TIP3   OH225010   1.380   2.430   1.185  0.1995 -0.1979 -0.5966
 8349TIP3    H125011   1.339   2.396   1.265 -1.7462  2.7953 -0.1578
 8349TIP3    H225012   1.310   2.430   1.120  0.6836  0.9729 -1.1482
 8350TIP3   OH225013   3.103   2.915   0.167 -0.2287  0.0856 -0.4080
 8350TIP3    H125014   3.025   2.859   0.168  0.2217 -0.5689  1.3493
 8350TIP3    H225015   3.076   2.996   0.211 -0.3578  0.5238 -1.2753
 8351TIP3   OH225016   6.406   1.394   1.748 -0.4097  0.4784 -0.2162
 8351TIP3    H125017   6.497   1.419   1.766 -0.0718 -0.0937 -1.0734
 8351TIP3    H225018   6.413   1.306   1.711 -1.1561  1.1266 -1.9960
 8352TIP3   OH225019   1.359   1.481   3.534 -1.2949 -0.7632  0.0656
 8352TIP3    H125020   1.365   1.508   3.626 -0.3958  0.4061 -0.3065
 8352TIP3    H225021   1.295   1.410   3.534 -1.7719 -0.3732  1.5043
 8353TIP3   OH225022   2.975   4.601   1.233  0.3742  0.4426  0.1337
 8353TIP3    H125023   2.940   4.517   1.263  0.0593  0.2674 -0.6897
 8353TIP3    H225024   2.995   4.649   1.313  0.8406 -0.5350  0.6219
 8354TIP3   OH225025   4.219   3.084   3.692  0.4238  0.4220  0.1592
 8354TIP3    H125026   4.126   3.080   3.712  0.6685  0.0273  1.2992
 8354TIP3    H225027   4.261   3.036   3.764  1.1893 -3.7153 -2.7260
 8355TIP3   OH225028   1.239   6.774   5.273 -0.0322  0.5055 -0.4350
 8355TIP3    H125029   1.285   6.827   5.208  0.6635 -0.3071 -0.6166
 8355TIP3    H225030   1.253   6.820   5.356  0.2255  0.8156 -0.6483
 8356TIP3   OH225031   2.790   1.727   0.642 -0.1601 -0.2969  0.7732
 8356TIP3    H125032   2.703   1.701   0.611  0.4885 -1.1007 -0.4478
 8356TIP3    H225033   2.838   1.645   0.652  1.2685  0.2547 -1.1250
 8357TIP3   OH225034   4.507   1.437   5.333  0.3683 -0.1927  0.0484
 8357TIP3    H125035   4.502   1.357   5.386  1.6580  1.4410  2.8578
 8357TIP3    H225036   4.416   1.462   5.319 -0.0488 -1.9186 -0.5596
 8358TIP3   OH225037   4.915   6.147   2.767 -0.0237 -0.4266  0.4306
 8358TIP3    H125038   4.981   6.212   2.741 -0.8111 -0.1537 -0.9745
 8358TIP3    H225039   4.957   6.062   2.752  0.5415 -0.2653  1.0352
 8359TIP3   OH225040   3.305   6.191   4.249  0.0691 -0.2862  0.1730
 8359TIP3    H125041   3.323   6.125   4.182  0.7908  0.6808 -0.6136
 8359TIP3    H225042   3.380   6.250   4.246  0.2216 -0.3286  1.9994
 8360TIP3   OH225043   1.590   0.128   5.637  0.0109  0.1405  0.2060
 8360TIP3    H125044   1.502   0.138   5.602  0.1465 -1.4601 -0.6672
 8360TIP3    H225045   1.647   0.130   5.560  0.7739  1.1910  0.7643
 8361TIP3   OH225046   5.825   5.652   1.449 -0.1830 -0.0181  0.3420
 8361TIP3    H125047   5.876   5.579   1.482  1.1815  0.9828  0.5370
 8361TIP3    H225048   5.878   5.688   1.378 -1.2319  0.2705 -0.3153
 8362TIP3   OH225049   5.976   4.734   2.631 -0.6231 -0.0230  0.1656
 8362TIP3    H125050   5.950   4.802   2.692  0.8619 -0.9028  1.8937
 8362TIP3    H225051   6.063   4.761   2.601 -1.7023  0.8707 -2.3706
 8363TIP3   OH225052   1.504   1.911   0.725 -0.2075  0.5970  0.3574
 8363TIP3    H125053   1.564   1.976   0.690 -1.2707  2.3125  1.5545
 8363TIP3    H225054   1.521   1.911   0.819 -1.0861  0.0488  0.5271
 8364TIP3   OH225055   0.716   4.577   0.124  0.0609  0.8642  0.5024
 8364TIP3    H125056   0.767   4.497   0.113  0.3564  1.2066 -0.8349
 8364TIP3    H225057   0.625   4.548   0.121  0.1452  0.6506 -1.0298
 8365TIP3   OH225058   6.068   1.617   1.158  0.2497 -0.0065 -0.4156
 8365TIP3    H125059   6.105   1.542   1.204  0.4454  0.3558  0.0263
 8365TIP3    H225060   6.112   1.618   1.073 -0.8416 -1.2848 -1.0317
 8366TIP3   OH225061   0.384   3.354   2.944 -0.0534 -0.7431 -0.1156
 8366TIP3    H125062   0.389   3.446   2.918 -2.5654 -1.2374 -2.8188
 8366TIP3    H225063   0.324   3.354   3.018  0.5365 -0.1548  0.3768
 8367TIP3   OH225064   1.071   6.436   1.719 -0.7144  0.4565 -0.3970
 8367TIP3    H125065   1.059   6.387   1.638 -0.8947  2.0110 -1.3558
 8367TIP3    H225066   1.164   6.427   1.740 -0.2630  1.4550 -1.7775
 8368TIP3   OH225067   2.556   0.980   4.565 -0.0719  0.1413 -0.1638
 8368TIP3    H125068   2.594   0.927   4.635  1.0061 -0.2670 -1.0230
 8368TIP3    H225069   2.513   0.917   4.507  1.2534  0.1438 -1.2138
 8369TIP3   OH225070   1.939   4.181   4.878  0.2783  0.3215  0.6116
 8369TIP3    H125071   1.923   4.272   4.903 -0.7320  0.8434 -1.7273
 8369TIP3    H225072   1.852   4.142   4.869  0.3891  0.5813 -3.1650
 8370TIP3   OH225073   5.682   0.655   5.448 -0.0221  0.2320  0.0382
 8370TIP3    H125074   5.616   0.627   5.385  1.1310 -3.3903  0.2183
 8370TIP3    H225075   5.683   0.586   5.515  3.7586  0.1654  0.1363
 8371TIP3   OH225076   4.207   2.943   5.767  0.4772 -0.0553  0.2424
 8371TIP3    H125077   4.165   3.013   5.715 -3.7882 -1.9779  0.6920
 8371TIP3    H225078   4.251   2.889   5.701 -1.0913 -0.0438 -0.8837
 8372TIP3   OH225079   4.323   1.217   1.363 -0.1946 -0.5801 -0.7905
 8372TIP3    H125080   4.245   1.246   1.315 -1.0445 -0.6046  0.5162
 8372TIP3    H225081   4.294   1.139   1.410  0.1439  0.3043  0.9523
 8373TIP3   OH225082   5.444   2.523   4.423  0.4838 -0.1857 -0.5624
 8373TIP3    H125083   5.466   2.593   4.484 -1.2429  0.2312 -0.3462
 8373TIP3    H225084   5.431   2.446   4.478  1.9211 -0.5962 -0.7541
 8374TIP3   OH225085   5.036   6.808   4.214  0.1652 -0.0898 -0.4066
 8374TIP3    H125086   5.125   6.845   4.213  0.0090  0.3363  0.3610
 8374TIP3    H225087   5.040   6.737   4.279 -0.4323  0.9753  0.8509
 8375TIP3   OH225088   5.413   0.478   5.734  0.0542 -0.6368 -0.2237
 8375TIP3    H125089   5.446   0.555   5.780  2.2413 -1.3156 -0.5027
 8375TIP3    H225090   5.381   0.511   5.650  1.3314 -0.0492 -0.4952
 8376TIP3   OH225091   2.024   3.240   5.009  0.1228 -0.8174 -0.0651
 8376TIP3    H125092   2.118   3.259   5.007  0.3862 -1.7595  1.4256
 8376TIP3    H225093   1.984   3.313   4.962  1.5335  0.0323 -0.0290
 8377TIP3   OH225094   4.210   0.600   2.064 -0.3582 -0.4024  0.3404
 8377TIP3    H125095   4.231   0.588   2.157  2.9652  0.2071 -0.2069
 8377TIP3    H225096   4.192   0.694   2.055  2.1965  0.1166 -0.0158
 8378TIP3   OH225097   3.454   4.052   1.862  0.5340 -0.0431  0.5086
 8378TIP3    H125098   3.510   3.990   1.909 -0.4098 -2.1106 -0.9625
 8378TIP3    H225099   3.503   4.075   1.784 -0.3457 -1.3951 -0.4841
 8379TIP3   OH225100   4.144   4.861   0.031  0.3099 -0.9762  0.0336
 8379TIP3    H125101   4.222   4.863  -0.024  1.3289 -0.6537  1.4459
 8379TIP3    H225102   4.132   4.769   0.053 -1.1104 -1.3714 -2.0260
 8380TIP3   OH225103   5.590   6.439   2.500  0.1386 -0.0639 -0.0090
 8380TIP3    H125104   5.665   6.392   2.462  1.8109  1.8156  0.7841
 8380TIP3    H225105   5.536   6.370   2.539  1.6805 -1.4610 -0.2160
 8381TIP3   OH225106   2.149   0.567   2.194  0.2084 -0.3554  0.0704
 8381TIP3    H125107   2.067   0.582   2.148  0.2565 -0.0529  0.0805
 8381TIP3    H225108   2.198   0.508   2.137 -1.1755 -2.9865  1.3899
 8382TIP3   OH225109   1.779   5.689   0.021  0.5160  0.2827 -0.1794
 8382TIP3    H125110   1.769   5.659   0.112  0.6641 -1.5971 -0.7527
 8382TIP3    H225111   1.873   5.682   0.004  0.5563  1.1282 -0.3195
 8383TIP3   OH225112   5.057   1.439   2.911 -0.5117  0.2643 -0.4450
 8383TIP3    H125113   4.992   1.429   2.842  0.1033  0.2370 -1.0316
 8383TIP3    H225114   5.120   1.502   2.877 -0.1569  0.1951  0.0609
 8384TIP3   OH225115   5.539   3.431   1.243  0.3729 -0.0177 -0.2335
 8384TIP3    H125116   5.611   3.483   1.209 -0.6579  1.4380 -0.2850
 8384TIP3    H225117   5.472   3.495   1.267 -0.6082 -1.2749  0.5284
 8385TIP3   OH225118   0.556   0.188   4.564  0.1223  0.1900  0.2525
 8385TIP3    H125119   0.566   0.278   4.534 -0.9741  0.4902  0.7552
 8385TIP3    H225120   0.644   0.163   4.594  0.4504  1.0551  0.0422
 8386TIP3   OH225121   5.631   2.443   0.560  0.9376  0.0735 -0.3164
 8386TIP3    H125122   5.653   2.480   0.645  1.0105  0.4033 -0.4776
 8386TIP3    H225123   5.572   2.507   0.520  0.4778 -0.3347 -0.2961
 8387TIP3   OH225124   0.134   5.721   1.727 -0.1901 -0.4164  0.2738
 8387TIP3    H125125   0.227   5.740   1.734 -0.2250 -0.6235  1.5229
 8387TIP3    H225126   0.095   5.805   1.701  0.3746 -0.4130 -0.5757
 8388TIP3   OH225127   6.928   4.959   1.042 -0.3414 -0.2671 -0.4905
 8388TIP3    H125128   6.941   5.027   0.976 -0.6184 -0.1568 -0.4331
 8388TIP3    H225129   6.980   4.988   1.117 -0.7819  0.0891 -0.3195
 8389TIP3   OH225130   4.712   1.637   3.188  0.4245  0.2840 -0.0293
 8389TIP3    H125131   4.797   1.676   3.209  0.6856 -0.2289 -0.1307
 8389TIP3    H225132   4.733   1.560   3.135 -0.2250  1.7544 -2.6004
 8390TIP3   OH225133   6.597   3.600   2.346 -0.4280 -0.4316 -0.2526
 8390TIP3    H125134   6.634   3.523   2.302 -1.1183 -0.5956 -0.5612
 8390TIP3    H225135   6.620   3.589   2.438 -0.2308 -0.8402 -0.3507
 8391TIP3   OH225136   6.730   6.560   5.699  0.0997  0.1269 -0.7731
 8391TIP3    H125137   6.645   6.520   5.716 -0.4184  1.5537  0.1862
 8391TIP3    H225138   6.712   6.654   5.699  1.8445  0.5024  0.5460
 8392TIP3   OH225139   4.547   5.917   3.063  0.2913  0.6660 -0.2424
 8392TIP3    H125140   4.467   5.927   3.115 -1.5693 -1.1620 -2.5036
 8392TIP3    H225141   4.576   5.827   3.082  2.1576  1.4639  0.9152
 8393TIP3   OH225142   1.388   4.078   3.175 -0.0852 -0.0489  0.1157
 8393TIP3    H125143   1.438   4.055   3.254  1.5587  0.6085 -0.6953
 8393TIP3    H225144   1.350   3.995   3.146  1.9514 -0.9505 -0.1646
 8394TIP3   OH225145   6.045   1.976   1.033  0.2519  0.0176  0.4458
 8394TIP3    H125146   5.988   2.045   1.066 -0.2243 -0.2063  0.1248
 8394TIP3    H225147   5.984   1.911   0.996  0.7111 -0.2998  0.2316
 8395TIP3   OH225148   1.946   2.211   3.193  0.1181 -0.9714  0.1245
 8395TIP3    H125149   1.989   2.237   3.111 -1.9095 -0.9202 -0.9888
 8395TIP3    H225150   2.011   2.230   3.261  0.1724  3.7254 -0.9020
 8396TIP3   OH225151   3.648   2.155   1.731 -0.1799  0.1548  0.4639
 8396TIP3    H125152   3.731   2.201   1.736  0.4952 -0.9923  0.0880
 8396TIP3    H225153   3.643   2.105   1.812  0.4735 -1.3548 -0.3941
 8397TIP3   OH225154   1.842   5.872   4.178 -0.1567  0.1266 -0.3967
 8397TIP3    H125155   1.928   5.912   4.163  1.3590 -3.1859 -1.3833
 8397TIP3    H225156   1.849   5.830   4.264 -1.4741  1.2645  0.3177
 8398TIP3   OH225157   1.258   2.435   3.720 -0.6717 -0.3722 -0.0972
 8398TIP3    H125158   1.194   2.482   3.773 -0.7956  0.2983 -0.8163
 8398TIP3    H225159   1.208   2.397   3.648 -0.5591 -1.5661  0.4388
 8399TIP3   OH225160   6.778   0.246   3.067  0.4320  0.0392  0.1132
 8399TIP3    H125161   6.720   0.303   3.017  0.9803  0.6559  0.1555
 8399TIP3    H225162   6.856   0.237   3.012 -0.1996 -1.8597 -0.5396
 8400TIP3   OH225163   5.162   1.526   1.670 -0.5884 -0.4697  0.1842
 8400TIP3    H125164   5.257   1.522   1.678 -0.7076 -1.2720  1.6331
 8400TIP3    H225165   5.146   1.573   1.588  1.0601 -1.5275 -0.7955
 8401TIP3   OH225166   2.287   5.806   2.088 -0.2900 -0.8234  0.0483
 8401TIP3    H125167   2.242   5.791   2.005 -0.0664 -1.9807  0.1210
 8401TIP3    H225168   2.361   5.862   2.066  0.3184 -1.8956 -0.7040
 8402TIP3   OH225169   1.432   1.481   3.865 -0.3654 -0.1433 -0.5258
 8402TIP3    H125170   1.458   1.573   3.861 -0.8634  0.0326  0.2460
 8402TIP3    H225171   1.467   1.450   3.948 -1.8615 -0.1228  0.1485
 8403TIP3   OH225172   5.290   0.333   1.429  0.0391 -0.6928  0.0290
 8403TIP3    H125173   5.286   0.274   1.354  1.6219 -2.5051  1.2747
 8403TIP3    H225174   5.283   0.275   1.505 -0.0165  0.9258  1.2978
 8404TIP3   OH225175   3.562   0.208   3.210  0.1687 -0.4336 -0.2785
 8404TIP3    H125176   3.616   0.287   3.200  0.8877 -0.7568  0.8269
 8404TIP3    H225177   3.623   0.140   3.238 -0.9488 -0.5089  2.2697
 8405TIP3   OH225178   7.042   5.533   2.552  0.4498  0.1061 -0.1039
 8405TIP3    H125179   7.062   5.616   2.509  1.1463  0.2880  0.5553
 8405TIP3    H225180   7.127   5.497   2.576  0.1362 -0.6303 -0.0585
 8406TIP3   OH225181   0.224   3.944   2.348 -0.5099  0.3093 -0.0531
 8406TIP3    H125182   0.267   3.946   2.434 -1.1507  1.4216  0.2639
 8406TIP3    H225183   0.133   3.922   2.368 -0.4325 -0.5190 -0.5668
 8407TIP3   OH225184   4.569   0.182   1.189  0.4972 -0.7758 -0.0300
 8407TIP3    H125185   4.640   0.149   1.135  0.9470 -0.6791  0.4937
 8407TIP3    H225186   4.612   0.237   1.255 -0.0587 -0.7142  0.2916
 8408TIP3   OH225187   4.687   0.889   0.600  0.0282  0.2822 -0.3810
 8408TIP3    H125188   4.659   0.906   0.510  0.2849  1.5800 -0.2425
 8408TIP3    H225189   4.781   0.909   0.600  0.6442 -2.3305 -0.4345
 8409TIP3   OH225190   6.157   3.172   0.183 -0.2388 -0.0084  0.5544
 8409TIP3    H125191   6.076   3.133   0.217 -1.7804  0.3167 -2.4029
 8409TIP3    H225192   6.151   3.265   0.208 -0.2999 -0.1585  1.1240
 8410TIP3   OH225193   0.756   3.603   1.388 -0.9186  0.3581  0.5635
 8410TIP3    H125194   0.754   3.631   1.296 -2.2524  0.4093  0.6012
 8410TIP3    H225195   0.724   3.678   1.437 -1.7948 -0.2461  0.9219
 8411TIP3   OH225196   2.290   4.914   4.851  0.1163 -0.6192  0.4865
 8411TIP3    H125197   2.366   4.970   4.838 -0.9931  0.5197 -1.5702
 8411TIP3    H225198   2.324   4.825   4.843  1.1016 -0.1198 -1.4994
 8412TIP3   OH225199   2.833   3.275   1.466  0.4666 -0.4665  0.0764
 8412TIP3    H125200   2.838   3.194   1.517  0.0754 -0.6924 -0.2309
 8412TIP3    H225201   2.918   3.280   1.421  0.8945 -0.1489  0.9100
 8413TIP3   OH225202   7.137   2.909   0.923  0.1848  0.0270 -0.1452
 8413TIP3    H125203   7.189   2.879   0.997  1.3863  2.0269 -0.0937
 8413TIP3    H225204   7.053   2.934   0.961  1.0469  1.7586  0.7488
 8414TIP3   OH225205   6.124   3.947   0.272  0.0425 -0.2899  0.2570
 8414TIP3    H125206   6.047   3.895   0.292 -0.8210  1.0472  0.5589
 8414TIP3    H225207   6.182   3.935   0.348 -0.1549 -0.7622  0.3361
 8415TIP3   OH225208   2.888   2.038   0.154  0.2292 -0.3880 -0.2353
 8415TIP3    H125209   2.796   2.052   0.131  0.7569 -0.6733 -2.9261
 8415TIP3    H225210   2.899   1.943   0.154  0.9315 -0.3630 -2.1888
 8416TIP3   OH225211   1.212   5.694   0.626  0.3613  0.0905  0.6534
 8416TIP3    H125212   1.296   5.673   0.666  0.7892 -0.1171 -0.3096
 8416TIP3    H225213   1.175   5.763   0.681  0.3793 -0.9900  2.0593
 8417TIP3   OH225214   2.992   4.464   0.973 -0.1788 -0.0783 -0.1902
 8417TIP3    H125215   2.912   4.467   0.921 -0.1892  1.7668 -0.1190
 8417TIP3    H225216   2.963   4.480   1.063  0.2482  0.4144 -0.1373
 8418TIP3   OH225217   3.839   2.837   1.575 -0.5959  0.1541  0.1395
 8418TIP3    H125218   3.916   2.802   1.620 -0.7346  0.9223  1.0240
 8418TIP3    H225219   3.766   2.788   1.611 -0.4661 -1.2586 -1.4151
 8419TIP3   OH225220   3.320   2.657   1.259  0.2633 -0.1323  0.4357
 8419TIP3    H125221   3.335   2.585   1.321 -0.0497 -2.2941 -1.8297
 8419TIP3    H225222   3.398   2.711   1.267  0.2548 -0.3458  2.6311
 8420TIP3   OH225223  -0.009   1.912   5.061 -0.5741  0.0917 -0.1685
 8420TIP3    H125224   0.085   1.931   5.058 -0.4006 -0.1989  1.8670
 8420TIP3    H225225  -0.015   1.829   5.107 -1.8465  0.0787 -0.3318
 8421TIP3   OH225226   6.998   1.561   2.557  0.4425 -0.2696 -0.7209
 8421TIP3    H125227   7.087   1.571   2.593  0.4807 -2.5927 -0.0063
 8421TIP3    H225228   6.971   1.474   2.585 -2.5447  0.8036  0.0409
 8422TIP3   OH225229   5.314   2.120   1.888  0.6076  0.5278 -0.8697
 8422TIP3    H125230   5.266   2.060   1.832  0.3574 -0.2178  0.1070
 8422TIP3    H225231   5.396   2.136   1.843  1.2728 -1.6390 -0.5177
 8423TIP3   OH225232   0.162   1.826   1.553  0.0911  0.0775  0.3149
 8423TIP3    H125233   0.253   1.838   1.526 -0.1269  1.3671  0.1333
 8423TIP3    H225234   0.112   1.832   1.472 -0.1176 -1.3768  0.3067
 8424TIP3   OH225235   4.463   5.998   0.688 -0.1575 -0.4376  0.1888
 8424TIP3    H125236   4.409   5.919   0.685 -0.6691 -0.2202  2.1207
 8424TIP3    H225237   4.479   6.012   0.781  0.9411  1.0694 -0.1909
 8425TIP3   OH225238   5.487   2.227   0.085 -0.6839 -0.2413  0.0872
 8425TIP3    H125239   5.415   2.251   0.026 -1.9490 -3.2194  0.2315
 8425TIP3    H225240   5.453   2.244   0.172 -1.9778 -3.0950  0.2452
 8426TIP3   OH225241   5.253   6.176   4.746  0.2777 -0.0556  0.3151
 8426TIP3    H125242   5.307   6.242   4.790 -0.1704  0.2258  0.4601
 8426TIP3    H225243   5.198   6.227   4.686 -0.4346 -0.2360  0.8009
 8427TIP3   OH225244   3.546   2.639   0.384 -0.0677 -0.2105  0.0774
 8427TIP3    H125245   3.507   2.630   0.297  0.2789  2.8654 -0.4816
 8427TIP3    H225246   3.480   2.602   0.444 -1.1370 -0.6274 -1.3126
 8428TIP3   OH225247   1.215   4.050   0.067 -0.4306  0.3014 -0.4647
 8428TIP3    H125248   1.254   4.044  -0.020 -0.8221  2.0169 -0.8050
 8428TIP3    H225249   1.133   4.097   0.053 -0.7610  0.1113  0.7546
 8429TIP3   OH225250   0.372   5.948   2.387 -0.2214 -0.6977  0.5637
 8429TIP3    H125251   0.399   5.940   2.296  2.1815  0.1038  1.1173
 8429TIP3    H225252   0.393   6.039   2.411  0.9341 -1.3821  2.3755
 8430TIP3   OH225253   5.700   1.397   0.995 -0.1259 -0.2629  0.4045
 8430TIP3    H125254   5.722   1.478   1.041  1.5400 -1.0013  0.9767
 8430TIP3    H225255   5.772   1.385   0.932 -0.0085 -1.6111  0.7713
 8431TIP3   OH225256   3.490   2.075   3.429 -0.7213  0.0788  0.1905
 8431TIP3    H125257   3.568   2.125   3.405  0.2678 -2.2774 -2.0950
 8431TIP3    H225258   3.522   2.008   3.490 -1.6973  1.1426  1.9461
 8432TIP3   OH225259   0.690   1.085   3.729 -0.0640 -0.0640  0.2877
 8432TIP3    H125260   0.604   1.127   3.731 -0.8725 -1.6763  0.5651
 8432TIP3    H225261   0.701   1.056   3.639 -0.7031 -1.5753  0.6658
 8433TIP3   OH225262   4.791   0.772   5.333 -0.0677 -0.3198 -0.3330
 8433TIP3    H125263   4.724   0.793   5.398 -0.1582 -0.8334 -0.2592
 8433TIP3    H225264   4.831   0.691   5.364 -1.5272 -1.7362 -1.9692
 8434TIP3   OH225265   3.144   0.672   3.223 -0.4980  0.3834 -0.3201
 8434TIP3    H125266   3.106   0.601   3.275 -1.7749  0.8639 -0.5592
 8434TIP3    H225267   3.187   0.629   3.150 -0.4223 -0.1984  0.0654
 8435TIP3   OH225268   2.783   5.633   2.635 -0.1118  0.0444 -0.0347
 8435TIP3    H125269   2.788   5.537   2.639 -0.1357 -0.0761 -2.0122
 8435TIP3    H225270   2.691   5.652   2.614 -0.0386  0.4877  0.0292
 8436TIP3   OH225271   1.893   4.326   4.015 -0.0864 -0.0162  0.3559
 8436TIP3    H125272   1.974   4.340   4.063  0.5384  0.7959 -0.8969
 8436TIP3    H225273   1.824   4.344   4.079  0.7118  1.2110  0.8982
 8437TIP3   OH225274   6.075   2.957   1.854 -0.2354 -0.2044  0.3428
 8437TIP3    H125275   6.031   2.983   1.773  0.9439 -0.0875 -0.2874
 8437TIP3    H225276   6.023   2.998   1.924  0.2340  1.9323 -0.4901
 8438TIP3   OH225277   3.272   0.262   0.845 -0.2975 -0.0935  0.4290
 8438TIP3    H125278   3.284   0.295   0.755 -1.6553 -0.8038 -0.0513
 8438TIP3    H225279   3.326   0.183   0.849  0.8268  0.6703  0.6951
 8439TIP3   OH225280   0.644   0.331   1.903  0.2685 -0.6510 -0.3283
 8439TIP3    H125281   0.601   0.246   1.903 -0.8734 -0.0973  0.2792
 8439TIP3    H225282   0.603   0.379   1.830  0.3974 -0.3778 -0.2237
 8440TIP3   OH225283   5.551   6.504   1.305 -0.4564 -0.0906 -0.0243
 8440TIP3    H125284   5.466   6.477   1.341 -0.8581  0.0225 -0.8583
 8440TIP3    H225285   5.568   6.441   1.235 -0.8481  1.1049 -1.2257
 8441TIP3   OH225286   6.621   5.417   1.820 -0.0481 -0.1672  0.3684
 8441TIP3    H125287   6.679   5.423   1.897  0.8660  0.8552 -0.3748
 8441TIP3    H225288   6.633   5.500   1.774 -1.7944 -0.1200 -0.0574
 8442TIP3   OH225289   4.398   2.879   5.409  0.0739  0.3035 -0.0612
 8442TIP3    H125290   4.336   2.925   5.353 -1.3045  0.6379  1.6293
 8442TIP3    H225291   4.413   2.940   5.482 -2.2635 -1.9825  2.5733
 8443TIP3   OH225292   3.151   4.738   3.845  0.3881  0.2901  0.4220
 8443TIP3    H125293   3.183   4.683   3.774  2.3795  0.6775  0.9602
 8443TIP3    H225294   3.125   4.820   3.802  0.8715  0.2490  0.0360
 8444TIP3   OH225295   6.484   6.695   2.038 -0.1247  0.0470  0.5395
 8444TIP3    H125296   6.497   6.745   1.957 -2.1287  2.8756  1.7837
 8444TIP3    H225297   6.415   6.633   2.016 -1.0130  1.1344  0.1536
 8445TIP3   OH225298   5.294   2.676   3.024  0.2486 -0.8499  0.6289
 8445TIP3    H125299   5.223   2.612   3.020  0.1809 -0.7194 -0.7065
 8445TIP3    H225300   5.272   2.732   3.097 -0.4182 -1.5157  0.9557
 8446TIP3   OH225301   3.506   2.847   4.242 -0.3274 -0.1296  0.2379
 8446TIP3    H125302   3.461   2.919   4.287  1.6203  1.5580 -0.3381
 8446TIP3    H225303   3.590   2.840   4.287  0.3236 -0.6616 -1.0012
 8447TIP3   OH225304   6.956   1.108   0.755 -0.1560 -0.6105 -0.4752
 8447TIP3    H125305   6.985   1.131   0.843  1.7820  1.9574 -1.6512
 8447TIP3    H225306   6.947   1.013   0.757 -0.2852 -0.6330  2.4831
 8448TIP3   OH225307   2.614   6.588   2.793  0.3206  0.1912  0.3473
 8448TIP3    H125308   2.708   6.607   2.790  0.3439  0.0671  0.2580
 8448TIP3    H225309   2.577   6.638   2.721  0.6086 -1.3178 -0.9223
 8449TIP3   OH225310   0.349   4.789   1.203 -0.4412 -0.4163  0.3617
 8449TIP3    H125311   0.296   4.718   1.239 -0.7253  0.5655  1.9741
 8449TIP3    H225312   0.377   4.840   1.279  2.4566 -0.6111 -0.4607
 8450TIP3   OH225313   5.058   2.481   3.067 -0.6958 -0.1882 -0.2973
 8450TIP3    H125314   4.968   2.448   3.064 -0.6165 -0.8300  2.0950
 8450TIP3    H225315   5.109   2.408   3.102  0.3493  0.8682  0.4643
 8451TIP3   OH225316   0.873   2.363   5.150  0.1291 -0.3818  0.1473
 8451TIP3    H125317   0.787   2.327   5.171 -0.1832  0.6780  0.8186
 8451TIP3    H225318   0.921   2.359   5.233  0.6985 -0.8875 -0.2018
 8452TIP3   OH225319   6.422   2.446   2.538 -0.1486  0.5452  0.5203
 8452TIP3    H125320   6.412   2.384   2.465 -0.6121  0.7497  0.4058
 8452TIP3    H225321   6.513   2.435   2.566  0.4585  1.4150 -0.9536
 8453TIP3   OH225322   0.321   0.275   5.232 -0.0208 -0.1194  1.1384
 8453TIP3    H125323   0.335   0.188   5.194  0.1603  0.5648 -0.4268
 8453TIP3    H225324   0.240   0.307   5.191  0.4427  0.8400  0.9386
 8454TIP3   OH225325   4.367   2.794   0.973 -0.7224 -0.2059 -0.1320
 8454TIP3    H125326   4.288   2.833   0.933 -0.9394 -0.1458  0.3532
 8454TIP3    H225327   4.439   2.823   0.917 -0.8651  0.9953  0.2895
 8455TIP3   OH225328   1.810   5.594   5.848 -0.2525  0.0535 -0.5827
 8455TIP3    H125329   1.903   5.573   5.845 -0.3443 -0.4060 -0.2584
 8455TIP3    H225330   1.804   5.683   5.814  0.3552  0.2474 -0.1825
 8456TIP3   OH225331   5.471   5.727   4.875  0.0097  0.5544 -0.1972
 8456TIP3    H125332   5.481   5.731   4.971 -0.0173  1.8113 -0.2291
 8456TIP3    H225333   5.544   5.778   4.841  1.4205 -1.8276 -0.9824
 8457TIP3   OH225334   1.616   0.615   3.557 -0.2886 -0.6958  0.3557
 8457TIP3    H125335   1.557   0.580   3.624  0.1956 -0.4391  0.9171
 8457TIP3    H225336   1.659   0.537   3.520  1.1017 -0.6968  1.8927
 8458TIP3   OH225337   5.758   3.944   0.567 -0.2639 -0.2672 -0.3068
 8458TIP3    H125338   5.852   3.925   0.576  0.1811  1.3472 -1.0884
 8458TIP3    H225339   5.746   4.025   0.617 -1.0208  0.0916 -1.0529
 8459TIP3   OH225340   6.093   1.673   0.737 -0.4383  0.1393  0.2798
 8459TIP3    H125341   6.157   1.664   0.667 -1.3514 -0.0355 -0.5475
 8459TIP3    H225342   6.044   1.753   0.715 -2.2521 -1.1393 -0.5792
 8460TIP3   OH225343   2.786   3.288   0.785 -0.5807  0.3280  0.6572
 8460TIP3    H125344   2.714   3.350   0.778  0.1543  1.1944  0.4982
 8460TIP3    H225345   2.845   3.311   0.713 -0.0182 -0.1825  0.9386
 8461TIP3   OH225346   5.252   1.674   3.793 -0.3099 -0.2607  0.1803
 8461TIP3    H125347   5.175   1.617   3.806  0.2067 -1.4077 -1.4980
 8461TIP3    H225348   5.322   1.614   3.767  1.0423  0.8390  1.1547
 8462TIP3   OH225349   7.022   4.407   2.944  0.1755 -0.5574 -0.5444
 8462TIP3    H125350   7.002   4.476   2.880 -0.7080  0.9603  1.2565
 8462TIP3    H225351   6.962   4.336   2.922 -0.4357  0.1229 -1.1489
 8463TIP3   OH225352   4.842   3.307   5.076 -0.0251 -0.2558  0.1822
 8463TIP3    H125353   4.793   3.254   5.139  0.2379  1.3743  1.8464
 8463TIP3    H225354   4.800   3.393   5.079  2.1481  0.8647  0.8206
 8464TIP3   OH225355   7.131   6.560   4.834 -0.0668  0.0899  0.0986
 8464TIP3    H125356   7.192   6.536   4.765  0.4088 -1.3200  0.9594
 8464TIP3    H225357   7.162   6.512   4.911 -1.8827 -0.1679  0.7254
 8465TIP3   OH225358   4.820   2.196   0.897 -0.2688  0.1927  0.0081
 8465TIP3    H125359   4.875   2.152   0.832 -2.7041 -0.7092 -1.6074
 8465TIP3    H225360   4.783   2.124   0.949  2.1234  0.9285  2.9706
 8466TIP3   OH225361   6.694   1.928   2.904 -0.1524  0.3984  0.4777
 8466TIP3    H125362   6.636   1.880   2.846 -1.6652  1.2895  1.1872
 8466TIP3    H225363   6.690   1.881   2.987  1.9787 -0.8546 -0.0690
 8467TIP3   OH225364   6.617   4.242   3.105  0.2332 -0.0439  0.3006
 8467TIP3    H125365   6.617   4.285   3.020 -1.0102 -0.7868 -0.1081
 8467TIP3    H225366   6.681   4.171   3.096  1.5048  1.0218  0.6337
 8468TIP3   OH225367   2.780   3.652   4.805  0.0395  0.0007 -0.2796
 8468TIP3    H125368   2.739   3.566   4.796 -1.2443  0.4404  1.0327
 8468TIP3    H225369   2.745   3.703   4.732 -1.6832  0.3205  0.7287
 8469TIP3   OH225370   2.726   6.625   5.723 -0.6205 -0.1854  0.2484
 8469TIP3    H125371   2.764   6.537   5.727  0.6809  0.1115 -2.9166
 8469TIP3    H225372   2.714   6.642   5.630 -2.0185  2.5468  0.8250
 8470TIP3   OH225373   3.001   3.034   2.672  0.2238 -0.3375  0.1331
 8470TIP3    H125374   3.066   2.971   2.702  0.4180 -0.1443  0.1276
 8470TIP3    H225375   2.960   3.067   2.752 -0.4716 -1.0871  0.0917
 8471TIP3   OH225376   6.828   6.401   2.725 -0.1125  0.1282  0.6351
 8471TIP3    H125377   6.775   6.472   2.761  2.5036  2.8134 -0.3582
 8471TIP3    H225378   6.823   6.414   2.630  0.3670 -1.0908  0.4246
 8472TIP3   OH225379   0.575   2.943   2.791 -0.4524  0.0181  0.5137
 8472TIP3    H125380   0.552   3.028   2.754 -0.7528 -0.5004 -0.5255
 8472TIP3    H225381   0.670   2.946   2.801 -0.4245  0.3537  0.1674
 8473TIP3   OH225382   4.746   0.389   0.968 -0.4080 -0.3290 -0.5647
 8473TIP3    H125383   4.703   0.468   1.000 -0.4569 -0.8311  0.6653
 8473TIP3    H225384   4.778   0.345   1.047 -1.0023 -1.9036 -1.1627
 8474TIP3   OH225385   3.833   2.872   4.007 -0.3837 -0.0345  0.0521
 8474TIP3    H125386   3.863   2.881   3.917 -3.1551 -0.1484 -0.9928
 8474TIP3    H225387   3.912   2.857   4.058  1.5875  2.5104 -1.9773
 8475TIP3   OH225388   7.113   5.875   0.108  0.5446 -0.4231 -0.1695
 8475TIP3    H125389   7.202   5.846   0.128  0.8693  0.4512 -0.3105
 8475TIP3    H225390   7.097   5.947   0.169  0.0232 -0.4178 -0.3097
 8476TIP3   OH225391   0.902   6.022  -0.027 -0.0052  0.0473  0.0746
 8476TIP3    H125392   0.940   5.945   0.017  0.6955 -0.2406 -1.0037
 8476TIP3    H225393   0.827   6.046   0.028  0.3033 -0.8521  0.9232
 8477TIP3   OH225394   4.062   2.061   3.710  0.3328 -0.3229  0.4268
 8477TIP3    H125395   4.067   1.972   3.747  1.2064 -0.0379  1.0427
 8477TIP3    H225396   3.969   2.078   3.700  0.1076 -0.8217  1.5317
 8478TIP3   OH225397   0.259   4.151   3.821 -0.8030  0.5213  0.4607
 8478TIP3    H125398   0.219   4.230   3.857  0.2533  1.7410 -0.9268
 8478TIP3    H225399   0.203   4.079   3.852 -1.3153  1.6985  2.4529
 8479TIP3   OH225400   4.936   0.968   0.480 -0.0909 -0.4054  0.5204
 8479TIP3    H125401   4.910   0.959   0.388 -1.0392  0.3093  0.7085
 8479TIP3    H225402   4.930   1.062   0.497  0.2285 -0.5185  1.2773
 8480TIP3   OH225403   0.330   1.052   2.583 -0.3183 -0.4727  0.4909
 8480TIP3    H125404   0.304   1.131   2.631  2.8129  0.7158  0.4566
 8480TIP3    H225405   0.336   0.984   2.650  0.2520  0.2093  1.1533
 8481TIP3   OH225406   5.303   0.229   5.695 -0.5791 -0.2147  0.6212
 8481TIP3    H125407   5.355   0.305   5.723  0.9406 -0.5292 -1.1385
 8481TIP3    H225408   5.353   0.191   5.623 -2.0504 -2.0436  0.4831
 8482TIP3   OH225409   6.647   3.478   0.690 -0.6569 -0.2354  0.0469
 8482TIP3    H125410   6.645   3.382   0.684 -1.5526 -0.1556 -1.2669
 8482TIP3    H225411   6.628   3.508   0.601 -0.5270  1.1730  0.4732
 8483TIP3   OH225412   1.025   1.220   2.690 -0.3338 -0.4874  0.0947
 8483TIP3    H125413   1.031   1.288   2.758 -0.3679  2.6876 -2.7806
 8483TIP3    H225414   1.100   1.163   2.705  1.5181  2.0153  0.9285
 8484TIP3   OH225415   5.385   5.685   0.361  0.3558  0.3292  0.1224
 8484TIP3    H125416   5.316   5.660   0.300  0.4360 -0.4562  0.3492
 8484TIP3    H225417   5.396   5.609   0.418 -1.2766  1.8159  2.6132
 8485TIP3   OH225418   7.144   0.185   2.240  0.5625 -0.1828 -0.1862
 8485TIP3    H125419   7.063   0.137   2.260  1.0193 -1.4983 -1.3408
 8485TIP3    H225420   7.125   0.275   2.266 -0.5125 -0.8514  1.5791
 8486TIP3   OH225421   3.155   2.559   4.309 -0.1751  0.4258 -0.4412
 8486TIP3    H125422   3.146   2.630   4.373 -0.5162  0.1036 -0.1209
 8486TIP3    H225423   3.249   2.552   4.294  0.0110 -0.1526  0.8055
 8487TIP3   OH225424   4.137   1.867   0.424  0.7440 -0.4263 -0.1326
 8487TIP3    H125425   4.137   1.772   0.409  0.0456 -0.3103 -0.9597
 8487TIP3    H225426   4.111   1.904   0.340 -1.7872  0.3648  0.9133
 8488TIP3   OH225427   4.703   3.701   0.529  0.5546 -0.3257  0.3930
 8488TIP3    H125428   4.697   3.796   0.521 -3.1263 -0.3110  1.8287
 8488TIP3    H225429   4.700   3.669   0.438 -0.5054  0.8568 -0.0056
 8489TIP3   OH225430   3.519   4.897   2.705 -0.0946  0.6070 -0.3721
 8489TIP3    H125431   3.612   4.910   2.686  0.2810  1.3205  1.6788
 8489TIP3    H225432   3.477   4.981   2.686  0.0360  0.8826  0.5154
 8490TIP3   OH225433   5.036   6.497   3.916 -0.0023 -0.1280  0.2333
 8490TIP3    H125434   5.117   6.454   3.891 -0.5755 -0.1064 -1.8350
 8490TIP3    H225435   5.051   6.590   3.899  0.1330  0.1172  1.5926
 8491TIP3   OH225436   2.158   2.652   3.488 -0.5805  0.6901 -0.5192
 8491TIP3    H125437   2.110   2.570   3.500 -0.8611  0.9771  0.3668
 8491TIP3    H225438   2.120   2.691   3.409  0.4235 -0.6274 -1.7265
 8492TIP3   OH225439   6.427   1.471   4.933 -0.0991  0.4042 -0.1639
 8492TIP3    H125440   6.413   1.506   5.020  1.9767 -0.0915  0.4219
 8492TIP3    H225441   6.469   1.542   4.884 -1.0019  0.5884 -0.6967
 8493TIP3   OH225442   2.652   2.314   3.342 -0.6151  0.0047  0.6193
 8493TIP3    H125443   2.733   2.362   3.329 -1.1728  0.9695  0.5829
 8493TIP3    H225444   2.635   2.322   3.436 -2.0290  2.1705  0.2781
 8494TIP3   OH225445   5.414   1.438   0.031 -0.2644  0.4114  0.5018
 8494TIP3    H125446   5.387   1.354  -0.007 -0.5400  1.8259 -2.6655
 8494TIP3    H225447   5.508   1.428   0.047 -0.5087 -0.8540  1.3310
 8495TIP3   OH225448   2.277   3.176   0.994  0.0251 -0.8588  0.2942
 8495TIP3    H125449   2.221   3.181   0.917 -1.5546 -1.4812  1.3343
 8495TIP3    H225450   2.220   3.139   1.062  1.2707 -0.0988  1.8219
 8496TIP3   OH225451   0.285   0.669   1.083  0.2048 -0.1574 -0.3311
 8496TIP3    H125452   0.279   0.608   1.009 -1.0041 -1.0905  0.4834
 8496TIP3    H225453   0.327   0.747   1.047  1.1516 -1.2008 -1.5806
 8497TIP3   OH225454   3.504   0.228   0.207 -0.4209  0.3964  0.0033
 8497TIP3    H125455   3.533   0.200   0.120 -2.0186 -1.5661  0.0042
 8497TIP3    H225456   3.411   0.250   0.195 -0.8690 -0.6340  1.3167
 8498TIP3   OH225457   2.188   3.253   2.185  0.4910  0.7638  0.3500
 8498TIP3    H125458   2.115   3.290   2.234  0.1761  0.1929  0.3274
 8498TIP3    H225459   2.258   3.318   2.192  0.2209  0.9962  0.9735
 8499TIP3   OH225460   4.203   2.775   4.031  0.8111  0.1400 -0.1009
 8499TIP3    H125461   4.143   2.738   3.965 -0.2384  1.8219 -0.1376
 8499TIP3    H225462   4.238   2.853   3.990 -0.1423  1.4303  1.4291
 8500TIP3   OH225463   3.779   5.018   2.711 -0.0634 -0.6979  0.0697
 8500TIP3    H125464   3.833   5.034   2.634  1.2944 -2.4016  0.6236
 8500TIP3    H225465   3.839   5.024   2.785 -0.7066 -2.0950  0.7480
 8501TIP3   OH225466   3.953   2.382   3.214 -0.3158 -0.1664  0.1106
 8501TIP3    H125467   3.876   2.417   3.259 -0.8955 -2.6100  1.1932
 8501TIP3    H225468   3.939   2.288   3.213  1.2245 -0.4553 -2.4662
 8502TIP3   OH225469   4.725   2.035   2.912  0.0106  0.3431 -0.4941
 8502TIP3    H125470   4.687   1.950   2.935  0.4880  0.2668  0.0547
 8502TIP3    H225471   4.713   2.089   2.990  1.4109  0.1689 -0.1177
 8503TIP3   OH225472   4.439   0.868   2.233  0.7437  0.4876 -0.6285
 8503TIP3    H125473   4.480   0.929   2.294 -2.2478  0.0822  2.0033
 8503TIP3    H225474   4.480   0.783   2.252  1.2820  0.7240 -0.7036
 8504TIP3   OH225475   6.831   5.012   5.213  0.1537 -0.2531 -0.1683
 8504TIP3    H125476   6.886   4.935   5.199  2.3120  1.3921 -1.3558
 8504TIP3    H225477   6.799   5.034   5.125  2.2567  2.0185 -0.4690
 8505TIP3   OH225478   0.925   5.534   1.913  0.0160 -0.4569  0.5468
 8505TIP3    H125479   0.850   5.540   1.971 -2.5155  2.2826 -2.5577
 8505TIP3    H225480   0.900   5.469   1.847 -1.2269  2.4415 -2.1421
 8506TIP3   OH225481   5.060   4.853   4.034 -0.2613  0.1023 -0.1540
 8506TIP3    H125482   5.016   4.937   4.048 -1.1594 -0.2436 -0.7349
 8506TIP3    H225483   5.071   4.816   4.121  0.6426  1.0604  0.1472
 8507TIP3   OH225484   3.621   0.680   1.598 -0.2082  0.1316  0.6542
 8507TIP3    H125485   3.601   0.618   1.669  0.3400  0.1964  0.8663
 8507TIP3    H225486   3.710   0.709   1.616 -0.3967  0.8519  0.4587
 8508TIP3   OH225487   5.637   0.352   2.556 -0.3590  0.2393 -0.1178
 8508TIP3    H125488   5.678   0.354   2.642 -1.6440  0.1725  0.5288
 8508TIP3    H225489   5.674   0.275   2.513  2.4515  1.8173 -0.7885
 8509TIP3   OH225490   0.455   5.485   2.783 -0.0200 -0.5346  0.1069
 8509TIP3    H125491   0.520   5.419   2.759  0.4966 -0.1363  0.3838
 8509TIP3    H225492   0.494   5.568   2.757 -0.8532 -0.3673 -0.6349
 8510TIP3   OH225493   2.606   4.656   4.653  0.2039  0.1763 -0.3372
 8510TIP3    H125494   2.675   4.660   4.719 -0.4914  0.7341  0.3855
 8510TIP3    H225495   2.526   4.642   4.703 -0.2134 -0.4499 -1.1569
 8511TIP3   OH225496   1.783   5.125   0.140  0.0105  0.0932  0.0950
 8511TIP3    H125497   1.785   5.041   0.095  0.3861  0.8489 -1.3794
 8511TIP3    H225498   1.859   5.172   0.106  0.5587  0.5523  1.8721
 8512TIP3   OH225499   6.861   0.696   2.801 -0.6169  0.3326  0.1951
 8512TIP3    H125500   6.838   0.619   2.749  0.3565 -0.3939  0.8131
 8512TIP3    H225501   6.938   0.669   2.851  0.1232  1.9124 -0.0371
 8513TIP3   OH225502   5.992   6.362   0.948  0.3447 -1.0170 -0.5659
 8513TIP3    H125503   5.918   6.352   0.888  0.0201  0.8774 -0.5392
 8513TIP3    H225504   6.031   6.274   0.953 -3.3549 -2.7413  1.4160
 8514TIP3   OH225505   0.924   1.539   4.271  0.2617  0.3631 -0.2573
 8514TIP3    H125506   0.903   1.547   4.178  2.8901 -0.6661 -1.0349
 8514TIP3    H225507   0.940   1.629   4.299  1.2704  0.5341 -1.3119
 8515TIP3   OH225508   0.493   0.698   0.325  0.2323  0.0262  0.1130
 8515TIP3    H125509   0.452   0.749   0.395 -1.5463 -0.7360 -0.2994
 8515TIP3    H225510   0.488   0.754   0.248  0.6385  0.2061  0.2136
 8516TIP3   OH225511   6.051   4.917   1.543  0.2489 -0.2551 -0.1129
 8516TIP3    H125512   5.995   4.995   1.553  0.1772 -0.5474  2.7434
 8516TIP3    H225513   6.030   4.864   1.620  0.5789 -2.9578 -1.7949
 8517TIP3   OH225514   4.623   0.859   3.120 -0.4764  0.0573 -0.0437
 8517TIP3    H125515   4.638   0.799   3.193  1.4684 -1.0424 -1.2354
 8517TIP3    H225516   4.546   0.824   3.075  0.4976 -1.5159 -0.5875
 8518TIP3   OH225517   3.110   4.123   5.642  0.1808 -0.0497 -0.0125
 8518TIP3    H125518   3.078   4.107   5.554 -1.2861 -1.5891  0.7433
 8518TIP3    H225519   3.182   4.186   5.631  0.4567 -0.6938 -2.3360
 8519TIP3   OH225520   6.424   1.415   2.115  0.4293 -0.2025  0.1641
 8519TIP3    H125521   6.361   1.461   2.170  1.9226  1.8831  0.2847
 8519TIP3    H225522   6.376   1.340   2.079 -1.5887  0.3758  1.5083
 8520TIP3   OH225523   2.873   6.013   2.418 -0.0428 -0.1782  0.3285
 8520TIP3    H125524   2.903   5.942   2.361 -1.2290 -1.5928  1.4005
 8520TIP3    H225525   2.807   6.058   2.366  1.9829  1.3763 -1.0658
 8521TIP3   OH225526   0.662   0.096   5.642  0.2486  0.6510 -0.2844
 8521TIP3    H125527   0.678   0.041   5.718 -0.5742  0.5330 -0.1929
 8521TIP3    H225528   0.649   0.035   5.570  2.2059  0.7649 -0.7945
 8522TIP3   OH225529   4.230   1.947   2.515 -0.1443 -0.0271 -0.2932
 8522TIP3    H125530   4.226   1.989   2.429 -0.1120  0.2205 -0.1747
 8522TIP3    H225531   4.259   1.857   2.496  0.1842  0.1194 -0.5127
 8523TIP3   OH225532   0.148   0.680   1.373  0.3431  0.2420  0.2649
 8523TIP3    H125533   0.215   0.695   1.306 -0.3534  0.1159 -0.4670
 8523TIP3    H225534   0.120   0.589   1.359  0.5242  0.0552  1.0397
 8524TIP3   OH225535   0.155   6.457   1.146 -0.7324 -0.2064 -0.2068
 8524TIP3    H125536   0.125   6.490   1.230 -0.5012 -0.7145  0.0739
 8524TIP3    H225537   0.251   6.464   1.150 -0.7727  1.4445 -1.1100
 8525TIP3   OH225538   2.846   1.974   0.761  0.3732 -0.1305  0.2615
 8525TIP3    H125539   2.853   1.935   0.848  2.4621  0.4676  0.4015
 8525TIP3    H225540   2.840   1.899   0.702  3.7140 -0.7644  0.5792
 8526TIP3   OH225541   7.145   6.128   4.376 -0.2114 -0.7388 -0.3820
 8526TIP3    H125542   7.221   6.098   4.327 -0.8923 -2.0124 -0.7221
 8526TIP3    H225543   7.175   6.133   4.467  0.0023 -2.3696 -0.3328
 8527TIP3   OH225544   6.013   6.219  -0.005  0.4334  0.1928  0.3708
 8527TIP3    H125545   6.105   6.201  -0.025  1.0120  1.4340  1.7101
 8527TIP3    H225546   6.016   6.283   0.067 -1.4479  2.4792 -1.4141
 8528TIP3   OH225547   5.437   5.547   1.645  0.1601  0.1245  1.1880
 8528TIP3    H125548   5.366   5.610   1.658 -0.1212  0.2302 -0.6197
 8528TIP3    H225549   5.505   5.597   1.599  0.3441 -0.6254  0.6275
 8529TIP3   OH225550   0.466   5.659   3.062  0.2952  0.1889  0.3412
 8529TIP3    H125551   0.519   5.598   3.113  1.3444  0.4763 -0.3873
 8529TIP3    H225552   0.384   5.611   3.046 -0.4434  0.4132  3.0022
 8530TIP3   OH225553   4.904   0.936   4.403 -0.4562  0.4813  0.6260
 8530TIP3    H125554   4.889   0.912   4.312 -0.4421 -0.8092  0.9424
 8530TIP3    H225555   4.959   1.014   4.399 -0.8307  0.7062 -0.4642
 8531TIP3   OH225556   3.882   0.034   4.730 -0.2950  0.1328 -0.0003
 8531TIP3    H125557   3.891   0.079   4.646  0.3904  0.5575  0.2913
 8531TIP3    H225558   3.829   0.093   4.783  0.1720  0.3667  0.2127
 8532TIP3   OH225559   0.099   1.900   3.696 -0.6190 -0.3037 -0.4955
 8532TIP3    H125560   0.060   1.830   3.643 -2.4569  0.4768 -0.2697
 8532TIP3    H225561   0.144   1.956   3.634  0.6405 -1.5054 -0.7131
 8533TIP3   OH225562   2.310   0.214   2.941 -0.1217 -0.4263 -0.4779
 8533TIP3    H125563   2.393   0.199   2.986 -0.1086 -0.1106 -0.3965
 8533TIP3    H225564   2.287   0.128   2.904  0.7766 -0.2742 -1.4243
 8534TIP3   OH225565   6.619   1.588   0.562  0.8219 -0.1164 -0.3272
 8534TIP3    H125566   6.626   1.607   0.656 -0.2664 -0.2699 -0.2059
 8534TIP3    H225567   6.594   1.496   0.557  0.0571  0.1000 -0.7338
 8535TIP3   OH225568   0.368   1.822   0.478 -0.4942 -0.2656  0.5017
 8535TIP3    H125569   0.454   1.782   0.484 -1.0727 -1.6731 -0.0538
 8535TIP3    H225570   0.318   1.763   0.421 -1.5975  0.9202  0.1736
 8536TIP3   OH225571   0.833   3.989   4.726 -0.0057  0.0284  0.6425
 8536TIP3    H125572   0.914   3.969   4.773  1.0809  1.0041 -0.7151
 8536TIP3    H225573   0.813   4.079   4.750  0.3923  0.4335 -0.4414
 8537TIP3   OH225574   1.447   6.587   4.585 -0.8080 -0.4228  0.8468
 8537TIP3    H125575   1.486   6.645   4.520 -2.3809 -1.7895 -1.4222
 8537TIP3    H225576   1.522   6.553   4.634  0.3988  0.9097  0.0214
 8538TIP3   OH225577   0.257   6.189   1.211  0.0200  0.3908 -0.2985
 8538TIP3    H125578   0.254   6.160   1.302  2.7344  0.9447  0.0624
 8538TIP3    H225579   0.221   6.278   1.213  0.1189  0.4232  0.2641
 8539TIP3   OH225580   2.665   6.187   2.584 -0.3545 -0.2753  0.5110
 8539TIP3    H125581   2.703   6.205   2.498  1.4937  1.4807  1.6069
 8539TIP3    H225582   2.668   6.092   2.591 -1.2794 -0.5394 -1.6201
 8540TIP3   OH225583   5.224   0.870   0.235  0.3120 -0.2253 -0.2838
 8540TIP3    H125584   5.161   0.938   0.211  0.8421 -0.2873 -2.0034
 8540TIP3    H225585   5.217   0.805   0.165  0.6183 -1.3918  0.7417
 8541TIP3   OH225586   2.164   5.164   1.825 -0.1783 -0.2378 -0.6467
 8541TIP3    H125587   2.191   5.256   1.827  2.0284 -0.7530 -2.1789
 8541TIP3    H225588   2.080   5.162   1.870 -0.4801  2.5836 -0.9191
 8542TIP3   OH225589   5.518   3.844   5.330  0.2240  0.2459  0.4128
 8542TIP3    H125590   5.504   3.937   5.344  0.4950  0.3438  0.0610
 8542TIP3    H225591   5.443   3.801   5.372 -0.4980  0.6834 -0.4050
 8543TIP3   OH225592   3.045   3.856   5.697 -0.6001 -0.0874  0.2743
 8543TIP3    H125593   3.102   3.932   5.686 -0.2386 -0.2605  0.8862
 8543TIP3    H225594   2.978   3.866   5.630  0.8976 -0.5793 -1.3737
 8544TIP3   OH225595   2.036   4.975   5.892 -0.6413  0.1156  0.2201
 8544TIP3    H125596   1.990   5.004   5.813  0.6609 -0.7679 -0.9090
 8544TIP3    H225597   2.081   5.053   5.924  0.0996  0.1341 -0.8359
 8545TIP3   OH225598   5.085   0.340   3.964 -0.1777  0.6913 -0.4440
 8545TIP3    H125599   5.152   0.378   4.021  0.3496 -1.4727  0.5015
 8545TIP3    H225600   5.133   0.306   3.889  0.0768 -1.8615  0.7514
 8546TIP3   OH225601   6.104   5.640   1.676 -0.2480 -1.4965  0.0444
 8546TIP3    H125602   6.129   5.685   1.595 -2.1028  1.1536  0.7960
 8546TIP3    H225603   6.186   5.625   1.722  0.5629  0.1475 -0.8078
 8547TIP3   OH225604   3.255   5.566   5.433  0.2396 -0.0569  0.5308
 8547TIP3    H125605   3.186   5.552   5.368  0.4419 -0.7846  0.4675
 8547TIP3    H225606   3.208   5.582   5.514 -0.0256  1.3469  0.1285
 8548TIP3   OH225607   5.716   2.864   4.069  0.1253 -0.0353  0.0255
 8548TIP3    H125608   5.659   2.810   4.124  2.5449 -2.2413  0.5288
 8548TIP3    H225609   5.792   2.809   4.051  1.3424  2.1388 -2.0905
 8549TIP3   OH225610   3.657   3.263   0.314 -0.0876 -0.5317 -0.5337
 8549TIP3    H125611   3.610   3.235   0.392 -0.8070 -0.8709 -1.0780
 8549TIP3    H225612   3.591   3.305   0.259  0.2337 -1.0102 -1.3053
 8550TIP3   OH225613   7.164   4.860   1.265 -0.3331 -0.0538  0.1259
 8550TIP3    H125614   7.095   4.807   1.304 -1.2299  0.9278 -0.0872
 8550TIP3    H225615   7.206   4.904   1.338 -1.8956  1.6471  0.0389
 8551TIP3   OH225616   4.635   0.464   0.060 -0.2154 -0.3579 -0.8023
 8551TIP3    H125617   4.575   0.390   0.066 -1.4717  0.4944 -2.0258
 8551TIP3    H225618   4.672   0.473   0.148 -0.2818 -2.2140 -0.5601
 8552TIP3   OH225619   7.236   6.727   3.431 -0.1614  0.1770 -0.0637
 8552TIP3    H125620   7.236   6.770   3.346 -2.8587  1.6969  0.5839
 8552TIP3    H225621   7.172   6.657   3.422 -0.5366  0.4091  0.7135
 8553TIP3   OH225622   6.889   4.813   4.832 -0.5206  0.1294 -0.1562
 8553TIP3    H125623   6.871   4.907   4.840 -0.0754  0.3194 -1.2528
 8553TIP3    H225624   6.962   4.807   4.771 -0.3788 -0.9248  0.0944
 8554TIP3   OH225625   2.054   2.872   3.904 -0.9129 -0.1354 -0.6222
 8554TIP3    H125626   2.075   2.796   3.959  0.6816  0.2586 -0.6315
 8554TIP3    H225627   1.959   2.880   3.909 -1.2682 -2.7577 -1.4285
 8555TIP3   OH225628   0.222   2.316   1.447 -0.8139  0.0639 -0.0871
 8555TIP3    H125629   0.216   2.221   1.446  1.8789 -0.2224  0.6573
 8555TIP3    H225630   0.221   2.339   1.540  2.5003  0.2608  0.0179
 8556TIP3   OH225631   2.652   0.488   3.970 -0.3922 -0.2659 -0.1968
 8556TIP3    H125632   2.602   0.487   4.051  0.5966  0.6979  0.4480
 8556TIP3    H225633   2.702   0.569   3.973 -0.5575 -0.0532 -1.9152
 8557TIP3   OH225634   3.280   5.836   4.601  0.1762 -0.2490  0.3145
 8557TIP3    H125635   3.351   5.890   4.636 -0.3644  0.4566  0.3697
 8557TIP3    H225636   3.294   5.749   4.639  0.0351  0.3115  1.7099
 8558TIP3   OH225637   6.366   5.213   4.377 -0.5693 -0.5411  0.2186
 8558TIP3    H125638   6.428   5.151   4.338  0.1524  0.0650  0.3771
 8558TIP3    H225639   6.410   5.245   4.455 -0.1587  1.4641 -0.7740
 8559TIP3   OH225640   2.242   5.755   5.422  0.7534  0.1506 -0.1358
 8559TIP3    H125641   2.152   5.746   5.389 -0.3728  3.0474  1.7095
 8559TIP3    H225642   2.231   5.780   5.514  3.5725 -1.4882  0.7748
 8560TIP3   OH225643   4.267   0.152   3.523 -0.1665 -1.0470  0.0149
 8560TIP3    H125644   4.218   0.221   3.478  0.8769 -1.1748 -1.3472
 8560TIP3    H225645   4.356   0.158   3.489  0.7742 -0.9810  2.2524
 8561TIP3   OH225646   3.961   1.378   1.010  0.1241 -0.1001 -0.2303
 8561TIP3    H125647   3.968   1.471   1.028  0.2207 -0.4389  1.6698
 8561TIP3    H225648   3.910   1.373   0.929  1.1697  1.6150 -1.0495
 8562TIP3   OH225649   4.120   1.157   4.895  0.3427 -0.4269 -0.4431
 8562TIP3    H125650   4.050   1.155   4.830  0.2827  1.7055 -0.4937
 8562TIP3    H225651   4.179   1.086   4.869 -1.6161 -2.0865 -0.5630
 8563TIP3   OH225652   2.700   1.137   5.429  0.0335  0.2281 -0.0134
 8563TIP3    H125653   2.736   1.224   5.412  0.4691 -0.0778 -0.6947
 8563TIP3    H225654   2.760   1.077   5.385 -0.0740 -0.4447  0.7377
 8564TIP3   OH225655   5.356   5.195   0.748  0.1391  0.1592  0.4571
 8564TIP3    H125656   5.424   5.145   0.703  0.1477 -0.9496  1.6597
 8564TIP3    H225657   5.288   5.206   0.681 -0.5664 -2.8726  0.5011
 8565TIP3   OH225658   5.128   4.469   3.248 -0.7001 -0.3605  0.8245
 8565TIP3    H125659   5.151   4.377   3.233  1.8877  0.2296  0.6545
 8565TIP3    H225660   5.083   4.470   3.333 -2.9213 -2.0098 -0.2386
 8566TIP3   OH225661   5.067   2.204   0.261 -0.4358 -0.2625 -0.0948
 8566TIP3    H125662   5.043   2.172   0.348 -0.3831 -0.9991 -0.3355
 8566TIP3    H225663   4.987   2.242   0.226 -0.1662  1.0838  0.7132
 8567TIP3   OH225664   1.694   0.023   3.939  0.5330  0.7119 -0.3995
 8567TIP3    H125665   1.651  -0.056   3.970  0.8828  0.9604  0.7646
 8567TIP3    H225666   1.709   0.075   4.018  0.5007  1.8488 -1.1141
 8568TIP3   OH225667   3.179   6.706   3.203 -0.2111  0.0123  0.4567
 8568TIP3    H125668   3.148   6.678   3.117  0.6147 -1.0340  0.4796
 8568TIP3    H225669   3.157   6.800   3.208 -0.5877 -0.0040 -0.7348
 8569TIP3   OH225670   2.355   3.602   0.255 -0.2435  0.0876  0.4902
 8569TIP3    H125671   2.418   3.583   0.324 -0.2343  0.3264  0.5507
 8569TIP3    H225672   2.272   3.568   0.289 -0.3000  0.4779  0.7568
 8570TIP3   OH225673   3.186   4.333   1.870  0.3665 -0.2566  0.3403
 8570TIP3    H125674   3.135   4.369   1.942  2.9632 -0.6039  2.5004
 8570TIP3    H225675   3.275   4.367   1.883  1.8436 -3.4284 -0.3280
 8571TIP3   OH225676   6.811   1.786   2.411 -0.0257  0.1270  0.1781
 8571TIP3    H125677   6.882   1.724   2.432 -0.7726 -0.1709  2.0042
 8571TIP3    H225678   6.735   1.730   2.394 -0.3302  0.4968  0.3180
 8572TIP3   OH225679   0.885   2.839   3.454  0.4039 -0.2539 -0.2248
 8572TIP3    H125680   0.963   2.811   3.503  0.6791  1.8866  0.6985
 8572TIP3    H225681   0.919   2.902   3.391 -0.3130 -1.0228 -1.4020
 8573TIP3   OH225682   5.860   0.602   1.437 -0.1684  0.1663  0.5115
 8573TIP3    H125683   5.865   0.629   1.346  0.1673 -0.2764  0.3918
 8573TIP3    H225684   5.776   0.555   1.444  0.3052 -0.7629  0.1516
 8574TIP3   OH225685   4.741   6.317   0.610  0.0996 -0.3067  0.0922
 8574TIP3    H125686   4.833   6.290   0.607  0.0400 -0.4742 -1.4681
 8574TIP3    H225687   4.741   6.404   0.569 -0.2200  0.4389  1.6352
 8575TIP3   OH225688   6.654   0.132   2.338  0.2250  0.1537  0.3693
 8575TIP3    H125689   6.631   0.085   2.258  1.1288 -0.9528  0.7270
 8575TIP3    H225690   6.645   0.224   2.315  0.0640 -0.1489 -0.8789
 8576TIP3   OH225691   4.303   2.416   1.563  0.1095 -0.1386  0.3246
 8576TIP3    H125692   4.219   2.443   1.525 -1.0255 -1.6198  1.6171
 8576TIP3    H225693   4.354   2.384   1.488 -1.4516 -1.5169 -0.2154
 8577TIP3   OH225694   3.556   1.642   3.278 -0.4164 -0.2453 -0.5747
 8577TIP3    H125695   3.515   1.721   3.243 -0.2695 -0.8728 -2.2585
 8577TIP3    H225696   3.482   1.588   3.308 -0.4616  1.0788  2.0084
 8578TIP3   OH225697   6.716   4.830   2.935 -0.2388 -0.6283 -0.0387
 8578TIP3    H125698   6.776   4.771   2.981  2.0523  0.6721 -1.2044
 8578TIP3    H225699   6.682   4.887   3.003 -1.0800 -2.0831  0.8187
 8579TIP3   OH225700   3.250   2.780   0.568 -0.2655 -0.0074  0.1836
 8579TIP3    H125701   3.234   2.771   0.474 -0.5013  1.1406  0.0921
 8579TIP3    H225702   3.311   2.709   0.589 -1.3212 -1.1584 -0.5348
 8580TIP3   OH225703   4.321   1.653   1.561 -0.0797  0.5687 -0.1111
 8580TIP3    H125704   4.387   1.586   1.545  0.3392  0.5242  1.6028
 8580TIP3    H225705   4.240   1.615   1.528  0.1323 -0.8516  0.8787
 8581TIP3   OH225706   0.060   4.745   3.007  0.1997  0.0985 -0.1361
 8581TIP3    H125707   0.110   4.723   2.929 -1.0928  1.2817 -1.3640
 8581TIP3    H225708   0.042   4.661   3.048  0.4229 -0.6109 -1.4344
 8582TIP3   OH225709   5.025   1.231   3.408 -0.0700  0.6049 -0.2413
 8582TIP3    H125710   5.039   1.268   3.321 -0.1286 -2.2900 -1.6037
 8582TIP3    H225711   5.076   1.150   3.408 -0.6035  0.1884  2.2051
 8583TIP3   OH225712   5.093   5.649   3.943 -0.1052 -0.1014  0.4761
 8583TIP3    H125713   5.134   5.614   3.864 -1.1748  0.9008 -0.5668
 8583TIP3    H225714   5.117   5.742   3.942 -1.1593  0.1773  0.6406
 8584TIP3   OH225715   2.791   6.440   1.023 -0.1941  0.1772 -0.2313
 8584TIP3    H125716   2.752   6.491   1.094  2.2236  2.7411 -0.5594
 8584TIP3    H225717   2.875   6.410   1.058  1.2137  1.8082 -1.9998
 8585TIP3   OH225718   6.244   6.116   0.872 -0.2088 -0.4382  0.3011
 8585TIP3    H125719   6.186   6.046   0.843 -0.1785 -1.0066  1.5405
 8585TIP3    H225720   6.317   6.114   0.810  0.0866 -1.9143  0.6588
 8586TIP3   OH225721   6.026   6.043   4.946  0.1393 -0.3183 -0.0486
 8586TIP3    H125722   6.104   6.088   4.976  0.4944 -1.2446  0.4627
 8586TIP3    H225723   5.982   6.014   5.026 -0.4985 -0.1809 -0.3443
 8587TIP3   OH225724   6.251   4.460   2.679 -0.1296  0.0963  0.5992
 8587TIP3    H125725   6.241   4.546   2.720  0.5960 -0.5730  2.2925
 8587TIP3    H225726   6.241   4.398   2.752 -0.8843 -1.2689 -0.6245
 8588TIP3   OH225727   0.779   3.349   0.435 -0.1123  0.5077 -0.5846
 8588TIP3    H125728   0.720   3.281   0.469  0.4337  0.7376  0.8670
 8588TIP3    H225729   0.817   3.310   0.356  1.3469 -1.5334  1.0059
 8589TIP3   OH225730   3.254   5.347   3.594 -0.4214 -0.2123 -0.4622
 8589TIP3    H125731   3.289   5.314   3.677 -0.1542  0.2335 -0.3931
 8589TIP3    H225732   3.166   5.377   3.615 -0.1996  0.2987 -0.2372
 8590TIP3   OH225733   5.507   4.375   5.753 -0.0146 -0.3095  0.1791
 8590TIP3    H125734   5.509   4.279   5.745 -0.1276 -0.4456  1.5127
 8590TIP3    H225735   5.571   4.394   5.822  1.3102  0.7464 -1.2751
 8591TIP3   OH225736   3.385   5.845   2.860 -0.0141  0.3553  0.3755
 8591TIP3    H125737   3.460   5.902   2.838 -0.1180  0.4639  0.2997
 8591TIP3    H225738   3.422   5.778   2.917  0.5347 -0.6497 -1.0979
 8592TIP3   OH225739   1.794   4.085   3.080  0.3531 -0.0406 -0.0026
 8592TIP3    H125740   1.805   3.990   3.081  1.9082  0.1039 -0.2495
 8592TIP3    H225741   1.788   4.110   3.172 -1.1236 -0.4542  0.0375
 8593TIP3   OH225742   1.948   3.369   2.347 -0.5207 -0.1795 -0.3830
 8593TIP3    H125743   1.991   3.454   2.351 -2.3176  0.7726  0.1177
 8593TIP3    H225744   1.941   3.342   2.439  1.3619 -1.6311 -0.6099
 8594TIP3   OH225745   3.634   5.859   5.521 -0.6488 -0.0858  0.0711
 8594TIP3    H125746   3.674   5.824   5.601  1.2056  2.1114  0.2367
 8594TIP3    H225747   3.584   5.935   5.551  0.0497  0.7507 -0.8162
 8595TIP3   OH225748   1.138   6.679   4.073  0.6627  0.5398  0.0740
 8595TIP3    H125749   1.197   6.627   4.018  0.8263 -0.4112  1.1296
 8595TIP3    H225750   1.068   6.618   4.097 -0.5230  1.5198 -0.7699
 8596TIP3   OH225751   3.256   0.977   2.932 -0.5048  0.1249 -0.6813
 8596TIP3    H125752   3.181   0.967   2.991  0.1976  2.7117  0.8398
 8596TIP3    H225753   3.285   0.887   2.915 -2.2129 -0.8321  0.9785
 8597TIP3   OH225754   4.509   4.311   0.635  0.3507 -0.0242 -0.2553
 8597TIP3    H125755   4.540   4.221   0.629 -1.0235 -0.4402 -1.5556
 8597TIP3    H225756   4.585   4.360   0.668  1.3416 -1.5166 -0.2170
 8598TIP3   OH225757   4.666   5.223   4.014  0.4977  0.5107  0.3715
 8598TIP3    H125758   4.616   5.296   4.052 -1.1693  0.6940 -1.9354
 8598TIP3    H225759   4.628   5.211   3.927  2.3752 -1.5441 -0.2584
 8599TIP3   OH225760   1.033   4.630   5.436  0.3853 -0.0110 -0.6224
 8599TIP3    H125761   1.017   4.714   5.394  2.2056  0.3598 -0.6403
 8599TIP3    H225762   1.067   4.652   5.523  2.3517 -0.6497 -1.1762
 8600TIP3   OH225763   3.272   6.407   0.742 -0.0594  0.2104  0.0302
 8600TIP3    H125764   3.211   6.457   0.797 -1.6962 -0.4248 -1.1293
 8600TIP3    H225765   3.292   6.466   0.669 -1.3518 -0.4725 -0.9163
 8601TIP3   OH225766   6.499   1.259   3.017 -0.2990 -0.1652  0.0070
 8601TIP3    H125767   6.531   1.244   3.106 -1.5502  0.5451  0.6007
 8601TIP3    H225768   6.578   1.255   2.962  0.4597 -0.8002  1.1133
 8602TIP3   OH225769   2.733   3.046   5.740 -0.3529 -0.2065  0.1424
 8602TIP3    H125770   2.651   3.094   5.754 -0.2151  0.2626 -0.5781
 8602TIP3    H225771   2.748   3.052   5.646 -0.7701 -2.4021 -0.1279
 8603TIP3   OH225772   2.413   0.839   3.727  0.2786 -0.0050  0.2080
 8603TIP3    H125773   2.365   0.903   3.674  0.6643  0.9050  0.9391
 8603TIP3    H225774   2.501   0.875   3.734  0.9935 -1.4764 -0.8016
 8604TIP3   OH225775   2.310   0.420   4.530 -0.1412  0.6717 -0.1074
 8604TIP3    H125776   2.350   0.334   4.523 -1.5583  0.0452 -0.8487
 8604TIP3    H225777   2.291   0.431   4.623  0.9429  0.6331  0.1354
 8605TIP3   OH225778   2.216   1.431   1.306  0.2154 -0.3630  0.2941
 8605TIP3    H125779   2.219   1.477   1.390 -1.0754 -1.3228  0.9159
 8605TIP3    H225780   2.292   1.373   1.308  0.5902  0.1302  0.4830
 8606TIP3   OH225781   3.198   1.367   3.272  0.2104  0.2914 -0.9931
 8606TIP3    H125782   3.128   1.432   3.277  1.0011  1.0790  0.4245
 8606TIP3    H225783   3.262   1.394   3.338  1.8002 -0.4870 -2.1246
 8607TIP3   OH225784   4.289   0.883   5.468  0.2225  0.5923 -0.0202
 8607TIP3    H125785   4.235   0.863   5.544  0.3618 -3.1318 -0.6864
 8607TIP3    H225786   4.227   0.882   5.394  0.7007 -0.6587 -0.4347
 8608TIP3   OH225787   2.402   6.508   3.609  0.5416 -0.4874  0.5626
 8608TIP3    H125788   2.319   6.519   3.655  0.2205  0.8556 -0.2753
 8608TIP3    H225789   2.393   6.425   3.562 -0.3250 -0.3612  0.4929
 8609TIP3   OH225790   1.841   6.609   3.138  0.2283  0.5120  0.2470
 8609TIP3    H125791   1.866   6.690   3.094  0.3213  0.3480  0.0005
 8609TIP3    H225792   1.818   6.636   3.227 -0.6526  0.9483 -0.1000
 8610TIP3   OH225793   6.113   0.915   4.110  0.1997  0.2897  0.3264
 8610TIP3    H125794   6.114   0.905   4.205  1.9972  0.5957  0.3817
 8610TIP3    H225795   6.044   0.979   4.093 -0.1997  0.1700  1.4244
 8611TIP3   OH225796   2.702   4.232   2.590 -0.2131 -0.2465 -0.6064
 8611TIP3    H125797   2.780   4.252   2.641 -0.0235 -1.8682 -0.1927
 8611TIP3    H225798   2.735   4.182   2.515 -0.9683 -2.9403  0.7172
 8612TIP3   OH225799   3.369   0.437   3.291 -0.5757  0.8744 -0.1589
 8612TIP3    H125800   3.402   0.433   3.381  0.5341  1.3109 -0.5403
 8612TIP3    H225801   3.393   0.353   3.253 -0.1637  1.0831 -0.3538
 8613TIP3   OH225802   0.490   6.679   1.901 -0.3485  0.1116  0.0223
 8613TIP3    H125803   0.456   6.700   1.987  0.0029  1.3859 -0.1315
 8613TIP3    H225804   0.504   6.584   1.903 -0.8270  0.0540  1.1751
 8614TIP3   OH225805   0.973   6.735   5.368  0.4184  0.0046 -0.0390
 8614TIP3    H125806   0.949   6.827   5.367 -1.0142 -0.3541  0.0668
 8614TIP3    H225807   1.051   6.730   5.313 -0.2686  1.0681 -1.1515
 8615TIP3   OH225808   4.928   3.401   4.837 -0.0327  0.3256  0.1575
 8615TIP3    H125809   4.922   3.323   4.782 -2.0926  0.3124  0.3332
 8615TIP3    H225810   4.915   3.369   4.926 -2.5380  0.9973  0.0990
 8616TIP3   OH225811   5.622   1.198   3.488  0.0298  0.2195 -0.2101
 8616TIP3    H125812   5.576   1.206   3.404  0.2668 -1.7337 -0.5659
 8616TIP3    H225813   5.702   1.250   3.476  0.1704 -0.2182 -1.2903
 8617TIP3   OH225814   2.820   2.645   1.010 -0.2465 -0.3473 -0.2853
 8617TIP3    H125815   2.881   2.711   0.976  0.7639 -0.5259  1.0570
 8617TIP3    H225816   2.785   2.602   0.933 -0.0546  1.0022 -1.1510
 8618TIP3   OH225817   1.049   0.940   5.264 -0.1806  0.1317 -0.1947
 8618TIP3    H125818   1.033   0.964   5.356 -2.3521 -0.8457 -0.2530
 8618TIP3    H225819   1.135   0.899   5.265  0.0520  0.5689  1.3290
 8619TIP3   OH225820   0.117   3.587   2.349  0.2496  0.0522 -0.2993
 8619TIP3    H125821   0.052   3.576   2.418 -0.7320 -1.0094 -1.3652
 8619TIP3    H225822   0.196   3.547   2.385 -0.4376 -1.1095 -0.0361
 8620TIP3   OH225823   5.557   2.428   2.887 -0.1589 -0.0387  0.5467
 8620TIP3    H125824   5.624   2.360   2.895 -0.5674 -0.7979 -1.7612
 8620TIP3    H225825   5.477   2.381   2.863 -0.0974  1.2469 -2.7584
 8621TIP3   OH225826   0.072   4.306   4.309 -0.0447  0.5483 -0.6649
 8621TIP3    H125827   0.163   4.304   4.280 -1.0295 -0.6826 -4.2267
 8621TIP3    H225828   0.031   4.372   4.254 -0.7071  4.3070  3.7714
 8622TIP3   OH225829   0.662   0.617   4.046  0.1207 -0.4139  0.1839
 8622TIP3    H125830   0.642   0.571   3.964 -0.5958  1.4195 -0.7214
 8622TIP3    H225831   0.591   0.681   4.056  1.0541  0.4814  1.4054
 8623TIP3   OH225832   1.248   5.352   0.656  0.3505  0.1282 -0.0746
 8623TIP3    H125833   1.341   5.351   0.677  1.0172 -0.2156 -2.6395
 8623TIP3    H225834   1.215   5.430   0.699  2.2108  1.1609 -0.3812
 8624TIP3   OH225835   4.348   6.095   4.741 -0.2304 -0.1256 -0.4549
 8624TIP3    H125836   4.417   6.071   4.679  1.0073  1.0435  0.4118
 8624TIP3    H225837   4.320   6.183   4.713 -0.1619  0.1141  0.2150
 8625TIP3   OH225838   6.177   2.697   5.041 -0.4169 -0.1897  0.0655
 8625TIP3    H125839   6.204   2.618   4.995  1.3782  1.4235 -1.8215
 8625TIP3    H225840   6.109   2.735   4.985 -0.6508  0.0749  0.5223
 8626TIP3   OH225841   5.726   6.440   1.795 -0.4399 -0.1980  0.2619
 8626TIP3    H125842   5.715   6.489   1.713 -0.5019 -0.6797 -0.0230
 8626TIP3    H225843   5.663   6.368   1.788  1.1352 -1.5827 -0.2860
 8627TIP3   OH225844   2.181   2.317   2.636  0.1695 -0.2143  0.1023
 8627TIP3    H125845   2.255   2.345   2.689  0.1645 -2.2448  1.3119
 8627TIP3    H225846   2.106   2.363   2.674  0.4031 -0.4052  0.8135
 8628TIP3   OH225847   5.371   4.392   3.900 -0.7299  0.2126 -0.2493
 8628TIP3    H125848   5.360   4.481   3.934 -0.1204  0.5017 -0.7861
 8628TIP3    H225849   5.466   4.377   3.902 -0.6178  0.3945 -2.1522
 8629TIP3   OH225850   6.206   3.410   2.526  0.2970 -0.3940 -0.2895
 8629TIP3    H125851   6.187   3.322   2.492 -1.0359 -0.1931 -0.0865
 8629TIP3    H225852   6.171   3.469   2.460 -0.5370 -0.0068  0.4927
 8630TIP3   OH225853   5.918   1.983   0.294  0.2231  0.3895  0.3946
 8630TIP3    H125854   5.824   1.976   0.280  0.3051  1.1195 -0.6709
 8630TIP3    H225855   5.931   1.954   0.384 -0.7481 -1.7316 -0.0894
 8631TIP3   OH225856   1.300   3.224   3.217 -0.2233  0.1441  0.3227
 8631TIP3    H125857   1.377   3.180   3.179 -0.4960  1.9099 -2.5630
 8631TIP3    H225858   1.242   3.239   3.142 -2.2628  1.1359  2.0128
 8632TIP3   OH225859   7.176   6.477   3.357 -0.0763  0.8911  0.1386
 8632TIP3    H125860   7.236   6.461   3.283 -3.0032 -1.7268 -1.9788
 8632TIP3    H225861   7.215   6.430   3.430  0.8912 -0.0410 -0.9338
 8633TIP3   OH225862   7.231   5.750   0.590 -0.0743 -0.4293 -0.3319
 8633TIP3    H125863   7.141   5.780   0.601 -0.0244 -0.6296  0.7355
 8633TIP3    H225864   7.278   5.826   0.555 -0.5506 -0.1668 -0.4047
 8634TIP3   OH225865   4.770   1.744   5.206  0.0601  0.5525  0.0905
 8634TIP3    H125866   4.864   1.724   5.206 -0.5689 -3.3537  0.9615
 8634TIP3    H225867   4.737   1.701   5.285 -2.6095  0.8387 -0.7765
 8635TIP3   OH225868   5.716   2.014   0.686  0.0414  0.4634  0.0040
 8635TIP3    H125869   5.730   2.078   0.617  0.1966  1.3703  0.8520
 8635TIP3    H225870   5.695   2.066   0.763 -0.9030 -0.5618  0.4635
 8636TIP3   OH225871   3.082   5.834   1.013  0.5745 -0.4080  0.1540
 8636TIP3    H125872   3.017   5.838   1.083  1.1070 -1.8407  0.7566
 8636TIP3    H225873   3.146   5.902   1.036 -0.1571  0.3016  0.1140
 8637TIP3   OH225874   3.678   6.836   1.568  0.1680 -0.4694 -0.4032
 8637TIP3    H125875   3.677   6.810   1.660 -3.2473  2.0961  0.5107
 8637TIP3    H225876   3.668   6.754   1.519  0.5429 -1.7507  1.5737
 8638TIP3   OH225877   1.316   4.695   1.817  0.7225  0.5664 -0.2119
 8638TIP3    H125878   1.287   4.604   1.822  1.3852  0.1219 -2.9443
 8638TIP3    H225879   1.247   4.744   1.861 -0.2149 -1.1545  0.3279
 8639TIP3   OH225880   3.783   6.409   5.285  0.4637 -0.0338 -0.6857
 8639TIP3    H125881   3.689   6.416   5.266 -0.5354  3.0114  3.8080
 8639TIP3    H225882   3.793   6.323   5.325 -0.5126 -0.2290 -0.8337
 8640TIP3   OH225883   7.243   5.053   4.848  0.3435  0.1111 -0.4357
 8640TIP3    H125884   7.222   5.077   4.939 -2.6077  2.0352 -1.4576
 8640TIP3    H225885   7.202   5.122   4.796  0.5640 -1.7742 -3.3120
 8641TIP3   OH225886   2.338   4.471   2.272 -0.0145 -0.2851  0.0598
 8641TIP3    H125887   2.299   4.384   2.270 -0.8831  0.0894 -0.0009
 8641TIP3    H225888   2.393   4.471   2.350  1.2689 -1.4041 -0.8035
 8642TIP3   OH225889   1.068   6.102   1.985 -0.1965 -0.3255  0.5563
 8642TIP3    H125890   1.043   6.194   1.980  0.5990 -0.1713 -2.0455
 8642TIP3    H225891   1.004   6.057   1.931  0.3221 -1.0699  0.5464
 8643TIP3   OH225892   1.135   2.048   0.074 -0.3604  0.1497 -0.0208
 8643TIP3    H125893   1.178   1.998   0.004 -1.1460 -2.3293  1.1830
 8643TIP3    H225894   1.182   2.024   0.153 -2.0671 -0.3410  0.8908
 8644TIP3   OH225895   0.574   3.436   2.348  0.1108  0.0733  0.3223
 8644TIP3    H125896   0.632   3.407   2.277 -0.0788 -0.1405  0.2525
 8644TIP3    H225897   0.513   3.496   2.306 -1.0743 -1.3551 -0.0590
 8645TIP3   OH225898   6.976   6.797   0.251 -0.0703 -0.0024 -0.1590
 8645TIP3    H125899   7.009   6.814   0.339 -0.1492 -0.0063 -0.1281
 8645TIP3    H225900   7.050   6.815   0.193  0.4134 -1.3305  0.0031
 8646TIP3   OH225901   0.072   2.225   4.150 -0.3488 -0.0672 -0.3464
 8646TIP3    H125902   0.005   2.279   4.111  0.1428  0.6604 -0.2072
 8646TIP3    H225903   0.144   2.225   4.086 -0.4015 -0.6769 -0.4119
 8647TIP3   OH225904   1.757   0.694   5.422  0.4367  0.5539  0.5125
 8647TIP3    H125905   1.714   0.680   5.507 -0.4760  1.8936  0.3080
 8647TIP3    H225906   1.690   0.672   5.358  1.0940 -0.3625  0.1238
 8648TIP3   OH225907   1.075   1.126   3.801  0.1697  0.7295  0.1202
 8648TIP3    H125908   1.104   1.206   3.844  3.3414  0.1799 -0.7655
 8648TIP3    H225909   1.126   1.122   3.720 -1.8552 -0.8658 -1.1913
 8649TIP3   OH225910   0.110   5.350   5.341 -0.1448 -0.0895  0.0905
 8649TIP3    H125911   0.174   5.419   5.322 -0.5622  0.0657 -0.7917
 8649TIP3    H225912   0.068   5.379   5.422  0.7488 -0.0903  0.5720
 8650TIP3   OH225913   1.409   2.913   3.782 -0.0890  0.0985 -0.2568
 8650TIP3    H125914   1.428   2.821   3.804 -1.5481  0.0433  0.8978
 8650TIP3    H225915   1.387   2.910   3.689 -0.8926 -0.8790 -0.0606
 8651TIP3   OH225916   0.272   4.260   5.138  0.4544 -0.1203  0.2769
 8651TIP3    H125917   0.298   4.235   5.227  0.3057  1.8103  0.8964
 8651TIP3    H225918   0.256   4.176   5.094  0.7549 -1.1267  1.9837
 8652TIP3   OH225919   6.082   0.509   5.383  0.4310 -0.3255  0.2947
 8652TIP3    H125920   6.053   0.552   5.464  1.5253  2.9125 -0.8558
 8652TIP3    H225921   6.001   0.484   5.339 -0.3482  1.3004  0.7284
 8653TIP3   OH225922   0.427   2.103   3.746 -0.2910  0.6142  0.3527
 8653TIP3    H125923   0.413   2.189   3.708 -1.5105 -0.4648 -1.8214
 8653TIP3    H225924   0.404   2.041   3.676  2.2329 -1.4990  1.2199
 8654TIP3   OH225925   3.086   3.911   1.923  0.2442 -0.0474  0.1559
 8654TIP3    H125926   3.106   3.920   1.829  0.6707  1.6696  0.3785
 8654TIP3    H225927   2.990   3.914   1.927  0.2009 -0.6647 -0.2649
 8655TIP3   OH225928   4.000   5.584   0.815 -0.3465  0.0627  0.1720
 8655TIP3    H125929   3.933   5.600   0.882 -0.7360 -1.2254  0.1208
 8655TIP3    H225930   4.066   5.531   0.859 -0.3885 -0.4176 -0.3290
 8656TIP3   OH225931   5.029   4.148   5.337  0.0543  0.5532  0.1115
 8656TIP3    H125932   5.121   4.134   5.360  0.1546  0.5311 -0.2975
 8656TIP3    H225933   4.983   4.146   5.421  0.6595  2.4546  0.5468
 8657TIP3   OH225934   0.532   5.463   3.223 -0.3803 -0.5056 -0.1827
 8657TIP3    H125935   0.457   5.405   3.211  0.4492 -1.7117  0.1843
 8657TIP3    H225936   0.607   5.411   3.193  0.6372 -0.3649  1.9017
 8658TIP3   OH225937   2.447   1.694   1.101 -0.4004  0.0296  0.3361
 8658TIP3    H125938   2.513   1.746   1.056 -0.2123 -1.4077 -1.1657
 8658TIP3    H225939   2.498   1.638   1.161 -0.4174  0.1212  0.4368
 8659TIP3   OH225940   6.433   5.446   0.567  0.1547 -0.1204  0.3546
 8659TIP3    H125941   6.396   5.379   0.624 -0.3541  0.4004  0.6438
 8659TIP3    H225942   6.513   5.406   0.533 -0.3945 -1.0694  0.1245
 8660TIP3   OH225943   5.845   1.193   0.313  0.0222 -0.2967  0.1072
 8660TIP3    H125944   5.847   1.098   0.324 -0.4728 -0.6013 -1.9486
 8660TIP3    H225945   5.771   1.222   0.366 -0.2407 -1.1518  0.2213
 8661TIP3   OH225946   3.172   4.268   0.657 -0.3959 -0.3268  0.1375
 8661TIP3    H125947   3.150   4.343   0.711  0.0321 -0.6281  0.7444
 8661TIP3    H225948   3.152   4.192   0.712  0.4424 -0.6322  0.0380
 8662TIP3   OH225949   0.052   6.612   2.022 -0.1618 -0.0818 -0.1921
 8662TIP3    H125950   0.075   6.563   2.101  1.1936  0.4332 -0.2395
 8662TIP3    H225951   0.050   6.547   1.953  0.5348 -0.2599 -0.0568
 8663TIP3   OH225952   0.486   4.228   4.344 -0.2068  0.6703 -0.3552
 8663TIP3    H125953   0.534   4.309   4.360 -2.4043  1.9845 -0.0487
 8663TIP3    H225954   0.413   4.254   4.288 -0.7513 -1.1937 -0.5870
 8664TIP3   OH225955   6.661   4.036   0.179  0.2020  0.1827 -0.1635
 8664TIP3    H125956   6.669   4.039   0.275  1.3528  1.5093 -0.2734
 8664TIP3    H225957   6.725   3.972   0.151 -1.5797 -1.7909  0.0475
 8665TIP3   OH225958   2.806   2.978   4.693 -0.6095 -0.0840 -0.4263
 8665TIP3    H125959   2.846   2.898   4.658 -1.1190 -0.2258 -0.6981
 8665TIP3    H225960   2.770   3.022   4.616  1.8421  1.7097 -0.6760
 8666TIP3   OH225961   4.592   3.257   2.510  0.1294  0.2836  0.1958
 8666TIP3    H125962   4.529   3.325   2.533 -0.7681 -0.7633  0.9175
 8666TIP3    H225963   4.645   3.296   2.441 -2.2996  0.6927 -1.5616
 8667TIP3   OH225964   3.887   3.835   2.006 -0.6080 -0.0204 -0.4948
 8667TIP3    H125965   3.900   3.882   2.088  0.5804  0.8075 -1.1272
 8667TIP3    H225966   3.868   3.745   2.032 -0.7682  0.3449  0.6860
 8668TIP3   OH225967   5.424   4.540   1.175  0.0633 -0.2797  0.3209
 8668TIP3    H125968   5.385   4.617   1.134  0.4999 -0.0607  0.3063
 8668TIP3    H225969   5.436   4.478   1.102  1.2595  0.2816  0.0135
 8669TIP3   OH225970   5.501   0.727   3.434 -0.6536  0.0891 -1.0718
 8669TIP3    H125971   5.553   0.797   3.473  1.9718 -1.0162 -2.3225
 8669TIP3    H225972   5.542   0.712   3.349 -0.0568 -3.9696 -0.2519
 8670TIP3   OH225973   7.045   2.306   0.044  0.0517  0.0507  0.1239
 8670TIP3    H125974   6.966   2.361   0.046 -0.6504 -0.9583  1.1454
 8670TIP3    H225975   7.113   2.361   0.081 -0.5904  0.3348  0.9133
 8671TIP3   OH225976   4.779   4.325   1.970 -0.2241  0.0604 -0.3983
 8671TIP3    H125977   4.774   4.263   2.044  0.8830 -1.6310 -1.6556
 8671TIP3    H225978   4.784   4.411   2.011 -0.8078 -0.7318  1.4591
 8672TIP3   OH225979   2.160   0.602   2.913 -0.2545  0.4814 -0.3111
 8672TIP3    H125980   2.143   0.546   2.989 -3.0511  1.4232 -0.1183
 8672TIP3    H225981   2.222   0.667   2.945  1.4402 -1.2050  0.0464
 8673TIP3   OH225982   3.422   6.063   5.544 -0.1737 -0.0038 -0.4228
 8673TIP3    H125983   3.414   6.055   5.640  2.3949  1.0732 -0.0436
 8673TIP3    H225984   3.442   6.155   5.529 -0.7080 -0.1211 -2.0528
 8674TIP3   OH225985   0.034   2.497   1.997 -0.1930 -0.3273 -0.4153
 8674TIP3    H125986  -0.045   2.538   2.033 -0.2803  0.3778 -1.3850
 8674TIP3    H225987   0.026   2.508   1.903 -0.2169 -2.6048 -0.7269
 8675TIP3   OH225988   6.371   0.855   2.049  0.0649  0.6755 -0.0585
 8675TIP3    H125989   6.347   0.812   2.131 -2.5645 -0.1730 -1.1763
 8675TIP3    H225990   6.423   0.789   2.002 -0.4660  0.2638 -0.0700
 8676TIP3   OH225991   3.528   2.252   0.220 -0.5217 -0.5118  0.2665
 8676TIP3    H125992   3.614   2.240   0.180 -0.7943 -2.9488  0.2529
 8676TIP3    H225993   3.528   2.191   0.295 -1.6755  0.6085  1.2226
 8677TIP3   OH225994   6.449   2.974   5.752  0.6094 -0.5517 -0.4728
 8677TIP3    H125995   6.520   2.910   5.748  0.4409 -0.8114  0.4483
 8677TIP3    H225996   6.485   3.047   5.802  0.0829 -0.8881  0.4152
 8678TIP3   OH225997   3.232   5.610   4.166  0.6348 -0.4989 -0.6816
 8678TIP3    H125998   3.216   5.625   4.260 -0.6387 -1.3023 -0.7456
 8678TIP3    H225999   3.327   5.600   4.160  0.6559 -1.4904  0.6975
 8679TIP3   OH226000   5.599   1.957   3.857  0.0190 -0.5593  0.1619
 8679TIP3    H126001   5.514   1.973   3.815  0.1125  1.5317  0.6610
 8679TIP3    H226002   5.620   1.867   3.835 -1.9669 -0.8738 -0.6363
 8680TIP3   OH226003   5.013   5.581   3.564  0.0058  0.5650  0.1578
 8680TIP3    H126004   5.064   5.540   3.634 -0.5051  1.5967  1.1808
 8680TIP3    H226005   5.030   5.675   3.574 -0.6569  0.7809 -0.6420
 8681TIP3   OH226006   1.991   2.621   1.881 -0.3157 -0.2485 -0.1447
 8681TIP3    H126007   2.071   2.586   1.842  1.7131  0.5814  2.8945
 8681TIP3    H226008   1.937   2.544   1.899  0.5580 -1.0165 -0.7196
 8682TIP3   OH226009   5.509   4.511   4.303 -0.3101 -0.7921  0.2602
 8682TIP3    H126010   5.500   4.494   4.209  0.1775 -0.5958  0.1704
 8682TIP3    H226011   5.587   4.566   4.309 -0.9386  0.0803  0.6835
 8683TIP3   OH226012   3.523   1.307   5.300 -0.2099  0.7189  0.1514
 8683TIP3    H126013   3.451   1.345   5.350 -2.2105  0.3084 -2.1818
 8683TIP3    H226014   3.567   1.381   5.260 -1.9527  0.8782 -1.6301
 8684TIP3   OH226015   5.948   2.740   5.323 -0.0230  0.6622  0.0495
 8684TIP3    H126016   5.973   2.735   5.415 -0.4985  0.1616  0.1595
 8684TIP3    H226017   5.990   2.665   5.282  1.3743  1.6806 -0.4513
 8685TIP3   OH226018   5.539   2.635   3.673  0.2563 -0.0538  0.1031
 8685TIP3    H126019   5.596   2.688   3.618 -0.4129  0.9535  0.3408
 8685TIP3    H226020   5.470   2.696   3.701 -0.6197 -1.0894  0.2705
 8686TIP3   OH226021   6.188   5.854   5.420  0.7752  0.1873  0.2656
 8686TIP3    H126022   6.246   5.781   5.399 -0.8356 -1.2202  0.4683
 8686TIP3    H226023   6.237   5.905   5.485  2.2402 -0.2549 -0.4427
 8687TIP3   OH226024   4.524   2.251   1.682  0.8433 -0.0911  0.4019
 8687TIP3    H126025   4.491   2.338   1.659  0.9542  0.3104  1.6504
 8687TIP3    H226026   4.614   2.250   1.648  0.9305  0.3864  0.6123
 8688TIP3   OH226027   7.115   2.020   5.398  0.0525  0.0852  0.0828
 8688TIP3    H126028   7.164   1.968   5.334 -0.9389 -1.0323  0.2046
 8688TIP3    H226029   7.071   2.087   5.345  0.7003  0.3096 -0.1773
 8689TIP3   OH226030   0.107   2.848   4.941 -1.1053 -0.3652  0.2744
 8689TIP3    H126031   0.094   2.771   4.996  0.6479 -0.5088  0.5368
 8689TIP3    H226032   0.195   2.879   4.962 -1.0918  0.6678 -1.1153
 8690TIP3   OH226033   1.186   1.542   5.504 -0.4082  0.4415  0.6403
 8690TIP3    H126034   1.132   1.467   5.529 -1.5929  1.2188  0.4811
 8690TIP3    H226035   1.198   1.592   5.585 -0.3464  0.5387  0.5718
 8691TIP3   OH226036   1.695   6.135   4.753  0.5925  0.0416  0.4424
 8691TIP3    H126037   1.695   6.166   4.663 -0.4726 -2.3891 -0.5022
 8691TIP3    H226038   1.631   6.190   4.798  1.6484  1.7330 -0.0574
 8692TIP3   OH226039   4.430   0.270   0.144  0.1278 -0.2158 -0.7054
 8692TIP3    H126040   4.358   0.271   0.081  1.6495 -0.1934 -2.5514
 8692TIP3    H226041   4.491   0.205   0.109  0.0650 -1.8731  1.9825
 8693TIP3   OH226042   0.672   5.170   1.151 -0.1603  0.4147 -0.0422
 8693TIP3    H126043   0.590   5.122   1.141 -0.6020  1.1839 -0.2308
 8693TIP3    H226044   0.734   5.126   1.092  0.1730 -1.4452  1.6146
 8694TIP3   OH226045   6.493   2.591   2.232  0.5864  0.1505 -0.0740
 8694TIP3    H126046   6.449   2.506   2.230  1.4745 -0.2989 -1.0150
 8694TIP3    H226047   6.440   2.643   2.293 -2.1264  0.1230 -2.1777
 8695TIP3   OH226048   3.347   2.334   2.337  0.3245 -0.6591  0.7040
 8695TIP3    H126049   3.416   2.322   2.272 -0.2556 -0.2495  0.0058
 8695TIP3    H226050   3.393   2.368   2.414  0.7456  0.9312 -0.1914
 8696TIP3   OH226051   5.970   1.524   4.532 -0.5411  0.2488 -0.4975
 8696TIP3    H126052   5.951   1.487   4.446  0.6819 -0.1769 -0.6122
 8696TIP3    H226053   6.064   1.507   4.544 -0.4918  1.1733  0.4966
 8697TIP3   OH226054   0.495   5.448   1.785 -0.0864  0.0591 -0.5563
 8697TIP3    H126055   0.490   5.381   1.716  0.8347 -1.6662  0.9792
 8697TIP3    H226056   0.404   5.459   1.814 -0.1474 -1.3287 -0.1275
 8698TIP3   OH226057   1.116   3.075   3.386 -0.1485 -0.1518  0.1127
 8698TIP3    H126058   1.187   3.135   3.363  1.5470 -2.1616 -0.1829
 8698TIP3    H226059   1.114   3.012   3.314 -1.7077 -0.6242  0.5262
 8699TIP3   OH226060   0.450   0.243   5.724 -0.6992 -0.0290  0.1955
 8699TIP3    H126061   0.528   0.188   5.723 -0.4560  0.2759 -1.6916
 8699TIP3    H226062   0.399   0.215   5.647 -1.3287  1.2995  0.0830
 8700TIP3   OH226063   1.669   2.901   4.931 -0.2154  0.0972  0.5137
 8700TIP3    H126064   1.650   2.816   4.970  0.3534 -0.4230 -0.3128
 8700TIP3    H226065   1.745   2.933   4.978 -0.2626  0.0276  0.6386
 8701TIP3   OH226066   0.272   4.946   1.881 -0.0465  0.6554 -0.3865
 8701TIP3    H126067   0.241   4.880   1.818 -1.7925  0.3887  0.6801
 8701TIP3    H226068   0.338   4.902   1.932 -0.1286  0.2029 -0.6649
 8702TIP3   OH226069   5.188   6.457   3.208  0.5563  0.1736  0.3184
 8702TIP3    H126070   5.094   6.471   3.223  0.4767  2.0086 -1.4758
 8702TIP3    H226071   5.192   6.373   3.162 -0.5889  1.4142 -2.2785
 8703TIP3   OH226072   4.981   5.927   5.103  0.3557  0.2344  0.2660
 8703TIP3    H126073   5.038   5.907   5.177  1.4471  0.9929 -0.3394
 8703TIP3    H226074   5.006   6.016   5.076  0.0748 -0.0642 -1.0767
 8704TIP3   OH226075   0.709   1.505   4.440  0.6263 -0.6826 -0.2903
 8704TIP3    H126076   0.642   1.504   4.371  0.2531  1.4949 -0.0300
 8704TIP3    H226077   0.792   1.498   4.392  0.3052 -1.5168 -0.7535
 8705TIP3   OH226078   7.112   3.150   4.123  0.0414  0.1166  0.3544
 8705TIP3    H126079   7.178   3.200   4.170 -1.1751  0.1505  2.1079
 8705TIP3    H226080   7.074   3.212   4.061 -0.5575  1.0505  1.6045
 8706TIP3   OH226081   3.103   4.492   2.830  0.0404  0.6018  0.3306
 8706TIP3    H126082   3.060   4.449   2.903 -0.1148 -0.1290 -0.1746
 8706TIP3    H226083   3.197   4.486   2.850  0.0435 -0.3220  0.0952
 8707TIP3   OH226084   4.141   5.258   2.844 -0.2679  0.4027  0.1831
 8707TIP3    H126085   4.178   5.206   2.773  0.4036 -0.1705  0.9339
 8707TIP3    H226086   4.059   5.293   2.808  1.0031  1.7740 -1.5304
 8708TIP3   OH226087   5.888   2.207   1.012 -0.4419 -0.4558 -0.1420
 8708TIP3    H126088   5.873   2.301   1.019 -0.3258 -0.4532  0.0842
 8708TIP3    H226089   5.940   2.197   0.932  0.4380 -0.2189  0.3827
 8709TIP3   OH226090   1.396   6.550   0.107  0.4924 -0.5472 -0.4669
 8709TIP3    H126091   1.429   6.629   0.150  1.3746 -1.2320  0.1475
 8709TIP3    H226092   1.303   6.567   0.094  0.6042  0.4674 -0.0673
 8710TIP3   OH226093   5.056   0.653   3.966 -0.5261  0.8873 -0.4080
 8710TIP3    H126094   5.014   0.634   3.882 -0.9152 -1.9415  0.3483
 8710TIP3    H226095   5.136   0.601   3.966 -0.9099  0.2377  1.2497
 8711TIP3   OH226096   0.905   2.145   0.655 -0.5357  0.4498 -0.7452
 8711TIP3    H126097   0.975   2.171   0.595 -0.1269  0.1928 -0.3775
 8711TIP3    H226098   0.909   2.209   0.726  2.4535 -2.2158  1.7533
 8712TIP3   OH226099   4.920   3.112   4.685 -0.0628  0.2879 -0.3838
 8712TIP3    H126100   5.010   3.139   4.664 -0.6424  2.8382  0.0925
 8712TIP3    H226101   4.879   3.099   4.600 -0.0818  2.3210 -0.7479
 8713TIP3   OH226102   1.594   1.536   4.531 -0.6824 -0.0741 -0.0824
 8713TIP3    H126103   1.689   1.530   4.543 -0.8197 -2.5118  0.2016
 8713TIP3    H226104   1.579   1.628   4.507  1.6548  0.5331  0.5103
 8714TIP3   OH226105   4.889   1.272   5.853  0.0415 -0.0813 -0.0989
 8714TIP3    H126106   4.977   1.297   5.881  0.1569  0.2723 -0.7680
 8714TIP3    H226107   4.830   1.326   5.905  0.1701 -1.1441  1.1984
 8715TIP3   OH226108   2.076   2.253   5.381 -0.0591 -0.1543  0.4500
 8715TIP3    H126109   2.043   2.329   5.333 -2.1213 -0.4338  1.3175
 8715TIP3    H226110   2.075   2.280   5.473  0.5830 -0.7526  0.6423
 8716TIP3   OH226111   1.755   2.148   0.932  0.6905 -0.1846  0.3990
 8716TIP3    H126112   1.709   2.064   0.936 -0.6657  0.4155 -1.2024
 8716TIP3    H226113   1.696   2.209   0.977  1.2896  0.0844  0.8404
 8717TIP3   OH226114   6.037   5.137   2.494 -0.4959 -0.1647  0.1194
 8717TIP3    H126115   6.022   5.231   2.499 -1.0805 -0.3111  1.6147
 8717TIP3    H226116   5.950   5.099   2.479 -0.1279 -0.4379 -1.6202
 8718TIP3   OH226117   3.123   5.331   2.345 -0.2651 -0.4341 -0.0094
 8718TIP3    H126118   3.200   5.362   2.393 -0.3447  1.5886 -1.0944
 8718TIP3    H226119   3.078   5.411   2.317 -0.8136 -1.5111 -2.5015
 8719TIP3   OH226120   1.690   5.437   3.086  0.1085 -0.3068  0.3896
 8719TIP3    H126121   1.641   5.449   3.168 -1.7554 -2.1369 -0.3738
 8719TIP3    H226122   1.670   5.516   3.035  1.2470  0.8261  1.6220
 8720TIP3   OH226123   3.606   2.473   4.531  0.4016 -0.0214 -0.1267
 8720TIP3    H126124   3.553   2.505   4.457 -0.4387 -0.9595  0.0435
 8720TIP3    H226125   3.580   2.528   4.605  1.3322  1.0013 -0.5208
 8721TIP3   OH226126   2.028   6.189   3.386  1.0141 -0.2742 -0.4230
 8721TIP3    H126127   2.007   6.254   3.453  0.3765 -1.2703  0.3665
 8721TIP3    H226128   1.944   6.165   3.348  0.9934 -2.0113  0.6140
 8722TIP3   OH226129   7.233   1.714   1.322 -0.4018  0.1313  0.0468
 8722TIP3    H126130   7.187   1.798   1.327  1.8411  1.3914  0.6289
 8722TIP3    H226131   7.163   1.649   1.323 -2.1704  1.9395  0.8828
 8723TIP3   OH226132   3.823   0.900   3.289 -0.2313  0.4891  0.3535
 8723TIP3    H126133   3.864   0.978   3.250  0.5401 -1.3563 -2.8567
 8723TIP3    H226134   3.730   0.911   3.273 -0.0393  0.3687 -0.9329
 8724TIP3   OH226135   1.491   2.419   5.662 -0.1368  0.1104  0.6492
 8724TIP3    H126136   1.520   2.410   5.571  3.0152 -1.8256  1.6904
 8724TIP3    H226137   1.450   2.335   5.682  0.4709 -0.0256  1.3771
 8725TIP3   OH226138   0.705   2.659   3.594  0.3472  0.0722 -0.2288
 8725TIP3    H126139   0.636   2.725   3.588  0.9266  0.6481 -0.7670
 8725TIP3    H226140   0.786   2.709   3.582  1.0807 -0.1288  2.9650
 8726TIP3   OH226141   6.674   1.847   5.605  0.1789  0.0165 -0.4264
 8726TIP3    H126142   6.736   1.888   5.665  0.5400  1.7687 -1.9008
 8726TIP3    H226143   6.592   1.894   5.620  0.7938  2.0697 -2.6975
 8727TIP3   OH226144   6.800   0.219   3.476 -0.1863  0.4370  0.0390
 8727TIP3    H126145   6.860   0.293   3.487 -2.1065  1.9557  0.8301
 8727TIP3    H226146   6.851   0.143   3.503  1.6279  1.5462 -0.0888
 8728TIP3   OH226147   6.325   4.849   4.730 -0.0885  0.4731 -0.7799
 8728TIP3    H126148   6.383   4.785   4.771 -0.7937 -0.5168 -1.2971
 8728TIP3    H226149   6.384   4.906   4.681  0.6136  0.6593  0.2308
 8729TIP3   OH226150   2.255   1.544   0.573 -0.3227  0.6001 -0.3116
 8729TIP3    H126151   2.169   1.511   0.549 -0.6531  0.7130  0.6598
 8729TIP3    H226152   2.289   1.584   0.493 -0.6424 -0.5379 -1.0296
 8730TIP3   OH226153   2.460   6.624   2.362 -0.2301 -0.0235 -0.0644
 8730TIP3    H126154   2.544   6.592   2.330 -0.1272  0.3594 -0.1768
 8730TIP3    H226155   2.404   6.624   2.284 -0.5756 -1.0668  0.1734
 8731TIP3   OH226156   5.456   5.254   1.939 -0.3859 -0.2739  0.6536
 8731TIP3    H126157   5.492   5.187   1.997 -0.1659  0.0860  0.9328
 8731TIP3    H226158   5.500   5.239   1.855 -0.8266 -0.9035  0.5198
 8732TIP3   OH226159   2.489   1.038   1.902 -0.1674  0.1419 -0.2175
 8732TIP3    H126160   2.450   1.101   1.841  2.6819  1.3706 -0.9579
 8732TIP3    H226161   2.456   1.064   1.988 -0.5039  1.4747 -0.7183
 8733TIP3   OH226162   0.915   6.610   5.608  0.0657 -0.2201  0.0913
 8733TIP3    H126163   0.946   6.610   5.517 -0.3650 -1.2709 -0.0641
 8733TIP3    H226164   0.994   6.598   5.660  0.1451 -1.1058 -0.2209
 8734TIP3   OH226165   3.793   1.995   3.527  0.0151 -0.2989 -0.1074
 8734TIP3    H126166   3.780   2.054   3.452 -1.8230  0.1052  0.4787
 8734TIP3    H226167   3.858   1.932   3.496 -0.2875  0.1795 -1.8571
 8735TIP3   OH226168   1.389   0.720   5.495  0.6611  0.6285 -0.3174
 8735TIP3    H126169   1.350   0.763   5.419 -1.4209 -0.9850 -0.2712
 8735TIP3    H226170   1.471   0.682   5.462 -0.7103 -0.9528 -2.1226
 8736TIP3   OH226171   5.198   0.542   5.198 -0.4058  0.3359 -0.4332
 8736TIP3    H126172   5.290   0.566   5.187 -0.1190  1.0655  2.5836
 8736TIP3    H226173   5.200   0.455   5.236 -0.8370  0.8911  0.9362
 8737TIP3   OH226174   0.526   4.783   2.753  0.4272  0.9970  0.0217
 8737TIP3    H126175   0.572   4.799   2.836 -0.3709  0.0853  0.6603
 8737TIP3    H226176   0.577   4.712   2.712 -1.3297 -1.3157  1.5726
 8738TIP3   OH226177   4.469   4.507   1.312  0.3044 -0.2875  0.3079
 8738TIP3    H126178   4.507   4.468   1.233  2.3656 -0.1036  1.1395
 8738TIP3    H226179   4.493   4.447   1.383 -1.5006 -0.4500  0.8406
 8739TIP3   OH226180   6.708   1.163   2.537  0.2721  0.0774 -0.4797
 8739TIP3    H126181   6.760   1.178   2.458  2.3010  0.1321  0.7967
 8739TIP3    H226182   6.662   1.080   2.521  0.5284  0.1690 -1.7606
 8740TIP3   OH226183   6.763   6.792   5.087  0.1784 -0.0022  0.5009
 8740TIP3    H126184   6.785   6.736   5.013  1.0803  1.6419 -0.5246
 8740TIP3    H226185   6.737   6.730   5.156  0.8709 -1.6591 -0.6387
 8741TIP3   OH226186   2.497   6.241   3.550 -0.1028  0.0728  0.1587
 8741TIP3    H126187   2.564   6.173   3.535 -1.6219 -1.4901  0.1829
 8741TIP3    H226188   2.469   6.227   3.640 -1.9811 -0.7574 -0.5125
 8742TIP3   OH226189   4.053   5.974   2.600  0.1677  0.2202 -0.1851
 8742TIP3    H126190   4.134   5.927   2.578  0.3361  0.8889 -1.0625
 8742TIP3    H226191   4.015   5.996   2.515 -0.6926  0.3420  0.2244
 8743TIP3   OH226192   1.411   4.628   2.821 -0.6615 -0.0037  0.3637
 8743TIP3    H126193   1.371   4.710   2.793 -1.4373 -0.0549  1.2519
 8743TIP3    H226194   1.380   4.616   2.911  1.4325 -0.0238  1.1256
 8744TIP3   OH226195   4.982   2.368   4.210 -0.3922  0.2314 -0.0219
 8744TIP3    H126196   5.061   2.417   4.188 -0.2026 -0.2841 -0.5134
 8744TIP3    H226197   4.974   2.376   4.305  0.8873 -0.6320  0.1814
 8745TIP3   OH226198   6.492   1.228   0.125  0.2916 -0.3077 -0.8206
 8745TIP3    H126199   6.536   1.313   0.113 -0.9013  0.3937 -0.4374
 8745TIP3    H226200   6.561   1.163   0.115  1.2775  0.7269 -0.8945
 8746TIP3   OH226201   2.899   5.820   3.412  0.2328 -0.0605  0.1440
 8746TIP3    H126202   2.915   5.761   3.339 -1.0027 -1.4836  0.9624
 8746TIP3    H226203   2.983   5.863   3.428  1.1006 -1.4250 -0.6454
 8747TIP3   OH226204   1.414   2.606   0.113 -0.2050  0.1539  0.3290
 8747TIP3    H126205   1.380   2.646   0.034  0.3224 -1.5548 -0.8218
 8747TIP3    H226206   1.339   2.599   0.171 -0.5155  1.7981  0.1783
 8748TIP3   OH226207   3.810   2.934   3.689  0.1343  0.1495  0.0716
 8748TIP3    H126208   3.876   3.003   3.683 -0.0027  0.3475  0.7895
 8748TIP3    H226209   3.728   2.977   3.664  0.2171 -0.0246 -0.5287
 8749TIP3   OH226210   4.144   6.575   1.977 -0.5329  0.5404 -0.2524
 8749TIP3    H126211   4.200   6.546   1.905 -2.4445 -0.7325 -1.3046
 8749TIP3    H226212   4.160   6.669   1.984  1.5643  0.2672 -0.6066
 8750TIP3   OH226213   2.107   5.865   3.322  0.0974  0.0701  0.4013
 8750TIP3    H126214   2.201   5.868   3.341 -0.0735  1.7434  1.1600
 8750TIP3    H226215   2.084   5.955   3.301 -1.1682 -0.4918 -0.7799
 8751TIP3   OH226216   2.358   1.322   0.731  0.6137  0.3836  0.2180
 8751TIP3    H126217   2.320   1.408   0.712 -2.2574 -0.6087  0.9741
 8751TIP3    H226218   2.359   1.316   0.826  1.5853 -0.1209  0.1902
 8752TIP3   OH226219   6.814   2.535   4.089 -0.4190  0.1418  0.1189
 8752TIP3    H126220   6.778   2.605   4.142  1.0426 -0.5568  2.1383
 8752TIP3    H226221   6.900   2.518   4.126 -1.1133 -3.4403  0.4995
 8753TIP3   OH226222   3.977   1.504   5.161 -0.0103 -0.2142 -0.5777
 8753TIP3    H126223   3.942   1.443   5.097 -0.7589 -1.2179  0.7333
 8753TIP3    H226224   3.948   1.469   5.246  2.0873  0.2823  0.4114
 8754TIP3   OH226225   3.931   1.743   3.528 -0.2103 -0.0571 -0.7448
 8754TIP3    H126226   3.871   1.689   3.477 -0.2341  0.4842 -1.3147
 8754TIP3    H226227   3.971   1.684   3.591 -0.7681 -0.5809 -0.8833
 8755TIP3   OH226228   0.581   5.619   2.308 -0.2133 -0.1340 -0.2947
 8755TIP3    H126229   0.494   5.623   2.268 -0.2789  1.9770 -0.0514
 8755TIP3    H226230   0.568   5.648   2.398  0.3790 -2.2669  0.5330
 8756TIP3   OH226231   3.917   1.134   4.352  0.1898 -0.2145  0.0163
 8756TIP3    H126232   3.963   1.087   4.282 -1.1081 -0.7139 -0.5416
 8756TIP3    H226233   3.825   1.115   4.336 -0.1990  0.5461  1.2510
 8757TIP3   OH226234   6.127   6.056   4.427  0.5071  0.0077 -0.0505
 8757TIP3    H126235   6.184   6.084   4.355  1.6189  1.2297  1.2534
 8757TIP3    H226236   6.177   6.075   4.506 -1.7808  1.3552  1.1734
 8758TIP3   OH226237   2.355   2.985   0.453  0.3746  0.4055 -0.2356
 8758TIP3    H126238   2.340   2.907   0.507  0.8370  1.1490  1.0188
 8758TIP3    H226239   2.268   3.010   0.422 -0.2818  1.3414  2.1810
 8759TIP3   OH226240   1.963   3.098   3.443  0.2708 -0.0535 -0.1097
 8759TIP3    H126241   1.901   3.144   3.501  1.3446  1.8002 -0.3364
 8759TIP3    H226242   2.025   3.056   3.503  0.2806  0.2793  0.1226
 8760TIP3   OH226243   3.732   4.878   0.790  0.3377 -0.0925 -0.0328
 8760TIP3    H126244   3.752   4.966   0.758  2.6051 -0.3079  0.5748
 8760TIP3    H226245   3.810   4.853   0.839 -0.4603 -2.2677  0.2243
 8761TIP3   OH226246   6.949   3.533   0.433 -0.1879  0.4995 -0.4127
 8761TIP3    H126247   7.007   3.585   0.489 -0.7321 -0.1396  0.7603
 8761TIP3    H226248   6.874   3.590   0.417  0.0310  0.7335 -0.6305
 8762TIP3   OH226249   4.210   6.539   2.772  0.3059  0.5398 -0.3312
 8762TIP3    H126250   4.179   6.552   2.682  1.8050  1.1371 -0.7949
 8762TIP3    H226251   4.276   6.471   2.765  1.4451  1.5692  0.0730
 8763TIP3   OH226252   5.582   2.392   5.723  0.3104  0.1248 -0.2280
 8763TIP3    H126253   5.605   2.483   5.701  3.0299 -0.6410 -1.0406
 8763TIP3    H226254   5.663   2.356   5.758 -0.2239 -2.4312 -1.4337
 8764TIP3   OH226255   4.433   3.275   0.494 -0.5681 -0.8690  0.0827
 8764TIP3    H126256   4.527   3.266   0.511 -0.4995 -0.7446 -0.2159
 8764TIP3    H226257   4.420   3.369   0.481 -1.1081 -0.5929  2.2406
 8765TIP3   OH226258   5.783   1.454   2.793 -0.0696 -0.1770 -0.4192
 8765TIP3    H126259   5.750   1.385   2.736  0.0642 -0.1762 -0.4981
 8765TIP3    H226260   5.782   1.416   2.880 -1.1054  0.1077 -0.2857
 8766TIP3   OH226261   2.191   2.882   5.878 -0.1242  0.1475 -0.1267
 8766TIP3    H126262   2.242   2.916   5.805  0.9819  0.7838  0.9146
 8766TIP3    H226263   2.147   2.804   5.842  1.1753 -0.1260 -1.1904
 8767TIP3   OH226264   1.914   5.244   0.471  0.5925 -0.3541  0.6859
 8767TIP3    H126265   1.908   5.244   0.375  2.3432  0.4171  0.5467
 8767TIP3    H226266   1.874   5.161   0.497  0.4200 -0.7528 -0.7326
 8768TIP3   OH226267   3.073   3.779   5.168  0.8147 -0.3240 -0.2269
 8768TIP3    H126268   3.092   3.739   5.083  1.4938 -1.6984  0.5372
 8768TIP3    H226269   3.142   3.845   5.179  1.3940 -0.9104 -0.2660
 8769TIP3   OH226270   2.506   2.504   4.246  0.1390 -0.1529 -0.0039
 8769TIP3    H126271   2.469   2.424   4.284 -0.2690  0.5678  1.1573
 8769TIP3    H226272   2.435   2.567   4.249  0.4621  0.2641 -0.9169
 8770TIP3   OH226273   1.351   1.413   2.921  0.1539  0.1565 -0.0696
 8770TIP3    H126274   1.425   1.353   2.937  1.2505  1.6848  0.8799
 8770TIP3    H226275   1.337   1.409   2.826  1.2662 -0.3969 -0.2275
 8771TIP3   OH226276   2.909   6.132   1.325 -0.1439  0.6366  0.5090
 8771TIP3    H126277   2.910   6.088   1.411 -2.0456 -0.5434 -0.0188
 8771TIP3    H226278   2.862   6.072   1.268  1.7982  1.0242 -1.6260
 8772TIP3   OH226279   5.154   6.800   3.936 -0.4477 -0.3897  1.0075
 8772TIP3    H126280   5.181   6.807   4.027  0.2242 -1.6418  0.9303
 8772TIP3    H226281   5.234   6.778   3.889 -0.7499  0.4321  0.0766
 8773TIP3   OH226282   4.849   6.389   2.213 -0.4386  0.1836  0.1334
 8773TIP3    H126283   4.830   6.401   2.306 -1.0560 -1.4270  0.2463
 8773TIP3    H226284   4.779   6.332   2.181 -0.3505  0.8726 -1.3790
 8774TIP3   OH226285   0.882   4.139   5.284  0.1700 -0.4646 -0.3090
 8774TIP3    H126286   0.912   4.229   5.269  2.7640 -1.0807  0.5743
 8774TIP3    H226287   0.888   4.097   5.199  1.8810 -0.5328 -0.1909
 8775TIP3   OH226288   4.285   6.741   2.965 -0.1542  0.0729  0.3198
 8775TIP3    H126289   4.256   6.669   2.909 -0.8400 -0.6838  1.6186
 8775TIP3    H226290   4.206   6.773   3.007  0.0618  1.9394 -0.5791
 8776TIP3   OH226291   3.686   6.357   3.780  0.4793 -0.0339  0.1119
 8776TIP3    H126292   3.653   6.271   3.756 -1.0194  0.2254  1.1047
 8776TIP3    H226293   3.749   6.379   3.712 -0.2900 -1.2234 -1.0173
 8777TIP3   OH226294   5.803   2.861   3.778 -0.4432 -0.0183 -0.1809
 8777TIP3    H126295   5.727   2.854   3.835 -0.0019  2.2683  0.8230
 8777TIP3    H226296   5.878   2.853   3.837  0.0461  0.5070 -0.7206
 8778TIP3   OH226297   6.694   6.591   3.122 -0.3348 -0.0029  0.4888
 8778TIP3    H126298   6.759   6.658   3.103  0.8006 -1.7252 -2.4129
 8778TIP3    H226299   6.735   6.538   3.191 -0.1948  0.9086  1.1128
 8779TIP3   OH226300   6.380   6.352   0.604  0.4886  0.3094 -0.2971
 8779TIP3    H126301   6.457   6.399   0.571  0.6866 -1.7077 -3.0119
 8779TIP3    H226302   6.416   6.273   0.644  0.0548  1.5798  2.9517
 8780TIP3   OH226303   5.058   6.204   2.184  0.4374  0.0378 -0.0736
 8780TIP3    H126304   4.996   6.276   2.198  2.5873  1.7501  1.2261
 8780TIP3    H226305   5.125   6.241   2.127  1.7264 -0.8516  0.8260
 8781TIP3   OH226306   0.470   5.054   4.931 -0.4608  0.2177  0.4078
 8781TIP3    H126307   0.425   5.049   4.847 -0.9444  1.0374  0.6103
 8781TIP3    H226308   0.424   5.122   4.979 -0.3275 -0.3909  1.4321
 8782TIP3   OH226309   5.950   3.377   3.188 -0.0859  0.3138 -0.8081
 8782TIP3    H126310   5.996   3.401   3.107 -1.0377  1.3970 -1.0500
 8782TIP3    H226311   5.995   3.428   3.256  0.3137 -0.1191 -0.7457
 8783TIP3   OH226312   1.576   4.807   1.760  0.2907 -0.2863 -0.2768
 8783TIP3    H126313   1.613   4.835   1.844  0.6032  1.3220 -0.9117
 8783TIP3    H226314   1.481   4.807   1.776  0.3738 -0.6175  0.2536
 8784TIP3   OH226315   5.336   6.123   5.920 -0.2273  0.3941  0.0542
 8784TIP3    H126316   5.359   6.176   5.843  0.0085 -1.4731 -1.2308
 8784TIP3    H226317   5.283   6.052   5.884 -0.2788 -0.4154  1.6749
 8785TIP3   OH226318   2.632   6.780   0.342  0.2567 -0.1119  0.2029
 8785TIP3    H126319   2.682   6.858   0.363  0.0345 -0.3178  1.6093
 8785TIP3    H226320   2.695   6.720   0.303  0.6758  0.3378  0.1870
 8786TIP3   OH226321   1.816   0.629   1.705 -0.0607 -0.5380  0.0010
 8786TIP3    H126322   1.891   0.666   1.657 -0.2453 -1.3836 -0.9769
 8786TIP3    H226323   1.787   0.556   1.651 -1.6565 -0.1793  0.3298
 8787TIP3   OH226324   4.244   0.645   3.724  0.0084 -0.5433  0.0364
 8787TIP3    H126325   4.162   0.645   3.773 -0.1040 -0.8904 -0.1478
 8787TIP3    H226326   4.303   0.701   3.775 -0.6077  0.4310 -0.2910
 8788TIP3   OH226327   7.110   3.887   1.028 -0.2807  0.7689  0.0215
 8788TIP3    H126328   7.075   3.914   1.113 -0.5327  0.1700  0.1080
 8788TIP3    H226329   7.204   3.877   1.044 -0.3469  0.5293  0.2597
 8789TIP3   OH226330   5.222   2.390   3.627 -0.0474 -0.5294  0.2018
 8789TIP3    H126331   5.182   2.377   3.713  1.0173  0.5807  0.8956
 8789TIP3    H226332   5.304   2.340   3.631  1.5074  1.9128  0.9967
 8790TIP3   OH226333   1.451   3.026   0.341 -0.0489 -0.0007 -0.1119
 8790TIP3    H126334   1.389   3.012   0.413  1.0613  0.2310  0.9355
 8790TIP3    H226335   1.524   2.966   0.360 -0.1770 -0.6634 -1.6101
 8791TIP3   OH226336   6.460   3.434   4.223  0.1995  0.6364 -0.2294
 8791TIP3    H126337   6.405   3.362   4.193  0.0273  0.8430 -0.4175
 8791TIP3    H226338   6.539   3.392   4.257 -0.0972  0.3322  0.0896
 8792TIP3   OH226339   3.636   6.270   3.060 -0.6094 -0.2681 -0.0835
 8792TIP3    H126340   3.664   6.209   2.991 -1.6427  0.0494 -0.8047
 8792TIP3    H226341   3.546   6.245   3.080 -0.5130  0.0164  0.7608
 8793TIP3   OH226342   2.464   1.761   3.519  0.4167 -0.0194 -0.3144
 8793TIP3    H126343   2.397   1.825   3.497  0.5645  0.3461  0.2574
 8793TIP3    H226344   2.416   1.687   3.557  0.3143  0.1198 -0.1728
 8794TIP3   OH226345   2.491   5.377   1.412  0.1026  0.4529  0.2497
 8794TIP3    H126346   2.528   5.339   1.332  0.6990  0.1136  0.6808
 8794TIP3    H226347   2.556   5.440   1.442  0.2595 -0.0146  0.9161
 8795TIP3   OH226348   2.902   0.694   0.548 -0.0298 -0.4744  0.3098
 8795TIP3    H126349   2.977   0.637   0.564 -0.3759 -0.6896  1.2064
 8795TIP3    H226350   2.893   0.745   0.628 -2.8540 -2.7790  1.6395
 8796TIP3   OH226351   3.995   0.788   3.504  0.0837 -0.0229 -0.1801
 8796TIP3    H126352   3.927   0.739   3.551  0.0068 -1.7058 -1.8996
 8796TIP3    H226353   3.947   0.844   3.443  0.2104  0.3394  0.0519
 8797TIP3   OH226354   1.450   2.049   2.434  0.0039 -0.0111 -0.8043
 8797TIP3    H126355   1.436   1.961   2.468  0.3291  0.0664 -0.4641
 8797TIP3    H226356   1.482   2.036   2.344 -1.4182 -0.2059 -1.3099
 8798TIP3   OH226357   6.853   3.161   3.591 -0.0199 -0.3646 -0.5662
 8798TIP3    H126358   6.906   3.228   3.635 -1.8054 -0.3089  1.7345
 8798TIP3    H226359   6.812   3.207   3.518 -1.1724  1.1330  0.9414
 8799TIP3   OH226360   6.023   2.637   2.685 -0.0011  0.2410  0.5113
 8799TIP3    H126361   5.942   2.627   2.736  0.3515  1.0402  1.2646
 8799TIP3    H226362   6.034   2.553   2.641 -1.6451  0.3693 -0.2205
 8800TIP3   OH226363   0.091   2.519   5.370  0.4510 -0.2221  0.1583
 8800TIP3    H126364   0.134   2.446   5.324 -0.9855 -0.8538 -0.2429
 8800TIP3    H226365  -0.002   2.507   5.351  0.0648  0.9353  1.2407
 8801TIP3   OH226366   4.349   5.695   4.328  0.3051 -0.3873  0.8335
 8801TIP3    H126367   4.385   5.750   4.397  1.6813 -0.6733  0.3812
 8801TIP3    H226368   4.273   5.652   4.368 -1.3899  2.4780  0.9144
 8802TIP3   OH226369   7.081   4.464   4.943  0.3959 -0.0172  0.4404
 8802TIP3    H126370   7.121   4.537   4.894  1.5764 -0.6545  0.4246
 8802TIP3    H226371   7.142   4.391   4.931 -0.7660 -1.0152  0.4745
 8803TIP3   OH226372   1.949   6.768   2.573  0.5506 -0.0037  0.0755
 8803TIP3    H126373   1.906   6.739   2.653 -1.1037  1.0775 -0.3876
 8803TIP3    H226374   2.029   6.715   2.569 -0.2105 -1.3453  1.4925
 8804TIP3   OH226375   0.562   6.437   0.053  0.4433 -0.4071 -0.5869
 8804TIP3    H126376   0.574   6.521   0.097 -0.3616 -0.6186  0.0746
 8804TIP3    H226377   0.474   6.409   0.080  0.2322 -0.8964 -1.7611
 8805TIP3   OH226378   2.931   4.676   3.312  0.3639 -0.1546 -0.0780
 8805TIP3    H126379   2.870   4.622   3.263 -2.4220 -2.3489  5.0172
 8805TIP3    H226380   2.906   4.766   3.291 -2.3702 -0.9758 -0.7634
 8806TIP3   OH226381   0.840   3.468   4.628 -0.3311  0.0170 -0.0326
 8806TIP3    H126382   0.750   3.479   4.597 -0.5580  1.7537  1.0883
 8806TIP3    H226383   0.856   3.373   4.625 -1.6428 -0.1929 -1.6866
 8807TIP3   OH226384   0.554   0.791   3.679  0.0998 -0.3770  0.2566
 8807TIP3    H126385   0.480   0.733   3.658 -0.1385  0.0271 -0.0230
 8807TIP3    H226386   0.514   0.870   3.714  0.4177 -0.2763  0.3952
 8808TIP3   OH226387   0.328   5.658   1.515 -0.1049 -0.8232  0.0204
 8808TIP3    H126388   0.361   5.605   1.442 -1.8683  1.4736 -2.7020
 8808TIP3    H226389   0.249   5.612   1.543  0.6575 -1.7986  0.6390
 8809TIP3   OH226390   2.789   1.348   1.376  0.5875 -0.3213 -0.3363
 8809TIP3    H126391   2.837   1.326   1.296 -0.7859 -0.6329 -1.1134
 8809TIP3    H226392   2.720   1.282   1.382 -1.9380  2.0332 -1.2384
 8810TIP3   OH226393   0.263   6.151   0.680  0.1686  0.4303 -0.2669
 8810TIP3    H126394   0.255   6.132   0.773  0.6593  0.6529 -0.1756
 8810TIP3    H226395   0.214   6.232   0.668  0.6800  0.7723 -0.0699
 8811TIP3   OH226396   5.014   1.569   3.356 -0.1002  0.0587 -0.4413
 8811TIP3    H126397   4.997   1.662   3.340  1.0405  0.7068  1.7262
 8811TIP3    H226398   5.072   1.568   3.433  0.8170 -2.4069 -1.0683
 8812TIP3   OH226399   5.169   2.701   4.378 -0.0630 -0.0904  0.7959
 8812TIP3    H126400   5.219   2.778   4.403  1.3881 -1.0345  0.9755
 8812TIP3    H226401   5.236   2.637   4.352 -1.3018 -0.4983 -1.7141
 8813TIP3   OH226402   3.332   4.119   1.201 -0.3587 -0.1263  0.2117
 8813TIP3    H126403   3.340   4.106   1.295 -2.5281  0.3821  0.5232
 8813TIP3    H226404   3.328   4.214   1.190  1.7394 -0.0777 -0.6298
 8814TIP3   OH226405   2.793   0.024   1.432 -0.0815  0.3068 -0.1968
 8814TIP3    H126406   2.715   0.078   1.424 -0.5904 -0.5894 -1.9189
 8814TIP3    H226407   2.814  -0.001   1.342  0.0403 -2.4311  0.4946
 8815TIP3   OH226408   0.400   1.145   4.692  0.2569  0.5153 -0.1687
 8815TIP3    H126409   0.349   1.163   4.613  0.4105  0.4960 -0.2734
 8815TIP3    H226410   0.359   1.199   4.760  0.3356  0.7909 -0.3387
 8816TIP3   OH226411   1.606   6.583   3.513  0.9253  0.0059 -0.1424
 8816TIP3    H126412   1.648   6.644   3.451  0.4329 -0.8638 -1.3776
 8816TIP3    H226413   1.612   6.498   3.469 -1.5233 -0.2582 -0.0701
 8817TIP3   OH226414   2.935   0.234   2.265  0.3444 -0.1653  0.3367
 8817TIP3    H126415   2.915   0.325   2.284  0.8566 -0.3459  1.9788
 8817TIP3    H226416   2.991   0.206   2.339  2.3447 -1.0888 -1.4115
 8818TIP3   OH226417   2.159   3.519   4.624  0.6829 -0.7747  0.1741
 8818TIP3    H126418   2.210   3.488   4.550  0.7132  0.6191 -0.4198
 8818TIP3    H226419   2.134   3.440   4.672 -0.4874 -1.8402 -2.0581
 8819TIP3   OH226420   3.833   3.656   3.038 -0.1751 -0.2965 -0.1870
 8819TIP3    H126421   3.779   3.595   2.989 -0.3171 -1.0809  0.9120
 8819TIP3    H226422   3.922   3.627   3.024 -0.2432 -0.7801  0.3410
 8820TIP3   OH226423   0.265   0.136   0.951  0.2560  0.0306 -0.6339
 8820TIP3    H126424   0.276   0.041   0.955 -1.7681 -0.2220 -0.1418
 8820TIP3    H226425   0.239   0.154   0.860  0.1959  0.0676 -0.6093
 8821TIP3   OH226426   6.617   5.499   2.650 -0.3986 -0.1392 -0.0838
 8821TIP3    H126427   6.609   5.413   2.609  0.7070  0.0837 -0.8102
 8821TIP3    H226428   6.631   5.559   2.577  0.9955  0.3467  0.5355
 8822TIP3   OH226429   1.072   3.254   0.643  0.2676  0.4842  0.2550
 8822TIP3    H126430   1.085   3.273   0.736  1.1318 -0.4975  0.3635
 8822TIP3    H226431   0.987   3.293   0.621 -0.1548  0.3342  1.5675
 8823TIP3   OH226432   5.997   3.407   0.796  0.5550 -0.1164  0.5287
 8823TIP3    H126433   5.909   3.424   0.761  0.9153  0.5842 -0.0741
 8823TIP3    H226434   6.006   3.312   0.794 -0.4231 -0.2442  1.2055
 8824TIP3   OH226435   3.401   4.649   2.619  0.0046  0.0965  0.2109
 8824TIP3    H126436   3.458   4.603   2.557 -0.7486 -0.3659 -0.1569
 8824TIP3    H226437   3.445   4.733   2.634  1.0982 -0.4967  0.4350
 8825TIP3   OH226438   0.153   6.205   5.386 -0.2683 -0.3132 -0.2748
 8825TIP3    H126439   0.233   6.223   5.435 -0.8418  0.7054  0.3217
 8825TIP3    H226440   0.093   6.275   5.411 -0.5664  0.2951 -2.5155
 8826TIP3   OH226441   1.992   0.404   4.214 -0.1524  0.2476  0.6262
 8826TIP3    H126442   1.980   0.389   4.120 -1.1135 -0.0145  0.7812
 8826TIP3    H226443   2.001   0.316   4.251 -0.9527  0.2802  0.9181
 8827TIP3   OH226444   0.515   3.611   2.942 -0.9790 -0.5536  0.0624
 8827TIP3    H126445   0.560   3.692   2.915  1.2627 -1.4592  0.9126
 8827TIP3    H226446   0.497   3.624   3.035 -1.3054 -0.7315  0.0222
 8828TIP3   OH226447   0.192   1.100   3.582 -0.0071 -0.7124 -0.3501
 8828TIP3    H126448   0.225   1.026   3.633  3.0300  0.1237 -0.8538
 8828TIP3    H226449   0.248   1.173   3.607 -0.0759  0.3559 -2.9510
 8829TIP3   OH226450   6.800   5.894   3.487  0.0398 -0.1363  0.4448
 8829TIP3    H126451   6.891   5.892   3.516  0.6793  0.7732 -1.3600
 8829TIP3    H226452   6.794   5.823   3.422  0.0108  1.0329 -0.8681
 8830TIP3   OH226453   1.700   3.575   3.925  0.0135 -0.6732  0.2298
 8830TIP3    H126454   1.685   3.550   4.016  1.6487 -1.6372  0.2689
 8830TIP3    H226455   1.669   3.501   3.874 -0.6181 -0.2607  0.0027
 8831TIP3   OH226456   2.895   3.644   0.503  0.2883  0.3224 -0.8442
 8831TIP3    H126457   2.892   3.550   0.520 -2.2273  0.1124 -2.0192
 8831TIP3    H226458   2.919   3.682   0.588 -0.2401 -1.2983  0.0862
 8832TIP3   OH226459   1.136   2.963   2.443  0.3390  0.1822  0.2421
 8832TIP3    H126460   1.154   2.952   2.536  0.7813 -1.7218 -0.0227
 8832TIP3    H226461   1.219   2.940   2.400 -0.1587  0.0188 -0.6582
 8833TIP3   OH226462   2.955   1.948   2.233  0.7981  0.2147 -0.1140
 8833TIP3    H126463   2.896   1.872   2.234 -2.9390  2.8134 -0.8003
 8833TIP3    H226464   2.965   1.971   2.325  1.3620 -0.6519  0.0523
 8834TIP3   OH226465   3.288   1.523   3.869  0.2687 -0.1352 -0.1221
 8834TIP3    H126466   3.252   1.474   3.795  1.2362 -1.4101  0.2283
 8834TIP3    H226467   3.218   1.520   3.935 -0.0842 -0.1297 -0.4910
 8835TIP3   OH226468   3.108   4.162   3.378  0.4803 -0.0231 -0.3883
 8835TIP3    H126469   3.138   4.091   3.322  0.4582  0.9164 -1.6356
 8835TIP3    H226470   3.061   4.119   3.449  0.0428 -1.2201 -1.3790
 8836TIP3   OH226471   3.904   4.483   4.532 -0.5392 -0.0225  0.6982
 8836TIP3    H126472   3.992   4.450   4.549 -0.9584 -2.3516 -1.1626
 8836TIP3    H226473   3.847   4.407   4.545 -1.5281 -0.5313 -4.4763
 8837TIP3   OH226474   6.924   5.315   4.941  0.2854  0.1170  0.2881
 8837TIP3    H126475   7.013   5.309   4.907  0.9841 -0.0538  2.0349
 8837TIP3    H226476   6.875   5.363   4.874  2.1697  2.0093  0.1591
 8838TIP3   OH226477   0.835   5.755   1.614 -0.7100  0.0437 -0.3107
 8838TIP3    H126478   0.785   5.710   1.682 -0.6983 -1.0599 -0.9999
 8838TIP3    H226479   0.853   5.687   1.549  1.1814  0.5327 -0.3688
 8839TIP3   OH226480   3.925   4.092   5.740 -0.4629  0.2578 -0.4489
 8839TIP3    H126481   3.975   4.104   5.821  0.4393 -1.0852 -0.7648
 8839TIP3    H226482   3.922   3.997   5.728 -0.6070  0.4296 -1.9808
 8840TIP3   OH226483   0.403   6.551   0.519  0.4311 -0.3597  0.2456
 8840TIP3    H126484   0.437   6.583   0.436 -1.4647  0.7580 -0.1645
 8840TIP3    H226485   0.364   6.466   0.498  0.2396 -0.2241  0.0460
 8841TIP3   OH226486   3.957   6.513   5.465 -0.3818 -0.1236 -0.2711
 8841TIP3    H126487   3.885   6.499   5.405 -0.0778 -1.2727 -0.3901
 8841TIP3    H226488   4.012   6.579   5.422 -0.4150 -0.5826 -1.0445
 8842TIP3   OH226489   0.204   0.422   2.292  0.0358  0.2252 -0.0229
 8842TIP3    H126490   0.258   0.450   2.366  0.4079 -0.3059 -0.0896
 8842TIP3    H226491   0.247   0.459   2.215 -0.4838  0.9759  0.0439
 8843TIP3   OH226492   1.301   1.814   5.405  0.4829  0.2978 -0.1192
 8843TIP3    H126493   1.374   1.787   5.460  1.3090 -0.6412 -1.5929
 8843TIP3    H226494   1.267   1.733   5.368  0.1256  0.9085 -1.1927
 8844TIP3   OH226495   5.450   5.295   5.456  0.1073  0.1621 -0.0331
 8844TIP3    H126496   5.452   5.254   5.543 -1.3241  0.4960  0.1826
 8844TIP3    H226497   5.478   5.226   5.396  0.5064 -0.2617  0.6269
 8845TIP3   OH226498   4.395   3.946   1.007 -0.4114 -0.6090  0.2874
 8845TIP3    H126499   4.395   4.025   0.953 -1.1727 -1.0781 -0.4168
 8845TIP3    H226500   4.437   3.880   0.953 -1.8081 -1.2701 -0.0330
 8846TIP3   OH226501   2.158   0.367   0.374 -0.4606 -0.5216  0.0889
 8846TIP3    H126502   2.245   0.369   0.335 -0.2134 -0.9968  0.5970
 8846TIP3    H226503   2.160   0.434   0.443 -0.5959 -0.3174 -0.1067
 8847TIP3   OH226504   4.114   3.646   5.382 -0.0719  0.0605 -0.2079
 8847TIP3    H126505   4.059   3.699   5.441 -1.5544  1.4102 -2.6455
 8847TIP3    H226506   4.147   3.709   5.318  0.4410 -1.5442 -1.5589
 8848TIP3   OH226507   6.945   0.916   0.182 -0.4302 -0.1335  0.5385
 8848TIP3    H126508   7.020   0.861   0.159 -0.8012  0.4355 -2.4548
 8848TIP3    H226509   6.984   0.998   0.214  0.3283  0.3284 -1.4147
 8849TIP3   OH226510   3.222   1.250   5.138 -0.7304 -0.1386  0.0807
 8849TIP3    H126511   3.239   1.296   5.220  0.2309  0.1584 -0.2815
 8849TIP3    H226512   3.285   1.178   5.137  1.2214  1.4906 -1.6870
 8850TIP3   OH226513   5.487   5.292   0.482 -0.2195  0.1879  0.2984
 8850TIP3    H126514   5.556   5.261   0.541 -0.9075 -0.5000  0.7581
 8850TIP3    H226515   5.529   5.292   0.395 -0.2346 -2.3953  0.2089
 8851TIP3   OH226516   3.457   3.255   5.462 -1.0414 -0.5520  0.0205
 8851TIP3    H126517   3.403   3.201   5.519  0.5378 -0.4567  1.7275
 8851TIP3    H226518   3.539   3.268   5.511  1.1696 -1.9137 -2.9629
 8852TIP3   OH226519   6.763   0.446   5.003  0.1001 -0.1430  0.8238
 8852TIP3    H126520   6.822   0.389   5.051  1.0088 -0.4832 -0.6523
 8852TIP3    H226521   6.817   0.521   4.977 -0.2607 -0.1452  0.0171
 8853TIP3   OH226522   1.714   4.264   1.007  0.9599 -0.4752  0.1287
 8853TIP3    H126523   1.633   4.228   1.043  1.7015 -1.1783  1.1615
 8853TIP3    H226524   1.728   4.345   1.057 -0.2779  0.8914 -1.6314
 8854TIP3   OH226525   4.331   0.028   2.972 -0.2461  0.4575  0.1519
 8854TIP3    H126526   4.326  -0.019   2.888 -0.6372  1.4875 -0.4199
 8854TIP3    H226527   4.286   0.111   2.955 -1.0438  0.3420  1.6249
 8855TIP3   OH226528   4.057   3.437   0.428 -0.2494  0.5526  0.5368
 8855TIP3    H126529   4.032   3.528   0.439 -1.1866  0.2291  1.2138
 8855TIP3    H226530   4.152   3.438   0.423 -0.2077  1.4933  1.3063
 8856TIP3   OH226531   3.984   3.586   1.664  0.0442 -0.2444 -0.1886
 8856TIP3    H126532   4.051   3.518   1.657  1.2415  0.8974 -0.0910
 8856TIP3    H226533   4.025   3.655   1.716 -1.6901 -0.0849  1.0633
 8857TIP3   OH226534   2.990   5.472   5.525  0.1197 -0.0374 -0.5139
 8857TIP3    H126535   3.044   5.423   5.587 -0.5407  0.3328  0.3879
 8857TIP3    H226536   3.001   5.427   5.442 -1.4022 -2.5005  0.4918
 8858TIP3   OH226537   4.215   4.119   2.639  0.1798  0.1879  0.0903
 8858TIP3    H126538   4.243   4.071   2.717 -1.8345 -0.9567  0.1728
 8858TIP3    H226539   4.171   4.197   2.672  1.2548  0.8478  0.0120
 8859TIP3   OH226540   0.892   4.080   3.040  0.3470  0.5199 -0.4046
 8859TIP3    H126541   0.802   4.058   3.064  0.4421  1.3734  0.8422
 8859TIP3    H226542   0.940   4.077   3.123  1.5678 -0.3728 -1.1233
 8860TIP3   OH226543   1.097   5.136   2.552  0.1208 -0.8274 -0.4063
 8860TIP3    H126544   1.163   5.173   2.494  0.4820  2.2419  1.7325
 8860TIP3    H226545   1.018   5.188   2.536 -0.8286 -2.1994 -0.4742
 8861TIP3   OH226546   1.076   5.158   1.179  0.1579 -0.5218  0.0630
 8861TIP3    H126547   1.108   5.228   1.122  1.6180 -0.3199  1.0749
 8861TIP3    H226548   1.067   5.082   1.122 -2.8497  0.7713 -1.3873
 8862TIP3   OH226549   3.802   0.969   0.839 -0.0023  0.1209 -0.0356
 8862TIP3    H126550   3.778   0.976   0.746  0.0757  1.0284  0.0093
 8862TIP3    H226551   3.859   0.892   0.843  0.6883  0.5742 -0.8846
 8863TIP3   OH226552   6.035   4.592   3.341  0.2048 -0.0052  0.8380
 8863TIP3    H126553   6.033   4.687   3.326  1.4658  0.0497  0.9333
 8863TIP3    H226554   6.101   4.580   3.409  0.2325 -0.9787  0.6528
 8864TIP3   OH226555   2.244   1.228   1.910  0.2038  0.7703 -0.4165
 8864TIP3    H126556   2.280   1.223   1.822  1.6123  0.1097  0.1627
 8864TIP3    H226557   2.155   1.195   1.902  1.2792 -2.3101 -1.0904
 8865TIP3   OH226558   4.618   6.466   1.477 -0.4584  0.0285  0.0207
 8865TIP3    H126559   4.527   6.458   1.447  0.0385 -0.3142 -1.4906
 8865TIP3    H226560   4.668   6.485   1.397  0.7035  1.0514  0.9549
 8866TIP3   OH226561   6.721   1.011   1.686 -0.1008  0.3500 -0.6351
 8866TIP3    H126562   6.722   1.069   1.609 -2.0190  0.8949 -0.2965
 8866TIP3    H226563   6.631   1.015   1.718  0.6948  0.3026  1.7935
 8867TIP3   OH226564   6.110   3.970   4.819 -0.4204  0.0706  0.1257
 8867TIP3    H126565   6.124   3.976   4.725 -0.3730  0.4485  0.1591
 8867TIP3    H226566   6.047   3.898   4.829  0.5212 -0.7983 -0.1021
 8868TIP3   OH226567   5.475   6.480   3.834 -0.1363 -0.5850 -0.9387
 8868TIP3    H126568   5.478   6.572   3.861 -1.7613 -1.0595  1.0664
 8868TIP3    H226569   5.401   6.476   3.773  0.4185 -0.4424 -1.6330
 8869TIP3   OH226570   3.385   4.515   2.868 -1.1237 -0.1020  0.4816
 8869TIP3    H126571   3.477   4.488   2.868 -0.4124  2.1284  0.6810
 8869TIP3    H226572   3.376   4.569   2.790 -0.6327  4.4739  3.2556
 8870TIP3   OH226573   2.622   4.189   5.918  0.0458  0.6029 -0.0525
 8870TIP3    H126574   2.682   4.217   5.849  0.9325  0.8557  0.8049
 8870TIP3    H226575   2.566   4.123   5.876  0.9336  0.3449 -0.8606
 8871TIP3   OH226576   2.923   4.675   5.097 -0.1067  0.0214 -0.1465
 8871TIP3    H126577   2.909   4.648   5.006  1.4443 -1.0880 -0.0963
 8871TIP3    H226578   2.987   4.746   5.091 -0.6532  0.5391  0.0410
 8872TIP3   OH226579   5.731   5.734   1.964  0.1303  0.4827  0.0218
 8872TIP3    H126580   5.649   5.684   1.964  0.5158 -0.1579  0.0233
 8872TIP3    H226581   5.766   5.723   1.876  0.9621 -0.5050  0.4567
 8873TIP3   OH226582   1.933   4.741   2.055 -0.0601 -0.3281  0.5764
 8873TIP3    H126583   1.953   4.791   1.976 -0.5460 -1.0984 -0.0484
 8873TIP3    H226584   1.917   4.807   2.122 -1.0815  0.3698 -0.3307
 8874TIP3   OH226585   4.880   0.327   2.744 -0.1233 -0.7200  0.4767
 8874TIP3    H126586   4.862   0.417   2.771 -1.2524 -0.3546 -1.3806
 8874TIP3    H226587   4.871   0.276   2.825 -3.1512  0.3395  0.9366
 8875TIP3   OH226588   6.017   6.057   1.355 -0.0564 -0.0832 -0.1257
 8875TIP3    H126589   5.996   5.983   1.298 -0.4753 -1.7890  2.1412
 8875TIP3    H226590   6.111   6.047   1.373  0.0283  0.3226 -0.3437
 8876TIP3   OH226591   2.323   6.057   4.067  0.3512 -0.2519 -0.4614
 8876TIP3    H126592   2.350   6.024   4.153  0.5229  1.0888  0.0284
 8876TIP3    H226593   2.397   6.111   4.039 -0.7196  1.3815 -0.2802
 8877TIP3   OH226594   3.513   5.035   3.323  0.5473 -0.5951  0.1302
 8877TIP3    H126595   3.570   4.967   3.360  0.4898 -0.5606  0.2825
 8877TIP3    H226596   3.434   4.988   3.295 -0.0565 -0.4083  1.4476
 8878TIP3   OH226597   1.437   2.507   0.508 -0.9102  0.0425 -0.7794
 8878TIP3    H126598   1.351   2.521   0.547  0.2549  1.4968  1.4524
 8878TIP3    H226599   1.453   2.586   0.456 -0.0918  0.7726  0.5330
 8879TIP3   OH226600   1.973   3.855   3.434  0.3279 -0.4028 -0.2094
 8879TIP3    H126601   1.940   3.774   3.475  1.2309 -1.4811 -1.5282
 8879TIP3    H226602   1.955   3.923   3.499 -2.1571 -1.3136  0.2042
 8880TIP3   OH226603   2.552   1.348   4.324  0.2750 -0.6286  0.4767
 8880TIP3    H126604   2.526   1.337   4.233 -1.7722  3.0721  0.3831
 8880TIP3    H226605   2.481   1.308   4.374  0.1205 -0.4915  0.3710
 8881TIP3   OH226606   0.306   6.243   3.844  0.4893  0.3801  0.3392
 8881TIP3    H126607   0.344   6.228   3.757  1.5832  1.8124  0.5138
 8881TIP3    H226608   0.216   6.213   3.837  1.0434 -1.1212 -0.7669
 8882TIP3   OH226609   3.953   5.151   2.090 -0.0733  0.3897  0.3757
 8882TIP3    H126610   3.980   5.078   2.034  1.1895  1.5464 -0.5666
 8882TIP3    H226611   3.863   5.130   2.115  0.1293 -1.2886 -0.1942
 8883TIP3   OH226612   4.049   5.589   3.735 -0.1185  0.3112 -0.7371
 8883TIP3    H126613   4.061   5.566   3.642 -0.5611  0.5566 -0.8615
 8883TIP3    H226614   3.956   5.610   3.741  0.1148  1.2894 -0.4560
 8884TIP3   OH226615   5.458   6.435   5.094  0.2785  0.1901 -0.5076
 8884TIP3    H126616   5.463   6.372   5.167  0.9183  0.4279 -0.3418
 8884TIP3    H226617   5.540   6.483   5.099 -0.4154  1.3877 -0.3261
 8885TIP3   OH226618   3.287   1.590   4.760 -0.2478  0.0019  0.3332
 8885TIP3    H126619   3.321   1.547   4.838 -0.5531 -0.1467  0.3874
 8885TIP3    H226620   3.364   1.628   4.718  0.3837 -2.2266 -0.7282
 8886TIP3   OH226621   3.886   0.134   4.133  0.9636 -0.3295  0.1995
 8886TIP3    H126622   3.966   0.140   4.081 -0.1022 -1.1246 -1.6360
 8886TIP3    H226623   3.837   0.213   4.110  0.1728 -1.0350 -0.6013
 8887TIP3   OH226624   1.209   3.768   4.694  0.3211 -0.0689  1.1867
 8887TIP3    H126625   1.192   3.737   4.605  0.9885  0.0766  1.0069
 8887TIP3    H226626   1.296   3.735   4.715 -0.2647 -1.0387  2.2073
 8888TIP3   OH226627   6.854  -0.000   1.263  0.4303  0.1774  0.3065
 8888TIP3    H126628   6.813   0.084   1.279 -1.1567 -0.9842  3.1270
 8888TIP3    H226629   6.939   0.005   1.307 -0.5911 -0.3414  2.4531
 8889TIP3   OH226630   0.552   0.842   0.104 -0.9616  0.3492 -0.0826
 8889TIP3    H126631   0.535   0.791   0.025  1.1557  0.1339 -0.4624
 8889TIP3    H226632   0.575   0.929   0.072  2.4829 -0.3934  0.0053
 8890TIP3   OH226633   2.956   4.456   1.622  0.2626 -0.1102  0.8753
 8890TIP3    H126634   3.032   4.407   1.590 -0.1424 -1.5447  2.0099
 8890TIP3    H226635   2.882   4.423   1.572  0.4357  2.0391 -0.9967
 8891TIP3   OH226636   3.432   3.871   0.085  0.5382  0.9660  0.4160
 8891TIP3    H126637   3.430   3.879   0.181  1.9495 -0.4080  0.5887
 8891TIP3    H226638   3.483   3.792   0.068 -1.4193 -0.0193 -1.4403
 8892TIP3   OH226639   1.713   2.762   5.593 -0.0674  0.1193  0.3995
 8892TIP3    H126640   1.760   2.683   5.567 -1.6668 -0.9998  0.7259
 8892TIP3    H226641   1.760   2.793   5.671 -0.7834 -1.9143  1.7310
 8893TIP3   OH226642   4.020   0.878   5.018 -0.2723  0.4473 -0.0556
 8893TIP3    H126643   4.109   0.860   4.988 -0.3905 -1.3250  0.5529
 8893TIP3    H226644   3.966   0.868   4.940 -0.1190 -0.1979 -0.0885
 8894TIP3   OH226645   3.567   1.007   2.243  0.2984 -0.2709 -0.1700
 8894TIP3    H126646   3.530   1.089   2.274  0.1032 -1.0221  1.6781
 8894TIP3    H226647   3.491   0.951   2.225  0.4478 -0.3443 -0.5808
 8895TIP3   OH226648   3.557   1.641   0.370 -0.2915  0.1165 -0.1560
 8895TIP3    H126649   3.611   1.704   0.419  2.5996 -2.2805  0.0658
 8895TIP3    H226650   3.551   1.678   0.282  0.5245  1.1665  0.2111
 8896TIP3   OH226651   4.930   6.527   2.666  0.0601 -0.2119 -0.2082
 8896TIP3    H126652   4.901   6.462   2.602 -1.8303 -1.3261  1.6318
 8896TIP3    H226653   4.870   6.516   2.740  1.3477  1.8567  1.2646
 8897TIP3   OH226654   7.190   4.789   1.903  0.2487  0.5220 -0.6031
 8897TIP3    H126655   7.262   4.727   1.893 -0.4571 -0.1189 -2.0573
 8897TIP3    H226656   7.111   4.736   1.892 -0.3836  1.5622 -1.3011
 8898TIP3   OH226657   4.640   5.632   5.237 -0.1082 -0.1832 -0.4601
 8898TIP3    H126658   4.724   5.601   5.203  0.0347  0.4380 -0.7025
 8898TIP3    H226659   4.658   5.658   5.327 -0.2953 -1.0606 -0.1664
 8899TIP3   OH226660   1.812   1.305   0.721 -0.2307 -0.4047 -0.3849
 8899TIP3    H126661   1.777   1.378   0.773  0.1171 -0.8627  0.5116
 8899TIP3    H226662   1.746   1.237   0.727  0.5438 -1.1003  0.9299
 8900TIP3   OH226663   0.687   0.778   0.705  1.0590  0.3840 -0.0857
 8900TIP3    H126664   0.743   0.854   0.688 -0.4957  1.5677 -0.1964
 8900TIP3    H226665   0.699   0.722   0.629  1.1880  1.2117 -0.6979
 8901TIP3   OH226666   7.143   1.986   1.336  0.0681 -0.4522  0.6381
 8901TIP3    H126667   7.117   2.052   1.272  0.1229  0.5398  1.6322
 8901TIP3    H226668   7.216   2.025   1.383  0.6217 -1.5398  0.7176
 8902TIP3   OH226669   1.493   6.300   4.816  0.0527 -0.6417  0.9552
 8902TIP3    H126670   1.449   6.338   4.892 -1.5866 -0.1966 -0.1609
 8902TIP3    H226671   1.422   6.277   4.756  1.2748 -1.4007 -0.2630
 8903TIP3   OH226672   1.280   2.948   0.948 -0.0490 -0.9468 -0.3639
 8903TIP3    H126673   1.259   2.957   0.855  3.0082  1.2097 -1.0016
 8903TIP3    H226674   1.354   2.887   0.950 -0.0843 -0.9844  0.6615
 8904TIP3   OH226675   6.028   4.097   1.504  0.3718 -0.2686  0.0307
 8904TIP3    H126676   5.942   4.138   1.493 -0.0246 -1.2104 -0.5117
 8904TIP3    H226677   6.029   4.067   1.595 -0.0341 -0.5917 -0.0682
 8905TIP3   OH226678   3.634   2.256   5.128  0.9034 -0.5400  0.0869
 8905TIP3    H126679   3.724   2.280   5.150  1.4481 -1.2190 -1.2918
 8905TIP3    H226680   3.597   2.334   5.086  1.0323 -0.4499  0.1420
 8906TIP3   OH226681   5.521   1.837   1.707  0.8905  0.0972 -0.2790
 8906TIP3    H126682   5.563   1.888   1.637 -0.0422  2.2960  0.6615
 8906TIP3    H226683   5.436   1.880   1.720  0.7042 -0.7434  1.6388
 8907TIP3   OH226684   1.048   5.263   3.871 -0.7279 -0.3550  0.7816
 8907TIP3    H126685   1.087   5.181   3.841 -0.5165  0.1763 -0.4457
 8907TIP3    H226686   1.032   5.249   3.964 -0.3901 -1.6669  0.6623
 8908TIP3   OH226687   0.304   0.161   5.505  0.6934 -0.1687  0.5835
 8908TIP3    H126688   0.335   0.173   5.415  0.3177 -0.0557  0.4674
 8908TIP3    H226689   0.223   0.111   5.496 -0.3813  1.4864  0.7063
 8909TIP3   OH226690   7.044   3.850   3.510  0.6889 -0.6178 -0.6036
 8909TIP3    H126691   7.126   3.868   3.465 -0.1091 -0.6508 -2.1126
 8909TIP3    H226692   7.005   3.936   3.525  0.8787 -0.6160 -0.0846
 8910TIP3   OH226693   0.566   0.074   3.626  0.1446 -0.2089 -0.4413
 8910TIP3    H126694   0.609   0.123   3.555 -1.1253  3.4432  1.0930
 8910TIP3    H226695   0.478   0.111   3.630 -0.0651 -0.8489  2.5183
 8911TIP3   OH226696   5.898   1.139   5.018  0.3258  0.0148 -0.3951
 8911TIP3    H126697   5.870   1.130   5.109  0.5534  0.1483 -0.3113
 8911TIP3    H226698   5.980   1.188   5.023 -0.0857  0.7599 -0.7274
 8912TIP3   OH226699   3.346   2.557   3.535 -0.3872 -0.4403 -0.2917
 8912TIP3    H126700   3.365   2.544   3.628 -1.3258 -0.5536 -0.1081
 8912TIP3    H226701   3.349   2.469   3.497 -2.4722 -0.7309  0.1254
 8913TIP3   OH226702   3.144   0.821   1.879 -0.6688  0.0767 -0.1413
 8913TIP3    H126703   3.183   0.864   1.803 -0.7998  0.5733  0.0721
 8913TIP3    H226704   3.217   0.808   1.939 -0.3831 -1.1249 -0.7007
 8914TIP3   OH226705   5.999   5.871   5.213  0.0354 -0.3370  0.0361
 8914TIP3    H126706   6.061   5.909   5.276  0.5885 -1.2661  0.0707
 8914TIP3    H226707   6.054   5.820   5.153 -0.5189  0.2801 -1.0210
 8915TIP3   OH226708   4.108   5.242   5.266 -0.1344  0.7750 -0.3819
 8915TIP3    H126709   4.077   5.262   5.178  0.3520  2.0100 -0.2955
 8915TIP3    H226710   4.115   5.327   5.309  1.3313  0.3639  0.2701
 8916TIP3   OH226711   0.227   3.370   1.370  0.0158 -0.3748 -0.1098
 8916TIP3    H126712   0.162   3.307   1.338  0.5492 -0.8889 -0.2086
 8916TIP3    H226713   0.270   3.403   1.291  0.2704 -0.4753 -0.0142
 8917TIP3   OH226714   6.618   6.520   3.940  0.0657 -0.2646 -0.1559
 8917TIP3    H126715   6.662   6.498   3.857 -0.0337 -0.7790 -0.0758
 8917TIP3    H226716   6.528   6.540   3.914 -0.0053 -0.5762 -0.1574
 8918TIP3   OH226717   3.159   4.769   3.494  0.3004  0.1590  0.3311
 8918TIP3    H126718   3.080   4.745   3.543 -0.7034  0.7719 -0.9381
 8918TIP3    H226719   3.190   4.687   3.456  1.0140 -0.3023  1.8303
 8919TIP3   OH226720   5.970   1.622   5.189  0.1357 -0.3144  0.0511
 8919TIP3    H126721   5.982   1.715   5.168 -2.7540  0.2437  0.3797
 8919TIP3    H226722   5.915   1.588   5.118 -0.2739 -1.2947  0.8152
 8920TIP3   OH226723   6.977   5.717   1.360 -0.4181  0.1249 -0.1096
 8920TIP3    H126724   6.994   5.765   1.441 -2.3127  0.0179  0.3896
 8920TIP3    H226725   7.044   5.648   1.359 -0.2269  0.2616  1.2467
 8921TIP3   OH226726   4.227   0.108   4.247 -0.2862  0.2696 -0.2648
 8921TIP3    H126727   4.183   0.023   4.234 -0.8742  0.4712  0.3025
 8921TIP3    H226728   4.192   0.164   4.178  0.8234 -0.2069 -1.2311
 8922TIP3   OH226729   2.358   6.325   5.193  0.0565  0.6446 -0.1975
 8922TIP3    H126730   2.338   6.232   5.202 -1.4280  0.9384 -0.1500
 8922TIP3    H226731   2.389   6.334   5.103 -1.8085  0.3939 -0.9097
 8923TIP3   OH226732   1.112   4.928   0.394  0.1172 -0.3541 -0.4996
 8923TIP3    H126733   1.189   4.919   0.450 -0.7442 -0.3127  0.7544
 8923TIP3    H226734   1.091   5.022   0.397 -0.5217 -0.4993 -0.0320
 8924TIP3   OH226735   4.372   5.914   0.313  0.1958 -0.3757 -0.1068
 8924TIP3    H126736   4.286   5.952   0.294  0.6344  0.9866  0.5570
 8924TIP3    H226737   4.367   5.888   0.405  0.6616  0.2214  0.0966
 8925TIP3   OH226738   3.825   6.371   1.549 -0.0752 -0.0647  0.4773
 8925TIP3    H126739   3.872   6.287   1.540 -1.1398 -0.8389  1.7857
 8925TIP3    H226740   3.853   6.405   1.634 -0.3723  0.4545  0.3685
 8926TIP3   OH226741   4.908   6.501   1.692  0.2931 -0.4310 -0.0816
 8926TIP3    H126742   4.944   6.580   1.652  1.9773 -0.3496  1.4715
 8926TIP3    H226743   4.819   6.525   1.718  0.3045  0.5007 -0.8506
 8927TIP3   OH226744   2.797   0.821   1.643 -0.2847  0.1416  0.0502
 8927TIP3    H126745   2.747   0.809   1.724  1.5719 -1.1657  1.0758
 8927TIP3    H226746   2.878   0.865   1.671 -0.2777  1.0939 -1.3598
 8928TIP3   OH226747   5.961   2.128   3.052 -0.2533  0.4132 -0.3208
 8928TIP3    H126748   5.881   2.109   3.004  0.5052 -1.8422 -0.7989
 8928TIP3    H226749   5.995   2.209   3.013 -1.8799  0.9919 -0.5929
 8929TIP3   OH226750   2.289   2.919   3.433 -0.2489 -0.5145 -0.5458
 8929TIP3    H126751   2.304   2.971   3.512  1.7714  0.4786 -1.5057
 8929TIP3    H226752   2.241   2.842   3.463  1.0895 -0.5256  1.7850
 8930TIP3   OH226753   4.844   3.445   2.479 -0.1997  0.2122  0.1091
 8930TIP3    H126754   4.858   3.539   2.467 -1.4160  0.3503 -0.2790
 8930TIP3    H226755   4.820   3.436   2.571  1.6374  0.0446  0.6205
 8931TIP3   OH226756   3.736   4.223   2.212 -0.0374  0.3002  0.3202
 8931TIP3    H126757   3.767   4.176   2.135 -0.4589  2.1260 -1.0405
 8931TIP3    H226758   3.640   4.224   2.203 -0.1167  0.2537  1.0604
 8932TIP3   OH226759   1.477   4.587   0.836  0.6056 -0.5496  0.0158
 8932TIP3    H126760   1.435   4.503   0.855 -2.6231  0.9365  0.0872
 8932TIP3    H226761   1.570   4.565   0.824 -0.1686 -4.1661 -0.4972
 8933TIP3   OH226762   5.527   0.212   4.366  0.4224 -0.1325  0.4291
 8933TIP3    H126763   5.534   0.116   4.368  1.8900 -0.0621 -0.0369
 8933TIP3    H226764   5.453   0.229   4.308  0.7697 -0.9835 -0.2984
 8934TIP3   OH226765   6.667   4.443   1.562 -0.0235  0.2412 -0.5533
 8934TIP3    H126766   6.622   4.519   1.598 -0.4386 -0.1623 -0.2035
 8934TIP3    H226767   6.723   4.478   1.493  0.6059  0.9964  0.3202
 8935TIP3   OH226768   6.218   3.615   2.042  0.2752 -0.4085  0.2682
 8935TIP3    H126769   6.238   3.660   2.123 -0.5159 -0.1252  0.3146
 8935TIP3    H226770   6.122   3.611   2.039  0.2303  0.6879 -1.2295
 8936TIP3   OH226771   6.286   6.078   3.899  0.2674  0.4078  0.3463
 8936TIP3    H126772   6.263   6.150   3.839 -2.0870  0.1361  0.8320
 8936TIP3    H226773   6.355   6.114   3.954  2.3859  0.7500 -2.3047
 8937TIP3   OH226774   0.309   4.032   3.006  0.2847 -0.2019  0.1604
 8937TIP3    H126775   0.312   4.066   3.095 -1.2373  0.2525  0.0662
 8937TIP3    H226776   0.258   3.951   3.013  0.2240 -0.2084 -0.2759
 8938TIP3   OH226777   5.159   3.128   2.616  0.7997 -0.2345  0.1501
 8938TIP3    H126778   5.241   3.080   2.605  2.8156  2.7752  0.8059
 8938TIP3    H226779   5.173   3.211   2.570 -1.4186  0.8930  1.3206
 8939TIP3   OH226780   2.206   4.923   1.100  0.1336  0.2967  0.0306
 8939TIP3    H126781   2.262   4.986   1.145 -0.3907  1.4581 -0.8997
 8939TIP3    H226782   2.229   4.839   1.139  2.3544  0.7552 -0.1374
 8940TIP3   OH226783   4.613   0.992   2.414  0.1938 -0.1119 -0.9592
 8940TIP3    H126784   4.594   1.052   2.486 -1.2192 -2.0892  0.4462
 8940TIP3    H226785   4.614   0.905   2.456  1.5042 -1.1366 -2.9798
 8941TIP3   OH226786   2.694   1.997   4.692 -0.4802  0.6227 -0.8436
 8941TIP3    H126787   2.751   2.054   4.641 -0.1337 -0.1730 -1.3610
 8941TIP3    H226788   2.659   1.934   4.629 -1.8954  1.0527 -0.5180
 8942TIP3   OH226789   0.968   4.988   1.819 -0.1179  0.0487 -0.2032
 8942TIP3    H126790   0.929   4.901   1.812  0.7019 -0.1981 -2.8639
 8942TIP3    H226791   1.061   4.972   1.838  0.5991  0.1161 -3.2108
 8943TIP3   OH226792   5.601   3.475   5.181  0.0218  0.2979 -0.2049
 8943TIP3    H126793   5.679   3.527   5.201  0.3547 -0.0291 -0.6264
 8943TIP3    H226794   5.545   3.484   5.258  0.0410  1.3396 -0.3037
 8944TIP3   OH226795   6.082   1.977   2.150  0.1009 -0.1902 -0.0895
 8944TIP3    H126796   6.007   2.026   2.117  1.1892 -0.1506 -2.7005
 8944TIP3    H226797   6.054   1.885   2.148 -0.9903  0.0188  2.2294
 8945TIP3   OH226798   3.712   1.905   0.751  0.1159  0.0679  0.2236
 8945TIP3    H126799   3.636   1.920   0.807 -0.3182  0.4060 -0.4428
 8945TIP3    H226800   3.738   1.814   0.769  0.0673  0.2112  1.0600
 8946TIP3   OH226801   7.131   4.837   0.151 -0.3770  0.7500 -0.7857
 8946TIP3    H126802   7.170   4.904   0.207  0.1931 -0.2011 -0.0071
 8946TIP3    H226803   7.082   4.781   0.212 -0.1305 -0.0361 -1.2889
 8947TIP3   OH226804   0.640   5.673   1.805  0.3417 -0.1439  0.5987
 8947TIP3    H126805   0.597   5.589   1.792  0.9958 -0.4996  0.6952
 8947TIP3    H226806   0.662   5.676   1.898  0.1473  0.2172  0.6342
 8948TIP3   OH226807   6.122   4.959   5.429 -0.1333  0.0921 -0.4019
 8948TIP3    H126808   6.046   5.016   5.415 -1.2754 -0.9595  1.2744
 8948TIP3    H226809   6.186   5.016   5.471 -1.2506  0.2154  1.2375
 8949TIP3   OH226810   6.546   4.321   5.434  0.4531  0.4465 -0.2597
 8949TIP3    H126811   6.486   4.394   5.448  1.3150  0.8250  1.8481
 8949TIP3    H226812   6.597   4.346   5.358  0.7335  2.0933  0.4292
 8950TIP3   OH226813   5.903   6.778   2.523 -0.7222 -0.1548  0.3185
 8950TIP3    H126814   5.891   6.697   2.574  1.5508  0.3384  1.7678
 8950TIP3    H226815   5.832   6.835   2.553 -1.7152 -1.2084  0.0592
 8951TIP3   OH226816   2.994   6.781   5.774  0.3615  0.7266 -0.1555
 8951TIP3    H126817   2.953   6.695   5.766  3.2798 -0.8634  0.4933
 8951TIP3    H226818   2.947   6.836   5.711 -2.0849 -1.1044 -0.0673
 8952TIP3   OH226819   1.673   1.110   4.495 -0.0930 -0.2952 -0.6246
 8952TIP3    H126820   1.601   1.098   4.557  0.3667  0.5137  0.0990
 8952TIP3    H226821   1.670   1.202   4.472  0.7452 -0.2337 -0.5308
 8953TIP3   OH226822   5.426   1.008   0.353 -0.6396  0.0070  0.2241
 8953TIP3    H126823   5.360   0.957   0.305 -0.7422  0.8309 -0.5477
 8953TIP3    H226824   5.496   0.946   0.370 -0.2161 -0.1470 -1.7845
 8954TIP3   OH226825   5.081   5.242   2.939 -0.3599  0.0711  0.6082
 8954TIP3    H126826   5.105   5.335   2.947 -0.6099  0.3595 -1.6045
 8954TIP3    H226827   5.025   5.238   2.862  2.0372 -2.3601 -1.1487
 8955TIP3   OH226828   3.845   1.934   0.463 -0.1205 -0.1048  0.7519
 8955TIP3    H126829   3.899   1.858   0.485 -1.6676 -1.3847  0.3512
 8955TIP3    H226830   3.785   1.943   0.537 -2.6645 -1.9039 -0.9456
 8956TIP3   OH226831   3.132   4.998   3.739  0.4912 -0.0199 -0.0397
 8956TIP3    H126832   3.190   4.977   3.666 -1.1603 -1.8162 -0.9342
 8956TIP3    H226833   3.082   5.074   3.710 -0.8893 -1.3347 -1.3166
 8957TIP3   OH226834   3.657   1.574   1.177  0.2518  0.3604 -0.1502
 8957TIP3    H126835   3.562   1.569   1.187  0.3408 -0.8520  0.4109
 8957TIP3    H226836   3.677   1.667   1.177 -0.8644  0.6229  0.5598
 8958TIP3   OH226837   1.460   3.162   0.665 -0.9441 -0.2200 -0.4846
 8958TIP3    H126838   1.413   3.197   0.589  0.2512  2.0763 -0.2371
 8958TIP3    H226839   1.417   3.202   0.741 -0.4463 -0.3874 -0.1087
 8959TIP3   OH226840   5.940   6.462   4.712 -0.5078  0.5667  0.5126
 8959TIP3    H126841   5.894   6.537   4.672 -1.8176 -0.5567 -0.1989
 8959TIP3    H226842   6.011   6.442   4.651 -1.5404 -0.1513 -0.5029
 8960TIP3   OH226843   2.341   0.311   2.690  0.7062 -0.2642 -0.3704
 8960TIP3    H126844   2.343   0.287   2.783  1.8592 -0.1924 -0.3717
 8960TIP3    H226845   2.349   0.228   2.644 -1.8060 -0.5379 -0.4700
 8961TIP3   OH226846   2.776   2.295   5.842 -0.4235 -0.0583 -0.4919
 8961TIP3    H126847   2.851   2.330   5.793  0.6904 -1.4186  0.1507
 8961TIP3    H226848   2.754   2.365   5.904 -0.8832  1.0763 -1.8733
 8962TIP3   OH226849   3.109   4.925   5.748 -0.2200  0.7542  0.5861
 8962TIP3    H126850   3.200   4.895   5.746 -0.8679 -1.3823 -0.9712
 8962TIP3    H226851   3.115   5.020   5.738  1.8203  0.4530 -2.6834
 8963TIP3   OH226852   0.241   2.141   1.849 -0.6881 -0.1714 -0.5573
 8963TIP3    H126853   0.198   2.212   1.801  0.8361  0.0463 -1.6834
 8963TIP3    H226854   0.310   2.110   1.789  0.0980 -1.1291  0.7892
 8964TIP3   OH226855   3.532   1.597   1.522  0.4099  0.4571 -0.2485
 8964TIP3    H126856   3.622   1.565   1.513  0.4605  0.1187  1.2645
 8964TIP3    H226857   3.539   1.668   1.587 -0.6405 -0.6526  1.1200
 8965TIP3   OH226858   0.642   3.810   4.083 -0.2981 -0.2327  0.0720
 8965TIP3    H126859   0.598   3.875   4.028 -0.4647 -0.5367 -0.1585
 8965TIP3    H226860   0.708   3.860   4.132 -0.9665  0.2431  0.4967
 8966TIP3   OH226861   3.288   0.063   3.241  0.2282  0.0155 -0.1978
 8966TIP3    H126862   3.365   0.116   3.217 -0.2519  0.8002 -0.0592
 8966TIP3    H226863   3.255   0.031   3.158 -0.3606  1.2126 -0.4483
 8967TIP3   OH226864   2.820   1.098   4.511  0.5646 -0.2178  0.3283
 8967TIP3    H126865   2.833   1.082   4.605  0.4061 -0.5272  0.2955
 8967TIP3    H226866   2.733   1.063   4.492  0.3379  0.4008  0.1972
 8968TIP3   OH226867   4.715   5.426   1.441 -0.1863  0.2723 -0.3573
 8968TIP3    H126868   4.736   5.483   1.516  0.3960 -0.7675  0.2963
 8968TIP3    H226869   4.711   5.486   1.366  1.0928  1.0922  0.1905
 8969TIP3   OH226870   1.734   4.010   1.250 -0.0902 -0.0670 -0.0322
 8969TIP3    H126871   1.665   3.943   1.247 -1.8611  1.6272  0.7300
 8969TIP3    H226872   1.687   4.092   1.260  2.0842  1.1732  0.6410
 8970TIP3   OH226873   6.912   3.610   5.658  0.0083 -0.2215  0.0091
 8970TIP3    H126874   6.923   3.517   5.675  0.6183  0.1710  1.9300
 8970TIP3    H226875   7.000   3.647   5.668 -0.3884  0.6960  0.2161
 8971TIP3   OH226876   4.104   3.519   0.779 -0.0190  0.1315  0.0962
 8971TIP3    H126877   4.086   3.454   0.847 -0.8066  0.5867  0.3376
 8971TIP3    H226878   4.091   3.471   0.697  1.0093 -0.4404  0.2536
 8972TIP3   OH226879   5.345   5.901   0.517  0.0505 -0.0230  0.1861
 8972TIP3    H126880   5.354   5.859   0.431 -0.5998 -0.6220  0.4006
 8972TIP3    H226881   5.371   5.833   0.580 -1.0071 -0.1204  0.5384
 8973TIP3   OH226882   2.527   6.787   2.602 -0.5774  0.6698  0.5353
 8973TIP3    H126883   2.453   6.833   2.641 -0.9880  0.1607  0.3687
 8973TIP3    H226884   2.491   6.745   2.523 -0.3480 -0.3670  0.9664
 8974TIP3   OH226885   6.451   4.605   5.124  0.9340 -0.4058 -0.1265
 8974TIP3    H126886   6.358   4.619   5.107  1.3562  1.3298 -1.2402
 8974TIP3    H226887   6.461   4.625   5.217  0.2748 -0.0592 -0.1205
 8975TIP3   OH226888   2.302   3.984   0.884  0.2399 -0.0418  0.0496
 8975TIP3    H126889   2.281   4.010   0.794 -0.8118 -0.1858  0.2462
 8975TIP3    H226890   2.397   3.997   0.890  0.2218  0.6719 -0.8497
 8976TIP3   OH226891   5.544   2.459   2.433 -0.2580  0.2020  0.0659
 8976TIP3    H126892   5.515   2.397   2.366 -0.4997  0.3902 -0.0026
 8976TIP3    H226893   5.472   2.461   2.496 -0.1020  0.1526  0.2477
 8977TIP3   OH226894   3.930   6.430   2.085  0.0792 -0.4039  0.1879
 8977TIP3    H126895   4.006   6.482   2.060 -0.8066  1.3231  0.8662
 8977TIP3    H226896   3.906   6.463   2.171 -0.1850 -2.4068  0.9145
 8978TIP3   OH226897   3.131   5.026   2.726  0.6447  0.2205  0.0940
 8978TIP3    H126898   3.126   5.074   2.809  1.0012  0.4880 -0.0387
 8978TIP3    H226899   3.116   4.934   2.751 -0.3760  0.4285  0.3045
 8979TIP3   OH226900   6.568   5.208   4.081 -1.0093  0.2077  1.0516
 8979TIP3    H126901   6.484   5.249   4.060 -1.2988 -0.3757  1.0456
 8979TIP3    H226902   6.569   5.127   4.030 -0.0785  0.6020  0.4168
 8980TIP3   OH226903   3.593   6.363   4.956 -0.4864 -0.3076  0.0692
 8980TIP3    H126904   3.591   6.285   4.900 -0.7364 -0.2614  0.0121
 8980TIP3    H226905   3.679   6.402   4.940 -0.4611 -0.4301 -0.0957
 8981TIP3   OH226906   6.234   5.255   1.738 -0.8661  0.3121  0.2593
 8981TIP3    H126907   6.265   5.246   1.648  1.3752  0.5764  0.9469
 8981TIP3    H226908   6.269   5.339   1.767 -0.4219 -0.3485  1.7589
 8982TIP3   OH226909   6.191   5.918   3.487  0.7762 -0.3359  0.2521
 8982TIP3    H126910   6.238   5.870   3.555  1.2676 -0.7933 -0.4001
 8982TIP3    H226911   6.253   5.986   3.459 -0.1407  1.1369  1.6177
 8983TIP3   OH226912   3.956   1.646   1.075  0.0590  0.9105 -0.2502
 8983TIP3    H126913   3.999   1.691   1.147  0.2976 -0.5050  0.5309
 8983TIP3    H226914   3.874   1.693   1.063  0.2431  1.4793  0.6166
 8984TIP3   OH226915   0.682   2.833   0.411  0.4063 -0.0853  0.1217
 8984TIP3    H126916   0.616   2.763   0.409 -0.7246  0.9254  0.6582
 8984TIP3    H226917   0.763   2.790   0.383 -0.2864 -1.5692  0.2727
 8985TIP3   OH226918   3.873   3.648   4.936 -0.3824 -0.3713 -0.0884
 8985TIP3    H126919   3.947   3.588   4.942 -0.4618 -0.3727  0.9870
 8985TIP3    H226920   3.892   3.702   4.860  0.7857 -0.2932  0.2473
 8986TIP3   OH226921   1.815   0.289   5.801  0.4747  0.0745 -0.2588
 8986TIP3    H126922   1.887   0.337   5.841  1.7481 -0.2011 -2.0988
 8986TIP3    H226923   1.805   0.328   5.715  0.1912 -1.5980 -1.0344
 8987TIP3   OH226924   7.058   4.017   2.264  0.0479  0.2760  0.3513
 8987TIP3    H126925   6.962   4.011   2.260  0.0678 -0.3072  0.6838
 8987TIP3    H226926   7.087   3.927   2.274  0.6580  0.4113 -0.1901
 8988TIP3   OH226927   3.849   1.889   4.201  0.4552 -0.4642 -0.2755
 8988TIP3    H126928   3.860   1.967   4.255  0.5176 -0.2416 -0.6066
 8988TIP3    H226929   3.769   1.848   4.235  0.2122 -0.0551 -0.3428
 8989TIP3   OH226930   5.425   5.806   3.572  1.2439 -0.3425  0.2088
 8989TIP3    H126931   5.365   5.732   3.578  0.5579  0.0723 -1.0232
 8989TIP3    H226932   5.510   5.768   3.552  0.4451 -0.7555 -2.9401
 8990TIP3   OH226933   6.662   4.334   1.247 -0.3165  0.0708 -0.4869
 8990TIP3    H126934   6.629   4.334   1.337 -0.0344  1.3658 -0.3529
 8990TIP3    H226935   6.596   4.287   1.198 -1.3712  0.8447  0.1263
 8991TIP3   OH226936   3.379   0.453   0.622 -0.6087  0.6378 -0.1354
 8991TIP3    H126937   3.443   0.381   0.626 -1.9752 -0.5773  0.8737
 8991TIP3    H226938   3.428   0.526   0.584  2.0117  0.4131  2.4329
 8992TIP3   OH226939   6.756   5.718   2.472 -0.0935  0.2060 -0.3098
 8992TIP3    H126940   6.828   5.759   2.520  1.4932  0.1530 -2.5072
 8992TIP3    H226941   6.694   5.789   2.456  0.6596  0.8337 -0.4999
 8993TIP3   OH226942   0.595   5.572   3.486 -0.2108 -0.2159 -0.4369
 8993TIP3    H126943   0.643   5.652   3.465  2.0907 -1.1647  0.8349
 8993TIP3    H226944   0.606   5.516   3.410 -0.3294  0.0318 -0.6354
 8994TIP3   OH226945   2.093   3.880   2.782  0.0104 -0.1339 -0.6247
 8994TIP3    H126946   2.123   3.896   2.693  1.5055  0.2620 -0.0842
 8994TIP3    H226947   2.076   3.967   2.818 -0.1531 -0.2625 -0.3930
 8995TIP3   OH226948   6.170   0.631   5.728 -0.1352 -0.1142 -0.0175
 8995TIP3    H126949   6.148   0.665   5.641  0.7838 -1.8114 -0.9716
 8995TIP3    H226950   6.245   0.684   5.756  1.7052 -1.6208 -1.7681
 8996TIP3   OH226951   2.450   4.103   2.454  0.2289  0.3453 -0.2654
 8996TIP3    H126952   2.531   4.140   2.420  1.1969  0.0643  1.6214
 8996TIP3    H226953   2.472   4.073   2.542 -1.3555 -1.7400 -0.4978
 8997TIP3   OH226954   4.986   5.404   4.158 -0.4757  0.1802 -0.0289
 8997TIP3    H126955   5.005   5.491   4.191 -1.2549  0.6787 -0.8470
 8997TIP3    H226956   4.930   5.364   4.225 -0.0899  0.2884  0.3595
 8998TIP3   OH226957   5.033   5.479   3.167 -0.6023  0.2961 -0.0385
 8998TIP3    H126958   4.981   5.548   3.209 -0.6380 -0.6555  1.5772
 8998TIP3    H226959   4.990   5.398   3.193  0.3183 -0.4036 -0.6401
 8999TIP3   OH226960   3.094   0.019   1.328 -1.1012 -0.1282 -0.4438
 8999TIP3    H126961   3.058   0.094   1.376 -3.9457 -1.3693 -0.4269
 8999TIP3    H226962   3.029   0.001   1.260  0.8358 -0.9637 -2.1399
 9000TIP3   OH226963   4.063   5.437   3.961 -0.0364 -0.7223  0.1046
 9000TIP3    H126964   4.081   5.482   3.878 -0.1914 -0.2351  0.3281
 9000TIP3    H226965   4.012   5.500   4.012 -1.3194 -1.6226 -0.0354
 9001TIP3   OH226966   2.991   2.333   4.251  0.0847  0.2565 -0.1279
 9001TIP3    H126967   2.913   2.326   4.307  0.4156  1.8939  0.6133
 9001TIP3    H226968   3.020   2.423   4.264 -0.7614  1.3078 -4.2212
 9002TIP3   OH226969   3.444   4.414   1.668  0.3143 -0.6817 -0.2656
 9002TIP3    H126970   3.433   4.467   1.588  0.4865 -1.4186 -0.7880
 9002TIP3    H226971   3.485   4.333   1.637  0.1502 -1.0779  0.5443
 9003TIP3   OH226972   6.228   1.156   2.358  0.4333 -0.3131 -0.1876
 9003TIP3    H126973   6.289   1.083   2.355  1.2170  0.3577 -1.0635
 9003TIP3    H226974   6.218   1.174   2.451 -0.5572 -2.1526  0.1055
 9004TIP3   OH226975   2.390   5.032   1.282 -0.1723 -0.3260  0.1687
 9004TIP3    H126976   2.380   5.109   1.337 -0.7234  0.9060 -1.5621
 9004TIP3    H226977   2.401   4.959   1.343  0.0802  1.0744  1.8497
 9005TIP3   OH226978   2.976   5.207   3.909 -0.2937 -0.1205 -0.1942
 9005TIP3    H126979   3.039   5.260   3.959  2.1154 -1.1304 -1.9653
 9005TIP3    H226980   2.979   5.121   3.950 -2.1716  0.3314  0.9993
 9006TIP3   OH226981   2.719   6.191   2.282  0.2764  0.3280  0.4693
 9006TIP3    H126982   2.787   6.247   2.246  0.0146 -0.0850 -0.6891
 9006TIP3    H226983   2.646   6.199   2.220 -0.3688 -0.0151  1.1666
 9007TIP3   OH226984   5.161   4.027   1.804 -0.3123 -0.3462 -0.0272
 9007TIP3    H126985   5.203   3.947   1.836  0.1499 -0.0875  0.0278
 9007TIP3    H226986   5.067   4.010   1.811 -0.2679 -1.7197 -2.1067
 9008TIP3   OH226987   1.018   4.822   5.807 -0.4706  0.2468 -0.2694
 9008TIP3    H126988   1.073   4.748   5.781  3.1118  1.9268  1.7801
 9008TIP3    H226989   1.049   4.895   5.754 -0.8055  1.2203  0.8222
 9009TIP3   OH226990   5.691   5.566   2.539  0.6725 -0.3020 -0.0135
 9009TIP3    H126991   5.628   5.632   2.511  2.4377  1.5121  0.0192
 9009TIP3    H226992   5.688   5.570   2.635  1.0438  0.0190 -0.0126
 9010TIP3   OH226993   3.618   6.578   1.474  0.0566 -0.9452 -0.2133
 9010TIP3    H126994   3.655   6.495   1.502  0.3294 -0.6766  0.2416
 9010TIP3    H226995   3.536   6.586   1.523  0.6087 -0.4039  0.6586
 9011TIP3   OH226996   5.075   4.966   0.307  0.0270  0.2664  0.2218
 9011TIP3    H126997   4.982   4.942   0.302 -0.3023  1.6273 -0.5200
 9011TIP3    H226998   5.111   4.906   0.373 -1.8380  1.0817  2.1224
 9012TIP3   OH226999   1.114   2.051   5.753  0.4141 -1.0176  0.0971
 9012TIP3    H127000   1.052   2.058   5.826  0.6677  0.3205  0.2005
 9012TIP3    H227001   1.059   2.028   5.678 -0.2676  0.3853  0.1411
 9013TIP3   OH227002   6.224   0.064   3.268 -0.0643  0.0332  0.5279
 9013TIP3    H127003   6.214  -0.022   3.308 -0.9980  0.1606  0.5753
 9013TIP3    H227004   6.178   0.057   3.184  0.3547  0.3160  0.2651
 9014TIP3   OH227005   4.950   4.242   0.337 -0.3397 -0.0810 -0.0156
 9014TIP3    H127006   4.977   4.197   0.417 -0.9349  0.5888  0.5825
 9014TIP3    H227007   4.893   4.180   0.292 -1.4945  0.1927  1.0102
 9015TIP3   OH227008   5.146   2.175   2.086  0.1869 -0.1835 -0.2799
 9015TIP3    H127009   5.194   2.185   2.168 -1.0709  0.7666  0.3768
 9015TIP3    H227010   5.214   2.174   2.018  1.1934 -0.0771  0.7042
 9016TIP3   OH227011   0.198   0.850   0.732 -0.1460  0.2614  0.3050
 9016TIP3    H127012   0.285   0.891   0.726  1.1245 -2.3464 -1.0061
 9016TIP3    H227013   0.161   0.883   0.814  1.0712  3.2187 -0.1978
 9017TIP3   OH227014   5.841   1.073   3.695  0.0787 -0.3065 -0.1497
 9017TIP3    H127015   5.881   1.018   3.628 -1.5007 -1.9946  0.2069
 9017TIP3    H227016   5.856   1.026   3.777  1.1329  1.2424  0.5848
 9018TIP3   OH227017   6.766   5.967   1.636 -0.1715 -0.2569  0.1844
 9018TIP3    H127018   6.853   5.999   1.612 -0.4296  1.1188  0.9531
 9018TIP3    H227019   6.769   5.957   1.731 -0.8772 -0.0785  0.2340
 9019TIP3   OH227020   3.094   0.893   0.141  0.5111 -0.3067 -0.3148
 9019TIP3    H127021   3.053   0.847   0.067  0.9054  0.0418 -0.7597
 9019TIP3    H227022   3.183   0.857   0.145  0.7743  0.3037 -0.5744
 9020TIP3   OH227023   0.538   0.515   5.729  0.3395  0.2275 -0.6980
 9020TIP3    H127024   0.469   0.569   5.689 -0.6877  0.6574  1.5262
 9020TIP3    H227025   0.503   0.426   5.727 -0.4352  0.4799  0.6510
 9021TIP3   OH227026   3.375   4.662   0.625  0.0873  0.2938 -0.4762
 9021TIP3    H127027   3.345   4.635   0.538 -1.1848 -0.8942  0.2817
 9021TIP3    H227028   3.468   4.638   0.626  0.1332  0.3552 -1.5147
 9022TIP3   OH227029   3.309   5.303   3.913  0.2008 -0.0297  0.1623
 9022TIP3    H127030   3.386   5.318   3.967  1.0631  1.4398 -1.3853
 9022TIP3    H227031   3.240   5.355   3.953  0.4273 -0.1036  0.6519
 9023TIP3   OH227032   2.838   2.083   3.122  0.0985 -0.3641  0.1929
 9023TIP3    H127033   2.911   2.022   3.112  1.0133  0.8445 -0.9485
 9023TIP3    H227034   2.867   2.144   3.189  1.0456  1.2726 -1.5993
 9024TIP3   OH227035   5.044   3.330   4.007  0.3299 -0.1300  0.3912
 9024TIP3    H127036   5.015   3.240   3.994 -0.3595  0.0522  0.6629
 9024TIP3    H227037   5.136   3.322   4.033  0.0268 -0.8145  1.2966
 9025TIP3   OH227038   5.879   5.842   0.472 -0.0327 -0.0311  0.0799
 9025TIP3    H127039   5.971   5.825   0.452 -0.0401  0.0957 -0.0569
 9025TIP3    H227040   5.836   5.842   0.387 -0.3556 -1.2704  0.2130
 9026TIP3   OH227041   4.581   5.087   3.076 -0.0544 -0.2594 -0.0519
 9026TIP3    H127042   4.573   5.165   3.021  1.1172  0.0130  0.1316
 9026TIP3    H227043   4.540   5.017   3.026  0.9746 -0.0166 -1.2923
 9027TIP3   OH227044   4.109   3.800   1.860 -0.0976 -0.0205  0.2173
 9027TIP3    H127045   4.140   3.889   1.842 -1.3654  0.5448  0.6861
 9027TIP3    H227046   4.023   3.813   1.900 -1.0717 -1.4938 -1.2445
 9028TIP3   OH227047   5.011   2.863   3.108  0.2282  0.1667  0.0914
 9028TIP3    H127048   4.918   2.885   3.116 -0.3959 -1.9574 -0.6016
 9028TIP3    H227049   5.018   2.820   3.023  1.3468 -1.9202  1.1733
 9029TIP3   OH227050   4.914   4.880   1.439 -0.2793  0.4285  0.2653
 9029TIP3    H127051   4.843   4.825   1.471  0.4058 -1.4950 -1.3054
 9029TIP3    H227052   4.877   4.926   1.364 -0.5769  1.4168  1.0032
 9030TIP3   OH227053   2.554   3.572   1.814 -0.1723  0.1854  1.1319
 9030TIP3    H127054   2.621   3.587   1.881  0.2062 -0.8195  0.9992
 9030TIP3    H227055   2.509   3.492   1.842 -0.4677  0.1432  0.5492
 9031TIP3   OH227056   2.176   5.230   0.251 -0.4441  0.0275 -0.0046
 9031TIP3    H127057   2.208   5.142   0.228  0.9750  0.3372  0.6711
 9031TIP3    H227058   2.188   5.235   0.346 -0.5776  0.9337 -0.0296
 9032TIP3   OH227059   1.525   2.252   0.025  0.0810 -0.3793 -0.2352
 9032TIP3    H127060   1.524   2.325   0.087 -2.4731 -0.8836  0.4226
 9032TIP3    H227061   1.445   2.263  -0.026  1.5094 -0.6536 -2.7231
 9033TIP3   OH227062   3.925   4.492   0.776  0.0114 -0.3418 -0.3947
 9033TIP3    H127063   4.009   4.475   0.731 -0.0596 -0.1142 -0.6121
 9033TIP3    H227064   3.873   4.541   0.712 -0.2250 -0.3315 -0.1947
 9034TIP3   OH227065   4.187   0.669   0.661  0.1895 -0.3143 -0.4480
 9034TIP3    H127066   4.158   0.579   0.675  0.4449 -0.1775  1.1530
 9034TIP3    H227067   4.278   0.669   0.690 -0.9141  1.3303  3.6584
 9035TIP3   OH227068   6.315   4.680   0.670  0.1790 -0.0305 -0.2106
 9035TIP3    H127069   6.269   4.647   0.747 -0.3298 -0.3464 -0.6468
 9035TIP3    H227070   6.305   4.611   0.605  1.1932 -0.0676 -0.3471
 9036TIP3   OH227071   7.053   3.079   1.591 -0.3619 -0.3321 -0.1336
 9036TIP3    H127072   7.057   3.063   1.685  0.5443 -0.7024 -0.2172
 9036TIP3    H227073   7.019   3.168   1.582  0.8956  0.2422  0.6043
 9037TIP3   OH227074   2.718   2.031   2.396  0.6803 -0.4455  0.1603
 9037TIP3    H127075   2.729   2.084   2.316  0.1776  0.6191  0.7752
 9037TIP3    H227076   2.807   2.022   2.430  0.7911 -0.0802 -0.0172
 9038TIP3   OH227077   4.321   5.994   2.883 -0.2899  0.0059  0.2786
 9038TIP3    H127078   4.386   5.972   2.950 -0.2397 -0.9984 -0.0868
 9038TIP3    H227079   4.370   5.991   2.801 -0.0334  2.5103  0.2541
 9039TIP3   OH227080   4.131   6.308   0.840  0.4953  0.0704  0.5194
 9039TIP3    H127081   4.124   6.286   0.933  0.9486 -2.0409  0.0994
 9039TIP3    H227082   4.104   6.400   0.836  2.3399  0.8307  2.9849
 9040TIP3   OH227083   1.873   2.348   0.182 -0.4723 -0.1696 -0.2538
 9040TIP3    H127084   1.876   2.321   0.090 -2.3882  0.2958 -0.5058
 9040TIP3    H227085   1.790   2.394   0.190  0.7786  1.9801  1.1503
 9041TIP3   OH227086   2.014   6.733   4.130  0.4843  0.2368  0.3591
 9041TIP3    H127087   1.924   6.704   4.145  0.5743 -0.1585  0.1421
 9041TIP3    H227088   2.006   6.826   4.109  0.0544  0.0506 -0.3461
 9042TIP3   OH227089   6.493   3.490   2.984 -0.2147 -0.8676  0.0286
 9042TIP3    H127090   6.419   3.480   3.044 -1.5058  1.4426 -1.0366
 9042TIP3    H227091   6.463   3.449   2.903  1.4730 -3.8599  0.7682
 9043TIP3   OH227092   5.613   1.688   3.061 -0.4237  0.0656 -0.1522
 9043TIP3    H127093   5.697   1.735   3.061  0.0234 -0.6381  1.7107
 9043TIP3    H227094   5.637   1.598   3.086 -1.6320 -0.3458 -0.4545
 9044TIP3   OH227095   6.872   1.593   3.710  0.1703 -0.6854  0.4631
 9044TIP3    H127096   6.942   1.636   3.660  0.4494 -2.0367 -0.3741
 9044TIP3    H227097   6.796   1.651   3.701  0.5998 -0.2435 -0.3961
 9045TIP3   OH227098   5.102   6.596   4.774  0.2801  0.0033 -0.3744
 9045TIP3    H127099   5.033   6.662   4.778  0.2349  0.0098 -1.0506
 9045TIP3    H227100   5.181   6.642   4.803 -0.0337 -0.0648  0.6139
 9046TIP3   OH227101   6.529   5.838   5.773 -0.1963 -0.0103  0.0936
 9046TIP3    H127102   6.592   5.770   5.797 -0.2651 -0.2845 -0.4985
 9046TIP3    H227103   6.484   5.803   5.697 -1.2883  0.0490  0.6997
 9047TIP3   OH227104   5.562   2.853   3.257  0.0848 -0.1024  0.0102
 9047TIP3    H127105   5.550   2.945   3.233  0.7812  0.0218  0.1368
 9047TIP3    H227106   5.631   2.853   3.323  0.8790 -0.8145 -0.7839
 9048TIP3   OH227107   5.604   1.697   0.856  0.3055  0.2244  1.0315
 9048TIP3    H127108   5.583   1.725   0.767  0.7483  0.5083  1.0127
 9048TIP3    H227109   5.573   1.607   0.861  1.9350 -0.4290 -0.0082
 9049TIP3   OH227110   1.848   0.660   3.828  0.4458 -0.3022  0.1785
 9049TIP3    H127111   1.866   0.567   3.816 -0.0911 -0.4607  0.5521
 9049TIP3    H227112   1.825   0.692   3.741  2.0630 -0.1841 -0.2394
 9050TIP3   OH227113   5.657   3.213   2.004 -0.0790 -0.0446 -0.2052
 9050TIP3    H127114   5.605   3.154   1.950  1.8361 -2.3346  0.2938
 9050TIP3    H227115   5.597   3.241   2.073 -1.2479 -0.8127 -0.8679
 9051TIP3   OH227116   0.295   5.445   2.980 -0.0667 -0.2376 -0.3284
 9051TIP3    H127117   0.307   5.350   2.991  0.6948 -0.1611 -0.4687
 9051TIP3    H227118   0.352   5.468   2.907  2.3921  0.8899  1.7694
 9052TIP3   OH227119   6.600   2.166   4.233  0.0828 -0.1570 -0.6371
 9052TIP3    H127120   6.695   2.168   4.248 -0.0687 -0.6397  0.4829
 9052TIP3    H227121   6.588   2.215   4.151  1.2506  0.2696 -0.5789
 9053TIP3   OH227122   1.960   4.697   4.975 -0.4922  0.8062 -0.0854
 9053TIP3    H127123   1.985   4.750   5.051  0.6060  0.3666 -0.1358
 9053TIP3    H227124   1.927   4.761   4.912  2.6604  1.7737 -0.9299
 9054TIP3   OH227125   5.308   0.105   1.609  0.3160 -0.3691  0.3303
 9054TIP3    H127126   5.356   0.036   1.564  0.7572  0.0485  0.1609
 9054TIP3    H227127   5.309   0.078   1.701  1.0479 -0.2572  0.3576
 9055TIP3   OH227128   6.853   3.852   3.919  0.4047 -0.1338 -0.3526
 9055TIP3    H127129   6.852   3.802   3.837 -0.8205 -0.3339 -0.2393
 9055TIP3    H227130   6.903   3.799   3.980  0.6281 -0.3720 -0.7404
 9056TIP3   OH227131   4.864   5.890   3.033 -0.9350  0.3911 -0.1095
 9056TIP3    H127132   4.912   5.960   3.077  0.1278 -0.8240  0.7125
 9056TIP3    H227133   4.772   5.918   3.038 -0.9302  0.2846  3.0917
 9057TIP3   OH227134   0.305   4.134   3.261  0.1177 -0.4682 -0.5162
 9057TIP3    H127135   0.339   4.219   3.288 -2.6086  0.0893  1.7578
 9057TIP3    H227136   0.335   4.073   3.329 -1.5408 -0.3476  0.3960
 9058TIP3   OH227137   5.232   0.643   2.783 -0.2737  0.0427 -0.5809
 9058TIP3    H127138   5.297   0.590   2.830 -0.0654  0.2929 -0.5920
 9058TIP3    H227139   5.148   0.612   2.817 -0.1222  0.2388 -0.0214
 9059TIP3   OH227140   6.695   6.490   0.090 -0.2145 -0.2761 -0.3303
 9059TIP3    H127141   6.783   6.524   0.081 -0.8004  0.9279 -1.9832
 9059TIP3    H227142   6.685   6.430   0.015 -0.5856 -0.8921  0.2047
 9060TIP3   OH227143   1.621   4.942   2.898  0.0291 -0.1904 -0.0876
 9060TIP3    H127144   1.606   5.037   2.892 -1.4652 -0.3855  0.2280
 9060TIP3    H227145   1.535   4.906   2.920  0.7650 -1.5429  0.6564
 9061TIP3   OH227146   3.914   0.847   4.757  0.7536 -0.4582  0.2767
 9061TIP3    H127147   3.977   0.865   4.687  1.2296  0.3053  0.8767
 9061TIP3    H227148   3.836   0.898   4.734  1.5328  1.2446  1.1573
 9062TIP3   OH227149   3.630   3.709   4.645  0.1318  0.2658 -0.1220
 9062TIP3    H127150   3.592   3.705   4.557 -0.6807 -1.1141  0.2644
 9062TIP3    H227151   3.558   3.740   4.701  0.2727 -0.0663  0.2508
 9063TIP3   OH227152   5.754   0.452   3.707 -0.0264 -0.4190 -0.1448
 9063TIP3    H127153   5.766   0.544   3.685  1.8158 -0.9491 -1.6977
 9063TIP3    H227154   5.828   0.431   3.764 -0.6573 -0.8398  0.5262
 9064TIP3   OH227155   5.971   6.710   2.242  1.0219  0.3182  0.3318
 9064TIP3    H127156   5.974   6.706   2.338 -0.1141 -0.0516  0.3593
 9064TIP3    H227157   5.903   6.775   2.223  1.6937  0.8759 -0.2372
 9065TIP3   OH227158   3.312   1.913   2.116  0.1372 -0.0604  0.2078
 9065TIP3    H127159   3.284   1.972   2.046 -0.8223 -0.4779  0.2141
 9065TIP3    H227160   3.319   1.969   2.193 -0.5855  0.0944  0.1716
 9066TIP3   OH227161   5.846   1.924   5.275  0.2563  0.7187  0.1133
 9066TIP3    H127162   5.752   1.906   5.265  0.3923 -1.6253  2.0453
 9066TIP3    H227163   5.850   1.991   5.343 -0.0256  0.2239  0.6307
 9067TIP3   OH227164   0.474   4.378   3.934  0.1051  0.2105  0.3112
 9067TIP3    H127165   0.536   4.446   3.961 -0.1732  0.5619  0.0723
 9067TIP3    H227166   0.421   4.362   4.013  1.0029 -0.6609  0.7585
 9068TIP3   OH227167   2.984   1.108   5.057  0.1563 -0.1952  0.0925
 9068TIP3    H127168   2.975   1.080   5.148  0.9967 -2.6867 -0.5128
 9068TIP3    H227169   3.066   1.156   5.055  0.3404 -0.4810  0.5814
 9069TIP3   OH227170   6.721   6.827   2.248 -0.4423 -0.3153  0.4106
 9069TIP3    H127171   6.739   6.859   2.159 -1.1127 -1.2381 -0.0795
 9069TIP3    H227172   6.677   6.743   2.234  0.1191 -0.8388  1.6308
 9070TIP3   OH227173   6.233   5.837   3.746  0.1331 -0.6202 -0.3321
 9070TIP3    H127174   6.139   5.821   3.748  0.0914 -0.3925  1.8148
 9070TIP3    H227175   6.248   5.903   3.812  1.9647 -1.6686  0.3837
 9071TIP3   OH227176   5.722   2.223   2.519  0.3996  0.2193  0.1627
 9071TIP3    H127177   5.664   2.165   2.470  1.3973 -0.7005  0.0322
 9071TIP3    H227178   5.696   2.311   2.493 -2.0439 -0.0520  1.3500
 9072TIP3   OH227179   1.860   3.733   5.096  0.0779  0.0517  0.0786
 9072TIP3    H127180   1.768   3.737   5.119  0.4326  0.7942  1.4632
 9072TIP3    H227181   1.861   3.700   5.006 -1.5386  0.2952 -0.0521
 9073TIP3   OH227182   1.187   2.135   1.452 -0.0867  0.0658  0.5940
 9073TIP3    H127183   1.117   2.078   1.481 -0.0126 -0.6072 -0.5115
 9073TIP3    H227184   1.156   2.173   1.370  1.6445 -1.9573 -1.1371
 9074TIP3   OH227185   0.350   3.588   0.832  0.2183 -0.3622 -0.3074
 9074TIP3    H127186   0.298   3.509   0.844  0.9627 -1.4214 -3.3075
 9074TIP3    H227187   0.292   3.648   0.785  0.5097 -0.1318 -0.3754
 9075TIP3   OH227188   1.786   1.208   3.236 -0.5852  0.4621  0.4077
 9075TIP3    H127189   1.771   1.267   3.162  0.6510  0.1650 -0.1073
 9075TIP3    H227190   1.820   1.128   3.196  2.3161  1.0829  1.3965
 9076TIP3   OH227191   5.739   1.405   5.158  0.8189 -0.4415  0.4860
 9076TIP3    H127192   5.700   1.444   5.236  0.0018 -0.9996  0.3695
 9076TIP3    H227193   5.744   1.311   5.177  2.1896 -0.3899  0.5211
 9077TIP3   OH227194   4.628   1.894   0.165  0.0499 -0.0283  0.0900
 9077TIP3    H127195   4.549   1.851   0.132 -0.7778  1.5008 -0.0191
 9077TIP3    H227196   4.677   1.824   0.209 -1.3048 -1.0319  0.0744
 9078TIP3   OH227197   1.636   1.685   2.827  0.5088  0.1597  0.3414
 9078TIP3    H127198   1.555   1.727   2.799 -1.1975 -1.4533  2.4510
 9078TIP3    H227199   1.641   1.604   2.776  0.1412 -0.3066  1.0324
 9079TIP3   OH227200   5.061   2.734   0.974  0.0648 -0.1651  0.0844
 9079TIP3    H127201   5.122   2.759   1.043  0.9794 -3.9189  0.8633
 9079TIP3    H227202   4.996   2.680   1.018 -0.0504 -1.6127 -1.7498
 9080TIP3   OH227203   3.815   0.113   1.156  0.0384  0.6854 -0.8270
 9080TIP3    H127204   3.802   0.164   1.236 -1.5187 -0.1584 -0.5000
 9080TIP3    H227205   3.909   0.115   1.141  0.1852  2.2190  0.1075
 9081TIP3   OH227206   1.612   5.801   1.106  0.2160 -0.3208  0.0786
 9081TIP3    H127207   1.538   5.802   1.045 -0.7352 -1.1523  1.1576
 9081TIP3    H227208   1.687   5.831   1.055 -0.9301  0.8462 -0.9743
 9082TIP3   OH227209   7.142   1.230   1.610  0.4259  0.1023 -0.5184
 9082TIP3    H127210   7.216   1.231   1.549 -1.1883 -1.0327 -2.6221
 9082TIP3    H227211   7.081   1.166   1.573 -1.2317  0.3127  1.6298
 9083TIP3   OH227212   3.858   2.661   1.985  0.2253  0.2325  0.0862
 9083TIP3    H127213   3.933   2.635   2.037  0.6838  0.8780 -0.2346
 9083TIP3    H227214   3.824   2.739   2.029  1.3358  1.5082 -1.1943
 9084TIP3   OH227215   7.124   2.898   3.041  0.3294 -0.1046  0.2247
 9084TIP3    H127216   7.113   2.820   3.096 -0.7797 -0.4436 -0.4499
 9084TIP3    H227217   7.062   2.886   2.969 -0.3879  1.7376  0.4762
 9085TIP3   OH227218   5.949   1.316   1.964 -0.5872  0.4581  0.2460
 9085TIP3    H127219   6.041   1.337   1.949 -0.5724 -0.8328 -1.9949
 9085TIP3    H227220   5.949   1.262   2.043  0.9462 -1.3629 -0.8890
 9086TIP3   OH227221   4.624   6.194   2.110 -0.3167 -0.2192 -0.4603
 9086TIP3    H127222   4.578   6.233   2.184 -0.6877 -0.4902 -0.5440
 9086TIP3    H227223   4.582   6.109   2.098  3.7465 -3.1650  3.0547
 9087TIP3   OH227224   5.334   6.673   4.522  0.7228 -0.0538 -0.2029
 9087TIP3    H127225   5.249   6.709   4.497  0.8235  0.4722  0.1833
 9087TIP3    H227226   5.342   6.695   4.615  1.9877  1.3356 -0.6063
 9088TIP3   OH227227   0.212   6.132   1.506  0.2542  0.4785 -0.2073
 9088TIP3    H127228   0.167   6.072   1.564 -2.1189  1.9960 -0.3601
 9088TIP3    H227229   0.234   6.207   1.560  1.2322  0.4206 -0.5013
 9089TIP3   OH227230   0.886   2.087   2.155 -0.2916 -0.8146 -0.3684
 9089TIP3    H127231   0.868   2.005   2.110  0.9677 -0.6115 -1.3076
 9089TIP3    H227232   0.927   2.142   2.088 -0.0578  0.1595  0.5479
 9090TIP3   OH227233   3.494   5.363   0.120  0.2756  0.6327 -0.3354
 9090TIP3    H127234   3.568   5.335   0.066  0.0271  2.2337 -1.5694
 9090TIP3    H227235   3.493   5.301   0.194  0.2827 -1.9946 -2.4067
 9091TIP3   OH227236   0.672   1.800   3.988 -0.5224 -0.4369  1.0647
 9091TIP3    H127237   0.580   1.775   3.994 -0.3581 -1.3260  0.2105
 9091TIP3    H227238   0.719   1.728   4.031 -0.1908 -0.3857  0.7928
 9092TIP3   OH227239   0.245   2.885   4.450 -0.1676 -0.0623  0.3572
 9092TIP3    H127240   0.159   2.914   4.418 -0.9991 -1.6802  0.9700
 9092TIP3    H227241   0.303   2.895   4.375 -1.0385  0.5015 -0.2633
 9093TIP3   OH227242   2.677   5.426   5.703  0.0249  0.4952  0.1301
 9093TIP3    H127243   2.672   5.355   5.639  0.0547  0.4895  0.1342
 9093TIP3    H227244   2.588   5.462   5.705 -0.2141 -0.0859  0.7413
 9094TIP3   OH227245   0.727   1.300   1.964 -0.1887  0.2716  0.8443
 9094TIP3    H127246   0.795   1.366   1.950  0.6321 -0.6015  0.5936
 9094TIP3    H227247   0.723   1.289   2.059  0.7408 -0.3911  0.8149
 9095TIP3   OH227248   5.874   3.206   4.754 -0.1361 -0.0008  0.6298
 9095TIP3    H127249   5.861   3.290   4.711 -0.5569  0.0604  0.8710
 9095TIP3    H227250   5.930   3.157   4.695  1.4699  1.0294  1.2151
 9096TIP3   OH227251   5.094   1.047   1.826  0.2789  0.1745  0.2437
 9096TIP3    H127252   5.168   1.099   1.796 -0.3234  1.1229  0.3475
 9096TIP3    H227253   5.058   1.008   1.746 -0.3690  1.4195 -0.1018
 9097TIP3   OH227254   6.090   3.525   0.175 -0.5780  0.7698  0.4198
 9097TIP3    H127255   6.066   3.591   0.239  0.4961  1.9893 -0.3772
 9097TIP3    H227256   6.185   3.518   0.181 -0.7754 -3.2022  2.8103
 9098TIP3   OH227257   6.923   5.314   4.592  0.0132 -0.0457 -0.2734
 9098TIP3    H127258   6.864   5.384   4.620  0.8760  0.1899  1.0842
 9098TIP3    H227259   6.946   5.336   4.502  0.3010  1.4758  0.1357
 9099TIP3   OH227260   2.050   6.754   1.271 -0.3996 -0.7759  0.5533
 9099TIP3    H127261   2.086   6.842   1.268  0.1862 -1.0441 -1.0838
 9099TIP3    H227262   1.972   6.762   1.327  0.1356  0.5644  1.1601
 9100TIP3   OH227263   6.053   6.225   0.386 -1.0018  0.3413 -0.1739
 9100TIP3    H127264   5.959   6.239   0.391 -0.7411  2.3771  0.0211
 9100TIP3    H227265   6.076   6.241   0.295 -0.5135  2.6829  0.3064
 9101TIP3   OH227266   1.462   6.172   2.798  0.7032 -0.1339  0.2232
 9101TIP3    H127267   1.409   6.216   2.732  0.3824  0.4999  0.8860
 9101TIP3    H227268   1.450   6.079   2.780  0.5711  0.0280 -0.5646
 9102TIP3   OH227269   6.493   1.944   4.456 -0.0559 -0.1609 -0.2471
 9102TIP3    H127270   6.477   2.005   4.528 -2.5025  1.8528 -2.2948
 9102TIP3    H227271   6.583   1.963   4.429  0.4393 -0.0317  1.3978
 9103TIP3   OH227272   5.854   0.124   1.953 -0.5807  0.4802  0.1232
 9103TIP3    H127273   5.864   0.034   1.920  0.3689 -0.1362  1.9851
 9103TIP3    H227274   5.759   0.134   1.964 -0.6533 -0.6276  0.7024
 9104TIP3   OH227275   1.697   1.970   2.555  0.7633 -0.0491 -0.3340
 9104TIP3    H127276   1.618   2.021   2.538  0.6377 -0.2721 -0.4236
 9104TIP3    H227277   1.769   2.025   2.523  0.4588 -0.9940 -2.9147
 9105TIP3   OH227278   2.742   0.551   2.001 -0.0179 -0.4216  0.3475
 9105TIP3    H127279   2.750   0.457   2.014  2.0459 -0.5395 -1.1531
 9105TIP3    H227280   2.775   0.565   1.912 -1.7484  1.5591 -0.0506
 9106TIP3   OH227281   1.910   4.815   3.038 -0.1020  0.0319 -0.1538
 9106TIP3    H127282   1.922   4.788   2.947 -0.7213  1.2263 -0.6061
 9106TIP3    H227283   1.820   4.790   3.058 -0.9357  2.2763 -0.8086
 9107TIP3   OH227284   6.912   0.646   5.139 -0.0388 -0.2306 -0.1103
 9107TIP3    H127285   6.827   0.665   5.180 -0.2906 -0.4550 -0.5073
 9107TIP3    H227286   6.977   0.682   5.199 -0.2922 -2.2884  1.5278
 9108TIP3   OH227287   0.534   5.119   5.822 -0.5056  0.0385 -0.2660
 9108TIP3    H127288   0.440   5.134   5.815 -0.1030  2.9191 -0.7621
 9108TIP3    H227289   0.542   5.042   5.880 -3.1252 -1.1388 -1.3135
 9109TIP3   OH227290   2.628   2.852   3.690  0.1519 -0.4901  0.1611
 9109TIP3    H127291   2.534   2.866   3.682  0.1023 -1.4208 -1.3300
 9109TIP3    H227292   2.663   2.937   3.717 -0.7431  0.8689 -2.5922
 9110TIP3   OH227293   4.909   5.349   5.144  0.0171 -0.3993  0.9790
 9110TIP3    H127294   4.893   5.366   5.237 -3.9159  0.5097  0.3276
 9110TIP3    H227295   4.927   5.435   5.106  1.7651 -0.7871  0.8684
 9111TIP3   OH227296   6.187   6.666   2.073  0.2559 -0.4021  0.6046
 9111TIP3    H127297   6.098   6.694   2.094  0.0227  0.4639 -1.3145
 9111TIP3    H227298   6.203   6.699   1.984  3.0793  0.8521  1.4530
 9112TIP3   OH227299   6.159   4.332   2.464 -0.4154  0.3696  0.1969
 9112TIP3    H127300   6.206   4.252   2.489 -1.6945 -0.3941  0.2527
 9112TIP3    H227301   6.190   4.399   2.525  0.5343 -0.1215  0.2705
 9113TIP3   OH227302   4.399   1.723   0.541 -0.0846 -0.3568 -0.9212
 9113TIP3    H127303   4.425   1.739   0.631 -0.0674 -1.5570 -0.6878
 9113TIP3    H227304   4.403   1.808   0.499 -1.9808  0.5873  0.6745
 9114TIP3   OH227305   4.467   6.018   1.534  0.3155 -0.0284  0.1356
 9114TIP3    H127306   4.375   6.008   1.559  0.0390  0.2704 -0.7218
 9114TIP3    H227307   4.464   6.048   1.443  1.2534  0.4091  0.2345
 9115TIP3   OH227308   2.225   5.016   5.617  0.2943 -0.0050  0.2437
 9115TIP3    H127309   2.268   4.964   5.685 -0.3897 -1.5853 -0.4725
 9115TIP3    H227310   2.235   4.964   5.537 -0.5449  0.8994 -0.4775
 9116TIP3   OH227311   4.885   0.688   1.512  0.1405  0.0851 -0.8599
 9116TIP3    H127312   4.938   0.608   1.508 -0.2989 -0.1967 -1.1058
 9116TIP3    H227313   4.810   0.665   1.567  0.6554  0.7171  0.1343
 9117TIP3   OH227314   0.056   4.454   3.028  0.2054  0.9378  0.5140
 9117TIP3    H127315   0.117   4.402   2.975 -0.5890  1.0192 -0.5103
 9117TIP3    H227316  -0.024   4.457   2.976 -0.3527  1.6667  1.3929
 9118TIP3   OH227317   2.053   6.214   4.033 -0.3407  0.1626  0.5854
 9118TIP3    H127318   2.130   6.159   4.046  0.6666  1.7007  1.4252
 9118TIP3    H227319   1.995   6.193   4.106 -0.6618 -0.8624  0.0551
 9119TIP3   OH227320   5.349   2.433   2.075 -0.0735 -0.2025 -0.0093
 9119TIP3    H127321   5.285   2.453   2.007 -0.8044 -0.2472  0.6430
 9119TIP3    H227322   5.342   2.506   2.136  1.4944  0.4912 -0.6087
 9120TIP3   OH227323   2.825   6.705   4.108  0.6007  0.2252  0.1343
 9120TIP3    H127324   2.879   6.644   4.159  0.7030  1.0180  0.9960
 9120TIP3    H227325   2.856   6.792   4.134 -0.2432  0.6672 -0.3131
 9121TIP3   OH227326   5.419   3.924   3.527 -0.0768  0.1123 -0.2449
 9121TIP3    H127327   5.408   3.961   3.615 -0.3679 -1.2938  0.3283
 9121TIP3    H227328   5.365   3.845   3.526  0.2198 -0.1078 -1.5665
 9122TIP3   OH227329   3.837   6.375   3.542  0.3513  0.3970  0.2379
 9122TIP3    H127330   3.929   6.348   3.537 -0.1142 -1.1483 -0.7804
 9122TIP3    H227331   3.811   6.388   3.450 -0.1007  2.1555  0.5805
 9123TIP3   OH227332   0.570   0.455   4.561  0.2244 -0.0165 -0.4284
 9123TIP3    H127333   0.610   0.528   4.608 -0.0269  0.4718 -0.9557
 9123TIP3    H227334   0.484   0.444   4.601  0.3173 -0.1083 -0.2576
 9124TIP3   OH227335   6.080   0.341   4.471 -0.0327 -0.2383  0.3462
 9124TIP3    H127336   6.064   0.318   4.563 -0.5314 -0.6145  0.1691
 9124TIP3    H227337   6.087   0.257   4.426  0.6472 -0.0557  0.1103
 9125TIP3   OH227338   1.047   0.956   0.184  0.4309 -0.3396  0.6606
 9125TIP3    H127339   0.982   0.984   0.248  0.3357  1.4458 -0.1733
 9125TIP3    H227340   1.024   1.003   0.104  0.8453 -2.1312 -0.5794
 9126TIP3   OH227341   0.118   0.405   1.400 -0.0594  0.1912  0.6865
 9126TIP3    H127342   0.205   0.382   1.369 -0.9674 -1.9946 -0.4699
 9126TIP3    H227343   0.075   0.322   1.419 -2.5136  1.0295 -0.6325
 9127TIP3   OH227344   2.697   0.895   3.294  0.0333 -0.3329 -0.4905
 9127TIP3    H127345   2.781   0.866   3.260  0.8155  0.2771  0.8319
 9127TIP3    H227346   2.711   0.902   3.389 -1.2197  0.7103 -0.3619
 9128TIP3   OH227347   5.145   6.106   1.220  0.1393 -0.1611  0.1704
 9128TIP3    H127348   5.127   6.069   1.134 -0.8641 -0.7456  0.6104
 9128TIP3    H227349   5.150   6.030   1.278  0.4537  0.2456  0.6847
 9129TIP3   OH227350   6.908   2.884   1.827  0.3570 -0.3957 -0.4529
 9129TIP3    H127351   6.899   2.882   1.922  1.9609  1.6698 -0.1713
 9129TIP3    H227352   6.907   2.793   1.800 -0.4669 -1.0122  1.4990
 9130TIP3   OH227353   5.958   0.244   4.989  0.4698  0.5528  0.7911
 9130TIP3    H127354   5.868   0.277   4.990  0.6140  1.0019  2.4380
 9130TIP3    H227355   6.005   0.304   4.933  0.2705  1.9114  2.0214
 9131TIP3   OH227356   6.953   0.902   5.197 -0.2692 -0.0949  0.1572
 9131TIP3    H127357   7.029   0.889   5.140 -1.4952  0.5165 -1.6964
 9131TIP3    H227358   6.933   0.995   5.189 -0.6850 -0.0648  1.3664
 9132TIP3   OH227359   2.458   5.911   5.773 -0.0603  0.0692  0.1662
 9132TIP3    H127360   2.439   5.944   5.861  1.6805  0.9260  0.2619
 9132TIP3    H227361   2.552   5.893   5.773 -0.0069  0.1185 -1.5272
 9133TIP3   OH227362   5.523   4.122   5.358 -0.8895 -0.1166 -0.2729
 9133TIP3    H127363   5.444   4.153   5.402 -0.3495  1.4222 -0.2959
 9133TIP3    H227364   5.573   4.202   5.341  2.4429 -1.2023  3.0385
 9134TIP3   OH227365   2.760   6.264   0.327  0.2591 -0.0214 -0.5348
 9134TIP3    H127366   2.770   6.206   0.252 -0.9001 -0.4790 -0.3479
 9134TIP3    H227367   2.810   6.221   0.397  0.8502  0.1132 -0.8616
 9135TIP3   OH227368   3.221   2.378   5.454 -0.1998 -0.0326  0.4247
 9135TIP3    H127369   3.265   2.319   5.515 -0.4427  0.4262  1.0616
 9135TIP3    H227370   3.205   2.458   5.505  1.7752  1.3097 -0.9239
 9136TIP3   OH227371   4.632   6.223   5.358  0.7270  0.3606 -0.0577
 9136TIP3    H127372   4.655   6.133   5.336 -2.5368 -0.3592 -0.9815
 9136TIP3    H227373   4.684   6.242   5.436  1.6297 -2.2488  0.0761
 9137TIP3   OH227374   1.883   3.147   4.129 -0.0676 -0.0625 -0.1288
 9137TIP3    H127375   1.943   3.181   4.062  0.4847 -1.8122 -0.5749
 9137TIP3    H227376   1.877   3.218   4.194  1.7752  0.5048 -0.5212
 9138TIP3   OH227377   3.970   0.563   5.723 -0.3167  0.4486 -0.4918
 9138TIP3    H127378   4.047   0.522   5.683 -0.1513  0.3862 -0.1153
 9138TIP3    H227379   3.977   0.541   5.816 -0.9818  0.1342 -0.5114
 9139TIP3   OH227380   0.771   3.625   1.111 -0.3459  0.2369  0.1685
 9139TIP3    H127381   0.727   3.703   1.079  1.6558  0.8153 -1.3718
 9139TIP3    H227382   0.710   3.554   1.093 -0.8380  1.0415 -1.5215
 9140TIP3   OH227383   3.117   3.971   2.746  0.3006  0.5159 -0.1552
 9140TIP3    H127384   3.100   3.944   2.836  2.8686  0.8185  0.4832
 9140TIP3    H227385   3.182   3.908   2.713 -1.3755 -0.2725 -2.2327
 9141TIP3   OH227386   2.007   6.053   2.149  0.1605 -0.5806 -0.1787
 9141TIP3    H127387   1.979   6.071   2.239 -1.1875  0.8254 -0.8296
 9141TIP3    H227388   2.081   5.993   2.158  0.4478  0.0140  1.8867
 9142TIP3   OH227389   0.861   2.358   5.647 -0.1686 -0.3587  0.1738
 9142TIP3    H127390   0.881   2.435   5.592 -0.2291 -0.6855 -0.3105
 9142TIP3    H227391   0.832   2.292   5.585 -0.9350 -0.5043  0.6822
 9143TIP3   OH227392   3.713   4.230   5.597  0.4052 -0.5111 -0.0429
 9143TIP3    H127393   3.782   4.189   5.649  0.5185 -0.2297  0.0306
 9143TIP3    H227394   3.731   4.324   5.603  0.5520 -0.4842 -0.7693
 9144TIP3   OH227395   0.675   1.177   0.688 -1.1615 -0.1870  0.2721
 9144TIP3    H127396   0.587   1.143   0.674 -0.5755 -1.2857 -1.0397
 9144TIP3    H227397   0.703   1.207   0.601 -1.0240  2.1993  1.0542
 9145TIP3   OH227398   2.967   5.631   0.474  0.4319  0.7555 -0.2346
 9145TIP3    H127399   3.031   5.678   0.422  3.6494 -1.0473  1.7551
 9145TIP3    H227400   2.946   5.690   0.547 -0.2649  1.3738 -0.9256
 9146TIP3   OH227401   1.885   0.994   2.980 -0.1372 -0.3718  0.1007
 9146TIP3    H127402   1.967   0.964   2.939 -0.2823 -1.3514  0.4921
 9146TIP3    H227403   1.877   1.085   2.954  1.7477  0.1337  1.0911
 9147TIP3   OH227404   0.850   5.826   4.222  0.5423 -0.0653  0.2491
 9147TIP3    H127405   0.850   5.731   4.216 -0.8208 -0.0757 -0.0797
 9147TIP3    H227406   0.804   5.845   4.304 -0.7770  0.2897 -0.5301
 9148TIP3   OH227407   1.603   6.803   2.653 -0.4024 -0.1878  0.5757
 9148TIP3    H127408   1.564   6.723   2.616 -1.6731  0.5535  0.2468
 9148TIP3    H227409   1.661   6.771   2.722  1.3531 -1.5693 -1.3987
 9149TIP3   OH227410   6.930   4.198   1.520  0.6528  0.3324  0.3971
 9149TIP3    H127411   6.836   4.181   1.511  0.7073 -0.4516  1.0999
 9149TIP3    H227412   6.935   4.284   1.561  0.2445  0.4589  0.1872
 9150TIP3   OH227413   1.982   4.001   5.712  0.0907 -0.2342 -0.5635
 9150TIP3    H127414   2.052   3.988   5.649  0.3026  1.8479 -0.8212
 9150TIP3    H227415   1.925   4.067   5.673 -0.3044  0.4032  0.9839
 9151TIP3   OH227416   1.509   6.554   0.705 -0.5728 -0.2680  0.4677
 9151TIP3    H127417   1.423   6.569   0.667 -0.3411 -2.3106 -1.0495
 9151TIP3    H227418   1.555   6.637   0.695 -1.8203  0.3590 -0.2230
 9152TIP3   OH227419   3.731   2.189   0.802  0.6362  0.4259  0.1631
 9152TIP3    H127420   3.822   2.184   0.775  0.5746 -0.4180  0.0578
 9152TIP3    H227421   3.703   2.097   0.808 -0.3059  0.6754 -0.1879
 9153TIP3   OH227422   6.312   1.963   1.099  0.4976  0.6563  0.0556
 9153TIP3    H127423   6.358   2.046   1.087  0.8005  0.2913 -1.5748
 9153TIP3    H227424   6.228   1.976   1.056  0.1483  0.4303  0.6583
 9154TIP3   OH227425   5.811   3.279   1.080  0.1221  0.0811 -0.1070
 9154TIP3    H127426   5.781   3.225   1.007 -0.4570  2.4439 -1.7284
 9154TIP3    H227427   5.801   3.369   1.049 -0.0065  1.1895  2.8464
 9155TIP3   OH227428   5.417   6.176   0.579 -0.2613  0.1095  0.3200
 9155TIP3    H127429   5.360   6.184   0.656 -5.0456 -0.6153 -2.6956
 9155TIP3    H227430   5.398   6.089   0.544  1.4856  0.4997 -1.8322
 9156TIP3   OH227431   1.217   3.935   0.649  0.1064 -0.4877 -0.1843
 9156TIP3    H127432   1.166   3.857   0.626  1.6787 -1.4787 -0.4834
 9156TIP3    H227433   1.157   4.008   0.633 -0.9435 -1.5353 -1.3108
 9157TIP3   OH227434   3.931   6.541   0.581  0.0858 -0.4662 -0.2952
 9157TIP3    H127435   3.914   6.530   0.675 -1.7530  0.9859 -0.3974
 9157TIP3    H227436   3.876   6.475   0.539  0.6509 -0.8908 -0.3710
 9158TIP3   OH227437   1.447   4.587   5.530 -0.6936  0.0680 -0.1463
 9158TIP3    H127438   1.445   4.549   5.442 -1.5236 -0.3234  0.0395
 9158TIP3    H227439   1.429   4.680   5.517  2.3476  0.6988 -0.7173
 9159TIP3   OH227440   6.495   0.322   1.489  0.1197  0.2181  0.0581
 9159TIP3    H127441   6.467   0.284   1.406  0.0748  0.6798 -0.1424
 9159TIP3    H227442   6.429   0.295   1.552 -0.3126  0.5777 -0.2340
 9160TIP3   OH227443   0.316   2.765   1.895 -0.3581 -0.4352  0.0301
 9160TIP3    H127444   0.408   2.783   1.872  0.0874 -0.8170  1.4145
 9160TIP3    H227445   0.308   2.670   1.890 -0.1688 -0.5544  1.6398
 9161TIP3   OH227446   1.776   3.693   4.815 -0.2742  0.2225 -0.7677
 9161TIP3    H127447   1.825   3.681   4.734  3.0456  3.8101  0.4300
 9161TIP3    H227448   1.702   3.748   4.789  1.8598  3.0801 -1.2436
 9162TIP3   OH227449   2.921   2.296   0.948 -0.7240  0.0279 -0.6507
 9162TIP3    H127450   2.833   2.258   0.948  0.2681 -2.4218 -1.0807
 9162TIP3    H227451   2.973   2.235   0.896  1.4523  0.8970  0.4164
 9163TIP3   OH227452   3.598   3.634   4.981  0.1975  0.0566  0.3092
 9163TIP3    H127453   3.685   3.653   4.948  0.3234 -1.4049 -0.2732
 9163TIP3    H227454   3.548   3.715   4.967  1.3444  0.7828  0.3218
 9164TIP3   OH227455   4.210   4.925   4.801  0.3834 -0.0285  0.4362
 9164TIP3    H127456   4.138   4.938   4.863 -0.8016  0.7353 -1.0340
 9164TIP3    H227457   4.253   5.011   4.796 -0.3518  0.2883 -0.7611
 9165TIP3   OH227458   1.587   1.056   1.268 -0.0709  0.0118 -0.1151
 9165TIP3    H127459   1.516   1.095   1.217 -0.4563  0.8624  1.0269
 9165TIP3    H227460   1.548   1.037   1.353  1.0851  0.6464  0.5985
 9166TIP3   OH227461   0.682   2.494   3.823  0.4184  0.2202 -0.4155
 9166TIP3    H127462   0.692   2.562   3.756 -0.7553  1.2062  0.3642
 9166TIP3    H227463   0.614   2.436   3.788 -0.0267  0.6025 -0.1911
 9167TIP3   OH227464   3.141   1.444   3.665 -0.0939  0.2495  0.6488
 9167TIP3    H127465   3.048   1.464   3.657 -0.2450 -0.6409  0.0485
 9167TIP3    H227466   3.165   1.406   3.581  1.3020  2.2853  0.0569
 9168TIP3   OH227467   0.189   5.735   2.837 -0.3015 -0.5469 -0.3136
 9168TIP3    H127468   0.154   5.729   2.748 -1.3173 -2.0010  0.1586
 9168TIP3    H227469   0.113   5.729   2.894  0.4068 -0.3427  0.6807
 9169TIP3   OH227470   3.047   5.380   0.451  0.1283 -0.0572 -0.2180
 9169TIP3    H127471   3.139   5.400   0.466  0.0903 -0.2964  0.3921
 9169TIP3    H227472   3.003   5.465   0.451  0.2198 -0.0015  0.4913
 9170TIP3   OH227473   0.790   3.602   0.217  0.1563  0.2918  0.2237
 9170TIP3    H127474   0.744   3.518   0.210 -0.4440  0.6250  0.2138
 9170TIP3    H227475   0.842   3.608   0.137  0.4768 -0.2300  0.3842
 9171TIP3   OH227476   4.046   4.340   2.764 -0.6140  0.1436 -0.0493
 9171TIP3    H127477   3.971   4.295   2.803 -3.0198  2.7330 -1.2997
 9171TIP3    H227478   4.067   4.411   2.826  0.7494 -0.4485  0.2046
 9172TIP3   OH227479   1.912   0.361   2.490  0.6075  0.6188  0.5773
 9172TIP3    H127480   1.941   0.428   2.552 -0.6212  0.3381  1.4745
 9172TIP3    H227481   1.816   0.365   2.493  0.5031  0.6094 -1.3185
 9173TIP3   OH227482   5.390   6.388   2.891 -0.3483 -0.1542  0.3115
 9173TIP3    H127483   5.483   6.410   2.892 -0.0191 -1.0379 -2.4390
 9173TIP3    H227484   5.349   6.454   2.835 -1.3042 -0.1417  0.9822
 9174TIP3   OH227485   2.722   3.142   4.490 -0.3265  0.4115  0.0708
 9174TIP3    H127486   2.803   3.176   4.452 -0.7525  0.0839 -1.2021
 9174TIP3    H227487   2.661   3.216   4.485 -0.1827  0.5909  0.8264
 9175TIP3   OH227488   5.840   2.982   2.908  0.2893  0.2135 -0.1653
 9175TIP3    H127489   5.814   2.989   3.000 -0.0914 -1.6665 -0.0740
 9175TIP3    H227490   5.765   3.017   2.860  0.1362  0.4375  0.2269
 9176TIP3   OH227491   1.393   0.884   1.748 -0.0193 -0.0666  0.1389
 9176TIP3    H127492   1.418   0.823   1.818 -0.8333  0.3296  0.7987
 9176TIP3    H227493   1.350   0.830   1.683 -0.2225 -0.2866  0.4528
 9177TIP3   OH227494   1.121   1.029   1.645  0.0363  0.4520  0.6924
 9177TIP3    H127495   1.170   0.974   1.706  0.8030  0.6725  0.2886
 9177TIP3    H227496   1.114   0.976   1.566 -1.0807  0.1084  1.0016
 9178TIP3   OH227497   0.430   3.866   5.328 -0.6371 -0.1369  0.1817
 9178TIP3    H127498   0.473   3.914   5.257 -1.4502  1.0835  0.4843
 9178TIP3    H227499   0.494   3.799   5.353 -0.5244 -0.9546 -2.0306
 9179TIP3   OH227500   2.478   3.629   5.288 -0.4273 -0.2151 -0.1035
 9179TIP3    H127501   2.488   3.557   5.351 -0.0721 -1.5423 -1.6020
 9179TIP3    H227502   2.488   3.587   5.202 -1.6036  1.4003 -1.0902
 9180TIP3   OH227503   2.725   1.237   5.056 -0.0228  0.2504  0.3400
 9180TIP3    H127504   2.731   1.154   5.009 -0.4759 -0.4538  1.4918
 9180TIP3    H227505   2.815   1.258   5.080 -0.1305 -1.3140  2.3716
 9181TIP3   OH227506   6.418   3.041   2.677 -0.2343 -0.2257 -0.0503
 9181TIP3    H127507   6.392   3.087   2.757 -2.5745  0.3494 -1.0522
 9181TIP3    H227508   6.341   2.991   2.651  0.6101 -0.7695 -1.6959
 9182TIP3   OH227509   5.316   5.421   0.019  0.2993  0.1475  0.2830
 9182TIP3    H127510   5.402   5.463   0.014  0.1785  0.2568 -1.7211
 9182TIP3    H227511   5.254   5.491  -0.001 -0.1507 -0.2642  0.2057
 9183TIP3   OH227512   3.343   0.199   5.388 -0.4207 -0.0435 -0.0001
 9183TIP3    H127513   3.412   0.243   5.437 -1.4781  0.5179  1.0535
 9183TIP3    H227514   3.266   0.255   5.400 -1.5053 -1.5495  0.3777
 9184TIP3   OH227515   4.749   5.807   1.521 -0.2548  0.0813 -0.0567
 9184TIP3    H127516   4.832   5.828   1.479 -0.6085 -0.2070 -0.9157
 9184TIP3    H227517   4.713   5.891   1.547 -0.8109  0.4285 -1.8360
 9185TIP3   OH227518   2.847   1.290   0.232  0.1576  0.5467 -0.1036
 9185TIP3    H127519   2.764   1.265   0.272  0.3683  0.1044  0.0667
 9185TIP3    H227520   2.831   1.378   0.197 -1.0634 -0.3935 -2.0749
 9186TIP3   OH227521   4.160   0.330   5.386 -0.8357 -0.2908  0.2558
 9186TIP3    H127522   4.214   0.393   5.435  1.9497 -0.5420 -2.2161
 9186TIP3    H227523   4.183   0.245   5.423  0.8610 -0.4285 -0.9858
 9187TIP3   OH227524   4.706   5.720   2.128  0.6776 -0.3836 -0.0828
 9187TIP3    H127525   4.754   5.715   2.045 -1.1751 -0.3968 -1.2255
 9187TIP3    H227526   4.644   5.792   2.115  1.2865  0.5401  1.8494
 9188TIP3   OH227527   1.556   1.212   4.995 -0.0969 -0.0543  0.1050
 9188TIP3    H127528   1.616   1.253   4.933 -0.9106 -1.1424 -1.4741
 9188TIP3    H227529   1.614   1.176   5.064  0.9025  0.4317 -0.4560
 9189TIP3   OH227530   5.279   0.196   4.192  0.4641  0.1607  0.2603
 9189TIP3    H127531   5.221   0.195   4.267  2.1518  0.8021  1.6544
 9189TIP3    H227532   5.241   0.261   4.132 -0.7269 -0.1274  0.6837
 9190TIP3   OH227533   3.599   0.176   2.082 -0.1607  0.0566  0.1100
 9190TIP3    H127534   3.546   0.250   2.112 -1.1360 -0.1765 -0.9697
 9190TIP3    H227535   3.591   0.178   1.987  1.2675 -0.3798 -0.0394
 9191TIP3   OH227536   0.613   4.838   3.023  0.0101 -0.7653 -0.5805
 9191TIP3    H127537   0.708   4.823   3.015  0.0361 -1.0198  0.1594
 9191TIP3    H227538   0.593   4.816   3.114 -0.3108  1.8318  0.0416
 9192TIP3   OH227539   2.282   5.470   3.035  0.7795 -0.2978 -0.0355
 9192TIP3    H127540   2.235   5.430   3.109 -1.6705  3.5303  0.7382
 9192TIP3    H227541   2.281   5.564   3.053  4.9365  0.4392 -2.3648
 9193TIP3   OH227542   4.529   0.419   3.596  0.0519  0.2248  0.0260
 9193TIP3    H127543   4.542   0.330   3.563  0.6869  0.8474 -1.4974
 9193TIP3    H227544   4.505   0.470   3.519  0.0628  1.4635  0.8071
 9194TIP3   OH227545   2.725   1.844   2.851  0.0707 -0.1324 -0.0821
 9194TIP3    H127546   2.697   1.806   2.934 -0.6166  0.0429 -0.2311
 9194TIP3    H227547   2.721   1.939   2.866  2.5134 -0.0499  0.5423
 9195TIP3   OH227548   0.723   0.919   2.498  0.6629 -0.1287  0.1047
 9195TIP3    H127549   0.768   0.836   2.508  1.1566  0.2190  0.8732
 9195TIP3    H227550   0.720   0.934   2.404 -1.5814 -2.1630 -0.2414
 9196TIP3   OH227551   5.985   1.180   2.205 -0.3784 -0.3675  0.3278
 9196TIP3    H127552   5.914   1.201   2.265  0.6312 -0.7101  1.6738
 9196TIP3    H227553   6.061   1.167   2.261  0.1294 -2.8387 -0.7995
 9197TIP3   OH227554   0.500   4.819   4.577 -0.3456  0.1002  0.4532
 9197TIP3    H127555   0.555   4.896   4.563  0.2034 -0.6262 -1.8073
 9197TIP3    H227556   0.541   4.773   4.650 -0.5687  1.8027  1.7008
 9198TIP3   OH227557   3.449   0.320   1.252 -0.0257  0.0551 -0.3265
 9198TIP3    H127558   3.479   0.280   1.170 -1.6109  0.7434 -1.2929
 9198TIP3    H227559   3.355   0.329   1.241 -0.0647  1.6518  0.9299
 9199TIP3   OH227560   0.230   5.114   5.488 -0.3608  0.1485  0.1994
 9199TIP3    H127561   0.259   5.172   5.418  2.7505 -1.4146  0.0242
 9199TIP3    H227562   0.237   5.026   5.451  2.4042 -0.8200  2.6464
 9200TIP3   OH227563   6.787   0.863   5.597 -0.3543  0.1446  0.3981
 9200TIP3    H127564   6.781   0.768   5.610  0.9405  0.0609  0.4672
 9200TIP3    H227565   6.756   0.878   5.508  0.7279 -0.5171 -0.1067
 9201TIP3   OH227566   5.653   3.702   3.428  0.3329 -0.5600  0.0537
 9201TIP3    H127567   5.567   3.736   3.455  1.0195  0.6567  0.7808
 9201TIP3    H227568   5.657   3.719   3.334 -0.3993 -1.0566 -0.0777
 9202TIP3   OH227569   7.110   3.224   2.745 -0.0414  0.4779 -0.0887
 9202TIP3    H127570   7.049   3.177   2.687  0.4024  0.1676 -0.3113
 9202TIP3    H227571   7.195   3.214   2.702  0.1423  1.0383  0.1433
 9203TIP3   OH227572   6.313   2.549   5.591  0.6024  0.3705  0.2742
 9203TIP3    H127573   6.373   2.595   5.531 -0.5298 -1.3700 -2.3867
 9203TIP3    H227574   6.235   2.605   5.594  0.9549  0.8468  0.7955
 9204TIP3   OH227575   5.185   6.662   0.663  0.0355 -0.3431 -0.1556
 9204TIP3    H127576   5.191   6.577   0.706  0.6168 -0.2133  0.0285
 9204TIP3    H227577   5.205   6.644   0.571  2.8126 -0.0358  0.3135
 9205TIP3   OH227578   3.741   1.389   2.834  0.3944 -0.2861 -0.9288
 9205TIP3    H127579   3.703   1.412   2.919 -1.5343 -1.0387 -1.5384
 9205TIP3    H227580   3.785   1.306   2.849 -0.0327 -0.4710 -0.6835
 9206TIP3   OH227581   0.427   4.045   1.526  0.1849  0.2947 -0.1116
 9206TIP3    H127582   0.368   3.984   1.482  0.5874 -0.0384 -0.1969
 9206TIP3    H227583   0.480   3.990   1.584 -2.0574  0.9592  2.8437
 9207TIP3   OH227584   2.476   4.125   1.291  0.3181  0.0304  0.0972
 9207TIP3    H127585   2.517   4.129   1.378 -2.3430 -0.7651  1.4787
 9207TIP3    H227586   2.386   4.099   1.308 -0.0155 -1.2724 -3.0205
 9208TIP3   OH227587   3.793   4.714   1.704 -0.2191 -0.0688 -0.4211
 9208TIP3    H127588   3.796   4.627   1.665 -0.5953  0.7819 -2.4590
 9208TIP3    H227589   3.881   4.728   1.739  0.0995 -0.9325 -0.8677
 9209TIP3   OH227590   0.767   4.234   2.392  0.0009 -0.2962 -0.3823
 9209TIP3    H127591   0.806   4.301   2.336 -0.3550 -1.0199 -1.5313
 9209TIP3    H227592   0.675   4.231   2.366 -0.0834 -0.9305 -0.0471
 9210TIP3   OH227593   3.430   2.100   5.206  0.2157  0.6001 -0.1894
 9210TIP3    H127594   3.507   2.141   5.165 -0.0485  0.1277 -1.1909
 9210TIP3    H227595   3.355   2.146   5.168 -0.0231  0.6219  0.2985
 9211TIP3   OH227596   3.678   6.520   2.494 -0.5613 -0.1955 -0.6149
 9211TIP3    H127597   3.597   6.565   2.518 -1.1770 -1.2038 -0.7552
 9211TIP3    H227598   3.702   6.471   2.573 -0.6990 -0.7653 -0.9199
 9212TIP3   OH227599   3.073   3.828   1.292 -0.0868  0.1114  0.5322
 9212TIP3    H127600   3.134   3.827   1.365 -0.2644 -0.8791  0.6896
 9212TIP3    H227601   3.006   3.763   1.316  0.5338 -1.1754 -1.0512
 9213TIP3   OH227602   3.866   1.882   1.524  0.1771 -0.0040 -0.1642
 9213TIP3    H127603   3.854   1.941   1.450 -1.7941  0.2696  0.3062
 9213TIP3    H227604   3.777   1.855   1.547  0.8588 -1.2056  1.1955
 9214TIP3   OH227605   2.130   3.535   1.442 -0.1640  0.1572  0.7598
 9214TIP3    H127606   2.129   3.498   1.530  1.6491  0.5833  0.9975
 9214TIP3    H227607   2.163   3.463   1.387  0.4633  0.4483  0.7422
 9215TIP3   OH227608   0.306   3.326   0.068  0.2221 -0.1466  0.0425
 9215TIP3    H127609   0.267   3.255   0.120 -0.3450 -0.4999 -0.8412
 9215TIP3    H227610   0.311   3.291  -0.021 -0.1711  0.9512 -0.4325
 9216TIP3   OH227611   7.119   2.517   3.204 -0.0665  0.2855 -0.2244
 9216TIP3    H127612   7.187   2.459   3.171 -0.3771  0.2019 -0.7261
 9216TIP3    H227613   7.039   2.488   3.160 -0.1664  1.3018 -0.7316
 9217TIP3   OH227614   2.200   3.277   2.776  0.9370  0.8692 -0.2650
 9217TIP3    H127615   2.191   3.317   2.862 -0.6707  3.2189 -1.4028
 9217TIP3    H227616   2.162   3.190   2.786  1.1310  0.9551  1.4705
 9218TIP3   OH227617   5.086   5.387   2.552 -0.1855  0.6479  0.1056
 9218TIP3    H127618   5.038   5.319   2.599  2.1230  0.1367  1.8664
 9218TIP3    H227619   5.173   5.351   2.538 -0.1422  1.5862 -2.8991
 9219TIP3   OH227620   6.013   3.012   4.943  0.3558  0.2477 -0.0573
 9219TIP3    H127621   5.960   3.082   4.905  1.5255  0.2252 -1.8072
 9219TIP3    H227622   5.979   2.932   4.903  0.4705  0.0401  0.2592
 9220TIP3   OH227623   3.783   5.537   1.853 -0.2505 -0.2343  0.2778
 9220TIP3    H127624   3.709   5.572   1.903  0.6698  1.6369  0.4258
 9220TIP3    H227625   3.747   5.464   1.803 -2.3355  1.0016 -0.1136
 9221TIP3   OH227626   3.678   6.737   1.807  0.2354  0.0196 -0.2016
 9221TIP3    H127627   3.675   6.809   1.869 -0.5612  0.5166 -0.7984
 9221TIP3    H227628   3.635   6.664   1.852  0.0716  0.2387 -0.0008
 9222TIP3   OH227629   5.078   3.863   1.512 -0.2244  0.1683  0.7067
 9222TIP3    H127630   5.006   3.829   1.459 -1.1135  1.7105  0.8561
 9222TIP3    H227631   5.070   3.816   1.595 -0.6595 -0.1507  0.4920
 9223TIP3   OH227632   3.048   2.951   0.564 -0.1361  0.4460 -0.4291
 9223TIP3    H127633   2.994   2.878   0.532  1.0722 -0.8500  0.3446
 9223TIP3    H227634   3.120   2.908   0.610 -0.0146  2.1790  1.0779
 9224TIP3   OH227635   5.765   0.291   0.866 -0.2310  0.0348 -0.2568
 9224TIP3    H127636   5.688   0.347   0.859 -0.6736 -0.6310 -0.8742
 9224TIP3    H227637   5.839   0.352   0.870 -0.7867  0.6897  0.5920
 9225TIP3   OH227638   0.794   0.360   0.621  0.3136 -0.2348 -0.1878
 9225TIP3    H127639   0.774   0.441   0.573 -2.0912 -0.6041  0.1011
 9225TIP3    H227640   0.818   0.297   0.552 -1.5782 -0.3220 -0.8131
 9226TIP3   OH227641   6.797   4.274   0.313  0.5297 -0.0019 -0.0436
 9226TIP3    H127642   6.770   4.344   0.254 -0.3992  0.8933  1.3672
 9226TIP3    H227643   6.892   4.271   0.306  0.8104  2.8773  1.3861
 9227TIP3   OH227644   0.476   0.954   0.688 -0.1859 -0.2328 -0.4014
 9227TIP3    H127645   0.553   0.898   0.693  0.2195  0.1796 -1.5978
 9227TIP3    H227646   0.448   0.948   0.596  0.3063  2.0392 -0.7732
 9228TIP3   OH227647   4.981   5.663   4.272 -0.0705  0.1375 -0.3143
 9228TIP3    H127648   4.949   5.702   4.354  0.3205  0.6236 -0.3870
 9228TIP3    H227649   5.075   5.677   4.274 -0.0403  0.0196 -0.7801
 9229TIP3   OH227650   4.028   1.065   0.474 -0.1115  0.1934  0.4154
 9229TIP3    H127651   4.077   0.984   0.462  0.2426  0.2633  1.3013
 9229TIP3    H227652   4.008   1.094   0.385 -0.6757 -1.1150  0.0867
 9230TIP3   OH227653   0.398   0.752   5.691 -0.0912  0.5005 -0.2541
 9230TIP3    H127654   0.419   0.749   5.597  0.6320 -0.5702 -0.0808
 9230TIP3    H227655   0.474   0.794   5.731  0.9553 -1.6568  0.1560
 9231TIP3   OH227656   2.647   3.884   0.895  0.3160  0.3995 -0.1116
 9231TIP3    H127657   2.647   3.871   0.800  1.0523  1.3144 -0.2431
 9231TIP3    H227658   2.730   3.847   0.924  0.3282  0.5974  0.1076
 9232TIP3   OH227659   6.803   2.543   2.076  0.5786 -0.6452  0.7008
 9232TIP3    H127660   6.737   2.505   2.133  1.0981 -0.3837  1.4982
 9232TIP3    H227661   6.769   2.530   1.987 -1.7889  1.7881  1.1277
 9233TIP3   OH227662   0.783   5.533   4.087 -0.0500  0.3085 -0.6356
 9233TIP3    H127663   0.728   5.556   4.013  0.4225 -0.4937 -1.2587
 9233TIP3    H227664   0.871   5.559   4.061  0.3138 -1.0992 -0.8934
 9234TIP3   OH227665   6.765   3.006   0.136 -0.1852  0.1079  0.5301
 9234TIP3    H127666   6.759   2.952   0.216 -0.7581  1.0945  1.1723
 9234TIP3    H227667   6.688   3.062   0.140  0.8196  1.5418  0.2882
 9235TIP3   OH227668   6.623   0.330   0.484  0.1778  0.4071  0.3092
 9235TIP3    H127669   6.666   0.335   0.399  1.4334 -2.8376  0.6410
 9235TIP3    H227670   6.680   0.378   0.543  1.3513 -0.5632 -0.0020
 9236TIP3   OH227671   5.605   0.644   1.223 -0.4328  0.0382 -0.4513
 9236TIP3    H127672   5.609   0.632   1.318 -0.4933 -1.0361 -0.5754
 9236TIP3    H227673   5.530   0.592   1.196 -0.1691  0.0094 -1.1396
 9237TIP3   OH227674   3.182   0.133   2.025  0.0080 -0.6707 -0.2277
 9237TIP3    H127675   3.255   0.116   1.966 -0.7814 -1.6406 -0.9627
 9237TIP3    H227676   3.129   0.053   2.022 -2.2092  0.7376 -1.3602
 9238TIP3   OH227677   5.142   6.054   1.644 -0.4702 -0.0264 -0.7048
 9238TIP3    H127678   5.234   6.041   1.668 -0.9401  1.3308  2.3580
 9238TIP3    H227679   5.093   6.005   1.709 -1.9478  0.0940 -1.6892
 9239TIP3   OH227680   1.880   3.568   3.013  0.6183  0.0128  0.0264
 9239TIP3    H127681   1.944   3.497   3.016  0.7606  0.1558  2.8598
 9239TIP3    H227682   1.803   3.532   3.056  0.3860  1.2805  0.7132
 9240TIP3   OH227683   4.534   1.238   1.183  0.0628  0.7965 -0.4881
 9240TIP3    H127684   4.481   1.237   1.263  2.0799  0.0901  0.9461
 9240TIP3    H227685   4.471   1.244   1.112 -1.9222 -0.1234  1.0874
 9241TIP3   OH227686   0.573   1.967   0.225 -0.3907  0.4526 -0.7642
 9241TIP3    H127687   0.638   2.019   0.272 -0.2474 -1.1975  0.9736
 9241TIP3    H227688   0.553   2.019   0.147  0.5918  2.5244  0.2770
 9242TIP3   OH227689   5.673   4.141   2.600 -0.0812  0.0358  0.4505
 9242TIP3    H127690   5.659   4.093   2.518  1.1022 -0.7237  0.6688
 9242TIP3    H227691   5.631   4.087   2.667  0.4483 -0.2387  0.5689
 9243TIP3   OH227692   4.864   0.159   3.008  0.0435 -0.2389  0.6081
 9243TIP3    H127693   4.871   0.065   3.024 -2.2536 -0.5043  0.4281
 9243TIP3    H227694   4.917   0.199   3.077  1.0072 -1.6346  0.7197
 9244TIP3   OH227695   3.501   4.114   5.175 -0.2078 -0.1901 -0.3674
 9244TIP3    H127696   3.527   4.028   5.141  0.6983  0.3739 -1.1405
 9244TIP3    H227697   3.543   4.177   5.116  1.7188  0.8521  1.9412
 9245TIP3   OH227698   1.829   0.672   2.385  0.5468 -0.0402 -0.0143
 9245TIP3    H127699   1.883   0.716   2.319 -0.0881 -1.4503 -1.5620
 9245TIP3    H227700   1.885   0.667   2.462  1.5995  1.0137 -0.6739
 9246TIP3   OH227701   3.690   5.857   0.805  0.1996  0.5748 -0.3851
 9246TIP3    H127702   3.633   5.783   0.825 -0.0139  0.3332 -1.7500
 9246TIP3    H227703   3.731   5.834   0.721  0.4483  1.8110 -0.6291
 9247TIP3   OH227704   3.892   4.426   4.087  0.2585 -0.1767  0.3387
 9247TIP3    H127705   3.959   4.475   4.134  1.6395 -1.5468 -0.1215
 9247TIP3    H227706   3.937   4.347   4.056 -1.4983 -1.0060 -0.2355
 9248TIP3   OH227707   1.036   5.574   4.027  0.1770  0.2028 -0.2036
 9248TIP3    H127708   1.065   5.517   3.956 -0.1527  0.8665 -0.8766
 9248TIP3    H227709   1.116   5.618   4.056 -0.0202  1.6383 -1.7076
 9249TIP3   OH227710   2.488   1.988   0.692 -0.6698  0.4507 -0.1527
 9249TIP3    H127711   2.447   2.057   0.743  3.5940  2.1120  1.4747
 9249TIP3    H227712   2.520   1.925   0.757 -0.8816 -0.9186 -1.3205
 9250TIP3   OH227713   5.299   4.502   4.731 -0.1949 -0.0795 -0.3602
 9250TIP3    H127714   5.221   4.509   4.786  1.1304 -1.5286  1.8631
 9250TIP3    H227715   5.296   4.412   4.696 -0.5235  0.5140 -1.9442
 9251TIP3   OH227716   1.166   2.675   5.328 -0.3941  0.1316  0.1154
 9251TIP3    H127717   1.237   2.727   5.289  0.1783 -0.8582 -0.2161
 9251TIP3    H227718   1.105   2.660   5.256  0.4327 -1.3035 -0.3330
 9252TIP3   OH227719   4.956   5.661   0.230 -0.1244  0.5091  0.0458
 9252TIP3    H127720   4.996   5.746   0.246  1.3805 -0.2447  0.5039
 9252TIP3    H227721   4.869   5.667   0.271 -1.1434  2.6380 -2.1257
 9253TIP3   OH227722   2.100   3.562   2.786  0.5868 -0.0680  0.2767
 9253TIP3    H127723   2.106   3.654   2.760 -2.5326 -0.2899 -1.7273
 9253TIP3    H227724   2.024   3.558   2.843 -1.3727 -1.7589 -2.2308
 9254TIP3   OH227725   0.273   3.445   4.975  0.0187 -0.1735 -0.0204
 9254TIP3    H127726   0.271   3.359   5.017  0.0038 -0.4639 -0.6181
 9254TIP3    H227727   0.342   3.492   5.021 -0.6295 -0.1550  0.9848
 9255TIP3   OH227728   0.241   0.227   1.727 -0.3303  0.0292 -0.0280
 9255TIP3    H127729   0.185   0.150   1.731  0.4948 -0.6465 -0.8640
 9255TIP3    H227730   0.219   0.278   1.806 -1.4181 -0.6776  0.1383
 9256TIP3   OH227731   0.375   1.244   3.062 -0.2149 -0.3209  0.4411
 9256TIP3    H127732   0.286   1.220   3.087 -0.3812  0.6542  0.8283
 9256TIP3    H227733   0.423   1.248   3.145  0.6057 -2.3542  0.1268
 9257TIP3   OH227734   0.577   0.944   4.746  0.1033  0.5726  0.1992
 9257TIP3    H127735   0.522   1.022   4.744  0.0150  0.5409  1.0312
 9257TIP3    H227736   0.640   0.957   4.675 -0.3529  1.0637 -0.1230
 9258TIP3   OH227737   2.124   4.162   5.100  0.0898 -0.3222 -0.0415
 9258TIP3    H127738   2.055   4.173   5.035 -0.5602 -1.0530  0.5042
 9258TIP3    H227739   2.083   4.186   5.183  0.6093 -0.3799  0.2391
 9259TIP3   OH227740   4.292   3.100   1.339 -0.1509 -0.1946 -0.1302
 9259TIP3    H127741   4.370   3.133   1.383 -1.0489  0.2656  1.1678
 9259TIP3    H227742   4.276   3.014   1.379 -0.4333 -0.1960 -0.2440
 9260TIP3   OH227743   5.272   0.992   1.433 -0.0076  0.1653 -0.1506
 9260TIP3    H127744   5.272   0.900   1.407  0.5720 -0.1981  1.0655
 9260TIP3    H227745   5.223   1.037   1.364 -0.0911 -1.0139 -0.8802
 9261TIP3   OH227746   2.907   3.980   1.112 -0.7328  0.2706  0.1257
 9261TIP3    H127747   2.867   3.909   1.062 -2.7303  0.4012  1.4192
 9261TIP3    H227748   2.969   3.936   1.171  2.0426  0.1539 -2.5955
 9262TIP3   OH227749   2.507   0.723   2.708  0.4278 -0.2694 -0.0555
 9262TIP3    H127750   2.427   0.685   2.671 -0.9112  1.8600  0.4958
 9262TIP3    H227751   2.513   0.810   2.669  0.9488  0.6532  1.9566
 9263TIP3   OH227752   4.131   5.028   3.219  0.1439  0.3831  0.0855
 9263TIP3    H127753   4.041   5.042   3.190  0.5195  0.1115 -1.2852
 9263TIP3    H227754   4.181   5.016   3.138  1.2759 -0.2778  0.8506
 9264TIP3   OH227755   2.539   6.008   0.275 -0.1900 -0.6347  0.0186
 9264TIP3    H127756   2.552   6.057   0.194  0.3182  2.2237  1.6890
 9264TIP3    H227757   2.444   6.000   0.283 -0.2764 -0.0484 -0.3653
 9265TIP3   OH227758   5.017   0.651   0.981 -0.0777  0.3064 -0.3489
 9265TIP3    H127759   4.935   0.611   0.956  0.2438 -0.9593  0.5453
 9265TIP3    H227760   4.992   0.723   1.040 -0.5565  0.2909 -0.5321
 9266TIP3   OH227761   5.541   4.875   2.735  0.1780  0.1178  0.3080
 9266TIP3    H127762   5.512   4.796   2.781  2.0333  0.0818  1.5059
 9266TIP3    H227763   5.469   4.937   2.745 -0.7486 -0.9613  0.5166
 9267TIP3   OH227764   3.281   2.865   3.216  0.2921 -0.2551  0.3778
 9267TIP3    H127765   3.248   2.923   3.284  0.1862  1.2958 -0.9310
 9267TIP3    H227766   3.366   2.836   3.248  0.2656  0.4815  1.1462
 9268TIP3   OH227767   0.730   1.242   4.932 -0.1571 -0.3277  0.2881
 9268TIP3    H127768   0.640   1.272   4.944  0.6761  1.3642  3.6819
 9268TIP3    H227769   0.739   1.169   4.993  0.7688 -0.4824 -0.0093
 9269TIP3   OH227770   0.394   5.619   2.100  0.4036  0.3239  0.0124
 9269TIP3    H127771   0.375   5.689   2.038 -0.0267  0.7201  0.5875
 9269TIP3    H227772   0.453   5.560   2.052  0.8790  1.1430 -0.4198
 9270TIP3   OH227773   1.315   0.663   4.257  0.2596  0.1754 -0.1324
 9270TIP3    H127774   1.295   0.749   4.293  1.0419  0.4503 -0.3201
 9270TIP3    H227775   1.404   0.644   4.289 -0.6960 -1.5352  1.6811
 9271TIP3   OH227776   1.272   5.110   2.328 -0.7645 -0.4592  0.1241
 9271TIP3    H127777   1.252   5.018   2.314  0.3164 -0.8608  1.1453
 9271TIP3    H227778   1.317   5.137   2.248  0.7386 -1.3678  0.6281
 9272TIP3   OH227779   4.166   5.708   2.007  0.1273 -0.4424  0.0685
 9272TIP3    H127780   4.169   5.630   2.063  2.9205 -1.0989 -0.8023
 9272TIP3    H227781   4.147   5.673   1.919 -0.1256  0.0538 -0.0755
 9273TIP3   OH227782   4.082   4.666   1.370  0.0671  0.0699  0.3085
 9273TIP3    H127783   4.137   4.618   1.432 -0.1863 -0.0875  0.4118
 9273TIP3    H227784   3.993   4.641   1.393 -0.0166 -0.2479 -0.3286
 9274TIP3   OH227785   0.836   3.493   1.695  0.1481  0.1490 -0.1428
 9274TIP3    H127786   0.782   3.464   1.622  0.4714  0.2929 -0.4415
 9274TIP3    H227787   0.896   3.420   1.711  0.0879  0.1238 -0.0306
 9275TIP3   OH227788   2.640   0.542   3.422  0.2163 -0.3090  0.1911
 9275TIP3    H127789   2.581   0.612   3.392 -2.3733 -2.3306  0.1273
 9275TIP3    H227790   2.626   0.538   3.516  0.1404 -0.8656  0.1624
 9276TIP3   OH227791   6.837   4.491   0.073  0.0795 -0.3078  0.0047
 9276TIP3    H127792   6.931   4.477   0.083  0.3178 -0.1731 -1.7424
 9276TIP3    H227793   6.828   4.586   0.066  0.1516 -0.4242 -2.3563
 9277TIP3   OH227794   6.225   1.415   2.329 -0.4987  0.3122 -0.1787
 9277TIP3    H127795   6.136   1.449   2.335 -0.3850  0.3046  2.6745
 9277TIP3    H227796   6.214   1.320   2.323 -0.7173  0.2266  1.2294
 9278TIP3   OH227797   5.076   2.918   3.838 -0.0967  0.3733 -0.0211
 9278TIP3    H127798   5.122   2.983   3.891  0.5370  0.4235 -0.6136
 9278TIP3    H227799   4.986   2.921   3.869  0.0481  1.1270  0.3442
 9279TIP3   OH227800   4.691   3.216   0.573 -0.5075  0.1384  0.1575
 9279TIP3    H127801   4.703   3.151   0.643 -1.0769  1.4702  1.5444
 9279TIP3    H227802   4.777   3.220   0.530  0.3251  0.3504  1.7454
 9280TIP3   OH227803   1.778   2.890   2.709 -0.0181  0.4411 -0.2144
 9280TIP3    H127804   1.701   2.918   2.659 -1.0445  0.2505  1.2183
 9280TIP3    H227805   1.801   2.805   2.672 -1.8632 -0.5439  0.7750
 9281TIP3   OH227806   3.541   0.676   0.573 -0.4728 -0.4535 -0.0618
 9281TIP3    H127807   3.570   0.693   0.483 -0.4120  0.5052  0.1334
 9281TIP3    H227808   3.506   0.759   0.604 -0.0164 -0.6285  0.9860
 9282TIP3   OH227809   2.584   4.267   5.164 -0.0946  0.2594  0.1023
 9282TIP3    H127810   2.651   4.204   5.136 -0.8566 -0.6356  0.2720
 9282TIP3    H227811   2.507   4.214   5.182 -0.7234  1.2380  0.3486
 9283TIP3   OH227812   0.850   1.293   1.089  0.2650 -0.0856 -0.0501
 9283TIP3    H127813   0.848   1.383   1.120  1.8847 -0.3786  1.0433
 9283TIP3    H227814   0.759   1.272   1.069  0.0392  2.4140 -2.2876
 9284TIP3   OH227815   1.597   4.689   4.888  0.7691 -0.1797 -0.2424
 9284TIP3    H127816   1.660   4.664   4.822  0.4826  0.8968 -0.9529
 9284TIP3    H227817   1.513   4.655   4.856  0.4570  1.1994 -0.9809
 9285TIP3   OH227818   4.892   1.885   4.639 -0.1302  0.1800 -0.5791
 9285TIP3    H127819   4.801   1.878   4.665 -0.0675 -0.7147 -0.5718
 9285TIP3    H227820   4.919   1.972   4.668 -0.4034 -0.3137  1.3123
 9286TIP3   OH227821   0.664   1.467   5.226  0.3178  0.0800  0.4718
 9286TIP3    H127822   0.714   1.498   5.150  0.5887  0.2570  0.7222
 9286TIP3    H227823   0.712   1.390   5.256 -1.2723 -1.7098 -1.1973
 9287TIP3   OH227824   2.861   3.883   5.502  0.1144 -0.1492  0.3680
 9287TIP3    H127825   2.868   3.971   5.464  0.4193 -1.1792 -2.0683
 9287TIP3    H227826   2.785   3.844   5.459  1.3076 -1.8588 -0.2464
 9288TIP3   OH227827   5.047   6.396   5.169 -0.0960 -0.2491  0.2202
 9288TIP3    H127828   4.996   6.401   5.088 -0.5544 -2.5329  0.2996
 9288TIP3    H227829   5.009   6.322   5.217  1.6069 -0.3582  1.4925
 9289TIP3   OH227830   5.668   6.480   4.437  0.0671 -0.0294 -0.0974
 9289TIP3    H127831   5.632   6.400   4.401 -0.3184 -0.4565  1.1695
 9289TIP3    H227832   5.604   6.548   4.415  0.2109 -0.1297 -0.8441
 9290TIP3   OH227833   6.588   5.557   4.070  0.3082 -0.1923 -1.1211
 9290TIP3    H127834   6.634   5.492   4.123  0.4643  0.9659  0.2241
 9290TIP3    H227835   6.649   5.579   4.001 -0.2754 -2.4646 -2.4633
 9291TIP3   OH227836   4.628   3.761   1.527  0.7028  0.2174  0.1248
 9291TIP3    H127837   4.536   3.780   1.547  0.7181  0.8559 -0.3880
 9291TIP3    H227838   4.664   3.844   1.497  0.9375 -0.4844 -1.6150
 9292TIP3   OH227839   4.149   6.657   2.536 -0.1023  0.0310 -0.2742
 9292TIP3    H127840   4.078   6.721   2.530  0.0702  0.3489  0.9168
 9292TIP3    H227841   4.228   6.709   2.553  0.0233 -0.4939  0.8312
 9293TIP3   OH227842   5.447   1.821   1.096  0.1990  0.1273  0.8340
 9293TIP3    H127843   5.513   1.769   1.051  0.8024  0.0900  1.7263
 9293TIP3    H227844   5.385   1.757   1.131 -1.1353  0.2260 -1.1835
 9294TIP3   OH227845   3.704   1.395   0.319  0.3396 -0.2084 -0.3033
 9294TIP3    H127846   3.659   1.479   0.306  0.2744 -0.4160 -1.5241
 9294TIP3    H227847   3.671   1.364   0.403  0.1294  0.8383  0.0258
 9295TIP3   OH227848   7.118   0.707   3.969  0.0308 -0.1554  0.0072
 9295TIP3    H127849   7.176   0.645   4.014  0.1133  0.1949  0.3865
 9295TIP3    H227850   7.059   0.738   4.038 -1.2193 -1.2017 -0.5419
 9296TIP3   OH227851   4.364   1.448  -0.013  0.1542  0.0820 -0.3656
 9296TIP3    H127852   4.286   1.425   0.038  0.1735  0.0871 -0.3339
 9296TIP3    H227853   4.416   1.368  -0.015 -1.0296 -0.7182 -2.5389
 9297TIP3   OH227854   0.164   6.575   0.692  0.3581  0.4788  0.3992
 9297TIP3    H127855   0.244   6.557   0.642  0.1234  0.2583  0.0980
 9297TIP3    H227856   0.191   6.639   0.758  0.8293  0.2501  0.4330
 9298TIP3   OH227857   0.891   6.484   3.808 -0.6088  0.3404  0.2314
 9298TIP3    H127858   0.898   6.467   3.902 -0.2314  0.9795  0.3236
 9298TIP3    H227859   0.819   6.428   3.779 -0.9632  0.3985  0.9689
 9299TIP3   OH227860   2.944   2.718   4.676 -0.2297 -0.5664  0.2395
 9299TIP3    H127861   3.000   2.641   4.681  0.5441 -0.0201  0.1050
 9299TIP3    H227862   2.891   2.704   4.598  1.3382 -0.0425 -0.9692
 9300TIP3   OH227863   7.050   4.250   3.776 -0.6021  1.0376 -0.4023
 9300TIP3    H127864   7.058   4.189   3.849 -2.8576 -2.3627 -2.6570
 9300TIP3    H227865   7.117   4.221   3.714 -0.2717  2.3072 -0.6496
 9301TIP3   OH227866   5.740   5.657   1.040  0.1653 -0.7136 -0.2070
 9301TIP3    H127867   5.743   5.742   1.083 -0.1069 -1.5238  1.5342
 9301TIP3    H227868   5.679   5.668   0.967 -1.3165  0.1447  1.0975
 9302TIP3   OH227869   1.157   5.364   5.220  0.0477  0.2286  0.2814
 9302TIP3    H127870   1.244   5.327   5.205 -0.0766  0.0661 -0.0630
 9302TIP3    H227871   1.169   5.458   5.211 -0.0177  0.1399 -0.8798
 9303TIP3   OH227872   6.412   4.777   1.812  0.0842  0.2418 -1.4838
 9303TIP3    H127873   6.467   4.850   1.840  1.6237 -0.7273 -1.9061
 9303TIP3    H227874   6.380   4.803   1.726 -0.3328  0.8971 -1.1482
 9304TIP3   OH227875   3.317   0.257   3.832 -0.0724 -0.6107 -0.5735
 9304TIP3    H127876   3.231   0.277   3.869  0.4230 -0.7619  0.7331
 9304TIP3    H227877   3.372   0.239   3.909  1.4543  0.7625 -1.2734
 9305TIP3   OH227878   1.692   2.069   4.285  0.2673  0.3500 -0.2323
 9305TIP3    H127879   1.766   2.024   4.326 -0.4943 -1.2500 -0.5072
 9305TIP3    H227880   1.668   2.137   4.347  0.8148 -0.3168  0.7430
 9306TIP3   OH227881   0.577   3.832   2.777 -0.1176 -0.8955  0.4292
 9306TIP3    H127882   0.482   3.826   2.770 -0.2824  0.1271  1.4822
 9306TIP3    H227883   0.608   3.826   2.687 -1.2643 -0.0323 -0.0485
 9307TIP3   OH227884   3.046   5.502   0.783  0.4495 -0.6128 -0.3085
 9307TIP3    H127885   3.091   5.424   0.751  0.0501 -0.4326 -1.3433
 9307TIP3    H227886   3.025   5.552   0.704 -2.0295 -0.9552  0.0481
 9308TIP3   OH227887   1.452   2.384   2.441 -0.2202  0.1711  0.0638
 9308TIP3    H127888   1.399   2.325   2.387  0.4863 -0.6163  0.1959
 9308TIP3    H227889   1.538   2.342   2.444  0.9013  2.1645 -1.4126
 9309TIP3   OH227890   1.540   3.807   1.294 -0.0868  0.1118 -0.1108
 9309TIP3    H127891   1.459   3.776   1.253  0.8273 -1.7884 -0.5762
 9309TIP3    H227892   1.543   3.761   1.378 -1.0124  2.5701  1.3765
 9310TIP3   OH227893   6.741   5.481   5.519 -0.1365 -0.2959  0.4713
 9310TIP3    H127894   6.791   5.418   5.571  0.4250  0.8149  1.3239
 9310TIP3    H227895   6.722   5.435   5.437  1.2096 -1.1812  0.6237
 9311TIP3   OH227896   3.322   2.031   0.159  0.7557 -0.4085  0.4366
 9311TIP3    H127897   3.393   2.081   0.199  0.6395 -0.5496  0.8314
 9311TIP3    H227898   3.251   2.094   0.149  1.2032 -0.0668 -0.7160
 9312TIP3   OH227899   3.523   5.521   2.838  0.5240 -0.0645  0.4941
 9312TIP3    H127900   3.505   5.546   2.748  0.2060  0.6889  0.7568
 9312TIP3    H227901   3.581   5.445   2.831  4.3941  2.6168 -0.4544
 9313TIP3   OH227902   6.909   6.605   0.564 -0.2895  0.4928 -0.0412
 9313TIP3    H127903   6.991   6.556   0.555  0.0920  1.0434  0.3724
 9313TIP3    H227904   6.874   6.610   0.475 -0.6769 -1.1022  0.0025
 9314TIP3   OH227905   1.042   2.179   2.348 -0.4387 -0.2350 -0.4335
 9314TIP3    H127906   0.980   2.145   2.284 -0.3913 -2.1234  0.4591
 9314TIP3    H227907   1.126   2.182   2.301 -0.4957 -1.1476 -0.6155
 9315TIP3   OH227908   2.039   6.398   4.855 -0.1825  0.6282  0.0554
 9315TIP3    H127909   2.134   6.408   4.849 -0.0915 -0.1560  0.0690
 9315TIP3    H227910   2.017   6.335   4.787 -0.3230 -1.3088  1.7948
 9316TIP3   OH227911   6.462   4.315   1.461  0.2369  0.8185 -0.0512
 9316TIP3    H127912   6.400   4.286   1.527 -0.1930  0.4673 -0.5987
 9316TIP3    H227913   6.521   4.375   1.507  1.9957 -1.8379  1.4717
 9317TIP3   OH227914   5.117   0.871   4.613 -0.2894 -0.4708 -0.4005
 9317TIP3    H127915   5.068   0.872   4.695 -1.0640 -0.7079 -0.8578
 9317TIP3    H227916   5.104   0.959   4.576  0.1737 -0.3177 -0.2080
 9318TIP3   OH227917   5.388   3.538   3.018 -0.0436  0.5746 -0.3297
 9318TIP3    H127918   5.316   3.585   3.061 -1.5985 -1.8661 -0.0516
 9318TIP3    H227919   5.467   3.578   3.053 -1.2752  1.1378  2.0189
 9319TIP3   OH227920   1.497   5.449   0.222 -0.4176  0.4771 -0.3285
 9319TIP3    H127921   1.425   5.446   0.285  0.9277  1.0723  1.3024
 9319TIP3    H227922   1.458   5.491   0.145 -2.0956 -0.2407  0.0750
 9320TIP3   OH227923   5.368   4.563   5.185 -0.5325 -0.3468 -0.3962
 9320TIP3    H127924   5.460   4.537   5.191 -0.3789  0.4624  1.4206
 9320TIP3    H227925   5.320   4.490   5.222 -0.3305  0.5806  1.8146
 9321TIP3   OH227926   5.408   3.303   2.225 -0.2019  0.0595 -0.3724
 9321TIP3    H127927   5.330   3.248   2.225 -2.1534  2.6499 -0.2334
 9321TIP3    H227928   5.471   3.256   2.280 -1.9124 -1.7924  0.0926
 9322TIP3   OH227929   6.137   0.017   1.074 -0.2225 -0.0133 -0.2337
 9322TIP3    H127930   6.223  -0.017   1.099  0.3440  0.7915 -0.9738
 9322TIP3    H227931   6.122   0.090   1.134 -0.9064 -0.8246  0.6060
 9323TIP3   OH227932   0.990   6.332   3.000  0.1422 -0.0707  0.6986
 9323TIP3    H127933   1.082   6.359   2.998  0.2285 -0.3732 -0.6606
 9323TIP3    H227934   0.942   6.412   2.975 -0.0545  0.3335  2.2801
 9324TIP3   OH227935   3.257   3.109   2.350  1.1300 -0.1416  0.4558
 9324TIP3    H127936   3.166   3.137   2.354  0.8357 -0.9945 -0.0761
 9324TIP3    H227937   3.305   3.189   2.326  0.6795  0.5666  1.7681
 9325TIP3   OH227938   1.459   4.259   5.876  0.5349 -0.4257 -0.4218
 9325TIP3    H127939   1.419   4.299   5.798 -1.5659 -1.1826  0.1976
 9325TIP3    H227940   1.462   4.330   5.940 -2.3220 -0.9074  0.3687
 9326TIP3   OH227941   4.502   2.324   0.073  0.3258 -0.1367 -0.1194
 9326TIP3    H127942   4.521   2.256   0.008  0.5164 -0.8228  0.6382
 9326TIP3    H227943   4.540   2.403   0.036  1.2283 -0.7006 -0.4337
 9327TIP3   OH227944   6.899   0.749   4.165  0.5366 -0.2119 -0.3390
 9327TIP3    H127945   6.806   0.757   4.148  0.5257  0.4116  0.0037
 9327TIP3    H227946   6.907   0.750   4.260  1.1653  3.6021 -0.2768
 9328TIP3   OH227947   7.189   0.207   1.528 -0.5103 -0.8278  0.2428
 9328TIP3    H127948   7.191   0.197   1.623 -2.6006 -2.5138  0.2082
 9328TIP3    H227949   7.106   0.252   1.510  1.1213  2.0307 -0.7128
 9329TIP3   OH227950   3.217   0.276   0.169  0.7473  0.2921 -0.3695
 9329TIP3    H127951   3.176   0.359   0.192  1.5636  0.3831  0.8341
 9329TIP3    H227952   3.162   0.241   0.099  0.5888  2.0003 -1.1581
 9330TIP3   OH227953   1.392   0.162   3.563  0.4678 -0.2909  0.2612
 9330TIP3    H127954   1.376   0.233   3.500 -1.1858 -0.4002  0.5083
 9330TIP3    H227955   1.312   0.110   3.560  0.9743 -1.1552  1.3699
 9331TIP3   OH227956   5.901   3.655   1.786  0.4033 -0.0630  0.1789
 9331TIP3    H127957   5.916   3.656   1.881  1.5995 -0.6609  0.0213
 9331TIP3    H227958   5.877   3.564   1.767 -1.8408  0.4810  0.1532
 9332TIP3   OH227959   1.939   1.717   2.237 -0.3134 -0.2884  0.7270
 9332TIP3    H127960   1.964   1.632   2.275 -1.8719 -1.3194 -0.3859
 9332TIP3    H227961   1.973   1.782   2.298 -0.8792 -1.7913  2.7651
 9333TIP3   OH227962   4.214   5.673   1.479  0.7440 -0.2925 -0.2165
 9333TIP3    H127963   4.220   5.582   1.451  1.9386 -0.4652  0.5305
 9333TIP3    H227964   4.291   5.687   1.534 -1.2767  0.1209  2.7528
 9334TIP3   OH227965   2.560   3.617   2.663 -0.6070 -0.2115  0.0279
 9334TIP3    H127966   2.608   3.662   2.732  0.8410 -0.4776 -0.7585
 9334TIP3    H227967   2.537   3.685   2.600  0.2313 -0.3144 -0.4064
 9335TIP3   OH227968   3.230   0.615   2.615 -0.1122  0.3640 -0.4046
 9335TIP3    H127969   3.293   0.556   2.573 -0.1945 -1.2264  1.5921
 9335TIP3    H227970   3.278   0.697   2.625  0.8108 -0.0711 -1.1125
 9336TIP3   OH227971   6.170   3.089   3.904  0.4388  0.0035  0.5866
 9336TIP3    H127972   6.186   3.063   3.814  1.4125  1.2624  0.3678
 9336TIP3    H227973   6.248   3.138   3.930 -0.6023  1.3068  1.4615
 9337TIP3   OH227974   5.725   3.865   1.579  0.0626  0.6189  0.0603
 9337TIP3    H127975   5.764   3.783   1.548  0.5908  1.2547 -1.0092
 9337TIP3    H227976   5.763   3.879   1.666  0.5888  0.1516 -0.0953
 9338TIP3   OH227977   2.287   2.493   5.247  0.1261  0.0967 -0.2016
 9338TIP3    H127978   2.353   2.538   5.194 -1.5041  1.1752 -1.4595
 9338TIP3    H227979   2.263   2.417   5.195 -1.8430  1.4285 -1.3651
 9339TIP3   OH227980   4.171   1.330   4.601 -0.1585  0.3603 -0.2848
 9339TIP3    H127981   4.184   1.367   4.513  0.3261 -0.3204 -0.5128
 9339TIP3    H227982   4.253   1.283   4.619 -0.2622  0.4804  0.5283
 9340TIP3   OH227983   6.298   4.965   5.119  0.0622  0.0476 -0.8101
 9340TIP3    H127984   6.361   4.951   5.189  0.6221 -1.4692 -1.5710
 9340TIP3    H227985   6.213   4.971   5.163  0.3012 -1.7590 -0.0293
 9341TIP3   OH227986   4.233   0.827   4.857 -0.1333 -0.1737  0.4768
 9341TIP3    H127987   4.183   0.852   4.779 -0.7114  0.0962  0.9226
 9341TIP3    H227988   4.264   0.739   4.838 -0.3831 -0.1658 -0.0056
 9342TIP3   OH227989   2.938   3.358   0.547  0.4063  0.4436 -0.0975
 9342TIP3    H127990   2.883   3.324   0.476  1.3370  0.2409 -0.7453
 9342TIP3    H227991   3.027   3.339   0.519  0.7763 -0.3602  1.5073
 9343TIP3   OH227992   2.286   0.799   0.252  0.1802  0.0819 -0.1836
 9343TIP3    H127993   2.347   0.845   0.195  0.3630  0.4181  0.2772
 9343TIP3    H227994   2.341   0.741   0.305  0.3483  1.6717  1.4894
 9344TIP3   OH227995   4.373   1.561   5.575  0.0644  0.4672  0.3505
 9344TIP3    H127996   4.467   1.563   5.560 -0.1556  0.2793 -1.3565
 9344TIP3    H227997   4.345   1.652   5.568  0.0688  0.4704  0.3783
 9345TIP3   OH227998   5.200   4.724   5.399 -0.0991  0.2373 -0.0890
 9345TIP3    H127999   5.264   4.691   5.335 -0.5241 -1.9569  0.5343
 9345TIP3    H228000   5.221   4.817   5.408  1.5219  0.0726 -1.5958
 9346TIP3   OH228001   0.773   0.323   4.173  0.6467 -0.2252 -0.6635
 9346TIP3    H128002   0.794   0.353   4.262 -1.3740  1.9678 -0.8416
 9346TIP3    H228003   0.843   0.360   4.119  1.5345 -1.0342 -0.1112
 9347TIP3   OH228004   0.181   5.103   0.820  0.2363  0.0819  0.2854
 9347TIP3    H128005   0.239   5.059   0.758 -1.1911 -1.2099 -0.1867
 9347TIP3    H228006   0.194   5.057   0.902 -1.1535 -1.2218 -0.1752
 9348TIP3   OH228007   5.555   0.319   0.480 -0.1848 -0.4994  0.3323
 9348TIP3    H128008   5.499   0.386   0.440 -0.4977 -0.9031  0.0951
 9348TIP3    H228009   5.552   0.245   0.419  0.1000 -0.7610  0.6327
 9349TIP3   OH228010   3.982   0.122   2.230  0.7257 -0.3830  0.2259
 9349TIP3    H128011   3.892   0.104   2.258  0.1642  1.5722 -0.1736
 9349TIP3    H228012   4.029   0.041   2.248 -1.0865 -1.4202  0.5460
 9350TIP3   OH228013   0.072   3.797   4.829 -0.2473  0.1880 -0.5366
 9350TIP3    H128014   0.119   3.872   4.792 -1.3138  0.2575 -1.8391
 9350TIP3    H228015   0.115   3.720   4.791 -0.0973  0.1962 -0.3814
 9351TIP3   OH228016   2.116   5.093   4.972  0.2933 -0.7399  0.1098
 9351TIP3    H128017   2.164   5.014   4.948 -0.1149 -0.9059 -0.1696
 9351TIP3    H228018   2.177   5.165   4.955 -0.3341 -0.7307 -2.5799
 9352TIP3   OH228019   4.740   1.359   5.199 -0.2665  0.1619 -0.7784
 9352TIP3    H128020   4.764   1.423   5.133 -0.3193  1.4114  0.3704
 9352TIP3    H228021   4.654   1.387   5.230  1.1206  1.6078  2.1179
 9353TIP3   OH228022   7.077   4.288   2.278 -0.4401  0.3913  0.3279
 9353TIP3    H128023   6.998   4.326   2.317 -0.3595  0.3143  0.5692
 9353TIP3    H228024   7.063   4.194   2.283 -0.6684  0.3837 -0.3316
 9354TIP3   OH228025   2.387   6.732   5.804  0.0356  0.0156  0.7286
 9354TIP3    H128026   2.458   6.752   5.866  1.1495 -1.1707 -0.1041
 9354TIP3    H228027   2.393   6.799   5.737  0.0418  0.2053  0.9172
 9355TIP3   OH228028   1.422   6.190   4.032 -0.7272  0.4171 -0.4926
 9355TIP3    H128029   1.480   6.228   4.098  1.1098 -0.1824 -1.6891
 9355TIP3    H228030   1.475   6.186   3.953 -1.1282 -3.6037 -0.7344
 9356TIP3   OH228031   1.590   2.004   3.820  0.0890 -0.2122  0.7673
 9356TIP3    H128032   1.584   2.085   3.770  0.1356 -0.5117  0.2612
 9356TIP3    H228033   1.513   1.954   3.793 -0.8182  0.3018  2.2685
 9357TIP3   OH228034   0.286   0.994   0.190  0.1573  0.7156 -0.4195
 9357TIP3    H128035   0.291   0.917   0.133 -0.1971  0.4143 -0.0487
 9357TIP3    H228036   0.324   1.064   0.138 -0.1130  0.4339 -1.0125
 9358TIP3   OH228037   0.317   5.818   0.764 -0.0730 -0.8733  0.0109
 9358TIP3    H128038   0.232   5.860   0.768 -0.1166 -1.0677  1.5918
 9358TIP3    H228039   0.374   5.872   0.818  1.1819 -0.0123 -2.0262
 9359TIP3   OH228040   1.808   4.119   4.230 -0.1148 -0.2779 -0.1528
 9359TIP3    H128041   1.746   4.046   4.239  0.1820 -0.7284 -1.4816
 9359TIP3    H228042   1.775   4.186   4.289 -2.6190 -0.0220 -1.6663
 9360TIP3   OH228043   6.241   1.171   0.407  0.2430  0.6403  0.3070
 9360TIP3    H128044   6.230   1.137   0.495 -0.8932 -0.2000 -0.1370
 9360TIP3    H228045   6.183   1.247   0.403 -1.5987 -0.7285 -0.4186
 9361TIP3   OH228046   1.648   6.594   1.613 -0.3618  0.2168 -0.7507
 9361TIP3    H128047   1.674   6.615   1.703 -0.8563 -2.4932  0.0958
 9361TIP3    H228048   1.694   6.660   1.560  1.6290  0.6327  1.2971
 9362TIP3   OH228049   2.281   5.412   1.847  0.2632  0.3024 -0.0211
 9362TIP3    H128050   2.255   5.483   1.788 -0.0176 -0.2052 -0.5095
 9362TIP3    H228051   2.376   5.414   1.846  0.2583  0.5005 -0.2441
 9363TIP3   OH228052   5.658   2.625   0.812  0.5538  0.3445  0.1416
 9363TIP3    H128053   5.717   2.701   0.805  1.2000 -0.0250  1.2986
 9363TIP3    H228054   5.604   2.645   0.888 -1.3821  1.0155 -1.3181
 9364TIP3   OH228055   4.172   0.847   2.301  0.2615 -0.0693  0.1009
 9364TIP3    H128056   4.263   0.855   2.273 -0.0604  0.8164 -0.7630
 9364TIP3    H228057   4.171   0.883   2.390  0.9246 -1.0208  0.5142
 9365TIP3   OH228058   4.424   4.175   3.128 -0.2665 -0.1425 -0.6240
 9365TIP3    H128059   4.347   4.226   3.102 -0.2310  0.0402 -0.3774
 9365TIP3    H228060   4.393   4.121   3.201  0.6205  2.3709  1.8188
 9366TIP3   OH228061   6.611   6.505   4.470  0.3852 -0.3212 -0.6635
 9366TIP3    H128062   6.550   6.579   4.462  1.2123  0.3096 -1.3693
 9366TIP3    H228063   6.626   6.478   4.380 -0.1031 -1.5341 -0.3933
 9367TIP3   OH228064   6.747   0.160   3.791  0.1367  0.6552  0.8772
 9367TIP3    H128065   6.679   0.227   3.797 -1.4570 -0.9036  0.9995
 9367TIP3    H228066   6.755   0.125   3.880 -0.9331 -1.0528  0.3526
 9368TIP3   OH228067   1.986   4.846   5.212  0.0807 -0.3462  0.2318
 9368TIP3    H128068   1.928   4.922   5.206 -0.2540 -0.6249 -0.0926
 9368TIP3    H228069   1.928   4.774   5.235  0.3222 -0.6060  0.0262
 9369TIP3   OH228070   4.947   0.732   5.730  0.1342 -0.0677  0.1165
 9369TIP3    H128071   4.947   0.637   5.740  0.3253 -0.2274 -1.2310
 9369TIP3    H228072   4.857   0.758   5.746  0.0917 -0.4654  0.5407
 9370TIP3   OH228073   4.772   3.037   0.778 -0.0738 -0.2424 -0.1729
 9370TIP3    H128074   4.836   3.104   0.753 -0.0743 -0.2730 -0.2569
 9370TIP3    H228075   4.810   2.954   0.749 -0.3868 -0.2080 -0.7090
 9371TIP3   OH228076   4.569   0.131   2.100  0.4300  0.0931  0.2744
 9371TIP3    H128077   4.482   0.091   2.099 -0.8567  2.5620  2.0343
 9371TIP3    H228078   4.609   0.103   2.018 -2.2964 -0.6003 -0.9531
 9372TIP3   OH228079   5.324   5.080   4.577 -0.6356 -0.6847 -0.3350
 9372TIP3    H128080   5.394   5.109   4.636 -1.2780  1.1678 -0.4279
 9372TIP3    H228081   5.310   5.154   4.519 -2.0608 -1.3788 -0.9056
 9373TIP3   OH228082   1.099   5.174   5.841 -0.0137  0.0661 -0.2649
 9373TIP3    H128083   1.019   5.125   5.863 -0.5541  0.5119 -1.1832
 9373TIP3    H228084   1.070   5.242   5.781  1.0764  0.2156 -0.6433
 9374TIP3   OH228085   0.610   3.091   5.077 -1.0146  0.4742  0.2469
 9374TIP3    H128086   0.670   3.028   5.115 -0.3465  1.4628  0.8671
 9374TIP3    H228087   0.657   3.129   5.003 -1.0905  0.8405  0.3832
 9375TIP3   OH228088   5.450   5.308   2.267  0.2393 -0.3998  0.2500
 9375TIP3    H128089   5.372   5.362   2.267  0.5512  0.0768  1.2735
 9375TIP3    H228090   5.502   5.339   2.192 -0.2422 -0.2846 -0.0361
 9376TIP3   OH228091   3.702   1.476   3.110  0.2327 -0.4866  0.1124
 9376TIP3    H128092   3.773   1.532   3.140 -0.0711 -1.1598  2.2591
 9376TIP3    H228093   3.644   1.469   3.186 -2.3895  0.3921 -1.6583
 9377TIP3   OH228094   4.448   0.401   5.375 -0.0627 -0.4133  0.4048
 9377TIP3    H128095   4.533   0.365   5.349 -1.0032 -3.1253  0.7945
 9377TIP3    H228096   4.393   0.391   5.298 -0.4166  0.0757  0.5890
 9378TIP3   OH228097   0.894   0.692   4.160 -0.1115 -0.1790  0.2208
 9378TIP3    H128098   0.884   0.783   4.133  0.5821  0.5829  2.2666
 9378TIP3    H228099   0.808   0.653   4.147 -0.4293  0.7641 -0.6633
 9379TIP3   OH228100   0.942   3.414   3.163  0.2744 -0.0650 -0.0045
 9379TIP3    H128101   0.913   3.480   3.225 -2.6047 -0.4219 -0.8359
 9379TIP3    H228102   0.941   3.332   3.213  1.3978  0.1226  0.3561
 9380TIP3   OH228103   5.066   4.485   1.069 -0.2054  0.0116 -0.2132
 9380TIP3    H128104   5.074   4.563   1.124  1.9623  0.0948 -0.5517
 9380TIP3    H228105   5.078   4.412   1.129 -0.7036 -0.0131 -0.1394
 9381TIP3   OH228106   5.929   5.497   2.870 -0.6146  0.6957  0.1726
 9381TIP3    H128107   5.891   5.428   2.816  1.0443 -0.9674  1.0113
 9381TIP3    H228108   5.874   5.500   2.948  0.5136 -1.2955  1.1236
 9382TIP3   OH228109   0.954   2.769   5.130 -0.1585 -0.2484  0.0353
 9382TIP3    H128110   0.965   2.860   5.100 -0.2123 -0.1777  0.2259
 9382TIP3    H228111   0.860   2.755   5.129 -0.1937 -0.0607  0.7063
 9383TIP3   OH228112   0.894   2.041   1.066 -0.1169 -0.8201 -0.4097
 9383TIP3    H128113   0.838   1.973   1.104  0.8130 -2.8366 -2.3945
 9383TIP3    H228114   0.835   2.094   1.013 -0.3455 -2.4044 -1.8151
 9384TIP3   OH228115   0.500   3.287   5.257  0.3276  0.5689  0.9566
 9384TIP3    H128116   0.517   3.225   5.186 -0.5129 -0.3449  1.5174
 9384TIP3    H228117   0.546   3.251   5.332 -0.4258  0.4339  1.3679
 9385TIP3   OH228118   1.785   5.037   5.188 -0.5013 -0.1285  0.0114
 9385TIP3    H128119   1.709   4.980   5.178 -1.7961  1.6012 -0.5882
 9385TIP3    H228120   1.784   5.092   5.109  1.1755  0.1589  0.1638
 9386TIP3   OH228121   5.424   1.449   5.016 -0.2013  0.0685  0.7453
 9386TIP3    H128122   5.358   1.453   4.946  2.0880 -1.0519 -1.6774
 9386TIP3    H228123   5.450   1.356   5.018  1.1728  0.4444  1.7150
 9387TIP3   OH228124   4.855   5.757   0.970  0.0272 -0.4329 -0.1261
 9387TIP3    H128125   4.873   5.820   0.900 -2.9015  2.0531  1.1370
 9387TIP3    H228126   4.938   5.710   0.981  0.7310 -0.8715 -5.0012
 9388TIP3   OH228127   2.136   3.037   1.557  0.1467  0.0831 -0.5993
 9388TIP3    H128128   2.071   2.986   1.606  0.2369  1.0039  0.5183
 9388TIP3    H228129   2.197   3.068   1.623  0.1490  1.5511 -1.2610
 9389TIP3   OH228130   0.099   1.785   5.371  0.1871  0.4402  0.1458
 9389TIP3    H128131   0.010   1.752   5.361  0.6772 -1.0367  0.4443
 9389TIP3    H228132   0.145   1.753   5.293  1.5577 -2.7465  2.0703
 9390TIP3   OH228133   1.824   6.470   1.979 -0.2728  0.3283 -0.0129
 9390TIP3    H128134   1.798   6.382   2.008 -1.2352  1.0156  1.2837
 9390TIP3    H228135   1.891   6.454   1.913  1.7170 -1.3459  2.2536
 9391TIP3   OH228136   3.515   1.339   1.079  0.0523 -0.2186  0.5921
 9391TIP3    H128137   3.605   1.369   1.089 -0.3540  1.0875  0.4941
 9391TIP3    H228138   3.476   1.400   1.016 -1.6591  0.9381  2.6655
 9392TIP3   OH228139   1.769   1.797   3.232 -0.5985  0.0920 -0.3731
 9392TIP3    H128140   1.685   1.768   3.196  0.9268 -0.7979 -3.6208
 9392TIP3    H228141   1.749   1.880   3.276 -3.7752 -1.8913  2.4755
 9393TIP3   OH228142   1.165   3.039   0.478 -0.2463 -0.1181 -0.0665
 9393TIP3    H128143   1.082   3.028   0.434 -0.8822 -1.4243  1.3593
 9393TIP3    H228144   1.149   3.108   0.543 -0.1345 -0.2029  0.0516
 9394TIP3   OH228145   4.515   3.014   2.800 -0.2694  0.3476 -0.3519
 9394TIP3    H128146   4.449   3.032   2.733 -0.2692 -1.1881 -0.8023
 9394TIP3    H228147   4.596   2.999   2.750  0.5465  2.5049  0.2057
 9395TIP3   OH228148   4.462   0.234   5.612 -0.1101 -0.3909 -0.1895
 9395TIP3    H128149   4.410   0.282   5.548 -0.0715 -1.6857 -1.2471
 9395TIP3    H228150   4.537   0.290   5.630 -1.2110  0.9483  0.4106
 9396TIP3   OH228151   6.664   6.590   0.363 -0.0856  0.0537  0.4566
 9396TIP3    H128152   6.664   6.536   0.283  0.3366 -1.1179  1.2329
 9396TIP3    H228153   6.658   6.680   0.330  0.2557 -0.3906 -0.9098
 9397TIP3   OH228154   6.355   2.215   0.771  0.0239  0.4495 -0.4524
 9397TIP3    H128155   6.360   2.226   0.676  0.2048  1.3061 -0.3557
 9397TIP3    H228156   6.369   2.121   0.786  0.4489  0.3825 -1.2390
 9398TIP3   OH228157   5.430   2.482   3.899  0.3615 -0.1315  0.3522
 9398TIP3    H128158   5.413   2.553   3.837  0.9591  0.4616  0.8554
 9398TIP3    H228159   5.518   2.453   3.877 -0.1916 -1.3303 -0.4273
 9399TIP3   OH228160   0.211   6.104   3.404  0.0868 -0.3396 -0.0228
 9399TIP3    H128161   0.228   6.181   3.349  0.4090 -0.4370 -0.0651
 9399TIP3    H228162   0.283   6.044   3.382  0.4206 -0.2335  0.7681
 9400TIP3   OH228163   3.691   5.072   1.079  0.0963 -0.3627  0.0290
 9400TIP3    H128164   3.750   4.999   1.097  0.8023 -0.0017 -0.7767
 9400TIP3    H228165   3.748   5.143   1.052 -0.6739  0.1511 -0.2752
 9401TIP3   OH228166   0.679   0.363   2.564 -0.3250  0.0023  0.1132
 9401TIP3    H128167   0.696   0.307   2.640 -1.6423  1.5968  1.6571
 9401TIP3    H228168   0.667   0.450   2.600 -0.8487  0.8602 -1.9660
 9402TIP3   OH228169   2.136   6.523   5.617 -0.5517 -0.1066  0.1334
 9402TIP3    H128170   2.119   6.598   5.560  2.2692  0.9083  0.4582
 9402TIP3    H228171   2.124   6.556   5.706 -0.7141 -0.4569  0.2438
 9403TIP3   OH228172   2.887   5.130   1.108  0.2286 -0.1406 -0.6317
 9403TIP3    H128173   2.938   5.072   1.052  0.4873  0.1165 -0.6686
 9403TIP3    H228174   2.932   5.214   1.102  0.2638 -0.1145 -0.0316
 9404TIP3   OH228175   6.256   5.583   5.641 -0.6489 -0.1469  0.1850
 9404TIP3    H128176   6.287   5.508   5.590 -0.5866 -0.8515  1.2217
 9404TIP3    H228177   6.319   5.652   5.622 -0.5672 -0.4265 -0.6040
 9405TIP3   OH228178   5.360   1.341   2.811 -0.4778 -0.3655 -0.2974
 9405TIP3    H128179   5.287   1.282   2.794 -1.5767  1.1658 -1.2239
 9405TIP3    H228180   5.322   1.429   2.805  1.2956  0.4770 -0.0937
 9406TIP3   OH228181   3.263   3.456   4.162  0.6128  0.1011  0.8834
 9406TIP3    H128182   3.335   3.435   4.102  0.6527  1.7629  0.2820
 9406TIP3    H228183   3.199   3.386   4.149  1.7848 -1.0087  0.8909
 9407TIP3   OH228184   5.509   3.613   1.827 -0.1077 -0.1658  0.3344
 9407TIP3    H128185   5.566   3.546   1.788 -2.2807 -1.6301 -0.5481
 9407TIP3    H228186   5.441   3.562   1.871  0.4037  1.4851  3.2835
 9408TIP3   OH228187   2.717   5.738   4.476 -0.1915  0.4958 -0.1751
 9408TIP3    H128188   2.755   5.698   4.554  0.7466  0.2232 -0.7560
 9408TIP3    H228189   2.649   5.676   4.449  1.3128 -0.8329 -1.1241
 9409TIP3   OH228190   5.893   3.271   2.586 -0.3008  0.2734  0.2003
 9409TIP3    H128191   5.948   3.197   2.558 -2.4859 -0.6969 -1.9092
 9409TIP3    H228192   5.874   3.319   2.505 -1.3418  1.4396  1.0928
 9410TIP3   OH228193   6.821   4.077   3.065  0.1379  0.1150  0.1576
 9410TIP3    H128194   6.873   4.132   3.125  0.2575 -0.4108  0.5477
 9410TIP3    H228195   6.848   3.987   3.087  0.9625 -0.0499 -1.4075
 9411TIP3   OH228196   1.793   2.445   0.493 -0.0107 -0.2138 -0.4013
 9411TIP3    H128197   1.835   2.450   0.407 -0.3256  0.1393 -0.5337
 9411TIP3    H228198   1.805   2.532   0.532 -2.4605  0.6177 -1.3075
 9412TIP3   OH228199   2.567   4.891   1.953  0.9523  0.1247 -0.2891
 9412TIP3    H128200   2.532   4.808   1.986  0.9637 -0.0917 -0.8203
 9412TIP3    H228201   2.647   4.906   2.004  0.3732  0.3730  0.5876
 9413TIP3   OH228202   0.006   5.678   3.676  0.4957 -0.7915 -0.3734
 9413TIP3    H128203   0.076   5.714   3.622 -0.2117  3.5441  1.1668
 9413TIP3    H228204  -0.054   5.638   3.614  1.4492  0.7608 -2.4055
 9414TIP3   OH228205   1.185   2.079   5.411 -0.1056 -0.6396 -0.2861
 9414TIP3    H128206   1.217   1.990   5.398  0.0770 -0.4780 -1.0100
 9414TIP3    H228207   1.096   2.069   5.443 -0.0916 -1.0799 -0.3842
 9415TIP3   OH228208   3.030   6.456   3.994  0.7934 -0.2109  0.1443
 9415TIP3    H128209   3.097   6.420   3.937  1.7257  0.6297  0.6667
 9415TIP3    H228210   2.960   6.486   3.935  0.9772 -0.8720 -0.4185
 9416TIP3   OH228211   3.656   0.495   1.370 -0.0057 -0.5451 -0.3884
 9416TIP3    H128212   3.622   0.561   1.429 -0.7814  1.0108 -2.4380
 9416TIP3    H228213   3.578   0.448   1.339  0.2560 -0.6001 -0.9825
 9417TIP3   OH228214   6.209   3.226   5.253 -0.1990  0.5098  0.2055
 9417TIP3    H128215   6.145   3.158   5.234  1.7536 -1.3801 -0.0511
 9417TIP3    H228216   6.291   3.192   5.217  1.1005  2.5172  1.0776
 9418TIP3   OH228217   6.238   5.451   0.885  0.4659  0.0664 -0.1263
 9418TIP3    H128218   6.280   5.498   0.813 -1.6996  0.2216 -1.4072
 9418TIP3    H228219   6.191   5.518   0.934  0.1327 -0.3144  0.0888
 9419TIP3   OH228220   6.425   3.699   3.916  0.5668 -0.0639  0.1781
 9419TIP3    H128221   6.386   3.613   3.934 -0.7240  0.2616 -0.8562
 9419TIP3    H228222   6.444   3.736   4.002 -0.2594 -0.7886  0.6881
 9420TIP3   OH228223   5.646   1.703   5.304 -0.3829 -0.3818  0.2680
 9420TIP3    H128224   5.551   1.710   5.294 -0.4281 -1.3740 -0.1611
 9420TIP3    H228225   5.658   1.665   5.391 -0.3303  0.6229  0.7102
 9421TIP3   OH228226   1.361   1.609   5.191  0.5727  0.0325 -0.2373
 9421TIP3    H128227   1.378   1.532   5.137 -0.9850  0.1869 -0.9995
 9421TIP3    H228228   1.267   1.608   5.206  0.5880  1.5503  0.1194
 9422TIP3   OH228229   5.125   6.159   5.002 -0.7404  0.2434  0.0303
 9422TIP3    H128230   5.167   6.136   4.919 -1.1218 -0.0650 -0.0824
 9422TIP3    H228231   5.060   6.225   4.977  0.5318  1.6791  0.3916
 9423TIP3   OH228232   6.354   4.357   4.006 -0.2425 -0.4703 -0.4617
 9423TIP3    H128233   6.323   4.350   3.916 -0.5628 -1.2983 -0.2961
 9423TIP3    H228234   6.398   4.273   4.023  0.1084 -0.1901  0.0446
 9424TIP3   OH228235   2.267   2.552   0.349 -0.1309 -0.4533  0.3166
 9424TIP3    H128236   2.278   2.466   0.308 -0.7419  0.1824 -1.2457
 9424TIP3    H228237   2.186   2.587   0.311  0.1429  0.8402  0.8709
 9425TIP3   OH228238   3.090   2.261   3.483  0.3188  0.3820  0.2084
 9425TIP3    H128239   3.174   2.262   3.528  0.8425  1.0952 -0.7670
 9425TIP3    H228240   3.088   2.177   3.437 -0.0537 -0.1778  1.1834
 9426TIP3   OH228241   3.142   6.274   5.658 -0.2435 -0.1504  0.4505
 9426TIP3    H128242   3.210   6.286   5.592  1.1814 -1.3703  1.6338
 9426TIP3    H228243   3.118   6.182   5.651  2.4097 -1.2874  3.7940
 9427TIP3   OH228244   0.466   2.088   2.854 -0.6033 -0.9201  0.0495
 9427TIP3    H128245   0.556   2.099   2.883 -1.2841  0.7036  1.7529
 9427TIP3    H228246   0.468   2.108   2.760  0.5968  0.3783  0.3281
 9428TIP3   OH228247   3.641   4.048   2.438 -0.1430  0.7487  0.1631
 9428TIP3    H128248   3.566   4.098   2.406 -1.6720 -0.5253  1.6092
 9428TIP3    H228249   3.630   4.045   2.533  2.2849  1.3222  0.5525
 9429TIP3   OH228250   4.249   5.128   1.761 -0.1637 -0.1827  0.0353
 9429TIP3    H128251   4.171   5.157   1.713 -0.7865 -0.2619  0.9554
 9429TIP3    H228252   4.223   5.132   1.853  0.6327 -1.0446  0.3210
 9430TIP3   OH228253   2.572   5.187   4.309  0.1066 -0.2080 -0.4124
 9430TIP3    H128254   2.486   5.149   4.330 -0.5644  0.9319 -1.0335
 9430TIP3    H228255   2.567   5.209   4.216  1.3028 -0.6790 -0.6099
 9431TIP3   OH228256   3.375   2.521   0.566  0.0556 -0.2552 -0.3491
 9431TIP3    H128257   3.286   2.488   0.580  0.1387 -0.6323 -0.7208
 9431TIP3    H228258   3.430   2.466   0.621  0.1185 -0.3345 -0.4914
 9432TIP3   OH228259   4.238   4.025   4.462  0.0059  0.0875 -0.2878
 9432TIP3    H128260   4.246   3.975   4.544 -2.7400 -0.0710 -0.0169
 9432TIP3    H228261   4.232   3.959   4.394  2.8277  0.2243 -0.7707
 9433TIP3   OH228262   3.165   3.483   2.784  0.3703 -0.5612  0.1330
 9433TIP3    H128263   3.074   3.514   2.777  0.5395  0.3804  1.5086
 9433TIP3    H228264   3.169   3.406   2.728 -0.8415  0.3222 -1.2573
 9434TIP3   OH228265   5.330   0.563   5.487 -0.3089  0.3757  0.4783
 9434TIP3    H128266   5.401   0.616   5.453  0.1308  1.9996  3.5340
 9434TIP3    H228267   5.264   0.627   5.514 -0.5511 -0.6844  2.6101
 9435TIP3   OH228268   3.363   5.953   2.496  0.3781 -0.2287  0.2300
 9435TIP3    H128269   3.427   5.887   2.524 -1.0082 -1.9216 -0.3792
 9435TIP3    H228270   3.413   6.035   2.494  2.9697 -1.6829 -1.7444
 9436TIP3   OH228271   2.367   2.235   4.662 -0.2941  0.0101 -0.4710
 9436TIP3    H128272   2.310   2.167   4.627 -2.5885  2.0054 -0.8878
 9436TIP3    H228273   2.315   2.277   4.730  2.2775 -0.6559  2.0959
 9437TIP3   OH228274   5.993   2.361   5.455 -0.2562  0.0380  0.2450
 9437TIP3    H128275   6.041   2.402   5.383 -0.0745 -1.0645 -0.2870
 9437TIP3    H228276   5.906   2.399   5.452  0.0434  0.7232  0.0746
 9438TIP3   OH228277   3.807   5.332   0.311 -0.2984  0.4249  0.4119
 9438TIP3    H128278   3.752   5.357   0.385 -0.1231 -0.5907  0.8967
 9438TIP3    H228279   3.802   5.237   0.308 -0.9628  0.4668 -1.4012
 9439TIP3   OH228280   6.834   4.767   0.071  0.2927  0.2456 -0.0686
 9439TIP3    H128281   6.861   4.759   0.163 -2.7858 -0.7622  0.8874
 9439TIP3    H228282   6.851   4.858   0.049  0.0806  0.8280  1.9266
 9440TIP3   OH228283   5.569   3.674   0.104 -0.3526 -0.2138  0.3683
 9440TIP3    H128284   5.609   3.609   0.046  1.0502  0.6538  0.3124
 9440TIP3    H228285   5.596   3.758   0.067 -0.2269  0.3635  1.7369
 9441TIP3   OH228286   3.226   6.703   5.653 -0.4101  0.3434  0.5683
 9441TIP3    H128287   3.145   6.726   5.699  0.6582  1.4977  1.9572
 9441TIP3    H228288   3.275   6.785   5.649  1.3951 -0.6629  1.2291
 9442TIP3   OH228289   1.510   5.406   4.357 -0.3153  0.8266 -0.4593
 9442TIP3    H128290   1.429   5.356   4.353  0.3423 -0.3260  0.1315
 9442TIP3    H228291   1.512   5.454   4.274 -2.9525  3.1357  0.6557
 9443TIP3   OH228292   7.037   6.676   2.582  0.0171  0.2366 -0.2727
 9443TIP3    H128293   6.952   6.662   2.541 -0.4402  3.0358 -0.5096
 9443TIP3    H228294   7.017   6.704   2.671  0.7657 -0.2200  0.0552
 9444TIP3   OH228295   3.818   2.643   3.217 -0.6006 -0.1150  0.1737
 9444TIP3    H128296   3.867   2.660   3.136  1.2496 -0.4696  1.1648
 9444TIP3    H228297   3.848   2.710   3.278  1.2954 -2.3188  1.8498
 9445TIP3   OH228298   2.193   4.003   0.620  0.1194  0.1465 -0.2864
 9445TIP3    H128299   2.130   4.076   0.616 -0.2555 -0.1713 -0.2158
 9445TIP3    H228300   2.244   4.012   0.540  1.3630  1.6269  0.6164
 9446TIP3   OH228301   5.224   1.396   0.487 -0.3656  0.1631 -0.6570
 9446TIP3    H128302   5.189   1.312   0.518  2.0795 -0.0565  1.9172
 9446TIP3    H228303   5.288   1.371   0.419 -0.3213 -0.0046 -0.5562
 9447TIP3   OH228304   6.180   4.058   5.356  0.1332 -0.5011  0.1879
 9447TIP3    H128305   6.177   3.966   5.382  0.5794 -0.6842 -0.3853
 9447TIP3    H228306   6.257   4.064   5.300 -0.0145  0.1812  0.0537
 9448TIP3   OH228307   6.728   5.859   1.363  0.3607  0.5503  0.3797
 9448TIP3    H128308   6.751   5.949   1.384 -0.6681  0.4365  2.2001
 9448TIP3    H228309   6.809   5.820   1.330  0.9386  1.9838  0.0547
 9449TIP3   OH228310   2.322   4.157   5.295 -0.3260 -0.1080 -0.1037
 9449TIP3    H128311   2.342   4.249   5.279  0.6598 -0.3904 -0.5553
 9449TIP3    H228312   2.272   4.129   5.218 -1.0618  0.1623  0.2612
 9450TIP3   OH228313   2.901   6.111   0.500  0.2257 -1.0020  0.1102
 9450TIP3    H128314   2.996   6.102   0.511  0.2317 -0.8506  0.1849
 9450TIP3    H228315   2.866   6.110   0.589 -0.0067 -2.7475  0.0320
 9451TIP3   OH228316   1.015   0.092   5.803 -0.3726  0.3542 -0.2139
 9451TIP3    H128317   0.989   0.174   5.760 -0.7558 -0.1999 -1.0722
 9451TIP3    H228318   1.091   0.062   5.753 -1.6157 -0.9727 -1.4042
 9452TIP3   OH228319   6.566   3.936   1.748 -0.2703 -0.6860  0.1786
 9452TIP3    H128320   6.623   3.987   1.690  0.0761 -0.4900  0.6814
 9452TIP3    H228321   6.489   3.917   1.695  0.7620 -2.0067 -0.9404
 9453TIP3   OH228322   1.568   4.242   4.499 -0.4362  0.1646  0.1437
 9453TIP3    H128323   1.528   4.329   4.494 -0.8227 -0.0764 -1.6035
 9453TIP3    H228324   1.659   4.255   4.472 -0.4941  0.0222 -0.1196
 9454TIP3   OH228325   1.664   3.060   1.206 -0.1966 -0.5734  0.2715
 9454TIP3    H128326   1.697   3.041   1.294  1.0530 -1.1144 -0.2934
 9454TIP3    H228327   1.680   2.980   1.156 -0.5768 -0.1536 -0.5445
 9455TIP3   OH228328   1.523   4.228   5.386 -0.1091  0.1588 -0.1130
 9455TIP3    H128329   1.519   4.138   5.354 -1.7036 -0.0796  0.6993
 9455TIP3    H228330   1.512   4.221   5.480 -1.4947  1.2805 -0.1691
 9456TIP3   OH228331   4.254   4.499   1.516 -0.1309  0.4487  0.1576
 9456TIP3    H128332   4.302   4.538   1.589  0.8844  1.7077 -1.1053
 9456TIP3    H228333   4.322   4.475   1.453 -1.0368  0.7988 -1.0015
 9457TIP3   OH228334   2.311   4.202   3.460  0.3636  0.2027 -0.1872
 9457TIP3    H128335   2.326   4.292   3.488 -1.6354  0.5372  0.0001
 9457TIP3    H228336   2.348   4.148   3.529  0.8782  0.9005  0.0834
 9458TIP3   OH228337   2.198   2.598   4.743 -0.6747 -0.9178  0.0057
 9458TIP3    H128338   2.189   2.503   4.745 -3.2667 -0.7389  0.5998
 9458TIP3    H228339   2.159   2.627   4.825  0.5241  0.6584  0.0603
 9459TIP3   OH228340   2.184   4.548   4.492 -0.5899  0.0554  0.0596
 9459TIP3    H128341   2.136   4.478   4.449 -0.0533  0.2951 -0.9523
 9459TIP3    H228342   2.220   4.507   4.571 -0.5040 -0.7317 -0.3813
 9460TIP3   OH228343   3.851   5.672   3.318  0.2821 -0.1689 -0.3285
 9460TIP3    H128344   3.917   5.722   3.367  0.0595 -0.3082  0.1228
 9460TIP3    H228345   3.776   5.668   3.377  0.0267 -0.3930 -0.6639
 9461TIP3   OH228346   5.784   1.291   3.941 -0.7419  0.3059  0.2446
 9461TIP3    H128347   5.704   1.296   3.993 -1.2648  0.7758 -0.5832
 9461TIP3    H228348   5.771   1.217   3.882 -0.8363  0.7711 -0.3246
 9462TIP3   OH228349   4.092   5.155   1.395 -0.3715 -0.2357  0.5332
 9462TIP3    H128350   4.185   5.132   1.389 -0.4283 -0.4410  0.4303
 9462TIP3    H228351   4.049   5.075   1.426 -0.5935 -0.3239  0.0189
 9463TIP3   OH228352   0.921   0.655   1.430 -0.5704 -0.0652  0.0952
 9463TIP3    H128353   0.878   0.654   1.516 -1.0155 -2.1430 -0.1088
 9463TIP3    H228354   0.988   0.587   1.436  2.0334  2.2861  0.0028
 9464TIP3   OH228355   0.306   2.262   3.035 -0.4289 -0.1111 -0.5763
 9464TIP3    H128356   0.365   2.333   3.059 -1.3638  0.2748  0.6655
 9464TIP3    H228357   0.347   2.223   2.958  0.1517  1.7133 -1.2536
 9465TIP3   OH228358   0.221   4.055   0.235  0.3706 -0.7107  0.5018
 9465TIP3    H128359   0.223   4.032   0.328 -1.7621  0.1574  0.8143
 9465TIP3    H228360   0.279   3.991   0.193  2.0259 -0.6242  2.4868
 9466TIP3   OH228361   3.188   1.403   0.732  0.2917 -0.1430 -0.0171
 9466TIP3    H128362   3.174   1.338   0.663  2.6669 -1.4082  0.6052
 9466TIP3    H228363   3.283   1.414   0.737  0.2205  0.0647  2.8592
 9467TIP3   OH228364   6.317   2.746   2.384  0.5543 -0.5697  0.2056
 9467TIP3    H128365   6.318   2.713   2.474  0.8672 -0.9116  0.0808
 9467TIP3    H228366   6.235   2.795   2.377  1.2456  0.7984  1.1472
 9468TIP3   OH228367   1.058   5.352   2.854  0.0689  0.1383  0.5391
 9468TIP3    H128368   0.985   5.333   2.796 -0.2797  2.8439 -0.0729
 9468TIP3    H228369   1.020   5.351   2.942 -0.8800  1.8246  0.2041
 9469TIP3   OH228370   2.840   1.006   1.102  0.1562 -0.1039  0.5155
 9469TIP3    H128371   2.751   0.989   1.072 -0.6478  0.7201  2.3306
 9469TIP3    H228372   2.831   1.074   1.168  1.9345 -1.1124  1.8839
 9470TIP3   OH228373   3.102   4.427   4.916 -0.1453 -0.2958  0.5118
 9470TIP3    H128374   3.011   4.459   4.919  0.1352  0.4856  1.5983
 9470TIP3    H228375   3.103   4.362   4.846 -1.1821  0.8008 -0.5544
 9471TIP3   OH228376   2.957   4.203   4.460 -0.3348 -0.0712 -0.3860
 9471TIP3    H128377   2.999   4.123   4.429 -2.1786 -0.8976 -0.8892
 9471TIP3    H228378   2.912   4.238   4.382 -0.3824  0.9111  0.0680
 9472TIP3   OH228379   5.884   0.601   3.069  0.0747  0.3408  0.4923
 9472TIP3    H128380   5.811   0.660   3.055 -1.1209 -0.7403  1.9044
 9472TIP3    H228381   5.894   0.596   3.164  0.6439 -1.1129  0.3891
 9473TIP3   OH228382   4.280   6.285   4.541 -0.1250 -0.7417 -0.0530
 9473TIP3    H128383   4.199   6.334   4.548  0.2037 -0.0766 -0.7926
 9473TIP3    H228384   4.266   6.226   4.467  0.6766  0.6085 -1.3240
 9474TIP3   OH228385   2.265   3.689   3.565 -0.3338  0.4735  0.2164
 9474TIP3    H128386   2.292   3.667   3.476 -0.0802  1.3621  0.0711
 9474TIP3    H228387   2.192   3.629   3.582 -1.4353  1.3460 -1.1788
 9475TIP3   OH228388   1.899   6.632   5.221 -0.0786  0.0683  0.0197
 9475TIP3    H128389   1.991   6.652   5.204 -0.4394  1.2714 -0.6985
 9475TIP3    H228390   1.866   6.600   5.137 -0.1736 -0.9669  0.4427
 9476TIP3   OH228391   1.376   0.466   5.811 -0.0873  0.5082 -0.0865
 9476TIP3    H128392   1.319   0.542   5.825 -1.5112 -0.3429 -1.0477
 9476TIP3    H228393   1.345   0.427   5.730  1.7881 -0.1041 -0.5534
 9477TIP3   OH228394   5.644   1.993   0.116 -0.9627 -0.1467  0.1966
 9477TIP3    H128395   5.709   2.032   0.058 -0.5523 -0.5016  0.4145
 9477TIP3    H228396   5.575   2.060   0.123 -0.8675  0.0261 -0.4364
 9478TIP3   OH228397   2.779   1.211   2.992 -0.1651  0.3192 -0.6862
 9478TIP3    H128398   2.780   1.140   2.928  0.1903 -0.9094  0.6195
 9478TIP3    H228399   2.712   1.187   3.055 -1.0510  1.8935 -0.9699
 9479TIP3   OH228400   3.589   3.012   4.910 -0.8091 -0.3681 -0.1331
 9479TIP3    H128401   3.673   2.986   4.872 -1.1946 -0.0033 -1.2921
 9479TIP3    H228402   3.590   3.108   4.906 -0.6025 -0.2884  1.4016
 9480TIP3   OH228403   7.102   5.969   5.279 -0.1329 -0.4252  0.4667
 9480TIP3    H128404   7.119   5.876   5.269  2.2707 -0.0744  0.5925
 9480TIP3    H228405   7.095   5.983   5.373 -1.2153 -0.5661  0.4156
 9481TIP3   OH228406   2.341   5.031   0.579 -0.4272  0.2598  0.9124
 9481TIP3    H128407   2.412   5.076   0.535  0.4361 -0.9638  1.0141
 9481TIP3    H228408   2.265   5.089   0.568 -0.1410  0.2294 -1.7361
 9482TIP3   OH228409   3.414   5.891   0.591  0.0916 -0.6486 -0.2300
 9482TIP3    H128410   3.462   5.868   0.512  0.7181 -0.0260 -0.0347
 9482TIP3    H228411   3.472   5.951   0.639 -0.6771 -0.2584  0.2366
 9483TIP3   OH228412   6.261   2.662   1.417  0.1155  0.0546 -0.2337
 9483TIP3    H128413   6.345   2.651   1.372  1.4810  0.4001  2.0197
 9483TIP3    H228414   6.278   2.733   1.480 -1.6022 -0.4545  0.8656
 9484TIP3   OH228415   1.664   5.630   3.521 -0.1265 -0.1089  0.3370
 9484TIP3    H128416   1.669   5.538   3.494 -0.4832 -0.4441  1.3814
 9484TIP3    H228417   1.627   5.675   3.445 -2.1101 -1.1958  0.5853
 9485TIP3   OH228418   2.830   4.049   5.128  0.2583  0.2320 -0.1974
 9485TIP3    H128419   2.864   4.012   5.046 -0.9803 -0.0279 -0.6057
 9485TIP3    H228420   2.785   3.976   5.170  3.7993 -0.6753  2.4711
 9486TIP3   OH228421   1.109   1.128   4.977 -0.2602  0.4924 -0.1362
 9486TIP3    H128422   1.057   1.048   4.971 -0.9555  0.9924 -0.9292
 9486TIP3    H228423   1.080   1.182   4.903  1.1289  0.9359 -0.3874
 9487TIP3   OH228424   1.958   5.000   1.300 -0.8034  0.0634 -0.4313
 9487TIP3    H128425   2.026   4.961   1.245 -1.0285 -0.3808 -0.4039
 9487TIP3    H228426   1.894   4.930   1.312 -1.6266  0.6850 -1.0475
 9488TIP3   OH228427   2.197   6.520   4.086 -0.4086 -0.4936 -0.7609
 9488TIP3    H128428   2.254   6.535   4.011 -0.7718  0.4097 -0.8640
 9488TIP3    H228429   2.129   6.586   4.079 -0.5210 -0.4654  0.2991
 9489TIP3   OH228430   0.589   0.264   2.326 -0.8460  0.1412  0.3166
 9489TIP3    H128431   0.670   0.307   2.297 -1.1637  0.2748 -0.3849
 9489TIP3    H228432   0.616   0.213   2.402 -0.1214  0.2779  0.1637
 9490TIP3   OH228433   6.574   0.133   1.729  0.1614 -0.4346 -0.6304
 9490TIP3    H128434   6.480   0.124   1.712  0.3679 -1.1493 -1.4864
 9490TIP3    H228435   6.608   0.043   1.722  0.7663 -0.3117  0.5905
 9491TIP3   OH228436   4.909   0.314   1.907 -0.2790  0.2050 -1.3042
 9491TIP3    H128437   4.823   0.356   1.903 -0.4884 -0.1702 -0.8733
 9491TIP3    H228438   4.913   0.277   1.995  0.3543  0.2785 -1.2998
 9492TIP3   OH228439   0.242   0.468   2.673 -0.1644 -0.0629 -0.5445
 9492TIP3    H128440   0.268   0.480   2.581 -1.6922 -1.0188 -1.1403
 9492TIP3    H228441   0.294   0.393   2.703 -0.6059 -0.5646 -1.0281
 9493TIP3   OH228442   4.574   2.251   2.117 -0.2083 -0.2584 -0.2915
 9493TIP3    H128443   4.618   2.218   2.038  0.8104  0.9035 -0.2362
 9493TIP3    H228444   4.531   2.331   2.089  0.4914  0.3770  0.4087
 9494TIP3   OH228445   5.338   2.507   2.614 -0.7677 -0.6032  1.1507
 9494TIP3    H128446   5.322   2.438   2.679 -0.9047 -0.7513  0.9587
 9494TIP3    H228447   5.348   2.586   2.666  2.4907 -1.2040  1.6838
 9495TIP3   OH228448   6.958   3.026   1.071 -0.1382 -0.5886  0.0796
 9495TIP3    H128449   6.949   2.988   1.158  2.0769 -0.7166  0.3169
 9495TIP3    H228450   6.973   3.119   1.087 -1.8525 -0.1975 -0.3225
 9496TIP3   OH228451   0.071   2.014   2.171 -0.5324 -0.0568 -0.9325
 9496TIP3    H128452   0.014   2.002   2.246 -0.1931  0.8434 -0.5123
 9496TIP3    H228453   0.088   2.108   2.168  1.6934 -0.3822 -0.4576
 9497TIP3   OH228454   1.107   2.999   4.488 -0.0010  0.0282 -0.2726
 9497TIP3    H128455   1.197   2.995   4.456  0.3027  0.4137  0.5199
 9497TIP3    H228456   1.054   3.011   4.409  0.7052  0.6037 -0.6711
 9498TIP3   OH228457   1.483   2.596   0.829 -0.1604  0.0487 -0.4027
 9498TIP3    H128458   1.533   2.650   0.767  0.0678  0.2408 -0.0549
 9498TIP3    H228459   1.524   2.510   0.824 -0.6058 -0.1301 -1.0525
 9499TIP3   OH228460   2.609   5.248   1.150  0.0022 -0.0747 -0.4337
 9499TIP3    H128461   2.699   5.221   1.129  0.3563  0.4619  0.3400
 9499TIP3    H228462   2.554   5.195   1.093  0.8933  1.5823 -2.9833
 9500TIP3   OH228463   6.651   1.142   4.644 -0.3574 -0.2299  0.1789
 9500TIP3    H128464   6.646   1.048   4.630 -0.1311 -0.6704  2.6465
 9500TIP3    H228465   6.597   1.180   4.574 -0.8184 -2.1897 -0.5827
 9501TIP3   OH228466   3.866   4.273   2.990 -0.1507 -0.1959 -0.5953
 9501TIP3    H128467   3.876   4.181   3.014  0.4106 -0.2783 -1.1125
 9501TIP3    H228468   3.869   4.320   3.073 -1.5785 -0.7157 -0.2212
 9502TIP3   OH228469   0.978   0.616   0.359 -0.3027  0.2709 -0.2481
 9502TIP3    H128470   0.998   0.710   0.351  0.4511  0.0831 -0.6302
 9502TIP3    H228471   1.058   0.578   0.395 -0.8665 -0.1210  0.6234
 9503TIP3   OH228472   0.275   3.079   5.326  0.1712 -0.0430 -0.6574
 9503TIP3    H128473   0.339   3.066   5.397  3.0480  1.6978 -2.7093
 9503TIP3    H228474   0.190   3.078   5.370  1.6162 -1.4303  2.4236
 9504TIP3   OH228475   1.256   3.231   3.592  0.3309 -0.6041 -0.2247
 9504TIP3    H128476   1.175   3.271   3.561  1.2030 -0.0791 -1.9500
 9504TIP3    H228477   1.248   3.138   3.569 -0.2912 -0.8181  0.7803
 9505TIP3   OH228478   4.116   0.565   1.555  0.2624 -0.0430 -0.3566
 9505TIP3    H128479   4.109   0.584   1.649  0.2054 -0.7501 -0.2116
 9505TIP3    H228480   4.118   0.651   1.513 -0.4672  0.2830  0.2431
 9506TIP3   OH228481   0.911   0.790  -0.007 -0.3992  0.4851  0.0278
 9506TIP3    H128482   0.982   0.798   0.057  0.2015  1.3548 -0.7297
 9506TIP3    H228483   0.853   0.723   0.030 -0.9517  2.1122  2.2787
 9507TIP3   OH228484   5.680   2.375   3.227  0.1328 -0.2194 -0.4663
 9507TIP3    H128485   5.728   2.443   3.275 -0.6048  0.0341 -0.0786
 9507TIP3    H228486   5.646   2.420   3.149 -0.2846 -0.1578 -0.2522
 9508TIP3   OH228487   0.473   4.468   0.997 -0.0405  0.1217 -0.8087
 9508TIP3    H128488   0.388   4.505   0.973  0.5820  1.1736 -1.4182
 9508TIP3    H228489   0.451   4.385   1.039 -1.3352  0.0256 -1.6243
 9509TIP3   OH228490   1.303   6.812   2.238  0.5620 -0.5962  0.3367
 9509TIP3    H128491   1.309   6.729   2.189  0.6502 -0.4248  0.0522
 9509TIP3    H228492   1.283   6.877   2.171  1.6692 -0.1975  0.3698
 9510TIP3   OH228493   3.248   1.257   4.789  0.6771  0.0781  0.0170
 9510TIP3    H128494   3.302   1.178   4.800  0.3717 -0.0513  0.6020
 9510TIP3    H228495   3.302   1.328   4.823  1.0099  0.1511 -0.6416
 9511TIP3   OH228496   5.701   5.168   2.396  0.7304  0.2392  0.0502
 9511TIP3    H128497   5.656   5.104   2.451 -0.9375  2.0650  0.9169
 9511TIP3    H228498   5.631   5.225   2.363  1.9372  0.5512 -2.2016
 9512TIP3   OH228499   0.935   4.069   0.850 -0.0930 -0.2692 -0.3804
 9512TIP3    H128500   0.962   3.978   0.859  1.1608  0.1942  1.2128
 9512TIP3    H228501   0.896   4.075   0.763  0.0942 -2.2381 -0.6357
 9513TIP3   OH228502   5.798   1.634   2.601  0.4167  0.1359 -0.2146
 9513TIP3    H128503   5.707   1.663   2.591  0.1909 -0.9184 -1.5478
 9513TIP3    H228504   5.792   1.553   2.652  0.4407 -0.6698 -1.4421
 9514TIP3   OH228505   0.735   5.829   2.567 -0.1263 -0.6140 -0.3525
 9514TIP3    H128506   0.694   5.884   2.502 -1.4156 -0.4055  0.6010
 9514TIP3    H228507   0.764   5.889   2.636  0.1250 -0.9446 -0.1597
 9515TIP3   OH228508   1.264   2.074   3.072  0.3003 -0.0724 -0.0347
 9515TIP3    H128509   1.216   2.142   3.026  1.0666  0.2239 -0.4205
 9515TIP3    H228510   1.199   2.031   3.127  0.0065  1.6496  1.0323
 9516TIP3   OH228511   1.049   3.700   0.563  0.1304 -0.6001 -0.2556
 9516TIP3    H128512   1.065   3.605   0.563  0.3998 -0.5726  0.9699
 9516TIP3    H228513   0.964   3.710   0.607  0.5582 -0.2171  0.4960
 9517TIP3   OH228514   1.581   4.803   4.507 -0.0543  0.3698  0.4514
 9517TIP3    H128515   1.540   4.731   4.459  1.0238 -0.8343  1.2622
 9517TIP3    H228516   1.596   4.870   4.440 -1.5544  0.0771 -0.2252
 9518TIP3   OH228517   5.740   6.020   1.740 -0.3544  0.1963  0.7656
 9518TIP3    H128518   5.786   6.030   1.824  0.2193 -0.6769  0.5757
 9518TIP3    H228519   5.764   5.932   1.711  0.0469  0.7693 -0.6792
 9519TIP3   OH228520   1.957   6.656   0.177  0.4474 -0.6859 -0.0887
 9519TIP3    H128521   2.013   6.592   0.222  1.4103  0.0219 -0.2599
 9519TIP3    H228522   1.961   6.734   0.232 -0.2456 -0.5757 -0.1908
 9520TIP3   OH228523   5.446   6.199   2.567 -0.1628 -0.0313  0.0425
 9520TIP3    H128524   5.418   6.154   2.646  0.8088 -1.5050 -0.4114
 9520TIP3    H228525   5.393   6.159   2.497  1.3494 -1.1782 -0.4919
 9521TIP3   OH228526   5.373   5.816   4.432 -0.7206  0.6766 -0.3013
 9521TIP3    H128527   5.384   5.859   4.517 -1.1021 -1.4994  0.9428
 9521TIP3    H228528   5.448   5.845   4.381  0.1761  1.1387  1.1999
 9522TIP3   OH228529   4.064   4.960   1.166 -0.3564 -1.0291  0.5727
 9522TIP3    H128530   4.060   4.960   1.262  0.7228 -0.9076  0.6356
 9522TIP3    H228531   4.157   4.953   1.147 -0.2443  1.8687 -0.4254
 9523TIP3   OH228532   6.076   6.526   2.666 -0.0987 -0.3650 -0.5309
 9523TIP3    H128533   6.081   6.593   2.734  2.1614  0.1454 -1.0899
 9523TIP3    H228534   5.983   6.509   2.655 -0.5735 -0.9092  3.0470
 9524TIP3   OH228535   1.358   2.974   4.350 -0.2250 -0.3211  0.0707
 9524TIP3    H128536   1.403   2.892   4.332 -1.6332 -0.8205 -1.3773
 9524TIP3    H228537   1.429   3.038   4.361  0.8740 -1.3394 -0.7811
 9525TIP3   OH228538   6.609   4.231   3.394  0.3104 -1.1511 -0.3160
 9525TIP3    H128539   6.519   4.219   3.426 -0.1388  1.4582 -0.3601
 9525TIP3    H228540   6.600   4.238   3.299  0.7399 -2.0994 -0.4315
 9526TIP3   OH228541   5.980   3.800   3.244  0.0496 -0.2996 -0.7094
 9526TIP3    H128542   5.924   3.787   3.167 -3.7517  3.7085  0.9318
 9526TIP3    H228543   6.019   3.886   3.230  3.8848 -1.8152 -0.4574
 9527TIP3   OH228544   7.088   0.752   5.637 -0.4349  0.3426 -0.1919
 9527TIP3    H128545   7.178   0.728   5.661 -1.1554 -0.3068  2.1453
 9527TIP3    H228546   7.081   0.728   5.545  1.8615  0.6824 -0.5172
 9528TIP3   OH228547   7.218   0.417   0.446  0.7128 -0.1173 -0.3954
 9528TIP3    H128548   7.153   0.467   0.396  0.5594 -0.1213 -0.1992
 9528TIP3    H228549   7.215   0.329   0.409  1.1505  0.0708 -0.9029
 9529TIP3   OH228550   0.588   2.006   4.358  0.4678 -0.4903 -0.0009
 9529TIP3    H128551   0.541   2.088   4.340  1.0473  0.2037  1.4795
 9529TIP3    H228552   0.665   2.010   4.302 -1.9272 -2.4927 -3.8909
 9530TIP3   OH228553   6.006   2.077   3.690  0.2370 -0.0028 -0.4166
 9530TIP3    H128554   6.009   2.083   3.595 -0.0448 -1.0738 -0.5053
 9530TIP3    H228555   5.951   2.150   3.717 -0.1675 -0.0368 -1.1226
 9531TIP3   OH228556   0.909   1.625   4.758 -0.3578  0.2735 -0.1506
 9531TIP3    H128557   0.857   1.705   4.751 -0.4207  0.3009  0.6292
 9531TIP3    H228558   0.968   1.628   4.682 -0.8535  0.6989 -0.5218
 9532TIP3   OH228559   3.220   5.650   2.716  0.1034  0.6415 -0.5488
 9532TIP3    H128560   3.209   5.667   2.623  0.0178  0.4431 -0.5760
 9532TIP3    H228561   3.271   5.724   2.749  1.0066  0.2069 -0.9430
 9533TIP3   OH228562   2.675   0.961   1.371 -0.1809  0.2894  0.1793
 9533TIP3    H128563   2.636   1.034   1.420 -0.0772  0.1747  0.4362
 9533TIP3    H228564   2.669   0.886   1.431 -1.8346 -0.3367 -0.6998
 9534TIP3   OH228565   6.835   2.723   2.973  0.3907 -0.9804  0.3140
 9534TIP3    H128566   6.814   2.638   2.935 -0.1251  0.1357 -2.0327
 9534TIP3    H228567   6.786   2.725   3.055 -1.7957 -1.8886 -0.8807
 9535TIP3   OH228568   1.554   6.253   5.494  0.0609  0.0756 -0.5317
 9535TIP3    H128569   1.607   6.215   5.564 -0.5961 -1.0053 -0.6028
 9535TIP3    H228570   1.597   6.336   5.474  0.7777 -0.0184  0.5290
 9536TIP3   OH228571   1.075   0.874   3.452 -0.0509  0.2060 -0.2603
 9536TIP3    H128572   1.159   0.916   3.467 -0.0017  0.5236 -1.3276
 9536TIP3    H228573   1.012   0.946   3.447 -0.0335  0.1462 -1.6584
 9537TIP3   OH228574   6.065   4.122   0.846  0.2396  0.0790  0.6007
 9537TIP3    H128575   6.087   4.205   0.804 -0.5468 -0.3576 -0.7607
 9537TIP3    H228576   6.034   4.146   0.933  0.9649  1.1154  0.5910
 9538TIP3   OH228577   3.122   3.633   4.958 -0.2543  0.2182 -0.0177
 9538TIP3    H128578   3.098   3.629   4.865 -1.3062  0.5794  0.2235
 9538TIP3    H228579   3.051   3.586   5.003  1.4378 -2.0860  0.4291
 9539TIP3   OH228580   1.820   4.501   2.017  0.1297 -0.2323  0.4183
 9539TIP3    H128581   1.774   4.516   1.935 -0.6832 -0.8223  0.7603
 9539TIP3    H228582   1.841   4.589   2.049  0.4044  0.0001 -0.3828
 9540TIP3   OH228583   3.116   0.896   2.273 -0.6041 -0.1418 -0.5056
 9540TIP3    H128584   3.094   0.976   2.225  0.2203  0.4980  0.1624
 9540TIP3    H228585   3.114   0.921   2.365  3.1418  0.0995 -0.3670
 9541TIP3   OH228586   4.307   1.903   0.049 -0.3815  0.0406 -0.0776
 9541TIP3    H128587   4.263   1.893  -0.035 -2.6132 -0.2943  1.0471
 9541TIP3    H228588   4.279   1.988   0.081 -0.1389 -0.1508  0.6592
 9542TIP3   OH228589   1.118   2.918   4.748 -0.2902 -0.2616  0.9201
 9542TIP3    H128590   1.213   2.928   4.741 -0.4449  0.6290 -0.2071
 9542TIP3    H228591   1.085   2.935   4.659 -1.6876  1.8171  1.7719
 9543TIP3   OH228592   0.305   3.598   1.126  0.0498 -0.1607  0.4113
 9543TIP3    H128593   0.399   3.580   1.124 -0.1518 -1.3334  0.7713
 9543TIP3    H228594   0.270   3.551   1.051 -0.4353 -0.9292  1.1033
 9544TIP3   OH228595   5.960   0.961   0.696  0.5631  0.6448  0.1991
 9544TIP3    H128596   6.051   0.932   0.693  0.4230  0.2229 -0.1427
 9544TIP3    H228597   5.944   0.980   0.789  0.4909 -0.9622  0.5526
 9545TIP3   OH228598   3.961   6.403   4.272  0.3810 -0.3967 -0.6929
 9545TIP3    H128599   3.922   6.346   4.339  1.5864 -0.8326 -0.3415
 9545TIP3    H228600   3.886   6.434   4.221 -0.4879 -0.6645  0.3846
 9546TIP3   OH228601   3.998   6.767   5.105 -0.0358 -0.0527  0.0887
 9546TIP3    H128602   3.961   6.681   5.089  0.8112 -0.1437 -1.6144
 9546TIP3    H228603   3.927   6.828   5.087 -0.3269 -0.3481  0.2331
 9547TIP3   OH228604   5.620   3.486   2.225 -0.3615  0.0589 -0.5925
 9547TIP3    H128605   5.539   3.434   2.228 -0.5477  0.3581 -0.4659
 9547TIP3    H228606   5.689   3.422   2.243 -0.4527 -0.4389 -1.8473
 9548TIP3   OH228607   0.130   5.580   4.438  0.6373 -0.1528 -0.0026
 9548TIP3    H128608   0.162   5.660   4.396  0.4091  0.7342  1.4507
 9548TIP3    H228609   0.097   5.609   4.523 -0.7960 -1.5747 -0.0278
 9549TIP3   OH228610   3.172   2.805   1.448 -0.3911  0.3217  0.1145
 9549TIP3    H128611   3.247   2.854   1.480 -0.9622  0.9462  0.5307
 9549TIP3    H228612   3.207   2.748   1.379  0.3289  1.1202 -0.1877
 9550TIP3   OH228613   6.333   5.661   4.126  0.0598 -0.0543 -0.2533
 9550TIP3    H128614   6.401   5.658   4.058  0.7768 -1.9258  0.4746
 9550TIP3    H228615   6.322   5.570   4.152 -1.6859  0.3943  0.7122
 9551TIP3   OH228616   4.936   5.022   1.694 -0.0273 -0.0041  0.2818
 9551TIP3    H128617   4.928   4.991   1.604 -1.6481 -0.2410  0.4891
 9551TIP3    H228618   4.911   5.114   1.691 -0.1476 -0.0288  0.5047
 9552TIP3   OH228619   4.813   6.635   5.648  0.4817  0.1061 -0.2057
 9552TIP3    H128620   4.875   6.610   5.716 -0.3111 -1.5275 -0.0231
 9552TIP3    H228621   4.732   6.656   5.695 -0.7591 -3.1448 -0.6262
 9553TIP3   OH228622   2.705   1.344   3.373 -0.1991  0.0986  0.3483
 9553TIP3    H128623   2.747   1.291   3.441  0.6462 -0.6525 -0.7063
 9553TIP3    H228624   2.671   1.420   3.419  0.9895 -0.0293  1.5025
 9554TIP3   OH228625   1.926   2.066   2.284 -0.4577 -0.2903 -0.9314
 9554TIP3    H128626   1.938   2.120   2.206  0.0175 -1.7829 -1.9400
 9554TIP3    H228627   2.005   2.012   2.288 -1.2468 -1.4520 -0.4169
 9555TIP3   OH228628   6.811   4.795   2.516 -0.0657  0.1215 -0.9340
 9555TIP3    H128629   6.784   4.848   2.591 -0.9521 -0.7581 -0.6034
 9555TIP3    H228630   6.907   4.798   2.518 -0.0639 -0.0030  0.3281
 9556TIP3   OH228631   2.500   3.254   4.696 -0.2094  0.0233 -0.2876
 9556TIP3    H128632   2.468   3.168   4.669  2.3748 -0.3574 -2.5626
 9556TIP3    H228633   2.491   3.309   4.618  0.5374  1.0706  0.3375
 9557TIP3   OH228634   4.556   4.841   4.356  0.1285  0.6827  0.2916
 9557TIP3    H128635   4.576   4.786   4.280  0.5104  0.9514  0.1919
 9557TIP3    H228636   4.592   4.793   4.430 -0.6627  0.1921  0.3679
 9558TIP3   OH228637   6.745   1.716   3.370  0.9070  0.0252  0.2241
 9558TIP3    H128638   6.754   1.711   3.466  0.9358 -0.6413  0.1907
 9558TIP3    H228639   6.794   1.640   3.338  2.6890  1.3673 -0.4352
 9559TIP3   OH228640   1.319   6.124   5.539 -0.5063  0.4757 -0.3487
 9559TIP3    H128641   1.411   6.149   5.531 -0.0400 -1.3603 -1.3316
 9559TIP3    H228642   1.281   6.191   5.595  1.2510  1.7009 -0.5288
 9560TIP3   OH228643   2.211   6.693   4.959  0.0825 -0.4138 -0.5912
 9560TIP3    H128644   2.244   6.624   4.902 -1.0228 -2.5992  1.2539
 9560TIP3    H228645   2.120   6.704   4.932 -0.1752 -0.7919  0.0960
 9561TIP3   OH228646   4.593   0.583   1.103  0.1376  0.3330  0.0778
 9561TIP3    H128647   4.576   0.629   1.186  1.9006  1.6067 -0.2052
 9561TIP3    H228648   4.521   0.611   1.046 -0.6332  0.1037  0.9017
 9562TIP3   OH228649   4.441   3.830   4.969  0.3828 -0.1829 -0.4763
 9562TIP3    H128650   4.533   3.828   4.942  0.5746 -1.1550  0.1908
 9562TIP3    H228651   4.442   3.873   5.055  0.2853 -0.6207 -0.2515
 9563TIP3   OH228652   1.867   1.800   5.849 -0.2989 -0.5005  0.5435
 9563TIP3    H128653   1.886   1.711   5.821 -1.6260 -0.3359 -1.0187
 9563TIP3    H228654   1.774   1.800   5.870 -0.0212  0.2062  1.8725
 9564TIP3   OH228655   6.805   4.636   1.383 -0.1590  0.3696 -0.2017
 9564TIP3    H128656   6.889   4.644   1.428 -0.0622 -0.6940 -0.1673
 9564TIP3    H228657   6.785   4.725   1.355  1.1148  0.5991 -0.4569
 9565TIP3   OH228658   2.992   0.055   3.847 -0.2207  0.3771  0.4029
 9565TIP3    H128659   3.063   0.084   3.790  0.0792  1.0927  1.1131
 9565TIP3    H228660   2.912   0.080   3.800 -0.0236 -0.6157 -0.4929
 9566TIP3   OH228661   6.357   2.077   1.856 -0.1201 -0.4481  0.2800
 9566TIP3    H128662   6.262   2.089   1.849 -0.0715 -0.0504  0.2498
 9566TIP3    H228663   6.393   2.145   1.799  0.2286  0.8624  1.9942
 9567TIP3   OH228664   0.398   2.881   4.677 -0.2925 -0.7090 -0.7143
 9567TIP3    H128665   0.327   2.893   4.614  0.2912 -1.0091 -1.4489
 9567TIP3    H228666   0.476   2.915   4.633 -0.4640  2.7867  1.3449
 9568TIP3   OH228667   1.559   0.515   1.034 -0.6144  0.0323 -0.1755
 9568TIP3    H128668   1.653   0.515   1.051 -0.8056 -0.8303  0.9914
 9568TIP3    H228669   1.528   0.598   1.072 -0.2779  0.5124 -0.9294
 9569TIP3   OH228670   5.374   6.147   1.459  0.2047 -0.3275  0.0731
 9569TIP3    H128671   5.369   6.224   1.515  0.4147 -1.1154  1.1994
 9569TIP3    H228672   5.360   6.181   1.371  3.6665  1.5682  0.0787
 9570TIP3   OH228673   4.855   0.527   4.129  0.0732  0.3651 -0.1965
 9570TIP3    H128674   4.915   0.590   4.088  0.4567  0.4094  0.4308
 9570TIP3    H228675   4.768   0.555   4.099  0.4323 -0.5045 -2.1970
 9571TIP3   OH228676   5.101   0.484   2.099 -0.0119 -0.2444  0.5850
 9571TIP3    H128677   5.067   0.567   2.066  4.2439  1.6939  0.4152
 9571TIP3    H228678   5.090   0.491   2.194  2.1541  1.6550  0.7986
 9572TIP3   OH228679   1.714   2.960   3.858 -0.4408 -0.4497 -0.0571
 9572TIP3    H128680   1.762   3.026   3.809 -0.7530 -1.7526 -2.2643
 9572TIP3    H228681   1.638   2.941   3.803 -2.1146 -0.3374  2.0839
 9573TIP3   OH228682   4.341   4.374   0.436 -0.1739 -0.4154  0.0529
 9573TIP3    H128683   4.413   4.410   0.385 -0.0355  0.0766  0.5835
 9573TIP3    H228684   4.381   4.347   0.519 -0.7137  0.5711  0.6575
 9574TIP3   OH228685   3.384   3.282   3.778 -0.3213 -0.4559 -0.2881
 9574TIP3    H128686   3.398   3.206   3.721 -0.7028 -1.2822  0.6898
 9574TIP3    H228687   3.473   3.312   3.799 -0.1462  0.8147 -2.4814
 9575TIP3   OH228688   5.116   4.863   2.873  0.5051 -0.2224  0.1996
 9575TIP3    H128689   5.048   4.862   2.806  0.1796  1.9117  0.4327
 9575TIP3    H228690   5.078   4.816   2.947 -0.4286  0.2828  0.0517
 9576TIP3   OH228691   7.185   1.385   1.347 -0.4620  0.5634 -0.0590
 9576TIP3    H128692   7.142   1.440   1.412  0.3418 -0.0710  1.0455
 9576TIP3    H228693   7.257   1.343   1.395 -1.1325 -1.5654 -0.8055
 9577TIP3   OH228694   2.883   6.715   0.612  0.1153 -0.7916 -0.9613
 9577TIP3    H128695   2.871   6.806   0.639 -0.0541 -0.7800 -1.0758
 9577TIP3    H228696   2.973   6.694   0.636  1.0051  0.1800 -3.1791
 9578TIP3   OH228697   4.978   2.728   4.183 -0.3163 -0.0117  0.0043
 9578TIP3    H128698   5.028   2.737   4.264  0.8491  1.2304 -0.8079
 9578TIP3    H228699   5.040   2.747   4.113 -1.0442 -2.0264 -1.2894
 9579TIP3   OH228700   1.545   4.604   3.564  0.4184  0.1735  0.0927
 9579TIP3    H128701   1.586   4.575   3.482 -3.2700  0.0814 -1.9791
 9579TIP3    H228702   1.490   4.531   3.591 -0.2263  1.0621  1.3131
 9580TIP3   OH228703   6.986   6.413   1.923  0.3859  0.1370 -0.5871
 9580TIP3    H128704   7.024   6.403   2.010 -0.9178 -2.9645 -0.2662
 9580TIP3    H228705   7.061   6.411   1.863  1.0762 -1.0914  0.2930
 9581TIP3   OH228706   1.718   0.432   1.508  0.2900 -0.2342  0.1420
 9581TIP3    H128707   1.684   0.496   1.446  1.1245 -0.4457 -0.5615
 9581TIP3    H228708   1.650   0.364   1.512  0.0469 -0.0153 -0.2168
 9582TIP3   OH228709   6.692   1.069   5.763  0.0173 -0.1564  0.2006
 9582TIP3    H128710   6.729   0.993   5.717  0.9671  0.6422 -0.4037
 9582TIP3    H228711   6.616   1.094   5.710  0.6100  0.2403 -0.4872
 9583TIP3   OH228712   5.428   6.786   0.833 -0.6551  0.1143  0.1776
 9583TIP3    H128713   5.358   6.762   0.772  0.0549  1.2384 -1.1308
 9583TIP3    H228714   5.448   6.704   0.879 -0.1728 -1.2017 -2.2050
 9584TIP3   OH228715   2.218   6.310   0.440  0.4349  0.2869 -0.2457
 9584TIP3    H128716   2.301   6.356   0.424 -0.8164  2.2549 -1.5137
 9584TIP3    H228717   2.200   6.325   0.532  1.8125 -0.8151  0.2505
 9585TIP3   OH228718   7.110   2.160   3.021 -0.1966  0.0259 -0.1093
 9585TIP3    H128719   7.057   2.238   3.036  2.4211  2.2399 -1.3946
 9585TIP3    H228720   7.074   2.121   2.941 -1.4851 -0.0561  0.4982
 9586TIP3   OH228721   6.420   5.295   5.190 -0.0958 -0.5114  0.6437
 9586TIP3    H128722   6.503   5.296   5.238 -1.8337  0.7402  3.9298
 9586TIP3    H228723   6.362   5.242   5.244 -2.1412  0.7909 -0.1495
 9587TIP3   OH228724   7.148   0.164   4.866 -0.2366  0.2761 -0.1839
 9587TIP3    H128725   7.190   0.108   4.931  0.3956  1.5308  0.5282
 9587TIP3    H228726   7.058   0.175   4.898 -0.7470 -1.2822 -0.9792
 9588TIP3   OH228727   3.891   6.581   3.955  0.3620  0.2861 -0.4933
 9588TIP3    H128728   3.894   6.487   3.973 -0.2655  0.4501  0.5816
 9588TIP3    H228729   3.865   6.588   3.863  0.7427 -0.5869 -0.6761
 9589TIP3   OH228730   6.051   4.205   5.826  0.2983 -0.0712 -0.2831
 9589TIP3    H128731   6.069   4.214   5.733  0.0882  0.3310 -0.2894
 9589TIP3    H228732   6.136   4.220   5.868  0.0491  1.6457 -0.3242
 9590TIP3   OH228733   3.609   4.605   1.193  0.0548  0.2565 -0.0308
 9590TIP3    H128734   3.557   4.611   1.113 -0.0437 -2.1105 -0.2077
 9590TIP3    H228735   3.694   4.573   1.165  0.3113  0.2604  0.7249
 9591TIP3   OH228736   4.558   4.505   5.891 -0.7714  0.3425 -0.3777
 9591TIP3    H128737   4.543   4.424   5.843  1.5630 -0.0345 -0.6305
 9591TIP3    H228738   4.607   4.560   5.829 -0.7847  1.2408  0.3884
 9592TIP3   OH228739   4.427   4.842   2.373 -0.2741  0.3594  0.5221
 9592TIP3    H128740   4.357   4.908   2.371  0.2208  0.8756 -1.6784
 9592TIP3    H228741   4.387   4.763   2.339  0.2958  0.8114 -1.3160
 9593TIP3   OH228742   2.666   6.543   2.173 -0.4453  0.0286 -0.0438
 9593TIP3    H128743   2.621   6.462   2.149 -0.6162 -0.2814  1.2658
 9593TIP3    H228744   2.756   6.516   2.192 -0.2539  0.3084 -0.5173
 9594TIP3   OH228745   4.534   4.877   1.950 -0.0564  0.4528  0.0756
 9594TIP3    H128746   4.483   4.857   1.872  1.7597  2.6178 -1.8220
 9594TIP3    H228747   4.625   4.862   1.924  0.5201 -1.0464  2.5847
 9595TIP3   OH228748   4.327   4.900   1.056 -0.6080  0.0667 -0.5388
 9595TIP3    H128749   4.335   4.981   1.006 -0.6336  0.0222 -0.6152
 9595TIP3    H228750   4.309   4.833   0.990  0.1161 -0.1186 -0.5481
 9596TIP3   OH228751   1.508   2.239   0.386 -0.2871  0.4656  1.0506
 9596TIP3    H128752   1.490   2.326   0.422 -0.1159  0.5970  0.8246
 9596TIP3    H228753   1.604   2.235   0.382 -0.2764  0.0207  1.6533
 9597TIP3   OH228754   0.200   0.368   1.992  0.3388  0.4509 -0.4218
 9597TIP3    H128755   0.154   0.438   2.038 -0.5506 -0.0593 -0.5057
 9597TIP3    H228756   0.286   0.363   2.034 -0.3742  0.1333  1.0615
 9598TIP3   OH228757   0.724   1.519   1.717 -0.2010 -0.0898  0.2217
 9598TIP3    H128758   0.751   1.508   1.626  0.3030  0.1602  0.3370
 9598TIP3    H228759   0.726   1.431   1.754 -0.0644 -0.1424  0.0875
 9599TIP3   OH228760   5.941   2.239   0.051 -0.3060 -0.0351  0.2571
 9599TIP3    H128761   6.025   2.282   0.068 -1.1015  1.3162  0.9836
 9599TIP3    H228762   5.961   2.146   0.051  0.8133  0.1111  2.9373
 9600TIP3   OH228763   0.682   0.646   4.753  0.5878 -0.6638 -0.2698
 9600TIP3    H128764   0.772   0.659   4.725  0.8498  1.3281  1.2631
 9600TIP3    H228765   0.650   0.734   4.771 -1.9728 -1.2280 -1.5546
 9601TIP3   OH228766   2.561   2.053   2.023  0.2413  0.0905 -0.0056
 9601TIP3    H128767   2.615   2.112   2.075 -0.2155  0.3100  0.2202
 9601TIP3    H228768   2.555   2.095   1.937 -1.4093  1.2140  0.6005
 9602TIP3   OH228769   4.373   1.426   0.809  0.2479 -0.2757  0.0775
 9602TIP3    H128770   4.468   1.417   0.819  0.1606  0.1620  1.5560
 9602TIP3    H228771   4.355   1.392   0.722  1.5224 -2.1008  0.4715
 9603TIP3   OH228772   6.885   1.348   4.944  0.4561 -0.4059  0.8913
 9603TIP3    H128773   6.871   1.413   5.013  0.6996 -0.2398  0.7837
 9603TIP3    H228774   6.811   1.288   4.953  2.0253 -2.1354  3.2324
 9604TIP3   OH228775   2.533   0.288   3.728 -0.2331 -0.2441  0.1596
 9604TIP3    H128776   2.461   0.231   3.702 -0.0603 -0.0132 -0.8486
 9604TIP3    H228777   2.515   0.371   3.684  1.6991 -0.7885 -1.8026
 9605TIP3   OH228778   3.101   1.975   3.898  0.8600  0.0224  0.4733
 9605TIP3    H128779   3.086   1.893   3.851  0.9194  1.1077 -1.5282
 9605TIP3    H228780   3.051   1.965   3.979  0.0088 -1.5736 -0.2006
 9606TIP3   OH228781   7.023   6.115   0.213 -0.0967  0.0244  0.0228
 9606TIP3    H128782   7.049   6.207   0.204 -0.3469  0.0642 -0.2990
 9606TIP3    H228783   6.953   6.104   0.149 -0.0263 -0.4086  0.0223
 9607TIP3   OH228784   0.528   4.994   1.399 -0.2302 -0.1648 -0.1756
 9607TIP3    H128785   0.531   4.954   1.486  0.3953  0.1126 -0.0659
 9607TIP3    H228786   0.599   4.953   1.351  0.2783  0.6305 -0.1305
 9608TIP3   OH228787   1.078   1.594   5.238  0.5351 -0.4364 -0.2446
 9608TIP3    H128788   1.096   1.574   5.330 -1.3220 -1.3460 -0.0194
 9608TIP3    H228789   1.040   1.513   5.203  0.6185  0.1019 -1.6434
 9609TIP3   OH228790   1.179   6.569   0.362  0.0989  0.1715 -0.2110
 9609TIP3    H128791   1.091   6.553   0.328  0.4957  0.0496 -1.2284
 9609TIP3    H228792   1.233   6.501   0.321  0.5743 -0.1015  0.8344
 9610TIP3   OH228793   0.354   6.540   2.681 -0.3462  0.5338 -0.3229
 9610TIP3    H128794   0.369   6.634   2.689 -0.3994  0.4034  1.6967
 9610TIP3    H228795   0.269   6.525   2.722 -0.3862 -0.3848 -0.7077
 9611TIP3   OH228796   6.228   2.192   0.032  0.0697  0.1275  0.1200
 9611TIP3    H128797   6.156   2.131   0.039 -0.6727  1.1321  1.9859
 9611TIP3    H228798   6.303   2.147   0.071  0.1416 -0.4463 -0.6709
 9612TIP3   OH228799   4.827   1.701   2.656 -0.1489  0.8001 -0.5266
 9612TIP3    H128800   4.768   1.646   2.605  2.1794 -2.1252 -0.3046
 9612TIP3    H228801   4.887   1.739   2.591  0.3343  0.3094 -0.3753
 9613TIP3   OH228802   1.810   1.995   5.408  0.2610  0.3143  0.4162
 9613TIP3    H128803   1.878   1.932   5.385  0.7102  0.3748  1.5095
 9613TIP3    H228804   1.837   2.029   5.494 -1.5850 -0.3363  1.3117
 9614TIP3   OH228805   6.855   0.069   5.664  0.4905  0.4062 -0.0556
 9614TIP3    H128806   6.921   0.071   5.595  2.1528  4.5961  1.3815
 9614TIP3    H228807   6.817   0.157   5.665 -1.1584 -0.1870  2.8421
 9615TIP3   OH228808   0.614   5.177   4.296 -0.9555 -0.2033  0.2854
 9615TIP3    H128809   0.562   5.205   4.220 -1.0635 -0.5073  0.2440
 9615TIP3    H228810   0.549   5.147   4.359 -0.9115  0.8012  0.8192
 9616TIP3   OH228811   4.786   3.680   3.513 -0.0284  0.8744 -0.2675
 9616TIP3    H128812   4.747   3.647   3.432  1.1616 -0.2514 -0.3978
 9616TIP3    H228813   4.714   3.726   3.556 -0.6108  1.7438 -2.0793
 9617TIP3   OH228814   2.917   4.492   2.624 -0.1317  0.0899 -0.0500
 9617TIP3    H128815   3.000   4.536   2.603  0.6532 -1.9297 -1.4629
 9617TIP3    H228816   2.943   4.407   2.660 -1.6193  0.1784  1.3705
 9618TIP3   OH228817   0.353   2.079   0.354  0.5662 -0.3284 -0.1300
 9618TIP3    H128818   0.428   2.049   0.304  0.3248 -1.8806  0.3957
 9618TIP3    H228819   0.342   2.014   0.423 -0.5068  0.5387  0.5516
 9619TIP3   OH228820   2.598   3.307   0.228  0.2350 -0.2665  0.3783
 9619TIP3    H128821   2.653   3.385   0.229  1.2592 -0.9543 -0.7117
 9619TIP3    H228822   2.547   3.313   0.309  2.0760  0.2680  1.5513
 9620TIP3   OH228823   7.111   4.207   1.288 -0.2902 -0.2351  0.0074
 9620TIP3    H128824   7.072   4.246   1.367  0.0931 -0.1783  0.1679
 9620TIP3    H228825   7.098   4.113   1.300  0.2282 -0.2645  0.3881
 9621TIP3   OH228826   5.269   6.622   1.592  0.3236 -0.6234  0.1063
 9621TIP3    H128827   5.185   6.662   1.569  0.9003  0.6043  0.0355
 9621TIP3    H228828   5.271   6.624   1.688 -0.2800 -1.8688  0.1567
 9622TIP3   OH228829   7.164   4.000   2.005  0.0545 -0.4765 -0.0317
 9622TIP3    H128830   7.150   4.048   2.087  2.5464  0.6940 -0.2025
 9622TIP3    H228831   7.147   3.908   2.028  0.9702 -0.2090  1.8857
 9623TIP3   OH228832   5.596   0.811   0.423  0.6216  0.7676  0.1970
 9623TIP3    H128833   5.668   0.874   0.424  1.9177 -0.5667 -1.6409
 9623TIP3    H228834   5.630   0.735   0.471  0.2131  0.3473 -0.1698
 9624TIP3   OH228835   3.113   6.319   3.746  0.0115  0.0878  0.2241
 9624TIP3    H128836   3.155   6.234   3.746  3.0973  1.4502 -1.2493
 9624TIP3    H228837   3.053   6.316   3.671  0.0519 -0.7938  0.2200
 9625TIP3   OH228838   5.039   5.671   2.310  0.0050 -0.5167  0.9236
 9625TIP3    H128839   5.131   5.683   2.288  0.1980 -3.3624 -0.1823
 9625TIP3    H228840   5.023   5.734   2.380  2.1529  1.6504 -0.3761
 9626TIP3   OH228841   6.993   5.163   5.392 -0.4116  0.2935 -0.1737
 9626TIP3    H128842   7.040   5.213   5.325 -0.1489  1.4082  0.8170
 9626TIP3    H228843   6.931   5.109   5.342 -0.5541  1.4411 -1.2887
 9627TIP3   OH228844   4.201   1.644   0.833 -0.2465 -0.7860  0.4673
 9627TIP3    H128845   4.249   1.561   0.828 -0.3613 -0.8243 -0.0520
 9627TIP3    H228846   4.174   1.650   0.924  1.0462 -0.5991  0.8524
 9628TIP3   OH228847   1.858   4.617   5.294 -0.0568 -0.6964 -0.0071
 9628TIP3    H128848   1.764   4.603   5.296 -0.3022  0.8792  2.0833
 9628TIP3    H228849   1.895   4.528   5.297 -1.4425 -1.3145 -0.2526
 9629TIP3   OH228850   5.643   6.428   4.720 -0.4358 -0.0529  0.2346
 9629TIP3    H128851   5.662   6.440   4.627  1.2054 -0.4608  0.4767
 9629TIP3    H228852   5.701   6.357   4.747 -2.1181 -1.1258  1.2128
 9630TIP3   OH228853   0.030   2.858   2.788  0.0066 -0.3461  0.0442
 9630TIP3    H128854  -0.064   2.873   2.784 -0.0966 -0.8237  0.5791
 9630TIP3    H228855   0.055   2.881   2.877  0.2617 -0.9485  0.1363
 9631TIP3   OH228856   4.883   1.899   3.773 -0.1673  0.6801  0.5910
 9631TIP3    H128857   4.818   1.871   3.837  0.3742  0.5409  1.0958
 9631TIP3    H228858   4.966   1.861   3.805  0.3194  1.6181  0.4722
 9632TIP3   OH228859   0.888   5.892   2.238 -0.4531 -0.0809 -0.0488
 9632TIP3    H128860   0.871   5.837   2.314 -2.9345  1.2407  0.4376
 9632TIP3    H228861   0.984   5.891   2.229 -0.2328 -1.9368  1.7794
 9633TIP3   OH228862   0.366   1.797   1.394 -0.4138 -0.1741 -0.0429
 9633TIP3    H128863   0.373   1.741   1.316  0.8860 -1.9443  1.2626
 9633TIP3    H228864   0.457   1.819   1.416 -0.8332  1.3524  0.2863
 9634TIP3   OH228865   5.865   0.050   4.037 -0.2533  0.1901  0.1974
 9634TIP3    H128866   5.793  -0.012   4.043  0.0165 -0.0098  2.5810
 9634TIP3    H228867   5.904   0.034   3.951 -2.1228 -0.7128 -0.5298
 9635TIP3   OH228868   6.004   1.626   4.856  0.1088  0.1207  0.4573
 9635TIP3    H128869   5.929   1.655   4.804 -1.1670  0.3845  2.3747
 9635TIP3    H228870   6.037   1.705   4.897  0.5437 -0.2195  0.7753
 9636TIP3   OH228871   6.814   5.416   1.520  0.4228  0.0832  0.0461
 9636TIP3    H128872   6.856   5.470   1.587  2.5906 -1.2040 -0.1488
 9636TIP3    H228873   6.888   5.377   1.472 -1.0143 -2.3272 -0.3744
 9637TIP3   OH228874   5.578   2.282   4.976 -0.3746 -0.2695 -0.4642
 9637TIP3    H128875   5.556   2.375   4.976  0.2140 -0.1163  1.0369
 9637TIP3    H228876   5.642   2.272   5.046 -1.3401 -2.0111  0.2356
 9638TIP3   OH228877   4.795   1.531   4.055  0.4069 -0.3007 -0.3412
 9638TIP3    H128878   4.755   1.510   4.139 -0.6426  2.4840 -0.0463
 9638TIP3    H228879   4.826   1.621   4.064  2.3326 -0.6723 -2.2369
 9639TIP3   OH228880   3.644   3.923   5.820  0.3133  0.8447  0.1945
 9639TIP3    H128881   3.562   3.883   5.790  1.2888 -1.4613  0.4310
 9639TIP3    H228882   3.659   3.994   5.758  0.2836 -1.3508 -2.5496
 9640TIP3   OH228883   5.512   1.536   0.507  0.4057  0.1729 -0.3450
 9640TIP3    H128884   5.568   1.608   0.535 -0.2828  0.8702 -0.7326
 9640TIP3    H228885   5.447   1.577   0.450  0.6442 -0.9057 -1.4467
 9641TIP3   OH228886   6.762   5.890   1.044  0.1857  0.4203 -0.1721
 9641TIP3    H128887   6.775   5.838   0.965  0.9792  1.8207 -1.0058
 9641TIP3    H228888   6.850   5.918   1.069 -0.1324  0.6145  0.7638
 9642TIP3   OH228889   0.053   6.340   2.590  0.1908 -0.6125 -0.6640
 9642TIP3    H128890  -0.029   6.369   2.551 -0.5524 -0.6993  0.7738
 9642TIP3    H228891   0.076   6.409   2.652  1.3985 -0.4251 -1.2896
 9643TIP3   OH228892   1.175   1.548   1.002  1.0441  0.5320 -0.3994
 9643TIP3    H128893   1.140   1.637   1.009  2.3302  0.9207  2.4201
 9643TIP3    H228894   1.225   1.535   1.082  0.7160 -2.8585 -0.5898
 9644TIP3   OH228895   5.995   1.262   3.082 -0.2616 -0.0519  0.2164
 9644TIP3    H128896   5.903   1.242   3.063  0.0478 -0.8043 -0.5554
 9644TIP3    H228897   6.023   1.316   3.008 -0.2161  0.6540  0.7288
 9645TIP3   OH228898   6.226   3.590   0.581 -0.0914 -0.0288 -0.1533
 9645TIP3    H128899   6.137   3.557   0.565  0.2028 -0.2441 -1.4889
 9645TIP3    H228900   6.220   3.636   0.665 -1.7226  0.8831 -0.7213
 9646TIP3   OH228901   3.820   2.368   0.288 -0.1416 -0.1267  0.0990
 9646TIP3    H128902   3.749   2.368   0.352 -0.2839 -0.9874 -0.0497
 9646TIP3    H228903   3.892   2.414   0.332  0.4550 -2.3966  1.6667
 9647TIP3   OH228904   6.135   2.082   3.281  0.1587 -0.5630  0.7935
 9647TIP3    H128905   6.090   2.089   3.197  0.6046 -1.3217  0.4740
 9647TIP3    H228906   6.178   1.996   3.278  0.0810 -0.6524  1.8465
 9648TIP3   OH228907   4.428   5.576   5.430  0.0199  0.5720  0.0603
 9648TIP3    H128908   4.468   5.598   5.345  1.8952  0.3218  0.8473
 9648TIP3    H228909   4.338   5.609   5.422  0.7892  2.5700 -1.2228
 9649TIP3   OH228910   6.758   1.418   5.299  0.6736  0.4227  0.0515
 9649TIP3    H128911   6.688   1.472   5.263 -0.2776 -0.8092 -0.0106
 9649TIP3    H228912   6.715   1.364   5.365  0.8418 -2.5170 -2.0350
 9650TIP3   OH228913   2.236   2.175   2.146  0.4521 -0.2661 -0.4628
 9650TIP3    H128914   2.229   2.105   2.081  0.5095 -1.3881  0.7014
 9650TIP3    H228915   2.310   2.149   2.201 -0.6701 -0.2806  1.1136
 9651TIP3   OH228916   6.131   2.478   1.072  0.3153  0.3366  0.4560
 9651TIP3    H128917   6.127   2.561   1.024  0.5111  0.9015  1.3864
 9651TIP3    H228918   6.113   2.411   1.006 -0.3963  1.1513 -0.2059
 9652TIP3   OH228919   6.209   4.060   1.305  0.3286  0.3016 -0.0816
 9652TIP3    H128920   6.262   3.981   1.310 -0.4749 -0.2122  0.5169
 9652TIP3    H228921   6.143   4.049   1.373 -0.4220  1.0202 -0.6814
 9653TIP3   OH228922   3.653   5.583   3.501 -0.1695  1.2102 -0.5589
 9653TIP3    H128923   3.571   5.603   3.456 -0.5287 -0.3845 -0.6625
 9653TIP3    H228924   3.632   5.510   3.560  1.3004  0.3051 -1.0859
 9654TIP3   OH228925   2.118   0.819   3.643  0.3861 -0.5747 -0.1730
 9654TIP3    H128926   2.177   0.857   3.578  0.1768 -1.1645 -0.7257
 9654TIP3    H228927   2.172   0.807   3.721  0.0871  2.2550  0.5505
 9655TIP3   OH228928   7.093   6.518   1.654 -0.0590  0.7661  0.5229
 9655TIP3    H128929   7.151   6.445   1.675  0.2688  0.8471 -0.0633
 9655TIP3    H228930   7.144   6.596   1.675 -0.2584  0.8319  0.7663
 9656TIP3   OH228931   5.233   5.622   3.035 -0.5689 -0.3268 -0.6985
 9656TIP3    H128932   5.167   5.591   3.098 -1.1999 -1.0397 -1.6823
 9656TIP3    H228933   5.292   5.677   3.087  0.0343 -2.4023  0.9139
 9657TIP3   OH228934   1.706   1.704   2.452 -0.2202  0.3050  0.4352
 9657TIP3    H128935   1.790   1.729   2.413 -1.1800  0.9579 -1.3256
 9657TIP3    H228936   1.681   1.780   2.506 -0.0372  0.4187  0.3609
 9658TIP3   OH228937   4.296   3.045   2.325  0.4830  0.3461 -0.2268
 9658TIP3    H128938   4.262   2.977   2.267 -0.1302  0.8153 -0.4240
 9658TIP3    H228939   4.390   3.047   2.307  0.7508 -1.3779  0.7616
 9659TIP3   OH228940   7.182   0.462   3.122  0.2275 -0.1992  0.3763
 9659TIP3    H128941   7.224   0.376   3.115 -2.6063 -1.8061  1.3687
 9659TIP3    H228942   7.105   0.446   3.176 -0.4287  3.0199  0.5797
 9660TIP3   OH228943   5.916   4.420   4.042  0.2558  0.0044  0.4587
 9660TIP3    H128944   5.883   4.404   4.131  1.7639 -0.4025  0.9675
 9660TIP3    H228945   5.967   4.342   4.021  1.6953  1.0150  0.0937
 9661TIP3   OH228946   3.381   2.481   0.876 -0.3040 -0.0144 -0.1450
 9661TIP3    H128947   3.457   2.508   0.928  0.8720 -0.7248 -1.4187
 9661TIP3    H228948   3.312   2.544   0.899  0.8496  1.0223  0.5880
 9662TIP3   OH228949   3.756   5.400   5.380  0.4350 -0.1409 -0.1426
 9662TIP3    H128950   3.681   5.458   5.392 -0.2636 -1.0546 -0.0883
 9662TIP3    H228951   3.807   5.410   5.461 -1.1059 -1.6508  1.0902
 9663TIP3   OH228952   0.816   0.547   3.263  0.2934 -0.1069  0.3664
 9663TIP3    H128953   0.906   0.575   3.250  0.4590 -1.4744 -1.8399
 9663TIP3    H228954   0.821   0.476   3.327  0.4935  1.0591  1.7149
 9664TIP3   OH228955   5.331   4.231   4.918 -0.3024 -0.2480 -0.2233
 9664TIP3    H128956   5.298   4.281   4.993  1.6193  2.4754 -1.0300
 9664TIP3    H228957   5.253   4.211   4.866 -1.4537 -0.6313  1.5492
 9665TIP3   OH228958   3.179   0.549   0.832  0.2422  0.2302  0.1316
 9665TIP3    H128959   3.248   0.498   0.874  0.0718 -0.9375 -0.9581
 9665TIP3    H228960   3.131   0.486   0.778 -0.7339  1.3144 -0.3164
 9666TIP3   OH228961   3.610   2.420   0.718  0.2030  0.5404 -0.0071
 9666TIP3    H128962   3.561   2.490   0.760 -1.3772  0.3671 -1.4289
 9666TIP3    H228963   3.613   2.350   0.784 -0.1732  1.1171  0.6381
 9667TIP3   OH228964   5.661   2.719   1.400 -0.1780 -0.3373  0.2585
 9667TIP3    H128965   5.642   2.717   1.494 -1.1481  0.9598  0.1090
 9667TIP3    H228966   5.735   2.778   1.392  1.3355 -2.1120  0.3880
 9668TIP3   OH228967   1.985   1.523   5.770  0.0409  0.2626 -0.9235
 9668TIP3    H128968   2.061   1.557   5.819  0.4233  1.8154 -2.4876
 9668TIP3    H228969   2.014   1.439   5.736  0.3690 -0.0421  0.0811
 9669TIP3   OH228970   2.295   4.316   0.063  0.2113  0.2633 -0.0937
 9669TIP3    H128971   2.345   4.239   0.090  1.0818  0.5877 -0.7214
 9669TIP3    H228972   2.334   4.341  -0.022 -0.5343  0.9608 -0.2424
 9670TIP3   OH228973   5.301   2.731   3.777 -0.0902 -0.3620 -0.7889
 9670TIP3    H128974   5.269   2.670   3.711 -0.8818 -1.3942  0.4948
 9670TIP3    H228975   5.227   2.788   3.796 -0.5980 -1.4517  0.7158
 9671TIP3   OH228976   5.167   1.193   5.170 -0.6089 -0.0258 -0.1693
 9671TIP3    H128977   5.175   1.098   5.181 -0.5916 -0.2011 -1.4491
 9671TIP3    H228978   5.097   1.218   5.230 -0.2425 -0.7592  0.5894
 9672TIP3   OH228979   4.980   0.660   2.992 -0.2275  0.2850  0.6879
 9672TIP3    H128980   4.999   0.578   3.037  1.2781  0.2267  0.0004
 9672TIP3    H228981   5.028   0.726   3.040  2.9015 -0.0205 -1.6983
 9673TIP3   OH228982   5.035   2.639   1.553  0.6210  0.1202 -0.0330
 9673TIP3    H128983   4.946   2.619   1.525 -0.0575  2.0724  0.5271
 9673TIP3    H228984   5.076   2.554   1.566 -0.1569 -0.8763 -3.2346
 9674TIP3   OH228985   4.097   6.806   3.975 -0.2702  0.1621  0.7262
 9674TIP3    H128986   4.053   6.721   3.974  0.4911 -0.2601 -1.2449
 9674TIP3    H228987   4.180   6.790   4.019 -0.3976  0.0509  0.9312
 9675TIP3   OH228988   3.452   4.640   2.050  0.0002  0.7553  0.3538
 9675TIP3    H128989   3.372   4.655   2.101 -1.0946 -1.3259 -0.6399
 9675TIP3    H228990   3.422   4.632   1.960  1.5897  1.6305 -0.2972
 9676TIP3   OH228991   6.626   2.554   3.382  0.2740  0.3601  0.6289
 9676TIP3    H128992   6.704   2.571   3.434  0.8338 -1.3540  0.4093
 9676TIP3    H228993   6.636   2.464   3.351 -0.8021  0.7727 -1.1186
 9677TIP3   OH228994   5.292   5.950   0.068 -0.3604  0.1203 -0.3889
 9677TIP3    H128995   5.335   6.035   0.077 -1.3017  0.6683 -0.9479
 9677TIP3    H228996   5.238   5.958  -0.011 -2.4200 -0.1146  0.9264
 9678TIP3   OH228997   4.776   4.620   1.124 -0.0300 -0.1639 -0.0851
 9678TIP3    H128998   4.846   4.557   1.107  0.9003  0.4779  1.1942
 9678TIP3    H228999   4.696   4.570   1.115  0.6344 -1.1757 -0.5240
 9679TIP3   OH229000   6.993   3.768   1.845  0.1152  0.0972 -0.3962
 9679TIP3    H129001   7.017   3.854   1.810  1.5022  0.3302  1.0291
 9679TIP3    H229002   7.051   3.707   1.800  2.8106  0.5362  2.2372
 9680TIP3   OH229003   1.988   3.160   2.009  0.4213 -0.0986  0.4091
 9680TIP3    H129004   2.012   3.083   1.958 -1.6871 -2.3420  2.5377
 9680TIP3    H229005   2.062   3.172   2.069  0.2374 -1.3168  0.9148
 9681TIP3   OH229006   5.159   6.262   2.673 -0.7633 -0.5766  0.0967
 9681TIP3    H129007   5.226   6.329   2.658 -1.6738  0.9505  2.3192
 9681TIP3    H229008   5.164   6.206   2.596  1.5996  0.7098 -0.8007
 9682TIP3   OH229009   2.266   1.058   0.331 -0.1044  0.0633  0.2420
 9682TIP3    H129010   2.266   1.101   0.246  4.0051 -0.2989 -0.1407
 9682TIP3    H229011   2.260   0.965   0.311  0.1795  0.0146  0.3689
 9683TIP3   OH229012   6.504   6.617   5.024  0.0499  0.4459  0.1091
 9683TIP3    H129013   6.488   6.665   5.105 -0.4341 -0.0052  0.2892
 9683TIP3    H229014   6.417   6.592   4.993  0.0587  2.3356 -1.6425
 9684TIP3   OH229015   5.755   0.625   4.838 -0.6152  0.0839  0.1944
 9684TIP3    H129016   5.813   0.685   4.792  1.3985 -0.1493  2.2266
 9684TIP3    H229017   5.675   0.675   4.853  0.4846  1.7887  0.6185
 9685TIP3   OH229018   0.044   2.111   1.565  0.2643 -0.5358 -0.9023
 9685TIP3    H129019   0.022   2.040   1.626  0.4060 -1.4451 -1.8947
 9685TIP3    H229020   0.019   2.191   1.612  0.9524 -1.1682  0.6068
 9686TIP3   OH229021   4.107   5.876   0.241  0.3186 -0.0120 -0.0147
 9686TIP3    H129022   4.146   5.863   0.155  1.2867  0.3390  0.3506
 9686TIP3    H229023   4.034   5.936   0.226  0.7063  0.3353 -0.5387
 9687TIP3   OH229024   0.271   1.007   5.747  0.0416 -0.0314  0.4885
 9687TIP3    H129025   0.285   1.102   5.749  0.4083  0.1370 -3.2192
 9687TIP3    H229026   0.359   0.970   5.753 -0.0440 -0.1109  1.2686
 9688TIP3   OH229027   2.503   6.817   5.183  0.7837 -0.5410  0.2137
 9688TIP3    H129028   2.533   6.806   5.093 -0.4828 -0.4443 -0.2393
 9688TIP3    H229029   2.416   6.775   5.185 -0.8026  2.4927  0.4222
 9689TIP3   OH229030   3.819   0.049   4.390  0.4405 -0.1609 -0.2231
 9689TIP3    H129031   3.855   0.068   4.303  1.1125  0.2401  0.1326
 9689TIP3    H229032   3.805   0.136   4.429 -1.7139 -0.2621 -0.6473
 9690TIP3   OH229033   1.395   2.630   4.607  0.5959  0.4685  0.2505
 9690TIP3    H129034   1.357   2.658   4.524 -0.5741 -0.8772  0.3040
 9690TIP3    H229035   1.323   2.636   4.670  0.7569 -1.0024  0.6025
 9691TIP3   OH229036   1.720   3.269   0.214 -0.2588  0.5972 -0.0192
 9691TIP3    H129037   1.652   3.251   0.150 -0.3155  0.8968 -0.0466
 9691TIP3    H229038   1.746   3.360   0.197  0.0102  0.5485  0.1170
 9692TIP3   OH229039   1.030   1.966   3.176 -0.6284 -0.1234  0.2734
 9692TIP3    H129040   0.935   1.960   3.185 -0.6483  2.1711  2.8973
 9692TIP3    H229041   1.064   1.919   3.252  0.3466 -0.3978 -0.3140
 9693TIP3   OH229042   2.899   2.569   1.291  0.0940 -0.2384  0.2416
 9693TIP3    H129043   2.866   2.604   1.208 -0.8194 -1.1153  0.2279
 9693TIP3    H229044   2.866   2.479   1.295 -0.1395 -0.1117  1.7100
 9694TIP3   OH229045   2.720   2.607   5.652 -0.0177  0.0875  0.2142
 9694TIP3    H129046   2.811   2.631   5.669 -0.1150 -0.2989  1.3257
 9694TIP3    H229047   2.696   2.660   5.576  0.2863  2.2335  1.5394
 9695TIP3   OH229048   6.439   3.216   1.808 -0.6590 -0.2412 -0.0786
 9695TIP3    H129049   6.382   3.273   1.860 -0.6487  0.8152 -1.1791
 9695TIP3    H229050   6.415   3.128   1.835 -1.6402  0.2407  0.6945
 9696TIP3   OH229051   2.715   2.577   0.217  0.3917  0.1100  0.3903
 9696TIP3    H129052   2.649   2.545   0.279  0.5408 -0.4727  0.2520
 9696TIP3    H229053   2.711   2.516   0.144 -0.7221  1.5490 -0.8126
 9697TIP3   OH229054   0.253   2.904   0.406 -0.3602  0.5113 -0.3842
 9697TIP3    H129055   0.247   2.809   0.417 -0.1893  0.7542  3.0659
 9697TIP3    H229056   0.333   2.918   0.355  0.7072 -1.1802  0.7374
 9698TIP3   OH229057   0.142   5.959   5.542  0.1784  0.1233  0.0328
 9698TIP3    H129058   0.172   6.049   5.552  0.3571  0.2404 -1.3673
 9698TIP3    H229059   0.211   5.906   5.583 -0.2912  0.6338  1.5474
 9699TIP3   OH229060   2.203   0.443   4.782 -0.0538 -0.6494  0.0761
 9699TIP3    H129061   2.213   0.407   4.870  0.2562  2.6298  1.5194
 9699TIP3    H229062   2.139   0.514   4.791  1.1508  0.8298 -1.9603
 9700TIP3   OH229063   2.116   4.386   2.587  0.2952 -0.2052  0.1303
 9700TIP3    H129064   2.047   4.433   2.633 -0.1159 -1.3811  0.7488
 9700TIP3    H229065   2.099   4.403   2.494  0.7621  1.6639  0.3510
 9701TIP3   OH229066   6.062   1.707   2.098 -0.2160  0.1035 -0.2721
 9701TIP3    H129067   6.124   1.653   2.049 -0.2627  0.1334 -0.3645
 9701TIP3    H229068   5.984   1.711   2.042 -0.7835 -1.0045  0.4191
 9702TIP3   OH229069   4.688   6.134   2.937  0.1293  0.1055 -0.5063
 9702TIP3    H129070   4.760   6.100   2.885 -0.0520 -2.1453  0.5857
 9702TIP3    H229071   4.629   6.060   2.948 -0.7216  0.9756  1.3563
 9703TIP3   OH229072   2.360   2.090   5.627 -0.2282 -0.0441 -0.1084
 9703TIP3    H129073   2.285   2.054   5.675  0.8530 -0.3459  1.4410
 9703TIP3    H229074   2.329   2.174   5.594 -0.6484  0.8791  2.3927
 9704TIP3   OH229075   4.144   4.259   3.131  0.4570  0.5521  0.1559
 9704TIP3    H129076   4.159   4.246   3.224 -1.0453 -0.4310  0.3120
 9704TIP3    H229077   4.128   4.171   3.097 -0.1538  1.0092 -0.7973
 9705TIP3   OH229078   4.551   0.955   0.813  0.0186 -0.1836  0.3676
 9705TIP3    H129079   4.568   0.909   0.730 -4.1507 -0.8590 -0.3593
 9705TIP3    H229080   4.568   0.889   0.880  0.1093 -0.7922 -0.2362
 9706TIP3   OH229081   1.102   5.594   1.661  0.1456  0.1734  0.1695
 9706TIP3    H129082   1.044   5.571   1.589  1.4416  0.0136 -0.8727
 9706TIP3    H229083   1.128   5.509   1.699 -0.1666  0.2352  0.5225
 9707TIP3   OH229084   3.787   0.672   3.633 -0.1246 -0.1880  0.0211
 9707TIP3    H129085   3.721   0.699   3.697 -1.4578 -0.7620 -1.0611
 9707TIP3    H229086   3.737   0.637   3.559  1.4082 -1.6054 -0.4307
 9708TIP3   OH229087   6.877   2.264   5.895 -0.5112  0.1449  1.1803
 9708TIP3    H129088   6.917   2.294   5.813 -1.5996  0.3442  0.6988
 9708TIP3    H229089   6.945   2.276   5.961  0.2192  0.4547  0.3980
 9709TIP3   OH229090   5.720   5.673   2.808 -0.0797 -0.6091 -0.1713
 9709TIP3    H129091   5.781   5.607   2.840  1.5443  0.0157 -1.8208
 9709TIP3    H229092   5.774   5.734   2.758 -1.8407  0.8348 -0.4233
 9710TIP3   OH229093   0.671   4.373   5.088 -0.2952  0.5043 -0.1316
 9710TIP3    H129094   0.703   4.451   5.134 -0.1684  0.0828  0.5173
 9710TIP3    H229095   0.666   4.306   5.156  1.9448 -0.7666 -1.1087
 9711TIP3   OH229096   6.072   2.487   3.303  0.1324 -0.2331  0.6879
 9711TIP3    H129097   6.093   2.576   3.275  1.1572 -1.0532 -1.4347
 9711TIP3    H229098   5.978   2.489   3.321  0.1474  1.2805  0.6872
 9712TIP3   OH229099   1.520   4.375   2.377  0.2457 -0.3544  0.3976
 9712TIP3    H129100   1.582   4.370   2.304  0.4824 -2.1272  0.6784
 9712TIP3    H229101   1.570   4.415   2.449  1.7410 -3.3622  1.1944
 9713TIP3   OH229102   0.969   5.300   0.572 -0.3751  0.0786  0.2707
 9713TIP3    H129103   0.971   5.394   0.553  1.7313  0.6609  2.8521
 9713TIP3    H229104   1.020   5.260   0.501 -2.0878  0.6491 -1.3972
 9714TIP3   OH229105   2.569   0.059   1.975 -0.2478 -0.6653 -0.0616
 9714TIP3    H129106   2.611   0.065   2.061 -0.2817 -0.0950 -0.0774
 9714TIP3    H229107   2.504  -0.010   1.984 -1.7489  0.8129  1.0402
 9715TIP3   OH229108   3.097   1.483   1.664 -0.0732 -0.2066 -0.0178
 9715TIP3    H129109   3.117   1.455   1.753  0.9871  0.0760 -0.1529
 9715TIP3    H229110   3.007   1.453   1.649  0.0227 -0.9718  0.8486
 9716TIP3   OH229111   5.598   2.286   1.539 -0.5175  0.3036 -0.5426
 9716TIP3    H129112   5.561   2.367   1.504  1.8172  0.7520 -2.1450
 9716TIP3    H229113   5.685   2.281   1.501  0.0273 -2.1338  0.8583
 9717TIP3   OH229114   5.854   3.104   3.166 -0.0090 -0.1510 -0.1718
 9717TIP3    H129115   5.924   3.056   3.211  0.0872  0.5665  0.4705
 9717TIP3    H229116   5.879   3.196   3.176 -1.7117  0.2064  1.2421
 9718TIP3   OH229117   2.359   4.613   4.850  0.5405  0.3952  0.4325
 9718TIP3    H129118   2.294   4.544   4.860  0.8916 -0.2035 -1.0749
 9718TIP3    H229119   2.402   4.619   4.935 -1.0444  0.3735  1.2615
 9719TIP3   OH229120   3.854   3.951   3.028  0.4110 -0.5231 -0.1894
 9719TIP3    H129121   3.836   3.858   3.017 -0.3767 -0.2743 -1.1396
 9719TIP3    H229122   3.778   3.995   2.991  1.5634  0.5247 -1.4173
 9720TIP3   OH229123   7.071   6.139   2.683  0.4478  0.2398  0.0353
 9720TIP3    H129124   7.093   6.226   2.650 -1.4792  0.1294 -1.7109
 9720TIP3    H229125   6.998   6.109   2.628  2.8162 -3.6854 -1.3962
 9721TIP3   OH229126   5.347   5.955   3.131 -0.4814  0.6305  0.1124
 9721TIP3    H129127   5.341   5.895   3.205 -0.4383  2.4267  1.6184
 9721TIP3    H229128   5.392   5.904   3.063 -1.0957 -1.2632  1.0672
 9722TIP3   OH229129   6.428   5.074   3.132  0.5098  0.1433  0.4093
 9722TIP3    H129130   6.394   4.989   3.104 -1.6245  0.6738  1.1515
 9722TIP3    H229131   6.413   5.075   3.227  1.7293  0.8516  0.6115
 9723TIP3   OH229132   5.846   6.334   0.720  0.1789  0.1402  0.3688
 9723TIP3    H129133   5.794   6.407   0.688 -0.7477 -0.5529  0.2437
 9723TIP3    H229134   5.928   6.339   0.671  0.4187  1.4906  0.8639
 9724TIP3   OH229135   3.372   0.878  -0.004 -0.1769 -0.1767  0.1158
 9724TIP3    H129136   3.384   0.946   0.062 -2.4068 -0.5158  0.9566
 9724TIP3    H229137   3.456   0.875  -0.050  0.4883  2.0861  1.0131
 9725TIP3   OH229138   4.922   3.373   3.456  0.0970  0.1802 -0.6638
 9725TIP3    H129139   4.925   3.394   3.549 -1.3774  1.3986 -0.8468
 9725TIP3    H229140   4.903   3.280   3.452  0.5467  0.0461  0.2365
 9726TIP3   OH229141   2.383   1.740   4.103 -0.7120 -0.1339  0.3366
 9726TIP3    H129142   2.414   1.814   4.050  1.7806 -0.7391  0.8194
 9726TIP3    H229143   2.301   1.770   4.140 -0.5208  1.8203 -0.6848
 9727TIP3   OH229144   5.369   1.981   5.552 -0.1089 -0.5350  1.1595
 9727TIP3    H129145   5.412   2.067   5.556 -0.5701 -0.1306 -0.9325
 9727TIP3    H229146   5.275   2.001   5.557 -0.2820 -0.7353 -0.4906
 9728TIP3   OH229147   3.419   0.918   3.682 -0.9404  0.6821 -0.3172
 9728TIP3    H129148   3.404   0.831   3.645 -0.1425  0.7904 -0.9178
 9728TIP3    H229149   3.493   0.906   3.742  0.4497  1.2924 -1.8347
 9729TIP3   OH229150   2.954   2.261   2.548  0.6340 -0.3621 -0.3554
 9729TIP3    H129151   3.013   2.312   2.603 -1.3623  0.9882  0.6291
 9729TIP3    H229152   2.965   2.298   2.461 -0.0776  1.1091  0.1667
 9730TIP3   OH229153   2.133   1.797   4.176  0.0094  0.4438 -0.2610
 9730TIP3    H129154   2.129   1.893   4.172 -0.9274  0.3937 -0.8841
 9730TIP3    H229155   2.104   1.769   4.089 -0.0367 -0.4110  0.0248
 9731TIP3   OH229156   1.924   5.832   3.543 -0.1010  0.2509  0.8447
 9731TIP3    H129157   1.914   5.740   3.567 -0.1479  0.1224  0.3503
 9731TIP3    H229158   1.980   5.830   3.465  0.0438  0.6532  0.9374
 9732TIP3   OH229159   3.577   3.086   2.718 -0.6039  0.1253 -0.2033
 9732TIP3    H129160   3.521   3.149   2.672 -0.7906  0.6471  0.7094
 9732TIP3    H229161   3.607   3.133   2.797 -0.4676 -0.8079  0.3190
 9733TIP3   OH229162   5.629   1.244   0.707 -0.4054  0.0496 -0.2328
 9733TIP3    H129163   5.604   1.160   0.746 -0.8934  0.7264  0.9560
 9733TIP3    H229164   5.600   1.237   0.616 -1.1252 -0.7916  0.0404
 9734TIP3   OH229165   0.903   1.365   5.815 -0.2578 -0.1488  0.3836
 9734TIP3    H129166   0.907   1.339   5.907 -0.2900  0.0768  0.4489
 9734TIP3    H229167   0.985   1.333   5.778 -1.2825 -2.4384 -0.0993
 9735TIP3   OH229168   4.667   2.990   3.479 -0.6780 -0.4187  0.3711
 9735TIP3    H129169   4.591   3.002   3.536 -0.2005  0.8651  0.7621
 9735TIP3    H229170   4.631   2.952   3.399 -1.9755  1.4119  0.0158
 9736TIP3   OH229171   3.815   4.447   3.793  0.3570  0.1488 -0.0970
 9736TIP3    H129172   3.819   4.415   3.883  0.1066  2.8683  0.9753
 9736TIP3    H229173   3.722   4.464   3.777  0.5575  1.1409 -0.2759
 9737TIP3   OH229174   0.366   1.664   0.787 -0.0131 -0.3269  0.2439
 9737TIP3    H129175   0.312   1.733   0.749 -0.8236 -0.0171  1.8846
 9737TIP3    H229176   0.450   1.672   0.742 -0.5884  0.7250 -0.6824
 9738TIP3   OH229177   3.009   2.775   4.934  0.3237 -0.1249  0.3765
 9738TIP3    H129178   2.950   2.760   4.860 -0.7146  0.3258  1.0845
 9738TIP3    H229179   3.034   2.867   4.927 -0.7886  0.2703  1.2659
 9739TIP3   OH229180   4.043   1.157   0.013  0.2301  0.4042 -0.2316
 9739TIP3    H129181   3.970   1.126  -0.039  0.2220  0.6812 -0.3911
 9739TIP3    H229182   4.014   1.150   0.103 -0.1308  0.8526 -0.3108
 9740TIP3   OH229183   4.131   2.236   5.891 -0.2161  0.7378  0.1372
 9740TIP3    H129184   4.059   2.233   5.829 -1.9023  0.5995  1.9953
 9740TIP3    H229185   4.168   2.148   5.890 -1.4651  0.1848  0.6743
 9741TIP3   OH229186   0.255   3.712   5.079  0.1777  0.5166  0.3276
 9741TIP3    H129187   0.231   3.647   5.012 -0.0892  0.7354  0.2137
 9741TIP3    H229188   0.333   3.674   5.120  1.9604  1.5508 -1.8322
 9742TIP3   OH229189   3.134   3.217   3.048  0.1775 -0.0318 -0.5200
 9742TIP3    H129190   3.105   3.188   3.134 -0.9244 -0.1872 -0.9356
 9742TIP3    H229191   3.179   3.141   3.011  1.1606  0.2082  0.1154
 9743TIP3   OH229192   2.177   4.946   0.262 -0.0048 -0.6604  0.1984
 9743TIP3    H129193   2.147   4.891   0.190 -0.5697 -1.5725  1.1176
 9743TIP3    H229194   2.144   4.904   0.341 -2.2687  2.0807  0.8769
 9744TIP3   OH229195   3.548   2.427   3.717  0.1370  0.0888  0.0262
 9744TIP3    H129196   3.589   2.365   3.778  3.3912 -1.3259 -3.1381
 9744TIP3    H229197   3.588   2.511   3.737  0.6743 -0.2290  0.3249
 9745TIP3   OH229198   3.436   5.299   2.075  0.7659 -0.1362 -0.4677
 9745TIP3    H129199   3.446   5.278   1.982 -1.8981 -1.1432 -0.6012
 9745TIP3    H229200   3.407   5.390   2.076  0.4976 -0.2174 -0.6514
 9746TIP3   OH229201   3.900   1.868   3.019 -1.1922  0.5524  0.2327
 9746TIP3    H129202   3.989   1.867   2.983 -2.1374  0.0638 -2.2814
 9746TIP3    H229203   3.881   1.776   3.037 -1.3912  0.6002  0.2626
 9747TIP3   OH229204   2.393   3.436   2.237  0.3114 -0.0319  0.2524
 9747TIP3    H129205   2.478   3.466   2.206 -0.4824  1.7194 -0.4184
 9747TIP3    H229206   2.394   3.454   2.331  0.6937 -0.0283  0.2471
 9748TIP3   OH229207   1.600   1.256   3.445 -0.1556 -0.1071  0.1361
 9748TIP3    H129208   1.583   1.345   3.477  2.1783  1.6063 -2.8523
 9748TIP3    H229209   1.667   1.267   3.378  0.0878 -4.1617 -0.5373
 9749TIP3   OH229210   2.589   1.826   5.886  0.3770 -0.2826 -0.0397
 9749TIP3    H129211   2.606   1.894   5.821  2.7291  0.1179  0.8705
 9749TIP3    H229212   2.653   1.758   5.866  0.2976 -0.7012  1.0751
   7.22613   6.81287   5.90011   0.00000   0.00000  -2.40871   0.00000  -2.40871  -3.40643
