Title t=  15.00000 step= 7500
19942
    1ASP      N    1   1.496   2.435   3.338
    1ASP    HT1    2   1.472   2.514   3.401
    1ASP    HT2    3   1.465   2.452   3.240
    1ASP    HT3    4   1.600   2.430   3.333
    1ASP     CA    5   1.422   2.319   3.404
    1ASP     HA    6   1.463   2.328   3.503
    1ASP     CB    7   1.267   2.344   3.405
    1ASP    HB1    8   1.243   2.344   3.297
    1ASP    HB2    9   1.238   2.440   3.453
    1ASP     CG   10   1.195   2.247   3.483
    1ASP    OD1   11   1.073   2.238   3.468
    1ASP    OD2   12   1.256   2.179   3.567
    1ASP      C   13   1.467   2.187   3.337
    1ASP      O   14   1.566   2.188   3.264
    2ALA      N   15   1.400   2.076   3.362
    2ALA     HN   16   1.327   2.082   3.430
    2ALA     CA   17   1.431   1.947   3.299
    2ALA     HA   18   1.491   1.960   3.210
    2ALA     CB   19   1.480   1.846   3.407
    2ALA    HB1   20   1.410   1.846   3.493
    2ALA    HB2   21   1.579   1.880   3.444
    2ALA    HB3   22   1.485   1.739   3.375
    2ALA      C   23   1.299   1.892   3.248
    2ALA      O   24   1.195   1.895   3.317
    3ASP      N   25   1.299   1.838   3.132
    3ASP     HN   26   1.378   1.847   3.072
    3ASP     CA   27   1.187   1.783   3.065
    3ASP     HA   28   1.096   1.836   3.088
    3ASP     CB   29   1.216   1.797   2.910
    3ASP    HB1   30   1.129   1.751   2.858
    3ASP    HB2   31   1.304   1.733   2.887
    3ASP     CG   32   1.216   1.937   2.856
    3ASP    OD1   33   1.236   1.955   2.735
    3ASP    OD2   34   1.181   2.033   2.934
    3ASP      C   35   1.158   1.636   3.093
    3ASP      O   36   1.254   1.558   3.097
    4GLY      N   37   1.023   1.609   3.120
    4GLY     HN   38   0.950   1.675   3.133
    4GLY     CA   39   0.970   1.477   3.142
    4GLY    HA1   40   0.863   1.480   3.150
    4GLY    HA2   41   1.025   1.442   3.228
    4GLY      C   42   0.988   1.375   3.030
    4GLY      O   43   1.072   1.393   2.940
    5PRO      N   44   0.921   1.255   3.033
    5PRO     CD   45   0.825   1.221   3.129
    5PRO    HD1   46   0.727   1.269   3.108
    5PRO    HD2   47   0.871   1.231   3.230
    5PRO     CA   48   0.917   1.158   2.920
    5PRO     HA   49   1.021   1.137   2.899
    5PRO     CB   50   0.842   1.040   2.970
    5PRO    HB1   51   0.899   0.947   2.948
    5PRO    HB2   52   0.745   1.041   2.915
    5PRO     CG   53   0.820   1.065   3.110
    5PRO    HG1   54   0.718   1.040   3.144
    5PRO    HG2   55   0.892   1.016   3.179
    5PRO      C   56   0.867   1.227   2.788
    5PRO      O   57   0.782   1.314   2.800
    6GLY      N   58   0.912   1.173   2.673
    6GLY     HN   59   0.972   1.094   2.677
    6GLY     CA   60   0.878   1.224   2.545
    6GLY    HA1   61   0.972   1.225   2.491
    6GLY    HA2   62   0.820   1.315   2.550
    6GLY      C   63   0.791   1.115   2.481
    6GLY      O   64   0.778   1.010   2.540
    7ASP      N   65   0.743   1.141   2.359
    7ASP     HN   66   0.771   1.233   2.331
    7ASP     CA   67   0.665   1.048   2.273
    7ASP     HA   68   0.571   1.029   2.323
    7ASP     CB   69   0.614   1.127   2.145
    7ASP    HB1   70   0.697   1.138   2.071
    7ASP    HB2   71   0.585   1.229   2.177
    7ASP     CG   72   0.498   1.059   2.086
    7ASP    OD1   73   0.445   1.124   1.988
    7ASP    OD2   74   0.433   0.966   2.142
    7ASP      C   75   0.741   0.918   2.235
    7ASP      O   76   0.858   0.926   2.194
    8PRO      N   77   0.686   0.797   2.239
    8PRO     CD   78   0.573   0.774   2.335
    8PRO    HD1   79   0.478   0.793   2.281
    8PRO    HD2   80   0.583   0.829   2.431
    8PRO     CA   81   0.751   0.667   2.215
    8PRO     HA   82   0.848   0.652   2.260
    8PRO     CB   83   0.652   0.560   2.268
    8PRO    HB1   84   0.705   0.467   2.299
    8PRO    HB2   85   0.580   0.541   2.186
    8PRO     CG   86   0.577   0.620   2.384
    8PRO    HG1   87   0.475   0.577   2.392
    8PRO    HG2   88   0.623   0.611   2.485
    8PRO      C   89   0.775   0.647   2.063
    8PRO      O   90   0.870   0.578   2.027
    9ASP      N   91   0.692   0.709   1.978
    9ASP     HN   92   0.609   0.755   2.009
    9ASP     CA   93   0.705   0.716   1.834
    9ASP     HA   94   0.706   0.622   1.780
    9ASP     CB   95   0.589   0.780   1.776
    9ASP    HB1   96   0.571   0.774   1.666
    9ASP    HB2   97   0.579   0.886   1.806
    9ASP     CG   98   0.458   0.718   1.833
    9ASP    OD1   99   0.392   0.788   1.915
    9ASP    OD2  100   0.418   0.602   1.805
    9ASP      C  101   0.827   0.789   1.784
    9ASP      O  102   0.891   0.751   1.689
   10ALA      N  103   0.867   0.903   1.850
   10ALA     HN  104   0.818   0.934   1.932
   10ALA     CA  105   0.970   0.987   1.801
   10ALA     HA  106   0.974   0.975   1.693
   10ALA     CB  107   0.936   1.132   1.839
   10ALA    HB1  108   1.018   1.196   1.800
   10ALA    HB2  109   0.922   1.145   1.948
   10ALA    HB3  110   0.846   1.175   1.790
   10ALA      C  111   1.104   0.954   1.863
   10ALA      O  112   1.115   0.959   1.987
   11GLY      N  113   1.205   0.920   1.783
   11GLY     HN  114   1.194   0.938   1.686
   11GLY     CA  115   1.333   0.878   1.843
   11GLY    HA1  116   1.318   0.779   1.884
   11GLY    HA2  117   1.366   0.951   1.916
   11GLY      C  118   1.449   0.871   1.736
   11GLY    OT1  119   1.419   0.835   1.619
   11GLY    OT2  120   1.566   0.912   1.772
   12LIT    LIT  121   4.767   4.599   2.643
   13LIT    LIT  122   1.005   2.459   2.480
   14LIT    LIT  123   0.383   5.211   2.784
   15LIT    LIT  124   2.159   4.183   0.187
   16LIT    LIT  125   3.972   5.915   3.106
   17LIT    LIT  126   3.921   4.618   4.692
   18LIT    LIT  127   2.084   0.173   3.122
   19LIT    LIT  128   0.333   0.970   1.952
   20LIT    LIT  129   3.457   1.305   4.016
   21LIT    LIT  130   3.702   0.621   2.366
   22LIT    LIT  131   4.135   3.837   0.785
   23LIT    LIT  132   1.228   1.737   2.098
   24LIT    LIT  133   4.611   2.866   0.892
   25LIT    LIT  134   3.712   0.221   0.389
   26LIT    LIT  135   2.213   1.093   4.731
   27LIT    LIT  136   0.614   0.412   3.425
   28LIT    LIT  137   2.219   1.825   4.050
   29LIT    LIT  138   2.093   4.776   1.825
   30LIT    LIT  139   2.274   1.530   1.789
   31LIT    LIT  140   6.116   3.203   4.440
   32LIT    LIT  141   4.577   5.665   1.676
   33LIT    LIT  142   3.736   1.900   1.111
   34CLA    CLA  143   2.862   1.924   2.929
   35CLA    CLA  144   4.237   5.404   4.543
   36CLA    CLA  145   2.145   1.605   4.774
   37CLA    CLA  146   0.339   3.530   4.387
   38CLA    CLA  147   1.354   3.115   3.758
   39CLA    CLA  148   5.365   3.953   3.452
   40CLA    CLA  149   1.361   1.457   3.987
   41CLA    CLA  150   5.810   3.491   1.590
   42CLA    CLA  151   3.498   4.011   2.105
   43CLA    CLA  152   0.849   2.845   1.111
   44CLA    CLA  153   3.824   0.643   0.325
   45CLA    CLA  154   3.834   1.029   2.689
   46CLA    CLA  155   2.344   0.905   3.275
   47CLA    CLA  156   2.232   1.168   4.513
   48CLA    CLA  157   2.647   5.057   4.265
   49CLA    CLA  158   5.528   4.698   0.766
   50CLA    CLA  159   1.402   2.331   1.148
   51CLA    CLA  160   3.845   0.404   1.425
   52TIP3   OH2  161   5.579   1.748   3.564
   52TIP3    H1  162   5.485   1.767   3.574
   52TIP3    H2  163   5.592   1.740   3.470
   53TIP3   OH2  164   1.233   3.036   4.030
   53TIP3    H1  165   1.282   3.044   3.949
   53TIP3    H2  166   1.261   3.111   4.083
   54TIP3   OH2  167   0.513   0.796   3.552
   54TIP3    H1  168   0.519   0.838   3.466
   54TIP3    H2  169   0.552   0.709   3.539
   55TIP3   OH2  170   5.168   2.783   1.598
   55TIP3    H1  171   5.164   2.866   1.551
   55TIP3    H2  172   5.181   2.717   1.530
   56TIP3   OH2  173   3.361   1.706   1.403
   56TIP3    H1  174   3.434   1.688   1.462
   56TIP3    H2  175   3.291   1.735   1.461
   57TIP3   OH2  176   3.275   1.397   0.169
   57TIP3    H1  177   3.345   1.447   0.127
   57TIP3    H2  178   3.310   1.308   0.174
   58TIP3   OH2  179   5.897   2.653   1.711
   58TIP3    H1  180   5.811   2.628   1.745
   58TIP3    H2  181   5.912   2.740   1.746
   59TIP3   OH2  182   3.112   3.630   2.917
   59TIP3    H1  183   3.038   3.608   2.861
   59TIP3    H2  184   3.149   3.710   2.877
   60TIP3   OH2  185   3.744   5.611   4.039
   60TIP3    H1  186   3.651   5.628   4.054
   60TIP3    H2  187   3.788   5.657   4.110
   61TIP3   OH2  188   4.319   2.290   2.636
   61TIP3    H1  189   4.404   2.289   2.679
   61TIP3    H2  190   4.336   2.260   2.547
   62TIP3   OH2  191   0.121   2.769   2.403
   62TIP3    H1  192   0.215   2.785   2.411
   62TIP3    H2  193   0.080   2.844   2.446
   63TIP3   OH2  194   3.783   3.956   1.125
   63TIP3    H1  195   3.847   3.989   1.062
   63TIP3    H2  196   3.779   3.862   1.108
   64TIP3   OH2  197   5.363   0.672   1.053
   64TIP3    H1  198   5.373   0.593   1.107
   64TIP3    H2  199   5.373   0.744   1.115
   65TIP3   OH2  200   3.542   0.790   0.909
   65TIP3    H1  201   3.632   0.761   0.897
   65TIP3    H2  202   3.510   0.739   0.983
   66TIP3   OH2  203   0.493   4.193   3.512
   66TIP3    H1  204   0.407   4.166   3.543
   66TIP3    H2  205   0.532   4.113   3.476
   67TIP3   OH2  206   3.815   0.610   0.640
   67TIP3    H1  207   3.720   0.606   0.645
   67TIP3    H2  208   3.835   0.601   0.547
   68TIP3   OH2  209   1.953   0.244   2.399
   68TIP3    H1  210   1.963   0.150   2.380
   68TIP3    H2  211   1.969   0.251   2.493
   69TIP3   OH2  212   3.501   4.426   1.397
   69TIP3    H1  213   3.503   4.370   1.319
   69TIP3    H2  214   3.490   4.515   1.362
   70TIP3   OH2  215   5.316   0.878   3.944
   70TIP3    H1  216   5.281   0.822   3.874
   70TIP3    H2  217   5.268   0.851   4.022
   71TIP3   OH2  218   4.899   3.208   0.698
   71TIP3    H1  219   4.951   3.149   0.644
   71TIP3    H2  220   4.875   3.280   0.640
   72TIP3   OH2  221   0.234   0.155  -0.078
   72TIP3    H1  222   0.152   0.191  -0.044
   72TIP3    H2  223   0.285   0.232  -0.104
   73TIP3   OH2  224   0.007   5.473   1.105
   73TIP3    H1  225  -0.048   5.434   1.037
   73TIP3    H2  226   0.024   5.401   1.166
   74TIP3   OH2  227   3.681   1.337   1.583
   74TIP3    H1  228   3.675   1.285   1.503
   74TIP3    H2  229   3.740   1.409   1.559
   75TIP3   OH2  230   5.805   1.827   1.977
   75TIP3    H1  231   5.807   1.922   1.964
   75TIP3    H2  232   5.816   1.790   1.889
   76TIP3   OH2  233   3.228   4.022   3.098
   76TIP3    H1  234   3.184   4.082   3.038
   76TIP3    H2  235   3.321   4.027   3.074
   77TIP3   OH2  236   1.427   3.762   2.028
   77TIP3    H1  237   1.425   3.741   1.935
   77TIP3    H2  238   1.445   3.679   2.071
   78TIP3   OH2  239   3.244   1.675   4.103
   78TIP3    H1  240   3.296   1.643   4.176
   78TIP3    H2  241   3.155   1.647   4.122
   79TIP3   OH2  242   5.486   0.628   1.452
   79TIP3    H1  243   5.511   0.593   1.367
   79TIP3    H2  244   5.561   0.609   1.508
   80TIP3   OH2  245   1.388   3.619   1.347
   80TIP3    H1  246   1.441   3.693   1.378
   80TIP3    H2  247   1.334   3.657   1.278
   81TIP3   OH2  248   2.923   4.501   3.900
   81TIP3    H1  249   3.001   4.446   3.890
   81TIP3    H2  250   2.857   4.459   3.844
   82TIP3   OH2  251   1.115   2.426   4.096
   82TIP3    H1  252   1.037   2.394   4.140
   82TIP3    H2  253   1.086   2.502   4.046
   83TIP3   OH2  254   0.017   2.849   3.673
   83TIP3    H1  255  -0.028   2.904   3.738
   83TIP3    H2  256   0.088   2.904   3.640
   84TIP3   OH2  257   5.463   2.943   1.683
   84TIP3    H1  258   5.532   2.889   1.720
   84TIP3    H2  259   5.502   2.980   1.604
   85TIP3   OH2  260   6.085   1.896   4.469
   85TIP3    H1  261   6.056   1.842   4.542
   85TIP3    H2  262   6.058   1.984   4.491
   86TIP3   OH2  263   5.138   2.882   3.265
   86TIP3    H1  264   5.050   2.915   3.283
   86TIP3    H2  265   5.124   2.795   3.228
   87TIP3   OH2  266   0.197   4.383   3.853
   87TIP3    H1  267   0.274   4.342   3.894
   87TIP3    H2  268   0.163   4.316   3.794
   88TIP3   OH2  269   3.737   1.635   1.852
   88TIP3    H1  270   3.801   1.616   1.784
   88TIP3    H2  271   3.732   1.555   1.904
   89TIP3   OH2  272   5.034   1.915   4.776
   89TIP3    H1  273   4.981   1.910   4.697
   89TIP3    H2  274   5.019   2.003   4.810
   90TIP3   OH2  275   3.941   5.649   0.825
   90TIP3    H1  276   3.999   5.722   0.845
   90TIP3    H2  277   3.966   5.581   0.888
   91TIP3   OH2  278   4.642   5.572   4.219
   91TIP3    H1  279   4.571   5.534   4.168
   91TIP3    H2  280   4.700   5.611   4.154
   92TIP3   OH2  281   3.862   2.885   1.894
   92TIP3    H1  282   3.920   2.861   1.966
   92TIP3    H2  283   3.911   2.950   1.844
   93TIP3   OH2  284   6.068   4.941   3.555
   93TIP3    H1  285   6.113   5.004   3.499
   93TIP3    H2  286   6.114   4.858   3.538
   94TIP3   OH2  287   5.302   3.975   2.670
   94TIP3    H1  288   5.275   3.888   2.639
   94TIP3    H2  289   5.280   4.034   2.599
   95TIP3   OH2  290   2.810   0.179   3.123
   95TIP3    H1  291   2.846   0.210   3.040
   95TIP3    H2  292   2.885   0.181   3.184
   96TIP3   OH2  293   3.582   0.333   0.482
   96TIP3    H1  294   3.544   0.416   0.511
   96TIP3    H2  295   3.519   0.267   0.508
   97TIP3   OH2  296   2.394   1.997   4.761
   97TIP3    H1  297   2.302   1.971   4.761
   97TIP3    H2  298   2.393   2.088   4.731
   98TIP3   OH2  299   0.077   5.983   4.918
   98TIP3    H1  300   0.128   5.904   4.900
   98TIP3    H2  301   0.119   6.022   4.995
   99TIP3   OH2  302   5.984   3.521   1.252
   99TIP3    H1  303   5.906   3.566   1.219
   99TIP3    H2  304   5.972   3.430   1.224
  100TIP3   OH2  305   2.344   0.025   0.777
  100TIP3    H1  306   2.358  -0.051   0.720
  100TIP3    H2  307   2.282   0.080   0.729
  101TIP3   OH2  308   2.074   1.332   1.497
  101TIP3    H1  309   2.150   1.276   1.513
  101TIP3    H2  310   2.002   1.288   1.542
  102TIP3   OH2  311   3.089   1.091   4.099
  102TIP3    H1  312   3.132   1.005   4.107
  102TIP3    H2  313   3.057   1.094   4.009
  103TIP3   OH2  314   1.734   4.423   2.647
  103TIP3    H1  315   1.789   4.429   2.726
  103TIP3    H2  316   1.794   4.440   2.575
  104TIP3   OH2  317   1.375   0.554   3.558
  104TIP3    H1  318   1.345   0.509   3.637
  104TIP3    H2  319   1.429   0.626   3.591
  105TIP3   OH2  320   5.435   0.113   4.961
  105TIP3    H1  321   5.477   0.085   4.880
  105TIP3    H2  322   5.384   0.038   4.989
  106TIP3   OH2  323   5.337   4.444   1.466
  106TIP3    H1  324   5.384   4.428   1.384
  106TIP3    H2  325   5.245   4.445   1.442
  107TIP3   OH2  326   5.187   1.087   0.806
  107TIP3    H1  327   5.280   1.090   0.826
  107TIP3    H2  328   5.150   1.030   0.874
  108TIP3   OH2  329   6.219   0.145   4.479
  108TIP3    H1  330   6.276   0.190   4.542
  108TIP3    H2  331   6.241   0.052   4.489
  109TIP3   OH2  332   2.840   3.101   2.924
  109TIP3    H1  333   2.799   3.016   2.909
  109TIP3    H2  334   2.918   3.082   2.977
  110TIP3   OH2  335   5.372   0.891   2.953
  110TIP3    H1  336   5.293   0.854   2.991
  110TIP3    H2  337   5.429   0.816   2.938
  111TIP3   OH2  338   4.624   4.699   3.269
  111TIP3    H1  339   4.587   4.758   3.334
  111TIP3    H2  340   4.651   4.622   3.319
  112TIP3   OH2  341   4.560   3.795   2.715
  112TIP3    H1  342   4.547   3.732   2.645
  112TIP3    H2  343   4.626   3.756   2.771
  113TIP3   OH2  344   0.335   5.121   2.235
  113TIP3    H1  345   0.265   5.182   2.213
  113TIP3    H2  346   0.413   5.176   2.245
  114TIP3   OH2  347   0.329   0.884   2.629
  114TIP3    H1  348   0.304   0.940   2.555
  114TIP3    H2  349   0.252   0.883   2.685
  115TIP3   OH2  350   1.600   5.355   3.048
  115TIP3    H1  351   1.673   5.295   3.059
  115TIP3    H2  352   1.537   5.308   2.994
  116TIP3   OH2  353   4.520   3.312   3.453
  116TIP3    H1  354   4.564   3.300   3.370
  116TIP3    H2  355   4.474   3.396   3.444
  117TIP3   OH2  356   2.301   4.752   1.839
  117TIP3    H1  357   2.350   4.828   1.870
  117TIP3    H2  358   2.365   4.681   1.837
  118TIP3   OH2  359   4.446   5.641   4.696
  118TIP3    H1  360   4.388   5.566   4.683
  118TIP3    H2  361   4.411   5.709   4.638
  119TIP3   OH2  362   1.164   3.552   1.953
  119TIP3    H1  363   1.214   3.613   1.898
  119TIP3    H2  364   1.117   3.609   2.014
  120TIP3   OH2  365   3.251   5.358   4.209
  120TIP3    H1  366   3.296   5.375   4.292
  120TIP3    H2  367   3.164   5.326   4.235
  121TIP3   OH2  368   0.113   1.340   4.002
  121TIP3    H1  369   0.201   1.370   3.981
  121TIP3    H2  370   0.062   1.420   4.015
  122TIP3   OH2  371   0.302   3.434   2.594
  122TIP3    H1  372   0.392   3.458   2.572
  122TIP3    H2  373   0.249   3.473   2.524
  123TIP3   OH2  374   2.207   1.156   3.526
  123TIP3    H1  375   2.174   1.235   3.484
  123TIP3    H2  376   2.295   1.143   3.490
  124TIP3   OH2  377   4.925   0.018   3.523
  124TIP3    H1  378   4.930   0.009   3.428
  124TIP3    H2  379   4.975   0.097   3.542
  125TIP3   OH2  380   1.127   0.829   0.916
  125TIP3    H1  381   1.104   0.880   0.994
  125TIP3    H2  382   1.067   0.859   0.848
  126TIP3   OH2  383   1.167   3.131   1.227
  126TIP3    H1  384   1.161   3.209   1.283
  126TIP3    H2  385   1.142   3.059   1.286
  127TIP3   OH2  386   4.763   2.208   0.024
  127TIP3    H1  387   4.772   2.168  -0.062
  127TIP3    H2  388   4.852   2.227   0.051
  128TIP3   OH2  389   2.933   3.329   1.196
  128TIP3    H1  390   2.849   3.308   1.156
  128TIP3    H2  391   2.947   3.422   1.177
  129TIP3   OH2  392   4.869   2.611   0.412
  129TIP3    H1  393   4.961   2.632   0.431
  129TIP3    H2  394   4.841   2.680   0.352
  130TIP3   OH2  395   1.914   5.654   3.547
  130TIP3    H1  396   1.820   5.659   3.533
  130TIP3    H2  397   1.938   5.566   3.516
  131TIP3   OH2  398   4.184   3.160   0.315
  131TIP3    H1  399   4.201   3.135   0.224
  131TIP3    H2  400   4.090   3.144   0.327
  132TIP3   OH2  401   4.153   0.883   0.321
  132TIP3    H1  402   4.104   0.810   0.360
  132TIP3    H2  403   4.214   0.911   0.389
  133TIP3   OH2  404   4.873   0.001   2.508
  133TIP3    H1  405   4.844  -0.045   2.429
  133TIP3    H2  406   4.793   0.040   2.544
  134TIP3   OH2  407   2.964   3.993   1.355
  134TIP3    H1  408   2.943   3.930   1.286
  134TIP3    H2  409   2.974   3.940   1.434
  135TIP3   OH2  410   1.773   2.585   2.011
  135TIP3    H1  411   1.769   2.678   1.989
  135TIP3    H2  412   1.779   2.583   2.107
  136TIP3   OH2  413   4.827   3.010   4.455
  136TIP3    H1  414   4.751   3.005   4.398
  136TIP3    H2  415   4.890   2.950   4.416
  137TIP3   OH2  416   4.367   4.781   5.039
  137TIP3    H1  417   4.449   4.732   5.029
  137TIP3    H2  418   4.390   4.855   5.094
  138TIP3   OH2  419   3.524   5.244   4.819
  138TIP3    H1  420   3.502   5.161   4.861
  138TIP3    H2  421   3.543   5.221   4.728
  139TIP3   OH2  422   5.714   0.565   1.294
  139TIP3    H1  423   5.745   0.524   1.213
  139TIP3    H2  424   5.697   0.656   1.269
  140TIP3   OH2  425   6.302   1.950   0.690
  140TIP3    H1  426   6.326   1.859   0.708
  140TIP3    H2  427   6.243   1.974   0.762
  141TIP3   OH2  428   4.663   1.504   3.624
  141TIP3    H1  429   4.732   1.528   3.561
  141TIP3    H2  430   4.588   1.480   3.569
  142TIP3   OH2  431   4.318   4.589   3.441
  142TIP3    H1  432   4.345   4.532   3.369
  142TIP3    H2  433   4.395   4.595   3.498
  143TIP3   OH2  434   5.265   2.048   2.204
  143TIP3    H1  435   5.344   2.090   2.171
  143TIP3    H2  436   5.260   1.965   2.156
  144TIP3   OH2  437   6.174   2.598   4.689
  144TIP3    H1  438   6.259   2.568   4.657
  144TIP3    H2  439   6.191   2.633   4.776
  145TIP3   OH2  440   5.496   3.470   2.650
  145TIP3    H1  441   5.455   3.384   2.651
  145TIP3    H2  442   5.516   3.488   2.742
  146TIP3   OH2  443   5.269   1.256   2.350
  146TIP3    H1  444   5.182   1.277   2.316
  146TIP3    H2  445   5.286   1.323   2.416
  147TIP3   OH2  446   5.638   2.548   1.818
  147TIP3    H1  447   5.633   2.624   1.875
  147TIP3    H2  448   5.616   2.581   1.731
  148TIP3   OH2  449   5.522   2.249   1.748
  148TIP3    H1  450   5.434   2.267   1.782
  148TIP3    H2  451   5.540   2.322   1.690
  149TIP3   OH2  452   5.670   4.809   3.841
  149TIP3    H1  453   5.615   4.887   3.852
  149TIP3    H2  454   5.758   4.844   3.826
  150TIP3   OH2  455   0.379   2.993   4.692
  150TIP3    H1  456   0.385   2.985   4.788
  150TIP3    H2  457   0.440   3.063   4.670
  151TIP3   OH2  458   2.675   0.708   2.940
  151TIP3    H1  459   2.718   0.787   2.973
  151TIP3    H2  460   2.608   0.741   2.880
  152TIP3   OH2  461   1.550   3.819   5.002
  152TIP3    H1  462   1.496   3.765   5.059
  152TIP3    H2  463   1.547   3.775   4.917
  153TIP3   OH2  464   0.690   2.993   2.866
  153TIP3    H1  465   0.698   3.052   2.790
  153TIP3    H2  466   0.769   2.938   2.861
  154TIP3   OH2  467   5.917   5.886   2.157
  154TIP3    H1  468   5.911   5.965   2.104
  154TIP3    H2  469   5.979   5.908   2.226
  155TIP3   OH2  470   3.676   2.717   0.169
  155TIP3    H1  471   3.651   2.630   0.137
  155TIP3    H2  472   3.694   2.704   0.262
  156TIP3   OH2  473   4.903   1.925   3.900
  156TIP3    H1  474   4.878   1.871   3.975
  156TIP3    H2  475   4.860   1.883   3.825
  157TIP3   OH2  476   5.737   2.913   1.739
  157TIP3    H1  477   5.737   2.998   1.697
  157TIP3    H2  478   5.805   2.919   1.806
  158TIP3   OH2  479   4.183   2.402   1.395
  158TIP3    H1  480   4.251   2.452   1.350
  158TIP3    H2  481   4.102   2.423   1.348
  159TIP3   OH2  482   0.558   3.638   3.438
  159TIP3    H1  483   0.528   3.700   3.371
  159TIP3    H2  484   0.607   3.572   3.389
  160TIP3   OH2  485   3.094   5.754   4.985
  160TIP3    H1  486   3.080   5.762   5.079
  160TIP3    H2  487   3.106   5.660   4.970
  161TIP3   OH2  488   4.696   1.309   1.184
  161TIP3    H1  489   4.655   1.223   1.192
  161TIP3    H2  490   4.624   1.370   1.172
  162TIP3   OH2  491   3.237   2.159   2.010
  162TIP3    H1  492   3.251   2.122   1.923
  162TIP3    H2  493   3.301   2.230   2.017
  163TIP3   OH2  494   1.814   1.663   3.841
  163TIP3    H1  495   1.828   1.574   3.873
  163TIP3    H2  496   1.719   1.674   3.841
  164TIP3   OH2  497   0.574   1.436   0.831
  164TIP3    H1  498   0.502   1.483   0.788
  164TIP3    H2  499   0.563   1.345   0.803
  165TIP3   OH2  500   4.674   2.991   0.777
  165TIP3    H1  501   4.640   3.054   0.713
  165TIP3    H2  502   4.749   2.950   0.733
  166TIP3   OH2  503   4.878   1.537   4.501
  166TIP3    H1  504   4.911   1.624   4.521
  166TIP3    H2  505   4.899   1.524   4.408
  167TIP3   OH2  506   3.693   4.980   0.182
  167TIP3    H1  507   3.784   4.967   0.208
  167TIP3    H2  508   3.662   4.892   0.158
  168TIP3   OH2  509   6.166   0.683   3.362
  168TIP3    H1  510   6.111   0.648   3.292
  168TIP3    H2  511   6.180   0.775   3.337
  169TIP3   OH2  512   1.894   5.888   4.109
  169TIP3    H1  513   1.950   5.814   4.088
  169TIP3    H2  514   1.910   5.951   4.038
  170TIP3   OH2  515   5.507   1.381   0.713
  170TIP3    H1  516   5.479   1.415   0.628
  170TIP3    H2  517   5.557   1.452   0.753
  171TIP3   OH2  518   3.413   4.711   1.303
  171TIP3    H1  519   3.393   4.788   1.357
  171TIP3    H2  520   3.507   4.717   1.286
  172TIP3   OH2  521   2.955   2.437   0.363
  172TIP3    H1  522   3.007   2.491   0.422
  172TIP3    H2  523   3.007   2.429   0.284
  173TIP3   OH2  524   0.960   5.831   0.032
  173TIP3    H1  525   0.889   5.809   0.092
  173TIP3    H2  526   0.993   5.747   0.001
  174TIP3   OH2  527   1.820   5.949   0.003
  174TIP3    H1  528   1.785   5.948   0.092
  174TIP3    H2  529   1.904   5.905   0.010
  175TIP3   OH2  530   1.610   3.572   1.193
  175TIP3    H1  531   1.585   3.517   1.119
  175TIP3    H2  532   1.534   3.570   1.251
  176TIP3   OH2  533   5.329   4.144   1.903
  176TIP3    H1  534   5.335   4.125   1.810
  176TIP3    H2  535   5.272   4.076   1.938
  177TIP3   OH2  536   4.546   4.828   3.505
  177TIP3    H1  537   4.492   4.900   3.472
  177TIP3    H2  538   4.544   4.838   3.600
  178TIP3   OH2  539   3.497   3.679   3.267
  178TIP3    H1  540   3.573   3.686   3.325
  178TIP3    H2  541   3.435   3.744   3.300
  179TIP3   OH2  542   4.161   0.452   1.442
  179TIP3    H1  543   4.174   0.478   1.533
  179TIP3    H2  544   4.067   0.438   1.434
  180TIP3   OH2  545   2.203   4.322   0.040
  180TIP3    H1  546   2.239   4.407   0.064
  180TIP3    H2  547   2.161   4.336  -0.045
  181TIP3   OH2  548   1.132   5.021   3.029
  181TIP3    H1  549   1.102   4.955   3.090
  181TIP3    H2  550   1.188   4.973   2.967
  182TIP3   OH2  551   6.212   0.038   0.207
  182TIP3    H1  552   6.262   0.078   0.136
  182TIP3    H2  553   6.138   0.097   0.220
  183TIP3   OH2  554   5.624   0.683   2.408
  183TIP3    H1  555   5.551   0.621   2.402
  183TIP3    H2  556   5.582   0.768   2.422
  184TIP3   OH2  557   1.733   1.563   1.092
  184TIP3    H1  558   1.751   1.537   1.001
  184TIP3    H2  559   1.787   1.640   1.106
  185TIP3   OH2  560   2.417   3.045   3.679
  185TIP3    H1  561   2.406   2.950   3.687
  185TIP3    H2  562   2.441   3.073   3.768
  186TIP3   OH2  563   4.336   0.223   4.023
  186TIP3    H1  564   4.381   0.141   4.003
  186TIP3    H2  565   4.326   0.266   3.938
  187TIP3   OH2  566   3.922   5.156   2.135
  187TIP3    H1  567   3.849   5.099   2.160
  187TIP3    H2  568   3.891   5.245   2.155
  188TIP3   OH2  569   2.091   3.865   1.336
  188TIP3    H1  570   2.027   3.933   1.355
  188TIP3    H2  571   2.099   3.815   1.417
  189TIP3   OH2  572   0.696   4.951   1.678
  189TIP3    H1  573   0.617   5.003   1.696
  189TIP3    H2  574   0.700   4.889   1.751
  190TIP3   OH2  575   4.352   0.366   0.628
  190TIP3    H1  576   4.374   0.302   0.560
  190TIP3    H2  577   4.411   0.344   0.701
  191TIP3   OH2  578   4.400   2.792   1.277
  191TIP3    H1  579   4.319   2.788   1.328
  191TIP3    H2  580   4.462   2.837   1.335
  192TIP3   OH2  581   2.149   3.949   0.601
  192TIP3    H1  582   2.095   3.873   0.582
  192TIP3    H2  583   2.087   4.017   0.629
  193TIP3   OH2  584   5.081   2.925   3.795
  193TIP3    H1  585   5.135   2.951   3.721
  193TIP3    H2  586   5.046   3.007   3.830
  194TIP3   OH2  587   0.666   4.236   4.603
  194TIP3    H1  588   0.666   4.154   4.552
  194TIP3    H2  589   0.611   4.295   4.552
  195TIP3   OH2  590   3.008   1.131   0.182
  195TIP3    H1  591   3.011   1.199   0.249
  195TIP3    H2  592   3.099   1.113   0.161
  196TIP3   OH2  593   2.913   2.808   0.990
  196TIP3    H1  594   2.883   2.792   1.079
  196TIP3    H2  595   2.847   2.867   0.953
  197TIP3   OH2  596   0.103   5.654   4.667
  197TIP3    H1  597   0.022   5.706   4.669
  197TIP3    H2  598   0.092   5.597   4.591
  198TIP3   OH2  599   1.680   1.004   4.595
  198TIP3    H1  600   1.615   1.074   4.595
  198TIP3    H2  601   1.758   1.044   4.556
  199TIP3   OH2  602   3.877   3.024   4.160
  199TIP3    H1  603   3.886   2.975   4.078
  199TIP3    H2  604   3.797   2.989   4.200
  200TIP3   OH2  605   6.110   2.883   0.914
  200TIP3    H1  606   6.129   2.789   0.915
  200TIP3    H2  607   6.166   2.920   0.983
  201TIP3   OH2  608   5.019   3.254   4.456
  201TIP3    H1  609   4.967   3.176   4.434
  201TIP3    H2  610   4.977   3.325   4.408
  202TIP3   OH2  611   5.527   5.516   1.354
  202TIP3    H1  612   5.557   5.564   1.432
  202TIP3    H2  613   5.608   5.497   1.306
  203TIP3   OH2  614   0.857   5.064   0.886
  203TIP3    H1  615   0.830   5.098   0.800
  203TIP3    H2  616   0.834   5.134   0.947
  204TIP3   OH2  617   4.484   4.496   2.405
  204TIP3    H1  618   4.458   4.481   2.314
  204TIP3    H2  619   4.521   4.584   2.406
  205TIP3   OH2  620   0.196   0.453   1.123
  205TIP3    H1  621   0.274   0.398   1.114
  205TIP3    H2  622   0.150   0.418   1.200
  206TIP3   OH2  623   3.766   2.046   4.356
  206TIP3    H1  624   3.705   1.982   4.394
  206TIP3    H2  625   3.837   1.993   4.321
  207TIP3   OH2  626   5.454   2.603   3.413
  207TIP3    H1  627   5.546   2.630   3.405
  207TIP3    H2  628   5.439   2.547   3.337
  208TIP3   OH2  629   0.186   4.743   0.109
  208TIP3    H1  630   0.213   4.832   0.088
  208TIP3    H2  631   0.262   4.703   0.151
  209TIP3   OH2  632   0.021   2.344   3.689
  209TIP3    H1  633   0.094   2.300   3.732
  209TIP3    H2  634   0.057   2.379   3.608
  210TIP3   OH2  635   0.509   1.183   2.613
  210TIP3    H1  636   0.451   1.151   2.544
  210TIP3    H2  637   0.582   1.224   2.566
  211TIP3   OH2  638   3.745   0.290   4.406
  211TIP3    H1  639   3.662   0.266   4.365
  211TIP3    H2  640   3.811   0.235   4.363
  212TIP3   OH2  641   1.656   1.247   1.512
  212TIP3    H1  642   1.656   1.336   1.475
  212TIP3    H2  643   1.740   1.241   1.558
  213TIP3   OH2  644   2.118   1.238   1.158
  213TIP3    H1  645   2.045   1.272   1.106
  213TIP3    H2  646   2.189   1.227   1.094
  214TIP3   OH2  647   3.178   1.667   5.027
  214TIP3    H1  648   3.208   1.611   5.099
  214TIP3    H2  649   3.179   1.755   5.063
  215TIP3   OH2  650   1.032   3.110   0.326
  215TIP3    H1  651   0.973   3.039   0.298
  215TIP3    H2  652   1.102   3.065   0.374
  216TIP3   OH2  653   5.967   2.692   3.101
  216TIP3    H1  654   6.026   2.622   3.129
  216TIP3    H2  655   6.021   2.771   3.106
  217TIP3   OH2  656   5.973   2.260   0.425
  217TIP3    H1  657   5.966   2.330   0.360
  217TIP3    H2  658   6.065   2.233   0.421
  218TIP3   OH2  659   4.279   1.775   3.075
  218TIP3    H1  660   4.188   1.790   3.098
  218TIP3    H2  661   4.276   1.743   2.984
  219TIP3   OH2  662   1.844   0.824   4.390
  219TIP3    H1  663   1.772   0.875   4.351
  219TIP3    H2  664   1.923   0.868   4.360
  220TIP3   OH2  665   4.911   2.347   4.222
  220TIP3    H1  666   4.984   2.405   4.245
  220TIP3    H2  667   4.937   2.309   4.137
  221TIP3   OH2  668   1.880   1.036   3.744
  221TIP3    H1  669   1.865   0.957   3.692
  221TIP3    H2  670   1.860   1.108   3.684
  222TIP3   OH2  671   2.724   5.389   0.297
  222TIP3    H1  672   2.729   5.456   0.229
  222TIP3    H2  673   2.761   5.431   0.375
  223TIP3   OH2  674   4.264   4.782   3.085
  223TIP3    H1  675   4.178   4.794   3.045
  223TIP3    H2  676   4.319   4.749   3.014
  224TIP3   OH2  677   1.961   1.847   2.464
  224TIP3    H1  678   2.046   1.837   2.507
  224TIP3    H2  679   1.920   1.922   2.507
  225TIP3   OH2  680   1.466   4.462   4.957
  225TIP3    H1  681   1.402   4.457   4.886
  225TIP3    H2  682   1.452   4.381   5.006
  226TIP3   OH2  683   5.050   2.090   2.342
  226TIP3    H1  684   5.101   2.071   2.421
  226TIP3    H2  685   5.113   2.124   2.280
  227TIP3   OH2  686   4.856   2.774   3.783
  227TIP3    H1  687   4.942   2.809   3.759
  227TIP3    H2  688   4.803   2.852   3.802
  228TIP3   OH2  689   4.530   3.953   3.773
  228TIP3    H1  690   4.524   4.027   3.833
  228TIP3    H2  691   4.602   3.977   3.714
  229TIP3   OH2  692   1.389   2.144   1.408
  229TIP3    H1  693   1.473   2.174   1.442
  229TIP3    H2  694   1.386   2.176   1.318
  230TIP3   OH2  695   2.859   0.030   0.455
  230TIP3    H1  696   2.885   0.111   0.501
  230TIP3    H2  697   2.890   0.044   0.365
  231TIP3   OH2  698   5.313   3.247   0.654
  231TIP3    H1  699   5.244   3.290   0.704
  231TIP3    H2  700   5.394   3.272   0.698
  232TIP3   OH2  701   3.957   4.910   4.130
  232TIP3    H1  702   3.966   4.928   4.224
  232TIP3    H2  703   3.986   4.820   4.120
  233TIP3   OH2  704   3.935   0.239  -0.024
  233TIP3    H1  705   4.023   0.259  -0.055
  233TIP3    H2  706   3.930   0.143  -0.024
  234TIP3   OH2  707   1.875   3.108   0.561
  234TIP3    H1  708   1.924   3.097   0.480
  234TIP3    H2  709   1.917   3.048   0.623
  235TIP3   OH2  710   4.878   1.780   0.463
  235TIP3    H1  711   4.969   1.753   0.469
  235TIP3    H2  712   4.832   1.704   0.428
  236TIP3   OH2  713   4.044   5.753   3.560
  236TIP3    H1  714   3.999   5.818   3.613
  236TIP3    H2  715   4.039   5.672   3.612
  237TIP3   OH2  716   5.061   1.514   4.272
  237TIP3    H1  717   5.045   1.466   4.191
  237TIP3    H2  718   5.093   1.599   4.243
  238TIP3   OH2  719   4.290   5.763   1.998
  238TIP3    H1  720   4.245   5.846   2.012
  238TIP3    H2  721   4.335   5.745   2.081
  239TIP3   OH2  722   2.312   3.363   0.313
  239TIP3    H1  723   2.336   3.436   0.257
  239TIP3    H2  724   2.245   3.399   0.371
  240TIP3   OH2  725   2.246   0.336   2.511
  240TIP3    H1  726   2.228   0.374   2.425
  240TIP3    H2  727   2.329   0.376   2.538
  241TIP3   OH2  728   1.553   5.423   2.348
  241TIP3    H1  729   1.460   5.434   2.369
  241TIP3    H2  730   1.579   5.507   2.310
  242TIP3   OH2  731   3.279   4.186   2.793
  242TIP3    H1  732   3.275   4.101   2.750
  242TIP3    H2  733   3.197   4.191   2.842
  243TIP3   OH2  734   0.361   0.889   2.998
  243TIP3    H1  735   0.283   0.838   3.021
  243TIP3    H2  736   0.430   0.823   2.989
  244TIP3   OH2  737   2.975   5.386   3.238
  244TIP3    H1  738   2.953   5.345   3.154
  244TIP3    H2  739   2.937   5.473   3.233
  245TIP3   OH2  740   5.427  -0.042   0.282
  245TIP3    H1  741   5.395   0.013   0.211
  245TIP3    H2  742   5.523  -0.034   0.277
  246TIP3   OH2  743   4.091   0.794   3.173
  246TIP3    H1  744   4.107   0.763   3.262
  246TIP3    H2  745   4.109   0.718   3.117
  247TIP3   OH2  746   1.790   3.567   1.878
  247TIP3    H1  747   1.799   3.478   1.911
  247TIP3    H2  748   1.823   3.622   1.950
  248TIP3   OH2  749   2.114   3.952   4.661
  248TIP3    H1  750   2.184   3.957   4.726
  248TIP3    H2  751   2.034   3.969   4.711
  249TIP3   OH2  752   0.525   1.495   3.580
  249TIP3    H1  753   0.518   1.495   3.485
  249TIP3    H2  754   0.547   1.404   3.602
  250TIP3   OH2  755   4.805   4.479   3.499
  250TIP3    H1  756   4.720   4.436   3.495
  250TIP3    H2  757   4.817   4.499   3.592
  251TIP3   OH2  758   2.300   5.413   1.692
  251TIP3    H1  759   2.243   5.374   1.625
  251TIP3    H2  760   2.249   5.406   1.773
  252TIP3   OH2  761   0.916   1.507   4.018
  252TIP3    H1  762   0.964   1.584   3.987
  252TIP3    H2  763   0.888   1.462   3.938
  253TIP3   OH2  764   4.703   4.926   1.740
  253TIP3    H1  765   4.780   4.896   1.787
  253TIP3    H2  766   4.734   5.002   1.689
  254TIP3   OH2  767   0.464   5.079   1.617
  254TIP3    H1  768   0.372   5.097   1.602
  254TIP3    H2  769   0.510   5.130   1.551
  255TIP3   OH2  770   3.028   2.528   4.117
  255TIP3    H1  771   2.938   2.546   4.144
  255TIP3    H2  772   3.025   2.439   4.082
  256TIP3   OH2  773   2.870   0.368   3.412
  256TIP3    H1  774   2.878   0.378   3.507
  256TIP3    H2  775   2.805   0.299   3.401
  257TIP3   OH2  776   5.882   2.045   3.452
  257TIP3    H1  777   5.868   2.117   3.512
  257TIP3    H2  778   5.831   2.068   3.374
  258TIP3   OH2  779   1.880   2.918   0.033
  258TIP3    H1  780   1.844   2.838  -0.005
  258TIP3    H2  781   1.876   2.982  -0.039
  259TIP3   OH2  782   2.070   4.115   2.965
  259TIP3    H1  783   2.048   4.185   2.903
  259TIP3    H2  784   2.162   4.130   2.985
  260TIP3   OH2  785   4.011   4.674   2.527
  260TIP3    H1  786   4.085   4.633   2.572
  260TIP3    H2  787   3.969   4.603   2.479
  261TIP3   OH2  788   2.071   3.324   2.396
  261TIP3    H1  789   2.043   3.329   2.304
  261TIP3    H2  790   1.995   3.352   2.446
  262TIP3   OH2  791   4.859   5.984   0.948
  262TIP3    H1  792   4.838   5.914   0.886
  262TIP3    H2  793   4.954   5.978   0.959
  263TIP3   OH2  794   4.252   2.126   0.556
  263TIP3    H1  795   4.237   2.051   0.613
  263TIP3    H2  796   4.169   2.137   0.510
  264TIP3   OH2  797   0.949   0.377   4.785
  264TIP3    H1  798   0.961   0.444   4.852
  264TIP3    H2  799   1.017   0.311   4.805
  265TIP3   OH2  800   4.029   2.734   0.694
  265TIP3    H1  801   4.049   2.641   0.697
  265TIP3    H2  802   3.942   2.742   0.732
  266TIP3   OH2  803   2.475   4.333   0.282
  266TIP3    H1  804   2.423   4.413   0.290
  266TIP3    H2  805   2.562   4.364   0.256
  267TIP3   OH2  806   5.598   0.301   1.915
  267TIP3    H1  807   5.570   0.383   1.875
  267TIP3    H2  808   5.525   0.275   1.971
  268TIP3   OH2  809   0.792   5.867   2.921
  268TIP3    H1  810   0.721   5.804   2.911
  268TIP3    H2  811   0.867   5.815   2.950
  269TIP3   OH2  812   0.457   0.235   4.334
  269TIP3    H1  813   0.473   0.176   4.408
  269TIP3    H2  814   0.540   0.235   4.286
  270TIP3   OH2  815   4.035   3.688   2.658
  270TIP3    H1  816   4.104   3.696   2.593
  270TIP3    H2  817   3.994   3.603   2.640
  271TIP3   OH2  818   1.299   5.550   0.424
  271TIP3    H1  819   1.289   5.561   0.519
  271TIP3    H2  820   1.239   5.479   0.402
  272TIP3   OH2  821   5.934   3.251   3.335
  272TIP3    H1  822   5.935   3.180   3.272
  272TIP3    H2  823   5.915   3.208   3.419
  273TIP3   OH2  824   3.417   2.879   1.952
  273TIP3    H1  825   3.370   2.867   2.035
  273TIP3    H2  826   3.509   2.886   1.977
  274TIP3   OH2  827   5.228   5.079   2.254
  274TIP3    H1  828   5.176   5.003   2.229
  274TIP3    H2  829   5.204   5.094   2.346
  275TIP3   OH2  830   2.971   3.885   2.647
  275TIP3    H1  831   2.926   3.828   2.710
  275TIP3    H2  832   2.945   3.851   2.561
  276TIP3   OH2  833   5.695   4.067   4.255
  276TIP3    H1  834   5.774   4.116   4.233
  276TIP3    H2  835   5.633   4.134   4.283
  277TIP3   OH2  836   0.352   5.216   3.083
  277TIP3    H1  837   0.401   5.138   3.109
  277TIP3    H2  838   0.260   5.191   3.091
  278TIP3   OH2  839   3.205   2.778   4.598
  278TIP3    H1  840   3.154   2.787   4.679
  278TIP3    H2  841   3.270   2.712   4.618
  279TIP3   OH2  842   3.467   0.113   4.982
  279TIP3    H1  843   3.536   0.055   4.949
  279TIP3    H2  844   3.419   0.059   5.045
  280TIP3   OH2  845   1.077   1.860   1.300
  280TIP3    H1  846   1.000   1.810   1.271
  280TIP3    H2  847   1.082   1.933   1.239
  281TIP3   OH2  848   3.306   3.976   1.604
  281TIP3    H1  849   3.281   4.068   1.605
  281TIP3    H2  850   3.223   3.928   1.600
  282TIP3   OH2  851   3.423   5.573   3.678
  282TIP3    H1  852   3.363   5.605   3.746
  282TIP3    H2  853   3.387   5.488   3.653
  283TIP3   OH2  854   6.259   0.157   1.736
  283TIP3    H1  855   6.225   0.087   1.680
  283TIP3    H2  856   6.252   0.236   1.682
  284TIP3   OH2  857   1.594   1.242   2.747
  284TIP3    H1  858   1.611   1.188   2.670
  284TIP3    H2  859   1.666   1.222   2.807
  285TIP3   OH2  860   6.128   1.922   2.189
  285TIP3    H1  861   6.112   2.016   2.184
  285TIP3    H2  862   6.055   1.887   2.241
  286TIP3   OH2  863   4.937   2.367   3.342
  286TIP3    H1  864   4.908   2.303   3.407
  286TIP3    H2  865   4.863   2.376   3.282
  287TIP3   OH2  866   0.987   5.911   2.021
  287TIP3    H1  867   0.904   5.952   1.996
  287TIP3    H2  868   1.037   5.904   1.939
  288TIP3   OH2  869   5.216   3.651   3.644
  288TIP3    H1  870   5.121   3.665   3.645
  288TIP3    H2  871   5.251   3.720   3.700
  289TIP3   OH2  872   0.174   4.993   3.318
  289TIP3    H1  873   0.153   4.901   3.305
  289TIP3    H2  874   0.142   5.036   3.239
  290TIP3   OH2  875   0.064   3.343   2.713
  290TIP3    H1  876   0.154   3.338   2.681
  290TIP3    H2  877   0.012   3.362   2.635
  291TIP3   OH2  878   1.228   3.808   1.517
  291TIP3    H1  879   1.306   3.823   1.463
  291TIP3    H2  880   1.159   3.858   1.473
  292TIP3   OH2  881   1.495   1.873   2.678
  292TIP3    H1  882   1.413   1.902   2.718
  292TIP3    H2  883   1.522   1.946   2.622
  293TIP3   OH2  884   5.481   3.442   4.870
  293TIP3    H1  885   5.463   3.508   4.803
  293TIP3    H2  886   5.573   3.454   4.892
  294TIP3   OH2  887   6.395   3.153   3.215
  294TIP3    H1  888   6.410   3.062   3.242
  294TIP3    H2  889   6.357   3.194   3.293
  295TIP3   OH2  890   2.117   2.777   2.410
  295TIP3    H1  891   2.081   2.818   2.331
  295TIP3    H2  892   2.208   2.806   2.413
  296TIP3   OH2  893   5.039   1.956   3.641
  296TIP3    H1  894   5.027   1.961   3.735
  296TIP3    H2  895   5.129   1.986   3.627
  297TIP3   OH2  896   3.757   5.159   3.053
  297TIP3    H1  897   3.763   5.215   2.976
  297TIP3    H2  898   3.684   5.195   3.103
  298TIP3   OH2  899   3.358   4.309   2.113
  298TIP3    H1  900   3.410   4.230   2.101
  298TIP3    H2  901   3.415   4.380   2.082
  299TIP3   OH2  902   2.828   2.594   2.778
  299TIP3    H1  903   2.913   2.602   2.736
  299TIP3    H2  904   2.780   2.532   2.724
  300TIP3   OH2  905   5.195   0.303   1.065
  300TIP3    H1  906   5.155   0.222   1.032
  300TIP3    H2  907   5.151   0.373   1.016
  301TIP3   OH2  908   4.274   1.495   3.909
  301TIP3    H1  909   4.334   1.434   3.951
  301TIP3    H2  910   4.320   1.579   3.911
  302TIP3   OH2  911   3.412   5.714   2.726
  302TIP3    H1  912   3.454   5.672   2.650
  302TIP3    H2  913   3.456   5.676   2.802
  303TIP3   OH2  914   5.180   0.557   0.396
  303TIP3    H1  915   5.174   0.464   0.416
  303TIP3    H2  916   5.091   0.583   0.371
  304TIP3   OH2  917   6.125   2.498   1.649
  304TIP3    H1  918   6.048   2.521   1.701
  304TIP3    H2  919   6.193   2.558   1.680
  305TIP3   OH2  920   5.850   4.402   2.880
  305TIP3    H1  921   5.899   4.328   2.844
  305TIP3    H2  922   5.909   4.477   2.871
  306TIP3   OH2  923   4.479   1.707   3.972
  306TIP3    H1  924   4.516   1.661   4.048
  306TIP3    H2  925   4.532   1.786   3.964
  307TIP3   OH2  926   4.853   3.989   0.809
  307TIP3    H1  927   4.837   3.922   0.742
  307TIP3    H2  928   4.938   3.965   0.847
  308TIP3   OH2  929   2.854   5.272   4.162
  308TIP3    H1  930   2.923   5.256   4.226
  308TIP3    H2  931   2.785   5.210   4.186
  309TIP3   OH2  932   3.902   6.021   1.992
  309TIP3    H1  933   3.994   6.000   1.978
  309TIP3    H2  934   3.855   5.941   1.968
  310TIP3   OH2  935   5.850   5.452   2.238
  310TIP3    H1  936   5.823   5.541   2.216
  310TIP3    H2  937   5.846   5.404   2.155
  311TIP3   OH2  938   4.649   4.712   4.535
  311TIP3    H1  939   4.695   4.669   4.463
  311TIP3    H2  940   4.615   4.793   4.496
  312TIP3   OH2  941   3.563   4.481   2.006
  312TIP3    H1  942   3.626   4.422   2.046
  312TIP3    H2  943   3.574   4.468   1.912
  313TIP3   OH2  944   4.466   2.910   1.711
  313TIP3    H1  945   4.410   2.974   1.754
  313TIP3    H2  946   4.423   2.826   1.728
  314TIP3   OH2  947   6.174   3.070   1.303
  314TIP3    H1  948   6.207   2.993   1.257
  314TIP3    H2  949   6.247   3.098   1.359
  315TIP3   OH2  950   2.914   4.952   4.756
  315TIP3    H1  951   2.918   5.046   4.769
  315TIP3    H2  952   2.881   4.917   4.839
  316TIP3   OH2  953   0.418   0.203   3.940
  316TIP3    H1  954   0.387   0.128   3.991
  316TIP3    H2  955   0.493   0.169   3.890
  317TIP3   OH2  956   5.416   2.863   3.676
  317TIP3    H1  957   5.340   2.908   3.639
  317TIP3    H2  958   5.423   2.898   3.765
  318TIP3   OH2  959   6.308   4.862   4.709
  318TIP3    H1  960   6.370   4.913   4.761
  318TIP3    H2  961   6.222   4.883   4.747
  319TIP3   OH2  962   2.800   5.198   5.117
  319TIP3    H1  963   2.875   5.254   5.097
  319TIP3    H2  964   2.747   5.199   5.037
  320TIP3   OH2  965   5.383   3.524   4.035
  320TIP3    H1  966   5.323   3.499   3.964
  320TIP3    H2  967   5.419   3.440   4.065
  321TIP3   OH2  968   5.424   5.053   4.629
  321TIP3    H1  969   5.433   5.142   4.594
  321TIP3    H2  970   5.335   5.027   4.606
  322TIP3   OH2  971   1.184   5.545   5.196
  322TIP3    H1  972   1.259   5.491   5.172
  322TIP3    H2  973   1.209   5.634   5.174
  323TIP3   OH2  974   3.012   3.845   1.632
  323TIP3    H1  975   3.070   3.815   1.702
  323TIP3    H2  976   2.926   3.853   1.674
  324TIP3   OH2  977   4.063   1.547   4.646
  324TIP3    H1  978   4.051   1.453   4.659
  324TIP3    H2  979   4.117   1.575   4.719
  325TIP3   OH2  980   6.277   5.301   1.670
  325TIP3    H1  981   6.195   5.271   1.629
  325TIP3    H2  982   6.249   5.372   1.728
  326TIP3   OH2  983   5.651   1.172   1.064
  326TIP3    H1  984   5.689   1.086   1.043
  326TIP3    H2  985   5.713   1.235   1.027
  327TIP3   OH2  986   4.756   3.478   1.632
  327TIP3    H1  987   4.789   3.474   1.542
  327TIP3    H2  988   4.787   3.398   1.673
  328TIP3   OH2  989   5.178   3.723   0.328
  328TIP3    H1  990   5.237   3.714   0.402
  328TIP3    H2  991   5.160   3.633   0.300
  329TIP3   OH2  992   4.211   1.613   4.877
  329TIP3    H1  993   4.294   1.567   4.890
  329TIP3    H2  994   4.236   1.697   4.839
  330TIP3   OH2  995   0.427   3.970   0.691
  330TIP3    H1  996   0.462   3.882   0.684
  330TIP3    H2  997   0.340   3.965   0.653
  331TIP3   OH2  998   2.777   1.590   3.473
  331TIP3    H1  999   2.772   1.683   3.450
  331TIP3    H2 1000   2.718   1.547   3.410
  332TIP3   OH2 1001   6.146   2.051   1.506
  332TIP3    H1 1002   6.231   2.087   1.529
  332TIP3    H2 1003   6.105   2.029   1.590
  333TIP3   OH2 1004   2.347   2.458   4.536
  333TIP3    H1 1005   2.270   2.437   4.589
  333TIP3    H2 1006   2.375   2.544   4.569
  334TIP3   OH2 1007   5.006   1.937   0.212
  334TIP3    H1 1008   5.045   1.886   0.283
  334TIP3    H2 1009   4.930   1.886   0.183
  335TIP3   OH2 1010   3.349   4.858   0.292
  335TIP3    H1 1011   3.399   4.817   0.221
  335TIP3    H2 1012   3.363   4.952   0.280
  336TIP3   OH2 1013   1.523   4.883   1.719
  336TIP3    H1 1014   1.532   4.909   1.811
  336TIP3    H2 1015   1.541   4.963   1.670
  337TIP3   OH2 1016   0.244   1.680   0.852
  337TIP3    H1 1017   0.245   1.612   0.920
  337TIP3    H2 1018   0.226   1.761   0.899
  338TIP3   OH2 1019   3.567   1.830   4.444
  338TIP3    H1 1020   3.557   1.836   4.539
  338TIP3    H2 1021   3.480   1.848   4.409
  339TIP3   OH2 1022   1.782   2.453   2.944
  339TIP3    H1 1023   1.764   2.367   2.982
  339TIP3    H2 1024   1.878   2.455   2.934
  340TIP3   OH2 1025   1.916   2.874   4.811
  340TIP3    H1 1026   1.838   2.889   4.758
  340TIP3    H2 1027   1.910   2.782   4.837
  341TIP3   OH2 1028   3.859   2.337   0.956
  341TIP3    H1 1029   3.765   2.333   0.974
  341TIP3    H2 1030   3.901   2.312   1.039
  342TIP3   OH2 1031   0.611   2.547   1.036
  342TIP3    H1 1032   0.597   2.452   1.038
  342TIP3    H2 1033   0.696   2.559   1.081
  343TIP3   OH2 1034   0.103   5.995   1.337
  343TIP3    H1 1035   0.010   5.988   1.361
  343TIP3    H2 1036   0.116   6.088   1.321
  344TIP3   OH2 1037   2.806   0.723   1.756
  344TIP3    H1 1038   2.853   0.761   1.682
  344TIP3    H2 1039   2.777   0.637   1.725
  345TIP3   OH2 1040   1.333   5.288   3.634
  345TIP3    H1 1041   1.372   5.202   3.650
  345TIP3    H2 1042   1.249   5.285   3.681
  346TIP3   OH2 1043   1.509   3.939   1.679
  346TIP3    H1 1044   1.594   3.912   1.712
  346TIP3    H2 1045   1.464   3.977   1.755
  347TIP3   OH2 1046   0.242   3.016   3.641
  347TIP3    H1 1047   0.269   3.098   3.683
  347TIP3    H2 1048   0.322   2.983   3.599
  348TIP3   OH2 1049   3.203   5.539   4.622
  348TIP3    H1 1050   3.293   5.570   4.616
  348TIP3    H2 1051   3.202   5.456   4.574
  349TIP3   OH2 1052   4.330   4.137   3.200
  349TIP3    H1 1053   4.421   4.161   3.179
  349TIP3    H2 1054   4.322   4.157   3.294
  350TIP3   OH2 1055   3.365   5.611   1.435
  350TIP3    H1 1056   3.423   5.685   1.416
  350TIP3    H2 1057   3.278   5.650   1.445
  351TIP3   OH2 1058   5.230   4.543   4.273
  351TIP3    H1 1059   5.189   4.629   4.284
  351TIP3    H2 1060   5.288   4.534   4.348
  352TIP3   OH2 1061   5.937   5.655   4.475
  352TIP3    H1 1062   5.904   5.719   4.412
  352TIP3    H2 1063   5.902   5.571   4.443
  353TIP3   OH2 1064   3.910   4.983   4.424
  353TIP3    H1 1065   3.983   5.045   4.432
  353TIP3    H2 1066   3.832   5.039   4.417
  354TIP3   OH2 1067   5.621   3.652   0.741
  354TIP3    H1 1068   5.659   3.668   0.655
  354TIP3    H2 1069   5.696   3.655   0.801
  355TIP3   OH2 1070   2.341   3.805   0.434
  355TIP3    H1 1071   2.271   3.838   0.492
  355TIP3    H2 1072   2.295   3.749   0.372
  356TIP3   OH2 1073   3.426   3.243   3.435
  356TIP3    H1 1074   3.367   3.174   3.465
  356TIP3    H2 1075   3.415   3.313   3.499
  357TIP3   OH2 1076   1.995   0.359   1.343
  357TIP3    H1 1077   2.011   0.329   1.432
  357TIP3    H2 1078   2.056   0.431   1.330
  358TIP3   OH2 1079   4.597   1.842   3.072
  358TIP3    H1 1080   4.615   1.838   3.166
  358TIP3    H2 1081   4.505   1.814   3.064
  359TIP3   OH2 1082   4.753   4.550   0.120
  359TIP3    H1 1083   4.810   4.603   0.065
  359TIP3    H2 1084   4.787   4.562   0.209
  360TIP3   OH2 1085   5.770   0.686   2.668
  360TIP3    H1 1086   5.753   0.597   2.698
  360TIP3    H2 1087   5.724   0.692   2.585
  361TIP3   OH2 1088   5.090   3.813   2.938
  361TIP3    H1 1089   5.050   3.848   2.859
  361TIP3    H2 1090   5.118   3.725   2.914
  362TIP3   OH2 1091   5.426   1.072   4.563
  362TIP3    H1 1092   5.359   1.018   4.522
  362TIP3    H2 1093   5.506   1.054   4.513
  363TIP3   OH2 1094   3.426   2.659   3.241
  363TIP3    H1 1095   3.490   2.729   3.256
  363TIP3    H2 1096   3.341   2.702   3.253
  364TIP3   OH2 1097   1.455   1.040   1.464
  364TIP3    H1 1098   1.522   1.082   1.518
  364TIP3    H2 1099   1.442   0.955   1.506
  365TIP3   OH2 1100   0.773   2.709   1.649
  365TIP3    H1 1101   0.700   2.675   1.597
  365TIP3    H2 1102   0.765   2.804   1.642
  366TIP3   OH2 1103   2.228   1.925   1.084
  366TIP3    H1 1104   2.138   1.957   1.091
  366TIP3    H2 1105   2.278   2.001   1.053
  367TIP3   OH2 1106   3.637   3.946   3.752
  367TIP3    H1 1107   3.688   3.928   3.831
  367TIP3    H2 1108   3.688   3.907   3.681
  368TIP3   OH2 1109   0.543   5.343   2.230
  368TIP3    H1 1110   0.588   5.293   2.163
  368TIP3    H2 1111   0.586   5.428   2.231
  369TIP3   OH2 1112   6.225   0.437   5.042
  369TIP3    H1 1113   6.240   0.384   5.121
  369TIP3    H2 1114   6.304   0.425   4.990
  370TIP3   OH2 1115   5.601   2.754   1.983
  370TIP3    H1 1116   5.572   2.756   2.074
  370TIP3    H2 1117   5.522   2.739   1.933
  371TIP3   OH2 1118   0.754   1.823   2.843
  371TIP3    H1 1119   0.814   1.889   2.807
  371TIP3    H2 1120   0.785   1.740   2.807
  372TIP3   OH2 1121   4.473   4.771   2.384
  372TIP3    H1 1122   4.384   4.791   2.414
  372TIP3    H2 1123   4.485   4.825   2.306
  373TIP3   OH2 1124   2.727   0.356   2.309
  373TIP3    H1 1125   2.813   0.395   2.327
  373TIP3    H2 1126   2.700   0.318   2.393
  374TIP3   OH2 1127   2.463   1.584   0.322
  374TIP3    H1 1128   2.416   1.655   0.276
  374TIP3    H2 1129   2.492   1.526   0.252
  375TIP3   OH2 1130   3.072   5.312   1.227
  375TIP3    H1 1131   3.088   5.366   1.149
  375TIP3    H2 1132   3.014   5.365   1.281
  376TIP3   OH2 1133   5.475   0.289   1.429
  376TIP3    H1 1134   5.467   0.365   1.486
  376TIP3    H2 1135   5.390   0.245   1.435
  377TIP3   OH2 1136   5.584   5.224   1.580
  377TIP3    H1 1137   5.666   5.178   1.565
  377TIP3    H2 1138   5.568   5.215   1.674
  378TIP3   OH2 1139   3.098   5.053   0.092
  378TIP3    H1 1140   3.095   4.990   0.021
  378TIP3    H2 1141   3.066   5.135   0.053
  379TIP3   OH2 1142   4.537   5.038   2.670
  379TIP3    H1 1143   4.514   5.063   2.581
  379TIP3    H2 1144   4.462   4.986   2.700
  380TIP3   OH2 1145   5.759   6.000   1.595
  380TIP3    H1 1146   5.781   5.909   1.574
  380TIP3    H2 1147   5.755   6.001   1.691
  381TIP3   OH2 1148   1.983   3.128   4.852
  381TIP3    H1 1149   1.950   3.039   4.842
  381TIP3    H2 1150   2.073   3.124   4.819
  382TIP3   OH2 1151   2.760   1.437   3.057
  382TIP3    H1 1152   2.834   1.491   3.028
  382TIP3    H2 1153   2.699   1.499   3.098
  383TIP3   OH2 1154   5.375   3.306   2.415
  383TIP3    H1 1155   5.455   3.252   2.416
  383TIP3    H2 1156   5.402   3.390   2.451
  384TIP3   OH2 1157   2.514   4.920   4.950
  384TIP3    H1 1158   2.481   4.832   4.970
  384TIP3    H2 1159   2.470   4.977   5.013
  385TIP3   OH2 1160   2.879   1.622   5.172
  385TIP3    H1 1161   2.869   1.634   5.078
  385TIP3    H2 1162   2.855   1.530   5.187
  386TIP3   OH2 1163   2.822   4.246   2.141
  386TIP3    H1 1164   2.831   4.200   2.058
  386TIP3    H2 1165   2.885   4.203   2.200
  387TIP3   OH2 1166   3.516   4.052   4.492
  387TIP3    H1 1167   3.550   4.029   4.579
  387TIP3    H2 1168   3.427   4.017   4.491
  388TIP3   OH2 1169   4.911   3.116   5.016
  388TIP3    H1 1170   4.996   3.116   5.060
  388TIP3    H2 1171   4.848   3.131   5.086
  389TIP3   OH2 1172   0.578   0.917   2.745
  389TIP3    H1 1173   0.489   0.931   2.712
  389TIP3    H2 1174   0.635   0.955   2.678
  390TIP3   OH2 1175   6.355   1.130   3.429
  390TIP3    H1 1176   6.267   1.165   3.417
  390TIP3    H2 1177   6.362   1.114   3.523
  391TIP3   OH2 1178   2.170   2.249   1.451
  391TIP3    H1 1179   2.189   2.282   1.363
  391TIP3    H2 1180   2.131   2.324   1.497
  392TIP3   OH2 1181   3.946   4.154   5.134
  392TIP3    H1 1182   4.003   4.158   5.056
  392TIP3    H2 1183   3.860   4.130   5.099
  393TIP3   OH2 1184   2.579   4.388   2.083
  393TIP3    H1 1185   2.663   4.347   2.105
  393TIP3    H2 1186   2.514   4.338   2.132
  394TIP3   OH2 1187   0.858   4.331   0.326
  394TIP3    H1 1188   0.875   4.239   0.345
  394TIP3    H2 1189   0.907   4.379   0.393
  395TIP3   OH2 1190   0.680   3.640   0.535
  395TIP3    H1 1191   0.726   3.557   0.520
  395TIP3    H2 1192   0.746   3.697   0.575
  396TIP3   OH2 1193   5.795   1.502   1.357
  396TIP3    H1 1194   5.772   1.447   1.283
  396TIP3    H2 1195   5.711   1.520   1.400
  397TIP3   OH2 1196   3.227   1.202   3.271
  397TIP3    H1 1197   3.160   1.203   3.340
  397TIP3    H2 1198   3.260   1.112   3.272
  398TIP3   OH2 1199   5.515   4.384   2.716
  398TIP3    H1 1200   5.528   4.366   2.623
  398TIP3    H2 1201   5.595   4.427   2.744
  399TIP3   OH2 1202   3.622   1.192   3.586
  399TIP3    H1 1203   3.662   1.107   3.605
  399TIP3    H2 1204   3.684   1.256   3.622
  400TIP3   OH2 1205   0.917   5.530   0.474
  400TIP3    H1 1206   0.955   5.448   0.506
  400TIP3    H2 1207   0.827   5.529   0.506
  401TIP3   OH2 1208   4.585   0.372   3.220
  401TIP3    H1 1209   4.614   0.462   3.205
  401TIP3    H2 1210   4.594   0.330   3.134
  402TIP3   OH2 1211   5.128   0.664   0.879
  402TIP3    H1 1212   5.218   0.632   0.880
  402TIP3    H2 1213   5.077   0.593   0.917
  403TIP3   OH2 1214   1.848   1.773   3.494
  403TIP3    H1 1215   1.782   1.705   3.503
  403TIP3    H2 1216   1.878   1.766   3.403
  404TIP3   OH2 1217   0.974   0.189   2.801
  404TIP3    H1 1218   0.932   0.258   2.749
  404TIP3    H2 1219   1.062   0.182   2.766
  405TIP3   OH2 1220   2.153   4.526   0.712
  405TIP3    H1 1221   2.159   4.619   0.687
  405TIP3    H2 1222   2.136   4.527   0.806
  406TIP3   OH2 1223   1.491   0.958   0.545
  406TIP3    H1 1224   1.433   0.952   0.620
  406TIP3    H2 1225   1.578   0.943   0.580
  407TIP3   OH2 1226   1.360   1.342   0.097
  407TIP3    H1 1227   1.362   1.395   0.017
  407TIP3    H2 1228   1.304   1.392   0.157
  408TIP3   OH2 1229   0.461   0.857   3.272
  408TIP3    H1 1230   0.442   0.907   3.193
  408TIP3    H2 1231   0.555   0.840   3.268
  409TIP3   OH2 1232   1.024   2.390   4.922
  409TIP3    H1 1233   1.118   2.387   4.938
  409TIP3    H2 1234   1.016   2.422   4.832
  410TIP3   OH2 1235   0.570   5.107   3.794
  410TIP3    H1 1236   0.479   5.139   3.793
  410TIP3    H2 1237   0.590   5.097   3.887
  411TIP3   OH2 1238   2.922   1.404   4.506
  411TIP3    H1 1239   2.842   1.378   4.551
  411TIP3    H2 1240   2.993   1.381   4.566
  412TIP3   OH2 1241   4.449   5.607   3.522
  412TIP3    H1 1242   4.400   5.633   3.444
  412TIP3    H2 1243   4.538   5.590   3.491
  413TIP3   OH2 1244   3.421   4.732   5.063
  413TIP3    H1 1245   3.333   4.739   5.101
  413TIP3    H2 1246   3.416   4.784   4.983
  414TIP3   OH2 1247   2.111   0.958   1.005
  414TIP3    H1 1248   2.152   0.921   1.084
  414TIP3    H2 1249   2.184   0.977   0.947
  415TIP3   OH2 1250   1.408   4.110   2.484
  415TIP3    H1 1251   1.478   4.052   2.513
  415TIP3    H2 1252   1.422   4.120   2.390
  416TIP3   OH2 1253   5.306   1.854   4.879
  416TIP3    H1 1254   5.316   1.945   4.852
  416TIP3    H2 1255   5.227   1.853   4.932
  417TIP3   OH2 1256   0.413   3.417   3.576
  417TIP3    H1 1257   0.421   3.507   3.609
  417TIP3    H2 1258   0.419   3.426   3.481
  418TIP3   OH2 1259   6.060   4.168   4.767
  418TIP3    H1 1260   6.002   4.111   4.717
  418TIP3    H2 1261   6.137   4.178   4.711
  419TIP3   OH2 1262   1.706   5.735   5.110
  419TIP3    H1 1263   1.669   5.753   5.024
  419TIP3    H2 1264   1.663   5.654   5.138
  420TIP3   OH2 1265   2.380   3.880   2.425
  420TIP3    H1 1266   2.392   3.789   2.453
  420TIP3    H2 1267   2.468   3.918   2.431
  421TIP3   OH2 1268   5.535   3.515   2.928
  421TIP3    H1 1269   5.500   3.557   3.007
  421TIP3    H2 1270   5.567   3.430   2.958
  422TIP3   OH2 1271   0.306   5.219   3.843
  422TIP3    H1 1272   0.315   5.310   3.814
  422TIP3    H2 1273   0.291   5.225   3.937
  423TIP3   OH2 1274   1.798   5.364   4.950
  423TIP3    H1 1275   1.781   5.376   4.857
  423TIP3    H2 1276   1.755   5.281   4.972
  424TIP3   OH2 1277   4.549   4.003   1.348
  424TIP3    H1 1278   4.564   4.060   1.423
  424TIP3    H2 1279   4.625   4.017   1.291
  425TIP3   OH2 1280   2.869   2.941   2.300
  425TIP3    H1 1281   2.939   2.982   2.249
  425TIP3    H2 1282   2.909   2.861   2.334
  426TIP3   OH2 1283   2.939   2.176   1.227
  426TIP3    H1 1284   3.015   2.202   1.279
  426TIP3    H2 1285   2.952   2.220   1.143
  427TIP3   OH2 1286   5.760   3.746   0.983
  427TIP3    H1 1287   5.810   3.777   1.058
  427TIP3    H2 1288   5.793   3.799   0.909
  428TIP3   OH2 1289   3.940   5.481   3.214
  428TIP3    H1 1290   3.971   5.412   3.272
  428TIP3    H2 1291   3.978   5.460   3.128
  429TIP3   OH2 1292   4.469   4.272   2.643
  429TIP3    H1 1293   4.501   4.188   2.611
  429TIP3    H2 1294   4.374   4.265   2.641
  430TIP3   OH2 1295   6.206   4.286   3.231
  430TIP3    H1 1296   6.253   4.351   3.283
  430TIP3    H2 1297   6.113   4.304   3.247
  431TIP3   OH2 1298   5.458   3.210   2.685
  431TIP3    H1 1299   5.475   3.144   2.617
  431TIP3    H2 1300   5.367   3.195   2.710
  432TIP3   OH2 1301   3.942   4.178   2.718
  432TIP3    H1 1302   3.875   4.238   2.750
  432TIP3    H2 1303   4.009   4.177   2.787
  433TIP3   OH2 1304   0.871   3.223   1.476
  433TIP3    H1 1305   0.952   3.272   1.460
  433TIP3    H2 1306   0.828   3.219   1.391
  434TIP3   OH2 1307   2.221   3.673   4.733
  434TIP3    H1 1308   2.128   3.694   4.723
  434TIP3    H2 1309   2.259   3.751   4.773
  435TIP3   OH2 1310   6.113   1.847   3.996
  435TIP3    H1 1311   6.124   1.917   4.059
  435TIP3    H2 1312   6.074   1.775   4.046
  436TIP3   OH2 1313   0.614   0.408   1.505
  436TIP3    H1 1314   0.682   0.474   1.505
  436TIP3    H2 1315   0.536   0.452   1.539
  437TIP3   OH2 1316   4.757   0.488   2.830
  437TIP3    H1 1317   4.837   0.532   2.801
  437TIP3    H2 1318   4.782   0.396   2.836
  438TIP3   OH2 1319   4.441   2.349   4.069
  438TIP3    H1 1320   4.518   2.325   4.018
  438TIP3    H2 1321   4.391   2.268   4.078
  439TIP3   OH2 1322   0.535   4.366   4.408
  439TIP3    H1 1323   0.607   4.321   4.364
  439TIP3    H2 1324   0.550   4.459   4.390
  440TIP3   OH2 1325   4.845   3.306   2.551
  440TIP3    H1 1326   4.940   3.317   2.548
  440TIP3    H2 1327   4.827   3.235   2.489
  441TIP3   OH2 1328   4.042   0.787   2.746
  441TIP3    H1 1329   4.052   0.880   2.729
  441TIP3    H2 1330   3.948   0.773   2.754
  442TIP3   OH2 1331   3.848   2.724   4.593
  442TIP3    H1 1332   3.904   2.748   4.520
  442TIP3    H2 1333   3.878   2.778   4.666
  443TIP3   OH2 1334   5.078   2.503   2.736
  443TIP3    H1 1335   5.043   2.452   2.810
  443TIP3    H2 1336   5.098   2.437   2.669
  444TIP3   OH2 1337   4.263   1.199   3.311
  444TIP3    H1 1338   4.192   1.177   3.372
  444TIP3    H2 1339   4.229   1.175   3.225
  445TIP3   OH2 1340   0.017   3.308   0.872
  445TIP3    H1 1341   0.103   3.267   0.863
  445TIP3    H2 1342  -0.045   3.241   0.842
  446TIP3   OH2 1343   0.674   2.122   1.592
  446TIP3    H1 1344   0.731   2.198   1.598
  446TIP3    H2 1345   0.720   2.053   1.641
  447TIP3   OH2 1346   5.664   4.321   2.032
  447TIP3    H1 1347   5.580   4.366   2.040
  447TIP3    H2 1348   5.652   4.238   2.078
  448TIP3   OH2 1349   4.656   3.199   3.680
  448TIP3    H1 1350   4.619   3.258   3.615
  448TIP3    H2 1351   4.684   3.122   3.630
  449TIP3   OH2 1352   6.194   4.651   1.541
  449TIP3    H1 1353   6.281   4.676   1.509
  449TIP3    H2 1354   6.204   4.649   1.636
  450TIP3   OH2 1355   0.076   3.733   1.118
  450TIP3    H1 1356   0.153   3.788   1.132
  450TIP3    H2 1357   0.111   3.645   1.105
  451TIP3   OH2 1358   4.269   3.328   1.593
  451TIP3    H1 1359   4.337   3.390   1.616
  451TIP3    H2 1360   4.273   3.260   1.661
  452TIP3   OH2 1361   2.484   5.085   0.711
  452TIP3    H1 1362   2.409   5.143   0.699
  452TIP3    H2 1363   2.468   5.012   0.651
  453TIP3   OH2 1364   4.105   1.820   1.270
  453TIP3    H1 1365   4.119   1.752   1.205
  453TIP3    H2 1366   4.193   1.851   1.292
  454TIP3   OH2 1367   3.081   3.092   4.230
  454TIP3    H1 1368   3.098   3.046   4.148
  454TIP3    H2 1369   3.168   3.104   4.268
  455TIP3   OH2 1370   1.857   2.019   4.643
  455TIP3    H1 1371   1.865   2.099   4.591
  455TIP3    H2 1372   1.890   2.042   4.729
  456TIP3   OH2 1373   2.544   5.132   3.556
  456TIP3    H1 1374   2.450   5.143   3.543
  456TIP3    H2 1375   2.566   5.194   3.624
  457TIP3   OH2 1376   4.663   4.314  -0.007
  457TIP3    H1 1377   4.732   4.258   0.028
  457TIP3    H2 1378   4.672   4.397   0.040
  458TIP3   OH2 1379   5.268   4.681   2.903
  458TIP3    H1 1380   5.354   4.703   2.867
  458TIP3    H2 1381   5.256   4.588   2.881
  459TIP3   OH2 1382   2.571   4.550   4.049
  459TIP3    H1 1383   2.544   4.458   4.049
  459TIP3    H2 1384   2.515   4.591   3.983
  460TIP3   OH2 1385   0.955   0.795   2.589
  460TIP3    H1 1386   0.894   0.843   2.533
  460TIP3    H2 1387   1.033   0.849   2.591
  461TIP3   OH2 1388   4.355   5.876   4.554
  461TIP3    H1 1389   4.334   5.930   4.630
  461TIP3    H2 1390   4.392   5.937   4.491
  462TIP3   OH2 1391   4.514   0.269   4.730
  462TIP3    H1 1392   4.489   0.235   4.644
  462TIP3    H2 1393   4.503   0.195   4.790
  463TIP3   OH2 1394   1.950   3.097   1.427
  463TIP3    H1 1395   1.928   3.004   1.427
  463TIP3    H2 1396   1.938   3.125   1.336
  464TIP3   OH2 1397   2.948   3.528   2.544
  464TIP3    H1 1398   3.029   3.574   2.522
  464TIP3    H2 1399   2.938   3.463   2.474
  465TIP3   OH2 1400   5.983   5.738   5.036
  465TIP3    H1 1401   5.939   5.655   5.019
  465TIP3    H2 1402   6.035   5.722   5.115
  466TIP3   OH2 1403   2.917   2.461   2.057
  466TIP3    H1 1404   2.885   2.539   2.012
  466TIP3    H2 1405   2.960   2.495   2.136
  467TIP3   OH2 1406   0.862   3.239   3.333
  467TIP3    H1 1407   0.878   3.145   3.336
  467TIP3    H2 1408   0.899   3.267   3.249
  468TIP3   OH2 1409   2.928   4.702   1.513
  468TIP3    H1 1410   2.889   4.789   1.499
  468TIP3    H2 1411   2.905   4.653   1.434
  469TIP3   OH2 1412   3.072   0.424   0.943
  469TIP3    H1 1413   3.082   0.509   0.901
  469TIP3    H2 1414   3.129   0.365   0.893
  470TIP3   OH2 1415   4.560   0.959   1.941
  470TIP3    H1 1416   4.608   0.981   1.861
  470TIP3    H2 1417   4.585   1.026   2.004
  471TIP3   OH2 1418   3.516   2.308   1.247
  471TIP3    H1 1419   3.451   2.284   1.181
  471TIP3    H2 1420   3.584   2.242   1.239
  472TIP3   OH2 1421   5.310   5.788   2.642
  472TIP3    H1 1422   5.295   5.767   2.734
  472TIP3    H2 1423   5.374   5.859   2.644
  473TIP3   OH2 1424   1.317   0.564   2.741
  473TIP3    H1 1425   1.226   0.577   2.714
  473TIP3    H2 1426   1.369   0.608   2.674
  474TIP3   OH2 1427   6.049   4.573   4.517
  474TIP3    H1 1428   6.049   4.632   4.442
  474TIP3    H2 1429   5.992   4.501   4.490
  475TIP3   OH2 1430   6.264   0.822   4.430
  475TIP3    H1 1431   6.359   0.820   4.417
  475TIP3    H2 1432   6.244   0.913   4.449
  476TIP3   OH2 1433   0.621   2.085   4.733
  476TIP3    H1 1434   0.690   2.138   4.773
  476TIP3    H2 1435   0.648   2.076   4.641
  477TIP3   OH2 1436   2.689   0.906   4.132
  477TIP3    H1 1437   2.720   0.968   4.065
  477TIP3    H2 1438   2.764   0.894   4.190
  478TIP3   OH2 1439   3.102   1.738   1.491
  478TIP3    H1 1440   3.059   1.742   1.577
  478TIP3    H2 1441   3.042   1.687   1.437
  479TIP3   OH2 1442   2.452   2.304   3.680
  479TIP3    H1 1443   2.527   2.274   3.732
  479TIP3    H2 1444   2.439   2.235   3.615
  480TIP3   OH2 1445   3.097   2.902   2.660
  480TIP3    H1 1446   3.011   2.939   2.638
  480TIP3    H2 1447   3.077   2.815   2.694
  481TIP3   OH2 1448   2.936   4.172   3.769
  481TIP3    H1 1449   3.029   4.169   3.744
  481TIP3    H2 1450   2.897   4.097   3.725
  482TIP3   OH2 1451   5.193   4.942   0.563
  482TIP3    H1 1452   5.100   4.954   0.542
  482TIP3    H2 1453   5.205   4.847   0.560
  483TIP3   OH2 1454   4.185   0.995   2.961
  483TIP3    H1 1455   4.253   0.972   2.897
  483TIP3    H2 1456   4.173   0.914   3.011
  484TIP3   OH2 1457   5.957   3.613   3.555
  484TIP3    H1 1458   6.018   3.615   3.482
  484TIP3    H2 1459   5.876   3.651   3.519
  485TIP3   OH2 1460   0.504   5.434   1.504
  485TIP3    H1 1461   0.479   5.425   1.413
  485TIP3    H2 1462   0.578   5.374   1.515
  486TIP3   OH2 1463   3.688   4.121   0.684
  486TIP3    H1 1464   3.620   4.155   0.626
  486TIP3    H2 1465   3.646   4.118   0.770
  487TIP3   OH2 1466   4.641   0.652   2.630
  487TIP3    H1 1467   4.707   0.701   2.581
  487TIP3    H2 1468   4.690   0.610   2.701
  488TIP3   OH2 1469   1.011   3.992   0.359
  488TIP3    H1 1470   0.954   3.920   0.385
  488TIP3    H2 1471   1.028   3.977   0.266
  489TIP3   OH2 1472   1.989   2.218   2.127
  489TIP3    H1 1473   1.982   2.225   2.032
  489TIP3    H2 1474   1.982   2.124   2.144
  490TIP3   OH2 1475   5.292   0.650   4.664
  490TIP3    H1 1476   5.323   0.672   4.751
  490TIP3    H2 1477   5.364   0.602   4.624
  491TIP3   OH2 1478   1.462   0.533   0.555
  491TIP3    H1 1479   1.501   0.599   0.612
  491TIP3    H2 1480   1.402   0.582   0.499
  492TIP3   OH2 1481   2.289   0.707   2.295
  492TIP3    H1 1482   2.247   0.787   2.264
  492TIP3    H2 1483   2.230   0.637   2.267
  493TIP3   OH2 1484   5.123   5.344   2.727
  493TIP3    H1 1485   5.136   5.438   2.741
  493TIP3    H2 1486   5.123   5.306   2.814
  494TIP3   OH2 1487   4.815   1.712   4.070
  494TIP3    H1 1488   4.756   1.662   4.126
  494TIP3    H2 1489   4.805   1.674   3.983
  495TIP3   OH2 1490   2.395   5.772   4.717
  495TIP3    H1 1491   2.404   5.853   4.666
  495TIP3    H2 1492   2.484   5.736   4.720
  496TIP3   OH2 1493   1.771   0.416   5.118
  496TIP3    H1 1494   1.767   0.506   5.088
  496TIP3    H2 1495   1.847   0.378   5.074
  497TIP3   OH2 1496   3.365   0.663   1.118
  497TIP3    H1 1497   3.301   0.734   1.108
  497TIP3    H2 1498   3.394   0.669   1.209
  498TIP3   OH2 1499   1.666   4.516   3.230
  498TIP3    H1 1500   1.623   4.559   3.305
  498TIP3    H2 1501   1.659   4.580   3.159
  499TIP3   OH2 1502   5.586   0.779   2.059
  499TIP3    H1 1503   5.555   0.753   1.973
  499TIP3    H2 1504   5.509   0.811   2.105
  500TIP3   OH2 1505   5.896   5.242   3.886
  500TIP3    H1 1506   5.861   5.154   3.873
  500TIP3    H2 1507   5.968   5.248   3.824
  501TIP3   OH2 1508   5.124   2.709   0.506
  501TIP3    H1 1509   5.121   2.700   0.601
  501TIP3    H2 1510   5.218   2.707   0.485
  502TIP3   OH2 1511   3.607   0.273   3.487
  502TIP3    H1 1512   3.569   0.258   3.573
  502TIP3    H2 1513   3.665   0.199   3.472
  503TIP3   OH2 1514   3.955   3.724   4.589
  503TIP3    H1 1515   3.865   3.716   4.622
  503TIP3    H2 1516   4.010   3.701   4.664
  504TIP3   OH2 1517   6.319   2.019   5.021
  504TIP3    H1 1518   6.367   2.094   4.985
  504TIP3    H2 1519   6.253   2.058   5.077
  505TIP3   OH2 1520   1.883   4.023   2.274
  505TIP3    H1 1521   1.890   4.081   2.350
  505TIP3    H2 1522   1.798   3.980   2.284
  506TIP3   OH2 1523   5.996   2.748   0.618
  506TIP3    H1 1524   5.970   2.659   0.640
  506TIP3    H2 1525   6.084   2.739   0.581
  507TIP3   OH2 1526   4.372   3.558   3.431
  507TIP3    H1 1527   4.385   3.611   3.510
  507TIP3    H2 1528   4.284   3.522   3.441
  508TIP3   OH2 1529   1.812   2.602   2.295
  508TIP3    H1 1530   1.844   2.691   2.313
  508TIP3    H2 1531   1.724   2.600   2.334
  509TIP3   OH2 1532   1.435   3.129   2.241
  509TIP3    H1 1533   1.503   3.120   2.308
  509TIP3    H2 1534   1.437   3.046   2.193
  510TIP3   OH2 1535   0.585   0.587   4.917
  510TIP3    H1 1536   0.664   0.635   4.943
  510TIP3    H2 1537   0.606   0.495   4.935
  511TIP3   OH2 1538   3.050   2.809   4.836
  511TIP3    H1 1539   3.025   2.858   4.915
  511TIP3    H2 1540   2.970   2.764   4.810
  512TIP3   OH2 1541   2.112   4.414   1.962
  512TIP3    H1 1542   2.201   4.394   1.993
  512TIP3    H2 1543   2.064   4.332   1.974
  513TIP3   OH2 1544   2.567   1.029   3.748
  513TIP3    H1 1545   2.556   0.943   3.706
  513TIP3    H2 1546   2.573   1.091   3.675
  514TIP3   OH2 1547   1.210   3.637   3.709
  514TIP3    H1 1548   1.230   3.543   3.707
  514TIP3    H2 1549   1.164   3.650   3.792
  515TIP3   OH2 1550   3.696   4.842   2.569
  515TIP3    H1 1551   3.689   4.773   2.503
  515TIP3    H2 1552   3.639   4.912   2.536
  516TIP3   OH2 1553   1.513   1.199   4.111
  516TIP3    H1 1554   1.576   1.186   4.039
  516TIP3    H2 1555   1.459   1.272   4.082
  517TIP3   OH2 1556   1.633   5.642   4.400
  517TIP3    H1 1557   1.645   5.737   4.390
  517TIP3    H2 1558   1.610   5.612   4.312
  518TIP3   OH2 1559   2.847   1.774   0.075
  518TIP3    H1 1560   2.897   1.765   0.156
  518TIP3    H2 1561   2.879   1.704   0.019
  519TIP3   OH2 1562   0.393   5.911   0.023
  519TIP3    H1 1563   0.401   5.966  -0.055
  519TIP3    H2 1564   0.299   5.911   0.042
  520TIP3   OH2 1565   6.137   1.551   1.228
  520TIP3    H1 1566   6.110   1.499   1.304
  520TIP3    H2 1567   6.113   1.641   1.251
  521TIP3   OH2 1568   1.604   2.582   0.136
  521TIP3    H1 1569   1.593   2.522   0.210
  521TIP3    H2 1570   1.534   2.646   0.146
  522TIP3   OH2 1571   4.028   3.469   2.948
  522TIP3    H1 1572   4.077   3.548   2.973
  522TIP3    H2 1573   3.937   3.488   2.971
  523TIP3   OH2 1574   3.870   4.982   1.044
  523TIP3    H1 1575   3.890   5.037   0.968
  523TIP3    H2 1576   3.819   4.909   1.008
  524TIP3   OH2 1577   0.897   4.099   1.254
  524TIP3    H1 1578   0.811   4.056   1.254
  524TIP3    H2 1579   0.941   4.064   1.176
  525TIP3   OH2 1580   4.398   1.314   0.163
  525TIP3    H1 1581   4.386   1.279   0.074
  525TIP3    H2 1582   4.329   1.379   0.173
  526TIP3   OH2 1583   3.367   0.060   1.947
  526TIP3    H1 1584   3.391   0.044   1.855
  526TIP3    H2 1585   3.305   0.133   1.943
  527TIP3   OH2 1586   4.938   0.459   4.181
  527TIP3    H1 1587   4.945   0.544   4.224
  527TIP3    H2 1588   5.002   0.404   4.227
  528TIP3   OH2 1589   6.121   4.084   1.293
  528TIP3    H1 1590   6.177   4.038   1.354
  528TIP3    H2 1591   6.163   4.170   1.281
  529TIP3   OH2 1592   0.478   1.670   2.872
  529TIP3    H1 1593   0.383   1.677   2.862
  529TIP3    H2 1594   0.503   1.750   2.917
  530TIP3   OH2 1595   1.863   5.140   1.878
  530TIP3    H1 1596   1.831   5.190   1.803
  530TIP3    H2 1597   1.869   5.205   1.948
  531TIP3   OH2 1598   5.723   2.593   0.850
  531TIP3    H1 1599   5.718   2.514   0.904
  531TIP3    H2 1600   5.634   2.605   0.818
  532TIP3   OH2 1601   3.614   3.619   0.587
  532TIP3    H1 1602   3.537   3.584   0.631
  532TIP3    H2 1603   3.585   3.703   0.551
  533TIP3   OH2 1604   3.022   1.015   5.138
  533TIP3    H1 1605   3.100   1.047   5.185
  533TIP3    H2 1606   3.056   0.952   5.075
  534TIP3   OH2 1607   1.813   5.927   0.853
  534TIP3    H1 1608   1.737   5.899   0.802
  534TIP3    H2 1609   1.781   5.936   0.942
  535TIP3   OH2 1610   0.275   3.816   2.839
  535TIP3    H1 1611   0.280   3.725   2.870
  535TIP3    H2 1612   0.192   3.848   2.874
  536TIP3   OH2 1613   3.261   0.228   2.501
  536TIP3    H1 1614   3.276   0.262   2.413
  536TIP3    H2 1615   3.180   0.177   2.494
  537TIP3   OH2 1616   0.260   0.497   3.186
  537TIP3    H1 1617   0.329   0.513   3.121
  537TIP3    H2 1618   0.291   0.421   3.236
  538TIP3   OH2 1619   0.845   0.254   1.668
  538TIP3    H1 1620   0.931   0.294   1.665
  538TIP3    H2 1621   0.791   0.308   1.611
  539TIP3   OH2 1622   2.880   0.569   3.204
  539TIP3    H1 1623   2.787   0.582   3.188
  539TIP3    H2 1624   2.885   0.499   3.268
  540TIP3   OH2 1625   5.084   4.926   2.687
  540TIP3    H1 1626   4.996   4.959   2.674
  540TIP3    H2 1627   5.086   4.899   2.779
  541TIP3   OH2 1628   3.592   0.933   4.719
  541TIP3    H1 1629   3.550   0.853   4.689
  541TIP3    H2 1630   3.570   0.937   4.812
  542TIP3   OH2 1631   5.520   4.328   0.092
  542TIP3    H1 1632   5.455   4.398   0.094
  542TIP3    H2 1633   5.514   4.293   0.003
  543TIP3   OH2 1634   3.260   3.788   2.164
  543TIP3    H1 1635   3.299   3.707   2.131
  543TIP3    H2 1636   3.326   3.855   2.146
  544TIP3   OH2 1637   5.639   5.331   0.434
  544TIP3    H1 1638   5.617   5.274   0.507
  544TIP3    H2 1639   5.604   5.285   0.357
  545TIP3   OH2 1640   1.182   0.239   4.256
  545TIP3    H1 1641   1.247   0.183   4.299
  545TIP3    H2 1642   1.164   0.308   4.320
  546TIP3   OH2 1643   0.539   2.784   4.130
  546TIP3    H1 1644   0.446   2.763   4.116
  546TIP3    H2 1645   0.587   2.716   4.083
  547TIP3   OH2 1646   4.672  -0.007   4.520
  547TIP3    H1 1647   4.709  -0.041   4.438
  547TIP3    H2 1648   4.635   0.078   4.496
  548TIP3   OH2 1649   3.744   2.749   3.643
  548TIP3    H1 1650   3.694   2.684   3.593
  548TIP3    H2 1651   3.794   2.797   3.577
  549TIP3   OH2 1652   3.239   3.769   4.620
  549TIP3    H1 1653   3.308   3.806   4.675
  549TIP3    H2 1654   3.276   3.686   4.588
  550TIP3   OH2 1655   0.609   1.551   3.832
  550TIP3    H1 1656   0.593   1.525   3.742
  550TIP3    H2 1657   0.693   1.597   3.830
  551TIP3   OH2 1658   4.600   4.150   0.259
  551TIP3    H1 1659   4.557   4.067   0.239
  551TIP3    H2 1660   4.566   4.175   0.344
  552TIP3   OH2 1661   3.246   2.884   1.431
  552TIP3    H1 1662   3.341   2.871   1.427
  552TIP3    H2 1663   3.229   2.955   1.369
  553TIP3   OH2 1664   0.267   1.094   1.285
  553TIP3    H1 1665   0.340   1.100   1.223
  553TIP3    H2 1666   0.242   1.002   1.285
  554TIP3   OH2 1667   2.091   1.405   0.710
  554TIP3    H1 1668   2.072   1.322   0.668
  554TIP3    H2 1669   2.164   1.442   0.659
  555TIP3   OH2 1670   4.855   1.085   3.268
  555TIP3    H1 1671   4.860   1.026   3.343
  555TIP3    H2 1672   4.845   1.027   3.192
  556TIP3   OH2 1673   5.883   0.208   1.205
  556TIP3    H1 1674   5.945   0.146   1.166
  556TIP3    H2 1675   5.870   0.275   1.137
  557TIP3   OH2 1676   6.016   3.093   2.350
  557TIP3    H1 1677   5.945   3.051   2.400
  557TIP3    H2 1678   5.973   3.124   2.270
  558TIP3   OH2 1679   1.225   1.859   1.764
  558TIP3    H1 1680   1.279   1.911   1.704
  558TIP3    H2 1681   1.268   1.774   1.767
  559TIP3   OH2 1682   3.946   1.361   0.111
  559TIP3    H1 1683   3.956   1.273   0.148
  559TIP3    H2 1684   3.935   1.346   0.017
  560TIP3   OH2 1685   4.443   3.722   3.645
  560TIP3    H1 1686   4.528   3.729   3.602
  560TIP3    H2 1687   4.427   3.810   3.681
  561TIP3   OH2 1688   0.854   2.466   5.102
  561TIP3    H1 1689   0.774   2.421   5.073
  561TIP3    H2 1690   0.918   2.447   5.034
  562TIP3   OH2 1691   0.102   4.635   2.150
  562TIP3    H1 1692   0.164   4.632   2.077
  562TIP3    H2 1693   0.156   4.654   2.226
  563TIP3   OH2 1694   4.229   5.704   4.117
  563TIP3    H1 1695   4.312   5.657   4.128
  563TIP3    H2 1696   4.214   5.703   4.023
  564TIP3   OH2 1697   0.406   5.066   3.494
  564TIP3    H1 1698   0.411   5.024   3.408
  564TIP3    H2 1699   0.422   4.995   3.556
  565TIP3   OH2 1700   4.373   4.229   4.378
  565TIP3    H1 1701   4.379   4.305   4.436
  565TIP3    H2 1702   4.450   4.177   4.399
  566TIP3   OH2 1703   5.424   4.782   4.414
  566TIP3    H1 1704   5.339   4.777   4.458
  566TIP3    H2 1705   5.442   4.876   4.407
  567TIP3   OH2 1706   0.708   0.294   4.263
  567TIP3    H1 1707   0.785   0.238   4.252
  567TIP3    H2 1708   0.726   0.370   4.208
  568TIP3   OH2 1709   1.170  -0.006   1.078
  568TIP3    H1 1710   1.147  -0.099   1.070
  568TIP3    H2 1711   1.217   0.014   0.997
  569TIP3   OH2 1712   1.260   5.892   0.055
  569TIP3    H1 1713   1.271   5.799   0.074
  569TIP3    H2 1714   1.180   5.897   0.003
  570TIP3   OH2 1715   2.796   3.264   1.990
  570TIP3    H1 1716   2.807   3.171   1.972
  570TIP3    H2 1717   2.781   3.304   1.904
  571TIP3   OH2 1718   2.571   1.831   0.041
  571TIP3    H1 1719   2.664   1.806   0.043
  571TIP3    H2 1720   2.551   1.858   0.130
  572TIP3   OH2 1721   0.807   0.718   0.762
  572TIP3    H1 1722   0.834   0.669   0.684
  572TIP3    H2 1723   0.841   0.806   0.748
  573TIP3   OH2 1724   3.040   4.793   1.741
  573TIP3    H1 1725   3.029   4.778   1.647
  573TIP3    H2 1726   3.091   4.874   1.746
  574TIP3   OH2 1727   4.542   0.654   2.192
  574TIP3    H1 1728   4.469   0.679   2.249
  574TIP3    H2 1729   4.533   0.559   2.182
  575TIP3   OH2 1730   1.348   2.857   0.972
  575TIP3    H1 1731   1.265   2.889   1.007
  575TIP3    H2 1732   1.363   2.774   1.018
  576TIP3   OH2 1733   4.690   3.253   1.205
  576TIP3    H1 1734   4.609   3.225   1.161
  576TIP3    H2 1735   4.760   3.219   1.149
  577TIP3   OH2 1736   4.376   2.041   4.888
  577TIP3    H1 1737   4.287   2.030   4.855
  577TIP3    H2 1738   4.397   1.958   4.931
  578TIP3   OH2 1739   4.406   0.834   4.835
  578TIP3    H1 1740   4.487   0.871   4.870
  578TIP3    H2 1741   4.392   0.879   4.753
  579TIP3   OH2 1742   6.188   2.737   2.851
  579TIP3    H1 1743   6.186   2.776   2.938
  579TIP3    H2 1744   6.278   2.751   2.820
  580TIP3   OH2 1745   5.262   4.125   4.843
  580TIP3    H1 1746   5.225   4.135   4.931
  580TIP3    H2 1747   5.235   4.205   4.797
  581TIP3   OH2 1748   0.653   5.178   3.490
  581TIP3    H1 1749   0.634   5.217   3.405
  581TIP3    H2 1750   0.571   5.134   3.514
  582TIP3   OH2 1751   0.289   0.138   4.628
  582TIP3    H1 1752   0.333   0.178   4.703
  582TIP3    H2 1753   0.359   0.103   4.574
  583TIP3   OH2 1754   2.283   1.535   0.527
  583TIP3    H1 1755   2.351   1.541   0.460
  583TIP3    H2 1756   2.305   1.604   0.590
  584TIP3   OH2 1757   5.282   3.255   3.396
  584TIP3    H1 1758   5.369   3.223   3.370
  584TIP3    H2 1759   5.300   3.335   3.446
  585TIP3   OH2 1760   3.684   0.470   2.999
  585TIP3    H1 1761   3.600   0.429   2.976
  585TIP3    H2 1762   3.681   0.477   3.094
  586TIP3   OH2 1763   5.390   2.575   3.685
  586TIP3    H1 1764   5.390   2.553   3.592
  586TIP3    H2 1765   5.419   2.666   3.688
  587TIP3   OH2 1766   0.805   5.694   2.081
  587TIP3    H1 1767   0.725   5.748   2.083
  587TIP3    H2 1768   0.875   5.756   2.063
  588TIP3   OH2 1769   5.631   5.668   4.925
  588TIP3    H1 1770   5.681   5.748   4.938
  588TIP3    H2 1771   5.639   5.649   4.831
  589TIP3   OH2 1772   6.285   2.877   1.148
  589TIP3    H1 1773   6.371   2.842   1.171
  589TIP3    H2 1774   6.223   2.815   1.187
  590TIP3   OH2 1775   4.532   3.154   4.577
  590TIP3    H1 1776   4.511   3.087   4.512
  590TIP3    H2 1777   4.523   3.237   4.530
  591TIP3   OH2 1778   5.719   1.427   2.266
  591TIP3    H1 1779   5.679   1.509   2.238
  591TIP3    H2 1780   5.794   1.452   2.318
  592TIP3   OH2 1781   5.531   1.062   5.023
  592TIP3    H1 1782   5.554   0.989   5.081
  592TIP3    H2 1783   5.576   1.042   4.941
  593TIP3   OH2 1784   0.973   1.784   4.185
  593TIP3    H1 1785   1.043   1.759   4.125
  593TIP3    H2 1786   1.010   1.769   4.272
  594TIP3   OH2 1787   1.910   2.618   4.870
  594TIP3    H1 1788   1.930   2.626   4.964
  594TIP3    H2 1789   1.841   2.553   4.866
  595TIP3   OH2 1790   3.919   2.478   2.460
  595TIP3    H1 1791   3.995   2.531   2.435
  595TIP3    H2 1792   3.957   2.399   2.500
  596TIP3   OH2 1793   2.831   4.735   3.400
  596TIP3    H1 1794   2.800   4.795   3.468
  596TIP3    H2 1795   2.805   4.776   3.318
  597TIP3   OH2 1796   2.189   4.938   2.922
  597TIP3    H1 1797   2.261   4.987   2.962
  597TIP3    H2 1798   2.173   4.866   2.983
  598TIP3   OH2 1799   5.940   5.834   3.622
  598TIP3    H1 1800   5.965   5.771   3.690
  598TIP3    H2 1801   5.904   5.908   3.670
  599TIP3   OH2 1802   4.822   4.227   5.158
  599TIP3    H1 1803   4.735   4.199   5.129
  599TIP3    H2 1804   4.865   4.145   5.184
  600TIP3   OH2 1805   0.286   0.550   0.762
  600TIP3    H1 1806   0.371   0.507   0.750
  600TIP3    H2 1807   0.240   0.534   0.679
  601TIP3   OH2 1808   5.834   5.797   0.404
  601TIP3    H1 1809   5.901   5.764   0.464
  601TIP3    H2 1810   5.782   5.719   0.382
  602TIP3   OH2 1811   5.493   5.539   2.630
  602TIP3    H1 1812   5.497   5.447   2.657
  602TIP3    H2 1813   5.534   5.586   2.702
  603TIP3   OH2 1814   5.307   0.239   1.678
  603TIP3    H1 1815   5.386   0.187   1.663
  603TIP3    H2 1816   5.251   0.220   1.602
  604TIP3   OH2 1817   2.015   2.446   1.580
  604TIP3    H1 1818   2.010   2.511   1.649
  604TIP3    H2 1819   1.949   2.474   1.515
  605TIP3   OH2 1820   6.314   0.917   1.537
  605TIP3    H1 1821   6.301   1.007   1.567
  605TIP3    H2 1822   6.234   0.897   1.488
  606TIP3   OH2 1823   5.855   0.452   3.885
  606TIP3    H1 1824   5.778   0.502   3.857
  606TIP3    H2 1825   5.842   0.365   3.847
  607TIP3   OH2 1826   4.701   3.349   0.083
  607TIP3    H1 1827   4.618   3.376   0.122
  607TIP3    H2 1828   4.677   3.311  -0.002
  608TIP3   OH2 1829   3.758   4.590   1.519
  608TIP3    H1 1830   3.698   4.640   1.573
  608TIP3    H2 1831   3.741   4.619   1.429
  609TIP3   OH2 1832   5.072   3.489   5.223
  609TIP3    H1 1833   5.164   3.502   5.201
  609TIP3    H2 1834   5.036   3.441   5.149
  610TIP3   OH2 1835   4.707   4.191   2.043
  610TIP3    H1 1836   4.771   4.201   2.114
  610TIP3    H2 1837   4.749   4.130   1.982
  611TIP3   OH2 1838   5.501   3.852   2.851
  611TIP3    H1 1839   5.460   3.813   2.928
  611TIP3    H2 1840   5.434   3.847   2.783
  612TIP3   OH2 1841   5.395   1.258   0.250
  612TIP3    H1 1842   5.339   1.325   0.210
  612TIP3    H2 1843   5.481   1.299   0.257
  613TIP3   OH2 1844   5.728   3.959   3.702
  613TIP3    H1 1845   5.672   3.992   3.772
  613TIP3    H2 1846   5.774   3.885   3.742
  614TIP3   OH2 1847   0.164   3.277   4.438
  614TIP3    H1 1848   0.195   3.234   4.359
  614TIP3    H2 1849   0.196   3.367   4.430
  615TIP3   OH2 1850   4.692   3.478   5.042
  615TIP3    H1 1851   4.782   3.447   5.053
  615TIP3    H2 1852   4.664   3.439   4.959
  616TIP3   OH2 1853   1.315   5.691   3.965
  616TIP3    H1 1854   1.321   5.607   3.919
  616TIP3    H2 1855   1.280   5.751   3.899
  617TIP3   OH2 1856   0.905   0.081   0.993
  617TIP3    H1 1857   0.997   0.074   1.019
  617TIP3    H2 1858   0.881   0.171   1.015
  618TIP3   OH2 1859   3.138   2.028   4.001
  618TIP3    H1 1860   3.159   1.944   3.961
  618TIP3    H2 1861   3.078   2.006   4.072
  619TIP3   OH2 1862   3.638   4.847   3.072
  619TIP3    H1 1863   3.606   4.846   2.982
  619TIP3    H2 1864   3.699   4.921   3.075
  620TIP3   OH2 1865   0.022   5.419   4.846
  620TIP3    H1 1866   0.084   5.488   4.822
  620TIP3    H2 1867  -0.031   5.405   4.768
  621TIP3   OH2 1868   0.590   5.277   0.943
  621TIP3    H1 1869   0.661   5.318   0.992
  621TIP3    H2 1870   0.516   5.274   1.004
  622TIP3   OH2 1871   2.969   2.140   1.583
  622TIP3    H1 1872   3.007   2.127   1.496
  622TIP3    H2 1873   2.903   2.208   1.571
  623TIP3   OH2 1874   0.700   0.367   3.866
  623TIP3    H1 1875   0.687   0.434   3.799
  623TIP3    H2 1876   0.628   0.381   3.927
  624TIP3   OH2 1877   0.630   5.370   4.029
  624TIP3    H1 1878   0.589   5.285   4.045
  624TIP3    H2 1879   0.631   5.412   4.115
  625TIP3   OH2 1880   6.184   5.188   0.745
  625TIP3    H1 1881   6.226   5.133   0.679
  625TIP3    H2 1882   6.147   5.261   0.695
  626TIP3   OH2 1883   4.356   3.126   3.862
  626TIP3    H1 1884   4.392   3.064   3.798
  626TIP3    H2 1885   4.287   3.172   3.815
  627TIP3   OH2 1886   4.707   1.289   2.819
  627TIP3    H1 1887   4.705   1.242   2.902
  627TIP3    H2 1888   4.799   1.313   2.807
  628TIP3   OH2 1889   3.275   3.456   4.794
  628TIP3    H1 1890   3.186   3.424   4.800
  628TIP3    H2 1891   3.294   3.458   4.700
  629TIP3   OH2 1892   1.683   0.867   3.944
  629TIP3    H1 1893   1.650   0.861   3.854
  629TIP3    H2 1894   1.668   0.780   3.980
  630TIP3   OH2 1895   1.354   3.809   0.477
  630TIP3    H1 1896   1.350   3.831   0.383
  630TIP3    H2 1897   1.273   3.761   0.494
  631TIP3   OH2 1898   1.869   1.974   3.656
  631TIP3    H1 1899   1.818   1.929   3.723
  631TIP3    H2 1900   1.893   1.905   3.594
  632TIP3   OH2 1901   3.779   1.458   3.655
  632TIP3    H1 1902   3.691   1.460   3.619
  632TIP3    H2 1903   3.797   1.549   3.679
  633TIP3   OH2 1904   1.546   1.546   1.638
  633TIP3    H1 1905   1.595   1.510   1.564
  633TIP3    H2 1906   1.606   1.540   1.712
  634TIP3   OH2 1907   1.180   1.227   4.930
  634TIP3    H1 1908   1.165   1.229   4.836
  634TIP3    H2 1909   1.241   1.154   4.943
  635TIP3   OH2 1910   0.506   3.326   4.628
  635TIP3    H1 1911   0.476   3.392   4.565
  635TIP3    H2 1912   0.595   3.352   4.649
  636TIP3   OH2 1913   5.330   1.087   4.246
  636TIP3    H1 1914   5.303   1.122   4.161
  636TIP3    H2 1915   5.310   0.994   4.241
  637TIP3   OH2 1916   3.964   5.136   0.000
  637TIP3    H1 1917   4.026   5.090   0.057
  637TIP3    H2 1918   3.945   5.218   0.046
  638TIP3   OH2 1919   0.760   1.736   3.106
  638TIP3    H1 1920   0.746   1.773   3.019
  638TIP3    H2 1921   0.697   1.663   3.111
  639TIP3   OH2 1922   2.084   5.792   0.642
  639TIP3    H1 1923   2.110   5.833   0.559
  639TIP3    H2 1924   2.112   5.855   0.709
  640TIP3   OH2 1925   5.132   5.081   0.985
  640TIP3    H1 1926   5.201   5.023   1.018
  640TIP3    H2 1927   5.140   5.160   1.037
  641TIP3   OH2 1928   5.785   4.313   3.599
  641TIP3    H1 1929   5.790   4.222   3.570
  641TIP3    H2 1930   5.692   4.335   3.597
  642TIP3   OH2 1931   2.110   1.944   5.037
  642TIP3    H1 1932   2.116   1.889   4.959
  642TIP3    H2 1933   2.197   1.936   5.078
  643TIP3   OH2 1934   0.787   3.155   1.206
  643TIP3    H1 1935   0.835   3.075   1.187
  643TIP3    H2 1936   0.751   3.183   1.122
  644TIP3   OH2 1937   2.227   4.722   3.068
  644TIP3    H1 1938   2.303   4.694   3.017
  644TIP3    H2 1939   2.255   4.714   3.159
  645TIP3   OH2 1940   2.976   0.763   2.008
  645TIP3    H1 1941   2.949   0.755   1.917
  645TIP3    H2 1942   2.898   0.738   2.059
  646TIP3   OH2 1943   0.595   1.944   1.378
  646TIP3    H1 1944   0.568   2.000   1.451
  646TIP3    H2 1945   0.654   1.880   1.417
  647TIP3   OH2 1946   0.821   5.300   0.148
  647TIP3    H1 1947   0.906   5.264   0.175
  647TIP3    H2 1948   0.834   5.395   0.148
  648TIP3   OH2 1949   4.117   2.381   4.957
  648TIP3    H1 1950   4.065   2.418   4.885
  648TIP3    H2 1951   4.057   2.324   5.004
  649TIP3   OH2 1952   2.064   0.179   2.662
  649TIP3    H1 1953   2.081   0.085   2.671
  649TIP3    H2 1954   2.143   0.213   2.619
  650TIP3   OH2 1955   0.554   5.804   2.228
  650TIP3    H1 1956   0.492   5.803   2.156
  650TIP3    H2 1957   0.543   5.890   2.269
  651TIP3   OH2 1958   4.145   3.558   5.064
  651TIP3    H1 1959   4.115   3.485   5.009
  651TIP3    H2 1960   4.112   3.536   5.151
  652TIP3   OH2 1961   1.274   4.447   4.749
  652TIP3    H1 1962   1.257   4.353   4.748
  652TIP3    H2 1963   1.242   4.478   4.664
  653TIP3   OH2 1964   1.868   2.685   4.533
  653TIP3    H1 1965   1.788   2.645   4.499
  653TIP3    H2 1966   1.841   2.773   4.561
  654TIP3   OH2 1967   3.685   2.376   3.376
  654TIP3    H1 1968   3.675   2.422   3.293
  654TIP3    H2 1969   3.621   2.305   3.372
  655TIP3   OH2 1970   2.771   0.013   5.118
  655TIP3    H1 1971   2.803  -0.077   5.130
  655TIP3    H2 1972   2.707   0.006   5.047
  656TIP3   OH2 1973   1.893   1.693   4.357
  656TIP3    H1 1974   1.873   1.613   4.308
  656TIP3    H2 1975   1.840   1.761   4.314
  657TIP3   OH2 1976   2.346   5.626   0.357
  657TIP3    H1 1977   2.339   5.699   0.296
  657TIP3    H2 1978   2.416   5.652   0.416
  658TIP3   OH2 1979   0.061   5.160   4.991
  658TIP3    H1 1980   0.102   5.246   4.988
  658TIP3    H2 1981   0.042   5.139   4.900
  659TIP3   OH2 1982   2.744   2.000   4.365
  659TIP3    H1 1983   2.654   1.985   4.338
  659TIP3    H2 1984   2.738   2.065   4.435
  660TIP3   OH2 1985   3.115   2.906   0.805
  660TIP3    H1 1986   3.144   2.990   0.841
  660TIP3    H2 1987   3.050   2.874   0.867
  661TIP3   OH2 1988   2.533   2.364   2.905
  661TIP3    H1 1989   2.556   2.322   2.987
  661TIP3    H2 1990   2.590   2.323   2.840
  662TIP3   OH2 1991   3.819   2.393   3.620
  662TIP3    H1 1992   3.749   2.348   3.666
  662TIP3    H2 1993   3.788   2.399   3.529
  663TIP3   OH2 1994   5.426   0.670   3.309
  663TIP3    H1 1995   5.511   0.706   3.335
  663TIP3    H2 1996   5.444   0.620   3.230
  664TIP3   OH2 1997   3.289   0.413   3.989
  664TIP3    H1 1998   3.380   0.440   3.999
  664TIP3    H2 1999   3.291   0.351   3.915
  665TIP3   OH2 2000   4.928   1.171   1.733
  665TIP3    H1 2001   5.014   1.147   1.767
  665TIP3    H2 2002   4.928   1.267   1.736
  666TIP3   OH2 2003  -0.028   4.382   2.014
  666TIP3    H1 2004   0.030   4.432   2.072
  666TIP3    H2 2005   0.026   4.309   1.984
  667TIP3   OH2 2006   1.640   2.708   2.598
  667TIP3    H1 2007   1.713   2.753   2.642
  667TIP3    H2 2008   1.592   2.667   2.670
  668TIP3   OH2 2009   4.404   2.035   1.351
  668TIP3    H1 2010   4.389   2.070   1.264
  668TIP3    H2 2011   4.400   1.940   1.340
  669TIP3   OH2 2012   1.308   5.607   3.668
  669TIP3    H1 2013   1.376   5.615   3.602
  669TIP3    H2 2014   1.319   5.518   3.703
  670TIP3   OH2 2015   5.958   5.430   5.039
  670TIP3    H1 2016   5.911   5.391   4.965
  670TIP3    H2 2017   5.903   5.410   5.115
  671TIP3   OH2 2018   2.432   2.354   1.720
  671TIP3    H1 2019   2.511   2.401   1.693
  671TIP3    H2 2020   2.361   2.415   1.702
  672TIP3   OH2 2021   4.052   0.109   3.914
  672TIP3    H1 2022   4.000   0.159   3.851
  672TIP3    H2 2023   4.095   0.176   3.968
  673TIP3   OH2 2024   2.849   1.926   1.070
  673TIP3    H1 2025   2.885   2.014   1.070
  673TIP3    H2 2026   2.820   1.911   1.160
  674TIP3   OH2 2027   0.613   3.955   3.435
  674TIP3    H1 2028   0.609   3.880   3.375
  674TIP3    H2 2029   0.706   3.967   3.453
  675TIP3   OH2 2030   6.031   1.421   1.486
  675TIP3    H1 2031   5.952   1.429   1.432
  675TIP3    H2 2032   6.024   1.333   1.523
  676TIP3   OH2 2033   3.742   4.087   1.587
  676TIP3    H1 2034   3.777   4.166   1.547
  676TIP3    H2 2035   3.659   4.072   1.542
  677TIP3   OH2 2036   5.162   5.873   1.250
  677TIP3    H1 2037   5.206   5.849   1.168
  677TIP3    H2 2038   5.214   5.830   1.318
  678TIP3   OH2 2039   2.145   2.188   0.411
  678TIP3    H1 2040   2.169   2.095   0.406
  678TIP3    H2 2041   2.129   2.213   0.320
  679TIP3   OH2 2042   1.062   3.849   4.250
  679TIP3    H1 2043   1.027   3.851   4.338
  679TIP3    H2 2044   1.135   3.787   4.254
  680TIP3   OH2 2045   5.829   2.168   2.430
  680TIP3    H1 2046   5.748   2.210   2.401
  680TIP3    H2 2047   5.853   2.215   2.509
  681TIP3   OH2 2048   2.843   0.797   3.494
  681TIP3    H1 2049   2.907   0.797   3.423
  681TIP3    H2 2050   2.893   0.822   3.571
  682TIP3   OH2 2051   4.795   0.872   0.084
  682TIP3    H1 2052   4.798   0.776   0.088
  682TIP3    H2 2053   4.832   0.893  -0.001
  683TIP3   OH2 2054   2.048   2.190   3.581
  683TIP3    H1 2055   2.102   2.181   3.503
  683TIP3    H2 2056   2.014   2.102   3.598
  684TIP3   OH2 2057   1.958   3.439   1.692
  684TIP3    H1 2058   1.899   3.483   1.753
  684TIP3    H2 2059   1.907   3.364   1.660
  685TIP3   OH2 2060   0.125   4.130   3.275
  685TIP3    H1 2061   0.031   4.111   3.285
  685TIP3    H2 2062   0.128   4.208   3.221
  686TIP3   OH2 2063   3.263   5.233   3.095
  686TIP3    H1 2064   3.319   5.192   3.030
  686TIP3    H2 2065   3.191   5.271   3.045
  687TIP3   OH2 2066   1.549   4.123   0.922
  687TIP3    H1 2067   1.628   4.090   0.966
  687TIP3    H2 2068   1.478   4.068   0.957
  688TIP3   OH2 2069   5.414   3.405   3.573
  688TIP3    H1 2070   5.488   3.404   3.633
  688TIP3    H2 2071   5.387   3.497   3.571
  689TIP3   OH2 2072   1.830   1.205   2.264
  689TIP3    H1 2073   1.799   1.209   2.354
  689TIP3    H2 2074   1.841   1.112   2.246
  690TIP3   OH2 2075   4.518   5.108   2.375
  690TIP3    H1 2076   4.498   5.068   2.290
  690TIP3    H2 2077   4.593   5.165   2.357
  691TIP3   OH2 2078   2.787   1.027   3.910
  691TIP3    H1 2079   2.824   1.112   3.935
  691TIP3    H2 2080   2.735   1.044   3.832
  692TIP3   OH2 2081   1.982   3.836   2.809
  692TIP3    H1 2082   1.945   3.924   2.797
  692TIP3    H2 2083   2.033   3.843   2.889
  693TIP3   OH2 2084   5.797   5.138   2.248
  693TIP3    H1 2085   5.863   5.134   2.178
  693TIP3    H2 2086   5.730   5.198   2.214
  694TIP3   OH2 2087   6.214   1.809   2.978
  694TIP3    H1 2088   6.272   1.748   3.025
  694TIP3    H2 2089   6.241   1.896   3.007
  695TIP3   OH2 2090   1.485   0.207   2.349
  695TIP3    H1 2091   1.454   0.132   2.299
  695TIP3    H2 2092   1.405   0.252   2.376
  696TIP3   OH2 2093   5.657   5.000   1.762
  696TIP3    H1 2094   5.638   4.962   1.677
  696TIP3    H2 2095   5.672   4.925   1.820
  697TIP3   OH2 2096   2.897   3.727   3.416
  697TIP3    H1 2097   2.922   3.676   3.339
  697TIP3    H2 2098   2.926   3.673   3.490
  698TIP3   OH2 2099   3.675   0.908   3.626
  698TIP3    H1 2100   3.766   0.922   3.651
  698TIP3    H2 2101   3.634   0.871   3.704
  699TIP3   OH2 2102   4.131   1.989   4.824
  699TIP3    H1 2103   4.086   1.939   4.893
  699TIP3    H2 2104   4.070   2.060   4.803
  700TIP3   OH2 2105   0.054   4.959   2.264
  700TIP3    H1 2106   0.090   5.022   2.326
  700TIP3    H2 2107  -0.002   4.902   2.317
  701TIP3   OH2 2108   6.271   4.351   1.606
  701TIP3    H1 2109   6.355   4.387   1.634
  701TIP3    H2 2110   6.206   4.397   1.660
  702TIP3   OH2 2111   4.481   0.221   3.036
  702TIP3    H1 2112   4.491   0.161   2.962
  702TIP3    H2 2113   4.392   0.204   3.068
  703TIP3   OH2 2114   3.509   5.173   3.798
  703TIP3    H1 2115   3.516   5.256   3.751
  703TIP3    H2 2116   3.599   5.143   3.808
  704TIP3   OH2 2117   5.279   0.346   0.109
  704TIP3    H1 2118   5.275   0.428   0.060
  704TIP3    H2 2119   5.272   0.278   0.043
  705TIP3   OH2 2120   3.933   3.347   4.584
  705TIP3    H1 2121   3.901   3.281   4.522
  705TIP3    H2 2122   3.855   3.399   4.606
  706TIP3   OH2 2123   0.005   2.259   1.062
  706TIP3    H1 2124   0.020   2.168   1.036
  706TIP3    H2 2125   0.043   2.311   0.992
  707TIP3   OH2 2126   4.738   4.763   0.764
  707TIP3    H1 2127   4.724   4.798   0.852
  707TIP3    H2 2128   4.833   4.764   0.752
  708TIP3   OH2 2129   4.353   2.351   1.613
  708TIP3    H1 2130   4.281   2.366   1.551
  708TIP3    H2 2131   4.416   2.299   1.565
  709TIP3   OH2 2132   6.076   1.046   4.948
  709TIP3    H1 2133   6.155   0.997   4.925
  709TIP3    H2 2134   6.027   0.987   5.005
  710TIP3   OH2 2135   1.292   0.707   1.436
  710TIP3    H1 2136   1.332   0.756   1.508
  710TIP3    H2 2137   1.366   0.666   1.391
  711TIP3   OH2 2138   4.694   4.894   2.894
  711TIP3    H1 2139   4.669   4.808   2.929
  711TIP3    H2 2140   4.635   4.956   2.936
  712TIP3   OH2 2141   5.346   1.419   1.227
  712TIP3    H1 2142   5.291   1.376   1.161
  712TIP3    H2 2143   5.317   1.381   1.310
  713TIP3   OH2 2144   1.742   4.494   4.866
  713TIP3    H1 2145   1.818   4.513   4.920
  713TIP3    H2 2146   1.672   4.475   4.928
  714TIP3   OH2 2147   2.797   4.406   2.706
  714TIP3    H1 2148   2.826   4.329   2.657
  714TIP3    H2 2149   2.859   4.475   2.681
  715TIP3   OH2 2150   1.288   5.451   1.217
  715TIP3    H1 2151   1.228   5.490   1.153
  715TIP3    H2 2152   1.363   5.422   1.165
  716TIP3   OH2 2153   2.739   0.325   4.302
  716TIP3    H1 2154   2.713   0.244   4.258
  716TIP3    H2 2155   2.673   0.337   4.371
  717TIP3   OH2 2156   2.333   1.737   4.537
  717TIP3    H1 2157   2.337   1.654   4.490
  717TIP3    H2 2158   2.322   1.712   4.629
  718TIP3   OH2 2159   2.286   3.033   4.878
  718TIP3    H1 2160   2.347   2.967   4.845
  718TIP3    H2 2161   2.325   3.061   4.961
  719TIP3   OH2 2162   6.095   4.363   0.682
  719TIP3    H1 2163   6.081   4.450   0.646
  719TIP3    H2 2164   6.144   4.316   0.615
  720TIP3   OH2 2165   3.859   2.504   2.114
  720TIP3    H1 2166   3.821   2.425   2.153
  720TIP3    H2 2167   3.935   2.472   2.065
  721TIP3   OH2 2168   1.284   4.223   0.462
  721TIP3    H1 2169   1.295   4.128   0.456
  721TIP3    H2 2170   1.192   4.236   0.481
  722TIP3   OH2 2171   1.109   5.128   0.799
  722TIP3    H1 2172   1.078   5.205   0.847
  722TIP3    H2 2173   1.039   5.063   0.809
  723TIP3   OH2 2174   2.266   0.210   3.164
  723TIP3    H1 2175   2.345   0.247   3.125
  723TIP3    H2 2176   2.295   0.173   3.247
  724TIP3   OH2 2177   2.180   5.542   1.895
  724TIP3    H1 2178   2.089   5.515   1.901
  724TIP3    H2 2179   2.212   5.541   1.985
  725TIP3   OH2 2180   1.165   4.830   4.633
  725TIP3    H1 2181   1.242   4.809   4.580
  725TIP3    H2 2182   1.096   4.850   4.570
  726TIP3   OH2 2183   4.871   1.544   1.512
  726TIP3    H1 2184   4.829   1.607   1.453
  726TIP3    H2 2185   4.908   1.478   1.454
  727TIP3   OH2 2186   3.260   4.482   2.458
  727TIP3    H1 2187   3.255   4.390   2.432
  727TIP3    H2 2188   3.349   4.509   2.435
  728TIP3   OH2 2189   4.815   2.788   1.217
  728TIP3    H1 2190   4.880   2.841   1.263
  728TIP3    H2 2191   4.801   2.713   1.274
  729TIP3   OH2 2192   1.332   0.943   2.964
  729TIP3    H1 2193   1.301   0.995   2.890
  729TIP3    H2 2194   1.315   0.997   3.041
  730TIP3   OH2 2195   6.065   5.262   1.108
  730TIP3    H1 2196   6.146   5.211   1.101
  730TIP3    H2 2197   5.995   5.198   1.097
  731TIP3   OH2 2198   3.266   3.418   2.975
  731TIP3    H1 2199   3.354   3.454   2.983
  731TIP3    H2 2200   3.208   3.494   2.976
  732TIP3   OH2 2201   1.967   0.416   4.636
  732TIP3    H1 2202   1.936   0.472   4.565
  732TIP3    H2 2203   2.038   0.365   4.597
  733TIP3   OH2 2204   0.040   4.156   0.794
  733TIP3    H1 2205  -0.007   4.159   0.878
  733TIP3    H2 2206   0.082   4.242   0.788
  734TIP3   OH2 2207   6.175   0.351   3.944
  734TIP3    H1 2208   6.141   0.277   3.994
  734TIP3    H2 2209   6.135   0.341   3.857
  735TIP3   OH2 2210   4.834   2.619   1.674
  735TIP3    H1 2211   4.883   2.574   1.742
  735TIP3    H2 2212   4.867   2.709   1.676
  736TIP3   OH2 2213   0.293   2.062   0.932
  736TIP3    H1 2214   0.248   2.117   0.868
  736TIP3    H2 2215   0.386   2.076   0.913
  737TIP3   OH2 2216   3.917   4.739   4.536
  737TIP3    H1 2217   3.832   4.733   4.493
  737TIP3    H2 2218   3.956   4.819   4.502
  738TIP3   OH2 2219   4.182   1.579   2.318
  738TIP3    H1 2220   4.257   1.631   2.347
  738TIP3    H2 2221   4.205   1.552   2.229
  739TIP3   OH2 2222   2.272   0.345   4.289
  739TIP3    H1 2223   2.215   0.399   4.234
  739TIP3    H2 2224   2.359   0.356   4.251
  740TIP3   OH2 2225   4.740   5.567   0.141
  740TIP3    H1 2226   4.827   5.530   0.129
  740TIP3    H2 2227   4.744   5.653   0.099
  741TIP3   OH2 2228   4.450   2.422   1.032
  741TIP3    H1 2229   4.385   2.353   1.020
  741TIP3    H2 2230   4.478   2.445   0.943
  742TIP3   OH2 2231   1.954   5.668   5.021
  742TIP3    H1 2232   1.880   5.722   5.049
  742TIP3    H2 2233   1.947   5.588   5.073
  743TIP3   OH2 2234   6.121   2.315   2.569
  743TIP3    H1 2235   6.112   2.368   2.490
  743TIP3    H2 2236   6.173   2.240   2.541
  744TIP3   OH2 2237   3.369   3.820   0.205
  744TIP3    H1 2238   3.345   3.741   0.156
  744TIP3    H2 2239   3.289   3.846   0.249
  745TIP3   OH2 2240   0.561   1.342   1.886
  745TIP3    H1 2241   0.528   1.263   1.928
  745TIP3    H2 2242   0.615   1.310   1.814
  746TIP3   OH2 2243   4.449   1.378   3.493
  746TIP3    H1 2244   4.473   1.306   3.434
  746TIP3    H2 2245   4.366   1.351   3.532
  747TIP3   OH2 2246   2.340   0.246   1.008
  747TIP3    H1 2247   2.383   0.170   0.970
  747TIP3    H2 2248   2.254   0.249   0.965
  748TIP3   OH2 2249   3.991   5.560   0.565
  748TIP3    H1 2250   3.922   5.493   0.561
  748TIP3    H2 2251   3.998   5.581   0.658
  749TIP3   OH2 2252   3.077   5.065   3.184
  749TIP3    H1 2253   3.142   4.996   3.173
  749TIP3    H2 2254   3.125   5.147   3.176
  750TIP3   OH2 2255   2.318   3.214   4.684
  750TIP3    H1 2256   2.305   3.148   4.753
  750TIP3    H2 2257   2.362   3.166   4.613
  751TIP3   OH2 2258   0.362   4.455   2.457
  751TIP3    H1 2259   0.379   4.387   2.522
  751TIP3    H2 2260   0.322   4.410   2.384
  752TIP3   OH2 2261   2.849   2.469   5.214
  752TIP3    H1 2262   2.801   2.503   5.138
  752TIP3    H2 2263   2.846   2.374   5.203
  753TIP3   OH2 2264   2.543   2.637   2.920
  753TIP3    H1 2265   2.549   2.541   2.919
  753TIP3    H2 2266   2.483   2.657   2.849
  754TIP3   OH2 2267   2.671   1.836   2.164
  754TIP3    H1 2268   2.742   1.788   2.207
  754TIP3    H2 2269   2.715   1.905   2.116
  755TIP3   OH2 2270   3.563   2.611   3.475
  755TIP3    H1 2271   3.489   2.594   3.417
  755TIP3    H2 2272   3.622   2.538   3.462
  756TIP3   OH2 2273   1.499   0.549   1.355
  756TIP3    H1 2274   1.506   0.590   1.269
  756TIP3    H2 2275   1.581   0.501   1.366
  757TIP3   OH2 2276   2.825   2.606  -0.031
  757TIP3    H1 2277   2.777   2.654  -0.098
  757TIP3    H2 2278   2.756   2.573   0.028
  758TIP3   OH2 2279   4.487   5.590   2.856
  758TIP3    H1 2280   4.417   5.564   2.795
  758TIP3    H2 2281   4.557   5.527   2.839
  759TIP3   OH2 2282   5.015   5.009   3.316
  759TIP3    H1 2283   4.992   4.919   3.291
  759TIP3    H2 2284   5.014   5.058   3.233
  760TIP3   OH2 2285   5.979   4.816   3.209
  760TIP3    H1 2286   5.973   4.907   3.238
  760TIP3    H2 2287   6.051   4.779   3.261
  761TIP3   OH2 2288   0.529   2.329   2.580
  761TIP3    H1 2289   0.473   2.256   2.606
  761TIP3    H2 2290   0.574   2.299   2.502
  762TIP3   OH2 2291   1.364   3.194   0.381
  762TIP3    H1 2292   1.426   3.137   0.426
  762TIP3    H2 2293   1.336   3.145   0.305
  763TIP3   OH2 2294   1.576   1.163   3.350
  763TIP3    H1 2295   1.641   1.093   3.342
  763TIP3    H2 2296   1.572   1.202   3.263
  764TIP3   OH2 2297   0.396   4.234   2.648
  764TIP3    H1 2298   0.463   4.190   2.596
  764TIP3    H2 2299   0.359   4.165   2.703
  765TIP3   OH2 2300   1.894   0.598   3.781
  765TIP3    H1 2301   1.903   0.672   3.721
  765TIP3    H2 2302   1.974   0.547   3.769
  766TIP3   OH2 2303   1.164   1.004   2.638
  766TIP3    H1 2304   1.238   0.943   2.640
  766TIP3    H2 2305   1.198   1.082   2.594
  767TIP3   OH2 2306   5.914   2.697   2.609
  767TIP3    H1 2307   5.868   2.629   2.559
  767TIP3    H2 2308   5.891   2.679   2.701
  768TIP3   OH2 2309   3.615   5.209   0.326
  768TIP3    H1 2310   3.604   5.183   0.417
  768TIP3    H2 2311   3.638   5.128   0.280
  769TIP3   OH2 2312   5.122   4.059   3.090
  769TIP3    H1 2313   5.107   3.995   3.020
  769TIP3    H2 2314   5.049   4.121   3.081
  770TIP3   OH2 2315   1.569   1.628   4.189
  770TIP3    H1 2316   1.517   1.585   4.121
  770TIP3    H2 2317   1.644   1.569   4.201
  771TIP3   OH2 2318   3.249   0.149   4.421
  771TIP3    H1 2319   3.302   0.165   4.342
  771TIP3    H2 2320   3.159   0.152   4.390
  772TIP3   OH2 2321   3.653   3.333   3.309
  772TIP3    H1 2322   3.580   3.274   3.327
  772TIP3    H2 2323   3.638   3.408   3.366
  773TIP3   OH2 2324   0.092   2.603   4.353
  773TIP3    H1 2325   0.119   2.639   4.438
  773TIP3    H2 2326   0.024   2.663   4.322
  774TIP3   OH2 2327   1.235   2.311   0.821
  774TIP3    H1 2328   1.258   2.382   0.762
  774TIP3    H2 2329   1.309   2.305   0.882
  775TIP3   OH2 2330   5.432   5.530   2.341
  775TIP3    H1 2331   5.432   5.625   2.336
  775TIP3    H2 2332   5.449   5.512   2.434
  776TIP3   OH2 2333   2.656   5.201   2.212
  776TIP3    H1 2334   2.597   5.170   2.281
  776TIP3    H2 2335   2.703   5.275   2.251
  777TIP3   OH2 2336   1.452   2.959   3.132
  777TIP3    H1 2337   1.381   3.015   3.164
  777TIP3    H2 2338   1.512   2.951   3.206
  778TIP3   OH2 2339   0.421   0.314   1.049
  778TIP3    H1 2340   0.483   0.322   1.121
  778TIP3    H2 2341   0.471   0.335   0.971
  779TIP3   OH2 2342   6.132   5.695   4.163
  779TIP3    H1 2343   6.139   5.753   4.087
  779TIP3    H2 2344   6.037   5.684   4.176
  780TIP3   OH2 2345   5.786   5.003   1.041
  780TIP3    H1 2346   5.708   5.012   0.986
  780TIP3    H2 2347   5.789   4.910   1.063
  781TIP3   OH2 2348   0.680   5.226   2.549
  781TIP3    H1 2349   0.705   5.209   2.458
  781TIP3    H2 2350   0.732   5.164   2.600
  782TIP3   OH2 2351   2.338   0.570   3.861
  782TIP3    H1 2352   2.413   0.607   3.907
  782TIP3    H2 2353   2.291   0.645   3.825
  783TIP3   OH2 2354   0.914   3.221   2.139
  783TIP3    H1 2355   0.945   3.133   2.160
  783TIP3    H2 2356   0.981   3.256   2.080
  784TIP3   OH2 2357   4.641   1.883   1.195
  784TIP3    H1 2358   4.625   1.951   1.130
  784TIP3    H2 2359   4.565   1.825   1.190
  785TIP3   OH2 2360   5.906   5.167   0.507
  785TIP3    H1 2361   5.828   5.223   0.506
  785TIP3    H2 2362   5.878   5.087   0.551
  786TIP3   OH2 2363   0.984   1.902   1.653
  786TIP3    H1 2364   0.967   1.995   1.642
  786TIP3    H2 2365   1.063   1.899   1.708
  787TIP3   OH2 2366   0.983   2.122   0.310
  787TIP3    H1 2367   1.001   2.107   0.217
  787TIP3    H2 2368   1.056   2.175   0.340
  788TIP3   OH2 2369   2.085   1.811   0.065
  788TIP3    H1 2370   2.014   1.759   0.101
  788TIP3    H2 2371   2.116   1.759  -0.010
  789TIP3   OH2 2372   1.447   2.108   2.939
  789TIP3    H1 2373   1.363   2.067   2.920
  789TIP3    H2 2374   1.424   2.190   2.983
  790TIP3   OH2 2375   1.023   4.634   4.208
  790TIP3    H1 2376   0.943   4.583   4.203
  790TIP3    H2 2377   1.089   4.580   4.165
  791TIP3   OH2 2378   3.876   5.800   4.441
  791TIP3    H1 2379   3.962   5.768   4.470
  791TIP3    H2 2380   3.875   5.892   4.467
  792TIP3   OH2 2381   5.729   2.163   3.241
  792TIP3    H1 2382   5.711   2.242   3.292
  792TIP3    H2 2383   5.646   2.142   3.199
  793TIP3   OH2 2384   4.285   5.831   3.407
  793TIP3    H1 2385   4.248   5.856   3.323
  793TIP3    H2 2386   4.210   5.805   3.460
  794TIP3   OH2 2387   0.135   5.561   2.703
  794TIP3    H1 2388   0.161   5.474   2.734
  794TIP3    H2 2389   0.039   5.560   2.709
  795TIP3   OH2 2390   4.367   4.528   4.897
  795TIP3    H1 2391   4.331   4.609   4.860
  795TIP3    H2 2392   4.441   4.506   4.840
  796TIP3   OH2 2393   5.237   2.116   3.699
  796TIP3    H1 2394   5.197   2.194   3.736
  796TIP3    H2 2395   5.308   2.094   3.760
  797TIP3   OH2 2396   1.590   5.133   3.642
  797TIP3    H1 2397   1.595   5.201   3.575
  797TIP3    H2 2398   1.558   5.055   3.595
  798TIP3   OH2 2399   3.836   4.751   4.820
  798TIP3    H1 2400   3.762   4.787   4.771
  798TIP3    H2 2401   3.811   4.761   4.912
  799TIP3   OH2 2402   3.362   4.674   1.902
  799TIP3    H1 2403   3.353   4.763   1.868
  799TIP3    H2 2404   3.444   4.643   1.864
  800TIP3   OH2 2405   3.118   1.337   5.005
  800TIP3    H1 2406   3.088   1.415   4.959
  800TIP3    H2 2407   3.064   1.335   5.085
  801TIP3   OH2 2408   4.159   5.065   2.959
  801TIP3    H1 2409   4.086   5.013   2.992
  801TIP3    H2 2410   4.214   5.003   2.912
  802TIP3   OH2 2411   5.824   2.166   0.615
  802TIP3    H1 2412   5.865   2.194   0.533
  802TIP3    H2 2413   5.891   2.181   0.682
  803TIP3   OH2 2414   2.769   3.623   3.721
  803TIP3    H1 2415   2.774   3.644   3.815
  803TIP3    H2 2416   2.834   3.555   3.708
  804TIP3   OH2 2417   5.276   4.502   0.118
  804TIP3    H1 2418   5.190   4.524   0.082
  804TIP3    H2 2419   5.256   4.450   0.196
  805TIP3   OH2 2420   3.269   0.006   0.894
  805TIP3    H1 2421   3.226   0.009   0.979
  805TIP3    H2 2422   3.268   0.097   0.864
  806TIP3   OH2 2423   5.434   3.274   2.043
  806TIP3    H1 2424   5.505   3.336   2.062
  806TIP3    H2 2425   5.360   3.329   2.019
  807TIP3   OH2 2426   4.740   1.481   3.073
  807TIP3    H1 2427   4.652   1.450   3.095
  807TIP3    H2 2428   4.770   1.528   3.151
  808TIP3   OH2 2429   0.115   0.269   0.630
  808TIP3    H1 2430   0.162   0.349   0.609
  808TIP3    H2 2431   0.077   0.241   0.547
  809TIP3   OH2 2432   0.077   0.888   2.752
  809TIP3    H1 2433   0.091   0.930   2.837
  809TIP3    H2 2434  -0.010   0.917   2.725
  810TIP3   OH2 2435   3.920   0.105   1.312
  810TIP3    H1 2436   3.942   0.197   1.330
  810TIP3    H2 2437   3.939   0.059   1.394
  811TIP3   OH2 2438   2.410   0.806   5.135
  811TIP3    H1 2439   2.322   0.769   5.124
  811TIP3    H2 2440   2.424   0.808   5.229
  812TIP3   OH2 2441   1.942   3.914   3.086
  812TIP3    H1 2442   1.970   3.923   3.177
  812TIP3    H2 2443   1.973   3.994   3.043
  813TIP3   OH2 2444   3.648   0.219   2.541
  813TIP3    H1 2445   3.619   0.135   2.505
  813TIP3    H2 2446   3.682   0.197   2.628
  814TIP3   OH2 2447   3.079   3.070   3.031
  814TIP3    H1 2448   3.068   3.042   3.121
  814TIP3    H2 2449   3.173   3.085   3.021
  815TIP3   OH2 2450   5.852   0.489   0.463
  815TIP3    H1 2451   5.929   0.473   0.516
  815TIP3    H2 2452   5.781   0.444   0.509
  816TIP3   OH2 2453   5.092   2.358   3.783
  816TIP3    H1 2454   5.063   2.315   3.864
  816TIP3    H2 2455   5.106   2.450   3.809
  817TIP3   OH2 2456   2.964   0.885   1.602
  817TIP3    H1 2457   3.058   0.872   1.607
  817TIP3    H2 2458   2.942   0.874   1.510
  818TIP3   OH2 2459   1.369   2.546   4.004
  818TIP3    H1 2460   1.279   2.515   3.989
  818TIP3    H2 2461   1.359   2.627   4.053
  819TIP3   OH2 2462   3.207   1.590   0.414
  819TIP3    H1 2463   3.138   1.614   0.476
  819TIP3    H2 2464   3.289   1.603   0.463
  820TIP3   OH2 2465   5.903   2.884   2.866
  820TIP3    H1 2466   5.988   2.925   2.854
  820TIP3    H2 2467   5.918   2.815   2.930
  821TIP3   OH2 2468   5.825   0.457   3.465
  821TIP3    H1 2469   5.907   0.466   3.514
  821TIP3    H2 2470   5.780   0.541   3.478
  822TIP3   OH2 2471   0.494   0.960   0.900
  822TIP3    H1 2472   0.440   0.922   0.831
  822TIP3    H2 2473   0.531   0.885   0.946
  823TIP3   OH2 2474   5.861   5.700   4.071
  823TIP3    H1 2475   5.862   5.774   4.132
  823TIP3    H2 2476   5.785   5.648   4.098
  824TIP3   OH2 2477   4.121   0.767   2.247
  824TIP3    H1 2478   4.128   0.858   2.276
  824TIP3    H2 2479   4.134   0.772   2.152
  825TIP3   OH2 2480   2.601   2.678   4.366
  825TIP3    H1 2481   2.526   2.689   4.424
  825TIP3    H2 2482   2.564   2.648   4.283
  826TIP3   OH2 2483   3.067   0.492   0.658
  826TIP3    H1 2484   3.145   0.516   0.607
  826TIP3    H2 2485   3.052   0.567   0.715
  827TIP3   OH2 2486   2.223   1.927   0.434
  827TIP3    H1 2487   2.257   1.867   0.368
  827TIP3    H2 2488   2.291   1.929   0.501
  828TIP3   OH2 2489   3.222   4.247   1.510
  828TIP3    H1 2490   3.159   4.257   1.581
  828TIP3    H2 2491   3.269   4.331   1.508
  829TIP3   OH2 2492   1.822   2.848   0.851
  829TIP3    H1 2493   1.773   2.906   0.908
  829TIP3    H2 2494   1.764   2.773   0.837
  830TIP3   OH2 2495   5.490   2.107   4.470
  830TIP3    H1 2496   5.428   2.180   4.469
  830TIP3    H2 2497   5.462   2.052   4.544
  831TIP3   OH2 2498   1.568   2.221   4.752
  831TIP3    H1 2499   1.490   2.235   4.698
  831TIP3    H2 2500   1.630   2.177   4.694
  832TIP3   OH2 2501   6.353   4.380   5.093
  832TIP3    H1 2502   6.260   4.390   5.113
  832TIP3    H2 2503   6.375   4.457   5.040
  833TIP3   OH2 2504   3.376   5.644   1.725
  833TIP3    H1 2505   3.405   5.643   1.634
  833TIP3    H2 2506   3.450   5.680   1.774
  834TIP3   OH2 2507   6.301   3.650   4.659
  834TIP3    H1 2508   6.285   3.692   4.743
  834TIP3    H2 2509   6.305   3.556   4.679
  835TIP3   OH2 2510   6.205   2.282   4.182
  835TIP3    H1 2511   6.241   2.231   4.110
  835TIP3    H2 2512   6.166   2.359   4.140
  836TIP3   OH2 2513   0.365   1.839   2.471
  836TIP3    H1 2514   0.437   1.816   2.529
  836TIP3    H2 2515   0.371   1.778   2.398
  837TIP3   OH2 2516   0.496   2.417   1.836
  837TIP3    H1 2517   0.422   2.386   1.784
  837TIP3    H2 2518   0.513   2.505   1.804
  838TIP3   OH2 2519   0.340   1.666   3.205
  838TIP3    H1 2520   0.319   1.736   3.143
  838TIP3    H2 2521   0.340   1.709   3.291
  839TIP3   OH2 2522   4.480   1.822   3.653
  839TIP3    H1 2523   4.461   1.880   3.579
  839TIP3    H2 2524   4.396   1.780   3.673
  840TIP3   OH2 2525   4.591   0.067   3.281
  840TIP3    H1 2526   4.684   0.086   3.290
  840TIP3    H2 2527   4.563   0.118   3.205
  841TIP3   OH2 2528   5.642   1.401   0.219
  841TIP3    H1 2529   5.638   1.495   0.207
  841TIP3    H2 2530   5.711   1.371   0.160
  842TIP3   OH2 2531   5.636   0.359   0.594
  842TIP3    H1 2532   5.627   0.448   0.629
  842TIP3    H2 2533   5.639   0.303   0.671
  843TIP3   OH2 2534   4.313   0.173   3.664
  843TIP3    H1 2535   4.409   0.174   3.669
  843TIP3    H2 2536   4.289   0.082   3.683
  844TIP3   OH2 2537   1.557   0.974   0.254
  844TIP3    H1 2538   1.478   1.015   0.218
  844TIP3    H2 2539   1.527   0.929   0.333
  845TIP3   OH2 2540   1.085   3.971   2.626
  845TIP3    H1 2541   1.018   4.039   2.635
  845TIP3    H2 2542   1.111   3.951   2.716
  846TIP3   OH2 2543   1.742   5.492   0.505
  846TIP3    H1 2544   1.831   5.506   0.539
  846TIP3    H2 2545   1.700   5.438   0.571
  847TIP3   OH2 2546   3.175   3.539   1.829
  847TIP3    H1 2547   3.227   3.511   1.754
  847TIP3    H2 2548   3.183   3.634   1.830
  848TIP3   OH2 2549   1.207   4.319   1.450
  848TIP3    H1 2550   1.204   4.326   1.355
  848TIP3    H2 2551   1.291   4.356   1.475
  849TIP3   OH2 2552   5.495   2.799   2.244
  849TIP3    H1 2553   5.500   2.895   2.247
  849TIP3    H2 2554   5.456   2.775   2.328
  850TIP3   OH2 2555   1.698   3.307   1.913
  850TIP3    H1 2556   1.617   3.340   1.953
  850TIP3    H2 2557   1.728   3.240   1.974
  851TIP3   OH2 2558   4.786   1.786   0.128
  851TIP3    H1 2559   4.734   1.706   0.119
  851TIP3    H2 2560   4.723   1.857   0.115
  852TIP3   OH2 2561   4.462   0.149   0.436
  852TIP3    H1 2562   4.476   0.066   0.483
  852TIP3    H2 2563   4.394   0.128   0.372
  853TIP3   OH2 2564   1.616   1.587   2.034
  853TIP3    H1 2565   1.693   1.569   2.088
  853TIP3    H2 2566   1.554   1.518   2.059
  854TIP3   OH2 2567   6.260   4.429   0.280
  854TIP3    H1 2568   6.301   4.455   0.198
  854TIP3    H2 2569   6.166   4.431   0.261
  855TIP3   OH2 2570   3.908   1.973   1.166
  855TIP3    H1 2571   3.973   2.031   1.125
  855TIP3    H2 2572   3.961   1.905   1.209
  856TIP3   OH2 2573   3.992   0.248   2.761
  856TIP3    H1 2574   3.917   0.204   2.801
  856TIP3    H2 2575   3.954   0.322   2.714
  857TIP3   OH2 2576   6.404   3.673   2.308
  857TIP3    H1 2577   6.366   3.729   2.376
  857TIP3    H2 2578   6.363   3.703   2.227
  858TIP3   OH2 2579   4.693   3.408   0.802
  858TIP3    H1 2580   4.787   3.387   0.800
  858TIP3    H2 2581   4.675   3.444   0.715
  859TIP3   OH2 2582   1.173   0.006   1.580
  859TIP3    H1 2583   1.171   0.009   1.485
  859TIP3    H2 2584   1.232  -0.067   1.601
  860TIP3   OH2 2585   1.147   2.130   4.531
  860TIP3    H1 2586   1.128   2.082   4.450
  860TIP3    H2 2587   1.231   2.173   4.515
  861TIP3   OH2 2588   0.565   3.755   1.884
  861TIP3    H1 2589   0.513   3.817   1.934
  861TIP3    H2 2590   0.526   3.670   1.904
  862TIP3   OH2 2591   6.230   3.186   2.491
  862TIP3    H1 2592   6.264   3.263   2.445
  862TIP3    H2 2593   6.156   3.158   2.437
  863TIP3   OH2 2594   2.183   3.661   4.020
  863TIP3    H1 2595   2.242   3.592   4.052
  863TIP3    H2 2596   2.235   3.741   4.027
  864TIP3   OH2 2597   5.980   4.264   0.074
  864TIP3    H1 2598   5.984   4.194   0.139
  864TIP3    H2 2599   6.008   4.342   0.122
  865TIP3   OH2 2600   1.337   1.884   3.941
  865TIP3    H1 2601   1.251   1.926   3.932
  865TIP3    H2 2602   1.357   1.852   3.853
  866TIP3   OH2 2603   3.795   3.167   3.100
  866TIP3    H1 2604   3.779   3.219   3.178
  866TIP3    H2 2605   3.768   3.223   3.028
  867TIP3   OH2 2606   5.320   3.894   3.753
  867TIP3    H1 2607   5.333   3.891   3.658
  867TIP3    H2 2608   5.392   3.842   3.789
  868TIP3   OH2 2609   2.963   4.156   4.925
  868TIP3    H1 2610   2.924   4.151   4.838
  868TIP3    H2 2611   2.940   4.073   4.967
  869TIP3   OH2 2612   5.877   1.419   3.951
  869TIP3    H1 2613   5.942   1.364   3.993
  869TIP3    H2 2614   5.918   1.447   3.869
  870TIP3   OH2 2615   5.462   3.508   1.468
  870TIP3    H1 2616   5.535   3.489   1.526
  870TIP3    H2 2617   5.478   3.597   1.437
  871TIP3   OH2 2618   1.076   1.061   1.051
  871TIP3    H1 2619   1.034   1.091   0.970
  871TIP3    H2 2620   1.054   1.128   1.116
  872TIP3   OH2 2621   0.996   3.696   0.779
  872TIP3    H1 2622   0.936   3.653   0.840
  872TIP3    H2 2623   1.005   3.634   0.706
  873TIP3   OH2 2624   2.192   4.358   4.186
  873TIP3    H1 2625   2.212   4.316   4.269
  873TIP3    H2 2626   2.274   4.355   4.137
  874TIP3   OH2 2627   0.117   0.058   2.687
  874TIP3    H1 2628   0.065  -0.013   2.725
  874TIP3    H2 2629   0.096   0.055   2.594
  875TIP3   OH2 2630   0.904   5.757   1.477
  875TIP3    H1 2631   0.828   5.711   1.440
  875TIP3    H2 2632   0.878   5.849   1.481
  876TIP3   OH2 2633   6.181   0.405   4.355
  876TIP3    H1 2634   6.178   0.313   4.383
  876TIP3    H2 2635   6.245   0.406   4.284
  877TIP3   OH2 2636   3.698   3.210   0.674
  877TIP3    H1 2637   3.624   3.270   0.689
  877TIP3    H2 2638   3.686   3.141   0.738
  878TIP3   OH2 2639   1.556   5.375   3.494
  878TIP3    H1 2640   1.467   5.366   3.528
  878TIP3    H2 2641   1.582   5.464   3.517
  879TIP3   OH2 2642   5.674   3.860   2.127
  879TIP3    H1 2643   5.651   3.936   2.073
  879TIP3    H2 2644   5.744   3.891   2.184
  880TIP3   OH2 2645   1.450   0.716   4.103
  880TIP3    H1 2646   1.416   0.645   4.158
  880TIP3    H2 2647   1.408   0.701   4.018
  881TIP3   OH2 2648   0.728   4.408   4.850
  881TIP3    H1 2649   0.651   4.448   4.892
  881TIP3    H2 2650   0.699   4.386   4.762
  882TIP3   OH2 2651   4.049   1.268   2.598
  882TIP3    H1 2652   4.026   1.267   2.505
  882TIP3    H2 2653   3.999   1.196   2.635
  883TIP3   OH2 2654   5.007   5.203  -0.009
  883TIP3    H1 2655   5.017   5.134  -0.074
  883TIP3    H2 2656   5.096   5.224   0.018
  884TIP3   OH2 2657   3.542   2.726   4.034
  884TIP3    H1 2658   3.505   2.646   3.997
  884TIP3    H2 2659   3.498   2.797   3.987
  885TIP3   OH2 2660   2.190   2.261   4.154
  885TIP3    H1 2661   2.095   2.269   4.162
  885TIP3    H2 2662   2.214   2.322   4.085
  886TIP3   OH2 2663   1.811   0.602   0.620
  886TIP3    H1 2664   1.891   0.640   0.658
  886TIP3    H2 2665   1.740   0.650   0.662
  887TIP3   OH2 2666   2.653   1.946   2.559
  887TIP3    H1 2667   2.742   1.974   2.576
  887TIP3    H2 2668   2.621   1.914   2.644
  888TIP3   OH2 2669   4.170   4.248   2.551
  888TIP3    H1 2670   4.159   4.206   2.466
  888TIP3    H2 2671   4.090   4.227   2.599
  889TIP3   OH2 2672   1.701   4.553   3.985
  889TIP3    H1 2673   1.717   4.639   4.024
  889TIP3    H2 2674   1.606   4.545   3.983
  890TIP3   OH2 2675   1.738   1.871   5.092
  890TIP3    H1 2676   1.789   1.818   5.032
  890TIP3    H2 2677   1.784   1.955   5.096
  891TIP3   OH2 2678   2.872   4.178   3.363
  891TIP3    H1 2679   2.967   4.181   3.372
  891TIP3    H2 2680   2.845   4.269   3.353
  892TIP3   OH2 2681   0.415   0.816   4.265
  892TIP3    H1 2682   0.501   0.805   4.226
  892TIP3    H2 2683   0.393   0.730   4.302
  893TIP3   OH2 2684   5.644   2.751   3.151
  893TIP3    H1 2685   5.626   2.780   3.240
  893TIP3    H2 2686   5.736   2.726   3.152
  894TIP3   OH2 2687   3.598   5.788   1.618
  894TIP3    H1 2688   3.596   5.788   1.522
  894TIP3    H2 2689   3.647   5.867   1.640
  895TIP3   OH2 2690   5.770   4.183   1.788
  895TIP3    H1 2691   5.847   4.135   1.819
  895TIP3    H2 2692   5.721   4.204   1.867
  896TIP3   OH2 2693   4.731   0.621   4.943
  896TIP3    H1 2694   4.725   0.709   4.905
  896TIP3    H2 2695   4.732   0.563   4.867
  897TIP3   OH2 2696   0.112   5.732   3.970
  897TIP3    H1 2697   0.112   5.684   4.053
  897TIP3    H2 2698   0.117   5.824   3.995
  898TIP3   OH2 2699   3.477   3.551   3.033
  898TIP3    H1 2700   3.503   3.623   2.976
  898TIP3    H2 2701   3.468   3.591   3.120
  899TIP3   OH2 2702   2.296   0.026   3.387
  899TIP3    H1 2703   2.263  -0.059   3.358
  899TIP3    H2 2704   2.219   0.083   3.388
  900TIP3   OH2 2705   2.784   4.352   0.988
  900TIP3    H1 2706   2.855   4.326   1.047
  900TIP3    H2 2707   2.778   4.447   0.999
  901TIP3   OH2 2708   1.640   0.674   4.497
  901TIP3    H1 2709   1.722   0.716   4.471
  901TIP3    H2 2710   1.573   0.741   4.486
  902TIP3   OH2 2711   3.074   0.125   1.700
  902TIP3    H1 2712   3.113   0.038   1.699
  902TIP3    H2 2713   3.148   0.185   1.710
  903TIP3   OH2 2714   4.917   4.415   0.779
  903TIP3    H1 2715   5.011   4.432   0.784
  903TIP3    H2 2716   4.909   4.322   0.802
  904TIP3   OH2 2717   3.146   0.044   1.133
  904TIP3    H1 2718   3.052   0.061   1.144
  904TIP3    H2 2719   3.168  -0.016   1.204
  905TIP3   OH2 2720   1.745   2.998   4.164
  905TIP3    H1 2721   1.688   2.980   4.089
  905TIP3    H2 2722   1.697   3.062   4.216
  906TIP3   OH2 2723   1.989   3.423   2.140
  906TIP3    H1 2724   1.962   3.512   2.161
  906TIP3    H2 2725   2.050   3.433   2.067
  907TIP3   OH2 2726   1.075   5.602   4.145
  907TIP3    H1 2727   1.110   5.613   4.057
  907TIP3    H2 2728   1.076   5.690   4.183
  908TIP3   OH2 2729   5.933   0.098   4.593
  908TIP3    H1 2730   5.866   0.055   4.647
  908TIP3    H2 2731   5.995   0.134   4.657
  909TIP3   OH2 2732   2.486   3.608   2.438
  909TIP3    H1 2733   2.472   3.536   2.377
  909TIP3    H2 2734   2.537   3.569   2.509
  910TIP3   OH2 2735   3.637   0.752   3.844
  910TIP3    H1 2736   3.727   0.721   3.840
  910TIP3    H2 2737   3.608   0.731   3.932
  911TIP3   OH2 2738   2.751   2.854   2.894
  911TIP3    H1 2739   2.660   2.843   2.924
  911TIP3    H2 2740   2.761   2.790   2.823
  912TIP3   OH2 2741   5.775   4.797   1.292
  912TIP3    H1 2742   5.854   4.749   1.315
  912TIP3    H2 2743   5.748   4.760   1.208
  913TIP3   OH2 2744   6.332   3.086   0.103
  913TIP3    H1 2745   6.389   3.119   0.034
  913TIP3    H2 2746   6.259   3.045   0.057
  914TIP3   OH2 2747   2.510   3.323   3.916
  914TIP3    H1 2748   2.488   3.416   3.908
  914TIP3    H2 2749   2.548   3.315   4.003
  915TIP3   OH2 2750   1.311   6.012   2.485
  915TIP3    H1 2751   1.282   6.101   2.466
  915TIP3    H2 2752   1.246   5.978   2.547
  916TIP3   OH2 2753   4.375   0.551   0.957
  916TIP3    H1 2754   4.444   0.498   0.917
  916TIP3    H2 2755   4.324   0.584   0.883
  917TIP3   OH2 2756   3.703   4.293   2.147
  917TIP3    H1 2757   3.654   4.234   2.205
  917TIP3    H2 2758   3.794   4.269   2.159
  918TIP3   OH2 2759   5.822   0.289   5.054
  918TIP3    H1 2760   5.808   0.194   5.053
  918TIP3    H2 2761   5.883   0.304   4.982
  919TIP3   OH2 2762   4.602   5.798   5.199
  919TIP3    H1 2763   4.670   5.782   5.134
  919TIP3    H2 2764   4.606   5.892   5.217
  920TIP3   OH2 2765   5.434   5.483   4.739
  920TIP3    H1 2766   5.387   5.566   4.726
  920TIP3    H2 2767   5.504   5.503   4.801
  921TIP3   OH2 2768   4.521   5.910   3.511
  921TIP3    H1 2769   4.532   5.959   3.430
  921TIP3    H2 2770   4.440   5.861   3.499
  922TIP3   OH2 2771   2.610   5.582   3.797
  922TIP3    H1 2772   2.666   5.570   3.721
  922TIP3    H2 2773   2.532   5.626   3.763
  923TIP3   OH2 2774   4.873   5.210   3.828
  923TIP3    H1 2775   4.823   5.207   3.910
  923TIP3    H2 2776   4.836   5.139   3.776
  924TIP3   OH2 2777   4.245   4.510   2.581
  924TIP3    H1 2778   4.202   4.425   2.586
  924TIP3    H2 2779   4.314   4.498   2.516
  925TIP3   OH2 2780   1.088   3.605   3.971
  925TIP3    H1 2781   1.080   3.531   4.030
  925TIP3    H2 2782   1.130   3.673   4.024
  926TIP3   OH2 2783   5.308   4.322   5.099
  926TIP3    H1 2784   5.287   4.368   5.180
  926TIP3    H2 2785   5.377   4.375   5.058
  927TIP3   OH2 2786   4.180   1.270   3.042
  927TIP3    H1 2787   4.163   1.178   3.019
  927TIP3    H2 2788   4.186   1.314   2.957
  928TIP3   OH2 2789   6.258   3.812   3.523
  928TIP3    H1 2790   6.338   3.831   3.572
  928TIP3    H2 2791   6.274   3.726   3.484
  929TIP3   OH2 2792   1.904   1.147   1.000
  929TIP3    H1 2793   1.962   1.072   1.010
  929TIP3    H2 2794   1.839   1.137   1.070
  930TIP3   OH2 2795   0.336   1.713   3.499
  930TIP3    H1 2796   0.392   1.641   3.529
  930TIP3    H2 2797   0.327   1.770   3.575
  931TIP3   OH2 2798   3.250   0.252   2.771
  931TIP3    H1 2799   3.257   0.247   2.676
  931TIP3    H2 2800   3.261   0.162   2.802
  932TIP3   OH2 2801   2.084   5.207   4.923
  932TIP3    H1 2802   2.138   5.183   4.848
  932TIP3    H2 2803   2.055   5.296   4.904
  933TIP3   OH2 2804   1.668   2.867   4.662
  933TIP3    H1 2805   1.602   2.866   4.731
  933TIP3    H2 2806   1.621   2.899   4.585
  934TIP3   OH2 2807   3.206   1.062   3.546
  934TIP3    H1 2808   3.210   1.063   3.641
  934TIP3    H2 2809   3.282   1.010   3.519
  935TIP3   OH2 2810   2.725   1.360   4.696
  935TIP3    H1 2811   2.783   1.295   4.735
  935TIP3    H2 2812   2.652   1.367   4.757
  936TIP3   OH2 2813   3.488   5.138   0.581
  936TIP3    H1 2814   3.410   5.191   0.598
  936TIP3    H2 2815   3.454   5.049   0.571
  937TIP3   OH2 2816   0.599   1.005   1.435
  937TIP3    H1 2817   0.644   0.972   1.357
  937TIP3    H2 2818   0.661   0.992   1.506
  938TIP3   OH2 2819   3.426   3.608   1.360
  938TIP3    H1 2820   3.519   3.606   1.382
  938TIP3    H2 2821   3.395   3.520   1.381
  939TIP3   OH2 2822   1.710   1.613   2.514
  939TIP3    H1 2823   1.725   1.678   2.583
  939TIP3    H2 2824   1.646   1.553   2.552
  940TIP3   OH2 2825   5.666   2.459   2.716
  940TIP3    H1 2826   5.721   2.384   2.697
  940TIP3    H2 2827   5.710   2.504   2.789
  941TIP3   OH2 2828   1.797   0.394   0.154
  941TIP3    H1 2829   1.767   0.360   0.238
  941TIP3    H2 2830   1.722   0.443   0.120
  942TIP3   OH2 2831   4.914   1.919   2.850
  942TIP3    H1 2832   4.923   1.992   2.911
  942TIP3    H2 2833   4.905   1.842   2.905
  943TIP3   OH2 2834   4.413   1.718   2.397
  943TIP3    H1 2835   4.402   1.772   2.476
  943TIP3    H2 2836   4.497   1.675   2.408
  944TIP3   OH2 2837   0.356   0.254   4.917
  944TIP3    H1 2838   0.331   0.245   5.009
  944TIP3    H2 2839   0.332   0.344   4.895
  945TIP3   OH2 2840   0.382   3.145   4.038
  945TIP3    H1 2841   0.338   3.121   4.120
  945TIP3    H2 2842   0.399   3.239   4.047
  946TIP3   OH2 2843   1.608   5.353   1.782
  946TIP3    H1 2844   1.533   5.304   1.748
  946TIP3    H2 2845   1.597   5.350   1.877
  947TIP3   OH2 2846   4.003   0.668   3.640
  947TIP3    H1 2847   4.050   0.640   3.562
  947TIP3    H2 2848   4.069   0.715   3.692
  948TIP3   OH2 2849   6.088   0.513   3.558
  948TIP3    H1 2850   6.108   0.556   3.641
  948TIP3    H2 2851   6.113   0.577   3.491
  949TIP3   OH2 2852   1.072   1.140   4.383
  949TIP3    H1 2853   1.071   1.217   4.326
  949TIP3    H2 2854   1.085   1.066   4.324
  950TIP3   OH2 2855   1.821   4.180   2.030
  950TIP3    H1 2856   1.813   4.119   2.103
  950TIP3    H2 2857   1.912   4.175   2.003
  951TIP3   OH2 2858   5.187   4.494   0.762
  951TIP3    H1 2859   5.190   4.538   0.677
  951TIP3    H2 2860   5.276   4.460   0.775
  952TIP3   OH2 2861   5.477   4.263   4.223
  952TIP3    H1 2862   5.458   4.205   4.149
  952TIP3    H2 2863   5.397   4.264   4.274
  953TIP3   OH2 2864   5.492   3.670   1.793
  953TIP3    H1 2865   5.499   3.575   1.783
  953TIP3    H2 2866   5.535   3.705   1.715
  954TIP3   OH2 2867   6.258   3.808   2.104
  954TIP3    H1 2868   6.230   3.884   2.053
  954TIP3    H2 2869   6.181   3.751   2.107
  955TIP3   OH2 2870   5.271   1.679   1.479
  955TIP3    H1 2871   5.263   1.770   1.509
  955TIP3    H2 2872   5.218   1.677   1.399
  956TIP3   OH2 2873   1.734   3.985   5.103
  956TIP3    H1 2874   1.807   3.925   5.118
  956TIP3    H2 2875   1.662   3.929   5.075
  957TIP3   OH2 2876   4.896   1.965   0.994
  957TIP3    H1 2877   4.908   1.880   0.952
  957TIP3    H2 2878   4.865   1.944   1.082
  958TIP3   OH2 2879   1.234   2.981   0.105
  958TIP3    H1 2880   1.179   2.927   0.160
  958TIP3    H2 2881   1.212   2.955   0.016
  959TIP3   OH2 2882   3.289   0.522   2.075
  959TIP3    H1 2883   3.303   0.613   2.102
  959TIP3    H2 2884   3.373   0.495   2.036
  960TIP3   OH2 2885   5.592   5.960   3.152
  960TIP3    H1 2886   5.554   5.895   3.093
  960TIP3    H2 2887   5.545   5.949   3.234
  961TIP3   OH2 2888   0.104   1.293   0.649
  961TIP3    H1 2889   0.121   1.199   0.654
  961TIP3    H2 2890   0.017   1.303   0.688
  962TIP3   OH2 2891   1.281   1.627   1.953
  962TIP3    H1 2892   1.357   1.661   1.905
  962TIP3    H2 2893   1.292   1.532   1.950
  963TIP3   OH2 2894   5.474   0.510   4.514
  963TIP3    H1 2895   5.531   0.460   4.572
  963TIP3    H2 2896   5.514   0.501   4.427
  964TIP3   OH2 2897   6.124   5.355   1.367
  964TIP3    H1 2898   6.080   5.379   1.286
  964TIP3    H2 2899   6.170   5.273   1.347
  965TIP3   OH2 2900   2.229   1.062   4.085
  965TIP3    H1 2901   2.186   1.032   4.004
  965TIP3    H2 2902   2.323   1.055   4.067
  966TIP3   OH2 2903   0.065   5.470   1.918
  966TIP3    H1 2904   0.095   5.536   1.857
  966TIP3    H2 2905  -0.029   5.463   1.901
  967TIP3   OH2 2906   0.802   0.992   1.211
  967TIP3    H1 2907   0.783   0.932   1.139
  967TIP3    H2 2908   0.883   0.960   1.249
  968TIP3   OH2 2909   2.987   2.211   3.081
  968TIP3    H1 2910   2.954   2.148   3.016
  968TIP3    H2 2911   2.944   2.293   3.058
  969TIP3   OH2 2912   1.853   5.056   0.024
  969TIP3    H1 2913   1.805   5.114   0.083
  969TIP3    H2 2914   1.850   4.970   0.067
  970TIP3   OH2 2915   0.689   3.454   3.818
  970TIP3    H1 2916   0.689   3.419   3.729
  970TIP3    H2 2917   0.734   3.538   3.810
  971TIP3   OH2 2918   0.342   4.605   3.786
  971TIP3    H1 2919   0.294   4.526   3.810
  971TIP3    H2 2920   0.434   4.579   3.793
  972TIP3   OH2 2921   0.633   4.258   1.187
  972TIP3    H1 2922   0.673   4.172   1.201
  972TIP3    H2 2923   0.551   4.239   1.141
  973TIP3   OH2 2924   0.663   2.981   2.234
  973TIP3    H1 2925   0.588   2.972   2.293
  973TIP3    H2 2926   0.684   2.891   2.207
  974TIP3   OH2 2927   1.497   3.635   3.868
  974TIP3    H1 2928   1.560   3.609   3.936
  974TIP3    H2 2929   1.421   3.579   3.884
  975TIP3   OH2 2930   5.759   3.677   4.052
  975TIP3    H1 2931   5.839   3.719   4.085
  975TIP3    H2 2932   5.695   3.688   4.122
  976TIP3   OH2 2933   1.768   2.133   2.574
  976TIP3    H1 2934   1.681   2.146   2.535
  976TIP3    H2 2935   1.803   2.222   2.584
  977TIP3   OH2 2936   5.713   4.664   2.936
  977TIP3    H1 2937   5.734   4.701   3.022
  977TIP3    H2 2938   5.638   4.606   2.953
  978TIP3   OH2 2939   1.946   3.616   4.730
  978TIP3    H1 2940   1.894   3.554   4.782
  978TIP3    H2 2941   1.954   3.575   4.644
  979TIP3   OH2 2942   1.860   3.936   4.064
  979TIP3    H1 2943   1.951   3.945   4.091
  979TIP3    H2 2944   1.859   3.857   4.010
  980TIP3   OH2 2945   1.256   1.917   2.033
  980TIP3    H1 2946   1.224   1.937   1.946
  980TIP3    H2 2947   1.346   1.950   2.035
  981TIP3   OH2 2948   2.767   2.061   2.040
  981TIP3    H1 2949   2.851   2.033   2.004
  981TIP3    H2 2950   2.749   2.145   1.999
  982TIP3   OH2 2951   2.910   4.972   1.462
  982TIP3    H1 2952   2.867   5.050   1.496
  982TIP3    H2 2953   2.922   4.989   1.369
  983TIP3   OH2 2954   5.163   2.654   2.060
  983TIP3    H1 2955   5.196   2.567   2.085
  983TIP3    H2 2956   5.235   2.693   2.010
  984TIP3   OH2 2957   0.988   2.367   4.376
  984TIP3    H1 2958   1.028   2.285   4.346
  984TIP3    H2 2959   1.003   2.367   4.471
  985TIP3   OH2 2960   2.198   5.248   4.451
  985TIP3    H1 2961   2.199   5.277   4.360
  985TIP3    H2 2962   2.289   5.228   4.470
  986TIP3   OH2 2963   6.138   3.154   0.791
  986TIP3    H1 2964   6.129   3.068   0.832
  986TIP3    H2 2965   6.120   3.139   0.698
  987TIP3   OH2 2966   5.933   3.857   5.051
  987TIP3    H1 2967   5.867   3.878   4.986
  987TIP3    H2 2968   5.885   3.849   5.133
  988TIP3   OH2 2969   2.085   3.659   1.152
  988TIP3    H1 2970   2.056   3.695   1.069
  988TIP3    H2 2971   2.072   3.729   1.216
  989TIP3   OH2 2972   5.343   1.488   4.562
  989TIP3    H1 2973   5.395   1.566   4.581
  989TIP3    H2 2974   5.253   1.517   4.571
  990TIP3   OH2 2975   4.244   2.233   1.836
  990TIP3    H1 2976   4.310   2.176   1.877
  990TIP3    H2 2977   4.294   2.292   1.781
  991TIP3   OH2 2978   4.576   5.720   2.575
  991TIP3    H1 2979   4.559   5.690   2.486
  991TIP3    H2 2980   4.624   5.647   2.615
  992TIP3   OH2 2981   4.518   0.662   1.924
  992TIP3    H1 2982   4.528   0.664   2.019
  992TIP3    H2 2983   4.520   0.755   1.898
  993TIP3   OH2 2984   6.145   5.488   1.828
  993TIP3    H1 2985   6.117   5.579   1.814
  993TIP3    H2 2986   6.070   5.447   1.871
  994TIP3   OH2 2987   1.712   2.934   0.289
  994TIP3    H1 2988   1.744   2.860   0.340
  994TIP3    H2 2989   1.776   2.944   0.219
  995TIP3   OH2 2990   1.751   0.953   3.073
  995TIP3    H1 2991   1.696   0.894   3.021
  995TIP3    H2 2992   1.743   1.038   3.030
  996TIP3   OH2 2993   0.641   0.808   4.580
  996TIP3    H1 2994   0.725   0.793   4.623
  996TIP3    H2 2995   0.602   0.721   4.573
  997TIP3   OH2 2996   5.733   5.380   1.244
  997TIP3    H1 2997   5.683   5.344   1.170
  997TIP3    H2 2998   5.795   5.311   1.267
  998TIP3   OH2 2999   0.634   5.972   4.469
  998TIP3    H1 3000   0.597   5.908   4.408
  998TIP3    H2 3001   0.711   5.929   4.505
  999TIP3   OH2 3002   0.408   0.806   0.265
  999TIP3    H1 3003   0.315   0.798   0.248
  999TIP3    H2 3004   0.428   0.898   0.250
 1000TIP3   OH2 3005   4.783   0.888   3.098
 1000TIP3    H1 3006   4.824   0.872   3.013
 1000TIP3    H2 3007   4.751   0.802   3.126
 1001TIP3   OH2 3008   3.549   5.475   0.209
 1001TIP3    H1 3009   3.584   5.387   0.218
 1001TIP3    H2 3010   3.465   5.464   0.165
 1002TIP3   OH2 3011   3.701   5.403   3.876
 1002TIP3    H1 3012   3.702   5.444   3.789
 1002TIP3    H2 3013   3.703   5.476   3.937
 1003TIP3   OH2 3014   0.592   4.745   2.430
 1003TIP3    H1 3015   0.551   4.832   2.434
 1003TIP3    H2 3016   0.622   4.729   2.520
 1004TIP3   OH2 3017   1.071   5.628   1.949
 1004TIP3    H1 3018   1.014   5.554   1.927
 1004TIP3    H2 3019   1.036   5.661   2.033
 1005TIP3   OH2 3020   1.974   4.646   1.935
 1005TIP3    H1 3021   1.880   4.667   1.940
 1005TIP3    H2 3022   1.980   4.558   1.971
 1006TIP3   OH2 3023   0.426   0.098   2.396
 1006TIP3    H1 3024   0.394   0.102   2.486
 1006TIP3    H2 3025   0.414   0.187   2.362
 1007TIP3   OH2 3026   3.285   3.668   2.683
 1007TIP3    H1 3027   3.316   3.674   2.593
 1007TIP3    H2 3028   3.262   3.576   2.695
 1008TIP3   OH2 3029   2.025   4.925   1.898
 1008TIP3    H1 3030   2.050   4.918   1.990
 1008TIP3    H2 3031   1.971   5.004   1.894
 1009TIP3   OH2 3032   1.298   1.381   3.291
 1009TIP3    H1 3033   1.301   1.470   3.257
 1009TIP3    H2 3034   1.317   1.325   3.216
 1010TIP3   OH2 3035   4.032   3.621   0.446
 1010TIP3    H1 3036   4.074   3.545   0.487
 1010TIP3    H2 3037   3.950   3.587   0.410
 1011TIP3   OH2 3038   0.448   2.719   1.747
 1011TIP3    H1 3039   0.438   2.781   1.675
 1011TIP3    H2 3040   0.366   2.669   1.747
 1012TIP3   OH2 3041   0.923   5.670   4.385
 1012TIP3    H1 3042   0.838   5.641   4.353
 1012TIP3    H2 3043   0.987   5.636   4.322
 1013TIP3   OH2 3044   2.653   1.855   3.577
 1013TIP3    H1 3045   2.629   1.869   3.669
 1013TIP3    H2 3046   2.624   1.767   3.557
 1014TIP3   OH2 3047   3.975   2.609   3.789
 1014TIP3    H1 3048   3.952   2.517   3.787
 1014TIP3    H2 3049   3.913   2.651   3.729
 1015TIP3   OH2 3050   5.888   0.870   3.980
 1015TIP3    H1 3051   5.967   0.920   3.997
 1015TIP3    H2 3052   5.901   0.787   4.026
 1016TIP3   OH2 3053   1.594   2.705   3.731
 1016TIP3    H1 3054   1.678   2.722   3.773
 1016TIP3    H2 3055   1.605   2.732   3.640
 1017TIP3   OH2 3056   5.531   1.218   3.252
 1017TIP3    H1 3057   5.437   1.210   3.266
 1017TIP3    H2 3058   5.543   1.308   3.221
 1018TIP3   OH2 3059   5.910   0.395   3.008
 1018TIP3    H1 3060   5.971   0.422   2.939
 1018TIP3    H2 3061   5.867   0.317   2.973
 1019TIP3   OH2 3062   3.573   5.429   0.922
 1019TIP3    H1 3063   3.632   5.461   0.854
 1019TIP3    H2 3064   3.628   5.372   0.977
 1020TIP3   OH2 3065   1.727   4.214   4.409
 1020TIP3    H1 3066   1.775   4.269   4.472
 1020TIP3    H2 3067   1.751   4.250   4.323
 1021TIP3   OH2 3068   4.990   2.224   0.998
 1021TIP3    H1 3069   4.943   2.141   1.003
 1021TIP3    H2 3070   4.979   2.252   0.907
 1022TIP3   OH2 3071   6.115   3.824   4.580
 1022TIP3    H1 3072   6.158   3.909   4.572
 1022TIP3    H2 3073   6.186   3.761   4.589
 1023TIP3   OH2 3074   2.454   0.818   1.484
 1023TIP3    H1 3075   2.454   0.724   1.504
 1023TIP3    H2 3076   2.423   0.860   1.564
 1024TIP3   OH2 3077   1.052   0.393   0.065
 1024TIP3    H1 3078   1.075   0.426   0.151
 1024TIP3    H2 3079   1.061   0.468   0.007
 1025TIP3   OH2 3080   6.274   4.243   2.950
 1025TIP3    H1 3081   6.205   4.261   2.886
 1025TIP3    H2 3082   6.230   4.194   3.020
 1026TIP3   OH2 3083   1.053   0.512   0.821
 1026TIP3    H1 3084   1.020   0.540   0.736
 1026TIP3    H2 3085   1.091   0.591   0.859
 1027TIP3   OH2 3086   0.265   1.207   3.766
 1027TIP3    H1 3087   0.244   1.129   3.818
 1027TIP3    H2 3088   0.350   1.235   3.798
 1028TIP3   OH2 3089   2.401   2.707   4.638
 1028TIP3    H1 3090   2.312   2.734   4.662
 1028TIP3    H2 3091   2.456   2.736   4.711
 1029TIP3   OH2 3092   2.048   5.385   3.923
 1029TIP3    H1 3093   2.074   5.317   3.986
 1029TIP3    H2 3094   1.953   5.374   3.914
 1030TIP3   OH2 3095   2.496   0.846   4.714
 1030TIP3    H1 3096   2.551   0.774   4.747
 1030TIP3    H2 3097   2.549   0.887   4.646
 1031TIP3   OH2 3098   1.878   3.353   4.524
 1031TIP3    H1 3099   1.883   3.280   4.463
 1031TIP3    H2 3100   1.969   3.378   4.540
 1032TIP3   OH2 3101   0.547   3.164   4.429
 1032TIP3    H1 3102   0.521   3.230   4.493
 1032TIP3    H2 3103   0.641   3.175   4.420
 1033TIP3   OH2 3104   1.032   1.574   4.819
 1033TIP3    H1 3105   1.105   1.607   4.872
 1033TIP3    H2 3106   0.955   1.621   4.853
 1034TIP3   OH2 3107   2.612   1.277   4.123
 1034TIP3    H1 3108   2.570   1.223   4.190
 1034TIP3    H2 3109   2.558   1.267   4.046
 1035TIP3   OH2 3110   0.129   0.773   5.137
 1035TIP3    H1 3111   0.056   0.757   5.078
 1035TIP3    H2 3112   0.205   0.734   5.094
 1036TIP3   OH2 3113   1.275   5.891   3.292
 1036TIP3    H1 3114   1.185   5.920   3.276
 1036TIP3    H2 3115   1.325   5.925   3.217
 1037TIP3   OH2 3116   3.247   0.630   4.159
 1037TIP3    H1 3117   3.294   0.583   4.228
 1037TIP3    H2 3118   3.240   0.566   4.088
 1038TIP3   OH2 3119   0.861   5.146   1.855
 1038TIP3    H1 3120   0.803   5.218   1.832
 1038TIP3    H2 3121   0.847   5.081   1.787
 1039TIP3   OH2 3122   5.541   5.491   0.697
 1039TIP3    H1 3123   5.572   5.492   0.606
 1039TIP3    H2 3124   5.603   5.435   0.743
 1040TIP3   OH2 3125   4.560   5.895   1.929
 1040TIP3    H1 3126   4.625   5.954   1.968
 1040TIP3    H2 3127   4.517   5.948   1.863
 1041TIP3   OH2 3128   1.808   0.030   4.427
 1041TIP3    H1 3129   1.894  -0.010   4.414
 1041TIP3    H2 3130   1.808   0.057   4.519
 1042TIP3   OH2 3131   5.018   2.513   1.862
 1042TIP3    H1 3132   4.987   2.437   1.911
 1042TIP3    H2 3133   5.051   2.573   1.929
 1043TIP3   OH2 3134   1.357   4.594   1.061
 1043TIP3    H1 3135   1.320   4.680   1.078
 1043TIP3    H2 3136   1.432   4.588   1.120
 1044TIP3   OH2 3137   0.052   5.793   3.268
 1044TIP3    H1 3138   0.140   5.784   3.232
 1044TIP3    H2 3139   0.019   5.704   3.276
 1045TIP3   OH2 3140   1.269   4.250   0.163
 1045TIP3    H1 3141   1.222   4.308   0.103
 1045TIP3    H2 3142   1.226   4.264   0.248
 1046TIP3   OH2 3143   4.781   3.953   2.901
 1046TIP3    H1 3144   4.738   3.894   2.963
 1046TIP3    H2 3145   4.839   3.896   2.850
 1047TIP3   OH2 3146   3.313   5.314   3.613
 1047TIP3    H1 3147   3.260   5.303   3.534
 1047TIP3    H2 3148   3.251   5.304   3.685
 1048TIP3   OH2 3149   0.375   0.187   3.364
 1048TIP3    H1 3150   0.455   0.182   3.311
 1048TIP3    H2 3151   0.404   0.222   3.448
 1049TIP3   OH2 3152   5.852   5.861   4.301
 1049TIP3    H1 3153   5.915   5.923   4.339
 1049TIP3    H2 3154   5.768   5.887   4.338
 1050TIP3   OH2 3155   6.072   3.292   1.564
 1050TIP3    H1 3156   6.120   3.370   1.592
 1050TIP3    H2 3157   5.983   3.322   1.549
 1051TIP3   OH2 3158   4.959   1.376   2.651
 1051TIP3    H1 3159   5.050   1.400   2.632
 1051TIP3    H2 3160   4.931   1.328   2.573
 1052TIP3   OH2 3161   0.712   3.215   1.817
 1052TIP3    H1 3162   0.652   3.212   1.743
 1052TIP3    H2 3163   0.677   3.153   1.880
 1053TIP3   OH2 3164   4.690   3.025   3.888
 1053TIP3    H1 3165   4.694   3.091   3.957
 1053TIP3    H2 3166   4.655   3.070   3.812
 1054TIP3   OH2 3167   3.190   1.414   3.697
 1054TIP3    H1 3168   3.177   1.446   3.607
 1054TIP3    H2 3169   3.106   1.430   3.740
 1055TIP3   OH2 3170   6.388   1.467   1.669
 1055TIP3    H1 3171   6.376   1.384   1.622
 1055TIP3    H2 3172   6.299   1.498   1.686
 1056TIP3   OH2 3173   5.014   5.288   2.352
 1056TIP3    H1 3174   5.058   5.225   2.409
 1056TIP3    H2 3175   5.065   5.289   2.272
 1057TIP3   OH2 3176   4.047   4.634   5.051
 1057TIP3    H1 3177   4.018   4.725   5.040
 1057TIP3    H2 3178   3.970   4.588   5.086
 1058TIP3   OH2 3179   2.241   5.072   1.745
 1058TIP3    H1 3180   2.239   5.137   1.816
 1058TIP3    H2 3181   2.156   5.081   1.703
 1059TIP3   OH2 3182   4.239   2.400   3.474
 1059TIP3    H1 3183   4.266   2.322   3.523
 1059TIP3    H2 3184   4.294   2.470   3.509
 1060TIP3   OH2 3185   5.493   3.332   1.133
 1060TIP3    H1 3186   5.506   3.351   1.226
 1060TIP3    H2 3187   5.493   3.236   1.128
 1061TIP3   OH2 3188   5.787   3.358   4.680
 1061TIP3    H1 3189   5.763   3.398   4.764
 1061TIP3    H2 3190   5.706   3.356   4.630
 1062TIP3   OH2 3191   3.316   1.807   1.754
 1062TIP3    H1 3192   3.398   1.852   1.772
 1062TIP3    H2 3193   3.249   1.874   1.762
 1063TIP3   OH2 3194   5.089   3.523   2.251
 1063TIP3    H1 3195   5.184   3.534   2.259
 1063TIP3    H2 3196   5.069   3.447   2.306
 1064TIP3   OH2 3197   3.094   0.582   3.883
 1064TIP3    H1 3198   3.187   0.568   3.865
 1064TIP3    H2 3199   3.078   0.533   3.964
 1065TIP3   OH2 3200   2.025   5.055   1.195
 1065TIP3    H1 3201   1.970   4.984   1.163
 1065TIP3    H2 3202   2.051   5.103   1.116
 1066TIP3   OH2 3203   3.954   2.209   4.721
 1066TIP3    H1 3204   3.904   2.202   4.803
 1066TIP3    H2 3205   3.972   2.303   4.713
 1067TIP3   OH2 3206   3.029   4.797   0.813
 1067TIP3    H1 3207   3.046   4.735   0.885
 1067TIP3    H2 3208   3.053   4.748   0.734
 1068TIP3   OH2 3209   5.416   5.770   0.324
 1068TIP3    H1 3210   5.385   5.680   0.327
 1068TIP3    H2 3211   5.500   5.765   0.278
 1069TIP3   OH2 3212   3.419   4.565   4.737
 1069TIP3    H1 3213   3.406   4.470   4.736
 1069TIP3    H2 3214   3.397   4.593   4.647
 1070TIP3   OH2 3215   3.928   2.198   5.016
 1070TIP3    H1 3216   3.922   2.103   5.024
 1070TIP3    H2 3217   3.881   2.232   5.092
 1071TIP3   OH2 3218   1.153   5.286   3.148
 1071TIP3    H1 3219   1.151   5.204   3.099
 1071TIP3    H2 3220   1.216   5.341   3.100
 1072TIP3   OH2 3221   6.297   0.034   1.977
 1072TIP3    H1 3222   6.282   0.063   1.887
 1072TIP3    H2 3223   6.332   0.111   2.022
 1073TIP3   OH2 3224   0.864   0.186   3.121
 1073TIP3    H1 3225   0.786   0.192   3.067
 1073TIP3    H2 3226   0.868   0.094   3.147
 1074TIP3   OH2 3227   1.198   4.856   4.285
 1074TIP3    H1 3228   1.160   4.771   4.263
 1074TIP3    H2 3229   1.292   4.842   4.286
 1075TIP3   OH2 3230   4.557   3.195   0.638
 1075TIP3    H1 3231   4.466   3.168   0.625
 1075TIP3    H2 3232   4.558   3.234   0.725
 1076TIP3   OH2 3233   4.711   5.337   4.053
 1076TIP3    H1 3234   4.636   5.382   4.015
 1076TIP3    H2 3235   4.673   5.271   4.111
 1077TIP3   OH2 3236   4.546   0.794   0.324
 1077TIP3    H1 3237   4.541   0.731   0.396
 1077TIP3    H2 3238   4.636   0.784   0.290
 1078TIP3   OH2 3239   1.682   4.866   4.385
 1078TIP3    H1 3240   1.661   4.898   4.473
 1078TIP3    H2 3241   1.763   4.911   4.361
 1079TIP3   OH2 3242   4.486   4.191   2.255
 1079TIP3    H1 3243   4.553   4.196   2.187
 1079TIP3    H2 3244   4.535   4.199   2.337
 1080TIP3   OH2 3245   0.710   1.841   0.886
 1080TIP3    H1 3246   0.734   1.835   0.978
 1080TIP3    H2 3247   0.791   1.823   0.839
 1081TIP3   OH2 3248   4.938   3.843   3.186
 1081TIP3    H1 3249   4.974   3.931   3.197
 1081TIP3    H2 3250   4.993   3.803   3.119
 1082TIP3   OH2 3251   4.845   2.053   1.647
 1082TIP3    H1 3252   4.851   1.965   1.610
 1082TIP3    H2 3253   4.904   2.106   1.594
 1083TIP3   OH2 3254   2.269   5.171   4.737
 1083TIP3    H1 3255   2.301   5.230   4.668
 1083TIP3    H2 3256   2.234   5.096   4.689
 1084TIP3   OH2 3257   4.557   1.031   4.307
 1084TIP3    H1 3258   4.625   1.067   4.364
 1084TIP3    H2 3259   4.488   1.098   4.307
 1085TIP3   OH2 3260   3.648   3.534   3.527
 1085TIP3    H1 3261   3.610   3.584   3.598
 1085TIP3    H2 3262   3.698   3.465   3.570
 1086TIP3   OH2 3263   1.546   4.451   2.194
 1086TIP3    H1 3264   1.488   4.383   2.228
 1086TIP3    H2 3265   1.504   4.482   2.114
 1087TIP3   OH2 3266   1.764   2.964   3.570
 1087TIP3    H1 3267   1.751   3.005   3.656
 1087TIP3    H2 3268   1.849   2.920   3.578
 1088TIP3   OH2 3269   1.804   0.065   1.743
 1088TIP3    H1 3270   1.798  -0.023   1.708
 1088TIP3    H2 3271   1.799   0.054   1.838
 1089TIP3   OH2 3272   3.939   1.141   1.548
 1089TIP3    H1 3273   4.028   1.166   1.574
 1089TIP3    H2 3274   3.888   1.144   1.629
 1090TIP3   OH2 3275   2.556   5.605   0.555
 1090TIP3    H1 3276   2.642   5.578   0.524
 1090TIP3    H2 3277   2.551   5.571   0.644
 1091TIP3   OH2 3278   0.053   1.912   2.166
 1091TIP3    H1 3279  -0.042   1.908   2.177
 1091TIP3    H2 3280   0.085   1.958   2.245
 1092TIP3   OH2 3281   5.724   2.666   3.479
 1092TIP3    H1 3282   5.721   2.636   3.570
 1092TIP3    H2 3283   5.811   2.706   3.470
 1093TIP3   OH2 3284   3.513   1.918   5.073
 1093TIP3    H1 3285   3.444   1.956   5.019
 1093TIP3    H2 3286   3.586   1.980   5.067
 1094TIP3   OH2 3287   2.498   0.286   3.936
 1094TIP3    H1 3288   2.513   0.329   3.852
 1094TIP3    H2 3289   2.561   0.213   3.938
 1095TIP3   OH2 3290   0.724   4.228   4.253
 1095TIP3    H1 3291   0.808   4.182   4.260
 1095TIP3    H2 3292   0.676   4.180   4.185
 1096TIP3   OH2 3293   4.246   0.795   4.035
 1096TIP3    H1 3294   4.227   0.705   4.061
 1096TIP3    H2 3295   4.334   0.812   4.068
 1097TIP3   OH2 3296   1.439   5.001   4.043
 1097TIP3    H1 3297   1.505   4.990   4.112
 1097TIP3    H2 3298   1.453   4.926   3.985
 1098TIP3   OH2 3299   5.579   4.549   4.475
 1098TIP3    H1 3300   5.542   4.621   4.424
 1098TIP3    H2 3301   5.672   4.549   4.450
 1099TIP3   OH2 3302   4.803   5.092   4.227
 1099TIP3    H1 3303   4.849   5.125   4.304
 1099TIP3    H2 3304   4.713   5.126   4.236
 1100TIP3   OH2 3305   0.903   3.341   0.195
 1100TIP3    H1 3306   0.976   3.280   0.197
 1100TIP3    H2 3307   0.867   3.333   0.107
 1101TIP3   OH2 3308   2.561   4.826   2.431
 1101TIP3    H1 3309   2.481   4.774   2.444
 1101TIP3    H2 3310   2.605   4.785   2.357
 1102TIP3   OH2 3311   3.833   5.520   1.233
 1102TIP3    H1 3312   3.767   5.490   1.296
 1102TIP3    H2 3313   3.837   5.449   1.169
 1103TIP3   OH2 3314   0.548   3.923   3.693
 1103TIP3    H1 3315   0.583   3.951   3.608
 1103TIP3    H2 3316   0.492   3.995   3.722
 1104TIP3   OH2 3317   6.148   1.358   3.443
 1104TIP3    H1 3318   6.201   1.392   3.515
 1104TIP3    H2 3319   6.168   1.416   3.369
 1105TIP3   OH2 3320   5.681   1.729   3.815
 1105TIP3    H1 3321   5.638   1.739   3.730
 1105TIP3    H2 3322   5.774   1.732   3.795
 1106TIP3   OH2 3323   2.437   4.205   3.525
 1106TIP3    H1 3324   2.454   4.242   3.438
 1106TIP3    H2 3325   2.520   4.216   3.572
 1107TIP3   OH2 3326   6.240   1.077   4.512
 1107TIP3    H1 3327   6.171   1.142   4.518
 1107TIP3    H2 3328   6.316   1.124   4.478
 1108TIP3   OH2 3329   0.476   1.655   1.701
 1108TIP3    H1 3330   0.528   1.735   1.699
 1108TIP3    H2 3331   0.417   1.664   1.625
 1109TIP3   OH2 3332   3.420   2.019   4.026
 1109TIP3    H1 3333   3.465   2.101   4.046
 1109TIP3    H2 3334   3.328   2.045   4.013
 1110TIP3   OH2 3335   2.637   1.002   2.164
 1110TIP3    H1 3336   2.621   0.971   2.075
 1110TIP3    H2 3337   2.676   1.089   2.152
 1111TIP3   OH2 3338   3.312   5.740   0.088
 1111TIP3    H1 3339   3.304   5.812   0.150
 1111TIP3    H2 3340   3.363   5.674   0.134
 1112TIP3   OH2 3341   3.911   2.824   3.439
 1112TIP3    H1 3342   3.914   2.874   3.357
 1112TIP3    H2 3343   3.930   2.734   3.412
 1113TIP3   OH2 3344   5.930   3.541   4.352
 1113TIP3    H1 3345   5.844   3.567   4.386
 1113TIP3    H2 3346   5.960   3.618   4.303
 1114TIP3   OH2 3347   2.245   2.702   0.884
 1114TIP3    H1 3348   2.338   2.723   0.895
 1114TIP3    H2 3349   2.223   2.739   0.799
 1115TIP3   OH2 3350   5.546   5.226   1.073
 1115TIP3    H1 3351   5.536   5.173   0.994
 1115TIP3    H2 3352   5.516   5.169   1.144
 1116TIP3   OH2 3353   6.138   1.561   1.692
 1116TIP3    H1 3354   6.068   1.530   1.750
 1116TIP3    H2 3355   6.123   1.516   1.609
 1117TIP3   OH2 3356   2.185   5.627   3.690
 1117TIP3    H1 3357   2.133   5.563   3.642
 1117TIP3    H2 3358   2.226   5.577   3.761
 1118TIP3   OH2 3359   2.945   5.921   2.023
 1118TIP3    H1 3360   2.993   5.990   1.978
 1118TIP3    H2 3361   2.888   5.968   2.084
 1119TIP3   OH2 3362   3.742   1.550   2.363
 1119TIP3    H1 3363   3.671   1.612   2.349
 1119TIP3    H2 3364   3.699   1.471   2.396
 1120TIP3   OH2 3365   2.431   2.272   4.789
 1120TIP3    H1 3366   2.462   2.265   4.699
 1120TIP3    H2 3367   2.509   2.297   4.840
 1121TIP3   OH2 3368   3.446   4.457   5.048
 1121TIP3    H1 3369   3.358   4.445   5.014
 1121TIP3    H2 3370   3.463   4.551   5.039
 1122TIP3   OH2 3371   2.680   2.517   2.562
 1122TIP3    H1 3372   2.733   2.498   2.485
 1122TIP3    H2 3373   2.595   2.478   2.543
 1123TIP3   OH2 3374   5.275   4.134   3.882
 1123TIP3    H1 3375   5.313   4.066   3.827
 1123TIP3    H2 3376   5.287   4.215   3.832
 1124TIP3   OH2 3377   5.382   3.698   1.129
 1124TIP3    H1 3378   5.379   3.782   1.176
 1124TIP3    H2 3379   5.475   3.680   1.119
 1125TIP3   OH2 3380   5.020   1.395   2.237
 1125TIP3    H1 3381   4.973   1.330   2.290
 1125TIP3    H2 3382   5.011   1.363   2.147
 1126TIP3   OH2 3383   5.163   3.253   2.241
 1126TIP3    H1 3384   5.234   3.317   2.237
 1126TIP3    H2 3385   5.149   3.227   2.150
 1127TIP3   OH2 3386   2.042   2.807   3.621
 1127TIP3    H1 3387   2.106   2.864   3.577
 1127TIP3    H2 3388   2.058   2.721   3.583
 1128TIP3   OH2 3389   5.055   5.818   4.297
 1128TIP3    H1 3390   5.040   5.898   4.346
 1128TIP3    H2 3391   5.035   5.748   4.359
 1129TIP3   OH2 3392   4.503   2.080   0.668
 1129TIP3    H1 3393   4.413   2.081   0.635
 1129TIP3    H2 3394   4.557   2.066   0.591
 1130TIP3   OH2 3395   2.014   0.141   4.184
 1130TIP3    H1 3396   2.040   0.104   4.268
 1130TIP3    H2 3397   2.097   0.153   4.137
 1131TIP3   OH2 3398   0.989   3.788   1.930
 1131TIP3    H1 3399   0.947   3.777   2.016
 1131TIP3    H2 3400   0.952   3.718   1.876
 1132TIP3   OH2 3401   5.095   1.742   4.144
 1132TIP3    H1 3402   5.003   1.725   4.121
 1132TIP3    H2 3403   5.096   1.832   4.175
 1133TIP3   OH2 3404   0.278   4.770   2.700
 1133TIP3    H1 3405   0.219   4.828   2.652
 1133TIP3    H2 3406   0.264   4.684   2.661
 1134TIP3   OH2 3407   2.723   0.091   4.181
 1134TIP3    H1 3408   2.718  -0.005   4.180
 1134TIP3    H2 3409   2.703   0.117   4.091
 1135TIP3   OH2 3410   5.997   0.210   0.229
 1135TIP3    H1 3411   5.941   0.211   0.152
 1135TIP3    H2 3412   5.937   0.194   0.302
 1136TIP3   OH2 3413   5.240   0.465   2.056
 1136TIP3    H1 3414   5.145   0.451   2.060
 1136TIP3    H2 3415   5.276   0.379   2.034
 1137TIP3   OH2 3416   5.236   3.255   0.166
 1137TIP3    H1 3417   5.225   3.160   0.165
 1137TIP3    H2 3418   5.330   3.269   0.154
 1138TIP3   OH2 3419   4.536   0.344   2.269
 1138TIP3    H1 3420   4.442   0.365   2.274
 1138TIP3    H2 3421   4.564   0.342   2.361
 1139TIP3   OH2 3422   5.099   0.259   3.431
 1139TIP3    H1 3423   5.088   0.307   3.513
 1139TIP3    H2 3424   5.188   0.280   3.403
 1140TIP3   OH2 3425   1.617   5.601   3.643
 1140TIP3    H1 3426   1.599   5.550   3.722
 1140TIP3    H2 3427   1.626   5.691   3.673
 1141TIP3   OH2 3428   1.594   4.265   0.316
 1141TIP3    H1 3429   1.569   4.179   0.349
 1141TIP3    H2 3430   1.515   4.318   0.327
 1142TIP3   OH2 3431   1.929   5.553   0.693
 1142TIP3    H1 3432   1.986   5.630   0.690
 1142TIP3    H2 3433   1.961   5.503   0.768
 1143TIP3   OH2 3434   6.288   4.641   0.726
 1143TIP3    H1 3435   6.342   4.719   0.714
 1143TIP3    H2 3436   6.198   4.673   0.725
 1144TIP3   OH2 3437   1.403   2.819   4.121
 1144TIP3    H1 3438   1.456   2.870   4.060
 1144TIP3    H2 3439   1.336   2.880   4.150
 1145TIP3   OH2 3440   3.008   5.066   3.667
 1145TIP3    H1 3441   3.090   5.073   3.716
 1145TIP3    H2 3442   2.939   5.083   3.732
 1146TIP3   OH2 3443   5.220   0.525   4.094
 1146TIP3    H1 3444   5.303   0.478   4.088
 1146TIP3    H2 3445   5.184   0.501   4.180
 1147TIP3   OH2 3446   5.809   1.105   4.504
 1147TIP3    H1 3447   5.879   1.169   4.498
 1147TIP3    H2 3448   5.761   1.114   4.421
 1148TIP3   OH2 3449   0.978   1.900   2.427
 1148TIP3    H1 3450   0.961   1.936   2.515
 1148TIP3    H2 3451   0.937   1.814   2.428
 1149TIP3   OH2 3452   2.597   2.582   4.953
 1149TIP3    H1 3453   2.622   2.665   4.912
 1149TIP3    H2 3454   2.504   2.591   4.972
 1150TIP3   OH2 3455   1.301   3.392   4.757
 1150TIP3    H1 3456   1.297   3.436   4.842
 1150TIP3    H2 3457   1.394   3.376   4.742
 1151TIP3   OH2 3458   3.030   2.279   3.977
 1151TIP3    H1 3459   3.081   2.198   3.985
 1151TIP3    H2 3460   2.944   2.250   3.945
 1152TIP3   OH2 3461   5.530   2.261   0.607
 1152TIP3    H1 3462   5.619   2.228   0.617
 1152TIP3    H2 3463   5.541   2.345   0.562
 1153TIP3   OH2 3464   5.914   4.957   3.802
 1153TIP3    H1 3465   5.963   4.898   3.859
 1153TIP3    H2 3466   5.943   4.935   3.714
 1154TIP3   OH2 3467   3.187   2.641   1.020
 1154TIP3    H1 3468   3.137   2.711   0.979
 1154TIP3    H2 3469   3.122   2.573   1.039
 1155TIP3   OH2 3470   5.132   3.488   3.868
 1155TIP3    H1 3471   5.061   3.512   3.928
 1155TIP3    H2 3472   5.115   3.539   3.789
 1156TIP3   OH2 3473   1.059   2.924   3.074
 1156TIP3    H1 3474   0.980   2.878   3.044
 1156TIP3    H2 3475   1.026   2.989   3.136
 1157TIP3   OH2 3476   5.740   3.543   4.888
 1157TIP3    H1 3477   5.792   3.498   4.955
 1157TIP3    H2 3478   5.799   3.609   4.851
 1158TIP3   OH2 3479   2.647   1.897   0.878
 1158TIP3    H1 3480   2.633   1.991   0.893
 1158TIP3    H2 3481   2.736   1.880   0.909
 1159TIP3   OH2 3482   1.207   5.175   1.853
 1159TIP3    H1 3483   1.282   5.194   1.796
 1159TIP3    H2 3484   1.214   5.082   1.872
 1160TIP3   OH2 3485   5.596   3.396   1.798
 1160TIP3    H1 3486   5.625   3.317   1.843
 1160TIP3    H2 3487   5.674   3.430   1.754
 1161TIP3   OH2 3488   5.908   2.669   4.184
 1161TIP3    H1 3489   5.901   2.704   4.095
 1161TIP3    H2 3490   5.903   2.574   4.173
 1162TIP3   OH2 3491   1.172   4.507   0.823
 1162TIP3    H1 3492   1.164   4.465   0.909
 1162TIP3    H2 3493   1.156   4.600   0.840
 1163TIP3   OH2 3494   0.696   5.859   3.573
 1163TIP3    H1 3495   0.771   5.898   3.528
 1163TIP3    H2 3496   0.620   5.890   3.525
 1164TIP3   OH2 3497   1.728   2.078   2.221
 1164TIP3    H1 3498   1.771   2.144   2.168
 1164TIP3    H2 3499   1.743   2.106   2.312
 1165TIP3   OH2 3500   1.870   1.837   2.123
 1165TIP3    H1 3501   1.852   1.842   2.029
 1165TIP3    H2 3502   1.806   1.896   2.162
 1166TIP3   OH2 3503   1.076   1.493   2.696
 1166TIP3    H1 3504   1.091   1.453   2.781
 1166TIP3    H2 3505   1.145   1.560   2.688
 1167TIP3   OH2 3506   1.438   5.496   4.177
 1167TIP3    H1 3507   1.387   5.487   4.258
 1167TIP3    H2 3508   1.378   5.540   4.116
 1168TIP3   OH2 3509   1.564   1.931   1.207
 1168TIP3    H1 3510   1.486   1.876   1.213
 1168TIP3    H2 3511   1.615   1.910   1.285
 1169TIP3   OH2 3512   2.182   0.965   2.896
 1169TIP3    H1 3513   2.212   0.875   2.909
 1169TIP3    H2 3514   2.238   1.018   2.953
 1170TIP3   OH2 3515   5.413   0.925   1.519
 1170TIP3    H1 3516   5.327   0.899   1.549
 1170TIP3    H2 3517   5.465   0.845   1.521
 1171TIP3   OH2 3518   3.900   5.921   0.562
 1171TIP3    H1 3519   3.981   5.881   0.593
 1171TIP3    H2 3520   3.830   5.870   0.603
 1172TIP3   OH2 3521   1.453   2.627   5.007
 1172TIP3    H1 3522   1.508   2.613   5.084
 1172TIP3    H2 3523   1.410   2.711   5.024
 1173TIP3   OH2 3524   4.406   4.240   5.006
 1173TIP3    H1 3525   4.426   4.302   5.076
 1173TIP3    H2 3526   4.399   4.295   4.927
 1174TIP3   OH2 3527   0.320   4.628   1.824
 1174TIP3    H1 3528   0.226   4.643   1.839
 1174TIP3    H2 3529   0.346   4.696   1.762
 1175TIP3   OH2 3530   4.874   2.590   2.469
 1175TIP3    H1 3531   4.955   2.640   2.457
 1175TIP3    H2 3532   4.902   2.499   2.469
 1176TIP3   OH2 3533   1.197   0.628   3.897
 1176TIP3    H1 3534   1.197   0.629   3.992
 1176TIP3    H2 3535   1.124   0.571   3.874
 1177TIP3   OH2 3536   5.722   5.089   1.289
 1177TIP3    H1 3537   5.750   5.044   1.209
 1177TIP3    H2 3538   5.633   5.059   1.303
 1178TIP3   OH2 3539   1.828   2.986   3.044
 1178TIP3    H1 3540   1.881   3.050   3.091
 1178TIP3    H2 3541   1.788   3.036   2.972
 1179TIP3   OH2 3542   1.069   3.904   4.001
 1179TIP3    H1 3543   1.150   3.949   3.976
 1179TIP3    H2 3544   1.082   3.881   4.093
 1180TIP3   OH2 3545   0.494   3.657   3.702
 1180TIP3    H1 3546   0.505   3.751   3.715
 1180TIP3    H2 3547   0.537   3.639   3.618
 1181TIP3   OH2 3548   3.772   0.873   5.142
 1181TIP3    H1 3549   3.866   0.859   5.141
 1181TIP3    H2 3550   3.739   0.805   5.202
 1182TIP3   OH2 3551   4.468   1.317   4.036
 1182TIP3    H1 3552   4.520   1.327   3.957
 1182TIP3    H2 3553   4.442   1.225   4.036
 1183TIP3   OH2 3554   3.609   0.752   3.329
 1183TIP3    H1 3555   3.638   0.666   3.301
 1183TIP3    H2 3556   3.679   0.785   3.386
 1184TIP3   OH2 3557   0.308   3.148   2.489
 1184TIP3    H1 3558   0.262   3.216   2.439
 1184TIP3    H2 3559   0.319   3.186   2.576
 1185TIP3   OH2 3560   0.530   3.822   0.948
 1185TIP3    H1 3561   0.517   3.758   1.018
 1185TIP3    H2 3562   0.523   3.771   0.867
 1186TIP3   OH2 3563   1.585   4.674   2.799
 1186TIP3    H1 3564   1.614   4.704   2.713
 1186TIP3    H2 3565   1.538   4.593   2.782
 1187TIP3   OH2 3566   2.540   4.575   1.831
 1187TIP3    H1 3567   2.629   4.546   1.815
 1187TIP3    H2 3568   2.512   4.528   1.909
 1188TIP3   OH2 3569   4.114   2.004   2.686
 1188TIP3    H1 3570   4.140   2.083   2.732
 1188TIP3    H2 3571   4.026   2.023   2.652
 1189TIP3   OH2 3572   2.667   0.641   1.069
 1189TIP3    H1 3573   2.747   0.601   1.103
 1189TIP3    H2 3574   2.626   0.682   1.145
 1190TIP3   OH2 3575   1.404   1.149   0.836
 1190TIP3    H1 3576   1.319   1.194   0.834
 1190TIP3    H2 3577   1.469   1.219   0.826
 1191TIP3   OH2 3578   4.039   3.804   3.605
 1191TIP3    H1 3579   4.043   3.740   3.676
 1191TIP3    H2 3580   3.989   3.761   3.536
 1192TIP3   OH2 3581   5.719   1.178   0.373
 1192TIP3    H1 3582   5.777   1.231   0.428
 1192TIP3    H2 3583   5.696   1.236   0.300
 1193TIP3   OH2 3584   1.787   4.093   1.682
 1193TIP3    H1 3585   1.738   4.115   1.761
 1193TIP3    H2 3586   1.803   3.999   1.688
 1194TIP3   OH2 3587   3.572   1.502   0.300
 1194TIP3    H1 3588   3.480   1.509   0.325
 1194TIP3    H2 3589   3.570   1.486   0.206
 1195TIP3   OH2 3590   4.620   4.043   2.556
 1195TIP3    H1 3591   4.659   4.003   2.478
 1195TIP3    H2 3592   4.661   3.998   2.630
 1196TIP3   OH2 3593   4.939   4.906   4.025
 1196TIP3    H1 3594   5.022   4.952   4.013
 1196TIP3    H2 3595   4.894   4.954   4.094
 1197TIP3   OH2 3596   0.491   5.197   0.695
 1197TIP3    H1 3597   0.533   5.209   0.781
 1197TIP3    H2 3598   0.504   5.281   0.651
 1198TIP3   OH2 3599   2.680   2.104   0.541
 1198TIP3    H1 3600   2.648   2.137   0.625
 1198TIP3    H2 3601   2.701   2.183   0.491
 1199TIP3   OH2 3602   6.170   0.908   2.919
 1199TIP3    H1 3603   6.181   1.003   2.923
 1199TIP3    H2 3604   6.106   0.888   2.987
 1200TIP3   OH2 3605   3.235   4.077   1.934
 1200TIP3    H1 3606   3.315   4.098   1.983
 1200TIP3    H2 3607   3.221   4.153   1.877
 1201TIP3   OH2 3608   3.428   3.367   0.132
 1201TIP3    H1 3609   3.446   3.339   0.043
 1201TIP3    H2 3610   3.491   3.320   0.186
 1202TIP3   OH2 3611   4.873   1.034   2.095
 1202TIP3    H1 3612   4.800   1.089   2.124
 1202TIP3    H2 3613   4.946   1.096   2.086
 1203TIP3   OH2 3614   5.341   1.415   3.619
 1203TIP3    H1 3615   5.399   1.347   3.583
 1203TIP3    H2 3616   5.341   1.398   3.714
 1204TIP3   OH2 3617   5.077   4.473   1.834
 1204TIP3    H1 3618   5.171   4.476   1.815
 1204TIP3    H2 3619   5.070   4.509   1.923
 1205TIP3   OH2 3620   5.586   3.731   5.088
 1205TIP3    H1 3621   5.633   3.740   5.171
 1205TIP3    H2 3622   5.648   3.688   5.029
 1206TIP3   OH2 3623   3.593   0.931   1.646
 1206TIP3    H1 3624   3.607   0.890   1.560
 1206TIP3    H2 3625   3.573   0.859   1.704
 1207TIP3   OH2 3626   3.561   5.261   3.242
 1207TIP3    H1 3627   3.486   5.313   3.268
 1207TIP3    H2 3628   3.557   5.183   3.297
 1208TIP3   OH2 3629   3.933   2.384   4.350
 1208TIP3    H1 3630   4.026   2.409   4.346
 1208TIP3    H2 3631   3.920   2.353   4.439
 1209TIP3   OH2 3632   1.840   0.797   1.344
 1209TIP3    H1 3633   1.827   0.747   1.425
 1209TIP3    H2 3634   1.753   0.830   1.323
 1210TIP3   OH2 3635   5.490   5.080   3.628
 1210TIP3    H1 3636   5.533   5.046   3.549
 1210TIP3    H2 3637   5.522   5.169   3.637
 1211TIP3   OH2 3638   3.944   5.074   3.273
 1211TIP3    H1 3639   3.885   5.100   3.202
 1211TIP3    H2 3640   3.928   5.138   3.342
 1212TIP3   OH2 3641   2.950   3.089   4.704
 1212TIP3    H1 3642   2.894   3.025   4.661
 1212TIP3    H2 3643   3.004   3.038   4.764
 1213TIP3   OH2 3644   5.792   3.397   3.852
 1213TIP3    H1 3645   5.728   3.328   3.838
 1213TIP3    H2 3646   5.832   3.376   3.936
 1214TIP3   OH2 3647   4.757   4.610   4.316
 1214TIP3    H1 3648   4.750   4.520   4.349
 1214TIP3    H2 3649   4.824   4.605   4.248
 1215TIP3   OH2 3650   2.947   1.961   2.245
 1215TIP3    H1 3651   2.994   2.042   2.227
 1215TIP3    H2 3652   2.855   1.986   2.242
 1216TIP3   OH2 3653   4.622   1.172   1.465
 1216TIP3    H1 3654   4.630   1.136   1.377
 1216TIP3    H2 3655   4.648   1.264   1.455
 1217TIP3   OH2 3656   0.302   4.113   2.916
 1217TIP3    H1 3657   0.377   4.137   2.970
 1217TIP3    H2 3658   0.290   4.020   2.933
 1218TIP3   OH2 3659   5.450   1.502   1.870
 1218TIP3    H1 3660   5.527   1.445   1.865
 1218TIP3    H2 3661   5.486   1.591   1.876
 1219TIP3   OH2 3662   2.306   1.735   0.913
 1219TIP3    H1 3663   2.261   1.787   0.980
 1219TIP3    H2 3664   2.276   1.645   0.929
 1220TIP3   OH2 3665   0.229   2.146   3.876
 1220TIP3    H1 3666   0.302   2.188   3.921
 1220TIP3    H2 3667   0.265   2.064   3.843
 1221TIP3   OH2 3668   3.235   0.626   3.227
 1221TIP3    H1 3669   3.188   0.598   3.149
 1221TIP3    H2 3670   3.325   0.638   3.198
 1222TIP3   OH2 3671   3.288   2.794   1.676
 1222TIP3    H1 3672   3.288   2.699   1.662
 1222TIP3    H2 3673   3.257   2.831   1.593
 1223TIP3   OH2 3674   2.874   2.605   4.410
 1223TIP3    H1 3675   2.919   2.684   4.383
 1223TIP3    H2 3676   2.781   2.626   4.402
 1224TIP3   OH2 3677   1.924   4.370   0.957
 1224TIP3    H1 3678   2.016   4.355   0.980
 1224TIP3    H2 3679   1.924   4.454   0.910
 1225TIP3   OH2 3680   0.611   0.267   2.981
 1225TIP3    H1 3681   0.529   0.220   2.969
 1225TIP3    H2 3682   0.606   0.341   2.920
 1226TIP3   OH2 3683   4.163   3.313   4.396
 1226TIP3    H1 3684   4.195   3.275   4.315
 1226TIP3    H2 3685   4.084   3.263   4.417
 1227TIP3   OH2 3686   4.007   5.574   2.555
 1227TIP3    H1 3687   4.041   5.656   2.592
 1227TIP3    H2 3688   4.052   5.565   2.471
 1228TIP3   OH2 3689   2.467   2.933   1.951
 1228TIP3    H1 3690   2.542   2.897   1.998
 1228TIP3    H2 3691   2.392   2.914   2.007
 1229TIP3   OH2 3692   5.054   4.534   3.713
 1229TIP3    H1 3693   4.960   4.551   3.722
 1229TIP3    H2 3694   5.091   4.550   3.800
 1230TIP3   OH2 3695   0.728   1.124   4.872
 1230TIP3    H1 3696   0.732   1.214   4.839
 1230TIP3    H2 3697   0.816   1.089   4.857
 1231TIP3   OH2 3698   0.929   0.158   4.209
 1231TIP3    H1 3699   0.918   0.065   4.231
 1231TIP3    H2 3700   1.023   0.174   4.218
 1232TIP3   OH2 3701   1.120   3.292   1.975
 1232TIP3    H1 3702   1.100   3.249   1.891
 1232TIP3    H2 3703   1.111   3.385   1.956
 1233TIP3   OH2 3704   5.898   4.529   4.919
 1233TIP3    H1 3705   5.859   4.442   4.929
 1233TIP3    H2 3706   5.919   4.534   4.826
 1234TIP3   OH2 3707   6.167   0.947   3.884
 1234TIP3    H1 3708   6.153   1.031   3.839
 1234TIP3    H2 3709   6.208   0.971   3.967
 1235TIP3   OH2 3710   2.168   4.341   5.161
 1235TIP3    H1 3711   2.241   4.284   5.185
 1235TIP3    H2 3712   2.148   4.315   5.071
 1236TIP3   OH2 3713   3.667   2.276   3.824
 1236TIP3    H1 3714   3.686   2.329   3.901
 1236TIP3    H2 3715   3.588   2.315   3.786
 1237TIP3   OH2 3716   2.203   3.276   1.349
 1237TIP3    H1 3717   2.127   3.321   1.313
 1237TIP3    H2 3718   2.188   3.183   1.329
 1238TIP3   OH2 3719   3.531   3.429   3.821
 1238TIP3    H1 3720   3.572   3.496   3.876
 1238TIP3    H2 3721   3.602   3.367   3.801
 1239TIP3   OH2 3722   2.421   1.049   3.005
 1239TIP3    H1 3723   2.402   0.975   3.062
 1239TIP3    H2 3724   2.515   1.042   2.987
 1240TIP3   OH2 3725   1.099   0.039   3.719
 1240TIP3    H1 3726   1.172   0.100   3.723
 1240TIP3    H2 3727   1.040   0.066   3.790
 1241TIP3   OH2 3728   2.680   1.043   2.886
 1241TIP3    H1 3729   2.697   1.128   2.844
 1241TIP3    H2 3730   2.736   1.043   2.964
 1242TIP3   OH2 3731   5.380   1.772   3.075
 1242TIP3    H1 3732   5.325   1.821   3.014
 1242TIP3    H2 3733   5.388   1.685   3.035
 1243TIP3   OH2 3734   5.714   2.351   1.016
 1243TIP3    H1 3735   5.754   2.332   1.101
 1243TIP3    H2 3736   5.624   2.320   1.025
 1244TIP3   OH2 3737   1.399   5.951   2.865
 1244TIP3    H1 3738   1.435   5.947   2.953
 1244TIP3    H2 3739   1.465   5.910   2.810
 1245TIP3   OH2 3740   4.148   5.064   0.205
 1245TIP3    H1 3741   4.171   5.157   0.202
 1245TIP3    H2 3742   4.231   5.019   0.188
 1246TIP3   OH2 3743   0.164   0.907   4.233
 1246TIP3    H1 3744   0.259   0.910   4.222
 1246TIP3    H2 3745   0.130   0.900   4.143
 1247TIP3   OH2 3746   1.856   1.716   4.880
 1247TIP3    H1 3747   1.942   1.673   4.873
 1247TIP3    H2 3748   1.842   1.757   4.794
 1248TIP3   OH2 3749   1.098   2.784   4.361
 1248TIP3    H1 3750   1.037   2.711   4.351
 1248TIP3    H2 3751   1.060   2.837   4.431
 1249TIP3   OH2 3752   0.459   3.714   0.681
 1249TIP3    H1 3753   0.396   3.645   0.699
 1249TIP3    H2 3754   0.532   3.670   0.637
 1250TIP3   OH2 3755   2.842   2.676   4.734
 1250TIP3    H1 3756   2.904   2.620   4.687
 1250TIP3    H2 3757   2.814   2.740   4.668
 1251TIP3   OH2 3758   5.761   0.219   0.043
 1251TIP3    H1 3759   5.685   0.253   0.091
 1251TIP3    H2 3760   5.749   0.124   0.043
 1252TIP3   OH2 3761   0.724   2.288   1.348
 1252TIP3    H1 3762   0.674   2.207   1.343
 1252TIP3    H2 3763   0.727   2.321   1.258
 1253TIP3   OH2 3764   2.562   5.611   1.996
 1253TIP3    H1 3765   2.633   5.569   1.948
 1253TIP3    H2 3766   2.512   5.657   1.929
 1254TIP3   OH2 3767   0.342   5.222   0.455
 1254TIP3    H1 3768   0.308   5.196   0.370
 1254TIP3    H2 3769   0.368   5.140   0.497
 1255TIP3   OH2 3770   4.947   1.061   2.744
 1255TIP3    H1 3771   4.962   1.125   2.813
 1255TIP3    H2 3772   5.017   1.076   2.681
 1256TIP3   OH2 3773   5.259   2.621   5.061
 1256TIP3    H1 3774   5.216   2.652   4.982
 1256TIP3    H2 3775   5.352   2.620   5.039
 1257TIP3   OH2 3776   0.829   5.392   4.495
 1257TIP3    H1 3777   0.805   5.462   4.556
 1257TIP3    H2 3778   0.874   5.327   4.549
 1258TIP3   OH2 3779   1.119   3.072   5.235
 1258TIP3    H1 3780   1.063   3.021   5.177
 1258TIP3    H2 3781   1.185   3.111   5.176
 1259TIP3   OH2 3782   0.663   5.435   4.289
 1259TIP3    H1 3783   0.729   5.408   4.353
 1259TIP3    H2 3784   0.583   5.389   4.317
 1260TIP3   OH2 3785   1.719   3.843   0.463
 1260TIP3    H1 3786   1.714   3.748   0.457
 1260TIP3    H2 3787   1.812   3.863   0.464
 1261TIP3   OH2 3788   1.067   2.052   4.287
 1261TIP3    H1 3789   0.986   2.001   4.294
 1261TIP3    H2 3790   1.107   2.021   4.205
 1262TIP3   OH2 3791   4.333   0.305   2.493
 1262TIP3    H1 3792   4.301   0.379   2.442
 1262TIP3    H2 3793   4.281   0.230   2.461
 1263TIP3   OH2 3794   1.889   1.634   0.188
 1263TIP3    H1 3795   1.901   1.597   0.275
 1263TIP3    H2 3796   1.826   1.576   0.145
 1264TIP3   OH2 3797   0.677   4.026   0.852
 1264TIP3    H1 3798   0.623   3.954   0.884
 1264TIP3    H2 3799   0.613   4.094   0.827
 1265TIP3   OH2 3800   2.642   3.793   3.021
 1265TIP3    H1 3801   2.624   3.700   3.036
 1265TIP3    H2 3802   2.694   3.820   3.096
 1266TIP3   OH2 3803   5.556   4.798   0.111
 1266TIP3    H1 3804   5.605   4.716   0.116
 1266TIP3    H2 3805   5.578   4.834   0.025
 1267TIP3   OH2 3806   5.649   3.157   3.862
 1267TIP3    H1 3807   5.711   3.087   3.883
 1267TIP3    H2 3808   5.606   3.128   3.781
 1268TIP3   OH2 3809   0.589   3.120   3.307
 1268TIP3    H1 3810   0.677   3.158   3.303
 1268TIP3    H2 3811   0.573   3.086   3.219
 1269TIP3   OH2 3812   5.997   2.259   0.818
 1269TIP3    H1 3813   6.076   2.273   0.870
 1269TIP3    H2 3814   5.925   2.271   0.881
 1270TIP3   OH2 3815   5.660   1.966   0.353
 1270TIP3    H1 3816   5.569   1.944   0.334
 1270TIP3    H2 3817   5.664   2.061   0.345
 1271TIP3   OH2 3818   2.125   5.507   0.450
 1271TIP3    H1 3819   2.203   5.548   0.411
 1271TIP3    H2 3820   2.070   5.581   0.476
 1272TIP3   OH2 3821   2.476   5.604   2.250
 1272TIP3    H1 3822   2.510   5.599   2.161
 1272TIP3    H2 3823   2.506   5.523   2.291
 1273TIP3   OH2 3824   2.971   2.000   4.693
 1273TIP3    H1 3825   2.883   2.018   4.660
 1273TIP3    H2 3826   3.030   2.025   4.621
 1274TIP3   OH2 3827   2.953   3.447   0.483
 1274TIP3    H1 3828   2.878   3.504   0.501
 1274TIP3    H2 3829   3.029   3.504   0.493
 1275TIP3   OH2 3830   3.468   1.442   0.774
 1275TIP3    H1 3831   3.540   1.390   0.738
 1275TIP3    H2 3832   3.419   1.380   0.828
 1276TIP3   OH2 3833   4.838   5.842   4.684
 1276TIP3    H1 3834   4.790   5.761   4.697
 1276TIP3    H2 3835   4.914   5.835   4.742
 1277TIP3   OH2 3836   5.307   5.521   2.091
 1277TIP3    H1 3837   5.241   5.451   2.088
 1277TIP3    H2 3838   5.354   5.506   2.172
 1278TIP3   OH2 3839   3.636   1.964   1.258
 1278TIP3    H1 3840   3.660   1.936   1.346
 1278TIP3    H2 3841   3.545   1.993   1.265
 1279TIP3   OH2 3842   2.534   5.763   1.593
 1279TIP3    H1 3843   2.484   5.718   1.525
 1279TIP3    H2 3844   2.481   5.754   1.672
 1280TIP3   OH2 3845   0.979   1.795   0.752
 1280TIP3    H1 3846   1.006   1.752   0.670
 1280TIP3    H2 3847   0.988   1.889   0.734
 1281TIP3   OH2 3848   5.562   1.242   1.315
 1281TIP3    H1 3849   5.497   1.303   1.280
 1281TIP3    H2 3850   5.598   1.198   1.239
 1282TIP3   OH2 3851   0.941   0.648   4.111
 1282TIP3    H1 3852   1.020   0.612   4.152
 1282TIP3    H2 3853   0.871   0.588   4.137
 1283TIP3   OH2 3854   3.981   3.480   2.498
 1283TIP3    H1 3855   3.910   3.488   2.434
 1283TIP3    H2 3856   3.972   3.392   2.533
 1284TIP3   OH2 3857   0.786   0.265   0.129
 1284TIP3    H1 3858   0.880   0.274   0.111
 1284TIP3    H2 3859   0.781   0.237   0.220
 1285TIP3   OH2 3860   0.884   4.754   4.778
 1285TIP3    H1 3861   0.796   4.784   4.756
 1285TIP3    H2 3862   0.920   4.722   4.696
 1286TIP3   OH2 3863   2.076   2.447   4.626
 1286TIP3    H1 3864   2.109   2.450   4.716
 1286TIP3    H2 3865   2.010   2.517   4.622
 1287TIP3   OH2 3866   6.253   4.073   0.043
 1287TIP3    H1 3867   6.304   4.053   0.121
 1287TIP3    H2 3868   6.164   4.084   0.075
 1288TIP3   OH2 3869   4.339   1.605   1.488
 1288TIP3    H1 3870   4.289   1.532   1.453
 1288TIP3    H2 3871   4.386   1.569   1.564
 1289TIP3   OH2 3872   2.212   4.061   3.570
 1289TIP3    H1 3873   2.297   4.101   3.553
 1289TIP3    H2 3874   2.233   3.972   3.598
 1290TIP3   OH2 3875   2.689   3.100   1.632
 1290TIP3    H1 3876   2.594   3.105   1.623
 1290TIP3    H2 3877   2.722   3.135   1.549
 1291TIP3   OH2 3878   3.796   0.887   2.960
 1291TIP3    H1 3879   3.830   0.939   2.887
 1291TIP3    H2 3880   3.830   0.932   3.038
 1292TIP3   OH2 3881   3.189   0.009   2.274
 1292TIP3    H1 3882   3.127   0.061   2.326
 1292TIP3    H2 3883   3.164   0.025   2.183
 1293TIP3   OH2 3884   0.447   2.936   3.468
 1293TIP3    H1 3885   0.402   2.861   3.428
 1293TIP3    H2 3886   0.459   2.997   3.395
 1294TIP3   OH2 3887   4.136   5.713   4.464
 1294TIP3    H1 3888   4.152   5.619   4.469
 1294TIP3    H2 3889   4.220   5.753   4.489
 1295TIP3   OH2 3890   6.224   2.829   0.313
 1295TIP3    H1 3891   6.312   2.862   0.293
 1295TIP3    H2 3892   6.236   2.772   0.389
 1296TIP3   OH2 3893   0.756   3.483   1.571
 1296TIP3    H1 3894   0.828   3.533   1.609
 1296TIP3    H2 3895   0.798   3.406   1.532
 1297TIP3   OH2 3896   1.777   1.771   1.883
 1297TIP3    H1 3897   1.811   1.717   1.811
 1297TIP3    H2 3898   1.718   1.713   1.931
 1298TIP3   OH2 3899   5.644   0.865   1.237
 1298TIP3    H1 3900   5.655   0.884   1.143
 1298TIP3    H2 3901   5.696   0.932   1.281
 1299TIP3   OH2 3902   2.495   4.457   4.309
 1299TIP3    H1 3903   2.499   4.548   4.279
 1299TIP3    H2 3904   2.583   4.440   4.343
 1300TIP3   OH2 3905   2.047   1.210   2.005
 1300TIP3    H1 3906   2.065   1.123   1.969
 1300TIP3    H2 3907   1.954   1.224   1.989
 1301TIP3   OH2 3908   0.691   1.886   2.302
 1301TIP3    H1 3909   0.660   1.957   2.358
 1301TIP3    H2 3910   0.737   1.931   2.231
 1302TIP3   OH2 3911   5.595   5.162   0.660
 1302TIP3    H1 3912   5.633   5.211   0.734
 1302TIP3    H2 3913   5.558   5.083   0.700
 1303TIP3   OH2 3914   3.028   4.514   2.865
 1303TIP3    H1 3915   3.113   4.503   2.823
 1303TIP3    H2 3916   2.986   4.583   2.815
 1304TIP3   OH2 3917   2.807   5.447   2.980
 1304TIP3    H1 3918   2.715   5.462   3.004
 1304TIP3    H2 3919   2.834   5.528   2.936
 1305TIP3   OH2 3920   6.127   2.467   3.108
 1305TIP3    H1 3921   6.153   2.429   3.024
 1305TIP3    H2 3922   6.068   2.402   3.147
 1306TIP3   OH2 3923   1.616   5.150   5.031
 1306TIP3    H1 3924   1.608   5.189   5.118
 1306TIP3    H2 3925   1.677   5.077   5.043
 1307TIP3   OH2 3926   6.075   3.672   2.620
 1307TIP3    H1 3927   6.056   3.633   2.535
 1307TIP3    H2 3928   6.128   3.606   2.665
 1308TIP3   OH2 3929   0.361   0.022   0.997
 1308TIP3    H1 3930   0.456   0.012   0.998
 1308TIP3    H2 3931   0.347   0.111   0.965
 1309TIP3   OH2 3932   0.975   4.381   4.767
 1309TIP3    H1 3933   0.936   4.397   4.681
 1309TIP3    H2 3934   0.906   4.406   4.829
 1310TIP3   OH2 3935   1.142   3.664   3.390
 1310TIP3    H1 3936   1.192   3.613   3.326
 1310TIP3    H2 3937   1.185   3.646   3.474
 1311TIP3   OH2 3938   2.625   4.808   2.850
 1311TIP3    H1 3939   2.597   4.833   2.938
 1311TIP3    H2 3940   2.545   4.782   2.806
 1312TIP3   OH2 3941   3.530   4.166   4.922
 1312TIP3    H1 3942   3.587   4.092   4.942
 1312TIP3    H2 3943   3.573   4.241   4.963
 1313TIP3   OH2 3944   5.228   1.430   0.136
 1313TIP3    H1 3945   5.247   1.414   0.043
 1313TIP3    H2 3946   5.140   1.466   0.136
 1314TIP3   OH2 3947   2.928   1.289   0.584
 1314TIP3    H1 3948   2.857   1.354   0.584
 1314TIP3    H2 3949   2.977   1.307   0.504
 1315TIP3   OH2 3950   4.890   4.659   2.516
 1315TIP3    H1 3951   4.842   4.668   2.434
 1315TIP3    H2 3952   4.974   4.702   2.500
 1316TIP3   OH2 3953   3.883   3.250   0.478
 1316TIP3    H1 3954   3.797   3.237   0.517
 1316TIP3    H2 3955   3.885   3.189   0.404
 1317TIP3   OH2 3956   5.713   3.307   1.311
 1317TIP3    H1 3957   5.783   3.263   1.263
 1317TIP3    H2 3958   5.758   3.372   1.365
 1318TIP3   OH2 3959   3.999   5.748   2.210
 1318TIP3    H1 3960   3.976   5.749   2.303
 1318TIP3    H2 3961   4.086   5.788   2.206
 1319TIP3   OH2 3962   5.945   2.457   3.776
 1319TIP3    H1 3963   5.859   2.486   3.745
 1319TIP3    H2 3964   6.003   2.531   3.759
 1320TIP3   OH2 3965   1.166   2.583   1.614
 1320TIP3    H1 3966   1.148   2.516   1.548
 1320TIP3    H2 3967   1.248   2.556   1.655
 1321TIP3   OH2 3968   1.264   3.485   1.562
 1321TIP3    H1 3969   1.325   3.440   1.620
 1321TIP3    H2 3970   1.319   3.544   1.511
 1322TIP3   OH2 3971   0.715   4.940   3.615
 1322TIP3    H1 3972   0.732   5.003   3.545
 1322TIP3    H2 3973   0.666   4.989   3.681
 1323TIP3   OH2 3974   4.725   0.652   0.991
 1323TIP3    H1 3975   4.652   0.710   1.011
 1323TIP3    H2 3976   4.683   0.568   0.969
 1324TIP3   OH2 3977   5.327   2.465   2.926
 1324TIP3    H1 3978   5.308   2.422   2.843
 1324TIP3    H2 3979   5.291   2.405   2.992
 1325TIP3   OH2 3980   5.974   0.208   0.669
 1325TIP3    H1 3981   5.929   0.243   0.746
 1325TIP3    H2 3982   5.970   0.113   0.680
 1326TIP3   OH2 3983   4.017   0.594   0.078
 1326TIP3    H1 3984   3.982   0.623   0.163
 1326TIP3    H2 3985   4.061   0.672   0.043
 1327TIP3   OH2 3986   2.203   3.686   0.239
 1327TIP3    H1 3987   2.201   3.717   0.148
 1327TIP3    H2 3988   2.129   3.625   0.245
 1328TIP3   OH2 3989   0.019   1.834   3.851
 1328TIP3    H1 3990  -0.068   1.851   3.886
 1328TIP3    H2 3991   0.068   1.800   3.926
 1329TIP3   OH2 3992   0.036   0.724   3.990
 1329TIP3    H1 3993  -0.056   0.740   3.970
 1329TIP3    H2 3994   0.035   0.648   4.049
 1330TIP3   OH2 3995   3.173   1.905   5.167
 1330TIP3    H1 3996   3.195   1.988   5.125
 1330TIP3    H2 3997   3.237   1.894   5.236
 1331TIP3   OH2 3998   0.382   2.882   2.434
 1331TIP3    H1 3999   0.360   2.967   2.472
 1331TIP3    H2 4000   0.383   2.897   2.339
 1332TIP3   OH2 4001   0.387   4.665   0.244
 1332TIP3    H1 4002   0.437   4.585   0.232
 1332TIP3    H2 4003   0.389   4.681   0.339
 1333TIP3   OH2 4004   1.389   2.611   3.549
 1333TIP3    H1 4005   1.383   2.645   3.639
 1333TIP3    H2 4006   1.361   2.684   3.494
 1334TIP3   OH2 4007   0.015   4.922   4.427
 1334TIP3    H1 4008  -0.008   4.885   4.512
 1334TIP3    H2 4009   0.033   4.846   4.372
 1335TIP3   OH2 4010   3.071   4.028   0.904
 1335TIP3    H1 4011   3.072   4.026   0.808
 1335TIP3    H2 4012   3.089   4.119   0.926
 1336TIP3   OH2 4013   4.436   2.180   5.171
 1336TIP3    H1 4014   4.402   2.268   5.188
 1336TIP3    H2 4015   4.425   2.167   5.077
 1337TIP3   OH2 4016   1.327   5.319   0.160
 1337TIP3    H1 4017   1.375   5.299   0.079
 1337TIP3    H2 4018   1.395   5.323   0.227
 1338TIP3   OH2 4019   4.193   3.335   1.875
 1338TIP3    H1 4020   4.235   3.400   1.931
 1338TIP3    H2 4021   4.143   3.387   1.811
 1339TIP3   OH2 4022   5.345   5.426   3.021
 1339TIP3    H1 4023   5.273   5.399   3.078
 1339TIP3    H2 4024   5.422   5.382   3.056
 1340TIP3   OH2 4025   4.904   3.354   3.639
 1340TIP3    H1 4026   4.839   3.284   3.635
 1340TIP3    H2 4027   4.980   3.319   3.593
 1341TIP3   OH2 4028   3.488   2.555   2.543
 1341TIP3    H1 4029   3.566   2.595   2.582
 1341TIP3    H2 4030   3.520   2.475   2.502
 1342TIP3   OH2 4031   1.178   3.935   2.036
 1342TIP3    H1 4032   1.224   3.859   2.071
 1342TIP3    H2 4033   1.107   3.899   1.983
 1343TIP3   OH2 4034   3.784   1.552   3.971
 1343TIP3    H1 4035   3.816   1.470   3.935
 1343TIP3    H2 4036   3.858   1.586   4.022
 1344TIP3   OH2 4037   1.022   1.735   2.119
 1344TIP3    H1 4038   1.000   1.652   2.077
 1344TIP3    H2 4039   0.947   1.792   2.099
 1345TIP3   OH2 4040   5.139   1.793   2.137
 1345TIP3    H1 4041   5.173   1.779   2.048
 1345TIP3    H2 4042   5.055   1.837   2.123
 1346TIP3   OH2 4043   1.926   0.784   0.822
 1346TIP3    H1 4044   2.011   0.828   0.820
 1346TIP3    H2 4045   1.914   0.759   0.914
 1347TIP3   OH2 4046   1.045   5.735   3.007
 1347TIP3    H1 4047   1.054   5.696   3.094
 1347TIP3    H2 4048   1.100   5.813   3.010
 1348TIP3   OH2 4049   0.072   0.886   0.933
 1348TIP3    H1 4050   0.063   0.979   0.951
 1348TIP3    H2 4051   0.064   0.844   1.019
 1349TIP3   OH2 4052   5.961   5.408   0.692
 1349TIP3    H1 4053   6.027   5.420   0.760
 1349TIP3    H2 4054   6.004   5.433   0.611
 1350TIP3   OH2 4055   3.932   4.864   3.435
 1350TIP3    H1 4056   3.955   4.784   3.388
 1350TIP3    H2 4057   3.971   4.934   3.383
 1351TIP3   OH2 4058   0.885   0.390   0.455
 1351TIP3    H1 4059   0.964   0.417   0.409
 1351TIP3    H2 4060   0.860   0.308   0.413
 1352TIP3   OH2 4061   1.179   0.153   0.760
 1352TIP3    H1 4062   1.139   0.162   0.673
 1352TIP3    H2 4063   1.139   0.222   0.812
 1353TIP3   OH2 4064   5.102   0.034   0.707
 1353TIP3    H1 4065   5.103   0.065   0.798
 1353TIP3    H2 4066   5.062   0.106   0.658
 1354TIP3   OH2 4067   1.503   0.306   4.649
 1354TIP3    H1 4068   1.591   0.335   4.675
 1354TIP3    H2 4069   1.479   0.364   4.577
 1355TIP3   OH2 4070   6.129   5.233   3.716
 1355TIP3    H1 4071   6.180   5.193   3.787
 1355TIP3    H2 4072   6.191   5.289   3.670
 1356TIP3   OH2 4073   6.135   2.872   2.230
 1356TIP3    H1 4074   6.220   2.894   2.191
 1356TIP3    H2 4075   6.102   2.955   2.264
 1357TIP3   OH2 4076   5.619   2.032   0.012
 1357TIP3    H1 4077   5.703   1.986   0.014
 1357TIP3    H2 4078   5.562   1.981   0.069
 1358TIP3   OH2 4079   0.632   2.194   4.246
 1358TIP3    H1 4080   0.703   2.196   4.181
 1358TIP3    H2 4081   0.606   2.285   4.256
 1359TIP3   OH2 4082   0.256   2.254   4.286
 1359TIP3    H1 4083   0.346   2.236   4.314
 1359TIP3    H2 4084   0.223   2.170   4.255
 1360TIP3   OH2 4085   6.175   5.907   4.007
 1360TIP3    H1 4086   6.255   5.948   3.975
 1360TIP3    H2 4087   6.163   5.943   4.095
 1361TIP3   OH2 4088   2.662   5.910   0.879
 1361TIP3    H1 4089   2.669   5.977   0.810
 1361TIP3    H2 4090   2.576   5.926   0.918
 1362TIP3   OH2 4091   3.182   0.126   4.089
 1362TIP3    H1 4092   3.132   0.176   4.154
 1362TIP3    H2 4093   3.136   0.142   4.007
 1363TIP3   OH2 4094   0.300   1.840   1.089
 1363TIP3    H1 4095   0.300   1.922   1.040
 1363TIP3    H2 4096   0.267   1.864   1.176
 1364TIP3   OH2 4097   0.667   1.220   0.124
 1364TIP3    H1 4098   0.751   1.243   0.162
 1364TIP3    H2 4099   0.656   1.127   0.143
 1365TIP3   OH2 4100   0.033   2.211   0.367
 1365TIP3    H1 4101   0.118   2.204   0.409
 1365TIP3    H2 4102  -0.012   2.130   0.390
 1366TIP3   OH2 4103   5.672   5.320   2.048
 1366TIP3    H1 4104   5.616   5.302   1.973
 1366TIP3    H2 4105   5.613   5.317   2.123
 1367TIP3   OH2 4106   4.449   4.042   0.873
 1367TIP3    H1 4107   4.423   3.985   0.946
 1367TIP3    H2 4108   4.483   4.121   0.915
 1368TIP3   OH2 4109   4.175   2.399   2.090
 1368TIP3    H1 4110   4.204   2.353   2.011
 1368TIP3    H2 4111   4.231   2.364   2.160
 1369TIP3   OH2 4112   0.819   1.952   2.022
 1369TIP3    H1 4113   0.803   1.895   1.947
 1369TIP3    H2 4114   0.872   2.024   1.987
 1370TIP3   OH2 4115   5.654   3.248   2.369
 1370TIP3    H1 4116   5.704   3.235   2.450
 1370TIP3    H2 4117   5.720   3.276   2.305
 1371TIP3   OH2 4118   0.417   4.928   4.720
 1371TIP3    H1 4119   0.324   4.932   4.696
 1371TIP3    H2 4120   0.430   5.001   4.780
 1372TIP3   OH2 4121   0.355   1.589   4.340
 1372TIP3    H1 4122   0.421   1.520   4.329
 1372TIP3    H2 4123   0.279   1.544   4.375
 1373TIP3   OH2 4124   3.327   4.940   1.396
 1373TIP3    H1 4125   3.406   4.993   1.405
 1373TIP3    H2 4126   3.263   4.982   1.452
 1374TIP3   OH2 4127   4.234   2.931   4.697
 1374TIP3    H1 4128   4.176   2.989   4.748
 1374TIP3    H2 4129   4.317   2.932   4.745
 1375TIP3   OH2 4130   1.650   5.761   3.304
 1375TIP3    H1 4131   1.708   5.686   3.316
 1375TIP3    H2 4132   1.564   5.729   3.331
 1376TIP3   OH2 4133   3.708   5.003   2.245
 1376TIP3    H1 4134   3.654   4.943   2.192
 1376TIP3    H2 4135   3.648   5.038   2.310
 1377TIP3   OH2 4136   3.922   3.127   4.412
 1377TIP3    H1 4137   3.911   3.110   4.319
 1377TIP3    H2 4138   3.847   3.085   4.455
 1378TIP3   OH2 4139   4.084   4.544   4.744
 1378TIP3    H1 4140   4.125   4.459   4.726
 1378TIP3    H2 4141   4.157   4.603   4.762
 1379TIP3   OH2 4142   5.558   2.274   3.564
 1379TIP3    H1 4143   5.588   2.183   3.568
 1379TIP3    H2 4144   5.633   2.322   3.527
 1380TIP3   OH2 4145   1.480   3.877   1.422
 1380TIP3    H1 4146   1.528   3.944   1.372
 1380TIP3    H2 4147   1.488   3.905   1.513
 1381TIP3   OH2 4148   1.219   4.604   0.247
 1381TIP3    H1 4149   1.309   4.637   0.249
 1381TIP3    H2 4150   1.187   4.615   0.336
 1382TIP3   OH2 4151   2.303   2.069   3.104
 1382TIP3    H1 4152   2.328   2.020   3.182
 1382TIP3    H2 4153   2.237   2.132   3.134
 1383TIP3   OH2 4154   5.756   4.585   0.525
 1383TIP3    H1 4155   5.712   4.502   0.511
 1383TIP3    H2 4156   5.698   4.634   0.584
 1384TIP3   OH2 4157   3.167   5.402   2.416
 1384TIP3    H1 4158   3.174   5.482   2.469
 1384TIP3    H2 4159   3.073   5.394   2.397
 1385TIP3   OH2 4160   0.664   5.194   1.444
 1385TIP3    H1 4161   0.740   5.252   1.436
 1385TIP3    H2 4162   0.700   5.106   1.436
 1386TIP3   OH2 4163   0.068   5.403   1.449
 1386TIP3    H1 4164   0.004   5.374   1.514
 1386TIP3    H2 4165   0.077   5.329   1.389
 1387TIP3   OH2 4166   0.268   3.432   1.580
 1387TIP3    H1 4167   0.278   3.401   1.490
 1387TIP3    H2 4168   0.219   3.362   1.624
 1388TIP3   OH2 4169   5.410   2.612   4.463
 1388TIP3    H1 4170   5.504   2.630   4.470
 1388TIP3    H2 4171   5.405   2.522   4.433
 1389TIP3   OH2 4172   2.825   4.575   4.139
 1389TIP3    H1 4173   2.881   4.532   4.074
 1389TIP3    H2 4174   2.738   4.574   4.099
 1390TIP3   OH2 4175   1.105   2.432   4.642
 1390TIP3    H1 4176   1.152   2.355   4.611
 1390TIP3    H2 4177   1.170   2.503   4.639
 1391TIP3   OH2 4178   2.329   2.395   2.542
 1391TIP3    H1 4179   2.288   2.403   2.456
 1391TIP3    H2 4180   2.360   2.304   2.545
 1392TIP3   OH2 4181   6.083   0.038   4.944
 1392TIP3    H1 4182   6.091   0.124   4.904
 1392TIP3    H2 4183   6.151  -0.015   4.903
 1393TIP3   OH2 4184   0.730   2.685   0.430
 1393TIP3    H1 4185   0.637   2.678   0.408
 1393TIP3    H2 4186   0.754   2.597   0.459
 1394TIP3   OH2 4187   3.306   4.948   3.709
 1394TIP3    H1 4188   3.393   4.928   3.675
 1394TIP3    H2 4189   3.256   4.868   3.694
 1395TIP3   OH2 4190   3.698   2.086   4.077
 1395TIP3    H1 4191   3.672   2.065   4.167
 1395TIP3    H2 4192   3.639   2.156   4.050
 1396TIP3   OH2 4193   1.126   5.962   2.874
 1396TIP3    H1 4194   1.221   5.949   2.874
 1396TIP3    H2 4195   1.097   5.927   2.790
 1397TIP3   OH2 4196   1.017   5.492   3.816
 1397TIP3    H1 4197   0.979   5.422   3.870
 1397TIP3    H2 4198   0.966   5.491   3.735
 1398TIP3   OH2 4199   5.125   4.479   4.025
 1398TIP3    H1 4200   5.198   4.446   3.971
 1398TIP3    H2 4201   5.165   4.496   4.110
 1399TIP3   OH2 4202   5.141   0.202   1.912
 1399TIP3    H1 4203   5.176   0.217   1.824
 1399TIP3    H2 4204   5.047   0.215   1.903
 1400TIP3   OH2 4205   0.606   2.471   4.152
 1400TIP3    H1 4206   0.590   2.504   4.064
 1400TIP3    H2 4207   0.520   2.474   4.194
 1401TIP3   OH2 4208   4.528   0.226   1.498
 1401TIP3    H1 4209   4.541   0.305   1.549
 1401TIP3    H2 4210   4.434   0.207   1.507
 1402TIP3   OH2 4211   5.111   3.360   2.513
 1402TIP3    H1 4212   5.149   3.360   2.600
 1402TIP3    H2 4213   5.181   3.328   2.456
 1403TIP3   OH2 4214   2.021   5.875   2.212
 1403TIP3    H1 4215   1.976   5.956   2.236
 1403TIP3    H2 4216   1.952   5.816   2.183
 1404TIP3   OH2 4217   0.492   3.434   1.836
 1404TIP3    H1 4218   0.407   3.474   1.822
 1404TIP3    H2 4219   0.503   3.374   1.761
 1405TIP3   OH2 4220   2.347   3.895   1.469
 1405TIP3    H1 4221   2.411   3.891   1.398
 1405TIP3    H2 4222   2.264   3.918   1.426
 1406TIP3   OH2 4223   2.209   3.768   3.429
 1406TIP3    H1 4224   2.216   3.676   3.404
 1406TIP3    H2 4225   2.261   3.776   3.509
 1407TIP3   OH2 4226   4.830   1.087   0.465
 1407TIP3    H1 4227   4.914   1.060   0.427
 1407TIP3    H2 4228   4.853   1.151   0.532
 1408TIP3   OH2 4229   1.108   2.676   1.222
 1408TIP3    H1 4230   1.081   2.584   1.216
 1408TIP3    H2 4231   1.027   2.726   1.211
 1409TIP3   OH2 4232   2.083   4.133   2.008
 1409TIP3    H1 4233   2.114   4.101   2.093
 1409TIP3    H2 4234   2.107   4.064   1.946
 1410TIP3   OH2 4235   5.663   2.712   4.008
 1410TIP3    H1 4236   5.601   2.669   4.067
 1410TIP3    H2 4237   5.672   2.801   4.044
 1411TIP3   OH2 4238   2.423   1.304   0.656
 1411TIP3    H1 4239   2.509   1.268   0.635
 1411TIP3    H2 4240   2.398   1.354   0.578
 1412TIP3   OH2 4241   1.381   1.376   1.939
 1412TIP3    H1 4242   1.358   1.334   2.022
 1412TIP3    H2 4243   1.404   1.304   1.881
 1413TIP3   OH2 4244   5.807   5.680   2.510
 1413TIP3    H1 4245   5.878   5.723   2.557
 1413TIP3    H2 4246   5.817   5.587   2.529
 1414TIP3   OH2 4247   2.603   2.472   0.645
 1414TIP3    H1 4248   2.653   2.425   0.579
 1414TIP3    H2 4249   2.541   2.525   0.594
 1415TIP3   OH2 4250   3.038   0.716   4.763
 1415TIP3    H1 4251   2.979   0.680   4.697
 1415TIP3    H2 4252   2.991   0.707   4.845
 1416TIP3   OH2 4253   1.304   1.696   3.699
 1416TIP3    H1 4254   1.324   1.612   3.656
 1416TIP3    H2 4255   1.225   1.727   3.656
 1417TIP3   OH2 4256   0.472   0.528   0.375
 1417TIP3    H1 4257   0.509   0.608   0.339
 1417TIP3    H2 4258   0.498   0.459   0.314
 1418TIP3   OH2 4259   0.741   4.906   4.445
 1418TIP3    H1 4260   0.767   4.980   4.390
 1418TIP3    H2 4261   0.668   4.940   4.498
 1419TIP3   OH2 4262   5.213   1.486   1.689
 1419TIP3    H1 4263   5.288   1.477   1.747
 1419TIP3    H2 4264   5.235   1.560   1.632
 1420TIP3   OH2 4265   3.814   4.616   3.102
 1420TIP3    H1 4266   3.849   4.601   3.190
 1420TIP3    H2 4267   3.745   4.681   3.114
 1421TIP3   OH2 4268   1.190   3.028   1.733
 1421TIP3    H1 4269   1.111   3.077   1.757
 1421TIP3    H2 4270   1.156   2.943   1.702
 1422TIP3   OH2 4271   1.384   1.467   3.568
 1422TIP3    H1 4272   1.348   1.425   3.490
 1422TIP3    H2 4273   1.477   1.481   3.546
 1423TIP3   OH2 4274   2.045   1.242   0.075
 1423TIP3    H1 4275   2.067   1.316   0.018
 1423TIP3    H2 4276   1.968   1.203   0.034
 1424TIP3   OH2 4277   5.027   3.168   3.304
 1424TIP3    H1 4278   5.054   3.163   3.212
 1424TIP3    H2 4279   5.097   3.217   3.346
 1425TIP3   OH2 4280   3.029   0.265   4.303
 1425TIP3    H1 4281   3.072   0.347   4.324
 1425TIP3    H2 4282   2.937   0.289   4.291
 1426TIP3   OH2 4283   2.890   1.702   2.314
 1426TIP3    H1 4284   2.860   1.689   2.404
 1426TIP3    H2 4285   2.914   1.795   2.310
 1427TIP3   OH2 4286   4.232   3.079   0.062
 1427TIP3    H1 4287   4.213   2.988   0.086
 1427TIP3    H2 4288   4.326   3.088   0.076
 1428TIP3   OH2 4289   6.305   1.117   4.114
 1428TIP3    H1 4290   6.344   1.182   4.055
 1428TIP3    H2 4291   6.352   1.129   4.197
 1429TIP3   OH2 4292   1.425   2.720   3.307
 1429TIP3    H1 4293   1.513   2.746   3.282
 1429TIP3    H2 4294   1.371   2.746   3.232
 1430TIP3   OH2 4295   4.607   1.449   2.578
 1430TIP3    H1 4296   4.684   1.485   2.623
 1430TIP3    H2 4297   4.556   1.408   2.648
 1431TIP3   OH2 4298   2.514   2.747   0.916
 1431TIP3    H1 4299   2.526   2.841   0.930
 1431TIP3    H2 4300   2.592   2.719   0.869
 1432TIP3   OH2 4301   2.656   0.494   1.976
 1432TIP3    H1 4302   2.691   0.491   1.887
 1432TIP3    H2 4303   2.583   0.556   1.971
 1433TIP3   OH2 4304   1.712   4.553   1.694
 1433TIP3    H1 4305   1.684   4.462   1.707
 1433TIP3    H2 4306   1.711   4.591   1.782
 1434TIP3   OH2 4307   4.574   3.730   3.922
 1434TIP3    H1 4308   4.529   3.663   3.871
 1434TIP3    H2 4309   4.588   3.802   3.860
 1435TIP3   OH2 4310   2.670   2.844   2.124
 1435TIP3    H1 4311   2.758   2.874   2.149
 1435TIP3    H2 4312   2.625   2.831   2.207
 1436TIP3   OH2 4313   1.235   1.634   4.975
 1436TIP3    H1 4314   1.311   1.583   4.945
 1436TIP3    H2 4315   1.272   1.718   5.003
 1437TIP3   OH2 4316   2.008   2.703   5.132
 1437TIP3    H1 4317   1.979   2.672   5.217
 1437TIP3    H2 4318   2.069   2.775   5.152
 1438TIP3   OH2 4319   1.049   5.477   2.218
 1438TIP3    H1 4320   0.964   5.487   2.174
 1438TIP3    H2 4321   1.087   5.398   2.179
 1439TIP3   OH2 4322   1.742   2.178  -0.005
 1439TIP3    H1 4323   1.730   2.146  -0.094
 1439TIP3    H2 4324   1.753   2.272  -0.014
 1440TIP3   OH2 4325   0.448   5.504   1.755
 1440TIP3    H1 4326   0.378   5.566   1.735
 1440TIP3    H2 4327   0.472   5.467   1.670
 1441TIP3   OH2 4328   1.948   1.243   0.533
 1441TIP3    H1 4329   2.016   1.187   0.570
 1441TIP3    H2 4330   1.897   1.184   0.477
 1442TIP3   OH2 4331   0.498   1.172   2.915
 1442TIP3    H1 4332   0.522   1.174   2.823
 1442TIP3    H2 4333   0.433   1.101   2.922
 1443TIP3   OH2 4334   2.254   5.014   1.355
 1443TIP3    H1 4335   2.330   5.072   1.347
 1443TIP3    H2 4336   2.203   5.029   1.276
 1444TIP3   OH2 4337   1.788   2.926   5.064
 1444TIP3    H1 4338   1.823   2.932   4.976
 1444TIP3    H2 4339   1.846   2.865   5.110
 1445TIP3   OH2 4340   0.844   2.490   3.850
 1445TIP3    H1 4341   0.891   2.462   3.772
 1445TIP3    H2 4342   0.897   2.561   3.885
 1446TIP3   OH2 4343   3.578   5.819   1.982
 1446TIP3    H1 4344   3.670   5.792   1.983
 1446TIP3    H2 4345   3.580   5.908   1.947
 1447TIP3   OH2 4346   5.497   0.723   4.870
 1447TIP3    H1 4347   5.540   0.807   4.854
 1447TIP3    H2 4348   5.466   0.729   4.960
 1448TIP3   OH2 4349   3.429   5.871   3.301
 1448TIP3    H1 4350   3.420   5.775   3.297
 1448TIP3    H2 4351   3.482   5.893   3.224
 1449TIP3   OH2 4352   4.899   4.237   3.063
 1449TIP3    H1 4353   4.874   4.260   3.152
 1449TIP3    H2 4354   4.817   4.236   3.014
 1450TIP3   OH2 4355   3.778   5.752   2.973
 1450TIP3    H1 4356   3.760   5.710   2.889
 1450TIP3    H2 4357   3.772   5.681   3.037
 1451TIP3   OH2 4358   0.285   1.020   2.388
 1451TIP3    H1 4359   0.351   0.987   2.327
 1451TIP3    H2 4360   0.236   1.086   2.338
 1452TIP3   OH2 4361   2.193   0.899   4.745
 1452TIP3    H1 4362   2.277   0.858   4.725
 1452TIP3    H2 4363   2.128   0.844   4.703
 1453TIP3   OH2 4364   4.263   2.222   0.964
 1453TIP3    H1 4365   4.198   2.152   0.961
 1453TIP3    H2 4366   4.248   2.272   0.883
 1454TIP3   OH2 4367   1.495   0.346   2.711
 1454TIP3    H1 4368   1.483   0.273   2.771
 1454TIP3    H2 4369   1.445   0.418   2.750
 1455TIP3   OH2 4370   2.029   2.659   2.664
 1455TIP3    H1 4371   2.005   2.569   2.642
 1455TIP3    H2 4372   2.032   2.704   2.580
 1456TIP3   OH2 4373   5.007   5.773   1.566
 1456TIP3    H1 4374   5.003   5.796   1.659
 1456TIP3    H2 4375   5.101   5.770   1.547
 1457TIP3   OH2 4376   5.082   0.889   0.134
 1457TIP3    H1 4377   4.989   0.866   0.137
 1457TIP3    H2 4378   5.112   0.856   0.048
 1458TIP3   OH2 4379   1.639   4.962   4.647
 1458TIP3    H1 4380   1.608   5.023   4.715
 1458TIP3    H2 4381   1.594   4.880   4.667
 1459TIP3   OH2 4382   1.468   2.393   2.636
 1459TIP3    H1 4383   1.426   2.473   2.668
 1459TIP3    H2 4384   1.562   2.409   2.644
 1460TIP3   OH2 4385   1.449   0.083   4.264
 1460TIP3    H1 4386   1.530   0.086   4.213
 1460TIP3    H2 4387   1.475   0.103   4.353
 1461TIP3   OH2 4388   4.753   3.366   4.502
 1461TIP3    H1 4389   4.752   3.381   4.407
 1461TIP3    H2 4390   4.744   3.272   4.512
 1462TIP3   OH2 4391   1.133   4.395   1.078
 1462TIP3    H1 4392   1.170   4.309   1.098
 1462TIP3    H2 4393   1.208   4.455   1.083
 1463TIP3   OH2 4394   4.369   3.857   2.076
 1463TIP3    H1 4395   4.378   3.895   1.988
 1463TIP3    H2 4396   4.285   3.810   2.073
 1464TIP3   OH2 4397   5.130   5.195   1.827
 1464TIP3    H1 4398   5.208   5.141   1.836
 1464TIP3    H2 4399   5.151   5.255   1.756
 1465TIP3   OH2 4400   3.941   5.777   3.254
 1465TIP3    H1 4401   3.937   5.683   3.273
 1465TIP3    H2 4402   3.942   5.818   3.341
 1466TIP3   OH2 4403   5.255   5.921   0.466
 1466TIP3    H1 4404   5.293   5.915   0.554
 1466TIP3    H2 4405   5.315   5.871   0.411
 1467TIP3   OH2 4406   4.990   1.237   2.929
 1467TIP3    H1 4407   5.008   1.213   3.020
 1467TIP3    H2 4408   5.000   1.332   2.927
 1468TIP3   OH2 4409   1.991   4.222   3.345
 1468TIP3    H1 4410   2.069   4.276   3.336
 1468TIP3    H2 4411   2.025   4.132   3.351
 1469TIP3   OH2 4412   4.606   1.587   4.573
 1469TIP3    H1 4413   4.696   1.562   4.552
 1469TIP3    H2 4414   4.574   1.517   4.630
 1470TIP3   OH2 4415   2.511   5.792   0.016
 1470TIP3    H1 4416   2.519   5.713  -0.037
 1470TIP3    H2 4417   2.600   5.808   0.048
 1471TIP3   OH2 4418   6.226   0.043   3.187
 1471TIP3    H1 4419   6.187   0.130   3.196
 1471TIP3    H2 4420   6.320   0.058   3.190
 1472TIP3   OH2 4421   2.573   4.692   1.552
 1472TIP3    H1 4422   2.631   4.618   1.532
 1472TIP3    H2 4423   2.495   4.651   1.591
 1473TIP3   OH2 4424   3.709   1.884   1.498
 1473TIP3    H1 4425   3.654   1.806   1.503
 1473TIP3    H2 4426   3.689   1.933   1.578
 1474TIP3   OH2 4427   0.861   1.400   2.234
 1474TIP3    H1 4428   0.909   1.433   2.158
 1474TIP3    H2 4429   0.785   1.458   2.241
 1475TIP3   OH2 4430   1.750   5.242   4.497
 1475TIP3    H1 4431   1.777   5.166   4.445
 1475TIP3    H2 4432   1.804   5.238   4.575
 1476TIP3   OH2 4433   3.330   3.368   1.217
 1476TIP3    H1 4434   3.306   3.441   1.161
 1476TIP3    H2 4435   3.418   3.344   1.189
 1477TIP3   OH2 4436   2.715   2.887   0.476
 1477TIP3    H1 4437   2.642   2.835   0.510
 1477TIP3    H2 4438   2.792   2.850   0.520
 1478TIP3   OH2 4439   2.533   2.909   4.801
 1478TIP3    H1 4440   2.549   2.957   4.720
 1478TIP3    H2 4441   2.608   2.930   4.857
 1479TIP3   OH2 4442   2.014   4.592   3.821
 1479TIP3    H1 4443   1.993   4.523   3.885
 1479TIP3    H2 4444   2.054   4.661   3.874
 1480TIP3   OH2 4445   1.854   2.200   3.319
 1480TIP3    H1 4446   1.761   2.197   3.296
 1480TIP3    H2 4447   1.860   2.267   3.387
 1481TIP3   OH2 4448   2.426   5.289   3.769
 1481TIP3    H1 4449   2.332   5.269   3.765
 1481TIP3    H2 4450   2.447   5.287   3.862
 1482TIP3   OH2 4451   1.353   2.458   3.059
 1482TIP3    H1 4452   1.380   2.519   2.990
 1482TIP3    H2 4453   1.280   2.410   3.020
 1483TIP3   OH2 4454   4.165   4.268   0.634
 1483TIP3    H1 4455   4.218   4.322   0.576
 1483TIP3    H2 4456   4.114   4.213   0.574
 1484TIP3   OH2 4457   0.023   4.539   0.078
 1484TIP3    H1 4458   0.076   4.619   0.079
 1484TIP3    H2 4459  -0.058   4.564   0.033
 1485TIP3   OH2 4460   0.338   1.417   0.154
 1485TIP3    H1 4461   0.316   1.347   0.092
 1485TIP3    H2 4462   0.305   1.387   0.238
 1486TIP3   OH2 4463   4.946   2.878   4.888
 1486TIP3    H1 4464   4.943   2.968   4.919
 1486TIP3    H2 4465   4.967   2.826   4.965
 1487TIP3   OH2 4466   4.597   2.005   0.181
 1487TIP3    H1 4467   4.516   2.000   0.129
 1487TIP3    H2 4468   4.658   2.052   0.125
 1488TIP3   OH2 4469   5.621   4.929   4.756
 1488TIP3    H1 4470   5.547   4.976   4.718
 1488TIP3    H2 4471   5.689   4.933   4.689
 1489TIP3   OH2 4472   2.999   0.281   2.911
 1489TIP3    H1 4473   3.089   0.300   2.937
 1489TIP3    H2 4474   2.959   0.367   2.897
 1490TIP3   OH2 4475   3.213   4.315   1.793
 1490TIP3    H1 4476   3.177   4.404   1.793
 1490TIP3    H2 4477   3.308   4.328   1.799
 1491TIP3   OH2 4478   3.068   0.822   0.111
 1491TIP3    H1 4479   3.114   0.840   0.029
 1491TIP3    H2 4480   3.121   0.756   0.155
 1492TIP3   OH2 4481   3.077   2.402   1.100
 1492TIP3    H1 4482   3.042   2.392   1.012
 1492TIP3    H2 4483   3.138   2.329   1.110
 1493TIP3   OH2 4484   1.483   4.677   2.324
 1493TIP3    H1 4485   1.472   4.736   2.250
 1493TIP3    H2 4486   1.507   4.593   2.285
 1494TIP3   OH2 4487   5.862   1.217   2.068
 1494TIP3    H1 4488   5.821   1.148   2.015
 1494TIP3    H2 4489   5.792   1.249   2.124
 1495TIP3   OH2 4490   6.213   5.918   1.416
 1495TIP3    H1 4491   6.251   5.830   1.412
 1495TIP3    H2 4492   6.123   5.907   1.387
 1496TIP3   OH2 4493   2.846   3.877   1.076
 1496TIP3    H1 4494   2.935   3.907   1.056
 1496TIP3    H2 4495   2.790   3.929   1.019
 1497TIP3   OH2 4496   2.664   2.540   1.343
 1497TIP3    H1 4497   2.750   2.560   1.307
 1497TIP3    H2 4498   2.610   2.615   1.320
 1498TIP3   OH2 4499   1.786   3.319   4.179
 1498TIP3    H1 4500   1.856   3.328   4.243
 1498TIP3    H2 4501   1.709   3.297   4.232
 1499TIP3   OH2 4502   0.652   5.776   3.283
 1499TIP3    H1 4503   0.607   5.822   3.213
 1499TIP3    H2 4504   0.726   5.833   3.304
 1500TIP3   OH2 4505   4.610   3.638   1.927
 1500TIP3    H1 4506   4.671   3.696   1.882
 1500TIP3    H2 4507   4.528   3.688   1.931
 1501TIP3   OH2 4508   6.234   0.631   0.711
 1501TIP3    H1 4509   6.261   0.587   0.792
 1501TIP3    H2 4510   6.173   0.570   0.670
 1502TIP3   OH2 4511   1.488   1.786   1.875
 1502TIP3    H1 4512   1.493   1.851   1.944
 1502TIP3    H2 4513   1.545   1.715   1.904
 1503TIP3   OH2 4514   3.989   3.795   5.087
 1503TIP3    H1 4515   4.042   3.716   5.092
 1503TIP3    H2 4516   3.939   3.796   5.169
 1504TIP3   OH2 4517   2.465   0.423   3.391
 1504TIP3    H1 4518   2.395   0.477   3.355
 1504TIP3    H2 4519   2.544   0.474   3.379
 1505TIP3   OH2 4520   4.640   0.669   4.591
 1505TIP3    H1 4521   4.669   0.591   4.638
 1505TIP3    H2 4522   4.660   0.741   4.649
 1506TIP3   OH2 4523   5.159   2.640   3.825
 1506TIP3    H1 4524   5.150   2.720   3.774
 1506TIP3    H2 4525   5.246   2.607   3.802
 1507TIP3   OH2 4526   1.491   4.479   3.852
 1507TIP3    H1 4527   1.497   4.574   3.842
 1507TIP3    H2 4528   1.402   4.457   3.826
 1508TIP3   OH2 4529   2.664   3.477   2.162
 1508TIP3    H1 4530   2.604   3.448   2.231
 1508TIP3    H2 4531   2.698   3.396   2.124
 1509TIP3   OH2 4532   6.201   5.730   2.329
 1509TIP3    H1 4533   6.161   5.695   2.249
 1509TIP3    H2 4534   6.295   5.732   2.310
 1510TIP3   OH2 4535   5.224   2.243   0.368
 1510TIP3    H1 4536   5.249   2.322   0.320
 1510TIP3    H2 4537   5.177   2.276   0.445
 1511TIP3   OH2 4538   4.389   2.213   4.482
 1511TIP3    H1 4539   4.372   2.234   4.574
 1511TIP3    H2 4540   4.472   2.256   4.463
 1512TIP3   OH2 4541   2.300   5.490   4.681
 1512TIP3    H1 4542   2.333   5.578   4.660
 1512TIP3    H2 4543   2.267   5.457   4.597
 1513TIP3   OH2 4544   5.731   5.689   2.130
 1513TIP3    H1 4545   5.675   5.703   2.207
 1513TIP3    H2 4546   5.800   5.755   2.139
 1514TIP3   OH2 4547   2.789   0.930   4.704
 1514TIP3    H1 4548   2.749   0.904   4.621
 1514TIP3    H2 4549   2.881   0.909   4.694
 1515TIP3   OH2 4550   0.039   2.893   2.147
 1515TIP3    H1 4551   0.041   2.808   2.190
 1515TIP3    H2 4552   0.109   2.888   2.082
 1516TIP3   OH2 4553   4.698   5.161   3.570
 1516TIP3    H1 4554   4.654   5.085   3.608
 1516TIP3    H2 4555   4.670   5.160   3.478
 1517TIP3   OH2 4556   1.778   4.563   5.210
 1517TIP3    H1 4557   1.844   4.553   5.141
 1517TIP3    H2 4558   1.702   4.600   5.165
 1518TIP3   OH2 4559   2.356   4.615   3.888
 1518TIP3    H1 4560   2.340   4.528   3.851
 1518TIP3    H2 4561   2.373   4.670   3.812
 1519TIP3   OH2 4562   2.316   4.346   3.740
 1519TIP3    H1 4563   2.226   4.377   3.728
 1519TIP3    H2 4564   2.326   4.276   3.676
 1520TIP3   OH2 4565   0.360   1.747   4.654
 1520TIP3    H1 4566   0.267   1.729   4.666
 1520TIP3    H2 4567   0.366   1.784   4.565
 1521TIP3   OH2 4568   2.896   1.264   3.945
 1521TIP3    H1 4569   2.861   1.339   3.896
 1521TIP3    H2 4570   2.910   1.298   4.034
 1522TIP3   OH2 4571   0.065   4.738   1.424
 1522TIP3    H1 4572   0.060   4.751   1.330
 1522TIP3    H2 4573   0.071   4.826   1.460
 1523TIP3   OH2 4574   0.907   2.695   1.897
 1523TIP3    H1 4575   0.858   2.661   1.822
 1523TIP3    H2 4576   0.848   2.758   1.938
 1524TIP3   OH2 4577   4.909   1.770   1.906
 1524TIP3    H1 4578   4.818   1.784   1.880
 1524TIP3    H2 4579   4.904   1.707   1.978
 1525TIP3   OH2 4580   6.105   2.231   4.821
 1525TIP3    H1 4581   6.120   2.292   4.893
 1525TIP3    H2 4582   6.081   2.149   4.863
 1526TIP3   OH2 4583   0.664   2.862   1.368
 1526TIP3    H1 4584   0.722   2.853   1.292
 1526TIP3    H2 4585   0.659   2.773   1.404
 1527TIP3   OH2 4586   5.011   5.386   4.914
 1527TIP3    H1 4587   4.993   5.309   4.968
 1527TIP3    H2 4588   5.016   5.458   4.977
 1528TIP3   OH2 4589   5.567   2.947   4.928
 1528TIP3    H1 4590   5.625   2.990   4.990
 1528TIP3    H2 4591   5.596   2.978   4.842
 1529TIP3   OH2 4592   1.068   1.968   3.915
 1529TIP3    H1 4593   0.974   1.952   3.925
 1529TIP3    H2 4594   1.074   2.053   3.872
 1530TIP3   OH2 4595   0.239   0.067   2.947
 1530TIP3    H1 4596   0.186   0.108   2.879
 1530TIP3    H2 4597   0.299   0.009   2.899
 1531TIP3   OH2 4598   5.174   2.700   4.788
 1531TIP3    H1 4599   5.200   2.792   4.786
 1531TIP3    H2 4600   5.118   2.689   4.711
 1532TIP3   OH2 4601   1.028   3.639   1.688
 1532TIP3    H1 4602   1.095   3.573   1.673
 1532TIP3    H2 4603   1.077   3.719   1.708
 1533TIP3   OH2 4604   3.644   4.872   3.346
 1533TIP3    H1 4605   3.736   4.849   3.360
 1533TIP3    H2 4606   3.626   4.844   3.256
 1534TIP3   OH2 4607   6.111   0.683   3.805
 1534TIP3    H1 4608   6.063   0.666   3.887
 1534TIP3    H2 4609   6.121   0.778   3.803
 1535TIP3   OH2 4610   1.422   0.361   0.806
 1535TIP3    H1 4611   1.401   0.419   0.879
 1535TIP3    H2 4612   1.424   0.419   0.729
 1536TIP3   OH2 4613   4.742   5.125   2.019
 1536TIP3    H1 4614   4.668   5.139   1.960
 1536TIP3    H2 4615   4.807   5.078   1.966
 1537TIP3   OH2 4616   0.971   4.740   4.448
 1537TIP3    H1 4617   0.977   4.700   4.362
 1537TIP3    H2 4618   0.896   4.798   4.443
 1538TIP3   OH2 4619   1.971   3.546   0.180
 1538TIP3    H1 4620   1.887   3.554   0.135
 1538TIP3    H2 4621   2.006   3.462   0.151
 1539TIP3   OH2 4622   6.213   2.021   0.464
 1539TIP3    H1 4623   6.162   1.947   0.433
 1539TIP3    H2 4624   6.241   1.997   0.552
 1540TIP3   OH2 4625   4.423   0.358   1.737
 1540TIP3    H1 4626   4.466   0.356   1.822
 1540TIP3    H2 4627   4.329   0.362   1.759
 1541TIP3   OH2 4628   3.907   1.168   0.544
 1541TIP3    H1 4629   4.003   1.175   0.538
 1541TIP3    H2 4630   3.889   1.076   0.528
 1542TIP3   OH2 4631   5.805   5.740   1.389
 1542TIP3    H1 4632   5.892   5.756   1.353
 1542TIP3    H2 4633   5.819   5.673   1.457
 1543TIP3   OH2 4634   5.939   4.146   1.033
 1543TIP3    H1 4635   5.979   4.104   1.109
 1543TIP3    H2 4636   5.861   4.189   1.067
 1544TIP3   OH2 4637   5.726   2.926   4.547
 1544TIP3    H1 4638   5.724   2.833   4.566
 1544TIP3    H2 4639   5.813   2.942   4.511
 1545TIP3   OH2 4640   2.267   3.843   3.025
 1545TIP3    H1 4641   2.227   3.928   3.010
 1545TIP3    H2 4642   2.292   3.845   3.118
 1546TIP3   OH2 4643   0.920   5.399   0.757
 1546TIP3    H1 4644   0.874   5.320   0.730
 1546TIP3    H2 4645   0.851   5.461   0.779
 1547TIP3   OH2 4646   0.576   1.689   2.589
 1547TIP3    H1 4647   0.550   1.655   2.675
 1547TIP3    H2 4648   0.662   1.727   2.603
 1548TIP3   OH2 4649   1.835   4.679   1.491
 1548TIP3    H1 4650   1.846   4.619   1.418
 1548TIP3    H2 4651   1.785   4.629   1.556
 1549TIP3   OH2 4652   2.327   5.057   4.225
 1549TIP3    H1 4653   2.417   5.063   4.256
 1549TIP3    H2 4654   2.335   5.042   4.131
 1550TIP3   OH2 4655   2.041   5.499   4.766
 1550TIP3    H1 4656   2.012   5.560   4.834
 1550TIP3    H2 4657   2.137   5.507   4.765
 1551TIP3   OH2 4658   2.629   5.003   0.430
 1551TIP3    H1 4659   2.715   4.993   0.470
 1551TIP3    H2 4660   2.577   4.931   0.466
 1552TIP3   OH2 4661   3.365   2.408   3.158
 1552TIP3    H1 4662   3.353   2.407   3.063
 1552TIP3    H2 4663   3.392   2.497   3.178
 1553TIP3   OH2 4664   3.359   5.360   4.447
 1553TIP3    H1 4665   3.441   5.383   4.490
 1553TIP3    H2 4666   3.305   5.322   4.516
 1554TIP3   OH2 4667   3.869   2.767   2.196
 1554TIP3    H1 4668   3.905   2.742   2.281
 1554TIP3    H2 4669   3.835   2.686   2.159
 1555TIP3   OH2 4670   1.825   1.178   4.267
 1555TIP3    H1 4671   1.889   1.165   4.337
 1555TIP3    H2 4672   1.855   1.120   4.197
 1556TIP3   OH2 4673   2.664   4.584   4.724
 1556TIP3    H1 4674   2.607   4.534   4.783
 1556TIP3    H2 4675   2.605   4.645   4.681
 1557TIP3   OH2 4676   1.359   5.541   2.133
 1557TIP3    H1 4677   1.381   5.514   2.044
 1557TIP3    H2 4678   1.298   5.614   2.122
 1558TIP3   OH2 4679   5.964   3.146   0.355
 1558TIP3    H1 4680   5.902   3.079   0.327
 1558TIP3    H2 4681   5.993   3.187   0.274
 1559TIP3   OH2 4682   0.192   5.203   2.805
 1559TIP3    H1 4683   0.108   5.241   2.778
 1559TIP3    H2 4684   0.173   5.161   2.889
 1560TIP3   OH2 4685   4.821   2.680   2.756
 1560TIP3    H1 4686   4.883   2.621   2.714
 1560TIP3    H2 4687   4.742   2.674   2.702
 1561TIP3   OH2 4688   6.042   4.584   0.512
 1561TIP3    H1 4689   5.948   4.586   0.530
 1561TIP3    H2 4690   6.074   4.670   0.540
 1562TIP3   OH2 4691   4.089   5.116   2.420
 1562TIP3    H1 4692   4.025   5.139   2.488
 1562TIP3    H2 4693   4.045   5.048   2.369
 1563TIP3   OH2 4694   2.997   4.203   4.051
 1563TIP3    H1 4695   2.999   4.223   3.957
 1563TIP3    H2 4696   3.030   4.283   4.093
 1564TIP3   OH2 4697   6.046   0.083   0.993
 1564TIP3    H1 4698   6.052  -0.010   0.969
 1564TIP3    H2 4699   6.125   0.100   1.043
 1565TIP3   OH2 4700   3.349   3.696   3.914
 1565TIP3    H1 4701   3.321   3.781   3.948
 1565TIP3    H2 4702   3.379   3.648   3.991
 1566TIP3   OH2 4703   0.669   0.771   3.868
 1566TIP3    H1 4704   0.752   0.774   3.916
 1566TIP3    H2 4705   0.644   0.863   3.859
 1567TIP3   OH2 4706   1.671   4.009   3.022
 1567TIP3    H1 4707   1.656   4.041   3.111
 1567TIP3    H2 4708   1.766   4.012   3.011
 1568TIP3   OH2 4709   2.751   4.175   0.775
 1568TIP3    H1 4710   2.753   4.217   0.689
 1568TIP3    H2 4711   2.773   4.246   0.836
 1569TIP3   OH2 4712   2.068   2.726   0.401
 1569TIP3    H1 4713   1.996   2.745   0.461
 1569TIP3    H2 4714   2.033   2.660   0.341
 1570TIP3   OH2 4715   4.597   4.261   1.429
 1570TIP3    H1 4716   4.602   4.309   1.512
 1570TIP3    H2 4717   4.522   4.297   1.384
 1571TIP3   OH2 4718   5.555   0.270   3.213
 1571TIP3    H1 4719   5.554   0.207   3.141
 1571TIP3    H2 4720   5.636   0.250   3.260
 1572TIP3   OH2 4721   2.086   3.718   2.502
 1572TIP3    H1 4722   2.106   3.714   2.409
 1572TIP3    H2 4723   2.138   3.648   2.541
 1573TIP3   OH2 4724   5.572   0.346   3.652
 1573TIP3    H1 4725   5.628   0.269   3.666
 1573TIP3    H2 4726   5.596   0.378   3.565
 1574TIP3   OH2 4727   2.297   3.825   3.692
 1574TIP3    H1 4728   2.392   3.829   3.705
 1574TIP3    H2 4729   2.262   3.882   3.760
 1575TIP3   OH2 4730   5.602   1.918   1.046
 1575TIP3    H1 4731   5.552   1.840   1.069
 1575TIP3    H2 4732   5.554   1.990   1.086
 1576TIP3   OH2 4733   4.474   5.628   1.824
 1576TIP3    H1 4734   4.497   5.582   1.904
 1576TIP3    H2 4735   4.404   5.688   1.850
 1577TIP3   OH2 4736   2.160   3.407   1.896
 1577TIP3    H1 4737   2.079   3.405   1.844
 1577TIP3    H2 4738   2.219   3.346   1.851
 1578TIP3   OH2 4739   5.750   3.700   3.422
 1578TIP3    H1 4740   5.767   3.639   3.350
 1578TIP3    H2 4741   5.723   3.781   3.379
 1579TIP3   OH2 4742   5.809   0.331   2.665
 1579TIP3    H1 4743   5.904   0.347   2.672
 1579TIP3    H2 4744   5.786   0.364   2.578
 1580TIP3   OH2 4745   1.144   4.714   1.285
 1580TIP3    H1 4746   1.113   4.759   1.206
 1580TIP3    H2 4747   1.067   4.708   1.341
 1581TIP3   OH2 4748   4.800   0.012   4.265
 1581TIP3    H1 4749   4.839  -0.066   4.225
 1581TIP3    H2 4750   4.864   0.040   4.331
 1582TIP3   OH2 4751   0.007   5.581   2.958
 1582TIP3    H1 4752  -0.061   5.640   2.991
 1582TIP3    H2 4753   0.081   5.638   2.936
 1583TIP3   OH2 4754   2.485   0.342   4.485
 1583TIP3    H1 4755   2.486   0.382   4.572
 1583TIP3    H2 4756   2.392   0.337   4.463
 1584TIP3   OH2 4757   1.843   4.162   2.525
 1584TIP3    H1 4758   1.800   4.132   2.605
 1584TIP3    H2 4759   1.803   4.247   2.508
 1585TIP3   OH2 4760   5.092   2.552   3.527
 1585TIP3    H1 4761   5.036   2.486   3.568
 1585TIP3    H2 4762   5.180   2.513   3.527
 1586TIP3   OH2 4763   6.200   4.900   2.812
 1586TIP3    H1 4764   6.124   4.846   2.792
 1586TIP3    H2 4765   6.270   4.866   2.756
 1587TIP3   OH2 4766   1.972   1.467   3.637
 1587TIP3    H1 4767   2.010   1.466   3.550
 1587TIP3    H2 4768   1.993   1.381   3.674
 1588TIP3   OH2 4769   5.676   4.194   4.537
 1588TIP3    H1 4770   5.746   4.130   4.553
 1588TIP3    H2 4771   5.711   4.250   4.467
 1589TIP3   OH2 4772   1.324   2.332   4.464
 1589TIP3    H1 4773   1.286   2.402   4.412
 1589TIP3    H2 4774   1.416   2.328   4.436
 1590TIP3   OH2 4775   0.487   3.608   2.979
 1590TIP3    H1 4776   0.554   3.559   2.932
 1590TIP3    H2 4777   0.405   3.564   2.956
 1591TIP3   OH2 4778   2.498   1.776   2.391
 1591TIP3    H1 4779   2.533   1.850   2.441
 1591TIP3    H2 4780   2.515   1.700   2.446
 1592TIP3   OH2 4781   3.857   3.174   2.814
 1592TIP3    H1 4782   3.797   3.242   2.844
 1592TIP3    H2 4783   3.940   3.219   2.802
 1593TIP3   OH2 4784   4.437   1.243   2.770
 1593TIP3    H1 4785   4.531   1.260   2.774
 1593TIP3    H2 4786   4.430   1.147   2.770
 1594TIP3   OH2 4787   0.730   2.836   3.438
 1594TIP3    H1 4788   0.661   2.903   3.436
 1594TIP3    H2 4789   0.727   2.801   3.526
 1595TIP3   OH2 4790   1.345   2.541   0.707
 1595TIP3    H1 4791   1.375   2.625   0.739
 1595TIP3    H2 4792   1.417   2.508   0.653
 1596TIP3   OH2 4793   3.643   0.511   2.510
 1596TIP3    H1 4794   3.588   0.551   2.578
 1596TIP3    H2 4795   3.663   0.424   2.545
 1597TIP3   OH2 4796   2.099   5.676   1.653
 1597TIP3    H1 4797   2.089   5.613   1.724
 1597TIP3    H2 4798   2.078   5.626   1.574
 1598TIP3   OH2 4799   1.699   2.549   0.658
 1598TIP3    H1 4800   1.703   2.471   0.713
 1598TIP3    H2 4801   1.613   2.545   0.616
 1599TIP3   OH2 4802   3.274   2.167   5.116
 1599TIP3    H1 4803   3.354   2.216   5.097
 1599TIP3    H2 4804   3.263   2.109   5.040
 1600TIP3   OH2 4805   3.703   2.841   4.231
 1600TIP3    H1 4806   3.640   2.792   4.178
 1600TIP3    H2 4807   3.780   2.784   4.235
 1601TIP3   OH2 4808   5.424   3.257   4.577
 1601TIP3    H1 4809   5.391   3.225   4.493
 1601TIP3    H2 4810   5.365   3.329   4.600
 1602TIP3   OH2 4811   5.946   2.831   4.931
 1602TIP3    H1 4812   6.041   2.821   4.926
 1602TIP3    H2 4813   5.932   2.924   4.949
 1603TIP3   OH2 4814   6.225   0.395   0.168
 1603TIP3    H1 4815   6.213   0.400   0.073
 1603TIP3    H2 4816   6.145   0.355   0.201
 1604TIP3   OH2 4817   3.612   0.248   2.198
 1604TIP3    H1 4818   3.618   0.324   2.140
 1604TIP3    H2 4819   3.615   0.286   2.286
 1605TIP3   OH2 4820   0.523   5.089   2.816
 1605TIP3    H1 4821   0.522   5.035   2.895
 1605TIP3    H2 4822   0.604   5.066   2.771
 1606TIP3   OH2 4823   5.729   0.388   4.601
 1606TIP3    H1 4824   5.752   0.428   4.517
 1606TIP3    H2 4825   5.722   0.461   4.662
 1607TIP3   OH2 4826   3.441   1.637   0.580
 1607TIP3    H1 4827   3.442   1.569   0.648
 1607TIP3    H2 4828   3.533   1.651   0.559
 1608TIP3   OH2 4829   4.838   2.967   2.123
 1608TIP3    H1 4830   4.795   2.923   2.050
 1608TIP3    H2 4831   4.810   3.058   2.116
 1609TIP3   OH2 4832   5.059   3.755   4.935
 1609TIP3    H1 4833   4.971   3.793   4.937
 1609TIP3    H2 4834   5.048   3.667   4.970
 1610TIP3   OH2 4835   6.103   3.793   0.926
 1610TIP3    H1 4836   6.069   3.708   0.900
 1610TIP3    H2 4837   6.132   3.782   1.016
 1611TIP3   OH2 4838   3.567   3.265   4.341
 1611TIP3    H1 4839   3.626   3.340   4.330
 1611TIP3    H2 4840   3.550   3.234   4.252
 1612TIP3   OH2 4841   4.087   4.668   3.313
 1612TIP3    H1 4842   4.146   4.681   3.238
 1612TIP3    H2 4843   4.144   4.641   3.384
 1613TIP3   OH2 4844   0.961   3.892   4.573
 1613TIP3    H1 4845   0.919   3.967   4.614
 1613TIP3    H2 4846   0.889   3.846   4.529
 1614TIP3   OH2 4847   2.291   1.400   2.434
 1614TIP3    H1 4848   2.220   1.398   2.369
 1614TIP3    H2 4849   2.367   1.432   2.385
 1615TIP3   OH2 4850   2.762   4.916   3.598
 1615TIP3    H1 4851   2.856   4.931   3.605
 1615TIP3    H2 4852   2.722   4.996   3.633
 1616TIP3   OH2 4853   1.468   4.410   1.536
 1616TIP3    H1 4854   1.539   4.349   1.517
 1616TIP3    H2 4855   1.511   4.484   1.578
 1617TIP3   OH2 4856   6.318   2.369   4.425
 1617TIP3    H1 4857   6.287   2.337   4.340
 1617TIP3    H2 4858   6.354   2.455   4.406
 1618TIP3   OH2 4859   4.790   2.557   3.549
 1618TIP3    H1 4860   4.800   2.642   3.590
 1618TIP3    H2 4861   4.878   2.534   3.519
 1619TIP3   OH2 4862   4.610   4.659   1.721
 1619TIP3    H1 4863   4.623   4.751   1.697
 1619TIP3    H2 4864   4.698   4.625   1.736
 1620TIP3   OH2 4865   3.048   3.709   4.814
 1620TIP3    H1 4866   2.982   3.647   4.786
 1620TIP3    H2 4867   3.087   3.741   4.732
 1621TIP3   OH2 4868   5.468   5.027   1.340
 1621TIP3    H1 4869   5.457   4.935   1.316
 1621TIP3    H2 4870   5.452   5.029   1.435
 1622TIP3   OH2 4871   4.729   6.016   4.506
 1622TIP3    H1 4872   4.698   5.948   4.446
 1622TIP3    H2 4873   4.784   5.968   4.569
 1623TIP3   OH2 4874   0.857   4.066   3.490
 1623TIP3    H1 4875   0.888   4.065   3.400
 1623TIP3    H2 4876   0.934   4.091   3.541
 1624TIP3   OH2 4877   0.447   1.727   3.978
 1624TIP3    H1 4878   0.494   1.651   3.943
 1624TIP3    H2 4879   0.510   1.768   4.037
 1625TIP3   OH2 4880   0.821   2.386   1.570
 1625TIP3    H1 4881   0.851   2.477   1.572
 1625TIP3    H2 4882   0.778   2.377   1.485
 1626TIP3   OH2 4883   0.675   3.308   3.569
 1626TIP3    H1 4884   0.733   3.301   3.493
 1626TIP3    H2 4885   0.589   3.280   3.536
 1627TIP3   OH2 4886   5.760   0.746   0.425
 1627TIP3    H1 4887   5.792   0.779   0.341
 1627TIP3    H2 4888   5.809   0.664   0.439
 1628TIP3   OH2 4889   0.594   0.323   3.259
 1628TIP3    H1 4890   0.573   0.380   3.184
 1628TIP3    H2 4891   0.672   0.275   3.230
 1629TIP3   OH2 4892   0.554   1.000   4.406
 1629TIP3    H1 4893   0.609   0.948   4.465
 1629TIP3    H2 4894   0.488   0.939   4.375
 1630TIP3   OH2 4895   4.978   0.249   0.527
 1630TIP3    H1 4896   5.039   0.221   0.459
 1630TIP3    H2 4897   4.906   0.292   0.481
 1631TIP3   OH2 4898   1.295   0.228   0.464
 1631TIP3    H1 4899   1.324   0.138   0.474
 1631TIP3    H2 4900   1.376   0.279   0.457
 1632TIP3   OH2 4901   4.870   0.738   1.433
 1632TIP3    H1 4902   4.782   0.705   1.453
 1632TIP3    H2 4903   4.869   0.752   1.338
 1633TIP3   OH2 4904   5.672   2.208   4.189
 1633TIP3    H1 4905   5.614   2.267   4.141
 1633TIP3    H2 4906   5.636   2.206   4.278
 1634TIP3   OH2 4907   4.487   5.709   0.932
 1634TIP3    H1 4908   4.511   5.802   0.938
 1634TIP3    H2 4909   4.429   5.705   0.856
 1635TIP3   OH2 4910   2.908   3.905   5.036
 1635TIP3    H1 4911   2.970   3.889   4.965
 1635TIP3    H2 4912   2.826   3.866   5.005
 1636TIP3   OH2 4913   1.755   2.638   1.735
 1636TIP3    H1 4914   1.720   2.576   1.800
 1636TIP3    H2 4915   1.678   2.667   1.686
 1637TIP3   OH2 4916   3.661   2.919   2.096
 1637TIP3    H1 4917   3.735   2.912   2.035
 1637TIP3    H2 4918   3.693   2.877   2.176
 1638TIP3   OH2 4919   3.314   1.870   4.341
 1638TIP3    H1 4920   3.286   1.778   4.333
 1638TIP3    H2 4921   3.282   1.912   4.262
 1639TIP3   OH2 4922   0.195   0.660   2.836
 1639TIP3    H1 4923   0.139   0.732   2.808
 1639TIP3    H2 4924   0.168   0.643   2.927
 1640TIP3   OH2 4925   5.112   3.232   0.414
 1640TIP3    H1 4926   5.162   3.256   0.336
 1640TIP3    H2 4927   5.151   3.149   0.442
 1641TIP3   OH2 4928   4.342   5.708   2.292
 1641TIP3    H1 4929   4.332   5.779   2.355
 1641TIP3    H2 4930   4.424   5.666   2.315
 1642TIP3   OH2 4931   0.511   4.008   1.470
 1642TIP3    H1 4932   0.531   3.989   1.379
 1642TIP3    H2 4933   0.496   4.103   1.472
 1643TIP3   OH2 4934   4.959   3.853   4.519
 1643TIP3    H1 4935   4.872   3.819   4.542
 1643TIP3    H2 4936   4.957   3.861   4.424
 1644TIP3   OH2 4937   4.053   1.630   2.751
 1644TIP3    H1 4938   4.101   1.550   2.770
 1644TIP3    H2 4939   4.009   1.612   2.668
 1645TIP3   OH2 4940   6.260   3.705   3.086
 1645TIP3    H1 4941   6.235   3.666   3.003
 1645TIP3    H2 4942   6.329   3.648   3.120
 1646TIP3   OH2 4943   1.053   5.671   3.295
 1646TIP3    H1 4944   0.975   5.616   3.292
 1646TIP3    H2 4945   1.070   5.683   3.388
 1647TIP3   OH2 4946   0.073   3.952   2.929
 1647TIP3    H1 4947   0.002   3.888   2.915
 1647TIP3    H2 4948   0.032   4.022   2.979
 1648TIP3   OH2 4949   1.824   5.839   0.567
 1648TIP3    H1 4950   1.901   5.839   0.625
 1648TIP3    H2 4951   1.756   5.795   0.618
 1649TIP3   OH2 4952   2.957   0.197   1.975
 1649TIP3    H1 4953   2.973   0.165   1.886
 1649TIP3    H2 4954   2.862   0.204   1.982
 1650TIP3   OH2 4955   5.413   0.318   0.422
 1650TIP3    H1 4956   5.494   0.278   0.454
 1650TIP3    H2 4957   5.441   0.402   0.384
 1651TIP3   OH2 4958   2.622   4.650   0.374
 1651TIP3    H1 4959   2.556   4.598   0.420
 1651TIP3    H2 4960   2.572   4.710   0.320
 1652TIP3   OH2 4961   4.463   2.872   1.022
 1652TIP3    H1 4962   4.371   2.877   0.999
 1652TIP3    H2 4963   4.464   2.847   1.115
 1653TIP3   OH2 4964   5.253   1.767   1.880
 1653TIP3    H1 4965   5.238   1.709   1.805
 1653TIP3    H2 4966   5.348   1.765   1.893
 1654TIP3   OH2 4967   5.995   4.815   2.360
 1654TIP3    H1 4968   5.901   4.819   2.340
 1654TIP3    H2 4969   6.037   4.810   2.274
 1655TIP3   OH2 4970   4.630   2.541   2.567
 1655TIP3    H1 4971   4.609   2.450   2.546
 1655TIP3    H2 4972   4.698   2.565   2.504
 1656TIP3   OH2 4973   3.236   3.932   2.679
 1656TIP3    H1 4974   3.256   3.839   2.689
 1656TIP3    H2 4975   3.142   3.938   2.696
 1657TIP3   OH2 4976   5.720   2.959   0.001
 1657TIP3    H1 4977   5.794   2.907   0.033
 1657TIP3    H2 4978   5.695   3.013   0.076
 1658TIP3   OH2 4979   4.049   1.858   2.911
 1658TIP3    H1 4980   4.059   1.919   2.838
 1658TIP3    H2 4981   4.051   1.771   2.871
 1659TIP3   OH2 4982   1.116   4.751   2.197
 1659TIP3    H1 4983   1.167   4.671   2.185
 1659TIP3    H2 4984   1.133   4.779   2.287
 1660TIP3   OH2 4985   4.279   0.815   1.444
 1660TIP3    H1 4986   4.346   0.762   1.401
 1660TIP3    H2 4987   4.205   0.814   1.383
 1661TIP3   OH2 4988   2.039   5.036   1.530
 1661TIP3    H1 4989   1.975   5.000   1.468
 1661TIP3    H2 4990   2.122   5.034   1.481
 1662TIP3   OH2 4991   3.353   1.271   3.854
 1662TIP3    H1 4992   3.302   1.318   3.788
 1662TIP3    H2 4993   3.332   1.179   3.840
 1663TIP3   OH2 4994   1.824   2.486   1.111
 1663TIP3    H1 4995   1.830   2.391   1.125
 1663TIP3    H2 4996   1.914   2.516   1.107
 1664TIP3   OH2 4997   0.199   2.470   1.010
 1664TIP3    H1 4998   0.159   2.482   0.924
 1664TIP3    H2 4999   0.269   2.407   0.996
 1665TIP3   OH2 5000   4.905   0.539   0.412
 1665TIP3    H1 5001   4.847   0.520   0.338
 1665TIP3    H2 5002   4.887   0.630   0.434
 1666TIP3   OH2 5003   4.651   4.397   4.043
 1666TIP3    H1 5004   4.596   4.467   4.080
 1666TIP3    H2 5005   4.738   4.438   4.034
 1667TIP3   OH2 5006   4.337   2.647  -0.026
 1667TIP3    H1 5007   4.267   2.635  -0.090
 1667TIP3    H2 5008   4.373   2.559  -0.013
 1668TIP3   OH2 5009   0.436   5.944   2.439
 1668TIP3    H1 5010   0.357   5.997   2.434
 1668TIP3    H2 5011   0.406   5.858   2.470
 1669TIP3   OH2 5012   3.529   1.425   0.033
 1669TIP3    H1 5013   3.498   1.447  -0.055
 1669TIP3    H2 5014   3.556   1.334   0.027
 1670TIP3   OH2 5015   3.360   3.543   0.717
 1670TIP3    H1 5016   3.276   3.576   0.686
 1670TIP3    H2 5017   3.384   3.603   0.788
 1671TIP3   OH2 5018   6.273   5.360   2.430
 1671TIP3    H1 5019   6.205   5.365   2.497
 1671TIP3    H2 5020   6.226   5.373   2.348
 1672TIP3   OH2 5021   6.224   2.026   3.133
 1672TIP3    H1 5022   6.245   2.087   3.062
 1672TIP3    H2 5023   6.281   2.053   3.205
 1673TIP3   OH2 5024   5.701   2.861   0.541
 1673TIP3    H1 5025   5.708   2.772   0.577
 1673TIP3    H2 5026   5.607   2.878   0.536
 1674TIP3   OH2 5027   1.212   5.581   4.533
 1674TIP3    H1 5028   1.196   5.530   4.453
 1674TIP3    H2 5029   1.161   5.535   4.600
 1675TIP3   OH2 5030   5.383   4.610   0.508
 1675TIP3    H1 5031   5.424   4.653   0.432
 1675TIP3    H2 5032   5.432   4.643   0.583
 1676TIP3   OH2 5033   1.141   0.330   0.992
 1676TIP3    H1 5034   1.103   0.405   0.945
 1676TIP3    H2 5035   1.086   0.322   1.070
 1677TIP3   OH2 5036   1.203   2.365   1.425
 1677TIP3    H1 5037   1.248   2.281   1.417
 1677TIP3    H2 5038   1.177   2.387   1.336
 1678TIP3   OH2 5039   2.372   1.606   2.602
 1678TIP3    H1 5040   2.321   1.549   2.545
 1678TIP3    H2 5041   2.347   1.580   2.691
 1679TIP3   OH2 5042   3.981   3.170   0.989
 1679TIP3    H1 5043   3.966   3.191   1.081
 1679TIP3    H2 5044   3.904   3.203   0.943
 1680TIP3   OH2 5045   3.061   2.232   0.654
 1680TIP3    H1 5046   3.125   2.215   0.586
 1680TIP3    H2 5047   3.020   2.147   0.671
 1681TIP3   OH2 5048   0.504   3.583   1.542
 1681TIP3    H1 5049   0.432   3.521   1.553
 1681TIP3    H2 5050   0.582   3.535   1.569
 1682TIP3   OH2 5051   0.421  -0.021   4.928
 1682TIP3    H1 5052   0.337  -0.061   4.950
 1682TIP3    H2 5053   0.398   0.065   4.894
 1683TIP3   OH2 5054   3.562   0.300   1.334
 1683TIP3    H1 5055   3.635   0.340   1.381
 1683TIP3    H2 5056   3.582   0.313   1.242
 1684TIP3   OH2 5057   3.697   0.190   2.795
 1684TIP3    H1 5058   3.667   0.100   2.782
 1684TIP3    H2 5059   3.619   0.236   2.826
 1685TIP3   OH2 5060  -0.001   2.463   1.272
 1685TIP3    H1 5061   0.044   2.537   1.233
 1685TIP3    H2 5062   0.041   2.386   1.234
 1686TIP3   OH2 5063   3.548   5.011   1.975
 1686TIP3    H1 5064   3.521   5.077   2.039
 1686TIP3    H2 5065   3.539   4.928   2.021
 1687TIP3   OH2 5066   5.216   0.314   4.304
 1687TIP3    H1 5067   5.236   0.317   4.398
 1687TIP3    H2 5068   5.217   0.221   4.283
 1688TIP3   OH2 5069   5.214   3.197   2.803
 1688TIP3    H1 5070   5.206   3.141   2.880
 1688TIP3    H2 5071   5.181   3.142   2.731
 1689TIP3   OH2 5072   6.287   3.889   1.431
 1689TIP3    H1 5073   6.302   3.927   1.517
 1689TIP3    H2 5074   6.364   3.834   1.415
 1690TIP3   OH2 5075   4.221   4.636   3.781
 1690TIP3    H1 5076   4.196   4.699   3.713
 1690TIP3    H2 5077   4.139   4.593   3.804
 1691TIP3   OH2 5078   0.962   5.849   4.150
 1691TIP3    H1 5079   0.870   5.858   4.174
 1691TIP3    H2 5080   0.995   5.939   4.147
 1692TIP3   OH2 5081   3.473   4.433   4.427
 1692TIP3    H1 5082   3.392   4.406   4.470
 1692TIP3    H2 5083   3.474   4.384   4.345
 1693TIP3   OH2 5084   1.142   5.851   4.591
 1693TIP3    H1 5085   1.173   5.764   4.568
 1693TIP3    H2 5086   1.206   5.911   4.552
 1694TIP3   OH2 5087   0.467   3.387   3.949
 1694TIP3    H1 5088   0.427   3.468   3.981
 1694TIP3    H2 5089   0.536   3.417   3.889
 1695TIP3   OH2 5090   4.187   4.026   0.776
 1695TIP3    H1 5091   4.158   4.104   0.730
 1695TIP3    H2 5092   4.269   4.052   0.818
 1696TIP3   OH2 5093   1.820  -0.006   2.651
 1696TIP3    H1 5094   1.785  -0.014   2.739
 1696TIP3    H2 5095   1.887   0.062   2.658
 1697TIP3   OH2 5096   0.719   1.621   0.474
 1697TIP3    H1 5097   0.679   1.534   0.471
 1697TIP3    H2 5098   0.761   1.626   0.560
 1698TIP3   OH2 5099   1.192   4.923   1.961
 1698TIP3    H1 5100   1.148   4.849   1.918
 1698TIP3    H2 5101   1.171   4.913   2.054
 1699TIP3   OH2 5102   2.116   5.918   3.744
 1699TIP3    H1 5103   2.039   5.956   3.788
 1699TIP3    H2 5104   2.099   5.824   3.744
 1700TIP3   OH2 5105   4.886   2.302   2.477
 1700TIP3    H1 5106   4.835   2.246   2.535
 1700TIP3    H2 5107   4.966   2.252   2.460
 1701TIP3   OH2 5108   1.075   5.064   4.456
 1701TIP3    H1 5109   1.087   4.982   4.408
 1701TIP3    H2 5110   1.161   5.084   4.492
 1702TIP3   OH2 5111   0.844   2.177   4.918
 1702TIP3    H1 5112   0.879   2.124   4.846
 1702TIP3    H2 5113   0.910   2.246   4.932
 1703TIP3   OH2 5114   3.621   1.216   4.032
 1703TIP3    H1 5115   3.654   1.160   4.102
 1703TIP3    H2 5116   3.691   1.217   3.967
 1704TIP3   OH2 5117   2.836   5.192   4.502
 1704TIP3    H1 5118   2.773   5.130   4.463
 1704TIP3    H2 5119   2.806   5.278   4.473
 1705TIP3   OH2 5120   5.912   2.135   4.064
 1705TIP3    H1 5121   5.967   2.084   4.124
 1705TIP3    H2 5122   5.830   2.148   4.112
 1706TIP3   OH2 5123   3.113   2.986   2.141
 1706TIP3    H1 5124   3.197   2.953   2.173
 1706TIP3    H2 5125   3.127   3.079   2.128
 1707TIP3   OH2 5126   5.717   1.830   1.712
 1707TIP3    H1 5127   5.658   1.876   1.652
 1707TIP3    H2 5128   5.793   1.808   1.658
 1708TIP3   OH2 5129   1.044   2.267   2.472
 1708TIP3    H1 5130   1.117   2.232   2.523
 1708TIP3    H2 5131   1.046   2.219   2.389
 1709TIP3   OH2 5132   5.128   1.549   2.433
 1709TIP3    H1 5133   5.107   1.495   2.358
 1709TIP3    H2 5134   5.223   1.561   2.429
 1710TIP3   OH2 5135   1.013   0.163   1.285
 1710TIP3    H1 5136   1.040   0.079   1.248
 1710TIP3    H2 5137   0.923   0.149   1.314
 1711TIP3   OH2 5138   1.403   4.789   4.524
 1711TIP3    H1 5139   1.432   4.706   4.560
 1711TIP3    H2 5140   1.438   4.790   4.435
 1712TIP3   OH2 5141   3.795   0.762   2.490
 1712TIP3    H1 5142   3.887   0.739   2.502
 1712TIP3    H2 5143   3.787   0.851   2.526
 1713TIP3   OH2 5144   5.364   2.200   0.816
 1713TIP3    H1 5145   5.427   2.224   0.748
 1713TIP3    H2 5146   5.320   2.282   0.838
 1714TIP3   OH2 5147   2.468   1.306   2.919
 1714TIP3    H1 5148   2.533   1.296   2.850
 1714TIP3    H2 5149   2.431   1.218   2.930
 1715TIP3   OH2 5150   1.024   5.770   1.237
 1715TIP3    H1 5151   0.946   5.746   1.187
 1715TIP3    H2 5152   1.004   5.744   1.326
 1716TIP3   OH2 5153   0.760   3.955   2.240
 1716TIP3    H1 5154   0.799   3.967   2.154
 1716TIP3    H2 5155   0.827   3.910   2.291
 1717TIP3   OH2 5156   1.494   5.638   1.350
 1717TIP3    H1 5157   1.477   5.670   1.261
 1717TIP3    H2 5158   1.429   5.569   1.363
 1718TIP3   OH2 5159   2.247   1.489   1.222
 1718TIP3    H1 5160   2.186   1.487   1.149
 1718TIP3    H2 5161   2.216   1.420   1.281
 1719TIP3   OH2 5162   3.169   3.163   3.743
 1719TIP3    H1 5163   3.125   3.082   3.769
 1719TIP3    H2 5164   3.220   3.139   3.665
 1720TIP3   OH2 5165   1.301   0.174   1.322
 1720TIP3    H1 5166   1.362   0.217   1.263
 1720TIP3    H2 5167   1.215   0.195   1.287
 1721TIP3   OH2 5168   3.967   5.583   4.791
 1721TIP3    H1 5169   4.053   5.625   4.783
 1721TIP3    H2 5170   3.905   5.650   4.761
 1722TIP3   OH2 5171   0.085   3.106   2.921
 1722TIP3    H1 5172   0.029   3.152   2.859
 1722TIP3    H2 5173   0.070   3.151   3.004
 1723TIP3   OH2 5174   5.945   1.823   2.353
 1723TIP3    H1 5175   5.863   1.867   2.376
 1723TIP3    H2 5176   5.972   1.780   2.433
 1724TIP3   OH2 5177   5.796   1.113   1.394
 1724TIP3    H1 5178   5.882   1.154   1.381
 1724TIP3    H2 5179   5.735   1.187   1.398
 1725TIP3   OH2 5180   4.689   0.548   3.609
 1725TIP3    H1 5181   4.596   0.571   3.611
 1725TIP3    H2 5182   4.690   0.454   3.590
 1726TIP3   OH2 5183   2.654   1.256   3.609
 1726TIP3    H1 5184   2.676   1.286   3.521
 1726TIP3    H2 5185   2.733   1.211   3.640
 1727TIP3   OH2 5186   0.275   1.384   4.649
 1727TIP3    H1 5187   0.291   1.291   4.630
 1727TIP3    H2 5188   0.226   1.416   4.574
 1728TIP3   OH2 5189   4.792   3.292   4.067
 1728TIP3    H1 5190   4.733   3.366   4.076
 1728TIP3    H2 5191   4.863   3.310   4.128
 1729TIP3   OH2 5192   3.732   2.445   4.020
 1729TIP3    H1 5193   3.741   2.531   4.060
 1729TIP3    H2 5194   3.806   2.395   4.053
 1730TIP3   OH2 5195   1.098   4.193   0.842
 1730TIP3    H1 5196   1.143   4.128   0.789
 1730TIP3    H2 5197   1.091   4.270   0.786
 1731TIP3   OH2 5198   5.116   3.524   2.904
 1731TIP3    H1 5199   5.146   3.536   2.994
 1731TIP3    H2 5200   5.182   3.467   2.865
 1732TIP3   OH2 5201   5.797   4.882   0.592
 1732TIP3    H1 5202   5.829   4.925   0.671
 1732TIP3    H2 5203   5.866   4.819   0.570
 1733TIP3   OH2 5204   0.167   4.900   3.856
 1733TIP3    H1 5205   0.132   4.952   3.784
 1733TIP3    H2 5206   0.251   4.868   3.824
 1734TIP3   OH2 5207   2.494   3.502   2.712
 1734TIP3    H1 5208   2.522   3.421   2.754
 1734TIP3    H2 5209   2.472   3.560   2.785
 1735TIP3   OH2 5210   0.357   3.482   3.296
 1735TIP3    H1 5211   0.301   3.441   3.229
 1735TIP3    H2 5212   0.446   3.464   3.267
 1736TIP3   OH2 5213   0.065   1.448   4.848
 1736TIP3    H1 5214   0.134   1.394   4.811
 1736TIP3    H2 5215  -0.013   1.392   4.848
 1737TIP3   OH2 5216   3.347   2.367   0.645
 1737TIP3    H1 5217   3.367   2.319   0.565
 1737TIP3    H2 5218   3.253   2.381   0.642
 1738TIP3   OH2 5219   4.468   2.077   1.995
 1738TIP3    H1 5220   4.437   1.986   1.993
 1738TIP3    H2 5221   4.560   2.072   1.970
 1739TIP3   OH2 5222   4.515   0.326   1.236
 1739TIP3    H1 5223   4.518   0.342   1.330
 1739TIP3    H2 5224   4.453   0.254   1.226
 1740TIP3   OH2 5225   4.537   3.805   0.213
 1740TIP3    H1 5226   4.607   3.826   0.274
 1740TIP3    H2 5227   4.458   3.842   0.253
 1741TIP3   OH2 5228   2.549   2.567   4.085
 1741TIP3    H1 5229   2.585   2.534   4.003
 1741TIP3    H2 5230   2.535   2.489   4.139
 1742TIP3   OH2 5231   5.898   1.639   4.924
 1742TIP3    H1 5232   5.825   1.700   4.922
 1742TIP3    H2 5233   5.872   1.571   4.986
 1743TIP3   OH2 5234   3.551   1.753   4.701
 1743TIP3    H1 5235   3.645   1.761   4.689
 1743TIP3    H2 5236   3.538   1.662   4.726
 1744TIP3   OH2 5237   3.067   5.651   2.127
 1744TIP3    H1 5238   3.040   5.715   2.060
 1744TIP3    H2 5239   3.135   5.696   2.177
 1745TIP3   OH2 5240   2.116   0.459   3.706
 1745TIP3    H1 5241   2.112   0.480   3.613
 1745TIP3    H2 5242   2.208   0.437   3.722
 1746TIP3   OH2 5243   3.600   1.025   4.979
 1746TIP3    H1 5244   3.675   0.996   5.031
 1746TIP3    H2 5245   3.525   1.015   5.038
 1747TIP3   OH2 5246   6.222   5.498   5.095
 1747TIP3    H1 5247   6.139   5.492   5.049
 1747TIP3    H2 5248   6.273   5.424   5.063
 1748TIP3   OH2 5249   0.554   0.404   0.817
 1748TIP3    H1 5250   0.643   0.398   0.852
 1748TIP3    H2 5251   0.559   0.360   0.732
 1749TIP3   OH2 5252   3.176   0.023   3.153
 1749TIP3    H1 5253   3.166   0.028   3.058
 1749TIP3    H2 5254   3.128   0.098   3.186
 1750TIP3   OH2 5255   2.814   2.787   4.104
 1750TIP3    H1 5256   2.754   2.717   4.075
 1750TIP3    H2 5257   2.832   2.837   4.025
 1751TIP3   OH2 5258   4.442   3.195   2.792
 1751TIP3    H1 5259   4.375   3.132   2.818
 1751TIP3    H2 5260   4.522   3.143   2.786
 1752TIP3   OH2 5261   1.805   1.185   2.917
 1752TIP3    H1 5262   1.861   1.212   2.990
 1752TIP3    H2 5263   1.866   1.163   2.847
 1753TIP3   OH2 5264   3.960   5.501   3.648
 1753TIP3    H1 5265   3.870   5.469   3.651
 1753TIP3    H2 5266   3.979   5.526   3.739
 1754TIP3   OH2 5267   5.298   5.079   3.299
 1754TIP3    H1 5268   5.216   5.030   3.305
 1754TIP3    H2 5269   5.345   5.039   3.226
 1755TIP3   OH2 5270   4.678   4.985   0.951
 1755TIP3    H1 5271   4.735   5.031   0.890
 1755TIP3    H2 5272   4.590   5.005   0.921
 1756TIP3   OH2 5273   3.676   4.450   0.716
 1756TIP3    H1 5274   3.661   4.358   0.738
 1756TIP3    H2 5275   3.590   4.483   0.691
 1757TIP3   OH2 5276   1.833   5.196   3.045
 1757TIP3    H1 5277   1.761   5.136   3.065
 1757TIP3    H2 5278   1.890   5.190   3.121
 1758TIP3   OH2 5279   6.026   5.457   2.980
 1758TIP3    H1 5280   5.976   5.376   2.990
 1758TIP3    H2 5281   5.961   5.524   2.962
 1759TIP3   OH2 5282   6.217   5.356   3.395
 1759TIP3    H1 5283   6.270   5.365   3.474
 1759TIP3    H2 5284   6.236   5.435   3.345
 1760TIP3   OH2 5285   1.679   4.135   3.707
 1760TIP3    H1 5286   1.683   4.114   3.614
 1760TIP3    H2 5287   1.624   4.066   3.745
 1761TIP3   OH2 5288   5.976   0.528   3.235
 1761TIP3    H1 5289   5.924   0.540   3.314
 1761TIP3    H2 5290   5.915   0.490   3.171
 1762TIP3   OH2 5291   3.508   5.609   4.236
 1762TIP3    H1 5292   3.509   5.528   4.287
 1762TIP3    H2 5293   3.552   5.673   4.292
 1763TIP3   OH2 5294   2.311   4.172   4.878
 1763TIP3    H1 5295   2.362   4.226   4.818
 1763TIP3    H2 5296   2.223   4.210   4.876
 1764TIP3   OH2 5297   1.098   4.030   0.609
 1764TIP3    H1 5298   1.016   4.036   0.658
 1764TIP3    H2 5299   1.072   4.010   0.519
 1765TIP3   OH2 5300   3.668   4.437   0.088
 1765TIP3    H1 5301   3.743   4.477   0.045
 1765TIP3    H2 5302   3.613   4.405   0.017
 1766TIP3   OH2 5303   3.886   2.517   4.810
 1766TIP3    H1 5304   3.946   2.569   4.864
 1766TIP3    H2 5305   3.881   2.565   4.727
 1767TIP3   OH2 5306   5.395   5.648   3.454
 1767TIP3    H1 5307   5.424   5.581   3.517
 1767TIP3    H2 5308   5.304   5.624   3.436
 1768TIP3   OH2 5309   5.533   0.339   0.155
 1768TIP3    H1 5310   5.440   0.321   0.136
 1768TIP3    H2 5311   5.532   0.418   0.208
 1769TIP3   OH2 5312   1.747   1.223   3.570
 1769TIP3    H1 5313   1.729   1.316   3.582
 1769TIP3    H2 5314   1.713   1.203   3.483
 1770TIP3   OH2 5315   1.051   3.366   4.656
 1770TIP3    H1 5316   1.140   3.383   4.686
 1770TIP3    H2 5317   0.997   3.379   4.734
 1771TIP3   OH2 5318   4.273   1.379   1.349
 1771TIP3    H1 5319   4.327   1.301   1.360
 1771TIP3    H2 5320   4.189   1.346   1.317
 1772TIP3   OH2 5321   3.531   4.462   1.712
 1772TIP3    H1 5322   3.582   4.386   1.741
 1772TIP3    H2 5323   3.510   4.444   1.620
 1773TIP3   OH2 5324   4.531   0.030   3.997
 1773TIP3    H1 5325   4.557  -0.041   3.938
 1773TIP3    H2 5326   4.613   0.072   4.022
 1774TIP3   OH2 5327   3.120   1.268   1.743
 1774TIP3    H1 5328   3.198   1.214   1.730
 1774TIP3    H2 5329   3.123   1.333   1.673
 1775TIP3   OH2 5330   3.966   1.678   3.240
 1775TIP3    H1 5331   3.971   1.589   3.206
 1775TIP3    H2 5332   4.009   1.674   3.326
 1776TIP3   OH2 5333   3.925   3.877   0.435
 1776TIP3    H1 5334   3.962   3.789   0.443
 1776TIP3    H2 5335   3.842   3.864   0.390
 1777TIP3   OH2 5336   3.064   2.635   0.492
 1777TIP3    H1 5337   3.024   2.611   0.575
 1777TIP3    H2 5338   3.053   2.730   0.486
 1778TIP3   OH2 5339   2.016   3.939   3.355
 1778TIP3    H1 5340   1.984   3.944   3.445
 1778TIP3    H2 5341   2.084   3.872   3.358
 1779TIP3   OH2 5342   3.078   5.349   5.127
 1779TIP3    H1 5343   3.136   5.278   5.153
 1779TIP3    H2 5344   3.116   5.384   5.047
 1780TIP3   OH2 5345   4.178   1.253   1.703
 1780TIP3    H1 5346   4.249   1.204   1.661
 1780TIP3    H2 5347   4.171   1.215   1.790
 1781TIP3   OH2 5348   2.188   3.975   3.875
 1781TIP3    H1 5349   2.131   4.038   3.832
 1781TIP3    H2 5350   2.154   3.969   3.964
 1782TIP3   OH2 5351   2.658   2.882   3.347
 1782TIP3    H1 5352   2.693   2.967   3.375
 1782TIP3    H2 5353   2.601   2.903   3.273
 1783TIP3   OH2 5354   1.151   0.168  -0.041
 1783TIP3    H1 5355   1.137   0.115   0.038
 1783TIP3    H2 5356   1.128   0.257  -0.013
 1784TIP3   OH2 5357   4.845   3.381   2.908
 1784TIP3    H1 5358   4.935   3.348   2.911
 1784TIP3    H2 5359   4.848   3.453   2.845
 1785TIP3   OH2 5360   0.623   4.750   4.695
 1785TIP3    H1 5361   0.595   4.681   4.634
 1785TIP3    H2 5362   0.544   4.802   4.710
 1786TIP3   OH2 5363   2.013   2.910   1.926
 1786TIP3    H1 5364   1.977   2.948   1.846
 1786TIP3    H2 5365   2.072   2.978   1.960
 1787TIP3   OH2 5366   3.035   0.978   4.519
 1787TIP3    H1 5367   2.978   1.032   4.464
 1787TIP3    H2 5368   3.066   1.038   4.588
 1788TIP3   OH2 5369   4.376   0.578   0.388
 1788TIP3    H1 5370   4.295   0.617   0.359
 1788TIP3    H2 5371   4.424   0.556   0.308
 1789TIP3   OH2 5372   4.162   2.960   1.567
 1789TIP3    H1 5373   4.243   3.002   1.542
 1789TIP3    H2 5374   4.188   2.891   1.629
 1790TIP3   OH2 5375   1.417   5.567   2.681
 1790TIP3    H1 5376   1.416   5.512   2.603
 1790TIP3    H2 5377   1.327   5.567   2.712
 1791TIP3   OH2 5378   3.234   3.955   0.646
 1791TIP3    H1 5379   3.314   3.922   0.686
 1791TIP3    H2 5380   3.229   4.046   0.674
 1792TIP3   OH2 5381   4.042  -0.001   3.048
 1792TIP3    H1 5382   4.126  -0.008   3.002
 1792TIP3    H2 5383   3.992  -0.077   3.019
 1793TIP3   OH2 5384   5.733   0.373   4.163
 1793TIP3    H1 5385   5.725   0.289   4.118
 1793TIP3    H2 5386   5.651   0.382   4.211
 1794TIP3   OH2 5387   0.342   1.220   5.144
 1794TIP3    H1 5388   0.267   1.190   5.196
 1794TIP3    H2 5389   0.357   1.150   5.081
 1795TIP3   OH2 5390   0.111   0.705   1.464
 1795TIP3    H1 5391   0.034   0.758   1.481
 1795TIP3    H2 5392   0.097   0.625   1.514
 1796TIP3   OH2 5393   3.182   4.414   4.461
 1796TIP3    H1 5394   3.167   4.345   4.526
 1796TIP3    H2 5395   3.147   4.493   4.501
 1797TIP3   OH2 5396   1.394   0.545   2.073
 1797TIP3    H1 5397   1.345   0.570   2.151
 1797TIP3    H2 5398   1.329   0.543   2.003
 1798TIP3   OH2 5399   4.252   3.715   0.915
 1798TIP3    H1 5400   4.267   3.630   0.873
 1798TIP3    H2 5401   4.293   3.706   1.001
 1799TIP3   OH2 5402   2.470   5.751   4.193
 1799TIP3    H1 5403   2.481   5.844   4.172
 1799TIP3    H2 5404   2.407   5.719   4.129
 1800TIP3   OH2 5405   5.852   1.831   0.971
 1800TIP3    H1 5406   5.767   1.872   0.987
 1800TIP3    H2 5407   5.866   1.841   0.876
 1801TIP3   OH2 5408   1.104   5.508   4.770
 1801TIP3    H1 5409   1.040   5.570   4.806
 1801TIP3    H2 5410   1.177   5.511   4.831
 1802TIP3   OH2 5411   2.523   2.302   1.412
 1802TIP3    H1 5412   2.567   2.383   1.386
 1802TIP3    H2 5413   2.430   2.326   1.417
 1803TIP3   OH2 5414   0.182   4.401   1.692
 1803TIP3    H1 5415   0.189   4.440   1.605
 1803TIP3    H2 5416   0.250   4.445   1.744
 1804TIP3   OH2 5417   5.704   4.499   0.184
 1804TIP3    H1 5418   5.726   4.513   0.092
 1804TIP3    H2 5419   5.631   4.438   0.181
 1805TIP3   OH2 5420   1.837   2.784   3.816
 1805TIP3    H1 5421   1.873   2.748   3.897
 1805TIP3    H2 5422   1.913   2.797   3.760
 1806TIP3   OH2 5423   6.035   5.811   1.216
 1806TIP3    H1 5424   5.998   5.749   1.153
 1806TIP3    H2 5425   6.130   5.795   1.211
 1807TIP3   OH2 5426   1.077   5.328   1.642
 1807TIP3    H1 5427   1.054   5.419   1.663
 1807TIP3    H2 5428   1.102   5.290   1.726
 1808TIP3   OH2 5429   4.881   5.187   3.082
 1808TIP3    H1 5430   4.818   5.245   3.040
 1808TIP3    H2 5431   4.859   5.100   3.051
 1809TIP3   OH2 5432   3.613   3.216   0.270
 1809TIP3    H1 5433   3.692   3.251   0.228
 1809TIP3    H2 5434   3.636   3.127   0.293
 1810TIP3   OH2 5435   6.356   0.546   4.566
 1810TIP3    H1 5436   6.328   0.637   4.555
 1810TIP3    H2 5437   6.421   0.532   4.497
 1811TIP3   OH2 5438   6.060   1.450   2.190
 1811TIP3    H1 5439   6.014   1.494   2.119
 1811TIP3    H2 5440   6.037   1.358   2.181
 1812TIP3   OH2 5441   2.837   5.920   3.252
 1812TIP3    H1 5442   2.778   5.935   3.178
 1812TIP3    H2 5443   2.925   5.928   3.214
 1813TIP3   OH2 5444   1.306   2.207   3.949
 1813TIP3    H1 5445   1.214   2.224   3.930
 1813TIP3    H2 5446   1.318   2.237   4.039
 1814TIP3   OH2 5447   3.016   1.110   1.239
 1814TIP3    H1 5448   3.052   1.190   1.200
 1814TIP3    H2 5449   3.024   1.123   1.333
 1815TIP3   OH2 5450   5.954   1.913   2.954
 1815TIP3    H1 5451   5.946   1.890   3.047
 1815TIP3    H2 5452   6.029   1.863   2.923
 1816TIP3   OH2 5453   6.054   2.870   1.797
 1816TIP3    H1 5454   6.035   2.825   1.879
 1816TIP3    H2 5455   6.098   2.951   1.825
 1817TIP3   OH2 5456   2.755   3.795   0.362
 1817TIP3    H1 5457   2.843   3.831   0.366
 1817TIP3    H2 5458   2.726   3.792   0.453
 1818TIP3   OH2 5459   5.122   3.059   2.591
 1818TIP3    H1 5460   5.076   3.006   2.656
 1818TIP3    H2 5461   5.058   3.073   2.521
 1819TIP3   OH2 5462   1.319   1.091   0.134
 1819TIP3    H1 5463   1.257   1.047   0.075
 1819TIP3    H2 5464   1.326   1.180   0.098
 1820TIP3   OH2 5465   4.652   4.826   2.069
 1820TIP3    H1 5466   4.631   4.917   2.089
 1820TIP3    H2 5467   4.682   4.829   1.978
 1821TIP3   OH2 5468   2.468   0.768   3.535
 1821TIP3    H1 5469   2.445   0.802   3.448
 1821TIP3    H2 5470   2.533   0.700   3.517
 1822TIP3   OH2 5471   2.907   5.874   4.808
 1822TIP3    H1 5472   2.960   5.871   4.889
 1822TIP3    H2 5473   2.905   5.784   4.778
 1823TIP3   OH2 5474   2.805   0.979   0.065
 1823TIP3    H1 5475   2.822   0.886   0.045
 1823TIP3    H2 5476   2.884   1.008   0.110
 1824TIP3   OH2 5477   1.347   0.896   0.754
 1824TIP3    H1 5478   1.271   0.868   0.806
 1824TIP3    H2 5479   1.384   0.969   0.804
 1825TIP3   OH2 5480   4.205   0.428   1.141
 1825TIP3    H1 5481   4.285   0.464   1.104
 1825TIP3    H2 5482   4.191   0.477   1.222
 1826TIP3   OH2 5483   0.123   1.596   5.080
 1826TIP3    H1 5484   0.167   1.661   5.025
 1826TIP3    H2 5485   0.068   1.547   5.019
 1827TIP3   OH2 5486   2.827   4.248   4.478
 1827TIP3    H1 5487   2.795   4.217   4.393
 1827TIP3    H2 5488   2.798   4.339   4.483
 1828TIP3   OH2 5489   4.215   1.599   2.028
 1828TIP3    H1 5490   4.298   1.556   2.006
 1828TIP3    H2 5491   4.224   1.688   1.995
 1829TIP3   OH2 5492   5.715   4.005   0.250
 1829TIP3    H1 5493   5.805   4.037   0.253
 1829TIP3    H2 5494   5.671   4.049   0.322
 1830TIP3   OH2 5495   5.969   0.199   4.352
 1830TIP3    H1 5496   5.991   0.169   4.440
 1830TIP3    H2 5497   5.955   0.293   4.361
 1831TIP3   OH2 5498   2.775   3.291   4.729
 1831TIP3    H1 5499   2.830   3.218   4.700
 1831TIP3    H2 5500   2.748   3.266   4.818
 1832TIP3   OH2 5501   4.634   4.277   0.570
 1832TIP3    H1 5502   4.627   4.254   0.663
 1832TIP3    H2 5503   4.671   4.365   0.571
 1833TIP3   OH2 5504   1.966   0.320   3.143
 1833TIP3    H1 5505   1.873   0.311   3.164
 1833TIP3    H2 5506   1.978   0.413   3.124
 1834TIP3   OH2 5507   6.087   0.904   1.351
 1834TIP3    H1 5508   6.100   0.858   1.268
 1834TIP3    H2 5509   6.052   0.838   1.410
 1835TIP3   OH2 5510   4.720   1.819   1.490
 1835TIP3    H1 5511   4.672   1.840   1.410
 1835TIP3    H2 5512   4.652   1.790   1.551
 1836TIP3   OH2 5513   6.207   4.333   3.886
 1836TIP3    H1 5514   6.127   4.282   3.874
 1836TIP3    H2 5515   6.266   4.273   3.933
 1837TIP3   OH2 5516   4.739   3.359   0.377
 1837TIP3    H1 5517   4.753   3.357   0.283
 1837TIP3    H2 5518   4.680   3.286   0.394
 1838TIP3   OH2 5519   3.085   4.979   5.091
 1838TIP3    H1 5520   3.131   4.952   5.012
 1838TIP3    H2 5521   3.143   5.045   5.131
 1839TIP3   OH2 5522   5.688   4.280   3.253
 1839TIP3    H1 5523   5.689   4.213   3.321
 1839TIP3    H2 5524   5.647   4.356   3.294
 1840TIP3   OH2 5525   3.168   0.816   2.871
 1840TIP3    H1 5526   3.120   0.892   2.838
 1840TIP3    H2 5527   3.185   0.763   2.793
 1841TIP3   OH2 5528   4.543   1.288   2.351
 1841TIP3    H1 5529   4.509   1.201   2.371
 1841TIP3    H2 5530   4.544   1.334   2.435
 1842TIP3   OH2 5531   0.753   4.739   5.022
 1842TIP3    H1 5532   0.659   4.731   5.005
 1842TIP3    H2 5533   0.794   4.723   4.937
 1843TIP3   OH2 5534   1.394   5.466   3.218
 1843TIP3    H1 5535   1.473   5.443   3.169
 1843TIP3    H2 5536   1.322   5.447   3.158
 1844TIP3   OH2 5537   3.246   5.762   2.340
 1844TIP3    H1 5538   3.270   5.797   2.254
 1844TIP3    H2 5539   3.327   5.765   2.391
 1845TIP3   OH2 5540   1.018   4.269   4.042
 1845TIP3    H1 5541   0.991   4.196   3.985
 1845TIP3    H2 5542   1.025   4.231   4.129
 1846TIP3   OH2 5543   6.298   3.117   0.403
 1846TIP3    H1 5544   6.225   3.072   0.445
 1846TIP3    H2 5545   6.294   3.089   0.311
 1847TIP3   OH2 5546   2.592   1.100   1.529
 1847TIP3    H1 5547   2.552   1.037   1.589
 1847TIP3    H2 5548   2.681   1.114   1.564
 1848TIP3   OH2 5549   0.674   5.686   1.354
 1848TIP3    H1 5550   0.630   5.757   1.308
 1848TIP3    H2 5551   0.603   5.630   1.385
 1849TIP3   OH2 5552   3.680   1.272   4.323
 1849TIP3    H1 5553   3.689   1.364   4.345
 1849TIP3    H2 5554   3.664   1.228   4.407
 1850TIP3   OH2 5555   0.316   2.405   1.623
 1850TIP3    H1 5556   0.278   2.492   1.606
 1850TIP3    H2 5557   0.240   2.346   1.621
 1851TIP3   OH2 5558   1.609   3.498   4.640
 1851TIP3    H1 5559   1.699   3.468   4.656
 1851TIP3    H2 5560   1.566   3.424   4.597
 1852TIP3   OH2 5561   5.676   0.129   2.785
 1852TIP3    H1 5562   5.696   0.059   2.724
 1852TIP3    H2 5563   5.722   0.206   2.750
 1853TIP3   OH2 5564   0.487   2.139   4.466
 1853TIP3    H1 5565   0.544   2.122   4.391
 1853TIP3    H2 5566   0.443   2.055   4.482
 1854TIP3   OH2 5567   5.544   0.370   2.868
 1854TIP3    H1 5568   5.591   0.287   2.879
 1854TIP3    H2 5569   5.520   0.372   2.776
 1855TIP3   OH2 5570   0.876   1.101   5.230
 1855TIP3    H1 5571   0.886   1.189   5.194
 1855TIP3    H2 5572   0.799   1.065   5.186
 1856TIP3   OH2 5573   2.176   1.382   4.288
 1856TIP3    H1 5574   2.202   1.307   4.341
 1856TIP3    H2 5575   2.184   1.457   4.346
 1857TIP3   OH2 5576   0.051   4.690   4.268
 1857TIP3    H1 5577   0.018   4.601   4.256
 1857TIP3    H2 5578   0.094   4.710   4.185
 1858TIP3   OH2 5579   6.057   0.268   3.697
 1858TIP3    H1 5580   6.127   0.211   3.666
 1858TIP3    H2 5581   6.067   0.348   3.644
 1859TIP3   OH2 5582   5.464   1.828   0.601
 1859TIP3    H1 5583   5.413   1.832   0.682
 1859TIP3    H2 5584   5.550   1.862   0.625
 1860TIP3   OH2 5585   2.128   1.344   4.965
 1860TIP3    H1 5586   2.110   1.412   4.901
 1860TIP3    H2 5587   2.132   1.263   4.915
 1861TIP3   OH2 5588   4.631   5.468   2.647
 1861TIP3    H1 5589   4.695   5.399   2.662
 1861TIP3    H2 5590   4.572   5.431   2.581
 1862TIP3   OH2 5591   5.140   5.019   0.251
 1862TIP3    H1 5592   5.211   4.962   0.280
 1862TIP3    H2 5593   5.089   4.965   0.191
 1863TIP3   OH2 5594   3.500   4.994   4.350
 1863TIP3    H1 5595   3.451   4.916   4.323
 1863TIP3    H2 5596   3.581   4.990   4.300
 1864TIP3   OH2 5597   6.167   2.687   3.739
 1864TIP3    H1 5598   6.211   2.632   3.804
 1864TIP3    H2 5599   6.237   2.737   3.698
 1865TIP3   OH2 5600   4.518   2.919   2.432
 1865TIP3    H1 5601   4.585   2.888   2.370
 1865TIP3    H2 5602   4.465   2.841   2.450
 1866TIP3   OH2 5603   4.981   0.110   0.938
 1866TIP3    H1 5604   4.894   0.141   0.914
 1866TIP3    H2 5605   4.968   0.017   0.957
 1867TIP3   OH2 5606   2.684   1.685   4.579
 1867TIP3    H1 5607   2.605   1.648   4.540
 1867TIP3    H2 5608   2.652   1.746   4.646
 1868TIP3   OH2 5609   5.843   2.904   0.808
 1868TIP3    H1 5610   5.902   2.859   0.868
 1868TIP3    H2 5611   5.880   2.888   0.721
 1869TIP3   OH2 5612   5.341   0.665   0.590
 1869TIP3    H1 5613   5.285   0.634   0.518
 1869TIP3    H2 5614   5.279   0.692   0.658
 1870TIP3   OH2 5615   5.891   1.363   1.760
 1870TIP3    H1 5616   5.886   1.352   1.855
 1870TIP3    H2 5617   5.803   1.388   1.733
 1871TIP3   OH2 5618   0.680   5.328   0.386
 1871TIP3    H1 5619   0.722   5.309   0.302
 1871TIP3    H2 5620   0.588   5.302   0.373
 1872TIP3   OH2 5621   2.473   2.139   4.080
 1872TIP3    H1 5622   2.542   2.152   4.015
 1872TIP3    H2 5623   2.431   2.058   4.054
 1873TIP3   OH2 5624   4.410   2.653   3.234
 1873TIP3    H1 5625   4.470   2.587   3.201
 1873TIP3    H2 5626   4.325   2.628   3.199
 1874TIP3   OH2 5627   5.581   5.893   4.038
 1874TIP3    H1 5628   5.637   5.817   4.021
 1874TIP3    H2 5629   5.613   5.929   4.121
 1875TIP3   OH2 5630   2.952   1.637   4.123
 1875TIP3    H1 5631   2.915   1.683   4.198
 1875TIP3    H2 5632   2.923   1.546   4.134
 1876TIP3   OH2 5633   0.567   5.885   1.209
 1876TIP3    H1 5634   0.618   5.921   1.136
 1876TIP3    H2 5635   0.499   5.950   1.225
 1877TIP3   OH2 5636   1.333   0.574   3.265
 1877TIP3    H1 5637   1.303   0.646   3.321
 1877TIP3    H2 5638   1.391   0.523   3.322
 1878TIP3   OH2 5639   1.307   1.679   2.597
 1878TIP3    H1 5640   1.376   1.615   2.616
 1878TIP3    H2 5641   1.355   1.760   2.579
 1879TIP3   OH2 5642   2.722   0.546   0.162
 1879TIP3    H1 5643   2.723   0.515   0.253
 1879TIP3    H2 5644   2.810   0.527   0.130
 1880TIP3   OH2 5645   4.524   1.221   3.288
 1880TIP3    H1 5646   4.554   1.200   3.200
 1880TIP3    H2 5647   4.431   1.196   3.288
 1881TIP3   OH2 5648   4.830   5.055   2.676
 1881TIP3    H1 5649   4.809   5.147   2.688
 1881TIP3    H2 5650   4.762   5.008   2.724
 1882TIP3   OH2 5651   2.430   0.533   2.605
 1882TIP3    H1 5652   2.465   0.567   2.522
 1882TIP3    H2 5653   2.351   0.585   2.620
 1883TIP3   OH2 5654   0.033   2.467   0.463
 1883TIP3    H1 5655   0.128   2.458   0.463
 1883TIP3    H2 5656   0.003   2.408   0.394
 1884TIP3   OH2 5657   0.678   3.218   0.476
 1884TIP3    H1 5658   0.722   3.291   0.432
 1884TIP3    H2 5659   0.748   3.172   0.522
 1885TIP3   OH2 5660   5.015   4.812   0.776
 1885TIP3    H1 5661   5.014   4.906   0.755
 1885TIP3    H2 5662   5.078   4.774   0.715
 1886TIP3   OH2 5663   1.175   0.362   2.274
 1886TIP3    H1 5664   1.114   0.304   2.319
 1886TIP3    H2 5665   1.171   0.335   2.182
 1887TIP3   OH2 5666   2.510   0.950   0.534
 1887TIP3    H1 5667   2.525   0.951   0.440
 1887TIP3    H2 5668   2.457   0.871   0.549
 1888TIP3   OH2 5669   4.161   0.835   0.046
 1888TIP3    H1 5670   4.253   0.841   0.020
 1888TIP3    H2 5671   4.161   0.855   0.140
 1889TIP3   OH2 5672   2.844   3.179   4.312
 1889TIP3    H1 5673   2.797   3.098   4.329
 1889TIP3    H2 5674   2.928   3.150   4.276
 1890TIP3   OH2 5675   5.862   3.580   0.287
 1890TIP3    H1 5676   5.832   3.560   0.198
 1890TIP3    H2 5677   5.957   3.589   0.279
 1891TIP3   OH2 5678   1.091   5.264   3.423
 1891TIP3    H1 5679   1.105   5.228   3.336
 1891TIP3    H2 5680   1.173   5.249   3.469
 1892TIP3   OH2 5681   6.058   2.188   4.544
 1892TIP3    H1 5682   5.964   2.193   4.529
 1892TIP3    H2 5683   6.068   2.216   4.635
 1893TIP3   OH2 5684   0.682   0.850   4.156
 1893TIP3    H1 5685   0.675   0.944   4.139
 1893TIP3    H2 5686   0.754   0.841   4.218
 1894TIP3   OH2 5687   4.712   5.501   4.487
 1894TIP3    H1 5688   4.684   5.409   4.493
 1894TIP3    H2 5689   4.696   5.525   4.396
 1895TIP3   OH2 5690   0.164   5.834   1.855
 1895TIP3    H1 5691   0.074   5.803   1.864
 1895TIP3    H2 5692   0.159   5.927   1.877
 1896TIP3   OH2 5693   1.667   0.407   1.003
 1896TIP3    H1 5694   1.577   0.373   1.000
 1896TIP3    H2 5695   1.656   0.502   0.989
 1897TIP3   OH2 5696   0.809   2.826   0.040
 1897TIP3    H1 5697   0.859   2.906   0.027
 1897TIP3    H2 5698   0.718   2.854   0.042
 1898TIP3   OH2 5699   5.079   4.114   0.492
 1898TIP3    H1 5700   5.024   4.038   0.508
 1898TIP3    H2 5701   5.068   4.168   0.571
 1899TIP3   OH2 5702   2.611   4.903   4.704
 1899TIP3    H1 5703   2.579   4.905   4.794
 1899TIP3    H2 5704   2.703   4.927   4.711
 1900TIP3   OH2 5705   4.054   1.208   4.461
 1900TIP3    H1 5706   3.993   1.152   4.413
 1900TIP3    H2 5707   4.088   1.269   4.395
 1901TIP3   OH2 5708   5.487   3.266   4.069
 1901TIP3    H1 5709   5.538   3.200   4.022
 1901TIP3    H2 5710   5.400   3.228   4.078
 1902TIP3   OH2 5711   5.118   4.651   0.534
 1902TIP3    H1 5712   5.205   4.652   0.495
 1902TIP3    H2 5713   5.065   4.600   0.472
 1903TIP3   OH2 5714   3.894   4.427   5.202
 1903TIP3    H1 5715   3.959   4.357   5.199
 1903TIP3    H2 5716   3.835   4.409   5.129
 1904TIP3   OH2 5717   3.478   3.380   5.085
 1904TIP3    H1 5718   3.412   3.409   5.148
 1904TIP3    H2 5719   3.450   3.292   5.060
 1905TIP3   OH2 5720   1.897   3.755   2.084
 1905TIP3    H1 5721   1.852   3.747   2.168
 1905TIP3    H2 5722   1.964   3.821   2.099
 1906TIP3   OH2 5723   5.019   0.126   0.108
 1906TIP3    H1 5724   4.949   0.183   0.140
 1906TIP3    H2 5725   5.003   0.119   0.014
 1907TIP3   OH2 5726   2.488   3.474   4.195
 1907TIP3    H1 5727   2.562   3.418   4.172
 1907TIP3    H2 5728   2.514   3.561   4.166
 1908TIP3   OH2 5729   1.267   4.863   2.775
 1908TIP3    H1 5730   1.309   4.927   2.718
 1908TIP3    H2 5731   1.273   4.781   2.728
 1909TIP3   OH2 5732   1.328   3.921   1.019
 1909TIP3    H1 5733   1.302   3.883   0.935
 1909TIP3    H2 5734   1.308   3.853   1.083
 1910TIP3   OH2 5735   0.394   4.800   5.017
 1910TIP3    H1 5736   0.339   4.850   5.077
 1910TIP3    H2 5737   0.426   4.864   4.954
 1911TIP3   OH2 5738   6.368   4.454   1.097
 1911TIP3    H1 5739   6.336   4.409   1.019
 1911TIP3    H2 5740   6.297   4.444   1.161
 1912TIP3   OH2 5741   5.141   1.509   3.001
 1912TIP3    H1 5742   5.227   1.486   2.967
 1912TIP3    H2 5743   5.151   1.509   3.096
 1913TIP3   OH2 5744   0.512   0.049   2.068
 1913TIP3    H1 5745   0.567   0.095   2.005
 1913TIP3    H2 5746   0.543   0.080   2.154
 1914TIP3   OH2 5747   6.297   0.975   4.791
 1914TIP3    H1 5748   6.255   1.011   4.713
 1914TIP3    H2 5749   6.383   1.018   4.793
 1915TIP3   OH2 5750   2.686   2.321   4.899
 1915TIP3    H1 5751   2.770   2.323   4.852
 1915TIP3    H2 5752   2.662   2.412   4.910
 1916TIP3   OH2 5753   5.147   5.036   1.333
 1916TIP3    H1 5754   5.053   5.019   1.335
 1916TIP3    H2 5755   5.163   5.078   1.248
 1917TIP3   OH2 5756   4.264   2.116   3.628
 1917TIP3    H1 5757   4.241   2.025   3.612
 1917TIP3    H2 5758   4.220   2.138   3.710
 1918TIP3   OH2 5759   0.913   5.615   4.933
 1918TIP3    H1 5760   0.850   5.676   4.896
 1918TIP3    H2 5761   0.939   5.653   5.016
 1919TIP3   OH2 5762   2.624   1.653   4.173
 1919TIP3    H1 5763   2.706   1.685   4.210
 1919TIP3    H2 5764   2.580   1.609   4.246
 1920TIP3   OH2 5765   0.593   2.083   0.344
 1920TIP3    H1 5766   0.548   2.031   0.412
 1920TIP3    H2 5767   0.632   2.017   0.286
 1921TIP3   OH2 5768   3.130   5.543   1.891
 1921TIP3    H1 5769   3.153   5.611   1.828
 1921TIP3    H2 5770   3.115   5.591   1.973
 1922TIP3   OH2 5771   1.072   2.400   1.178
 1922TIP3    H1 5772   1.001   2.373   1.119
 1922TIP3    H2 5773   1.146   2.344   1.154
 1923TIP3   OH2 5774   2.526   1.815   1.866
 1923TIP3    H1 5775   2.500   1.897   1.826
 1923TIP3    H2 5776   2.621   1.822   1.878
 1924TIP3   OH2 5777   5.259   4.764   1.816
 1924TIP3    H1 5778   5.211   4.791   1.737
 1924TIP3    H2 5779   5.319   4.697   1.784
 1925TIP3   OH2 5780   1.352   3.245   1.710
 1925TIP3    H1 5781   1.301   3.168   1.735
 1925TIP3    H2 5782   1.361   3.295   1.791
 1926TIP3   OH2 5783   4.132   1.038   2.295
 1926TIP3    H1 5784   4.179   1.020   2.376
 1926TIP3    H2 5785   4.076   1.113   2.316
 1927TIP3   OH2 5786   2.240   4.883   0.043
 1927TIP3    H1 5787   2.185   4.949   0.001
 1927TIP3    H2 5788   2.284   4.839  -0.030
 1928TIP3   OH2 5789   5.793   3.482   3.252
 1928TIP3    H1 5790   5.804   3.495   3.158
 1928TIP3    H2 5791   5.835   3.398   3.270
 1929TIP3   OH2 5792   5.605   5.632   4.140
 1929TIP3    H1 5793   5.582   5.666   4.227
 1929TIP3    H2 5794   5.534   5.571   4.119
 1930TIP3   OH2 5795   0.967   3.450   0.938
 1930TIP3    H1 5796   0.982   3.356   0.925
 1930TIP3    H2 5797   0.896   3.455   1.002
 1931TIP3   OH2 5798   3.615   1.294   3.032
 1931TIP3    H1 5799   3.536   1.252   3.065
 1931TIP3    H2 5800   3.617   1.274   2.939
 1932TIP3   OH2 5801   3.421   2.259   0.156
 1932TIP3    H1 5802   3.397   2.351   0.169
 1932TIP3    H2 5803   3.348   2.222   0.107
 1933TIP3   OH2 5804   0.065   4.925   2.625
 1933TIP3    H1 5805   0.080   4.999   2.566
 1933TIP3    H2 5806   0.017   4.861   2.572
 1934TIP3   OH2 5807   3.049   1.967   3.372
 1934TIP3    H1 5808   3.093   1.948   3.289
 1934TIP3    H2 5809   3.113   1.942   3.439
 1935TIP3   OH2 5810   0.675   0.112   4.790
 1935TIP3    H1 5811   0.637   0.042   4.736
 1935TIP3    H2 5812   0.733   0.066   4.851
 1936TIP3   OH2 5813   5.209   3.018   0.543
 1936TIP3    H1 5814   5.246   2.933   0.566
 1936TIP3    H2 5815   5.252   3.080   0.603
 1937TIP3   OH2 5816   2.323   0.598   2.017
 1937TIP3    H1 5817   2.300   0.625   2.106
 1937TIP3    H2 5818   2.308   0.676   1.964
 1938TIP3   OH2 5819   3.046   2.513   2.291
 1938TIP3    H1 5820   3.095   2.576   2.344
 1938TIP3    H2 5821   3.112   2.456   2.253
 1939TIP3   OH2 5822   2.137   3.127   2.074
 1939TIP3    H1 5823   2.185   3.209   2.062
 1939TIP3    H2 5824   2.186   3.079   2.140
 1940TIP3   OH2 5825   0.727   0.775   3.338
 1940TIP3    H1 5826   0.778   0.698   3.315
 1940TIP3    H2 5827   0.770   0.810   3.416
 1941TIP3   OH2 5828   3.216   1.579   1.189
 1941TIP3    H1 5829   3.235   1.595   1.281
 1941TIP3    H2 5830   3.133   1.625   1.173
 1942TIP3   OH2 5831   5.685   2.585   3.766
 1942TIP3    H1 5832   5.590   2.590   3.755
 1942TIP3    H2 5833   5.702   2.628   3.850
 1943TIP3   OH2 5834   2.809   4.379   5.083
 1943TIP3    H1 5835   2.827   4.323   5.159
 1943TIP3    H2 5836   2.811   4.318   5.009
 1944TIP3   OH2 5837   5.710   2.877   1.434
 1944TIP3    H1 5838   5.679   2.965   1.411
 1944TIP3    H2 5839   5.782   2.893   1.495
 1945TIP3   OH2 5840   1.650   5.672   2.291
 1945TIP3    H1 5841   1.620   5.725   2.217
 1945TIP3    H2 5842   1.588   5.691   2.361
 1946TIP3   OH2 5843   3.691   4.755   1.279
 1946TIP3    H1 5844   3.674   4.836   1.328
 1946TIP3    H2 5845   3.783   4.760   1.255
 1947TIP3   OH2 5846   1.136   2.508   0.474
 1947TIP3    H1 5847   1.066   2.489   0.536
 1947TIP3    H2 5848   1.212   2.527   0.528
 1948TIP3   OH2 5849   5.348   2.649   2.452
 1948TIP3    H1 5850   5.265   2.697   2.458
 1948TIP3    H2 5851   5.389   2.661   2.538
 1949TIP3   OH2 5852   5.019   4.332   0.037
 1949TIP3    H1 5853   5.055   4.318   0.125
 1949TIP3    H2 5854   4.929   4.302   0.043
 1950TIP3   OH2 5855   2.575   3.374   0.411
 1950TIP3    H1 5856   2.635   3.408   0.345
 1950TIP3    H2 5857   2.490   3.370   0.366
 1951TIP3   OH2 5858   3.302   0.874   4.077
 1951TIP3    H1 5859   3.339   0.915   4.155
 1951TIP3    H2 5860   3.297   0.781   4.100
 1952TIP3   OH2 5861   2.382   1.013   0.155
 1952TIP3    H1 5862   2.444   0.949   0.190
 1952TIP3    H2 5863   2.369   1.076   0.225
 1953TIP3   OH2 5864   6.293   3.745   4.933
 1953TIP3    H1 5865   6.223   3.791   4.978
 1953TIP3    H2 5866   6.357   3.813   4.911
 1954TIP3   OH2 5867   1.315   4.416   3.243
 1954TIP3    H1 5868   1.365   4.345   3.203
 1954TIP3    H2 5869   1.367   4.495   3.226
 1955TIP3   OH2 5870   5.167   2.449   1.167
 1955TIP3    H1 5871   5.182   2.477   1.257
 1955TIP3    H2 5872   5.196   2.358   1.165
 1956TIP3   OH2 5873   4.484   3.891   4.101
 1956TIP3    H1 5874   4.518   3.824   4.042
 1956TIP3    H2 5875   4.443   3.840   4.172
 1957TIP3   OH2 5876   5.376   0.483   1.757
 1957TIP3    H1 5877   5.295   0.523   1.789
 1957TIP3    H2 5878   5.349   0.396   1.726
 1958TIP3   OH2 5879   4.124   5.106   4.001
 1958TIP3    H1 5880   4.045   5.069   4.040
 1958TIP3    H2 5881   4.177   5.030   3.977
 1959TIP3   OH2 5882   6.216   5.421   0.527
 1959TIP3    H1 5883   6.219   5.378   0.442
 1959TIP3    H2 5884   6.301   5.464   0.535
 1960TIP3   OH2 5885   0.225   2.636   4.872
 1960TIP3    H1 5886   0.307   2.683   4.883
 1960TIP3    H2 5887   0.251   2.547   4.847
 1961TIP3   OH2 5888   2.416   5.803   3.790
 1961TIP3    H1 5889   2.501   5.831   3.757
 1961TIP3    H2 5890   2.360   5.797   3.713
 1962TIP3   OH2 5891   6.373   5.813   0.926
 1962TIP3    H1 5892   6.356   5.788   1.017
 1962TIP3    H2 5893   6.462   5.782   0.909
 1963TIP3   OH2 5894   0.919   1.217   3.878
 1963TIP3    H1 5895   0.917   1.204   3.973
 1963TIP3    H2 5896   0.919   1.128   3.842
 1964TIP3   OH2 5897   1.047   5.748   0.805
 1964TIP3    H1 5898   1.063   5.714   0.717
 1964TIP3    H2 5899   1.083   5.837   0.802
 1965TIP3   OH2 5900   3.940   0.122   4.304
 1965TIP3    H1 5901   3.953   0.048   4.244
 1965TIP3    H2 5902   4.024   0.169   4.303
 1966TIP3   OH2 5903   6.006   4.170   3.848
 1966TIP3    H1 5904   6.039   4.083   3.824
 1966TIP3    H2 5905   5.920   4.176   3.805
 1967TIP3   OH2 5906   4.166   5.498   2.331
 1967TIP3    H1 5907   4.223   5.574   2.323
 1967TIP3    H2 5908   4.225   5.424   2.349
 1968TIP3   OH2 5909   4.078   4.924   4.818
 1968TIP3    H1 5910   4.054   4.994   4.758
 1968TIP3    H2 5911   3.997   4.877   4.834
 1969TIP3   OH2 5912   1.071   1.111   2.183
 1969TIP3    H1 5913   1.064   1.059   2.103
 1969TIP3    H2 5914   1.004   1.075   2.241
 1970TIP3   OH2 5915   5.423   4.972   3.893
 1970TIP3    H1 5916   5.446   5.010   3.808
 1970TIP3    H2 5917   5.335   5.006   3.911
 1971TIP3   OH2 5918   4.958   2.996   1.331
 1971TIP3    H1 5919   4.977   3.079   1.288
 1971TIP3    H2 5920   5.038   2.975   1.379
 1972TIP3   OH2 5921   2.377   4.459   0.952
 1972TIP3    H1 5922   2.352   4.368   0.937
 1972TIP3    H2 5923   2.295   4.504   0.972
 1973TIP3   OH2 5924   3.433   2.954   3.926
 1973TIP3    H1 5925   3.370   3.021   3.953
 1973TIP3    H2 5926   3.400   2.923   3.842
 1974TIP3   OH2 5927   4.624   1.539   4.160
 1974TIP3    H1 5928   4.570   1.470   4.121
 1974TIP3    H2 5929   4.584   1.556   4.245
 1975TIP3   OH2 5930   0.969   4.002   3.781
 1975TIP3    H1 5931   0.975   3.963   3.868
 1975TIP3    H2 5932   0.956   3.928   3.722
 1976TIP3   OH2 5933   0.957   3.260   3.045
 1976TIP3    H1 5934   1.003   3.275   2.962
 1976TIP3    H2 5935   0.868   3.292   3.029
 1977TIP3   OH2 5936   1.700   3.977   0.230
 1977TIP3    H1 5937   1.780   3.965   0.178
 1977TIP3    H2 5938   1.711   3.919   0.305
 1978TIP3   OH2 5939   0.660   4.729   0.447
 1978TIP3    H1 5940   0.686   4.724   0.539
 1978TIP3    H2 5941   0.598   4.802   0.443
 1979TIP3   OH2 5942   2.119   4.484   3.004
 1979TIP3    H1 5943   2.108   4.478   2.909
 1979TIP3    H2 5944   2.196   4.540   3.015
 1980TIP3   OH2 5945   2.828   2.857   1.511
 1980TIP3    H1 5946   2.847   2.951   1.505
 1980TIP3    H2 5947   2.763   2.851   1.581
 1981TIP3   OH2 5948   5.001   1.940   0.682
 1981TIP3    H1 5949   4.984   1.919   0.590
 1981TIP3    H2 5950   4.952   1.874   0.731
 1982TIP3   OH2 5951   3.907   0.507   1.720
 1982TIP3    H1 5952   3.891   0.478   1.631
 1982TIP3    H2 5953   3.990   0.555   1.715
 1983TIP3   OH2 5954   2.471   3.554   0.611
 1983TIP3    H1 5955   2.520   3.497   0.551
 1983TIP3    H2 5956   2.496   3.643   0.586
 1984TIP3   OH2 5957   1.343   1.434   4.331
 1984TIP3    H1 5958   1.424   1.442   4.382
 1984TIP3    H2 5959   1.371   1.444   4.240
 1985TIP3   OH2 5960   4.961   4.934   2.940
 1985TIP3    H1 5961   4.972   4.865   3.006
 1985TIP3    H2 5962   4.870   4.927   2.912
 1986TIP3   OH2 5963   3.064   0.354   0.247
 1986TIP3    H1 5964   3.004   0.428   0.236
 1986TIP3    H2 5965   3.136   0.373   0.188
 1987TIP3   OH2 5966   0.951   0.580   3.213
 1987TIP3    H1 5967   0.956   0.539   3.127
 1987TIP3    H2 5968   1.027   0.638   3.216
 1988TIP3   OH2 5969   2.821   5.446   2.576
 1988TIP3    H1 5970   2.804   5.532   2.616
 1988TIP3    H2 5971   2.875   5.401   2.640
 1989TIP3   OH2 5972   2.917   0.115   0.178
 1989TIP3    H1 5973   2.963   0.192   0.213
 1989TIP3    H2 5974   2.922   0.125   0.083
 1990TIP3   OH2 5975   5.165   5.036   4.566
 1990TIP3    H1 5976   5.093   5.045   4.504
 1990TIP3    H2 5977   5.146   5.100   4.635
 1991TIP3   OH2 5978   3.133   3.524   3.857
 1991TIP3    H1 5979   3.094   3.492   3.775
 1991TIP3    H2 5980   3.219   3.559   3.830
 1992TIP3   OH2 5981   5.250   1.097   2.781
 1992TIP3    H1 5982   5.182   1.147   2.826
 1992TIP3    H2 5983   5.277   1.030   2.843
 1993TIP3   OH2 5984   5.412   5.449   1.629
 1993TIP3    H1 5985   5.477   5.379   1.618
 1993TIP3    H2 5986   5.331   5.403   1.652
 1994TIP3   OH2 5987   3.614   0.331   5.026
 1994TIP3    H1 5988   3.553   0.393   5.066
 1994TIP3    H2 5989   3.562   0.252   5.011
 1995TIP3   OH2 5990   3.804   5.725   5.090
 1995TIP3    H1 5991   3.797   5.680   5.175
 1995TIP3    H2 5992   3.762   5.665   5.028
 1996TIP3   OH2 5993   4.021   4.838   2.980
 1996TIP3    H1 5994   4.002   4.844   2.886
 1996TIP3    H2 5995   3.955   4.777   3.014
 1997TIP3   OH2 5996   2.458   4.096   4.191
 1997TIP3    H1 5997   2.462   4.093   4.286
 1997TIP3    H2 5998   2.427   4.184   4.170
 1998TIP3   OH2 5999   5.834   0.731   4.331
 1998TIP3    H1 6000   5.921   0.747   4.293
 1998TIP3    H2 6001   5.775   0.733   4.256
 1999TIP3   OH2 6002   2.314   4.803   0.997
 1999TIP3    H1 6003   2.266   4.815   0.915
 1999TIP3    H2 6004   2.401   4.841   0.980
 2000TIP3   OH2 6005   5.980   3.188   2.081
 2000TIP3    H1 6006   5.922   3.130   2.032
 2000TIP3    H2 6007   6.056   3.201   2.024
 2001TIP3   OH2 6008   1.796   3.572   0.441
 2001TIP3    H1 6009   1.761   3.538   0.359
 2001TIP3    H2 6010   1.773   3.505   0.506
 2002TIP3   OH2 6011   6.136   0.290   2.842
 2002TIP3    H1 6012   6.137   0.198   2.867
 2002TIP3    H2 6013   6.182   0.335   2.913
 2003TIP3   OH2 6014   3.128   2.019   1.794
 2003TIP3    H1 6015   3.065   1.985   1.857
 2003TIP3    H2 6016   3.075   2.066   1.730
 2004TIP3   OH2 6017   5.874   5.013   4.573
 2004TIP3    H1 6018   5.852   4.945   4.509
 2004TIP3    H2 6019   5.969   5.005   4.585
 2005TIP3   OH2 6020   2.268   5.780   0.137
 2005TIP3    H1 6021   2.353   5.762   0.095
 2005TIP3    H2 6022   2.278   5.868   0.173
 2006TIP3   OH2 6023   2.494   5.463   1.356
 2006TIP3    H1 6024   2.514   5.400   1.425
 2006TIP3    H2 6025   2.451   5.536   1.401
 2007TIP3   OH2 6026   0.814   3.118   3.808
 2007TIP3    H1 6027   0.738   3.071   3.840
 2007TIP3    H2 6028   0.777   3.190   3.756
 2008TIP3   OH2 6029   4.911   5.772   1.174
 2008TIP3    H1 6030   4.999   5.805   1.189
 2008TIP3    H2 6031   4.854   5.828   1.227
 2009TIP3   OH2 6032   5.899   4.248   4.111
 2009TIP3    H1 6033   5.993   4.240   4.132
 2009TIP3    H2 6034   5.889   4.202   4.028
 2010TIP3   OH2 6035  -0.053   5.729   1.167
 2010TIP3    H1 6036  -0.051   5.642   1.129
 2010TIP3    H2 6037  -0.010   5.720   1.252
 2011TIP3   OH2 6038   4.124   0.245   4.943
 2011TIP3    H1 6039   4.053   0.249   5.006
 2011TIP3    H2 6040   4.161   0.334   4.942
 2012TIP3   OH2 6041   1.191   5.474   0.680
 2012TIP3    H1 6042   1.177   5.390   0.638
 2012TIP3    H2 6043   1.106   5.497   0.718
 2013TIP3   OH2 6044   0.347   3.273   5.194
 2013TIP3    H1 6045   0.261   3.233   5.204
 2013TIP3    H2 6046   0.352   3.297   5.101
 2014TIP3   OH2 6047   5.722   1.765   4.235
 2014TIP3    H1 6048   5.692   1.713   4.310
 2014TIP3    H2 6049   5.734   1.853   4.270
 2015TIP3   OH2 6050   2.178   5.372   3.069
 2015TIP3    H1 6051   2.210   5.435   3.134
 2015TIP3    H2 6052   2.098   5.337   3.107
 2016TIP3   OH2 6053   5.218   3.374   1.593
 2016TIP3    H1 6054   5.287   3.415   1.542
 2016TIP3    H2 6055   5.262   3.342   1.672
 2017TIP3   OH2 6056   5.933   5.076   3.255
 2017TIP3    H1 6057   5.920   5.122   3.172
 2017TIP3    H2 6058   5.938   5.146   3.320
 2018TIP3   OH2 6059   4.181   2.483   4.245
 2018TIP3    H1 6060   4.178   2.542   4.171
 2018TIP3    H2 6061   4.271   2.489   4.278
 2019TIP3   OH2 6062   1.650   1.180   3.884
 2019TIP3    H1 6063   1.573   1.155   3.834
 2019TIP3    H2 6064   1.714   1.111   3.865
 2020TIP3   OH2 6065   1.640   5.587   1.618
 2020TIP3    H1 6066   1.548   5.590   1.591
 2020TIP3    H2 6067   1.646   5.509   1.673
 2021TIP3   OH2 6068   1.252   1.044   3.940
 2021TIP3    H1 6069   1.189   1.115   3.947
 2021TIP3    H2 6070   1.321   1.078   3.882
 2022TIP3   OH2 6071   3.888   4.569   0.231
 2022TIP3    H1 6072   3.871   4.663   0.230
 2022TIP3    H2 6073   3.804   4.529   0.207
 2023TIP3   OH2 6074   1.007   1.058  -0.013
 2023TIP3    H1 6075   0.934   1.060   0.048
 2023TIP3    H2 6076   1.030   1.150  -0.026
 2024TIP3   OH2 6077   1.674   2.725   4.159
 2024TIP3    H1 6078   1.698   2.813   4.188
 2024TIP3    H2 6079   1.584   2.714   4.188
 2025TIP3   OH2 6080   0.299   0.562   3.879
 2025TIP3    H1 6081   0.227   0.542   3.819
 2025TIP3    H2 6082   0.326   0.651   3.857
 2026TIP3   OH2 6083   2.430   5.203   1.241
 2026TIP3    H1 6084   2.465   5.159   1.163
 2026TIP3    H2 6085   2.468   5.290   1.238
 2027TIP3   OH2 6086   1.768   4.821   0.466
 2027TIP3    H1 6087   1.742   4.873   0.389
 2027TIP3    H2 6088   1.686   4.789   0.503
 2028TIP3   OH2 6089   2.873   2.220   3.744
 2028TIP3    H1 6090   2.881   2.126   3.727
 2028TIP3    H2 6091   2.940   2.260   3.688
 2029TIP3   OH2 6092   1.515   1.271   2.375
 2029TIP3    H1 6093   1.520   1.175   2.373
 2029TIP3    H2 6094   1.517   1.296   2.282
 2030TIP3   OH2 6095   6.249   5.722   4.403
 2030TIP3    H1 6096   6.194   5.713   4.481
 2030TIP3    H2 6097   6.187   5.730   4.330
 2031TIP3   OH2 6098   1.071   5.843   1.766
 2031TIP3    H1 6099   1.140   5.841   1.700
 2031TIP3    H2 6100   1.069   5.755   1.802
 2032TIP3   OH2 6101   5.784   3.066   5.098
 2032TIP3    H1 6102   5.817   3.087   5.011
 2032TIP3    H2 6103   5.863   3.049   5.150
 2033TIP3   OH2 6104   4.220   1.919   2.260
 2033TIP3    H1 6105   4.125   1.907   2.266
 2033TIP3    H2 6106   4.251   1.840   2.216
 2034TIP3   OH2 6107   0.553   1.302   4.436
 2034TIP3    H1 6108   0.530   1.286   4.345
 2034TIP3    H2 6109   0.641   1.340   4.432
 2035TIP3   OH2 6110   1.621   5.049   3.104
 2035TIP3    H1 6111   1.571   5.102   3.166
 2035TIP3    H2 6112   1.554   5.000   3.056
 2036TIP3   OH2 6113   5.051   1.059   4.644
 2036TIP3    H1 6114   5.113   1.123   4.609
 2036TIP3    H2 6115   5.062   1.065   4.739
 2037TIP3   OH2 6116  -0.020   0.477   1.685
 2037TIP3    H1 6117  -0.017   0.565   1.721
 2037TIP3    H2 6118   0.064   0.438   1.712
 2038TIP3   OH2 6119   0.313   2.424   0.458
 2038TIP3    H1 6120   0.365   2.365   0.513
 2038TIP3    H2 6121   0.377   2.464   0.399
 2039TIP3   OH2 6122   0.708   5.920   1.925
 2039TIP3    H1 6123   0.640   5.987   1.928
 2039TIP3    H2 6124   0.684   5.865   1.851
 2040TIP3   OH2 6125   3.547   5.625   2.338
 2040TIP3    H1 6126   3.592   5.541   2.353
 2040TIP3    H2 6127   3.475   5.603   2.280
 2041TIP3   OH2 6128   4.438   4.446   3.776
 2041TIP3    H1 6129   4.360   4.493   3.748
 2041TIP3    H2 6130   4.443   4.463   3.870
 2042TIP3   OH2 6131   2.414   4.356   4.534
 2042TIP3    H1 6132   2.440   4.397   4.452
 2042TIP3    H2 6133   2.449   4.413   4.602
 2043TIP3   OH2 6134   3.074   0.486   4.482
 2043TIP3    H1 6135   3.106   0.497   4.571
 2043TIP3    H2 6136   2.979   0.487   4.491
 2044TIP3   OH2 6137   3.694   2.493   1.167
 2044TIP3    H1 6138   3.684   2.578   1.125
 2044TIP3    H2 6139   3.605   2.470   1.196
 2045TIP3   OH2 6140   4.341   4.685   1.633
 2045TIP3    H1 6141   4.425   4.686   1.679
 2045TIP3    H2 6142   4.317   4.778   1.624
 2046TIP3   OH2 6143   2.851   4.213   1.237
 2046TIP3    H1 6144   2.763   4.223   1.273
 2046TIP3    H2 6145   2.889   4.139   1.284
 2047TIP3   OH2 6146   2.443   3.251   2.034
 2047TIP3    H1 6147   2.455   3.159   2.013
 2047TIP3    H2 6148   2.467   3.297   1.953
 2048TIP3   OH2 6149   2.202   3.679   2.261
 2048TIP3    H1 6150   2.276   3.736   2.245
 2048TIP3    H2 6151   2.203   3.616   2.188
 2049TIP3   OH2 6152   5.448   2.987   4.316
 2049TIP3    H1 6153   5.479   3.069   4.356
 2049TIP3    H2 6154   5.377   2.958   4.373
 2050TIP3   OH2 6155   3.693   1.332   0.662
 2050TIP3    H1 6156   3.741   1.305   0.583
 2050TIP3    H2 6157   3.761   1.345   0.728
 2051TIP3   OH2 6158   5.374   3.186   3.777
 2051TIP3    H1 6159   5.429   3.251   3.821
 2051TIP3    H2 6160   5.351   3.226   3.693
 2052TIP3   OH2 6161   2.406   4.180   2.641
 2052TIP3    H1 6162   2.492   4.147   2.616
 2052TIP3    H2 6163   2.350   4.103   2.646
 2053TIP3   OH2 6164   4.717   1.295   4.400
 2053TIP3    H1 6165   4.800   1.343   4.398
 2053TIP3    H2 6166   4.733   1.220   4.457
 2054TIP3   OH2 6167   0.065   2.022   1.697
 2054TIP3    H1 6168   0.085   2.004   1.789
 2054TIP3    H2 6169   0.069   2.118   1.690
 2055TIP3   OH2 6170   1.894   0.173  -0.027
 2055TIP3    H1 6171   1.828   0.158  -0.095
 2055TIP3    H2 6172   1.850   0.232   0.035
 2056TIP3   OH2 6173   0.058   4.124   5.106
 2056TIP3    H1 6174   0.041   4.218   5.102
 2056TIP3    H2 6175  -0.028   4.083   5.098
 2057TIP3   OH2 6176   2.340   2.859   2.651
 2057TIP3    H1 6177   2.348   2.935   2.594
 2057TIP3    H2 6178   2.279   2.886   2.719
 2058TIP3   OH2 6179   2.129   0.684   4.239
 2058TIP3    H1 6180   2.215   0.667   4.278
 2058TIP3    H2 6181   2.123   0.779   4.235
 2059TIP3   OH2 6182   1.723   4.699   1.012
 2059TIP3    H1 6183   1.707   4.633   1.080
 2059TIP3    H2 6184   1.672   4.669   0.937
 2060TIP3   OH2 6185   4.540   1.050   0.383
 2060TIP3    H1 6186   4.634   1.055   0.368
 2060TIP3    H2 6187   4.518   0.958   0.372
 2061TIP3   OH2 6188   2.681   4.574   3.191
 2061TIP3    H1 6189   2.680   4.583   3.095
 2061TIP3    H2 6190   2.772   4.593   3.215
 2062TIP3   OH2 6191   4.920   0.809   2.859
 2062TIP3    H1 6192   4.918   0.738   2.795
 2062TIP3    H2 6193   4.898   0.887   2.808
 2063TIP3   OH2 6194   1.948   3.311   3.930
 2063TIP3    H1 6195   1.922   3.363   4.005
 2063TIP3    H2 6196   2.041   3.294   3.943
 2064TIP3   OH2 6197   3.462   0.492   0.933
 2064TIP3    H1 6198   3.543   0.479   0.982
 2064TIP3    H2 6199   3.416   0.562   0.980
 2065TIP3   OH2 6200   5.590   1.176   2.678
 2065TIP3    H1 6201   5.513   1.123   2.658
 2065TIP3    H2 6202   5.656   1.147   2.615
 2066TIP3   OH2 6203   4.130   0.311   0.477
 2066TIP3    H1 6204   4.184   0.336   0.553
 2066TIP3    H2 6205   4.067   0.248   0.512
 2067TIP3   OH2 6206   4.356   1.890   4.368
 2067TIP3    H1 6207   4.391   1.900   4.456
 2067TIP3    H2 6208   4.281   1.949   4.365
 2068TIP3   OH2 6209   3.896   4.074   3.246
 2068TIP3    H1 6210   3.826   4.097   3.307
 2068TIP3    H2 6211   3.853   4.075   3.160
 2069TIP3   OH2 6212   5.914   1.257   4.963
 2069TIP3    H1 6213   5.978   1.188   4.945
 2069TIP3    H2 6214   5.847   1.247   4.895
 2070TIP3   OH2 6215   4.139   5.230   0.856
 2070TIP3    H1 6216   4.062   5.178   0.832
 2070TIP3    H2 6217   4.193   5.230   0.777
 2071TIP3   OH2 6218   4.899   5.779   0.746
 2071TIP3    H1 6219   4.981   5.734   0.727
 2071TIP3    H2 6220   4.839   5.749   0.678
 2072TIP3   OH2 6221   1.792   5.642   4.619
 2072TIP3    H1 6222   1.873   5.592   4.607
 2072TIP3    H2 6223   1.751   5.642   4.532
 2073TIP3   OH2 6224   1.228   4.949   1.517
 2073TIP3    H1 6225   1.213   4.886   1.587
 2073TIP3    H2 6226   1.267   4.898   1.446
 2074TIP3   OH2 6227   6.132   1.382   4.359
 2074TIP3    H1 6228   6.100   1.343   4.440
 2074TIP3    H2 6229   6.068   1.357   4.292
 2075TIP3   OH2 6230   0.281   5.505   3.854
 2075TIP3    H1 6231   0.336   5.547   3.920
 2075TIP3    H2 6232   0.217   5.572   3.830
 2076TIP3   OH2 6233   2.953   5.530   1.370
 2076TIP3    H1 6234   3.017   5.585   1.415
 2076TIP3    H2 6235   2.879   5.525   1.431
 2077TIP3   OH2 6236   5.202   1.884   2.883
 2077TIP3    H1 6237   5.226   1.846   2.799
 2077TIP3    H2 6238   5.107   1.874   2.888
 2078TIP3   OH2 6239   2.276   4.482   1.347
 2078TIP3    H1 6240   2.280   4.475   1.442
 2078TIP3    H2 6241   2.289   4.575   1.329
 2079TIP3   OH2 6242   0.399   5.261   2.595
 2079TIP3    H1 6243   0.371   5.333   2.538
 2079TIP3    H2 6244   0.490   5.246   2.572
 2080TIP3   OH2 6245   2.756   2.650   1.923
 2080TIP3    H1 6246   2.830   2.710   1.912
 2080TIP3    H2 6247   2.691   2.701   1.972
 2081TIP3   OH2 6248   3.313   3.477   4.534
 2081TIP3    H1 6249   3.405   3.495   4.514
 2081TIP3    H2 6250   3.300   3.386   4.507
 2082TIP3   OH2 6251   2.712   1.352   1.490
 2082TIP3    H1 6252   2.639   1.295   1.466
 2082TIP3    H2 6253   2.788   1.294   1.495
 2083TIP3   OH2 6254   4.339   3.728   4.272
 2083TIP3    H1 6255   4.290   3.695   4.347
 2083TIP3    H2 6256   4.283   3.707   4.197
 2084TIP3   OH2 6257   1.316   0.679   1.129
 2084TIP3    H1 6258   1.276   0.734   1.061
 2084TIP3    H2 6259   1.331   0.739   1.202
 2085TIP3   OH2 6260   5.223   1.283   1.445
 2085TIP3    H1 6261   5.202   1.300   1.537
 2085TIP3    H2 6262   5.143   1.244   1.409
 2086TIP3   OH2 6263   0.096   0.361   2.513
 2086TIP3    H1 6264   0.081   0.455   2.505
 2086TIP3    H2 6265   0.012   0.326   2.541
 2087TIP3   OH2 6266   3.206   3.353   3.239
 2087TIP3    H1 6267   3.225   3.330   3.148
 2087TIP3    H2 6268   3.262   3.296   3.291
 2088TIP3   OH2 6269   5.205   2.180   1.157
 2088TIP3    H1 6270   5.192   2.091   1.191
 2088TIP3    H2 6271   5.130   2.196   1.100
 2089TIP3   OH2 6272   5.675   5.197   4.993
 2089TIP3    H1 6273   5.650   5.286   5.020
 2089TIP3    H2 6274   5.594   5.159   4.959
 2090TIP3   OH2 6275   1.172   4.174   4.749
 2090TIP3    H1 6276   1.158   4.159   4.656
 2090TIP3    H2 6277   1.086   4.202   4.782
 2091TIP3   OH2 6278   0.833   3.706   3.851
 2091TIP3    H1 6279   0.867   3.725   3.763
 2091TIP3    H2 6280   0.911   3.682   3.902
 2092TIP3   OH2 6281   6.073   5.134   2.719
 2092TIP3    H1 6282   6.101   5.051   2.758
 2092TIP3    H2 6283   6.076   5.118   2.624
 2093TIP3   OH2 6284  -0.004   5.676   1.418
 2093TIP3    H1 6285   0.020   5.584   1.423
 2093TIP3    H2 6286   0.079   5.723   1.414
 2094TIP3   OH2 6287   1.405   4.671   1.639
 2094TIP3    H1 6288   1.321   4.697   1.676
 2094TIP3    H2 6289   1.467   4.736   1.671
 2095TIP3   OH2 6290   5.232   0.757   2.635
 2095TIP3    H1 6291   5.309   0.809   2.657
 2095TIP3    H2 6292   5.225   0.693   2.706
 2096TIP3   OH2 6293   3.411   2.768   5.103
 2096TIP3    H1 6294   3.321   2.785   5.132
 2096TIP3    H2 6295   3.408   2.679   5.069
 2097TIP3   OH2 6296   5.248   4.724   3.899
 2097TIP3    H1 6297   5.312   4.793   3.881
 2097TIP3    H2 6298   5.295   4.661   3.953
 2098TIP3   OH2 6299   5.286   0.158   3.616
 2098TIP3    H1 6300   5.209   0.105   3.593
 2098TIP3    H2 6301   5.356   0.124   3.560
 2099TIP3   OH2 6302   3.077   5.558   3.487
 2099TIP3    H1 6303   3.109   5.468   3.489
 2099TIP3    H2 6304   2.993   5.555   3.533
 2100TIP3   OH2 6305   2.096   3.233   4.375
 2100TIP3    H1 6306   2.075   3.154   4.326
 2100TIP3    H2 6307   2.192   3.239   4.371
 2101TIP3   OH2 6308   2.720   0.198   4.647
 2101TIP3    H1 6309   2.714   0.148   4.565
 2101TIP3    H2 6310   2.773   0.143   4.705
 2102TIP3   OH2 6311   5.043   5.497   0.959
 2102TIP3    H1 6312   4.973   5.485   0.896
 2102TIP3    H2 6313   5.123   5.479   0.910
 2103TIP3   OH2 6314   1.582   1.150   2.127
 2103TIP3    H1 6315   1.596   1.065   2.086
 2103TIP3    H2 6316   1.670   1.188   2.134
 2104TIP3   OH2 6317   3.742   5.587   1.719
 2104TIP3    H1 6318   3.687   5.648   1.670
 2104TIP3    H2 6319   3.685   5.556   1.790
 2105TIP3   OH2 6320   2.495   0.052   3.700
 2105TIP3    H1 6321   2.520   0.028   3.610
 2105TIP3    H2 6322   2.455   0.139   3.691
 2106TIP3   OH2 6323   5.924   5.851   4.786
 2106TIP3    H1 6324   5.946   5.792   4.857
 2106TIP3    H2 6325   5.986   5.923   4.793
 2107TIP3   OH2 6326   3.342   2.349   3.425
 2107TIP3    H1 6327   3.326   2.365   3.332
 2107TIP3    H2 6328   3.416   2.287   3.426
 2108TIP3   OH2 6329   0.617   0.366   1.227
 2108TIP3    H1 6330   0.657   0.279   1.231
 2108TIP3    H2 6331   0.579   0.379   1.314
 2109TIP3   OH2 6332   1.485   2.300   4.145
 2109TIP3    H1 6333   1.557   2.299   4.208
 2109TIP3    H2 6334   1.450   2.389   4.149
 2110TIP3   OH2 6335   3.729   5.100   3.632
 2110TIP3    H1 6336   3.794   5.036   3.604
 2110TIP3    H2 6337   3.645   5.058   3.614
 2111TIP3   OH2 6338   4.621   3.172   5.093
 2111TIP3    H1 6339   4.583   3.241   5.147
 2111TIP3    H2 6340   4.626   3.210   5.005
 2112TIP3   OH2 6341   5.960   2.828   4.404
 2112TIP3    H1 6342   5.918   2.775   4.337
 2112TIP3    H2 6343   5.971   2.769   4.479
 2113TIP3   OH2 6344   5.183   5.337   0.474
 2113TIP3    H1 6345   5.181   5.304   0.564
 2113TIP3    H2 6346   5.258   5.292   0.434
 2114TIP3   OH2 6347   3.352   3.535   2.025
 2114TIP3    H1 6348   3.272   3.556   1.976
 2114TIP3    H2 6349   3.391   3.462   1.977
 2115TIP3   OH2 6350   2.339   2.578   0.075
 2115TIP3    H1 6351   2.317   2.544  -0.012
 2115TIP3    H2 6352   2.405   2.645   0.058
 2116TIP3   OH2 6353   3.978   4.459   0.485
 2116TIP3    H1 6354   3.954   4.472   0.394
 2116TIP3    H2 6355   3.979   4.364   0.497
 2117TIP3   OH2 6356   3.316   0.473   1.433
 2117TIP3    H1 6357   3.344   0.425   1.511
 2117TIP3    H2 6358   3.333   0.413   1.361
 2118TIP3   OH2 6359   2.749   1.488   0.934
 2118TIP3    H1 6360   2.675   1.545   0.957
 2118TIP3    H2 6361   2.710   1.418   0.882
 2119TIP3   OH2 6362   5.547   1.595   1.510
 2119TIP3    H1 6363   5.585   1.683   1.515
 2119TIP3    H2 6364   5.458   1.610   1.479
 2120TIP3   OH2 6365   1.300   4.954   3.793
 2120TIP3    H1 6366   1.210   4.982   3.813
 2120TIP3    H2 6367   1.355   5.007   3.851
 2121TIP3   OH2 6368   3.186   4.501   3.466
 2121TIP3    H1 6369   3.192   4.549   3.549
 2121TIP3    H2 6370   3.173   4.569   3.400
 2122TIP3   OH2 6371   4.901   5.931   2.369
 2122TIP3    H1 6372   4.945   6.009   2.401
 2122TIP3    H2 6373   4.808   5.950   2.377
 2123TIP3   OH2 6374   3.879   5.957   4.035
 2123TIP3    H1 6375   3.920   5.881   4.075
 2123TIP3    H2 6376   3.938   6.029   4.054
 2124TIP3   OH2 6377   3.891   2.117   3.515
 2124TIP3    H1 6378   3.810   2.079   3.550
 2124TIP3    H2 6379   3.902   2.199   3.564
 2125TIP3   OH2 6380   2.678   1.247   0.862
 2125TIP3    H1 6381   2.747   1.183   0.879
 2125TIP3    H2 6382   2.657   1.235   0.769
 2126TIP3   OH2 6383   2.996   5.838   0.967
 2126TIP3    H1 6384   3.074   5.832   0.911
 2126TIP3    H2 6385   2.994   5.755   1.014
 2127TIP3   OH2 6386   4.481   2.104   1.087
 2127TIP3    H1 6387   4.393   2.133   1.064
 2127TIP3    H2 6388   4.539   2.155   1.031
 2128TIP3   OH2 6389   6.335   0.871   0.666
 2128TIP3    H1 6390   6.347   0.910   0.752
 2128TIP3    H2 6391   6.309   0.781   0.684
 2129TIP3   OH2 6392   4.440   5.776   4.920
 2129TIP3    H1 6393   4.468   5.726   4.997
 2129TIP3    H2 6394   4.466   5.723   4.845
 2130TIP3   OH2 6395   4.324   2.957   2.887
 2130TIP3    H1 6396   4.367   2.874   2.865
 2130TIP3    H2 6397   4.238   2.952   2.845
 2131TIP3   OH2 6398   5.146   5.240   3.784
 2131TIP3    H1 6399   5.176   5.162   3.739
 2131TIP3    H2 6400   5.052   5.226   3.797
 2132TIP3   OH2 6401   1.355   2.119   4.927
 2132TIP3    H1 6402   1.329   2.203   4.965
 2132TIP3    H2 6403   1.447   2.130   4.905
 2133TIP3   OH2 6404   5.322   0.716   2.145
 2133TIP3    H1 6405   5.321   0.634   2.096
 2133TIP3    H2 6406   5.349   0.690   2.233
 2134TIP3   OH2 6407   2.999   3.721   0.146
 2134TIP3    H1 6408   3.016   3.809   0.181
 2134TIP3    H2 6409   3.074   3.669   0.176
 2135TIP3   OH2 6410   1.869   0.376   4.023
 2135TIP3    H1 6411   1.937   0.308   4.018
 2135TIP3    H2 6412   1.914   0.456   3.994
 2136TIP3   OH2 6413   5.507   4.031   2.452
 2136TIP3    H1 6414   5.504   3.938   2.430
 2136TIP3    H2 6415   5.453   4.039   2.531
 2137TIP3   OH2 6416   3.717   2.024   3.722
 2137TIP3    H1 6417   3.769   1.991   3.795
 2137TIP3    H2 6418   3.681   2.107   3.754
 2138TIP3   OH2 6419   0.313   5.423   5.163
 2138TIP3    H1 6420   0.380   5.487   5.187
 2138TIP3    H2 6421   0.358   5.338   5.166
 2139TIP3   OH2 6422   0.776   3.083   4.227
 2139TIP3    H1 6423   0.856   3.036   4.203
 2139TIP3    H2 6424   0.717   3.070   4.153
 2140TIP3   OH2 6425   1.973   0.792   4.644
 2140TIP3    H1 6426   1.928   0.851   4.704
 2140TIP3    H2 6427   1.937   0.813   4.558
 2141TIP3   OH2 6428   1.538   4.709   5.069
 2141TIP3    H1 6429   1.491   4.637   5.027
 2141TIP3    H2 6430   1.520   4.785   5.015
 2142TIP3   OH2 6431   3.251   5.965   2.912
 2142TIP3    H1 6432   3.169   5.973   2.862
 2142TIP3    H2 6433   3.318   6.002   2.855
 2143TIP3   OH2 6434   1.967   2.013   1.179
 2143TIP3    H1 6435   1.906   2.052   1.117
 2143TIP3    H2 6436   1.912   1.981   1.251
 2144TIP3   OH2 6437   1.530   4.625   3.461
 2144TIP3    H1 6438   1.526   4.534   3.492
 2144TIP3    H2 6439   1.457   4.669   3.505
 2145TIP3   OH2 6440   1.748   3.798   3.489
 2145TIP3    H1 6441   1.829   3.837   3.523
 2145TIP3    H2 6442   1.713   3.748   3.563
 2146TIP3   OH2 6443   0.588   1.074   5.105
 2146TIP3    H1 6444   0.624   1.086   5.017
 2146TIP3    H2 6445   0.496   1.049   5.090
 2147TIP3   OH2 6446   2.107   3.459   0.466
 2147TIP3    H1 6447   2.127   3.509   0.545
 2147TIP3    H2 6448   2.017   3.429   0.478
 2148TIP3   OH2 6449   4.971   5.222   4.408
 2148TIP3    H1 6450   4.966   5.296   4.347
 2148TIP3    H2 6451   4.955   5.261   4.494
 2149TIP3   OH2 6452   3.357   4.390   0.943
 2149TIP3    H1 6453   3.383   4.425   0.858
 2149TIP3    H2 6454   3.342   4.467   0.998
 2150TIP3   OH2 6455   2.562   5.413   4.693
 2150TIP3    H1 6456   2.474   5.446   4.714
 2150TIP3    H2 6457   2.616   5.443   4.767
 2151TIP3   OH2 6458   1.093   1.278   0.386
 2151TIP3    H1 6459   1.166   1.227   0.421
 2151TIP3    H2 6460   1.050   1.316   0.463
 2152TIP3   OH2 6461   0.112   3.897   3.899
 2152TIP3    H1 6462   0.129   3.883   3.805
 2152TIP3    H2 6463   0.080   3.813   3.931
 2153TIP3   OH2 6464   1.425   3.345   0.064
 2153TIP3    H1 6465   1.483   3.318  -0.007
 2153TIP3    H2 6466   1.442   3.282   0.134
 2154TIP3   OH2 6467   6.019   3.749   4.159
 2154TIP3    H1 6468   6.097   3.703   4.125
 2154TIP3    H2 6469   6.046   3.840   4.165
 2155TIP3   OH2 6470   1.754   2.460   5.160
 2155TIP3    H1 6471   1.816   2.406   5.111
 2155TIP3    H2 6472   1.803   2.488   5.238
 2156TIP3   OH2 6473   3.227   5.837   0.774
 2156TIP3    H1 6474   3.231   5.894   0.697
 2156TIP3    H2 6475   3.277   5.759   0.749
 2157TIP3   OH2 6476   6.252   0.234   2.257
 2157TIP3    H1 6477   6.163   0.200   2.256
 2157TIP3    H2 6478   6.269   0.260   2.167
 2158TIP3   OH2 6479   5.695   5.773   3.430
 2158TIP3    H1 6480   5.624   5.761   3.367
 2158TIP3    H2 6481   5.666   5.726   3.508
 2159TIP3   OH2 6482   0.316   3.737   5.065
 2159TIP3    H1 6483   0.270   3.788   4.999
 2159TIP3    H2 6484   0.294   3.780   5.148
 2160TIP3   OH2 6485   3.088   3.438   1.471
 2160TIP3    H1 6486   3.173   3.410   1.506
 2160TIP3    H2 6487   3.091   3.416   1.378
 2161TIP3   OH2 6488   5.766   3.620   1.998
 2161TIP3    H1 6489   5.775   3.712   2.025
 2161TIP3    H2 6490   5.695   3.621   1.934
 2162TIP3   OH2 6491   3.061   1.245   0.865
 2162TIP3    H1 6492   2.994   1.191   0.908
 2162TIP3    H2 6493   3.027   1.260   0.776
 2163TIP3   OH2 6494   5.897   0.851   0.222
 2163TIP3    H1 6495   5.942   0.935   0.216
 2163TIP3    H2 6496   5.956   0.790   0.176
 2164TIP3   OH2 6497   0.371   4.613   1.025
 2164TIP3    H1 6498   0.452   4.599   1.075
 2164TIP3    H2 6499   0.385   4.564   0.943
 2165TIP3   OH2 6500   0.134   2.257   5.021
 2165TIP3    H1 6501   0.203   2.200   5.057
 2165TIP3    H2 6502   0.104   2.308   5.095
 2166TIP3   OH2 6503   2.280   1.469   4.526
 2166TIP3    H1 6504   2.259   1.379   4.551
 2166TIP3    H2 6505   2.244   1.523   4.597
 2167TIP3   OH2 6506   5.020   3.724   2.427
 2167TIP3    H1 6507   5.085   3.667   2.387
 2167TIP3    H2 6508   4.939   3.673   2.427
 2168TIP3   OH2 6509   2.046   0.511   3.447
 2168TIP3    H1 6510   1.977   0.576   3.435
 2168TIP3    H2 6511   2.112   0.533   3.380
 2169TIP3   OH2 6512   3.255   5.254   0.594
 2169TIP3    H1 6513   3.279   5.266   0.685
 2169TIP3    H2 6514   3.233   5.342   0.563
 2170TIP3   OH2 6515   4.367   2.337   2.308
 2170TIP3    H1 6516   4.463   2.336   2.310
 2170TIP3    H2 6517   4.341   2.259   2.358
 2171TIP3   OH2 6518   0.082   2.343   1.976
 2171TIP3    H1 6519   0.013   2.291   1.934
 2171TIP3    H2 6520   0.078   2.319   2.068
 2172TIP3   OH2 6521   2.105   2.794   4.344
 2172TIP3    H1 6522   2.129   2.704   4.324
 2172TIP3    H2 6523   2.063   2.790   4.430
 2173TIP3   OH2 6524   0.195   0.385   1.803
 2173TIP3    H1 6525   0.274   0.333   1.817
 2173TIP3    H2 6526   0.220   0.473   1.830
 2174TIP3   OH2 6527   0.951   2.996   3.339
 2174TIP3    H1 6528   1.009   3.008   3.414
 2174TIP3    H2 6529   0.882   2.938   3.370
 2175TIP3   OH2 6530   0.382   0.684   5.087
 2175TIP3    H1 6531   0.388   0.707   5.180
 2175TIP3    H2 6532   0.474   0.676   5.059
 2176TIP3   OH2 6533   0.999   2.151   1.916
 2176TIP3    H1 6534   1.015   2.229   1.968
 2176TIP3    H2 6535   1.024   2.176   1.827
 2177TIP3   OH2 6536   6.055   2.009   1.747
 2177TIP3    H1 6537   5.966   2.036   1.770
 2177TIP3    H2 6538   6.090   1.972   1.828
 2178TIP3   OH2 6539   4.630   1.770   1.843
 2178TIP3    H1 6540   4.596   1.784   1.932
 2178TIP3    H2 6541   4.564   1.811   1.786
 2179TIP3   OH2 6542   4.296   1.816   4.696
 2179TIP3    H1 6543   4.378   1.866   4.699
 2179TIP3    H2 6544   4.233   1.871   4.743
 2180TIP3   OH2 6545   2.083   5.178   0.953
 2180TIP3    H1 6546   2.033   5.258   0.973
 2180TIP3    H2 6547   2.174   5.203   0.965
 2181TIP3   OH2 6548   2.758   4.892   2.612
 2181TIP3    H1 6549   2.715   4.859   2.534
 2181TIP3    H2 6550   2.688   4.931   2.664
 2182TIP3   OH2 6551   0.677   1.609   2.244
 2182TIP3    H1 6552   0.585   1.583   2.234
 2182TIP3    H2 6553   0.674   1.704   2.252
 2183TIP3   OH2 6554   0.298   3.566   4.719
 2183TIP3    H1 6555   0.356   3.636   4.752
 2183TIP3    H2 6556   0.330   3.550   4.630
 2184TIP3   OH2 6557   6.172   1.178   2.884
 2184TIP3    H1 6558   6.128   1.261   2.903
 2184TIP3    H2 6559   6.202   1.186   2.794
 2185TIP3   OH2 6560   1.831   1.368   0.854
 2185TIP3    H1 6561   1.863   1.285   0.889
 2185TIP3    H2 6562   1.907   1.405   0.809
 2186TIP3   OH2 6563   4.538   0.765   3.297
 2186TIP3    H1 6564   4.589   0.829   3.346
 2186TIP3    H2 6565   4.465   0.742   3.355
 2187TIP3   OH2 6566   3.640   2.639   4.428
 2187TIP3    H1 6567   3.733   2.658   4.445
 2187TIP3    H2 6568   3.640   2.554   4.385
 2188TIP3   OH2 6569   4.302   3.462   3.742
 2188TIP3    H1 6570   4.303   3.558   3.752
 2188TIP3    H2 6571   4.391   3.435   3.763
 2189TIP3   OH2 6572   3.919   2.548   3.116
 2189TIP3    H1 6573   3.825   2.531   3.115
 2189TIP3    H2 6574   3.933   2.609   3.043
 2190TIP3   OH2 6575   5.789   2.380   4.952
 2190TIP3    H1 6576   5.778   2.364   4.858
 2190TIP3    H2 6577   5.812   2.472   4.958
 2191TIP3   OH2 6578   4.842   3.838   3.439
 2191TIP3    H1 6579   4.905   3.861   3.371
 2191TIP3    H2 6580   4.837   3.742   3.436
 2192TIP3   OH2 6581   3.885   0.638   3.900
 2192TIP3    H1 6582   3.938   0.669   3.827
 2192TIP3    H2 6583   3.927   0.557   3.928
 2193TIP3   OH2 6584   2.565   3.810   3.712
 2193TIP3    H1 6585   2.550   3.885   3.770
 2193TIP3    H2 6586   2.653   3.822   3.679
 2194TIP3   OH2 6587   0.045   0.523   3.735
 2194TIP3    H1 6588   0.014   0.541   3.824
 2194TIP3    H2 6589   0.084   0.436   3.740
 2195TIP3   OH2 6590   5.581   2.946   2.538
 2195TIP3    H1 6591   5.498   2.952   2.492
 2195TIP3    H2 6592   5.584   2.855   2.570
 2196TIP3   OH2 6593   0.263   0.735   4.563
 2196TIP3    H1 6594   0.352   0.706   4.580
 2196TIP3    H2 6595   0.250   0.719   4.469
 2197TIP3   OH2 6596   4.493   3.058   4.323
 2197TIP3    H1 6597   4.558   2.992   4.299
 2197TIP3    H2 6598   4.468   3.098   4.241
 2198TIP3   OH2 6599   3.177   5.821   1.821
 2198TIP3    H1 6600   3.114   5.861   1.761
 2198TIP3    H2 6601   3.255   5.807   1.767
 2199TIP3   OH2 6602   3.324   5.821   3.823
 2199TIP3    H1 6603   3.286   5.888   3.880
 2199TIP3    H2 6604   3.270   5.822   3.744
 2200TIP3   OH2 6605   5.677   4.205   3.888
 2200TIP3    H1 6606   5.616   4.185   3.817
 2200TIP3    H2 6607   5.683   4.123   3.938
 2201TIP3   OH2 6608   0.813   3.150   4.838
 2201TIP3    H1 6609   0.753   3.131   4.766
 2201TIP3    H2 6610   0.779   3.099   4.911
 2202TIP3   OH2 6611   3.082   2.890   0.253
 2202TIP3    H1 6612   3.165   2.928   0.223
 2202TIP3    H2 6613   3.082   2.905   0.348
 2203TIP3   OH2 6614   4.490   4.011   1.835
 2203TIP3    H1 6615   4.467   4.095   1.874
 2203TIP3    H2 6616   4.586   4.012   1.831
 2204TIP3   OH2 6617   2.815   5.649   3.241
 2204TIP3    H1 6618   2.832   5.729   3.291
 2204TIP3    H2 6619   2.779   5.679   3.158
 2205TIP3   OH2 6620   5.723   0.654   1.619
 2205TIP3    H1 6621   5.762   0.581   1.667
 2205TIP3    H2 6622   5.798   0.705   1.586
 2206TIP3   OH2 6623   1.071   4.651   3.592
 2206TIP3    H1 6624   1.124   4.584   3.634
 2206TIP3    H2 6625   1.038   4.609   3.513
 2207TIP3   OH2 6626   3.335   3.447   0.431
 2207TIP3    H1 6627   3.420   3.427   0.393
 2207TIP3    H2 6628   3.349   3.444   0.525
 2208TIP3   OH2 6629   4.217   2.933   0.756
 2208TIP3    H1 6630   4.155   2.872   0.715
 2208TIP3    H2 6631   4.198   2.927   0.850
 2209TIP3   OH2 6632   0.866   5.941   3.362
 2209TIP3    H1 6633   0.934   5.906   3.305
 2209TIP3    H2 6634   0.896   6.030   3.383
 2210TIP3   OH2 6635   4.212   3.509   0.037
 2210TIP3    H1 6636   4.291   3.472   0.077
 2210TIP3    H2 6637   4.141   3.485   0.096
 2211TIP3   OH2 6638   0.449   1.628   0.270
 2211TIP3    H1 6639   0.502   1.577   0.332
 2211TIP3    H2 6640   0.402   1.563   0.219
 2212TIP3   OH2 6641   5.140   3.602   0.697
 2212TIP3    H1 6642   5.068   3.575   0.640
 2212TIP3    H2 6643   5.157   3.526   0.751
 2213TIP3   OH2 6644   1.035   2.816   1.635
 2213TIP3    H1 6645   0.957   2.775   1.671
 2213TIP3    H2 6646   1.096   2.744   1.621
 2214TIP3   OH2 6647   5.540   5.981   2.257
 2214TIP3    H1 6648   5.513   5.933   2.178
 2214TIP3    H2 6649   5.559   5.912   2.321
 2215TIP3   OH2 6650   1.367   4.973   0.256
 2215TIP3    H1 6651   1.377   5.009   0.344
 2215TIP3    H2 6652   1.273   4.977   0.240
 2216TIP3   OH2 6653   2.951   2.058   4.201
 2216TIP3    H1 6654   2.871   2.027   4.244
 2216TIP3    H2 6655   2.976   2.136   4.251
 2217TIP3   OH2 6656   5.749   5.966   4.937
 2217TIP3    H1 6657   5.810   5.926   4.875
 2217TIP3    H2 6658   5.783   6.054   4.950
 2218TIP3   OH2 6659   1.576   0.685   1.019
 2218TIP3    H1 6660   1.618   0.753   1.071
 2218TIP3    H2 6661   1.493   0.668   1.064
 2219TIP3   OH2 6662   1.067   1.297   1.196
 2219TIP3    H1 6663   1.145   1.330   1.241
 2219TIP3    H2 6664   0.994   1.345   1.235
 2220TIP3   OH2 6665   0.771   1.635   3.401
 2220TIP3    H1 6666   0.841   1.575   3.425
 2220TIP3    H2 6667   0.692   1.580   3.397
 2221TIP3   OH2 6668   0.878   5.526   2.494
 2221TIP3    H1 6669   0.812   5.508   2.428
 2221TIP3    H2 6670   0.929   5.599   2.458
 2222TIP3   OH2 6671   4.862   1.726   0.828
 2222TIP3    H1 6672   4.770   1.713   0.850
 2222TIP3    H2 6673   4.891   1.642   0.791
 2223TIP3   OH2 6674   2.066   5.700   3.223
 2223TIP3    H1 6675   2.099   5.738   3.304
 2223TIP3    H2 6676   1.973   5.685   3.239
 2224TIP3   OH2 6677   1.495   5.950   3.143
 2224TIP3    H1 6678   1.537   5.877   3.189
 2224TIP3    H2 6679   1.562   6.018   3.139
 2225TIP3   OH2 6680   1.185   0.565   4.207
 2225TIP3    H1 6681   1.194   0.567   4.303
 2225TIP3    H2 6682   1.208   0.475   4.183
 2226TIP3   OH2 6683   0.960   0.217   4.560
 2226TIP3    H1 6684   0.968   0.265   4.477
 2226TIP3    H2 6685   0.981   0.282   4.627
 2227TIP3   OH2 6686   0.570   1.030   3.926
 2227TIP3    H1 6687   0.615   1.095   3.979
 2227TIP3    H2 6688   0.568   1.067   3.838
 2228TIP3   OH2 6689   1.466   1.551   1.161
 2228TIP3    H1 6690   1.536   1.557   1.096
 2228TIP3    H2 6691   1.429   1.639   1.165
 2229TIP3   OH2 6692   1.089   4.790   0.870
 2229TIP3    H1 6693   1.180   4.819   0.868
 2229TIP3    H2 6694   1.044   4.854   0.924
 2230TIP3   OH2 6695   2.978   2.768   3.032
 2230TIP3    H1 6696   2.895   2.735   2.997
 2230TIP3    H2 6697   2.965   2.863   3.038
 2231TIP3   OH2 6698   4.196   0.339   4.659
 2231TIP3    H1 6699   4.156   0.425   4.652
 2231TIP3    H2 6700   4.134   0.287   4.710
 2232TIP3   OH2 6701   2.246   1.875   2.587
 2232TIP3    H1 6702   2.315   1.815   2.559
 2232TIP3    H2 6703   2.282   1.919   2.664
 2233TIP3   OH2 6704   1.201   4.091   4.463
 2233TIP3    H1 6705   1.291   4.082   4.432
 2233TIP3    H2 6706   1.190   4.018   4.525
 2234TIP3   OH2 6707   0.833   2.763   2.250
 2234TIP3    H1 6708   0.868   2.821   2.317
 2234TIP3    H2 6709   0.908   2.711   2.221
 2235TIP3   OH2 6710   5.006   1.112   1.477
 2235TIP3    H1 6711   4.991   1.141   1.568
 2235TIP3    H2 6712   4.958   1.176   1.424
 2236TIP3   OH2 6713   5.128   2.944   4.055
 2236TIP3    H1 6714   5.221   2.965   4.044
 2236TIP3    H2 6715   5.107   2.889   3.980
 2237TIP3   OH2 6716   5.210   4.383   4.780
 2237TIP3    H1 6717   5.121   4.367   4.811
 2237TIP3    H2 6718   5.247   4.444   4.843
 2238TIP3   OH2 6719   2.103   5.447   2.391
 2238TIP3    H1 6720   2.009   5.463   2.402
 2238TIP3    H2 6721   2.116   5.357   2.420
 2239TIP3   OH2 6722   6.007   0.716   1.550
 2239TIP3    H1 6723   6.030   0.703   1.642
 2239TIP3    H2 6724   6.008   0.627   1.513
 2240TIP3   OH2 6725   3.886   2.194   2.652
 2240TIP3    H1 6726   3.852   2.260   2.713
 2240TIP3    H2 6727   3.820   2.124   2.653
 2241TIP3   OH2 6728   2.589   4.830   0.951
 2241TIP3    H1 6729   2.619   4.896   1.013
 2241TIP3    H2 6730   2.653   4.834   0.880
 2242TIP3   OH2 6731   0.321   3.249   4.912
 2242TIP3    H1 6732   0.352   3.252   4.821
 2242TIP3    H2 6733   0.227   3.237   4.905
 2243TIP3   OH2 6734   4.762   0.841   4.041
 2243TIP3    H1 6735   4.839   0.866   4.093
 2243TIP3    H2 6736   4.777   0.881   3.955
 2244TIP3   OH2 6737   1.454   0.280   2.006
 2244TIP3    H1 6738   1.367   0.258   2.040
 2244TIP3    H2 6739   1.451   0.374   1.990
 2245TIP3   OH2 6740   0.401   4.278   1.503
 2245TIP3    H1 6741   0.442   4.358   1.537
 2245TIP3    H2 6742   0.362   4.304   1.420
 2246TIP3   OH2 6743   4.918   5.493   1.540
 2246TIP3    H1 6744   4.947   5.585   1.539
 2246TIP3    H2 6745   4.884   5.480   1.628
 2247TIP3   OH2 6746   5.065   4.005   1.215
 2247TIP3    H1 6747   5.016   4.058   1.153
 2247TIP3    H2 6748   5.068   3.918   1.175
 2248TIP3   OH2 6749   0.126   1.165   4.361
 2248TIP3    H1 6750   0.121   1.072   4.339
 2248TIP3    H2 6751   0.211   1.175   4.404
 2249TIP3   OH2 6752   5.629   5.669   2.816
 2249TIP3    H1 6753   5.650   5.762   2.804
 2249TIP3    H2 6754   5.673   5.645   2.897
 2250TIP3   OH2 6755   4.290   3.902   0.271
 2250TIP3    H1 6756   4.285   3.994   0.297
 2250TIP3    H2 6757   4.201   3.879   0.244
 2251TIP3   OH2 6758   3.675   5.380   2.365
 2251TIP3    H1 6759   3.769   5.397   2.358
 2251TIP3    H2 6760   3.654   5.327   2.288
 2252TIP3   OH2 6761   4.231   3.618   2.426
 2252TIP3    H1 6762   4.151   3.566   2.439
 2252TIP3    H2 6763   4.270   3.583   2.346
 2253TIP3   OH2 6764   0.760   1.164   0.534
 2253TIP3    H1 6765   0.732   1.166   0.625
 2253TIP3    H2 6766   0.696   1.220   0.488
 2254TIP3   OH2 6767   4.133  -0.050   1.135
 2254TIP3    H1 6768   4.201   0.017   1.145
 2254TIP3    H2 6769   4.061  -0.020   1.191
 2255TIP3   OH2 6770   4.188   1.215   1.033
 2255TIP3    H1 6771   4.159   1.296   0.991
 2255TIP3    H2 6772   4.106   1.170   1.056
 2256TIP3   OH2 6773   0.067   0.370   4.791
 2256TIP3    H1 6774   0.055   0.434   4.721
 2256TIP3    H2 6775   0.148   0.396   4.833
 2257TIP3   OH2 6776   5.069   2.813   0.066
 2257TIP3    H1 6777   5.078   2.719   0.050
 2257TIP3    H2 6778   5.145   2.852   0.022
 2258TIP3   OH2 6779   3.181   5.118   1.966
 2258TIP3    H1 6780   3.209   5.042   2.017
 2258TIP3    H2 6781   3.093   5.137   1.998
 2259TIP3   OH2 6782   3.820   4.318   1.466
 2259TIP3    H1 6783   3.912   4.329   1.445
 2259TIP3    H2 6784   3.788   4.407   1.480
 2260TIP3   OH2 6785   0.437   0.300   2.208
 2260TIP3    H1 6786   0.380   0.374   2.226
 2260TIP3    H2 6787   0.442   0.296   2.113
 2261TIP3   OH2 6788   3.412   0.673   3.006
 2261TIP3    H1 6789   3.320   0.683   2.980
 2261TIP3    H2 6790   3.438   0.589   2.969
 2262TIP3   OH2 6791   3.119   4.370   3.161
 2262TIP3    H1 6792   3.054   4.441   3.162
 2262TIP3    H2 6793   3.070   4.294   3.129
 2263TIP3   OH2 6794   4.731   5.514   3.747
 2263TIP3    H1 6795   4.782   5.545   3.672
 2263TIP3    H2 6796   4.760   5.424   3.760
 2264TIP3   OH2 6797   3.406   2.024   2.666
 2264TIP3    H1 6798   3.491   2.052   2.700
 2264TIP3    H2 6799   3.381   1.948   2.720
 2265TIP3   OH2 6800   0.944   0.427   1.200
 2265TIP3    H1 6801   0.937   0.354   1.262
 2265TIP3    H2 6802   0.979   0.499   1.252
 2266TIP3   OH2 6803   2.645   1.171   0.606
 2266TIP3    H1 6804   2.596   1.101   0.562
 2266TIP3    H2 6805   2.736   1.156   0.581
 2267TIP3   OH2 6806   3.928   1.326   4.191
 2267TIP3    H1 6807   3.850   1.366   4.231
 2267TIP3    H2 6808   3.900   1.240   4.163
 2268TIP3   OH2 6809   1.072   4.849   5.077
 2268TIP3    H1 6810   1.095   4.772   5.025
 2268TIP3    H2 6811   0.990   4.881   5.038
 2269TIP3   OH2 6812   0.386   3.630   1.110
 2269TIP3    H1 6813   0.328   3.569   1.065
 2269TIP3    H2 6814   0.372   3.612   1.203
 2270TIP3   OH2 6815   5.870   0.947   1.637
 2270TIP3    H1 6816   5.913   0.872   1.596
 2270TIP3    H2 6817   5.826   0.992   1.564
 2271TIP3   OH2 6818   2.396   3.879   3.258
 2271TIP3    H1 6819   2.413   3.785   3.255
 2271TIP3    H2 6820   2.339   3.891   3.334
 2272TIP3   OH2 6821   5.073   2.348   0.543
 2272TIP3    H1 6822   5.005   2.282   0.527
 2272TIP3    H2 6823   5.046   2.392   0.623
 2273TIP3   OH2 6824   3.464   0.424   4.577
 2273TIP3    H1 6825   3.527   0.375   4.631
 2273TIP3    H2 6826   3.405   0.464   4.640
 2274TIP3   OH2 6827   4.962   3.477   4.936
 2274TIP3    H1 6828   5.008   3.430   4.867
 2274TIP3    H2 6829   4.888   3.520   4.891
 2275TIP3   OH2 6830   0.759   2.318   1.816
 2275TIP3    H1 6831   0.666   2.299   1.823
 2275TIP3    H2 6832   0.770   2.354   1.728
 2276TIP3   OH2 6833   1.294   5.536   2.419
 2276TIP3    H1 6834   1.203   5.524   2.446
 2276TIP3    H2 6835   1.294   5.514   2.326
 2277TIP3   OH2 6836   0.421   5.887   2.755
 2277TIP3    H1 6837   0.372   5.827   2.698
 2277TIP3    H2 6838   0.489   5.833   2.794
 2278TIP3   OH2 6839   0.161   4.597   3.572
 2278TIP3    H1 6840   0.228   4.595   3.640
 2278TIP3    H2 6841   0.095   4.534   3.600
 2279TIP3   OH2 6842   0.122   0.797   1.193
 2279TIP3    H1 6843   0.200   0.770   1.145
 2279TIP3    H2 6844   0.132   0.759   1.280
 2280TIP3   OH2 6845   0.333   2.528   4.207
 2280TIP3    H1 6846   0.326   2.438   4.240
 2280TIP3    H2 6847   0.254   2.572   4.239
 2281TIP3   OH2 6848   2.635   1.916   0.335
 2281TIP3    H1 6849   2.683   1.838   0.362
 2281TIP3    H2 6850   2.639   1.975   0.411
 2282TIP3   OH2 6851   6.209   0.116   1.275
 2282TIP3    H1 6852   6.274   0.049   1.254
 2282TIP3    H2 6853   6.130   0.066   1.297
 2283TIP3   OH2 6854   5.838   5.115   2.976
 2283TIP3    H1 6855   5.787   5.190   2.947
 2283TIP3    H2 6856   5.837   5.055   2.902
 2284TIP3   OH2 6857   5.603   1.457   2.548
 2284TIP3    H1 6858   5.694   1.479   2.526
 2284TIP3    H2 6859   5.610   1.371   2.590
 2285TIP3   OH2 6860   3.657   4.503   3.633
 2285TIP3    H1 6861   3.724   4.532   3.571
 2285TIP3    H2 6862   3.698   4.433   3.683
 2286TIP3   OH2 6863   5.338   4.096   0.112
 2286TIP3    H1 6864   5.387   4.174   0.137
 2286TIP3    H2 6865   5.403   4.038   0.074
 2287TIP3   OH2 6866   4.588   4.448   4.739
 2287TIP3    H1 6867   4.659   4.499   4.700
 2287TIP3    H2 6868   4.628   4.362   4.756
 2288TIP3   OH2 6869   3.399   5.419   5.008
 2288TIP3    H1 6870   3.434   5.374   4.931
 2288TIP3    H2 6871   3.456   5.391   5.080
 2289TIP3   OH2 6872   1.305   1.715   4.654
 2289TIP3    H1 6873   1.372   1.771   4.615
 2289TIP3    H2 6874   1.286   1.757   4.738
 2290TIP3   OH2 6875   1.364   0.209   5.100
 2290TIP3    H1 6876   1.457   0.187   5.094
 2290TIP3    H2 6877   1.323   0.129   5.132
 2291TIP3   OH2 6878   1.270   3.500   5.010
 2291TIP3    H1 6879   1.332   3.559   5.052
 2291TIP3    H2 6880   1.185   3.526   5.046
 2292TIP3   OH2 6881   1.654   1.498   1.394
 2292TIP3    H1 6882   1.733   1.546   1.367
 2292TIP3    H2 6883   1.588   1.522   1.330
 2293TIP3   OH2 6884   4.267   2.890   4.010
 2293TIP3    H1 6885   4.307   2.966   3.968
 2293TIP3    H2 6886   4.299   2.893   4.100
 2294TIP3   OH2 6887   2.205   2.414   4.859
 2294TIP3    H1 6888   2.237   2.478   4.922
 2294TIP3    H2 6889   2.277   2.352   4.849
 2295TIP3   OH2 6890   0.126   5.791   0.603
 2295TIP3    H1 6891   0.163   5.795   0.514
 2295TIP3    H2 6892   0.051   5.849   0.599
 2296TIP3   OH2 6893   3.455   4.800   0.835
 2296TIP3    H1 6894   3.526   4.832   0.891
 2296TIP3    H2 6895   3.392   4.761   0.895
 2297TIP3   OH2 6896   3.007   4.892   4.014
 2297TIP3    H1 6897   2.976   4.870   4.102
 2297TIP3    H2 6898   3.097   4.922   4.027
 2298TIP3   OH2 6899   6.032   5.087   2.448
 2298TIP3    H1 6900   5.982   5.118   2.372
 2298TIP3    H2 6901   6.038   4.993   2.435
 2299TIP3   OH2 6902   3.535   0.505   1.971
 2299TIP3    H1 6903   3.597   0.466   1.908
 2299TIP3    H2 6904   3.569   0.593   1.986
 2300TIP3   OH2 6905   5.446   2.290   2.698
 2300TIP3    H1 6906   5.489   2.206   2.715
 2300TIP3    H2 6907   5.509   2.356   2.727
 2301TIP3   OH2 6908   6.131   5.646   2.065
 2301TIP3    H1 6909   6.204   5.691   2.022
 2301TIP3    H2 6910   6.059   5.652   2.002
 2302TIP3   OH2 6911   4.638   0.476   4.322
 2302TIP3    H1 6912   4.712   0.531   4.298
 2302TIP3    H2 6913   4.571   0.538   4.351
 2303TIP3   OH2 6914   0.499   3.759   3.214
 2303TIP3    H1 6915   0.501   3.702   3.137
 2303TIP3    H2 6916   0.412   3.799   3.211
 2304TIP3   OH2 6917   4.158   1.042   4.800
 2304TIP3    H1 6918   4.234   1.063   4.746
 2304TIP3    H2 6919   4.112   0.973   4.752
 2305TIP3   OH2 6920   3.146   1.330   1.125
 2305TIP3    H1 6921   3.099   1.322   1.042
 2305TIP3    H2 6922   3.172   1.422   1.129
 2306TIP3   OH2 6923   1.516   2.894   4.429
 2306TIP3    H1 6924   1.542   2.808   4.396
 2306TIP3    H2 6925   1.422   2.886   4.444
 2307TIP3   OH2 6926   0.526   3.064   1.972
 2307TIP3    H1 6927   0.542   3.064   2.067
 2307TIP3    H2 6928   0.573   2.987   1.940
 2308TIP3   OH2 6929   3.844   2.242   0.248
 2308TIP3    H1 6930   3.835   2.195   0.165
 2308TIP3    H2 6931   3.755   2.250   0.281
 2309TIP3   OH2 6932   3.000   5.270   1.577
 2309TIP3    H1 6933   2.908   5.247   1.563
 2309TIP3    H2 6934   3.029   5.305   1.493
 2310TIP3   OH2 6935   0.822   1.542   0.726
 2310TIP3    H1 6936   0.744   1.493   0.752
 2310TIP3    H2 6937   0.837   1.603   0.798
 2311TIP3   OH2 6938   5.850   4.746   0.272
 2311TIP3    H1 6939   5.830   4.723   0.363
 2311TIP3    H2 6940   5.797   4.686   0.220
 2312TIP3   OH2 6941   4.802   2.195   4.432
 2312TIP3    H1 6942   4.848   2.235   4.359
 2312TIP3    H2 6943   4.720   2.243   4.438
 2313TIP3   OH2 6944   5.339   1.089   2.104
 2313TIP3    H1 6945   5.355   1.025   2.035
 2313TIP3    H2 6946   5.425   1.125   2.124
 2314TIP3   OH2 6947   6.111   0.963   4.222
 2314TIP3    H1 6948   6.188   1.001   4.181
 2314TIP3    H2 6949   6.146   0.897   4.282
 2315TIP3   OH2 6950   4.195   0.240   4.271
 2315TIP3    H1 6951   4.221   0.302   4.339
 2315TIP3    H2 6952   4.243   0.268   4.193
 2316TIP3   OH2 6953   0.437   5.468   0.527
 2316TIP3    H1 6954   0.387   5.387   0.509
 2316TIP3    H2 6955   0.466   5.497   0.441
 2317TIP3   OH2 6956   6.190   2.738   4.246
 2317TIP3    H1 6957   6.097   2.739   4.225
 2317TIP3    H2 6958   6.226   2.813   4.199
 2318TIP3   OH2 6959   1.295   0.947   1.154
 2318TIP3    H1 6960   1.355   1.018   1.177
 2318TIP3    H2 6961   1.228   0.988   1.099
 2319TIP3   OH2 6962   3.606   5.327   4.342
 2319TIP3    H1 6963   3.570   5.289   4.261
 2319TIP3    H2 6964   3.701   5.323   4.331
 2320TIP3   OH2 6965   4.403   1.439   1.951
 2320TIP3    H1 6966   4.483   1.407   1.993
 2320TIP3    H2 6967   4.338   1.371   1.967
 2321TIP3   OH2 6968   4.346   0.503   3.879
 2321TIP3    H1 6969   4.328   0.464   3.794
 2321TIP3    H2 6970   4.433   0.471   3.903
 2322TIP3   OH2 6971   2.482   0.160   4.753
 2322TIP3    H1 6972   2.451   0.241   4.793
 2322TIP3    H2 6973   2.567   0.182   4.716
 2323TIP3   OH2 6974   3.994   2.528   1.719
 2323TIP3    H1 6975   3.923   2.527   1.784
 2323TIP3    H2 6976   4.013   2.435   1.704
 2324TIP3   OH2 6977   1.517   2.621   2.319
 2324TIP3    H1 6978   1.504   2.635   2.412
 2324TIP3    H2 6979   1.466   2.543   2.298
 2325TIP3   OH2 6980   3.762   1.899   1.777
 2325TIP3    H1 6981   3.855   1.907   1.794
 2325TIP3    H2 6982   3.739   1.811   1.805
 2326TIP3   OH2 6983   4.739   1.769   3.739
 2326TIP3    H1 6984   4.656   1.816   3.736
 2326TIP3    H2 6985   4.724   1.689   3.689
 2327TIP3   OH2 6986   4.453   0.894   0.087
 2327TIP3    H1 6987   4.478   0.986   0.097
 2327TIP3    H2 6988   4.486   0.851   0.166
 2328TIP3   OH2 6989   5.523   5.662   4.410
 2328TIP3    H1 6990   5.438   5.628   4.438
 2328TIP3    H2 6991   5.579   5.653   4.488
 2329TIP3   OH2 6992   1.232   4.450   3.969
 2329TIP3    H1 6993   1.180   4.373   3.991
 2329TIP3    H2 6994   1.197   4.482   3.887
 2330TIP3   OH2 6995   4.655   5.843   4.010
 2330TIP3    H1 6996   4.619   5.838   3.921
 2330TIP3    H2 6997   4.737   5.793   4.005
 2331TIP3   OH2 6998   2.869   3.505   4.980
 2331TIP3    H1 6999   2.908   3.420   4.960
 2331TIP3    H2 7000   2.937   3.552   5.028
 2332TIP3   OH2 7001   4.473   0.012   4.275
 2332TIP3    H1 7002   4.383  -0.002   4.302
 2332TIP3    H2 7003   4.472   0.006   4.180
 2333TIP3   OH2 7004   4.953   0.073   4.498
 2333TIP3    H1 7005   5.044   0.041   4.498
 2333TIP3    H2 7006   4.903   0.002   4.539
 2334TIP3   OH2 7007   3.872   0.385   4.923
 2334TIP3    H1 7008   3.899   0.311   4.869
 2334TIP3    H2 7009   3.799   0.352   4.975
 2335TIP3   OH2 7010   2.456   3.032   0.176
 2335TIP3    H1 7011   2.414   3.007   0.259
 2335TIP3    H2 7012   2.543   3.061   0.202
 2336TIP3   OH2 7013   1.545   4.487   0.843
 2336TIP3    H1 7014   1.487   4.486   0.919
 2336TIP3    H2 7015   1.547   4.396   0.814
 2337TIP3   OH2 7016   6.214   4.576   2.249
 2337TIP3    H1 7017   6.297   4.561   2.203
 2337TIP3    H2 7018   6.177   4.653   2.205
 2338TIP3   OH2 7019   1.087   0.527   2.583
 2338TIP3    H1 7020   1.052   0.605   2.541
 2338TIP3    H2 7021   1.017   0.462   2.576
 2339TIP3   OH2 7022   6.146   0.291   3.230
 2339TIP3    H1 7023   6.214   0.329   3.286
 2339TIP3    H2 7024   6.103   0.367   3.190
 2340TIP3   OH2 7025   0.171   5.673   4.224
 2340TIP3    H1 7026   0.183   5.757   4.268
 2340TIP3    H2 7027   0.116   5.622   4.283
 2341TIP3   OH2 7028   5.304   3.029   0.984
 2341TIP3    H1 7029   5.357   2.989   0.915
 2341TIP3    H2 7030   5.221   3.051   0.941
 2342TIP3   OH2 7031   1.256   0.614   2.307
 2342TIP3    H1 7032   1.184   0.677   2.299
 2342TIP3    H2 7033   1.214   0.528   2.300
 2343TIP3   OH2 7034   2.465   1.369   3.185
 2343TIP3    H1 7035   2.390   1.316   3.214
 2343TIP3    H2 7036   2.474   1.350   3.092
 2344TIP3   OH2 7037   3.196   4.548   1.409
 2344TIP3    H1 7038   3.271   4.594   1.371
 2344TIP3    H2 7039   3.154   4.613   1.465
 2345TIP3   OH2 7040   3.284   4.187   2.418
 2345TIP3    H1 7041   3.378   4.193   2.402
 2345TIP3    H2 7042   3.274   4.108   2.472
 2346TIP3   OH2 7043   4.179   2.107   4.339
 2346TIP3    H1 7044   4.190   2.135   4.249
 2346TIP3    H2 7045   4.248   2.153   4.387
 2347TIP3   OH2 7046   0.520   2.612   2.134
 2347TIP3    H1 7047   0.607   2.580   2.114
 2347TIP3    H2 7048   0.506   2.589   2.226
 2348TIP3   OH2 7049   2.624   5.193   4.915
 2348TIP3    H1 7050   2.549   5.249   4.896
 2348TIP3    H2 7051   2.587   5.105   4.922
 2349TIP3   OH2 7052   1.078   5.908   2.595
 2349TIP3    H1 7053   1.063   5.828   2.545
 2349TIP3    H2 7054   1.000   5.962   2.579
 2350TIP3   OH2 7055   4.774   2.697   4.759
 2350TIP3    H1 7056   4.739   2.663   4.841
 2350TIP3    H2 7057   4.809   2.783   4.782
 2351TIP3   OH2 7058   4.864   5.384   3.524
 2351TIP3    H1 7059   4.800   5.319   3.551
 2351TIP3    H2 7060   4.947   5.337   3.522
 2352TIP3   OH2 7061   1.062   0.624   3.581
 2352TIP3    H1 7062   1.069   0.530   3.564
 2352TIP3    H2 7063   1.140   0.662   3.539
 2353TIP3   OH2 7064   1.830   0.138   4.698
 2353TIP3    H1 7065   1.923   0.141   4.720
 2353TIP3    H2 7066   1.801   0.229   4.699
 2354TIP3   OH2 7067   4.934   5.360   4.656
 2354TIP3    H1 7068   4.843   5.350   4.684
 2354TIP3    H2 7069   4.983   5.371   4.738
 2355TIP3   OH2 7070   6.239   0.990   1.839
 2355TIP3    H1 7071   6.226   0.947   1.924
 2355TIP3    H2 7072   6.245   1.083   1.860
 2356TIP3   OH2 7073   4.848   4.210   0.203
 2356TIP3    H1 7074   4.756   4.198   0.227
 2356TIP3    H2 7075   4.884   4.121   0.200
 2357TIP3   OH2 7076   2.257   2.104   4.363
 2357TIP3    H1 7077   2.247   2.170   4.295
 2357TIP3    H2 7078   2.174   2.057   4.364
 2358TIP3   OH2 7079   5.349   2.371   2.342
 2358TIP3    H1 7080   5.288   2.325   2.400
 2358TIP3    H2 7081   5.351   2.461   2.375
 2359TIP3   OH2 7082   2.064   1.898   1.642
 2359TIP3    H1 7083   2.070   1.976   1.587
 2359TIP3    H2 7084   2.084   1.929   1.730
 2360TIP3   OH2 7085   2.283   5.076   5.068
 2360TIP3    H1 7086   2.217   5.126   5.019
 2360TIP3    H2 7087   2.273   5.107   5.158
 2361TIP3   OH2 7088   1.141   2.170   0.026
 2361TIP3    H1 7089   1.147   2.245   0.086
 2361TIP3    H2 7090   1.199   2.105   0.064
 2362TIP3   OH2 7091   1.351   5.941   3.797
 2362TIP3    H1 7092   1.414   5.924   3.867
 2362TIP3    H2 7093   1.403   5.935   3.717
 2363TIP3   OH2 7094   1.733   3.612   3.293
 2363TIP3    H1 7095   1.758   3.667   3.367
 2363TIP3    H2 7096   1.643   3.638   3.273
 2364TIP3   OH2 7097   4.492   1.471   1.202
 2364TIP3    H1 7098   4.451   1.454   1.117
 2364TIP3    H2 7099   4.420   1.495   1.260
 2365TIP3   OH2 7100   1.019   1.335   4.203
 2365TIP3    H1 7101   1.110   1.355   4.224
 2365TIP3    H2 7102   0.998   1.394   4.131
 2366TIP3   OH2 7103   4.301   3.244   0.837
 2366TIP3    H1 7104   4.302   3.185   0.761
 2366TIP3    H2 7105   4.211   3.237   0.871
 2367TIP3   OH2 7106   5.572   4.105   2.759
 2367TIP3    H1 7107   5.548   4.013   2.771
 2367TIP3    H2 7108   5.505   4.154   2.807
 2368TIP3   OH2 7109   0.940   4.744   1.968
 2368TIP3    H1 7110   0.876   4.708   1.906
 2368TIP3    H2 7111   0.887   4.796   2.029
 2369TIP3   OH2 7112   2.194   0.852   0.703
 2369TIP3    H1 7113   2.167   0.841   0.612
 2369TIP3    H2 7114   2.233   0.767   0.726
 2370TIP3   OH2 7115   5.979   1.223   2.581
 2370TIP3    H1 7116   6.030   1.249   2.658
 2370TIP3    H2 7117   5.969   1.303   2.530
 2371TIP3   OH2 7118   3.713   2.184   3.031
 2371TIP3    H1 7119   3.637   2.131   3.056
 2371TIP3    H2 7120   3.773   2.177   3.105
 2372TIP3   OH2 7121   3.982   1.700   4.094
 2372TIP3    H1 7122   4.052   1.697   4.029
 2372TIP3    H2 7123   3.980   1.791   4.123
 2373TIP3   OH2 7124   2.220   1.059   1.508
 2373TIP3    H1 7125   2.300   1.053   1.560
 2373TIP3    H2 7126   2.248   1.048   1.418
 2374TIP3   OH2 7127   0.107   4.856   0.721
 2374TIP3    H1 7128   0.201   4.868   0.709
 2374TIP3    H2 7129   0.067   4.925   0.667
 2375TIP3   OH2 7130   2.274   0.613   3.232
 2375TIP3    H1 7131   2.284   0.700   3.271
 2375TIP3    H2 7132   2.207   0.625   3.164
 2376TIP3   OH2 7133   3.717   4.715   5.077
 2376TIP3    H1 7134   3.731   4.668   5.159
 2376TIP3    H2 7135   3.622   4.727   5.072
 2377TIP3   OH2 7136   1.811   0.043   3.424
 2377TIP3    H1 7137   1.857   0.062   3.506
 2377TIP3    H2 7138   1.753  -0.030   3.445
 2378TIP3   OH2 7139   4.204   1.518   0.206
 2378TIP3    H1 7140   4.113   1.512   0.177
 2378TIP3    H2 7141   4.241   1.588   0.152
 2379TIP3   OH2 7142   4.624   4.177   4.780
 2379TIP3    H1 7143   4.559   4.128   4.831
 2379TIP3    H2 7144   4.708   4.149   4.816
 2380TIP3   OH2 7145   1.991   5.497   1.439
 2380TIP3    H1 7146   2.053   5.433   1.405
 2380TIP3    H2 7147   1.937   5.448   1.500
 2381TIP3   OH2 7148   0.518   4.692   1.422
 2381TIP3    H1 7149   0.582   4.634   1.462
 2381TIP3    H2 7150   0.541   4.693   1.329
 2382TIP3   OH2 7151   3.748   3.674   1.807
 2382TIP3    H1 7152   3.756   3.669   1.712
 2382TIP3    H2 7153   3.679   3.739   1.822
 2383TIP3   OH2 7154   2.691   5.823   2.305
 2383TIP3    H1 7155   2.655   5.895   2.253
 2383TIP3    H2 7156   2.634   5.748   2.287
 2384TIP3   OH2 7157   2.761   5.200   1.464
 2384TIP3    H1 7158   2.688   5.255   1.496
 2384TIP3    H2 7159   2.757   5.208   1.369
 2385TIP3   OH2 7160   6.298   0.432   3.017
 2385TIP3    H1 7161   6.323   0.413   3.107
 2385TIP3    H2 7162   6.335   0.519   3.000
 2386TIP3   OH2 7163   2.598   3.716   4.114
 2386TIP3    H1 7164   2.649   3.749   4.187
 2386TIP3    H2 7165   2.519   3.771   4.113
 2387TIP3   OH2 7166   0.245   3.905   0.086
 2387TIP3    H1 7167   0.308   3.834   0.094
 2387TIP3    H2 7168   0.298   3.982   0.066
 2388TIP3   OH2 7169   4.082   2.119   1.469
 2388TIP3    H1 7170   4.165   2.154   1.436
 2388TIP3    H2 7171   4.065   2.169   1.549
 2389TIP3   OH2 7172   1.623   5.564   2.869
 2389TIP3    H1 7173   1.581   5.520   2.943
 2389TIP3    H2 7174   1.556   5.565   2.801
 2390TIP3   OH2 7175   2.662   5.719   4.670
 2390TIP3    H1 7176   2.752   5.687   4.668
 2390TIP3    H2 7177   2.641   5.735   4.579
 2391TIP3   OH2 7178   0.232   1.839   4.955
 2391TIP3    H1 7179   0.176   1.829   4.878
 2391TIP3    H2 7180   0.280   1.921   4.940
 2392TIP3   OH2 7181   2.303   0.906   1.266
 2392TIP3    H1 7182   2.331   0.862   1.346
 2392TIP3    H2 7183   2.384   0.939   1.227
 2393TIP3   OH2 7184   3.384   2.510   5.032
 2393TIP3    H1 7185   3.298   2.469   5.044
 2393TIP3    H2 7186   3.427   2.457   4.965
 2394TIP3   OH2 7187   4.161   5.845   0.634
 2394TIP3    H1 7188   4.201   5.900   0.702
 2394TIP3    H2 7189   4.235   5.799   0.595
 2395TIP3   OH2 7190   4.991   1.268   4.308
 2395TIP3    H1 7191   5.029   1.355   4.303
 2395TIP3    H2 7192   5.055   1.215   4.355
 2396TIP3   OH2 7193   1.921   3.421   3.334
 2396TIP3    H1 7194   1.862   3.473   3.280
 2396TIP3    H2 7195   1.886   3.429   3.423
 2397TIP3   OH2 7196   5.129   5.168   4.800
 2397TIP3    H1 7197   5.136   5.262   4.814
 2397TIP3    H2 7198   5.045   5.144   4.839
 2398TIP3   OH2 7199   4.470   5.253   3.824
 2398TIP3    H1 7200   4.561   5.263   3.796
 2398TIP3    H2 7201   4.445   5.166   3.791
 2399TIP3   OH2 7202   2.439   3.541   0.895
 2399TIP3    H1 7203   2.470   3.556   0.805
 2399TIP3    H2 7204   2.486   3.606   0.947
 2400TIP3   OH2 7205   5.510   2.147   2.035
 2400TIP3    H1 7206   5.508   2.191   1.950
 2400TIP3    H2 7207   5.590   2.095   2.033
 2401TIP3   OH2 7208   4.696   5.578   1.261
 2401TIP3    H1 7209   4.734   5.490   1.264
 2401TIP3    H2 7210   4.768   5.634   1.232
 2402TIP3   OH2 7211   0.969   4.281   1.864
 2402TIP3    H1 7212   0.994   4.328   1.785
 2402TIP3    H2 7213   0.983   4.189   1.843
 2403TIP3   OH2 7214   4.463   1.930   1.686
 2403TIP3    H1 7215   4.371   1.904   1.677
 2403TIP3    H2 7216   4.468   2.015   1.642
 2404TIP3   OH2 7217   0.608   2.308   0.213
 2404TIP3    H1 7218   0.632   2.260   0.133
 2404TIP3    H2 7219   0.594   2.239   0.278
 2405TIP3   OH2 7220   3.581   5.954   3.059
 2405TIP3    H1 7221   3.536   5.970   2.976
 2405TIP3    H2 7222   3.655   5.898   3.036
 2406TIP3   OH2 7223   3.371   5.081   2.908
 2406TIP3    H1 7224   3.439   5.015   2.892
 2406TIP3    H2 7225   3.303   5.063   2.844
 2407TIP3   OH2 7226   1.028   0.106   2.427
 2407TIP3    H1 7227   1.034   0.053   2.348
 2407TIP3    H2 7228   1.099   0.074   2.483
 2408TIP3   OH2 7229   1.259   4.620   2.664
 2408TIP3    H1 7230   1.170   4.594   2.642
 2408TIP3    H2 7231   1.313   4.544   2.644
 2409TIP3   OH2 7232   1.811   1.456   4.228
 2409TIP3    H1 7233   1.790   1.436   4.137
 2409TIP3    H2 7234   1.839   1.372   4.264
 2410TIP3   OH2 7235   2.492   0.348   5.013
 2410TIP3    H1 7236   2.441   0.421   4.978
 2410TIP3    H2 7237   2.570   0.345   4.958
 2411TIP3   OH2 7238   3.724   2.991   0.052
 2411TIP3    H1 7239   3.716   2.901   0.085
 2411TIP3    H2 7240   3.719   2.981  -0.043
 2412TIP3   OH2 7241   1.200   1.358   2.156
 2412TIP3    H1 7242   1.181   1.427   2.220
 2412TIP3    H2 7243   1.135   1.290   2.175
 2413TIP3   OH2 7244   1.456   4.221   4.511
 2413TIP3    H1 7245   1.541   4.218   4.466
 2413TIP3    H2 7246   1.467   4.163   4.586
 2414TIP3   OH2 7247   0.624   5.311   1.859
 2414TIP3    H1 7248   0.581   5.226   1.869
 2414TIP3    H2 7249   0.553   5.373   1.844
 2415TIP3   OH2 7250   5.136   5.175   2.974
 2415TIP3    H1 7251   5.069   5.108   2.977
 2415TIP3    H2 7252   5.118   5.231   3.049
 2416TIP3   OH2 7253   5.915   0.283   1.481
 2416TIP3    H1 7254   5.860   0.251   1.409
 2416TIP3    H2 7255   5.993   0.317   1.438
 2417TIP3   OH2 7256   1.213   3.633   4.589
 2417TIP3    H1 7257   1.237   3.702   4.650
 2417TIP3    H2 7258   1.229   3.551   4.637
 2418TIP3   OH2 7259   0.103   3.551   5.039
 2418TIP3    H1 7260   0.056   3.623   4.996
 2418TIP3    H2 7261   0.195   3.566   5.017
 2419TIP3   OH2 7262   4.406   2.671   2.530
 2419TIP3    H1 7263   4.489   2.637   2.563
 2419TIP3    H2 7264   4.392   2.625   2.447
 2420TIP3   OH2 7265   5.381   2.873   2.908
 2420TIP3    H1 7266   5.341   2.818   2.976
 2420TIP3    H2 7267   5.333   2.852   2.828
 2421TIP3   OH2 7268   4.790   0.199   1.415
 2421TIP3    H1 7269   4.830   0.279   1.448
 2421TIP3    H2 7270   4.702   0.198   1.453
 2422TIP3   OH2 7271   2.951   1.779   3.871
 2422TIP3    H1 7272   3.043   1.804   3.860
 2422TIP3    H2 7273   2.947   1.743   3.960
 2423TIP3   OH2 7274   6.021   3.380   0.552
 2423TIP3    H1 7275   6.117   3.379   0.557
 2423TIP3    H2 7276   6.000   3.311   0.489
 2424TIP3   OH2 7277   5.965   3.226   1.241
 2424TIP3    H1 7278   6.019   3.257   1.168
 2424TIP3    H2 7279   6.019   3.160   1.285
 2425TIP3   OH2 7280   3.979   3.733   0.816
 2425TIP3    H1 7281   3.916   3.749   0.886
 2425TIP3    H2 7282   4.003   3.641   0.826
 2426TIP3   OH2 7283   1.954   4.613   0.435
 2426TIP3    H1 7284   1.897   4.689   0.429
 2426TIP3    H2 7285   1.912   4.555   0.499
 2427TIP3   OH2 7286   3.939   2.232   4.124
 2427TIP3    H1 7287   3.941   2.274   4.210
 2427TIP3    H2 7288   3.906   2.144   4.141
 2428TIP3   OH2 7289   5.608   5.062   3.148
 2428TIP3    H1 7290   5.682   5.086   3.094
 2428TIP3    H2 7291   5.533   5.063   3.089
 2429TIP3   OH2 7292   4.003   5.572   3.907
 2429TIP3    H1 7293   3.929   5.616   3.949
 2429TIP3    H2 7294   4.058   5.642   3.873
 2430TIP3   OH2 7295   5.217   1.222   4.039
 2430TIP3    H1 7296   5.266   1.261   3.966
 2430TIP3    H2 7297   5.134   1.269   4.041
 2431TIP3   OH2 7298   3.239   0.903   5.002
 2431TIP3    H1 7299   3.283   0.864   4.927
 2431TIP3    H2 7300   3.238   0.834   5.068
 2432TIP3   OH2 7301   4.080   4.756   1.506
 2432TIP3    H1 7302   4.168   4.717   1.505
 2432TIP3    H2 7303   4.062   4.777   1.414
 2433TIP3   OH2 7304   0.322   4.397   0.367
 2433TIP3    H1 7305   0.407   4.391   0.410
 2433TIP3    H2 7306   0.278   4.470   0.410
 2434TIP3   OH2 7307   1.819   4.394   2.209
 2434TIP3    H1 7308   1.731   4.431   2.213
 2434TIP3    H2 7309   1.810   4.315   2.156
 2435TIP3   OH2 7310   2.171   0.285   4.531
 2435TIP3    H1 7311   2.192   0.301   4.439
 2435TIP3    H2 7312   2.169   0.190   4.539
 2436TIP3   OH2 7313   4.182   3.406   2.733
 2436TIP3    H1 7314   4.242   3.480   2.741
 2436TIP3    H2 7315   4.128   3.409   2.812
 2437TIP3   OH2 7316   0.597   3.994   4.486
 2437TIP3    H1 7317   0.656   3.929   4.450
 2437TIP3    H2 7318   0.511   3.953   4.485
 2438TIP3   OH2 7319   0.276   4.385   0.101
 2438TIP3    H1 7320   0.299   4.376   0.194
 2438TIP3    H2 7321   0.194   4.435   0.102
 2439TIP3   OH2 7322   4.516   5.853   1.291
 2439TIP3    H1 7323   4.573   5.899   1.353
 2439TIP3    H2 7324   4.503   5.766   1.330
 2440TIP3   OH2 7325   0.630   5.799   4.067
 2440TIP3    H1 7326   0.543   5.768   4.092
 2440TIP3    H2 7327   0.670   5.725   4.023
 2441TIP3   OH2 7328   3.254   4.748   2.962
 2441TIP3    H1 7329   3.236   4.659   2.992
 2441TIP3    H2 7330   3.268   4.740   2.868
 2442TIP3   OH2 7331   5.250   5.559   4.503
 2442TIP3    H1 7332   5.157   5.559   4.482
 2442TIP3    H2 7333   5.284   5.480   4.460
 2443TIP3   OH2 7334   2.300   3.682   4.431
 2443TIP3    H1 7335   2.300   3.661   4.525
 2443TIP3    H2 7336   2.389   3.713   4.413
 2444TIP3   OH2 7337   5.578   1.248   3.694
 2444TIP3    H1 7338   5.600   1.291   3.777
 2444TIP3    H2 7339   5.538   1.165   3.719
 2445TIP3   OH2 7340   0.296   1.198   1.556
 2445TIP3    H1 7341   0.270   1.131   1.492
 2445TIP3    H2 7342   0.372   1.240   1.517
 2446TIP3   OH2 7343   2.108   2.611   1.132
 2446TIP3    H1 7344   2.167   2.624   1.058
 2446TIP3    H2 7345   2.065   2.696   1.143
 2447TIP3   OH2 7346   3.584   1.641   1.544
 2447TIP3    H1 7347   3.616   1.557   1.509
 2447TIP3    H2 7348   3.605   1.637   1.637
 2448TIP3   OH2 7349   1.284   1.604   1.519
 2448TIP3    H1 7350   1.286   1.695   1.490
 2448TIP3    H2 7351   1.375   1.584   1.541
 2449TIP3   OH2 7352   1.718   0.406   4.290
 2449TIP3    H1 7353   1.758   0.421   4.205
 2449TIP3    H2 7354   1.779   0.446   4.353
 2450TIP3   OH2 7355   1.963   2.236   1.841
 2450TIP3    H1 7356   1.869   2.251   1.836
 2450TIP3    H2 7357   1.999   2.284   1.767
 2451TIP3   OH2 7358   5.108   5.854   4.769
 2451TIP3    H1 7359   5.193   5.812   4.754
 2451TIP3    H2 7360   5.110   5.879   4.862
 2452TIP3   OH2 7361   3.498   4.397   3.409
 2452TIP3    H1 7362   3.554   4.422   3.483
 2452TIP3    H2 7363   3.409   4.416   3.438
 2453TIP3   OH2 7364   0.860   4.597   1.723
 2453TIP3    H1 7365   0.799   4.559   1.786
 2453TIP3    H2 7366   0.906   4.521   1.686
 2454TIP3   OH2 7367   5.718   0.239   0.835
 2454TIP3    H1 7368   5.652   0.289   0.883
 2454TIP3    H2 7369   5.752   0.177   0.898
 2455TIP3   OH2 7370   4.460   5.971   2.182
 2455TIP3    H1 7371   4.473   5.945   2.091
 2455TIP3    H2 7372   4.542   6.014   2.206
 2456TIP3   OH2 7373   5.946   2.409   4.357
 2456TIP3    H1 7374   6.010   2.352   4.400
 2456TIP3    H2 7375   5.965   2.400   4.264
 2457TIP3   OH2 7376   1.106   3.561   2.574
 2457TIP3    H1 7377   1.034   3.501   2.551
 2457TIP3    H2 7378   1.169   3.551   2.503
 2458TIP3   OH2 7379   0.612   2.416   4.846
 2458TIP3    H1 7380   0.540   2.360   4.817
 2458TIP3    H2 7381   0.691   2.372   4.813
 2459TIP3   OH2 7382   5.322   2.491   0.538
 2459TIP3    H1 7383   5.273   2.410   0.555
 2459TIP3    H2 7384   5.327   2.496   0.443
 2460TIP3   OH2 7385   5.305   2.776   1.861
 2460TIP3    H1 7386   5.305   2.872   1.853
 2460TIP3    H2 7387   5.241   2.747   1.796
 2461TIP3   OH2 7388   0.227   4.673   2.400
 2461TIP3    H1 7389   0.294   4.740   2.388
 2461TIP3    H2 7390   0.275   4.599   2.439
 2462TIP3   OH2 7391   0.647   1.915   3.375
 2462TIP3    H1 7392   0.601   1.894   3.456
 2462TIP3    H2 7393   0.686   1.831   3.347
 2463TIP3   OH2 7394   3.596   4.044   1.317
 2463TIP3    H1 7395   3.675   4.014   1.271
 2463TIP3    H2 7396   3.556   4.107   1.258
 2464TIP3   OH2 7397   6.166   4.473   1.835
 2464TIP3    H1 7398   6.211   4.441   1.912
 2464TIP3    H2 7399   6.075   4.485   1.864
 2465TIP3   OH2 7400   1.162   0.757   4.708
 2465TIP3    H1 7401   1.207   0.675   4.686
 2465TIP3    H2 7402   1.232   0.823   4.705
 2466TIP3   OH2 7403   2.222   4.751   1.283
 2466TIP3    H1 7404   2.246   4.788   1.198
 2466TIP3    H2 7405   2.241   4.820   1.346
 2467TIP3   OH2 7406   5.362   0.682   5.136
 2467TIP3    H1 7407   5.352   0.590   5.113
 2467TIP3    H2 7408   5.277   0.721   5.116
 2468TIP3   OH2 7409   5.380   2.498   4.757
 2468TIP3    H1 7410   5.341   2.585   4.769
 2468TIP3    H2 7411   5.322   2.455   4.694
 2469TIP3   OH2 7412   2.982   4.621   0.325
 2469TIP3    H1 7413   2.906   4.679   0.322
 2469TIP3    H2 7414   3.027   4.635   0.241
 2470TIP3   OH2 7415   5.691   4.851   1.540
 2470TIP3    H1 7416   5.734   4.857   1.455
 2470TIP3    H2 7417   5.634   4.774   1.533
 2471TIP3   OH2 7418   0.037   0.286   2.016
 2471TIP3    H1 7419   0.092   0.342   2.070
 2471TIP3    H2 7420   0.067   0.302   1.926
 2472TIP3   OH2 7421   3.071   3.418   4.224
 2472TIP3    H1 7422   3.044   3.405   4.315
 2472TIP3    H2 7423   3.132   3.492   4.227
 2473TIP3   OH2 7424   3.155   1.478   2.898
 2473TIP3    H1 7425   3.223   1.417   2.869
 2473TIP3    H2 7426   3.110   1.432   2.968
 2474TIP3   OH2 7427   6.000   4.529   3.516
 2474TIP3    H1 7428   5.940   4.477   3.570
 2474TIP3    H2 7429   6.002   4.615   3.558
 2475TIP3   OH2 7430   4.357   2.453   0.459
 2475TIP3    H1 7431   4.411   2.391   0.410
 2475TIP3    H2 7432   4.376   2.434   0.551
 2476TIP3   OH2 7433   2.314   0.871   1.992
 2476TIP3    H1 7434   2.409   0.861   1.995
 2476TIP3    H2 7435   2.292   0.911   2.076
 2477TIP3   OH2 7436   2.889   1.683   1.743
 2477TIP3    H1 7437   2.815   1.627   1.722
 2477TIP3    H2 7438   2.855   1.772   1.733
 2478TIP3   OH2 7439   2.965   4.893   2.035
 2478TIP3    H1 7440   2.939   4.830   1.967
 2478TIP3    H2 7441   2.898   4.961   2.031
 2479TIP3   OH2 7442   5.049   2.730   2.316
 2479TIP3    H1 7443   5.087   2.720   2.229
 2479TIP3    H2 7444   5.079   2.816   2.346
 2480TIP3   OH2 7445   1.944   1.811   0.893
 2480TIP3    H1 7446   1.945   1.774   0.805
 2480TIP3    H2 7447   1.989   1.896   0.883
 2481TIP3   OH2 7448   3.006   1.598   1.976
 2481TIP3    H1 7449   2.995   1.503   1.973
 2481TIP3    H2 7450   3.020   1.623   1.885
 2482TIP3   OH2 7451   4.310   2.773   4.492
 2482TIP3    H1 7452   4.403   2.756   4.477
 2482TIP3    H2 7453   4.307   2.822   4.574
 2483TIP3   OH2 7454   6.203   4.931   3.860
 2483TIP3    H1 7455   6.269   4.988   3.819
 2483TIP3    H2 7456   6.138   4.918   3.792
 2484TIP3   OH2 7457   2.563   4.823   3.107
 2484TIP3    H1 7458   2.577   4.729   3.115
 2484TIP3    H2 7459   2.592   4.859   3.191
 2485TIP3   OH2 7460   2.924   5.696   2.382
 2485TIP3    H1 7461   2.979   5.701   2.304
 2485TIP3    H2 7462   2.841   5.736   2.357
 2486TIP3   OH2 7463   5.509   0.379   2.300
 2486TIP3    H1 7464   5.454   0.442   2.348
 2486TIP3    H2 7465   5.448   0.331   2.245
 2487TIP3   OH2 7466   4.685   3.746   3.080
 2487TIP3    H1 7467   4.599   3.774   3.110
 2487TIP3    H2 7468   4.745   3.772   3.150
 2488TIP3   OH2 7469   2.754   5.836   0.135
 2488TIP3    H1 7470   2.800   5.755   0.157
 2488TIP3    H2 7471   2.751   5.885   0.218
 2489TIP3   OH2 7472   5.405   5.305   3.868
 2489TIP3    H1 7473   5.312   5.302   3.847
 2489TIP3    H2 7474   5.407   5.326   3.962
 2490TIP3   OH2 7475   2.468   2.100   3.493
 2490TIP3    H1 7476   2.399   2.062   3.440
 2490TIP3    H2 7477   2.528   2.028   3.511
 2491TIP3   OH2 7478   0.875   5.322   4.901
 2491TIP3    H1 7479   0.909   5.258   4.964
 2491TIP3    H2 7480   0.928   5.400   4.917
 2492TIP3   OH2 7481   4.441   0.958   2.801
 2492TIP3    H1 7482   4.440   0.940   2.896
 2492TIP3    H2 7483   4.432   0.872   2.761
 2493TIP3   OH2 7484   2.890   3.534   4.609
 2493TIP3    H1 7485   2.856   3.449   4.634
 2493TIP3    H2 7486   2.958   3.515   4.544
 2494TIP3   OH2 7487   5.437   4.535   1.013
 2494TIP3    H1 7488   5.460   4.450   0.975
 2494TIP3    H2 7489   5.428   4.593   0.938
 2495TIP3   OH2 7490   2.198   3.984   2.635
 2495TIP3    H1 7491   2.257   3.950   2.568
 2495TIP3    H2 7492   2.124   3.923   2.635
 2496TIP3   OH2 7493   5.402   5.304   4.541
 2496TIP3    H1 7494   5.392   5.363   4.616
 2496TIP3    H2 7495   5.496   5.294   4.531
 2497TIP3   OH2 7496   0.836   0.032   0.700
 2497TIP3    H1 7497   0.873   0.048   0.787
 2497TIP3    H2 7498   0.808  -0.060   0.703
 2498TIP3   OH2 7499   2.113   4.278   0.597
 2498TIP3    H1 7500   2.023   4.285   0.566
 2498TIP3    H2 7501   2.129   4.359   0.645
 2499TIP3   OH2 7502   0.364   2.106   5.171
 2499TIP3    H1 7503   0.404   2.063   5.096
 2499TIP3    H2 7504   0.427   2.094   5.242
 2500TIP3   OH2 7505   4.576   5.237   4.296
 2500TIP3    H1 7506   4.579   5.237   4.391
 2500TIP3    H2 7507   4.483   5.225   4.275
 2501TIP3   OH2 7508   6.071   2.326   1.100
 2501TIP3    H1 7509   6.036   2.329   1.189
 2501TIP3    H2 7510   6.165   2.334   1.110
 2502TIP3   OH2 7511   5.149   2.283   4.710
 2502TIP3    H1 7512   5.166   2.307   4.802
 2502TIP3    H2 7513   5.067   2.234   4.713
 2503TIP3   OH2 7514   2.042   5.095   0.665
 2503TIP3    H1 7515   2.036   5.099   0.760
 2503TIP3    H2 7516   2.109   5.159   0.642
 2504TIP3   OH2 7517   5.160   1.444   1.006
 2504TIP3    H1 7518   5.226   1.382   0.976
 2504TIP3    H2 7519   5.175   1.523   0.954
 2505TIP3   OH2 7520   4.373   0.733   2.669
 2505TIP3    H1 7521   4.342   0.650   2.705
 2505TIP3    H2 7522   4.457   0.711   2.628
 2506TIP3   OH2 7523   5.295   0.392   0.747
 2506TIP3    H1 7524   5.342   0.404   0.664
 2506TIP3    H2 7525   5.216   0.445   0.737
 2507TIP3   OH2 7526   1.286   3.083   3.305
 2507TIP3    H1 7527   1.371   3.076   3.347
 2507TIP3    H2 7528   1.223   3.074   3.376
 2508TIP3   OH2 7529   3.344   4.493   4.137
 2508TIP3    H1 7530   3.252   4.465   4.138
 2508TIP3    H2 7531   3.392   4.418   4.173
 2509TIP3   OH2 7532   3.664   5.349   0.611
 2509TIP3    H1 7533   3.688   5.350   0.518
 2509TIP3    H2 7534   3.598   5.281   0.618
 2510TIP3   OH2 7535   2.399   5.742   0.861
 2510TIP3    H1 7536   2.307   5.720   0.841
 2510TIP3    H2 7537   2.419   5.691   0.939
 2511TIP3   OH2 7538   1.071   2.602   0.911
 2511TIP3    H1 7539   1.033   2.596   0.999
 2511TIP3    H2 7540   1.165   2.614   0.927
 2512TIP3   OH2 7541   2.812   5.186   0.987
 2512TIP3    H1 7542   2.797   5.211   0.895
 2512TIP3    H2 7543   2.894   5.136   0.984
 2513TIP3   OH2 7544   3.147   5.510   0.560
 2513TIP3    H1 7545   3.111   5.567   0.493
 2513TIP3    H2 7546   3.080   5.508   0.629
 2514TIP3   OH2 7547   3.953   5.132   2.671
 2514TIP3    H1 7548   3.949   5.040   2.698
 2514TIP3    H2 7549   3.864   5.152   2.642
 2515TIP3   OH2 7550   5.011   2.229   1.533
 2515TIP3    H1 7551   4.983   2.260   1.447
 2515TIP3    H2 7552   5.068   2.297   1.566
 2516TIP3   OH2 7553   0.829   4.438   3.924
 2516TIP3    H1 7554   0.829   4.368   3.858
 2516TIP3    H2 7555   0.896   4.411   3.987
 2517TIP3   OH2 7556   0.097   2.544  -0.012
 2517TIP3    H1 7557   0.105   2.610  -0.081
 2517TIP3    H2 7558   0.187   2.527   0.016
 2518TIP3   OH2 7559   1.167   0.721   0.097
 2518TIP3    H1 7560   1.086   0.701   0.049
 2518TIP3    H2 7561   1.230   0.743   0.028
 2519TIP3   OH2 7562   4.869   0.647   3.253
 2519TIP3    H1 7563   4.962   0.668   3.261
 2519TIP3    H2 7564   4.867   0.551   3.251
 2520TIP3   OH2 7565   0.143   4.684   1.163
 2520TIP3    H1 7566   0.088   4.611   1.133
 2520TIP3    H2 7567   0.220   4.680   1.107
 2521TIP3   OH2 7568   5.103   1.654   1.226
 2521TIP3    H1 7569   5.009   1.668   1.240
 2521TIP3    H2 7570   5.107   1.576   1.170
 2522TIP3   OH2 7571   1.861   0.353   1.997
 2522TIP3    H1 7572   1.923   0.426   1.996
 2522TIP3    H2 7573   1.776   0.394   1.978
 2523TIP3   OH2 7574   5.034   1.704   4.967
 2523TIP3    H1 7575   5.009   1.777   4.910
 2523TIP3    H2 7576   5.063   1.745   5.048
 2524TIP3   OH2 7577   2.520   4.050   0.207
 2524TIP3    H1 7578   2.598   4.080   0.161
 2524TIP3    H2 7579   2.493   4.125   0.260
 2525TIP3   OH2 7580   0.740   5.992   1.415
 2525TIP3    H1 7581   0.686   5.994   1.493
 2525TIP3    H2 7582   0.678   5.982   1.343
 2526TIP3   OH2 7583   0.256   0.734   2.189
 2526TIP3    H1 7584   0.226   0.654   2.146
 2526TIP3    H2 7585   0.326   0.767   2.132
 2527TIP3   OH2 7586   2.828   3.331   1.506
 2527TIP3    H1 7587   2.794   3.406   1.457
 2527TIP3    H2 7588   2.917   3.355   1.529
 2528TIP3   OH2 7589   4.551   0.078   1.931
 2528TIP3    H1 7590   4.469   0.037   1.904
 2528TIP3    H2 7591   4.615   0.045   1.868
 2529TIP3   OH2 7592   2.057   0.515   0.225
 2529TIP3    H1 7593   2.045   0.607   0.200
 2529TIP3    H2 7594   1.968   0.480   0.232
 2530TIP3   OH2 7595   3.007   3.913   4.062
 2530TIP3    H1 7596   3.002   4.008   4.049
 2530TIP3    H2 7597   3.000   3.877   3.974
 2531TIP3   OH2 7598   4.101   1.692   3.466
 2531TIP3    H1 7599   4.192   1.669   3.450
 2531TIP3    H2 7600   4.098   1.787   3.451
 2532TIP3   OH2 7601   6.092   0.625   1.779
 2532TIP3    H1 7602   6.108   0.636   1.873
 2532TIP3    H2 7603   6.052   0.539   1.771
 2533TIP3   OH2 7604   5.086   1.190   2.057
 2533TIP3    H1 7605   5.127   1.139   2.127
 2533TIP3    H2 7606   5.139   1.171   1.980
 2534TIP3   OH2 7607   1.106   3.360   1.377
 2534TIP3    H1 7608   1.164   3.385   1.449
 2534TIP3    H2 7609   1.062   3.440   1.352
 2535TIP3   OH2 7610   3.429   4.382   0.405
 2535TIP3    H1 7611   3.358   4.445   0.416
 2535TIP3    H2 7612   3.508   4.434   0.401
 2536TIP3   OH2 7613   3.045   2.382   4.844
 2536TIP3    H1 7614   3.029   2.432   4.764
 2536TIP3    H2 7615   3.047   2.448   4.914
 2537TIP3   OH2 7616   1.645   5.305   1.441
 2537TIP3    H1 7617   1.604   5.391   1.446
 2537TIP3    H2 7618   1.701   5.309   1.363
 2538TIP3   OH2 7619   2.539   5.390   3.067
 2538TIP3    H1 7620   2.597   5.324   3.105
 2538TIP3    H2 7621   2.498   5.433   3.142
 2539TIP3   OH2 7622   2.561   2.154   2.355
 2539TIP3    H1 7623   2.586   2.089   2.420
 2539TIP3    H2 7624   2.638   2.210   2.347
 2540TIP3   OH2 7625   2.876   1.158   4.798
 2540TIP3    H1 7626   2.963   1.117   4.796
 2540TIP3    H2 7627   2.815   1.086   4.786
 2541TIP3   OH2 7628   4.524   5.058   1.451
 2541TIP3    H1 7629   4.542   5.135   1.505
 2541TIP3    H2 7630   4.453   5.085   1.393
 2542TIP3   OH2 7631   4.562   5.458   0.384
 2542TIP3    H1 7632   4.579   5.524   0.316
 2542TIP3    H2 7633   4.585   5.375   0.342
 2543TIP3   OH2 7634   0.420   1.517   2.243
 2543TIP3    H1 7635   0.388   1.600   2.210
 2543TIP3    H2 7636   0.394   1.453   2.177
 2544TIP3   OH2 7637   4.879   1.601   2.120
 2544TIP3    H1 7638   4.823   1.632   2.191
 2544TIP3    H2 7639   4.961   1.578   2.163
 2545TIP3   OH2 7640   3.104   0.990   4.780
 2545TIP3    H1 7641   3.160   0.997   4.857
 2545TIP3    H2 7642   3.090   0.895   4.770
 2546TIP3   OH2 7643   3.835   5.136   4.907
 2546TIP3    H1 7644   3.741   5.115   4.907
 2546TIP3    H2 7645   3.849   5.179   4.823
 2547TIP3   OH2 7646   3.470   3.754   0.876
 2547TIP3    H1 7647   3.438   3.840   0.902
 2547TIP3    H2 7648   3.559   3.771   0.842
 2548TIP3   OH2 7649   3.613   3.814   2.306
 2548TIP3    H1 7650   3.583   3.869   2.234
 2548TIP3    H2 7651   3.644   3.734   2.264
 2549TIP3   OH2 7652   5.704   5.023   0.163
 2549TIP3    H1 7653   5.756   4.963   0.216
 2549TIP3    H2 7654   5.627   4.973   0.139
 2550TIP3   OH2 7655   3.308   1.156   2.955
 2550TIP3    H1 7656   3.292   1.143   3.049
 2550TIP3    H2 7657   3.222   1.141   2.915
 2551TIP3   OH2 7658   6.064   5.413   2.598
 2551TIP3    H1 7659   6.082   5.351   2.668
 2551TIP3    H2 7660   5.988   5.376   2.553
 2552TIP3   OH2 7661   6.089   4.207   3.515
 2552TIP3    H1 7662   6.037   4.280   3.481
 2552TIP3    H2 7663   6.030   4.131   3.510
 2553TIP3   OH2 7664   0.025   3.677   4.384
 2553TIP3    H1 7665   0.116   3.650   4.394
 2553TIP3    H2 7666  -0.018   3.648   4.465
 2554TIP3   OH2 7667   6.167   5.800   0.735
 2554TIP3    H1 7668   6.236   5.786   0.800
 2554TIP3    H2 7669   6.146   5.893   0.744
 2555TIP3   OH2 7670   2.548   1.594   3.922
 2555TIP3    H1 7671   2.588   1.613   4.008
 2555TIP3    H2 7672   2.491   1.519   3.938
 2556TIP3   OH2 7673   3.456   1.330   3.399
 2556TIP3    H1 7674   3.381   1.288   3.356
 2556TIP3    H2 7675   3.499   1.259   3.447
 2557TIP3   OH2 7676   2.809   3.616   0.656
 2557TIP3    H1 7677   2.789   3.597   0.748
 2557TIP3    H2 7678   2.762   3.698   0.638
 2558TIP3   OH2 7679   2.790   0.684   2.637
 2558TIP3    H1 7680   2.805   0.590   2.647
 2558TIP3    H2 7681   2.697   0.692   2.618
 2559TIP3   OH2 7682   5.101   1.661   2.674
 2559TIP3    H1 7683   5.133   1.613   2.598
 2559TIP3    H2 7684   5.074   1.592   2.736
 2560TIP3   OH2 7685   3.063   3.968   2.108
 2560TIP3    H1 7686   3.113   4.009   2.037
 2560TIP3    H2 7687   3.122   3.902   2.144
 2561TIP3   OH2 7688   2.743   2.980   5.181
 2561TIP3    H1 7689   2.822   2.973   5.128
 2561TIP3    H2 7690   2.760   2.927   5.258
 2562TIP3   OH2 7691   2.359   0.501   2.935
 2562TIP3    H1 7692   2.374   0.561   2.862
 2562TIP3    H2 7693   2.282   0.450   2.909
 2563TIP3   OH2 7694   5.209   2.982   0.235
 2563TIP3    H1 7695   5.154   2.904   0.224
 2563TIP3    H2 7696   5.203   3.002   0.329
 2564TIP3   OH2 7697   1.632   3.897   2.145
 2564TIP3    H1 7698   1.558   3.859   2.099
 2564TIP3    H2 7699   1.647   3.839   2.220
 2565TIP3   OH2 7700   1.257   4.699   3.008
 2565TIP3    H1 7701   1.271   4.750   2.928
 2565TIP3    H2 7702   1.306   4.618   2.993
 2566TIP3   OH2 7703   0.351   1.493   0.674
 2566TIP3    H1 7704   0.338   1.570   0.729
 2566TIP3    H2 7705   0.262   1.461   0.656
 2567TIP3   OH2 7706   5.577   4.311   2.455
 2567TIP3    H1 7707   5.642   4.319   2.385
 2567TIP3    H2 7708   5.564   4.216   2.465
 2568TIP3   OH2 7709   3.150   1.410   4.315
 2568TIP3    H1 7710   3.064   1.392   4.277
 2568TIP3    H2 7711   3.146   1.373   4.403
 2569TIP3   OH2 7712   4.106   2.710   4.766
 2569TIP3    H1 7713   4.153   2.637   4.725
 2569TIP3    H2 7714   4.135   2.787   4.717
 2570TIP3   OH2 7715   6.002   4.657   3.813
 2570TIP3    H1 7716   5.915   4.621   3.826
 2570TIP3    H2 7717   6.056   4.615   3.881
 2571TIP3   OH2 7718   2.350   0.555   1.540
 2571TIP3    H1 7719   2.326   0.463   1.547
 2571TIP3    H2 7720   2.290   0.600   1.600
 2572TIP3   OH2 7721   3.785   0.492   3.649
 2572TIP3    H1 7722   3.803   0.409   3.693
 2572TIP3    H2 7723   3.868   0.539   3.651
 2573TIP3   OH2 7724   2.758   5.637   0.857
 2573TIP3    H1 7725   2.722   5.726   0.854
 2573TIP3    H2 7726   2.801   5.632   0.943
 2574TIP3   OH2 7727   5.198   0.323   2.409
 2574TIP3    H1 7728   5.240   0.248   2.369
 2574TIP3    H2 7729   5.132   0.351   2.346
 2575TIP3   OH2 7730   3.780   5.136   3.980
 2575TIP3    H1 7731   3.786   5.129   4.076
 2575TIP3    H2 7732   3.735   5.219   3.965
 2576TIP3   OH2 7733   2.752   0.071   3.876
 2576TIP3    H1 7734   2.774  -0.020   3.896
 2576TIP3    H2 7735   2.701   0.066   3.795
 2577TIP3   OH2 7736   0.531   2.291   0.576
 2577TIP3    H1 7737   0.608   2.324   0.529
 2577TIP3    H2 7738   0.533   2.196   0.564
 2578TIP3   OH2 7739   3.291   0.277   0.801
 2578TIP3    H1 7740   3.351   0.236   0.738
 2578TIP3    H2 7741   3.342   0.348   0.840
 2579TIP3   OH2 7742   3.661   2.372   4.384
 2579TIP3    H1 7743   3.671   2.363   4.479
 2579TIP3    H2 7744   3.720   2.306   4.348
 2580TIP3   OH2 7745   0.389   3.800   4.521
 2580TIP3    H1 7746   0.453   3.792   4.592
 2580TIP3    H2 7747   0.373   3.710   4.493
 2581TIP3   OH2 7748   2.385   1.963   0.666
 2581TIP3    H1 7749   2.467   1.928   0.700
 2581TIP3    H2 7750   2.369   2.042   0.719
 2582TIP3   OH2 7751   3.554   3.613   4.405
 2582TIP3    H1 7752   3.641   3.589   4.371
 2582TIP3    H2 7753   3.526   3.686   4.349
 2583TIP3   OH2 7754   3.700   5.789   0.910
 2583TIP3    H1 7755   3.755   5.723   0.868
 2583TIP3    H2 7756   3.661   5.837   0.837
 2584TIP3   OH2 7757   2.123   5.236   4.151
 2584TIP3    H1 7758   2.177   5.156   4.149
 2584TIP3    H2 7759   2.037   5.206   4.178
 2585TIP3   OH2 7760   6.194   1.480   0.346
 2585TIP3    H1 7761   6.266   1.542   0.356
 2585TIP3    H2 7762   6.224   1.418   0.280
 2586TIP3   OH2 7763   1.675   5.350   4.218
 2586TIP3    H1 7764   1.581   5.364   4.230
 2586TIP3    H2 7765   1.711   5.348   4.306
 2587TIP3   OH2 7766   2.666   1.039   2.471
 2587TIP3    H1 7767   2.661   1.134   2.480
 2587TIP3    H2 7768   2.650   1.022   2.379
 2588TIP3   OH2 7769   3.732   4.747   3.735
 2588TIP3    H1 7770   3.707   4.658   3.711
 2588TIP3    H2 7771   3.821   4.738   3.770
 2589TIP3   OH2 7772   0.164   2.620   3.129
 2589TIP3    H1 7773   0.183   2.546   3.071
 2589TIP3    H2 7774   0.181   2.697   3.075
 2590TIP3   OH2 7775   1.025   2.197   1.618
 2590TIP3    H1 7776   0.951   2.236   1.573
 2590TIP3    H2 7777   1.102   2.230   1.571
 2591TIP3   OH2 7778   5.643   3.808   4.252
 2591TIP3    H1 7779   5.674   3.898   4.252
 2591TIP3    H2 7780   5.556   3.812   4.290
 2592TIP3   OH2 7781   5.540   4.631   1.518
 2592TIP3    H1 7782   5.551   4.552   1.465
 2592TIP3    H2 7783   5.483   4.603   1.590
 2593TIP3   OH2 7784   4.047   0.827   4.960
 2593TIP3    H1 7785   4.045   0.906   4.905
 2593TIP3    H2 7786   4.135   0.826   4.998
 2594TIP3   OH2 7787   3.404   5.613   0.684
 2594TIP3    H1 7788   3.340   5.570   0.628
 2594TIP3    H2 7789   3.485   5.614   0.632
 2595TIP3   OH2 7790   0.429   1.258   3.155
 2595TIP3    H1 7791   0.453   1.227   3.067
 2595TIP3    H2 7792   0.344   1.218   3.172
 2596TIP3   OH2 7793   4.700   5.849   0.223
 2596TIP3    H1 7794   4.679   5.940   0.243
 2596TIP3    H2 7795   4.626   5.799   0.258
 2597TIP3   OH2 7796   3.416   2.020   0.944
 2597TIP3    H1 7797   3.398   1.956   0.875
 2597TIP3    H2 7798   3.414   1.970   1.025
 2598TIP3   OH2 7799   3.746   2.419   1.830
 2598TIP3    H1 7800   3.796   2.358   1.884
 2598TIP3    H2 7801   3.664   2.373   1.811
 2599TIP3   OH2 7802   3.280   3.237   2.321
 2599TIP3    H1 7803   3.240   3.227   2.234
 2599TIP3    H2 7804   3.333   3.158   2.332
 2600TIP3   OH2 7805   0.885   1.825   4.827
 2600TIP3    H1 7806   0.816   1.764   4.803
 2600TIP3    H2 7807   0.876   1.899   4.766
 2601TIP3   OH2 7808   5.217   4.371   3.123
 2601TIP3    H1 7809   5.285   4.347   3.186
 2601TIP3    H2 7810   5.240   4.324   3.043
 2602TIP3   OH2 7811   2.514   3.480   0.126
 2602TIP3    H1 7812   2.610   3.483   0.128
 2602TIP3    H2 7813   2.487   3.571   0.143
 2603TIP3   OH2 7814   5.715   0.907   0.983
 2603TIP3    H1 7815   5.660   0.861   0.919
 2603TIP3    H2 7816   5.780   0.952   0.930
 2604TIP3   OH2 7817   2.342   5.381   2.829
 2604TIP3    H1 7818   2.413   5.376   2.893
 2604TIP3    H2 7819   2.267   5.342   2.873
 2605TIP3   OH2 7820   2.523   5.304   4.030
 2605TIP3    H1 7821   2.530   5.214   4.063
 2605TIP3    H2 7822   2.478   5.352   4.100
 2606TIP3   OH2 7823   6.252   6.012   3.234
 2606TIP3    H1 7824   6.307   5.936   3.250
 2606TIP3    H2 7825   6.173   5.996   3.286
 2607TIP3   OH2 7826   4.256   3.762  -0.018
 2607TIP3    H1 7827   4.225   3.672  -0.008
 2607TIP3    H2 7828   4.228   3.806   0.062
 2608TIP3   OH2 7829   4.701   2.189   4.050
 2608TIP3    H1 7830   4.702   2.260   3.986
 2608TIP3    H2 7831   4.733   2.229   4.131
 2609TIP3   OH2 7832   3.305   0.746   1.420
 2609TIP3    H1 7833   3.286   0.654   1.437
 2609TIP3    H2 7834   3.242   0.771   1.352
 2610TIP3   OH2 7835   4.682   3.422   3.123
 2610TIP3    H1 7836   4.609   3.476   3.094
 2610TIP3    H2 7837   4.733   3.407   3.044
 2611TIP3   OH2 7838   2.761   3.154   2.438
 2611TIP3    H1 7839   2.765   3.079   2.378
 2611TIP3    H2 7840   2.802   3.225   2.391
 2612TIP3   OH2 7841   3.863   1.547   1.531
 2612TIP3    H1 7842   3.926   1.547   1.603
 2612TIP3    H2 7843   3.897   1.611   1.469
 2613TIP3   OH2 7844   2.433   0.430   0.087
 2613TIP3    H1 7845   2.500   0.469   0.144
 2613TIP3    H2 7846   2.456   0.461  -0.001
 2614TIP3   OH2 7847   5.254   2.448   0.898
 2614TIP3    H1 7848   5.183   2.474   0.840
 2614TIP3    H2 7849   5.216   2.448   0.985
 2615TIP3   OH2 7850   5.409   1.002   2.385
 2615TIP3    H1 7851   5.479   1.060   2.354
 2615TIP3    H2 7852   5.329   1.055   2.379
 2616TIP3   OH2 7853   4.382   3.780   1.494
 2616TIP3    H1 7854   4.405   3.821   1.410
 2616TIP3    H2 7855   4.294   3.746   1.480
 2617TIP3   OH2 7856   3.999   0.812   1.299
 2617TIP3    H1 7857   3.920   0.762   1.281
 2617TIP3    H2 7858   3.988   0.894   1.251
 2618TIP3   OH2 7859   0.680   0.183   1.887
 2618TIP3    H1 7860   0.742   0.201   1.957
 2618TIP3    H2 7861   0.726   0.206   1.807
 2619TIP3   OH2 7862   5.486   0.736   1.767
 2619TIP3    H1 7863   5.523   0.747   1.679
 2619TIP3    H2 7864   5.445   0.650   1.765
 2620TIP3   OH2 7865   4.679   2.036   4.814
 2620TIP3    H1 7866   4.650   1.980   4.743
 2620TIP3    H2 7867   4.602   2.087   4.838
 2621TIP3   OH2 7868   3.088   5.321   0.270
 2621TIP3    H1 7869   3.025   5.249   0.279
 2621TIP3    H2 7870   3.068   5.379   0.343
 2622TIP3   OH2 7871   4.122   0.852   3.791
 2622TIP3    H1 7872   4.145   0.833   3.882
 2622TIP3    H2 7873   4.181   0.923   3.766
 2623TIP3   OH2 7874   2.516   4.345   1.262
 2623TIP3    H1 7875   2.552   4.419   1.213
 2623TIP3    H2 7876   2.427   4.372   1.285
 2624TIP3   OH2 7877   4.263   1.869   0.370
 2624TIP3    H1 7878   4.194   1.903   0.313
 2624TIP3    H2 7879   4.325   1.828   0.310
 2625TIP3   OH2 7880   6.078   3.456   3.732
 2625TIP3    H1 7881   6.135   3.526   3.765
 2625TIP3    H2 7882   6.021   3.500   3.669
 2626TIP3   OH2 7883   5.431   1.750   5.104
 2626TIP3    H1 7884   5.414   1.799   5.024
 2626TIP3    H2 7885   5.499   1.800   5.149
 2627TIP3   OH2 7886   0.553   4.655   4.423
 2627TIP3    H1 7887   0.477   4.703   4.392
 2627TIP3    H2 7888   0.628   4.709   4.399
 2628TIP3   OH2 7889   3.453   3.973   3.347
 2628TIP3    H1 7890   3.472   3.944   3.258
 2628TIP3    H2 7891   3.365   3.939   3.365
 2629TIP3   OH2 7892   1.317   1.775   1.164
 2629TIP3    H1 7893   1.262   1.820   1.228
 2629TIP3    H2 7894   1.261   1.764   1.087
 2630TIP3   OH2 7895   0.157   0.620   1.939
 2630TIP3    H1 7896   0.242   0.658   1.918
 2630TIP3    H2 7897   0.100   0.646   1.866
 2631TIP3   OH2 7898   2.884   1.080   0.952
 2631TIP3    H1 7899   2.875   1.097   1.046
 2631TIP3    H2 7900   2.872   0.986   0.942
 2632TIP3   OH2 7901   0.197   2.843   2.940
 2632TIP3    H1 7902   0.139   2.916   2.915
 2632TIP3    H2 7903   0.260   2.837   2.868
 2633TIP3   OH2 7904   2.701   4.555   2.925
 2633TIP3    H1 7905   2.676   4.641   2.894
 2633TIP3    H2 7906   2.757   4.519   2.856
 2634TIP3   OH2 7907   0.481   2.229   3.943
 2634TIP3    H1 7908   0.570   2.219   3.910
 2634TIP3    H2 7909   0.461   2.322   3.930
 2635TIP3   OH2 7910   0.305   5.713   1.666
 2635TIP3    H1 7911   0.245   5.771   1.713
 2635TIP3    H2 7912   0.301   5.742   1.575
 2636TIP3   OH2 7913   2.290   1.692   5.033
 2636TIP3    H1 7914   2.234   1.671   4.959
 2636TIP3    H2 7915   2.267   1.626   5.099
 2637TIP3   OH2 7916   0.514   0.554   4.652
 2637TIP3    H1 7917   0.517   0.567   4.747
 2637TIP3    H2 7918   0.575   0.482   4.636
 2638TIP3   OH2 7919   1.713   5.044   2.466
 2638TIP3    H1 7920   1.712   5.133   2.500
 2638TIP3    H2 7921   1.757   5.051   2.382
 2639TIP3   OH2 7922   4.198   5.698   5.242
 2639TIP3    H1 7923   4.178   5.791   5.251
 2639TIP3    H2 7924   4.287   5.689   5.276
 2640TIP3   OH2 7925   4.633   0.488   0.598
 2640TIP3    H1 7926   4.538   0.490   0.610
 2640TIP3    H2 7927   4.666   0.557   0.655
 2641TIP3   OH2 7928   6.009   0.545   5.133
 2641TIP3    H1 7929   5.937   0.552   5.070
 2641TIP3    H2 7930   6.083   0.515   5.081
 2642TIP3   OH2 7931   3.364   2.027   1.338
 2642TIP3    H1 7932   3.273   2.010   1.315
 2642TIP3    H2 7933   3.359   2.080   1.418
 2643TIP3   OH2 7934   2.507   1.529   2.253
 2643TIP3    H1 7935   2.581   1.549   2.196
 2643TIP3    H2 7936   2.479   1.614   2.286
 2644TIP3   OH2 7937   2.028   0.781   0.156
 2644TIP3    H1 7938   1.959   0.795   0.220
 2644TIP3    H2 7939   2.054   0.869   0.129
 2645TIP3   OH2 7940   3.042   2.522   4.602
 2645TIP3    H1 7941   3.129   2.561   4.593
 2645TIP3    H2 7942   3.002   2.534   4.516
 2646TIP3   OH2 7943   1.121   0.726   5.144
 2646TIP3    H1 7944   1.104   0.638   5.180
 2646TIP3    H2 7945   1.037   0.771   5.152
 2647TIP3   OH2 7946   2.546   4.093   3.095
 2647TIP3    H1 7947   2.534   4.016   3.152
 2647TIP3    H2 7948   2.553   4.056   3.007
 2648TIP3   OH2 7949   5.297   0.903   1.892
 2648TIP3    H1 7950   5.256   0.830   1.939
 2648TIP3    H2 7951   5.371   0.864   1.847
 2649TIP3   OH2 7952   3.712   5.204   2.609
 2649TIP3    H1 7953   3.684   5.276   2.552
 2649TIP3    H2 7954   3.693   5.235   2.698
 2650TIP3   OH2 7955  -0.019   5.031   0.556
 2650TIP3    H1 7956   0.050   5.098   0.558
 2650TIP3    H2 7957  -0.030   5.010   0.463
 2651TIP3   OH2 7958   1.539   3.428   3.433
 2651TIP3    H1 7959   1.525   3.336   3.453
 2651TIP3    H2 7960   1.592   3.461   3.506
 2652TIP3   OH2 7961   4.935   4.774   1.525
 2652TIP3    H1 7962   4.880   4.696   1.514
 2652TIP3    H2 7963   4.884   4.845   1.485
 2653TIP3   OH2 7964   1.840   4.594   4.291
 2653TIP3    H1 7965   1.820   4.678   4.249
 2653TIP3    H2 7966   1.909   4.614   4.354
 2654TIP3   OH2 7967   6.296   4.432   3.648
 2654TIP3    H1 7968   6.254   4.398   3.726
 2654TIP3    H2 7969   6.232   4.419   3.578
 2655TIP3   OH2 7970  -0.018   4.253   2.405
 2655TIP3    H1 7971   0.016   4.276   2.491
 2655TIP3    H2 7972   0.053   4.276   2.344
 2656TIP3   OH2 7973   4.501   5.261   4.549
 2656TIP3    H1 7974   4.500   5.243   4.643
 2656TIP3    H2 7975   4.430   5.323   4.535
 2657TIP3   OH2 7976   2.447   4.860   0.565
 2657TIP3    H1 7977   2.360   4.828   0.542
 2657TIP3    H2 7978   2.481   4.794   0.625
 2658TIP3   OH2 7979   5.763   0.590   4.984
 2658TIP3    H1 7980   5.718   0.631   4.910
 2658TIP3    H2 7981   5.740   0.497   4.979
 2659TIP3   OH2 7982   3.386   2.969   4.431
 2659TIP3    H1 7983   3.414   2.912   4.360
 2659TIP3    H2 7984   3.354   2.909   4.499
 2660TIP3   OH2 7985   5.509   3.731   3.867
 2660TIP3    H1 7986   5.493   3.677   3.945
 2660TIP3    H2 7987   5.561   3.675   3.809
 2661TIP3   OH2 7988   0.911   4.020   0.985
 2661TIP3    H1 7989   0.826   4.023   0.941
 2661TIP3    H2 7990   0.973   4.054   0.921
 2662TIP3   OH2 7991   3.325   2.507   1.681
 2662TIP3    H1 7992   3.358   2.420   1.702
 2662TIP3    H2 7993   3.309   2.548   1.767
 2663TIP3   OH2 7994   1.700   0.054   0.298
 2663TIP3    H1 7995   1.670  -0.033   0.323
 2663TIP3    H2 7996   1.666   0.068   0.210
 2664TIP3   OH2 7997   4.055   4.648   4.122
 2664TIP3    H1 7998   4.120   4.581   4.102
 2664TIP3    H2 7999   3.990   4.602   4.175
 2665TIP3   OH2 8000   2.792   0.937   3.115
 2665TIP3    H1 8001   2.878   0.905   3.141
 2665TIP3    H2 8002   2.754   0.973   3.194
 2666TIP3   OH2 8003   0.370   2.060   4.803
 2666TIP3    H1 8004   0.459   2.067   4.767
 2666TIP3    H2 8005   0.317   2.028   4.731
 2667TIP3   OH2 8006   5.502   0.063   1.616
 2667TIP3    H1 8007   5.564   0.054   1.689
 2667TIP3    H2 8008   5.558   0.067   1.538
 2668TIP3   OH2 8009   2.170   0.872   2.626
 2668TIP3    H1 8010   2.178   0.910   2.714
 2668TIP3    H2 8011   2.237   0.917   2.575
 2669TIP3   OH2 8012   1.487   1.497   2.653
 2669TIP3    H1 8013   1.488   1.401   2.656
 2669TIP3    H2 8014   1.521   1.523   2.738
 2670TIP3   OH2 8015   3.164   5.653   2.613
 2670TIP3    H1 8016   3.248   5.641   2.658
 2670TIP3    H2 8017   3.184   5.712   2.540
 2671TIP3   OH2 8018   1.199   1.124   1.467
 2671TIP3    H1 8019   1.181   1.213   1.498
 2671TIP3    H2 8020   1.290   1.109   1.489
 2672TIP3   OH2 8021   6.182   2.773   2.552
 2672TIP3    H1 8022   6.200   2.756   2.460
 2672TIP3    H2 8023   6.091   2.744   2.565
 2673TIP3   OH2 8024   4.429   0.562   4.885
 2673TIP3    H1 8025   4.444   0.520   4.800
 2673TIP3    H2 8026   4.419   0.655   4.865
 2674TIP3   OH2 8027   1.050   0.162   5.140
 2674TIP3    H1 8028   1.054   0.082   5.087
 2674TIP3    H2 8029   1.083   0.137   5.226
 2675TIP3   OH2 8030   1.495   5.968   2.235
 2675TIP3    H1 8031   1.437   5.983   2.310
 2675TIP3    H2 8032   1.515   6.056   2.202
 2676TIP3   OH2 8033   2.679   3.599   4.786
 2676TIP3    H1 8034   2.722   3.600   4.700
 2676TIP3    H2 8035   2.744   3.558   4.844
 2677TIP3   OH2 8036   1.803   3.266   1.567
 2677TIP3    H1 8037   1.865   3.208   1.524
 2677TIP3    H2 8038   1.726   3.266   1.510
 2678TIP3   OH2 8039   5.846   4.336   4.380
 2678TIP3    H1 8040   5.932   4.299   4.363
 2678TIP3    H2 8041   5.827   4.388   4.301
 2679TIP3   OH2 8042   0.929   1.402   3.496
 2679TIP3    H1 8043   0.845   1.380   3.536
 2679TIP3    H2 8044   0.989   1.411   3.569
 2680TIP3   OH2 8045   5.264   2.144   1.430
 2680TIP3    H1 8046   5.201   2.122   1.498
 2680TIP3    H2 8047   5.241   2.086   1.357
 2681TIP3   OH2 8048   4.842   2.197   0.466
 2681TIP3    H1 8049   4.870   2.190   0.375
 2681TIP3    H2 8050   4.764   2.142   0.472
 2682TIP3   OH2 8051   0.748   3.406   5.135
 2682TIP3    H1 8052   0.686   3.402   5.208
 2682TIP3    H2 8053   0.706   3.462   5.070
 2683TIP3   OH2 8054   1.735   0.394   4.767
 2683TIP3    H1 8055   1.817   0.428   4.732
 2683TIP3    H2 8056   1.716   0.451   4.842
 2684TIP3   OH2 8057   3.963   0.853   4.407
 2684TIP3    H1 8058   4.059   0.846   4.405
 2684TIP3    H2 8059   3.939   0.884   4.320
 2685TIP3   OH2 8060   3.875   0.109   0.457
 2685TIP3    H1 8061   3.919   0.148   0.533
 2685TIP3    H2 8062   3.890   0.015   0.467
 2686TIP3   OH2 8063   3.364   5.497   2.173
 2686TIP3    H1 8064   3.298   5.464   2.234
 2686TIP3    H2 8065   3.313   5.539   2.104
 2687TIP3   OH2 8066   4.898   4.250   3.340
 2687TIP3    H1 8067   4.966   4.198   3.383
 2687TIP3    H2 8068   4.914   4.340   3.370
 2688TIP3   OH2 8069   1.902   1.380   2.628
 2688TIP3    H1 8070   1.888   1.291   2.596
 2688TIP3    H2 8071   1.887   1.436   2.551
 2689TIP3   OH2 8072   4.670   3.764   0.959
 2689TIP3    H1 8073   4.646   3.685   1.007
 2689TIP3    H2 8074   4.641   3.836   1.015
 2690TIP3   OH2 8075   1.817   1.018   3.338
 2690TIP3    H1 8076   1.905   0.988   3.361
 2690TIP3    H2 8077   1.796   0.974   3.256
 2691TIP3   OH2 8078   2.477   4.409   4.796
 2691TIP3    H1 8079   2.538   4.335   4.793
 2691TIP3    H2 8080   2.496   4.453   4.879
 2692TIP3   OH2 8081   2.595   0.920   0.279
 2692TIP3    H1 8082   2.571   0.846   0.223
 2692TIP3    H2 8083   2.671   0.959   0.236
 2693TIP3   OH2 8084   4.418   3.655   5.098
 2693TIP3    H1 8085   4.403   3.604   5.177
 2693TIP3    H2 8086   4.333   3.656   5.053
 2694TIP3   OH2 8087   5.071   3.572   3.240
 2694TIP3    H1 8088   5.110   3.485   3.236
 2694TIP3    H2 8089   5.145   3.631   3.253
 2695TIP3   OH2 8090   3.436   0.428   0.026
 2695TIP3    H1 8091   3.427   0.336   0.050
 2695TIP3    H2 8092   3.509   0.429  -0.036
 2696TIP3   OH2 8093   1.278   3.701   4.339
 2696TIP3    H1 8094   1.258   3.681   4.431
 2696TIP3    H2 8095   1.312   3.619   4.304
 2697TIP3   OH2 8096   5.776   4.121   2.993
 2697TIP3    H1 8097   5.760   4.208   2.955
 2697TIP3    H2 8098   5.702   4.107   3.052
 2698TIP3   OH2 8099   4.989   2.475   0.803
 2698TIP3    H1 8100   4.959   2.561   0.834
 2698TIP3    H2 8101   4.971   2.416   0.876
 2699TIP3   OH2 8102   4.686   2.350   1.189
 2699TIP3    H1 8103   4.606   2.399   1.168
 2699TIP3    H2 8104   4.714   2.314   1.105
 2700TIP3   OH2 8105   2.570   2.505   3.387
 2700TIP3    H1 8106   2.537   2.525   3.475
 2700TIP3    H2 8107   2.658   2.469   3.402
 2701TIP3   OH2 8108   2.347   5.973   2.819
 2701TIP3    H1 8109   2.252   5.965   2.823
 2701TIP3    H2 8110   2.379   5.884   2.835
 2702TIP3   OH2 8111   4.435   5.037   1.916
 2702TIP3    H1 8112   4.441   5.015   1.823
 2702TIP3    H2 8113   4.428   5.132   1.918
 2703TIP3   OH2 8114   3.258   2.526   3.626
 2703TIP3    H1 8115   3.195   2.475   3.677
 2703TIP3    H2 8116   3.264   2.478   3.543
 2704TIP3   OH2 8117   5.135   1.966   4.301
 2704TIP3    H1 8118   5.116   2.057   4.278
 2704TIP3    H2 8119   5.229   1.957   4.286
 2705TIP3   OH2 8120   2.317   2.668   2.106
 2705TIP3    H1 8121   2.372   2.605   2.059
 2705TIP3    H2 8122   2.231   2.626   2.111
 2706TIP3   OH2 8123   5.327   5.755   4.956
 2706TIP3    H1 8124   5.396   5.700   4.993
 2706TIP3    H2 8125   5.344   5.754   4.861
 2707TIP3   OH2 8126   1.545   0.697   0.751
 2707TIP3    H1 8127   1.491   0.775   0.756
 2707TIP3    H2 8128   1.587   0.691   0.837
 2708TIP3   OH2 8129   1.362   0.179   2.939
 2708TIP3    H1 8130   1.359   0.115   3.010
 2708TIP3    H2 8131   1.315   0.255   2.974
 2709TIP3   OH2 8132   5.838   1.513   2.019
 2709TIP3    H1 8133   5.837   1.608   2.020
 2709TIP3    H2 8134   5.815   1.487   2.108
 2710TIP3   OH2 8135   4.974   3.763   4.184
 2710TIP3    H1 8136   5.038   3.693   4.196
 2710TIP3    H2 8137   4.889   3.720   4.188
 2711TIP3   OH2 8138   5.013   4.475   2.103
 2711TIP3    H1 8139   4.930   4.463   2.149
 2711TIP3    H2 8140   5.077   4.428   2.157
 2712TIP3   OH2 8141   6.103   5.134   0.311
 2712TIP3    H1 8142   6.034   5.160   0.372
 2712TIP3    H2 8143   6.161   5.210   0.306
 2713TIP3   OH2 8144   4.277   4.227   0.190
 2713TIP3    H1 8145   4.297   4.157   0.128
 2713TIP3    H2 8146   4.192   4.261   0.163
 2714TIP3   OH2 8147   1.715   2.194   3.026
 2714TIP3    H1 8148   1.689   2.130   2.959
 2714TIP3    H2 8149   1.655   2.179   3.098
 2715TIP3   OH2 8150   4.290   0.889   1.800
 2715TIP3    H1 8151   4.367   0.919   1.847
 2715TIP3    H2 8152   4.307   0.911   1.708
 2716TIP3   OH2 8153   0.379   0.522   1.561
 2716TIP3    H1 8154   0.391   0.547   1.652
 2716TIP3    H2 8155   0.345   0.602   1.519
 2717TIP3   OH2 8156   3.583   1.159   0.020
 2717TIP3    H1 8157   3.495   1.131   0.044
 2717TIP3    H2 8158   3.641   1.102   0.071
 2718TIP3   OH2 8159   6.085   5.959   2.374
 2718TIP3    H1 8160   6.078   5.970   2.469
 2718TIP3    H2 8161   6.135   5.877   2.364
 2719TIP3   OH2 8162   1.826   1.082   2.614
 2719TIP3    H1 8163   1.902   1.074   2.671
 2719TIP3    H2 8164   1.820   0.998   2.569
 2720TIP3   OH2 8165   6.128   4.064   2.362
 2720TIP3    H1 8166   6.198   4.122   2.392
 2720TIP3    H2 8167   6.165   4.020   2.285
 2721TIP3   OH2 8168   3.387   4.546   3.845
 2721TIP3    H1 8169   3.479   4.535   3.821
 2721TIP3    H2 8170   3.389   4.568   3.938
 2722TIP3   OH2 8171   1.791   0.722   1.617
 2722TIP3    H1 8172   1.707   0.678   1.633
 2722TIP3    H2 8173   1.786   0.802   1.670
 2723TIP3   OH2 8174   2.587   0.569   3.169
 2723TIP3    H1 8175   2.492   0.578   3.174
 2723TIP3    H2 8176   2.613   0.629   3.099
 2724TIP3   OH2 8177   2.961   4.762   3.781
 2724TIP3    H1 8178   2.993   4.821   3.849
 2724TIP3    H2 8179   2.896   4.707   3.825
 2725TIP3   OH2 8180   4.427   1.790   4.989
 2725TIP3    H1 8181   4.427   1.712   5.046
 2725TIP3    H2 8182   4.508   1.783   4.940
 2726TIP3   OH2 8183   0.227   4.347   2.231
 2726TIP3    H1 8184   0.279   4.271   2.205
 2726TIP3    H2 8185   0.255   4.416   2.171
 2727TIP3   OH2 8186   2.356   2.745   3.679
 2727TIP3    H1 8187   2.337   2.736   3.773
 2727TIP3    H2 8188   2.283   2.700   3.636
 2728TIP3   OH2 8189   1.738   5.249   0.721
 2728TIP3    H1 8190   1.790   5.187   0.670
 2728TIP3    H2 8191   1.715   5.201   0.801
 2729TIP3   OH2 8192   3.719   3.948   4.009
 2729TIP3    H1 8193   3.671   3.972   4.089
 2729TIP3    H2 8194   3.787   4.015   4.002
 2730TIP3   OH2 8195   2.769   0.407   0.394
 2730TIP3    H1 8196   2.843   0.359   0.432
 2730TIP3    H2 8197   2.767   0.490   0.442
 2731TIP3   OH2 8198   0.872   4.842   4.091
 2731TIP3    H1 8199   0.926   4.781   4.141
 2731TIP3    H2 8200   0.919   4.925   4.096
 2732TIP3   OH2 8201   4.479   3.337   2.521
 2732TIP3    H1 8202   4.450   3.308   2.607
 2732TIP3    H2 8203   4.413   3.302   2.461
 2733TIP3   OH2 8204   5.105   0.149   4.919
 2733TIP3    H1 8205   5.161   0.196   4.857
 2733TIP3    H2 8206   5.017   0.162   4.885
 2734TIP3   OH2 8207   1.834   5.938   4.663
 2734TIP3    H1 8208   1.808   5.846   4.654
 2734TIP3    H2 8209   1.930   5.936   4.659
 2735TIP3   OH2 8210   2.079   5.893   2.822
 2735TIP3    H1 8211   2.060   5.800   2.813
 2735TIP3    H2 8212   2.047   5.932   2.740
 2736TIP3   OH2 8213   2.356   1.395   3.974
 2736TIP3    H1 8214   2.312   1.355   4.049
 2736TIP3    H2 8215   2.337   1.336   3.901
 2737TIP3   OH2 8216   3.716   5.982   5.023
 2737TIP3    H1 8217   3.739   5.903   5.072
 2737TIP3    H2 8218   3.799   6.009   4.982
 2738TIP3   OH2 8219   0.520   5.093   4.481
 2738TIP3    H1 8220   0.435   5.103   4.439
 2738TIP3    H2 8221   0.504   5.031   4.552
 2739TIP3   OH2 8222   3.073   0.257   3.210
 2739TIP3    H1 8223   3.089   0.335   3.157
 2739TIP3    H2 8224   3.059   0.290   3.299
 2740TIP3   OH2 8225   4.715   0.460   4.727
 2740TIP3    H1 8226   4.645   0.398   4.707
 2740TIP3    H2 8227   4.793   0.422   4.688
 2741TIP3   OH2 8228   4.874   5.349   0.743
 2741TIP3    H1 8229   4.796   5.379   0.790
 2741TIP3    H2 8230   4.867   5.390   0.656
 2742TIP3   OH2 8231   1.919   0.446   1.076
 2742TIP3    H1 8232   1.934   0.422   1.167
 2742TIP3    H2 8233   1.826   0.431   1.062
 2743TIP3   OH2 8234   4.563   1.967   3.923
 2743TIP3    H1 8235   4.543   1.972   3.830
 2743TIP3    H2 8236   4.634   2.029   3.936
 2744TIP3   OH2 8237   5.113   5.363   3.159
 2744TIP3    H1 8238   5.022   5.383   3.137
 2744TIP3    H2 8239   5.113   5.357   3.254
 2745TIP3   OH2 8240   1.497   2.083   0.896
 2745TIP3    H1 8241   1.546   2.001   0.905
 2745TIP3    H2 8242   1.471   2.105   0.986
 2746TIP3   OH2 8243   1.767  -0.020   2.917
 2746TIP3    H1 8244   1.743  -0.064   2.998
 2746TIP3    H2 8245   1.715   0.061   2.917
 2747TIP3   OH2 8246   1.219   0.371   3.105
 2747TIP3    H1 8247   1.218   0.447   3.164
 2747TIP3    H2 8248   1.159   0.395   3.035
 2748TIP3   OH2 8249   0.008   2.130   3.352
 2748TIP3    H1 8250  -0.059   2.076   3.393
 2748TIP3    H2 8251   0.091   2.093   3.383
 2749TIP3   OH2 8252   1.258   4.190   1.178
 2749TIP3    H1 8253   1.240   4.139   1.099
 2749TIP3    H2 8254   1.334   4.147   1.217
 2750TIP3   OH2 8255   3.469   3.612   1.689
 2750TIP3    H1 8256   3.498   3.675   1.755
 2750TIP3    H2 8257   3.475   3.658   1.606
 2751TIP3   OH2 8258   5.865   1.454   4.461
 2751TIP3    H1 8259   5.843   1.547   4.464
 2751TIP3    H2 8260   5.806   1.418   4.394
 2752TIP3   OH2 8261   3.473   4.270   4.220
 2752TIP3    H1 8262   3.561   4.245   4.194
 2752TIP3    H2 8263   3.424   4.188   4.221
 2753TIP3   OH2 8264   3.530   3.358   4.749
 2753TIP3    H1 8265   3.507   3.265   4.748
 2753TIP3    H2 8266   3.460   3.400   4.797
 2754TIP3   OH2 8267   3.781   2.369   2.828
 2754TIP3    H1 8268   3.691   2.393   2.810
 2754TIP3    H2 8269   3.775   2.296   2.890
 2755TIP3   OH2 8270   0.975   4.969   3.397
 2755TIP3    H1 8271   0.979   4.952   3.491
 2755TIP3    H2 8272   1.041   4.911   3.359
 2756TIP3   OH2 8273   0.481   4.145   3.199
 2756TIP3    H1 8274   0.566   4.115   3.230
 2756TIP3    H2 8275   0.422   4.071   3.217
 2757TIP3   OH2 8276   5.501   0.203   4.069
 2757TIP3    H1 8277   5.583   0.166   4.036
 2757TIP3    H2 8278   5.436   0.180   4.003
 2758TIP3   OH2 8279   5.675   5.204   4.513
 2758TIP3    H1 8280   5.746   5.145   4.539
 2758TIP3    H2 8281   5.683   5.212   4.418
 2759TIP3   OH2 8282   1.797   0.669   3.257
 2759TIP3    H1 8283   1.780   0.619   3.337
 2759TIP3    H2 8284   1.710   0.680   3.218
 2760TIP3   OH2 8285   5.058   0.854   3.562
 2760TIP3    H1 8286   5.131   0.915   3.549
 2760TIP3    H2 8287   5.062   0.831   3.654
 2761TIP3   OH2 8288   6.165   4.037   1.917
 2761TIP3    H1 8289   6.159   4.131   1.902
 2761TIP3    H2 8290   6.109   3.999   1.849
 2762TIP3   OH2 8291   1.160   2.341   0.222
 2762TIP3    H1 8292   1.253   2.323   0.237
 2762TIP3    H2 8293   1.139   2.411   0.283
 2763TIP3   OH2 8294   4.461   4.445   2.868
 2763TIP3    H1 8295   4.413   4.376   2.914
 2763TIP3    H2 8296   4.492   4.403   2.788
 2764TIP3   OH2 8297   2.820   1.852   3.224
 2764TIP3    H1 8298   2.831   1.896   3.139
 2764TIP3    H2 8299   2.875   1.902   3.284
 2765TIP3   OH2 8300   4.686   5.685   2.070
 2765TIP3    H1 8301   4.775   5.704   2.101
 2765TIP3    H2 8302   4.669   5.750   2.002
 2766TIP3   OH2 8303   1.084   1.449   0.643
 2766TIP3    H1 8304   1.125   1.532   0.667
 2766TIP3    H2 8305   0.990   1.465   0.651
 2767TIP3   OH2 8306   2.027   0.396   0.822
 2767TIP3    H1 8307   2.059   0.308   0.845
 2767TIP3    H2 8308   1.980   0.426   0.899
 2768TIP3   OH2 8309   1.364   5.301   2.575
 2768TIP3    H1 8310   1.286   5.339   2.534
 2768TIP3    H2 8311   1.381   5.221   2.525
 2769TIP3   OH2 8312   0.437   2.542   5.084
 2769TIP3    H1 8313   0.395   2.465   5.122
 2769TIP3    H2 8314   0.494   2.507   5.015
 2770TIP3   OH2 8315   3.714   1.047   1.007
 2770TIP3    H1 8316   3.654   1.091   1.067
 2770TIP3    H2 8317   3.668   0.968   0.980
 2771TIP3   OH2 8318   3.965   1.633   2.490
 2771TIP3    H1 8319   3.898   1.592   2.435
 2771TIP3    H2 8320   4.048   1.601   2.454
 2772TIP3   OH2 8321   5.432   4.945   2.710
 2772TIP3    H1 8322   5.395   4.923   2.624
 2772TIP3    H2 8323   5.476   4.864   2.738
 2773TIP3   OH2 8324   3.514   4.714   0.144
 2773TIP3    H1 8325   3.511   4.733   0.050
 2773TIP3    H2 8326   3.578   4.643   0.152
 2774TIP3   OH2 8327   4.566   4.368   3.546
 2774TIP3    H1 8328   4.524   4.296   3.499
 2774TIP3    H2 8329   4.514   4.378   3.626
 2775TIP3   OH2 8330   2.726   5.763   2.993
 2775TIP3    H1 8331   2.775   5.749   2.912
 2775TIP3    H2 8332   2.687   5.850   2.984
 2776TIP3   OH2 8333   0.284   5.791   1.410
 2776TIP3    H1 8334   0.260   5.879   1.382
 2776TIP3    H2 8335   0.326   5.752   1.334
 2777TIP3   OH2 8336   3.531   0.263   3.761
 2777TIP3    H1 8337   3.438   0.280   3.743
 2777TIP3    H2 8338   3.531   0.184   3.814
 2778TIP3   OH2 8339   4.787   3.231   2.046
 2778TIP3    H1 8340   4.758   3.262   1.960
 2778TIP3    H2 8341   4.721   3.264   2.107
 2779TIP3   OH2 8342   1.078   4.039   1.478
 2779TIP3    H1 8343   1.125   4.120   1.458
 2779TIP3    H2 8344   1.035   4.016   1.396
 2780TIP3   OH2 8345   2.444   4.304   3.984
 2780TIP3    H1 8346   2.399   4.310   3.900
 2780TIP3    H2 8347   2.525   4.256   3.964
 2781TIP3   OH2 8348   4.597   5.191   2.897
 2781TIP3    H1 8349   4.596   5.177   2.802
 2781TIP3    H2 8350   4.510   5.165   2.927
 2782TIP3   OH2 8351   5.138   5.685   0.664
 2782TIP3    H1 8352   5.171   5.610   0.713
 2782TIP3    H2 8353   5.211   5.747   0.662
 2783TIP3   OH2 8354   2.877   2.735   3.327
 2783TIP3    H1 8355   2.782   2.749   3.323
 2783TIP3    H2 8356   2.891   2.655   3.276
 2784TIP3   OH2 8357   4.045   2.808   5.017
 2784TIP3    H1 8358   4.026   2.782   4.927
 2784TIP3    H2 8359   4.135   2.782   5.032
 2785TIP3   OH2 8360   1.622   0.221   4.981
 2785TIP3    H1 8361   1.662   0.260   5.059
 2785TIP3    H2 8362   1.655   0.273   4.908
 2786TIP3   OH2 8363   5.632   0.079   1.040
 2786TIP3    H1 8364   5.574   0.006   1.018
 2786TIP3    H2 8365   5.581   0.157   1.017
 2787TIP3   OH2 8366   3.879   2.127   0.757
 2787TIP3    H1 8367   3.875   2.209   0.805
 2787TIP3    H2 8368   3.913   2.152   0.671
 2788TIP3   OH2 8369   0.437   2.279   3.625
 2788TIP3    H1 8370   0.461   2.230   3.703
 2788TIP3    H2 8371   0.515   2.279   3.571
 2789TIP3   OH2 8372   4.726   3.607   2.814
 2789TIP3    H1 8373   4.730   3.632   2.906
 2789TIP3    H2 8374   4.663   3.535   2.811
 2790TIP3   OH2 8375   1.965   5.316   0.323
 2790TIP3    H1 8376   2.025   5.358   0.385
 2790TIP3    H2 8377   1.970   5.223   0.344
 2791TIP3   OH2 8378   1.403   3.027   1.518
 2791TIP3    H1 8379   1.363   3.103   1.561
 2791TIP3    H2 8380   1.384   2.954   1.577
 2792TIP3   OH2 8381   3.054   5.775   4.009
 2792TIP3    H1 8382   3.017   5.723   3.938
 2792TIP3    H2 8383   3.124   5.720   4.045
 2793TIP3   OH2 8384   5.786   0.671   2.191
 2793TIP3    H1 8385   5.725   0.706   2.126
 2793TIP3    H2 8386   5.733   0.660   2.270
 2794TIP3   OH2 8387   4.385   2.980   5.069
 2794TIP3    H1 8388   4.346   3.023   4.993
 2794TIP3    H2 8389   4.449   3.044   5.102
 2795TIP3   OH2 8390   6.332   0.599   0.339
 2795TIP3    H1 8391   6.320   0.529   0.275
 2795TIP3    H2 8392   6.261   0.587   0.402
 2796TIP3   OH2 8393   4.423   0.503   1.505
 2796TIP3    H1 8394   4.405   0.471   1.594
 2796TIP3    H2 8395   4.344   0.482   1.455
 2797TIP3   OH2 8396   0.415   2.834   2.742
 2797TIP3    H1 8397   0.409   2.819   2.648
 2797TIP3    H2 8398   0.418   2.746   2.780
 2798TIP3   OH2 8399   6.149   2.474   2.331
 2798TIP3    H1 8400   6.241   2.493   2.318
 2798TIP3    H2 8401   6.103   2.527   2.266
 2799TIP3   OH2 8402   6.288   1.830   2.696
 2799TIP3    H1 8403   6.278   1.839   2.791
 2799TIP3    H2 8404   6.315   1.916   2.666
 2800TIP3   OH2 8405   1.541   4.001   0.569
 2800TIP3    H1 8406   1.460   3.951   0.575
 2800TIP3    H2 8407   1.596   3.950   0.509
 2801TIP3   OH2 8408   1.388   3.461   2.483
 2801TIP3    H1 8409   1.410   3.533   2.543
 2801TIP3    H2 8410   1.401   3.382   2.536
 2802TIP3   OH2 8411   3.282   0.956   2.416
 2802TIP3    H1 8412   3.331   0.931   2.494
 2802TIP3    H2 8413   3.228   1.029   2.444
 2803TIP3   OH2 8414   0.002   3.475   1.960
 2803TIP3    H1 8415   0.087   3.441   1.989
 2803TIP3    H2 8416   0.013   3.570   1.960
 2804TIP3   OH2 8417   0.429   0.705   1.296
 2804TIP3    H1 8418   0.386   0.695   1.211
 2804TIP3    H2 8419   0.521   0.685   1.279
 2805TIP3   OH2 8420   0.276   2.463   3.954
 2805TIP3    H1 8421   0.288   2.481   4.047
 2805TIP3    H2 8422   0.298   2.545   3.910
 2806TIP3   OH2 8423   1.997   3.383   5.070
 2806TIP3    H1 8424   2.080   3.408   5.028
 2806TIP3    H2 8425   1.936   3.371   4.997
 2807TIP3   OH2 8426   5.851   4.273   2.387
 2807TIP3    H1 8427   5.924   4.331   2.406
 2807TIP3    H2 8428   5.833   4.229   2.470
 2808TIP3   OH2 8429   3.591   2.276   0.914
 2808TIP3    H1 8430   3.537   2.354   0.920
 2808TIP3    H2 8431   3.530   2.205   0.895
 2809TIP3   OH2 8432   0.236   5.417   2.440
 2809TIP3    H1 8433   0.143   5.426   2.459
 2809TIP3    H2 8434   0.244   5.439   2.347
 2810TIP3   OH2 8435   6.150   3.312   1.914
 2810TIP3    H1 8436   6.078   3.369   1.890
 2810TIP3    H2 8437   6.219   3.371   1.944
 2811TIP3   OH2 8438   3.677   2.061   2.785
 2811TIP3    H1 8439   3.696   1.970   2.809
 2811TIP3    H2 8440   3.674   2.108   2.868
 2812TIP3   OH2 8441   3.602   3.512   2.381
 2812TIP3    H1 8442   3.624   3.549   2.295
 2812TIP3    H2 8443   3.628   3.420   2.375
 2813TIP3   OH2 8444   5.682   1.605   3.310
 2813TIP3    H1 8445   5.633   1.683   3.283
 2813TIP3    H2 8446   5.614   1.541   3.334
 2814TIP3   OH2 8447   5.349   2.111   4.810
 2814TIP3    H1 8448   5.330   2.182   4.748
 2814TIP3    H2 8449   5.383   2.156   4.888
 2815TIP3   OH2 8450   1.091   0.804   2.191
 2815TIP3    H1 8451   1.128   0.838   2.110
 2815TIP3    H2 8452   1.015   0.860   2.208
 2816TIP3   OH2 8453   3.881   5.318   4.277
 2816TIP3    H1 8454   3.939   5.353   4.209
 2816TIP3    H2 8455   3.892   5.377   4.351
 2817TIP3   OH2 8456   2.512   4.742   3.599
 2817TIP3    H1 8457   2.536   4.656   3.563
 2817TIP3    H2 8458   2.596   4.787   3.613
 2818TIP3   OH2 8459   3.762   4.370   2.774
 2818TIP3    H1 8460   3.710   4.305   2.728
 2818TIP3    H2 8461   3.702   4.445   2.784
 2819TIP3   OH2 8462   6.058   0.468   4.622
 2819TIP3    H1 8463   5.986   0.444   4.563
 2819TIP3    H2 8464   6.129   0.495   4.563
 2820TIP3   OH2 8465   2.021   1.150   2.771
 2820TIP3    H1 8466   2.066   1.215   2.718
 2820TIP3    H2 8467   2.091   1.106   2.821
 2821TIP3   OH2 8468   1.469   0.479   4.401
 2821TIP3    H1 8469   1.536   0.473   4.332
 2821TIP3    H2 8470   1.505   0.542   4.463
 2822TIP3   OH2 8471   0.745   2.543   3.396
 2822TIP3    H1 8472   0.812   2.611   3.391
 2822TIP3    H2 8473   0.783   2.468   3.351
 2823TIP3   OH2 8474   3.911   5.453   2.250
 2823TIP3    H1 8475   3.904   5.540   2.211
 2823TIP3    H2 8476   3.996   5.452   2.294
 2824TIP3   OH2 8477   6.087   5.581   1.504
 2824TIP3    H1 8478   6.168   5.606   1.460
 2824TIP3    H2 8479   6.082   5.486   1.491
 2825TIP3   OH2 8480   0.604   1.100   1.691
 2825TIP3    H1 8481   0.537   1.078   1.627
 2825TIP3    H2 8482   0.563   1.082   1.776
 2826TIP3   OH2 8483   5.912   0.100   1.699
 2826TIP3    H1 8484   5.993   0.061   1.732
 2826TIP3    H2 8485   5.938   0.143   1.618
 2827TIP3   OH2 8486   0.295   0.485   3.524
 2827TIP3    H1 8487   0.252   0.564   3.493
 2827TIP3    H2 8488   0.239   0.453   3.595
 2828TIP3   OH2 8489   1.151   4.110   3.435
 2828TIP3    H1 8490   1.247   4.115   3.433
 2828TIP3    H2 8491   1.129   4.054   3.361
 2829TIP3   OH2 8492   5.719   0.910   3.761
 2829TIP3    H1 8493   5.777   0.891   3.836
 2829TIP3    H2 8494   5.778   0.938   3.691
 2830TIP3   OH2 8495   5.194   3.855   1.568
 2830TIP3    H1 8496   5.137   3.779   1.581
 2830TIP3    H2 8497   5.135   3.924   1.538
 2831TIP3   OH2 8498   5.912   5.055   4.170
 2831TIP3    H1 8499   5.834   5.079   4.120
 2831TIP3    H2 8500   5.882   4.987   4.231
 2832TIP3   OH2 8501   5.796   2.114   1.972
 2832TIP3    H1 8502   5.865   2.167   2.013
 2832TIP3    H2 8503   5.761   2.170   1.902
 2833TIP3   OH2 8504   0.630   2.781   1.946
 2833TIP3    H1 8505   0.574   2.761   1.871
 2833TIP3    H2 8506   0.585   2.742   2.021
 2834TIP3   OH2 8507   0.072   0.005   3.752
 2834TIP3    H1 8508  -0.015   0.030   3.719
 2834TIP3    H2 8509   0.125  -0.006   3.673
 2835TIP3   OH2 8510   2.612   2.801   2.621
 2835TIP3    H1 8511   2.633   2.710   2.641
 2835TIP3    H2 8512   2.517   2.805   2.624
 2836TIP3   OH2 8513   0.936   1.303   0.158
 2836TIP3    H1 8514   0.960   1.376   0.101
 2836TIP3    H2 8515   1.009   1.297   0.220
 2837TIP3   OH2 8516   1.611   2.361   0.868
 2837TIP3    H1 8517   1.563   2.335   0.946
 2837TIP3    H2 8518   1.637   2.278   0.827
 2838TIP3   OH2 8519   4.139   3.990   1.545
 2838TIP3    H1 8520   4.134   4.041   1.625
 2838TIP3    H2 8521   4.233   3.985   1.525
 2839TIP3   OH2 8522   5.167   5.580   2.868
 2839TIP3    H1 8523   5.232   5.521   2.906
 2839TIP3    H2 8524   5.130   5.627   2.943
 2840TIP3   OH2 8525   4.476   3.754   0.621
 2840TIP3    H1 8526   4.466   3.737   0.715
 2840TIP3    H2 8527   4.505   3.845   0.616
 2841TIP3   OH2 8528   4.785   1.373   1.990
 2841TIP3    H1 8529   4.839   1.356   1.913
 2841TIP3    H2 8530   4.826   1.449   2.031
 2842TIP3   OH2 8531   2.959   0.262   0.564
 2842TIP3    H1 8532   2.984   0.210   0.640
 2842TIP3    H2 8533   3.013   0.341   0.569
 2843TIP3   OH2 8534   1.072   3.064   3.596
 2843TIP3    H1 8535   0.995   3.081   3.651
 2843TIP3    H2 8536   1.146   3.088   3.652
 2844TIP3   OH2 8537   2.070   4.456   4.554
 2844TIP3    H1 8538   2.121   4.481   4.631
 2844TIP3    H2 8539   2.046   4.539   4.513
 2845TIP3   OH2 8540   4.744   2.411   2.098
 2845TIP3    H1 8541   4.740   2.506   2.110
 2845TIP3    H2 8542   4.707   2.396   2.011
 2846TIP3   OH2 8543   0.687   4.373   3.530
 2846TIP3    H1 8544   0.614   4.311   3.536
 2846TIP3    H2 8545   0.657   4.450   3.578
 2847TIP3   OH2 8546   5.634   2.437   4.686
 2847TIP3    H1 8547   5.684   2.517   4.670
 2847TIP3    H2 8548   5.547   2.468   4.713
 2848TIP3   OH2 8549   4.424   5.491   4.997
 2848TIP3    H1 8550   4.424   5.428   4.925
 2848TIP3    H2 8551   4.350   5.464   5.053
 2849TIP3   OH2 8552   3.155   0.867   1.199
 2849TIP3    H1 8553   3.083   0.912   1.243
 2849TIP3    H2 8554   3.159   0.908   1.112
 2850TIP3   OH2 8555   2.796   2.344   1.528
 2850TIP3    H1 8556   2.714   2.384   1.557
 2850TIP3    H2 8557   2.834   2.408   1.468
 2851TIP3   OH2 8558   4.361   3.921   4.478
 2851TIP3    H1 8559   4.360   3.858   4.405
 2851TIP3    H2 8560   4.437   3.976   4.459
 2852TIP3   OH2 8561   3.131   5.447   0.995
 2852TIP3    H1 8562   3.147   5.366   0.946
 2852TIP3    H2 8563   3.213   5.496   0.986
 2853TIP3   OH2 8564   3.307   5.938   2.619
 2853TIP3    H1 8565   3.349   5.863   2.660
 2853TIP3    H2 8566   3.379   5.984   2.575
 2854TIP3   OH2 8567   1.886   2.041   2.802
 2854TIP3    H1 8568   1.809   2.056   2.747
 2854TIP3    H2 8569   1.960   2.064   2.746
 2855TIP3   OH2 8570   6.348   1.548   2.244
 2855TIP3    H1 8571   6.255   1.571   2.246
 2855TIP3    H2 8572   6.375   1.569   2.154
 2856TIP3   OH2 8573   3.263   5.235   0.869
 2856TIP3    H1 8574   3.346   5.188   0.879
 2856TIP3    H2 8575   3.197   5.166   0.863
 2857TIP3   OH2 8576   4.572   4.022   0.609
 2857TIP3    H1 8577   4.535   4.029   0.697
 2857TIP3    H2 8578   4.582   4.112   0.580
 2858TIP3   OH2 8579   4.479   1.798   2.071
 2858TIP3    H1 8580   4.507   1.855   2.142
 2858TIP3    H2 8581   4.465   1.713   2.113
 2859TIP3   OH2 8582   3.222   2.651   1.913
 2859TIP3    H1 8583   3.260   2.709   1.848
 2859TIP3    H2 8584   3.130   2.678   1.918
 2860TIP3   OH2 8585   5.743   2.970   0.306
 2860TIP3    H1 8586   5.746   2.939   0.397
 2860TIP3    H2 8587   5.662   3.022   0.302
 2861TIP3   OH2 8588   1.172   1.174   4.658
 2861TIP3    H1 8589   1.121   1.132   4.588
 2861TIP3    H2 8590   1.187   1.263   4.627
 2862TIP3   OH2 8591   1.938   4.448   1.301
 2862TIP3    H1 8592   1.973   4.420   1.217
 2862TIP3    H2 8593   2.014   4.455   1.359
 2863TIP3   OH2 8594   0.015   2.984   4.149
 2863TIP3    H1 8595   0.085   3.018   4.205
 2863TIP3    H2 8596   0.051   2.902   4.114
 2864TIP3   OH2 8597   6.267   2.684   0.559
 2864TIP3    H1 8598   6.333   2.734   0.606
 2864TIP3    H2 8599   6.314   2.606   0.528
 2865TIP3   OH2 8600   1.038   0.411   3.867
 2865TIP3    H1 8601   1.059   0.384   3.778
 2865TIP3    H2 8602   0.960   0.360   3.890
 2866TIP3   OH2 8603   2.461   3.845   0.978
 2866TIP3    H1 8604   2.483   3.921   0.924
 2866TIP3    H2 8605   2.374   3.819   0.949
 2867TIP3   OH2 8606   3.947   1.894   5.034
 2867TIP3    H1 8607   3.936   1.799   5.026
 2867TIP3    H2 8608   3.986   1.907   5.120
 2868TIP3   OH2 8609   2.423   4.547   2.943
 2868TIP3    H1 8610   2.518   4.556   2.945
 2868TIP3    H2 8611   2.400   4.560   2.851
 2869TIP3   OH2 8612   0.804   5.040   2.687
 2869TIP3    H1 8613   0.836   5.058   2.775
 2869TIP3    H2 8614   0.865   4.976   2.652
 2870TIP3   OH2 8615   1.153   4.747   1.719
 2870TIP3    H1 8616   1.059   4.754   1.705
 2870TIP3    H2 8617   1.164   4.667   1.771
 2871TIP3   OH2 8618   5.178   0.695   3.763
 2871TIP3    H1 8619   5.083   0.692   3.756
 2871TIP3    H2 8620   5.203   0.606   3.788
 2872TIP3   OH2 8621   0.705   1.986   0.094
 2872TIP3    H1 8622   0.620   1.942   0.082
 2872TIP3    H2 8623   0.703   2.058   0.031
 2873TIP3   OH2 8624   0.154   2.981   4.526
 2873TIP3    H1 8625   0.084   2.918   4.547
 2873TIP3    H2 8626   0.215   2.974   4.599
 2874TIP3   OH2 8627   1.880   2.772   3.217
 2874TIP3    H1 8628   1.865   2.822   3.136
 2874TIP3    H2 8629   1.970   2.792   3.241
 2875TIP3   OH2 8630   0.675   4.625   3.802
 2875TIP3    H1 8631   0.727   4.557   3.846
 2875TIP3    H2 8632   0.726   4.649   3.725
 2876TIP3   OH2 8633   3.644   5.968   4.761
 2876TIP3    H1 8634   3.640   5.960   4.856
 2876TIP3    H2 8635   3.557   5.998   4.735
 2877TIP3   OH2 8636   0.979   1.006   4.795
 2877TIP3    H1 8637   1.063   1.045   4.770
 2877TIP3    H2 8638   0.981   0.919   4.757
 2878TIP3   OH2 8639   1.638   0.611   0.323
 2878TIP3    H1 8640   1.642   0.515   0.328
 2878TIP3    H2 8641   1.553   0.632   0.363
 2879TIP3   OH2 8642   1.844   0.797   3.574
 2879TIP3    H1 8643   1.912   0.844   3.525
 2879TIP3    H2 8644   1.795   0.750   3.507
 2880TIP3   OH2 8645   2.369   4.563   2.127
 2880TIP3    H1 8646   2.455   4.530   2.103
 2880TIP3    H2 8647   2.351   4.524   2.213
 2881TIP3   OH2 8648   4.396   4.659   0.912
 2881TIP3    H1 8649   4.381   4.645   0.819
 2881TIP3    H2 8650   4.442   4.743   0.917
 2882TIP3   OH2 8651   1.094   6.043   3.720
 2882TIP3    H1 8652   1.174   5.994   3.701
 2882TIP3    H2 8653   1.055   5.998   3.795
 2883TIP3   OH2 8654   1.514   2.677   1.592
 2883TIP3    H1 8655   1.517   2.587   1.559
 2883TIP3    H2 8656   1.481   2.728   1.519
 2884TIP3   OH2 8657   1.727   2.129   0.410
 2884TIP3    H1 8658   1.741   2.144   0.503
 2884TIP3    H2 8659   1.762   2.041   0.394
 2885TIP3   OH2 8660   2.658   2.960   4.315
 2885TIP3    H1 8661   2.570   2.922   4.312
 2885TIP3    H2 8662   2.707   2.911   4.248
 2886TIP3   OH2 8663   3.671   2.715   1.704
 2886TIP3    H1 8664   3.680   2.639   1.761
 2886TIP3    H2 8665   3.739   2.776   1.735
 2887TIP3   OH2 8666   5.500   0.589   0.301
 2887TIP3    H1 8667   5.557   0.656   0.338
 2887TIP3    H2 8668   5.425   0.637   0.266
 2888TIP3   OH2 8669   3.309   2.527   4.659
 2888TIP3    H1 8670   3.389   2.560   4.701
 2888TIP3    H2 8671   3.340   2.487   4.578
 2889TIP3   OH2 8672   0.750   3.983   1.949
 2889TIP3    H1 8673   0.794   3.979   1.864
 2889TIP3    H2 8674   0.700   3.901   1.954
 2890TIP3   OH2 8675   4.205   3.756   0.628
 2890TIP3    H1 8676   4.163   3.700   0.563
 2890TIP3    H2 8677   4.295   3.764   0.599
 2891TIP3   OH2 8678   4.889   0.826   1.158
 2891TIP3    H1 8679   4.855   0.771   1.087
 2891TIP3    H2 8680   4.967   0.867   1.121
 2892TIP3   OH2 8681   0.874   5.271   1.031
 2892TIP3    H1 8682   0.855   5.360   1.063
 2892TIP3    H2 8683   0.954   5.246   1.076
 2893TIP3   OH2 8684   0.142   2.251   0.785
 2893TIP3    H1 8685   0.072   2.316   0.772
 2893TIP3    H2 8686   0.223   2.300   0.770
 2894TIP3   OH2 8687   3.490   5.526   2.931
 2894TIP3    H1 8688   3.401   5.555   2.951
 2894TIP3    H2 8689   3.540   5.542   3.012
 2895TIP3   OH2 8690   5.640   4.998   3.422
 2895TIP3    H1 8691   5.654   5.043   3.338
 2895TIP3    H2 8692   5.575   4.930   3.402
 2896TIP3   OH2 8693   1.676   2.443   3.579
 2896TIP3    H1 8694   1.634   2.482   3.656
 2896TIP3    H2 8695   1.692   2.352   3.605
 2897TIP3   OH2 8696   0.504   2.077   1.925
 2897TIP3    H1 8697   0.585   2.026   1.919
 2897TIP3    H2 8698   0.455   2.054   1.846
 2898TIP3   OH2 8699   2.511   0.112   1.229
 2898TIP3    H1 8700   2.452   0.137   1.300
 2898TIP3    H2 8701   2.542   0.195   1.193
 2899TIP3   OH2 8702   1.396   0.395   1.068
 2899TIP3    H1 8703   1.374   0.475   1.114
 2899TIP3    H2 8704   1.313   0.348   1.059
 2900TIP3   OH2 8705   4.244   3.237   1.304
 2900TIP3    H1 8706   4.218   3.276   1.388
 2900TIP3    H2 8707   4.165   3.193   1.273
 2901TIP3   OH2 8708   4.136   2.810   3.607
 2901TIP3    H1 8709   4.066   2.817   3.542
 2901TIP3    H2 8710   4.097   2.761   3.679
 2902TIP3   OH2 8711   0.255   1.480   3.658
 2902TIP3    H1 8712   0.338   1.504   3.616
 2902TIP3    H2 8713   0.261   1.386   3.672
 2903TIP3   OH2 8714   3.986   2.766   1.184
 2903TIP3    H1 8715   4.015   2.679   1.156
 2903TIP3    H2 8716   3.962   2.755   1.276
 2904TIP3   OH2 8717   4.585   0.408   5.045
 2904TIP3    H1 8718   4.650   0.471   5.076
 2904TIP3    H2 8719   4.527   0.458   4.989
 2905TIP3   OH2 8720   3.924   1.253   2.310
 2905TIP3    H1 8721   3.856   1.314   2.337
 2905TIP3    H2 8722   3.877   1.184   2.263
 2906TIP3   OH2 8723   2.191   5.939   4.619
 2906TIP3    H1 8724   2.214   5.850   4.646
 2906TIP3    H2 8725   2.189   5.936   4.523
 2907TIP3   OH2 8726   0.636   2.601   1.437
 2907TIP3    H1 8727   0.541   2.617   1.434
 2907TIP3    H2 8728   0.644   2.506   1.430
 2908TIP3   OH2 8729   1.983   2.200   0.622
 2908TIP3    H1 8730   2.012   2.290   0.636
 2908TIP3    H2 8731   2.022   2.175   0.538
 2909TIP3   OH2 8732   0.604   1.256   1.293
 2909TIP3    H1 8733   0.526   1.257   1.239
 2909TIP3    H2 8734   0.619   1.164   1.313
 2910TIP3   OH2 8735   2.403   1.008   1.713
 2910TIP3    H1 8736   2.383   0.942   1.779
 2910TIP3    H2 8737   2.420   1.088   1.764
 2911TIP3   OH2 8738   2.940   3.631   1.147
 2911TIP3    H1 8739   2.925   3.634   1.242
 2911TIP3    H2 8740   2.921   3.720   1.117
 2912TIP3   OH2 8741   1.236   5.288   4.683
 2912TIP3    H1 8742   1.295   5.275   4.758
 2912TIP3    H2 8743   1.188   5.368   4.705
 2913TIP3   OH2 8744   5.210   3.531   0.128
 2913TIP3    H1 8745   5.123   3.501   0.102
 2913TIP3    H2 8746   5.258   3.451   0.148
 2914TIP3   OH2 8747   2.967   4.595   3.153
 2914TIP3    H1 8748   2.999   4.611   3.064
 2914TIP3    H2 8749   3.002   4.669   3.204
 2915TIP3   OH2 8750   0.041   2.855   3.267
 2915TIP3    H1 8751   0.078   2.829   3.182
 2915TIP3    H2 8752   0.109   2.834   3.330
 2916TIP3   OH2 8753   0.877   0.519   4.419
 2916TIP3    H1 8754   0.809   0.519   4.486
 2916TIP3    H2 8755   0.830   0.537   4.337
 2917TIP3   OH2 8756   3.222   5.237   4.640
 2917TIP3    H1 8757   3.163   5.268   4.708
 2917TIP3    H2 8758   3.204   5.144   4.633
 2918TIP3   OH2 8759   3.565   4.726   1.649
 2918TIP3    H1 8760   3.512   4.650   1.674
 2918TIP3    H2 8761   3.515   4.801   1.679
 2919TIP3   OH2 8762   2.165   1.366   0.274
 2919TIP3    H1 8763   2.112   1.416   0.336
 2919TIP3    H2 8764   2.102   1.334   0.209
 2920TIP3   OH2 8765   4.797   2.858   3.401
 2920TIP3    H1 8766   4.727   2.844   3.465
 2920TIP3    H2 8767   4.757   2.836   3.317
 2921TIP3   OH2 8768   0.476   3.808   0.242
 2921TIP3    H1 8769   0.426   3.863   0.303
 2921TIP3    H2 8770   0.433   3.723   0.246
 2922TIP3   OH2 8771   5.343   1.959   3.474
 2922TIP3    H1 8772   5.346   1.898   3.548
 2922TIP3    H2 8773   5.372   2.043   3.510
 2923TIP3   OH2 8774   6.325   3.529   0.693
 2923TIP3    H1 8775   6.292   3.452   0.741
 2923TIP3    H2 8776   6.330   3.499   0.602
 2924TIP3   OH2 8777   0.336   4.174   2.043
 2924TIP3    H1 8778   0.252   4.144   2.009
 2924TIP3    H2 8779   0.384   4.202   1.965
 2925TIP3   OH2 8780   1.191   2.293   2.903
 2925TIP3    H1 8781   1.165   2.202   2.914
 2925TIP3    H2 8782   1.227   2.297   2.814
 2926TIP3   OH2 8783   3.004   2.124   4.950
 2926TIP3    H1 8784   2.961   2.080   4.877
 2926TIP3    H2 8785   3.007   2.216   4.923
 2927TIP3   OH2 8786   3.034   3.810   3.790
 2927TIP3    H1 8787   3.039   3.718   3.818
 2927TIP3    H2 8788   3.110   3.821   3.732
 2928TIP3   OH2 8789   2.975   0.094   0.801
 2928TIP3    H1 8790   2.945   0.005   0.785
 2928TIP3    H2 8791   2.962   0.108   0.894
 2929TIP3   OH2 8792   3.298   5.455   3.936
 2929TIP3    H1 8793   3.268   5.426   4.021
 2929TIP3    H2 8794   3.292   5.551   3.939
 2930TIP3   OH2 8795   4.668   0.053   2.218
 2930TIP3    H1 8796   4.646   0.106   2.141
 2930TIP3    H2 8797   4.591  -0.002   2.232
 2931TIP3   OH2 8798   2.385   1.444   0.009
 2931TIP3    H1 8799   2.380   1.524  -0.042
 2931TIP3    H2 8800   2.307   1.447   0.065
 2932TIP3   OH2 8801   1.880   5.604   0.293
 2932TIP3    H1 8802   1.830   5.595   0.212
 2932TIP3    H2 8803   1.829   5.556   0.358
 2933TIP3   OH2 8804   2.269   1.211   3.247
 2933TIP3    H1 8805   2.176   1.206   3.223
 2933TIP3    H2 8806   2.300   1.121   3.239
 2934TIP3   OH2 8807   0.673   2.639   4.446
 2934TIP3    H1 8808   0.596   2.584   4.461
 2934TIP3    H2 8809   0.637   2.721   4.411
 2935TIP3   OH2 8810   5.898   5.681   1.881
 2935TIP3    H1 8811   5.822   5.737   1.898
 2935TIP3    H2 8812   5.861   5.602   1.841
 2936TIP3   OH2 8813   4.657   2.201   0.888
 2936TIP3    H1 8814   4.616   2.188   0.803
 2936TIP3    H2 8815   4.750   2.209   0.869
 2937TIP3   OH2 8816   5.940   0.049   3.125
 2937TIP3    H1 8817   5.853   0.040   3.086
 2937TIP3    H2 8818   5.923   0.085   3.212
 2938TIP3   OH2 8819   5.598   0.997   0.556
 2938TIP3    H1 8820   5.653   0.928   0.519
 2938TIP3    H2 8821   5.631   1.078   0.518
 2939TIP3   OH2 8822   4.074   5.550   2.981
 2939TIP3    H1 8823   4.107   5.489   2.915
 2939TIP3    H2 8824   4.010   5.604   2.934
 2940TIP3   OH2 8825   3.651   0.013   1.958
 2940TIP3    H1 8826   3.557   0.017   1.979
 2940TIP3    H2 8827   3.678   0.104   1.956
 2941TIP3   OH2 8828   4.407   0.449   3.591
 2941TIP3    H1 8829   4.388   0.462   3.498
 2941TIP3    H2 8830   4.404   0.354   3.604
 2942TIP3   OH2 8831   1.977   2.024   3.074
 2942TIP3    H1 8832   1.966   2.060   3.162
 2942TIP3    H2 8833   1.901   2.057   3.025
 2943TIP3   OH2 8834   5.041   0.652   4.789
 2943TIP3    H1 8835   5.111   0.654   4.724
 2943TIP3    H2 8836   5.060   0.575   4.842
 2944TIP3   OH2 8837   2.879   1.119   4.355
 2944TIP3    H1 8838   2.935   1.141   4.280
 2944TIP3    H2 8839   2.790   1.136   4.324
 2945TIP3   OH2 8840   3.611   4.237   2.605
 2945TIP3    H1 8841   3.530   4.279   2.578
 2945TIP3    H2 8842   3.647   4.200   2.525
 2946TIP3   OH2 8843   2.815   1.721   0.409
 2946TIP3    H1 8844   2.867   1.688   0.482
 2946TIP3    H2 8845   2.787   1.643   0.362
 2947TIP3   OH2 8846   5.627   1.384   1.671
 2947TIP3    H1 8847   5.602   1.443   1.600
 2947TIP3    H2 8848   5.559   1.317   1.672
 2948TIP3   OH2 8849   2.642   0.969   3.351
 2948TIP3    H1 8850   2.672   0.898   3.408
 2948TIP3    H2 8851   2.550   0.951   3.335
 2949TIP3   OH2 8852   1.004   2.673   4.003
 2949TIP3    H1 8853   1.019   2.762   3.972
 2949TIP3    H2 8854   0.965   2.684   4.090
 2950TIP3   OH2 8855   5.693   1.900   2.412
 2950TIP3    H1 8856   5.599   1.893   2.426
 2950TIP3    H2 8857   5.707   1.989   2.380
 2951TIP3   OH2 8858   2.092   0.966   4.323
 2951TIP3    H1 8859   2.123   1.011   4.245
 2951TIP3    H2 8860   2.129   1.016   4.396
 2952TIP3   OH2 8861   4.860   1.723   2.591
 2952TIP3    H1 8862   4.945   1.707   2.632
 2952TIP3    H2 8863   4.800   1.740   2.664
 2953TIP3   OH2 8864   0.695   4.054   0.426
 2953TIP3    H1 8865   0.611   4.094   0.405
 2953TIP3    H2 8866   0.707   3.985   0.361
 2954TIP3   OH2 8867   4.809   3.568   3.332
 2954TIP3    H1 8868   4.900   3.575   3.302
 2954TIP3    H2 8869   4.765   3.519   3.262
 2955TIP3   OH2 8870   2.352   1.137   2.472
 2955TIP3    H1 8871   2.328   1.229   2.467
 2955TIP3    H2 8872   2.445   1.135   2.448
 2956TIP3   OH2 8873   3.673   3.042   4.466
 2956TIP3    H1 8874   3.602   2.979   4.453
 2956TIP3    H2 8875   3.636   3.126   4.437
 2957TIP3   OH2 8876   4.250   3.871   3.435
 2957TIP3    H1 8877   4.181   3.832   3.489
 2957TIP3    H2 8878   4.217   3.864   3.345
 2958TIP3   OH2 8879   0.095   1.908   2.492
 2958TIP3    H1 8880   0.183   1.894   2.459
 2958TIP3    H2 8881   0.064   1.821   2.518
 2959TIP3   OH2 8882   6.351   2.385   4.799
 2959TIP3    H1 8883   6.379   2.328   4.872
 2959TIP3    H2 8884   6.256   2.374   4.796
 2960TIP3   OH2 8885   4.126   4.917   2.114
 2960TIP3    H1 8886   4.122   4.822   2.107
 2960TIP3    H2 8887   4.062   4.939   2.182
 2961TIP3   OH2 8888   5.822   5.440   4.349
 2961TIP3    H1 8889   5.891   5.398   4.297
 2961TIP3    H2 8890   5.741   5.423   4.300
 2962TIP3   OH2 8891   4.794   4.599   3.777
 2962TIP3    H1 8892   4.770   4.685   3.813
 2962TIP3    H2 8893   4.714   4.547   3.783
 2963TIP3   OH2 8894   2.662   0.632   4.814
 2963TIP3    H1 8895   2.701   0.552   4.848
 2963TIP3    H2 8896   2.692   0.701   4.874
 2964TIP3   OH2 8897   4.341   2.651   2.816
 2964TIP3    H1 8898   4.349   2.674   2.723
 2964TIP3    H2 8899   4.264   2.594   2.819
 2965TIP3   OH2 8900   4.455   5.498   4.036
 2965TIP3    H1 8901   4.434   5.522   3.946
 2965TIP3    H2 8902   4.438   5.404   4.040
 2966TIP3   OH2 8903   1.655   5.052   0.356
 2966TIP3    H1 8904   1.743   5.051   0.394
 2966TIP3    H2 8905   1.659   5.117   0.286
 2967TIP3   OH2 8906   2.498   4.056   0.753
 2967TIP3    H1 8907   2.434   4.107   0.702
 2967TIP3    H2 8908   2.564   4.120   0.780
 2968TIP3   OH2 8909   3.612   4.994   1.414
 2968TIP3    H1 8910   3.641   5.008   1.504
 2968TIP3    H2 8911   3.668   5.051   1.361
 2969TIP3   OH2 8912   2.610   0.419   3.736
 2969TIP3    H1 8913   2.610   0.484   3.667
 2969TIP3    H2 8914   2.702   0.396   3.747
 2970TIP3   OH2 8915   2.811   1.735   4.343
 2970TIP3    H1 8916   2.811   1.829   4.362
 2970TIP3    H2 8917   2.775   1.695   4.422
 2971TIP3   OH2 8918   4.661   5.007   0.407
 2971TIP3    H1 8919   4.652   5.075   0.341
 2971TIP3    H2 8920   4.611   4.933   0.372
 2972TIP3   OH2 8921   1.963   5.075   4.350
 2972TIP3    H1 8922   2.023   5.117   4.412
 2972TIP3    H2 8923   2.000   4.987   4.337
 2973TIP3   OH2 8924   5.769   3.152   1.574
 2973TIP3    H1 8925   5.742   3.243   1.564
 2973TIP3    H2 8926   5.856   3.148   1.533
 2974TIP3   OH2 8927   0.088   5.154   2.466
 2974TIP3    H1 8928   0.015   5.214   2.453
 2974TIP3    H2 8929   0.162   5.211   2.488
 2975TIP3   OH2 8930   2.353   5.846   2.258
 2975TIP3    H1 8931   2.398   5.761   2.258
 2975TIP3    H2 8932   2.271   5.830   2.304
 2976TIP3   OH2 8933   0.633   5.001   1.141
 2976TIP3    H1 8934   0.550   5.006   1.190
 2976TIP3    H2 8935   0.695   5.052   1.194
 2977TIP3   OH2 8936   5.428   1.487   3.379
 2977TIP3    H1 8937   5.390   1.484   3.466
 2977TIP3    H2 8938   5.367   1.437   3.324
 2978TIP3   OH2 8939   3.283   4.975   1.099
 2978TIP3    H1 8940   3.305   4.955   1.190
 2978TIP3    H2 8941   3.357   5.028   1.068
 2979TIP3   OH2 8942   3.680   2.902   2.420
 2979TIP3    H1 8943   3.670   2.814   2.456
 2979TIP3    H2 8944   3.752   2.941   2.470
 2980TIP3   OH2 8945   2.368   0.673   4.392
 2980TIP3    H1 8946   2.306   0.645   4.459
 2980TIP3    H2 8947   2.417   0.745   4.432
 2981TIP3   OH2 8948   1.365   0.723   0.361
 2981TIP3    H1 8949   1.312   0.803   0.372
 2981TIP3    H2 8950   1.332   0.684   0.280
 2982TIP3   OH2 8951   2.301   0.157   1.845
 2982TIP3    H1 8952   2.245   0.153   1.923
 2982TIP3    H2 8953   2.273   0.237   1.800
 2983TIP3   OH2 8954   4.680   1.502   0.064
 2983TIP3    H1 8955   4.732   1.456   0.129
 2983TIP3    H2 8956   4.599   1.452   0.058
 2984TIP3   OH2 8957   3.645   3.002   0.492
 2984TIP3    H1 8958   3.659   3.056   0.570
 2984TIP3    H2 8959   3.730   2.963   0.475
 2985TIP3   OH2 8960   4.598   1.306   3.797
 2985TIP3    H1 8961   4.615   1.242   3.728
 2985TIP3    H2 8962   4.582   1.388   3.750
 2986TIP3   OH2 8963   1.387   1.391   0.581
 2986TIP3    H1 8964   1.331   1.314   0.571
 2986TIP3    H2 8965   1.457   1.361   0.641
 2987TIP3   OH2 8966   2.699   0.439   2.710
 2987TIP3    H1 8967   2.688   0.363   2.653
 2987TIP3    H2 8968   2.611   0.456   2.744
 2988TIP3   OH2 8969   6.042   4.220   2.764
 2988TIP3    H1 8970   6.011   4.220   2.673
 2988TIP3    H2 8971   6.007   4.139   2.801
 2989TIP3   OH2 8972   1.417   5.675   3.391
 2989TIP3    H1 8973   1.355   5.744   3.369
 2989TIP3    H2 8974   1.393   5.602   3.333
 2990TIP3   OH2 8975   3.422   2.731   4.295
 2990TIP3    H1 8976   3.501   2.704   4.341
 2990TIP3    H2 8977   3.430   2.691   4.208
 2991TIP3   OH2 8978   4.610   1.349   0.816
 2991TIP3    H1 8979   4.650   1.379   0.734
 2991TIP3    H2 8980   4.673   1.372   0.884
 2992TIP3   OH2 8981   2.903   2.581   1.221
 2992TIP3    H1 8982   2.958   2.617   1.290
 2992TIP3    H2 8983   2.958   2.515   1.178
 2993TIP3   OH2 8984   1.061   5.020   4.113
 2993TIP3    H1 8985   1.049   5.105   4.154
 2993TIP3    H2 8986   1.116   4.971   4.175
 2994TIP3   OH2 8987   2.216   2.402   3.744
 2994TIP3    H1 8988   2.310   2.390   3.762
 2994TIP3    H2 8989   2.213   2.440   3.656
 2995TIP3   OH2 8990   1.310   1.047   3.229
 2995TIP3    H1 8991   1.243   1.083   3.287
 2995TIP3    H2 8992   1.391   1.055   3.279
 2996TIP3   OH2 8993   3.640   3.748   4.916
 2996TIP3    H1 8994   3.669   3.663   4.882
 2996TIP3    H2 8995   3.719   3.801   4.919
 2997TIP3   OH2 8996   1.969   0.727   2.863
 2997TIP3    H1 8997   2.017   0.699   2.784
 2997TIP3    H2 8998   2.004   0.814   2.883
 2998TIP3   OH2 8999   0.425   3.312   1.127
 2998TIP3    H1 9000   0.442   3.351   1.041
 2998TIP3    H2 9001   0.430   3.218   1.112
 2999TIP3   OH2 9002   3.568   2.897   4.895
 2999TIP3    H1 9003   3.497   2.861   4.948
 2999TIP3    H2 9004   3.647   2.879   4.946
 3000TIP3   OH2 9005   3.628   1.055   0.657
 3000TIP3    H1 9006   3.678   1.131   0.688
 3000TIP3    H2 9007   3.690   1.005   0.605
 3001TIP3   OH2 9008   2.094   5.917   4.332
 3001TIP3    H1 9009   2.028   5.934   4.265
 3001TIP3    H2 9010   2.068   5.834   4.371
 3002TIP3   OH2 9011   2.207   3.666   1.772
 3002TIP3    H1 9012   2.190   3.576   1.801
 3002TIP3    H2 9013   2.168   3.670   1.685
 3003TIP3   OH2 9014   1.362   4.003   5.101
 3003TIP3    H1 9015   1.322   3.985   5.187
 3003TIP3    H2 9016   1.444   3.954   5.103
 3004TIP3   OH2 9017   4.805   2.569   1.383
 3004TIP3    H1 9018   4.771   2.563   1.472
 3004TIP3    H2 9019   4.824   2.478   1.359
 3005TIP3   OH2 9020   1.121   3.277   0.612
 3005TIP3    H1 9021   1.052   3.218   0.583
 3005TIP3    H2 9022   1.203   3.232   0.591
 3006TIP3   OH2 9023   6.168   5.715   4.661
 3006TIP3    H1 9024   6.160   5.778   4.733
 3006TIP3    H2 9025   6.084   5.669   4.660
 3007TIP3   OH2 9026   4.854   4.485   5.074
 3007TIP3    H1 9027   4.834   4.406   5.124
 3007TIP3    H2 9028   4.937   4.516   5.111
 3008TIP3   OH2 9029   3.168   4.178   3.647
 3008TIP3    H1 9030   3.169   4.193   3.552
 3008TIP3    H2 9031   3.235   4.110   3.661
 3009TIP3   OH2 9032   2.894   1.534   4.901
 3009TIP3    H1 9033   2.857   1.480   4.831
 3009TIP3    H2 9034   2.948   1.599   4.854
 3010TIP3   OH2 9035   4.514   4.859   3.986
 3010TIP3    H1 9036   4.450   4.928   3.971
 3010TIP3    H2 9037   4.567   4.857   3.906
 3011TIP3   OH2 9038   1.472   2.017   0.605
 3011TIP3    H1 9039   1.567   2.009   0.605
 3011TIP3    H2 9040   1.449   2.027   0.697
 3012TIP3   OH2 9041   5.027   2.883   4.330
 3012TIP3    H1 9042   5.041   2.893   4.236
 3012TIP3    H2 9043   5.115   2.872   4.366
 3013TIP3   OH2 9044   1.236   5.784   1.538
 3013TIP3    H1 9045   1.219   5.814   1.448
 3013TIP3    H2 9046   1.257   5.691   1.528
 3014TIP3   OH2 9047   1.823   3.772   2.575
 3014TIP3    H1 9048   1.861   3.809   2.654
 3014TIP3    H2 9049   1.898   3.751   2.519
 3015TIP3   OH2 9050   2.001   1.682   1.119
 3015TIP3    H1 9051   2.006   1.770   1.083
 3015TIP3    H2 9052   2.069   1.633   1.073
 3016TIP3   OH2 9053   4.967   2.656   5.176
 3016TIP3    H1 9054   4.979   2.585   5.113
 3016TIP3    H2 9055   5.039   2.645   5.239
 3017TIP3   OH2 9056   3.586   1.488   4.542
 3017TIP3    H1 9057   3.643   1.489   4.618
 3017TIP3    H2 9058   3.633   1.538   4.475
 3018TIP3   OH2 9059   5.684   1.837   4.903
 3018TIP3    H1 9060   5.683   1.903   4.834
 3018TIP3    H2 9061   5.611   1.860   4.960
 3019TIP3   OH2 9062   0.382   5.090   1.230
 3019TIP3    H1 9063   0.412   5.179   1.245
 3019TIP3    H2 9064   0.357   5.088   1.138
 3020TIP3   OH2 9065   4.683   5.334   5.021
 3020TIP3    H1 9066   4.602   5.377   4.993
 3020TIP3    H2 9067   4.731   5.317   4.940
 3021TIP3   OH2 9068   0.995   1.472   2.001
 3021TIP3    H1 9069   1.079   1.426   2.002
 3021TIP3    H2 9070   0.949   1.439   1.924
 3022TIP3   OH2 9071   3.442   4.239   0.632
 3022TIP3    H1 9072   3.421   4.270   0.544
 3022TIP3    H2 9073   3.433   4.317   0.687
 3023TIP3   OH2 9074   0.176   1.043   0.641
 3023TIP3    H1 9075   0.093   1.002   0.615
 3023TIP3    H2 9076   0.224   0.975   0.687
 3024TIP3   OH2 9077   2.766   1.096   5.067
 3024TIP3    H1 9078   2.861   1.087   5.075
 3024TIP3    H2 9079   2.751   1.101   4.973
 3025TIP3   OH2 9080   0.415   1.130   0.534
 3025TIP3    H1 9081   0.446   1.040   0.531
 3025TIP3    H2 9082   0.325   1.124   0.567
 3026TIP3   OH2 9083   2.927   1.720   4.719
 3026TIP3    H1 9084   2.869   1.717   4.642
 3026TIP3    H2 9085   2.937   1.814   4.737
 3027TIP3   OH2 9086   2.750   0.672   0.517
 3027TIP3    H1 9087   2.695   0.720   0.455
 3027TIP3    H2 9088   2.698   0.669   0.597
 3028TIP3   OH2 9089   4.796   1.063   4.543
 3028TIP3    H1 9090   4.889   1.082   4.552
 3028TIP3    H2 9091   4.779   0.990   4.602
 3029TIP3   OH2 9092   1.093   1.370   3.735
 3029TIP3    H1 9093   1.175   1.399   3.773
 3029TIP3    H2 9094   1.047   1.324   3.806
 3030TIP3   OH2 9095   1.779   2.898   2.756
 3030TIP3    H1 9096   1.826   2.969   2.712
 3030TIP3    H2 9097   1.844   2.860   2.815
 3031TIP3   OH2 9098   3.426   3.824   5.075
 3031TIP3    H1 9099   3.357   3.867   5.024
 3031TIP3    H2 9100   3.469   3.766   5.012
 3032TIP3   OH2 9101   5.240   0.923   4.975
 3032TIP3    H1 9102   5.148   0.932   4.948
 3032TIP3    H2 9103   5.285   0.995   4.932
 3033TIP3   OH2 9104   5.946   5.071   1.806
 3033TIP3    H1 9105   5.971   5.060   1.898
 3033TIP3    H2 9106   5.859   5.031   1.799
 3034TIP3   OH2 9107   6.222   5.085   3.394
 3034TIP3    H1 9108   6.251   5.077   3.303
 3034TIP3    H2 9109   6.216   5.179   3.409
 3035TIP3   OH2 9110   3.887   4.563   3.475
 3035TIP3    H1 9111   3.937   4.596   3.401
 3035TIP3    H2 9112   3.953   4.523   3.532
 3036TIP3   OH2 9113   0.451   4.533   0.764
 3036TIP3    H1 9114   0.424   4.538   0.673
 3036TIP3    H2 9115   0.467   4.440   0.780
 3037TIP3   OH2 9116   3.681   4.898   4.158
 3037TIP3    H1 9117   3.767   4.922   4.123
 3037TIP3    H2 9118   3.618   4.929   4.093
 3038TIP3   OH2 9119   2.482   3.327   2.307
 3038TIP3    H1 9120   2.447   3.299   2.223
 3038TIP3    H2 9121   2.508   3.245   2.350
 3039TIP3   OH2 9122   4.779   1.562   3.378
 3039TIP3    H1 9123   4.821   1.479   3.354
 3039TIP3    H2 9124   4.849   1.616   3.414
 3040TIP3   OH2 9125   0.008   0.776   3.590
 3040TIP3    H1 9126  -0.059   0.833   3.626
 3040TIP3    H2 9127  -0.009   0.690   3.629
 3041TIP3   OH2 9128   6.240   0.955   0.423
 3041TIP3    H1 9129   6.328   0.973   0.388
 3041TIP3    H2 9130   6.256   0.925   0.512
 3042TIP3   OH2 9131   0.104   3.778   1.854
 3042TIP3    H1 9132   0.055   3.836   1.914
 3042TIP3    H2 9133   0.059   3.788   1.770
 3043TIP3   OH2 9134   0.847   0.163   3.513
 3043TIP3    H1 9135   0.923   0.198   3.561
 3043TIP3    H2 9136   0.883   0.131   3.430
 3044TIP3   OH2 9137   2.590   3.827   0.608
 3044TIP3    H1 9138   2.568   3.874   0.688
 3044TIP3    H2 9139   2.538   3.869   0.540
 3045TIP3   OH2 9140   2.729   3.406   3.411
 3045TIP3    H1 9141   2.708   3.499   3.402
 3045TIP3    H2 9142   2.669   3.374   3.479
 3046TIP3   OH2 9143   4.806   1.506   0.450
 3046TIP3    H1 9144   4.735   1.444   0.432
 3046TIP3    H2 9145   4.886   1.456   0.431
 3047TIP3   OH2 9146   4.564   1.970   4.204
 3047TIP3    H1 9147   4.471   1.961   4.225
 3047TIP3    H2 9148   4.569   1.955   4.109
 3048TIP3   OH2 9149   6.300   5.175   0.995
 3048TIP3    H1 9150   6.286   5.217   0.910
 3048TIP3    H2 9151   6.304   5.081   0.975
 3049TIP3   OH2 9152   4.732   5.247   2.279
 3049TIP3    H1 9153   4.818   5.276   2.308
 3049TIP3    H2 9154   4.746   5.212   2.191
 3050TIP3   OH2 9155   0.619   0.761   2.956
 3050TIP3    H1 9156   0.579   0.829   2.903
 3050TIP3    H2 9157   0.705   0.797   2.980
 3051TIP3   OH2 9158   3.780   1.230   3.326
 3051TIP3    H1 9159   3.727   1.221   3.406
 3051TIP3    H2 9160   3.765   1.149   3.279
 3052TIP3   OH2 9161  -0.009   5.892   2.694
 3052TIP3    H1 9162  -0.058   5.826   2.645
 3052TIP3    H2 9163   0.038   5.841   2.761
 3053TIP3   OH2 9164   3.502   1.430   1.881
 3053TIP3    H1 9165   3.461   1.453   1.965
 3053TIP3    H2 9166   3.594   1.418   1.902
 3054TIP3   OH2 9167   3.851   1.177   3.864
 3054TIP3    H1 9168   3.928   1.234   3.859
 3054TIP3    H2 9169   3.868   1.108   3.800
 3055TIP3   OH2 9170   6.106   1.794   1.922
 3055TIP3    H1 9171   6.193   1.754   1.929
 3055TIP3    H2 9172   6.094   1.839   2.006
 3056TIP3   OH2 9173   1.589   2.709   2.901
 3056TIP3    H1 9174   1.620   2.640   2.960
 3056TIP3    H2 9175   1.656   2.776   2.906
 3057TIP3   OH2 9176   5.912   3.064   3.515
 3057TIP3    H1 9177   5.941   2.979   3.549
 3057TIP3    H2 9178   5.817   3.063   3.526
 3058TIP3   OH2 9179   1.777   4.831   4.952
 3058TIP3    H1 9180   1.838   4.886   5.002
 3058TIP3    H2 9181   1.739   4.772   5.017
 3059TIP3   OH2 9182   4.556   5.577   3.130
 3059TIP3    H1 9183   4.468   5.567   3.166
 3059TIP3    H2 9184   4.543   5.580   3.035
 3060TIP3   OH2 9185   1.562   0.913   2.392
 3060TIP3    H1 9186   1.541   0.866   2.311
 3060TIP3    H2 9187   1.624   0.856   2.438
 3061TIP3   OH2 9188   0.839   1.796   1.139
 3061TIP3    H1 9189   0.761   1.767   1.188
 3061TIP3    H2 9190   0.863   1.720   1.086
 3062TIP3   OH2 9191   6.048   2.190   2.254
 3062TIP3    H1 9192   6.066   2.284   2.260
 3062TIP3    H2 9193   5.979   2.174   2.318
 3063TIP3   OH2 9194   1.141   0.544   1.965
 3063TIP3    H1 9195   1.056   0.562   2.005
 3063TIP3    H2 9196   1.120   0.512   1.878
 3064TIP3   OH2 9197   5.143   1.254   5.153
 3064TIP3    H1 9198   5.175   1.344   5.144
 3064TIP3    H2 9199   5.154   1.215   5.067
 3065TIP3   OH2 9200   5.454   2.882   3.294
 3065TIP3    H1 9201   5.409   2.967   3.296
 3065TIP3    H2 9202   5.397   2.823   3.343
 3066TIP3   OH2 9203   5.268   2.844   4.466
 3066TIP3    H1 9204   5.267   2.895   4.547
 3066TIP3    H2 9205   5.304   2.759   4.492
 3067TIP3   OH2 9206   4.732   3.114   1.446
 3067TIP3    H1 9207   4.686   3.147   1.369
 3067TIP3    H2 9208   4.809   3.070   1.410
 3068TIP3   OH2 9209   3.218   0.418   3.434
 3068TIP3    H1 9210   3.248   0.481   3.368
 3068TIP3    H2 9211   3.171   0.470   3.498
 3069TIP3   OH2 9212   4.056   4.366   0.870
 3069TIP3    H1 9213   4.012   4.450   0.860
 3069TIP3    H2 9214   4.101   4.352   0.787
 3070TIP3   OH2 9215   3.485   3.860   0.471
 3070TIP3    H1 9216   3.496   3.954   0.456
 3070TIP3    H2 9217   3.443   3.828   0.391
 3071TIP3   OH2 9218   4.857   5.529   2.868
 3071TIP3    H1 9219   4.909   5.591   2.920
 3071TIP3    H2 9220   4.842   5.574   2.785
 3072TIP3   OH2 9221   5.430   0.063   0.553
 3072TIP3    H1 9222   5.372   0.124   0.599
 3072TIP3    H2 9223   5.414   0.079   0.460
 3073TIP3   OH2 9224   5.051   1.384   0.424
 3073TIP3    H1 9225   5.062   1.298   0.382
 3073TIP3    H2 9226   5.100   1.377   0.506
 3074TIP3   OH2 9227   5.897   5.386   1.918
 3074TIP3    H1 9228   5.844   5.420   1.846
 3074TIP3    H2 9229   5.832   5.351   1.980
 3075TIP3   OH2 9230   2.783   3.486   0.262
 3075TIP3    H1 9231   2.868   3.450   0.236
 3075TIP3    H2 9232   2.797   3.580   0.271
 3076TIP3   OH2 9233   5.769   2.516   0.037
 3076TIP3    H1 9234   5.834   2.471   0.092
 3076TIP3    H2 9235   5.712   2.447   0.006
 3077TIP3   OH2 9236   3.912   3.771   2.893
 3077TIP3    H1 9237   3.864   3.690   2.913
 3077TIP3    H2 9238   3.944   3.759   2.804
 3078TIP3   OH2 9239   2.367   5.728   1.828
 3078TIP3    H1 9240   2.324   5.644   1.842
 3078TIP3    H2 9241   2.302   5.793   1.853
 3079TIP3   OH2 9242   2.635   2.534   1.699
 3079TIP3    H1 9243   2.580   2.610   1.678
 3079TIP3    H2 9244   2.701   2.569   1.759
 3080TIP3   OH2 9245   3.715   3.640   3.978
 3080TIP3    H1 9246   3.729   3.613   4.068
 3080TIP3    H2 9247   3.688   3.732   3.984
 3081TIP3   OH2 9248   3.195   0.568   2.692
 3081TIP3    H1 9249   3.184   0.474   2.682
 3081TIP3    H2 9250   3.139   0.607   2.624
 3082TIP3   OH2 9251   6.195   3.002   3.871
 3082TIP3    H1 9252   6.273   3.035   3.916
 3082TIP3    H2 9253   6.161   3.078   3.823
 3083TIP3   OH2 9254   2.100   3.355   2.999
 3083TIP3    H1 9255   2.078   3.331   2.909
 3083TIP3    H2 9256   2.072   3.447   3.006
 3084TIP3   OH2 9257   6.032   0.147   2.436
 3084TIP3    H1 9258   5.985   0.154   2.353
 3084TIP3    H2 9259   6.037   0.237   2.468
 3085TIP3   OH2 9260   5.724   5.334   0.819
 3085TIP3    H1 9261   5.803   5.362   0.772
 3085TIP3    H2 9262   5.717   5.394   0.893
 3086TIP3   OH2 9263   0.647   4.533   2.639
 3086TIP3    H1 9264   0.574   4.496   2.589
 3086TIP3    H2 9265   0.607   4.600   2.694
 3087TIP3   OH2 9266   1.307   5.349   2.928
 3087TIP3    H1 9267   1.354   5.276   2.888
 3087TIP3    H2 9268   1.286   5.407   2.855
 3088TIP3   OH2 9269   5.520   5.377   3.642
 3088TIP3    H1 9270   5.461   5.366   3.716
 3088TIP3    H2 9271   5.595   5.425   3.677
 3089TIP3   OH2 9272   2.801   2.345   2.297
 3089TIP3    H1 9273   2.844   2.423   2.261
 3089TIP3    H2 9274   2.845   2.271   2.255
 3090TIP3   OH2 9275   5.135   1.657   4.644
 3090TIP3    H1 9276   5.085   1.703   4.576
 3090TIP3    H2 9277   5.148   1.723   4.712
 3091TIP3   OH2 9278   5.434   2.735   4.216
 3091TIP3    H1 9279   5.450   2.723   4.309
 3091TIP3    H2 9280   5.405   2.826   4.208
 3092TIP3   OH2 9281   6.380   5.168   4.106
 3092TIP3    H1 9282   6.361   5.167   4.013
 3092TIP3    H2 9283   6.299   5.140   4.148
 3093TIP3   OH2 9284   3.750   5.631   2.721
 3093TIP3    H1 9285   3.692   5.556   2.710
 3093TIP3    H2 9286   3.819   5.618   2.656
 3094TIP3   OH2 9287   0.942   1.866   0.212
 3094TIP3    H1 9288   0.858   1.855   0.167
 3094TIP3    H2 9289   0.932   1.947   0.263
 3095TIP3   OH2 9290   4.241   1.219   5.014
 3095TIP3    H1 9291   4.218   1.179   4.931
 3095TIP3    H2 9292   4.213   1.155   5.080
 3096TIP3   OH2 9293   6.294   5.346   3.051
 3096TIP3    H1 9294   6.201   5.366   3.065
 3096TIP3    H2 9295   6.330   5.426   3.013
 3097TIP3   OH2 9296   5.746   1.493   3.596
 3097TIP3    H1 9297   5.684   1.440   3.646
 3097TIP3    H2 9298   5.692   1.542   3.534
 3098TIP3   OH2 9299   5.417   5.115   2.947
 3098TIP3    H1 9300   5.411   5.042   2.885
 3098TIP3    H2 9301   5.327   5.142   2.961
 3099TIP3   OH2 9302   1.968   4.382   4.014
 3099TIP3    H1 9303   2.035   4.360   4.080
 3099TIP3    H2 9304   1.904   4.434   4.062
 3100TIP3   OH2 9305   3.559   1.970   0.174
 3100TIP3    H1 9306   3.562   2.063   0.200
 3100TIP3    H2 9307   3.592   1.970   0.084
 3101TIP3   OH2 9308   6.228   0.436   1.146
 3101TIP3    H1 9309   6.273   0.353   1.154
 3101TIP3    H2 9310   6.217   0.449   1.052
 3102TIP3   OH2 9311   1.727   0.913   0.673
 3102TIP3    H1 9312   1.802   0.856   0.688
 3102TIP3    H2 9313   1.690   0.928   0.760
 3103TIP3   OH2 9314   0.965   3.572   1.291
 3103TIP3    H1 9315   0.897   3.636   1.307
 3103TIP3    H2 9316   0.932   3.519   1.218
 3104TIP3   OH2 9317   5.487   3.646   4.646
 3104TIP3    H1 9318   5.444   3.731   4.654
 3104TIP3    H2 9319   5.420   3.590   4.605
 3105TIP3   OH2 9320   3.138   3.651   0.618
 3105TIP3    H1 9321   3.163   3.709   0.546
 3105TIP3    H2 9322   3.071   3.699   0.666
 3106TIP3   OH2 9323   5.983   3.089   4.356
 3106TIP3    H1 9324   5.959   3.119   4.268
 3106TIP3    H2 9325   5.966   2.995   4.355
 3107TIP3   OH2 9326   1.435  -0.033   2.734
 3107TIP3    H1 9327   1.523  -0.010   2.706
 3107TIP3    H2 9328   1.418   0.024   2.809
 3108TIP3   OH2 9329   0.209   3.290   1.968
 3108TIP3    H1 9330   0.219   3.200   1.937
 3108TIP3    H2 9331   0.299   3.322   1.978
 3109TIP3   OH2 9332   1.444   5.750   1.110
 3109TIP3    H1 9333   1.497   5.744   1.031
 3109TIP3    H2 9334   1.364   5.703   1.088
 3110TIP3   OH2 9335   5.858   5.345   1.574
 3110TIP3    H1 9336   5.937   5.291   1.567
 3110TIP3    H2 9337   5.834   5.365   1.484
 3111TIP3   OH2 9338   5.204   0.490   3.105
 3111TIP3    H1 9339   5.116   0.480   3.144
 3111TIP3    H2 9340   5.263   0.465   3.176
 3112TIP3   OH2 9341   2.401   2.159   1.094
 3112TIP3    H1 9342   2.478   2.114   1.129
 3112TIP3    H2 9343   2.374   2.218   1.164
 3113TIP3   OH2 9344   5.892   1.259   3.503
 3113TIP3    H1 9345   5.846   1.343   3.498
 3113TIP3    H2 9346   5.984   1.281   3.491
 3114TIP3   OH2 9347   6.358   5.188   4.474
 3114TIP3    H1 9348   6.357   5.094   4.456
 3114TIP3    H2 9349   6.282   5.223   4.428
 3115TIP3   OH2 9350   0.515   2.399   4.482
 3115TIP3    H1 9351   0.428   2.434   4.500
 3115TIP3    H2 9352   0.508   2.306   4.504
 3116TIP3   OH2 9353   4.261   5.482   0.459
 3116TIP3    H1 9354   4.292   5.454   0.545
 3116TIP3    H2 9355   4.173   5.516   0.476
 3117TIP3   OH2 9356   5.442   1.863   0.150
 3117TIP3    H1 9357   5.384   1.860   0.226
 3117TIP3    H2 9358   5.383   1.877   0.076
 3118TIP3   OH2 9359   4.785   4.563   1.411
 3118TIP3    H1 9360   4.709   4.620   1.398
 3118TIP3    H2 9361   4.830   4.564   1.327
 3119TIP3   OH2 9362   1.776   4.017   1.011
 3119TIP3    H1 9363   1.782   3.927   1.043
 3119TIP3    H2 9364   1.835   4.067   1.068
 3120TIP3   OH2 9365   5.259   1.935   0.779
 3120TIP3    H1 9366   5.297   2.023   0.789
 3120TIP3    H2 9367   5.169   1.951   0.751
 3121TIP3   OH2 9368   4.207   4.231   2.221
 3121TIP3    H1 9369   4.215   4.170   2.148
 3121TIP3    H2 9370   4.295   4.238   2.257
 3122TIP3   OH2 9371   3.623   3.371   1.707
 3122TIP3    H1 9372   3.658   3.394   1.793
 3122TIP3    H2 9373   3.572   3.448   1.680
 3123TIP3   OH2 9374   0.033   1.911   1.374
 3123TIP3    H1 9375   0.022   1.852   1.448
 3123TIP3    H2 9376  -0.039   1.973   1.382
 3124TIP3   OH2 9377   0.008   1.508   3.002
 3124TIP3    H1 9378   0.022   1.544   3.090
 3124TIP3    H2 9379  -0.087   1.499   2.995
 3125TIP3   OH2 9380   5.551   3.770   2.360
 3125TIP3    H1 9381   5.582   3.695   2.411
 3125TIP3    H2 9382   5.622   3.788   2.299
 3126TIP3   OH2 9383   4.986   1.757   1.655
 3126TIP3    H1 9384   4.952   1.674   1.621
 3126TIP3    H2 9385   4.978   1.750   1.750
 3127TIP3   OH2 9386   4.992   4.022   2.412
 3127TIP3    H1 9387   4.989   3.943   2.357
 3127TIP3    H2 9388   5.085   4.034   2.431
 3128TIP3   OH2 9389   0.672   4.615   0.947
 3128TIP3    H1 9390   0.597   4.576   0.903
 3128TIP3    H2 9391   0.715   4.541   0.991
 3129TIP3   OH2 9392   0.464   5.694   0.661
 3129TIP3    H1 9393   0.457   5.601   0.642
 3129TIP3    H2 9394   0.406   5.736   0.597
 3130TIP3   OH2 9395   5.762   4.319   1.174
 3130TIP3    H1 9396   5.819   4.320   1.251
 3130TIP3    H2 9397   5.698   4.250   1.193
 3131TIP3   OH2 9398   4.055   3.734   0.185
 3131TIP3    H1 9399   4.060   3.681   0.264
 3131TIP3    H2 9400   3.961   3.750   0.172
 3132TIP3   OH2 9401   4.737   4.867   3.809
 3132TIP3    H1 9402   4.805   4.896   3.870
 3132TIP3    H2 9403   4.772   4.887   3.723
 3133TIP3   OH2 9404   1.882   2.265   4.469
 3133TIP3    H1 9405   1.972   2.294   4.486
 3133TIP3    H2 9406   1.879   2.251   4.374
 3134TIP3   OH2 9407   3.941   1.810   2.234
 3134TIP3    H1 9408   3.850   1.786   2.214
 3134TIP3    H2 9409   3.971   1.742   2.294
 3135TIP3   OH2 9410   0.203   1.319   1.802
 3135TIP3    H1 9411   0.253   1.280   1.731
 3135TIP3    H2 9412   0.145   1.382   1.760
 3136TIP3   OH2 9413   4.706   4.214   0.814
 3136TIP3    H1 9414   4.656   4.227   0.894
 3136TIP3    H2 9415   4.759   4.136   0.831
 3137TIP3   OH2 9416   1.432   3.754   2.924
 3137TIP3    H1 9417   1.417   3.680   2.865
 3137TIP3    H2 9418   1.526   3.771   2.919
 3138TIP3   OH2 9419   1.672   1.494   4.734
 3138TIP3    H1 9420   1.684   1.586   4.710
 3138TIP3    H2 9421   1.759   1.456   4.727
 3139TIP3   OH2 9422   4.235   4.879   0.742
 3139TIP3    H1 9423   4.179   4.856   0.815
 3139TIP3    H2 9424   4.321   4.897   0.781
 3140TIP3   OH2 9425   5.874   5.673   0.090
 3140TIP3    H1 9426   5.956   5.674   0.138
 3140TIP3    H2 9427   5.848   5.581   0.090
 3141TIP3   OH2 9428   0.824   2.505   2.405
 3141TIP3    H1 9429   0.773   2.574   2.362
 3141TIP3    H2 9430   0.774   2.425   2.389
 3142TIP3   OH2 9431   5.115   5.862   3.609
 3142TIP3    H1 9432   5.046   5.923   3.581
 3142TIP3    H2 9433   5.189   5.919   3.630
 3143TIP3   OH2 9434   5.923   2.773   2.028
 3143TIP3    H1 9435   5.962   2.788   2.114
 3143TIP3    H2 9436   5.829   2.789   2.041
 3144TIP3   OH2 9437  -0.013   3.226   3.960
 3144TIP3    H1 9438   0.079   3.247   3.943
 3144TIP3    H2 9439  -0.015   3.198   4.051
 3145TIP3   OH2 9440   1.838   4.869   2.970
 3145TIP3    H1 9441   1.746   4.855   2.994
 3145TIP3    H2 9442   1.887   4.819   3.035
 3146TIP3   OH2 9443   5.618   5.800   0.771
 3146TIP3    H1 9444   5.594   5.707   0.767
 3146TIP3    H2 9445   5.709   5.800   0.802
 3147TIP3   OH2 9446   2.718   4.246   3.968
 3147TIP3    H1 9447   2.797   4.208   3.930
 3147TIP3    H2 9448   2.693   4.315   3.907
 3148TIP3   OH2 9449   2.939   1.651   1.053
 3148TIP3    H1 9450   2.929   1.745   1.060
 3148TIP3    H2 9451   2.855   1.620   1.019
 3149TIP3   OH2 9452   6.304   1.254   1.940
 3149TIP3    H1 9453   6.270   1.343   1.937
 3149TIP3    H2 9454   6.384   1.256   1.888
 3150TIP3   OH2 9455   1.485   5.378   1.063
 3150TIP3    H1 9456   1.463   5.297   1.017
 3150TIP3    H2 9457   1.560   5.356   1.118
 3151TIP3   OH2 9458   2.070   1.685   4.050
 3151TIP3    H1 9459   2.059   1.589   4.048
 3151TIP3    H2 9460   1.984   1.719   4.029
 3152TIP3   OH2 9461   5.900   4.814   2.000
 3152TIP3    H1 9462   5.922   4.721   1.996
 3152TIP3    H2 9463   5.816   4.821   1.954
 3153TIP3   OH2 9464   6.169   4.950   4.134
 3153TIP3    H1 9465   6.207   4.933   4.048
 3153TIP3    H2 9466   6.080   4.978   4.116
 3154TIP3   OH2 9467   0.248   2.014   4.522
 3154TIP3    H1 9468   0.174   1.959   4.496
 3154TIP3    H2 9469   0.208   2.099   4.543
 3155TIP3   OH2 9470   3.980   2.570   3.391
 3155TIP3    H1 9471   3.950   2.535   3.307
 3155TIP3    H2 9472   4.057   2.518   3.413
 3156TIP3   OH2 9473   4.641   1.970   2.198
 3156TIP3    H1 9474   4.697   1.951   2.273
 3156TIP3    H2 9475   4.573   2.027   2.232
 3157TIP3   OH2 9476   2.926   0.221   5.090
 3157TIP3    H1 9477   2.867   0.146   5.096
 3157TIP3    H2 9478   2.947   0.242   5.181
 3158TIP3   OH2 9479   2.194   0.697   1.059
 3158TIP3    H1 9480   2.232   0.732   0.978
 3158TIP3    H2 9481   2.099   0.703   1.045
 3159TIP3   OH2 9482   0.330   2.368   4.817
 3159TIP3    H1 9483   0.322   2.352   4.723
 3159TIP3    H2 9484   0.284   2.294   4.858
 3160TIP3   OH2 9485   4.900   4.441   0.382
 3160TIP3    H1 9486   4.833   4.447   0.450
 3160TIP3    H2 9487   4.876   4.363   0.331
 3161TIP3   OH2 9488   5.470   4.544   4.140
 3161TIP3    H1 9489   5.382   4.540   4.178
 3161TIP3    H2 9490   5.508   4.458   4.157
 3162TIP3   OH2 9491   4.832   0.836   2.523
 3162TIP3    H1 9492   4.924   0.861   2.512
 3162TIP3    H2 9493   4.788   0.874   2.447
 3163TIP3   OH2 9494   4.185   0.686   3.426
 3163TIP3    H1 9495   4.237   0.755   3.466
 3163TIP3    H2 9496   4.250   0.621   3.398
 3164TIP3   OH2 9497   4.358   1.892   2.624
 3164TIP3    H1 9498   4.375   1.810   2.671
 3164TIP3    H2 9499   4.278   1.927   2.664
 3165TIP3   OH2 9500   1.704   0.355   2.347
 3165TIP3    H1 9501   1.783   0.303   2.364
 3165TIP3    H2 9502   1.632   0.292   2.355
 3166TIP3   OH2 9503   5.124   2.759   0.794
 3166TIP3    H1 9504   5.216   2.777   0.777
 3166TIP3    H2 9505   5.113   2.773   0.888
 3167TIP3   OH2 9506   3.546   2.159   3.356
 3167TIP3    H1 9507   3.555   2.081   3.411
 3167TIP3    H2 9508   3.510   2.127   3.274
 3168TIP3   OH2 9509   1.102   4.615   4.903
 3168TIP3    H1 9510   1.044   4.658   4.840
 3168TIP3    H2 9511   1.151   4.552   4.850
 3169TIP3   OH2 9512   6.167   5.588   3.193
 3169TIP3    H1 9513   6.156   5.550   3.106
 3169TIP3    H2 9514   6.078   5.593   3.229
 3170TIP3   OH2 9515   4.176   5.499   3.444
 3170TIP3    H1 9516   4.238   5.516   3.515
 3170TIP3    H2 9517   4.100   5.460   3.488
 3171TIP3   OH2 9518   0.911   4.579   3.281
 3171TIP3    H1 9519   0.992   4.540   3.314
 3171TIP3    H2 9520   0.849   4.571   3.353
 3172TIP3   OH2 9521   1.581   5.854   2.698
 3172TIP3    H1 9522   1.670   5.835   2.667
 3172TIP3    H2 9523   1.525   5.793   2.650
 3173TIP3   OH2 9524   2.614   5.769   4.993
 3173TIP3    H1 9525   2.648   5.836   5.052
 3173TIP3    H2 9526   2.623   5.807   4.906
 3174TIP3   OH2 9527   0.634   0.454   2.759
 3174TIP3    H1 9528   0.564   0.497   2.709
 3174TIP3    H2 9529   0.690   0.527   2.788
 3175TIP3   OH2 9530   0.634   1.537   5.054
 3175TIP3    H1 9531   0.557   1.506   5.007
 3175TIP3    H2 9532   0.704   1.478   5.027
 3176TIP3   OH2 9533   4.687   1.061   2.599
 3176TIP3    H1 9534   4.684   1.122   2.673
 3176TIP3    H2 9535   4.755   0.998   2.623
 3177TIP3   OH2 9536   2.342   4.571   0.179
 3177TIP3    H1 9537   2.299   4.569   0.093
 3177TIP3    H2 9538   2.364   4.664   0.192
 3178TIP3   OH2 9539   0.580   0.535   3.687
 3178TIP3    H1 9540   0.485   0.547   3.679
 3178TIP3    H2 9541   0.609   0.611   3.738
 3179TIP3   OH2 9542   0.283   0.828   0.785
 3179TIP3    H1 9543   0.215   0.851   0.848
 3179TIP3    H2 9544   0.295   0.733   0.796
 3180TIP3   OH2 9545   5.000   4.160   1.986
 3180TIP3    H1 9546   4.978   4.069   1.966
 3180TIP3    H2 9547   4.984   4.207   1.905
 3181TIP3   OH2 9548   0.325   0.699   1.036
 3181TIP3    H1 9549   0.276   0.618   1.027
 3181TIP3    H2 9550   0.383   0.702   0.960
 3182TIP3   OH2 9551   2.105   4.009   4.178
 3182TIP3    H1 9552   2.063   3.964   4.251
 3182TIP3    H2 9553   2.147   4.085   4.218
 3183TIP3   OH2 9554   6.287   3.445   1.668
 3183TIP3    H1 9555   6.282   3.460   1.763
 3183TIP3    H2 9556   6.295   3.533   1.631
 3184TIP3   OH2 9557   2.258   2.359   0.576
 3184TIP3    H1 9558   2.233   2.278   0.532
 3184TIP3    H2 9559   2.272   2.422   0.504
 3185TIP3   OH2 9560   1.318   1.011   4.981
 3185TIP3    H1 9561   1.346   0.988   4.892
 3185TIP3    H2 9562   1.288   0.929   5.018
 3186TIP3   OH2 9563   0.422   5.657   1.163
 3186TIP3    H1 9564   0.506   5.702   1.157
 3186TIP3    H2 9565   0.367   5.698   1.097
 3187TIP3   OH2 9566   4.779   5.740   4.977
 3187TIP3    H1 9567   4.748   5.688   4.903
 3187TIP3    H2 9568   4.743   5.827   4.962
 3188TIP3   OH2 9569   3.979   0.167   5.159
 3188TIP3    H1 9570   3.939   0.111   5.226
 3188TIP3    H2 9571   3.952   0.129   5.076
 3189TIP3   OH2 9572   1.000   1.187   0.802
 3189TIP3    H1 9573   1.035   1.265   0.758
 3189TIP3    H2 9574   0.932   1.221   0.860
 3190TIP3   OH2 9575   4.916   0.662   3.756
 3190TIP3    H1 9576   4.857   0.647   3.682
 3190TIP3    H2 9577   4.862   0.645   3.833
 3191TIP3   OH2 9578   0.164   0.390   0.148
 3191TIP3    H1 9579   0.188   0.460   0.087
 3191TIP3    H2 9580   0.069   0.394   0.154
 3192TIP3   OH2 9581   5.048   0.576   2.403
 3192TIP3    H1 9582   4.994   0.502   2.374
 3192TIP3    H2 9583   5.011   0.652   2.359
 3193TIP3   OH2 9584   3.768   2.847   5.055
 3193TIP3    H1 9585   3.751   2.775   5.115
 3193TIP3    H2 9586   3.863   2.849   5.046
 3194TIP3   OH2 9587   1.239   0.961   4.211
 3194TIP3    H1 9588   1.306   0.969   4.144
 3194TIP3    H2 9589   1.288   0.953   4.293
 3195TIP3   OH2 9590   1.955   4.857   0.981
 3195TIP3    H1 9591   1.951   4.854   0.886
 3195TIP3    H2 9592   1.890   4.794   1.011
 3196TIP3   OH2 9593   5.179   4.741   4.927
 3196TIP3    H1 9594   5.272   4.762   4.926
 3196TIP3    H2 9595   5.149   4.761   4.838
 3197TIP3   OH2 9596   0.745   2.400   0.459
 3197TIP3    H1 9597   0.830   2.383   0.499
 3197TIP3    H2 9598   0.756   2.376   0.367
 3198TIP3   OH2 9599   1.499   2.840   2.165
 3198TIP3    H1 9600   1.516   2.760   2.214
 3198TIP3    H2 9601   1.584   2.868   2.133
 3199TIP3   OH2 9602   4.147   4.902   3.635
 3199TIP3    H1 9603   4.118   4.966   3.700
 3199TIP3    H2 9604   4.090   4.917   3.560
 3200TIP3   OH2 9605   4.159   2.257   3.232
 3200TIP3    H1 9606   4.184   2.275   3.323
 3200TIP3    H2 9607   4.174   2.340   3.187
 3201TIP3   OH2 9608   6.122   2.750   3.371
 3201TIP3    H1 9609   6.192   2.815   3.364
 3201TIP3    H2 9610   6.166   2.666   3.381
 3202TIP3   OH2 9611   5.525   5.281   2.278
 3202TIP3    H1 9612   5.504   5.368   2.314
 3202TIP3    H2 9613   5.445   5.231   2.290
 3203TIP3   OH2 9614   4.579   5.547   1.519
 3203TIP3    H1 9615   4.626   5.546   1.435
 3203TIP3    H2 9616   4.491   5.517   1.498
 3204TIP3   OH2 9617   4.043   1.363   3.931
 3204TIP3    H1 9618   4.137   1.380   3.935
 3204TIP3    H2 9619   4.016   1.355   4.023
 3205TIP3   OH2 9620   5.726   1.995   4.358
 3205TIP3    H1 9621   5.689   2.056   4.421
 3205TIP3    H2 9622   5.795   2.044   4.315
 3206TIP3   OH2 9623   5.224   5.042   3.585
 3206TIP3    H1 9624   5.317   5.062   3.589
 3206TIP3    H2 9625   5.221   4.947   3.575
 3207TIP3   OH2 9626   2.644   3.841   2.250
 3207TIP3    H1 9627   2.692   3.763   2.223
 3207TIP3    H2 9628   2.708   3.912   2.243
 3208TIP3   OH2 9629   4.648   5.227   0.236
 3208TIP3    H1 9630   4.742   5.229   0.252
 3208TIP3    H2 9631   4.639   5.206   0.143
 3209TIP3   OH2 9632   4.494   3.459   2.941
 3209TIP3    H1 9633   4.479   3.365   2.943
 3209TIP3    H2 9634   4.415   3.496   2.902
 3210TIP3   OH2 9635   0.064   1.693   2.000
 3210TIP3    H1 9636   0.064   1.777   2.046
 3210TIP3    H2 9637   0.153   1.684   1.965
 3211TIP3   OH2 9638   3.678   1.996   4.805
 3211TIP3    H1 9639   3.627   1.927   4.849
 3211TIP3    H2 9640   3.735   1.950   4.744
 3212TIP3   OH2 9641   1.678   1.158   1.185
 3212TIP3    H1 9642   1.584   1.174   1.192
 3212TIP3    H2 9643   1.719   1.236   1.223
 3213TIP3   OH2 9644   4.115   2.016   0.977
 3213TIP3    H1 9645   4.046   1.982   0.921
 3213TIP3    H2 9646   4.178   1.944   0.985
 3214TIP3   OH2 9647   6.129   1.409   5.060
 3214TIP3    H1 9648   6.078   1.342   5.106
 3214TIP3    H2 9649   6.065   1.453   5.003
 3215TIP3   OH2 9650   1.788   1.407   3.959
 3215TIP3    H1 9651   1.735   1.330   3.942
 3215TIP3    H2 9652   1.877   1.373   3.972
 3216TIP3   OH2 9653   1.156   1.694   4.419
 3216TIP3    H1 9654   1.194   1.692   4.331
 3216TIP3    H2 9655   1.231   1.689   4.478
 3217TIP3   OH2 9656   0.195   1.742   4.061
 3217TIP3    H1 9657   0.211   1.800   4.135
 3217TIP3    H2 9658   0.277   1.695   4.050
 3218TIP3   OH2 9659   3.318   5.868   1.021
 3218TIP3    H1 9660   3.266   5.880   0.941
 3218TIP3    H2 9661   3.347   5.777   1.017
 3219TIP3   OH2 9662   1.650   1.929   3.841
 3219TIP3    H1 9663   1.605   1.846   3.857
 3219TIP3    H2 9664   1.580   1.993   3.835
 3220TIP3   OH2 9665   5.770   2.916   2.254
 3220TIP3    H1 9666   5.830   2.915   2.329
 3220TIP3    H2 9667   5.692   2.872   2.286
 3221TIP3   OH2 9668   3.565   2.126   0.603
 3221TIP3    H1 9669   3.609   2.043   0.585
 3221TIP3    H2 9670   3.476   2.102   0.629
 3222TIP3   OH2 9671   3.865   5.362   1.612
 3222TIP3    H1 9672   3.890   5.395   1.698
 3222TIP3    H2 9673   3.771   5.380   1.606
 3223TIP3   OH2 9674   5.136   4.775   2.064
 3223TIP3    H1 9675   5.175   4.701   2.111
 3223TIP3    H2 9676   5.191   4.785   1.986
 3224TIP3   OH2 9677   1.157   2.767   0.257
 3224TIP3    H1 9678   1.063   2.759   0.277
 3224TIP3    H2 9679   1.168   2.720   0.174
 3225TIP3   OH2 9680   4.572   4.273   3.138
 3225TIP3    H1 9681   4.641   4.237   3.193
 3225TIP3    H2 9682   4.608   4.276   3.050
 3226TIP3   OH2 9683   4.761   5.677   1.728
 3226TIP3    H1 9684   4.810   5.756   1.705
 3226TIP3    H2 9685   4.826   5.618   1.766
 3227TIP3   OH2 9686   2.773   4.628   0.631
 3227TIP3    H1 9687   2.851   4.595   0.586
 3227TIP3    H2 9688   2.714   4.654   0.561
 3228TIP3   OH2 9689   1.714   4.200   3.452
 3228TIP3    H1 9690   1.746   4.161   3.370
 3228TIP3    H2 9691   1.786   4.258   3.480
 3229TIP3   OH2 9692   1.261   0.331   3.746
 3229TIP3    H1 9693   1.318   0.258   3.770
 3229TIP3    H2 9694   1.247   0.378   3.828
 3230TIP3   OH2 9695   2.540   5.117   1.006
 3230TIP3    H1 9696   2.632   5.144   0.998
 3230TIP3    H2 9697   2.509   5.111   0.916
 3231TIP3   OH2 9698   1.231   3.083   2.470
 3231TIP3    H1 9699   1.267   3.103   2.557
 3231TIP3    H2 9700   1.274   3.144   2.411
 3232TIP3   OH2 9701   0.710   5.566   0.687
 3232TIP3    H1 9702   0.616   5.548   0.690
 3232TIP3    H2 9703   0.717   5.654   0.650
 3233TIP3   OH2 9704   3.809   0.328   0.273
 3233TIP3    H1 9705   3.876   0.286   0.219
 3233TIP3    H2 9706   3.824   0.422   0.262
 3234TIP3   OH2 9707   0.758   5.184   0.623
 3234TIP3    H1 9708   0.689   5.119   0.612
 3234TIP3    H2 9709   0.743   5.248   0.553
 3235TIP3   OH2 9710   1.623   5.836   0.200
 3235TIP3    H1 9711   1.592   5.776   0.132
 3235TIP3    H2 9712   1.610   5.789   0.282
 3236TIP3   OH2 9713   2.213   3.127   2.466
 3236TIP3    H1 9714   2.301   3.144   2.498
 3236TIP3    H2 9715   2.175   3.214   2.453
 3237TIP3   OH2 9716   1.112   4.937   0.189
 3237TIP3    H1 9717   1.018   4.953   0.197
 3237TIP3    H2 9718   1.122   4.843   0.200
 3238TIP3   OH2 9719   3.876   2.795   0.442
 3238TIP3    H1 9720   3.833   2.709   0.445
 3238TIP3    H2 9721   3.964   2.779   0.476
 3239TIP3   OH2 9722   0.032   0.103   4.728
 3239TIP3    H1 9723   0.001   0.184   4.769
 3239TIP3    H2 9724   0.120   0.125   4.696
 3240TIP3   OH2 9725   1.942   3.118   2.778
 3240TIP3    H1 9726   1.968   3.078   2.695
 3240TIP3    H2 9727   1.930   3.211   2.757
 3241TIP3   OH2 9728   1.705   1.371   1.819
 3241TIP3    H1 9729   1.620   1.327   1.807
 3241TIP3    H2 9730   1.714   1.379   1.914
 3242TIP3   OH2 9731   5.123   4.780   4.287
 3242TIP3    H1 9732   5.056   4.822   4.340
 3242TIP3    H2 9733   5.106   4.811   4.198
 3243TIP3   OH2 9734   0.162   5.653   3.646
 3243TIP3    H1 9735   0.175   5.670   3.552
 3243TIP3    H2 9736   0.251   5.655   3.682
 3244TIP3   OH2 9737   1.627   5.031   1.941
 3244TIP3    H1 9738   1.707   5.083   1.934
 3244TIP3    H2 9739   1.581   5.068   2.016
 3245TIP3   OH2 9740   3.629   3.020   1.099
 3245TIP3    H1 9741   3.701   2.990   1.155
 3245TIP3    H2 9742   3.565   2.950   1.103
 3246TIP3   OH2 9743   2.255   2.459   3.236
 3246TIP3    H1 9744   2.348   2.467   3.212
 3246TIP3    H2 9745   2.208   2.485   3.157
 3247TIP3   OH2 9746   0.734   0.783   0.428
 3247TIP3    H1 9747   0.822   0.820   0.438
 3247TIP3    H2 9748   0.696   0.786   0.516
 3248TIP3   OH2 9749   0.318   5.488   4.892
 3248TIP3    H1 9750   0.336   5.489   4.986
 3248TIP3    H2 9751   0.401   5.465   4.852
 3249TIP3   OH2 9752   4.224   2.890   2.006
 3249TIP3    H1 9753   4.243   2.799   1.984
 3249TIP3    H2 9754   4.246   2.898   2.099
 3250TIP3   OH2 9755   5.214   2.197   4.195
 3250TIP3    H1 9756   5.266   2.269   4.159
 3250TIP3    H2 9757   5.277   2.126   4.208
 3251TIP3   OH2 9758   0.243   3.321   3.079
 3251TIP3    H1 9759   0.315   3.312   3.017
 3251TIP3    H2 9760   0.206   3.233   3.085
 3252TIP3   OH2 9761   3.458   1.271   4.659
 3252TIP3    H1 9762   3.488   1.293   4.747
 3252TIP3    H2 9763   3.511   1.328   4.602
 3253TIP3   OH2 9764   3.846   5.236   4.647
 3253TIP3    H1 9765   3.769   5.197   4.606
 3253TIP3    H2 9766   3.848   5.326   4.613
 3254TIP3   OH2 9767   4.226   4.290   4.717
 3254TIP3    H1 9768   4.257   4.199   4.712
 3254TIP3    H2 9769   4.299   4.341   4.681
 3255TIP3   OH2 9770   4.704   1.021   1.215
 3255TIP3    H1 9771   4.788   0.976   1.205
 3255TIP3    H2 9772   4.640   0.961   1.176
 3256TIP3   OH2 9773   3.828   1.633   0.847
 3256TIP3    H1 9774   3.734   1.644   0.861
 3256TIP3    H2 9775   3.855   1.711   0.800
 3257TIP3   OH2 9776   2.138   1.998   4.080
 3257TIP3    H1 9777   2.047   2.027   4.066
 3257TIP3    H2 9778   2.176   2.068   4.133
 3258TIP3   OH2 9779   2.523   0.410   1.139
 3258TIP3    H1 9780   2.450   0.362   1.098
 3258TIP3    H2 9781   2.536   0.485   1.081
 3259TIP3   OH2 9782   3.360   0.777   4.773
 3259TIP3    H1 9783   3.305   0.786   4.695
 3259TIP3    H2 9784   3.410   0.697   4.759
 3260TIP3   OH2 9785   0.710   0.347   4.639
 3260TIP3    H1 9786   0.771   0.359   4.712
 3260TIP3    H2 9787   0.701   0.253   4.630
 3261TIP3   OH2 9788   0.425   3.215   0.773
 3261TIP3    H1 9789   0.431   3.192   0.680
 3261TIP3    H2 9790   0.362   3.153   0.809
 3262TIP3   OH2 9791   1.943   2.422   3.493
 3262TIP3    H1 9792   1.854   2.443   3.523
 3262TIP3    H2 9793   1.968   2.346   3.545
 3263TIP3   OH2 9794   5.336   5.477   0.283
 3263TIP3    H1 9795   5.278   5.458   0.357
 3263TIP3    H2 9796   5.306   5.419   0.214
 3264TIP3   OH2 9797   1.875   5.367   0.953
 3264TIP3    H1 9798   1.827   5.352   0.872
 3264TIP3    H2 9799   1.855   5.457   0.978
 3265TIP3   OH2 9800   5.246   5.771   2.069
 3265TIP3    H1 9801   5.241   5.811   2.156
 3265TIP3    H2 9802   5.249   5.677   2.086
 3266TIP3   OH2 9803   1.811   3.509   2.946
 3266TIP3    H1 9804   1.795   3.490   3.038
 3266TIP3    H2 9805   1.780   3.599   2.935
 3267TIP3   OH2 9806   2.496   3.871   1.264
 3267TIP3    H1 9807   2.466   3.851   1.175
 3267TIP3    H2 9808   2.557   3.799   1.285
 3268TIP3   OH2 9809   2.744   4.918   1.162
 3268TIP3    H1 9810   2.687   4.927   1.238
 3268TIP3    H2 9811   2.811   4.985   1.174
 3269TIP3   OH2 9812   5.943   2.396   4.056
 3269TIP3    H1 9813   5.944   2.416   3.963
 3269TIP3    H2 9814   5.949   2.301   4.060
 3270TIP3   OH2 9815   4.954   0.882   4.947
 3270TIP3    H1 9816   4.936   0.896   5.040
 3270TIP3    H2 9817   4.985   0.791   4.942
 3271TIP3   OH2 9818   0.589   5.325  -0.001
 3271TIP3    H1 9819   0.674   5.299   0.036
 3271TIP3    H2 9820   0.551   5.243  -0.033
 3272TIP3   OH2 9821   1.755   0.506   3.461
 3272TIP3    H1 9822   1.666   0.472   3.473
 3272TIP3    H2 9823   1.811   0.445   3.508
 3273TIP3   OH2 9824   4.954   3.451   0.076
 3273TIP3    H1 9825   4.970   3.474  -0.016
 3273TIP3    H2 9826   4.860   3.434   0.080
 3274TIP3   OH2 9827   6.000   3.516   0.833
 3274TIP3    H1 9828   5.952   3.462   0.896
 3274TIP3    H2 9829   6.010   3.460   0.756
 3275TIP3   OH2 9830   0.496   2.565   0.290
 3275TIP3    H1 9831   0.540   2.482   0.275
 3275TIP3    H2 9832   0.474   2.598   0.203
 3276TIP3   OH2 9833   3.114   4.300   0.717
 3276TIP3    H1 9834   3.049   4.339   0.659
 3276TIP3    H2 9835   3.079   4.315   0.805
 3277TIP3   OH2 9836   4.557   1.917   0.874
 3277TIP3    H1 9837   4.584   1.995   0.923
 3277TIP3    H2 9838   4.532   1.951   0.788
 3278TIP3   OH2 9839   2.406   4.501   0.504
 3278TIP3    H1 9840   2.432   4.518   0.595
 3278TIP3    H2 9841   2.322   4.546   0.495
 3279TIP3   OH2 9842   4.635   1.588   2.852
 3279TIP3    H1 9843   4.640   1.675   2.893
 3279TIP3    H2 9844   4.653   1.527   2.924
 3280TIP3   OH2 9845   5.759   4.561   2.239
 3280TIP3    H1 9846   5.795   4.595   2.157
 3280TIP3    H2 9847   5.817   4.488   2.262
 3281TIP3   OH2 9848   5.359   4.361   4.529
 3281TIP3    H1 9849   5.448   4.395   4.526
 3281TIP3    H2 9850   5.330   4.378   4.619
 3282TIP3   OH2 9851   2.823   0.623   4.591
 3282TIP3    H1 9852   2.765   0.632   4.666
 3282TIP3    H2 9853   2.765   0.604   4.517
 3283TIP3   OH2 9854   1.039   2.919   4.599
 3283TIP3    H1 9855   1.081   2.959   4.676
 3283TIP3    H2 9856   0.975   2.858   4.636
 3284TIP3   OH2 9857   3.175   4.684   0.096
 3284TIP3    H1 9858   3.152   4.766   0.052
 3284TIP3    H2 9859   3.172   4.618   0.028
 3285TIP3   OH2 9860   3.994   4.353   1.720
 3285TIP3    H1 9861   3.909   4.378   1.682
 3285TIP3    H2 9862   4.051   4.428   1.701
 3286TIP3   OH2 9863   6.203   4.211   0.474
 3286TIP3    H1 9864   6.243   4.124   0.478
 3286TIP3    H2 9865   6.263   4.263   0.420
 3287TIP3   OH2 9866   1.808   3.467   2.419
 3287TIP3    H1 9867   1.785   3.558   2.406
 3287TIP3    H2 9868   1.755   3.439   2.494
 3288TIP3   OH2 9869   1.302   2.892   2.903
 3288TIP3    H1 9870   1.221   2.910   2.949
 3288TIP3    H2 9871   1.370   2.895   2.970
 3289TIP3   OH2 9872   0.678   5.581   2.307
 3289TIP3    H1 9873   0.756   5.604   2.257
 3289TIP3    H2 9874   0.617   5.653   2.291
 3290TIP3   OH2 9875   5.302   0.072   3.902
 3290TIP3    H1 9876   5.222   0.035   3.939
 3290TIP3    H2 9877   5.280   0.088   3.810
 3291TIP3   OH2 9878   6.268   1.892   4.767
 3291TIP3    H1 9879   6.295   1.961   4.706
 3291TIP3    H2 9880   6.294   1.925   4.853
 3292TIP3   OH2 9881   1.141   5.578   2.775
 3292TIP3    H1 9882   1.066   5.522   2.757
 3292TIP3    H2 9883   1.108   5.645   2.835
 3293TIP3   OH2 9884   3.851   3.997   2.135
 3293TIP3    H1 9885   3.835   4.000   2.041
 3293TIP3    H2 9886   3.765   4.010   2.175
 3294TIP3   OH2 9887   0.426   1.779   2.190
 3294TIP3    H1 9888   0.444   1.873   2.181
 3294TIP3    H2 9889   0.454   1.742   2.106
 3295TIP3   OH2 9890   1.711   5.002   1.149
 3295TIP3    H1 9891   1.636   4.944   1.157
 3295TIP3    H2 9892   1.710   5.031   1.058
 3296TIP3   OH2 9893   5.771   2.615   2.928
 3296TIP3    H1 9894   5.848   2.605   2.984
 3296TIP3    H2 9895   5.718   2.681   2.971
 3297TIP3   OH2 9896   0.262   2.813   2.009
 3297TIP3    H1 9897   0.284   2.723   1.986
 3297TIP3    H2 9898   0.271   2.862   1.927
 3298TIP3   OH2 9899   2.125   1.930   4.755
 3298TIP3    H1 9900   2.124   1.835   4.756
 3298TIP3    H2 9901   2.069   1.954   4.681
 3299TIP3   OH2 9902   1.867   5.555   2.455
 3299TIP3    H1 9903   1.796   5.612   2.424
 3299TIP3    H2 9904   1.868   5.568   2.550
 3300TIP3   OH2 9905   1.069   1.743   0.473
 3300TIP3    H1 9906   1.129   1.809   0.439
 3300TIP3    H2 9907   1.005   1.730   0.403
 3301TIP3   OH2 9908   0.917   4.813   0.000
 3301TIP3    H1 9909   1.006   4.778  -0.007
 3301TIP3    H2 9910   0.890   4.794   0.090
 3302TIP3   OH2 9911   0.461   4.959   3.140
 3302TIP3    H1 9912   0.540   4.917   3.105
 3302TIP3    H2 9913   0.390   4.897   3.122
 3303TIP3   OH2 9914   0.928   3.164   0.858
 3303TIP3    H1 9915   0.992   3.100   0.888
 3303TIP3    H2 9916   0.923   3.150   0.763
 3304TIP3   OH2 9917   5.299   2.505   0.275
 3304TIP3    H1 9918   5.219   2.516   0.224
 3304TIP3    H2 9919   5.370   2.525   0.214
 3305TIP3   OH2 9920   1.256   5.419   3.967
 3305TIP3    H1 9921   1.231   5.349   4.027
 3305TIP3    H2 9922   1.179   5.432   3.912
 3306TIP3   OH2 9923   4.012   4.268   4.118
 3306TIP3    H1 9924   4.020   4.225   4.033
 3306TIP3    H2 9925   4.086   4.234   4.169
 3307TIP3   OH2 9926   4.334   4.306   1.261
 3307TIP3    H1 9927   4.288   4.223   1.278
 3307TIP3    H2 9928   4.286   4.346   1.189
 3308TIP3   OH2 9929   4.254   5.714   2.609
 3308TIP3    H1 9930   4.346   5.717   2.635
 3308TIP3    H2 9931   4.234   5.621   2.602
 3309TIP3   OH2 9932   5.177   3.063   1.471
 3309TIP3    H1 9933   5.179   3.158   1.471
 3309TIP3    H2 9934   5.266   3.037   1.446
 3310TIP3   OH2 9935   4.889   4.074   4.857
 3310TIP3    H1 9936   4.961   4.129   4.889
 3310TIP3    H2 9937   4.899   4.073   4.762
 3311TIP3   OH2 9938   6.357   2.116   4.624
 3311TIP3    H1 9939   6.351   2.207   4.652
 3311TIP3    H2 9940   6.319   2.115   4.536
 3312TIP3   OH2 9941   0.914   2.816   0.300
 3312TIP3    H1 9942   0.876   2.794   0.215
 3312TIP3    H2 9943   0.855   2.776   0.364
 3313TIP3   OH2 9944   0.757   3.438   4.598
 3313TIP3    H1 9945   0.805   3.356   4.611
 3313TIP3    H2 9946   0.816   3.492   4.545
 3314TIP3   OH2 9947   5.531   1.388   4.969
 3314TIP3    H1 9948   5.489   1.350   4.891
 3314TIP3    H2 9949   5.458   1.409   5.027
 3315TIP3   OH2 9950   1.410   5.116   0.481
 3315TIP3    H1 9951   1.408   5.203   0.521
 3315TIP3    H2 9952   1.495   5.111   0.439
 3316TIP3   OH2 9953   5.145   5.532   3.448
 3316TIP3    H1 9954   5.141   5.442   3.481
 3316TIP3    H2 9955   5.071   5.576   3.489
 3317TIP3   OH2 9956   4.885   2.131   3.479
 3317TIP3    H1 9957   4.934   2.099   3.555
 3317TIP3    H2 9958   4.796   2.098   3.492
 3318TIP3   OH2 9959   1.463   3.721   3.530
 3318TIP3    H1 9960   1.407   3.713   3.607
 3318TIP3    H2 9961   1.522   3.646   3.535
 3319TIP3   OH2 9962   4.152   5.160   2.008
 3319TIP3    H1 9963   4.077   5.179   2.065
 3319TIP3    H2 9964   4.181   5.073   2.036
 3320TIP3   OH2 9965   0.375   2.876   0.361
 3320TIP3    H1 9966   0.351   2.805   0.421
 3320TIP3    H2 9967   0.343   2.847   0.276
 3321TIP3   OH2 9968   5.999   5.795   1.655
 3321TIP3    H1 9969   6.034   5.715   1.616
 3321TIP3    H2 9970   5.958   5.767   1.737
 3322TIP3   OH2 9971   0.597   2.582   3.902
 3322TIP3    H1 9972   0.687   2.557   3.884
 3322TIP3    H2 9973   0.560   2.602   3.816
 3323TIP3   OH2 9974   0.160   2.831   0.919
 3323TIP3    H1 9975   0.113   2.772   0.978
 3323TIP3    H2 9976   0.132   2.803   0.831
 3324TIP3   OH2 9977   3.986   4.524   2.914
 3324TIP3    H1 9978   3.928   4.546   2.987
 3324TIP3    H2 9979   3.937   4.462   2.861
 3325TIP3   OH2 9980   5.356   3.739   0.816
 3325TIP3    H1 9981   5.447   3.715   0.800
 3325TIP3    H2 9982   5.305   3.679   0.761
 3326TIP3   OH2 9983   4.286   2.354   0.703
 3326TIP3    H1 9984   4.283   2.270   0.658
 3326TIP3    H2 9985   4.195   2.380   0.714
 3327TIP3   OH2 9986   6.076   2.696   1.223
 3327TIP3    H1 9987   6.083   2.604   1.247
 3327TIP3    H2 9988   6.042   2.739   1.301
 3328TIP3   OH2 9989   4.904   0.791   1.989
 3328TIP3    H1 9990   4.906   0.885   2.005
 3328TIP3    H2 9991   4.838   0.780   1.920
 3329TIP3   OH2 9992   3.996   0.111   2.233
 3329TIP3    H1 9993   3.932   0.106   2.162
 3329TIP3    H2 9994   3.962   0.179   2.292
 3330TIP3   OH2 9995   4.583   0.232   3.662
 3330TIP3    H1 9996   4.593   0.285   3.741
 3330TIP3    H2 9997   4.609   0.144   3.688
 3331TIP3   OH2 9998   1.919   3.803   0.092
 3331TIP3    H1 9999   1.965   3.728   0.130
 3331TIP3    H210000   1.928   3.793  -0.002
 3332TIP3   OH210001   1.749   2.902   1.342
 3332TIP3    H110002   1.709   2.822   1.308
 3332TIP3    H210003   1.693   2.973   1.311
 3333TIP3   OH210004   2.633   4.172   4.826
 3333TIP3    H110005   2.621   4.108   4.896
 3333TIP3    H210006   2.670   4.121   4.754
 3334TIP3   OH210007   5.360   5.887   0.708
 3334TIP3    H110008   5.447   5.852   0.723
 3334TIP3    H210009   5.367   5.980   0.734
 3335TIP3   OH210010   5.881   3.353   2.277
 3335TIP3    H110011   5.940   3.309   2.215
 3335TIP3    H210012   5.939   3.380   2.349
 3336TIP3   OH210013   6.305   1.129   0.882
 3336TIP3    H110014   6.256   1.093   0.808
 3336TIP3    H210015   6.240   1.177   0.933
 3337TIP3   OH210016   4.573   3.887   2.281
 3337TIP3    H110017   4.511   3.855   2.346
 3337TIP3    H210018   4.521   3.901   2.202
 3338TIP3   OH210019   6.021   0.489   1.336
 3338TIP3    H110020   5.928   0.510   1.329
 3338TIP3    H210021   6.040   0.438   1.257
 3339TIP3   OH210022   2.343   0.284   3.611
 3339TIP3    H110023   2.284   0.281   3.535
 3339TIP3    H210024   2.423   0.323   3.577
 3340TIP3   OH210025   2.392   5.328   0.085
 3340TIP3    H110026   2.418   5.330   0.177
 3340TIP3    H210027   2.431   5.248   0.051
 3341TIP3   OH210028   1.407   1.582   0.384
 3341TIP3    H110029   1.404   1.514   0.451
 3341TIP3    H210030   1.332   1.563   0.327
 3342TIP3   OH210031   0.202   0.055   1.726
 3342TIP3    H110032   0.110   0.078   1.738
 3342TIP3    H210033   0.242   0.133   1.688
 3343TIP3   OH210034   5.229   5.198   0.735
 3343TIP3    H110035   5.209   5.160   0.649
 3343TIP3    H210036   5.201   5.132   0.798
 3344TIP3   OH210037   5.277   1.954   0.357
 3344TIP3    H110038   5.324   1.988   0.433
 3344TIP3    H210039   5.222   2.027   0.329
 3345TIP3   OH210040   0.962   3.791   3.619
 3345TIP3    H110041   0.952   3.786   3.524
 3345TIP3    H210042   1.019   3.717   3.641
 3346TIP3   OH210043   4.209   2.862   2.542
 3346TIP3    H110044   4.170   2.862   2.629
 3346TIP3    H210045   4.261   2.782   2.539
 3347TIP3   OH210046   6.302   2.191   3.958
 3347TIP3    H110047   6.241   2.207   3.886
 3347TIP3    H210048   6.388   2.187   3.916
 3348TIP3   OH210049   2.045   4.165   4.940
 3348TIP3    H110050   2.064   4.111   5.017
 3348TIP3    H210051   1.970   4.122   4.898
 3349TIP3   OH210052   5.952   4.755   5.076
 3349TIP3    H110053   5.954   4.675   5.025
 3349TIP3    H210054   5.860   4.783   5.074
 3350TIP3   OH210055   0.817  -0.018   4.521
 3350TIP3    H110056   0.830  -0.050   4.610
 3350TIP3    H210057   0.870   0.061   4.515
 3351TIP3   OH210058   0.555   5.053   4.984
 3351TIP3    H110059   0.555   5.118   4.914
 3351TIP3    H210060   0.645   5.050   5.014
 3352TIP3   OH210061   2.164   2.565   3.513
 3352TIP3    H110062   2.220   2.541   3.439
 3352TIP3    H210063   2.095   2.499   3.513
 3353TIP3   OH210064   2.339   3.448   3.613
 3353TIP3    H110065   2.289   3.433   3.533
 3353TIP3    H210066   2.275   3.484   3.675
 3354TIP3   OH210067   3.035   0.860   2.329
 3354TIP3    H110068   3.036   0.860   2.233
 3354TIP3    H210069   3.112   0.912   2.353
 3355TIP3   OH210070   3.853   5.973   3.488
 3355TIP3    H110071   3.841   5.918   3.565
 3355TIP3    H210072   3.770   6.019   3.478
 3356TIP3   OH210073   5.103   1.537   3.673
 3356TIP3    H110074   5.193   1.521   3.646
 3356TIP3    H210075   5.057   1.457   3.648
 3357TIP3   OH210076   0.302   5.811   3.174
 3357TIP3    H110077   0.365   5.743   3.195
 3357TIP3    H210078   0.356   5.888   3.155
 3358TIP3   OH210079   1.486   4.219   4.053
 3358TIP3    H110080   1.449   4.243   4.138
 3358TIP3    H210081   1.506   4.303   4.012
 3359TIP3   OH210082   2.153   1.448   3.412
 3359TIP3    H110083   2.185   1.397   3.338
 3359TIP3    H210084   2.225   1.447   3.475
 3360TIP3   OH210085   1.706   4.592   0.095
 3360TIP3    H110086   1.756   4.511   0.107
 3360TIP3    H210087   1.634   4.567   0.038
 3361TIP3   OH210088   4.279   0.172   1.237
 3361TIP3    H110089   4.260   0.188   1.329
 3361TIP3    H210090   4.231   0.241   1.191
 3362TIP3   OH210091   0.379   4.894   0.644
 3362TIP3    H110092   0.425   4.884   0.727
 3362TIP3    H210093   0.435   4.951   0.592
 3363TIP3   OH210094   0.331   5.766   0.405
 3363TIP3    H110095   0.312   5.858   0.386
 3363TIP3    H210096   0.380   5.735   0.328
 3364TIP3   OH210097   1.847   0.311   3.613
 3364TIP3    H110098   1.920   0.296   3.674
 3364TIP3    H210099   1.768   0.303   3.667
 3365TIP3   OH210100   3.216   4.128   4.235
 3365TIP3    H110101   3.151   4.191   4.204
 3365TIP3    H210102   3.171   4.082   4.306
 3366TIP3   OH210103   0.356   5.487   4.581
 3366TIP3    H110104   0.266   5.468   4.555
 3366TIP3    H210105   0.347   5.560   4.643
 3367TIP3   OH210106   0.669   4.349   3.262
 3367TIP3    H110107   0.655   4.444   3.257
 3367TIP3    H210108   0.682   4.331   3.355
 3368TIP3   OH210109   6.144   5.416   2.216
 3368TIP3    H110110   6.146   5.486   2.151
 3368TIP3    H210111   6.052   5.412   2.244
 3369TIP3   OH210112   5.534   2.700   2.670
 3369TIP3    H110113   5.523   2.734   2.758
 3369TIP3    H210114   5.577   2.615   2.681
 3370TIP3   OH210115   3.865   5.846   3.767
 3370TIP3    H110116   3.773   5.843   3.791
 3370TIP3    H210117   3.911   5.864   3.850
 3371TIP3   OH210118   3.288   5.440   0.117
 3371TIP3    H110119   3.217   5.397   0.165
 3371TIP3    H210120   3.271   5.417   0.025
 3372TIP3   OH210121   6.191   4.836   2.127
 3372TIP3    H110122   6.274   4.883   2.136
 3372TIP3    H210123   6.178   4.827   2.033
 3373TIP3   OH210124   5.579   2.016   2.695
 3373TIP3    H110125   5.662   1.970   2.696
 3373TIP3    H210126   5.514   1.948   2.679
 3374TIP3   OH210127   4.293   5.276   2.453
 3374TIP3    H110128   4.216   5.220   2.445
 3374TIP3    H210129   4.359   5.233   2.398
 3375TIP3   OH210130   4.178   2.424   2.838
 3375TIP3    H110131   4.135   2.344   2.869
 3375TIP3    H210132   4.257   2.394   2.794
 3376TIP3   OH210133   2.096   0.374   2.853
 3376TIP3    H110134   2.098   0.301   2.791
 3376TIP3    H210135   2.055   0.446   2.805
 3377TIP3   OH210136   6.135   1.148   0.666
 3377TIP3    H110137   6.079   1.219   0.697
 3377TIP3    H210138   6.116   1.143   0.572
 3378TIP3   OH210139   4.839   1.361   0.959
 3378TIP3    H110140   4.928   1.396   0.959
 3378TIP3    H210141   4.814   1.359   1.052
 3379TIP3   OH210142   4.064   4.135   0.401
 3379TIP3    H110143   3.988   4.174   0.358
 3379TIP3    H210144   4.052   4.040   0.390
 3380TIP3   OH210145   2.776   3.267   0.970
 3380TIP3    H110146   2.769   3.360   0.950
 3380TIP3    H210147   2.851   3.237   0.920
 3381TIP3   OH210148   6.265   1.448   0.826
 3381TIP3    H110149   6.197   1.514   0.842
 3381TIP3    H210150   6.231   1.368   0.867
 3382TIP3   OH210151   3.489   5.264   4.085
 3382TIP3    H110152   3.400   5.289   4.112
 3382TIP3    H210153   3.489   5.274   3.990
 3383TIP3   OH210154   1.254   4.438   3.698
 3383TIP3    H110155   1.207   4.357   3.682
 3383TIP3    H210156   1.328   4.436   3.637
 3384TIP3   OH210157   1.953   4.129   3.866
 3384TIP3    H110158   1.891   4.073   3.911
 3384TIP3    H210159   1.938   4.216   3.903
 3385TIP3   OH210160   1.730   2.422   4.875
 3385TIP3    H110161   1.700   2.404   4.964
 3385TIP3    H210162   1.703   2.346   4.824
 3386TIP3   OH210163   5.870   3.572   0.007
 3386TIP3    H110164   5.907   3.488   0.031
 3386TIP3    H210165   5.851   3.565  -0.086
 3387TIP3   OH210166   6.135   0.394   0.544
 3387TIP3    H110167   6.084   0.327   0.591
 3387TIP3    H210168   6.207   0.345   0.504
 3388TIP3   OH210169   1.350   4.472   0.611
 3388TIP3    H110170   1.314   4.475   0.699
 3388TIP3    H210171   1.338   4.382   0.583
 3389TIP3   OH210172   3.465   3.878   4.714
 3389TIP3    H110173   3.546   3.836   4.686
 3389TIP3    H210174   3.468   3.875   4.810
 3390TIP3   OH210175   1.497   5.190   2.805
 3390TIP3    H110176   1.462   5.203   2.717
 3390TIP3    H210177   1.566   5.124   2.795
 3391TIP3   OH210178   2.780   5.706   2.708
 3391TIP3    H110179   2.685   5.700   2.709
 3391TIP3    H210180   2.800   5.764   2.635
 3392TIP3   OH210181   4.271   5.525   3.162
 3392TIP3    H110182   4.236   5.521   3.251
 3392TIP3    H210183   4.197   5.555   3.109
 3393TIP3   OH210184   4.860   5.388   0.482
 3393TIP3    H110185   4.926   5.339   0.432
 3393TIP3    H210186   4.805   5.428   0.416
 3394TIP3   OH210187   0.047   2.301   1.626
 3394TIP3    H110188   0.026   2.360   1.554
 3394TIP3    H210189  -0.032   2.299   1.680
 3395TIP3   OH210190   3.450   0.967   4.298
 3395TIP3    H110191   3.407   0.988   4.381
 3395TIP3    H210192   3.535   0.930   4.323
 3396TIP3   OH210193   6.043   0.009   2.704
 3396TIP3    H110194   6.049   0.074   2.634
 3396TIP3    H210195   5.949   0.004   2.724
 3397TIP3   OH210196   2.746   5.455   4.481
 3397TIP3    H110197   2.717   5.522   4.419
 3397TIP3    H210198   2.685   5.462   4.554
 3398TIP3   OH210199   2.481   2.912   5.122
 3398TIP3    H110200   2.570   2.918   5.155
 3398TIP3    H210201   2.451   3.003   5.114
 3399TIP3   OH210202   6.266   1.376   3.760
 3399TIP3    H110203   6.237   1.464   3.736
 3399TIP3    H210204   6.353   1.388   3.796
 3400TIP3   OH210205   5.020   2.662   4.554
 3400TIP3    H110206   4.935   2.643   4.594
 3400TIP3    H210207   4.999   2.719   4.480
 3401TIP3   OH210208   3.955   4.069   0.080
 3401TIP3    H110209   4.010   4.056   0.004
 3401TIP3    H210210   3.978   4.155   0.113
 3402TIP3   OH210211   3.872   0.741   3.385
 3402TIP3    H110212   3.895   0.653   3.355
 3402TIP3    H210213   3.917   0.750   3.469
 3403TIP3   OH210214   3.015   0.782   4.072
 3403TIP3    H110215   3.086   0.741   4.120
 3403TIP3    H210216   2.945   0.793   4.137
 3404TIP3   OH210217   4.588   4.079   4.494
 3404TIP3    H110218   4.583   4.114   4.583
 3404TIP3    H210219   4.675   4.105   4.463
 3405TIP3   OH210220   2.389   4.469   1.614
 3405TIP3    H110221   2.433   4.476   1.699
 3405TIP3    H210222   2.375   4.375   1.603
 3406TIP3   OH210223   5.327   4.086   1.619
 3406TIP3    H110224   5.291   4.120   1.537
 3406TIP3    H210225   5.279   4.005   1.635
 3407TIP3   OH210226   3.925   4.910   1.845
 3407TIP3    H110227   3.941   4.823   1.880
 3407TIP3    H210228   3.943   4.969   1.919
 3408TIP3   OH210229   5.937   3.709   1.792
 3408TIP3    H110230   5.888   3.703   1.874
 3408TIP3    H210231   5.921   3.626   1.748
 3409TIP3   OH210232   2.532   4.316   3.275
 3409TIP3    H110233   2.553   4.390   3.217
 3409TIP3    H210234   2.535   4.239   3.219
 3410TIP3   OH210235   3.518   1.293   4.916
 3410TIP3    H110236   3.587   1.237   4.951
 3410TIP3    H210237   3.438   1.260   4.957
 3411TIP3   OH210238   0.303   4.247   4.400
 3411TIP3    H110239   0.393   4.278   4.411
 3411TIP3    H210240   0.251   4.306   4.455
 3412TIP3   OH210241   0.303   3.674   2.392
 3412TIP3    H110242   0.216   3.665   2.353
 3412TIP3    H210243   0.288   3.722   2.473
 3413TIP3   OH210244   3.154   4.316   5.066
 3413TIP3    H110245   3.135   4.409   5.081
 3413TIP3    H210246   3.087   4.288   5.003
 3414TIP3   OH210247   4.944   5.390   4.179
 3414TIP3    H110248   4.864   5.415   4.133
 3414TIP3    H210249   5.015   5.406   4.116
 3415TIP3   OH210250   4.613   2.098   2.964
 3415TIP3    H110251   4.588   2.006   2.970
 3415TIP3    H210252   4.706   2.099   2.988
 3416TIP3   OH210253   1.974   2.781   2.164
 3416TIP3    H110254   1.963   2.820   2.077
 3416TIP3    H210255   2.002   2.691   2.147
 3417TIP3   OH210256   4.965   1.452   1.774
 3417TIP3    H110257   5.059   1.458   1.755
 3417TIP3    H210258   4.923   1.472   1.690
 3418TIP3   OH210259   3.136   5.024   1.594
 3418TIP3    H110260   3.050   5.007   1.556
 3418TIP3    H210261   3.133   5.116   1.618
 3419TIP3   OH210262   1.594   3.017   2.446
 3419TIP3    H110263   1.650   2.944   2.418
 3419TIP3    H210264   1.566   2.993   2.534
 3420TIP3   OH210265   1.130   1.563   2.376
 3420TIP3    H110266   1.035   1.564   2.385
 3420TIP3    H210267   1.163   1.577   2.465
 3421TIP3   OH210268   1.802   2.118   0.992
 3421TIP3    H110269   1.752   2.175   1.050
 3421TIP3    H210270   1.877   2.172   0.964
 3422TIP3   OH210271   5.005   3.267   1.188
 3422TIP3    H110272   4.981   3.241   1.099
 3422TIP3    H210273   5.066   3.340   1.176
 3423TIP3   OH210274   1.771   3.225   0.182
 3423TIP3    H110275   1.687   3.196   0.148
 3423TIP3    H210276   1.762   3.319   0.191
 3424TIP3   OH210277   6.068   3.562   4.887
 3424TIP3    H110278   6.011   3.620   4.836
 3424TIP3    H210279   6.088   3.612   4.966
 3425TIP3   OH210280   1.330   3.697   1.779
 3425TIP3    H110281   1.304   3.777   1.732
 3425TIP3    H210282   1.378   3.646   1.715
 3426TIP3   OH210283   3.838   1.419   0.374
 3426TIP3    H110284   3.859   1.439   0.283
 3426TIP3    H210285   3.822   1.325   0.375
 3427TIP3   OH210286   4.938   3.751   1.462
 3427TIP3    H110287   4.971   3.673   1.506
 3427TIP3    H210288   4.938   3.729   1.369
 3428TIP3   OH210289   1.332   1.729   2.258
 3428TIP3    H110290   1.393   1.780   2.311
 3428TIP3    H210291   1.297   1.664   2.319
 3429TIP3   OH210292   4.118   2.012   0.190
 3429TIP3    H110293   4.172   2.090   0.200
 3429TIP3    H210294   4.081   2.019   0.102
 3430TIP3   OH210295   3.787   1.516   2.873
 3430TIP3    H110296   3.727   1.490   2.942
 3430TIP3    H210297   3.873   1.517   2.915
 3431TIP3   OH210298   4.988   1.501   0.685
 3431TIP3    H110299   4.979   1.528   0.594
 3431TIP3    H210300   5.073   1.457   0.688
 3432TIP3   OH210301   1.473   5.186   3.298
 3432TIP3    H110302   1.466   5.261   3.358
 3432TIP3    H210303   1.488   5.111   3.356
 3433TIP3   OH210304   4.952   5.769   2.121
 3433TIP3    H110305   5.043   5.761   2.091
 3433TIP3    H210306   4.958   5.763   2.216
 3434TIP3   OH210307   2.926   3.355   3.207
 3434TIP3    H110308   3.011   3.313   3.215
 3434TIP3    H210309   2.876   3.323   3.282
 3435TIP3   OH210310   1.931   5.068   2.803
 3435TIP3    H110311   1.944   5.136   2.869
 3435TIP3    H210312   1.884   4.998   2.849
 3436TIP3   OH210313   5.921   2.711   0.363
 3436TIP3    H110314   5.972   2.733   0.440
 3436TIP3    H210315   5.887   2.794   0.331
 3437TIP3   OH210316   2.232   4.356   3.242
 3437TIP3    H110317   2.188   4.404   3.172
 3437TIP3    H210318   2.287   4.292   3.197
 3438TIP3   OH210319   4.408   5.689   0.270
 3438TIP3    H110320   4.343   5.745   0.227
 3438TIP3    H210321   4.367   5.602   0.272
 3439TIP3   OH210322   4.043   5.586   1.385
 3439TIP3    H110323   4.013   5.598   1.475
 3439TIP3    H210324   3.963   5.581   1.333
 3440TIP3   OH210325   5.234   2.336   3.213
 3440TIP3    H110326   5.151   2.289   3.219
 3440TIP3    H210327   5.270   2.333   3.302
 3441TIP3   OH210328   6.188   5.888   4.871
 3441TIP3    H110329   6.143   5.931   4.944
 3441TIP3    H210330   6.279   5.914   4.880
 3442TIP3   OH210331   0.086   4.647   3.980
 3442TIP3    H110332   0.090   4.737   3.949
 3442TIP3    H210333   0.149   4.600   3.926
 3443TIP3   OH210334   4.329   3.639   2.816
 3443TIP3    H110335   4.273   3.682   2.881
 3443TIP3    H210336   4.403   3.698   2.804
 3444TIP3   OH210337   1.799   3.075   3.820
 3444TIP3    H110338   1.839   3.156   3.852
 3444TIP3    H210339   1.850   3.005   3.862
 3445TIP3   OH210340   0.682   2.968   5.053
 3445TIP3    H110341   0.588   2.966   5.032
 3445TIP3    H210342   0.687   2.929   5.140
 3446TIP3   OH210343   3.523   0.095   4.449
 3446TIP3    H110344   3.464   0.160   4.487
 3446TIP3    H210345   3.481   0.070   4.366
 3447TIP3   OH210346   3.148   2.244   1.389
 3447TIP3    H110347   3.153   2.339   1.373
 3447TIP3    H210348   3.209   2.229   1.461
 3448TIP3   OH210349   1.176   3.329   3.189
 3448TIP3    H110350   1.204   3.249   3.232
 3448TIP3    H210351   1.116   3.300   3.121
 3449TIP3   OH210352   0.192   5.357   2.129
 3449TIP3    H110353   0.136   5.329   2.056
 3449TIP3    H210354   0.258   5.412   2.088
 3450TIP3   OH210355   5.789   1.034   2.561
 3450TIP3    H110356   5.866   1.087   2.580
 3450TIP3    H210357   5.815   0.979   2.487
 3451TIP3   OH210358   6.176   3.763   1.202
 3451TIP3    H110359   6.263   3.747   1.167
 3451TIP3    H210360   6.190   3.791   1.292
 3452TIP3   OH210361   5.316   3.788   0.064
 3452TIP3    H110362   5.291   3.853   0.130
 3452TIP3    H210363   5.309   3.704   0.109
 3453TIP3   OH210364   3.376   3.260   1.862
 3453TIP3    H110365   3.344   3.180   1.821
 3453TIP3    H210366   3.441   3.230   1.926
 3454TIP3   OH210367   5.237   1.358   2.646
 3454TIP3    H110368   5.215   1.265   2.648
 3454TIP3    H210369   5.303   1.369   2.715
 3455TIP3   OH210370   4.546   4.617   0.467
 3455TIP3    H110371   4.493   4.646   0.541
 3455TIP3    H210372   4.609   4.556   0.504
 3456TIP3   OH210373   0.227   3.967   4.640
 3456TIP3    H110374   0.264   3.881   4.619
 3456TIP3    H210375   0.279   4.029   4.588
 3457TIP3   OH210376   0.018   1.578   3.595
 3457TIP3    H110377   0.035   1.672   3.584
 3457TIP3    H210378   0.104   1.540   3.612
 3458TIP3   OH210379   3.584   1.328   2.462
 3458TIP3    H110380   3.544   1.343   2.547
 3458TIP3    H210381   3.613   1.237   2.464
 3459TIP3   OH210382   5.250   2.254   1.825
 3459TIP3    H110383   5.188   2.183   1.838
 3459TIP3    H210384   5.252   2.300   1.909
 3460TIP3   OH210385   1.037   2.990   4.202
 3460TIP3    H110386   1.073   2.916   4.252
 3460TIP3    H210387   1.094   2.997   4.125
 3461TIP3   OH210388   4.098   5.294   2.831
 3461TIP3    H110389   4.043   5.256   2.762
 3461TIP3    H210390   4.138   5.219   2.874
 3462TIP3   OH210391   3.148   4.230   4.681
 3462TIP3    H110392   3.127   4.274   4.763
 3462TIP3    H210393   3.242   4.241   4.670
 3463TIP3   OH210394   3.772   1.379   1.938
 3463TIP3    H110395   3.750   1.291   1.908
 3463TIP3    H210396   3.863   1.372   1.968
 3464TIP3   OH210397   0.471   2.527   2.928
 3464TIP3    H110398   0.521   2.587   2.984
 3464TIP3    H210399   0.441   2.458   2.988
 3465TIP3   OH210400   0.773   1.998   4.480
 3465TIP3    H110401   0.747   2.046   4.401
 3465TIP3    H210402   0.755   1.906   4.459
 3466TIP3   OH210403   6.206   0.799   5.018
 3466TIP3    H110404   6.233   0.826   4.930
 3466TIP3    H210405   6.149   0.723   5.004
 3467TIP3   OH210406   0.974   0.939   3.790
 3467TIP3    H110407   1.005   0.938   3.881
 3467TIP3    H210408   1.046   0.903   3.739
 3468TIP3   OH210409   5.094  -0.037   0.305
 3468TIP3    H110410   5.057  -0.009   0.221
 3468TIP3    H210411   5.136   0.041   0.340
 3469TIP3   OH210412   3.085   4.387   2.117
 3469TIP3    H110413   3.072   4.433   2.034
 3469TIP3    H210414   3.165   4.336   2.104
 3470TIP3   OH210415   2.490   0.458   4.137
 3470TIP3    H110416   2.524   0.541   4.105
 3470TIP3    H210417   2.463   0.411   4.058
 3471TIP3   OH210418   3.207   1.333   4.573
 3471TIP3    H110419   3.190   1.397   4.641
 3471TIP3    H210420   3.281   1.282   4.607
 3472TIP3   OH210421   5.398   3.182   4.944
 3472TIP3    H110422   5.462   3.119   4.910
 3472TIP3    H210423   5.421   3.265   4.904
 3473TIP3   OH210424   1.294   3.390   3.659
 3473TIP3    H110425   1.380   3.412   3.624
 3473TIP3    H210426   1.297   3.296   3.675
 3474TIP3   OH210427   4.765   2.112   2.630
 3474TIP3    H110428   4.809   2.076   2.707
 3474TIP3    H210429   4.719   2.037   2.592
 3475TIP3   OH210430   2.806   0.372   0.836
 3475TIP3    H110431   2.825   0.390   0.744
 3475TIP3    H210432   2.892   0.370   0.879
 3476TIP3   OH210433   4.137   0.311   1.729
 3476TIP3    H110434   4.072   0.375   1.759
 3476TIP3    H210435   4.099   0.226   1.750
 3477TIP3   OH210436   3.580   1.243   0.396
 3477TIP3    H110437   3.593   1.330   0.358
 3477TIP3    H210438   3.550   1.260   0.485
 3478TIP3   OH210439   3.474   3.516   4.119
 3478TIP3    H110440   3.548   3.485   4.171
 3478TIP3    H210441   3.424   3.437   4.099
 3479TIP3   OH210442   2.282   2.597   1.684
 3479TIP3    H110443   2.266   2.594   1.589
 3479TIP3    H210444   2.198   2.625   1.721
 3480TIP3   OH210445   1.623   0.546   3.803
 3480TIP3    H110446   1.586   0.623   3.760
 3480TIP3    H210447   1.717   0.550   3.784
 3481TIP3   OH210448   3.717   4.434   4.999
 3481TIP3    H110449   3.627   4.438   5.033
 3481TIP3    H210450   3.735   4.523   4.967
 3482TIP3   OH210451   2.620   0.384   1.410
 3482TIP3    H110452   2.599   0.429   1.328
 3482TIP3    H210453   2.541   0.334   1.430
 3483TIP3   OH210454   0.147   2.813   0.214
 3483TIP3    H110455   0.179   2.903   0.213
 3483TIP3    H210456   0.211   2.764   0.162
 3484TIP3   OH210457   4.357   5.550   0.731
 3484TIP3    H110458   4.325   5.479   0.787
 3484TIP3    H210459   4.451   5.533   0.721
 3485TIP3   OH210460   4.685   0.888   2.246
 3485TIP3    H110461   4.639   0.810   2.214
 3485TIP3    H210462   4.753   0.905   2.181
 3486TIP3   OH210463   0.167   5.469   0.366
 3486TIP3    H110464   0.230   5.489   0.296
 3486TIP3    H210465   0.188   5.531   0.435
 3487TIP3   OH210466   2.009   3.451   1.309
 3487TIP3    H110467   2.024   3.500   1.228
 3487TIP3    H210468   1.921   3.476   1.336
 3488TIP3   OH210469   4.854   1.270   0.679
 3488TIP3    H110470   4.906   1.344   0.649
 3488TIP3    H210471   4.863   1.271   0.774
 3489TIP3   OH210472   2.067   1.751   3.701
 3489TIP3    H110473   1.997   1.783   3.645
 3489TIP3    H210474   2.035   1.668   3.735
 3490TIP3   OH210475   1.098   2.841   0.763
 3490TIP3    H110476   1.116   2.754   0.796
 3490TIP3    H210477   1.132   2.900   0.830
 3491TIP3   OH210478   0.420   2.980   1.323
 3491TIP3    H110479   0.425   3.010   1.233
 3491TIP3    H210480   0.506   2.941   1.340
 3492TIP3   OH210481   5.789   4.255   0.684
 3492TIP3    H110482   5.790   4.343   0.721
 3492TIP3    H210483   5.881   4.236   0.666
 3493TIP3   OH210484   2.136   4.794   2.264
 3493TIP3    H110485   2.115   4.770   2.355
 3493TIP3    H210486   2.210   4.737   2.241
 3494TIP3   OH210487   3.394   2.352   4.467
 3494TIP3    H110488   3.473   2.349   4.414
 3494TIP3    H210489   3.357   2.264   4.461
 3495TIP3   OH210490   2.272   1.846   3.858
 3495TIP3    H110491   2.316   1.920   3.815
 3495TIP3    H210492   2.193   1.832   3.806
 3496TIP3   OH210493   3.508   2.935   1.583
 3496TIP3    H110494   3.470   2.895   1.661
 3496TIP3    H210495   3.596   2.899   1.578
 3497TIP3   OH210496   0.584   2.627   3.625
 3497TIP3    H110497   0.498   2.592   3.602
 3497TIP3    H210498   0.639   2.610   3.549
 3498TIP3   OH210499   2.039   3.039   1.687
 3498TIP3    H110500   1.966   3.058   1.628
 3498TIP3    H210501   2.102   3.109   1.670
 3499TIP3   OH210502   0.226   0.474   0.457
 3499TIP3    H110503   0.164   0.529   0.409
 3499TIP3    H210504   0.312   0.499   0.423
 3500TIP3   OH210505   4.726   2.878   4.248
 3500TIP3    H110506   4.669   2.834   4.186
 3500TIP3    H210507   4.813   2.844   4.229
 3501TIP3   OH210508   3.033   4.645   1.043
 3501TIP3    H110509   2.948   4.684   1.060
 3501TIP3    H210510   3.048   4.585   1.117
 3502TIP3   OH210511   4.439   1.593   4.352
 3502TIP3    H110512   4.405   1.683   4.355
 3502TIP3    H210513   4.473   1.578   4.440
 3503TIP3   OH210514   0.082   3.405   0.147
 3503TIP3    H110515   0.144   3.346   0.189
 3503TIP3    H210516   0.090   3.386   0.054
 3504TIP3   OH210517   5.881   5.201   3.501
 3504TIP3    H110518   5.946   5.198   3.570
 3504TIP3    H210519   5.836   5.117   3.506
 3505TIP3   OH210520   1.891   5.793   1.986
 3505TIP3    H110521   1.801   5.759   1.982
 3505TIP3    H210522   1.946   5.715   1.978
 3506TIP3   OH210523   5.884   5.782   0.856
 3506TIP3    H110524   5.947   5.765   0.786
 3506TIP3    H210525   5.924   5.853   0.907
 3507TIP3   OH210526   2.277   3.889   4.908
 3507TIP3    H110527   2.337   3.873   4.981
 3507TIP3    H210528   2.280   3.984   4.896
 3508TIP3   OH210529   4.691   1.051   1.717
 3508TIP3    H110530   4.778   1.087   1.735
 3508TIP3    H210531   4.663   1.095   1.637
 3509TIP3   OH210532   5.343   4.602   3.309
 3509TIP3    H110533   5.282   4.556   3.367
 3509TIP3    H210534   5.371   4.535   3.246
 3510TIP3   OH210535   5.796   4.869   2.784
 3510TIP3    H110536   5.762   4.798   2.838
 3510TIP3    H210537   5.877   4.835   2.747
 3511TIP3   OH210538   0.886   4.207   2.706
 3511TIP3    H110539   0.835   4.175   2.631
 3511TIP3    H210540   0.847   4.163   2.782
 3512TIP3   OH210541   3.260   5.684   2.994
 3512TIP3    H110542   3.253   5.777   2.974
 3512TIP3    H210543   3.215   5.675   3.079
 3513TIP3   OH210544   2.885   0.276   1.555
 3513TIP3    H110545   2.854   0.216   1.488
 3513TIP3    H210546   2.953   0.228   1.601
 3514TIP3   OH210547   2.500   0.842   2.532
 3514TIP3    H110548   2.521   0.776   2.466
 3514TIP3    H210549   2.547   0.921   2.504
 3515TIP3   OH210550   1.375   4.055   1.890
 3515TIP3    H110551   1.321   4.006   1.952
 3515TIP3    H210552   1.317   4.070   1.815
 3516TIP3   OH210553   2.833   5.102   3.897
 3516TIP3    H110554   2.877   5.024   3.931
 3516TIP3    H210555   2.844   5.167   3.966
 3517TIP3   OH210556   5.103   1.186   1.165
 3517TIP3    H110557   5.177   1.171   1.105
 3517TIP3    H210558   5.039   1.118   1.142
 3518TIP3   OH210559   5.680   0.778   3.383
 3518TIP3    H110560   5.744   0.762   3.314
 3518TIP3    H210561   5.728   0.763   3.465
 3519TIP3   OH210562   1.610   5.669   4.850
 3519TIP3    H110563   1.563   5.680   4.768
 3519TIP3    H210564   1.693   5.629   4.825
 3520TIP3   OH210565   2.573   2.809   1.355
 3520TIP3    H110566   2.534   2.896   1.353
 3520TIP3    H210567   2.640   2.814   1.423
 3521TIP3   OH210568   1.726   2.146   0.705
 3521TIP3    H110569   1.818   2.163   0.685
 3521TIP3    H210570   1.727   2.073   0.767
 3522TIP3   OH210571   6.033   1.259   4.585
 3522TIP3    H110572   6.069   1.281   4.671
 3522TIP3    H210573   5.972   1.330   4.566
 3523TIP3   OH210574   0.901   1.570   0.262
 3523TIP3    H110575   0.835   1.587   0.195
 3523TIP3    H210576   0.856   1.587   0.345
 3524TIP3   OH210577   4.305   2.694   5.111
 3524TIP3    H110578   4.356   2.768   5.143
 3524TIP3    H210579   4.257   2.663   5.189
 3525TIP3   OH210580   3.262   2.089   4.508
 3525TIP3    H110581   3.285   2.020   4.447
 3525TIP3    H210582   3.298   2.061   4.592
 3526TIP3   OH210583   2.034   4.119   1.524
 3526TIP3    H110584   1.946   4.118   1.561
 3526TIP3    H210585   2.084   4.174   1.584
 3527TIP3   OH210586   0.989   4.393   1.599
 3527TIP3    H110587   1.073   4.390   1.553
 3527TIP3    H210588   0.925   4.362   1.534
 3528TIP3   OH210589   0.405   3.099   0.523
 3528TIP3    H110590   0.495   3.130   0.514
 3528TIP3    H210591   0.403   3.017   0.474
 3529TIP3   OH210592   2.683   5.706   3.514
 3529TIP3    H110593   2.695   5.795   3.546
 3529TIP3    H210594   2.758   5.658   3.548
 3530TIP3   OH210595   4.126   2.643   4.012
 3530TIP3    H110596   4.075   2.620   3.934
 3530TIP3    H210597   4.171   2.725   3.988
 3531TIP3   OH210598   6.161   2.911   3.113
 3531TIP3    H110599   6.224   2.919   3.185
 3531TIP3    H210600   6.106   2.989   3.120
 3532TIP3   OH210601   2.480   2.207   4.494
 3532TIP3    H110602   2.398   2.166   4.464
 3532TIP3    H210603   2.472   2.298   4.466
 3533TIP3   OH210604   1.649   0.103   1.359
 3533TIP3    H110605   1.619   0.066   1.442
 3533TIP3    H210606   1.588   0.067   1.294
 3534TIP3   OH210607   0.865   4.395   1.039
 3534TIP3    H110608   0.817   4.337   1.097
 3534TIP3    H210609   0.947   4.414   1.085
 3535TIP3   OH210610   1.928   1.212   4.526
 3535TIP3    H110611   2.021   1.222   4.508
 3535TIP3    H210612   1.901   1.297   4.561
 3536TIP3   OH210613   4.994   4.650   4.627
 3536TIP3    H110614   4.945   4.583   4.578
 3536TIP3    H210615   4.950   4.656   4.711
 3537TIP3   OH210616   1.902   4.894   4.690
 3537TIP3    H110617   1.883   4.876   4.782
 3537TIP3    H210618   1.825   4.942   4.659
 3538TIP3   OH210619   1.364   5.171   0.910
 3538TIP3    H110620   1.284   5.155   0.860
 3538TIP3    H210621   1.427   5.108   0.875
 3539TIP3   OH210622   0.114   0.041   1.182
 3539TIP3    H110623   0.175   0.022   1.111
 3539TIP3    H210624   0.132  -0.027   1.248
 3540TIP3   OH210625   1.985   3.090   0.284
 3540TIP3    H110626   2.000   3.040   0.203
 3540TIP3    H210627   1.900   3.130   0.271
 3541TIP3   OH210628   3.678   5.934   0.043
 3541TIP3    H110629   3.754   5.960  -0.008
 3541TIP3    H210630   3.687   5.840   0.054
 3542TIP3   OH210631   3.997   0.936   0.979
 3542TIP3    H110632   3.927   0.872   0.970
 3542TIP3    H210633   3.965   0.998   1.045
 3543TIP3   OH210634   3.799   3.577   0.339
 3543TIP3    H110635   3.753   3.500   0.373
 3543TIP3    H210636   3.731   3.625   0.291
 3544TIP3   OH210637   0.033   1.994   1.024
 3544TIP3    H110638   0.029   1.898   1.019
 3544TIP3    H210639   0.127   2.013   1.025
 3545TIP3   OH210640   4.386   3.214   4.123
 3545TIP3    H110641   4.309   3.270   4.134
 3545TIP3    H210642   4.389   3.197   4.029
 3546TIP3   OH210643   4.866   4.904   4.900
 3546TIP3    H110644   4.797   4.927   4.962
 3546TIP3    H210645   4.834   4.824   4.857
 3547TIP3   OH210646   4.194   2.735   1.706
 3547TIP3    H110647   4.239   2.671   1.762
 3547TIP3    H210648   4.111   2.693   1.686
 3548TIP3   OH210649   1.562   3.865   2.610
 3548TIP3    H110650   1.589   3.902   2.694
 3548TIP3    H210651   1.471   3.839   2.624
 3549TIP3   OH210652   3.420   4.547   0.709
 3549TIP3    H110653   3.451   4.633   0.735
 3549TIP3    H210654   3.345   4.564   0.652
 3550TIP3   OH210655   2.026   2.995   0.768
 3550TIP3    H110656   2.035   3.063   0.835
 3550TIP3    H210657   1.958   2.938   0.801
 3551TIP3   OH210658   2.243   0.029   4.651
 3551TIP3    H110659   2.230   0.053   4.743
 3551TIP3    H210660   2.321   0.078   4.624
 3552TIP3   OH210661   0.757   1.114   4.224
 3552TIP3    H110662   0.700   1.104   4.301
 3552TIP3    H210663   0.843   1.133   4.261
 3553TIP3   OH210664   1.983   5.899   1.558
 3553TIP3    H110665   2.036   5.827   1.592
 3553TIP3    H210666   1.896   5.861   1.546
 3554TIP3   OH210667   3.717   3.573   4.708
 3554TIP3    H110668   3.668   3.600   4.631
 3554TIP3    H210669   3.685   3.485   4.728
 3555TIP3   OH210670   0.309   3.568   0.201
 3555TIP3    H110671   0.288   3.516   0.279
 3555TIP3    H210672   0.240   3.549   0.139
 3556TIP3   OH210673   1.656   3.090   1.752
 3556TIP3    H110674   1.591   3.155   1.780
 3556TIP3    H210675   1.733   3.141   1.729
 3557TIP3   OH210676   1.843   5.345   2.076
 3557TIP3    H110677   1.751   5.365   2.057
 3557TIP3    H210678   1.889   5.429   2.065
 3558TIP3   OH210679   3.354   5.596   0.939
 3558TIP3    H110680   3.413   5.532   0.980
 3558TIP3    H210681   3.383   5.601   0.848
 3559TIP3   OH210682   3.510   2.008   2.145
 3559TIP3    H110683   3.532   1.921   2.177
 3559TIP3    H210684   3.440   2.038   2.204
 3560TIP3   OH210685   4.418   3.647   1.171
 3560TIP3    H110686   4.346   3.666   1.232
 3560TIP3    H210687   4.470   3.580   1.216
 3561TIP3   OH210688   5.889   3.744   3.774
 3561TIP3    H110689   5.923   3.675   3.718
 3561TIP3    H210690   5.867   3.700   3.856
 3562TIP3   OH210691   0.088   1.745   1.585
 3562TIP3    H110692   0.081   1.654   1.613
 3562TIP3    H210693   0.070   1.795   1.665
 3563TIP3   OH210694   3.019   0.880   3.820
 3563TIP3    H110695   2.951   0.946   3.834
 3563TIP3    H210696   3.021   0.830   3.902
 3564TIP3   OH210697   3.293   1.870   0.130
 3564TIP3    H110698   3.387   1.882   0.146
 3564TIP3    H210699   3.263   1.957   0.102
 3565TIP3   OH210700   5.797   2.352   3.458
 3565TIP3    H110701   5.780   2.428   3.404
 3565TIP3    H210702   5.891   2.334   3.445
 3566TIP3   OH210703   0.940   3.793   2.935
 3566TIP3    H110704   0.889   3.870   2.908
 3566TIP3    H210705   1.031   3.822   2.930
 3567TIP3   OH210706   4.326   1.118   1.253
 3567TIP3    H110707   4.283   1.158   1.177
 3567TIP3    H210708   4.335   1.026   1.229
 3568TIP3   OH210709   2.821   0.311   1.206
 3568TIP3    H110710   2.777   0.315   1.292
 3568TIP3    H210711   2.868   0.395   1.200
 3569TIP3   OH210712   2.211   3.413   4.910
 3569TIP3    H110713   2.189   3.449   4.824
 3569TIP3    H210714   2.297   3.372   4.897
 3570TIP3   OH210715   5.402   3.423   0.402
 3570TIP3    H110716   5.328   3.408   0.460
 3570TIP3    H210717   5.477   3.385   0.449
 3571TIP3   OH210718   6.272   3.447   1.238
 3571TIP3    H110719   6.193   3.496   1.260
 3571TIP3    H210720   6.288   3.392   1.315
 3572TIP3   OH210721   1.205   5.890   0.343
 3572TIP3    H110722   1.218   5.903   0.249
 3572TIP3    H210723   1.189   5.978   0.378
 3573TIP3   OH210724   2.816   4.084   3.005
 3573TIP3    H110725   2.740   4.139   2.988
 3573TIP3    H210726   2.792   4.031   3.081
 3574TIP3   OH210727   2.163   0.164   0.604
 3574TIP3    H110728   2.068   0.166   0.590
 3574TIP3    H210729   2.196   0.106   0.535
 3575TIP3   OH210730   3.977   1.586   5.034
 3575TIP3    H110731   3.919   1.512   5.017
 3575TIP3    H210732   4.050   1.573   4.972
 3576TIP3   OH210733   3.573   5.441   1.359
 3576TIP3    H110734   3.526   5.367   1.396
 3576TIP3    H210735   3.515   5.516   1.374
 3577TIP3   OH210736   1.146   1.915   4.861
 3577TIP3    H110737   1.220   1.969   4.889
 3577TIP3    H210738   1.102   1.968   4.795
 3578TIP3   OH210739   4.739   2.482   3.140
 3578TIP3    H110740   4.684   2.514   3.069
 3578TIP3    H210741   4.677   2.460   3.210
 3579TIP3   OH210742   2.860   3.174   3.743
 3579TIP3    H110743   2.766   3.170   3.765
 3579TIP3    H210744   2.903   3.197   3.825
 3580TIP3   OH210745   3.165   1.418   1.502
 3580TIP3    H110746   3.204   1.478   1.566
 3580TIP3    H210747   3.095   1.469   1.461
 3581TIP3   OH210748   3.949   5.296   3.472
 3581TIP3    H110749   3.947   5.242   3.551
 3581TIP3    H210750   3.928   5.384   3.501
 3582TIP3   OH210751   5.669   3.933   4.899
 3582TIP3    H110752   5.624   3.871   4.958
 3582TIP3    H210753   5.598   3.977   4.853
 3583TIP3   OH210754   1.857   1.660   1.654
 3583TIP3    H110755   1.861   1.622   1.566
 3583TIP3    H210756   1.946   1.692   1.670
 3584TIP3   OH210757   4.894   2.151   3.000
 3584TIP3    H110758   4.928   2.239   2.981
 3584TIP3    H210759   4.938   2.126   3.081
 3585TIP3   OH210760   1.284   0.312   2.542
 3585TIP3    H110761   1.229   0.391   2.533
 3585TIP3    H210762   1.360   0.342   2.591
 3586TIP3   OH210763   0.885   0.298   2.579
 3586TIP3    H110764   0.925   0.229   2.525
 3586TIP3    H210765   0.791   0.286   2.566
 3587TIP3   OH210766   0.958   0.934   0.720
 3587TIP3    H110767   0.969   1.025   0.747
 3587TIP3    H210768   0.964   0.937   0.624
 3588TIP3   OH210769   3.653   2.517   3.156
 3588TIP3    H110770   3.600   2.447   3.117
 3588TIP3    H210771   3.594   2.592   3.159
 3589TIP3   OH210772   5.755   3.926   1.251
 3589TIP3    H110773   5.669   3.950   1.285
 3589TIP3    H210774   5.817   3.956   1.317
 3590TIP3   OH210775   3.202   5.621   3.264
 3590TIP3    H110776   3.242   5.534   3.261
 3590TIP3    H210777   3.132   5.613   3.328
 3591TIP3   OH210778   1.524   5.360   0.333
 3591TIP3    H110779   1.618   5.348   0.317
 3591TIP3    H210780   1.517   5.372   0.427
 3592TIP3   OH210781   2.363   3.392   4.430
 3592TIP3    H110782   2.385   3.453   4.360
 3592TIP3    H210783   2.448   3.366   4.466
 3593TIP3   OH210784   4.461   3.153   2.111
 3593TIP3    H110785   4.497   3.236   2.079
 3593TIP3    H210786   4.421   3.113   2.034
 3594TIP3   OH210787   3.887   3.161   3.818
 3594TIP3    H110788   3.964   3.197   3.774
 3594TIP3    H210789   3.907   3.068   3.827
 3595TIP3   OH210790   2.267   4.655   4.168
 3595TIP3    H110791   2.235   4.569   4.192
 3595TIP3    H210792   2.296   4.646   4.077
 3596TIP3   OH210793   5.622   4.126   0.514
 3596TIP3    H110794   5.560   4.086   0.575
 3596TIP3    H210795   5.677   4.182   0.569
 3597TIP3   OH210796   3.676   2.224   4.645
 3597TIP3    H110797   3.644   2.152   4.700
 3597TIP3    H210798   3.761   2.193   4.613
 3598TIP3   OH210799   5.138   1.149   0.271
 3598TIP3    H110800   5.134   1.087   0.199
 3598TIP3    H210801   5.230   1.174   0.277
 3599TIP3   OH210802   0.124   4.413   4.189
 3599TIP3    H110803   0.140   4.445   4.101
 3599TIP3    H210804   0.207   4.373   4.216
 3600TIP3   OH210805   1.627   3.273   3.973
 3600TIP3    H110806   1.687   3.310   4.037
 3600TIP3    H210807   1.681   3.213   3.921
 3601TIP3   OH210808   6.241   1.512   2.532
 3601TIP3    H110809   6.174   1.576   2.509
 3601TIP3    H210810   6.324   1.560   2.522
 3602TIP3   OH210811   6.039   5.218   4.800
 3602TIP3    H110812   5.953   5.255   4.778
 3602TIP3    H210813   6.101   5.285   4.771
 3603TIP3   OH210814   0.648   3.236   0.934
 3603TIP3    H110815   0.583   3.199   0.873
 3603TIP3    H210816   0.732   3.220   0.892
 3604TIP3   OH210817   0.264   2.546   1.963
 3604TIP3    H110818   0.213   2.465   1.958
 3604TIP3    H210819   0.331   2.528   2.030
 3605TIP3   OH210820   0.741   3.478   1.084
 3605TIP3    H110821   0.691   3.449   1.008
 3605TIP3    H210822   0.678   3.474   1.156
 3606TIP3   OH210823   3.850   5.949   1.323
 3606TIP3    H110824   3.778   6.012   1.316
 3606TIP3    H210825   3.825   5.877   1.265
 3607TIP3   OH210826   3.730   2.211   5.199
 3607TIP3    H110827   3.672   2.194   5.125
 3607TIP3    H210828   3.711   2.140   5.261
 3608TIP3   OH210829   5.893   2.117   3.796
 3608TIP3    H110830   5.970   2.172   3.777
 3608TIP3    H210831   5.881   2.125   3.890
 3609TIP3   OH210832   0.642   4.253   2.067
 3609TIP3    H110833   0.589   4.233   2.144
 3609TIP3    H210834   0.653   4.168   2.024
 3610TIP3   OH210835   2.199   5.856   2.009
 3610TIP3    H110836   2.108   5.868   2.037
 3610TIP3    H210837   2.251   5.873   2.087
 3611TIP3   OH210838   6.105   2.601   0.974
 3611TIP3    H110839   6.068   2.520   1.010
 3611TIP3    H210840   6.078   2.669   1.036
 3612TIP3   OH210841   4.272   4.736   4.740
 3612TIP3    H110842   4.233   4.792   4.806
 3612TIP3    H210843   4.259   4.783   4.658
 3613TIP3   OH210844   0.779   3.504   1.880
 3613TIP3    H110845   0.691   3.543   1.876
 3613TIP3    H210846   0.765   3.411   1.859
 3614TIP3   OH210847   0.130   3.126   0.612
 3614TIP3    H110848   0.068   3.137   0.540
 3614TIP3    H210849   0.216   3.146   0.573
 3615TIP3   OH210850   5.118   1.099   3.152
 3615TIP3    H110851   5.045   1.110   3.214
 3615TIP3    H210852   5.121   1.004   3.137
 3616TIP3   OH210853   0.903   5.363   3.121
 3616TIP3    H110854   0.992   5.332   3.140
 3616TIP3    H210855   0.879   5.416   3.197
 3617TIP3   OH210856   1.434   0.465   2.973
 3617TIP3    H110857   1.378   0.510   2.909
 3617TIP3    H210858   1.375   0.447   3.047
 3618TIP3   OH210859   4.625   5.562   0.625
 3618TIP3    H110860   4.607   5.498   0.556
 3618TIP3    H210861   4.658   5.638   0.578
 3619TIP3   OH210862   6.190   4.292   0.946
 3619TIP3    H110863   6.115   4.247   0.986
 3619TIP3    H210864   6.162   4.310   0.856
 3620TIP3   OH210865   3.463   3.884   3.094
 3620TIP3    H110866   3.479   3.790   3.088
 3620TIP3    H210867   3.500   3.920   3.013
 3621TIP3   OH210868   3.927   4.873   0.283
 3621TIP3    H110869   4.019   4.871   0.257
 3621TIP3    H210870   3.925   4.836   0.371
 3622TIP3   OH210871   1.533   3.338   1.511
 3622TIP3    H110872   1.472   3.271   1.542
 3622TIP3    H210873   1.541   3.400   1.583
 3623TIP3   OH210874   3.812   1.339   5.009
 3623TIP3    H110875   3.844   1.324   5.097
 3623TIP3    H210876   3.827   1.256   4.963
 3624TIP3   OH210877   4.937   0.448   1.530
 3624TIP3    H110878   4.954   0.530   1.483
 3624TIP3    H210879   5.023   0.420   1.562
 3625TIP3   OH210880   3.312   4.936   3.170
 3625TIP3    H110881   3.330   4.870   3.104
 3625TIP3    H210882   3.322   5.019   3.124
 3626TIP3   OH210883   4.312   1.119   0.752
 3626TIP3    H110884   4.326   1.200   0.703
 3626TIP3    H210885   4.293   1.148   0.841
 3627TIP3   OH210886   3.033   1.357   3.099
 3627TIP3    H110887   3.074   1.306   3.169
 3627TIP3    H210888   2.939   1.341   3.108
 3628TIP3   OH210889   3.808   0.733   0.903
 3628TIP3    H110890   3.832   0.645   0.932
 3628TIP3    H210891   3.811   0.728   0.807
 3629TIP3   OH210892   2.425   4.721   4.625
 3629TIP3    H110893   2.387   4.725   4.538
 3629TIP3    H210894   2.469   4.806   4.636
 3630TIP3   OH210895   6.228   4.736   3.587
 3630TIP3    H110896   6.324   4.737   3.582
 3630TIP3    H210897   6.208   4.666   3.649
 3631TIP3   OH210898   0.303   1.319   2.094
 3631TIP3    H110899   0.231   1.346   2.037
 3631TIP3    H210900   0.343   1.245   2.048
 3632TIP3   OH210901   1.931   0.079   1.172
 3632TIP3    H110902   1.870   0.011   1.202
 3632TIP3    H210903   1.912   0.155   1.228
 3633TIP3   OH210904   5.856   1.003   2.839
 3633TIP3    H110905   5.764   0.987   2.862
 3633TIP3    H210906   5.860   0.983   2.745
 3634TIP3   OH210907   5.870   0.433   1.695
 3634TIP3    H110908   5.842   0.375   1.765
 3634TIP3    H210909   5.882   0.376   1.619
 3635TIP3   OH210910   0.045   3.469   3.215
 3635TIP3    H110911   0.105   3.399   3.188
 3635TIP3    H210912  -0.042   3.433   3.200
 3636TIP3   OH210913   3.407   1.352   2.791
 3636TIP3    H110914   3.376   1.280   2.846
 3636TIP3    H210915   3.500   1.333   2.777
 3637TIP3   OH210916   1.396   3.194   2.639
 3637TIP3    H110917   1.463   3.129   2.620
 3637TIP3    H210918   1.413   3.222   2.729
 3638TIP3   OH210919   1.323   5.457   1.543
 3638TIP3    H110920   1.259   5.400   1.501
 3638TIP3    H210921   1.304   5.449   1.637
 3639TIP3   OH210922   4.971   0.948   4.181
 3639TIP3    H110923   5.049   0.895   4.194
 3639TIP3    H210924   5.004   1.036   4.165
 3640TIP3   OH210925   5.991   0.632   4.042
 3640TIP3    H110926   5.949   0.551   4.012
 3640TIP3    H210927   6.038   0.607   4.122
 3641TIP3   OH210928   1.106   5.097   2.733
 3641TIP3    H110929   1.094   5.080   2.640
 3641TIP3    H210930   1.119   5.011   2.772
 3642TIP3   OH210931   0.369   2.742   0.088
 3642TIP3    H110932   0.378   2.805   0.016
 3642TIP3    H210933   0.382   2.657   0.047
 3643TIP3   OH210934   5.432   1.210   1.610
 3643TIP3    H110935   5.448   1.119   1.587
 3643TIP3    H210936   5.397   1.249   1.530
 3644TIP3   OH210937   2.222   2.732   3.031
 3644TIP3    H110938   2.206   2.721   3.125
 3644TIP3    H210939   2.233   2.642   2.998
 3645TIP3   OH210940   6.352   4.917   0.303
 3645TIP3    H110941   6.267   4.916   0.259
 3645TIP3    H210942   6.368   4.826   0.327
 3646TIP3   OH210943   5.291   5.639   4.064
 3646TIP3    H110944   5.343   5.680   3.996
 3646TIP3    H210945   5.243   5.711   4.105
 3647TIP3   OH210946   0.203   2.063   0.581
 3647TIP3    H110947   0.193   2.117   0.659
 3647TIP3    H210948   0.128   2.004   0.582
 3648TIP3   OH210949   1.598   1.237   4.384
 3648TIP3    H110950   1.543   1.257   4.308
 3648TIP3    H210951   1.681   1.207   4.346
 3649TIP3   OH210952   3.041   3.780   4.299
 3649TIP3    H110953   3.114   3.718   4.299
 3649TIP3    H210954   3.054   3.834   4.221
 3650TIP3   OH210955   3.924   5.337   0.381
 3650TIP3    H110956   3.987   5.264   0.377
 3650TIP3    H210957   3.841   5.299   0.354
 3651TIP3   OH210958   0.748   1.312   1.579
 3651TIP3    H110959   0.736   1.229   1.625
 3651TIP3    H210960   0.828   1.349   1.617
 3652TIP3   OH210961   5.181   2.267   2.609
 3652TIP3    H110962   5.137   2.188   2.642
 3652TIP3    H210963   5.274   2.247   2.618
 3653TIP3   OH210964   3.508   2.781   4.638
 3653TIP3    H110965   3.546   2.757   4.723
 3653TIP3    H210966   3.554   2.726   4.575
 3654TIP3   OH210967   2.869   5.522   3.645
 3654TIP3    H110968   2.821   5.443   3.669
 3654TIP3    H210969   2.932   5.535   3.717
 3655TIP3   OH210970   0.394   2.462   0.004
 3655TIP3    H110971   0.435   2.380   0.035
 3655TIP3    H210972   0.402   2.458  -0.091
 3656TIP3   OH210973   5.530   5.246   2.704
 3656TIP3    H110974   5.489   5.261   2.789
 3656TIP3    H210975   5.520   5.152   2.689
 3657TIP3   OH210976   3.509   2.258   5.007
 3657TIP3    H110977   3.439   2.223   4.952
 3657TIP3    H210978   3.579   2.281   4.945
 3658TIP3   OH210979   3.063   5.295   2.931
 3658TIP3    H110980   3.019   5.380   2.937
 3658TIP3    H210981   3.001   5.240   2.881
 3659TIP3   OH210982   6.201   4.997   3.096
 3659TIP3    H110983   6.196   4.967   3.005
 3659TIP3    H210984   6.128   4.953   3.139
 3660TIP3   OH210985   0.327   1.714   1.469
 3660TIP3    H110986   0.242   1.739   1.506
 3660TIP3    H210987   0.306   1.645   1.406
 3661TIP3   OH210988   1.717   0.370   1.337
 3661TIP3    H110989   1.699   0.276   1.337
 3661TIP3    H210990   1.810   0.377   1.317
 3662TIP3   OH210991   6.166   2.045   3.536
 3662TIP3    H110992   6.074   2.029   3.513
 3662TIP3    H210993   6.163   2.123   3.592
 3663TIP3   OH210994   4.164   2.301   0.314
 3663TIP3    H110995   4.217   2.348   0.378
 3663TIP3    H210996   4.111   2.368   0.272
 3664TIP3   OH210997   3.023   0.811   0.396
 3664TIP3    H110998   3.014   0.813   0.301
 3664TIP3    H210999   2.942   0.770   0.427
 3665TIP3   OH211000   5.077   1.041   0.557
 3665TIP3    H111001   5.126   1.022   0.477
 3665TIP3    H211002   5.145   1.055   0.624
 3666TIP3   OH211003   1.414   4.524   4.149
 3666TIP3    H111004   1.382   4.519   4.059
 3666TIP3    H211005   1.382   4.445   4.191
 3667TIP3   OH211006   4.483   4.167   4.012
 3667TIP3    H111007   4.561   4.219   4.031
 3667TIP3    H211008   4.473   4.110   4.088
 3668TIP3   OH211009   0.354   2.150   2.465
 3668TIP3    H111010   0.358   2.077   2.526
 3668TIP3    H211011   0.392   2.115   2.384
 3669TIP3   OH211012   4.676   2.505   5.010
 3669TIP3    H111013   4.590   2.470   4.986
 3669TIP3    H211014   4.696   2.462   5.093
 3670TIP3   OH211015  -0.041   1.578   4.049
 3670TIP3    H111016   0.038   1.628   4.070
 3670TIP3    H211017  -0.092   1.577   4.130
 3671TIP3   OH211018   5.076   0.628   1.780
 3671TIP3    H111019   5.036   0.626   1.867
 3671TIP3    H211020   5.019   0.685   1.728
 3672TIP3   OH211021   2.110   3.328   0.076
 3672TIP3    H111022   2.185   3.297   0.026
 3672TIP3    H211023   2.105   3.270   0.151
 3673TIP3   OH211024   1.088   5.258   1.178
 3673TIP3    H111025   1.087   5.218   1.265
 3673TIP3    H211026   1.151   5.329   1.184
 3674TIP3   OH211027   5.205   0.569   2.830
 3674TIP3    H111028   5.224   0.564   2.924
 3674TIP3    H211029   5.251   0.494   2.793
 3675TIP3   OH211030   3.405   1.800   1.125
 3675TIP3    H111031   3.337   1.735   1.107
 3675TIP3    H211032   3.385   1.831   1.214
 3676TIP3   OH211033   6.143   3.927   3.842
 3676TIP3    H111034   6.187   3.868   3.904
 3676TIP3    H211035   6.071   3.875   3.807
 3677TIP3   OH211036   5.005   3.881   2.673
 3677TIP3    H111037   4.963   3.936   2.607
 3677TIP3    H211038   5.015   3.796   2.631
 3678TIP3   OH211039   6.011   5.049   2.081
 3678TIP3    H111040   5.992   4.955   2.079
 3678TIP3    H211041   6.106   5.054   2.087
 3679TIP3   OH211042   3.739   2.792   0.818
 3679TIP3    H111043   3.689   2.873   0.818
 3679TIP3    H211044   3.723   2.754   0.905
 3680TIP3   OH211045   3.382   4.873   0.573
 3680TIP3    H111046   3.352   4.845   0.486
 3680TIP3    H211047   3.305   4.862   0.629
 3681TIP3   OH211048   0.137   2.264   0.090
 3681TIP3    H111049   0.082   2.336   0.059
 3681TIP3    H211050   0.110   2.250   0.180
 3682TIP3   OH211051   5.614   0.522   0.899
 3682TIP3    H111052   5.580   0.593   0.954
 3682TIP3    H211053   5.615   0.558   0.811
 3683TIP3   OH211054   1.142   4.543   1.908
 3683TIP3    H111055   1.136   4.466   1.965
 3683TIP3    H211056   1.080   4.605   1.945
 3684TIP3   OH211057   5.876   5.933   3.180
 3684TIP3    H111058   5.908   5.904   3.265
 3684TIP3    H211059   5.787   5.965   3.197
 3685TIP3   OH211060   0.150   4.407   0.761
 3685TIP3    H111061   0.089   4.480   0.775
 3685TIP3    H211062   0.233   4.450   0.739
 3686TIP3   OH211063   3.288   5.372   1.429
 3686TIP3    H111064   3.319   5.462   1.427
 3686TIP3    H211065   3.217   5.369   1.364
 3687TIP3   OH211066   0.810   5.086   3.218
 3687TIP3    H111067   0.728   5.099   3.266
 3687TIP3    H211068   0.867   5.041   3.281
 3688TIP3   OH211069   0.988   0.629   0.565
 3688TIP3    H111070   1.025   0.693   0.504
 3688TIP3    H211071   0.928   0.577   0.511
 3689TIP3   OH211072   0.319   2.019   1.407
 3689TIP3    H111073   0.224   2.003   1.412
 3689TIP3    H211074   0.359   1.933   1.420
 3690TIP3   OH211075   1.922   2.782   1.519
 3690TIP3    H111076   1.856   2.782   1.450
 3690TIP3    H211077   1.888   2.723   1.585
 3691TIP3   OH211078   5.977   3.901   2.987
 3691TIP3    H111079   6.023   3.911   3.071
 3691TIP3    H211080   5.905   3.964   2.992
 3692TIP3   OH211081   6.237   1.037   2.264
 3692TIP3    H111082   6.279   0.977   2.326
 3692TIP3    H211083   6.301   1.107   2.251
 3693TIP3   OH211084   4.785   0.142   0.691
 3693TIP3    H111085   4.875   0.167   0.668
 3693TIP3    H211086   4.736   0.153   0.609
 3694TIP3   OH211087  -0.018   4.278   4.375
 3694TIP3    H111088   0.034   4.311   4.301
 3694TIP3    H211089   0.027   4.311   4.453
 3695TIP3   OH211090   1.896   2.080   4.916
 3695TIP3    H111091   1.965   2.015   4.931
 3695TIP3    H211092   1.867   2.105   5.004
 3696TIP3   OH211093   3.104   0.614   3.610
 3696TIP3    H111094   3.110   0.630   3.705
 3696TIP3    H211095   3.140   0.693   3.570
 3697TIP3   OH211096   2.841   2.415   2.999
 3697TIP3    H111097   2.786   2.469   3.057
 3697TIP3    H211098   2.826   2.452   2.912
 3698TIP3   OH211099   0.088   0.062   0.796
 3698TIP3    H111100   0.168   0.034   0.840
 3698TIP3    H211101   0.108   0.150   0.763
 3699TIP3   OH211102   2.926   1.621   2.919
 3699TIP3    H111103   3.017   1.597   2.936
 3699TIP3    H211104   2.922   1.716   2.932
 3700TIP3   OH211105   5.095   4.208   4.131
 3700TIP3    H111106   5.072   4.296   4.101
 3700TIP3    H211107   5.103   4.156   4.051
 3701TIP3   OH211108   0.720   4.733   1.226
 3701TIP3    H111109   0.744   4.825   1.217
 3701TIP3    H211110   0.713   4.702   1.136
 3702TIP3   OH211111   6.043   3.651   2.116
 3702TIP3    H111112   6.018   3.640   2.207
 3702TIP3    H211113   5.966   3.622   2.066
 3703TIP3   OH211114   0.591   4.698   2.160
 3703TIP3    H111115   0.583   4.704   2.255
 3703TIP3    H211116   0.662   4.758   2.138
 3704TIP3   OH211117   6.217   2.559   0.150
 3704TIP3    H111118   6.244   2.621   0.218
 3704TIP3    H211119   6.291   2.556   0.089
 3705TIP3   OH211120   3.596   3.278   1.208
 3705TIP3    H111121   3.604   3.195   1.162
 3705TIP3    H211122   3.582   3.254   1.299
 3706TIP3   OH211123   5.081   0.945   2.480
 3706TIP3    H111124   5.098   0.933   2.386
 3706TIP3    H211125   5.139   0.882   2.522
 3707TIP3   OH211126   5.023   5.846   4.023
 3707TIP3    H111127   4.966   5.777   3.987
 3707TIP3    H211128   5.023   5.829   4.118
 3708TIP3   OH211129   5.342   2.083   5.095
 3708TIP3    H111130   5.405   2.154   5.083
 3708TIP3    H211131   5.390   2.017   5.145
 3709TIP3   OH211132   2.033   2.285   0.967
 3709TIP3    H111133   2.055   2.196   0.939
 3709TIP3    H211134   2.093   2.341   0.918
 3710TIP3   OH211135   4.419   4.987   3.706
 3710TIP3    H111136   4.427   5.015   3.614
 3710TIP3    H211137   4.330   4.952   3.712
 3711TIP3   OH211138   2.140   1.400   1.804
 3711TIP3    H111139   2.098   1.361   1.728
 3711TIP3    H211140   2.093   1.364   1.879
 3712TIP3   OH211141   1.676   4.744   2.549
 3712TIP3    H111142   1.644   4.716   2.463
 3712TIP3    H211143   1.701   4.835   2.536
 3713TIP3   OH211144   2.149   3.474   4.252
 3713TIP3    H111145   2.206   3.528   4.306
 3713TIP3    H211146   2.129   3.398   4.306
 3714TIP3   OH211147   4.243   0.397   2.755
 3714TIP3    H111148   4.258   0.356   2.670
 3714TIP3    H211149   4.162   0.356   2.787
 3715TIP3   OH211150   0.727   3.259   2.758
 3715TIP3    H111151   0.726   3.355   2.764
 3715TIP3    H211152   0.728   3.241   2.664
 3716TIP3   OH211153   2.178   0.866   0.427
 3716TIP3    H111154   2.240   0.820   0.371
 3716TIP3    H211155   2.141   0.934   0.372
 3717TIP3   OH211156   1.193   1.548   0.216
 3717TIP3    H111157   1.184   1.583   0.127
 3717TIP3    H211158   1.106   1.558   0.254
 3718TIP3   OH211159   2.752   4.522   4.399
 3718TIP3    H111160   2.768   4.513   4.305
 3718TIP3    H211161   2.742   4.616   4.413
 3719TIP3   OH211162   0.203   2.018   1.926
 3719TIP3    H111163   0.291   2.054   1.943
 3719TIP3    H211164   0.162   2.014   2.013
 3720TIP3   OH211165   4.171   3.672   4.032
 3720TIP3    H111166   4.202   3.762   4.019
 3720TIP3    H211167   4.147   3.642   3.944
 3721TIP3   OH211168   4.795   5.939   3.560
 3721TIP3    H111169   4.706   5.928   3.528
 3721TIP3    H211170   4.785   5.989   3.642
 3722TIP3   OH211171   2.172   3.047   3.498
 3722TIP3    H111172   2.104   3.069   3.562
 3722TIP3    H211173   2.254   3.069   3.542
 3723TIP3   OH211174   2.470   3.376   1.353
 3723TIP3    H111175   2.514   3.306   1.304
 3723TIP3    H211176   2.384   3.341   1.374
 3724TIP3   OH211177   3.107   5.725   0.398
 3724TIP3    H111178   3.077   5.810   0.366
 3724TIP3    H211179   3.200   5.737   0.414
 3725TIP3   OH211180   0.432   3.465   0.897
 3725TIP3    H111181   0.448   3.380   0.855
 3725TIP3    H211182   0.354   3.499   0.853
 3726TIP3   OH211183   5.490   4.625   2.206
 3726TIP3    H111184   5.580   4.620   2.236
 3726TIP3    H211185   5.467   4.535   2.183
 3727TIP3   OH211186   2.524   1.441   1.246
 3727TIP3    H111187   2.429   1.433   1.259
 3727TIP3    H211188   2.533   1.518   1.190
 3728TIP3   OH211189   4.393   2.434   4.996
 3728TIP3    H111190   4.384   2.522   5.032
 3728TIP3    H211191   4.306   2.414   4.961
 3729TIP3   OH211192   0.618   4.773   1.901
 3729TIP3    H111193   0.590   4.705   1.840
 3729TIP3    H211194   0.567   4.757   1.980
 3730TIP3   OH211195   5.791   5.078   2.608
 3730TIP3    H111196   5.794   4.998   2.661
 3730TIP3    H211197   5.879   5.116   2.616
 3731TIP3   OH211198   5.791   0.171   3.730
 3731TIP3    H111199   5.766   0.108   3.663
 3731TIP3    H211200   5.885   0.185   3.715
 3732TIP3   OH211201   2.824   2.853   3.814
 3732TIP3    H111202   2.761   2.923   3.829
 3732TIP3    H211203   2.779   2.791   3.758
 3733TIP3   OH211204   2.915   1.102   3.635
 3733TIP3    H111205   2.983   1.035   3.636
 3733TIP3    H211206   2.939   1.160   3.563
 3734TIP3   OH211207   0.353   0.176   2.652
 3734TIP3    H111208   0.284   0.112   2.670
 3734TIP3    H211209   0.314   0.260   2.677
 3735TIP3   OH211210   0.863   2.689   4.645
 3735TIP3    H111211   0.796   2.679   4.577
 3735TIP3    H211212   0.915   2.609   4.640
 3736TIP3   OH211213   4.528   3.451   1.320
 3736TIP3    H111214   4.454   3.436   1.378
 3736TIP3    H211215   4.575   3.368   1.318
 3737TIP3   OH211216   3.729   2.385   0.670
 3737TIP3    H111217   3.654   2.440   0.649
 3737TIP3    H211218   3.691   2.299   0.690
 3738TIP3   OH211219   4.548   0.864   1.049
 3738TIP3    H111220   4.566   0.895   0.960
 3738TIP3    H211221   4.456   0.888   1.064
 3739TIP3   OH211222   2.839   2.542   3.662
 3739TIP3    H111223   2.832   2.499   3.577
 3739TIP3    H211224   2.811   2.633   3.646
 3740TIP3   OH211225   3.308   2.300   2.911
 3740TIP3    H111226   3.402   2.293   2.892
 3740TIP3    H211227   3.270   2.330   2.829
 3741TIP3   OH211228   1.119   0.812   3.181
 3741TIP3    H111229   1.192   0.781   3.126
 3741TIP3    H211230   1.118   0.906   3.167
 3742TIP3   OH211231   5.317   4.909   1.065
 3742TIP3    H111232   5.341   4.875   1.151
 3742TIP3    H211233   5.274   4.835   1.021
 3743TIP3   OH211234   1.278   2.641   4.643
 3743TIP3    H111235   1.370   2.620   4.631
 3743TIP3    H211236   1.277   2.736   4.658
 3744TIP3   OH211237   5.357   3.574   2.249
 3744TIP3    H111238   5.441   3.532   2.231
 3744TIP3    H211239   5.368   3.664   2.217
 3745TIP3   OH211240   2.116   2.149   2.651
 3745TIP3    H111241   2.162   2.166   2.568
 3745TIP3    H211242   2.159   2.071   2.686
 3746TIP3   OH211243   3.843   2.192   1.936
 3746TIP3    H111244   3.847   2.096   1.939
 3746TIP3    H211245   3.850   2.219   2.028
 3747TIP3   OH211246   4.862   0.249   2.819
 3747TIP3    H111247   4.812   0.203   2.752
 3747TIP3    H211248   4.937   0.286   2.771
 3748TIP3   OH211249   0.637   1.686   4.768
 3748TIP3    H111250   0.642   1.594   4.794
 3748TIP3    H211251   0.547   1.698   4.739
 3749TIP3   OH211252   0.968   2.454   0.693
 3749TIP3    H111253   1.009   2.524   0.744
 3749TIP3    H211254   0.929   2.396   0.758
 3750TIP3   OH211255   1.645   1.715   0.475
 3750TIP3    H111256   1.575   1.675   0.424
 3750TIP3    H211257   1.691   1.771   0.414
 3751TIP3   OH211258   6.264   4.791   2.439
 3751TIP3    H111259   6.174   4.790   2.407
 3751TIP3    H211260   6.296   4.702   2.424
 3752TIP3   OH211261   5.058   0.113   2.949
 3752TIP3    H111262   5.101   0.103   2.864
 3752TIP3    H211263   4.966   0.131   2.927
 3753TIP3   OH211264   1.733   4.110   2.791
 3753TIP3    H111265   1.688   4.080   2.870
 3753TIP3    H211266   1.759   4.200   2.811
 3754TIP3   OH211267   5.730   1.622   2.881
 3754TIP3    H111268   5.760   1.630   2.971
 3754TIP3    H211269   5.672   1.697   2.868
 3755TIP3   OH211270   2.293   2.011   2.804
 3755TIP3    H111271   2.347   2.081   2.767
 3755TIP3    H211272   2.301   2.023   2.899
 3756TIP3   OH211273   5.065   4.403   2.600
 3756TIP3    H111274   5.126   4.399   2.674
 3756TIP3    H211275   5.063   4.496   2.575
 3757TIP3   OH211276   3.984   4.515   2.138
 3757TIP3    H111277   3.981   4.580   2.068
 3757TIP3    H211278   4.072   4.478   2.131
 3758TIP3   OH211279   5.654   4.535   3.353
 3758TIP3    H111280   5.717   4.595   3.394
 3758TIP3    H211281   5.613   4.588   3.284
 3759TIP3   OH211282   3.980   4.893   5.095
 3759TIP3    H111283   3.941   4.978   5.075
 3759TIP3    H211284   4.052   4.912   5.155
 3760TIP3   OH211285   5.398   1.995   4.240
 3760TIP3    H111286   5.456   2.022   4.311
 3760TIP3    H211287   5.440   1.917   4.203
 3761TIP3   OH211288   0.385   5.812   2.013
 3761TIP3    H111289   0.418   5.894   1.978
 3761TIP3    H211290   0.320   5.783   1.949
 3762TIP3   OH211291   4.008   1.108   0.233
 3762TIP3    H111292   4.059   1.043   0.281
 3762TIP3    H211293   3.956   1.056   0.172
 3763TIP3   OH211294   0.540   5.313   3.275
 3763TIP3    H111295   0.491   5.287   3.197
 3763TIP3    H211296   0.533   5.408   3.277
 3764TIP3   OH211297   1.767   0.820   2.573
 3764TIP3    H111298   1.828   0.750   2.548
 3764TIP3    H211299   1.739   0.797   2.661
 3765TIP3   OH211300   0.197   0.948   3.893
 3765TIP3    H111301   0.286   0.921   3.872
 3765TIP3    H211302   0.146   0.868   3.890
 3766TIP3   OH211303   6.297   3.639   3.857
 3766TIP3    H111304   6.380   3.600   3.828
 3766TIP3    H211305   6.280   3.600   3.942
 3767TIP3   OH211306   3.608   2.330   1.522
 3767TIP3    H111307   3.683   2.273   1.506
 3767TIP3    H211308   3.561   2.332   1.438
 3768TIP3   OH211309   5.436   4.836   4.946
 3768TIP3    H111310   5.462   4.832   4.854
 3768TIP3    H211311   5.511   4.802   4.994
 3769TIP3   OH211312   1.604   0.912   1.251
 3769TIP3    H111313   1.655   0.991   1.232
 3769TIP3    H211314   1.532   0.942   1.307
 3770TIP3   OH211315   1.202   0.242   1.721
 3770TIP3    H111316   1.265   0.302   1.682
 3770TIP3    H211317   1.216   0.158   1.676
 3771TIP3   OH211318   0.292   3.254   3.758
 3771TIP3    H111319   0.353   3.282   3.826
 3771TIP3    H211320   0.321   3.299   3.679
 3772TIP3   OH211321   6.152   4.828   1.853
 3772TIP3    H111322   6.065   4.821   1.815
 3772TIP3    H211323   6.187   4.910   1.818
 3773TIP3   OH211324   4.726   3.858   0.393
 3773TIP3    H111325   4.697   3.910   0.468
 3773TIP3    H211326   4.821   3.855   0.401
 3774TIP3   OH211327   5.528   1.836   3.298
 3774TIP3    H111328   5.476   1.911   3.328
 3774TIP3    H211329   5.478   1.798   3.227
 3775TIP3   OH211330   0.865   5.869   4.568
 3775TIP3    H111331   0.942   5.906   4.610
 3775TIP3    H211332   0.900   5.802   4.508
 3776TIP3   OH211333   0.022   3.208   2.149
 3776TIP3    H111334   0.055   3.234   2.063
 3776TIP3    H211335   0.006   3.114   2.141
 3777TIP3   OH211336   0.356   3.000   2.200
 3777TIP3    H111337   0.306   2.943   2.142
 3777TIP3    H211338   0.375   3.077   2.147
 3778TIP3   OH211339   4.035   1.467   0.903
 3778TIP3    H111340   3.988   1.546   0.875
 3778TIP3    H211341   3.968   1.398   0.904
 3779TIP3   OH211342   4.006   5.352   4.991
 3779TIP3    H111343   4.004   5.417   4.921
 3779TIP3    H211344   3.950   5.281   4.960
 3780TIP3   OH211345   1.592   2.273   4.446
 3780TIP3    H111346   1.684   2.294   4.434
 3780TIP3    H211347   1.589   2.177   4.446
 3781TIP3   OH211348   3.344   3.945   4.069
 3781TIP3    H111349   3.286   4.014   4.100
 3781TIP3    H211350   3.357   3.964   3.976
 3782TIP3   OH211351   4.945   4.710   3.432
 3782TIP3    H111352   4.891   4.632   3.445
 3782TIP3    H211353   4.938   4.729   3.338
 3783TIP3   OH211354   4.472   0.542   0.086
 3783TIP3    H111355   4.408   0.549   0.016
 3783TIP3    H211356   4.500   0.450   0.085
 3784TIP3   OH211357   2.251   1.235   3.794
 3784TIP3    H111358   2.215   1.150   3.819
 3784TIP3    H211359   2.265   1.229   3.700
 3785TIP3   OH211360   4.968   3.446   0.528
 3785TIP3    H111361   5.009   3.362   0.506
 3785TIP3    H211362   4.884   3.445   0.482
 3786TIP3   OH211363   5.001   3.847   0.517
 3786TIP3    H111364   5.049   3.806   0.445
 3786TIP3    H211365   4.972   3.774   0.572
 3787TIP3   OH211366   2.787   5.683   1.658
 3787TIP3    H111367   2.775   5.609   1.717
 3787TIP3    H211368   2.699   5.713   1.639
 3788TIP3   OH211369   4.552   0.224   4.446
 3788TIP3    H111370   4.563   0.304   4.395
 3788TIP3    H211371   4.523   0.159   4.382
 3789TIP3   OH211372   1.480   2.068   2.473
 3789TIP3    H111373   1.388   2.042   2.464
 3789TIP3    H211374   1.527   2.011   2.412
 3790TIP3   OH211375   1.080   5.030   2.478
 3790TIP3    H111376   1.011   5.063   2.420
 3790TIP3    H211377   1.078   4.935   2.466
 3791TIP3   OH211378   2.613   2.326   0.105
 3791TIP3    H111379   2.591   2.317   0.012
 3791TIP3    H211380   2.600   2.419   0.124
 3792TIP3   OH211381   3.425   5.734   4.589
 3792TIP3    H111382   3.500   5.764   4.538
 3792TIP3    H211383   3.385   5.814   4.623
 3793TIP3   OH211384   5.145   1.765   0.496
 3793TIP3    H111385   5.218   1.769   0.434
 3793TIP3    H211386   5.173   1.821   0.569
 3794TIP3   OH211387   3.907   0.466   2.629
 3794TIP3    H111388   3.976   0.519   2.589
 3794TIP3    H211389   3.869   0.522   2.697
 3795TIP3   OH211390   2.427   5.879   0.492
 3795TIP3    H111391   2.515   5.902   0.462
 3795TIP3    H211392   2.441   5.818   0.564
 3796TIP3   OH211393   1.658   3.535   3.633
 3796TIP3    H111394   1.750   3.517   3.656
 3796TIP3    H211395   1.613   3.539   3.717
 3797TIP3   OH211396   3.028   3.328   4.488
 3797TIP3    H111397   3.110   3.298   4.451
 3797TIP3    H211398   2.991   3.251   4.532
 3798TIP3   OH211399   1.871   5.023   3.449
 3798TIP3    H111400   1.932   4.978   3.506
 3798TIP3    H211401   1.812   4.954   3.417
 3799TIP3   OH211402   0.806   0.450   3.435
 3799TIP3    H111403   0.856   0.405   3.503
 3799TIP3    H211404   0.873   0.493   3.381
 3800TIP3   OH211405   5.310   3.496   5.087
 3800TIP3    H111406   5.311   3.480   4.993
 3800TIP3    H211407   5.395   3.466   5.118
 3801TIP3   OH211408   5.954   3.848   0.380
 3801TIP3    H111409   5.882   3.889   0.428
 3801TIP3    H211410   5.917   3.767   0.345
 3802TIP3   OH211411   1.569   1.676   0.735
 3802TIP3    H111412   1.601   1.730   0.807
 3802TIP3    H211413   1.608   1.715   0.656
 3803TIP3   OH211414   3.945   0.405   3.048
 3803TIP3    H111415   3.985   0.452   2.975
 3803TIP3    H211416   3.855   0.437   3.051
 3804TIP3   OH211417   1.853   5.751   2.660
 3804TIP3    H111418   1.865   5.747   2.755
 3804TIP3    H211419   1.872   5.842   2.637
 3805TIP3   OH211420   5.757   3.528   0.533
 3805TIP3    H111421   5.842   3.527   0.577
 3805TIP3    H211422   5.772   3.577   0.452
 3806TIP3   OH211423   2.281   2.133   2.420
 3806TIP3    H111424   2.373   2.158   2.408
 3806TIP3    H211425   2.283   2.037   2.420
 3807TIP3   OH211426   5.000   4.496   3.010
 3807TIP3    H111427   4.988   4.402   3.026
 3807TIP3    H211428   5.092   4.512   3.031
 3808TIP3   OH211429   0.504   4.575   4.153
 3808TIP3    H111430   0.447   4.606   4.223
 3808TIP3    H211431   0.516   4.650   4.096
 3809TIP3   OH211432   3.888   4.177   4.412
 3809TIP3    H111433   3.945   4.102   4.427
 3809TIP3    H211434   3.936   4.251   4.450
 3810TIP3   OH211435   3.013   5.969   2.447
 3810TIP3    H111436   2.918   5.979   2.455
 3810TIP3    H211437   3.028   5.875   2.450
 3811TIP3   OH211438   2.891   5.588   1.106
 3811TIP3    H111439   2.933   5.522   1.050
 3811TIP3    H211440   2.899   5.553   1.194
 3812TIP3   OH211441   4.012   1.391   1.313
 3812TIP3    H111442   3.926   1.382   1.273
 3812TIP3    H211443   3.996   1.442   1.393
 3813TIP3   OH211444   6.020   1.781   4.726
 3813TIP3    H111445   5.992   1.729   4.802
 3813TIP3    H211446   6.106   1.816   4.751
 3814TIP3   OH211447   5.142   0.586   4.374
 3814TIP3    H111448   5.215   0.606   4.432
 3814TIP3    H211449   5.073   0.647   4.401
 3815TIP3   OH211450   0.741   0.826   1.011
 3815TIP3    H111451   0.787   0.774   0.945
 3815TIP3    H211452   0.698   0.762   1.067
 3816TIP3   OH211453   2.646   0.211   3.382
 3816TIP3    H111454   2.569   0.268   3.385
 3816TIP3    H211455   2.670   0.208   3.290
 3817TIP3   OH211456   4.293   3.122   0.580
 3817TIP3    H111457   4.291   3.033   0.614
 3817TIP3    H211458   4.276   3.113   0.487
 3818TIP3   OH211459   1.420   5.829   0.577
 3818TIP3    H111460   1.347   5.851   0.518
 3818TIP3    H211461   1.486   5.791   0.519
 3819TIP3   OH211462   5.631   2.494   0.480
 3819TIP3    H111463   5.637   2.570   0.422
 3819TIP3    H211464   5.722   2.473   0.502
 3820TIP3   OH211465   3.324   1.537   2.621
 3820TIP3    H111466   3.347   1.473   2.689
 3820TIP3    H211467   3.360   1.620   2.653
 3821TIP3   OH211468   1.912   4.058   0.764
 3821TIP3    H111469   1.891   4.135   0.711
 3821TIP3    H211470   1.846   4.059   0.834
 3822TIP3   OH211471   4.971   3.169   0.949
 3822TIP3    H111472   5.005   3.079   0.951
 3822TIP3    H211473   4.929   3.176   0.864
 3823TIP3   OH211474   0.497   3.971   2.424
 3823TIP3    H111475   0.535   3.903   2.369
 3823TIP3    H211476   0.407   3.941   2.441
 3824TIP3   OH211477   5.643   3.749   1.447
 3824TIP3    H111478   5.705   3.795   1.391
 3824TIP3    H211479   5.693   3.674   1.481
 3825TIP3   OH211480   3.274   3.198   0.816
 3825TIP3    H111481   3.264   3.189   0.721
 3825TIP3    H211482   3.185   3.208   0.849
 3826TIP3   OH211483   1.064   5.203   0.221
 3826TIP3    H111484   1.065   5.112   0.191
 3826TIP3    H211485   1.152   5.235   0.202
 3827TIP3   OH211486   0.567   1.716   1.190
 3827TIP3    H111487   0.516   1.773   1.132
 3827TIP3    H211488   0.538   1.741   1.278
 3828TIP3   OH211489   6.269   3.978   3.178
 3828TIP3    H111490   6.255   3.885   3.158
 3828TIP3    H211491   6.184   4.008   3.209
 3829TIP3   OH211492   3.061   4.678   2.386
 3829TIP3    H111493   2.989   4.654   2.327
 3829TIP3    H211494   3.119   4.602   2.385
 3830TIP3   OH211495   3.273   0.999   3.836
 3830TIP3    H111496   3.195   0.947   3.814
 3830TIP3    H211497   3.314   0.952   3.908
 3831TIP3   OH211498   2.707   5.184   3.128
 3831TIP3    H111499   2.712   5.100   3.082
 3831TIP3    H211500   2.754   5.170   3.209
 3832TIP3   OH211501   1.516   3.109   0.150
 3832TIP3    H111502   1.446   3.058   0.108
 3832TIP3    H211503   1.573   3.044   0.191
 3833TIP3   OH211504   2.299   2.154   5.019
 3833TIP3    H111505   2.209   2.123   5.014
 3833TIP3    H211506   2.325   2.166   4.927
 3834TIP3   OH211507   6.272   3.576   4.129
 3834TIP3    H111508   6.288   3.629   4.207
 3834TIP3    H211509   6.353   3.528   4.115
 3835TIP3   OH211510   6.066   4.683   4.242
 3835TIP3    H111511   6.094   4.628   4.169
 3835TIP3    H211512   6.142   4.736   4.262
 3836TIP3   OH211513   5.178   1.127   1.817
 3836TIP3    H111514   5.212   1.040   1.838
 3836TIP3    H211515   5.241   1.161   1.752
 3837TIP3   OH211516   0.237   1.952   4.247
 3837TIP3    H111517   0.171   1.927   4.312
 3837TIP3    H211518   0.320   1.945   4.294
 3838TIP3   OH211519   4.765   3.996   1.829
 3838TIP3    H111520   4.821   4.037   1.763
 3838TIP3    H211521   4.747   3.908   1.795
 3839TIP3   OH211522   2.411   3.808   5.135
 3839TIP3    H111523   2.364   3.831   5.215
 3839TIP3    H211524   2.427   3.714   5.143
 3840TIP3   OH211525   0.131   0.827   0.200
 3840TIP3    H111526   0.117   0.910   0.246
 3840TIP3    H211527   0.082   0.763   0.253
 3841TIP3   OH211528   0.370   4.248   1.074
 3841TIP3    H111529   0.331   4.162   1.086
 3841TIP3    H211530   0.318   4.307   1.129
 3842TIP3   OH211531   1.765   1.883   0.222
 3842TIP3    H111532   1.749   1.937   0.144
 3842TIP3    H211533   1.800   1.801   0.187
 3843TIP3   OH211534   3.746   3.625   1.497
 3843TIP3    H111535   3.814   3.583   1.444
 3843TIP3    H211536   3.779   3.714   1.512
 3844TIP3   OH211537   5.756   0.997   2.242
 3844TIP3    H111538   5.764   0.922   2.183
 3844TIP3    H211539   5.841   1.040   2.236
 3845TIP3   OH211540   0.384   3.812   4.155
 3845TIP3    H111541   0.405   3.770   4.238
 3845TIP3    H211542   0.463   3.803   4.102
 3846TIP3   OH211543   5.075   5.482   3.942
 3846TIP3    H111544   5.091   5.423   3.868
 3846TIP3    H211545   5.148   5.544   3.939
 3847TIP3   OH211546   1.047   2.529   2.910
 3847TIP3    H111547   1.083   2.578   2.983
 3847TIP3    H211548   1.072   2.438   2.927
 3848TIP3   OH211549   4.820   0.801   0.472
 3848TIP3    H111550   4.873   0.807   0.552
 3848TIP3    H211551   4.801   0.892   0.449
 3849TIP3   OH211552   4.203   1.871   0.636
 3849TIP3    H111553   4.207   1.864   0.541
 3849TIP3    H211554   4.255   1.797   0.667
 3850TIP3   OH211555   3.152   4.728   3.291
 3850TIP3    H111556   3.218   4.786   3.251
 3850TIP3    H211557   3.125   4.774   3.370
 3851TIP3   OH211558   5.758   1.555   0.514
 3851TIP3    H111559   5.835   1.501   0.497
 3851TIP3    H211560   5.757   1.619   0.442
 3852TIP3   OH211561   5.979   2.343   1.953
 3852TIP3    H111562   5.963   2.415   2.014
 3852TIP3    H211563   5.900   2.339   1.899
 3853TIP3   OH211564   0.245   3.720   3.379
 3853TIP3    H111565   0.310   3.655   3.353
 3853TIP3    H211566   0.165   3.668   3.395
 3854TIP3   OH211567   5.968   0.786   4.585
 3854TIP3    H111568   6.044   0.801   4.529
 3854TIP3    H211569   5.900   0.753   4.526
 3855TIP3   OH211570   4.613   1.654   0.930
 3855TIP3    H111571   4.570   1.736   0.904
 3855TIP3    H211572   4.546   1.606   0.979
 3856TIP3   OH211573   2.577   3.741   4.452
 3856TIP3    H111574   2.630   3.799   4.397
 3856TIP3    H211575   2.595   3.770   4.541
 3857TIP3   OH211576   0.596   4.999   0.123
 3857TIP3    H111577   0.592   5.021   0.030
 3857TIP3    H211578   0.545   4.918   0.130
 3858TIP3   OH211579   2.019   5.739   0.075
 3858TIP3    H111580   2.107   5.721   0.107
 3858TIP3    H211581   1.975   5.653   0.076
 3859TIP3   OH211582   6.310   5.149   2.054
 3859TIP3    H111583   6.301   5.243   2.067
 3859TIP3    H211584   6.329   5.114   2.141
 3860TIP3   OH211585   3.912   2.340   1.229
 3860TIP3    H111586   3.902   2.296   1.313
 3860TIP3    H211587   3.831   2.389   1.218
 3861TIP3   OH211588   2.822   3.916   3.619
 3861TIP3    H111589   2.862   3.883   3.538
 3861TIP3    H211590   2.862   3.864   3.688
 3862TIP3   OH211591   5.624   3.112   4.715
 3862TIP3    H111592   5.571   3.174   4.665
 3862TIP3    H211593   5.672   3.062   4.648
 3863TIP3   OH211594   5.525   1.788   4.051
 3863TIP3    H111595   5.604   1.753   4.092
 3863TIP3    H211596   5.549   1.803   3.960
 3864TIP3   OH211597   3.741   3.928   4.661
 3864TIP3    H111598   3.778   3.926   4.573
 3864TIP3    H211599   3.815   3.950   4.718
 3865TIP3   OH211600   1.395   1.210   1.145
 3865TIP3    H111601   1.341   1.232   1.070
 3865TIP3    H211602   1.382   1.282   1.207
 3866TIP3   OH211603   5.656   2.017   3.634
 3866TIP3    H111604   5.747   2.031   3.660
 3866TIP3    H211605   5.649   1.922   3.622
 3867TIP3   OH211606   0.243   5.026   0.233
 3867TIP3    H111607   0.163   4.976   0.251
 3867TIP3    H211608   0.223   5.078   0.156
 3868TIP3   OH211609   0.916   3.105   0.579
 3868TIP3    H111610   0.983   3.057   0.530
 3868TIP3    H211611   0.860   3.038   0.616
 3869TIP3   OH211612   0.762   3.211   2.453
 3869TIP3    H111613   0.775   3.134   2.399
 3869TIP3    H211614   0.702   3.266   2.403
 3870TIP3   OH211615   0.695   4.677   3.500
 3870TIP3    H111616   0.654   4.668   3.414
 3870TIP3    H211617   0.687   4.770   3.521
 3871TIP3   OH211618   1.930   3.425   3.643
 3871TIP3    H111619   1.895   3.374   3.715
 3871TIP3    H211620   1.987   3.490   3.684
 3872TIP3   OH211621   3.478   1.908   3.445
 3872TIP3    H111622   3.433   1.857   3.377
 3872TIP3    H211623   3.556   1.856   3.466
 3873TIP3   OH211624   2.622   1.814   2.782
 3873TIP3    H111625   2.553   1.780   2.840
 3873TIP3    H211626   2.700   1.818   2.838
 3874TIP3   OH211627   5.898   3.714   4.729
 3874TIP3    H111628   5.975   3.725   4.673
 3874TIP3    H211629   5.826   3.696   4.668
 3875TIP3   OH211630   0.187   1.130   4.843
 3875TIP3    H111631   0.249   1.188   4.798
 3875TIP3    H211632   0.242   1.061   4.881
 3876TIP3   OH211633   2.183   2.341   1.197
 3876TIP3    H111634   2.174   2.436   1.189
 3876TIP3    H211635   2.127   2.305   1.128
 3877TIP3   OH211636   5.329   0.397   3.782
 3877TIP3    H111637   5.423   0.395   3.798
 3877TIP3    H211638   5.317   0.343   3.703
 3878TIP3   OH211639   4.734   2.052   1.881
 3878TIP3    H111640   4.763   2.039   1.792
 3878TIP3    H211641   4.754   1.970   1.926
 3879TIP3   OH211642   2.140   3.405   4.622
 3879TIP3    H111643   2.176   3.492   4.641
 3879TIP3    H211644   2.213   3.346   4.638
 3880TIP3   OH211645   5.256   3.473   4.654
 3880TIP3    H111646   5.180   3.422   4.682
 3880TIP3    H211647   5.235   3.563   4.675
 3881TIP3   OH211648   1.652   1.969   1.717
 3881TIP3    H111649   1.583   1.909   1.744
 3881TIP3    H211650   1.730   1.939   1.764
 3882TIP3   OH211651   3.811   3.864   0.162
 3882TIP3    H111652   3.732   3.916   0.160
 3882TIP3    H211653   3.873   3.911   0.106
 3883TIP3   OH211654   0.277   3.923   3.202
 3883TIP3    H111655   0.268   3.870   3.282
 3883TIP3    H211656   0.209   3.989   3.210
 3884TIP3   OH211657   1.067   2.711   2.116
 3884TIP3    H111658   1.141   2.725   2.058
 3884TIP3    H211659   0.992   2.701   2.057
 3885TIP3   OH211660   1.244   3.848   0.771
 3885TIP3    H111661   1.233   3.918   0.706
 3885TIP3    H211662   1.157   3.812   0.783
 3886TIP3   OH211663   2.758   4.774   1.758
 3886TIP3    H111664   2.850   4.754   1.739
 3886TIP3    H211665   2.709   4.731   1.688
 3887TIP3   OH211666   3.506   4.277   1.162
 3887TIP3    H111667   3.478   4.306   1.076
 3887TIP3    H211668   3.434   4.222   1.194
 3888TIP3   OH211669   4.044   4.341   0.105
 3888TIP3    H111670   4.075   4.364   0.017
 3888TIP3    H211671   3.997   4.419   0.135
 3889TIP3   OH211672   4.073   0.591   4.571
 3889TIP3    H111673   4.082   0.686   4.563
 3889TIP3    H211674   3.978   0.576   4.575
 3890TIP3   OH211675   5.153   4.432   3.461
 3890TIP3    H111676   5.093   4.489   3.509
 3890TIP3    H211677   5.158   4.352   3.514
 3891TIP3   OH211678   5.484   3.319   0.090
 3891TIP3    H111679   5.570   3.307   0.131
 3891TIP3    H211680   5.493   3.401   0.041
 3892TIP3   OH211681   5.004   2.200   0.173
 3892TIP3    H111682   5.086   2.248   0.180
 3892TIP3    H211683   5.027   2.109   0.193
 3893TIP3   OH211684   0.370   2.694   4.541
 3893TIP3    H111685   0.414   2.697   4.626
 3893TIP3    H211686   0.424   2.748   4.484
 3894TIP3   OH211687   0.977   3.207   1.732
 3894TIP3    H111688   0.893   3.214   1.778
 3894TIP3    H211689   0.954   3.186   1.642
 3895TIP3   OH211690   0.677   1.730   4.449
 3895TIP3    H111691   0.625   1.697   4.521
 3895TIP3    H211692   0.767   1.708   4.471
 3896TIP3   OH211693   4.728   3.731   4.604
 3896TIP3    H111694   4.644   3.693   4.577
 3896TIP3    H211695   4.757   3.675   4.676
 3897TIP3   OH211696   3.661   4.647   4.433
 3897TIP3    H111697   3.679   4.667   4.341
 3897TIP3    H211698   3.590   4.584   4.430
 3898TIP3   OH211699   2.011   0.608   3.119
 3898TIP3    H111700   1.930   0.630   3.164
 3898TIP3    H211701   1.992   0.622   3.026
 3899TIP3   OH211702   5.773   4.282   4.953
 3899TIP3    H111703   5.727   4.218   5.006
 3899TIP3    H211704   5.767   4.249   4.863
 3900TIP3   OH211705   0.518   0.157   1.525
 3900TIP3    H111706   0.425   0.171   1.507
 3900TIP3    H211707   0.558   0.242   1.510
 3901TIP3   OH211708   4.434   3.211   1.093
 3901TIP3    H111709   4.393   3.204   1.006
 3901TIP3    H211710   4.360   3.224   1.152
 3902TIP3   OH211711   0.072   4.575   4.889
 3902TIP3    H111712   0.021   4.598   4.811
 3902TIP3    H211713   0.153   4.537   4.854
 3903TIP3   OH211714   3.490   0.679   4.519
 3903TIP3    H111715   3.411   0.704   4.471
 3903TIP3    H211716   3.481   0.585   4.531
 3904TIP3   OH211717   2.518   0.406   0.696
 3904TIP3    H111718   2.490   0.353   0.621
 3904TIP3    H211719   2.574   0.348   0.747
 3905TIP3   OH211720   1.346   5.743   1.876
 3905TIP3    H111721   1.303   5.778   1.954
 3905TIP3    H211722   1.368   5.821   1.824
 3906TIP3   OH211723   0.200   1.668   2.818
 3906TIP3    H111724   0.166   1.693   2.733
 3906TIP3    H211725   0.131   1.614   2.857
 3907TIP3   OH211726   1.451   5.756   2.469
 3907TIP3    H111727   1.391   5.831   2.471
 3907TIP3    H211728   1.395   5.679   2.469
 3908TIP3   OH211729   1.092   5.285   0.493
 3908TIP3    H111730   1.074   5.214   0.554
 3908TIP3    H211731   1.087   5.244   0.407
 3909TIP3   OH211732   2.342   5.061   0.373
 3909TIP3    H111733   2.361   5.152   0.348
 3909TIP3    H211734   2.427   5.019   0.378
 3910TIP3   OH211735   2.398   1.653   3.697
 3910TIP3    H111736   2.454   1.662   3.774
 3910TIP3    H211737   2.314   1.691   3.723
 3911TIP3   OH211738   1.608   0.050   0.039
 3911TIP3    H111739   1.519   0.016   0.045
 3911TIP3    H211740   1.650  -0.004  -0.027
 3912TIP3   OH211741   5.997   3.333   0.146
 3912TIP3    H111742   6.054   3.404   0.175
 3912TIP3    H211743   6.048   3.286   0.081
 3913TIP3   OH211744   3.321   1.089   1.903
 3913TIP3    H111745   3.376   1.136   1.966
 3913TIP3    H211746   3.358   1.113   1.817
 3914TIP3   OH211747   0.849   1.382   4.442
 3914TIP3    H111748   0.905   1.454   4.471
 3914TIP3    H211749   0.903   1.333   4.379
 3915TIP3   OH211750   3.888   0.280   2.413
 3915TIP3    H111751   3.799   0.279   2.449
 3915TIP3    H211752   3.936   0.343   2.467
 3916TIP3   OH211753   4.817   2.995   3.067
 3916TIP3    H111754   4.742   3.021   3.121
 3916TIP3    H211755   4.780   2.941   2.998
 3917TIP3   OH211756   0.576   4.796   2.739
 3917TIP3    H111757   0.480   4.803   2.735
 3917TIP3    H211758   0.599   4.838   2.821
 3918TIP3   OH211759   2.006   0.153   1.559
 3918TIP3    H111760   1.929   0.126   1.610
 3918TIP3    H211761   2.022   0.081   1.498
 3919TIP3   OH211762   2.042   4.340   0.315
 3919TIP3    H111763   2.042   4.435   0.308
 3919TIP3    H211764   1.978   4.321   0.383
 3920TIP3   OH211765   2.562   5.315   1.623
 3920TIP3    H111766   2.497   5.379   1.652
 3920TIP3    H211767   2.533   5.232   1.662
 3921TIP3   OH211768   1.854   3.145   2.077
 3921TIP3    H111769   1.860   3.190   2.161
 3921TIP3    H211770   1.944   3.131   2.050
 3922TIP3   OH211771   5.200   3.627   4.211
 3922TIP3    H111772   5.259   3.680   4.265
 3922TIP3    H211773   5.257   3.588   4.145
 3923TIP3   OH211774   1.281   3.474   0.902
 3923TIP3    H111775   1.201   3.431   0.931
 3923TIP3    H211776   1.250   3.547   0.847
 3924TIP3   OH211777   3.567   4.763   2.089
 3924TIP3    H111778   3.609   4.689   2.044
 3924TIP3    H211779   3.501   4.722   2.145
 3925TIP3   OH211780   3.727   1.594   4.323
 3925TIP3    H111781   3.810   1.603   4.276
 3925TIP3    H211782   3.672   1.664   4.289
 3926TIP3   OH211783   5.707   4.477   0.837
 3926TIP3    H111784   5.654   4.397   0.845
 3926TIP3    H211785   5.643   4.546   0.819
 3927TIP3   OH211786   5.185   4.204   2.178
 3927TIP3    H111787   5.115   4.224   2.115
 3927TIP3    H211788   5.190   4.108   2.177
 3928TIP3   OH211789   4.974   4.037   1.484
 3928TIP3    H111790   4.927   3.957   1.461
 3928TIP3    H211791   4.974   4.088   1.403
 3929TIP3   OH211792   2.374   3.848   4.111
 3929TIP3    H111793   2.331   3.813   4.189
 3929TIP3    H211794   2.377   3.942   4.126
 3930TIP3   OH211795   2.394   4.211   2.149
 3930TIP3    H111796   2.329   4.156   2.192
 3930TIP3    H211797   2.446   4.150   2.097
 3931TIP3   OH211798   4.037   1.370   2.013
 3931TIP3    H111799   4.031   1.328   2.099
 3931TIP3    H211800   4.109   1.432   2.022
 3932TIP3   OH211801   0.331   4.761   4.301
 3932TIP3    H111802   0.312   4.814   4.224
 3932TIP3    H211803   0.247   4.722   4.325
 3933TIP3   OH211804   1.740   1.772   4.625
 3933TIP3    H111805   1.775   1.861   4.620
 3933TIP3    H211806   1.695   1.759   4.542
 3934TIP3   OH211807   4.437   2.458   3.667
 3934TIP3    H111808   4.363   2.447   3.727
 3934TIP3    H211809   4.451   2.553   3.664
 3935TIP3   OH211810   4.217   5.416   5.171
 3935TIP3    H111811   4.185   5.506   5.173
 3935TIP3    H211812   4.159   5.371   5.109
 3936TIP3   OH211813   1.236   1.340   1.620
 3936TIP3    H111814   1.262   1.432   1.620
 3936TIP3    H211815   1.315   1.292   1.646
 3937TIP3   OH211816   4.253   2.897   2.265
 3937TIP3    H111817   4.219   2.923   2.351
 3937TIP3    H211818   4.321   2.833   2.285
 3938TIP3   OH211819   3.535   0.588   3.574
 3938TIP3    H111820   3.622   0.570   3.609
 3938TIP3    H211821   3.548   0.594   3.479
 3939TIP3   OH211822   1.181   3.579   2.265
 3939TIP3    H111823   1.222   3.495   2.245
 3939TIP3    H211824   1.090   3.557   2.287
 3940TIP3   OH211825   5.659   1.391   4.306
 3940TIP3    H111826   5.619   1.306   4.321
 3940TIP3    H211827   5.653   1.404   4.211
 3941TIP3   OH211828   4.651   5.232   0.615
 3941TIP3    H111829   4.661   5.207   0.524
 3941TIP3    H211830   4.740   5.252   0.645
 3942TIP3   OH211831   5.912   1.710   1.538
 3942TIP3    H111832   5.883   1.637   1.483
 3942TIP3    H211833   5.979   1.671   1.595
 3943TIP3   OH211834   4.466   3.472   0.190
 3943TIP3    H111835   4.443   3.565   0.193
 3943TIP3    H211836   4.465   3.444   0.281
 3944TIP3   OH211837   3.827   0.145   3.158
 3944TIP3    H111838   3.904   0.091   3.139
 3944TIP3    H211839   3.837   0.222   3.102
 3945TIP3   OH211840   1.516   3.559   0.579
 3945TIP3    H111841   1.532   3.624   0.648
 3945TIP3    H211842   1.431   3.584   0.542
 3946TIP3   OH211843   4.464   0.817   3.046
 3946TIP3    H111844   4.487   0.736   2.999
 3946TIP3    H211845   4.481   0.797   3.138
 3947TIP3   OH211846   1.511   2.370   3.820
 3947TIP3    H111847   1.429   2.333   3.852
 3947TIP3    H211848   1.508   2.462   3.847
 3948TIP3   OH211849   2.891   3.797   4.568
 3948TIP3    H111850   2.867   3.705   4.576
 3948TIP3    H211851   2.950   3.800   4.492
 3949TIP3   OH211852   3.529   5.815   1.359
 3949TIP3    H111853   3.584   5.779   1.290
 3949TIP3    H211854   3.504   5.902   1.327
 3950TIP3   OH211855   0.115   2.915   5.051
 3950TIP3    H111856   0.108   3.004   5.084
 3950TIP3    H211857   0.135   2.862   5.128
 3951TIP3   OH211858   2.052   2.529   2.059
 3951TIP3    H111859   2.021   2.440   2.074
 3951TIP3    H211860   2.031   2.547   1.967
 3952TIP3   OH211861   4.355   3.494   2.222
 3952TIP3    H111862   4.343   3.543   2.140
 3952TIP3    H211863   4.427   3.434   2.203
 3953TIP3   OH211864   2.676   2.449   3.856
 3953TIP3    H111865   2.658   2.358   3.832
 3953TIP3    H211866   2.725   2.484   3.782
 3954TIP3   OH211867   0.657   3.475   3.237
 3954TIP3    H111868   0.661   3.427   3.154
 3954TIP3    H211869   0.745   3.508   3.250
 3955TIP3   OH211870   4.208   3.949   4.022
 3955TIP3    H111871   4.303   3.953   4.011
 3955TIP3    H211872   4.191   4.001   4.100
 3956TIP3   OH211873   5.746   3.036   1.991
 3956TIP3    H111874   5.670   2.986   1.960
 3956TIP3    H211875   5.753   3.013   2.084
 3957TIP3   OH211876   4.210   0.246   3.159
 3957TIP3    H111877   4.143   0.271   3.095
 3957TIP3    H211878   4.176   0.168   3.201
 3958TIP3   OH211879   3.827   1.787   4.682
 3958TIP3    H111880   3.893   1.798   4.613
 3958TIP3    H211881   3.845   1.701   4.720
 3959TIP3   OH211882   5.404   1.282   4.733
 3959TIP3    H111883   5.434   1.208   4.680
 3959TIP3    H211884   5.424   1.359   4.680
 3960TIP3   OH211885   2.607   0.049   1.614
 3960TIP3    H111886   2.534   0.095   1.573
 3960TIP3    H211887   2.614   0.087   1.701
 3961TIP3   OH211888   5.129   0.861   1.480
 3961TIP3    H111889   5.108   0.951   1.453
 3961TIP3    H211890   5.048   0.812   1.465
 3962TIP3   OH211891   3.230   3.585   5.036
 3962TIP3    H111892   3.190   3.666   5.004
 3962TIP3    H211893   3.260   3.540   4.957
 3963TIP3   OH211894   0.933   2.059   4.685
 3963TIP3    H111895   0.872   2.083   4.615
 3963TIP3    H211896   1.019   2.081   4.649
 3964TIP3   OH211897   1.285   2.832   2.362
 3964TIP3    H111898   1.359   2.833   2.302
 3964TIP3    H211899   1.297   2.911   2.416
 3965TIP3   OH211900   1.660   3.326   5.020
 3965TIP3    H111901   1.612   3.277   5.088
 3965TIP3    H211902   1.719   3.383   5.069
 3966TIP3   OH211903   4.745   0.606   0.153
 3966TIP3    H111904   4.796   0.586   0.075
 3966TIP3    H211905   4.654   0.604   0.124
 3967TIP3   OH211906   3.714   1.097   4.527
 3967TIP3    H111907   3.676   1.064   4.609
 3967TIP3    H211908   3.717   1.021   4.469
 3968TIP3   OH211909   2.669   1.498   0.549
 3968TIP3    H111910   2.612   1.541   0.485
 3968TIP3    H211911   2.658   1.550   0.629
 3969TIP3   OH211912   5.984   3.346   3.044
 3969TIP3    H111913   5.966   3.440   3.036
 3969TIP3    H211914   6.047   3.340   3.116
 3970TIP3   OH211915   5.957   5.653   3.813
 3970TIP3    H111916   5.931   5.665   3.904
 3970TIP3    H211917   6.047   5.619   3.818
 3971TIP3   OH211918   2.537   1.337   4.915
 3971TIP3    H111919   2.510   1.428   4.900
 3971TIP3    H211920   2.548   1.330   5.009
 3972TIP3   OH211921   0.201   0.285   4.182
 3972TIP3    H111922   0.222   0.211   4.125
 3972TIP3    H211923   0.274   0.290   4.243
 3973TIP3   OH211924   4.501   4.922   4.745
 3973TIP3    H111925   4.462   4.981   4.809
 3973TIP3    H211926   4.456   4.838   4.759
 3974TIP3   OH211927   6.187   0.150   4.155
 3974TIP3    H111928   6.258   0.097   4.191
 3974TIP3    H211929   6.127   0.164   4.228
 3975TIP3   OH211930   2.763   1.310   3.328
 3975TIP3    H111931   2.679   1.270   3.303
 3975TIP3    H211932   2.767   1.391   3.277
 3976TIP3   OH211933   1.902   1.534   2.334
 3976TIP3    H111934   1.927   1.626   2.337
 3976TIP3    H211935   1.823   1.529   2.388
 3977TIP3   OH211936   5.910   3.965   0.819
 3977TIP3    H111937   5.998   3.930   0.831
 3977TIP3    H211938   5.902   4.033   0.885
 3978TIP3   OH211939   5.490   3.080   0.403
 3978TIP3    H111940   5.518   3.143   0.469
 3978TIP3    H211941   5.429   3.129   0.348
 3979TIP3   OH211942   2.424   1.589   3.380
 3979TIP3    H111943   2.428   1.532   3.457
 3979TIP3    H211944   2.472   1.541   3.312
 3980TIP3   OH211945   3.738   0.453  -0.061
 3980TIP3    H111946   3.780   0.368  -0.049
 3980TIP3    H211947   3.732   0.489   0.027
 3981TIP3   OH211948   2.255   2.564   4.252
 3981TIP3    H111949   2.220   2.493   4.199
 3981TIP3    H211950   2.305   2.520   4.320
 3982TIP3   OH211951   2.994   1.317   1.964
 3982TIP3    H111952   3.034   1.284   1.884
 3982TIP3    H211953   3.051   1.287   2.035
 3983TIP3   OH211954   1.821   4.663   3.592
 3983TIP3    H111955   1.737   4.642   3.553
 3983TIP3    H211956   1.842   4.587   3.646
 3984TIP3   OH211957   3.154   1.595   2.227
 3984TIP3    H111958   3.185   1.686   2.226
 3984TIP3    H211959   3.076   1.596   2.171
 3985TIP3   OH211960   3.266   5.408   2.781
 3985TIP3    H111961   3.209   5.390   2.855
 3985TIP3    H211962   3.265   5.328   2.728
 3986TIP3   OH211963   4.936   3.143   1.704
 3986TIP3    H111964   4.964   3.183   1.621
 3986TIP3    H211965   4.902   3.216   1.756
 3987TIP3   OH211966   4.598   2.401   4.453
 3987TIP3    H111967   4.589   2.473   4.515
 3987TIP3    H211968   4.573   2.439   4.368
 3988TIP3   OH211969   4.692   2.143   1.371
 3988TIP3    H111970   4.606   2.106   1.356
 3988TIP3    H211971   4.708   2.200   1.296
 3989TIP3   OH211972   4.627   0.395   0.982
 3989TIP3    H111973   4.610   0.314   0.934
 3989TIP3    H211974   4.622   0.369   1.074
 3990TIP3   OH211975   5.967   3.420   2.530
 3990TIP3    H111976   6.043   3.361   2.531
 3990TIP3    H211977   5.898   3.372   2.575
 3991TIP3   OH211978   3.986   5.563   0.203
 3991TIP3    H111979   4.023   5.642   0.243
 3991TIP3    H211980   3.967   5.505   0.276
 3992TIP3   OH211981   5.600   3.477   2.148
 3992TIP3    H111982   5.685   3.444   2.178
 3992TIP3    H211983   5.620   3.562   2.107
 3993TIP3   OH211984   1.491   5.885   3.552
 3993TIP3    H111985   1.440   5.807   3.529
 3993TIP3    H211986   1.537   5.909   3.472
 3994TIP3   OH211987   2.511   2.354   4.237
 3994TIP3    H111988   2.505   2.278   4.179
 3994TIP3    H211989   2.570   2.327   4.307
 3995TIP3   OH211990   0.798   4.499   4.200
 3995TIP3    H111991   0.728   4.561   4.181
 3995TIP3    H211992   0.754   4.416   4.215
 3996TIP3   OH211993   6.294   0.216   0.421
 3996TIP3    H111994   6.320   0.206   0.330
 3996TIP3    H211995   6.227   0.149   0.434
 3997TIP3   OH211996   4.179   4.977   3.295
 3997TIP3    H111997   4.098   5.008   3.255
 3997TIP3    H211998   4.201   4.898   3.247
 3998TIP3   OH211999   3.350   3.154   2.921
 3998TIP3    H112000   3.316   3.238   2.893
 3998TIP3    H212001   3.330   3.094   2.849
 3999TIP3   OH212002   1.689   5.311   2.550
 3999TIP3    H112003   1.630   5.359   2.608
 3999TIP3    H212004   1.675   5.350   2.463
 4000TIP3   OH212005   4.896   4.632   4.074
 4000TIP3    H112006   4.897   4.713   4.023
 4000TIP3    H212007   4.983   4.594   4.059
 4001TIP3   OH212008   4.522   2.485   0.776
 4001TIP3    H112009   4.444   2.449   0.732
 4001TIP3    H212010   4.595   2.452   0.725
 4002TIP3   OH212011   6.131   2.240   3.733
 4002TIP3    H112012   6.069   2.309   3.709
 4002TIP3    H212013   6.217   2.276   3.710
 4003TIP3   OH212014   1.734   4.849   3.778
 4003TIP3    H112015   1.736   4.940   3.751
 4003TIP3    H212016   1.802   4.806   3.725
 4004TIP3   OH212017   2.700   4.744   0.005
 4004TIP3    H112018   2.708   4.668  -0.053
 4004TIP3    H212019   2.721   4.819  -0.051
 4005TIP3   OH212020   5.426   4.766   1.286
 4005TIP3    H112021   5.473   4.748   1.367
 4005TIP3    H212022   5.476   4.721   1.218
 4006TIP3   OH212023   2.107   0.496   2.290
 4006TIP3    H112024   2.043   0.435   2.326
 4006TIP3    H212025   2.101   0.484   2.195
 4007TIP3   OH212026   4.743   0.262   4.111
 4007TIP3    H112027   4.784   0.346   4.133
 4007TIP3    H212028   4.767   0.204   4.183
 4008TIP3   OH212029   4.206   0.081   2.409
 4008TIP3    H112030   4.133   0.109   2.353
 4008TIP3    H212031   4.246   0.009   2.360
 4009TIP3   OH212032   2.567  -0.051   3.461
 4009TIP3    H112033   2.486  -0.065   3.414
 4009TIP3    H212034   2.605   0.028   3.422
 4010TIP3   OH212035   6.037   1.553   0.974
 4010TIP3    H112036   6.023   1.646   0.954
 4010TIP3    H212037   6.089   1.554   1.055
 4011TIP3   OH212038   4.400   4.962   2.160
 4011TIP3    H112039   4.399   4.989   2.068
 4011TIP3    H212040   4.314   4.924   2.175
 4012TIP3   OH212041   4.298   5.274   4.236
 4012TIP3    H112042   4.281   5.330   4.312
 4012TIP3    H212043   4.224   5.291   4.178
 4013TIP3   OH212044   1.031   2.086   0.826
 4013TIP3    H112045   0.960   2.149   0.813
 4013TIP3    H212046   1.111   2.137   0.813
 4014TIP3   OH212047   5.181   5.943   2.947
 4014TIP3    H112048   5.262   5.924   2.995
 4014TIP3    H212049   5.197   6.029   2.908
 4015TIP3   OH212050   6.309   4.066   1.639
 4015TIP3    H112051   6.404   4.057   1.642
 4015TIP3    H212052   6.293   4.160   1.633
 4016TIP3   OH212053   0.135   2.480   2.871
 4016TIP3    H112054   0.186   2.546   2.825
 4016TIP3    H212055   0.045   2.496   2.843
 4017TIP3   OH212056   3.961   3.766   2.260
 4017TIP3    H112057   4.010   3.790   2.339
 4017TIP3    H212058   3.890   3.831   2.255
 4018TIP3   OH212059   3.942   0.880   4.702
 4018TIP3    H112060   3.925   0.865   4.609
 4018TIP3    H212061   3.920   0.797   4.745
 4019TIP3   OH212062   4.317   3.946   2.693
 4019TIP3    H112063   4.323   3.963   2.599
 4019TIP3    H212064   4.400   3.903   2.714
 4020TIP3   OH212065   0.474   2.076   2.735
 4020TIP3    H112066   0.384   2.102   2.753
 4020TIP3    H212067   0.509   2.046   2.819
 4021TIP3   OH212068   4.495   2.776   0.759
 4021TIP3    H112069   4.421   2.808   0.706
 4021TIP3    H212070   4.480   2.682   0.768
 4022TIP3   OH212071   5.618   4.596   2.463
 4022TIP3    H112072   5.623   4.503   2.441
 4022TIP3    H212073   5.682   4.638   2.405
 4023TIP3   OH212074   4.358   5.267   3.119
 4023TIP3    H112075   4.327   5.357   3.130
 4023TIP3    H212076   4.278   5.215   3.109
 4024TIP3   OH212077   1.226   0.796   3.425
 4024TIP3    H112078   1.193   0.857   3.491
 4024TIP3    H212079   1.166   0.807   3.351
 4025TIP3   OH212080   4.668   4.429   1.925
 4025TIP3    H112081   4.751   4.456   1.886
 4025TIP3    H212082   4.690   4.351   1.976
 4026TIP3   OH212083   1.190   4.405   2.173
 4026TIP3    H112084   1.101   4.369   2.181
 4026TIP3    H212085   1.232   4.382   2.256
 4027TIP3   OH212086   0.785   2.227   0.786
 4027TIP3    H112087   0.694   2.208   0.805
 4027TIP3    H212088   0.802   2.181   0.703
 4028TIP3   OH212089   5.898   2.474   2.178
 4028TIP3    H112090   5.870   2.562   2.203
 4028TIP3    H212091   5.845   2.415   2.233
 4029TIP3   OH212092   2.889   3.784   2.409
 4029TIP3    H112093   2.875   3.693   2.435
 4029TIP3    H212094   2.909   3.778   2.315
 4030TIP3   OH212095   1.437   1.270   5.090
 4030TIP3    H112096   1.379   1.194   5.085
 4030TIP3    H212097   1.424   1.315   5.006
 4031TIP3   OH212098   0.466   5.586   3.311
 4031TIP3    H112099   0.456   5.580   3.406
 4031TIP3    H212100   0.538   5.648   3.298
 4032TIP3   OH212101   5.241   3.711   1.878
 4032TIP3    H112102   5.322   3.677   1.839
 4032TIP3    H212103   5.178   3.711   1.807
 4033TIP3   OH212104   3.750   1.459   4.756
 4033TIP3    H112105   3.767   1.432   4.846
 4033TIP3    H212106   3.815   1.411   4.704
 4034TIP3   OH212107   5.355   0.814   4.435
 4034TIP3    H112108   5.340   0.773   4.520
 4034TIP3    H212109   5.450   0.826   4.431
 4035TIP3   OH212110   4.596   5.607   2.322
 4035TIP3    H112111   4.622   5.625   2.232
 4035TIP3    H212112   4.677   5.578   2.365
 4036TIP3   OH212113   2.501   3.299   1.036
 4036TIP3    H112114   2.596   3.289   1.034
 4036TIP3    H212115   2.485   3.381   0.990
 4037TIP3   OH212116   1.936   4.494   2.468
 4037TIP3    H112117   2.021   4.536   2.453
 4037TIP3    H212118   1.916   4.450   2.385
 4038TIP3   OH212119   4.396   1.747   1.241
 4038TIP3    H112120   4.342   1.718   1.167
 4038TIP3    H212121   4.368   1.693   1.314
 4039TIP3   OH212122   4.869   3.430   1.389
 4039TIP3    H112123   4.877   3.360   1.324
 4039TIP3    H212124   4.907   3.507   1.346
 4040TIP3   OH212125   2.756   0.651   2.157
 4040TIP3    H112126   2.782   0.560   2.142
 4040TIP3    H212127   2.776   0.666   2.250
 4041TIP3   OH212128   0.866   4.718   0.268
 4041TIP3    H112129   0.918   4.644   0.300
 4041TIP3    H212130   0.812   4.743   0.343
 4042TIP3   OH212131   1.585   3.129   1.313
 4042TIP3    H112132   1.567   3.218   1.342
 4042TIP3    H212133   1.515   3.077   1.353
 4043TIP3   OH212134   2.050   3.006   3.949
 4043TIP3    H112135   2.130   3.058   3.939
 4043TIP3    H212136   2.021   3.024   4.038
 4044TIP3   OH212137   3.040   2.863   3.557
 4044TIP3    H112138   3.017   2.772   3.575
 4044TIP3    H212139   2.962   2.913   3.580
 4045TIP3   OH212140   3.694   4.507   0.424
 4045TIP3    H112141   3.732   4.420   0.439
 4045TIP3    H212142   3.701   4.551   0.508
 4046TIP3   OH212143   3.336   4.652   1.058
 4046TIP3    H112144   3.243   4.670   1.052
 4046TIP3    H212145   3.363   4.691   1.141
 4047TIP3   OH212146   4.106   0.650   2.514
 4047TIP3    H112147   4.124   0.691   2.599
 4047TIP3    H212148   4.142   0.711   2.450
 4048TIP3   OH212149   0.103   1.956   2.891
 4048TIP3    H112150   0.164   1.883   2.888
 4048TIP3    H212151   0.158   2.034   2.897
 4049TIP3   OH212152   0.851   3.180   4.491
 4049TIP3    H112153   0.838   3.130   4.411
 4049TIP3    H212154   0.920   3.243   4.469
 4050TIP3   OH212155   1.754   5.080   4.078
 4050TIP3    H112156   1.742   5.125   3.994
 4050TIP3    H212157   1.745   5.149   4.144
 4051TIP3   OH212158   3.086   1.700   0.178
 4051TIP3    H112159   3.122   1.642   0.245
 4051TIP3    H212160   3.154   1.766   0.164
 4052TIP3   OH212161   0.989   1.867   5.069
 4052TIP3    H112162   1.059   1.892   5.010
 4052TIP3    H212163   0.926   1.820   5.014
 4053TIP3   OH212164   2.462   0.057   4.438
 4053TIP3    H112165   2.453   0.144   4.399
 4053TIP3    H212166   2.553   0.055   4.468
 4054TIP3   OH212167   5.369   0.457   1.226
 4054TIP3    H112168   5.302   0.406   1.180
 4054TIP3    H212169   5.429   0.392   1.262
 4055TIP3   OH212170   5.095   3.064   3.062
 4055TIP3    H112171   5.123   3.002   3.130
 4055TIP3    H212172   5.005   3.037   3.041
 4056TIP3   OH212173   4.633   3.287   4.823
 4056TIP3    H112174   4.553   3.263   4.775
 4056TIP3    H212175   4.698   3.223   4.794
 4057TIP3   OH212176   1.995   4.730   4.500
 4057TIP3    H112177   1.959   4.783   4.571
 4057TIP3    H212178   2.026   4.794   4.436
 4058TIP3   OH212179   1.973   1.681   0.637
 4058TIP3    H112180   2.044   1.633   0.594
 4058TIP3    H212181   1.945   1.745   0.571
 4059TIP3   OH212182   5.630   2.967   4.102
 4059TIP3    H112183   5.696   3.035   4.116
 4059TIP3    H212184   5.575   2.970   4.180
 4060TIP3   OH212185   4.620   2.848   3.202
 4060TIP3    H112186   4.646   2.812   3.117
 4060TIP3    H212187   4.535   2.808   3.219
 4061TIP3   OH212188   0.197   3.371   2.310
 4061TIP3    H112189   0.266   3.399   2.249
 4061TIP3    H212190   0.148   3.304   2.261
 4062TIP3   OH212191   4.598   2.061   3.389
 4062TIP3    H112192   4.553   2.086   3.308
 4062TIP3    H212193   4.622   1.969   3.375
 4063TIP3   OH212194   2.535   0.613   2.361
 4063TIP3    H112195   2.448   0.640   2.330
 4063TIP3    H212196   2.565   0.550   2.295
 4064TIP3   OH212197   4.354   0.458   3.320
 4064TIP3    H112198   4.436   0.409   3.311
 4064TIP3    H212199   4.292   0.411   3.265
 4065TIP3   OH212200   3.399   4.736   4.233
 4065TIP3    H112201   3.397   4.648   4.195
 4065TIP3    H212202   3.488   4.767   4.214
 4066TIP3   OH212203   3.223   3.800   1.833
 4066TIP3    H112204   3.318   3.800   1.821
 4066TIP3    H212205   3.202   3.888   1.862
 4067TIP3   OH212206   4.076   5.358   4.080
 4067TIP3    H112207   4.065   5.414   4.004
 4067TIP3    H212208   4.074   5.268   4.046
 4068TIP3   OH212209   0.021   3.001   1.556
 4068TIP3    H112210  -0.035   3.049   1.616
 4068TIP3    H212211   0.109   3.033   1.574
 4069TIP3   OH212212   3.806   3.402   2.075
 4069TIP3    H112213   3.887   3.440   2.040
 4069TIP3    H212214   3.834   3.351   2.150
 4070TIP3   OH212215   5.480   5.738   1.700
 4070TIP3    H112216   5.490   5.728   1.795
 4070TIP3    H212217   5.451   5.652   1.670
 4071TIP3   OH212218   0.880   5.561   0.193
 4071TIP3    H112219   0.973   5.567   0.214
 4071TIP3    H212220   0.836   5.570   0.278
 4072TIP3   OH212221   3.158   4.368   3.845
 4072TIP3    H112222   3.161   4.321   3.763
 4072TIP3    H212223   3.239   4.419   3.847
 4073TIP3   OH212224   4.299   4.613   0.230
 4073TIP3    H112225   4.268   4.573   0.148
 4073TIP3    H212226   4.368   4.674   0.202
 4074TIP3   OH212227   5.990   2.049   1.288
 4074TIP3    H112228   5.997   2.128   1.234
 4074TIP3    H212229   6.044   2.067   1.365
 4075TIP3   OH212230   0.828   3.431   0.456
 4075TIP3    H112231   0.854   3.442   0.364
 4075TIP3    H212232   0.910   3.413   0.501
 4076TIP3   OH212233   2.207   5.251   1.954
 4076TIP3    H112234   2.205   5.330   2.008
 4076TIP3    H212235   2.197   5.179   2.016
 4077TIP3   OH212236   3.515   4.433   2.381
 4077TIP3    H112237   3.570   4.511   2.374
 4077TIP3    H212238   3.473   4.425   2.296
 4078TIP3   OH212239   3.476   1.619   2.383
 4078TIP3    H112240   3.429   1.577   2.455
 4078TIP3    H212241   3.470   1.713   2.403
 4079TIP3   OH212242   0.679   4.922   0.635
 4079TIP3    H112243   0.635   4.936   0.718
 4079TIP3    H212244   0.758   4.872   0.658
 4080TIP3   OH212245   3.935   2.969   2.524
 4080TIP3    H112246   3.967   3.058   2.538
 4080TIP3    H212247   4.015   2.916   2.517
 4081TIP3   OH212248   2.779   5.161   3.399
 4081TIP3    H112249   2.810   5.071   3.405
 4081TIP3    H212250   2.722   5.172   3.475
 4082TIP3   OH212251   3.547   1.785   3.201
 4082TIP3    H112252   3.569   1.702   3.244
 4082TIP3    H212253   3.625   1.806   3.149
 4083TIP3   OH212254   0.670   4.222   1.750
 4083TIP3    H112255   0.705   4.186   1.832
 4083TIP3    H212256   0.711   4.169   1.682
 4084TIP3   OH212257   3.965   1.871   1.573
 4084TIP3    H112258   3.986   1.958   1.538
 4084TIP3    H212259   3.874   1.856   1.549
 4085TIP3   OH212260   5.568   3.005   0.839
 4085TIP3    H112261   5.580   3.100   0.840
 4085TIP3    H212262   5.654   2.970   0.814
 4086TIP3   OH212263   2.709   2.092   4.626
 4086TIP3    H112264   2.680   2.042   4.702
 4086TIP3    H212265   2.629   2.129   4.589
 4087TIP3   OH212266   0.920   1.625   4.550
 4087TIP3    H112267   0.947   1.605   4.639
 4087TIP3    H212268   1.002   1.641   4.503
 4088TIP3   OH212269   4.293   4.454   4.103
 4088TIP3    H112270   4.311   4.363   4.080
 4088TIP3    H212271   4.374   4.485   4.145
 4089TIP3   OH212272   5.471   1.668   2.690
 4089TIP3    H112273   5.445   1.733   2.624
 4089TIP3    H212274   5.525   1.605   2.641
 4090TIP3   OH212275   4.224   2.492   4.637
 4090TIP3    H112276   4.275   2.542   4.574
 4090TIP3    H212277   4.265   2.405   4.637
 4091TIP3   OH212278   3.797   0.532   4.560
 4091TIP3    H112279   3.739   0.550   4.634
 4091TIP3    H212280   3.752   0.462   4.512
 4092TIP3   OH212281   6.190   3.267   4.843
 4092TIP3    H112282   6.177   3.344   4.898
 4092TIP3    H212283   6.273   3.283   4.798
 4093TIP3   OH212284   4.141   0.652   1.715
 4093TIP3    H112285   4.171   0.709   1.786
 4093TIP3    H212286   4.190   0.681   1.639
 4094TIP3   OH212287   3.463   0.409   1.663
 4094TIP3    H112288   3.528   0.480   1.657
 4094TIP3    H212289   3.510   0.331   1.634
 4095TIP3   OH212290   4.475   2.829   4.823
 4095TIP3    H112291   4.471   2.827   4.919
 4095TIP3    H212292   4.559   2.871   4.804
 4096TIP3   OH212293   4.744   3.673   2.378
 4096TIP3    H112294   4.676   3.656   2.443
 4096TIP3    H212295   4.728   3.763   2.349
 4097TIP3   OH212296   0.501   2.315   2.107
 4097TIP3    H112297   0.439   2.386   2.120
 4097TIP3    H212298   0.526   2.320   2.015
 4098TIP3   OH212299   3.975   5.144   3.739
 4098TIP3    H112300   3.986   5.159   3.833
 4098TIP3    H212301   3.880   5.149   3.726
 4099TIP3   OH212302   2.264   5.096   2.648
 4099TIP3    H112303   2.261   5.082   2.743
 4099TIP3    H212304   2.174   5.122   2.625
 4100TIP3   OH212305   3.525   3.680   3.713
 4100TIP3    H112306   3.452   3.647   3.766
 4100TIP3    H212307   3.552   3.760   3.757
 4101TIP3   OH212308   0.196   1.502   1.064
 4101TIP3    H112309   0.195   1.412   1.033
 4101TIP3    H212310   0.219   1.495   1.157
 4102TIP3   OH212311   5.801   1.398   0.992
 4102TIP3    H112312   5.747   1.449   0.932
 4102TIP3    H212313   5.880   1.451   1.003
 4103TIP3   OH212314   4.758   2.762   0.946
 4103TIP3    H112315   4.808   2.682   0.927
 4103TIP3    H212316   4.774   2.778   1.039
 4104TIP3   OH212317   5.409   5.792   3.861
 4104TIP3    H112318   5.462   5.844   3.922
 4104TIP3    H212319   5.384   5.854   3.792
 4105TIP3   OH212320   5.790   2.199   5.171
 4105TIP3    H112321   5.825   2.244   5.094
 4105TIP3    H212322   5.850   2.221   5.242
 4106TIP3   OH212323   1.583   3.960   4.133
 4106TIP3    H112324   1.673   3.981   4.112
 4106TIP3    H212325   1.533   4.036   4.104
 4107TIP3   OH212326   1.759   0.701   2.238
 4107TIP3    H112327   1.682   0.648   2.258
 4107TIP3    H212328   1.822   0.679   2.306
 4108TIP3   OH212329   1.040   2.081   2.231
 4108TIP3    H112330   1.026   2.023   2.306
 4108TIP3    H212331   0.990   2.040   2.160
 4109TIP3   OH212332   2.235   0.767   3.710
 4109TIP3    H112333   2.313   0.733   3.665
 4109TIP3    H212334   2.183   0.807   3.640
 4110TIP3   OH212335   1.179   0.988   3.597
 4110TIP3    H112336   1.261   1.028   3.627
 4110TIP3    H212337   1.121   1.062   3.579
 4111TIP3   OH212338   4.750   5.805   3.163
 4111TIP3    H112339   4.754   5.781   3.255
 4111TIP3    H212340   4.694   5.738   3.123
 4112TIP3   OH212341   1.866   0.541   2.488
 4112TIP3    H112342   1.829   0.490   2.560
 4112TIP3    H212343   1.836   0.496   2.409
 4113TIP3   OH212344   0.829   5.514   3.351
 4113TIP3    H112345   0.845   5.457   3.426
 4113TIP3    H212346   0.735   5.532   3.354
 4114TIP3   OH212347   5.956   4.353   3.285
 4114TIP3    H112348   5.948   4.435   3.334
 4114TIP3    H212349   5.870   4.340   3.246
 4115TIP3   OH212350   4.616   0.390   3.893
 4115TIP3    H112351   4.648   0.345   3.971
 4115TIP3    H212352   4.674   0.466   3.883
 4116TIP3   OH212353   5.196   4.873   1.553
 4116TIP3    H112354   5.127   4.807   1.543
 4116TIP3    H212355   5.186   4.930   1.476
 4117TIP3   OH212356   6.188   3.771   0.083
 4117TIP3    H112357   6.169   3.850   0.133
 4117TIP3    H212358   6.283   3.774   0.070
 4118TIP3   OH212359   6.056   5.176   1.587
 4118TIP3    H112360   6.021   5.136   1.667
 4118TIP3    H212361   6.063   5.103   1.525
 4119TIP3   OH212362   0.997   3.376   4.269
 4119TIP3    H112363   0.945   3.357   4.191
 4119TIP3    H212364   1.073   3.318   4.261
 4120TIP3   OH212365   1.686   4.232   1.470
 4120TIP3    H112366   1.697   4.166   1.539
 4120TIP3    H212367   1.775   4.251   1.441
 4121TIP3   OH212368   2.206   0.996  -0.031
 4121TIP3    H112369   2.268   0.963   0.035
 4121TIP3    H212370   2.187   1.085  -0.003
 4122TIP3   OH212371   3.446   1.550   4.842
 4122TIP3    H112372   3.480   1.478   4.895
 4122TIP3    H212373   3.358   1.522   4.817
 4123TIP3   OH212374   5.568   3.287   0.811
 4123TIP3    H112375   5.658   3.287   0.845
 4123TIP3    H212376   5.526   3.361   0.856
 4124TIP3   OH212377   5.644   0.670  -0.002
 4124TIP3    H112378   5.698   0.623   0.061
 4124TIP3    H212379   5.570   0.703   0.050
 4125TIP3   OH212380   4.159   3.589   4.402
 4125TIP3    H112381   4.139   3.496   4.390
 4125TIP3    H212382   4.133   3.607   4.493
 4126TIP3   OH212383   2.268   5.706   4.009
 4126TIP3    H112384   2.277   5.723   3.915
 4126TIP3    H212385   2.175   5.688   4.021
 4127TIP3   OH212386   2.323   2.599   5.025
 4127TIP3    H112387   2.261   2.664   5.056
 4127TIP3    H212388   2.340   2.544   5.101
 4128TIP3   OH212389   3.189   2.206   2.515
 4128TIP3    H112390   3.231   2.132   2.558
 4128TIP3    H212391   3.223   2.205   2.426
 4129TIP3   OH212392   4.900   4.733   3.150
 4129TIP3    H112393   4.931   4.645   3.126
 4129TIP3    H212394   4.810   4.718   3.180
 4130TIP3   OH212395   3.930   4.864   2.724
 4130TIP3    H112396   3.842   4.863   2.686
 4130TIP3    H212397   3.979   4.801   2.672
 4131TIP3   OH212398   2.688   0.219   2.559
 4131TIP3    H112399   2.637   0.154   2.511
 4131TIP3    H212400   2.729   0.170   2.630
 4132TIP3   OH212401   1.046   3.569   5.156
 4132TIP3    H112402   1.072   3.640   5.215
 4132TIP3    H212403   0.967   3.601   5.113
 4133TIP3   OH212404   2.866   3.054   1.826
 4133TIP3    H112405   2.927   3.124   1.807
 4133TIP3    H212406   2.793   3.068   1.765
 4134TIP3   OH212407   3.405   1.248   1.692
 4134TIP3    H112408   3.434   1.318   1.750
 4134TIP3    H212409   3.429   1.277   1.604
 4135TIP3   OH212410   2.280   4.191   0.956
 4135TIP3    H112411   2.236   4.109   0.932
 4135TIP3    H212412   2.369   4.165   0.979
 4136TIP3   OH212413   3.136   4.028   4.490
 4136TIP3    H112414   3.151   4.093   4.559
 4136TIP3    H212415   3.119   3.947   4.537
 4137TIP3   OH212416   3.177   0.480   2.997
 4137TIP3    H112417   3.085   0.497   2.975
 4137TIP3    H212418   3.220   0.470   2.912
 4138TIP3   OH212419   3.952   2.590   2.820
 4138TIP3    H112420   4.026   2.530   2.815
 4138TIP3    H212421   3.875   2.533   2.819
 4139TIP3   OH212422   3.294   2.403   2.672
 4139TIP3    H112423   3.248   2.334   2.623
 4139TIP3    H212424   3.346   2.448   2.606
 4140TIP3   OH212425   2.947   5.129   2.296
 4140TIP3    H112426   2.908   5.211   2.324
 4140TIP3    H212427   2.923   5.122   2.203
 4141TIP3   OH212428   4.248   4.489   1.070
 4141TIP3    H112429   4.179   4.450   1.017
 4141TIP3    H212430   4.301   4.538   1.007
 4142TIP3   OH212431   2.489   4.006   1.940
 4142TIP3    H112432   2.449   3.968   1.862
 4142TIP3    H212433   2.580   4.022   1.914
 4143TIP3   OH212434   2.551   0.074   1.890
 4143TIP3    H112435   2.460   0.099   1.876
 4143TIP3    H212436   2.587   0.141   1.947
 4144TIP3   OH212437   3.196   3.083   1.243
 4144TIP3    H112438   3.231   3.171   1.228
 4144TIP3    H212439   3.102   3.096   1.256
 4145TIP3   OH212440   2.141   4.469   2.698
 4145TIP3    H112441   2.055   4.482   2.658
 4145TIP3    H212442   2.162   4.378   2.679
 4146TIP3   OH212443   0.613   5.823   0.918
 4146TIP3    H112444   0.531   5.872   0.915
 4146TIP3    H212445   0.599   5.751   0.857
 4147TIP3   OH212446   1.605   0.896   4.255
 4147TIP3    H112447   1.600   0.958   4.183
 4147TIP3    H212448   1.552   0.822   4.228
 4148TIP3   OH212449   0.233   0.749   3.422
 4148TIP3    H112450   0.302   0.812   3.403
 4148TIP3    H212451   0.182   0.789   3.493
 4149TIP3   OH212452   0.159   3.980   0.604
 4149TIP3    H112453   0.087   3.927   0.640
 4149TIP3    H212454   0.141   4.069   0.636
 4150TIP3   OH212455   2.419   0.645   0.535
 4150TIP3    H112456   2.396   0.569   0.483
 4150TIP3    H212457   2.416   0.615   0.626
 4151TIP3   OH212458   0.380   1.996   1.689
 4151TIP3    H112459   0.354   2.041   1.609
 4151TIP3    H212460   0.300   1.953   1.720
 4152TIP3   OH212461   5.350   4.422   3.867
 4152TIP3    H112462   5.442   4.398   3.884
 4152TIP3    H212463   5.352   4.465   3.782
 4153TIP3   OH212464   2.749   3.885   4.305
 4153TIP3    H112465   2.845   3.893   4.299
 4153TIP3    H212466   2.717   3.971   4.277
 4154TIP3   OH212467   3.730   3.893   3.491
 4154TIP3    H112468   3.669   3.967   3.498
 4154TIP3    H212469   3.749   3.886   3.397
 4155TIP3   OH212470   2.901   3.097   1.346
 4155TIP3    H112471   2.809   3.102   1.321
 4155TIP3    H212472   2.934   3.186   1.332
 4156TIP3   OH212473   2.120   1.375   2.219
 4156TIP3    H112474   2.082   1.313   2.156
 4156TIP3    H212475   2.045   1.406   2.270
 4157TIP3   OH212476   5.516   3.622   0.208
 4157TIP3    H112477   5.473   3.551   0.256
 4157TIP3    H212478   5.533   3.688   0.275
 4158TIP3   OH212479   3.873   1.240   0.857
 4158TIP3    H112480   3.935   1.191   0.803
 4158TIP3    H212481   3.844   1.177   0.923
 4159TIP3   OH212482   4.537   1.587   0.540
 4159TIP3    H112483   4.630   1.608   0.542
 4159TIP3    H212484   4.528   1.518   0.474
 4160TIP3   OH212485   0.104   4.385   2.634
 4160TIP3    H112486   0.184   4.334   2.622
 4160TIP3    H212487   0.125   4.448   2.703
 4161TIP3   OH212488   4.260   2.403   3.857
 4161TIP3    H112489   4.284   2.428   3.947
 4161TIP3    H212490   4.178   2.355   3.867
 4162TIP3   OH212491   1.105   5.069   4.790
 4162TIP3    H112492   1.160   5.107   4.722
 4162TIP3    H212493   1.130   4.977   4.794
 4163TIP3   OH212494   0.315   4.502   2.880
 4163TIP3    H112495   0.405   4.471   2.884
 4163TIP3    H212496   0.267   4.446   2.941
 4164TIP3   OH212497   4.010   5.953   1.575
 4164TIP3    H112498   3.993   5.866   1.611
 4164TIP3    H212499   3.965   5.954   1.491
 4165TIP3   OH212500   5.300   3.688   2.647
 4165TIP3    H112501   5.236   3.654   2.710
 4165TIP3    H212502   5.353   3.612   2.624
 4166TIP3   OH212503   1.427   4.146   3.378
 4166TIP3    H112504   1.490   4.216   3.356
 4166TIP3    H212505   1.466   4.067   3.340
 4167TIP3   OH212506   4.930   4.960   3.630
 4167TIP3    H112507   4.947   4.913   3.548
 4167TIP3    H212508   5.006   5.017   3.641
 4168TIP3   OH212509   3.045   3.322   4.866
 4168TIP3    H112510   3.005   3.269   4.797
 4168TIP3    H212511   3.084   3.259   4.926
 4169TIP3   OH212512   0.180   4.966   5.171
 4169TIP3    H112513   0.118   4.893   5.170
 4169TIP3    H212514   0.146   5.027   5.106
 4170TIP3   OH212515   1.723   5.519   0.065
 4170TIP3    H112516   1.773   5.504  -0.016
 4170TIP3    H212517   1.662   5.589   0.042
 4171TIP3   OH212518   0.399   2.308   3.077
 4171TIP3    H112519   0.361   2.221   3.089
 4171TIP3    H212520   0.412   2.341   3.166
 4172TIP3   OH212521   1.093   4.396   3.383
 4172TIP3    H112522   1.182   4.406   3.349
 4172TIP3    H212523   1.090   4.307   3.417
 4173TIP3   OH212524   3.123   1.601   0.845
 4173TIP3    H112525   3.120   1.505   0.849
 4173TIP3    H212526   3.069   1.630   0.919
 4174TIP3   OH212527   2.439   2.144   2.109
 4174TIP3    H112528   2.444   2.049   2.100
 4174TIP3    H212529   2.479   2.163   2.194
 4175TIP3   OH212530   3.475   4.963   2.403
 4175TIP3    H112531   3.442   5.046   2.436
 4175TIP3    H212532   3.402   4.902   2.415
 4176TIP3   OH212533   2.917   2.054   0.082
 4176TIP3    H112534   2.925   1.965   0.046
 4176TIP3    H212535   2.882   2.041   0.170
 4177TIP3   OH212536   2.581   5.267   2.694
 4177TIP3    H112537   2.498   5.221   2.705
 4177TIP3    H212538   2.559   5.359   2.704
 4178TIP3   OH212539   4.121   5.780   0.302
 4178TIP3    H112540   4.113   5.799   0.395
 4178TIP3    H212541   4.132   5.866   0.261
 4179TIP3   OH212542   0.471   0.869   0.536
 4179TIP3    H112543   0.438   0.826   0.457
 4179TIP3    H212544   0.437   0.817   0.608
 4180TIP3   OH212545   4.971   3.457   4.242
 4180TIP3    H112546   4.917   3.513   4.186
 4180TIP3    H212547   5.060   3.488   4.227
 4181TIP3   OH212548   2.427   3.452   1.806
 4181TIP3    H112549   2.415   3.501   1.887
 4181TIP3    H212550   2.402   3.512   1.737
 4182TIP3   OH212551   4.475   1.430   3.116
 4182TIP3    H112552   4.402   1.415   3.057
 4182TIP3    H212553   4.460   1.369   3.189
 4183TIP3   OH212554   5.159   1.208   4.870
 4183TIP3    H112555   5.105   1.287   4.863
 4183TIP3    H212556   5.233   1.224   4.811
 4184TIP3   OH212557   1.054   2.097   3.170
 4184TIP3    H112558   1.102   2.059   3.096
 4184TIP3    H212559   1.096   2.060   3.248
 4185TIP3   OH212560   4.088   5.302   1.454
 4185TIP3    H112561   4.072   5.360   1.380
 4185TIP3    H212562   4.014   5.317   1.513
 4186TIP3   OH212563   3.008   1.890   1.978
 4186TIP3    H112564   3.010   1.796   1.963
 4186TIP3    H212565   3.007   1.899   2.074
 4187TIP3   OH212566   3.096   2.269   3.562
 4187TIP3    H112567   3.123   2.178   3.545
 4187TIP3    H212568   3.159   2.322   3.513
 4188TIP3   OH212569   1.770   4.400   3.714
 4188TIP3    H112570   1.742   4.423   3.802
 4188TIP3    H212571   1.752   4.306   3.707
 4189TIP3   OH212572   3.272   0.333   3.724
 4189TIP3    H112573   3.224   0.250   3.726
 4189TIP3    H212574   3.255   0.368   3.637
 4190TIP3   OH212575   0.183   0.592   4.330
 4190TIP3    H112576   0.274   0.561   4.329
 4190TIP3    H212577   0.149   0.569   4.243
 4191TIP3   OH212578   1.474   2.295   2.026
 4191TIP3    H112579   1.441   2.365   1.971
 4191TIP3    H212580   1.409   2.286   2.095
 4192TIP3   OH212581   4.958   0.486   1.013
 4192TIP3    H112582   4.927   0.426   1.081
 4192TIP3    H212583   4.878   0.524   0.976
 4193TIP3   OH212584   5.213   2.327   0.040
 4193TIP3    H112585   5.261   2.254   0.001
 4193TIP3    H212586   5.268   2.404   0.025
 4194TIP3   OH212587   2.840   2.409   3.397
 4194TIP3    H112588   2.828   2.319   3.429
 4194TIP3    H212589   2.920   2.405   3.345
 4195TIP3   OH212590   3.116   1.941   1.271
 4195TIP3    H112591   3.024   1.964   1.277
 4195TIP3    H212592   3.122   1.854   1.311
 4196TIP3   OH212593   3.299   3.591   1.011
 4196TIP3    H112594   3.256   3.653   1.070
 4196TIP3    H212595   3.371   3.640   0.972
 4197TIP3   OH212596   0.379   5.521   2.021
 4197TIP3    H112597   0.421   5.605   2.039
 4197TIP3    H212598   0.407   5.500   1.932
 4198TIP3   OH212599   2.564   0.693   3.992
 4198TIP3    H112600   2.596   0.748   4.063
 4198TIP3    H212601   2.642   0.665   3.945
 4199TIP3   OH212602   5.719   2.631   1.335
 4199TIP3    H112603   5.745   2.661   1.248
 4199TIP3    H212604   5.738   2.705   1.393
 4200TIP3   OH212605   3.547   5.423   1.820
 4200TIP3    H112606   3.478   5.379   1.870
 4200TIP3    H212607   3.499   5.475   1.755
 4201TIP3   OH212608   1.063   5.706   3.593
 4201TIP3    H112609   1.035   5.760   3.667
 4201TIP3    H212610   1.142   5.661   3.625
 4202TIP3   OH212611   5.567   4.196   1.594
 4202TIP3    H112612   5.624   4.187   1.671
 4202TIP3    H212613   5.482   4.163   1.623
 4203TIP3   OH212614   6.141   3.401   3.270
 4203TIP3    H112615   6.073   3.344   3.307
 4203TIP3    H212616   6.126   3.485   3.312
 4204TIP3   OH212617   5.681   0.064   1.830
 4204TIP3    H112618   5.766   0.088   1.791
 4204TIP3    H212619   5.642   0.147   1.854
 4205TIP3   OH212620   2.322   1.165   4.865
 4205TIP3    H112621   2.390   1.228   4.843
 4205TIP3    H212622   2.338   1.143   4.957
 4206TIP3   OH212623   1.736   5.804   1.497
 4206TIP3    H112624   1.657   5.856   1.481
 4206TIP3    H212625   1.703   5.719   1.526
 4207TIP3   OH212626   6.015   1.880   3.256
 4207TIP3    H112627   6.043   1.876   3.347
 4207TIP3    H212628   6.074   1.943   3.216
 4208TIP3   OH212629   1.396   4.205   3.065
 4208TIP3    H112630   1.308   4.178   3.036
 4208TIP3    H212631   1.445   4.123   3.071
 4209TIP3   OH212632   1.691   0.168   4.147
 4209TIP3    H112633   1.670   0.256   4.179
 4209TIP3    H212634   1.780   0.152   4.179
 4210TIP3   OH212635   2.619   4.101   1.397
 4210TIP3    H112636   2.558   4.171   1.376
 4210TIP3    H212637   2.587   4.025   1.348
 4211TIP3   OH212638   1.793   2.710   0.455
 4211TIP3    H112639   1.814   2.640   0.393
 4211TIP3    H212640   1.781   2.665   0.539
 4212TIP3   OH212641   5.538   5.576   3.203
 4212TIP3    H112642   5.561   5.484   3.210
 4212TIP3    H212643   5.468   5.588   3.268
 4213TIP3   OH212644   2.238  -0.002   4.023
 4213TIP3    H112645   2.244   0.084   3.982
 4213TIP3    H212646   2.329  -0.033   4.025
 4214TIP3   OH212647   5.457   0.010   4.703
 4214TIP3    H112648   5.483   0.042   4.617
 4214TIP3    H212649   5.362   0.026   4.707
 4215TIP3   OH212650   4.005   1.918   4.248
 4215TIP3    H112651   4.011   1.845   4.310
 4215TIP3    H212652   4.069   1.981   4.280
 4216TIP3   OH212653   3.957   4.882   1.301
 4216TIP3    H112654   3.952   4.927   1.217
 4216TIP3    H212655   3.945   4.950   1.366
 4217TIP3   OH212656   5.507   2.689   4.964
 4217TIP3    H112657   5.579   2.673   4.903
 4217TIP3    H212658   5.509   2.783   4.981
 4218TIP3   OH212659   0.693   1.588   1.961
 4218TIP3    H112660   0.639   1.510   1.954
 4218TIP3    H212661   0.732   1.583   2.048
 4219TIP3   OH212662   1.706   1.207   5.035
 4219TIP3    H112663   1.730   1.126   5.079
 4219TIP3    H212664   1.617   1.225   5.066
 4220TIP3   OH212665   6.152   4.638   1.070
 4220TIP3    H112666   6.226   4.586   1.039
 4220TIP3    H212667   6.074   4.588   1.046
 4221TIP3   OH212668   3.970   1.118   1.185
 4221TIP3    H112669   4.014   1.094   1.267
 4221TIP3    H212670   3.883   1.146   1.212
 4222TIP3   OH212671   1.512   3.901   3.750
 4222TIP3    H112672   1.488   3.881   3.660
 4222TIP3    H212673   1.504   3.817   3.796
 4223TIP3   OH212674   0.041  -0.002   1.480
 4223TIP3    H112675   0.035   0.092   1.462
 4223TIP3    H212676  -0.044  -0.025   1.517
 4224TIP3   OH212677   0.724   0.274   0.658
 4224TIP3    H112678   0.792   0.311   0.601
 4224TIP3    H212679   0.748   0.181   0.667
 4225TIP3   OH212680   0.570   4.356   2.989
 4225TIP3    H112681   0.660   4.379   2.968
 4225TIP3    H212682   0.574   4.329   3.081
 4226TIP3   OH212683   2.489   2.732   0.499
 4226TIP3    H112684   2.447   2.806   0.544
 4226TIP3    H212685   2.416   2.684   0.460
 4227TIP3   OH212686   5.753   3.355   4.174
 4227TIP3    H112687   5.657   3.351   4.165
 4227TIP3    H212688   5.768   3.431   4.231
 4228TIP3   OH212689   5.783   2.212   4.537
 4228TIP3    H112690   5.737   2.280   4.586
 4228TIP3    H212691   5.798   2.142   4.601
 4229TIP3   OH212692   3.101   0.948   0.675
 4229TIP3    H112693   3.056   0.929   0.592
 4229TIP3    H212694   3.147   1.030   0.659
 4230TIP3   OH212695   5.515   4.105   2.115
 4230TIP3    H112696   5.435   4.103   2.063
 4230TIP3    H212697   5.500   4.042   2.186
 4231TIP3   OH212698   2.194   0.953   2.258
 4231TIP3    H112699   2.103   0.983   2.261
 4231TIP3    H212700   2.240   1.011   2.319
 4232TIP3   OH212701   4.605   2.961   2.702
 4232TIP3    H112702   4.656   3.040   2.718
 4232TIP3    H212703   4.577   2.968   2.611
 4233TIP3   OH212704   5.262   5.737   1.028
 4233TIP3    H112705   5.300   5.650   1.033
 4233TIP3    H212706   5.168   5.722   1.011
 4234TIP3   OH212707   1.478   1.189   1.738
 4234TIP3    H112708   1.504   1.098   1.748
 4234TIP3    H212709   1.523   1.219   1.659
 4235TIP3   OH212710   3.628   5.788   4.386
 4235TIP3    H112711   3.648   5.869   4.340
 4235TIP3    H212712   3.713   5.756   4.416
 4236TIP3   OH212713   4.622   0.922   3.636
 4236TIP3    H112714   4.606   0.863   3.710
 4236TIP3    H212715   4.668   0.868   3.572
 4237TIP3   OH212716   2.700   5.757   4.389
 4237TIP3    H112717   2.610   5.769   4.358
 4237TIP3    H212718   2.749   5.733   4.310
 4238TIP3   OH212719   3.666   1.520   3.228
 4238TIP3    H112720   3.668   1.434   3.269
 4238TIP3    H212721   3.756   1.554   3.238
 4239TIP3   OH212722   5.133   0.703   3.335
 4239TIP3    H112723   5.219   0.727   3.369
 4239TIP3    H212724   5.072   0.721   3.406
 4240TIP3   OH212725   1.997   1.246   3.236
 4240TIP3    H112726   1.929   1.186   3.267
 4240TIP3    H212727   1.952   1.329   3.223
 4241TIP3   OH212728   0.969   3.850   2.366
 4241TIP3    H112729   1.029   3.780   2.343
 4241TIP3    H212730   1.014   3.899   2.435
 4242TIP3   OH212731   5.622   0.644   0.658
 4242TIP3    H112732   5.534   0.652   0.622
 4242TIP3    H212733   5.678   0.692   0.597
 4243TIP3   OH212734   2.923   0.650   5.019
 4243TIP3    H112735   3.000   0.667   5.073
 4243TIP3    H212736   2.863   0.722   5.039
 4244TIP3   OH212737   5.300   0.981   3.600
 4244TIP3    H112738   5.359   0.972   3.525
 4244TIP3    H212739   5.347   0.939   3.672
 4245TIP3   OH212740   2.395   1.764   3.030
 4245TIP3    H112741   2.461   1.825   3.063
 4245TIP3    H212742   2.317   1.818   3.017
 4246TIP3   OH212743   0.409   5.329   4.355
 4246TIP3    H112744   0.391   5.380   4.433
 4246TIP3    H212745   0.383   5.239   4.379
 4247TIP3   OH212746   4.308   0.181   0.003
 4247TIP3    H112747   4.243   0.243  -0.031
 4247TIP3    H212748   4.275   0.157   0.089
 4248TIP3   OH212749   5.437   4.878   2.074
 4248TIP3    H112750   5.453   4.800   2.127
 4248TIP3    H212751   5.372   4.928   2.124
 4249TIP3   OH212752   6.065   0.897   2.631
 4249TIP3    H112753   6.015   0.817   2.647
 4249TIP3    H212754   6.085   0.931   2.718
 4250TIP3   OH212755   2.688   3.200   0.629
 4250TIP3    H112756   2.659   3.269   0.570
 4250TIP3    H212757   2.608   3.165   0.667
 4251TIP3   OH212758   4.772   4.422   2.268
 4251TIP3    H112759   4.788   4.391   2.357
 4251TIP3    H212760   4.768   4.517   2.276
 4252TIP3   OH212761   5.367   0.231   2.069
 4252TIP3    H112762   5.367   0.169   2.141
 4252TIP3    H212763   5.297   0.200   2.010
 4253TIP3   OH212764   6.083   4.343   5.024
 4253TIP3    H112765   6.071   4.291   4.945
 4253TIP3    H212766   6.030   4.421   5.009
 4254TIP3   OH212767   5.921   1.648   3.161
 4254TIP3    H112768   5.968   1.724   3.198
 4254TIP3    H212769   5.839   1.645   3.210
 4255TIP3   OH212770   0.800   3.765   0.294
 4255TIP3    H112771   0.879   3.711   0.292
 4255TIP3    H212772   0.729   3.702   0.304
 4256TIP3   OH212773   3.681   5.662   0.073
 4256TIP3    H112774   3.626   5.606   0.128
 4256TIP3    H212775   3.763   5.614   0.066
 4257TIP3   OH212776   3.011   2.962   5.075
 4257TIP3    H112777   3.065   2.907   5.132
 4257TIP3    H212778   3.073   3.015   5.026
 4258TIP3   OH212779   1.402   3.759   2.337
 4258TIP3    H112780   1.342   3.697   2.297
 4258TIP3    H212781   1.369   3.770   2.426
 4259TIP3   OH212782   3.387   0.083   1.310
 4259TIP3    H112783   3.447   0.151   1.340
 4259TIP3    H212784   3.361   0.111   1.222
 4260TIP3   OH212785   6.211   0.724   1.180
 4260TIP3    H112786   6.214   0.630   1.198
 4260TIP3    H212787   6.302   0.753   1.191
 4261TIP3   OH212788   5.813   4.816   3.508
 4261TIP3    H112789   5.751   4.883   3.478
 4261TIP3    H212790   5.899   4.856   3.496
 4262TIP3   OH212791   0.654   2.047   2.543
 4262TIP3    H112792   0.730   2.027   2.598
 4262TIP3    H212793   0.589   2.080   2.604
 4263TIP3   OH212794   5.274   5.496   0.796
 4263TIP3    H112795   5.366   5.522   0.788
 4263TIP3    H212796   5.274   5.403   0.774
 4264TIP3   OH212797   6.369   4.728   5.166
 4264TIP3    H112798   6.367   4.678   5.085
 4264TIP3    H212799   6.284   4.713   5.206
 4265TIP3   OH212800   5.929   4.760   1.719
 4265TIP3    H112801   5.851   4.791   1.673
 4265TIP3    H212802   5.947   4.674   1.679
 4266TIP3   OH212803   5.237   5.278   0.112
 4266TIP3    H112804   5.301   5.250   0.047
 4266TIP3    H212805   5.229   5.204   0.173
 4267TIP3   OH212806   2.975   2.824   1.960
 4267TIP3    H112807   3.021   2.871   2.030
 4267TIP3    H212808   2.950   2.892   1.898
 4268TIP3   OH212809   1.532   3.781   0.753
 4268TIP3    H112810   1.573   3.858   0.714
 4268TIP3    H212811   1.441   3.807   0.768
 4269TIP3   OH212812   3.108   2.506   5.078
 4269TIP3    H112813   3.040   2.481   5.141
 4269TIP3    H212814   3.137   2.592   5.108
 4270TIP3   OH212815   0.697   2.263   2.998
 4270TIP3    H112816   0.768   2.202   3.019
 4270TIP3    H212817   0.633   2.251   3.069
 4271TIP3   OH212818   2.176   5.179   3.737
 4271TIP3    H112819   2.195   5.145   3.649
 4271TIP3    H212820   2.090   5.219   3.729
 4272TIP3   OH212821   0.734   5.829   4.886
 4272TIP3    H112822   0.782   5.912   4.887
 4272TIP3    H212823   0.643   5.855   4.876
 4273TIP3   OH212824   0.882   5.066   2.940
 4273TIP3    H112825   0.978   5.060   2.942
 4273TIP3    H212826   0.857   5.084   3.031
 4274TIP3   OH212827   4.061   4.664   1.955
 4274TIP3    H112828   4.144   4.625   1.927
 4274TIP3    H212829   4.007   4.664   1.876
 4275TIP3   OH212830   3.033   4.436   1.232
 4275TIP3    H112831   2.995   4.353   1.260
 4275TIP3    H212832   3.082   4.467   1.308
 4276TIP3   OH212833   2.529   0.270   2.982
 4276TIP3    H112834   2.490   0.357   2.978
 4276TIP3    H212835   2.622   0.285   2.968
 4277TIP3   OH212836   4.546   2.118   3.665
 4277TIP3    H112837   4.566   2.109   3.572
 4277TIP3    H212838   4.452   2.135   3.668
 4278TIP3   OH212839   3.820   0.646   1.218
 4278TIP3    H112840   3.837   0.567   1.269
 4278TIP3    H212841   3.833   0.618   1.127
 4279TIP3   OH212842   1.624   0.605   1.953
 4279TIP3    H112843   1.555   0.583   2.015
 4279TIP3    H212844   1.579   0.608   1.868
 4280TIP3   OH212845   3.317   5.164   2.603
 4280TIP3    H112846   3.280   5.192   2.520
 4280TIP3    H212847   3.273   5.082   2.623
 4281TIP3   OH212848   4.992   0.373   2.222
 4281TIP3    H112849   4.947   0.417   2.149
 4281TIP3    H212850   4.983   0.279   2.202
 4282TIP3   OH212851   1.725   3.780   2.896
 4282TIP3    H112852   1.813   3.784   2.859
 4282TIP3    H212853   1.709   3.868   2.931
 4283TIP3   OH212854   3.737   1.832   3.489
 4283TIP3    H112855   3.795   1.807   3.561
 4283TIP3    H212856   3.791   1.823   3.411
 4284TIP3   OH212857   2.374   0.051   2.890
 4284TIP3    H112858   2.424   0.101   2.955
 4284TIP3    H212859   2.442   0.009   2.836
 4285TIP3   OH212860   4.786   5.371   1.767
 4285TIP3    H112861   4.796   5.387   1.860
 4285TIP3    H212862   4.792   5.276   1.758
 4286TIP3   OH212863   0.653   0.110   3.806
 4286TIP3    H112864   0.734   0.071   3.840
 4286TIP3    H212865   0.665   0.204   3.819
 4287TIP3   OH212866   1.437   1.454   4.882
 4287TIP3    H112867   1.522   1.481   4.847
 4287TIP3    H212868   1.391   1.416   4.808
 4288TIP3   OH212869   1.909   0.942   2.192
 4288TIP3    H112870   1.848   0.872   2.215
 4288TIP3    H212871   1.936   0.923   2.103
 4289TIP3   OH212872   0.062   4.982   1.823
 4289TIP3    H112873   0.134   4.965   1.884
 4289TIP3    H212874   0.009   5.049   1.866
 4290TIP3   OH212875   1.914   4.716   2.737
 4290TIP3    H112876   1.881   4.766   2.812
 4290TIP3    H212877   1.835   4.689   2.690
 4291TIP3   OH212878   4.503   0.874   4.090
 4291TIP3    H112879   4.515   0.900   4.182
 4291TIP3    H212880   4.592   0.861   4.058
 4292TIP3   OH212881   5.810   1.010   1.910
 4292TIP3    H112882   5.846   1.039   1.826
 4292TIP3    H212883   5.748   0.941   1.886
 4293TIP3   OH212884   4.145   4.144   4.936
 4293TIP3    H112885   4.141   4.202   4.860
 4293TIP3    H212886   4.228   4.167   4.978
 4294TIP3   OH212887   0.222   4.131   3.534
 4294TIP3    H112888   0.198   4.126   3.441
 4294TIP3    H212889   0.140   4.146   3.579
 4295TIP3   OH212890   5.276   5.795   2.339
 4295TIP3    H112891   5.202   5.752   2.381
 4295TIP3    H212892   5.335   5.818   2.410
 4296TIP3   OH212893   1.512   5.346   0.608
 4296TIP3    H112894   1.589   5.304   0.645
 4296TIP3    H212895   1.477   5.400   0.680
 4297TIP3   OH212896   3.101   2.632   2.688
 4297TIP3    H112897   3.119   2.592   2.772
 4297TIP3    H212898   3.162   2.590   2.627
 4298TIP3   OH212899   4.890   0.198   3.858
 4298TIP3    H112900   4.953   0.270   3.868
 4298TIP3    H212901   4.805   0.240   3.857
 4299TIP3   OH212902   5.177   5.052   4.100
 4299TIP3    H112903   5.238   5.111   4.056
 4299TIP3    H212904   5.172   5.085   4.190
 4300TIP3   OH212905   4.370   2.983   3.644
 4300TIP3    H112906   4.302   2.919   3.663
 4300TIP3    H212907   4.369   2.992   3.549
 4301TIP3   OH212908   6.268   3.385   5.131
 4301TIP3    H112909   6.203   3.446   5.167
 4301TIP3    H212910   6.344   3.440   5.110
 4302TIP3   OH212911   0.557   2.054   0.822
 4302TIP3    H112912   0.547   2.033   0.729
 4302TIP3    H212913   0.614   1.985   0.856
 4303TIP3   OH212914   3.675   0.379   1.048
 4303TIP3    H112915   3.693   0.364   0.955
 4303TIP3    H212916   3.758   0.361   1.092
 4304TIP3   OH212917   1.309   4.010   3.903
 4304TIP3    H112918   1.375   3.992   3.836
 4304TIP3    H212919   1.336   4.095   3.940
 4305TIP3   OH212920   5.053   5.518   1.236
 4305TIP3    H112921   5.040   5.509   1.141
 4305TIP3    H212922   5.014   5.603   1.257
 4306TIP3   OH212923   0.259   4.824   2.972
 4306TIP3    H112924   0.165   4.833   2.984
 4306TIP3    H212925   0.270   4.805   2.879
 4307TIP3   OH212926   6.205   4.533   3.031
 4307TIP3    H112927   6.212   4.438   3.036
 4307TIP3    H212928   6.200   4.562   3.123
 4308TIP3   OH212929   5.062   4.269   3.669
 4308TIP3    H112930   5.079   4.346   3.722
 4308TIP3    H212931   4.970   4.247   3.686
 4309TIP3   OH212932   3.995   3.326   1.501
 4309TIP3    H112933   4.082   3.353   1.532
 4309TIP3    H212934   3.969   3.256   1.560
 4310TIP3   OH212935   1.906   4.822   0.152
 4310TIP3    H112936   1.851   4.753   0.116
 4310TIP3    H212937   1.987   4.778   0.177
 4311TIP3   OH212938   6.105   4.886   0.160
 4311TIP3    H112939   6.051   4.824   0.208
 4311TIP3    H212940   6.094   4.969   0.205
 4312TIP3   OH212941   3.309   1.857   4.689
 4312TIP3    H112942   3.396   1.817   4.686
 4312TIP3    H212943   3.252   1.793   4.647
 4313TIP3   OH212944   2.434   3.157   1.641
 4313TIP3    H112945   2.421   3.250   1.664
 4313TIP3    H212946   2.347   3.119   1.649
 4314TIP3   OH212947   5.907   1.218   3.026
 4314TIP3    H112948   5.889   1.147   2.963
 4314TIP3    H212949   5.945   1.173   3.102
 4315TIP3   OH212950   2.966   5.322   1.839
 4315TIP3    H112951   2.990   5.415   1.843
 4315TIP3    H212952   3.010   5.289   1.761
 4316TIP3   OH212953   3.687   0.794   0.107
 4316TIP3    H112954   3.672   0.871   0.161
 4316TIP3    H212955   3.742   0.738   0.161
 4317TIP3   OH212956   0.524   4.566   4.995
 4317TIP3    H112957   0.481   4.652   5.000
 4317TIP3    H212958   0.537   4.540   5.086
 4318TIP3   OH212959   4.943   2.864   1.756
 4318TIP3    H112960   5.005   2.838   1.687
 4318TIP3    H212961   4.924   2.956   1.737
 4319TIP3   OH212962   1.799   4.943   1.404
 4319TIP3    H112963   1.795   4.857   1.446
 4319TIP3    H212964   1.770   4.927   1.314
 4320TIP3   OH212965   2.181   0.244   3.910
 4320TIP3    H112966   2.193   0.313   3.975
 4320TIP3    H212967   2.232   0.273   3.835
 4321TIP3   OH212968   5.467   4.175   3.701
 4321TIP3    H112969   5.439   4.110   3.636
 4321TIP3    H212970   5.462   4.259   3.656
 4322TIP3   OH212971   5.368   4.478   1.730
 4322TIP3    H112972   5.455   4.440   1.720
 4322TIP3    H212973   5.317   4.440   1.659
 4323TIP3   OH212974   1.663   2.966   1.050
 4323TIP3    H112975   1.597   3.029   1.080
 4323TIP3    H212976   1.627   2.881   1.073
 4324TIP3   OH212977   2.143   3.613   3.761
 4324TIP3    H112978   2.141   3.623   3.856
 4324TIP3    H212979   2.211   3.675   3.731
 4325TIP3   OH212980   5.203   0.488   1.466
 4325TIP3    H112981   5.264   0.524   1.402
 4325TIP3    H212982   5.223   0.535   1.547
 4326TIP3   OH212983   5.252   0.278   4.554
 4326TIP3    H112984   5.234   0.193   4.595
 4326TIP3    H212985   5.279   0.334   4.626
 4327TIP3   OH212986   2.453   2.940   3.136
 4327TIP3    H112987   2.455   2.877   3.064
 4327TIP3    H212988   2.425   3.022   3.095
 4328TIP3   OH212989   0.680   0.655   1.208
 4328TIP3    H112990   0.738   0.636   1.282
 4328TIP3    H212991   0.651   0.568   1.178
 4329TIP3   OH212992   2.454   4.214   1.704
 4329TIP3    H112993   2.546   4.188   1.710
 4329TIP3    H212994   2.406   4.132   1.718
 4330TIP3   OH212995   4.515   1.517   2.208
 4330TIP3    H112996   4.528   1.428   2.242
 4330TIP3    H212997   4.564   1.574   2.267
 4331TIP3   OH212998   5.125   0.914   1.033
 4331TIP3    H112999   5.207   0.906   1.081
 4331TIP3    H213000   5.123   0.838   0.974
 4332TIP3   OH213001   1.253   0.492   4.719
 4332TIP3    H113002   1.265   0.398   4.705
 4332TIP3    H213003   1.258   0.503   4.814
 4333TIP3   OH213004   2.986   0.484   2.138
 4333TIP3    H113005   2.979   0.411   2.076
 4333TIP3    H213006   3.033   0.552   2.089
 4334TIP3   OH213007   5.015   5.627   0.419
 4334TIP3    H113008   5.010   5.531   0.427
 4334TIP3    H213009   5.069   5.654   0.492
 4335TIP3   OH213010   4.313   3.169   4.885
 4335TIP3    H113011   4.218   3.169   4.881
 4335TIP3    H213012   4.340   3.218   4.808
 4336TIP3   OH213013   0.499   1.765   0.042
 4336TIP3    H113014   0.417   1.768  -0.007
 4336TIP3    H213015   0.474   1.734   0.129
 4337TIP3   OH213016   6.240   5.639   3.805
 4337TIP3    H113017   6.293   5.702   3.855
 4337TIP3    H213018   6.233   5.678   3.718
 4338TIP3   OH213019   5.638   3.560   3.646
 4338TIP3    H113020   5.671   3.625   3.583
 4338TIP3    H213021   5.712   3.542   3.703
 4339TIP3   OH213022   4.291   0.827   5.088
 4339TIP3    H113023   4.353   0.816   5.016
 4339TIP3    H213024   4.342   0.870   5.157
 4340TIP3   OH213025   0.383   5.219   4.723
 4340TIP3    H113026   0.479   5.221   4.716
 4340TIP3    H213027   0.356   5.308   4.700
 4341TIP3   OH213028   0.131   5.814   0.172
 4341TIP3    H113029   0.111   5.780   0.260
 4341TIP3    H213030   0.063   5.878   0.154
 4342TIP3   OH213031   1.949   2.731   2.921
 4342TIP3    H113032   2.034   2.768   2.946
 4342TIP3    H213033   1.970   2.672   2.848
 4343TIP3   OH213034   5.744   3.321   2.638
 4343TIP3    H113035   5.758   3.238   2.685
 4343TIP3    H213036   5.665   3.357   2.678
 4344TIP3   OH213037   3.507   0.588   0.674
 4344TIP3    H113038   3.437   0.618   0.616
 4344TIP3    H213039   3.462   0.563   0.756
 4345TIP3   OH213040   5.554   4.432   2.983
 4345TIP3    H113041   5.644   4.406   2.998
 4345TIP3    H213042   5.527   4.383   2.905
 4346TIP3   OH213043   2.725   5.525   4.912
 4346TIP3    H113044   2.781   5.505   4.987
 4346TIP3    H213045   2.683   5.608   4.935
 4347TIP3   OH213046   3.254   1.980   3.589
 4347TIP3    H113047   3.301   2.023   3.661
 4347TIP3    H213048   3.323   1.945   3.533
 4348TIP3   OH213049   5.420   2.023   3.907
 4348TIP3    H113050   5.421   1.988   3.996
 4348TIP3    H213051   5.469   2.105   3.913
 4349TIP3   OH213052   1.012   4.122   4.277
 4349TIP3    H113053   1.083   4.135   4.340
 4349TIP3    H213054   1.021   4.031   4.249
 4350TIP3   OH213055   5.697   5.950   1.901
 4350TIP3    H113056   5.685   6.017   1.968
 4350TIP3    H213057   5.624   5.889   1.914
 4351TIP3   OH213058   1.406   5.449   4.911
 4351TIP3    H113059   1.435   5.396   4.838
 4351TIP3    H213060   1.469   5.522   4.914
 4352TIP3   OH213061   1.884   2.524   0.229
 4352TIP3    H113062   1.859   2.572   0.150
 4352TIP3    H213063   1.824   2.450   0.231
 4353TIP3   OH213064   5.089   1.152   3.778
 4353TIP3    H113065   5.145   1.115   3.709
 4353TIP3    H213066   5.143   1.152   3.856
 4354TIP3   OH213067   3.504   1.198   1.136
 4354TIP3    H113068   3.432   1.239   1.087
 4354TIP3    H213069   3.471   1.192   1.226
 4355TIP3   OH213070   6.062   2.331   3.434
 4355TIP3    H113071   6.156   2.351   3.423
 4355TIP3    H213072   6.036   2.293   3.350
 4356TIP3   OH213073   4.982   2.435   2.981
 4356TIP3    H113074   4.908   2.496   2.975
 4356TIP3    H213075   4.985   2.409   3.073
 4357TIP3   OH213076   0.441   2.727   1.141
 4357TIP3    H113077   0.493   2.761   1.068
 4357TIP3    H213078   0.439   2.632   1.126
 4358TIP3   OH213079   1.242   4.917   0.600
 4358TIP3    H113080   1.305   4.973   0.555
 4358TIP3    H213081   1.157   4.939   0.560
 4359TIP3   OH213082   5.545   4.983   0.904
 4359TIP3    H113083   5.462   4.955   0.942
 4359TIP3    H213084   5.575   4.908   0.853
 4360TIP3   OH213085   1.202   3.898   2.878
 4360TIP3    H113086   1.209   3.977   2.931
 4360TIP3    H213087   1.274   3.843   2.908
 4361TIP3   OH213088   0.893   4.749   1.492
 4361TIP3    H113089   0.828   4.720   1.428
 4361TIP3    H213090   0.875   4.696   1.570
 4362TIP3   OH213091   2.103   0.890   3.481
 4362TIP3    H113092   2.162   0.883   3.406
 4362TIP3    H213093   2.139   0.962   3.533
 4363TIP3   OH213094   5.693   2.629   4.427
 4363TIP3    H113095   5.766   2.607   4.485
 4363TIP3    H213096   5.709   2.579   4.348
 4364TIP3   OH213097   1.339   1.867   0.389
 4364TIP3    H113098   1.386   1.785   0.376
 4364TIP3    H213099   1.363   1.896   0.477
 4365TIP3   OH213100   0.408   2.041   3.229
 4365TIP3    H113101   0.361   2.062   3.309
 4365TIP3    H213102   0.490   2.001   3.258
 4366TIP3   OH213103   1.602   0.327   0.381
 4366TIP3    H113104   1.639   0.240   0.366
 4366TIP3    H213105   1.599   0.336   0.476
 4367TIP3   OH213106   5.047   0.489   0.655
 4367TIP3    H113107   4.978   0.545   0.620
 4367TIP3    H213108   5.020   0.400   0.633
 4368TIP3   OH213109   1.497   4.108   4.756
 4368TIP3    H113110   1.503   4.171   4.828
 4368TIP3    H213111   1.566   4.044   4.775
 4369TIP3   OH213112   5.061   3.948   4.017
 4369TIP3    H113113   5.110   3.929   3.937
 4369TIP3    H213114   5.045   3.861   4.055
 4370TIP3   OH213115   0.596   3.813   3.990
 4370TIP3    H113116   0.652   3.759   4.046
 4370TIP3    H213117   0.649   3.832   3.913
 4371TIP3   OH213118   0.848   1.421   1.315
 4371TIP3    H113119   0.803   1.467   1.244
 4371TIP3    H213120   0.778   1.377   1.364
 4372TIP3   OH213121   4.970   3.097   2.381
 4372TIP3    H113122   5.026   3.151   2.325
 4372TIP3    H213123   4.917   3.046   2.320
 4373TIP3   OH213124   2.956   3.691   2.154
 4373TIP3    H113125   2.951   3.609   2.104
 4373TIP3    H213126   3.048   3.697   2.181
 4374TIP3   OH213127   5.418   1.828   2.476
 4374TIP3    H113128   5.329   1.847   2.444
 4374TIP3    H213129   5.435   1.739   2.446
 4375TIP3   OH213130   0.212   1.100   3.231
 4375TIP3    H113131   0.181   1.010   3.225
 4375TIP3    H213132   0.136   1.150   3.262
 4376TIP3   OH213133   5.370   3.830   4.326
 4376TIP3    H113134   5.395   3.873   4.408
 4376TIP3    H213135   5.354   3.902   4.265
 4377TIP3   OH213136   0.389   3.076   1.592
 4377TIP3    H113137   0.377   3.043   1.503
 4377TIP3    H213138   0.477   3.048   1.617
 4378TIP3   OH213139   4.089   1.749   4.475
 4378TIP3    H113140   4.079   1.664   4.518
 4378TIP3    H213141   4.167   1.787   4.515
 4379TIP3   OH213142   1.918   2.258   4.180
 4379TIP3    H113143   1.851   2.310   4.135
 4379TIP3    H213144   1.905   2.170   4.147
 4380TIP3   OH213145   1.213   5.670   1.032
 4380TIP3    H113146   1.204   5.708   0.944
 4380TIP3    H213147   1.138   5.704   1.080
 4381TIP3   OH213148   0.776   1.949   3.723
 4381TIP3    H113149   0.771   1.885   3.795
 4381TIP3    H213150   0.867   1.943   3.693
 4382TIP3   OH213151   4.207   4.133   2.869
 4382TIP3    H113152   4.280   4.143   2.930
 4382TIP3    H213153   4.224   4.049   2.825
 4383TIP3   OH213154   4.140   2.481   5.222
 4383TIP3    H113155   4.135   2.461   5.129
 4383TIP3    H213156   4.079   2.553   5.235
 4384TIP3   OH213157   4.926   1.308   3.616
 4384TIP3    H113158   4.834   1.284   3.616
 4384TIP3    H213159   4.962   1.267   3.695
 4385TIP3   OH213160   3.854   0.955   1.974
 4385TIP3    H113161   3.833   0.982   2.063
 4385TIP3    H213162   3.803   1.013   1.918
 4386TIP3   OH213163   1.991   3.024   4.238
 4386TIP3    H113164   2.020   2.935   4.258
 4386TIP3    H213165   1.898   3.016   4.218
 4387TIP3   OH213166   3.393   0.990   0.798
 4387TIP3    H113167   3.456   1.037   0.742
 4387TIP3    H213168   3.442   0.915   0.831
 4388TIP3   OH213169   5.163   2.414   1.635
 4388TIP3    H113170   5.218   2.360   1.692
 4388TIP3    H213171   5.113   2.470   1.695
 4389TIP3   OH213172   2.539   4.890   1.373
 4389TIP3    H113173   2.542   4.799   1.402
 4389TIP3    H213174   2.527   4.941   1.453
 4390TIP3   OH213175   2.121   5.047   2.162
 4390TIP3    H113176   2.092   4.970   2.211
 4390TIP3    H213177   2.176   5.096   2.223
 4391TIP3   OH213178   4.289   3.856   4.897
 4391TIP3    H113179   4.383   3.865   4.884
 4391TIP3    H213180   4.277   3.862   4.991
 4392TIP3   OH213181   0.092   5.131   3.099
 4392TIP3    H113182   0.052   5.213   3.069
 4392TIP3    H213183   0.019   5.070   3.108
 4393TIP3   OH213184   1.470   4.727   0.266
 4393TIP3    H113185   1.465   4.822   0.276
 4393TIP3    H213186   1.539   4.713   0.201
 4394TIP3   OH213187   0.861   4.021   1.676
 4394TIP3    H113188   0.940   4.008   1.623
 4394TIP3    H213189   0.800   3.955   1.644
 4395TIP3   OH213190   0.908   4.355   0.705
 4395TIP3    H113191   0.872   4.267   0.704
 4395TIP3    H213192   0.911   4.380   0.798
 4396TIP3   OH213193   1.046   3.886   3.263
 4396TIP3    H113194   0.963   3.870   3.218
 4396TIP3    H213195   1.073   3.799   3.295
 4397TIP3   OH213196   1.458   0.095   0.885
 4397TIP3    H113197   1.413   0.039   0.822
 4397TIP3    H213198   1.424   0.183   0.868
 4398TIP3   OH213199   4.571   1.202   2.066
 4398TIP3    H113200   4.585   1.210   2.160
 4398TIP3    H213201   4.627   1.270   2.028
 4399TIP3   OH213202   2.695   3.400   1.759
 4399TIP3    H113203   2.603   3.386   1.738
 4399TIP3    H213204   2.743   3.353   1.691
 4400TIP3   OH213205   0.529   2.283   1.096
 4400TIP3    H113206   0.500   2.284   1.188
 4400TIP3    H213207   0.566   2.196   1.084
 4401TIP3   OH213208   3.509   1.697   2.772
 4401TIP3    H113209   3.510   1.636   2.845
 4401TIP3    H213210   3.595   1.737   2.773
 4402TIP3   OH213211   2.921   1.546   1.327
 4402TIP3    H113212   2.854   1.497   1.375
 4402TIP3    H213213   2.888   1.549   1.237
 4403TIP3   OH213214   2.198   3.931   0.889
 4403TIP3    H113215   2.222   3.931   0.796
 4403TIP3    H213216   2.124   3.871   0.894
 4404TIP3   OH213217   5.179   0.058   5.161
 4404TIP3    H113218   5.199   0.127   5.225
 4404TIP3    H213219   5.143   0.105   5.086
 4405TIP3   OH213220   4.460   3.626   4.617
 4405TIP3    H113221   4.500   3.659   4.698
 4405TIP3    H213222   4.369   3.654   4.623
 4406TIP3   OH213223   0.905   2.614   4.299
 4406TIP3    H113224   0.904   2.518   4.296
 4406TIP3    H213225   0.816   2.638   4.324
 4407TIP3   OH213226   4.405   5.364   1.953
 4407TIP3    H113227   4.460   5.365   2.031
 4407TIP3    H213228   4.318   5.391   1.985
 4408TIP3   OH213229   4.414   5.767   0.560
 4408TIP3    H113230   4.439   5.695   0.617
 4408TIP3    H213231   4.426   5.733   0.471
 4409TIP3   OH213232   4.664   1.640   5.128
 4409TIP3    H113233   4.756   1.633   5.153
 4409TIP3    H213234   4.616   1.608   5.204
 4410TIP3   OH213235   3.536   2.032   1.844
 4410TIP3    H113236   3.525   2.014   1.938
 4410TIP3    H213237   3.622   1.996   1.823
 4411TIP3   OH213238   1.448   5.524   0.813
 4411TIP3    H113239   1.364   5.538   0.769
 4411TIP3    H213240   1.425   5.478   0.894
 4412TIP3   OH213241   4.928   0.533   2.014
 4412TIP3    H113242   4.885   0.494   1.938
 4412TIP3    H213243   4.899   0.625   2.013
 4413TIP3   OH213244   2.312   2.588   2.737
 4413TIP3    H113245   2.252   2.662   2.726
 4413TIP3    H213246   2.317   2.549   2.649
 4414TIP3   OH213247   3.250   4.462   2.731
 4414TIP3    H113248   3.283   4.375   2.756
 4414TIP3    H213249   3.245   4.458   2.635
 4415TIP3   OH213250   1.369   3.398   3.956
 4415TIP3    H113251   1.325   3.337   3.897
 4415TIP3    H213252   1.449   3.352   3.982
 4416TIP3   OH213253   5.315   0.374   4.822
 4416TIP3    H113254   5.250   0.412   4.882
 4416TIP3    H213255   5.398   0.382   4.867
 4417TIP3   OH213256   4.991   3.183   3.865
 4417TIP3    H113257   4.999   3.228   3.781
 4417TIP3    H213258   4.905   3.208   3.897
 4418TIP3   OH213259   1.680   0.239   3.000
 4418TIP3    H113260   1.642   0.324   2.976
 4418TIP3    H213261   1.689   0.243   3.095
 4419TIP3   OH213262   3.629   0.349   4.748
 4419TIP3    H113263   3.724   0.341   4.748
 4419TIP3    H213264   3.605   0.355   4.841
 4420TIP3   OH213265   5.461   4.803   3.451
 4420TIP3    H113266   5.405   4.753   3.391
 4420TIP3    H213267   5.409   4.811   3.531
 4421TIP3   OH213268   4.841   5.900   1.397
 4421TIP3    H113269   4.917   5.861   1.440
 4421TIP3    H213270   4.810   5.967   1.458
 4422TIP3   OH213271   3.878   0.960   3.208
 4422TIP3    H113272   3.858   0.879   3.255
 4422TIP3    H213273   3.963   0.943   3.167
 4423TIP3   OH213274   1.578   1.846   2.982
 4423TIP3    H113275   1.548   1.936   2.969
 4423TIP3    H213276   1.625   1.825   2.901
 4424TIP3   OH213277   4.140   0.294   3.496
 4424TIP3    H113278   4.213   0.266   3.552
 4424TIP3    H213279   4.142   0.233   3.422
 4425TIP3   OH213280   5.706   1.955   0.728
 4425TIP3    H113281   5.656   2.007   0.790
 4425TIP3    H213282   5.745   2.019   0.669
 4426TIP3   OH213283   6.237   1.621   4.329
 4426TIP3    H113284   6.167   1.665   4.282
 4426TIP3    H213285   6.204   1.532   4.343
 4427TIP3   OH213286   0.755   5.606   3.914
 4427TIP3    H113287   0.759   5.526   3.967
 4427TIP3    H213288   0.725   5.576   3.828
 4428TIP3   OH213289   5.934   1.347   0.156
 4428TIP3    H113290   5.914   1.304   0.074
 4428TIP3    H213291   5.976   1.429   0.131
 4429TIP3   OH213292   4.386   5.246   0.688
 4429TIP3    H113293   4.352   5.204   0.609
 4429TIP3    H213294   4.481   5.239   0.679
 4430TIP3   OH213295   2.660   2.210   3.123
 4430TIP3    H113296   2.654   2.247   3.211
 4430TIP3    H213297   2.747   2.236   3.093
 4431TIP3   OH213298   2.986   3.306   0.248
 4431TIP3    H113299   3.054   3.243   0.271
 4431TIP3    H213300   2.970   3.354   0.329
 4432TIP3   OH213301   4.130   2.926   1.014
 4432TIP3    H113302   4.100   2.864   1.081
 4432TIP3    H213303   4.060   2.990   1.007
 4433TIP3   OH213304   6.317   2.478   0.813
 4433TIP3    H113305   6.259   2.523   0.874
 4433TIP3    H213306   6.309   2.528   0.731
 4434TIP3   OH213307   3.037   2.626   0.157
 4434TIP3    H113308   2.957   2.611   0.106
 4434TIP3    H213309   3.049   2.721   0.155
 4435TIP3   OH213310   2.905   1.941   0.567
 4435TIP3    H113311   2.840   2.009   0.584
 4435TIP3    H213312   2.870   1.893   0.492
 4436TIP3   OH213313   5.961   3.717   1.465
 4436TIP3    H113314   5.993   3.678   1.384
 4436TIP3    H213315   5.914   3.647   1.509
 4437TIP3   OH213316   2.555   3.605   3.508
 4437TIP3    H113317   2.492   3.549   3.554
 4437TIP3    H213318   2.620   3.627   3.575
 4438TIP3   OH213319   2.490   3.368   4.927
 4438TIP3    H113320   2.548   3.300   4.894
 4438TIP3    H213321   2.521   3.448   4.884
 4439TIP3   OH213322   2.563   4.927   3.374
 4439TIP3    H113323   2.585   4.864   3.443
 4439TIP3    H213324   2.545   5.008   3.421
 4440TIP3   OH213325   3.678   0.185   1.581
 4440TIP3    H113326   3.634   0.151   1.502
 4440TIP3    H213327   3.751   0.236   1.547
 4441TIP3   OH213328   5.036   3.299   4.732
 4441TIP3    H113329   4.958   3.247   4.750
 4441TIP3    H213330   5.062   3.274   4.643
 4442TIP3   OH213331   3.864   0.640   4.830
 4442TIP3    H113332   3.926   0.697   4.875
 4442TIP3    H213333   3.885   0.552   4.861
 4443TIP3   OH213334   2.588   4.948   3.996
 4443TIP3    H113335   2.639   5.021   3.962
 4443TIP3    H213336   2.582   4.964   4.090
 4444TIP3   OH213337   3.161   5.484   4.893
 4444TIP3    H113338   3.176   5.499   4.800
 4444TIP3    H213339   3.247   5.460   4.927
 4445TIP3   OH213340   5.630   2.306   2.275
 4445TIP3    H113341   5.543   2.320   2.314
 4445TIP3    H213342   5.612   2.291   2.182
 4446TIP3   OH213343   2.156   0.322   1.689
 4446TIP3    H113344   2.104   0.262   1.636
 4446TIP3    H213345   2.095   0.391   1.714
 4447TIP3   OH213346   1.335   2.617   2.774
 4447TIP3    H113347   1.339   2.705   2.810
 4447TIP3    H213348   1.248   2.612   2.734
 4448TIP3   OH213349   2.911   4.512   4.658
 4448TIP3    H113350   2.891   4.419   4.660
 4448TIP3    H213351   2.826   4.555   4.665
 4449TIP3   OH213352   1.019   2.573   2.633
 4449TIP3    H113353   0.996   2.666   2.634
 4449TIP3    H213354   1.019   2.548   2.726
 4450TIP3   OH213355   3.402   0.987   2.668
 4450TIP3    H113356   3.339   1.017   2.733
 4450TIP3    H213357   3.466   0.936   2.718
 4451TIP3   OH213358   0.452   3.338   2.875
 4451TIP3    H113359   0.421   3.248   2.875
 4451TIP3    H213360   0.450   3.364   2.783
 4452TIP3   OH213361   5.045   2.547   0.070
 4452TIP3    H113362   4.964   2.556   0.021
 4452TIP3    H213363   5.079   2.461   0.044
 4453TIP3   OH213364   3.322   3.356   1.588
 4453TIP3    H113365   3.347   3.326   1.676
 4453TIP3    H213366   3.385   3.315   1.530
 4454TIP3   OH213367   2.820   1.700   2.614
 4454TIP3    H113368   2.885   1.732   2.676
 4454TIP3    H213369   2.736   1.715   2.657
 4455TIP3   OH213370   4.978   5.851   0.222
 4455TIP3    H113371   5.010   5.782   0.281
 4455TIP3    H213372   4.883   5.843   0.225
 4456TIP3   OH213373   5.251   4.803   3.143
 4456TIP3    H113374   5.295   4.737   3.197
 4456TIP3    H213375   5.242   4.761   3.057
 4457TIP3   OH213376   4.530   3.337   3.899
 4457TIP3    H113377   4.463   3.268   3.898
 4457TIP3    H213378   4.596   3.308   3.837
 4458TIP3   OH213379   4.908   2.165   4.696
 4458TIP3    H113380   4.868   2.191   4.613
 4458TIP3    H213381   4.833   2.138   4.751
 4459TIP3   OH213382   1.270   2.214   2.644
 4459TIP3    H113383   1.361   2.242   2.633
 4459TIP3    H213384   1.275   2.120   2.661
 4460TIP3   OH213385   3.368   2.671   0.453
 4460TIP3    H113386   3.278   2.638   0.452
 4460TIP3    H213387   3.396   2.661   0.544
 4461TIP3   OH213388   3.069   2.949   3.890
 4461TIP3    H113389   2.996   2.912   3.839
 4461TIP3    H213390   3.084   2.886   3.960
 4462TIP3   OH213391   3.784   3.215   2.292
 4462TIP3    H113392   3.816   3.138   2.244
 4462TIP3    H213393   3.799   3.194   2.384
 4463TIP3   OH213394   3.544   0.836   2.851
 4463TIP3    H113395   3.520   0.786   2.929
 4463TIP3    H213396   3.631   0.871   2.871
 4464TIP3   OH213397   3.580   0.467   3.961
 4464TIP3    H113398   3.553   0.486   3.872
 4464TIP3    H213399   3.629   0.545   3.989
 4465TIP3   OH213400   4.631   2.984   0.331
 4465TIP3    H113401   4.613   2.893   0.358
 4465TIP3    H213402   4.715   2.979   0.287
 4466TIP3   OH213403   5.593   2.991   3.054
 4466TIP3    H113404   5.631   2.918   3.102
 4466TIP3    H213405   5.509   2.958   3.023
 4467TIP3   OH213406   1.101   1.219   3.393
 4467TIP3    H113407   1.145   1.289   3.345
 4467TIP3    H213408   1.046   1.265   3.456
 4468TIP3   OH213409   6.291   5.738   1.745
 4468TIP3    H113410   6.243   5.811   1.705
 4468TIP3    H213411   6.341   5.699   1.674
 4469TIP3   OH213412   5.087   3.597   1.630
 4469TIP3    H113413   5.022   3.570   1.695
 4469TIP3    H213414   5.119   3.515   1.592
 4470TIP3   OH213415   3.475   0.686   0.342
 4470TIP3    H113416   3.563   0.656   0.366
 4470TIP3    H213417   3.489   0.774   0.307
 4471TIP3   OH213418   2.089   4.441   2.230
 4471TIP3    H113419   1.995   4.432   2.215
 4471TIP3    H213420   2.121   4.487   2.152
 4472TIP3   OH213421   0.291   4.231   5.026
 4472TIP3    H113422   0.201   4.201   5.026
 4472TIP3    H213423   0.333   4.183   5.097
 4473TIP3   OH213424   4.656   3.170   3.253
 4473TIP3    H113425   4.688   3.243   3.201
 4473TIP3    H213426   4.723   3.157   3.320
 4474TIP3   OH213427   0.417   5.400   2.850
 4474TIP3    H113428   0.458   5.404   2.936
 4474TIP3    H213429   0.429   5.488   2.813
 4475TIP3   OH213430   1.923   5.890   0.322
 4475TIP3    H113431   1.942   5.827   0.253
 4475TIP3    H213432   1.874   5.840   0.388
 4476TIP3   OH213433   5.766   5.449   3.774
 4476TIP3    H113434   5.826   5.522   3.786
 4476TIP3    H213435   5.805   5.377   3.823
 4477TIP3   OH213436   4.981   0.340   3.199
 4477TIP3    H113437   5.011   0.286   3.127
 4477TIP3    H213438   5.013   0.296   3.278
 4478TIP3   OH213439   1.472   1.187   4.645
 4478TIP3    H113440   1.394   1.237   4.669
 4478TIP3    H213441   1.511   1.236   4.573
 4479TIP3   OH213442   4.808   3.118   4.706
 4479TIP3    H113443   4.788   3.088   4.617
 4479TIP3    H213444   4.874   3.057   4.738
 4480TIP3   OH213445   0.875   0.859   4.365
 4480TIP3    H113446   0.872   0.809   4.446
 4480TIP3    H213447   0.947   0.921   4.377
 4481TIP3   OH213448   5.158   5.138   2.528
 4481TIP3    H113449   5.172   5.192   2.606
 4481TIP3    H213450   5.174   5.048   2.558
 4482TIP3   OH213451   1.875   1.029   4.066
 4482TIP3    H113452   1.803   0.981   4.024
 4482TIP3    H213453   1.937   1.046   3.996
 4483TIP3   OH213454   5.470   4.601   4.725
 4483TIP3    H113455   5.528   4.565   4.658
 4483TIP3    H213456   5.398   4.641   4.677
 4484TIP3   OH213457   4.315   5.070   4.928
 4484TIP3    H113458   4.237   5.015   4.936
 4484TIP3    H213459   4.352   5.073   5.016
 4485TIP3   OH213460   4.526   4.676   3.013
 4485TIP3    H113461   4.485   4.615   2.952
 4485TIP3    H213462   4.516   4.635   3.099
 4486TIP3   OH213463   4.183   3.413   4.111
 4486TIP3    H113464   4.183   3.507   4.095
 4486TIP3    H213465   4.096   3.384   4.086
 4487TIP3   OH213466   1.688   3.377   0.700
 4487TIP3    H113467   1.656   3.288   0.714
 4487TIP3    H213468   1.615   3.422   0.658
 4488TIP3   OH213469   0.326   5.074   0.932
 4488TIP3    H113470   0.329   5.112   0.845
 4488TIP3    H213471   0.401   5.015   0.935
 4489TIP3   OH213472   3.363   0.620   3.807
 4489TIP3    H113473   3.392   0.571   3.730
 4489TIP3    H213474   3.429   0.687   3.819
 4490TIP3   OH213475   5.195   2.556   1.418
 4490TIP3    H113476   5.287   2.561   1.392
 4490TIP3    H213477   5.195   2.502   1.497
 4491TIP3   OH213478   6.324   2.221   2.970
 4491TIP3    H113479   6.416   2.196   2.967
 4491TIP3    H213480   6.317   2.294   2.908
 4492TIP3   OH213481   1.225   5.159   2.283
 4492TIP3    H113482   1.159   5.141   2.350
 4492TIP3    H213483   1.175   5.163   2.201
 4493TIP3   OH213484   5.496   1.051   3.868
 4493TIP3    H113485   5.417   1.004   3.895
 4493TIP3    H213486   5.553   0.983   3.831
 4494TIP3   OH213487   1.321   1.579   0.770
 4494TIP3    H113488   1.331   1.519   0.695
 4494TIP3    H213489   1.397   1.637   0.764
 4495TIP3   OH213490   1.793   0.043   0.826
 4495TIP3    H113491   1.882   0.079   0.826
 4495TIP3    H213492   1.738   0.115   0.796
 4496TIP3   OH213493   2.956   5.666   0.668
 4496TIP3    H113494   3.036   5.708   0.699
 4496TIP3    H213495   2.893   5.678   0.740
 4497TIP3   OH213496   1.181   4.484   0.017
 4497TIP3    H113497   1.199   4.509   0.107
 4497TIP3    H213498   1.191   4.565  -0.033
 4498TIP3   OH213499   4.846   4.483   1.672
 4498TIP3    H113500   4.882   4.476   1.584
 4498TIP3    H213501   4.922   4.482   1.729
 4499TIP3   OH213502   3.678   5.577   3.162
 4499TIP3    H113503   3.756   5.530   3.190
 4499TIP3    H213504   3.623   5.583   3.241
 4500TIP3   OH213505   4.605   5.161   3.287
 4500TIP3    H113506   4.610   5.234   3.226
 4500TIP3    H213507   4.615   5.083   3.233
 4501TIP3   OH213508   0.855   2.264   1.058
 4501TIP3    H113509   0.820   2.187   1.103
 4501TIP3    H213510   0.837   2.247   0.965
 4502TIP3   OH213511   4.972   4.100   4.594
 4502TIP3    H113512   4.956   4.008   4.572
 4502TIP3    H213513   5.044   4.126   4.536
 4503TIP3   OH213514   5.788   2.292   1.764
 4503TIP3    H113515   5.713   2.351   1.765
 4503TIP3    H213516   5.793   2.262   1.673
 4504TIP3   OH213517   3.001   4.618   4.923
 4504TIP3    H113518   2.990   4.597   4.831
 4504TIP3    H213519   2.942   4.691   4.939
 4505TIP3   OH213520   1.780   4.267   3.178
 4505TIP3    H113521   1.847   4.271   3.246
 4505TIP3    H213522   1.737   4.352   3.182
 4506TIP3   OH213523   1.502   5.949   4.792
 4506TIP3    H113524   1.523   6.012   4.724
 4506TIP3    H213525   1.466   5.874   4.745
 4507TIP3   OH213526   5.649   3.266   2.977
 4507TIP3    H113527   5.700   3.226   2.907
 4507TIP3    H213528   5.588   3.198   3.005
 4508TIP3   OH213529   5.022   3.993   3.709
 4508TIP3    H113530   4.996   4.004   3.617
 4508TIP3    H213531   5.093   4.057   3.720
 4509TIP3   OH213532   4.124   4.129   1.800
 4509TIP3    H113533   4.214   4.162   1.804
 4509TIP3    H213534   4.074   4.201   1.761
 4510TIP3   OH213535   2.738   1.247   2.019
 4510TIP3    H113536   2.709   1.328   2.062
 4510TIP3    H213537   2.834   1.254   2.018
 4511TIP3   OH213538   4.022   0.926   0.683
 4511TIP3    H113539   4.111   0.925   0.647
 4511TIP3    H213540   4.035   0.923   0.778
 4512TIP3   OH213541   0.062   2.990   2.543
 4512TIP3    H113542   0.143   3.033   2.516
 4512TIP3    H213543  -0.002   3.061   2.547
 4513TIP3   OH213544   3.585   5.027   4.979
 4513TIP3    H113545   3.596   4.989   5.066
 4513TIP3    H213546   3.611   4.957   4.919
 4514TIP3   OH213547   4.490   0.740   3.841
 4514TIP3    H113548   4.424   0.671   3.837
 4514TIP3    H213549   4.480   0.778   3.929
 4515TIP3   OH213550   3.678   3.754   2.605
 4515TIP3    H113551   3.618   3.747   2.530
 4515TIP3    H213552   3.722   3.838   2.593
 4516TIP3   OH213553   2.713   2.977   0.868
 4516TIP3    H113554   2.726   3.068   0.893
 4516TIP3    H213555   2.654   2.980   0.792
 4517TIP3   OH213556   3.259   1.761   3.309
 4517TIP3    H113557   3.231   1.798   3.225
 4517TIP3    H213558   3.298   1.677   3.286
 4518TIP3   OH213559   1.733   4.275   1.144
 4518TIP3    H113560   1.805   4.234   1.193
 4518TIP3    H213561   1.776   4.326   1.076
 4519TIP3   OH213562   6.081   1.169   3.736
 4519TIP3    H113563   6.161   1.217   3.756
 4519TIP3    H213564   6.018   1.236   3.708
 4520TIP3   OH213565   4.325   4.593   0.645
 4520TIP3    H113566   4.345   4.525   0.580
 4520TIP3    H213567   4.251   4.641   0.607
 4521TIP3   OH213568   2.245   2.767   3.937
 4521TIP3    H113569   2.165   2.812   3.911
 4521TIP3    H213570   2.217   2.706   4.006
 4522TIP3   OH213571   6.229   2.908   4.821
 4522TIP3    H113572   6.270   2.826   4.849
 4522TIP3    H213573   6.303   2.964   4.797
 4523TIP3   OH213574   5.864   2.300   2.678
 4523TIP3    H113575   5.955   2.296   2.648
 4523TIP3    H213576   5.863   2.245   2.756
 4524TIP3   OH213577   4.438   4.603   2.034
 4524TIP3    H113578   4.504   4.575   1.971
 4524TIP3    H213579   4.468   4.690   2.063
 4525TIP3   OH213580   2.061   0.112   0.923
 4525TIP3    H113581   2.115   0.035   0.908
 4525TIP3    H213582   2.038   0.107   1.016
 4526TIP3   OH213583   5.515   4.061   3.100
 4526TIP3    H113584   5.499   4.113   3.179
 4526TIP3    H213585   5.457   4.098   3.034
 4527TIP3   OH213586   5.335   4.269   0.571
 4527TIP3    H113587   5.358   4.194   0.516
 4527TIP3    H213588   5.273   4.319   0.518
 4528TIP3   OH213589   4.617   4.067   5.088
 4528TIP3    H113590   4.550   4.125   5.051
 4528TIP3    H213591   4.571   4.017   5.155
 4529TIP3   OH213592   0.654   1.163   0.792
 4529TIP3    H113593   0.586   1.105   0.826
 4529TIP3    H213594   0.705   1.188   0.869
 4530TIP3   OH213595   3.007   2.899   0.546
 4530TIP3    H113596   2.991   2.993   0.541
 4530TIP3    H213597   3.032   2.883   0.637
 4531TIP3   OH213598   1.459   1.275   3.073
 4531TIP3    H113599   1.483   1.353   3.023
 4531TIP3    H213600   1.439   1.209   3.007
 4532TIP3   OH213601   3.328   5.803   2.069
 4532TIP3    H113602   3.291   5.833   1.986
 4532TIP3    H213603   3.415   5.771   2.046
 4533TIP3   OH213604   0.521   5.704   4.424
 4533TIP3    H113605   0.429   5.729   4.434
 4533TIP3    H213606   0.518   5.614   4.391
 4534TIP3   OH213607   5.750   1.939   4.643
 4534TIP3    H113608   5.702   1.918   4.563
 4534TIP3    H213609   5.814   1.869   4.652
 4535TIP3   OH213610   2.272   2.028   0.012
 4535TIP3    H113611   2.189   2.049   0.054
 4535TIP3    H213612   2.337   2.038   0.082
 4536TIP3   OH213613   3.656   2.949   3.037
 4536TIP3    H113614   3.644   2.900   3.119
 4536TIP3    H213615   3.704   3.028   3.063
 4537TIP3   OH213616   5.468   3.977   4.518
 4537TIP3    H113617   5.535   4.044   4.507
 4537TIP3    H213618   5.450   3.976   4.612
 4538TIP3   OH213619   2.186   5.305   1.389
 4538TIP3    H113620   2.157   5.221   1.352
 4538TIP3    H213621   2.281   5.301   1.384
 4539TIP3   OH213622   3.881   3.025   1.265
 4539TIP3    H113623   3.923   2.947   1.228
 4539TIP3    H213624   3.887   3.013   1.360
 4540TIP3   OH213625   3.230   3.212   0.543
 4540TIP3    H113626   3.190   3.139   0.496
 4540TIP3    H213627   3.249   3.277   0.475
 4541TIP3   OH213628   6.304   2.671   4.956
 4541TIP3    H113629   6.372   2.604   4.957
 4541TIP3    H213630   6.343   2.745   5.002
 4542TIP3   OH213631   0.114   4.114   2.680
 4542TIP3    H113632   0.134   4.085   2.769
 4542TIP3    H213633   0.081   4.203   2.690
 4543TIP3   OH213634   5.882   4.502   1.519
 4543TIP3    H113635   5.833   4.428   1.483
 4543TIP3    H213636   5.907   4.553   1.442
 4544TIP3   OH213637   3.179   5.806   3.579
 4544TIP3    H113638   3.142   5.728   3.539
 4544TIP3    H213639   3.192   5.867   3.505
 4545TIP3   OH213640   0.847   3.680  -0.006
 4545TIP3    H113641   0.864   3.750   0.058
 4545TIP3    H213642   0.763   3.643   0.020
 4546TIP3   OH213643   5.062   1.462   4.850
 4546TIP3    H113644   5.116   1.485   4.774
 4546TIP3    H213645   5.049   1.545   4.896
 4547TIP3   OH213646   0.727   3.646   2.448
 4547TIP3    H113647   0.808   3.688   2.417
 4547TIP3    H213648   0.658   3.690   2.399
 4548TIP3   OH213649   2.619   3.643   1.315
 4548TIP3    H113650   2.574   3.559   1.322
 4548TIP3    H213651   2.702   3.629   1.360
 4549TIP3   OH213652   0.130   4.737   3.335
 4549TIP3    H113653   0.180   4.689   3.268
 4549TIP3    H213654   0.146   4.689   3.416
 4550TIP3   OH213655   5.262   2.974   4.709
 4550TIP3    H113656   5.339   3.026   4.685
 4550TIP3    H213657   5.221   3.023   4.780
 4551TIP3   OH213658   0.145   1.604   2.523
 4551TIP3    H113659   0.129   1.566   2.437
 4551TIP3    H213660   0.224   1.559   2.554
 4552TIP3   OH213661   4.159   5.778   1.182
 4552TIP3    H113662   4.241   5.734   1.158
 4552TIP3    H213663   4.137   5.744   1.268
 4553TIP3   OH213664   5.730   1.575   0.787
 4553TIP3    H113665   5.739   1.603   0.696
 4553TIP3    H213666   5.728   1.657   0.837
 4554TIP3   OH213667   4.042   3.466   0.836
 4554TIP3    H113668   4.102   3.453   0.763
 4554TIP3    H213669   3.956   3.448   0.800
 4555TIP3   OH213670   4.589   2.314   2.764
 4555TIP3    H113671   4.660   2.278   2.709
 4555TIP3    H213672   4.599   2.269   2.848
 4556TIP3   OH213673   5.694   5.582   0.349
 4556TIP3    H113674   5.691   5.558   0.256
 4556TIP3    H213675   5.673   5.501   0.395
 4557TIP3   OH213676   4.131   3.441   3.416
 4557TIP3    H113677   4.065   3.507   3.395
 4557TIP3    H213678   4.147   3.396   3.334
 4558TIP3   OH213679   1.298   2.797   3.783
 4558TIP3    H113680   1.384   2.773   3.818
 4558TIP3    H213681   1.300   2.892   3.777
 4559TIP3   OH213682   4.299   2.829   0.165
 4559TIP3    H113683   4.269   2.761   0.104
 4559TIP3    H213684   4.306   2.783   0.249
 4560TIP3   OH213685   0.289   5.238   4.108
 4560TIP3    H113686   0.194   5.221   4.110
 4560TIP3    H213687   0.311   5.258   4.199
 4561TIP3   OH213688   3.879   0.563   2.299
 4561TIP3    H113689   3.891   0.539   2.207
 4561TIP3    H213690   3.957   0.612   2.322
 4562TIP3   OH213691   3.215   2.621   2.948
 4562TIP3    H113692   3.288   2.684   2.944
 4562TIP3    H213693   3.136   2.676   2.945
 4563TIP3   OH213694   2.227   5.021   3.240
 4563TIP3    H113695   2.223   4.926   3.249
 4563TIP3    H213696   2.264   5.036   3.153
 4564TIP3   OH213697   1.487   4.382   3.573
 4564TIP3    H113698   1.510   4.291   3.555
 4564TIP3    H213699   1.531   4.402   3.656
 4565TIP3   OH213700   0.225   2.383   4.560
 4565TIP3    H113701   0.155   2.433   4.603
 4565TIP3    H213702   0.183   2.348   4.481
 4566TIP3   OH213703   4.873   5.518   2.392
 4566TIP3    H113704   4.923   5.437   2.379
 4566TIP3    H213705   4.933   5.577   2.435
 4567TIP3   OH213706   0.498   0.443   4.088
 4567TIP3    H113707   0.428   0.498   4.056
 4567TIP3    H213708   0.459   0.355   4.094
 4568TIP3   OH213709   3.801   2.176   1.432
 4568TIP3    H113710   3.767   2.121   1.362
 4568TIP3    H213711   3.882   2.133   1.459
 4569TIP3   OH213712   2.036   0.259   5.056
 4569TIP3    H113713   2.048   0.178   5.105
 4569TIP3    H213714   2.088   0.324   5.103
 4570TIP3   OH213715   2.507   3.072   4.567
 4570TIP3    H113716   2.559   3.146   4.535
 4570TIP3    H213717   2.491   3.019   4.489
 4571TIP3   OH213718   5.069   0.795   2.242
 4571TIP3    H113719   5.161   0.777   2.225
 4571TIP3    H213720   5.027   0.791   2.156
 4572TIP3   OH213721   6.213   0.067   3.587
 4572TIP3    H113722   6.152   0.061   3.514
 4572TIP3    H213723   6.295   0.100   3.548
 4573TIP3   OH213724   1.637   2.117   1.493
 4573TIP3    H113725   1.643   2.074   1.578
 4573TIP3    H213726   1.720   2.164   1.483
 4574TIP3   OH213727   3.658   1.273   2.761
 4574TIP3    H113728   3.708   1.192   2.747
 4574TIP3    H213729   3.724   1.342   2.761
 4575TIP3   OH213730   1.338   4.237   4.973
 4575TIP3    H113731   1.331   4.167   5.037
 4575TIP3    H213732   1.292   4.203   4.896
 4576TIP3   OH213733   3.434   3.094   4.766
 4576TIP3    H113734   3.426   3.069   4.674
 4576TIP3    H213735   3.482   3.021   4.807
 4577TIP3   OH213736   5.716   2.528   2.439
 4577TIP3    H113737   5.670   2.477   2.372
 4577TIP3    H213738   5.680   2.497   2.522
 4578TIP3   OH213739   4.819  -0.010   5.171
 4578TIP3    H113740   4.834   0.043   5.092
 4578TIP3    H213741   4.820   0.053   5.243
 4579TIP3   OH213742   3.904   4.480   4.303
 4579TIP3    H113743   3.950   4.468   4.386
 4579TIP3    H213744   3.874   4.392   4.280
 4580TIP3   OH213745   3.703   3.976   4.322
 4580TIP3    H113746   3.762   4.051   4.314
 4580TIP3    H213747   3.638   4.003   4.387
 4581TIP3   OH213748   0.774   2.305   4.547
 4581TIP3    H113749   0.704   2.369   4.536
 4581TIP3    H213750   0.831   2.318   4.472
 4582TIP3   OH213751   4.317   3.971   2.335
 4582TIP3    H113752   4.296   3.936   2.248
 4582TIP3    H213753   4.394   4.026   2.320
 4583TIP3   OH213754   5.673   5.710   4.647
 4583TIP3    H113755   5.647   5.802   4.636
 4583TIP3    H213756   5.764   5.707   4.616
 4584TIP3   OH213757   3.919   4.806   0.564
 4584TIP3    H113758   3.827   4.823   0.586
 4584TIP3    H213759   3.952   4.756   0.639
 4585TIP3   OH213760   2.695   0.821   5.069
 4585TIP3    H113761   2.601   0.817   5.086
 4585TIP3    H213762   2.715   0.915   5.071
 4586TIP3   OH213763   4.385   1.431   0.925
 4586TIP3    H113764   4.336   1.397   0.851
 4586TIP3    H213765   4.477   1.427   0.897
 4587TIP3   OH213766   3.547   5.634   0.439
 4587TIP3    H113767   3.580   5.583   0.365
 4587TIP3    H213768   3.522   5.718   0.402
 4588TIP3   OH213769   0.109   4.426   3.293
 4588TIP3    H113770   0.124   4.390   3.206
 4588TIP3    H213771   0.187   4.401   3.343
 4589TIP3   OH213772   1.692   1.507   3.608
 4589TIP3    H113773   1.786   1.488   3.610
 4589TIP3    H213774   1.671   1.533   3.698
 4590TIP3   OH213775   4.053   2.826   2.763
 4590TIP3    H113776   3.972   2.876   2.763
 4590TIP3    H213777   4.032   2.745   2.811
 4591TIP3   OH213778   1.236   3.223   5.024
 4591TIP3    H113779   1.248   3.318   5.019
 4591TIP3    H213780   1.195   3.200   4.941
 4592TIP3   OH213781   2.764   4.486   1.661
 4592TIP3    H113782   2.833   4.552   1.648
 4592TIP3    H213783   2.812   4.406   1.683
 4593TIP3   OH213784   0.444   1.849   4.376
 4593TIP3    H113785   0.537   1.829   4.389
 4593TIP3    H213786   0.405   1.767   4.348
 4594TIP3   OH213787   5.729   3.085   2.771
 4594TIP3    H113788   5.647   3.081   2.721
 4594TIP3    H213789   5.741   2.997   2.805
 4595TIP3   OH213790   2.736   1.527   2.004
 4595TIP3    H113791   2.808   1.587   2.024
 4595TIP3    H213792   2.732   1.525   1.909
 4596TIP3   OH213793   0.155   2.758   4.023
 4596TIP3    H113794   0.097   2.692   3.985
 4596TIP3    H213795   0.206   2.792   3.949
 4597TIP3   OH213796   0.599   4.478   1.597
 4597TIP3    H113797   0.669   4.421   1.567
 4597TIP3    H213798   0.596   4.464   1.692
 4598TIP3   OH213799   0.215   3.538   2.875
 4598TIP3    H113800   0.168   3.488   2.808
 4598TIP3    H213801   0.224   3.477   2.948
 4599TIP3   OH213802   1.709   5.016   0.863
 4599TIP3    H113803   1.640   4.950   0.871
 4599TIP3    H213804   1.791   4.967   0.869
 4600TIP3   OH213805   3.770   1.795   2.827
 4600TIP3    H113806   3.786   1.701   2.830
 4600TIP3    H213807   3.805   1.828   2.910
 4601TIP3   OH213808   0.031   4.596   2.803
 4601TIP3    H113809   0.121   4.604   2.834
 4601TIP3    H213810  -0.023   4.614   2.880
 4602TIP3   OH213811   5.195   2.710   2.977
 4602TIP3    H113812   5.145   2.675   3.051
 4602TIP3    H213813   5.235   2.633   2.937
 4603TIP3   OH213814   0.683   5.576   3.658
 4603TIP3    H113815   0.763   5.530   3.633
 4603TIP3    H213816   0.701   5.667   3.637
 4604TIP3   OH213817   3.719   1.892   0.549
 4604TIP3    H113818   3.811   1.909   0.530
 4604TIP3    H213819   3.710   1.796   0.543
 4605TIP3   OH213820   0.469   2.438   3.305
 4605TIP3    H113821   0.437   2.490   3.378
 4605TIP3    H213822   0.526   2.373   3.345
 4606TIP3   OH213823   1.769   0.998   1.646
 4606TIP3    H113824   1.685   0.966   1.681
 4606TIP3    H213825   1.757   0.997   1.551
 4607TIP3   OH213826   4.039   2.793   4.427
 4607TIP3    H113827   4.105   2.730   4.457
 4607TIP3    H213828   4.090   2.866   4.391
 4608TIP3   OH213829   2.652   1.823   3.849
 4608TIP3    H113830   2.604   1.744   3.872
 4608TIP3    H213831   2.743   1.796   3.846
 4609TIP3   OH213832   0.195   1.387   0.387
 4609TIP3    H113833   0.156   1.474   0.391
 4609TIP3    H213834   0.164   1.343   0.466
 4610TIP3   OH213835   2.809   1.458   2.480
 4610TIP3    H113836   2.903   1.440   2.468
 4610TIP3    H213837   2.807   1.541   2.527
 4611TIP3   OH213838   2.321   2.571   0.358
 4611TIP3    H113839   2.228   2.591   0.350
 4611TIP3    H213840   2.354   2.576   0.268
 4612TIP3   OH213841   5.451   5.767   3.032
 4612TIP3    H113842   5.432   5.703   3.100
 4612TIP3    H213843   5.446   5.718   2.950
 4613TIP3   OH213844   5.940   3.707   2.365
 4613TIP3    H113845   5.911   3.798   2.367
 4613TIP3    H213846   5.896   3.665   2.439
 4614TIP3   OH213847   3.975   4.300   3.647
 4614TIP3    H113848   3.946   4.213   3.619
 4614TIP3    H213849   4.058   4.284   3.693
 4615TIP3   OH213850   3.049   4.206   2.951
 4615TIP3    H113851   2.968   4.155   2.946
 4615TIP3    H213852   3.024   4.294   2.922
 4616TIP3   OH213853   1.273   1.429   1.292
 4616TIP3    H113854   1.263   1.474   1.376
 4616TIP3    H213855   1.327   1.487   1.239
 4617TIP3   OH213856   5.067   4.440   1.389
 4617TIP3    H113857   4.992   4.380   1.394
 4617TIP3    H213858   5.035   4.514   1.337
 4618TIP3   OH213859   3.039   3.633   3.196
 4618TIP3    H113860   3.046   3.537   3.197
 4618TIP3    H213861   3.026   3.655   3.103
 4619TIP3   OH213862   3.589   4.367   2.994
 4619TIP3    H113863   3.671   4.382   3.041
 4619TIP3    H213864   3.523   4.411   3.046
 4620TIP3   OH213865   5.587   1.131   4.313
 4620TIP3    H113866   5.639   1.109   4.236
 4620TIP3    H213867   5.497   1.116   4.286
 4621TIP3   OH213868   4.937   5.199   0.249
 4621TIP3    H113869   4.970   5.113   0.274
 4621TIP3    H213870   4.966   5.211   0.158
 4622TIP3   OH213871   5.435   0.261   0.940
 4622TIP3    H113872   5.401   0.296   0.857
 4622TIP3    H213873   5.365   0.280   1.003
 4623TIP3   OH213874   3.952   2.965   3.190
 4623TIP3    H113875   3.909   3.037   3.144
 4623TIP3    H213876   4.046   2.982   3.179
 4624TIP3   OH213877   3.579   4.219   1.876
 4624TIP3    H113878   3.531   4.165   1.939
 4624TIP3    H213879   3.670   4.189   1.884
 4625TIP3   OH213880   5.725   5.372   2.884
 4625TIP3    H113881   5.714   5.465   2.864
 4625TIP3    H213882   5.693   5.327   2.806
 4626TIP3   OH213883   3.533   4.117   2.900
 4626TIP3    H113884   3.442   4.135   2.875
 4626TIP3    H213885   3.576   4.202   2.897
 4627TIP3   OH213886   5.663   0.820   4.507
 4627TIP3    H113887   5.695   0.909   4.517
 4627TIP3    H213888   5.714   0.785   4.434
 4628TIP3   OH213889   1.746   5.276   0.175
 4628TIP3    H113890   1.724   5.355   0.127
 4628TIP3    H213891   1.829   5.295   0.218
 4629TIP3   OH213892   1.836   4.324   0.524
 4629TIP3    H113893   1.804   4.375   0.449
 4629TIP3    H213894   1.758   4.305   0.576
 4630TIP3   OH213895   3.953   4.116   0.942
 4630TIP3    H113896   4.013   4.190   0.949
 4630TIP3    H213897   3.928   4.115   0.849
 4631TIP3   OH213898   4.918   4.877   1.910
 4631TIP3    H113899   4.963   4.883   1.994
 4631TIP3    H213900   4.982   4.841   1.850
 4632TIP3   OH213901   3.739   2.671   2.567
 4632TIP3    H113902   3.772   2.706   2.650
 4632TIP3    H213903   3.803   2.605   2.541
 4633TIP3   OH213904   0.877   0.308   2.019
 4633TIP3    H113905   0.969   0.282   2.011
 4633TIP3    H213906   0.880   0.398   2.051
 4634TIP3   OH213907   2.529   4.599   0.718
 4634TIP3    H113908   2.620   4.625   0.733
 4634TIP3    H213909   2.496   4.576   0.805
 4635TIP3   OH213910   1.215   1.939   0.139
 4635TIP3    H113911   1.123   1.914   0.139
 4635TIP3    H213912   1.255   1.884   0.207
 4636TIP3   OH213913   1.793   0.632   4.916
 4636TIP3    H113914   1.802   0.727   4.925
 4636TIP3    H213915   1.850   0.610   4.842
 4637TIP3   OH213916   1.187   4.670   0.530
 4637TIP3    H113917   1.273   4.630   0.545
 4637TIP3    H213918   1.200   4.762   0.552
 4638TIP3   OH213919   2.307   5.028   3.959
 4638TIP3    H113920   2.292   5.070   3.874
 4638TIP3    H213921   2.385   4.974   3.945
 4639TIP3   OH213922   0.513   0.987   4.780
 4639TIP3    H113923   0.591   1.034   4.808
 4639TIP3    H213924   0.547   0.914   4.728
 4640TIP3   OH213925   3.343   0.288   2.250
 4640TIP3    H113926   3.326   0.369   2.202
 4640TIP3    H213927   3.420   0.251   2.207
 4641TIP3   OH213928   1.562   0.684   3.137
 4641TIP3    H113929   1.583   0.639   3.055
 4641TIP3    H213930   1.467   0.688   3.139
 4642TIP3   OH213931   0.368   4.372   3.309
 4642TIP3    H113932   0.399   4.288   3.276
 4642TIP3    H213933   0.409   4.380   3.395
 4643TIP3   OH213934   0.580   0.278   3.552
 4643TIP3    H113935   0.546   0.277   3.641
 4643TIP3    H213936   0.649   0.212   3.552
 4644TIP3   OH213937   0.706   2.047   1.155
 4644TIP3    H113938   0.790   2.001   1.157
 4644TIP3    H213939   0.654   2.003   1.223
 4645TIP3   OH213940   3.283   4.926   4.077
 4645TIP3    H113941   3.294   4.839   4.114
 4645TIP3    H213942   3.353   4.932   4.011
 4646TIP3   OH213943   3.308   4.827   4.822
 4646TIP3    H113944   3.266   4.881   4.756
 4646TIP3    H213945   3.294   4.737   4.793
 4647TIP3   OH213946   5.929   4.469   0.990
 4647TIP3    H113947   5.861   4.473   0.923
 4647TIP3    H213948   5.896   4.406   1.054
 4648TIP3   OH213949   0.410   2.999   4.982
 4648TIP3    H113950   0.345   2.956   5.037
 4648TIP3    H213951   0.395   3.093   4.994
 4649TIP3   OH213952   0.068   0.285   1.319
 4649TIP3    H113953   0.045   0.200   1.282
 4649TIP3    H213954  -0.003   0.305   1.380
 4650TIP3   OH213955   5.373   5.110   0.427
 4650TIP3    H113956   5.419   5.128   0.509
 4650TIP3    H213957   5.301   5.052   0.451
 4651TIP3   OH213958   1.842   5.228   3.685
 4651TIP3    H113959   1.812   5.167   3.618
 4651TIP3    H213960   1.763   5.251   3.734
 4652TIP3   OH213961   2.557   5.161   1.870
 4652TIP3    H113962   2.481   5.186   1.923
 4652TIP3    H213963   2.570   5.068   1.889
 4653TIP3   OH213964   5.554   4.641   3.670
 4653TIP3    H113965   5.546   4.687   3.587
 4653TIP3    H213966   5.604   4.700   3.726
 4654TIP3   OH213967   6.273   5.353   0.277
 4654TIP3    H113968   6.352   5.401   0.301
 4654TIP3    H213969   6.252   5.384   0.189
 4655TIP3   OH213970   4.300   1.365   0.639
 4655TIP3    H113971   4.227   1.395   0.585
 4655TIP3    H213972   4.378   1.382   0.585
 4656TIP3   OH213973   3.688   0.389   0.765
 4656TIP3    H113974   3.679   0.296   0.743
 4656TIP3    H213975   3.631   0.434   0.703
 4657TIP3   OH213976   1.460   4.780   4.241
 4657TIP3    H113977   1.447   4.697   4.195
 4657TIP3    H213978   1.554   4.782   4.259
 4658TIP3   OH213979   0.536   1.974   2.985
 4658TIP3    H113980   0.629   1.974   3.006
 4658TIP3    H213981   0.493   2.001   3.066
 4659TIP3   OH213982   2.292   2.724   1.392
 4659TIP3    H113983   2.360   2.761   1.336
 4659TIP3    H213984   2.221   2.701   1.333
 4660TIP3   OH213985   4.209   4.366   3.014
 4660TIP3    H113986   4.183   4.287   2.967
 4660TIP3    H213987   4.145   4.432   2.987
 4661TIP3   OH213988   3.790   3.520   3.087
 4661TIP3    H113989   3.750   3.478   3.163
 4661TIP3    H213990   3.726   3.508   3.017
 4662TIP3   OH213991   6.091   2.447   1.378
 4662TIP3    H113992   6.180   2.451   1.345
 4662TIP3    H213993   6.098   2.473   1.470
 4663TIP3   OH213994   1.435   2.295   0.035
 4663TIP3    H113995   1.464   2.209   0.005
 4663TIP3    H213996   1.507   2.325   0.092
 4664TIP3   OH213997   4.108   1.449   0.457
 4664TIP3    H113998   4.154   1.482   0.380
 4664TIP3    H213999   4.018   1.437   0.428
 4665TIP3   OH214000   1.314   5.785   5.070
 4665TIP3    H114001   1.318   5.776   4.975
 4665TIP3    H214002   1.391   5.838   5.092
 4666TIP3   OH214003   3.985   2.146   0.482
 4666TIP3    H114004   3.952   2.074   0.428
 4666TIP3    H214005   3.961   2.225   0.433
 4667TIP3   OH214006   3.073   6.018   4.649
 4667TIP3    H114007   3.020   5.965   4.708
 4667TIP3    H214008   3.087   5.962   4.573
 4668TIP3   OH214009   2.909   3.815   1.892
 4668TIP3    H114010   2.835   3.755   1.886
 4668TIP3    H214011   2.972   3.770   1.948
 4669TIP3   OH214012   4.559   2.525   2.959
 4669TIP3    H114013   4.612   2.476   2.896
 4669TIP3    H214014   4.501   2.579   2.905
 4670TIP3   OH214015   0.897   0.690   4.695
 4670TIP3    H114016   0.992   0.700   4.706
 4670TIP3    H214017   0.876   0.611   4.745
 4671TIP3   OH214018   5.515   3.075   2.215
 4671TIP3    H114019   5.468   3.137   2.159
 4671TIP3    H214020   5.567   3.130   2.273
 4672TIP3   OH214021   6.174   3.408   2.223
 4672TIP3    H114022   6.183   3.484   2.165
 4672TIP3    H214023   6.230   3.341   2.182
 4673TIP3   OH214024   1.510   5.147   2.182
 4673TIP3    H114025   1.552   5.208   2.242
 4673TIP3    H214026   1.417   5.152   2.204
 4674TIP3   OH214027   5.627   4.975   4.102
 4674TIP3    H114028   5.604   4.884   4.123
 4674TIP3    H214029   5.572   4.996   4.026
 4675TIP3   OH214030   2.503   3.583   3.871
 4675TIP3    H114031   2.523   3.648   3.939
 4675TIP3    H214032   2.523   3.628   3.789
 4676TIP3   OH214033   2.926   4.251   1.694
 4676TIP3    H114034   2.845   4.209   1.662
 4676TIP3    H214035   2.936   4.218   1.783
 4677TIP3   OH214036   4.823   0.713   4.328
 4677TIP3    H114037   4.860   0.708   4.416
 4677TIP3    H214038   4.836   0.803   4.301
 4678TIP3   OH214039   2.395   1.816   4.137
 4678TIP3    H114040   2.466   1.751   4.131
 4678TIP3    H214041   2.421   1.874   4.208
 4679TIP3   OH214042   0.471   5.911   4.910
 4679TIP3    H114043   0.394   5.855   4.913
 4679TIP3    H214044   0.437   5.996   4.881
 4680TIP3   OH214045   1.239   4.793   2.429
 4680TIP3    H114046   1.320   4.762   2.389
 4680TIP3    H214047   1.225   4.733   2.503
 4681TIP3   OH214048   2.316   1.802   0.210
 4681TIP3    H114049   2.222   1.804   0.190
 4681TIP3    H214050   2.359   1.824   0.127
 4682TIP3   OH214051   3.295   2.113   1.597
 4682TIP3    H114052   3.232   2.057   1.642
 4682TIP3    H214053   3.324   2.175   1.664
 4683TIP3   OH214054   2.022   2.642   1.810
 4683TIP3    H114055   2.046   2.734   1.826
 4683TIP3    H214056   1.927   2.644   1.800
 4684TIP3   OH214057   4.602   0.727   1.530
 4684TIP3    H114058   4.549   0.804   1.511
 4684TIP3    H214059   4.538   0.656   1.538
 4685TIP3   OH214060   5.832   0.434   1.051
 4685TIP3    H114061   5.898   0.475   0.995
 4685TIP3    H214062   5.748   0.454   1.009
 4686TIP3   OH214063   1.762   4.810   4.057
 4686TIP3    H114064   1.756   4.899   4.092
 4686TIP3    H214065   1.762   4.822   3.962
 4687TIP3   OH214066   0.639   3.539   2.704
 4687TIP3    H114067   0.723   3.543   2.749
 4687TIP3    H214068   0.662   3.538   2.611
 4688TIP3   OH214069   5.362   1.389   3.892
 4688TIP3    H114070   5.446   1.393   3.936
 4688TIP3    H214071   5.327   1.478   3.901
 4689TIP3   OH214072   0.734   1.801   1.793
 4689TIP3    H114073   0.795   1.761   1.731
 4689TIP3    H214074   0.692   1.727   1.837
 4690TIP3   OH214075   1.233   3.585   3.149
 4690TIP3    H114076   1.212   3.491   3.152
 4690TIP3    H214077   1.200   3.613   3.063
 4691TIP3   OH214078   5.909   1.742   3.471
 4691TIP3    H114079   5.855   1.820   3.462
 4691TIP3    H214080   5.846   1.671   3.486
 4692TIP3   OH214081   0.154   4.318   3.045
 4692TIP3    H114082   0.221   4.259   3.010
 4692TIP3    H214083   0.073   4.291   3.002
 4693TIP3   OH214084   1.261   5.355   4.380
 4693TIP3    H114085   1.280   5.272   4.337
 4693TIP3    H214086   1.282   5.340   4.472
 4694TIP3   OH214087   3.183   0.528   4.995
 4694TIP3    H114088   3.146   0.457   5.047
 4694TIP3    H214089   3.265   0.550   5.039
 4695TIP3   OH214090   3.741   1.062   2.186
 4695TIP3    H114091   3.665   1.104   2.146
 4695TIP3    H214092   3.705   1.015   2.261
 4696TIP3   OH214093   5.330   5.016   1.873
 4696TIP3    H114094   5.350   4.978   1.959
 4696TIP3    H214095   5.307   4.941   1.818
 4697TIP3   OH214096   0.700   0.575   4.205
 4697TIP3    H114097   0.692   0.666   4.176
 4697TIP3    H214098   0.620   0.532   4.173
 4698TIP3   OH214099   1.878   2.228   1.425
 4698TIP3    H114100   1.945   2.189   1.369
 4698TIP3    H214101   1.915   2.313   1.452
 4699TIP3   OH214102   2.978   0.389   2.392
 4699TIP3    H114103   3.010   0.462   2.445
 4699TIP3    H214104   2.993   0.418   2.302
 4700TIP3   OH214105   4.610   3.417   4.255
 4700TIP3    H114106   4.604   3.336   4.204
 4700TIP3    H214107   4.533   3.415   4.312
 4701TIP3   OH214108   1.567   0.549   1.666
 4701TIP3    H114109   1.599   0.459   1.672
 4701TIP3    H214110   1.487   0.543   1.614
 4702TIP3   OH214111   1.278   1.196   2.839
 4702TIP3    H114112   1.311   1.224   2.753
 4702TIP3    H214113   1.222   1.269   2.867
 4703TIP3   OH214114   0.826   0.588   1.489
 4703TIP3    H114115   0.841   0.616   1.579
 4703TIP3    H214116   0.905   0.614   1.442
 4704TIP3   OH214117   5.174   3.094   5.112
 4704TIP3    H114118   5.184   3.003   5.139
 4704TIP3    H214119   5.248   3.110   5.053
 4705TIP3   OH214120   3.158   1.895   3.074
 4705TIP3    H114121   3.063   1.890   3.069
 4705TIP3    H214122   3.176   1.984   3.105
 4706TIP3   OH214123   3.067   2.473   3.241
 4706TIP3    H114124   3.094   2.452   3.151
 4706TIP3    H214125   3.117   2.551   3.263
 4707TIP3   OH214126   0.026   4.137   4.061
 4707TIP3    H114127   0.083   4.169   4.131
 4707TIP3    H214128   0.080   4.074   4.014
 4708TIP3   OH214129   0.658   3.017   4.647
 4708TIP3    H114130   0.598   2.977   4.585
 4708TIP3    H214131   0.743   3.015   4.603
 4709TIP3   OH214132   1.359   0.367   1.526
 4709TIP3    H114133   1.417   0.423   1.475
 4709TIP3    H214134   1.349   0.288   1.473
 4710TIP3   OH214135   0.494   1.415   4.790
 4710TIP3    H114136   0.444   1.452   4.863
 4710TIP3    H214137   0.435   1.420   4.715
 4711TIP3   OH214138   1.918   3.671   4.233
 4711TIP3    H114139   1.980   3.598   4.245
 4711TIP3    H214140   1.966   3.747   4.265
 4712TIP3   OH214141   3.544   4.930   3.926
 4712TIP3    H114142   3.532   5.023   3.906
 4712TIP3    H214143   3.573   4.891   3.843
 4713TIP3   OH214144   2.071   1.028   5.062
 4713TIP3    H114145   2.085   0.933   5.066
 4713TIP3    H214146   2.157   1.066   5.080
 4714TIP3   OH214147   6.299   2.563   3.287
 4714TIP3    H114148   6.376   2.593   3.239
 4714TIP3    H214149   6.236   2.540   3.218
 4715TIP3   OH214150   5.617   5.252   4.231
 4715TIP3    H114151   5.531   5.282   4.200
 4715TIP3    H214152   5.636   5.175   4.177
 4716TIP3   OH214153   1.446   5.147   1.594
 4716TIP3    H114154   1.514   5.150   1.527
 4716TIP3    H214155   1.365   5.133   1.545
 4717TIP3   OH214156   5.531   3.164   3.267
 4717TIP3    H114157   5.554   3.253   3.239
 4717TIP3    H214158   5.571   3.107   3.201
 4718TIP3   OH214159   0.582   1.432   2.465
 4718TIP3    H114160   0.500   1.428   2.417
 4718TIP3    H214161   0.584   1.520   2.502
 4719TIP3   OH214162   4.842   1.295   0.229
 4719TIP3    H114163   4.897   1.231   0.275
 4719TIP3    H214164   4.905   1.351   0.183
 4720TIP3   OH214165   4.225   0.499   5.033
 4720TIP3    H114166   4.180   0.579   5.060
 4720TIP3    H214167   4.307   0.529   4.996
 4721TIP3   OH214168   3.673   2.077   2.407
 4721TIP3    H114169   3.723   2.021   2.467
 4721TIP3    H214170   3.598   2.023   2.382
 4722TIP3   OH214171   4.043   3.516   1.111
 4722TIP3    H114172   4.052   3.493   1.018
 4722TIP3    H214173   4.015   3.434   1.153
 4723TIP3   OH214174   5.923   5.567   1.096
 4723TIP3    H114175   5.859   5.524   1.153
 4723TIP3    H214176   5.870   5.626   1.041
 4724TIP3   OH214177   3.703   5.700   4.709
 4724TIP3    H114178   3.721   5.793   4.721
 4724TIP3    H214179   3.608   5.692   4.724
 4725TIP3   OH214180   1.022   2.906   2.399
 4725TIP3    H114181   1.091   2.857   2.353
 4725TIP3    H214182   1.066   2.984   2.431
 4726TIP3   OH214183   0.383   1.409   3.970
 4726TIP3    H114184   0.465   1.436   3.928
 4726TIP3    H214185   0.411   1.366   4.051
 4727TIP3   OH214186   0.985   2.909   3.860
 4727TIP3    H114187   0.927   2.985   3.865
 4727TIP3    H214188   1.073   2.945   3.869
 4728TIP3   OH214189   5.993   1.112   2.324
 4728TIP3    H114190   5.996   1.130   2.418
 4728TIP3    H214191   6.082   1.084   2.303
 4729TIP3   OH214192   2.881   5.217   4.771
 4729TIP3    H114193   2.870   5.238   4.678
 4729TIP3    H214194   2.792   5.219   4.806
 4730TIP3   OH214195   3.798   1.863   3.122
 4730TIP3    H114196   3.830   1.949   3.148
 4730TIP3    H214197   3.867   1.803   3.149
 4731TIP3   OH214198   4.383   2.529   1.265
 4731TIP3    H114199   4.405   2.504   1.175
 4731TIP3    H214200   4.396   2.624   1.267
 4732TIP3   OH214201   5.893   2.486   0.650
 4732TIP3    H114202   5.938   2.409   0.686
 4732TIP3    H214203   5.832   2.512   0.719
 4733TIP3   OH214204   0.422   4.261   0.800
 4733TIP3    H114205   0.426   4.171   0.769
 4733TIP3    H214206   0.348   4.262   0.862
 4734TIP3   OH214207   1.251   2.540   4.330
 4734TIP3    H114208   1.197   2.489   4.269
 4734TIP3    H214209   1.214   2.628   4.327
 4735TIP3   OH214210   2.776   3.122   3.475
 4735TIP3    H114211   2.805   3.136   3.565
 4735TIP3    H214212   2.731   3.203   3.452
 4736TIP3   OH214213   4.862   4.602   2.815
 4736TIP3    H114214   4.823   4.670   2.870
 4736TIP3    H214215   4.922   4.555   2.874
 4737TIP3   OH214216   3.339   1.601   4.367
 4737TIP3    H114217   3.393   1.585   4.444
 4737TIP3    H214218   3.286   1.521   4.358
 4738TIP3   OH214219   0.181   3.476   4.125
 4738TIP3    H114220   0.233   3.477   4.205
 4738TIP3    H214221   0.234   3.525   4.061
 4739TIP3   OH214222   1.500   3.488   2.207
 4739TIP3    H114223   1.453   3.445   2.278
 4739TIP3    H214224   1.581   3.520   2.247
 4740TIP3   OH214225   5.043   2.870   2.780
 4740TIP3    H114226   4.967   2.812   2.790
 4740TIP3    H214227   5.104   2.840   2.847
 4741TIP3   OH214228   6.189   5.783   2.993
 4741TIP3    H114229   6.202   5.815   3.082
 4741TIP3    H214230   6.140   5.854   2.950
 4742TIP3   OH214231   3.432   0.095   4.195
 4742TIP3    H114232   3.349   0.111   4.149
 4742TIP3    H214233   3.485   0.173   4.175
 4743TIP3   OH214234   1.639   5.754   0.758
 4743TIP3    H114235   1.621   5.664   0.784
 4743TIP3    H214236   1.558   5.784   0.716
 4744TIP3   OH214237   1.919   4.668   3.176
 4744TIP3    H114238   1.979   4.624   3.116
 4744TIP3    H214239   1.919   4.613   3.254
 4745TIP3   OH214240   2.154   5.715   1.245
 4745TIP3    H114241   2.205   5.778   1.194
 4745TIP3    H214242   2.064   5.746   1.239
 4746TIP3   OH214243   5.953   1.462   2.453
 4746TIP3    H114244   6.006   1.523   2.503
 4746TIP3    H214245   5.999   1.453   2.369
 4747TIP3   OH214246   6.188   4.398   1.345
 4747TIP3    H114247   6.124   4.456   1.386
 4747TIP3    H214248   6.245   4.370   1.417
 4748TIP3   OH214249   3.609   5.288   2.856
 4748TIP3    H114250   3.552   5.218   2.886
 4748TIP3    H214251   3.572   5.367   2.893
 4749TIP3   OH214252   5.752   0.039   4.281
 4749TIP3    H114253   5.739   0.045   4.187
 4749TIP3    H214254   5.823   0.100   4.300
 4750TIP3   OH214255   0.492   0.519   3.040
 4750TIP3    H114256   0.544   0.599   3.030
 4750TIP3    H214257   0.455   0.503   2.953
 4751TIP3   OH214258   4.031   1.148   3.451
 4751TIP3    H114259   3.943   1.122   3.424
 4751TIP3    H214260   4.031   1.244   3.446
 4752TIP3   OH214261   3.471   2.275   1.742
 4752TIP3    H114262   3.502   2.189   1.769
 4752TIP3    H214263   3.526   2.298   1.667
 4753TIP3   OH214264   1.406   4.668   1.360
 4753TIP3    H114265   1.313   4.657   1.340
 4753TIP3    H214266   1.412   4.652   1.454
 4754TIP3   OH214267   4.846   5.614   3.995
 4754TIP3    H114268   4.775   5.579   3.942
 4754TIP3    H214269   4.920   5.557   3.977
 4755TIP3   OH214270   1.072   5.145   1.429
 4755TIP3    H114271   1.117   5.076   1.476
 4755TIP3    H214272   1.068   5.218   1.491
 4756TIP3   OH214273   1.582   2.954   3.955
 4756TIP3    H114274   1.641   2.912   3.892
 4756TIP3    H214275   1.536   3.021   3.904
 4757TIP3   OH214276   2.379   1.820   1.343
 4757TIP3    H114277   2.365   1.891   1.406
 4757TIP3    H214278   2.336   1.851   1.263
 4758TIP3   OH214279   0.674   4.894   2.971
 4758TIP3    H114280   0.737   4.824   2.986
 4758TIP3    H214281   0.727   4.972   2.959
 4759TIP3   OH214282   6.060   1.801   0.180
 4759TIP3    H114283   6.046   1.720   0.131
 4759TIP3    H214284   5.997   1.797   0.252
 4760TIP3   OH214285   6.056   0.647   2.100
 4760TIP3    H114286   6.049   0.738   2.074
 4760TIP3    H214287   5.975   0.629   2.147
 4761TIP3   OH214288   5.632   2.246   0.283
 4761TIP3    H114289   5.554   2.232   0.228
 4761TIP3    H214290   5.615   2.330   0.327
 4762TIP3   OH214291   3.334   0.785   2.185
 4762TIP3    H114292   3.350   0.830   2.268
 4762TIP3    H214293   3.290   0.851   2.131
 4763TIP3   OH214294   2.447   0.467   4.741
 4763TIP3    H114295   2.519   0.525   4.766
 4763TIP3    H214296   2.375   0.492   4.798
 4764TIP3   OH214297   1.887   5.284   1.611
 4764TIP3    H114298   1.928   5.210   1.566
 4764TIP3    H214299   1.804   5.297   1.566
 4765TIP3   OH214300   2.384   4.609   2.470
 4765TIP3    H114301   2.297   4.605   2.509
 4765TIP3    H214302   2.438   4.554   2.527
 4766TIP3   OH214303   2.004   2.304   2.844
 4766TIP3    H114304   1.980   2.214   2.866
 4766TIP3    H214305   2.056   2.297   2.764
 4767TIP3   OH214306   2.252   5.182   2.388
 4767TIP3    H114307   2.343   5.168   2.360
 4767TIP3    H214308   2.255   5.172   2.484
 4768TIP3   OH214309   4.769   4.685   4.785
 4768TIP3    H114310   4.723   4.673   4.869
 4768TIP3    H214311   4.699   4.693   4.721
 4769TIP3   OH214312   2.570   5.455   0.812
 4769TIP3    H114313   2.625   5.377   0.800
 4769TIP3    H214314   2.632   5.527   0.821
 4770TIP3   OH214315   3.611   5.909   0.612
 4770TIP3    H114316   3.618   5.823   0.571
 4770TIP3    H214317   3.520   5.934   0.600
 4771TIP3   OH214318   2.486   3.049   0.735
 4771TIP3    H114319   2.431   3.039   0.813
 4771TIP3    H214320   2.425   3.076   0.666
 4772TIP3   OH214321   2.090   4.851   3.938
 4772TIP3    H114322   2.140   4.932   3.951
 4772TIP3    H214323   2.098   4.833   3.844
 4773TIP3   OH214324   4.303   0.534   2.293
 4773TIP3    H114325   4.253   0.605   2.332
 4773TIP3    H214326   4.275   0.532   2.201
 4774TIP3   OH214327   2.952   3.440   3.670
 4774TIP3    H114328   2.950   3.364   3.729
 4774TIP3    H214329   2.930   3.404   3.584
 4775TIP3   OH214330   2.370   4.779   2.737
 4775TIP3    H114331   2.337   4.744   2.655
 4775TIP3    H214332   2.293   4.816   2.780
 4776TIP3   OH214333   0.934   3.378   4.927
 4776TIP3    H114334   0.905   3.401   5.016
 4776TIP3    H214335   0.889   3.296   4.907
 4777TIP3   OH214336   3.518   3.326   0.836
 4777TIP3    H114337   3.452   3.268   0.873
 4777TIP3    H214338   3.469   3.398   0.797
 4778TIP3   OH214339   2.895   4.669   2.678
 4778TIP3    H114340   2.835   4.743   2.671
 4778TIP3    H214341   2.932   4.660   2.590
 4779TIP3   OH214342   3.944   4.649   1.717
 4779TIP3    H114343   4.000   4.712   1.671
 4779TIP3    H214344   3.875   4.629   1.654
 4780TIP3   OH214345   3.095   3.238   2.776
 4780TIP3    H114346   3.107   3.290   2.855
 4780TIP3    H214347   3.056   3.156   2.807
 4781TIP3   OH214348   6.270   4.067   4.579
 4781TIP3    H114349   6.296   4.091   4.490
 4781TIP3    H214350   6.350   4.033   4.619
 4782TIP3   OH214351   3.188   3.082   4.912
 4782TIP3    H114352   3.222   3.096   5.000
 4782TIP3    H214353   3.263   3.098   4.855
 4783TIP3   OH214354   2.980   5.073   1.210
 4783TIP3    H114355   3.040   5.016   1.160
 4783TIP3    H214356   3.023   5.159   1.209
 4784TIP3   OH214357   0.857   5.342   3.581
 4784TIP3    H114358   0.788   5.286   3.547
 4784TIP3    H214359   0.938   5.304   3.546
 4785TIP3   OH214360   4.101   5.130   4.601
 4785TIP3    H114361   4.021   5.171   4.633
 4785TIP3    H214362   4.155   5.203   4.569
 4786TIP3   OH214363   0.253   3.878   2.563
 4786TIP3    H114364   0.170   3.925   2.567
 4786TIP3    H214365   0.277   3.865   2.655
 4787TIP3   OH214366   3.243   0.313   1.817
 4787TIP3    H114367   3.210   0.375   1.881
 4787TIP3    H214368   3.316   0.357   1.775
 4788TIP3   OH214369   0.542   1.371   0.512
 4788TIP3    H114370   0.475   1.437   0.529
 4788TIP3    H214371   0.506   1.289   0.545
 4789TIP3   OH214372   1.047   5.744   2.381
 4789TIP3    H114373   1.098   5.694   2.317
 4789TIP3    H214374   1.059   5.835   2.356
 4790TIP3   OH214375   2.407   5.940   3.525
 4790TIP3    H114376   2.475   5.987   3.573
 4790TIP3    H214377   2.425   5.961   3.433
 4791TIP3   OH214378   2.195   5.305   0.630
 4791TIP3    H114379   2.194   5.365   0.555
 4791TIP3    H214380   2.218   5.360   0.705
 4792TIP3   OH214381   3.939   0.242   1.979
 4792TIP3    H114382   3.853   0.265   1.944
 4792TIP3    H214383   3.978   0.187   1.911
 4793TIP3   OH214384   0.765   5.152   4.279
 4793TIP3    H114385   0.839   5.209   4.299
 4793TIP3    H214386   0.688   5.202   4.306
 4794TIP3   OH214387   1.090   5.162   3.797
 4794TIP3    H114388   1.060   5.084   3.752
 4794TIP3    H214389   1.023   5.179   3.864
 4795TIP3   OH214390   2.725   1.316   2.757
 4795TIP3    H114391   2.741   1.380   2.827
 4795TIP3    H214392   2.772   1.352   2.681
 4796TIP3   OH214393   1.642   3.172   4.379
 4796TIP3    H114394   1.619   3.081   4.399
 4796TIP3    H214395   1.611   3.221   4.455
 4797TIP3   OH214396   1.019   3.816   4.837
 4797TIP3    H114397   1.109   3.846   4.825
 4797TIP3    H214398   0.982   3.816   4.748
 4798TIP3   OH214399   0.691   2.949   0.597
 4798TIP3    H114400   0.716   2.859   0.575
 4798TIP3    H214401   0.616   2.939   0.656
 4799TIP3   OH214402   4.912   4.011   4.273
 4799TIP3    H114403   4.989   4.062   4.297
 4799TIP3    H214404   4.941   3.956   4.201
 4800TIP3   OH214405   3.990   0.504   2.061
 4800TIP3    H114406   4.079   0.536   2.046
 4800TIP3    H214407   3.992   0.413   2.031
 4801TIP3   OH214408   1.075   5.952   4.845
 4801TIP3    H114409   1.112   5.916   4.764
 4801TIP3    H214410   1.069   6.046   4.829
 4802TIP3   OH214411   2.527   2.589   2.319
 4802TIP3    H114412   2.478   2.579   2.237
 4802TIP3    H214413   2.609   2.543   2.303
 4803TIP3   OH214414   4.904   5.103   0.831
 4803TIP3    H114415   4.978   5.086   0.889
 4803TIP3    H214416   4.914   5.194   0.804
 4804TIP3   OH214417   1.597   3.052   2.911
 4804TIP3    H114418   1.566   3.012   2.992
 4804TIP3    H214419   1.642   2.982   2.864
 4805TIP3   OH214420   2.150   2.214   3.325
 4805TIP3    H114421   2.068   2.209   3.276
 4805TIP3    H214422   2.186   2.300   3.301
 4806TIP3   OH214423   1.447   2.043   4.165
 4806TIP3    H114424   1.401   2.005   4.090
 4806TIP3    H214425   1.446   2.137   4.148
 4807TIP3   OH214426   4.541   4.642   4.125
 4807TIP3    H114427   4.612   4.673   4.181
 4807TIP3    H214428   4.511   4.720   4.079
 4808TIP3   OH214429   1.145   2.950   0.538
 4808TIP3    H114430   1.227   2.910   0.509
 4808TIP3    H214431   1.117   2.895   0.612
 4809TIP3   OH214432   1.477   5.887   4.059
 4809TIP3    H114433   1.418   5.947   4.106
 4809TIP3    H214434   1.423   5.811   4.040
 4810TIP3   OH214435   4.971   4.165   1.024
 4810TIP3    H114436   4.975   4.260   1.039
 4810TIP3    H214437   4.998   4.154   0.933
 4811TIP3   OH214438   5.180   2.788   1.246
 4811TIP3    H114439   5.273   2.765   1.244
 4811TIP3    H214440   5.140   2.721   1.301
 4812TIP3   OH214441   1.562   4.708   4.756
 4812TIP3    H114442   1.652   4.714   4.790
 4812TIP3    H214443   1.550   4.614   4.739
 4813TIP3   OH214444   5.111   5.326   2.064
 4813TIP3    H114445   5.112   5.251   2.005
 4813TIP3    H214446   5.032   5.374   2.041
 4814TIP3   OH214447   4.953   3.389   1.841
 4814TIP3    H114448   4.920   3.456   1.901
 4814TIP3    H214449   5.041   3.370   1.872
 4815TIP3   OH214450   1.446   5.116   4.823
 4815TIP3    H114451   1.394   5.043   4.857
 4815TIP3    H214452   1.505   5.139   4.895
 4816TIP3   OH214453   5.914   1.012   0.829
 4816TIP3    H114454   5.975   1.069   0.783
 4816TIP3    H214455   5.963   0.932   0.845
 4817TIP3   OH214456   4.116   2.616   2.321
 4817TIP3    H114457   4.180   2.686   2.311
 4817TIP3    H214458   4.149   2.546   2.264
 4818TIP3   OH214459   0.658   1.496   2.990
 4818TIP3    H114460   0.658   1.407   2.954
 4818TIP3    H214461   0.588   1.541   2.941
 4819TIP3   OH214462   2.709   2.173   2.755
 4819TIP3    H114463   2.737   2.110   2.821
 4819TIP3    H214464   2.788   2.192   2.704
 4820TIP3   OH214465   4.210   5.749   3.835
 4820TIP3    H114466   4.245   5.834   3.808
 4820TIP3    H214467   4.265   5.686   3.789
 4821TIP3   OH214468   2.840   5.204   2.818
 4821TIP3    H114469   2.768   5.194   2.756
 4821TIP3    H214470   2.809   5.270   2.880
 4822TIP3   OH214471   3.108   4.536   1.885
 4822TIP3    H114472   3.058   4.602   1.836
 4822TIP3    H214473   3.199   4.565   1.878
 4823TIP3   OH214474   1.413   0.041   3.554
 4823TIP3    H114475   1.464  -0.038   3.533
 4823TIP3    H214476   1.424   0.052   3.649
 4824TIP3   OH214477   4.920   5.543   1.951
 4824TIP3    H114478   4.901   5.616   2.010
 4824TIP3    H214479   4.997   5.572   1.901
 4825TIP3   OH214480   4.288   4.407   0.425
 4825TIP3    H114481   4.282   4.481   0.365
 4825TIP3    H214482   4.282   4.330   0.368
 4826TIP3   OH214483   3.517   3.814   1.858
 4826TIP3    H114484   3.517   3.850   1.947
 4826TIP3    H214485   3.516   3.891   1.801
 4827TIP3   OH214486   1.488   0.767   3.729
 4827TIP3    H114487   1.492   0.847   3.677
 4827TIP3    H214488   1.410   0.778   3.784
 4828TIP3   OH214489   1.514   0.870   3.380
 4828TIP3    H114490   1.431   0.826   3.367
 4828TIP3    H214491   1.565   0.850   3.302
 4829TIP3   OH214492   1.166   1.720   0.943
 4829TIP3    H114493   1.087   1.740   0.894
 4829TIP3    H214494   1.220   1.670   0.881
 4830TIP3   OH214495   3.921   3.313   1.246
 4830TIP3    H114496   3.955   3.354   1.325
 4830TIP3    H214497   3.876   3.234   1.276
 4831TIP3   OH214498   2.475   5.202   4.505
 4831TIP3    H114499   2.520   5.258   4.568
 4831TIP3    H214500   2.544   5.149   4.466
 4832TIP3   OH214501   1.763   1.504   5.079
 4832TIP3    H114502   1.758   1.409   5.067
 4832TIP3    H214503   1.777   1.539   4.991
 4833TIP3   OH214504   2.216   0.579   0.697
 4833TIP3    H114505   2.206   0.544   0.609
 4833TIP3    H214506   2.181   0.511   0.754
 4834TIP3   OH214507   1.287   1.889   1.488
 4834TIP3    H114508   1.196   1.910   1.467
 4834TIP3    H214509   1.334   1.972   1.477
 4835TIP3   OH214510   3.946   1.863   0.738
 4835TIP3    H114511   3.918   1.953   0.755
 4835TIP3    H214512   4.024   1.872   0.684
 4836TIP3   OH214513   2.674   6.017   4.789
 4836TIP3    H114514   2.645   5.983   4.704
 4836TIP3    H214515   2.760   5.976   4.803
 4837TIP3   OH214516   3.315   3.238   4.403
 4837TIP3    H114517   3.321   3.146   4.430
 4837TIP3    H214518   3.405   3.262   4.380
 4838TIP3   OH214519   2.879   3.956   0.612
 4838TIP3    H114520   2.854   4.017   0.681
 4838TIP3    H214521   2.825   3.981   0.537
 4839TIP3   OH214522   3.231   3.968   4.934
 4839TIP3    H114523   3.240   4.045   4.878
 4839TIP3    H214524   3.180   3.999   5.009
 4840TIP3   OH214525   4.480   3.134   0.164
 4840TIP3    H114526   4.530   3.069   0.213
 4840TIP3    H214527   4.437   3.188   0.231
 4841TIP3   OH214528   1.152   4.266   2.429
 4841TIP3    H114529   1.198   4.191   2.467
 4841TIP3    H214530   1.076   4.228   2.385
 4842TIP3   OH214531   3.253   0.622   0.184
 4842TIP3    H114532   3.325   0.646   0.243
 4842TIP3    H214533   3.295   0.574   0.113
 4843TIP3   OH214534   4.996   2.203   3.987
 4843TIP3    H114535   4.936   2.130   4.000
 4843TIP3    H214536   5.066   2.188   4.051
 4844TIP3   OH214537   5.345   1.177   1.043
 4844TIP3    H114538   5.406   1.154   1.114
 4844TIP3    H214539   5.391   1.151   0.963
 4845TIP3   OH214540   1.449   4.349   2.611
 4845TIP3    H114541   1.540   4.374   2.599
 4845TIP3    H214542   1.442   4.262   2.571
 4846TIP3   OH214543   5.741   3.727   2.826
 4846TIP3    H114544   5.666   3.786   2.832
 4846TIP3    H214545   5.710   3.653   2.775
 4847TIP3   OH214546   6.061   0.291   4.852
 4847TIP3    H114547   6.053   0.355   4.781
 4847TIP3    H214548   6.109   0.337   4.921
 4848TIP3   OH214549   2.860   5.140   2.030
 4848TIP3    H114550   2.883   5.210   1.970
 4848TIP3    H214551   2.768   5.154   2.051
 4849TIP3   OH214552   3.374   0.239   3.170
 4849TIP3    H114553   3.420   0.239   3.253
 4849TIP3    H214554   3.311   0.167   3.178
 4850TIP3   OH214555   2.254   4.828   3.514
 4850TIP3    H114556   2.247   4.766   3.442
 4850TIP3    H214557   2.341   4.812   3.552
 4851TIP3   OH214558   1.697   2.873   1.972
 4851TIP3    H114559   1.633   2.882   1.902
 4851TIP3    H214560   1.765   2.937   1.951
 4852TIP3   OH214561   3.840   3.704   4.299
 4852TIP3    H114562   3.814   3.791   4.268
 4852TIP3    H214563   3.897   3.722   4.373
 4853TIP3   OH214564   0.808   5.834   0.643
 4853TIP3    H114565   0.780   5.900   0.581
 4853TIP3    H214566   0.898   5.814   0.617
 4854TIP3   OH214567   4.003   5.685   1.645
 4854TIP3    H114568   3.942   5.612   1.652
 4854TIP3    H214569   4.055   5.680   1.725
 4855TIP3   OH214570   3.198   3.221   2.076
 4855TIP3    H114571   3.165   3.309   2.096
 4855TIP3    H214572   3.235   3.229   1.988
 4856TIP3   OH214573   3.901   4.039   3.630
 4856TIP3    H114574   3.960   3.963   3.625
 4856TIP3    H214575   3.833   4.020   3.567
 4857TIP3   OH214576   3.662   0.458   3.286
 4857TIP3    H114577   3.617   0.402   3.349
 4857TIP3    H214578   3.755   0.444   3.304
 4858TIP3   OH214579   4.738   2.814   2.326
 4858TIP3    H114580   4.777   2.742   2.376
 4858TIP3    H214581   4.810   2.848   2.273
 4859TIP3   OH214582   3.211   0.750   4.533
 4859TIP3    H114583   3.143   0.706   4.482
 4859TIP3    H214584   3.185   0.842   4.534
 4860TIP3   OH214585   5.632   4.761   1.903
 4860TIP3    H114586   5.557   4.793   1.953
 4860TIP3    H214587   5.603   4.678   1.865
 4861TIP3   OH214588   3.669   3.237   3.705
 4861TIP3    H114589   3.639   3.161   3.655
 4861TIP3    H214590   3.744   3.205   3.755
 4862TIP3   OH214591   3.285   4.679   4.516
 4862TIP3    H114592   3.310   4.687   4.424
 4862TIP3    H214593   3.269   4.769   4.544
 4863TIP3   OH214594   6.007   4.660   1.350
 4863TIP3    H114595   6.061   4.701   1.283
 4863TIP3    H214596   6.064   4.656   1.427
 4864TIP3   OH214597   0.393   0.855   1.513
 4864TIP3    H114598   0.401   0.785   1.448
 4864TIP3    H214599   0.444   0.927   1.477
 4865TIP3   OH214600   0.484   5.704   0.178
 4865TIP3    H114601   0.461   5.780   0.124
 4865TIP3    H214602   0.576   5.687   0.158
 4866TIP3   OH214603   1.049   4.497   2.541
 4866TIP3    H114604   1.088   4.447   2.470
 4866TIP3    H214605   0.988   4.436   2.583
 4867TIP3   OH214606   5.708   1.229   5.163
 4867TIP3    H114607   5.669   1.227   5.250
 4867TIP3    H214608   5.634   1.236   5.103
 4868TIP3   OH214609   4.517   1.025   2.393
 4868TIP3    H114610   4.571   1.023   2.472
 4868TIP3    H214611   4.577   1.003   2.322
 4869TIP3   OH214612   2.547   1.671   1.054
 4869TIP3    H114613   2.583   1.754   1.085
 4869TIP3    H214614   2.453   1.689   1.045
 4870TIP3   OH214615   2.030   0.902   1.943
 4870TIP3    H114616   2.126   0.902   1.945
 4870TIP3    H214617   2.008   0.909   1.850
 4871TIP3   OH214618   2.929   0.120   4.822
 4871TIP3    H114619   2.950   0.141   4.913
 4871TIP3    H214620   3.003   0.154   4.772
 4872TIP3   OH214621   1.540   2.524   1.377
 4872TIP3    H114622   1.550   2.597   1.317
 4872TIP3    H214623   1.540   2.446   1.321
 4873TIP3   OH214624   4.380   4.461   4.577
 4873TIP3    H114625   4.469   4.481   4.607
 4873TIP3    H214626   4.341   4.547   4.559
 4874TIP3   OH214627   4.818   4.410   1.097
 4874TIP3    H114628   4.771   4.415   1.013
 4874TIP3    H214629   4.843   4.500   1.116
 4875TIP3   OH214630   6.093   0.364   0.887
 4875TIP3    H114631   6.127   0.361   0.797
 4875TIP3    H214632   6.106   0.275   0.919
 4876TIP3   OH214633   5.541   5.761   2.463
 4876TIP3    H114634   5.502   5.697   2.522
 4876TIP3    H214635   5.632   5.768   2.493
 4877TIP3   OH214636   3.591   3.592   0.164
 4877TIP3    H114637   3.613   3.625   0.076
 4877TIP3    H214638   3.509   3.544   0.151
 4878TIP3   OH214639   1.154   3.189   4.461
 4878TIP3    H114640   1.139   3.104   4.504
 4878TIP3    H214641   1.129   3.254   4.526
 4879TIP3   OH214642   2.503   5.653   1.098
 4879TIP3    H114643   2.503   5.574   1.153
 4879TIP3    H214644   2.510   5.725   1.161
 4880TIP3   OH214645   4.487   2.560   4.234
 4880TIP3    H114646   4.472   2.489   4.171
 4880TIP3    H214647   4.537   2.625   4.184
 4881TIP3   OH214648   2.287   5.835   3.129
 4881TIP3    H114649   2.373   5.824   3.171
 4881TIP3    H214650   2.228   5.782   3.181
 4882TIP3   OH214651   2.159   0.686   1.690
 4882TIP3    H114652   2.095   0.619   1.716
 4882TIP3    H214653   2.111   0.768   1.698
 4883TIP3   OH214654   3.173   4.965   4.634
 4883TIP3    H114655   3.078   4.963   4.644
 4883TIP3    H214656   3.187   4.975   4.540
 4884TIP3   OH214657   1.170   0.242   2.018
 4884TIP3    H114658   1.198   0.150   2.021
 4884TIP3    H214659   1.173   0.265   1.925
 4885TIP3   OH214660   2.322   3.115   0.954
 4885TIP3    H114661   2.250   3.164   0.914
 4885TIP3    H214662   2.384   3.181   0.982
 4886TIP3   OH214663   4.229   1.707   3.714
 4886TIP3    H114664   4.244   1.622   3.756
 4886TIP3    H214665   4.164   1.689   3.647
 4887TIP3   OH214666   2.443   2.185   2.665
 4887TIP3    H114667   2.433   2.257   2.727
 4887TIP3    H214668   2.537   2.168   2.662
 4888TIP3   OH214669   4.110   1.965   3.442
 4888TIP3    H114670   4.037   2.014   3.479
 4888TIP3    H214671   4.142   2.020   3.370
 4889TIP3   OH214672   4.732   5.200   4.777
 4889TIP3    H114673   4.693   5.135   4.718
 4889TIP3    H214674   4.746   5.152   4.859
 4890TIP3   OH214675   1.883   5.698   1.269
 4890TIP3    H114676   1.936   5.653   1.334
 4890TIP3    H214677   1.817   5.745   1.320
 4891TIP3   OH214678   1.772   3.547   1.410
 4891TIP3    H114679   1.730   3.574   1.329
 4891TIP3    H214680   1.699   3.528   1.470
 4892TIP3   OH214681  -0.085   1.240   2.626
 4892TIP3    H114682  -0.070   1.328   2.592
 4892TIP3    H214683  -0.009   1.189   2.597
 4893TIP3   OH214684   4.404   2.600   2.270
 4893TIP3    H114685   4.380   2.507   2.276
 4893TIP3    H214686   4.443   2.609   2.183
 4894TIP3   OH214687   3.605   0.715   4.130
 4894TIP3    H114688   3.550   0.787   4.162
 4894TIP3    H214689   3.665   0.697   4.203
 4895TIP3   OH214690   1.843   3.190   1.207
 4895TIP3    H114691   1.831   3.262   1.144
 4895TIP3    H214692   1.754   3.157   1.221
 4896TIP3   OH214693   1.995   2.980   2.558
 4896TIP3    H114694   2.026   2.898   2.519
 4896TIP3    H214695   2.049   3.047   2.517
 4897TIP3   OH214696   6.388   3.571   3.476
 4897TIP3    H114697   6.405   3.498   3.417
 4897TIP3    H214698   6.430   3.546   3.558
 4898TIP3   OH214699   2.158   0.479   4.061
 4898TIP3    H114700   2.199   0.519   3.984
 4898TIP3    H214701   2.141   0.553   4.120
 4899TIP3   OH214702   6.317   3.390   0.449
 4899TIP3    H114703   6.327   3.445   0.371
 4899TIP3    H214704   6.312   3.301   0.415
 4900TIP3   OH214705   0.996   0.457   2.974
 4900TIP3    H114706   0.969   0.528   2.916
 4900TIP3    H214707   0.959   0.378   2.935
 4901TIP3   OH214708   5.557   4.171   4.807
 4901TIP3    H114709   5.463   4.179   4.823
 4901TIP3    H214710   5.567   4.185   4.713
 4902TIP3   OH214711   5.481   1.653   4.708
 4902TIP3    H114712   5.546   1.653   4.779
 4902TIP3    H214713   5.403   1.692   4.747
 4903TIP3   OH214714   3.401   3.697   2.455
 4903TIP3    H114715   3.407   3.765   2.388
 4903TIP3    H214716   3.457   3.626   2.423
 4904TIP3   OH214717   5.067   3.188   1.987
 4904TIP3    H114718   5.124   3.139   1.927
 4904TIP3    H214719   4.979   3.160   1.965
 4905TIP3   OH214720   3.406   5.186   1.584
 4905TIP3    H114721   3.382   5.235   1.663
 4905TIP3    H214722   3.374   5.240   1.511
 4906TIP3   OH214723   4.265   1.847   1.935
 4906TIP3    H114724   4.350   1.814   1.964
 4906TIP3    H214725   4.271   1.847   1.839
 4907TIP3   OH214726   6.186   4.005   5.007
 4907TIP3    H114727   6.123   4.054   4.954
 4907TIP3    H214728   6.133   3.941   5.055
 4908TIP3   OH214729   4.174   4.661   2.793
 4908TIP3    H114730   4.094   4.616   2.818
 4908TIP3    H214731   4.208   4.610   2.719
 4909TIP3   OH214732   3.938   4.565   0.724
 4909TIP3    H114733   3.857   4.514   0.724
 4909TIP3    H214734   3.971   4.558   0.635
 4910TIP3   OH214735   2.558   4.202   1.002
 4910TIP3    H114736   2.622   4.253   0.952
 4910TIP3    H214737   2.587   4.208   1.093
 4911TIP3   OH214738   4.707   2.874   1.878
 4911TIP3    H114739   4.647   2.887   1.805
 4911TIP3    H214740   4.788   2.842   1.838
 4912TIP3   OH214741   2.459   3.619   2.032
 4912TIP3    H114742   2.527   3.572   2.080
 4912TIP3    H214743   2.449   3.701   2.080
 4913TIP3   OH214744   5.361   5.514   1.147
 4913TIP3    H114745   5.426   5.516   1.217
 4913TIP3    H214746   5.327   5.424   1.148
 4914TIP3   OH214747   3.317   2.492   2.126
 4914TIP3    H114748   3.362   2.559   2.178
 4914TIP3    H214749   3.259   2.542   2.068
 4915TIP3   OH214750   3.114   4.293   1.001
 4915TIP3    H114751   3.090   4.321   1.089
 4915TIP3    H214752   3.207   4.316   0.993
 4916TIP3   OH214753   1.921   3.785   5.141
 4916TIP3    H114754   1.911   3.810   5.049
 4916TIP3    H214755   1.932   3.690   5.138
 4917TIP3   OH214756   5.879   0.455   4.364
 4917TIP3    H114757   5.859   0.417   4.279
 4917TIP3    H214758   5.852   0.547   4.357
 4918TIP3   OH214759   0.313   1.893   3.806
 4918TIP3    H114760   0.374   1.856   3.870
 4918TIP3    H214761   0.226   1.867   3.838
 4919TIP3   OH214762   0.243   5.771   4.874
 4919TIP3    H114763   0.259   5.685   4.912
 4919TIP3    H214764   0.202   5.753   4.790
 4920TIP3   OH214765   0.103   2.850   0.650
 4920TIP3    H114766   0.186   2.810   0.624
 4920TIP3    H214767   0.112   2.942   0.627
 4921TIP3   OH214768   1.073   3.545   0.565
 4921TIP3    H114769   1.132   3.543   0.489
 4921TIP3    H214770   1.099   3.470   0.618
 4922TIP3   OH214771   3.925   4.614   1.111
 4922TIP3    H114772   3.931   4.518   1.110
 4922TIP3    H214773   3.961   4.639   1.196
 4923TIP3   OH214774   0.140   2.648   1.705
 4923TIP3    H114775   0.053   2.667   1.672
 4923TIP3    H214776   0.125   2.600   1.786
 4924TIP3   OH214777   1.629   0.898   2.048
 4924TIP3    H114778   1.620   0.889   1.953
 4924TIP3    H214779   1.664   0.814   2.077
 4925TIP3   OH214780   1.378   2.922   4.764
 4925TIP3    H114781   1.326   2.889   4.838
 4925TIP3    H214782   1.415   3.004   4.796
 4926TIP3   OH214783   2.154   4.297   1.174
 4926TIP3    H114784   2.198   4.252   1.102
 4926TIP3    H214785   2.225   4.343   1.220
 4927TIP3   OH214786   0.540   3.709   2.258
 4927TIP3    H114787   0.504   3.772   2.196
 4927TIP3    H214788   0.462   3.668   2.297
 4928TIP3   OH214789   2.122   4.571   0.994
 4928TIP3    H114790   2.073   4.564   1.076
 4928TIP3    H214791   2.158   4.659   0.996
 4929TIP3   OH214792   0.432   3.054   1.047
 4929TIP3    H114793   0.356   3.074   0.993
 4929TIP3    H214794   0.494   3.013   0.987
 4930TIP3   OH214795   4.344   0.468   4.456
 4930TIP3    H114796   4.296   0.426   4.527
 4930TIP3    H214797   4.350   0.560   4.482
 4931TIP3   OH214798   6.214   0.338   1.488
 4931TIP3    H114799   6.222   0.387   1.570
 4931TIP3    H214800   6.177   0.401   1.426
 4932TIP3   OH214801   4.943   1.190   2.429
 4932TIP3    H114802   4.857   1.152   2.450
 4932TIP3    H214803   5.004   1.118   2.444
 4933TIP3   OH214804   3.590   2.871   3.306
 4933TIP3    H114805   3.635   2.794   3.342
 4933TIP3    H214806   3.589   2.934   3.378
 4934TIP3   OH214807   3.281   3.169   0.275
 4934TIP3    H114808   3.348   3.147   0.339
 4934TIP3    H214809   3.309   3.253   0.238
 4935TIP3   OH214810   3.275   5.637   4.135
 4935TIP3    H114811   3.368   5.657   4.138
 4935TIP3    H214812   3.268   5.550   4.176
 4936TIP3   OH214813   2.203   3.621   0.667
 4936TIP3    H114814   2.160   3.578   0.740
 4936TIP3    H214815   2.294   3.592   0.672
 4937TIP3   OH214816   1.561   5.682   0.411
 4937TIP3    H114817   1.626   5.631   0.459
 4937TIP3    H214818   1.484   5.626   0.406
 4938TIP3   OH214819   2.478   2.853   4.049
 4938TIP3    H114820   2.420   2.831   3.977
 4938TIP3    H214821   2.518   2.770   4.074
 4939TIP3   OH214822   4.786   4.690   2.269
 4939TIP3    H114823   4.868   4.716   2.227
 4939TIP3    H214824   4.718   4.718   2.208
 4940TIP3   OH214825   5.495   5.233   1.866
 4940TIP3    H114826   5.404   5.240   1.896
 4940TIP3    H214827   5.515   5.140   1.875
 4941TIP3   OH214828   0.968   3.935   0.076
 4941TIP3    H114829   0.996   3.915  -0.013
 4941TIP3    H214830   0.940   4.027   0.072
 4942TIP3   OH214831   0.421   4.812   1.640
 4942TIP3    H114832   0.425   4.905   1.621
 4942TIP3    H214833   0.468   4.770   1.568
 4943TIP3   OH214834   3.719   3.231   2.577
 4943TIP3    H114835   3.662   3.293   2.622
 4943TIP3    H214836   3.771   3.191   2.647
 4944TIP3   OH214837   3.997   2.210   1.721
 4944TIP3    H114838   4.080   2.214   1.769
 4944TIP3    H214839   3.930   2.207   1.790
 4945TIP3   OH214840   0.809   5.424   2.040
 4945TIP3    H114841   0.799   5.519   2.034
 4945TIP3    H214842   0.758   5.389   1.967
 4946TIP3   OH214843   5.698   0.667   4.096
 4946TIP3    H114844   5.672   0.584   4.138
 4946TIP3    H214845   5.660   0.663   4.009
 4947TIP3   OH214846   2.408   1.410   3.583
 4947TIP3    H114847   2.474   1.349   3.617
 4947TIP3    H214848   2.418   1.488   3.637
 4948TIP3   OH214849   4.216   1.817   3.956
 4948TIP3    H114850   4.216   1.813   3.860
 4948TIP3    H214851   4.302   1.783   3.982
 4949TIP3   OH214852   2.622   2.147   3.839
 4949TIP3    H114853   2.595   2.059   3.813
 4949TIP3    H214854   2.710   2.157   3.801
 4950TIP3   OH214855   3.503   1.560   2.995
 4950TIP3    H114856   3.563   1.520   3.057
 4950TIP3    H214857   3.416   1.540   3.030
 4951TIP3   OH214858   2.340   0.099   2.453
 4951TIP3    H114859   2.303   0.185   2.474
 4951TIP3    H214860   2.285   0.037   2.501
 4952TIP3   OH214861   0.951   0.914   5.045
 4952TIP3    H114862   0.959   0.964   4.963
 4952TIP3    H214863   0.951   0.980   5.114
 4953TIP3   OH214864   5.970   1.373   0.709
 4953TIP3    H114865   5.917   1.359   0.631
 4953TIP3    H214866   5.910   1.411   0.772
 4954TIP3   OH214867   5.982   5.373   4.127
 4954TIP3    H114868   6.062   5.414   4.094
 4954TIP3    H214869   5.944   5.330   4.050
 4955TIP3   OH214870   3.300   2.186   0.439
 4955TIP3    H114871   3.304   2.227   0.353
 4955TIP3    H214872   3.249   2.107   0.426
 4956TIP3   OH214873   3.358   2.953   2.733
 4956TIP3    H114874   3.401   2.979   2.652
 4956TIP3    H214875   3.267   2.938   2.708
 4957TIP3   OH214876   4.019   1.588   1.755
 4957TIP3    H114877   4.069   1.642   1.817
 4957TIP3    H214878   4.024   1.500   1.791
 4958TIP3   OH214879   0.403   4.812   3.620
 4958TIP3    H114880   0.348   4.734   3.617
 4958TIP3    H214881   0.445   4.809   3.706
 4959TIP3   OH214882   5.334   2.566   4.039
 4959TIP3    H114883   5.377   2.640   4.081
 4959TIP3    H214884   5.252   2.601   4.005
 4960TIP3   OH214885   0.137   1.082   0.311
 4960TIP3    H114886   0.079   1.147   0.352
 4960TIP3    H214887   0.222   1.125   0.306
 4961TIP3   OH214888   6.289   3.144   4.475
 4961TIP3    H114889   6.366   3.201   4.471
 4961TIP3    H214890   6.325   3.058   4.497
 4962TIP3   OH214891   1.724   2.396   3.981
 4962TIP3    H114892   1.641   2.378   3.938
 4962TIP3    H214893   1.789   2.393   3.910
 4963TIP3   OH214894   6.164   4.504   2.645
 4963TIP3    H114895   6.133   4.435   2.705
 4963TIP3    H214896   6.244   4.537   2.686
 4964TIP3   OH214897   5.486   2.329   4.954
 4964TIP3    H114898   5.421   2.379   4.905
 4964TIP3    H214899   5.569   2.374   4.939
 4965TIP3   OH214900   0.791   5.026   5.103
 4965TIP3    H114901   0.810   5.060   5.190
 4965TIP3    H214902   0.780   4.932   5.116
 4966TIP3   OH214903   5.763   5.429   3.399
 4966TIP3    H114904   5.670   5.408   3.387
 4966TIP3    H214905   5.804   5.344   3.418
 4967TIP3   OH214906   5.459   2.331   4.061
 4967TIP3    H114907   5.514   2.312   3.985
 4967TIP3    H214908   5.425   2.419   4.044
 4968TIP3   OH214909   3.896   3.038   0.297
 4968TIP3    H114910   3.884   3.034   0.202
 4968TIP3    H214911   3.892   2.946   0.326
 4969TIP3   OH214912   5.852   2.378   1.273
 4969TIP3    H114913   5.938   2.388   1.315
 4969TIP3    H214914   5.794   2.435   1.323
 4970TIP3   OH214915   2.880   3.395   2.308
 4970TIP3    H114916   2.842   3.467   2.258
 4970TIP3    H214917   2.973   3.415   2.311
 4971TIP3   OH214918   5.222   4.335   1.097
 4971TIP3    H114919   5.151   4.399   1.098
 4971TIP3    H214920   5.301   4.387   1.080
 4972TIP3   OH214921   0.425   0.621   2.693
 4972TIP3    H114922   0.350   0.624   2.752
 4972TIP3    H214923   0.413   0.697   2.635
 4973TIP3   OH214924   1.069   2.193   3.781
 4973TIP3    H114925   1.125   2.183   3.704
 4973TIP3    H214926   0.999   2.252   3.753
 4974TIP3   OH214927   2.133   2.456   3.983
 4974TIP3    H114928   2.139   2.423   3.893
 4974TIP3    H214929   2.047   2.499   3.987
 4975TIP3   OH214930   4.096   3.925   4.464
 4975TIP3    H114931   4.051   3.852   4.506
 4975TIP3    H214932   4.179   3.933   4.512
 4976TIP3   OH214933   2.853   4.925   3.189
 4976TIP3    H114934   2.856   4.897   3.098
 4976TIP3    H214935   2.919   4.994   3.195
 4977TIP3   OH214936   2.903   5.405   2.320
 4977TIP3    H114937   2.932   5.491   2.290
 4977TIP3    H214938   2.867   5.421   2.408
 4978TIP3   OH214939   0.473   4.080   4.862
 4978TIP3    H114940   0.480   4.116   4.774
 4978TIP3    H214941   0.417   4.142   4.909
 4979TIP3   OH214942   0.374   2.527   2.675
 4979TIP3    H114943   0.444   2.473   2.637
 4979TIP3    H214944   0.391   2.526   2.769
 4980TIP3   OH214945   2.300   5.409   0.873
 4980TIP3    H114946   2.385   5.452   0.868
 4980TIP3    H214947   2.270   5.425   0.962
 4981TIP3   OH214948   2.643   0.645   0.774
 4981TIP3    H114949   2.615   0.567   0.726
 4981TIP3    H214950   2.608   0.633   0.862
 4982TIP3   OH214951   0.516   3.035   3.067
 4982TIP3    H114952   0.433   3.038   3.019
 4982TIP3    H214953   0.581   3.015   3.001
 4983TIP3   OH214954   1.955   3.402   2.735
 4983TIP3    H114955   2.036   3.450   2.720
 4983TIP3    H214956   1.908   3.455   2.800
 4984TIP3   OH214957   6.090   3.681   3.310
 4984TIP3    H114958   6.126   3.761   3.348
 4984TIP3    H214959   6.135   3.671   3.226
 4985TIP3   OH214960   3.365   3.958   3.800
 4985TIP3    H114961   3.459   3.959   3.781
 4985TIP3    H214962   3.327   3.905   3.730
 4986TIP3   OH214963   3.682   4.654   2.354
 4986TIP3    H114964   3.745   4.582   2.353
 4986TIP3    H214965   3.697   4.701   2.272
 4987TIP3   OH214966   2.299   1.537   2.850
 4987TIP3    H114967   2.330   1.609   2.905
 4987TIP3    H214968   2.348   1.460   2.879
 4988TIP3   OH214969   5.325   1.789   3.690
 4988TIP3    H114970   5.251   1.729   3.699
 4988TIP3    H214971   5.339   1.822   3.779
 4989TIP3   OH214972   4.383   4.259   1.972
 4989TIP3    H114973   4.402   4.266   2.065
 4989TIP3    H214974   4.334   4.339   1.951
 4990TIP3   OH214975   3.543   2.637   0.697
 4990TIP3    H114976   3.491   2.708   0.736
 4990TIP3    H214977   3.633   2.656   0.723
 4991TIP3   OH214978   3.856   1.091   4.857
 4991TIP3    H114979   3.905   1.026   4.806
 4991TIP3    H214980   3.767   1.058   4.860
 4992TIP3   OH214981   5.456   2.234   1.082
 4992TIP3    H114982   5.451   2.200   0.993
 4992TIP3    H214983   5.371   2.212   1.121
 4993TIP3   OH214984   2.934   0.572   1.126
 4993TIP3    H114985   3.008   0.585   1.186
 4993TIP3    H214986   2.974   0.537   1.046
 4994TIP3   OH214987   1.750   4.219   0.063
 4994TIP3    H114988   1.710   4.237   0.148
 4994TIP3    H214989   1.676   4.207   0.004
 4995TIP3   OH214990   1.961   2.866   1.114
 4995TIP3    H114991   1.893   2.921   1.152
 4995TIP3    H214992   1.933   2.851   1.024
 4996TIP3   OH214993   4.261   5.955   4.233
 4996TIP3    H114994   4.342   5.978   4.187
 4996TIP3    H214995   4.234   5.872   4.193
 4997TIP3   OH214996   5.177   0.217   0.351
 4997TIP3    H114997   5.264   0.248   0.376
 4997TIP3    H214998   5.174   0.229   0.256
 4998TIP3   OH214999   2.810   0.819   0.916
 4998TIP3    H115000   2.752   0.800   0.842
 4998TIP3    H215001   2.781   0.758   0.984
 4999TIP3   OH215002   3.307   5.371   3.305
 4999TIP3    H115003   3.311   5.297   3.365
 4999TIP3    H215004   3.297   5.332   3.218
 5000TIP3   OH215005   3.609   2.280   0.390
 5000TIP3    H115006   3.590   2.245   0.477
 5000TIP3    H215007   3.529   2.267   0.340
 5001TIP3   OH215008   4.995   0.005   1.412
 5001TIP3    H115009   4.923   0.068   1.405
 5001TIP3    H215010   5.008  -0.027   1.322
 5002TIP3   OH215011   1.426   3.987   0.249
 5002TIP3    H115012   1.394   4.068   0.211
 5002TIP3    H215013   1.520   3.987   0.231
 5003TIP3   OH215014   0.849   4.084   4.738
 5003TIP3    H115015   0.862   4.099   4.832
 5003TIP3    H215016   0.780   4.146   4.714
 5004TIP3   OH215017   0.347   3.097   2.826
 5004TIP3    H115018   0.254   3.075   2.834
 5004TIP3    H215019   0.387   3.021   2.786
 5005TIP3   OH215020   1.173   3.565   2.837
 5005TIP3    H115021   1.266   3.547   2.823
 5005TIP3    H215022   1.138   3.579   2.749
 5006TIP3   OH215023   5.791   2.211   1.495
 5006TIP3    H115024   5.876   2.208   1.450
 5006TIP3    H215025   5.746   2.132   1.464
 5007TIP3   OH215026   0.140   3.456   1.081
 5007TIP3    H115027   0.064   3.465   1.138
 5007TIP3    H215028   0.109   3.406   1.006
 5008TIP3   OH215029   4.986   0.764   4.532
 5008TIP3    H115030   4.962   0.721   4.615
 5008TIP3    H215031   5.034   0.842   4.559
 5009TIP3   OH215032   3.044   1.327   2.694
 5009TIP3    H115033   3.054   1.363   2.606
 5009TIP3    H215034   3.044   1.403   2.751
 5010TIP3   OH215035   4.945   4.199   1.718
 5010TIP3    H115036   5.005   4.273   1.709
 5010TIP3    H215037   4.953   4.151   1.636
 5011TIP3   OH215038   4.160   2.141   2.914
 5011TIP3    H115039   4.252   2.126   2.933
 5011TIP3    H215040   4.113   2.096   2.984
 5012TIP3   OH215041   1.846   3.409   1.019
 5012TIP3    H115042   1.849   3.490   0.967
 5012TIP3    H215043   1.758   3.374   1.004
 5013TIP3   OH215044   3.558   0.960   3.152
 5013TIP3    H115045   3.641   0.973   3.105
 5013TIP3    H215046   3.567   0.874   3.194
 5014TIP3   OH215047   5.666   2.768   1.066
 5014TIP3    H115048   5.711   2.700   1.015
 5014TIP3    H215049   5.619   2.819   1.000
 5015TIP3   OH215050   6.312   0.628   2.143
 5015TIP3    H115051   6.218   0.618   2.127
 5015TIP3    H215052   6.352   0.623   2.056
 5016TIP3   OH215053   5.969   1.203   4.167
 5016TIP3    H115054   6.033   1.135   4.189
 5016TIP3    H215055   5.893   1.155   4.132
 5017TIP3   OH215056   6.345   5.204   1.277
 5017TIP3    H115057   6.341   5.185   1.184
 5017TIP3    H215058   6.370   5.120   1.317
 5018TIP3   OH215059   5.999   3.928   3.503
 5018TIP3    H115060   5.949   3.858   3.543
 5018TIP3    H215061   6.090   3.907   3.523
 5019TIP3   OH215062   5.206   0.182   1.429
 5019TIP3    H115063   5.170   0.264   1.396
 5019TIP3    H215064   5.131   0.122   1.431
 5020TIP3   OH215065   2.169   3.286   1.622
 5020TIP3    H115066   2.090   3.338   1.613
 5020TIP3    H215067   2.210   3.288   1.536
 5021TIP3   OH215068   1.929   5.041   0.416
 5021TIP3    H115069   1.983   5.062   0.491
 5021TIP3    H215070   1.961   4.956   0.385
 5022TIP3   OH215071   3.577   5.897   0.298
 5022TIP3    H115072   3.610   5.972   0.348
 5022TIP3    H215073   3.614   5.908   0.210
 5023TIP3   OH215074   3.006   4.147   2.322
 5023TIP3    H115075   3.034   4.070   2.273
 5023TIP3    H215076   3.087   4.196   2.339
 5024TIP3   OH215077   2.008   5.658   3.986
 5024TIP3    H115078   1.929   5.675   3.934
 5024TIP3    H215079   2.035   5.570   3.961
 5025TIP3   OH215080   2.748   2.284   1.902
 5025TIP3    H115081   2.724   2.328   1.820
 5025TIP3    H215082   2.800   2.350   1.949
 5026TIP3   OH215083   5.548   3.922   0.053
 5026TIP3    H115084   5.513   3.834   0.069
 5026TIP3    H215085   5.626   3.928   0.108
 5027TIP3   OH215086   3.691   1.792   2.070
 5027TIP3    H115087   3.717   1.730   2.002
 5027TIP3    H215088   3.684   1.876   2.024
 5028TIP3   OH215089   1.133   0.451   4.454
 5028TIP3    H115090   1.168   0.484   4.536
 5028TIP3    H215091   1.045   0.488   4.449
 5029TIP3   OH215092   3.708   1.935   0.915
 5029TIP3    H115093   3.736   2.003   0.853
 5029TIP3    H215094   3.663   1.870   0.860
 5030TIP3   OH215095   2.662   2.056   1.524
 5030TIP3    H115096   2.699   2.139   1.493
 5030TIP3    H215097   2.567   2.068   1.519
 5031TIP3   OH215098   3.405   2.936   0.369
 5031TIP3    H115099   3.406   2.841   0.376
 5031TIP3    H215100   3.472   2.966   0.430
 5032TIP3   OH215101  -0.001   1.689   0.702
 5032TIP3    H115102  -0.044   1.605   0.719
 5032TIP3    H215103   0.084   1.681   0.745
 5033TIP3   OH215104   5.619   5.950   0.510
 5033TIP3    H115105   5.568   5.883   0.556
 5033TIP3    H215106   5.699   5.905   0.483
 5034TIP3   OH215107   0.638   0.187   2.648
 5034TIP3    H115108   0.636   0.261   2.709
 5034TIP3    H215109   0.546   0.173   2.626
 5035TIP3   OH215110   3.739   1.128   1.367
 5035TIP3    H115111   3.818   1.131   1.422
 5035TIP3    H215112   3.720   1.035   1.357
 5036TIP3   OH215113   0.034   1.876   4.398
 5036TIP3    H115114   0.047   1.787   4.366
 5036TIP3    H215115  -0.048   1.872   4.448
 5037TIP3   OH215116   0.152   0.104   3.193
 5037TIP3    H115117   0.172   0.069   3.106
 5037TIP3    H215118   0.234   0.142   3.223
 5038TIP3   OH215119   2.484   4.791   0.176
 5038TIP3    H115120   2.445   4.878   0.166
 5038TIP3    H215121   2.551   4.785   0.108
 5039TIP3   OH215122   1.685   0.791   0.118
 5039TIP3    H115123   1.659   0.877   0.151
 5039TIP3    H215124   1.676   0.733   0.193
 5040TIP3   OH215125   0.842   4.101   0.651
 5040TIP3    H115126   0.783   4.092   0.577
 5040TIP3    H215127   0.789   4.077   0.727
 5041TIP3   OH215128   3.721   1.372   1.268
 5041TIP3    H115129   3.683   1.285   1.275
 5041TIP3    H215130   3.646   1.431   1.266
 5042TIP3   OH215131   3.193   4.629   5.178
 5042TIP3    H115132   3.163   4.626   5.088
 5042TIP3    H215133   3.116   4.656   5.228
 5043TIP3   OH215134   1.845   0.772   0.375
 5043TIP3    H115135   1.876   0.731   0.455
 5043TIP3    H215136   1.758   0.735   0.361
 5044TIP3   OH215137   4.020   2.424   0.718
 5044TIP3    H115138   3.993   2.430   0.810
 5044TIP3    H215139   3.937   2.418   0.669
 5045TIP3   OH215140   2.897   3.624   1.412
 5045TIP3    H115141   2.978   3.577   1.433
 5045TIP3    H215142   2.882   3.680   1.488
 5046TIP3   OH215143   4.920   4.896   4.428
 5046TIP3    H115144   4.903   4.842   4.505
 5046TIP3    H215145   4.850   4.961   4.428
 5047TIP3   OH215146   2.674   5.440   3.376
 5047TIP3    H115147   2.738   5.368   3.373
 5047TIP3    H215148   2.728   5.519   3.365
 5048TIP3   OH215149   5.191   4.778   3.545
 5048TIP3    H115150   5.101   4.764   3.515
 5048TIP3    H215151   5.195   4.737   3.631
 5049TIP3   OH215152   4.090   3.961   2.491
 5049TIP3    H115153   4.170   3.974   2.441
 5049TIP3    H215154   4.120   3.937   2.579
 5050TIP3   OH215155   0.845   0.686   0.027
 5050TIP3    H115156   0.829   0.754  -0.039
 5050TIP3    H215157   0.758   0.663   0.059
 5051TIP3   OH215158   2.063   1.052   0.278
 5051TIP3    H115159   2.078   1.110   0.204
 5051TIP3    H215160   1.970   1.062   0.298
 5052TIP3   OH215161   2.998   0.203   3.858
 5052TIP3    H115162   3.023   0.146   3.785
 5052TIP3    H215163   2.912   0.172   3.885
 5053TIP3   OH215164   2.546   4.886   1.928
 5053TIP3    H115165   2.602   4.827   1.877
 5053TIP3    H215166   2.544   4.847   2.015
 5054TIP3   OH215167   4.649   1.067   0.836
 5054TIP3    H115168   4.651   1.162   0.829
 5054TIP3    H215169   4.608   1.037   0.755
 5055TIP3   OH215170   4.535   4.957   3.081
 5055TIP3    H115171   4.524   4.864   3.097
 5055TIP3    H215172   4.450   4.996   3.106
 5056TIP3   OH215173   1.101   4.786   3.206
 5056TIP3    H115174   1.025   4.736   3.175
 5056TIP3    H215175   1.170   4.763   3.144
 5057TIP3   OH215176   2.662   2.162   1.225
 5057TIP3    H115177   2.620   2.222   1.287
 5057TIP3    H215178   2.753   2.157   1.255
 5058TIP3   OH215179   5.348   0.352   3.361
 5058TIP3    H115180   5.425   0.311   3.323
 5058TIP3    H215181   5.383   0.421   3.418
 5059TIP3   OH215182   4.563   3.357   1.928
 5059TIP3    H115183   4.578   3.451   1.928
 5059TIP3    H215184   4.560   3.333   1.835
 5060TIP3   OH215185   5.715   4.494   1.752
 5060TIP3    H115186   5.735   4.402   1.732
 5060TIP3    H215187   5.763   4.544   1.686
 5061TIP3   OH215188   2.940   2.621   0.803
 5061TIP3    H115189   2.926   2.527   0.819
 5061TIP3    H215190   2.920   2.663   0.886
 5062TIP3   OH215191  -0.009   1.730   1.025
 5062TIP3    H115192  -0.080   1.707   1.086
 5062TIP3    H215193   0.068   1.686   1.062
 5063TIP3   OH215194   3.534   2.503   2.863
 5063TIP3    H115195   3.447   2.490   2.826
 5063TIP3    H215196   3.544   2.598   2.866
 5064TIP3   OH215197   5.243   4.145   2.464
 5064TIP3    H115198   5.239   4.153   2.369
 5064TIP3    H215199   5.215   4.230   2.497
 5065TIP3   OH215200   4.181   1.430   4.294
 5065TIP3    H115201   4.177   1.516   4.336
 5065TIP3    H215202   4.091   1.415   4.264
 5066TIP3   OH215203   6.296   4.605   4.640
 5066TIP3    H115204   6.279   4.698   4.659
 5066TIP3    H215205   6.232   4.583   4.572
 5067TIP3   OH215206   0.682   3.019   1.591
 5067TIP3    H115207   0.688   2.961   1.515
 5067TIP3    H215208   0.734   3.095   1.567
 5068TIP3   OH215209   0.231   1.417   1.332
 5068TIP3    H115210   0.208   1.339   1.383
 5068TIP3    H215211   0.316   1.444   1.366
 5069TIP3   OH215212   5.099   2.555   4.257
 5069TIP3    H115213   5.165   2.607   4.305
 5069TIP3    H215214   5.058   2.618   4.198
 5070TIP3   OH215215   3.306   4.636   2.187
 5070TIP3    H115216   3.240   4.571   2.163
 5070TIP3    H215217   3.328   4.681   2.106
 5071TIP3   OH215218   2.230   5.449   1.149
 5071TIP3    H115219   2.216   5.542   1.168
 5071TIP3    H215220   2.215   5.405   1.232
 5072TIP3   OH215221   3.233   2.147   3.160
 5072TIP3    H115222   3.282   2.227   3.177
 5072TIP3    H215223   3.158   2.175   3.107
 5073TIP3   OH215224   1.237   2.814   5.013
 5073TIP3    H115225   1.220   2.804   5.106
 5073TIP3    H215226   1.152   2.799   4.971
 5074TIP3   OH215227   4.358   4.886   0.389
 5074TIP3    H115228   4.288   4.822   0.373
 5074TIP3    H215229   4.390   4.865   0.477
 5075TIP3   OH215230   2.211   4.694   0.485
 5075TIP3    H115231   2.195   4.742   0.403
 5075TIP3    H215232   2.133   4.640   0.497
 5076TIP3   OH215233   2.965   4.001   0.294
 5076TIP3    H115234   2.905   4.059   0.341
 5076TIP3    H215235   2.990   4.051   0.216
 5077TIP3   OH215236   3.326   1.212   1.362
 5077TIP3    H115237   3.285   1.279   1.416
 5077TIP3    H215238   3.269   1.203   1.286
 5078TIP3   OH215239   0.452   0.350   1.929
 5078TIP3    H115240   0.515   0.288   1.891
 5078TIP3    H215241   0.455   0.426   1.871
 5079TIP3   OH215242   4.833   5.954   1.712
 5079TIP3    H115243   4.787   6.010   1.650
 5079TIP3    H215244   4.851   6.011   1.787
 5080TIP3   OH215245   3.342   3.976   1.016
 5080TIP3    H115246   3.270   4.026   0.976
 5080TIP3    H215247   3.308   3.947   1.100
 5081TIP3   OH215248   5.613   0.141   4.537
 5081TIP3    H115249   5.670   0.124   4.462
 5081TIP3    H215250   5.656   0.210   4.586
 5082TIP3   OH215251   4.047   4.776   0.909
 5082TIP3    H115252   4.033   4.711   0.840
 5082TIP3    H215253   4.004   4.739   0.986
 5083TIP3   OH215254   2.079   1.770   3.038
 5083TIP3    H115255   2.064   1.752   2.945
 5083TIP3    H215256   2.058   1.863   3.048
 5084TIP3   OH215257   5.468   0.411   4.261
 5084TIP3    H115258   5.392   0.397   4.318
 5084TIP3    H215259   5.459   0.344   4.193
 5085TIP3   OH215260   1.484   2.889   1.758
 5085TIP3    H115261   1.493   2.818   1.694
 5085TIP3    H215262   1.551   2.953   1.733
 5086TIP3   OH215263   4.544   2.596   4.649
 5086TIP3    H115264   4.498   2.649   4.713
 5086TIP3    H215265   4.635   2.595   4.678
 5087TIP3   OH215266   5.198   3.427   1.951
 5087TIP3    H115267   5.124   3.400   2.004
 5087TIP3    H215268   5.181   3.520   1.933
 5088TIP3   OH215269   4.735   3.187   2.764
 5088TIP3    H115270   4.770   3.234   2.688
 5088TIP3    H215271   4.765   3.237   2.840
 5089TIP3   OH215272   0.032   0.420   3.318
 5089TIP3    H115273   0.115   0.450   3.279
 5089TIP3    H215274   0.005   0.492   3.375
 5090TIP3   OH215275   4.214   2.136   4.047
 5090TIP3    H115276   4.121   2.155   4.057
 5090TIP3    H215277   4.217   2.050   4.006
 5091TIP3   OH215278   2.732   5.928   0.455
 5091TIP3    H115279   2.759   5.861   0.517
 5091TIP3    H215280   2.813   5.971   0.429
 5092TIP3   OH215281   3.294   3.274   3.984
 5092TIP3    H115282   3.233   3.347   3.991
 5092TIP3    H215283   3.263   3.224   3.908
 5093TIP3   OH215284   3.835   4.338   1.095
 5093TIP3    H115285   3.743   4.339   1.121
 5093TIP3    H215286   3.851   4.250   1.063
 5094TIP3   OH215287   3.973   3.908   1.307
 5094TIP3    H115288   3.910   3.930   1.238
 5094TIP3    H215289   3.927   3.927   1.389
 5095TIP3   OH215290   2.631   4.516   3.491
 5095TIP3    H115291   2.726   4.521   3.489
 5095TIP3    H215292   2.608   4.469   3.411
 5096TIP3   OH215293   4.813   0.304   0.183
 5096TIP3    H115294   4.739   0.330   0.127
 5096TIP3    H215295   4.776   0.298   0.271
 5097TIP3   OH215296   3.545   4.873   2.810
 5097TIP3    H115297   3.615   4.852   2.748
 5097TIP3    H215298   3.495   4.792   2.817
 5098TIP3   OH215299   0.428   1.141   1.072
 5098TIP3    H115300   0.460   1.068   1.020
 5098TIP3    H215301   0.401   1.206   1.008
 5099TIP3   OH215302   4.589   4.764   1.355
 5099TIP3    H115303   4.521   4.757   1.288
 5099TIP3    H215304   4.556   4.831   1.416
 5100TIP3   OH215305   3.206   4.875   2.146
 5100TIP3    H115306   3.123   4.873   2.098
 5100TIP3    H215307   3.201   4.800   2.205
 5101TIP3   OH215308   4.888   0.285   1.178
 5101TIP3    H115309   4.891   0.205   1.126
 5101TIP3    H215310   4.836   0.261   1.255
 5102TIP3   OH215311   4.227   0.140   0.296
 5102TIP3    H115312   4.197   0.218   0.341
 5102TIP3    H215313   4.153   0.079   0.301
 5103TIP3   OH215314   1.282   3.858   4.784
 5103TIP3    H115315   1.364   3.808   4.784
 5103TIP3    H215316   1.306   3.942   4.823
 5104TIP3   OH215317   1.992   0.598   2.020
 5104TIP3    H115318   1.913   0.644   2.047
 5104TIP3    H215319   2.035   0.658   1.959
 5105TIP3   OH215320   2.261   2.940   1.543
 5105TIP3    H115321   2.174   2.928   1.583
 5105TIP3    H215322   2.269   2.866   1.483
 5106TIP3   OH215323   1.596   5.742   2.018
 5106TIP3    H115324   1.578   5.824   2.063
 5106TIP3    H215325   1.534   5.740   1.945
 5107TIP3   OH215326   2.520   3.349   3.194
 5107TIP3    H115327   2.601   3.315   3.231
 5107TIP3    H215328   2.492   3.281   3.132
 5108TIP3   OH215329   3.024   0.648   2.504
 5108TIP3    H115330   3.024   0.701   2.425
 5108TIP3    H215331   2.949   0.680   2.554
 5109TIP3   OH215332   1.451   1.854   5.086
 5109TIP3    H115333   1.449   1.946   5.060
 5109TIP3    H215334   1.543   1.837   5.105
 5110TIP3   OH215335   2.243   1.471   5.183
 5110TIP3    H115336   2.221   1.416   5.108
 5110TIP3    H215337   2.287   1.411   5.244
 5111TIP3   OH215338   5.826   5.381   4.800
 5111TIP3    H115339   5.736   5.351   4.788
 5111TIP3    H215340   5.839   5.444   4.729
 5112TIP3   OH215341   4.933   1.347   1.316
 5112TIP3    H115342   4.999   1.323   1.251
 5112TIP3    H215343   4.850   1.332   1.271
 5113TIP3   OH215344   0.617   4.809   4.016
 5113TIP3    H115345   0.709   4.829   4.035
 5113TIP3    H215346   0.621   4.741   3.949
 5114TIP3   OH215347   1.320   2.610   1.058
 5114TIP3    H115348   1.348   2.520   1.076
 5114TIP3    H215349   1.254   2.628   1.124
 5115TIP3   OH215350   3.140   4.739   0.567
 5115TIP3    H115351   3.113   4.813   0.514
 5115TIP3    H215352   3.145   4.666   0.506
 5116TIP3   OH215353   4.205   4.846   4.008
 5116TIP3    H115354   4.240   4.789   3.939
 5116TIP3    H215355   4.150   4.788   4.061
 5117TIP3   OH215356   3.878   2.225   2.195
 5117TIP3    H115357   3.960   2.224   2.246
 5117TIP3    H215358   3.828   2.151   2.230
 5118TIP3   OH215359   3.838   1.067   4.150
 5118TIP3    H115360   3.770   1.031   4.207
 5118TIP3    H215361   3.893   0.992   4.128
 5119TIP3   OH215362   4.439   5.579   1.186
 5119TIP3    H115363   4.453   5.632   1.108
 5119TIP3    H215364   4.525   5.575   1.228
 5120TIP3   OH215365   2.310   1.305   0.921
 5120TIP3    H115366   2.373   1.250   0.968
 5120TIP3    H215367   2.343   1.309   0.832
 5121TIP3   OH215368   4.783   0.582   3.986
 5121TIP3    H115369   4.846   0.535   4.040
 5121TIP3    H215370   4.761   0.660   4.036
 5122TIP3   OH215371   6.159   3.194   3.611
 5122TIP3    H115372   6.142   3.272   3.663
 5122TIP3    H215373   6.075   3.171   3.573
 5123TIP3   OH215374   1.378   3.491   4.215
 5123TIP3    H115375   1.451   3.549   4.235
 5123TIP3    H215376   1.382   3.479   4.121
 5124TIP3   OH215377   2.846   2.967   2.638
 5124TIP3    H115378   2.814   3.047   2.597
 5124TIP3    H215379   2.772   2.906   2.632
 5125TIP3   OH215380   2.168   2.822   4.730
 5125TIP3    H115381   2.198   2.906   4.764
 5125TIP3    H215382   2.074   2.821   4.749
 5126TIP3   OH215383   1.187   4.145   1.700
 5126TIP3    H115384   1.243   4.201   1.647
 5126TIP3    H215385   1.104   4.141   1.652
 5127TIP3   OH215386   3.627   3.308   2.908
 5127TIP3    H115387   3.582   3.235   2.950
 5127TIP3    H215388   3.557   3.371   2.890
 5128TIP3   OH215389   4.691   0.282   0.439
 5128TIP3    H115390   4.662   0.371   0.460
 5128TIP3    H215391   4.611   0.234   0.421
 5129TIP3   OH215392   0.226   4.930   2.039
 5129TIP3    H115393   0.287   4.993   2.077
 5129TIP3    H215394   0.162   4.914   2.108
 5130TIP3   OH215395   6.351   1.275   1.247
 5130TIP3    H115396   6.355   1.362   1.209
 5130TIP3    H215397   6.439   1.239   1.235
 5131TIP3   OH215398   1.376   2.153   0.331
 5131TIP3    H115399   1.363   2.067   0.293
 5131TIP3    H215400   1.347   2.144   0.422
 5132TIP3   OH215401   1.844   3.367   4.834
 5132TIP3    H115402   1.767   3.318   4.865
 5132TIP3    H215403   1.899   3.300   4.793
 5133TIP3   OH215404   4.596   0.987   4.971
 5133TIP3    H115405   4.665   0.998   5.035
 5133TIP3    H215406   4.548   1.070   4.971
 5134TIP3   OH215407   3.315   1.995   4.916
 5134TIP3    H115408   3.310   1.916   4.862
 5134TIP3    H215409   3.270   2.062   4.864
 5135TIP3   OH215410   3.592   2.707   1.039
 5135TIP3    H115411   3.532   2.715   1.113
 5135TIP3    H215412   3.538   2.718   0.961
 5136TIP3   OH215413   3.423   1.891   2.388
 5136TIP3    H115414   3.423   1.913   2.481
 5136TIP3    H215415   3.330   1.879   2.366
 5137TIP3   OH215416   1.370   0.089   3.844
 5137TIP3    H115417   1.346   0.044   3.925
 5137TIP3    H215418   1.462   0.067   3.830
 5138TIP3   OH215419   0.215   3.105   0.892
 5138TIP3    H115420   0.169   3.106   0.808
 5138TIP3    H215421   0.178   3.030   0.938
 5139TIP3   OH215422   0.680   2.203   3.761
 5139TIP3    H115423   0.728   2.268   3.711
 5139TIP3    H215424   0.715   2.119   3.732
 5140TIP3   OH215425   3.687   2.567   0.436
 5140TIP3    H115426   3.682   2.472   0.438
 5140TIP3    H215427   3.640   2.595   0.514
 5141TIP3   OH215428   2.433   5.343   0.371
 5141TIP3    H115429   2.402   5.433   0.378
 5141TIP3    H215430   2.527   5.351   0.355
 5142TIP3   OH215431   4.221   3.057   3.118
 5142TIP3    H115432   4.273   3.031   3.193
 5142TIP3    H215433   4.277   3.041   3.042
 5143TIP3   OH215434   5.184   5.951   3.295
 5143TIP3    H115435   5.274   5.981   3.311
 5143TIP3    H215436   5.173   5.876   3.353
 5144TIP3   OH215437   5.672   0.106   1.368
 5144TIP3    H115438   5.606   0.175   1.379
 5144TIP3    H215439   5.715   0.127   1.286
 5145TIP3   OH215440   4.406   4.123   3.486
 5145TIP3    H115441   4.488   4.086   3.518
 5145TIP3    H215442   4.355   4.046   3.458
 5146TIP3   OH215443   5.576   3.823   3.222
 5146TIP3    H115444   5.560   3.889   3.153
 5146TIP3    H215445   5.535   3.860   3.300
 5147TIP3   OH215446   1.282   5.808   2.153
 5147TIP3    H115447   1.362   5.840   2.195
 5147TIP3    H215448   1.228   5.887   2.142
 5148TIP3   OH215449   1.922   0.714   1.082
 5148TIP3    H115450   1.922   0.739   1.175
 5148TIP3    H215451   1.925   0.619   1.083
 5149TIP3   OH215452   5.175   3.385   0.872
 5149TIP3    H115453   5.200   3.431   0.953
 5149TIP3    H215454   5.130   3.306   0.902
 5150TIP3   OH215455   5.418   4.326   0.831
 5150TIP3    H115456   5.424   4.329   0.735
 5150TIP3    H215457   5.396   4.235   0.851
 5151TIP3   OH215458   1.484   2.463   0.468
 5151TIP3    H115459   1.528   2.386   0.434
 5151TIP3    H215460   1.470   2.519   0.391
 5152TIP3   OH215461   5.613   3.029   3.528
 5152TIP3    H115462   5.572   2.950   3.563
 5152TIP3    H215463   5.550   3.063   3.464
 5153TIP3   OH215464   3.862   1.725   3.741
 5153TIP3    H115465   3.897   1.807   3.776
 5153TIP3    H215466   3.838   1.674   3.819
 5154TIP3   OH215467   4.568   1.857   4.626
 5154TIP3    H115468   4.597   1.766   4.631
 5154TIP3    H215469   4.622   1.896   4.558
 5155TIP3   OH215470   3.514   4.575   2.789
 5155TIP3    H115471   3.426   4.583   2.753
 5155TIP3    H215472   3.508   4.501   2.850
 5156TIP3   OH215473   6.135   4.900   1.162
 5156TIP3    H115474   6.213   4.933   1.118
 5156TIP3    H215475   6.134   4.806   1.141
 5157TIP3   OH215476   5.248   1.319   3.249
 5157TIP3    H115477   5.252   1.243   3.190
 5157TIP3    H215478   5.162   1.312   3.291
 5158TIP3   OH215479   5.584   1.185   2.191
 5158TIP3    H115480   5.605   1.262   2.243
 5158TIP3    H215481   5.649   1.120   2.218
 5159TIP3   OH215482   0.670   3.971   5.038
 5159TIP3    H115483   0.713   4.055   5.047
 5159TIP3    H215484   0.605   3.984   4.969
 5160TIP3   OH215485   1.228   2.519   1.958
 5160TIP3    H115486   1.267   2.595   2.002
 5160TIP3    H215487   1.151   2.555   1.913
 5161TIP3   OH215488   5.461   2.702   1.311
 5161TIP3    H115489   5.528   2.731   1.250
 5161TIP3    H215490   5.508   2.648   1.375
 5162TIP3   OH215491   1.074   1.704   3.893
 5162TIP3    H115492   1.161   1.685   3.858
 5162TIP3    H215493   1.077   1.797   3.916
 5163TIP3   OH215494   5.401   0.362   5.113
 5163TIP3    H115495   5.484   0.366   5.160
 5163TIP3    H215496   5.393   0.270   5.086
 5164TIP3   OH215497   4.431   2.142   3.184
 5164TIP3    H115498   4.463   2.184   3.104
 5164TIP3    H215499   4.341   2.175   3.194
 5165TIP3   OH215500   2.296   2.930   2.188
 5165TIP3    H115501   2.296   2.851   2.135
 5165TIP3    H215502   2.363   2.915   2.254
 5166TIP3   OH215503   4.302   0.944   0.556
 5166TIP3    H115504   4.315   1.026   0.508
 5166TIP3    H215505   4.301   0.970   0.648
 5167TIP3   OH215506   1.556   2.749   1.213
 5167TIP3    H115507   1.466   2.779   1.226
 5167TIP3    H215508   1.552   2.695   1.134
 5168TIP3   OH215509   2.824   3.669   3.981
 5168TIP3    H115510   2.749   3.690   4.037
 5168TIP3    H215511   2.897   3.657   4.041
 5169TIP3   OH215512   0.138   4.397   4.586
 5169TIP3    H115513   0.203   4.396   4.657
 5169TIP3    H215514   0.061   4.439   4.624
 5170TIP3   OH215515   1.649   2.648   0.950
 5170TIP3    H115516   1.601   2.579   0.905
 5170TIP3    H215517   1.704   2.602   1.014
 5171TIP3   OH215518   5.640   0.618   3.822
 5171TIP3    H115519   5.565   0.591   3.768
 5171TIP3    H215520   5.667   0.702   3.786
 5172TIP3   OH215521   3.172   2.762   3.243
 5172TIP3    H115522   3.098   2.744   3.186
 5172TIP3    H215523   3.142   2.831   3.301
 5173TIP3   OH215524   2.723   4.804   4.416
 5173TIP3    H115525   2.711   4.839   4.504
 5173TIP3    H215526   2.681   4.867   4.358
 5174TIP3   OH215527   0.330   1.770   0.479
 5174TIP3    H115528   0.241   1.735   0.482
 5174TIP3    H215529   0.365   1.740   0.396
 5175TIP3   OH215530   0.694   3.307   3.032
 5175TIP3    H115531   0.708   3.212   3.032
 5175TIP3    H215532   0.631   3.322   2.961
 5176TIP3   OH215533   3.932   5.473   4.526
 5176TIP3    H115534   4.028   5.475   4.533
 5176TIP3    H215535   3.902   5.532   4.594
 5177TIP3   OH215536   3.478   0.161   0.062
 5177TIP3    H115537   3.550   0.141   0.002
 5177TIP3    H215538   3.425   0.082   0.063
 5178TIP3   OH215539   2.896   1.972   3.675
 5178TIP3    H115540   2.951   1.948   3.601
 5178TIP3    H215541   2.919   1.910   3.744
 5179TIP3   OH215542   5.062   4.271   4.966
 5179TIP3    H115543   4.982   4.272   5.020
 5179TIP3    H215544   5.132   4.292   5.028
 5180TIP3   OH215545   4.153   5.222   1.757
 5180TIP3    H115546   4.099   5.158   1.711
 5180TIP3    H215547   4.165   5.185   1.845
 5181TIP3   OH215548   4.413   1.432   5.011
 5181TIP3    H115549   4.332   1.381   5.010
 5181TIP3    H215550   4.462   1.398   5.087
 5182TIP3   OH215551   1.713   3.856   1.845
 5182TIP3    H115552   1.712   3.768   1.809
 5182TIP3    H215553   1.765   3.849   1.925
 5183TIP3   OH215554   3.234   3.056   3.485
 5183TIP3    H115555   3.188   2.975   3.504
 5183TIP3    H215556   3.217   3.073   3.392
 5184TIP3   OH215557   0.340   1.410   2.655
 5184TIP3    H115558   0.278   1.370   2.716
 5184TIP3    H215559   0.407   1.343   2.641
 5185TIP3   OH215560   5.419   5.957   1.988
 5185TIP3    H115561   5.361   5.883   2.008
 5185TIP3    H215562   5.390   5.988   1.902
 5186TIP3   OH215563   6.175   2.409   5.041
 5186TIP3    H115564   6.198   2.499   5.020
 5186TIP3    H215565   6.224   2.390   5.122
 5187TIP3   OH215566   5.342   1.431   2.120
 5187TIP3    H115567   5.370   1.462   2.034
 5187TIP3    H215568   5.288   1.354   2.101
 5188TIP3   OH215569   5.125   4.567   5.126
 5188TIP3    H115570   5.136   4.620   5.047
 5188TIP3    H215571   5.189   4.602   5.187
 5189TIP3   OH215572   0.145   2.405   3.415
 5189TIP3    H115573   0.083   2.474   3.389
 5189TIP3    H215574   0.115   2.327   3.369
 5190TIP3   OH215575   4.757   3.509   4.737
 5190TIP3    H115576   4.692   3.452   4.778
 5190TIP3    H215577   4.779   3.465   4.655
 5191TIP3   OH215578   2.555   1.324   0.229
 5191TIP3    H115579   2.509   1.301   0.148
 5191TIP3    H215580   2.507   1.280   0.298
 5192TIP3   OH215581   1.807   0.946   4.844
 5192TIP3    H115582   1.757   0.977   4.768
 5192TIP3    H215583   1.740   0.923   4.908
 5193TIP3   OH215584   2.707   4.405   0.191
 5193TIP3    H115585   2.734   4.490   0.228
 5193TIP3    H215586   2.668   4.427   0.107
 5194TIP3   OH215587   4.663   5.031   4.541
 5194TIP3    H115588   4.657   4.968   4.613
 5194TIP3    H215589   4.599   5.098   4.562
 5195TIP3   OH215590   5.087   2.033   1.845
 5195TIP3    H115591   5.010   2.044   1.789
 5195TIP3    H215592   5.066   1.958   1.900
 5196TIP3   OH215593   6.104   4.276   2.156
 5196TIP3    H115594   6.178   4.328   2.125
 5196TIP3    H215595   6.116   4.271   2.251
 5197TIP3   OH215596   4.332   5.822   2.919
 5197TIP3    H115597   4.398   5.753   2.919
 5197TIP3    H215598   4.377   5.897   2.959
 5198TIP3   OH215599   0.389   5.459   0.209
 5198TIP3    H115600   0.421   5.546   0.185
 5198TIP3    H215601   0.429   5.401   0.145
 5199TIP3   OH215602   3.238   1.810   3.854
 5199TIP3    H115603   3.256   1.767   3.937
 5199TIP3    H215604   3.313   1.787   3.799
 5200TIP3   OH215605   2.320   1.871   3.307
 5200TIP3    H115606   2.359   1.788   3.335
 5200TIP3    H215607   2.245   1.844   3.253
 5201TIP3   OH215608   0.188   0.309   3.797
 5201TIP3    H115609   0.136   0.233   3.771
 5201TIP3    H215610   0.254   0.274   3.857
 5202TIP3   OH215611   5.816   2.929   3.831
 5202TIP3    H115612   5.872   2.903   3.905
 5202TIP3    H215613   5.857   2.889   3.754
 5203TIP3   OH215614   2.092   5.660   4.492
 5203TIP3    H115615   2.052   5.581   4.455
 5203TIP3    H215616   2.178   5.665   4.451
 5204TIP3   OH215617   0.663   3.952   1.211
 5204TIP3    H115618   0.692   3.871   1.254
 5204TIP3    H215619   0.636   3.924   1.123
 5205TIP3   OH215620   3.034   1.682   0.599
 5205TIP3    H115621   3.019   1.776   0.613
 5205TIP3    H215622   3.040   1.645   0.687
 5206TIP3   OH215623   2.448   0.800   2.798
 5206TIP3    H115624   2.471   0.823   2.709
 5206TIP3    H215625   2.467   0.878   2.850
 5207TIP3   OH215626   4.726   5.588   4.743
 5207TIP3    H115627   4.635   5.589   4.715
 5207TIP3    H215628   4.774   5.548   4.670
 5208TIP3   OH215629   2.626   1.292   2.405
 5208TIP3    H115630   2.705   1.332   2.443
 5208TIP3    H215631   2.589   1.361   2.350
 5209TIP3   OH215632   4.805   0.472   1.761
 5209TIP3    H115633   4.786   0.566   1.749
 5209TIP3    H215634   4.852   0.447   1.682
 5210TIP3   OH215635   5.526   3.436   3.247
 5210TIP3    H115636   5.499   3.513   3.296
 5210TIP3    H215637   5.622   3.436   3.253
 5211TIP3   OH215638   2.949   3.153   0.534
 5211TIP3    H115639   2.957   3.248   0.523
 5211TIP3    H215640   2.856   3.138   0.549
 5212TIP3   OH215641   3.552   3.207   4.072
 5212TIP3    H115642   3.603   3.137   4.032
 5212TIP3    H215643   3.484   3.227   4.008
 5213TIP3   OH215644   2.655   2.769   3.595
 5213TIP3    H115645   2.666   2.806   3.507
 5213TIP3    H215646   2.561   2.757   3.604
 5214TIP3   OH215647   3.187   5.891   1.267
 5214TIP3    H115648   3.242   5.962   1.301
 5214TIP3    H215649   3.210   5.885   1.175
 5215TIP3   OH215650   4.212   0.606   0.673
 5215TIP3    H115651   4.286   0.558   0.638
 5215TIP3    H215652   4.158   0.626   0.596
 5216TIP3   OH215653   0.565   5.585   5.126
 5216TIP3    H115654   0.578   5.554   5.036
 5216TIP3    H215655   0.516   5.667   5.116
 5217TIP3   OH215656   0.561   1.978   4.086
 5217TIP3    H115657   0.499   2.000   4.016
 5217TIP3    H215658   0.567   2.057   4.139
 5218TIP3   OH215659   5.284   3.079   1.846
 5218TIP3    H115660   5.347   3.047   1.781
 5218TIP3    H215661   5.338   3.114   1.916
 5219TIP3   OH215662   1.344   5.048   4.531
 5219TIP3    H115663   1.390   4.964   4.521
 5219TIP3    H215664   1.365   5.075   4.621
 5220TIP3   OH215665   1.289   2.194   2.186
 5220TIP3    H115666   1.199   2.165   2.172
 5220TIP3    H215667   1.338   2.113   2.201
 5221TIP3   OH215668   4.304   5.434   2.663
 5221TIP3    H115669   4.248   5.395   2.730
 5221TIP3    H215670   4.289   5.382   2.585
 5222TIP3   OH215671   0.173   5.786   2.902
 5222TIP3    H115672   0.234   5.743   2.842
 5222TIP3    H215673   0.219   5.866   2.930
 5223TIP3   OH215674   5.261   1.631   3.950
 5223TIP3    H115675   5.186   1.662   4.000
 5223TIP3    H215676   5.335   1.680   3.985
 5224TIP3   OH215677   5.273   3.230   4.324
 5224TIP3    H115678   5.203   3.273   4.372
 5224TIP3    H215679   5.243   3.228   4.233
 5225TIP3   OH215680   5.430   2.824   0.453
 5225TIP3    H115681   5.449   2.751   0.394
 5225TIP3    H215682   5.456   2.902   0.404
 5226TIP3   OH215683   4.366   2.695   3.509
 5226TIP3    H115684   4.373   2.679   3.415
 5226TIP3    H215685   4.279   2.733   3.520
 5227TIP3   OH215686   0.516   0.581   3.387
 5227TIP3    H115687   0.526   0.661   3.335
 5227TIP3    H215688   0.422   0.573   3.401
 5228TIP3   OH215689   5.651   5.824   0.154
 5228TIP3    H115690   5.633   5.805   0.062
 5228TIP3    H215691   5.734   5.780   0.172
 5229TIP3   OH215692   3.995   3.010   2.190
 5229TIP3    H115693   3.947   2.928   2.194
 5229TIP3    H215694   4.087   2.984   2.194
 5230TIP3   OH215695   0.960   3.592   4.466
 5230TIP3    H115696   1.050   3.600   4.498
 5230TIP3    H215697   0.963   3.521   4.402
 5231TIP3   OH215698   1.099   0.533   1.687
 5231TIP3    H115699   1.050   0.613   1.668
 5231TIP3    H215700   1.177   0.540   1.632
 5232TIP3   OH215701   2.907   4.086   1.922
 5232TIP3    H115702   2.903   3.999   1.883
 5232TIP3    H215703   2.945   4.072   2.009
 5233TIP3   OH215704   5.643   3.967   3.991
 5233TIP3    H115705   5.651   3.973   4.086
 5233TIP3    H215706   5.638   3.873   3.973
 5234TIP3   OH215707   4.378   4.467   3.196
 5234TIP3    H115708   4.457   4.413   3.189
 5234TIP3    H215709   4.314   4.424   3.139
 5235TIP3   OH215710   0.302   2.400   2.371
 5235TIP3    H115711   0.365   2.449   2.424
 5235TIP3    H215712   0.296   2.315   2.415
 5236TIP3   OH215713   4.504   3.606   2.531
 5236TIP3    H115714   4.521   3.513   2.524
 5236TIP3    H215715   4.413   3.617   2.502
 5237TIP3   OH215716   4.088   4.381   1.447
 5237TIP3    H115717   4.115   4.457   1.395
 5237TIP3    H215718   4.163   4.363   1.504
 5238TIP3   OH215719   0.870   5.736   1.012
 5238TIP3    H115720   0.919   5.714   0.934
 5238TIP3    H215721   0.817   5.811   0.987
 5239TIP3   OH215722   3.063   5.245   4.351
 5239TIP3    H115723   2.986   5.249   4.408
 5239TIP3    H215724   3.116   5.175   4.389
 5240TIP3   OH215725   4.002   0.425   0.749
 5240TIP3    H115726   3.920   0.465   0.718
 5240TIP3    H215727   4.070   0.480   0.711
 5241TIP3   OH215728   4.635   5.893   2.775
 5241TIP3    H115729   4.602   5.835   2.706
 5241TIP3    H215730   4.730   5.891   2.765
 5242TIP3   OH215731   0.859   4.691   3.034
 5242TIP3    H115732   0.852   4.656   3.123
 5242TIP3    H215733   0.884   4.616   2.981
 5243TIP3   OH215734   5.681   3.554   2.473
 5243TIP3    H115735   5.640   3.491   2.532
 5243TIP3    H215736   5.766   3.515   2.452
 5244TIP3   OH215737   1.303   5.129   4.266
 5244TIP3    H115738   1.311   5.085   4.182
 5244TIP3    H215739   1.320   5.060   4.331
 5245TIP3   OH215740   6.316   1.800   0.300
 5245TIP3    H115741   6.232   1.821   0.258
 5245TIP3    H215742   6.373   1.874   0.277
 5246TIP3   OH215743   1.563   1.392   0.786
 5246TIP3    H115744   1.652   1.378   0.818
 5246TIP3    H215745   1.556   1.486   0.773
 5247TIP3   OH215746   1.512   0.560   2.397
 5247TIP3    H115747   1.433   0.547   2.344
 5247TIP3    H215748   1.563   0.481   2.385
 5248TIP3   OH215749   6.013   1.540   3.712
 5248TIP3    H115750   5.931   1.510   3.673
 5248TIP3    H215751   6.007   1.635   3.712
 5249TIP3   OH215752   3.246   4.140   1.258
 5249TIP3    H115753   3.158   4.130   1.294
 5249TIP3    H215754   3.293   4.190   1.325
 5250TIP3   OH215755   5.727   5.552   1.720
 5250TIP3    H115756   5.633   5.555   1.705
 5250TIP3    H215757   5.762   5.502   1.646
 5251TIP3   OH215758   1.389   0.933   4.721
 5251TIP3    H115759   1.407   0.900   4.633
 5251TIP3    H215760   1.417   1.025   4.719
 5252TIP3   OH215761   6.065   4.943   4.848
 5252TIP3    H115762   6.053   5.033   4.819
 5252TIP3    H215763   5.981   4.917   4.884
 5253TIP3   OH215764   4.213   4.619   4.413
 5253TIP3    H115765   4.271   4.620   4.336
 5253TIP3    H215766   4.187   4.710   4.424
 5254TIP3   OH215767   0.968   1.032   0.398
 5254TIP3    H115768   0.897   1.074   0.446
 5254TIP3    H215769   1.030   1.102   0.379
 5255TIP3   OH215770   3.617   0.094   0.280
 5255TIP3    H115771   3.647   0.004   0.265
 5255TIP3    H215772   3.561   0.113   0.205
 5256TIP3   OH215773   2.347   3.162   0.515
 5256TIP3    H115774   2.365   3.237   0.459
 5256TIP3    H215775   2.290   3.106   0.463
 5257TIP3   OH215776   0.158   3.516   3.738
 5257TIP3    H115777   0.237   3.567   3.758
 5257TIP3    H215778   0.185   3.425   3.745
 5258TIP3   OH215779   1.452   3.429   1.938
 5258TIP3    H115780   1.472   3.449   2.029
 5258TIP3    H215781   1.363   3.463   1.926
 5259TIP3   OH215782   0.267   3.057   0.162
 5259TIP3    H115783   0.180   3.093   0.143
 5259TIP3    H215784   0.304   3.037   0.076
 5260TIP3   OH215785   2.235   4.861   0.748
 5260TIP3    H115786   2.326   4.884   0.729
 5260TIP3    H215787   2.184   4.934   0.712
 5261TIP3   OH215788   3.090   5.030   0.932
 5261TIP3    H115789   3.169   5.009   0.982
 5261TIP3    H215790   3.080   4.957   0.871
 5262TIP3   OH215791   0.171   2.698   1.177
 5262TIP3    H115792   0.252   2.749   1.178
 5262TIP3    H215793   0.183   2.634   1.107
 5263TIP3   OH215794   1.560   1.024   3.631
 5263TIP3    H115795   1.607   1.105   3.614
 5263TIP3    H215796   1.535   0.992   3.544
 5264TIP3   OH215797   2.619   0.176   0.901
 5264TIP3    H115798   2.674   0.252   0.882
 5264TIP3    H215799   2.602   0.138   0.815
 5265TIP3   OH215800   0.537   1.468   3.286
 5265TIP3    H115801   0.521   1.388   3.236
 5265TIP3    H215802   0.496   1.538   3.235
 5266TIP3   OH215803   5.247   3.927   2.062
 5266TIP3    H115804   5.155   3.908   2.076
 5266TIP3    H215805   5.280   3.853   2.011
 5267TIP3   OH215806   1.715   4.832   3.283
 5267TIP3    H115807   1.650   4.842   3.213
 5267TIP3    H215808   1.779   4.771   3.248
 5268TIP3   OH215809   1.546   0.346   3.484
 5268TIP3    H115810   1.515   0.256   3.478
 5268TIP3    H215811   1.467   0.397   3.502
 5269TIP3   OH215812   5.259   5.682   1.424
 5269TIP3    H115813   5.241   5.613   1.359
 5269TIP3    H215814   5.324   5.643   1.483
 5270TIP3   OH215815   1.043   0.649   1.333
 5270TIP3    H115816   1.023   0.741   1.313
 5270TIP3    H215817   1.133   0.651   1.365
 5271TIP3   OH215818   5.885   2.235   0.133
 5271TIP3    H115819   5.809   2.223   0.190
 5271TIP3    H215820   5.931   2.310   0.170
 5272TIP3   OH215821   3.575   4.088   0.925
 5272TIP3    H115822   3.485   4.095   0.957
 5272TIP3    H215823   3.618   4.029   0.987
 5273TIP3   OH215824   4.664   0.144   2.662
 5273TIP3    H115825   4.644   0.234   2.635
 5273TIP3    H215826   4.580   0.098   2.654
 5274TIP3   OH215827   0.719   1.303   3.681
 5274TIP3    H115828   0.674   1.223   3.653
 5274TIP3    H215829   0.782   1.273   3.746
 5275TIP3   OH215830   4.530   0.216   0.770
 5275TIP3    H115831   4.615   0.196   0.731
 5275TIP3    H215832   4.494   0.131   0.796
 5276TIP3   OH215833   2.066   3.239   0.865
 5276TIP3    H115834   1.974   3.261   0.878
 5276TIP3    H215835   2.112   3.323   0.872
 5277TIP3   OH215836   4.725   4.030   3.606
 5277TIP3    H115837   4.793   4.081   3.650
 5277TIP3    H215838   4.769   3.948   3.580
 5278TIP3   OH215839   2.874   4.151   2.582
 5278TIP3    H115840   2.897   4.070   2.628
 5278TIP3    H215841   2.933   4.152   2.506
 5279TIP3   OH215842   0.268   0.044   0.503
 5279TIP3    H115843   0.241  -0.041   0.537
 5279TIP3    H215844   0.222   0.107   0.558
 5280TIP3   OH215845   1.880   4.833   0.730
 5280TIP3    H115846   1.870   4.738   0.723
 5280TIP3    H215847   1.911   4.861   0.643
 5281TIP3   OH215848   1.662   0.308   1.721
 5281TIP3    H115849   1.570   0.283   1.708
 5281TIP3    H215850   1.707   0.226   1.740
 5282TIP3   OH215851   0.833   2.337   4.086
 5282TIP3    H115852   0.858   2.368   3.999
 5282TIP3    H215853   0.777   2.407   4.120
 5283TIP3   OH215854   4.529   4.884   0.646
 5283TIP3    H115855   4.620   4.862   0.668
 5283TIP3    H215856   4.532   4.976   0.619
 5284TIP3   OH215857   1.216   0.069   2.603
 5284TIP3    H115858   1.292   0.014   2.624
 5284TIP3    H215859   1.253   0.147   2.562
 5285TIP3   OH215860   1.893   1.474   2.035
 5285TIP3    H115861   1.914   1.567   2.047
 5285TIP3    H215862   1.879   1.441   2.123
 5286TIP3   OH215863   2.514   1.628   4.856
 5286TIP3    H115864   2.436   1.671   4.891
 5286TIP3    H215865   2.585   1.691   4.872
 5287TIP3   OH215866   2.619   0.841   1.279
 5287TIP3    H115867   2.564   0.856   1.356
 5287TIP3    H215868   2.590   0.906   1.216
 5288TIP3   OH215869   2.431   3.043   1.354
 5288TIP3    H115870   2.371   3.051   1.428
 5288TIP3    H215871   2.374   3.035   1.277
 5289TIP3   OH215872   4.252   4.610   1.328
 5289TIP3    H115873   4.257   4.595   1.234
 5289TIP3    H215874   4.312   4.545   1.365
 5290TIP3   OH215875   1.030   2.590   3.411
 5290TIP3    H115876   1.060   2.571   3.500
 5290TIP3    H215877   1.016   2.504   3.372
 5291TIP3   OH215878   5.280   1.668   0.901
 5291TIP3    H115879   5.327   1.695   0.981
 5291TIP3    H215880   5.280   1.747   0.846
 5292TIP3   OH215881   2.214   2.865   5.184
 5292TIP3    H115882   2.306   2.884   5.166
 5292TIP3    H215883   2.170   2.950   5.178
 5293TIP3   OH215884   3.189   3.547   0.233
 5293TIP3    H115885   3.173   3.461   0.194
 5293TIP3    H215886   3.226   3.527   0.319
 5294TIP3   OH215887   1.286   2.383   5.038
 5294TIP3    H115888   1.333   2.465   5.047
 5294TIP3    H215889   1.323   2.327   5.106
 5295TIP3   OH215890   2.370   2.920   4.275
 5295TIP3    H115891   2.289   2.872   4.286
 5295TIP3    H215892   2.407   2.887   4.193
 5296TIP3   OH215893   5.917   3.986   1.440
 5296TIP3    H115894   5.943   3.897   1.461
 5296TIP3    H215895   5.997   4.028   1.409
 5297TIP3   OH215896   2.912   2.351   0.861
 5297TIP3    H115897   2.957   2.313   0.785
 5297TIP3    H215898   2.820   2.328   0.849
 5298TIP3   OH215899   1.989   4.575   4.970
 5298TIP3    H115900   2.046   4.528   4.908
 5298TIP3    H215901   2.021   4.665   4.970
 5299TIP3   OH215902   4.435   3.022   3.368
 5299TIP3    H115903   4.453   3.116   3.364
 5299TIP3    H215904   4.492   2.984   3.302
 5300TIP3   OH215905   0.763   3.636   4.842
 5300TIP3    H115906   0.843   3.646   4.894
 5300TIP3    H215907   0.790   3.586   4.765
 5301TIP3   OH215908   1.944   1.100   1.368
 5301TIP3    H115909   2.006   1.165   1.337
 5301TIP3    H215910   1.983   1.016   1.347
 5302TIP3   OH215911   2.200   4.196   4.403
 5302TIP3    H115912   2.261   4.240   4.463
 5302TIP3    H215913   2.133   4.159   4.460
 5303TIP3   OH215914   1.745   0.441   2.704
 5303TIP3    H115915   1.742   0.490   2.786
 5303TIP3    H215916   1.658   0.400   2.697
 5304TIP3   OH215917   0.398   4.200   1.754
 5304TIP3    H115918   0.491   4.220   1.751
 5304TIP3    H215919   0.365   4.224   1.668
 5305TIP3   OH215920   2.868   1.395   4.204
 5305TIP3    H115921   2.775   1.396   4.181
 5305TIP3    H215922   2.869   1.402   4.300
 5306TIP3   OH215923   2.207   3.006   1.179
 5306TIP3    H115924   2.252   3.038   1.100
 5306TIP3    H215925   2.140   2.946   1.146
 5307TIP3   OH215926   5.302   0.055   4.227
 5307TIP3    H115927   5.374   0.071   4.165
 5307TIP3    H215928   5.224   0.056   4.172
 5308TIP3   OH215929   0.076   0.684   3.096
 5308TIP3    H115930   0.134   0.636   3.155
 5308TIP3    H215931   0.042   0.756   3.149
 5309TIP3   OH215932   5.366   2.843   0.752
 5309TIP3    H115933   5.435   2.909   0.743
 5309TIP3    H215934   5.413   2.760   0.758
 5310TIP3   OH215935   0.322   4.071   4.170
 5310TIP3    H115936   0.333   4.091   4.263
 5310TIP3    H215937   0.337   3.977   4.163
 5311TIP3   OH215938   5.005   1.593   0.096
 5311TIP3    H115939   5.044   1.658   0.039
 5311TIP3    H215940   4.923   1.633   0.126
 5312TIP3   OH215941   5.616   3.581   1.158
 5312TIP3    H115942   5.619   3.486   1.146
 5312TIP3    H215943   5.666   3.616   1.084
 5313TIP3   OH215944   3.319   1.548   1.699
 5313TIP3    H115945   3.313   1.640   1.722
 5313TIP3    H215946   3.386   1.513   1.758
 5314TIP3   OH215947   3.829   5.161   1.329
 5314TIP3    H115948   3.902   5.133   1.384
 5314TIP3    H215949   3.793   5.238   1.375
 5315TIP3   OH215950   3.707   0.309   1.846
 5315TIP3    H115951   3.778   0.365   1.815
 5315TIP3    H215952   3.689   0.251   1.772
 5316TIP3   OH215953   2.154   3.848   1.999
 5316TIP3    H115954   2.155   3.764   1.953
 5316TIP3    H215955   2.235   3.848   2.050
 5317TIP3   OH215956   5.826   4.138   2.625
 5317TIP3    H115957   5.839   4.045   2.643
 5317TIP3    H215958   5.738   4.157   2.659
 5318TIP3   OH215959   1.273   0.435   4.985
 5318TIP3    H115960   1.183   0.425   5.016
 5318TIP3    H215961   1.315   0.352   5.005
 5319TIP3   OH215962   0.703   0.126   1.256
 5319TIP3    H115963   0.720   0.075   1.177
 5319TIP3    H215964   0.667   0.063   1.318
 5320TIP3   OH215965   5.262   5.610   3.730
 5320TIP3    H115966   5.305   5.649   3.806
 5320TIP3    H215967   5.264   5.679   3.664
 5321TIP3   OH215968   1.921   0.476   1.728
 5321TIP3    H115969   1.881   0.558   1.702
 5321TIP3    H215970   1.849   0.413   1.731
 5322TIP3   OH215971   2.632   1.893   4.828
 5322TIP3    H115972   2.653   1.926   4.916
 5322TIP3    H215973   2.552   1.939   4.805
 5323TIP3   OH215974   2.840   5.528   5.159
 5323TIP3    H115975   2.873   5.611   5.195
 5323TIP3    H215976   2.906   5.464   5.185
 5324TIP3   OH215977   2.057   4.349   3.663
 5324TIP3    H115978   2.021   4.262   3.682
 5324TIP3    H215979   2.031   4.403   3.737
 5325TIP3   OH215980   2.619   2.225   0.788
 5325TIP3    H115981   2.527   2.199   0.796
 5325TIP3    H215982   2.616   2.315   0.756
 5326TIP3   OH215983   0.624   2.910   0.928
 5326TIP3    H115984   0.661   2.912   1.016
 5326TIP3    H215985   0.688   2.860   0.876
 5327TIP3   OH215986   3.026   1.379   0.348
 5327TIP3    H115987   2.965   1.444   0.312
 5327TIP3    H215988   3.112   1.420   0.338
 5328TIP3   OH215989   2.026   1.571   2.815
 5328TIP3    H115990   2.121   1.567   2.826
 5328TIP3    H215991   2.008   1.508   2.746
 5329TIP3   OH215992   2.733   1.249   1.133
 5329TIP3    H115993   2.733   1.304   1.054
 5329TIP3    H215994   2.671   1.293   1.192
 5330TIP3   OH215995   3.127   2.730   2.434
 5330TIP3    H115996   3.112   2.762   2.523
 5330TIP3    H215997   3.190   2.792   2.397
 5331TIP3   OH215998   2.552   3.266   3.609
 5331TIP3    H115999   2.491   3.337   3.624
 5331TIP3    H216000   2.503   3.187   3.631
 5332TIP3   OH216001   1.281   1.243   2.545
 5332TIP3    H116002   1.222   1.314   2.521
 5332TIP3    H216003   1.366   1.268   2.507
 5333TIP3   OH216004   2.696   4.389   3.749
 5333TIP3    H116005   2.656   4.459   3.697
 5333TIP3    H216006   2.726   4.325   3.684
 5334TIP3   OH216007   2.647   5.135   0.207
 5334TIP3    H116008   2.686   5.215   0.241
 5334TIP3    H216009   2.653   5.073   0.279
 5335TIP3   OH216010   2.347   3.169   3.015
 5335TIP3    H116011   2.290   3.099   2.982
 5335TIP3    H216012   2.292   3.247   3.014
 5336TIP3   OH216013   5.516   0.579   3.057
 5336TIP3    H116014   5.422   0.566   3.060
 5336TIP3    H216015   5.551   0.499   3.017
 5337TIP3   OH216016   2.395   0.100   5.076
 5337TIP3    H116017   2.429   0.186   5.051
 5337TIP3    H216018   2.408   0.095   5.171
 5338TIP3   OH216019   3.798   2.895   2.803
 5338TIP3    H116020   3.821   2.987   2.794
 5338TIP3    H216021   3.757   2.888   2.889
 5339TIP3   OH216022   5.328   4.154   2.881
 5339TIP3    H116023   5.274   4.124   2.954
 5339TIP3    H216024   5.319   4.085   2.815
 5340TIP3   OH216025   4.834   5.312   2.708
 5340TIP3    H116026   4.921   5.311   2.670
 5340TIP3    H216027   4.842   5.367   2.786
 5341TIP3   OH216028   0.620   3.937   0.004
 5341TIP3    H116029   0.632   4.026   0.038
 5341TIP3    H216030   0.605   3.883   0.081
 5342TIP3   OH216031   5.596   5.687   3.672
 5342TIP3    H116032   5.635   5.616   3.723
 5342TIP3    H216033   5.526   5.720   3.729
 5343TIP3   OH216034   4.788   1.471   3.919
 5343TIP3    H116035   4.756   1.406   3.982
 5343TIP3    H216036   4.722   1.472   3.850
 5344TIP3   OH216037   2.521   1.507   4.425
 5344TIP3    H116038   2.426   1.512   4.438
 5344TIP3    H216039   2.551   1.445   4.491
 5345TIP3   OH216040   2.611   4.052   2.525
 5345TIP3    H116041   2.696   4.093   2.543
 5345TIP3    H216042   2.602   3.984   2.592
 5346TIP3   OH216043   3.667   3.480   1.013
 5346TIP3    H116044   3.658   3.439   1.099
 5346TIP3    H216045   3.623   3.420   0.952
 5347TIP3   OH216046   3.998   4.079   3.903
 5347TIP3    H116047   4.090   4.054   3.912
 5347TIP3    H216048   3.974   4.051   3.815
 5348TIP3   OH216049   2.003  -0.025   0.133
 5348TIP3    H116050   1.970   0.016   0.053
 5348TIP3    H216051   1.971   0.032   0.204
 5349TIP3   OH216052   6.009   4.038   3.216
 5349TIP3    H116053   5.998   4.120   3.167
 5349TIP3    H216054   5.968   4.055   3.300
 5350TIP3   OH216055   0.493   3.930   2.073
 5350TIP3    H116056   0.438   4.008   2.063
 5350TIP3    H216057   0.572   3.961   2.117
 5351TIP3   OH216058   6.073   5.654   0.522
 5351TIP3    H116059   6.105   5.696   0.602
 5351TIP3    H216060   6.129   5.577   0.512
 5352TIP3   OH216061   2.432   5.385   3.482
 5352TIP3    H116062   2.453   5.403   3.574
 5352TIP3    H216063   2.512   5.407   3.434
 5353TIP3   OH216064   5.895   4.067   2.026
 5353TIP3    H116065   5.981   4.027   2.015
 5353TIP3    H216066   5.885   4.080   2.120
 5354TIP3   OH216067   2.678   3.639   1.854
 5354TIP3    H116068   2.602   3.631   1.912
 5354TIP3    H216069   2.690   3.552   1.818
 5355TIP3   OH216070   4.474   0.778   4.404
 5355TIP3    H116071   4.512   0.861   4.375
 5355TIP3    H216072   4.545   0.733   4.449
 5356TIP3   OH216073   3.076   1.109   2.496
 5356TIP3    H116074   3.058   1.171   2.567
 5356TIP3    H216075   3.023   1.032   2.518
 5357TIP3   OH216076   3.525   3.842   1.511
 5357TIP3    H116077   3.450   3.898   1.530
 5357TIP3    H216078   3.564   3.880   1.432
 5358TIP3   OH216079   2.112   0.227   3.436
 5358TIP3    H116080   2.044   0.201   3.498
 5358TIP3    H216081   2.082   0.311   3.401
 5359TIP3   OH216082   4.507   5.255   1.685
 5359TIP3    H116083   4.583   5.312   1.695
 5359TIP3    H216084   4.434   5.305   1.723
 5360TIP3   OH216085   4.314   1.812   0.961
 5360TIP3    H116086   4.293   1.761   0.882
 5360TIP3    H216087   4.394   1.860   0.938
 5361TIP3   OH216088   2.494   1.087   4.310
 5361TIP3    H116089   2.415   1.118   4.353
 5361TIP3    H216090   2.464   1.041   4.232
 5362TIP3   OH216091   1.910   3.857   4.876
 5362TIP3    H116092   1.835   3.899   4.833
 5362TIP3    H216093   1.937   3.789   4.814
 5363TIP3   OH216094   2.792   4.775   2.268
 5363TIP3    H116095   2.796   4.819   2.183
 5363TIP3    H216096   2.846   4.697   2.257
 5364TIP3   OH216097   3.133   3.455   2.322
 5364TIP3    H116098   3.204   3.505   2.280
 5364TIP3    H216099   3.171   3.369   2.339
 5365TIP3   OH216100   5.009   0.227   2.595
 5365TIP3    H116101   4.967   0.151   2.556
 5365TIP3    H216102   5.079   0.251   2.534
 5366TIP3   OH216103   1.731   5.803   3.878
 5366TIP3    H116104   1.713   5.850   3.960
 5366TIP3    H216105   1.750   5.872   3.814
 5367TIP3   OH216106   1.918   1.259   1.716
 5367TIP3    H116107   1.857   1.328   1.745
 5367TIP3    H216108   1.872   1.177   1.735
 5368TIP3   OH216109   0.423   2.057   2.191
 5368TIP3    H116110   0.334   2.082   2.165
 5368TIP3    H216111   0.479   2.093   2.123
 5369TIP3   OH216112   1.924   3.976   3.612
 5369TIP3    H116113   1.855   3.994   3.676
 5369TIP3    H216114   2.002   4.019   3.647
 5370TIP3   OH216115   4.331   3.811   1.772
 5370TIP3    H116116   4.337   3.770   1.686
 5370TIP3    H216117   4.390   3.885   1.767
 5371TIP3   OH216118   3.946   0.474   3.348
 5371TIP3    H116119   3.965   0.410   3.417
 5371TIP3    H216120   3.981   0.435   3.269
 5372TIP3   OH216121   5.885   1.098   3.275
 5372TIP3    H116122   5.795   1.118   3.248
 5372TIP3    H216123   5.894   1.138   3.361
 5373TIP3   OH216124   2.878   0.076   2.737
 5373TIP3    H116125   2.903   0.146   2.797
 5373TIP3    H216126   2.869  -0.001   2.793
 5374TIP3   OH216127   2.880   4.949   2.904
 5374TIP3    H116128   2.824   4.902   2.843
 5374TIP3    H216129   2.880   5.039   2.874
 5375TIP3   OH216130   1.112   4.397   4.396
 5375TIP3    H116131   1.046   4.329   4.398
 5375TIP3    H216132   1.084   4.460   4.462
 5376TIP3   OH216133   1.406   2.667   0.316
 5376TIP3    H116134   1.326   2.716   0.295
 5376TIP3    H216135   1.445   2.714   0.390
 5377TIP3   OH216136   0.221   3.577   0.745
 5377TIP3    H116137   0.189   3.651   0.796
 5377TIP3    H216138   0.143   3.526   0.724
 5378TIP3   OH216139   1.700   2.262   1.209
 5378TIP3    H116140   1.675   2.195   1.273
 5378TIP3    H216141   1.617   2.290   1.169
 5379TIP3   OH216142   3.499   3.088   2.460
 5379TIP3    H116143   3.572   3.042   2.419
 5379TIP3    H216144   3.538   3.169   2.494
 5380TIP3   OH216145   2.717   3.362   4.123
 5380TIP3    H116146   2.749   3.286   4.172
 5380TIP3    H216147   2.794   3.416   4.107
 5381TIP3   OH216148   5.111   3.896   0.817
 5381TIP3    H116149   5.198   3.892   0.855
 5381TIP3    H216150   5.120   3.856   0.731
 5382TIP3   OH216151   2.030   0.928   1.654
 5382TIP3    H116152   2.092   0.973   1.596
 5382TIP3    H216153   1.944   0.959   1.625
 5383TIP3   OH216154   1.225   0.022   4.891
 5383TIP3    H116155   1.316   0.019   4.918
 5383TIP3    H216156   1.181  -0.043   4.945
 5384TIP3   OH216157   4.739   3.762   1.691
 5384TIP3    H116158   4.794   3.787   1.616
 5384TIP3    H216159   4.731   3.667   1.685
 5385TIP3   OH216160   3.438   5.098   3.410
 5385TIP3    H116161   3.449   5.010   3.374
 5385TIP3    H216162   3.391   5.085   3.492
 5386TIP3   OH216163   0.233   4.385   1.278
 5386TIP3    H116164   0.238   4.458   1.340
 5386TIP3    H216165   0.162   4.409   1.219
 5387TIP3   OH216166   1.576   5.525   3.900
 5387TIP3    H116167   1.508   5.490   3.958
 5387TIP3    H216168   1.603   5.607   3.942
 5388TIP3   OH216169   1.693   0.657   2.886
 5388TIP3    H116170   1.648   0.729   2.841
 5388TIP3    H216171   1.786   0.676   2.876
 5389TIP3   OH216172   3.012   3.230   0.839
 5389TIP3    H116173   2.984   3.236   0.747
 5389TIP3    H216174   3.031   3.320   0.864
 5390TIP3   OH216175   6.064   1.156   1.272
 5390TIP3    H116176   6.151   1.193   1.282
 5390TIP3    H216177   6.069   1.070   1.314
 5391TIP3   OH216178   5.986   0.221   2.181
 5391TIP3    H116179   5.986   0.143   2.126
 5391TIP3    H216180   5.941   0.287   2.129
 5392TIP3   OH216181   3.969   3.149   1.953
 5392TIP3    H116182   3.982   3.114   2.041
 5392TIP3    H216183   4.023   3.227   1.950
 5393TIP3   OH216184   1.297   3.786   2.599
 5393TIP3    H116185   1.249   3.866   2.621
 5393TIP3    H216186   1.237   3.715   2.622
 5394TIP3   OH216187   1.709   2.181   3.620
 5394TIP3    H116188   1.628   2.154   3.663
 5394TIP3    H216189   1.764   2.102   3.622
 5395TIP3   OH216190   2.257   5.459   2.165
 5395TIP3    H116191   2.328   5.516   2.197
 5395TIP3    H216192   2.227   5.413   2.244
 5396TIP3   OH216193   4.240   5.327   0.237
 5396TIP3    H116194   4.302   5.358   0.171
 5396TIP3    H216195   4.252   5.387   0.311
 5397TIP3   OH216196   3.244   2.508   1.418
 5397TIP3    H116197   3.281   2.516   1.506
 5397TIP3    H216198   3.181   2.580   1.412
 5398TIP3   OH216199   3.788   0.068   3.409
 5398TIP3    H116200   3.866   0.013   3.412
 5398TIP3    H216201   3.790   0.108   3.322
 5399TIP3   OH216202   3.014   1.303   3.421
 5399TIP3    H116203   3.044   1.394   3.431
 5399TIP3    H216204   2.919   1.309   3.425
 5400TIP3   OH216205   3.515   3.738   2.843
 5400TIP3    H116206   3.444   3.726   2.780
 5400TIP3    H216207   3.595   3.739   2.790
 5401TIP3   OH216208   2.231   4.525   4.785
 5401TIP3    H116209   2.263   4.603   4.740
 5401TIP3    H216210   2.305   4.465   4.786
 5402TIP3   OH216211   6.286   5.297   2.775
 5402TIP3    H116212   6.245   5.325   2.857
 5402TIP3    H216213   6.219   5.246   2.730
 5403TIP3   OH216214   4.689   5.609   3.385
 5403TIP3    H116215   4.673   5.576   3.297
 5403TIP3    H216216   4.768   5.564   3.415
 5404TIP3   OH216217   4.589   4.733   0.223
 5404TIP3    H116218   4.555   4.697   0.305
 5404TIP3    H216219   4.616   4.657   0.172
 5405TIP3   OH216220   6.023   2.906   0.130
 5405TIP3    H116221   6.008   2.831   0.072
 5405TIP3    H216222   6.086   2.875   0.194
 5406TIP3   OH216223   4.293   5.145   1.318
 5406TIP3    H116224   4.294   5.235   1.284
 5406TIP3    H216225   4.211   5.139   1.367
 5407TIP3   OH216226   5.292   3.673   3.372
 5407TIP3    H116227   5.278   3.653   3.465
 5407TIP3    H216228   5.313   3.766   3.370
 5408TIP3   OH216229   4.469   3.848   3.214
 5408TIP3    H116230   4.440   3.778   3.274
 5408TIP3    H216231   4.427   3.927   3.249
 5409TIP3   OH216232   3.518   1.535   1.227
 5409TIP3    H116233   3.446   1.522   1.166
 5409TIP3    H216234   3.485   1.597   1.291
 5410TIP3   OH216235   1.636   2.904   3.313
 5410TIP3    H116236   1.705   2.917   3.247
 5410TIP3    H216237   1.682   2.909   3.396
 5411TIP3   OH216238   3.783   1.705   0.233
 5411TIP3    H116239   3.717   1.774   0.231
 5411TIP3    H216240   3.739   1.631   0.274
 5412TIP3   OH216241   5.044   0.443   3.618
 5412TIP3    H116242   4.980   0.512   3.630
 5412TIP3    H216243   5.072   0.419   3.706
 5413TIP3   OH216244   0.302   3.068   4.303
 5413TIP3    H116245   0.251   3.021   4.369
 5413TIP3    H216246   0.387   3.082   4.345
 5414TIP3   OH216247   0.977   4.509   0.496
 5414TIP3    H116248   1.051   4.563   0.526
 5414TIP3    H216249   0.947   4.464   0.574
 5415TIP3   OH216250   3.280   1.099   0.033
 5415TIP3    H116251   3.263   1.009   0.005
 5415TIP3    H216252   3.238   1.154  -0.034
 5416TIP3   OH216253   4.383   5.308   4.810
 5416TIP3    H116254   4.298   5.336   4.777
 5416TIP3    H216255   4.370   5.217   4.836
 5417TIP3   OH216256   3.812   4.233   0.284
 5417TIP3    H116257   3.742   4.170   0.267
 5417TIP3    H216258   3.784   4.313   0.240
 5418TIP3   OH216259   4.768   4.804   1.147
 5418TIP3    H116260   4.755   4.857   1.069
 5418TIP3    H216261   4.696   4.827   1.205
 5419TIP3   OH216262   4.831   1.038   3.884
 5419TIP3    H116263   4.789   1.096   3.947
 5419TIP3    H216264   4.917   1.076   3.869
 5420TIP3   OH216265   4.593   4.323   1.694
 5420TIP3    H116266   4.671   4.374   1.674
 5420TIP3    H216267   4.574   4.343   1.785
 5421TIP3   OH216268   2.013   4.810   4.216
 5421TIP3    H116269   1.995   4.836   4.125
 5421TIP3    H216270   2.086   4.749   4.209
 5422TIP3   OH216271   4.926   5.884   2.727
 5422TIP3    H116272   4.906   5.967   2.685
 5422TIP3    H216273   5.018   5.891   2.754
 5423TIP3   OH216274   1.396   4.986   2.580
 5423TIP3    H116275   1.490   4.989   2.559
 5423TIP3    H216276   1.354   4.965   2.497
 5424TIP3   OH216277   3.086   3.491   0.873
 5424TIP3    H116278   3.095   3.520   0.783
 5424TIP3    H216279   3.160   3.531   0.919
 5425TIP3   OH216280   0.836   4.203   4.997
 5425TIP3    H116281   0.784   4.270   4.952
 5425TIP3    H216282   0.902   4.253   5.045
 5426TIP3   OH216283   1.669   0.321   0.661
 5426TIP3    H116284   1.580   0.301   0.692
 5426TIP3    H216285   1.668   0.415   0.644
 5427TIP3   OH216286   1.918   1.480   4.576
 5427TIP3    H116287   1.899   1.554   4.518
 5427TIP3    H216288   1.992   1.511   4.629
 5428TIP3   OH216289   2.516   5.658   2.669
 5428TIP3    H116290   2.456   5.639   2.742
 5428TIP3    H216291   2.469   5.627   2.591
 5429TIP3   OH216292   6.279   2.612   3.977
 5429TIP3    H116293   6.338   2.537   3.984
 5429TIP3    H216294   6.211   2.595   4.043
 5430TIP3   OH216295   3.766   0.656   1.984
 5430TIP3    H116296   3.841   0.602   2.007
 5430TIP3    H216297   3.799   0.746   1.983
 5431TIP3   OH216298   4.075   5.858   0.924
 5431TIP3    H116299   4.151   5.903   0.889
 5431TIP3    H216300   4.102   5.831   1.012
 5432TIP3   OH216301   4.095   0.599   0.436
 5432TIP3    H116302   4.126   0.508   0.431
 5432TIP3    H216303   4.022   0.603   0.374
 5433TIP3   OH216304   3.775   3.548   2.804
 5433TIP3    H116305   3.768   3.622   2.744
 5433TIP3    H216306   3.692   3.502   2.795
 5434TIP3   OH216307   0.530   3.297   1.586
 5434TIP3    H116308   0.456   3.237   1.584
 5434TIP3    H216309   0.569   3.291   1.499
 5435TIP3   OH216310   0.060   3.193   3.490
 5435TIP3    H116311  -0.019   3.208   3.541
 5435TIP3    H216312   0.117   3.142   3.547
 5436TIP3   OH216313   3.426   0.954   1.314
 5436TIP3    H116314   3.362   0.897   1.357
 5436TIP3    H216315   3.393   1.043   1.329
 5437TIP3   OH216316   2.013   5.194   2.555
 5437TIP3    H116317   1.958   5.210   2.479
 5437TIP3    H216318   1.951   5.184   2.628
 5438TIP3   OH216319   1.013   4.936   3.683
 5438TIP3    H116320   1.034   4.844   3.666
 5438TIP3    H216321   0.921   4.935   3.708
 5439TIP3   OH216322   1.576   1.605   0.153
 5439TIP3    H116323   1.615   1.519   0.141
 5439TIP3    H216324   1.509   1.592   0.220
 5440TIP3   OH216325   3.215   2.130   0.050
 5440TIP3    H116326   3.214   2.111  -0.044
 5440TIP3    H216327   3.126   2.162   0.068
 5441TIP3   OH216328   3.887   2.971   1.532
 5441TIP3    H116329   3.847   3.020   1.605
 5441TIP3    H216330   3.980   2.991   1.539
 5442TIP3   OH216331   5.199   0.064   2.724
 5442TIP3    H116332   5.140   0.108   2.663
 5442TIP3    H216333   5.245  -0.002   2.671
 5443TIP3   OH216334   2.773   3.941   3.261
 5443TIP3    H116335   2.791   4.029   3.294
 5443TIP3    H216336   2.816   3.883   3.324
 5444TIP3   OH216337   4.176   3.631   4.752
 5444TIP3    H116338   4.158   3.538   4.764
 5444TIP3    H216339   4.202   3.662   4.838
 5445TIP3   OH216340   3.772   3.447   4.201
 5445TIP3    H116341   3.819   3.526   4.226
 5445TIP3    H216342   3.838   3.390   4.162
 5446TIP3   OH216343   0.593   5.482   4.856
 5446TIP3    H116344   0.628   5.397   4.830
 5446TIP3    H216345   0.626   5.542   4.789
 5447TIP3   OH216346   2.898   0.812   4.306
 5447TIP3    H116347   2.870   0.756   4.379
 5447TIP3    H216348   2.929   0.892   4.349
 5448TIP3   OH216349   1.786   1.728   2.786
 5448TIP3    H116350   1.827   1.814   2.783
 5448TIP3    H216351   1.860   1.667   2.791
 5449TIP3   OH216352   5.805   2.725   5.139
 5449TIP3    H116353   5.866   2.790   5.104
 5449TIP3    H216354   5.729   2.731   5.081
 5450TIP3   OH216355   5.904   3.599   3.006
 5450TIP3    H116356   5.947   3.684   3.014
 5450TIP3    H216357   5.830   3.616   2.947
 5451TIP3   OH216358   6.009   4.738   2.665
 5451TIP3    H116359   6.013   4.788   2.583
 5451TIP3    H216360   6.049   4.654   2.644
 5452TIP3   OH216361   2.172   3.488   0.940
 5452TIP3    H116362   2.264   3.502   0.920
 5452TIP3    H216363   2.160   3.529   1.026
 5453TIP3   OH216364   4.927   2.328   1.286
 5453TIP3    H116365   4.849   2.348   1.233
 5453TIP3    H216366   4.980   2.272   1.229
 5454TIP3   OH216367   4.653   2.674   2.096
 5454TIP3    H116368   4.641   2.734   2.169
 5454TIP3    H216369   4.644   2.729   2.018
 5455TIP3   OH216370   2.359   5.676   2.904
 5455TIP3    H116371   2.388   5.591   2.937
 5455TIP3    H216372   2.325   5.722   2.981
 5456TIP3   OH216373   0.791   2.038   3.137
 5456TIP3    H116374   0.767   1.956   3.179
 5456TIP3    H216375   0.886   2.035   3.130
 5457TIP3   OH216376   1.833   5.726   2.974
 5457TIP3    H116377   1.757   5.693   2.925
 5457TIP3    H216378   1.867   5.649   3.020
 5458TIP3   OH216379   1.796   5.271   1.205
 5458TIP3    H116380   1.818   5.178   1.200
 5458TIP3    H216381   1.824   5.306   1.121
 5459TIP3   OH216382   2.746   3.477   3.004
 5459TIP3    H116383   2.665   3.444   3.042
 5459TIP3    H216384   2.816   3.434   3.054
 5460TIP3   OH216385   2.725   3.068   0.290
 5460TIP3    H116386   2.803   3.015   0.277
 5460TIP3    H216387   2.694   3.045   0.378
 5461TIP3   OH216388   4.085   0.041   3.329
 5461TIP3    H116389   4.145  -0.024   3.365
 5461TIP3    H216390   4.082   0.023   3.235
 5462TIP3   OH216391   3.831   3.693   1.036
 5462TIP3    H116392   3.761   3.630   1.024
 5462TIP3    H216393   3.905   3.641   1.070
 5463TIP3   OH216394   5.616   1.006   2.997
 5463TIP3    H116395   5.525   0.979   2.983
 5463TIP3    H216396   5.613   1.102   3.000
 5464TIP3   OH216397   1.912   0.300   0.573
 5464TIP3    H116398   1.826   0.303   0.613
 5464TIP3    H216399   1.970   0.343   0.636
 5465TIP3   OH216400   5.929   5.648   3.352
 5465TIP3    H116401   5.870   5.688   3.416
 5465TIP3    H216402   5.910   5.554   3.358
 5466TIP3   OH216403   2.644   3.050   3.916
 5466TIP3    H116404   2.605   3.002   3.989
 5466TIP3    H216405   2.591   3.129   3.908
 5467TIP3   OH216406   3.405   2.926   0.097
 5467TIP3    H116407   3.397   2.935   0.192
 5467TIP3    H216408   3.465   2.852   0.085
 5468TIP3   OH216409   4.817   0.767   1.726
 5468TIP3    H116410   4.734   0.770   1.680
 5468TIP3    H216411   4.856   0.853   1.710
 5469TIP3   OH216412   5.308   5.508   5.139
 5469TIP3    H116413   5.275   5.532   5.226
 5469TIP3    H216414   5.238   5.535   5.079
 5470TIP3   OH216415   5.827   0.531   0.183
 5470TIP3    H116416   5.832   0.438   0.159
 5470TIP3    H216417   5.832   0.532   0.278
 5471TIP3   OH216418   5.460   2.566   0.768
 5471TIP3    H116419   5.435   2.543   0.679
 5471TIP3    H216420   5.388   2.534   0.822
 5472TIP3   OH216421   3.669   5.906   2.637
 5472TIP3    H116422   3.675   5.899   2.542
 5472TIP3    H216423   3.672   5.815   2.667
 5473TIP3   OH216424   0.053   0.843   2.370
 5473TIP3    H116425   0.062   0.773   2.306
 5473TIP3    H216426   0.142   0.860   2.400
 5474TIP3   OH216427   6.074   0.617   2.878
 5474TIP3    H116428   6.164   0.626   2.910
 5474TIP3    H216429   6.027   0.689   2.920
 5475TIP3   OH216430   0.395   0.785   3.796
 5475TIP3    H116431   0.426   0.817   3.712
 5475TIP3    H216432   0.470   0.797   3.855
 5476TIP3   OH216433   4.378   0.232   5.126
 5476TIP3    H116434   4.343   0.176   5.056
 5476TIP3    H216435   4.450   0.279   5.085
 5477TIP3   OH216436   1.380   0.675   5.069
 5477TIP3    H116437   1.347   0.591   5.037
 5477TIP3    H216438   1.302   0.723   5.097
 5478TIP3   OH216439   3.210   0.180   0.409
 5478TIP3    H116440   3.146   0.222   0.353
 5478TIP3    H216441   3.176   0.190   0.498
 5479TIP3   OH216442   5.341   0.607   2.430
 5479TIP3    H116443   5.343   0.655   2.513
 5479TIP3    H216444   5.249   0.581   2.421
 5480TIP3   OH216445   6.103   4.825   0.646
 5480TIP3    H116446   6.048   4.846   0.722
 5480TIP3    H216447   6.122   4.909   0.606
 5481TIP3   OH216448   0.219   3.680   1.476
 5481TIP3    H116449   0.201   3.587   1.488
 5481TIP3    H216450   0.303   3.694   1.520
 5482TIP3   OH216451   4.842   1.338   4.728
 5482TIP3    H116452   4.866   1.354   4.637
 5482TIP3    H216453   4.907   1.386   4.779
 5483TIP3   OH216454   0.440   3.354   2.092
 5483TIP3    H116455   0.470   3.364   2.002
 5483TIP3    H216456   0.517   3.376   2.146
 5484TIP3   OH216457   2.894   4.519   2.229
 5484TIP3    H116458   2.958   4.462   2.187
 5484TIP3    H216459   2.810   4.476   2.212
 5485TIP3   OH216460   4.355   1.700   2.817
 5485TIP3    H116461   4.281   1.640   2.812
 5485TIP3    H216462   4.430   1.644   2.837
 5486TIP3   OH216463   6.073   4.203   4.326
 5486TIP3    H116464   6.155   4.253   4.335
 5486TIP3    H216465   6.097   4.128   4.271
 5487TIP3   OH216466   2.399   1.844   2.140
 5487TIP3    H116467   2.455   1.812   2.210
 5487TIP3    H216468   2.453   1.839   2.061
 5488TIP3   OH216469   4.608   4.649   5.032
 5488TIP3    H116470   4.654   4.696   5.102
 5488TIP3    H216471   4.666   4.574   5.013
 5489TIP3   OH216472   3.141   1.815   2.432
 5489TIP3    H116473   3.108   1.728   2.409
 5489TIP3    H216474   3.096   1.838   2.513
 5490TIP3   OH216475   2.648   3.835   4.980
 5490TIP3    H116476   2.624   3.771   4.914
 5490TIP3    H216477   2.578   3.830   5.045
 5491TIP3   OH216478   5.805   4.246   1.440
 5491TIP3    H116479   5.844   4.160   1.458
 5491TIP3    H216480   5.736   4.254   1.506
 5492TIP3   OH216481   4.915   0.376   4.562
 5492TIP3    H116482   4.993   0.386   4.507
 5492TIP3    H216483   4.891   0.284   4.551
 5493TIP3   OH216484   4.601   3.198   1.693
 5493TIP3    H116485   4.645   3.198   1.608
 5493TIP3    H216486   4.558   3.113   1.698
 5494TIP3   OH216487   5.374   4.221   3.317
 5494TIP3    H116488   5.364   4.132   3.353
 5494TIP3    H216489   5.337   4.278   3.384
 5495TIP3   OH216490   5.321   2.987   2.434
 5495TIP3    H116491   5.312   3.044   2.357
 5495TIP3    H216492   5.244   3.008   2.488
 5496TIP3   OH216493   6.025   4.095   0.277
 5496TIP3    H116494   6.068   4.138   0.351
 5496TIP3    H216495   6.027   4.002   0.299
 5497TIP3   OH216496   5.575   5.592   0.987
 5497TIP3    H116497   5.613   5.663   1.039
 5497TIP3    H216498   5.495   5.569   1.034
 5498TIP3   OH216499   5.836   2.171   2.917
 5498TIP3    H116500   5.751   2.142   2.950
 5498TIP3    H216501   5.881   2.090   2.892
 5499TIP3   OH216502   5.476   3.034   1.218
 5499TIP3    H116503   5.541   2.964   1.210
 5499TIP3    H216504   5.416   3.020   1.146
 5500TIP3   OH216505   4.656   5.030   5.026
 5500TIP3    H116506   4.674   5.118   5.059
 5500TIP3    H216507   4.638   4.978   5.105
 5501TIP3   OH216508   4.701   4.037   1.109
 5501TIP3    H116509   4.756   4.003   1.038
 5501TIP3    H216510   4.741   4.121   1.132
 5502TIP3   OH216511   5.656   1.666   0.135
 5502TIP3    H116512   5.683   1.703   0.051
 5502TIP3    H216513   5.565   1.695   0.146
 5503TIP3   OH216514   0.942   2.815   4.883
 5503TIP3    H116515   0.866   2.812   4.942
 5503TIP3    H216516   0.917   2.761   4.808
 5504TIP3   OH216517   0.478   4.980   0.375
 5504TIP3    H116518   0.401   4.996   0.321
 5504TIP3    H216519   0.552   4.984   0.315
 5505TIP3   OH216520   0.348   2.790   3.806
 5505TIP3    H116521   0.443   2.798   3.798
 5505TIP3    H216522   0.313   2.837   3.730
 5506TIP3   OH216523   6.260   2.857   4.477
 5506TIP3    H116524   6.212   2.803   4.540
 5506TIP3    H216525   6.212   2.847   4.395
 5507TIP3   OH216526   4.731   3.576   3.607
 5507TIP3    H116527   4.735   3.559   3.513
 5507TIP3    H216528   4.789   3.510   3.646
 5508TIP3   OH216529   1.816   4.072   4.724
 5508TIP3    H116530   1.814   4.163   4.694
 5508TIP3    H216531   1.762   4.025   4.661
 5509TIP3   OH216532   5.089   5.262   3.423
 5509TIP3    H116533   5.178   5.230   3.438
 5509TIP3    H216534   5.043   5.187   3.385
 5510TIP3   OH216535   0.373   1.472   5.024
 5510TIP3    H116536   0.304   1.526   5.063
 5510TIP3    H216537   0.377   1.394   5.079
 5511TIP3   OH216538   1.693   0.148   2.015
 5511TIP3    H116539   1.613   0.201   2.011
 5511TIP3    H216540   1.764   0.212   2.024
 5512TIP3   OH216541   5.424   2.351   1.346
 5512TIP3    H116542   5.459   2.310   1.267
 5512TIP3    H216543   5.356   2.291   1.376
 5513TIP3   OH216544   2.676   0.591   3.470
 5513TIP3    H116545   2.717   0.675   3.450
 5513TIP3    H216546   2.744   0.526   3.454
 5514TIP3   OH216547   4.250   1.310   3.676
 5514TIP3    H116548   4.170   1.327   3.626
 5514TIP3    H216549   4.247   1.373   3.748
 5515TIP3   OH216550   0.863   3.334   4.026
 5515TIP3    H116551   0.790   3.374   3.979
 5515TIP3    H216552   0.891   3.262   3.969
 5516TIP3   OH216553   0.872   4.479   4.539
 5516TIP3    H116554   0.911   4.555   4.497
 5516TIP3    H216555   0.778   4.490   4.525
 5517TIP3   OH216556   3.950   0.483   1.018
 5517TIP3    H116557   4.024   0.483   1.079
 5517TIP3    H216558   3.988   0.458   0.934
 5518TIP3   OH216559   4.329   4.056   4.723
 5518TIP3    H116560   4.367   4.007   4.650
 5518TIP3    H216561   4.292   3.988   4.780
 5519TIP3   OH216562   0.689   4.189   0.103
 5519TIP3    H116563   0.729   4.220   0.184
 5519TIP3    H216564   0.753   4.210   0.035
 5520TIP3   OH216565   6.196   4.708   3.314
 5520TIP3    H116566   6.209   4.685   3.406
 5520TIP3    H216567   6.285   4.715   3.278
 5521TIP3   OH216568   6.080   0.383   2.547
 5521TIP3    H116569   6.134   0.459   2.530
 5521TIP3    H216570   6.089   0.366   2.641
 5522TIP3   OH216571   0.976   4.923   1.082
 5522TIP3    H116572   0.919   4.963   1.017
 5522TIP3    H216573   0.933   4.939   1.165
 5523TIP3   OH216574   2.515   5.739   3.259
 5523TIP3    H116575   2.595   5.742   3.206
 5523TIP3    H216576   2.542   5.702   3.343
 5524TIP3   OH216577   5.475   0.974   3.388
 5524TIP3    H116578   5.508   1.044   3.332
 5524TIP3    H216579   5.543   0.907   3.386
 5525TIP3   OH216580   3.491  -0.042   1.705
 5525TIP3    H116581   3.579  -0.020   1.676
 5525TIP3    H216582   3.454  -0.093   1.633
 5526TIP3   OH216583   0.015   0.475   4.118
 5526TIP3    H116584   0.081   0.409   4.140
 5526TIP3    H216585  -0.048   0.428   4.063
 5527TIP3   OH216586   1.992   0.133   2.109
 5527TIP3    H116587   1.931   0.150   2.180
 5527TIP3    H216588   1.971   0.198   2.042
 5528TIP3   OH216589   3.101   0.163   3.487
 5528TIP3    H116590   3.165   0.132   3.552
 5528TIP3    H216591   3.136   0.247   3.457
 5529TIP3   OH216592   4.969   4.640   1.213
 5529TIP3    H116593   5.016   4.667   1.134
 5529TIP3    H216594   4.899   4.704   1.222
 5530TIP3   OH216595   1.893   5.205   2.307
 5530TIP3    H116596   1.939   5.165   2.234
 5530TIP3    H216597   1.861   5.289   2.273
 5531TIP3   OH216598   2.626   0.902   4.466
 5531TIP3    H116599   2.660   0.831   4.412
 5531TIP3    H216600   2.586   0.963   4.404
 5532TIP3   OH216601   4.809   1.230   4.108
 5532TIP3    H116602   4.786   1.199   4.196
 5532TIP3    H216603   4.893   1.275   4.119
 5533TIP3   OH216604   5.132   3.681   1.015
 5533TIP3    H116605   5.227   3.676   1.028
 5533TIP3    H216606   5.121   3.714   0.926
 5534TIP3   OH216607   2.191   4.274   2.431
 5534TIP3    H116608   2.282   4.302   2.440
 5534TIP3    H216609   2.159   4.322   2.354
 5535TIP3   OH216610   2.449   1.444   1.811
 5535TIP3    H116611   2.535   1.462   1.775
 5535TIP3    H216612   2.462   1.369   1.869
 5536TIP3   OH216613   3.954   1.911   1.990
 5536TIP3    H116614   4.049   1.911   1.979
 5536TIP3    H216615   3.938   1.863   2.071
 5537TIP3   OH216616   3.582   4.013   0.198
 5537TIP3    H116617   3.543   4.101   0.190
 5537TIP3    H216618   3.513   3.954   0.167
 5538TIP3   OH216619   1.069   1.727   3.540
 5538TIP3    H116620   1.056   1.698   3.449
 5538TIP3    H216621   1.070   1.822   3.535
 5539TIP3   OH216622   3.409   4.293   4.703
 5539TIP3    H116623   3.430   4.259   4.790
 5539TIP3    H216624   3.491   4.287   4.654
 5540TIP3   OH216625   2.505   5.081   2.411
 5540TIP3    H116626   2.531   4.989   2.421
 5540TIP3    H216627   2.503   5.115   2.500
 5541TIP3   OH216628   4.734   4.530   0.628
 5541TIP3    H116629   4.720   4.621   0.652
 5541TIP3    H216630   4.779   4.492   0.703
 5542TIP3   OH216631   1.530   4.769   3.053
 5542TIP3    H116632   1.535   4.744   2.961
 5542TIP3    H216633   1.440   4.752   3.078
 5543TIP3   OH216634   4.000   1.291   4.748
 5543TIP3    H116635   3.992   1.241   4.667
 5543TIP3    H216636   3.965   1.232   4.815
 5544TIP3   OH216637   0.890   3.638   3.196
 5544TIP3    H116638   0.911   3.637   3.102
 5544TIP3    H216639   0.971   3.608   3.238
 5545TIP3   OH216640   5.160   5.325   1.602
 5545TIP3    H116641   5.076   5.353   1.566
 5545TIP3    H216642   5.213   5.301   1.526
 5546TIP3   OH216643   4.665   5.419   0.925
 5546TIP3    H116644   4.574   5.429   0.953
 5546TIP3    H216645   4.684   5.499   0.875
 5547TIP3   OH216646   4.930   2.489   4.893
 5547TIP3    H116647   4.846   2.468   4.933
 5547TIP3    H216648   4.909   2.521   4.806
 5548TIP3   OH216649   4.326   4.299   1.661
 5548TIP3    H116650   4.421   4.305   1.655
 5548TIP3    H216651   4.303   4.358   1.734
 5549TIP3   OH216652   4.702   2.412   0.587
 5549TIP3    H116653   4.730   2.336   0.537
 5549TIP3    H216654   4.745   2.486   0.545
 5550TIP3   OH216655   1.451   3.270   2.921
 5550TIP3    H116656   1.472   3.307   3.006
 5550TIP3    H216657   1.513   3.198   2.910
 5551TIP3   OH216658   4.192   2.494   3.110
 5551TIP3    H116659   4.223   2.512   3.022
 5551TIP3    H216660   4.101   2.523   3.111
 5552TIP3   OH216661   6.043   2.821   3.988
 5552TIP3    H116662   6.095   2.762   3.932
 5552TIP3    H216663   6.083   2.907   3.974
 5553TIP3   OH216664   3.273   4.590   0.363
 5553TIP3    H116665   3.294   4.679   0.333
 5553TIP3    H216666   3.222   4.552   0.292
 5554TIP3   OH216667   3.632   0.677   4.962
 5554TIP3    H116668   3.696   0.664   4.892
 5554TIP3    H216669   3.643   0.769   4.988
 5555TIP3   OH216670   1.294   5.001   1.130
 5555TIP3    H116671   1.317   5.080   1.080
 5555TIP3    H216672   1.207   4.978   1.098
 5556TIP3   OH216673   0.870   1.391   5.002
 5556TIP3    H116674   0.898   1.434   4.920
 5556TIP3    H216675   0.947   1.395   5.058
 5557TIP3   OH216676   4.730   2.566   3.915
 5557TIP3    H116677   4.696   2.485   3.878
 5557TIP3    H216678   4.749   2.622   3.840
 5558TIP3   OH216679  -0.006   0.051   2.424
 5558TIP3    H116680  -0.055   0.124   2.386
 5558TIP3    H216681   0.064   0.033   2.360
 5559TIP3   OH216682   6.311   5.478   4.246
 5559TIP3    H116683   6.300   5.428   4.164
 5559TIP3    H216684   6.248   5.549   4.239
 5560TIP3   OH216685   5.242   3.452   1.163
 5560TIP3    H116686   5.273   3.542   1.150
 5560TIP3    H216687   5.322   3.399   1.156
 5561TIP3   OH216688   1.709   4.263   5.083
 5561TIP3    H116689   1.715   4.171   5.107
 5561TIP3    H216690   1.786   4.279   5.028
 5562TIP3   OH216691   2.393   3.856   2.146
 5562TIP3    H116692   2.455   3.895   2.084
 5562TIP3    H216693   2.433   3.869   2.232
 5563TIP3   OH216694   4.286   0.870   1.133
 5563TIP3    H116695   4.297   0.789   1.182
 5563TIP3    H216696   4.196   0.867   1.102
 5564TIP3   OH216697   5.158   4.191   4.425
 5564TIP3    H116698   5.152   4.210   4.332
 5564TIP3    H216699   5.230   4.245   4.456
 5565TIP3   OH216700   3.640   4.165   3.406
 5565TIP3    H116701   3.599   4.251   3.405
 5565TIP3    H216702   3.570   4.104   3.383
 5566TIP3   OH216703   3.289   5.182   2.330
 5566TIP3    H116704   3.219   5.122   2.308
 5566TIP3    H216705   3.245   5.266   2.345
 5567TIP3   OH216706   3.386   4.500   3.131
 5567TIP3    H116707   3.417   4.543   3.211
 5567TIP3    H216708   3.302   4.461   3.155
 5568TIP3   OH216709   0.639   0.309   4.971
 5568TIP3    H116710   0.589   0.254   5.030
 5568TIP3    H216711   0.650   0.256   4.892
 5569TIP3   OH216712   4.210   1.819   1.649
 5569TIP3    H116713   4.227   1.736   1.604
 5569TIP3    H216714   4.127   1.849   1.612
 5570TIP3   OH216715   2.486   5.021   1.633
 5570TIP3    H116716   2.395   5.025   1.663
 5570TIP3    H216717   2.535   4.994   1.710
 5571TIP3   OH216718   2.486   2.848   2.364
 5571TIP3    H116719   2.526   2.875   2.447
 5571TIP3    H216720   2.485   2.753   2.367
 5572TIP3   OH216721   5.178   3.737   4.681
 5572TIP3    H116722   5.115   3.754   4.611
 5572TIP3    H216723   5.128   3.752   4.762
 5573TIP3   OH216724   0.364   2.412   0.775
 5573TIP3    H116725   0.414   2.484   0.813
 5573TIP3    H216726   0.422   2.377   0.707
 5574TIP3   OH216727   2.881   3.611   2.804
 5574TIP3    H116728   2.859   3.576   2.718
 5574TIP3    H216729   2.820   3.568   2.864
 5575TIP3   OH216730   2.331   4.208   2.942
 5575TIP3    H116731   2.335   4.251   2.857
 5575TIP3    H216732   2.413   4.231   2.985
 5576TIP3   OH216733   6.191   1.310   4.805
 5576TIP3    H116734   6.142   1.340   4.881
 5576TIP3    H216735   6.208   1.218   4.822
 5577TIP3   OH216736   0.303   4.433   4.818
 5577TIP3    H116737   0.287   4.360   4.877
 5577TIP3    H216738   0.386   4.471   4.849
 5578TIP3   OH216739   0.857   4.830   2.214
 5578TIP3    H116740   0.946   4.805   2.191
 5578TIP3    H216741   0.856   4.830   2.309
 5579TIP3   OH216742   4.855   4.243   2.493
 5579TIP3    H116743   4.936   4.275   2.532
 5579TIP3    H216744   4.880   4.165   2.445
 5580TIP3   OH216745   2.617   0.827   1.961
 5580TIP3    H116746   2.669   0.789   2.031
 5580TIP3    H216747   2.677   0.830   1.886
 5581TIP3   OH216748   0.387   1.601   1.943
 5581TIP3    H116749   0.428   1.642   1.867
 5581TIP3    H216750   0.415   1.509   1.939
 5582TIP3   OH216751   3.274   1.814   2.805
 5582TIP3    H116752   3.242   1.820   2.895
 5582TIP3    H216753   3.352   1.759   2.811
 5583TIP3   OH216754   5.546   4.003   0.758
 5583TIP3    H116755   5.488   3.948   0.810
 5583TIP3    H216756   5.601   4.047   0.823
 5584TIP3   OH216757   3.585   2.615   1.485
 5584TIP3    H116758   3.639   2.659   1.551
 5584TIP3    H216759   3.593   2.522   1.506
 5585TIP3   OH216760   1.472   3.152   4.863
 5585TIP3    H116761   1.543   3.209   4.894
 5585TIP3    H216762   1.396   3.179   4.914
 5586TIP3   OH216763   2.925   5.642   4.633
 5586TIP3    H116764   3.020   5.634   4.642
 5586TIP3    H216765   2.900   5.568   4.578
 5587TIP3   OH216766   1.048   2.955   1.373
 5587TIP3    H116767   1.003   2.904   1.305
 5587TIP3    H216768   1.005   2.931   1.454
 5588TIP3   OH216769   0.319   3.636   3.937
 5588TIP3    H116770   0.317   3.709   3.999
 5588TIP3    H216771   0.386   3.661   3.872
 5589TIP3   OH216772   0.929   4.737   2.474
 5589TIP3    H116773   0.838   4.708   2.473
 5589TIP3    H216774   0.980   4.656   2.485
 5590TIP3   OH216775   3.521   3.418   2.654
 5590TIP3    H116776   3.427   3.405   2.652
 5590TIP3    H216777   3.541   3.462   2.571
 5591TIP3   OH216778   1.334   4.298   4.272
 5591TIP3    H116779   1.245   4.307   4.306
 5591TIP3    H216780   1.386   4.271   4.348
 5592TIP3   OH216781   4.103   0.826   1.991
 5592TIP3    H116782   4.021   0.874   2.001
 5592TIP3    H216783   4.148   0.870   1.919
 5593TIP3   OH216784   6.010   0.869   3.157
 5593TIP3    H116785   5.965   0.928   3.218
 5593TIP3    H216786   5.939   0.827   3.109
 5594TIP3   OH216787   0.762   3.800   4.409
 5594TIP3    H116788   0.779   3.711   4.441
 5594TIP3    H216789   0.771   3.793   4.314
 5595TIP3   OH216790   5.904   0.893   5.100
 5595TIP3    H116791   5.881   0.935   5.183
 5595TIP3    H216792   5.875   0.802   5.110
 5596TIP3   OH216793   4.619   2.218   1.645
 5596TIP3    H116794   4.677   2.205   1.720
 5596TIP3    H216795   4.662   2.173   1.573
 5597TIP3   OH216796   0.067   0.195   3.479
 5597TIP3    H116797   0.031   0.260   3.420
 5597TIP3    H216798   0.141   0.156   3.431
 5598TIP3   OH216799   4.765   3.568   4.090
 5598TIP3    H116800   4.730   3.627   4.024
 5598TIP3    H216801   4.690   3.549   4.147
 5599TIP3   OH216802   4.215   1.396   2.782
 5599TIP3    H116803   4.298   1.349   2.770
 5599TIP3    H216804   4.157   1.360   2.715
 5600TIP3   OH216805   1.797   4.574   0.649
 5600TIP3    H116806   1.737   4.648   0.646
 5600TIP3    H216807   1.742   4.498   0.667
 5601TIP3   OH216808   4.839   2.795   0.208
 5601TIP3    H116809   4.771   2.766   0.148
 5601TIP3    H216810   4.913   2.817   0.152
 5602TIP3   OH216811   3.501   5.090   0.906
 5602TIP3    H116812   3.515   5.032   0.831
 5602TIP3    H216813   3.582   5.142   0.912
 5603TIP3   OH216814   2.010   4.878   3.611
 5603TIP3    H116815   1.992   4.788   3.583
 5603TIP3    H216816   2.104   4.889   3.598
 5604TIP3   OH216817   2.103   0.048   2.960
 5604TIP3    H116818   2.052   0.014   2.887
 5604TIP3    H216819   2.194   0.031   2.936
 5605TIP3   OH216820   1.640   1.856   0.927
 5605TIP3    H116821   1.730   1.862   0.959
 5605TIP3    H216822   1.586   1.847   1.006
 5606TIP3   OH216823   2.140   1.997   1.876
 5606TIP3    H116824   2.118   2.089   1.858
 5606TIP3    H216825   2.158   1.995   1.970
 5607TIP3   OH216826   1.318   5.632   0.163
 5607TIP3    H116827   1.304   5.604   0.254
 5607TIP3    H216828   1.358   5.556   0.121
 5608TIP3   OH216829   1.498   4.512   4.527
 5608TIP3    H116830   1.458   4.425   4.522
 5608TIP3    H216831   1.583   4.500   4.483
 5609TIP3   OH216832   3.297   2.249   4.826
 5609TIP3    H116833   3.322   2.308   4.755
 5609TIP3    H216834   3.214   2.284   4.858
 5610TIP3   OH216835   2.829   4.923   0.681
 5610TIP3    H116836   2.915   4.955   0.709
 5610TIP3    H216837   2.832   4.829   0.700
 5611TIP3   OH216838   2.994   2.206   4.471
 5611TIP3    H116839   2.972   2.242   4.557
 5611TIP3    H216840   3.090   2.209   4.468
 5612TIP3   OH216841   1.600   3.706   4.201
 5612TIP3    H116842   1.596   3.791   4.157
 5612TIP3    H216843   1.694   3.688   4.208
 5613TIP3   OH216844   4.873   2.858   0.618
 5613TIP3    H116845   4.883   2.771   0.656
 5613TIP3    H216846   4.943   2.864   0.553
 5614TIP3   OH216847   1.533   1.677   3.852
 5614TIP3    H116848   1.476   1.705   3.781
 5614TIP3    H216849   1.483   1.609   3.898
 5615TIP3   OH216850   0.921   2.355   3.290
 5615TIP3    H116851   0.968   2.303   3.355
 5615TIP3    H216852   0.954   2.323   3.205
 5616TIP3   OH216853   0.268   2.039   3.476
 5616TIP3    H116854   0.224   1.963   3.515
 5616TIP3    H216855   0.353   2.043   3.520
 5617TIP3   OH216856   4.652   2.002   0.446
 5617TIP3    H116857   4.599   1.991   0.366
 5617TIP3    H216858   4.696   1.917   0.457
 5618TIP3   OH216859   6.068   1.057   0.242
 5618TIP3    H116860   6.103   0.998   0.308
 5618TIP3    H216861   6.102   1.143   0.265
 5619TIP3   OH216862   4.650   2.336   2.342
 5619TIP3    H116863   4.662   2.358   2.250
 5619TIP3    H216864   4.738   2.331   2.378
 5620TIP3   OH216865   5.512   4.416   3.552
 5620TIP3    H116866   5.520   4.493   3.608
 5620TIP3    H216867   5.542   4.446   3.466
 5621TIP3   OH216868   5.934   2.588   4.568
 5621TIP3    H116869   6.016   2.598   4.615
 5621TIP3    H216870   5.954   2.524   4.499
 5622TIP3   OH216871   3.604   2.455   4.783
 5622TIP3    H116872   3.693   2.493   4.788
 5622TIP3    H216873   3.612   2.385   4.718
 5623TIP3   OH216874   2.651   3.252   2.758
 5623TIP3    H116875   2.664   3.172   2.808
 5623TIP3    H216876   2.740   3.282   2.738
 5624TIP3   OH216877   1.538   3.747   4.725
 5624TIP3    H116878   1.536   3.658   4.691
 5624TIP3    H216879   1.607   3.791   4.675
 5625TIP3   OH216880   1.470   1.985   0.055
 5625TIP3    H116881   1.401   1.952   0.112
 5625TIP3    H216882   1.529   2.034   0.114
 5626TIP3   OH216883   4.392   5.011   0.935
 5626TIP3    H116884   4.383   4.975   1.023
 5626TIP3    H216885   4.322   5.075   0.928
 5627TIP3   OH216886   2.208   2.951   0.394
 5627TIP3    H116887   2.172   2.867   0.367
 5627TIP3    H216888   2.141   3.015   0.370
 5628TIP3   OH216889   1.034   3.646   0.243
 5628TIP3    H116890   0.978   3.571   0.225
 5628TIP3    H216891   1.068   3.672   0.158
 5629TIP3   OH216892   3.526   3.202   1.495
 5629TIP3    H116893   3.564   3.250   1.568
 5629TIP3    H216894   3.516   3.113   1.527
 5630TIP3   OH216895   5.677   0.627   4.699
 5630TIP3    H116896   5.610   0.647   4.764
 5630TIP3    H216897   5.685   0.707   4.647
 5631TIP3   OH216898   0.365   0.154   0.260
 5631TIP3    H116899   0.329   0.120   0.342
 5631TIP3    H216900   0.290   0.194   0.216
 5632TIP3   OH216901   5.606   3.284   0.547
 5632TIP3    H116902   5.663   3.361   0.558
 5632TIP3    H216903   5.586   3.256   0.636
 5633TIP3   OH216904   0.541   2.887   4.387
 5633TIP3    H116905   0.550   2.981   4.403
 5633TIP3    H216906   0.546   2.878   4.292
 5634TIP3   OH216907   2.963   5.624   0.150
 5634TIP3    H116908   3.055   5.640   0.173
 5634TIP3    H216909   2.967   5.573   0.069
 5635TIP3   OH216910   4.845   1.917   2.405
 5635TIP3    H116911   4.860   1.846   2.467
 5635TIP3    H216912   4.930   1.961   2.399
 5636TIP3   OH216913   3.478   2.040   3.114
 5636TIP3    H116914   3.488   1.946   3.130
 5636TIP3    H216915   3.383   2.055   3.114
 5637TIP3   OH216916   0.609   1.051   3.633
 5637TIP3    H116917   0.539   1.083   3.577
 5637TIP3    H216918   0.660   0.992   3.576
 5638TIP3   OH216919   5.867   0.225   3.317
 5638TIP3    H116920   5.961   0.242   3.317
 5638TIP3    H216921   5.829   0.304   3.355
 5639TIP3   OH216922   5.498   3.808   0.387
 5639TIP3    H116923   5.584   3.840   0.412
 5639TIP3    H216924   5.438   3.878   0.414
 5640TIP3   OH216925   0.515   1.948   3.613
 5640TIP3    H116926   0.608   1.954   3.637
 5640TIP3    H216927   0.472   1.916   3.693
 5641TIP3   OH216928   6.362   3.794   0.801
 5641TIP3    H116929   6.293   3.824   0.861
 5641TIP3    H216930   6.332   3.707   0.773
 5642TIP3   OH216931   2.854   4.847   5.023
 5642TIP3    H116932   2.917   4.911   5.056
 5642TIP3    H216933   2.798   4.827   5.097
 5643TIP3   OH216934   1.955   0.055   0.428
 5643TIP3    H116935   1.947   0.140   0.471
 5643TIP3    H216936   1.868   0.039   0.390
 5644TIP3   OH216937   3.708   5.436   3.570
 5644TIP3    H116938   3.692   5.493   3.495
 5644TIP3    H216939   3.729   5.351   3.531
 5645TIP3   OH216940   2.321   4.832   4.369
 5645TIP3    H116941   2.334   4.918   4.331
 5645TIP3    H216942   2.316   4.773   4.294
 5646TIP3   OH216943   4.060   5.900   2.925
 5646TIP3    H116944   4.140   5.853   2.902
 5646TIP3    H216945   4.021   5.923   2.841
 5647TIP3   OH216946   3.647   1.001   0.288
 5647TIP3    H116947   3.612   1.088   0.310
 5647TIP3    H216948   3.683   0.968   0.371
 5648TIP3   OH216949   5.166   3.001   3.535
 5648TIP3    H116950   5.210   3.062   3.476
 5648TIP3    H216951   5.117   2.942   3.478
 5649TIP3   OH216952   1.385   0.792   2.566
 5649TIP3    H116953   1.399   0.870   2.513
 5649TIP3    H216954   1.380   0.721   2.503
 5650TIP3   OH216955   1.405   3.591   0.138
 5650TIP3    H116956   1.404   3.504   0.097
 5650TIP3    H216957   1.412   3.652   0.064
 5651TIP3   OH216958   2.798   4.215   0.362
 5651TIP3    H116959   2.783   4.279   0.292
 5651TIP3    H216960   2.721   4.221   0.417
 5652TIP3   OH216961   2.139   2.340   2.334
 5652TIP3    H116962   2.103   2.335   2.246
 5652TIP3    H216963   2.194   2.262   2.343
 5653TIP3   OH216964   5.723   3.254   0.235
 5653TIP3    H116965   5.811   3.284   0.212
 5653TIP3    H216966   5.707   3.291   0.322
 5654TIP3   OH216967   1.199   3.296   2.237
 5654TIP3    H116968   1.166   3.285   2.148
 5654TIP3    H216969   1.280   3.246   2.240
 5655TIP3   OH216970   0.405   5.615   4.082
 5655TIP3    H116971   0.329   5.618   4.140
 5655TIP3    H216972   0.434   5.524   4.085
 5656TIP3   OH216973   3.508   2.296   4.103
 5656TIP3    H116974   3.573   2.365   4.089
 5656TIP3    H216975   3.425   2.335   4.076
 5657TIP3   OH216976   1.850   1.859   1.393
 5657TIP3    H116977   1.802   1.865   1.476
 5657TIP3    H216978   1.896   1.775   1.398
 5658TIP3   OH216979   2.254   2.109   3.789
 5658TIP3    H116980   2.278   2.130   3.880
 5658TIP3    H216981   2.223   2.192   3.753
 5659TIP3   OH216982   5.154   2.360   4.966
 5659TIP3    H116983   5.083   2.423   4.955
 5659TIP3    H216984   5.219   2.405   5.020
 5660TIP3   OH216985   2.316   5.934   1.203
 5660TIP3    H116986   2.279   6.003   1.258
 5660TIP3    H216987   2.404   5.919   1.237
 5661TIP3   OH216988   3.259   0.285   1.153
 5661TIP3    H116989   3.198   0.213   1.142
 5661TIP3    H216990   3.208   0.364   1.135
 5662TIP3   OH216991   0.626   1.965   5.034
 5662TIP3    H116992   0.620   1.911   4.955
 5662TIP3    H216993   0.656   2.050   5.003
 5663TIP3   OH216994   5.209   1.336   0.674
 5663TIP3    H116995   5.300   1.347   0.700
 5663TIP3    H216996   5.180   1.257   0.719
 5664TIP3   OH216997   5.353   3.727   3.082
 5664TIP3    H116998   5.277   3.781   3.100
 5664TIP3    H216999   5.403   3.727   3.164
 5665TIP3   OH217000   2.712   5.227   0.713
 5665TIP3    H117001   2.655   5.153   0.692
 5665TIP3    H217002   2.786   5.218   0.654
 5666TIP3   OH217003   1.043   2.663   3.689
 5666TIP3    H117004   1.134   2.669   3.719
 5666TIP3    H217005   1.006   2.750   3.709
 5667TIP3   OH217006   4.188   0.630   2.935
 5667TIP3    H117007   4.250   0.560   2.914
 5667TIP3    H217008   4.180   0.681   2.855
 5668TIP3   OH217009   4.702   1.672   2.368
 5668TIP3    H117010   4.765   1.648   2.436
 5668TIP3    H217011   4.735   1.756   2.333
 5669TIP3   OH217012   3.176   2.118   1.060
 5669TIP3    H117013   3.141   2.052   1.120
 5669TIP3    H217014   3.248   2.074   1.015
 5670TIP3   OH217015   4.586   0.370   2.575
 5670TIP3    H117016   4.602   0.464   2.566
 5670TIP3    H217017   4.493   0.363   2.596
 5671TIP3   OH217018   3.955   4.536   3.828
 5671TIP3    H117019   3.934   4.456   3.781
 5671TIP3    H217020   3.917   4.524   3.915
 5672TIP3   OH217021   4.162   4.102   1.251
 5672TIP3    H117022   4.108   4.065   1.321
 5672TIP3    H217023   4.123   4.068   1.170
 5673TIP3   OH217024   0.851   1.634   2.468
 5673TIP3    H117025   0.797   1.596   2.537
 5673TIP3    H217026   0.790   1.651   2.396
 5674TIP3   OH217027   0.840   2.755   0.811
 5674TIP3    H117028   0.861   2.739   0.903
 5674TIP3    H217029   0.925   2.757   0.767
 5675TIP3   OH217030   1.015   0.976   4.067
 5675TIP3    H117031   0.982   0.896   4.108
 5675TIP3    H217032   1.110   0.964   4.065
 5676TIP3   OH217033   3.014   5.625   2.881
 5676TIP3    H117034   3.103   5.633   2.915
 5676TIP3    H217035   3.025   5.621   2.786
 5677TIP3   OH217036   5.973   2.809   3.604
 5677TIP3    H117037   6.040   2.775   3.662
 5677TIP3    H217038   6.015   2.814   3.518
 5678TIP3   OH217039   6.189   5.412   3.954
 5678TIP3    H117040   6.211   5.481   3.891
 5678TIP3    H217041   6.256   5.345   3.942
 5679TIP3   OH217042   4.775   5.748   0.506
 5679TIP3    H117043   4.780   5.843   0.517
 5679TIP3    H217044   4.856   5.725   0.459
 5680TIP3   OH217045   5.053   2.937   1.062
 5680TIP3    H117046   5.121   2.879   1.097
 5680TIP3    H217047   4.983   2.933   1.127
 5681TIP3   OH217048   1.469   4.748   3.821
 5681TIP3    H117049   1.546   4.800   3.797
 5681TIP3    H217050   1.395   4.808   3.810
 5682TIP3   OH217051   1.946   2.450   2.504
 5682TIP3    H117052   1.882   2.465   2.435
 5682TIP3    H217053   2.024   2.419   2.459
 5683TIP3   OH217054   1.155   4.191   3.713
 5683TIP3    H117055   1.144   4.109   3.762
 5683TIP3    H217056   1.182   4.162   3.626
 5684TIP3   OH217057   1.234   1.705   4.155
 5684TIP3    H117058   1.264   1.629   4.106
 5684TIP3    H217059   1.268   1.781   4.107
 5685TIP3   OH217060   3.912   0.797   4.130
 5685TIP3    H117061   3.900   0.819   4.038
 5685TIP3    H217062   3.942   0.706   4.130
 5686TIP3   OH217063   5.515   5.314   3.243
 5686TIP3    H117064   5.480   5.267   3.319
 5686TIP3    H217065   5.553   5.246   3.188
 5687TIP3   OH217066   4.912   1.655   2.964
 5687TIP3    H117067   5.003   1.627   2.971
 5687TIP3    H217068   4.861   1.580   2.996
 5688TIP3   OH217069   5.127   5.667   1.819
 5688TIP3    H117070   5.179   5.738   1.858
 5688TIP3    H217071   5.192   5.609   1.780
 5689TIP3   OH217072   0.643   0.944   0.181
 5689TIP3    H117073   0.669   0.900   0.262
 5689TIP3    H217074   0.645   0.874   0.115
 5690TIP3   OH217075   1.378   4.850   0.860
 5690TIP3    H117076   1.423   4.767   0.876
 5690TIP3    H217077   1.387   4.864   0.766
 5691TIP3   OH217078   5.571   2.094   3.027
 5691TIP3    H117079   5.483   2.092   2.990
 5691TIP3    H217080   5.583   2.007   3.065
 5692TIP3   OH217081   4.607   2.336   3.833
 5692TIP3    H117082   4.531   2.373   3.787
 5692TIP3    H217083   4.627   2.255   3.787
 5693TIP3   OH217084   5.980   2.468   0.245
 5693TIP3    H117085   5.952   2.550   0.284
 5693TIP3    H217086   6.056   2.491   0.192
 5694TIP3   OH217087   0.543   0.654   0.871
 5694TIP3    H117088   0.637   0.668   0.855
 5694TIP3    H217089   0.530   0.560   0.860
 5695TIP3   OH217090   3.125   5.740   1.472
 5695TIP3    H117091   3.138   5.802   1.401
 5695TIP3    H217092   3.085   5.791   1.542
 5696TIP3   OH217093   2.199   3.503   3.343
 5696TIP3    H117094   2.189   3.540   3.255
 5696TIP3    H217095   2.115   3.461   3.361
 5697TIP3   OH217096   3.932   1.015   3.670
 5697TIP3    H117097   3.971   1.043   3.587
 5697TIP3    H217098   4.001   0.962   3.711
 5698TIP3   OH217099   0.756   1.397   4.717
 5698TIP3    H117100   0.762   1.396   4.621
 5698TIP3    H217101   0.663   1.398   4.735
 5699TIP3   OH217102   3.678   0.812   4.398
 5699TIP3    H117103   3.626   0.741   4.436
 5699TIP3    H217104   3.769   0.790   4.422
 5700TIP3   OH217105   3.574   5.790   3.755
 5700TIP3    H117106   3.538   5.711   3.716
 5700TIP3    H217107   3.503   5.825   3.808
 5701TIP3   OH217108   3.051   1.909   2.688
 5701TIP3    H117109   3.140   1.884   2.712
 5701TIP3    H217110   3.006   1.918   2.773
 5702TIP3   OH217111   2.308   5.419   4.179
 5702TIP3    H117112   2.254   5.340   4.188
 5702TIP3    H217113   2.246   5.487   4.153
 5703TIP3   OH217114   4.946   2.658   4.040
 5703TIP3    H117115   4.870   2.601   4.049
 5703TIP3    H217116   4.930   2.705   3.958
 5704TIP3   OH217117   4.922   1.997   2.100
 5704TIP3    H117118   4.989   2.056   2.133
 5704TIP3    H217119   4.841   2.027   2.140
 5705TIP3   OH217120   0.528   3.755   4.781
 5705TIP3    H117121   0.612   3.714   4.800
 5705TIP3    H217122   0.528   3.837   4.831
 5706TIP3   OH217123   6.329   3.275   1.449
 5706TIP3    H117124   6.352   3.352   1.501
 5706TIP3    H217125   6.241   3.251   1.479
 5707TIP3   OH217126   4.052   3.092   4.797
 5707TIP3    H117127   3.988   3.087   4.726
 5707TIP3    H217128   4.000   3.086   4.876
 5708TIP3   OH217129   0.859   1.641   3.737
 5708TIP3    H117130   0.891   1.632   3.647
 5708TIP3    H217131   0.937   1.665   3.787
 5709TIP3   OH217132   2.781   5.791   4.110
 5709TIP3    H117133   2.759   5.707   4.070
 5709TIP3    H217134   2.877   5.796   4.103
 5710TIP3   OH217135   0.927   5.856   3.874
 5710TIP3    H117136   0.861   5.800   3.833
 5710TIP3    H217137   0.914   5.843   3.968
 5711TIP3   OH217138   2.917   0.414   3.692
 5711TIP3    H117139   2.977   0.480   3.657
 5711TIP3    H217140   2.969   0.365   3.756
 5712TIP3   OH217141   1.552   2.621   4.450
 5712TIP3    H117142   1.511   2.537   4.429
 5712TIP3    H217143   1.558   2.622   4.545
 5713TIP3   OH217144   3.097   5.265   3.459
 5713TIP3    H117145   3.046   5.269   3.378
 5713TIP3    H217146   3.063   5.189   3.506
 5714TIP3   OH217147   5.877   1.965   0.054
 5714TIP3    H117148   5.922   1.921   0.127
 5714TIP3    H217149   5.894   2.058   0.069
 5715TIP3   OH217150   1.523   3.350   3.171
 5715TIP3    H117151   1.437   3.330   3.208
 5715TIP3    H217152   1.573   3.386   3.245
 5716TIP3   OH217153   1.478   3.244   4.591
 5716TIP3    H117154   1.494   3.190   4.667
 5716TIP3    H217155   1.410   3.198   4.542
 5717TIP3   OH217156   4.217   4.890   2.489
 5717TIP3    H117157   4.142   4.831   2.496
 5717TIP3    H217158   4.181   4.971   2.453
 5718TIP3   OH217159   2.608   1.661   1.406
 5718TIP3    H117160   2.596   1.578   1.359
 5718TIP3    H217161   2.534   1.715   1.377
 5719TIP3   OH217162   4.647   4.756   2.638
 5719TIP3    H117163   4.623   4.804   2.717
 5719TIP3    H217164   4.594   4.796   2.569
 5720TIP3   OH217165   5.651   5.771   1.180
 5720TIP3    H117166   5.656   5.759   1.274
 5720TIP3    H217167   5.703   5.851   1.163
 5721TIP3   OH217168   0.591   5.796   1.707
 5721TIP3    H117169   0.547   5.874   1.674
 5721TIP3    H217170   0.524   5.727   1.706
 5722TIP3   OH217171   3.624   1.519   5.108
 5722TIP3    H117172   3.602   1.568   5.029
 5722TIP3    H217173   3.688   1.454   5.079
 5723TIP3   OH217174   5.038   1.426   4.008
 5723TIP3    H117175   5.094   1.483   3.956
 5723TIP3    H217176   4.950   1.440   3.974
 5724TIP3   OH217177   1.681   0.280   3.837
 5724TIP3    H117178   1.630   0.358   3.814
 5724TIP3    H217179   1.740   0.310   3.906
 5725TIP3   OH217180   4.282   0.939   2.506
 5725TIP3    H117181   4.362   0.975   2.468
 5725TIP3    H217182   4.304   0.920   2.597
 5726TIP3   OH217183   1.531   3.370   1.007
 5726TIP3    H117184   1.500   3.283   1.031
 5726TIP3    H217185   1.455   3.413   0.967
 5727TIP3   OH217186   5.213   2.385   2.095
 5727TIP3    H117187   5.133   2.332   2.096
 5727TIP3    H217188   5.251   2.372   2.182
 5728TIP3   OH217189   0.189   5.266   3.463
 5728TIP3    H117190   0.268   5.237   3.509
 5728TIP3    H217191   0.184   5.210   3.386
 5729TIP3   OH217192   1.142   0.414   0.327
 5729TIP3    H117193   1.179   0.350   0.387
 5729TIP3    H217194   1.192   0.494   0.343
 5730TIP3   OH217195   5.201   5.952   1.769
 5730TIP3    H117196   5.116   5.978   1.733
 5730TIP3    H217197   5.264   5.974   1.700
 5731TIP3   OH217198   0.086   1.630   0.460
 5731TIP3    H117199   0.038   1.633   0.543
 5731TIP3    H217200   0.050   1.702   0.408
 5732TIP3   OH217201   3.836   5.216   0.790
 5732TIP3    H117202   3.806   5.281   0.727
 5732TIP3    H217203   3.891   5.156   0.738
 5733TIP3   OH217204   0.887   2.359   3.607
 5733TIP3    H117205   0.841   2.407   3.539
 5733TIP3    H217206   0.961   2.319   3.561
 5734TIP3   OH217207   4.359   2.716   0.446
 5734TIP3    H117208   4.450   2.729   0.473
 5734TIP3    H217209   4.351   2.621   0.436
 5735TIP3   OH217210   2.003   4.092   0.106
 5735TIP3    H117211   2.000   4.000   0.078
 5735TIP3    H217212   1.915   4.126   0.086
 5736TIP3   OH217213   4.268   4.517   1.853
 5736TIP3    H117214   4.304   4.563   1.777
 5736TIP3    H217215   4.321   4.549   1.926
 5737TIP3   OH217216   4.782   4.256   3.741
 5737TIP3    H117217   4.747   4.237   3.828
 5737TIP3    H217218   4.705   4.257   3.683
 5738TIP3   OH217219   3.536   2.962   3.577
 5738TIP3    H117220   3.613   2.919   3.614
 5738TIP3    H217221   3.462   2.913   3.611
 5739TIP3   OH217222   2.409   5.065   3.030
 5739TIP3    H117223   2.478   5.007   3.063
 5739TIP3    H217224   2.426   5.149   3.073
 5740TIP3   OH217225   5.529   4.449   4.962
 5740TIP3    H117226   5.573   4.369   4.934
 5740TIP3    H217227   5.525   4.503   4.883
 5741TIP3   OH217228   3.945   4.203   2.309
 5741TIP3    H117229   3.928   4.112   2.333
 5741TIP3    H217230   4.027   4.199   2.259
 5742TIP3   OH217231   2.072   3.133   5.139
 5742TIP3    H117232   2.026   3.088   5.068
 5742TIP3    H217233   2.058   3.226   5.122
 5743TIP3   OH217234   4.800   0.856   3.433
 5743TIP3    H117235   4.879   0.855   3.487
 5743TIP3    H217236   4.815   0.787   3.367
 5744TIP3   OH217237   0.572   0.714   0.054
 5744TIP3    H117238   0.523   0.739   0.132
 5744TIP3    H217239   0.544   0.624   0.036
 5745TIP3   OH217240   4.259   3.599   1.962
 5745TIP3    H117241   4.166   3.618   1.952
 5745TIP3    H217242   4.302   3.662   1.903
 5746TIP3   OH217243   4.350   1.090   1.590
 5746TIP3    H117244   4.405   1.146   1.537
 5746TIP3    H217245   4.347   1.007   1.542
 5747TIP3   OH217246   4.410   4.975   0.139
 5747TIP3    H117247   4.397   4.940   0.227
 5747TIP3    H217248   4.470   4.912   0.097
 5748TIP3   OH217249   3.612   1.051   2.485
 5748TIP3    H117250   3.692   1.027   2.533
 5748TIP3    H217251   3.540   1.024   2.543
 5749TIP3   OH217252   6.148   3.380   4.335
 5749TIP3    H117253   6.070   3.434   4.324
 5749TIP3    H217254   6.219   3.432   4.297
 5750TIP3   OH217255   3.322   2.552   4.025
 5750TIP3    H117256   3.263   2.525   4.095
 5750TIP3    H217257   3.281   2.628   3.986
 5751TIP3   OH217258   0.607   3.005   3.986
 5751TIP3    H117259   0.591   2.917   4.021
 5751TIP3    H217260   0.526   3.053   4.005
 5752TIP3   OH217261   3.256   3.624   4.282
 5752TIP3    H117262   3.278   3.588   4.368
 5752TIP3    H217263   3.341   3.645   4.243
 5753TIP3   OH217264   5.837   1.773   0.313
 5753TIP3    H117265   5.780   1.718   0.260
 5753TIP3    H217266   5.778   1.836   0.354
 5754TIP3   OH217267   0.798   0.090   0.369
 5754TIP3    H117268   0.786   0.020   0.305
 5754TIP3    H217269   0.795   0.045   0.454
 5755TIP3   OH217270   1.883   2.615   4.037
 5755TIP3    H117271   1.838   2.672   4.099
 5755TIP3    H217272   1.816   2.552   4.008
 5756TIP3   OH217273   0.043   3.957   0.258
 5756TIP3    H117274   0.113   3.941   0.194
 5756TIP3    H217275   0.087   3.953   0.343
 5757TIP3   OH217276   0.953   3.389   2.401
 5757TIP3    H117277   0.900   3.319   2.439
 5757TIP3    H217278   1.006   3.346   2.334
 5758TIP3   OH217279   4.476   0.339   1.990
 5758TIP3    H117280   4.528   0.262   1.969
 5758TIP3    H217281   4.493   0.355   2.083
 5759TIP3   OH217282   0.312   4.644   0.534
 5759TIP3    H117283   0.346   4.727   0.568
 5759TIP3    H217284   0.217   4.655   0.536
 5760TIP3   OH217285   5.261   4.402   2.798
 5760TIP3    H117286   5.271   4.314   2.833
 5760TIP3    H217287   5.337   4.414   2.740
 5761TIP3   OH217288   3.614   0.700   2.217
 5761TIP3    H117289   3.652   0.699   2.129
 5761TIP3    H217290   3.522   0.720   2.203
 5762TIP3   OH217291   0.726   2.442   2.764
 5762TIP3    H117292   0.677   2.410   2.688
 5762TIP3    H217293   0.687   2.396   2.838
 5763TIP3   OH217294   4.758   0.041   2.989
 5763TIP3    H117295   4.783   0.120   2.941
 5763TIP3    H217296   4.671   0.019   2.954
 5764TIP3   OH217297   2.997   3.440   2.035
 5764TIP3    H117298   2.917   3.392   2.055
 5764TIP3    H217299   3.018   3.416   1.945
 5765TIP3   OH217300   1.723   2.337   1.943
 5765TIP3    H117301   1.636   2.308   1.972
 5765TIP3    H217302   1.736   2.421   1.985
 5766TIP3   OH217303   4.964   5.129   5.020
 5766TIP3    H117304   4.991   5.115   5.110
 5766TIP3    H217305   4.949   5.041   4.985
 5767TIP3   OH217306   0.661   1.583   4.180
 5767TIP3    H117307   0.673   1.660   4.235
 5767TIP3    H217308   0.748   1.569   4.141
 5768TIP3   OH217309   2.923   4.924   4.261
 5768TIP3    H117310   2.839   4.962   4.235
 5768TIP3    H217311   2.900   4.860   4.328
 5769TIP3   OH217312   6.001   5.079   1.330
 5769TIP3    H117313   5.907   5.069   1.312
 5769TIP3    H217314   6.040   4.997   1.299
 5770TIP3   OH217315   2.514   4.449   2.662
 5770TIP3    H117316   2.606   4.449   2.690
 5770TIP3    H217317   2.490   4.357   2.657
 5771TIP3   OH217318   4.581   1.401   4.760
 5771TIP3    H117319   4.533   1.413   4.842
 5771TIP3    H217320   4.663   1.358   4.786
 5772TIP3   OH217321   4.795   4.073   3.968
 5772TIP3    H117322   4.888   4.051   3.959
 5772TIP3    H217323   4.761   4.012   4.033
 5773TIP3   OH217324   4.964   1.718   3.498
 5773TIP3    H117325   5.024   1.662   3.547
 5773TIP3    H217326   4.936   1.784   3.562
 5774TIP3   OH217327   1.665   3.572   2.685
 5774TIP3    H117328   1.680   3.657   2.645
 5774TIP3    H217329   1.752   3.537   2.703
 5775TIP3   OH217330   4.427   3.374   4.447
 5775TIP3    H117331   4.443   3.452   4.500
 5775TIP3    H217332   4.335   3.379   4.422
 5776TIP3   OH217333   4.822   0.213   1.878
 5776TIP3    H117334   4.803   0.301   1.847
 5776TIP3    H217335   4.771   0.155   1.821
 5777TIP3   OH217336   0.102   4.188   1.875
 5777TIP3    H117337   0.144   4.216   1.794
 5777TIP3    H217338   0.017   4.154   1.846
 5778TIP3   OH217339   5.255   5.753   0.065
 5778TIP3    H117340   5.315   5.756   0.139
 5778TIP3    H217341   5.168   5.760   0.104
 5779TIP3   OH217342   3.735   5.242   1.917
 5779TIP3    H117343   3.679   5.317   1.898
 5779TIP3    H217344   3.674   5.175   1.949
 5780TIP3   OH217345   4.735   0.010   3.722
 5780TIP3    H117346   4.772   0.054   3.798
 5780TIP3    H217347   4.809  -0.005   3.664
 5781TIP3   OH217348   4.604   2.805   3.608
 5781TIP3    H117349   4.540   2.746   3.569
 5781TIP3    H217350   4.552   2.871   3.654
 5782TIP3   OH217351   2.691   2.587   3.153
 5782TIP3    H117352   2.649   2.571   3.238
 5782TIP3    H217353   2.625   2.635   3.102
 5783TIP3   OH217354   2.118   5.959   0.861
 5783TIP3    H117355   2.073   6.039   0.835
 5783TIP3    H217356   2.069   5.927   0.937
 5784TIP3   OH217357   5.962   2.030   4.936
 5784TIP3    H117358   5.977   2.055   5.027
 5784TIP3    H217359   5.902   1.955   4.942
 5785TIP3   OH217360   2.700   0.248   2.057
 5785TIP3    H117361   2.704   0.252   2.153
 5785TIP3    H217362   2.702   0.339   2.029
 5786TIP3   OH217363   0.325   1.009   1.762
 5786TIP3    H117364   0.268   1.070   1.716
 5786TIP3    H217365   0.318   0.927   1.712
 5787TIP3   OH217366   1.730   2.390   2.681
 5787TIP3    H117367   1.808   2.433   2.645
 5787TIP3    H217368   1.725   2.420   2.771
 5788TIP3   OH217369   3.542   4.897   3.578
 5788TIP3    H117370   3.596   4.828   3.616
 5788TIP3    H217371   3.574   4.906   3.488
 5789TIP3   OH217372   4.298   1.038   3.743
 5789TIP3    H117373   4.305   1.130   3.720
 5789TIP3    H217374   4.368   1.024   3.806
 5790TIP3   OH217375   5.104   2.612   3.248
 5790TIP3    H117376   5.062   2.594   3.332
 5790TIP3    H217377   5.133   2.526   3.218
 5791TIP3   OH217378   3.969   5.386   1.895
 5791TIP3    H117379   4.046   5.340   1.862
 5791TIP3    H217380   3.909   5.316   1.922
 5792TIP3   OH217381   0.523   5.058   1.882
 5792TIP3    H117382   0.462   5.049   1.809
 5792TIP3    H217383   0.553   4.969   1.900
 5793TIP3   OH217384   2.996   2.207   2.138
 5793TIP3    H117385   3.077   2.164   2.111
 5793TIP3    H217386   3.001   2.294   2.098
 5794TIP3   OH217387   5.207   0.803   4.186
 5794TIP3    H117388   5.216   0.717   4.146
 5794TIP3    H217389   5.239   0.791   4.276
 5795TIP3   OH217390   5.469   1.118   0.787
 5795TIP3    H117391   5.472   1.212   0.765
 5795TIP3    H217392   5.556   1.086   0.762
 5796TIP3   OH217393   3.928   1.932   3.933
 5796TIP3    H117394   3.864   1.978   3.987
 5796TIP3    H217395   4.005   1.925   3.989
 5797TIP3   OH217396   4.995   5.735   3.028
 5797TIP3    H117397   5.048   5.808   2.996
 5797TIP3    H217398   4.913   5.774   3.056
 5798TIP3   OH217399   0.276   4.579   1.467
 5798TIP3    H117400   0.356   4.630   1.477
 5798TIP3    H217401   0.207   4.645   1.455
 5799TIP3   OH217402   2.211   0.530   1.285
 5799TIP3    H117403   2.277   0.551   1.351
 5799TIP3    H217404   2.220   0.598   1.219
 5800TIP3   OH217405   3.957   5.762   4.180
 5800TIP3    H117406   4.050   5.748   4.197
 5800TIP3    H217407   3.919   5.779   4.266
 5801TIP3   OH217408   5.096   1.878   3.311
 5801TIP3    H117409   5.164   1.911   3.370
 5801TIP3    H217410   5.056   1.806   3.358
 5802TIP3   OH217411   1.813   5.504   3.310
 5802TIP3    H117412   1.893   5.454   3.322
 5802TIP3    H217413   1.759   5.450   3.252
 5803TIP3   OH217414   6.100   2.998   0.562
 5803TIP3    H117415   6.070   2.911   0.589
 5803TIP3    H217416   6.031   3.030   0.504
 5804TIP3   OH217417   5.806   2.638   4.809
 5804TIP3    H117418   5.847   2.707   4.862
 5804TIP3    H217419   5.854   2.640   4.726
 5805TIP3   OH217420   5.734   4.923   2.391
 5805TIP3    H117421   5.761   4.999   2.339
 5805TIP3    H217422   5.733   4.954   2.481
 5806TIP3   OH217423   1.493   4.844   1.181
 5806TIP3    H117424   1.407   4.886   1.177
 5806TIP3    H217425   1.485   4.778   1.251
 5807TIP3   OH217426   3.804   1.860   2.560
 5807TIP3    H117427   3.874   1.799   2.536
 5807TIP3    H217428   3.781   1.835   2.650
 5808TIP3   OH217429   5.277   2.349   3.531
 5808TIP3    H117430   5.253   2.326   3.621
 5808TIP3    H217431   5.368   2.320   3.522
 5809TIP3   OH217432   4.779   0.206   5.015
 5809TIP3    H117433   4.754   0.156   4.937
 5809TIP3    H217434   4.711   0.273   5.023
 5810TIP3   OH217435   6.199   5.653   2.595
 5810TIP3    H117436   6.162   5.637   2.508
 5810TIP3    H217437   6.166   5.580   2.648
 5811TIP3   OH217438   2.109   0.614   2.674
 5811TIP3    H117439   2.151   0.693   2.638
 5811TIP3    H217440   2.061   0.577   2.600
 5812TIP3   OH217441   5.244   5.225   4.324
 5812TIP3    H117442   5.154   5.237   4.354
 5812TIP3    H217443   5.297   5.233   4.403
 5813TIP3   OH217444   5.117   4.653   0.988
 5813TIP3    H117445   5.080   4.721   0.932
 5813TIP3    H217446   5.141   4.583   0.928
 5814TIP3   OH217447   2.814   2.141   3.426
 5814TIP3    H117448   2.742   2.082   3.452
 5814TIP3    H217449   2.893   2.093   3.448
 5815TIP3   OH217450   3.329   1.244   0.901
 5815TIP3    H117451   3.235   1.254   0.890
 5815TIP3    H217452   3.344   1.150   0.893
 5816TIP3   OH217453   0.783   1.771   1.465
 5816TIP3    H117454   0.802   1.693   1.412
 5816TIP3    H217455   0.866   1.790   1.510
 5817TIP3   OH217456   0.288   5.069   4.349
 5817TIP3    H117457   0.304   5.040   4.259
 5817TIP3    H217458   0.201   5.034   4.371
 5818TIP3   OH217459   0.869   0.650   2.788
 5818TIP3    H117460   0.924   0.682   2.717
 5818TIP3    H217461   0.800   0.716   2.797
 5819TIP3   OH217462  -0.001   1.662   3.225
 5819TIP3    H117463   0.073   1.704   3.269
 5819TIP3    H217464  -0.078   1.690   3.275
 5820TIP3   OH217465   5.539   4.863   0.496
 5820TIP3    H117466   5.632   4.885   0.497
 5820TIP3    H217467   5.525   4.815   0.578
 5821TIP3   OH217468   4.953   3.702   3.724
 5821TIP3    H117469   4.873   3.680   3.676
 5821TIP3    H217470   4.960   3.797   3.715
 5822TIP3   OH217471   0.245   1.341   2.958
 5822TIP3    H117472   0.178   1.404   2.984
 5822TIP3    H217473   0.299   1.330   3.037
 5823TIP3   OH217474   0.062   2.684   2.683
 5823TIP3    H117475  -0.004   2.724   2.626
 5823TIP3    H217476   0.133   2.658   2.624
 5824TIP3   OH217477   0.701   1.493   1.077
 5824TIP3    H117478   0.627   1.543   1.113
 5824TIP3    H217479   0.670   1.461   0.993
 5825TIP3   OH217480   5.941   1.804   3.787
 5825TIP3    H117481   6.033   1.801   3.815
 5825TIP3    H217482   5.907   1.884   3.827
 5826TIP3   OH217483   2.813   2.909   4.569
 5826TIP3    H117484   2.860   2.872   4.493
 5826TIP3    H217485   2.741   2.959   4.530
 5827TIP3   OH217486   4.051   0.016   2.625
 5827TIP3    H117487   4.107   0.037   2.550
 5827TIP3    H217488   4.019   0.100   2.656
 5828TIP3   OH217489   1.335   4.875   4.874
 5828TIP3    H117490   1.343   4.829   4.790
 5828TIP3    H217491   1.281   4.817   4.928
 5829TIP3   OH217492   2.949   4.409   0.519
 5829TIP3    H117493   2.908   4.337   0.471
 5829TIP3    H217494   2.993   4.461   0.453
 5830TIP3   OH217495   1.292   1.126   0.438
 5830TIP3    H117496   1.356   1.061   0.468
 5830TIP3    H217497   1.274   1.102   0.347
 5831TIP3   OH217498   0.275   2.725   3.375
 5831TIP3    H117499   0.281   2.668   3.452
 5831TIP3    H217500   0.270   2.665   3.301
 5832TIP3   OH217501   2.889   4.835   0.191
 5832TIP3    H117502   2.921   4.909   0.139
 5832TIP3    H217503   2.843   4.779   0.128
 5833TIP3   OH217504   1.657   5.967   1.102
 5833TIP3    H117505   1.711   6.002   1.173
 5833TIP3    H217506   1.588   5.917   1.147
 5834TIP3   OH217507   6.201   3.719   1.683
 5834TIP3    H117508   6.187   3.798   1.630
 5834TIP3    H217509   6.129   3.720   1.746
 5835TIP3   OH217510   4.367   0.082   4.878
 5835TIP3    H117511   4.367   0.045   4.789
 5835TIP3    H217512   4.290   0.138   4.881
 5836TIP3   OH217513   0.836   4.074   2.928
 5836TIP3    H117514   0.906   4.130   2.962
 5836TIP3    H217515   0.782   4.053   3.004
 5837TIP3   OH217516   3.776   3.794   3.204
 5837TIP3    H117517   3.796   3.724   3.142
 5837TIP3    H217518   3.762   3.871   3.149
 5838TIP3   OH217519   5.559   5.444   5.061
 5838TIP3    H117520   5.582   5.532   5.032
 5838TIP3    H217521   5.466   5.450   5.085
 5839TIP3   OH217522   1.114   2.971   1.013
 5839TIP3    H117523   1.039   2.921   1.047
 5839TIP3    H217524   1.122   3.046   1.072
 5840TIP3   OH217525   2.737   5.290   3.707
 5840TIP3    H117526   2.766   5.253   3.791
 5840TIP3    H217527   2.648   5.321   3.725
 5841TIP3   OH217528   0.331   5.912   1.033
 5841TIP3    H117529   0.285   5.955   0.960
 5841TIP3    H217530   0.351   5.984   1.093
 5842TIP3   OH217531   1.290   3.539   0.390
 5842TIP3    H117532   1.324   3.577   0.309
 5842TIP3    H217533   1.281   3.446   0.371
 5843TIP3   OH217534   2.733   2.015   5.081
 5843TIP3    H117535   2.804   1.965   5.120
 5843TIP3    H217536   2.715   2.085   5.144
 5844TIP3   OH217537   3.660   0.580   1.602
 5844TIP3    H117538   3.728   0.636   1.639
 5844TIP3    H217539   3.706   0.522   1.542
 5845TIP3   OH217540   3.740   1.141   1.767
 5845TIP3    H117541   3.687   1.064   1.746
 5845TIP3    H217542   3.710   1.208   1.706
 5846TIP3   OH217543   2.410   3.193   4.184
 5846TIP3    H117544   2.394   3.261   4.249
 5846TIP3    H217545   2.400   3.111   4.232
 5847TIP3   OH217546   0.447   0.538   4.375
 5847TIP3    H117547   0.459   0.523   4.469
 5847TIP3    H217548   0.495   0.468   4.333
 5848TIP3   OH217549   1.020   0.434   5.081
 5848TIP3    H117550   1.023   0.339   5.088
 5848TIP3    H217551   0.930   0.457   5.104
 5849TIP3   OH217552   0.957   2.849   2.683
 5849TIP3    H117553   1.041   2.886   2.656
 5849TIP3    H217554   0.901   2.859   2.606
 5850TIP3   OH217555   5.886   4.496   1.971
 5850TIP3    H117556   5.910   4.409   2.005
 5850TIP3    H217557   5.792   4.490   1.955
 5851TIP3   OH217558   2.836   5.866   1.177
 5851TIP3    H117559   2.883   5.863   1.093
 5851TIP3    H217560   2.814   5.775   1.195
 5852TIP3   OH217561   0.147   0.942   2.045
 5852TIP3    H117562   0.177   0.902   2.127
 5852TIP3    H217563   0.052   0.950   2.056
 5853TIP3   OH217564   2.810   1.867   1.336
 5853TIP3    H117565   2.779   1.778   1.355
 5853TIP3    H217566   2.753   1.924   1.388
 5854TIP3   OH217567   0.063   2.536   2.286
 5854TIP3    H117568   0.069   2.618   2.335
 5854TIP3    H217569   0.142   2.488   2.309
 5855TIP3   OH217570   0.691   4.497   1.909
 5855TIP3    H117571   0.702   4.408   1.944
 5855TIP3    H217572   0.653   4.547   1.981
 5856TIP3   OH217573   1.664   1.655   3.184
 5856TIP3    H117574   1.657   1.729   3.125
 5856TIP3    H217575   1.757   1.649   3.204
 5857TIP3   OH217576   2.166   5.814   3.445
 5857TIP3    H117577   2.121   5.760   3.510
 5857TIP3    H217578   2.241   5.851   3.491
 5858TIP3   OH217579   1.598   5.469   2.034
 5858TIP3    H117580   1.530   5.455   2.099
 5858TIP3    H217581   1.615   5.563   2.038
 5859TIP3   OH217582   4.304   1.132   4.584
 5859TIP3    H117583   4.221   1.161   4.545
 5859TIP3    H217584   4.371   1.170   4.527
 5860TIP3   OH217585   2.065   2.039   0.823
 5860TIP3    H117586   2.140   2.000   0.779
 5860TIP3    H217587   2.013   2.078   0.753
 5861TIP3   OH217588   4.959   3.938   0.227
 5861TIP3    H117589   4.944   3.877   0.155
 5861TIP3    H217590   5.052   3.960   0.220
 5862TIP3   OH217591   4.718   5.297   1.194
 5862TIP3    H117592   4.719   5.339   1.109
 5862TIP3    H217593   4.698   5.205   1.175
 5863TIP3   OH217594   4.264   1.178   0.396
 5863TIP3    H117595   4.193   1.241   0.389
 5863TIP3    H217596   4.322   1.198   0.322
 5864TIP3   OH217597   3.982   3.912   4.830
 5864TIP3    H117598   3.966   3.859   4.908
 5864TIP3    H217599   4.072   3.942   4.840
 5865TIP3   OH217600   2.671   2.551   0.251
 5865TIP3    H117601   2.640   2.620   0.310
 5865TIP3    H217602   2.764   2.542   0.271
 5866TIP3   OH217603   4.102   3.223   2.549
 5866TIP3    H117604   4.167   3.212   2.479
 5866TIP3    H217605   4.146   3.280   2.612
 5867TIP3   OH217606   5.372   4.018   4.123
 5867TIP3    H117607   5.286   3.989   4.091
 5867TIP3    H217608   5.431   4.002   4.049
 5868TIP3   OH217609   5.543   5.939   4.661
 5868TIP3    H117610   5.602   5.998   4.615
 5868TIP3    H217611   5.512   5.989   4.736
 5869TIP3   OH217612   4.513   2.565   1.655
 5869TIP3    H117613   4.561   2.617   1.590
 5869TIP3    H217614   4.481   2.489   1.606
 5870TIP3   OH217615   5.185   5.276   1.172
 5870TIP3    H117616   5.144   5.361   1.188
 5870TIP3    H217617   5.247   5.266   1.244
 5871TIP3   OH217618   0.985   1.993   3.533
 5871TIP3    H117619   0.951   1.985   3.445
 5871TIP3    H217620   1.032   2.077   3.533
 5872TIP3   OH217621   5.147   4.318   0.330
 5872TIP3    H117622   5.134   4.231   0.366
 5872TIP3    H217623   5.062   4.361   0.339
 5873TIP3   OH217624   2.460   1.199   1.906
 5873TIP3    H117625   2.414   1.214   1.989
 5873TIP3    H217626   2.541   1.154   1.932
 5874TIP3   OH217627   5.604   1.484   4.005
 5874TIP3    H117628   5.684   1.452   3.963
 5874TIP3    H217629   5.608   1.579   3.996
 5875TIP3   OH217630   0.555   2.632   2.399
 5875TIP3    H117631   0.596   2.640   2.485
 5875TIP3    H217632   0.532   2.721   2.375
 5876TIP3   OH217633   1.617   0.846   5.019
 5876TIP3    H117634   1.568   0.792   4.957
 5876TIP3    H217635   1.601   0.805   5.104
 5877TIP3   OH217636   6.323   4.124   3.615
 5877TIP3    H117637   6.253   4.185   3.591
 5877TIP3    H217638   6.278   4.042   3.634
 5878TIP3   OH217639   2.748   2.354   4.377
 5878TIP3    H117640   2.793   2.437   4.391
 5878TIP3    H217641   2.816   2.287   4.387
 5879TIP3   OH217642   1.645   4.210   0.698
 5879TIP3    H117643   1.620   4.140   0.639
 5879TIP3    H217644   1.599   4.190   0.780
 5880TIP3   OH217645   0.829   0.640   5.039
 5880TIP3    H117646   0.802   0.653   5.130
 5880TIP3    H217647   0.899   0.703   5.026
 5881TIP3   OH217648   4.453   1.264   4.388
 5881TIP3    H117649   4.405   1.344   4.368
 5881TIP3    H217650   4.545   1.288   4.381
 5882TIP3   OH217651   2.222   1.638   1.616
 5882TIP3    H117652   2.276   1.623   1.538
 5882TIP3    H217653   2.169   1.714   1.594
 5883TIP3   OH217654   1.158   0.227   4.754
 5883TIP3    H117655   1.156   0.146   4.805
 5883TIP3    H217656   1.198   0.202   4.670
 5884TIP3   OH217657   0.373   2.694   1.455
 5884TIP3    H117658   0.376   2.733   1.368
 5884TIP3    H217659   0.284   2.708   1.485
 5885TIP3   OH217660   1.724   2.533   3.213
 5885TIP3    H117661   1.737   2.500   3.124
 5885TIP3    H217662   1.797   2.592   3.228
 5886TIP3   OH217663   0.186   1.954   0.215
 5886TIP3    H117664   0.224   1.939   0.129
 5886TIP3    H217665   0.260   1.982   0.269
 5887TIP3   OH217666   4.934   3.637   1.215
 5887TIP3    H117667   4.865   3.621   1.150
 5887TIP3    H217668   5.011   3.657   1.162
 5888TIP3   OH217669   3.966   3.603   3.815
 5888TIP3    H117670   3.961   3.517   3.772
 5888TIP3    H217671   3.890   3.605   3.873
 5889TIP3   OH217672   1.603   4.350   1.867
 5889TIP3    H117673   1.525   4.330   1.920
 5889TIP3    H217674   1.676   4.320   1.920
 5890TIP3   OH217675   3.896   2.127   3.226
 5890TIP3    H117676   3.979   2.174   3.220
 5890TIP3    H217677   3.870   2.136   3.317
 5891TIP3   OH217678   0.347   1.142   4.541
 5891TIP3    H117679   0.372   1.053   4.566
 5891TIP3    H217680   0.427   1.180   4.505
 5892TIP3   OH217681   4.702   3.515   1.056
 5892TIP3    H117682   4.685   3.473   0.972
 5892TIP3    H217683   4.666   3.455   1.122
 5893TIP3   OH217684   5.606   2.642   0.258
 5893TIP3    H117685   5.642   2.731   0.247
 5893TIP3    H217686   5.636   2.595   0.180
 5894TIP3   OH217687   3.674   0.848   1.337
 5894TIP3    H117688   3.703   0.769   1.292
 5894TIP3    H217689   3.581   0.855   1.315
 5895TIP3   OH217690   3.564   3.183   2.034
 5895TIP3    H117691   3.647   3.228   2.051
 5895TIP3    H217692   3.584   3.091   2.046
 5896TIP3   OH217693   6.279   0.578   2.434
 5896TIP3    H117694   6.279   0.671   2.455
 5896TIP3    H217695   6.283   0.575   2.339
 5897TIP3   OH217696   0.799   4.304   1.399
 5897TIP3    H117697   0.856   4.247   1.349
 5897TIP3    H217698   0.729   4.328   1.338
 5898TIP3   OH217699   0.887   5.147   4.624
 5898TIP3    H117700   0.951   5.140   4.553
 5898TIP3    H217701   0.935   5.119   4.702
 5899TIP3   OH217702   5.922   3.096   3.076
 5899TIP3    H117703   5.925   3.190   3.059
 5899TIP3    H217704   5.844   3.066   3.030
 5900TIP3   OH217705   1.066   0.344   3.562
 5900TIP3    H117706   1.155   0.321   3.590
 5900TIP3    H217707   1.060   0.314   3.471
 5901TIP3   OH217708   2.080   3.843   4.392
 5901TIP3    H117709   2.064   3.899   4.468
 5901TIP3    H217710   2.169   3.811   4.404
 5902TIP3   OH217711   1.335   3.845  -0.001
 5902TIP3    H117712   1.274   3.776   0.025
 5902TIP3    H217713   1.360   3.887   0.081
 5903TIP3   OH217714   6.278   2.141   2.425
 5903TIP3    H117715   6.306   2.059   2.465
 5903TIP3    H217716   6.208   2.115   2.365
 5904TIP3   OH217717   3.740   1.704   1.122
 5904TIP3    H117718   3.814   1.658   1.083
 5904TIP3    H217719   3.667   1.642   1.114
 5905TIP3   OH217720   4.982   1.834   4.489
 5905TIP3    H117721   4.894   1.858   4.462
 5905TIP3    H217722   5.040   1.885   4.432
 5906TIP3   OH217723   4.616   1.146   5.239
 5906TIP3    H117724   4.569   1.229   5.232
 5906TIP3    H217725   4.706   1.172   5.261
 5907TIP3   OH217726   6.032   0.639   4.859
 5907TIP3    H117727   5.956   0.695   4.843
 5907TIP3    H217728   6.050   0.600   4.773
 5908TIP3   OH217729   4.180   5.841   4.843
 5908TIP3    H117730   4.259   5.805   4.884
 5908TIP3    H217731   4.207   5.926   4.809
 5909TIP3   OH217732   0.901   5.173   2.332
 5909TIP3    H117733   0.825   5.152   2.277
 5909TIP3    H217734   0.954   5.231   2.278
 5910TIP3   OH217735   0.611   4.448   0.429
 5910TIP3    H117736   0.663   4.516   0.473
 5910TIP3    H217737   0.667   4.419   0.357
 5911TIP3   OH217738   0.302   2.517   3.579
 5911TIP3    H117739   0.232   2.482   3.524
 5911TIP3    H217740   0.349   2.439   3.611
 5912TIP3   OH217741   0.603   3.450   4.230
 5912TIP3    H117742   0.575   3.358   4.222
 5912TIP3    H217743   0.527   3.495   4.267
 5913TIP3   OH217744   1.429   3.930   4.367
 5913TIP3    H117745   1.372   3.854   4.376
 5913TIP3    H217746   1.487   3.908   4.294
 5914TIP3   OH217747   4.558   5.769   3.765
 5914TIP3    H117748   4.508   5.787   3.686
 5914TIP3    H217749   4.606   5.688   3.747
 5915TIP3   OH217750   2.764   0.373   4.904
 5915TIP3    H117751   2.783   0.329   4.821
 5915TIP3    H217752   2.824   0.332   4.967
 5916TIP3   OH217753   5.377   5.090   4.967
 5916TIP3    H117754   5.325   5.124   4.894
 5916TIP3    H217755   5.379   4.995   4.952
 5917TIP3   OH217756   1.838   4.356   4.641
 5917TIP3    H117757   1.800   4.402   4.715
 5917TIP3    H217758   1.922   4.400   4.625
 5918TIP3   OH217759   0.187   3.858   3.636
 5918TIP3    H117760   0.204   3.950   3.616
 5918TIP3    H217761   0.247   3.809   3.581
 5919TIP3   OH217762   3.378   4.915   1.743
 5919TIP3    H117763   3.314   4.961   1.688
 5919TIP3    H217764   3.430   4.985   1.783
 5920TIP3   OH217765   4.043   1.417   3.538
 5920TIP3    H117766   3.952   1.416   3.568
 5920TIP3    H217767   4.052   1.499   3.491
 5921TIP3   OH217768   3.283   4.748   2.620
 5921TIP3    H117769   3.245   4.826   2.579
 5921TIP3    H217770   3.256   4.676   2.563
 5922TIP3   OH217771   6.113   1.271   1.003
 5922TIP3    H117772   6.038   1.330   0.999
 5922TIP3    H217773   6.098   1.218   1.081
 5923TIP3   OH217774   0.076   1.873   3.563
 5923TIP3    H117775   0.077   1.860   3.658
 5923TIP3    H217776  -0.016   1.865   3.539
 5924TIP3   OH217777   6.195   1.735   3.436
 5924TIP3    H117778   6.100   1.731   3.449
 5924TIP3    H217779   6.230   1.674   3.500
 5925TIP3   OH217780   2.040   4.776   1.638
 5925TIP3    H117781   1.991   4.722   1.577
 5925TIP3    H217782   2.059   4.856   1.590
 5926TIP3   OH217783   6.033   1.805   1.191
 5926TIP3    H117784   6.023   1.898   1.213
 5926TIP3    H217785   5.958   1.785   1.135
 5927TIP3   OH217786   3.694   4.764   0.994
 5927TIP3    H117787   3.718   4.678   0.958
 5927TIP3    H217788   3.670   4.746   1.084
 5928TIP3   OH217789   4.449   3.529   1.614
 5928TIP3    H117790   4.463   3.618   1.582
 5928TIP3    H217791   4.537   3.496   1.631
 5929TIP3   OH217792   0.705   3.717   1.351
 5929TIP3    H117793   0.666   3.631   1.369
 5929TIP3    H217794   0.725   3.753   1.438
 5930TIP3   OH217795   5.110   4.206   0.761
 5930TIP3    H117796   5.175   4.266   0.796
 5930TIP3    H217797   5.154   4.121   0.758
 5931TIP3   OH217798   3.946   4.024   0.663
 5931TIP3    H117799   3.860   4.050   0.694
 5931TIP3    H217800   3.929   3.974   0.583
 5932TIP3   OH217801   3.693   1.614   0.559
 5932TIP3    H117802   3.733   1.585   0.642
 5932TIP3    H217803   3.716   1.545   0.497
 5933TIP3   OH217804   0.736   5.532   1.127
 5933TIP3    H117805   0.736   5.563   1.218
 5933TIP3    H217806   0.777   5.602   1.077
 5934TIP3   OH217807   5.189   5.670   3.205
 5934TIP3    H117808   5.156   5.602   3.264
 5934TIP3    H217809   5.120   5.679   3.139
 5935TIP3   OH217810   0.104   3.371   4.729
 5935TIP3    H117811   0.110   3.354   4.635
 5935TIP3    H217812   0.167   3.441   4.745
 5936TIP3   OH217813   1.105   1.412   5.109
 5936TIP3    H117814   1.121   1.329   5.065
 5936TIP3    H217815   1.179   1.467   5.084
 5937TIP3   OH217816   5.343   0.099   2.299
 5937TIP3    H117817   5.273   0.044   2.335
 5937TIP3    H217818   5.422   0.068   2.343
 5938TIP3   OH217819   5.417   1.502   2.951
 5938TIP3    H117820   5.426   1.520   2.857
 5938TIP3    H217821   5.494   1.450   2.973
 5939TIP3   OH217822   2.012   5.276   4.633
 5939TIP3    H117823   2.071   5.288   4.559
 5939TIP3    H217824   2.010   5.361   4.677
 5940TIP3   OH217825   2.998   0.095   2.484
 5940TIP3    H117826   2.973   0.170   2.429
 5940TIP3    H217827   2.924   0.085   2.544
 5941TIP3   OH217828   4.035   5.431   0.994
 5941TIP3    H117829   4.068   5.426   1.084
 5941TIP3    H217830   4.084   5.363   0.948
 5942TIP3   OH217831   3.173   2.791   4.133
 5942TIP3    H117832   3.113   2.723   4.164
 5942TIP3    H217833   3.255   2.772   4.177
 5943TIP3   OH217834   4.838   1.706   1.168
 5943TIP3    H117835   4.778   1.645   1.126
 5943TIP3    H217836   4.783   1.781   1.193
 5944TIP3   OH217837   3.017   5.153   0.578
 5944TIP3    H117838   3.038   5.080   0.521
 5944TIP3    H217839   3.098   5.203   0.585
 5945TIP3   OH217840   0.472   1.995   0.570
 5945TIP3    H117841   0.386   2.036   0.579
 5945TIP3    H217842   0.453   1.903   0.551
 5946TIP3   OH217843   1.135   2.656   3.137
 5946TIP3    H117844   1.116   2.655   3.231
 5946TIP3    H217845   1.116   2.746   3.110
 5947TIP3   OH217846   3.975   3.611   1.953
 5947TIP3    H117847   3.970   3.675   2.023
 5947TIP3    H217848   3.906   3.635   1.892
 5948TIP3   OH217849   2.495   3.154   2.550
 5948TIP3    H117850   2.488   3.202   2.632
 5948TIP3    H217851   2.588   3.160   2.527
 5949TIP3   OH217852   5.872   3.137   4.101
 5949TIP3    H117853   5.845   3.226   4.122
 5949TIP3    H217854   5.935   3.147   4.029
 5950TIP3   OH217855   5.436   1.560   0.519
 5950TIP3    H117856   5.460   1.648   0.547
 5950TIP3    H217857   5.357   1.573   0.465
 5951TIP3   OH217858   6.151   3.894   2.786
 5951TIP3    H117859   6.121   3.842   2.711
 5951TIP3    H217860   6.092   3.869   2.857
 5952TIP3   OH217861   2.712   4.070   1.641
 5952TIP3    H117862   2.710   3.975   1.655
 5952TIP3    H217863   2.668   4.082   1.557
 5953TIP3   OH217864   2.700   4.176   3.579
 5953TIP3    H117865   2.757   4.187   3.503
 5953TIP3    H217866   2.732   4.097   3.622
 5954TIP3   OH217867   1.120   2.071   1.116
 5954TIP3    H117868   1.164   2.151   1.088
 5954TIP3    H217869   1.066   2.046   1.041
 5955TIP3   OH217870   4.173   3.395   0.550
 5955TIP3    H117871   4.098   3.337   0.531
 5955TIP3    H217872   4.244   3.336   0.574
 5956TIP3   OH217873   0.136   5.433   4.471
 5956TIP3    H117874   0.106   5.463   4.385
 5956TIP3    H217875   0.105   5.343   4.477
 5957TIP3   OH217876   1.569   1.482   4.489
 5957TIP3    H117877   1.610   1.400   4.461
 5957TIP3    H217878   1.597   1.493   4.580
 5958TIP3   OH217879   1.347   5.306   5.152
 5958TIP3    H117880   1.347   5.323   5.057
 5958TIP3    H217881   1.356   5.211   5.159
 5959TIP3   OH217882   4.492   4.258   1.023
 5959TIP3    H117883   4.441   4.337   1.003
 5959TIP3    H217884   4.472   4.239   1.115
 5960TIP3   OH217885   4.356   1.651   0.720
 5960TIP3    H117886   4.328   1.566   0.752
 5960TIP3    H217887   4.427   1.632   0.659
 5961TIP3   OH217888   1.595   1.840   2.358
 5961TIP3    H117889   1.622   1.762   2.406
 5961TIP3    H217890   1.676   1.874   2.321
 5962TIP3   OH217891   5.852   4.835   4.347
 5962TIP3    H117892   5.774   4.793   4.311
 5962TIP3    H217893   5.926   4.785   4.312
 5963TIP3   OH217894   1.511   5.919   1.384
 5963TIP3    H117895   1.520   5.825   1.364
 5963TIP3    H217896   1.424   5.942   1.350
 5964TIP3   OH217897   4.909   3.561   2.061
 5964TIP3    H117898   4.823   3.529   2.086
 5964TIP3    H217899   4.963   3.549   2.139
 5965TIP3   OH217900   3.243   3.069   1.736
 5965TIP3    H117901   3.273   3.043   1.649
 5965TIP3    H217902   3.249   2.988   1.788
 5966TIP3   OH217903   1.986   3.781   0.451
 5966TIP3    H117904   2.027   3.773   0.365
 5966TIP3    H217905   1.940   3.698   0.463
 5967TIP3   OH217906   1.928   5.006   5.089
 5967TIP3    H117907   1.986   5.060   5.035
 5967TIP3    H217908   1.969   5.006   5.175
 5968TIP3   OH217909   0.624   5.657   2.617
 5968TIP3    H117910   0.687   5.585   2.611
 5968TIP3    H217911   0.638   5.708   2.537
 5969TIP3   OH217912   4.731   1.934   4.429
 5969TIP3    H117913   4.774   2.019   4.440
 5969TIP3    H217914   4.694   1.937   4.341
 5970TIP3   OH217915   4.502   5.359   2.221
 5970TIP3    H117916   4.532   5.446   2.248
 5970TIP3    H217917   4.560   5.298   2.267
 5971TIP3   OH217918   0.416   1.091   0.264
 5971TIP3    H117919   0.434   1.109   0.356
 5971TIP3    H217920   0.479   1.145   0.217
 5972TIP3   OH217921   2.267   0.277   1.289
 5972TIP3    H117922   2.287   0.256   1.198
 5972TIP3    H217923   2.210   0.354   1.284
 5973TIP3   OH217924   5.686   1.689   2.198
 5973TIP3    H117925   5.641   1.758   2.247
 5973TIP3    H217926   5.749   1.736   2.144
 5974TIP3   OH217927   2.702   3.208   5.015
 5974TIP3    H117928   2.723   3.130   5.065
 5974TIP3    H217929   2.755   3.278   5.055
 5975TIP3   OH217930   5.427   2.868   3.944
 5975TIP3    H117931   5.445   2.942   4.004
 5975TIP3    H217932   5.492   2.802   3.968
 5976TIP3   OH217933   0.858   5.006   1.322
 5976TIP3    H117934   0.828   4.939   1.384
 5976TIP3    H217935   0.941   5.036   1.358
 5977TIP3   OH217936   4.732   0.860   4.771
 5977TIP3    H117937   4.681   0.925   4.820
 5977TIP3    H217938   4.823   0.880   4.792
 5978TIP3   OH217939   6.041   3.259   2.802
 5978TIP3    H117940   6.005   3.279   2.889
 5978TIP3    H217941   6.069   3.167   2.809
 5979TIP3   OH217942   5.934   0.987   3.580
 5979TIP3    H117943   5.908   1.070   3.540
 5979TIP3    H217944   6.014   1.008   3.629
 5980TIP3   OH217945   0.278   3.059   1.853
 5980TIP3    H117946   0.278   3.059   1.757
 5980TIP3    H217947   0.371   3.054   1.876
 5981TIP3   OH217948   5.407   3.869   1.347
 5981TIP3    H117949   5.356   3.875   1.428
 5981TIP3    H217950   5.475   3.805   1.366
 5982TIP3   OH217951   3.147   4.971   2.715
 5982TIP3    H117952   3.102   4.966   2.630
 5982TIP3    H217953   3.084   4.939   2.778
 5983TIP3   OH217954   0.374   5.817   5.199
 5983TIP3    H117955   0.296   5.775   5.236
 5983TIP3    H217956   0.341   5.898   5.161
 5984TIP3   OH217957   6.049   4.440   2.416
 5984TIP3    H117958   6.098   4.481   2.345
 5984TIP3    H217959   6.103   4.452   2.494
 5985TIP3   OH217960   1.028   5.223   2.072
 5985TIP3    H117961   0.934   5.211   2.057
 5985TIP3    H217962   1.069   5.193   1.990
 5986TIP3   OH217963   2.473   1.926   4.361
 5986TIP3    H117964   2.435   2.010   4.385
 5986TIP3    H217965   2.434   1.864   4.422
 5987TIP3   OH217966   0.768   2.479   2.068
 5987TIP3    H117967   0.786   2.443   1.982
 5987TIP3    H217968   0.761   2.402   2.125
 5988TIP3   OH217969   3.480   0.307   2.919
 5988TIP3    H117970   3.450   0.273   3.002
 5988TIP3    H217971   3.404   0.303   2.861
 5989TIP3   OH217972   2.508   1.016   1.095
 5989TIP3    H117973   2.464   0.988   1.015
 5989TIP3    H217974   2.573   1.080   1.065
 5990TIP3   OH217975   3.030   1.076   2.865
 5990TIP3    H117976   2.970   1.036   2.801
 5990TIP3    H217977   3.000   1.167   2.873
 5991TIP3   OH217978   2.116   4.774   2.551
 5991TIP3    H117979   2.133   4.866   2.535
 5991TIP3    H217980   2.044   4.773   2.614
 5992TIP3   OH217981   0.882   3.526   2.819
 5992TIP3    H117982   0.974   3.500   2.825
 5992TIP3    H217983   0.881   3.616   2.853
 5993TIP3   OH217984   5.714   5.447   0.100
 5993TIP3    H117985   5.772   5.371   0.096
 5993TIP3    H217986   5.643   5.426   0.039
 5994TIP3   OH217987   0.306   4.603   3.161
 5994TIP3    H117988   0.308   4.518   3.204
 5994TIP3    H217989   0.292   4.583   3.069
 5995TIP3   OH217990   5.673   4.787   3.181
 5995TIP3    H117991   5.630   4.871   3.196
 5995TIP3    H217992   5.766   4.804   3.195
 5996TIP3   OH217993   5.054   5.707   2.516
 5996TIP3    H117994   4.980   5.733   2.571
 5996TIP3    H217995   5.130   5.714   2.575
 5997TIP3   OH217996   4.632   1.137   3.045
 5997TIP3    H117997   4.574   1.090   2.986
 5997TIP3    H217998   4.697   1.072   3.072
 5998TIP3   OH217999   4.899   2.200   0.739
 5998TIP3    H118000   4.961   2.132   0.764
 5998TIP3    H218001   4.881   2.183   0.647
 5999TIP3   OH218002   4.029   0.547   4.233
 5999TIP3    H118003   3.995   0.533   4.322
 5999TIP3    H218004   4.124   0.546   4.243
 6000TIP3   OH218005   2.729   0.475   1.679
 6000TIP3    H118006   2.663   0.474   1.609
 6000TIP3    H218007   2.794   0.411   1.650
 6001TIP3   OH218008   3.425   1.450   2.152
 6001TIP3    H118009   3.477   1.475   2.229
 6001TIP3    H218010   3.335   1.465   2.178
 6002TIP3   OH218011   1.577   0.012   1.107
 6002TIP3    H118012   1.560   0.051   1.021
 6002TIP3    H218013   1.658   0.052   1.136
 6003TIP3   OH218014   3.940   3.262   4.073
 6003TIP3    H118015   3.946   3.182   4.125
 6003TIP3    H218016   3.898   3.235   3.992
 6004TIP3   OH218017   2.639   5.965   1.760
 6004TIP3    H118018   2.592   5.919   1.691
 6004TIP3    H218019   2.714   5.910   1.780
 6005TIP3   OH218020   0.139   5.081   4.708
 6005TIP3    H118021   0.219   5.134   4.708
 6005TIP3    H218022   0.087   5.117   4.636
 6006TIP3   OH218023   2.258   0.275   0.222
 6006TIP3    H118024   2.175   0.324   0.223
 6006TIP3    H218025   2.316   0.327   0.167
 6007TIP3   OH218026   2.117   5.331   0.075
 6007TIP3    H118027   2.205   5.348   0.109
 6007TIP3    H218028   2.064   5.315   0.153
 6008TIP3   OH218029   5.528   1.760   1.894
 6008TIP3    H118030   5.577   1.774   1.975
 6008TIP3    H218031   5.589   1.783   1.824
 6009TIP3   OH218032   2.360   1.355   2.101
 6009TIP3    H118033   2.269   1.385   2.105
 6009TIP3    H218034   2.412   1.430   2.130
 6010TIP3   OH218035   3.423   2.678   1.258
 6010TIP3    H118036   3.480   2.662   1.333
 6010TIP3    H218037   3.357   2.608   1.263
 6011TIP3   OH218038   0.569   3.145   0.215
 6011TIP3    H118039   0.606   3.173   0.299
 6011TIP3    H218040   0.480   3.118   0.235
 6012TIP3   OH218041   1.289   3.227   4.213
 6012TIP3    H118042   1.324   3.316   4.212
 6012TIP3    H218043   1.243   3.220   4.296
 6013TIP3   OH218044   1.440   3.518   2.814
 6013TIP3    H118045   1.443   3.438   2.866
 6013TIP3    H218046   1.524   3.520   2.768
 6014TIP3   OH218047   0.572   5.690   2.894
 6014TIP3    H118048   0.595   5.644   2.813
 6014TIP3    H218049   0.579   5.623   2.962
 6015TIP3   OH218050   5.351   5.288   1.376
 6015TIP3    H118051   5.402   5.208   1.394
 6015TIP3    H218052   5.409   5.359   1.403
 6016TIP3   OH218053   5.156   1.835   2.391
 6016TIP3    H118054   5.166   1.855   2.298
 6016TIP3    H218055   5.133   1.742   2.393
 6017TIP3   OH218056   3.215   3.828   3.305
 6017TIP3    H118057   3.174   3.752   3.265
 6017TIP3    H218058   3.212   3.895   3.237
 6018TIP3   OH218059   2.269   1.705   1.892
 6018TIP3    H118060   2.212   1.782   1.901
 6018TIP3    H218061   2.358   1.741   1.893
 6019TIP3   OH218062   5.992   4.459   0.247
 6019TIP3    H118063   5.982   4.485   0.338
 6019TIP3    H218064   5.903   4.458   0.212
 6020TIP3   OH218065   5.358   4.852   0.283
 6020TIP3    H118066   5.404   4.867   0.366
 6020TIP3    H218067   5.426   4.826   0.222
 6021TIP3   OH218068   2.821   4.664   1.235
 6021TIP3    H118069   2.797   4.755   1.221
 6021TIP3    H218070   2.753   4.614   1.190
 6022TIP3   OH218071   1.213   1.343   0.952
 6022TIP3    H118072   1.167   1.331   1.036
 6022TIP3    H218073   1.213   1.437   0.938
 6023TIP3   OH218074   2.703   0.599   4.351
 6023TIP3    H118075   2.727   0.509   4.326
 6023TIP3    H218076   2.612   0.608   4.324
 6024TIP3   OH218077   0.046   0.469   0.900
 6024TIP3    H118078   0.119   0.504   0.849
 6024TIP3    H218079   0.076   0.475   0.991
 6025TIP3   OH218080   1.754   3.612   0.842
 6025TIP3    H118081   1.739   3.544   0.776
 6025TIP3    H218082   1.679   3.671   0.833
 6026TIP3   OH218083   3.877   4.469   2.377
 6026TIP3    H118084   3.882   4.374   2.387
 6026TIP3    H218085   3.924   4.488   2.296
 6027TIP3   OH218086   1.969   3.179   3.170
 6027TIP3    H118087   2.029   3.233   3.120
 6027TIP3    H218088   1.929   3.239   3.233
 6028TIP3   OH218089   0.876   2.737   2.950
 6028TIP3    H118090   0.891   2.770   2.861
 6028TIP3    H218091   0.935   2.662   2.957
 6029TIP3   OH218092   4.568   3.725   4.883
 6029TIP3    H118093   4.552   3.667   4.958
 6029TIP3    H218094   4.644   3.778   4.909
 6030TIP3   OH218095   5.737   4.718   1.028
 6030TIP3    H118096   5.796   4.642   1.020
 6030TIP3    H218097   5.692   4.722   0.943
 6031TIP3   OH218098   2.194   4.064   2.256
 6031TIP3    H118099   2.163   4.117   2.329
 6031TIP3    H218100   2.216   3.979   2.295
 6032TIP3   OH218101   3.710   4.264   3.778
 6032TIP3    H118102   3.682   4.173   3.784
 6032TIP3    H218103   3.801   4.259   3.747
 6033TIP3   OH218104   0.753   3.667   4.164
 6033TIP3    H118105   0.703   3.595   4.201
 6033TIP3    H218106   0.844   3.637   4.167
 6034TIP3   OH218107   1.518   1.750   4.434
 6034TIP3    H118108   1.507   1.737   4.340
 6034TIP3    H218109   1.545   1.665   4.467
 6035TIP3   OH218110   3.151   1.542   4.771
 6035TIP3    H118111   3.157   1.587   4.855
 6035TIP3    H218112   3.075   1.580   4.728
 6036TIP3   OH218113   1.701   1.865   4.174
 6036TIP3    H118114   1.647   1.787   4.161
 6036TIP3    H218115   1.647   1.938   4.142
 6037TIP3   OH218116   1.923   0.552   4.385
 6037TIP3    H118117   1.891   0.640   4.405
 6037TIP3    H218118   1.990   0.566   4.318
 6038TIP3   OH218119   6.202   2.249   1.823
 6038TIP3    H118120   6.176   2.166   1.784
 6038TIP3    H218121   6.132   2.270   1.884
 6039TIP3   OH218122   2.252   5.155   3.491
 6039TIP3    H118123   2.231   5.103   3.414
 6039TIP3    H218124   2.302   5.230   3.458
 6040TIP3   OH218125   4.184   1.582   1.125
 6040TIP3    H118126   4.145   1.524   1.190
 6040TIP3    H218127   4.173   1.536   1.041
 6041TIP3   OH218128   2.410   4.193   5.148
 6041TIP3    H118129   2.493   4.145   5.143
 6041TIP3    H218130   2.356   4.154   5.079
 6042TIP3   OH218131   0.838   2.037   0.564
 6042TIP3    H118132   0.873   2.052   0.476
 6042TIP3    H218133   0.802   1.948   0.560
 6043TIP3   OH218134   3.753   5.089   1.663
 6043TIP3    H118135   3.783   5.030   1.732
 6043TIP3    H218136   3.735   5.172   1.709
 6044TIP3   OH218137   2.511   0.262   0.416
 6044TIP3    H118138   2.473   0.283   0.331
 6044TIP3    H218139   2.601   0.292   0.411
 6045TIP3   OH218140   2.959   5.910   1.652
 6045TIP3    H118141   2.909   5.828   1.649
 6045TIP3    H218142   2.932   5.957   1.573
 6046TIP3   OH218143   5.954   1.357   0.436
 6046TIP3    H118144   6.030   1.408   0.408
 6046TIP3    H218145   5.925   1.312   0.357
 6047TIP3   OH218146   3.330   1.497   3.238
 6047TIP3    H118147   3.270   1.446   3.183
 6047TIP3    H218148   3.369   1.433   3.297
 6048TIP3   OH218149   1.529   4.955   3.465
 6048TIP3    H118150   1.596   4.930   3.402
 6048TIP3    H218151   1.496   4.872   3.499
 6049TIP3   OH218152   0.351   4.545   2.092
 6049TIP3    H118153   0.422   4.601   2.121
 6049TIP3    H218154   0.356   4.547   1.997
 6050TIP3   OH218155   1.370   2.394   2.370
 6050TIP3    H118156   1.343   2.315   2.324
 6050TIP3    H218157   1.391   2.365   2.459
 6051TIP3   OH218158   3.156   0.964   2.078
 6051TIP3    H118159   3.087   0.910   2.038
 6051TIP3    H218160   3.208   0.994   2.004
 6052TIP3   OH218161   1.947   3.721   1.546
 6052TIP3    H118162   1.893   3.694   1.472
 6052TIP3    H218163   1.956   3.643   1.600
 6053TIP3   OH218164   2.346   0.037   0.386
 6053TIP3    H118165   2.304   0.053   0.302
 6053TIP3    H218166   2.414   0.104   0.393
 6054TIP3   OH218167   2.129   4.328   1.662
 6054TIP3    H118168   2.105   4.350   1.752
 6054TIP3    H218169   2.143   4.413   1.620
 6055TIP3   OH218170   3.317   1.162   5.036
 6055TIP3    H118171   3.236   1.209   5.020
 6055TIP3    H218172   3.290   1.070   5.041
 6056TIP3   OH218173   3.717   5.765   1.182
 6056TIP3    H118174   3.681   5.800   1.101
 6056TIP3    H218175   3.757   5.682   1.157
 6057TIP3   OH218176   0.893   4.179   2.353
 6057TIP3    H118177   0.880   4.241   2.281
 6057TIP3    H218178   0.820   4.117   2.344
 6058TIP3   OH218179   2.159   4.962   4.604
 6058TIP3    H118180   2.183   4.891   4.546
 6058TIP3    H218181   2.078   4.933   4.646
 6059TIP3   OH218182   1.412   0.993   4.430
 6059TIP3    H118183   1.489   0.993   4.373
 6059TIP3    H218184   1.418   1.075   4.478
 6060TIP3   OH218185   3.165   0.226   4.698
 6060TIP3    H118186   3.154   0.320   4.687
 6060TIP3    H218187   3.176   0.192   4.610
 6061TIP3   OH218188   2.584   5.415   2.406
 6061TIP3    H118189   2.503   5.437   2.452
 6061TIP3    H218190   2.641   5.378   2.473
 6062TIP3   OH218191   4.346   4.958   1.634
 6062TIP3    H118192   4.303   5.028   1.683
 6062TIP3    H218193   4.408   5.002   1.577
 6063TIP3   OH218194   4.635   2.800   2.937
 6063TIP3    H118195   4.603   2.857   2.866
 6063TIP3    H218196   4.689   2.735   2.892
 6064TIP3   OH218197   3.843   3.347   0.205
 6064TIP3    H118198   3.841   3.354   0.109
 6064TIP3    H218199   3.842   3.438   0.235
 6065TIP3   OH218200   1.816   2.519   1.401
 6065TIP3    H118201   1.832   2.540   1.309
 6065TIP3    H218202   1.722   2.501   1.405
 6066TIP3   OH218203   0.666   2.274   2.336
 6066TIP3    H118204   0.640   2.187   2.364
 6066TIP3    H218205   0.627   2.284   2.249
 6067TIP3   OH218206   1.875   5.501   1.809
 6067TIP3    H118207   1.849   5.558   1.737
 6067TIP3    H218208   1.841   5.414   1.784
 6068TIP3   OH218209   4.699   4.425   2.611
 6068TIP3    H118210   4.754   4.360   2.567
 6068TIP3    H218211   4.611   4.387   2.608
 6069TIP3   OH218212   4.817   2.088   5.052
 6069TIP3    H118213   4.785   2.082   4.962
 6069TIP3    H218214   4.911   2.071   5.044
 6070TIP3   OH218215   0.548   0.031   0.523
 6070TIP3    H118216   0.453   0.031   0.517
 6070TIP3    H218217   0.572   0.122   0.539
 6071TIP3   OH218218   2.058   1.402   4.044
 6071TIP3    H118219   2.091   1.388   4.133
 6071TIP3    H218220   2.132   1.378   3.988
 6072TIP3   OH218221   1.884   3.648   3.956
 6072TIP3    H118222   1.977   3.649   3.937
 6072TIP3    H218223   1.879   3.643   4.052
 6073TIP3   OH218224   4.215   5.414   1.225
 6073TIP3    H118225   4.294   5.459   1.196
 6073TIP3    H218226   4.171   5.477   1.282
 6074TIP3   OH218227   0.690   3.388   2.190
 6074TIP3    H118228   0.765   3.329   2.194
 6074TIP3    H218229   0.727   3.476   2.195
 6075TIP3   OH218230   3.012   2.837   4.369
 6075TIP3    H118231   3.024   2.887   4.288
 6075TIP3    H218232   3.099   2.805   4.391
 6076TIP3   OH218233   6.059   1.699   2.591
 6076TIP3    H118234   6.003   1.663   2.660
 6076TIP3    H218235   6.144   1.713   2.634
 6077TIP3   OH218236   3.316   5.157   0.270
 6077TIP3    H118237   3.232   5.191   0.239
 6077TIP3    H218238   3.306   5.153   0.365
 6078TIP3   OH218239   1.418   4.560   1.978
 6078TIP3    H118240   1.328   4.538   1.951
 6078TIP3    H218241   1.471   4.539   1.901
 6079TIP3   OH218242   0.776   4.204   3.765
 6079TIP3    H118243   0.853   4.148   3.761
 6079TIP3    H218244   0.760   4.230   3.674
 6080TIP3   OH218245   4.117   2.513   1.118
 6080TIP3    H118246   4.203   2.485   1.086
 6080TIP3    H218247   4.064   2.433   1.118
 6081TIP3   OH218248   1.592   2.298   0.258
 6081TIP3    H118249   1.509   2.269   0.296
 6081TIP3    H218250   1.656   2.233   0.287
 6082TIP3   OH218251   0.508   5.966   3.100
 6082TIP3    H118252   0.498   5.946   3.006
 6082TIP3    H218253   0.587   6.020   3.104
 6083TIP3   OH218254   2.278   4.026   0.075
 6083TIP3    H118255   2.269   3.946   0.024
 6083TIP3    H218256   2.360   4.016   0.123
 6084TIP3   OH218257   2.233   3.222   3.960
 6084TIP3    H118258   2.297   3.247   3.893
 6084TIP3    H218259   2.285   3.212   4.040
 6085TIP3   OH218260   2.752   5.329   1.228
 6085TIP3    H118261   2.682   5.369   1.177
 6085TIP3    H218262   2.811   5.292   1.162
 6086TIP3   OH218263   3.763   4.004   3.011
 6086TIP3    H118264   3.830   3.954   2.965
 6086TIP3    H218265   3.710   4.043   2.941
 6087TIP3   OH218266   1.432   2.852   0.525
 6087TIP3    H118267   1.480   2.932   0.505
 6087TIP3    H218268   1.443   2.841   0.620
 6088TIP3   OH218269   2.196   1.150   0.633
 6088TIP3    H118270   2.258   1.212   0.670
 6088TIP3    H218271   2.214   1.068   0.678
 6089TIP3   OH218272   5.891   5.993   3.847
 6089TIP3    H118273   5.939   5.943   3.912
 6089TIP3    H218274   5.909   6.085   3.868
 6090TIP3   OH218275   2.979   3.334   3.993
 6090TIP3    H118276   3.024   3.321   4.076
 6090TIP3    H218277   3.034   3.397   3.946
 6091TIP3   OH218278   5.602   2.481   1.549
 6091TIP3    H118279   5.547   2.416   1.505
 6091TIP3    H218280   5.654   2.520   1.478
 6092TIP3   OH218281   3.122   1.196   2.213
 6092TIP3    H118282   3.132   1.106   2.181
 6092TIP3    H218283   3.087   1.186   2.302
 6093TIP3   OH218284   3.930   4.900   2.346
 6093TIP3    H118285   3.838   4.916   2.324
 6093TIP3    H218286   3.928   4.827   2.407
 6094TIP3   OH218287   2.722   1.457   1.749
 6094TIP3    H118288   2.749   1.378   1.795
 6094TIP3    H218289   2.726   1.433   1.656
 6095TIP3   OH218290   1.494   1.522   2.939
 6095TIP3    H118291   1.413   1.541   2.986
 6095TIP3    H218292   1.551   1.597   2.957
 6096TIP3   OH218293   6.332   4.659   0.446
 6096TIP3    H118294   6.293   4.634   0.530
 6096TIP3    H218295   6.295   4.598   0.383
 6097TIP3   OH218296   5.078   0.062   4.089
 6097TIP3    H118297   4.998   0.107   4.063
 6097TIP3    H218298   5.062  -0.030   4.065
 6098TIP3   OH218299   0.279   0.275   1.502
 6098TIP3    H118300   0.332   0.352   1.525
 6098TIP3    H218301   0.207   0.310   1.451
 6099TIP3   OH218302   4.079   4.377   4.487
 6099TIP3    H118303   4.150   4.345   4.543
 6099TIP3    H218304   4.123   4.438   4.426
 6100TIP3   OH218305   2.886   0.833   1.354
 6100TIP3    H118306   2.908   0.849   1.262
 6100TIP3    H218307   2.792   0.819   1.355
 6101TIP3   OH218308   5.550   1.025   0.183
 6101TIP3    H118309   5.622   1.058   0.236
 6101TIP3    H218310   5.474   1.077   0.209
 6102TIP3   OH218311   4.051   0.058   1.795
 6102TIP3    H118312   4.058   0.009   1.713
 6102TIP3    H218313   4.047  -0.009   1.863
 6103TIP3   OH218314   3.462   1.520   3.982
 6103TIP3    H118315   3.557   1.527   3.986
 6103TIP3    H218316   3.431   1.609   3.971
 6104TIP3   OH218317   0.132   0.723   4.798
 6104TIP3    H118318   0.169   0.714   4.710
 6104TIP3    H218319   0.050   0.771   4.785
 6105TIP3   OH218320   4.919   5.674   3.597
 6105TIP3    H118321   5.005   5.713   3.614
 6105TIP3    H218322   4.861   5.749   3.587
 6106TIP3   OH218323   5.504   2.509   3.162
 6106TIP3    H118324   5.545   2.585   3.122
 6106TIP3    H218325   5.448   2.473   3.093
 6107TIP3   OH218326   3.816   0.627   2.840
 6107TIP3    H118327   3.751   0.573   2.885
 6107TIP3    H218328   3.827   0.703   2.896
 6108TIP3   OH218329   2.979   2.979   3.284
 6108TIP3    H118330   2.952   2.887   3.289
 6108TIP3    H218331   2.921   3.025   3.345
 6109TIP3   OH218332   1.063   0.265   3.309
 6109TIP3    H118333   0.988   0.241   3.255
 6109TIP3    H218334   1.132   0.287   3.246
 6110TIP3   OH218335   3.925   1.408   3.136
 6110TIP3    H118336   3.995   1.352   3.103
 6110TIP3    H218337   3.866   1.349   3.183
 6111TIP3   OH218338   0.431   1.170   3.454
 6111TIP3    H118339   0.352   1.118   3.441
 6111TIP3    H218340   0.457   1.197   3.366
 6112TIP3   OH218341   6.179   5.394   4.627
 6112TIP3    H118342   6.180   5.467   4.564
 6112TIP3    H218343   6.128   5.326   4.584
 6113TIP3   OH218344   5.711   4.661   4.175
 6113TIP3    H118345   5.630   4.613   4.155
 6113TIP3    H218346   5.774   4.629   4.111
 6114TIP3   OH218347   4.454   3.314   0.413
 6114TIP3    H118348   4.363   3.323   0.443
 6114TIP3    H218349   4.505   3.310   0.494
 6115TIP3   OH218350   0.626   2.240   3.433
 6115TIP3    H118351   0.609   2.146   3.440
 6115TIP3    H218352   0.712   2.246   3.392
 6116TIP3   OH218353   6.110   5.230   4.341
 6116TIP3    H118354   6.076   5.298   4.283
 6116TIP3    H218355   6.079   5.148   4.302
 6117TIP3   OH218356   0.810   1.879   3.989
 6117TIP3    H118357   0.732   1.905   4.038
 6117TIP3    H218358   0.866   1.837   4.053
 6118TIP3   OH218359   1.866   2.032   4.035
 6118TIP3    H118360   1.814   2.040   3.955
 6118TIP3    H218361   1.818   1.970   4.090
 6119TIP3   OH218362   5.851   0.700   3.591
 6119TIP3    H118363   5.881   0.784   3.625
 6119TIP3    H218364   5.868   0.638   3.662
 6120TIP3   OH218365   3.208   1.026   1.575
 6120TIP3    H118366   3.266   1.096   1.547
 6120TIP3    H218367   3.267   0.957   1.605
 6121TIP3   OH218368   3.463   2.662   2.270
 6121TIP3    H118369   3.474   2.666   2.365
 6121TIP3    H218370   3.551   2.643   2.236
 6122TIP3   OH218371   5.329   4.039   0.401
 6122TIP3    H118372   5.325   4.072   0.312
 6122TIP3    H218373   5.241   4.051   0.436
 6123TIP3   OH218374   2.197   2.463   2.952
 6123TIP3    H118375   2.254   2.482   2.878
 6123TIP3    H218376   2.141   2.391   2.921
 6124TIP3   OH218377   3.789   2.123   0.010
 6124TIP3    H118378   3.860   2.069  -0.024
 6124TIP3    H218379   3.730   2.134  -0.065
 6125TIP3   OH218380   3.288   0.949   3.171
 6125TIP3    H118381   3.247   0.933   3.086
 6125TIP3    H218382   3.381   0.929   3.157
 6126TIP3   OH218383   3.151   5.868   4.416
 6126TIP3    H118384   3.197   5.791   4.383
 6126TIP3    H218385   3.170   5.937   4.353
 6127TIP3   OH218386   0.835   4.476   2.828
 6127TIP3    H118387   0.766   4.480   2.762
 6127TIP3    H218388   0.882   4.395   2.808
 6128TIP3   OH218389   3.910   3.648   3.419
 6128TIP3    H118390   3.835   3.670   3.475
 6128TIP3    H218391   3.881   3.669   3.330
 6129TIP3   OH218392   0.666   4.018   2.643
 6129TIP3    H118393   0.620   3.989   2.564
 6129TIP3    H218394   0.659   3.943   2.702
 6130TIP3   OH218395   2.002   4.547   3.436
 6130TIP3    H118396   2.025   4.459   3.466
 6130TIP3    H218397   1.954   4.585   3.510
 6131TIP3   OH218398   1.658   3.712   2.350
 6131TIP3    H118399   1.564   3.730   2.352
 6131TIP3    H218400   1.691   3.752   2.431
 6132TIP3   OH218401   3.966   2.482   0.188
 6132TIP3    H118402   3.973   2.456   0.096
 6132TIP3    H218403   3.930   2.405   0.232
 6133TIP3   OH218404   1.436   4.844   2.110
 6133TIP3    H118405   1.366   4.852   2.045
 6133TIP3    H218406   1.473   4.933   2.115
 6134TIP3   OH218407   3.047   0.704   0.822
 6134TIP3    H118408   2.966   0.755   0.826
 6134TIP3    H218409   3.114   0.769   0.797
 6135TIP3   OH218410   0.424   2.258   1.356
 6135TIP3    H118411   0.430   2.285   1.448
 6135TIP3    H218412   0.382   2.172   1.359
 6136TIP3   OH218413   5.117   0.831   3.056
 6136TIP3    H118414   5.042   0.823   2.997
 6136TIP3    H218415   5.105   0.761   3.120
 6137TIP3   OH218416   3.833   0.907   0.492
 6137TIP3    H118417   3.896   0.902   0.564
 6137TIP3    H218418   3.840   0.823   0.447
 6138TIP3   OH218419   2.109   5.626   2.797
 6138TIP3    H118420   2.187   5.648   2.846
 6138TIP3    H218421   2.084   5.539   2.829
 6139TIP3   OH218422   1.098   0.056   0.195
 6139TIP3    H118423   1.048   0.082   0.272
 6139TIP3    H218424   1.152  -0.017   0.224
 6140TIP3   OH218425   5.434   5.935   3.387
 6140TIP3    H118426   5.423   5.845   3.419
 6140TIP3    H218427   5.498   5.973   3.447
 6141TIP3   OH218428   5.362   0.918   0.471
 6141TIP3    H118429   5.441   0.954   0.511
 6141TIP3    H218430   5.348   0.835   0.516
 6142TIP3   OH218431   3.848   5.753   1.961
 6142TIP3    H118432   3.889   5.757   2.048
 6142TIP3    H218433   3.846   5.660   1.940
 6143TIP3   OH218434   2.394   5.324   4.923
 6143TIP3    H118435   2.335   5.388   4.964
 6143TIP3    H218436   2.335   5.258   4.886
 6144TIP3   OH218437   5.799   1.937   1.426
 6144TIP3    H118438   5.851   1.992   1.367
 6144TIP3    H218439   5.857   1.865   1.449
 6145TIP3   OH218440   5.604   2.276   3.845
 6145TIP3    H118441   5.566   2.298   3.760
 6145TIP3    H218442   5.697   2.297   3.835
 6146TIP3   OH218443   4.904   5.009   0.556
 6146TIP3    H118444   4.831   4.996   0.496
 6146TIP3    H218445   4.863   5.036   0.638
 6147TIP3   OH218446   3.069   2.500   3.811
 6147TIP3    H118447   3.064   2.423   3.868
 6147TIP3    H218448   2.984   2.502   3.767
 6148TIP3   OH218449   0.035   4.977   3.585
 6148TIP3    H118450  -0.039   5.022   3.545
 6148TIP3    H218451   0.094   4.957   3.513
 6149TIP3   OH218452   3.825   4.095   1.872
 6149TIP3    H118453   3.788   4.098   1.784
 6149TIP3    H218454   3.902   4.153   1.868
 6150TIP3   OH218455   5.824   3.243   0.887
 6150TIP3    H118456   5.857   3.222   0.974
 6150TIP3    H218457   5.845   3.167   0.834
 6151TIP3   OH218458   0.264   2.242   2.859
 6151TIP3    H118459   0.339   2.257   2.916
 6151TIP3    H218460   0.234   2.329   2.836
 6152TIP3   OH218461   1.555   3.179   3.535
 6152TIP3    H118462   1.493   3.154   3.604
 6152TIP3    H218463   1.636   3.134   3.558
 6153TIP3   OH218464   5.077   2.092   5.027
 6153TIP3    H118465   5.090   2.185   5.006
 6153TIP3    H218466   5.154   2.069   5.080
 6154TIP3   OH218467   1.501   2.028   2.047
 6154TIP3    H118468   1.559   2.040   2.122
 6154TIP3    H218469   1.504   2.111   2.000
 6155TIP3   OH218470   1.660   3.495   0.212
 6155TIP3    H118471   1.567   3.513   0.228
 6155TIP3    H218472   1.674   3.520   0.121
 6156TIP3   OH218473   1.317   2.791   1.962
 6156TIP3    H118474   1.364   2.829   1.888
 6156TIP3    H218475   1.367   2.817   2.039
 6157TIP3   OH218476   1.715   4.691   1.955
 6157TIP3    H118477   1.630   4.685   1.997
 6157TIP3    H218478   1.733   4.785   1.949
 6158TIP3   OH218479   0.312   3.367   0.398
 6158TIP3    H118480   0.329   3.432   0.466
 6158TIP3    H218481   0.350   3.286   0.432
 6159TIP3   OH218482   4.361   0.874   3.519
 6159TIP3    H118483   4.430   0.854   3.583
 6159TIP3    H218484   4.311   0.945   3.559
 6160TIP3   OH218485   6.058   1.447   3.037
 6160TIP3    H118486   5.991   1.379   3.043
 6160TIP3    H218487   6.021   1.521   3.085
 6161TIP3   OH218488   0.183   0.445   2.260
 6161TIP3    H118489   0.194   0.376   2.324
 6161TIP3    H218490   0.088   0.456   2.252
 6162TIP3   OH218491   1.972   5.569   2.127
 6162TIP3    H118492   2.044   5.609   2.176
 6162TIP3    H218493   1.903   5.556   2.192
 6163TIP3   OH218494   3.920   2.711   1.445
 6163TIP3    H118495   3.895   2.792   1.488
 6163TIP3    H218496   3.935   2.649   1.516
 6164TIP3   OH218497   5.540   4.700   2.707
 6164TIP3    H118498   5.631   4.713   2.734
 6164TIP3    H218499   5.546   4.670   2.616
 6165TIP3   OH218500   1.548   4.098   1.278
 6165TIP3    H118501   1.578   4.153   1.351
 6165TIP3    H218502   1.578   4.145   1.200
 6166TIP3   OH218503   4.826   5.269   1.434
 6166TIP3    H118504   4.792   5.272   1.345
 6166TIP3    H218505   4.839   5.360   1.459
 6167TIP3   OH218506   3.787   2.965   4.713
 6167TIP3    H118507   3.764   2.971   4.620
 6167TIP3    H218508   3.708   2.932   4.755
 6168TIP3   OH218509   3.947   2.743   0.106
 6168TIP3    H118510   3.892   2.771   0.179
 6168TIP3    H218511   3.976   2.655   0.130
 6169TIP3   OH218512   3.415   2.384   3.809
 6169TIP3    H118513   3.369   2.424   3.883
 6169TIP3    H218514   3.405   2.447   3.738
 6170TIP3   OH218515   1.391   1.214   3.795
 6170TIP3    H118516   1.381   1.287   3.857
 6170TIP3    H218517   1.392   1.256   3.709
 6171TIP3   OH218518   6.126   3.557   0.215
 6171TIP3    H118519   6.146   3.624   0.149
 6171TIP3    H218520   6.204   3.502   0.218
 6172TIP3   OH218521   6.390   0.877   3.280
 6172TIP3    H118522   6.362   0.960   3.318
 6172TIP3    H218523   6.418   0.824   3.354
 6173TIP3   OH218524   5.413   1.565   2.349
 6173TIP3    H118525   5.413   1.525   2.262
 6173TIP3    H218526   5.473   1.512   2.401
 6174TIP3   OH218527   1.051   0.943   1.306
 6174TIP3    H118528   1.067   1.020   1.360
 6174TIP3    H218529   1.132   0.931   1.256
 6175TIP3   OH218530   3.036   3.260   1.748
 6175TIP3    H118531   3.110   3.207   1.720
 6175TIP3    H218532   3.058   3.349   1.718
 6176TIP3   OH218533   3.312   0.476   4.358
 6176TIP3    H118534   3.366   0.434   4.425
 6176TIP3    H218535   3.225   0.482   4.398
 6177TIP3   OH218536   4.688   3.400   2.263
 6177TIP3    H118537   4.750   3.465   2.296
 6177TIP3    H218538   4.625   3.388   2.334
 6178TIP3   OH218539   5.170   1.909   1.235
 6178TIP3    H118540   5.154   1.820   1.205
 6178TIP3    H218541   5.087   1.937   1.274
 6179TIP3   OH218542   4.227   4.464   5.133
 6179TIP3    H118543   4.276   4.441   5.054
 6179TIP3    H218544   4.180   4.543   5.109
 6180TIP3   OH218545   2.860   5.595   0.411
 6180TIP3    H118546   2.906   5.639   0.483
 6180TIP3    H218547   2.901   5.629   0.332
 6181TIP3   OH218548   4.780   4.984   1.431
 6181TIP3    H118549   4.686   5.000   1.435
 6181TIP3    H218550   4.819   5.071   1.426
 6182TIP3   OH218551   1.139   3.757   1.191
 6182TIP3    H118552   1.084   3.765   1.113
 6182TIP3    H218553   1.096   3.688   1.243
 6183TIP3   OH218554   6.131   4.026   4.116
 6183TIP3    H118555   6.088   4.044   4.033
 6183TIP3    H218556   6.217   4.068   4.109
 6184TIP3   OH218557   3.657   3.977   5.113
 6184TIP3    H118558   3.566   3.950   5.125
 6184TIP3    H218559   3.709   3.915   5.164
 6185TIP3   OH218560   0.984   5.340   4.268
 6185TIP3    H118561   0.972   5.430   4.239
 6185TIP3    H218562   1.063   5.342   4.323
 6186TIP3   OH218563   1.964   2.361   5.032
 6186TIP3    H118564   2.039   2.389   4.978
 6186TIP3    H218565   1.957   2.267   5.016
 6187TIP3   OH218566   3.290   3.819   1.243
 6187TIP3    H118567   3.296   3.891   1.306
 6187TIP3    H218568   3.340   3.748   1.283
 6188TIP3   OH218569   6.049   0.928   2.068
 6188TIP3    H118570   6.079   1.004   2.117
 6188TIP3    H218571   6.005   0.964   1.991
 6189TIP3   OH218572   3.322   1.830   0.744
 6189TIP3    H118573   3.251   1.766   0.748
 6189TIP3    H218574   3.385   1.792   0.683
 6190TIP3   OH218575   3.304   5.321   1.831
 6190TIP3    H118576   3.238   5.379   1.869
 6190TIP3    H218577   3.281   5.234   1.863
 6191TIP3   OH218578   2.231   2.835   0.648
 6191TIP3    H118579   2.254   2.884   0.569
 6191TIP3    H218580   2.153   2.880   0.682
 6192TIP3   OH218581   0.545   3.580   0.031
 6192TIP3    H118582   0.530   3.607  -0.059
 6192TIP3    H218583   0.460   3.589   0.074
 6193TIP3   OH218584   1.786   3.753   1.094
 6193TIP3    H118585   1.836   3.687   1.046
 6193TIP3    H218586   1.715   3.704   1.135
 6194TIP3   OH218587   2.892   4.446   3.408
 6194TIP3    H118588   2.980   4.411   3.424
 6194TIP3    H218589   2.902   4.541   3.416
 6195TIP3   OH218590   0.354   0.966   4.980
 6195TIP3    H118591   0.404   0.968   4.898
 6195TIP3    H218592   0.353   0.874   5.005
 6196TIP3   OH218593   0.141   5.714   2.273
 6196TIP3    H118594   0.226   5.737   2.310
 6196TIP3    H218595   0.158   5.639   2.216
 6197TIP3   OH218596   3.477   3.819   4.258
 6197TIP3    H118597   3.549   3.881   4.253
 6197TIP3    H218598   3.415   3.847   4.191
 6198TIP3   OH218599   4.849   4.256   1.321
 6198TIP3    H118600   4.770   4.246   1.375
 6198TIP3    H218601   4.821   4.310   1.247
 6199TIP3   OH218602   0.788   0.446   0.956
 6199TIP3    H118603   0.836   0.464   1.037
 6199TIP3    H218604   0.856   0.424   0.892
 6200TIP3   OH218605   6.227   3.480   2.868
 6200TIP3    H118606   6.299   3.422   2.844
 6200TIP3    H218607   6.149   3.435   2.834
 6201TIP3   OH218608   4.416   0.642   1.219
 6201TIP3    H118609   4.467   0.594   1.285
 6201TIP3    H218610   4.454   0.614   1.135
 6202TIP3   OH218611   4.684   1.173   3.570
 6202TIP3    H118612   4.668   1.174   3.475
 6202TIP3    H218613   4.672   1.082   3.595
 6203TIP3   OH218614   0.709   5.616   4.646
 6203TIP3    H118615   0.783   5.677   4.643
 6203TIP3    H218616   0.637   5.663   4.606
 6204TIP3   OH218617   4.525   1.328   0.434
 6204TIP3    H118618   4.500   1.252   0.487
 6204TIP3    H218619   4.503   1.302   0.344
 6205TIP3   OH218620   0.908   4.211   3.208
 6205TIP3    H118621   0.979   4.271   3.185
 6205TIP3    H218622   0.843   4.267   3.250
 6206TIP3   OH218623   1.548   4.655   0.539
 6206TIP3    H118624   1.490   4.588   0.577
 6206TIP3    H218625   1.519   4.663   0.448
 6207TIP3   OH218626   2.463   3.524   5.164
 6207TIP3    H118627   2.482   3.502   5.072
 6207TIP3    H218628   2.505   3.454   5.214
 6208TIP3   OH218629   2.174   0.598   4.570
 6208TIP3    H118630   2.172   0.506   4.594
 6208TIP3    H218631   2.089   0.632   4.597
 6209TIP3   OH218632   3.634   3.608   2.118
 6209TIP3    H118633   3.566   3.595   2.052
 6209TIP3    H218634   3.691   3.532   2.109
 6210TIP3   OH218635   4.326   3.141   2.380
 6210TIP3    H118636   4.359   3.154   2.291
 6210TIP3    H218637   4.395   3.091   2.424
 6211TIP3   OH218638   1.544   2.589   4.717
 6211TIP3    H118639   1.608   2.523   4.743
 6211TIP3    H218640   1.499   2.612   4.799
 6212TIP3   OH218641   2.474   2.096   0.195
 6212TIP3    H118642   2.528   2.167   0.161
 6212TIP3    H218643   2.530   2.052   0.259
 6213TIP3   OH218644   1.727   0.251   3.283
 6213TIP3    H118645   1.760   0.171   3.323
 6213TIP3    H218646   1.680   0.296   3.353
 6214TIP3   OH218647   4.260   4.973   4.251
 6214TIP3    H118648   4.242   4.926   4.170
 6214TIP3    H218649   4.248   5.065   4.229
 6215TIP3   OH218650   4.597   2.460   3.391
 6215TIP3    H118651   4.673   2.492   3.439
 6215TIP3    H218652   4.535   2.433   3.460
 6216TIP3   OH218653   2.252   4.637   3.326
 6216TIP3    H118654   2.168   4.599   3.351
 6216TIP3    H218655   2.315   4.566   3.337
 6217TIP3   OH218656   1.000   5.020   0.493
 6217TIP3    H118657   0.918   5.037   0.540
 6217TIP3    H218658   0.973   4.996   0.405
 6218TIP3   OH218659   4.978   1.320   3.332
 6218TIP3    H118660   4.969   1.326   3.427
 6218TIP3    H218661   4.908   1.260   3.305
 6219TIP3   OH218662   1.633   1.003   0.916
 6219TIP3    H118663   1.649   1.053   0.996
 6219TIP3    H218664   1.546   1.031   0.887
 6220TIP3   OH218665   5.274   4.157   1.352
 6220TIP3    H118666   5.230   4.073   1.338
 6220TIP3    H218667   5.217   4.221   1.308
 6221TIP3   OH218668   2.565   0.745   0.084
 6221TIP3    H118669   2.533   0.728  -0.004
 6221TIP3    H218670   2.631   0.676   0.099
 6222TIP3   OH218671   4.455   5.363   0.014
 6222TIP3    H118672   4.538   5.326   0.047
 6222TIP3    H218673   4.418   5.292  -0.040
 6223TIP3   OH218674   0.928   0.085   3.930
 6223TIP3    H118675   0.895   0.140   4.001
 6223TIP3    H218676   0.896  -0.003   3.951
 6224TIP3   OH218677   5.253   3.385   3.117
 6224TIP3    H118678   5.233   3.292   3.105
 6224TIP3    H218679   5.320   3.387   3.184
 6225TIP3   OH218680   3.018   5.492   3.887
 6225TIP3    H118681   3.099   5.441   3.893
 6225TIP3    H218682   2.953   5.439   3.933
 6226TIP3   OH218683   3.404   2.473   0.896
 6226TIP3    H118684   3.387   2.448   0.805
 6226TIP3    H218685   3.337   2.538   0.916
 6227TIP3   OH218686   2.555   4.479   5.038
 6227TIP3    H118687   2.511   4.447   5.117
 6227TIP3    H218688   2.647   4.455   5.050
 6228TIP3   OH218689   4.960   3.875   1.992
 6228TIP3    H118690   4.881   3.904   1.946
 6228TIP3    H218691   4.934   3.794   2.036
 6229TIP3   OH218692   4.225   0.862   4.477
 6229TIP3    H118693   4.314   0.828   4.469
 6229TIP3    H218694   4.236   0.956   4.486
 6230TIP3   OH218695   4.619   1.780   3.341
 6230TIP3    H118696   4.700   1.731   3.357
 6230TIP3    H218697   4.550   1.714   3.350
 6231TIP3   OH218698   2.524   3.757   0.151
 6231TIP3    H118699   2.454   3.819   0.171
 6231TIP3    H218700   2.593   3.776   0.214
 6232TIP3   OH218701   0.297   5.686   2.519
 6232TIP3    H118702   0.353   5.609   2.503
 6232TIP3    H218703   0.233   5.656   2.583
 6233TIP3   OH218704   5.774   5.619   3.068
 6233TIP3    H118705   5.698   5.596   3.122
 6233TIP3    H218706   5.841   5.644   3.132
 6234TIP3   OH218707   2.474   3.608   3.252
 6234TIP3    H118708   2.505   3.625   3.341
 6234TIP3    H218709   2.461   3.514   3.248
 6235TIP3   OH218710   4.444   4.110  -0.033
 6235TIP3    H118711   4.494   4.188  -0.008
 6235TIP3    H218712   4.505   4.037  -0.018
 6236TIP3   OH218713   2.547   1.654   0.757
 6236TIP3    H118714   2.604   1.727   0.782
 6236TIP3    H218715   2.462   1.676   0.795
 6237TIP3   OH218716   1.238   1.965   2.470
 6237TIP3    H118717   1.221   1.988   2.561
 6237TIP3    H218718   1.155   1.929   2.438
 6238TIP3   OH218719   5.300   2.304   4.474
 6238TIP3    H118720   5.241   2.337   4.406
 6238TIP3    H218721   5.245   2.294   4.551
 6239TIP3   OH218722   2.444   2.434   2.024
 6239TIP3    H118723   2.450   2.390   1.939
 6239TIP3    H218724   2.434   2.362   2.087
 6240TIP3   OH218725   4.631   3.522   0.559
 6240TIP3    H118726   4.659   3.485   0.475
 6240TIP3    H218727   4.572   3.594   0.535
 6241TIP3   OH218728   2.378   3.275   0.004
 6241TIP3    H118729   2.404   3.357   0.045
 6241TIP3    H218730   2.418   3.207   0.059
 6242TIP3   OH218731   0.843   4.736   0.743
 6242TIP3    H118732   0.795   4.720   0.824
 6242TIP3    H218733   0.935   4.733   0.769
 6243TIP3   OH218734   5.618   1.302   2.944
 6243TIP3    H118735   5.610   1.280   2.851
 6243TIP3    H218736   5.700   1.351   2.950
 6244TIP3   OH218737   3.516   2.767   2.875
 6244TIP3    H118738   3.467   2.828   2.820
 6244TIP3    H218739   3.581   2.822   2.918
 6245TIP3   OH218740   2.889   1.143   1.634
 6245TIP3    H118741   2.898   1.048   1.639
 6245TIP3    H218742   2.972   1.178   1.667
 6246TIP3   OH218743   1.625   0.538  -0.072
 6246TIP3    H118744   1.600   0.622  -0.035
 6246TIP3    H218745   1.542   0.497  -0.098
 6247TIP3   OH218746   1.290   5.484   1.820
 6247TIP3    H118747   1.209   5.500   1.869
 6247TIP3    H218748   1.323   5.572   1.800
 6248TIP3   OH218749   0.546   2.678   0.768
 6248TIP3    H118750   0.554   2.680   0.863
 6248TIP3    H218751   0.634   2.660   0.737
 6249TIP3   OH218752   1.461   2.933   2.671
 6249TIP3    H118753   1.496   2.844   2.668
 6249TIP3    H218754   1.404   2.933   2.748
 6250TIP3   OH218755   1.523   4.158   2.126
 6250TIP3    H118756   1.471   4.129   2.051
 6250TIP3    H218757   1.556   4.078   2.166
 6251TIP3   OH218758   3.363   2.895   1.084
 6251TIP3    H118759   3.309   2.972   1.099
 6251TIP3    H218760   3.357   2.845   1.165
 6252TIP3   OH218761   2.638   1.650   3.182
 6252TIP3    H118762   2.698   1.724   3.177
 6252TIP3    H218763   2.554   1.684   3.151
 6253TIP3   OH218764   3.371   2.517   0.222
 6253TIP3    H118765   3.301   2.572   0.185
 6253TIP3    H218766   3.396   2.561   0.303
 6254TIP3   OH218767   2.924   0.542   2.936
 6254TIP3    H118768   2.905   0.572   3.025
 6254TIP3    H218769   2.838   0.542   2.893
 6255TIP3   OH218770   1.095   5.364   2.550
 6255TIP3    H118771   1.099   5.338   2.642
 6255TIP3    H218772   1.004   5.392   2.537
 6256TIP3   OH218773   5.937   1.506   2.758
 6256TIP3    H118774   5.858   1.552   2.788
 6256TIP3    H218775   5.987   1.490   2.837
 6257TIP3   OH218776   0.266   0.521   4.905
 6257TIP3    H118777   0.208   0.589   4.869
 6257TIP3    H218778   0.323   0.568   4.966
 6258TIP3   OH218779   2.374   4.237   0.597
 6258TIP3    H118780   2.280   4.235   0.609
 6258TIP3    H218781   2.390   4.310   0.538
 6259TIP3   OH218782   3.581   1.784   4.096
 6259TIP3    H118783   3.532   1.862   4.070
 6259TIP3    H218784   3.596   1.738   4.013
 6260TIP3   OH218785   3.992   5.070   0.636
 6260TIP3    H118786   4.081   5.090   0.609
 6260TIP3    H218787   3.976   4.982   0.603
 6261TIP3   OH218788   1.085   4.352   5.043
 6261TIP3    H118789   1.179   4.356   5.060
 6261TIP3    H218790   1.077   4.365   4.949
 6262TIP3   OH218791   0.232   4.009   1.638
 6262TIP3    H118792   0.309   4.016   1.581
 6262TIP3    H218793   0.267   4.012   1.727
 6263TIP3   OH218794   3.648   2.459   0.057
 6263TIP3    H118795   3.577   2.466  -0.006
 6263TIP3    H218796   3.612   2.406   0.129
 6264TIP3   OH218797   4.797   3.842   4.978
 6264TIP3    H118798   4.794   3.873   5.068
 6264TIP3    H218799   4.812   3.921   4.926
 6265TIP3   OH218800   3.443   0.553   5.125
 6265TIP3    H118801   3.438   0.592   5.212
 6265TIP3    H218802   3.502   0.610   5.077
 6266TIP3   OH218803   3.581   3.010   0.830
 6266TIP3    H118804   3.587   3.035   0.922
 6266TIP3    H218805   3.504   2.953   0.826
 6267TIP3   OH218806   0.397   4.087   0.385
 6267TIP3    H118807   0.388   4.100   0.479
 6267TIP3    H218808   0.352   4.162   0.345
 6268TIP3   OH218809   3.693   5.867   2.366
 6268TIP3    H118810   3.655   5.780   2.354
 6268TIP3    H218811   3.751   5.879   2.291
 6269TIP3   OH218812   3.324   2.787   3.731
 6269TIP3    H118813   3.330   2.691   3.721
 6269TIP3    H218814   3.240   2.809   3.693
 6270TIP3   OH218815   4.255   0.530   2.010
 6270TIP3    H118816   4.334   0.479   1.992
 6270TIP3    H218817   4.263   0.607   1.954
 6271TIP3   OH218818   2.166   5.726   2.497
 6271TIP3    H118819   2.168   5.699   2.589
 6271TIP3    H218820   2.093   5.677   2.460
 6272TIP3   OH218821   4.241   4.239   3.694
 6272TIP3    H118822   4.271   4.190   3.617
 6272TIP3    H218823   4.317   4.243   3.751
 6273TIP3   OH218824   6.229   2.779   1.626
 6273TIP3    H118825   6.164   2.819   1.683
 6273TIP3    H218826   6.289   2.850   1.604
 6274TIP3   OH218827   3.854   3.180   1.700
 6274TIP3    H118828   3.858   3.187   1.795
 6274TIP3    H218829   3.783   3.240   1.675
 6275TIP3   OH218830   4.686   4.199   2.884
 6275TIP3    H118831   4.732   4.117   2.864
 6275TIP3    H218832   4.648   4.226   2.800
 6276TIP3   OH218833   6.166   4.545   4.039
 6276TIP3    H118834   6.169   4.462   3.991
 6276TIP3    H218835   6.252   4.585   4.025
 6277TIP3   OH218836   5.336   5.740   4.680
 6277TIP3    H118837   5.301   5.701   4.599
 6277TIP3    H218838   5.394   5.809   4.649
 6278TIP3   OH218839   3.099   1.479   2.487
 6278TIP3    H118840   3.192   1.493   2.507
 6278TIP3    H218841   3.088   1.516   2.400
 6279TIP3   OH218842   2.131   0.980   3.861
 6279TIP3    H118843   2.187   0.905   3.841
 6279TIP3    H218844   2.050   0.962   3.812
 6280TIP3   OH218845   3.574   4.811   4.740
 6280TIP3    H118846   3.576   4.716   4.755
 6280TIP3    H218847   3.481   4.834   4.741
 6281TIP3   OH218848   6.315   3.450   2.460
 6281TIP3    H118849   6.250   3.430   2.392
 6281TIP3    H218850   6.382   3.501   2.415
 6282TIP3   OH218851   4.910   0.142   2.146
 6282TIP3    H118852   4.838   0.116   2.203
 6282TIP3    H218853   4.868   0.168   2.064
 6283TIP3   OH218854   2.932   2.208   2.623
 6283TIP3    H118855   3.005   2.256   2.585
 6283TIP3    H218856   2.951   2.116   2.602
 6284TIP3   OH218857   4.763   4.242   4.274
 6284TIP3    H118858   4.778   4.149   4.261
 6284TIP3    H218859   4.769   4.279   4.186
 6285TIP3   OH218860   4.038   2.199   2.416
 6285TIP3    H118861   4.131   2.178   2.430
 6285TIP3    H218862   3.999   2.192   2.503
 6286TIP3   OH218863   4.169   3.714   1.294
 6286TIP3    H118864   4.130   3.680   1.213
 6286TIP3    H218865   4.104   3.777   1.326
 6287TIP3   OH218866   0.531   5.996   0.649
 6287TIP3    H118867   0.609   6.028   0.604
 6287TIP3    H218868   0.516   5.909   0.613
 6288TIP3   OH218869   2.785   3.552   0.910
 6288TIP3    H118870   2.742   3.610   0.972
 6288TIP3    H218871   2.878   3.571   0.919
 6289TIP3   OH218872   5.013   2.112   3.232
 6289TIP3    H118873   5.064   2.032   3.245
 6289TIP3    H218874   4.970   2.126   3.317
 6290TIP3   OH218875   3.272   3.791   3.606
 6290TIP3    H118876   3.349   3.734   3.608
 6290TIP3    H218877   3.244   3.790   3.514
 6291TIP3   OH218878   0.571   3.608   5.047
 6291TIP3    H118879   0.502   3.672   5.033
 6291TIP3    H218880   0.629   3.617   4.971
 6292TIP3   OH218881   5.882   3.990   4.622
 6292TIP3    H118882   5.950   3.941   4.576
 6292TIP3    H218883   5.859   3.935   4.697
 6293TIP3   OH218884   1.051   0.771   0.353
 6293TIP3    H118885   1.018   0.860   0.339
 6293TIP3    H218886   1.088   0.746   0.268
 6294TIP3   OH218887   3.204   4.692   3.654
 6294TIP3    H118888   3.115   4.698   3.690
 6294TIP3    H218889   3.258   4.665   3.727
 6295TIP3   OH218890   3.986   2.270   3.817
 6295TIP3    H118891   3.926   2.302   3.750
 6295TIP3    H218892   3.929   2.234   3.886
 6296TIP3   OH218893   5.710   0.924   4.866
 6296TIP3    H118894   5.754   0.925   4.951
 6296TIP3    H218895   5.773   0.965   4.806
 6297TIP3   OH218896   6.117   3.299   1.028
 6297TIP3    H118897   6.132   3.272   0.938
 6297TIP3    H218898   6.179   3.370   1.043
 6298TIP3   OH218899   1.595   3.934   3.283
 6298TIP3    H118900   1.641   3.899   3.359
 6298TIP3    H218901   1.560   3.857   3.238
 6299TIP3   OH218902   3.821   3.172   4.961
 6299TIP3    H118903   3.748   3.119   4.929
 6299TIP3    H218904   3.779   3.246   5.006
 6300TIP3   OH218905   3.568   1.673   0.866
 6300TIP3    H118906   3.497   1.736   0.856
 6300TIP3    H218907   3.529   1.589   0.841
 6301TIP3   OH218908   2.935   1.521   3.752
 6301TIP3    H118909   2.932   1.599   3.808
 6301TIP3    H218910   2.890   1.547   3.672
 6302TIP3   OH218911   2.198   2.431   0.832
 6302TIP3    H118912   2.215   2.421   0.739
 6302TIP3    H218913   2.190   2.526   0.845
 6303TIP3   OH218914   0.566   3.853   2.863
 6303TIP3    H118915   0.564   3.763   2.895
 6303TIP3    H218916   0.478   3.869   2.828
 6304TIP3   OH218917   0.149   5.524   3.348
 6304TIP3    H118918   0.201   5.540   3.269
 6304TIP3    H218919   0.183   5.441   3.382
 6305TIP3   OH218920   0.103   1.462   4.386
 6305TIP3    H118921   0.080   1.376   4.350
 6305TIP3    H218922   0.028   1.518   4.365
 6306TIP3   OH218923   5.109   4.082   3.394
 6306TIP3    H118924   5.154   4.110   3.314
 6306TIP3    H218925   5.171   4.022   3.436
 6307TIP3   OH218926   6.139   2.995   2.741
 6307TIP3    H118927   6.171   2.905   2.742
 6307TIP3    H218928   6.151   3.024   2.651
 6308TIP3   OH218929   2.093   2.199   0.147
 6308TIP3    H118930   2.131   2.266   0.091
 6308TIP3    H218931   2.000   2.220   0.151
 6309TIP3   OH218932   1.767   6.006   4.963
 6309TIP3    H118933   1.687   5.968   4.927
 6309TIP3    H218934   1.837   5.963   4.915
 6310TIP3   OH218935   2.149   1.956   2.159
 6310TIP3    H118936   2.094   1.904   2.219
 6310TIP3    H218937   2.237   1.921   2.171
 6311TIP3   OH218938   4.263   0.139   1.510
 6311TIP3    H118939   4.217   0.212   1.551
 6311TIP3    H218940   4.197   0.070   1.504
 6312TIP3   OH218941   1.079   5.133   5.061
 6312TIP3    H118942   1.074   5.133   4.966
 6312TIP3    H218943   1.103   5.043   5.085
 6313TIP3   OH218944   6.340   5.862   2.095
 6313TIP3    H118945   6.401   5.835   2.163
 6313TIP3    H218946   6.316   5.952   2.120
 6314TIP3   OH218947   1.788   5.342   3.970
 6314TIP3    H118948   1.736   5.398   3.913
 6314TIP3    H218949   1.755   5.359   4.058
 6315TIP3   OH218950   4.849   3.105   3.495
 6315TIP3    H118951   4.836   3.012   3.478
 6315TIP3    H218952   4.911   3.133   3.427
 6316TIP3   OH218953   3.973   0.296   3.731
 6316TIP3    H118954   4.038   0.343   3.783
 6316TIP3    H218955   4.017   0.281   3.647
 6317TIP3   OH218956   3.450   0.112   0.600
 6317TIP3    H118957   3.382   0.063   0.554
 6317TIP3    H218958   3.511   0.046   0.632
 6318TIP3   OH218959   1.998   5.182   3.274
 6318TIP3    H118960   1.944   5.139   3.340
 6318TIP3    H218961   2.077   5.129   3.269
 6319TIP3   OH218962   5.210   1.248   4.455
 6319TIP3    H118963   5.250   1.314   4.512
 6319TIP3    H218964   5.278   1.228   4.390
 6320TIP3   OH218965   0.216   5.157   1.650
 6320TIP3    H118966   0.168   5.083   1.686
 6320TIP3    H218967   0.160   5.233   1.664
 6321TIP3   OH218968   4.138   4.699   0.447
 6321TIP3    H118969   4.090   4.759   0.504
 6321TIP3    H218970   4.100   4.613   0.464
 6322TIP3   OH218971   0.097   1.687   4.727
 6322TIP3    H118972   0.068   1.604   4.763
 6322TIP3    H218973   0.018   1.742   4.726
 6323TIP3   OH218974   0.888   5.558   1.705
 6323TIP3    H118975   0.795   5.542   1.690
 6323TIP3    H218976   0.910   5.632   1.648
 6324TIP3   OH218977   2.538   2.868   1.680
 6324TIP3    H118978   2.456   2.903   1.644
 6324TIP3    H218979   2.527   2.876   1.775
 6325TIP3   OH218980   0.723   3.350  -0.020
 6325TIP3    H118981   0.667   3.375   0.053
 6325TIP3    H218982   0.670   3.288  -0.071
 6326TIP3   OH218983   2.390   1.024   0.814
 6326TIP3    H118984   2.329   0.963   0.771
 6326TIP3    H218985   2.455   1.044   0.748
 6327TIP3   OH218986   5.725   3.682   4.505
 6327TIP3    H118987   5.717   3.748   4.436
 6327TIP3    H218988   5.635   3.656   4.525
 6328TIP3   OH218989   5.578   4.395   0.445
 6328TIP3    H118990   5.484   4.395   0.460
 6328TIP3    H218991   5.597   4.307   0.412
 6329TIP3   OH218992   6.088   2.017   4.211
 6329TIP3    H118993   6.171   2.058   4.186
 6329TIP3    H218994   6.103   1.986   4.300
 6330TIP3   OH218995   1.507   2.761   0.765
 6330TIP3    H118996   1.447   2.809   0.821
 6330TIP3    H218997   1.582   2.742   0.820
 6331TIP3   OH218998   1.920   2.321   3.799
 6331TIP3    H118999   1.893   2.241   3.754
 6331TIP3    H219000   2.011   2.334   3.773
 6332TIP3   OH219001   1.932   1.608   1.360
 6332TIP3    H119002   1.971   1.648   1.282
 6332TIP3    H219003   1.986   1.530   1.377
 6333TIP3   OH219004   2.151   1.519   0.962
 6333TIP3    H119005   2.074   1.529   0.906
 6333TIP3    H219006   2.202   1.448   0.921
 6334TIP3   OH219007   3.482   5.221   2.157
 6334TIP3    H119008   3.461   5.309   2.125
 6334TIP3    H219009   3.421   5.206   2.229
 6335TIP3   OH219010   5.363   0.890   1.208
 6335TIP3    H119011   5.456   0.888   1.233
 6335TIP3    H219012   5.317   0.900   1.292
 6336TIP3   OH219013   4.347   2.588   1.877
 6336TIP3    H119014   4.383   2.520   1.934
 6336TIP3    H219015   4.410   2.594   1.805
 6337TIP3   OH219016   0.946   1.968   2.717
 6337TIP3    H119017   0.968   2.043   2.772
 6337TIP3    H219018   1.024   1.912   2.719
 6338TIP3   OH219019   1.538   5.409   4.644
 6338TIP3    H119020   1.620   5.442   4.607
 6338TIP3    H219021   1.519   5.330   4.593
 6339TIP3   OH219022   5.757   1.490   5.117
 6339TIP3    H119023   5.677   1.510   5.068
 6339TIP3    H219024   5.759   1.394   5.121
 6340TIP3   OH219025   4.172   5.588   1.847
 6340TIP3    H119026   4.103   5.533   1.885
 6340TIP3    H219027   4.216   5.627   1.923
 6341TIP3   OH219028   0.655   5.229   4.761
 6341TIP3    H119029   0.688   5.198   4.677
 6341TIP3    H219030   0.731   5.267   4.804
 6342TIP3   OH219031   5.096   1.999   2.603
 6342TIP3    H119032   5.044   1.966   2.676
 6342TIP3    H219033   5.115   1.922   2.550
 6343TIP3   OH219034   3.088   4.928   0.365
 6343TIP3    H119035   3.007   4.892   0.330
 6343TIP3    H219036   3.144   4.939   0.288
 6344TIP3   OH219037   6.403   4.650   1.845
 6344TIP3    H119038   6.331   4.591   1.864
 6344TIP3    H219039   6.362   4.727   1.808
 6345TIP3   OH219040   3.364   2.257   2.265
 6345TIP3    H119041   3.457   2.271   2.283
 6345TIP3    H219042   3.343   2.322   2.197
 6346TIP3   OH219043   1.565   3.556   1.711
 6346TIP3    H119044   1.659   3.573   1.720
 6346TIP3    H219045   1.537   3.526   1.797
 6347TIP3   OH219046   3.943   1.908   0.377
 6347TIP3    H119047   3.906   1.832   0.330
 6347TIP3    H219048   4.004   1.947   0.315
 6348TIP3   OH219049   1.889   1.504   0.427
 6348TIP3    H119050   1.917   1.420   0.463
 6348TIP3    H219051   1.822   1.535   0.488
 6349TIP3   OH219052   0.812   0.008   5.032
 6349TIP3    H119053   0.797   0.091   5.077
 6349TIP3    H219054   0.738  -0.047   5.058
 6350TIP3   OH219055   4.523   0.522   2.994
 6350TIP3    H119056   4.605   0.508   2.947
 6350TIP3    H219057   4.503   0.437   3.032
 6351TIP3   OH219058   1.895   5.667   0.983
 6351TIP3    H119059   1.905   5.690   1.075
 6351TIP3    H219060   1.821   5.720   0.953
 6352TIP3   OH219061   2.348   2.041   1.552
 6352TIP3    H119062   2.370   2.045   1.645
 6352TIP3    H219063   2.273   2.100   1.542
 6353TIP3   OH219064   4.134   3.314   3.162
 6353TIP3    H119065   4.161   3.230   3.126
 6353TIP3    H219066   4.083   3.355   3.093
 6354TIP3   OH219067   0.416   5.537   3.596
 6354TIP3    H119068   0.377   5.493   3.671
 6354TIP3    H219069   0.510   5.531   3.612
 6355TIP3   OH219070   0.321   2.688   0.565
 6355TIP3    H119071   0.397   2.705   0.621
 6355TIP3    H219072   0.307   2.593   0.573
 6356TIP3   OH219073   0.470   1.431   1.468
 6356TIP3    H119074   0.536   1.390   1.412
 6356TIP3    H219075   0.517   1.454   1.548
 6357TIP3   OH219076   2.806   1.939   1.702
 6357TIP3    H119077   2.866   2.009   1.678
 6357TIP3    H219078   2.728   1.955   1.648
 6358TIP3   OH219079   0.149   3.916   4.890
 6358TIP3    H119080   0.124   3.998   4.934
 6358TIP3    H219081   0.170   3.943   4.800
 6359TIP3   OH219082   0.721   5.132   2.119
 6359TIP3    H119083   0.750   5.156   2.031
 6359TIP3    H219084   0.630   5.105   2.108
 6360TIP3   OH219085   0.231   5.808   4.459
 6360TIP3    H119086   0.187   5.794   4.543
 6360TIP3    H219087   0.261   5.899   4.462
 6361TIP3   OH219088   5.831   0.380   2.041
 6361TIP3    H119089   5.746   0.347   2.012
 6361TIP3    H219090   5.813   0.467   2.076
 6362TIP3   OH219091   2.342   4.811   5.166
 6362TIP3    H119092   2.292   4.730   5.173
 6362TIP3    H219093   2.302   4.858   5.093
 6363TIP3   OH219094   3.178   4.974   4.363
 6363TIP3    H119095   3.241   4.985   4.292
 6363TIP3    H219096   3.097   4.946   4.321
 6364TIP3   OH219097   1.177   2.597   0.047
 6364TIP3    H119098   1.180   2.567  -0.044
 6364TIP3    H219099   1.145   2.521   0.096
 6365TIP3   OH219100   2.798   1.474   0.233
 6365TIP3    H119101   2.818   1.452   0.142
 6365TIP3    H219102   2.713   1.433   0.250
 6366TIP3   OH219103   1.933   1.922   0.429
 6366TIP3    H119104   1.905   1.889   0.343
 6366TIP3    H219105   2.028   1.912   0.428
 6367TIP3   OH219106   6.034   3.290   4.607
 6367TIP3    H119107   6.085   3.308   4.686
 6367TIP3    H219108   5.949   3.331   4.623
 6368TIP3   OH219109   5.807   4.504   3.960
 6368TIP3    H119110   5.825   4.413   3.982
 6368TIP3    H219111   5.712   4.506   3.946
 6369TIP3   OH219112   3.586   5.982   3.499
 6369TIP3    H119113   3.546   5.947   3.420
 6369TIP3    H219114   3.542   5.937   3.571
 6370TIP3   OH219115   3.525   1.772   3.745
 6370TIP3    H119116   3.564   1.832   3.682
 6370TIP3    H219117   3.512   1.691   3.696
 6371TIP3   OH219118   3.763   5.284   1.064
 6371TIP3    H119119   3.789   5.278   0.972
 6371TIP3    H219120   3.788   5.201   1.102
 6372TIP3   OH219121   2.111   2.945   3.249
 6372TIP3    H119122   2.140   2.976   3.335
 6372TIP3    H219123   2.068   3.020   3.209
 6373TIP3   OH219124   3.177   0.978   0.952
 6373TIP3    H119125   3.114   1.028   0.899
 6373TIP3    H219126   3.255   0.972   0.896
 6374TIP3   OH219127   4.225   5.141   0.477
 6374TIP3    H119128   4.208   5.058   0.431
 6374TIP3    H219129   4.239   5.204   0.407
 6375TIP3   OH219130   5.388   5.368   4.132
 6375TIP3    H119131   5.351   5.456   4.137
 6375TIP3    H219132   5.352   5.322   4.208
 6376TIP3   OH219133   4.335   4.855   1.228
 6376TIP3    H119134   4.327   4.777   1.282
 6376TIP3    H219135   4.293   4.924   1.279
 6377TIP3   OH219136   5.992   3.975   1.701
 6377TIP3    H119137   5.942   3.894   1.691
 6377TIP3    H219138   5.982   4.021   1.618
 6378TIP3   OH219139   1.473   3.705   3.204
 6378TIP3    H119140   1.467   3.721   3.110
 6378TIP3    H219141   1.394   3.656   3.225
 6379TIP3   OH219142   3.518   5.204   0.037
 6379TIP3    H119143   3.437   5.159   0.059
 6379TIP3    H219144   3.585   5.160   0.088
 6380TIP3   OH219145   2.821   0.648   3.909
 6380TIP3    H119146   2.857   0.633   3.821
 6380TIP3    H219147   2.894   0.683   3.959
 6381TIP3   OH219148   2.201   0.470   0.458
 6381TIP3    H119149   2.191   0.380   0.427
 6381TIP3    H219150   2.144   0.522   0.401
 6382TIP3   OH219151   0.857   3.797   5.062
 6382TIP3    H119152   0.778   3.849   5.047
 6382TIP3    H219153   0.914   3.818   4.987
 6383TIP3   OH219154   1.151   4.065   3.079
 6383TIP3    H119155   1.134   3.972   3.098
 6383TIP3    H219156   1.094   4.112   3.138
 6384TIP3   OH219157   1.125   2.553   2.362
 6384TIP3    H119158   1.096   2.611   2.291
 6384TIP3    H219159   1.220   2.555   2.357
 6385TIP3   OH219160   6.006   1.651   4.154
 6385TIP3    H119161   5.968   1.605   4.080
 6385TIP3    H219162   5.931   1.681   4.206
 6386TIP3   OH219163   4.302   4.916   2.767
 6386TIP3    H119164   4.299   4.823   2.790
 6386TIP3    H219165   4.254   4.922   2.684
 6387TIP3   OH219166   4.649   1.142   0.058
 6387TIP3    H119167   4.713   1.201   0.099
 6387TIP3    H219168   4.698   1.061   0.042
 6388TIP3   OH219169   1.967   5.449   4.341
 6388TIP3    H119170   1.954   5.360   4.373
 6388TIP3    H219171   1.908   5.457   4.266
 6389TIP3   OH219172   4.275   5.493   1.622
 6389TIP3    H119173   4.242   5.504   1.711
 6389TIP3    H219174   4.222   5.422   1.586
 6390TIP3   OH219175   4.031   0.152   0.694
 6390TIP3    H119176   3.988   0.096   0.758
 6390TIP3    H219177   4.010   0.241   0.722
 6391TIP3   OH219178   6.189   5.045   5.095
 6391TIP3    H119179   6.161   4.992   5.020
 6391TIP3    H219180   6.271   5.085   5.067
 6392TIP3   OH219181   4.580   2.882   1.462
 6392TIP3    H119182   4.642   2.955   1.452
 6392TIP3    H219183   4.540   2.896   1.547
 6393TIP3   OH219184   0.367   5.918   3.949
 6393TIP3    H119185   0.350   5.825   3.933
 6393TIP3    H219186   0.380   5.955   3.862
 6394TIP3   OH219187   2.112   1.860   4.423
 6394TIP3    H119188   2.165   1.798   4.473
 6394TIP3    H219189   2.034   1.811   4.398
 6395TIP3   OH219190   2.735   5.462   1.821
 6395TIP3    H119191   2.807   5.401   1.837
 6395TIP3    H219192   2.683   5.420   1.752
 6396TIP3   OH219193   6.330   1.240   1.532
 6396TIP3    H119194   6.238   1.241   1.558
 6396TIP3    H219195   6.331   1.207   1.443
 6397TIP3   OH219196   2.030   1.142   4.790
 6397TIP3    H119197   1.949   1.166   4.747
 6397TIP3    H219198   2.002   1.100   4.872
 6398TIP3   OH219199   3.148   4.161   3.343
 6398TIP3    H119200   3.154   4.103   3.267
 6398TIP3    H219201   3.172   4.247   3.310
 6399TIP3   OH219202   1.504   2.023   4.431
 6399TIP3    H119203   1.503   2.033   4.336
 6399TIP3    H219204   1.500   1.929   4.446
 6400TIP3   OH219205   2.566   5.848   1.301
 6400TIP3    H119206   2.575   5.828   1.394
 6400TIP3    H219207   2.642   5.902   1.281
 6401TIP3   OH219208   0.149   2.210   2.221
 6401TIP3    H119209   0.200   2.281   2.260
 6401TIP3    H219210   0.079   2.194   2.284
 6402TIP3   OH219211   3.613   5.152   4.555
 6402TIP3    H119212   3.550   5.083   4.532
 6402TIP3    H219213   3.615   5.209   4.478
 6403TIP3   OH219214   6.059   1.183   1.606
 6403TIP3    H119215   6.019   1.223   1.684
 6403TIP3    H219216   6.040   1.090   1.616
 6404TIP3   OH219217   3.826   3.490   0.708
 6404TIP3    H119218   3.776   3.565   0.677
 6404TIP3    H219219   3.775   3.413   0.682
 6405TIP3   OH219220   1.667   3.968   4.494
 6405TIP3    H119221   1.691   4.048   4.447
 6405TIP3    H219222   1.587   3.939   4.452
 6406TIP3   OH219223   4.141   3.250   3.730
 6406TIP3    H119224   4.148   3.226   3.638
 6406TIP3    H219225   4.173   3.340   3.735
 6407TIP3   OH219226   4.381   2.267   4.739
 6407TIP3    H119227   4.378   2.185   4.787
 6407TIP3    H219228   4.411   2.332   4.803
 6408TIP3   OH219229   2.637   4.303   0.554
 6408TIP3    H119230   2.632   4.398   0.563
 6408TIP3    H219231   2.547   4.273   0.569
 6409TIP3   OH219232   6.220   1.291   0.159
 6409TIP3    H119233   6.290   1.305   0.095
 6409TIP3    H219234   6.150   1.248   0.109
 6410TIP3   OH219235   4.965   2.269   2.023
 6410TIP3    H119236   4.877   2.288   2.055
 6410TIP3    H219237   4.955   2.190   1.970
 6411TIP3   OH219238   2.005   5.406   3.510
 6411TIP3    H119239   2.009   5.331   3.451
 6411TIP3    H219240   1.959   5.374   3.587
 6412TIP3   OH219241   5.854   2.982   2.534
 6412TIP3    H119242   5.892   2.908   2.582
 6412TIP3    H219243   5.761   2.980   2.558
 6413TIP3   OH219244   0.695   2.707   2.644
 6413TIP3    H119245   0.701   2.619   2.681
 6413TIP3    H219246   0.645   2.757   2.708
 6414TIP3   OH219247   4.307   5.701   1.429
 6414TIP3    H119248   4.283   5.640   1.498
 6414TIP3    H219249   4.238   5.766   1.429
 6415TIP3   OH219250   5.704   1.088   4.046
 6415TIP3    H119251   5.624   1.093   3.993
 6415TIP3    H219252   5.741   1.001   4.026
 6416TIP3   OH219253   0.233   3.326   1.336
 6416TIP3    H119254   0.282   3.349   1.257
 6416TIP3    H219255   0.163   3.269   1.305
 6417TIP3   OH219256   0.023   0.737   1.756
 6417TIP3    H119257  -0.041   0.786   1.808
 6417TIP3    H219258   0.051   0.800   1.689
 6418TIP3   OH219259   4.122   3.918   3.180
 6418TIP3    H119260   4.157   4.004   3.156
 6418TIP3    H219261   4.031   3.935   3.205
 6419TIP3   OH219262   0.558   1.328   4.163
 6419TIP3    H119263   0.643   1.283   4.154
 6419TIP3    H219264   0.581   1.419   4.183
 6420TIP3   OH219265   2.583   4.587   1.101
 6420TIP3    H119266   2.572   4.682   1.101
 6420TIP3    H219267   2.512   4.554   1.046
 6421TIP3   OH219268   1.410   4.441   2.901
 6421TIP3    H119269   1.398   4.397   2.817
 6421TIP3    H219270   1.395   4.372   2.966
 6422TIP3   OH219271   4.065   3.384   4.846
 6422TIP3    H119272   4.060   3.369   4.752
 6422TIP3    H219273   4.011   3.315   4.884
 6423TIP3   OH219274   3.266   3.360   2.585
 6423TIP3    H119275   3.280   3.311   2.504
 6423TIP3    H219276   3.216   3.302   2.641
 6424TIP3   OH219277   0.268   4.005   0.965
 6424TIP3    H119278   0.203   4.017   0.896
 6424TIP3    H219279   0.316   3.926   0.939
 6425TIP3   OH219280   0.310   4.962   4.086
 6425TIP3    H119281   0.251   4.965   4.010
 6425TIP3    H219282   0.387   5.012   4.059
 6426TIP3   OH219283   6.116   5.678   0.188
 6426TIP3    H119284   6.129   5.674   0.282
 6426TIP3    H219285   6.160   5.759   0.161
 6427TIP3   OH219286   0.024   5.199   3.833
 6427TIP3    H119287   0.116   5.196   3.858
 6427TIP3    H219288   0.020   5.265   3.764
 6428TIP3   OH219289   0.961   5.315   2.823
 6428TIP3    H119290   1.018   5.241   2.803
 6428TIP3    H219291   0.949   5.311   2.918
 6429TIP3   OH219292   3.839   0.037   3.700
 6429TIP3    H119293   3.870   0.120   3.664
 6429TIP3    H219294   3.767   0.011   3.642
 6430TIP3   OH219295   4.294   0.523   4.191
 6430TIP3    H119296   4.368   0.520   4.130
 6430TIP3    H219297   4.333   0.506   4.277
 6431TIP3   OH219298   0.520   4.902   0.911
 6431TIP3    H119299   0.584   4.957   0.957
 6431TIP3    H219300   0.508   4.826   0.968
 6432TIP3   OH219301   4.627   2.761   0.494
 6432TIP3    H119302   4.682   2.818   0.548
 6432TIP3    H219303   4.689   2.700   0.454
 6433TIP3   OH219304   1.293   1.448   4.630
 6433TIP3    H119305   1.292   1.541   4.657
 6433TIP3    H219306   1.303   1.451   4.535
 6434TIP3   OH219307   3.871   2.876   3.895
 6434TIP3    H119308   3.938   2.815   3.926
 6434TIP3    H219309   3.817   2.824   3.836
 6435TIP3   OH219310   3.640   4.785   0.568
 6435TIP3    H119311   3.564   4.800   0.625
 6435TIP3    H219312   3.604   4.787   0.479
 6436TIP3   OH219313   5.391   4.378   2.063
 6436TIP3    H119314   5.325   4.359   1.996
 6436TIP3    H219315   5.418   4.292   2.095
 6437TIP3   OH219316   1.071   3.066   4.828
 6437TIP3    H119317   1.014   3.119   4.773
 6437TIP3    H219318   1.016   2.995   4.860
 6438TIP3   OH219319   3.058   2.711   1.474
 6438TIP3    H119320   3.117   2.782   1.446
 6438TIP3    H219321   2.979   2.756   1.503
 6439TIP3   OH219322   5.035   4.878   0.046
 6439TIP3    H119323   5.028   4.783   0.040
 6439TIP3    H219324   5.120   4.899   0.007
 6440TIP3   OH219325   5.449   0.662   3.620
 6440TIP3    H119326   5.357   0.657   3.645
 6440TIP3    H219327   5.449   0.652   3.525
 6441TIP3   OH219328   1.521   0.066   4.535
 6441TIP3    H119329   1.529   0.152   4.575
 6441TIP3    H219330   1.599   0.019   4.563
 6442TIP3   OH219331   0.856   4.990   0.241
 6442TIP3    H119332   0.802   4.912   0.231
 6442TIP3    H219333   0.800   5.062   0.212
 6443TIP3   OH219334   0.603   3.314   1.323
 6443TIP3    H119335   0.672   3.265   1.277
 6443TIP3    H219336   0.531   3.320   1.260
 6444TIP3   OH219337   4.522   5.824   1.591
 6444TIP3    H119338   4.515   5.904   1.643
 6444TIP3    H219339   4.473   5.843   1.511
 6445TIP3   OH219340   2.321   5.923   5.098
 6445TIP3    H119341   2.306   5.941   5.005
 6445TIP3    H219342   2.251   5.863   5.123
 6446TIP3   OH219343   2.413   3.613   2.960
 6446TIP3    H119344   2.450   3.606   3.047
 6446TIP3    H219345   2.356   3.690   2.964
 6447TIP3   OH219346   1.060   5.767   0.534
 6447TIP3    H119347   1.028   5.682   0.505
 6447TIP3    H219348   1.111   5.800   0.460
 6448TIP3   OH219349   3.892   0.223   4.707
 6448TIP3    H119350   3.924   0.134   4.690
 6448TIP3    H219351   3.860   0.253   4.622
 6449TIP3   OH219352   5.182   4.752   2.505
 6449TIP3    H119353   5.163   4.802   2.584
 6449TIP3    H219354   5.262   4.791   2.471
 6450TIP3   OH219355   4.114   3.996   2.064
 6450TIP3    H119356   4.037   3.960   2.108
 6450TIP3    H219357   4.080   4.037   1.985
 6451TIP3   OH219358   3.331   3.422   3.652
 6451TIP3    H119359   3.403   3.430   3.716
 6451TIP3    H219360   3.271   3.359   3.692
 6452TIP3   OH219361   0.873   0.829   3.562
 6452TIP3    H119362   0.868   0.876   3.645
 6452TIP3    H219363   0.923   0.750   3.583
 6453TIP3   OH219364   5.538   4.468   1.262
 6453TIP3    H119365   5.611   4.428   1.215
 6453TIP3    H219366   5.478   4.496   1.193
 6454TIP3   OH219367   0.777   1.202   1.025
 6454TIP3    H119368   0.773   1.276   1.085
 6454TIP3    H219369   0.780   1.125   1.081
 6455TIP3   OH219370   0.850   3.634   2.128
 6455TIP3    H119371   0.820   3.616   2.039
 6455TIP3    H219372   0.771   3.662   2.174
 6456TIP3   OH219373   5.625   0.067   2.438
 6456TIP3    H119374   5.687   0.004   2.401
 6456TIP3    H219375   5.664   0.153   2.420
 6457TIP3   OH219376   6.311   3.859   2.514
 6457TIP3    H119377   6.315   3.892   2.604
 6457TIP3    H219378   6.217   3.856   2.494
 6458TIP3   OH219379   4.980   5.562   4.408
 6458TIP3    H119380   4.909   5.549   4.470
 6458TIP3    H219381   4.942   5.541   4.322
 6459TIP3   OH219382   5.833   0.146   0.438
 6459TIP3    H119383   5.891   0.093   0.493
 6459TIP3    H219384   5.794   0.210   0.498
 6460TIP3   OH219385   4.547   1.446   1.684
 6460TIP3    H119386   4.623   1.503   1.697
 6460TIP3    H219387   4.524   1.416   1.772
 6461TIP3   OH219388   1.777   2.908   2.290
 6461TIP3    H119389   1.796   3.002   2.288
 6461TIP3    H219390   1.844   2.868   2.234
 6462TIP3   OH219391   4.204   4.895   4.504
 6462TIP3    H119392   4.198   4.985   4.537
 6462TIP3    H219393   4.228   4.905   4.412
 6463TIP3   OH219394   5.768   3.883   0.560
 6463TIP3    H119395   5.710   3.960   0.558
 6463TIP3    H219396   5.801   3.880   0.650
 6464TIP3   OH219397   3.055   0.812   3.339
 6464TIP3    H119398   3.089   0.741   3.285
 6464TIP3    H219399   3.133   0.861   3.367
 6465TIP3   OH219400   4.960   0.575   2.691
 6465TIP3    H119401   5.039   0.578   2.744
 6465TIP3    H219402   4.991   0.578   2.601
 6466TIP3   OH219403   1.386   3.118   1.054
 6466TIP3    H119404   1.375   3.036   1.006
 6466TIP3    H219405   1.301   3.134   1.094
 6467TIP3   OH219406   2.148   4.894   0.321
 6467TIP3    H119407   2.202   4.962   0.361
 6467TIP3    H219408   2.180   4.888   0.231
 6468TIP3   OH219409   3.308   1.288   4.133
 6468TIP3    H119410   3.247   1.221   4.103
 6468TIP3    H219411   3.273   1.319   4.216
 6469TIP3   OH219412   2.340   1.193   0.361
 6469TIP3    H119413   2.310   1.166   0.448
 6469TIP3    H219414   2.277   1.259   0.334
 6470TIP3   OH219415  -0.013   5.974   4.429
 6470TIP3    H119416  -0.030   5.883   4.403
 6470TIP3    H219417   0.034   5.966   4.512
 6471TIP3   OH219418   2.364   3.911   1.731
 6471TIP3    H119419   2.351   3.933   1.638
 6471TIP3    H219420   2.316   3.828   1.742
 6472TIP3   OH219421   5.656   1.629   4.456
 6472TIP3    H119422   5.610   1.631   4.540
 6472TIP3    H219423   5.650   1.537   4.427
 6473TIP3   OH219424   3.431   0.703   1.740
 6473TIP3    H119425   3.444   0.675   1.649
 6473TIP3    H219426   3.440   0.623   1.791
 6474TIP3   OH219427   0.820   1.582   2.730
 6474TIP3    H119428   0.786   1.510   2.783
 6474TIP3    H219429   0.912   1.559   2.716
 6475TIP3   OH219430   2.248   0.438   4.919
 6475TIP3    H119431   2.235   0.348   4.889
 6475TIP3    H219432   2.160   0.468   4.943
 6476TIP3   OH219433   5.630   1.971   5.170
 6476TIP3    H119434   5.639   1.967   5.265
 6476TIP3    H219435   5.681   2.047   5.144
 6477TIP3   OH219436   5.545   1.871   1.468
 6477TIP3    H119437   5.631   1.899   1.436
 6477TIP3    H219438   5.488   1.946   1.455
 6478TIP3   OH219439   2.208   3.583   1.470
 6478TIP3    H119440   2.176   3.514   1.412
 6478TIP3    H219441   2.239   3.651   1.411
 6479TIP3   OH219442   1.969   3.791   0.850
 6479TIP3    H119443   1.920   3.869   0.825
 6479TIP3    H219444   1.907   3.719   0.838
 6480TIP3   OH219445   4.170   4.097   4.256
 6480TIP3    H119446   4.120   4.044   4.318
 6480TIP3    H219447   4.236   4.141   4.310
 6481TIP3   OH219448   2.442   3.648   1.582
 6481TIP3    H119449   2.427   3.740   1.561
 6481TIP3    H219450   2.368   3.602   1.544
 6482TIP3   OH219451   0.673   3.824   1.604
 6482TIP3    H119452   0.634   3.762   1.666
 6482TIP3    H219453   0.598   3.866   1.562
 6483TIP3   OH219454   1.639   5.920   4.437
 6483TIP3    H119455   1.577   5.988   4.410
 6483TIP3    H219456   1.715   5.967   4.470
 6484TIP3   OH219457   4.826   4.373   4.496
 6484TIP3    H119458   4.844   4.301   4.556
 6484TIP3    H219459   4.792   4.331   4.417
 6485TIP3   OH219460   6.132   0.642   4.272
 6485TIP3    H119461   6.140   0.551   4.301
 6485TIP3    H219462   6.195   0.690   4.326
 6486TIP3   OH219463   4.653   5.822   4.310
 6486TIP3    H119464   4.637   5.836   4.217
 6486TIP3    H219465   4.632   5.729   4.324
 6487TIP3   OH219466   4.928   1.992   1.343
 6487TIP3    H119467   4.862   2.062   1.348
 6487TIP3    H219468   4.880   1.913   1.367
 6488TIP3   OH219469   4.405   5.069   3.450
 6488TIP3    H119470   4.326   5.054   3.398
 6488TIP3    H219471   4.462   5.121   3.394
 6489TIP3   OH219472   1.026   5.845   5.074
 6489TIP3    H119473   1.036   5.896   4.994
 6489TIP3    H219474   1.116   5.828   5.103
 6490TIP3   OH219475   0.898   4.340   2.137
 6490TIP3    H119476   0.945   4.310   2.060
 6490TIP3    H219477   0.807   4.347   2.108
 6491TIP3   OH219478   5.086   0.387   3.888
 6491TIP3    H119479   5.106   0.434   3.969
 6491TIP3    H219480   5.171   0.363   3.853
 6492TIP3   OH219481   5.496   1.704   1.162
 6492TIP3    H119482   5.450   1.622   1.184
 6492TIP3    H219483   5.530   1.735   1.246
 6493TIP3   OH219484   5.302   0.351   2.688
 6493TIP3    H119485   5.290   0.256   2.689
 6493TIP3    H219486   5.284   0.376   2.597
 6494TIP3   OH219487   0.046   1.058   3.687
 6494TIP3    H119488   0.118   1.118   3.704
 6494TIP3    H219489   0.055   0.990   3.754
 6495TIP3   OH219490   4.438   3.515   0.833
 6495TIP3    H119491   4.395   3.429   0.835
 6495TIP3    H219492   4.530   3.496   0.849
 6496TIP3   OH219493   3.231   6.025   3.393
 6496TIP3    H119494   3.181   6.045   3.314
 6496TIP3    H219495   3.299   5.965   3.364
 6497TIP3   OH219496   0.289   4.085   3.881
 6497TIP3    H119497   0.315   4.112   3.969
 6497TIP3    H219498   0.230   4.011   3.896
 6498TIP3   OH219499   2.709   2.342   0.421
 6498TIP3    H119500   2.671   2.383   0.343
 6498TIP3    H219501   2.800   2.371   0.421
 6499TIP3   OH219502   2.027   0.035   3.657
 6499TIP3    H119503   2.002  -0.021   3.731
 6499TIP3    H219504   2.100  -0.010   3.615
 6500TIP3   OH219505   4.343   2.092   2.431
 6500TIP3    H119506   4.308   2.022   2.375
 6500TIP3    H219507   4.381   2.046   2.506
 6501TIP3   OH219508   1.329   2.778   1.392
 6501TIP3    H119509   1.260   2.727   1.348
 6501TIP3    H219510   1.286   2.857   1.422
 6502TIP3   OH219511   1.850   4.370   2.930
 6502TIP3    H119512   1.925   4.425   2.953
 6502TIP3    H219513   1.833   4.317   3.008
 6503TIP3   OH219514   0.990   1.428   1.728
 6503TIP3    H119515   0.995   1.513   1.684
 6503TIP3    H219516   1.074   1.387   1.711
 6504TIP3   OH219517   4.374   1.638   3.311
 6504TIP3    H119518   4.364   1.685   3.228
 6504TIP3    H219519   4.400   1.550   3.285
 6505TIP3   OH219520   4.282   3.070   1.819
 6505TIP3    H119521   4.239   3.152   1.842
 6505TIP3    H219522   4.236   3.004   1.871
 6506TIP3   OH219523   3.514   5.565   3.377
 6506TIP3    H119524   3.435   5.518   3.351
 6506TIP3    H219525   3.508   5.571   3.472
 6507TIP3   OH219526   0.080   1.072   2.945
 6507TIP3    H119527   0.001   1.123   2.928
 6507TIP3    H219528   0.142   1.135   2.983
 6508TIP3   OH219529   3.232   0.520   4.714
 6508TIP3    H119530   3.207   0.515   4.807
 6508TIP3    H219531   3.194   0.603   4.684
 6509TIP3   OH219532   5.982   2.242   3.177
 6509TIP3    H119533   5.901   2.234   3.128
 6509TIP3    H219534   6.036   2.169   3.148
 6510TIP3   OH219535   2.683   3.771   1.622
 6510TIP3    H119536   2.600   3.730   1.600
 6510TIP3    H219537   2.696   3.752   1.715
 6511TIP3   OH219538   3.614   2.336   2.397
 6511TIP3    H119539   3.697   2.375   2.369
 6511TIP3    H219540   3.632   2.242   2.399
 6512TIP3   OH219541   5.125   0.486   4.980
 6512TIP3    H119542   5.129   0.573   5.018
 6512TIP3    H219543   5.081   0.432   5.046
 6513TIP3   OH219544   4.411   3.904   1.087
 6513TIP3    H119545   4.411   3.956   1.167
 6513TIP3    H219546   4.425   3.814   1.116
 6514TIP3   OH219547   1.946   4.128   1.241
 6514TIP3    H119548   2.017   4.184   1.211
 6514TIP3    H219549   1.964   4.113   1.333
 6515TIP3   OH219550   3.105   4.976   2.451
 6515TIP3    H119551   3.058   4.894   2.437
 6515TIP3    H219552   3.059   5.040   2.397
 6516TIP3   OH219553   2.738   5.526   4.048
 6516TIP3    H119554   2.679   5.533   3.973
 6516TIP3    H219555   2.719   5.440   4.086
 6517TIP3   OH219556   5.207   0.042   3.145
 6517TIP3    H119557   5.282   0.005   3.098
 6517TIP3    H219558   5.158   0.090   3.078
 6518TIP3   OH219559   2.230   4.126   0.350
 6518TIP3    H119560   2.292   4.070   0.397
 6518TIP3    H219561   2.157   4.137   0.412
 6519TIP3   OH219562   2.324   5.615   4.383
 6519TIP3    H119563   2.385   5.678   4.345
 6519TIP3    H219564   2.325   5.540   4.322
 6520TIP3   OH219565   0.614   4.115   3.992
 6520TIP3    H119566   0.588   4.029   3.960
 6520TIP3    H219567   0.661   4.155   3.919
 6521TIP3   OH219568   1.876   5.440   2.905
 6521TIP3    H119569   1.802   5.471   2.853
 6521TIP3    H219570   1.843   5.363   2.951
 6522TIP3   OH219571   0.594   5.087   4.068
 6522TIP3    H119572   0.648   5.088   4.147
 6522TIP3    H219573   0.589   4.994   4.044
 6523TIP3   OH219574   0.744   3.880   3.175
 6523TIP3    H119575   0.651   3.870   3.153
 6523TIP3    H219576   0.776   3.791   3.185
 6524TIP3   OH219577   3.156   1.967   0.404
 6524TIP3    H119578   3.127   1.931   0.487
 6524TIP3    H219579   3.196   1.892   0.358
 6525TIP3   OH219580   5.299   4.094   0.942
 6525TIP3    H119581   5.363   4.044   0.994
 6525TIP3    H219582   5.237   4.128   1.007
 6526TIP3   OH219583   5.496   0.853   2.624
 6526TIP3    H119584   5.589   0.877   2.621
 6526TIP3    H219585   5.456   0.900   2.551
 6527TIP3   OH219586   0.499   0.364   0.145
 6527TIP3    H119587   0.449   0.294   0.187
 6527TIP3    H219588   0.589   0.329   0.139
 6528TIP3   OH219589   0.063   1.605   0.025
 6528TIP3    H119590   0.083   1.512   0.017
 6528TIP3    H219591  -0.031   1.608   0.044
 6529TIP3   OH219592   4.780   3.734   0.680
 6529TIP3    H119593   4.756   3.736   0.772
 6529TIP3    H219594   4.720   3.671   0.641
 6530TIP3   OH219595   2.049   3.661   3.086
 6530TIP3    H119596   1.978   3.713   3.124
 6530TIP3    H219597   2.110   3.726   3.051
 6531TIP3   OH219598   3.171   3.863   0.401
 6531TIP3    H119599   3.092   3.905   0.369
 6531TIP3    H219600   3.202   3.920   0.472
 6532TIP3   OH219601   3.363   2.929   2.247
 6532TIP3    H119602   3.418   2.992   2.294
 6532TIP3    H219603   3.397   2.843   2.272
 6533TIP3   OH219604   4.859   5.139   1.667
 6533TIP3    H119605   4.843   5.203   1.598
 6533TIP3    H219606   4.950   5.112   1.655
 6534TIP3   OH219607   2.341   5.512   3.224
 6534TIP3    H119608   2.333   5.492   3.317
 6534TIP3    H219609   2.396   5.590   3.221
 6535TIP3   OH219610   3.190   5.156   3.837
 6535TIP3    H119611   3.232   5.174   3.921
 6535TIP3    H219612   3.255   5.106   3.788
 6536TIP3   OH219613   3.662   0.231   4.118
 6536TIP3    H119614   3.754   0.208   4.113
 6536TIP3    H219615   3.642   0.269   4.032
 6537TIP3   OH219616   0.613   2.699   3.086
 6537TIP3    H119617   0.628   2.693   3.180
 6537TIP3    H219618   0.698   2.721   3.049
 6538TIP3   OH219619   4.594   2.411   1.861
 6538TIP3    H119620   4.581   2.491   1.810
 6538TIP3    H219621   4.572   2.340   1.801
 6539TIP3   OH219622   3.454   1.135   2.198
 6539TIP3    H119623   3.475   1.221   2.234
 6539TIP3    H219624   3.396   1.095   2.264
 6540TIP3   OH219625   5.013   0.786   0.666
 6540TIP3    H119626   5.043   0.750   0.750
 6540TIP3    H219627   5.077   0.853   0.645
 6541TIP3   OH219628   4.592   2.783   4.025
 6541TIP3    H119629   4.615   2.855   3.966
 6541TIP3    H219630   4.652   2.712   4.000
 6542TIP3   OH219631   0.307   3.636   1.941
 6542TIP3    H119632   0.258   3.680   1.871
 6542TIP3    H219633   0.275   3.676   2.022
 6543TIP3   OH219634   5.726   4.913   4.996
 6543TIP3    H119635   5.717   5.005   5.019
 6543TIP3    H219636   5.671   4.902   4.918
 6544TIP3   OH219637   0.584   4.608   3.213
 6544TIP3    H119638   0.612   4.649   3.131
 6544TIP3    H219639   0.489   4.603   3.206
 6545TIP3   OH219640   4.475   4.019   2.970
 6545TIP3    H119641   4.477   3.977   3.056
 6545TIP3    H219642   4.565   4.050   2.957
 6546TIP3   OH219643   2.370   0.173   1.561
 6546TIP3    H119644   2.337   0.155   1.649
 6546TIP3    H219645   2.296   0.154   1.504
 6547TIP3   OH219646   5.549   4.131   1.290
 6547TIP3    H119647   5.593   4.164   1.368
 6547TIP3    H219648   5.456   4.145   1.308
 6548TIP3   OH219649   3.387   2.821   0.831
 6548TIP3    H119650   3.298   2.842   0.805
 6548TIP3    H219651   3.382   2.804   0.925
 6549TIP3   OH219652   5.517   5.621   1.951
 6549TIP3    H119653   5.606   5.630   1.986
 6549TIP3    H219654   5.460   5.629   2.027
 6550TIP3   OH219655   2.580   3.953   2.777
 6550TIP3    H119656   2.486   3.952   2.795
 6550TIP3    H219657   2.618   3.894   2.842
 6551TIP3   OH219658   5.527   3.983   1.071
 6551TIP3    H119659   5.584   3.910   1.095
 6551TIP3    H219660   5.528   4.041   1.148
 6552TIP3   OH219661   2.203   3.477   2.621
 6552TIP3    H119662   2.292   3.472   2.657
 6552TIP3    H219663   2.211   3.446   2.531
 6553TIP3   OH219664   4.001   5.860   2.465
 6553TIP3    H119665   4.082   5.908   2.446
 6553TIP3    H219666   3.961   5.907   2.537
 6554TIP3   OH219667   3.753   4.518   4.660
 6554TIP3    H119668   3.708   4.558   4.586
 6554TIP3    H219669   3.711   4.433   4.671
 6555TIP3   OH219670   0.651   5.443   3.027
 6555TIP3    H119671   0.703   5.379   3.076
 6555TIP3    H219672   0.675   5.427   2.936
 6556TIP3   OH219673   2.173   2.993   2.919
 6556TIP3    H119674   2.085   3.021   2.943
 6556TIP3    H219675   2.188   2.914   2.971
 6557TIP3   OH219676   6.210   2.459   2.817
 6557TIP3    H119677   6.177   2.426   2.734
 6557TIP3    H219678   6.185   2.551   2.818
 6558TIP3   OH219679   2.765   4.157   4.215
 6558TIP3    H119680   2.715   4.190   4.140
 6558TIP3    H219681   2.857   4.166   4.189
 6559TIP3   OH219682   4.285   1.193   2.096
 6559TIP3    H119683   4.377   1.178   2.074
 6559TIP3    H219684   4.263   1.121   2.156
 6560TIP3   OH219685   5.757   0.777   3.074
 6560TIP3    H119686   5.693   0.715   3.041
 6560TIP3    H219687   5.721   0.863   3.052
 6561TIP3   OH219688   5.951   4.990   0.819
 6561TIP3    H119689   5.993   5.075   0.835
 6561TIP3    H219690   5.905   4.970   0.900
 6562TIP3   OH219691   2.856   0.096   1.059
 6562TIP3    H119692   2.864   0.162   1.128
 6562TIP3    H219693   2.774   0.117   1.015
 6563TIP3   OH219694   5.366   0.787   0.142
 6563TIP3    H119695   5.416   0.867   0.161
 6563TIP3    H219696   5.276   0.810   0.163
 6564TIP3   OH219697   0.434   4.347   4.006
 6564TIP3    H119698   0.487   4.410   4.053
 6564TIP3    H219699   0.487   4.267   4.003
 6565TIP3   OH219700   4.715   4.068   3.257
 6565TIP3    H119701   4.737   3.978   3.282
 6565TIP3    H219702   4.775   4.122   3.308
 6566TIP3   OH219703   1.747   1.366   3.140
 6566TIP3    H119704   1.677   1.335   3.083
 6566TIP3    H219705   1.716   1.452   3.170
 6567TIP3   OH219706   2.306   5.648   4.945
 6567TIP3    H119707   2.388   5.695   4.959
 6567TIP3    H219708   2.275   5.677   4.860
 6568TIP3   OH219709   5.447   4.829   2.396
 6568TIP3    H119710   5.528   4.879   2.389
 6568TIP3    H219711   5.467   4.745   2.353
 6569TIP3   OH219712   5.389   3.891   4.768
 6569TIP3    H119713   5.350   3.958   4.824
 6569TIP3    H219714   5.314   3.848   4.726
 6570TIP3   OH219715   2.888   0.961   2.681
 6570TIP3    H119716   2.796   0.988   2.686
 6570TIP3    H219717   2.884   0.869   2.657
 6571TIP3   OH219718   3.431   4.236   0.168
 6571TIP3    H119719   3.443   4.295   0.243
 6571TIP3    H219720   3.396   4.292   0.099
 6572TIP3   OH219721   3.511   1.497   3.623
 6572TIP3    H119722   3.468   1.437   3.684
 6572TIP3    H219723   3.498   1.457   3.537
 6573TIP3   OH219724   4.938   2.570   1.081
 6573TIP3    H119725   5.022   2.540   1.114
 6573TIP3    H219726   4.902   2.624   1.152
 6574TIP3   OH219727   6.189   5.732   3.532
 6574TIP3    H119728   6.097   5.752   3.517
 6574TIP3    H219729   6.226   5.719   3.445
 6575TIP3   OH219730   3.813   4.043   2.546
 6575TIP3    H119731   3.838   4.101   2.618
 6575TIP3    H219732   3.891   3.990   2.528
 6576TIP3   OH219733   3.888   3.856   1.549
 6576TIP3    H119734   3.827   3.929   1.565
 6576TIP3    H219735   3.974   3.898   1.545
 6577TIP3   OH219736   1.609   4.539   1.191
 6577TIP3    H119737   1.567   4.548   1.276
 6577TIP3    H219738   1.633   4.446   1.186
 6578TIP3   OH219739   3.996   1.671   0.071
 6578TIP3    H119740   3.925   1.672   0.135
 6578TIP3    H219741   3.957   1.706  -0.009
 6579TIP3   OH219742   3.514   5.464   2.643
 6579TIP3    H119743   3.486   5.412   2.568
 6579TIP3    H219744   3.442   5.457   2.705
 6580TIP3   OH219745   2.337   5.452   2.532
 6580TIP3    H119746   2.272   5.492   2.474
 6580TIP3    H219747   2.290   5.434   2.613
 6581TIP3   OH219748   0.175   5.014   1.410
 6581TIP3    H119749   0.207   5.059   1.489
 6581TIP3    H219750   0.247   5.023   1.347
 6582TIP3   OH219751   3.464   0.627   2.669
 6582TIP3    H119752   3.478   0.704   2.725
 6582TIP3    H219753   3.373   0.602   2.684
 6583TIP3   OH219754   2.573   1.961   3.076
 6583TIP3    H119755   2.659   1.972   3.036
 6583TIP3    H219756   2.552   2.048   3.112
 6584TIP3   OH219757   5.814   5.357   2.499
 6584TIP3    H119758   5.790   5.365   2.406
 6584TIP3    H219759   5.778   5.273   2.526
 6585TIP3   OH219760   5.199   1.929   1.590
 6585TIP3    H119761   5.226   1.972   1.672
 6585TIP3    H219762   5.117   1.884   1.613
 6586TIP3   OH219763   2.058   4.200   2.703
 6586TIP3    H119764   1.994   4.169   2.639
 6586TIP3    H219765   2.137   4.151   2.683
 6587TIP3   OH219766   3.272   0.680   0.548
 6587TIP3    H119767   3.200   0.740   0.567
 6587TIP3    H219768   3.298   0.700   0.458
 6588TIP3   OH219769   0.052   1.252   2.279
 6588TIP3    H119770   0.018   1.341   2.287
 6588TIP3    H219771   0.141   1.263   2.246
 6589TIP3   OH219772   5.864   3.986   2.296
 6589TIP3    H119773   5.948   4.023   2.324
 6589TIP3    H219774   5.798   4.039   2.342
 6590TIP3   OH219775   3.742   4.240   4.124
 6590TIP3    H119776   3.728   4.261   4.031
 6590TIP3    H219777   3.834   4.261   4.140
 6591TIP3   OH219778   2.875   4.586   5.232
 6591TIP3    H119779   2.869   4.514   5.169
 6591TIP3    H219780   2.796   4.638   5.215
 6592TIP3   OH219781   2.789   3.231   0.066
 6592TIP3    H119782   2.777   3.181   0.146
 6592TIP3    H219783   2.857   3.296   0.087
 6593TIP3   OH219784   2.408   5.992   0.947
 6593TIP3    H119785   2.359   5.976   1.028
 6593TIP3    H219786   2.401   5.911   0.898
 6594TIP3   OH219787   2.345   5.654   1.457
 6594TIP3    H119788   2.282   5.673   1.388
 6594TIP3    H219789   2.293   5.652   1.538
 6595TIP3   OH219790   2.822   4.061   4.677
 6595TIP3    H119791   2.849   4.127   4.614
 6595TIP3    H219792   2.846   3.978   4.636
 6596TIP3   OH219793   3.555   4.095   2.389
 6596TIP3    H119794   3.527   4.036   2.319
 6596TIP3    H219795   3.597   4.038   2.453
 6597TIP3   OH219796   0.722   5.395   2.778
 6597TIP3    H119797   0.706   5.362   2.690
 6597TIP3    H219798   0.814   5.376   2.794
 6598TIP3   OH219799   2.539   2.193   5.158
 6598TIP3    H119800   2.595   2.206   5.081
 6598TIP3    H219801   2.464   2.145   5.125
 6599TIP3   OH219802   1.321   4.788   3.552
 6599TIP3    H119803   1.235   4.746   3.557
 6599TIP3    H219804   1.320   4.853   3.623
 6600TIP3   OH219805   0.399   4.957   2.439
 6600TIP3    H119806   0.380   4.989   2.351
 6600TIP3    H219807   0.362   5.025   2.497
 6601TIP3   OH219808   3.667   4.261   4.603
 6601TIP3    H119809   3.759   4.266   4.581
 6601TIP3    H219810   3.630   4.201   4.538
 6602TIP3   OH219811   0.014   4.902   0.986
 6602TIP3    H119812   0.064   4.877   0.909
 6602TIP3    H219813   0.061   4.863   1.059
 6603TIP3   OH219814   2.625   3.303   4.480
 6603TIP3    H119815   2.695   3.266   4.427
 6603TIP3    H219816   2.670   3.341   4.556
 6604TIP3   OH219817   5.750   0.112   4.004
 6604TIP3    H119818   5.767   0.150   3.918
 6604TIP3    H219819   5.829   0.061   4.023
 6605TIP3   OH219820   1.436   2.073   3.739
 6605TIP3    H119821   1.370   2.097   3.674
 6605TIP3    H219822   1.399   2.105   3.822
 6606TIP3   OH219823   6.313   1.009   0.002
 6606TIP3    H119824   6.390   0.961   0.034
 6606TIP3    H219825   6.239   0.952   0.023
 6607TIP3   OH219826   5.314   3.848   5.071
 6607TIP3    H119827   5.384   3.787   5.047
 6607TIP3    H219828   5.241   3.825   5.014
 6608TIP3   OH219829   3.980   5.035   1.534
 6608TIP3    H119830   3.904   5.040   1.593
 6608TIP3    H219831   4.009   4.944   1.541
 6609TIP3   OH219832   0.107   2.670   4.627
 6609TIP3    H119833   0.110   2.697   4.719
 6609TIP3    H219834   0.198   2.677   4.597
 6610TIP3   OH219835   6.002   2.732   1.484
 6610TIP3    H119836   6.092   2.741   1.517
 6610TIP3    H219837   5.960   2.674   1.547
 6611TIP3   OH219838   4.154   3.714   3.006
 6611TIP3    H119839   4.064   3.730   2.979
 6611TIP3    H219840   4.171   3.778   3.075
 6612TIP3   OH219841   6.066   3.283   3.970
 6612TIP3    H119842   6.052   3.361   3.915
 6612TIP3    H219843   6.161   3.270   3.970
 6613TIP3   OH219844   2.506   4.020   3.869
 6613TIP3    H119845   2.428   4.034   3.923
 6613TIP3    H219846   2.579   4.041   3.926
 6614TIP3   OH219847   2.339   2.171   0.833
 6614TIP3    H119848   2.351   2.186   0.926
 6614TIP3    H219849   2.301   2.252   0.800
 6615TIP3   OH219850   0.028   5.405   3.638
 6615TIP3    H119851   0.093   5.366   3.579
 6615TIP3    H219852   0.056   5.496   3.648
 6616TIP3   OH219853   0.216   1.264   0.905
 6616TIP3    H119854   0.220   1.293   0.813
 6616TIP3    H219855   0.148   1.197   0.906
 6617TIP3   OH219856   0.407   5.373   1.157
 6617TIP3    H119857   0.317   5.371   1.125
 6617TIP3    H219858   0.430   5.466   1.160
 6618TIP3   OH219859   4.108   0.409   3.994
 6618TIP3    H119860   4.189   0.456   3.970
 6618TIP3    H219861   4.098   0.425   4.088
 6619TIP3   OH219862   5.767   0.324   2.361
 6619TIP3    H119863   5.831   0.318   2.290
 6619TIP3    H219864   5.690   0.363   2.320
 6620TIP3   OH219865   1.537   0.859   2.775
 6620TIP3    H119866   1.476   0.916   2.822
 6620TIP3    H219867   1.493   0.839   2.693
 6621TIP3   OH219868   4.365   5.495   3.768
 6621TIP3    H119869   4.390   5.521   3.679
 6621TIP3    H219870   4.384   5.401   3.771
 6622TIP3   OH219871   1.589   3.069   0.503
 6622TIP3    H119872   1.659   3.083   0.566
 6622TIP3    H219873   1.634   3.046   0.422
 6623TIP3   OH219874   1.925   1.655   3.255
 6623TIP3    H119875   1.980   1.581   3.280
 6623TIP3    H219876   1.972   1.697   3.183
 6624TIP3   OH219877   6.215   3.102   1.752
 6624TIP3    H119878   6.232   3.185   1.798
 6624TIP3    H219879   6.133   3.117   1.706
 6625TIP3   OH219880   2.425   2.093   1.813
 6625TIP3    H119881   2.456   2.095   1.903
 6625TIP3    H219882   2.421   2.185   1.786
 6626TIP3   OH219883   2.490   1.047   4.015
 6626TIP3    H119884   2.534   0.978   4.065
 6626TIP3    H219885   2.527   1.040   3.927
 6627TIP3   OH219886   5.196   3.213   4.061
 6627TIP3    H119887   5.155   3.269   3.995
 6627TIP3    H219888   5.132   3.144   4.077
 6628TIP3   OH219889   3.888   2.624   4.197
 6628TIP3    H119890   3.971   2.649   4.156
 6628TIP3    H219891   3.911   2.552   4.256
 6629TIP3   OH219892   0.211   0.037   4.010
 6629TIP3    H119893   0.161   0.009   3.933
 6629TIP3    H219894   0.281  -0.027   4.018
 6630TIP3   OH219895   6.073   0.804   0.908
 6630TIP3    H119896   6.085   0.767   0.996
 6630TIP3    H219897   6.156   0.786   0.864
 6631TIP3   OH219898   3.368   1.027   4.555
 6631TIP3    H119899   3.423   0.953   4.581
 6631TIP3    H219900   3.405   1.102   4.602
 6632TIP3   OH219901   1.449   5.711   4.621
 6632TIP3    H119902   1.489   5.720   4.535
 6632TIP3    H219903   1.389   5.637   4.612
 6633TIP3   OH219904   5.875   3.862   2.618
 6633TIP3    H119905   5.837   3.841   2.702
 6633TIP3    H219906   5.944   3.797   2.605
 6634TIP3   OH219907   5.196   4.510   2.320
 6634TIP3    H119908   5.198   4.573   2.392
 6634TIP3    H219909   5.287   4.484   2.307
 6635TIP3   OH219910   3.092   1.574   3.453
 6635TIP3    H119911   3.158   1.637   3.424
 6635TIP3    H219912   3.010   1.609   3.418
 6636TIP3   OH219913   5.690   4.077   3.456
 6636TIP3    H119914   5.700   4.029   3.539
 6636TIP3    H219915   5.601   4.057   3.427
 6637TIP3   OH219916   3.075   4.397   4.216
 6637TIP3    H119917   3.100   4.385   4.308
 6637TIP3    H219918   2.999   4.455   4.219
 6638TIP3   OH219919   2.642   4.085   5.104
 6638TIP3    H119920   2.696   4.119   5.176
 6638TIP3    H219921   2.669   3.994   5.094
 6639TIP3   OH219922   3.611   0.056   0.855
 6639TIP3    H119923   3.517   0.051   0.869
 6639TIP3    H219924   3.649   0.060   0.942
 6640TIP3   OH219925   5.241   4.783   4.622
 6640TIP3    H119926   5.210   4.872   4.604
 6640TIP3    H219927   5.162   4.730   4.621
 6641TIP3   OH219928   0.907   5.291   3.984
 6641TIP3    H119929   0.831   5.248   3.944
 6641TIP3    H219930   0.893   5.281   4.078
 6642TIP3   OH219931   3.422   0.884   3.522
 6642TIP3    H119932   3.509   0.881   3.563
 6642TIP3    H219933   3.433   0.835   3.441
 6643TIP3   OH219934   1.797   1.044   0.376
 6643TIP3    H119935   1.716   1.048   0.325
 6643TIP3    H219936   1.798   0.956   0.414
 6644TIP3   OH219937   6.159   5.438   0.917
 6644TIP3    H119938   6.124   5.521   0.948
 6644TIP3    H219939   6.114   5.372   0.970
 6645TIP3   OH219940   5.918   3.126   4.888
 6645TIP3    H119941   6.009   3.129   4.860
 6645TIP3    H219942   5.871   3.177   4.822
   6.35046   5.98727   5.18513   0.00000   0.00000  -2.11683   0.00000  -2.11683  -2.99363
