* SET NIONTYPES = 1
* SET NPOSTOT = 35
* SET NNEGTOT = 32
* SET NIONTOT = 67
*  DATE:     6/13/26      9:42:51      CREATED BY USER: charmm-gui
*
        67  EXT
         1         1  SOD       SOD             3.8123776199      -34.0215192468      -21.0291812207  IONS      1               1.0000000000
         2         2  SOD       SOD           -22.7798221594       13.8993864979      -13.8707298766  IONS      2               1.0000000000
         3         3  SOD       SOD            25.2891272817       11.3475688166       24.1379423932  IONS      3               1.0000000000
         4         4  SOD       SOD            -5.0413560420      -25.2004679018       -2.2675997854  IONS      4               1.0000000000
         5         5  SOD       SOD           -15.9712048640       18.4323650280      -39.2120225598  IONS      5               1.0000000000
         6         6  SOD       SOD            -9.0204160043        1.6751943595       -3.8187051057  IONS      6               1.0000000000
         7         7  SOD       SOD            30.9293820417       18.9963735702      -29.0414719108  IONS      7               1.0000000000
         8         8  SOD       SOD             7.3013152038        5.8765305660      -34.1869490000  IONS      8               1.0000000000
         9         9  SOD       SOD           -16.8447120081      -15.2043806945      -34.5345999974  IONS      9               1.0000000000
        10        10  SOD       SOD            -9.6725267178       16.0389087579       35.1758360804  IONS      10              1.0000000000
        11        11  SOD       SOD            31.2484017885       -4.4117908442      -25.6648603031  IONS      11              1.0000000000
        12        12  SOD       SOD            -6.2472077734       23.9788254161      -21.9448865974  IONS      12              1.0000000000
        13        13  SOD       SOD            38.7908128804       -2.1929488624       23.6952135639  IONS      13              1.0000000000
        14        14  SOD       SOD            10.0370999857       18.4892368092       -7.3718155768  IONS      14              1.0000000000
        15        15  SOD       SOD            -4.0494739419      -12.8376898992       26.2726428351  IONS      15              1.0000000000
        16        16  SOD       SOD           -30.0515727991       15.0834731948      -23.7419373153  IONS      16              1.0000000000
        17        17  SOD       SOD           -18.3482690419      -16.3465678035       -3.5552765662  IONS      17              1.0000000000
        18        18  SOD       SOD           -30.9877083054       -6.1086316757       -9.3412659469  IONS      18              1.0000000000
        19        19  SOD       SOD            12.2057862139      -20.8112051580      -23.0897311992  IONS      19              1.0000000000
        20        20  SOD       SOD           -27.6538283055       -7.6138205078      -31.3851361979  IONS      20              1.0000000000
        21        21  SOD       SOD           -18.4954825812        9.8337931255       -0.7899702497  IONS      21              1.0000000000
        22        22  SOD       SOD           -28.0553025015       23.3721792379        3.1036498692  IONS      22              1.0000000000
        23        23  SOD       SOD             8.9315657461       -2.2597634528      -12.9778018227  IONS      23              1.0000000000
        24        24  SOD       SOD           -19.1677183831       -2.7236336225      -17.7084344834  IONS      24              1.0000000000
        25        25  SOD       SOD           -20.1315662347      -16.4531816142       18.4627784649  IONS      25              1.0000000000
        26        26  SOD       SOD            -3.0656997718      -12.0351763019       -5.8824647972  IONS      26              1.0000000000
        27        27  SOD       SOD           -22.3679038834        0.3537125180       -0.8999924302  IONS      27              1.0000000000
        28        28  SOD       SOD            22.0552703113      -20.0775080658       29.8531181819  IONS      28              1.0000000000
        29        29  SOD       SOD            16.7882301396        0.5854491863       27.9127537680  IONS      29              1.0000000000
        30        30  SOD       SOD            10.1180492919       23.1609599908       31.7929693728  IONS      30              1.0000000000
        31        31  SOD       SOD            -5.3363329967       -1.6939429151       -6.5883737914  IONS      31              1.0000000000
        32        32  SOD       SOD           -28.0360082851       -7.7772727404        0.9916202440  IONS      32              1.0000000000
        33        33  SOD       SOD            38.6115634177      -18.2744897545       14.9799018833  IONS      33              1.0000000000
        34        34  SOD       SOD           -22.2711545251      -40.4503706892       -3.8763651817  IONS      34              1.0000000000
        35        35  SOD       SOD            31.3677098582       11.2909695193       22.9215541831  IONS      35              1.0000000000
        36        36  CLA       CLA            24.7228030360       12.0489554650      -29.2531167143  IONS      36             -1.0000000000
        37        37  CLA       CLA            10.3892845783       -7.4286044805       -2.3821389210  IONS      37             -1.0000000000
        38        38  CLA       CLA           -23.7895129819        1.7663346256      -37.8646423716  IONS      38             -1.0000000000
        39        39  CLA       CLA           -21.8509309100       22.2912772644      -15.8244641007  IONS      39             -1.0000000000
        40        40  CLA       CLA           -14.1627480935       11.6789692442      -14.5433311686  IONS      40             -1.0000000000
        41        41  CLA       CLA           -13.6941816981      -21.2502390628       22.4981832943  IONS      41             -1.0000000000
        42        42  CLA       CLA           -19.0554259997      -16.1580258900      -30.2049793885  IONS      42             -1.0000000000
        43        43  CLA       CLA            27.1388207368       -6.0958580690       21.6572175833  IONS      43             -1.0000000000
        44        44  CLA       CLA            -8.4407959735      -16.7339910455       29.7130129864  IONS      44             -1.0000000000
        45        45  CLA       CLA             6.1133835510      -25.6514310845      -20.1409885092  IONS      45             -1.0000000000
        46        46  CLA       CLA            23.6192606099      -12.4167432966       -1.4003807882  IONS      46             -1.0000000000
        47        47  CLA       CLA            12.9301295606        7.0667657980        2.9425076779  IONS      47             -1.0000000000
        48        48  CLA       CLA           -11.0303961938      -32.7978103413       -9.3931049761  IONS      48             -1.0000000000
        49        49  CLA       CLA            34.3596492743        2.3162097064      -31.0944062860  IONS      49             -1.0000000000
        50        50  CLA       CLA           -37.0896869564       10.4460595145        6.3207011609  IONS      50             -1.0000000000
        51        51  CLA       CLA           -22.0101410986      -38.4385371088        1.4599522041  IONS      51             -1.0000000000
        52        52  CLA       CLA             4.9517412867       27.2946294938      -14.1440851161  IONS      52             -1.0000000000
        53        53  CLA       CLA            -2.2829667240      -12.9149695433        1.7538052352  IONS      53             -1.0000000000
        54        54  CLA       CLA            -6.5889094315      -29.4548993905       27.9292555854  IONS      54             -1.0000000000
        55        55  CLA       CLA            22.1927971399       29.1784445872        7.8726264358  IONS      55             -1.0000000000
        56        56  CLA       CLA            38.7623340657       -8.5271497621       18.9330993909  IONS      56             -1.0000000000
        57        57  CLA       CLA           -37.8485993198      -22.4371800652        0.1258114875  IONS      57             -1.0000000000
        58        58  CLA       CLA            15.4801400620      -28.0061739784      -26.5725468325  IONS      58             -1.0000000000
        59        59  CLA       CLA           -20.9626481018       24.5654681597        7.6156907247  IONS      59             -1.0000000000
        60        60  CLA       CLA            -8.6942331726      -19.2931638979      -33.8489344629  IONS      60             -1.0000000000
        61        61  CLA       CLA           -24.9376525034      -29.4015669991        4.0737331407  IONS      61             -1.0000000000
        62        62  CLA       CLA            33.5319902292      -11.2582735916       27.2083007205  IONS      62             -1.0000000000
        63        63  CLA       CLA             9.3361263200        6.0338825604       29.2320412936  IONS      63             -1.0000000000
        64        64  CLA       CLA            -4.8803097872       20.1959392862       41.5842318491  IONS      64             -1.0000000000
        65        65  CLA       CLA             4.4719382798      -38.4698375518        3.8274908690  IONS      65             -1.0000000000
        66        66  CLA       CLA            10.8936026783       26.6677565709       25.7785679589  IONS      66             -1.0000000000
        67        67  CLA       CLA           -15.8173100561       23.7041754250      -24.9032941180  IONS      67             -1.0000000000
