PSF EXT CMAP XPLOR

         3 !NTITLE
* GENERATED BY CHARMM-GUI (HTTP://WWW.CHARMM-GUI.ORG) V3.7 ON JUN, 13. 2026. JOB
* READ PDB, MANIPULATE STRUCTURE IF NEEDED, AND GENERATE TOPOLOGY FILE          
*  DATE:     6/13/26      9:38: 8      CREATED BY USER: charmm-gui              

       135 !NATOM
         1 PROA     1        SER      N        NH3     -0.300000       14.0070           0
         2 PROA     1        SER      HT1      HC       0.330000       1.00800           0
         3 PROA     1        SER      HT2      HC       0.330000       1.00800           0
         4 PROA     1        SER      HT3      HC       0.330000       1.00800           0
         5 PROA     1        SER      CA       CT1      0.210000       12.0110           0
         6 PROA     1        SER      HA       HB1      0.100000       1.00800           0
         7 PROA     1        SER      CB       CT2      0.500000E-01   12.0110           0
         8 PROA     1        SER      HB1      HA2      0.900000E-01   1.00800           0
         9 PROA     1        SER      HB2      HA2      0.900000E-01   1.00800           0
        10 PROA     1        SER      OG       OH1     -0.660000       15.9994           0
        11 PROA     1        SER      HG1      H        0.430000       1.00800           0
        12 PROA     1        SER      C        C        0.510000       12.0110           0
        13 PROA     1        SER      O        O       -0.510000       15.9994           0
        14 PROA     2        GLY      N        NH1     -0.470000       14.0070           0
        15 PROA     2        GLY      HN       H        0.310000       1.00800           0
        16 PROA     2        GLY      CA       CT2     -0.200000E-01   12.0110           0
        17 PROA     2        GLY      HA1      HB2      0.900000E-01   1.00800           0
        18 PROA     2        GLY      HA2      HB2      0.900000E-01   1.00800           0
        19 PROA     2        GLY      C        C        0.510000       12.0110           0
        20 PROA     2        GLY      O        O       -0.510000       15.9994           0
        21 PROA     3        ASP      N        NH1     -0.470000       14.0070           0
        22 PROA     3        ASP      HN       H        0.310000       1.00800           0
        23 PROA     3        ASP      CA       CT1      0.700000E-01   12.0110           0
        24 PROA     3        ASP      HA       HB1      0.900000E-01   1.00800           0
        25 PROA     3        ASP      CB       CT2A    -0.280000       12.0110           0
        26 PROA     3        ASP      HB1      HA2      0.900000E-01   1.00800           0
        27 PROA     3        ASP      HB2      HA2      0.900000E-01   1.00800           0
        28 PROA     3        ASP      CG       CC       0.620000       12.0110           0
        29 PROA     3        ASP      OD1      OC      -0.760000       15.9994           0
        30 PROA     3        ASP      OD2      OC      -0.760000       15.9994           0
        31 PROA     3        ASP      C        C        0.510000       12.0110           0
        32 PROA     3        ASP      O        O       -0.510000       15.9994           0
        33 PROA     4        SER      N        NH1     -0.470000       14.0070           0
        34 PROA     4        SER      HN       H        0.310000       1.00800           0
        35 PROA     4        SER      CA       CT1      0.700000E-01   12.0110           0
        36 PROA     4        SER      HA       HB1      0.900000E-01   1.00800           0
        37 PROA     4        SER      CB       CT2      0.500000E-01   12.0110           0
        38 PROA     4        SER      HB1      HA2      0.900000E-01   1.00800           0
        39 PROA     4        SER      HB2      HA2      0.900000E-01   1.00800           0
        40 PROA     4        SER      OG       OH1     -0.660000       15.9994           0
        41 PROA     4        SER      HG1      H        0.430000       1.00800           0
        42 PROA     4        SER      C        C        0.510000       12.0110           0
        43 PROA     4        SER      O        O       -0.510000       15.9994           0
        44 PROA     5        GLY      N        NH1     -0.470000       14.0070           0
        45 PROA     5        GLY      HN       H        0.310000       1.00800           0
        46 PROA     5        GLY      CA       CT2     -0.200000E-01   12.0110           0
        47 PROA     5        GLY      HA1      HB2      0.900000E-01   1.00800           0
        48 PROA     5        GLY      HA2      HB2      0.900000E-01   1.00800           0
        49 PROA     5        GLY      C        C        0.510000       12.0110           0
        50 PROA     5        GLY      O        O       -0.510000       15.9994           0
        51 PROA     6        PRO      N        N       -0.290000       14.0070           0
        52 PROA     6        PRO      CD       CP3       0.00000       12.0110           0
        53 PROA     6        PRO      HD1      HA2      0.900000E-01   1.00800           0
        54 PROA     6        PRO      HD2      HA2      0.900000E-01   1.00800           0
        55 PROA     6        PRO      CA       CP1      0.200000E-01   12.0110           0
        56 PROA     6        PRO      HA       HB1      0.900000E-01   1.00800           0
        57 PROA     6        PRO      CB       CP2     -0.180000       12.0110           0
        58 PROA     6        PRO      HB1      HA2      0.900000E-01   1.00800           0
        59 PROA     6        PRO      HB2      HA2      0.900000E-01   1.00800           0
        60 PROA     6        PRO      CG       CP2     -0.180000       12.0110           0
        61 PROA     6        PRO      HG1      HA2      0.900000E-01   1.00800           0
        62 PROA     6        PRO      HG2      HA2      0.900000E-01   1.00800           0
        63 PROA     6        PRO      C        C        0.510000       12.0110           0
        64 PROA     6        PRO      O        O       -0.510000       15.9994           0
        65 PROA     7        GLY      N        NH1     -0.470000       14.0070           0
        66 PROA     7        GLY      HN       H        0.310000       1.00800           0
        67 PROA     7        GLY      CA       CT2     -0.200000E-01   12.0110           0
        68 PROA     7        GLY      HA1      HB2      0.900000E-01   1.00800           0
        69 PROA     7        GLY      HA2      HB2      0.900000E-01   1.00800           0
        70 PROA     7        GLY      C        C        0.510000       12.0110           0
        71 PROA     7        GLY      O        O       -0.510000       15.9994           0
        72 PROA     8        ASP      N        NH1     -0.470000       14.0070           0
        73 PROA     8        ASP      HN       H        0.310000       1.00800           0
        74 PROA     8        ASP      CA       CT1      0.700000E-01   12.0110           0
        75 PROA     8        ASP      HA       HB1      0.900000E-01   1.00800           0
        76 PROA     8        ASP      CB       CT2A    -0.280000       12.0110           0
        77 PROA     8        ASP      HB1      HA2      0.900000E-01   1.00800           0
        78 PROA     8        ASP      HB2      HA2      0.900000E-01   1.00800           0
        79 PROA     8        ASP      CG       CC       0.620000       12.0110           0
        80 PROA     8        ASP      OD1      OC      -0.760000       15.9994           0
        81 PROA     8        ASP      OD2      OC      -0.760000       15.9994           0
        82 PROA     8        ASP      C        C        0.510000       12.0110           0
        83 PROA     8        ASP      O        O       -0.510000       15.9994           0
        84 PROA     9        PRO      N        N       -0.290000       14.0070           0
        85 PROA     9        PRO      CD       CP3       0.00000       12.0110           0
        86 PROA     9        PRO      HD1      HA2      0.900000E-01   1.00800           0
        87 PROA     9        PRO      HD2      HA2      0.900000E-01   1.00800           0
        88 PROA     9        PRO      CA       CP1      0.200000E-01   12.0110           0
        89 PROA     9        PRO      HA       HB1      0.900000E-01   1.00800           0
        90 PROA     9        PRO      CB       CP2     -0.180000       12.0110           0
        91 PROA     9        PRO      HB1      HA2      0.900000E-01   1.00800           0
        92 PROA     9        PRO      HB2      HA2      0.900000E-01   1.00800           0
        93 PROA     9        PRO      CG       CP2     -0.180000       12.0110           0
        94 PROA     9        PRO      HG1      HA2      0.900000E-01   1.00800           0
        95 PROA     9        PRO      HG2      HA2      0.900000E-01   1.00800           0
        96 PROA     9        PRO      C        C        0.510000       12.0110           0
        97 PROA     9        PRO      O        O       -0.510000       15.9994           0
        98 PROA     10       GLY      N        NH1     -0.470000       14.0070           0
        99 PROA     10       GLY      HN       H        0.310000       1.00800           0
       100 PROA     10       GLY      CA       CT2     -0.200000E-01   12.0110           0
       101 PROA     10       GLY      HA1      HB2      0.900000E-01   1.00800           0
       102 PROA     10       GLY      HA2      HB2      0.900000E-01   1.00800           0
       103 PROA     10       GLY      C        C        0.510000       12.0110           0
       104 PROA     10       GLY      O        O       -0.510000       15.9994           0
       105 PROA     11       ASP      N        NH1     -0.470000       14.0070           0
       106 PROA     11       ASP      HN       H        0.310000       1.00800           0
       107 PROA     11       ASP      CA       CT1      0.700000E-01   12.0110           0
       108 PROA     11       ASP      HA       HB1      0.900000E-01   1.00800           0
       109 PROA     11       ASP      CB       CT2A    -0.280000       12.0110           0
       110 PROA     11       ASP      HB1      HA2      0.900000E-01   1.00800           0
       111 PROA     11       ASP      HB2      HA2      0.900000E-01   1.00800           0
       112 PROA     11       ASP      CG       CC       0.620000       12.0110           0
       113 PROA     11       ASP      OD1      OC      -0.760000       15.9994           0
       114 PROA     11       ASP      OD2      OC      -0.760000       15.9994           0
       115 PROA     11       ASP      C        C        0.510000       12.0110           0
       116 PROA     11       ASP      O        O       -0.510000       15.9994           0
       117 PROA     12       SER      N        NH1     -0.470000       14.0070           0
       118 PROA     12       SER      HN       H        0.310000       1.00800           0
       119 PROA     12       SER      CA       CT1      0.700000E-01   12.0110           0
       120 PROA     12       SER      HA       HB1      0.900000E-01   1.00800           0
       121 PROA     12       SER      CB       CT2      0.500000E-01   12.0110           0
       122 PROA     12       SER      HB1      HA2      0.900000E-01   1.00800           0
       123 PROA     12       SER      HB2      HA2      0.900000E-01   1.00800           0
       124 PROA     12       SER      OG       OH1     -0.660000       15.9994           0
       125 PROA     12       SER      HG1      H        0.430000       1.00800           0
       126 PROA     12       SER      C        C        0.510000       12.0110           0
       127 PROA     12       SER      O        O       -0.510000       15.9994           0
       128 PROA     13       GLY      N        NH1     -0.470000       14.0070           0
       129 PROA     13       GLY      HN       H        0.310000       1.00800           0
       130 PROA     13       GLY      CA       CT2     -0.200000E-01   12.0110           0
       131 PROA     13       GLY      HA1      HB2      0.900000E-01   1.00800           0
       132 PROA     13       GLY      HA2      HB2      0.900000E-01   1.00800           0
       133 PROA     13       GLY      C        CC       0.340000       12.0110           0
       134 PROA     13       GLY      OT1      OC      -0.670000       15.9994           0
       135 PROA     13       GLY      OT2      OC      -0.670000       15.9994           0

       136 !NBOND: bonds
         2         1         3         1         4         1         7         5
        10         7         1         5        12         5        12        14
         5         6         7         8         7         9        10        11
        13        12        14        15        14        16        19        16
        19        21        16        17        16        18        20        19
        25        23        28        25        30        28        21        22
        21        23        31        23        31        33        23        24
        25        26        25        27        32        31        28        29
        37        35        40        37        33        34        33        35
        42        35        42        44        35        36        37        38
        37        39        40        41        43        42        44        45
        44        46        49        46        49        51        46        47
        46        48        50        49        63        55        63        65
        51        55        55        57        57        60        60        52
        51        52        56        55        61        60        62        60
        53        52        54        52        58        57        59        57
        64        63        65        66        65        67        70        67
        70        72        67        68        67        69        71        70
        76        74        79        76        81        79        72        73
        72        74        82        74        82        84        74        75
        76        77        76        78        83        82        79        80
        96        88        96        98        84        88        88        90
        90        93        93        85        84        85        89        88
        94        93        95        93        86        85        87        85
        91        90        92        90        97        96        98        99
        98       100       103       100       103       105       100       101
       100       102       104       103       109       107       112       109
       114       112       105       106       105       107       115       107
       115       117       107       108       109       110       109       111
       116       115       112       113       121       119       124       121
       117       118       117       119       126       119       126       128
       119       120       121       122       121       123       124       125
       127       126       128       129       128       130       133       130
       130       131       130       132       133       135       133       134

       243 !NTHETA: angles
         2         1         3         2         1         4         2         1         5
         3         1         4         3         1         5         4         1         5
         1         5         6         1         5         7         1         5        12
         6         5         7         6         5        12         7         5        12
         5         7         8         5         7         9         5         7        10
         8         7         9         8         7        10         9         7        10
         7        10        11         5        12        13         5        12        14
        13        12        14        12        14        15        12        14        16
        15        14        16        14        16        17        14        16        18
        14        16        19        17        16        18        17        16        19
        18        16        19        16        19        20        16        19        21
        20        19        21        19        21        22        19        21        23
        22        21        23        21        23        24        21        23        25
        21        23        31        24        23        25        24        23        31
        25        23        31        23        25        26        23        25        27
        23        25        28        26        25        27        26        25        28
        27        25        28        25        28        29        25        28        30
        29        28        30        23        31        32        23        31        33
        32        31        33        31        33        34        31        33        35
        34        33        35        33        35        36        33        35        37
        33        35        42        36        35        37        36        35        42
        37        35        42        35        37        38        35        37        39
        35        37        40        38        37        39        38        37        40
        39        37        40        37        40        41        35        42        43
        35        42        44        43        42        44        42        44        45
        42        44        46        45        44        46        44        46        47
        44        46        48        44        46        49        47        46        48
        47        46        49        48        46        49        46        49        50
        46        49        51        50        49        51        49        51        52
        49        51        55        52        51        55        51        52        53
        51        52        54        51        52        60        53        52        54
        53        52        60        54        52        60        51        55        56
        51        55        57        51        55        63        56        55        57
        56        55        63        57        55        63        55        57        58
        55        57        59        55        57        60        58        57        59
        58        57        60        59        57        60        52        60        57
        52        60        61        52        60        62        57        60        61
        57        60        62        61        60        62        55        63        64
        55        63        65        64        63        65        63        65        66
        63        65        67        66        65        67        65        67        68
        65        67        69        65        67        70        68        67        69
        68        67        70        69        67        70        67        70        71
        67        70        72        71        70        72        70        72        73
        70        72        74        73        72        74        72        74        75
        72        74        76        72        74        82        75        74        76
        75        74        82        76        74        82        74        76        77
        74        76        78        74        76        79        77        76        78
        77        76        79        78        76        79        76        79        80
        76        79        81        80        79        81        74        82        83
        74        82        84        83        82        84        82        84        85
        82        84        88        85        84        88        84        85        86
        84        85        87        84        85        93        86        85        87
        86        85        93        87        85        93        84        88        89
        84        88        90        84        88        96        89        88        90
        89        88        96        90        88        96        88        90        91
        88        90        92        88        90        93        91        90        92
        91        90        93        92        90        93        85        93        90
        85        93        94        85        93        95        90        93        94
        90        93        95        94        93        95        88        96        97
        88        96        98        97        96        98        96        98        99
        96        98       100        99        98       100        98       100       101
        98       100       102        98       100       103       101       100       102
       101       100       103       102       100       103       100       103       104
       100       103       105       104       103       105       103       105       106
       103       105       107       106       105       107       105       107       108
       105       107       109       105       107       115       108       107       109
       108       107       115       109       107       115       107       109       110
       107       109       111       107       109       112       110       109       111
       110       109       112       111       109       112       109       112       113
       109       112       114       113       112       114       107       115       116
       107       115       117       116       115       117       115       117       118
       115       117       119       118       117       119       117       119       120
       117       119       121       117       119       126       120       119       121
       120       119       126       121       119       126       119       121       122
       119       121       123       119       121       124       122       121       123
       122       121       124       123       121       124       121       124       125
       119       126       127       119       126       128       127       126       128
       126       128       129       126       128       130       129       128       130
       128       130       131       128       130       132       128       130       133
       131       130       132       131       130       133       132       130       133
       130       133       134       130       133       135       134       133       135

       354 !NPHI: dihedrals
         1         5         7         8         1         5         7         9
         1         5         7        10         1         5        12        13
         1         5        12        14         2         1         5         6
         2         1         5         7         2         1         5        12
         3         1         5         6         3         1         5         7
         3         1         5        12         4         1         5         6
         4         1         5         7         4         1         5        12
         5         7        10        11         5        12        14        15
         5        12        14        16         6         5         7         8
         6         5         7         9         6         5         7        10
         6         5        12        13         6         5        12        14
         7         5        12        13         7         5        12        14
         8         7         5        12         8         7        10        11
         9         7         5        12         9         7        10        11
        10         7         5        12        12        14        16        17
        12        14        16        18        12        14        16        19
        13        12        14        15        13        12        14        16
        14        16        19        20        14        16        19        21
        15        14        16        17        15        14        16        18
        15        14        16        19        16        19        21        22
        16        19        21        23        17        16        19        20
        17        16        19        21        18        16        19        20
        18        16        19        21        19        21        23        24
        19        21        23        25        19        21        23        31
        20        19        21        22        20        19        21        23
        21        23        25        26        21        23        25        27
        21        23        25        28        21        23        31        32
        21        23        31        33        22        21        23        24
        22        21        23        25        22        21        23        31
        23        25        28        29        23        25        28        30
        23        31        33        34        23        31        33        35
        24        23        25        26        24        23        25        27
        24        23        25        28        24        23        31        32
        24        23        31        33        25        23        31        32
        25        23        31        33        26        25        23        31
        26        25        28        29        26        25        28        30
        27        25        23        31        27        25        28        29
        27        25        28        30        28        25        23        31
        31        33        35        36        31        33        35        37
        31        33        35        42        32        31        33        34
        32        31        33        35        33        35        37        38
        33        35        37        39        33        35        37        40
        33        35        42        43        33        35        42        44
        34        33        35        36        34        33        35        37
        34        33        35        42        35        37        40        41
        35        42        44        45        35        42        44        46
        36        35        37        38        36        35        37        39
        36        35        37        40        36        35        42        43
        36        35        42        44        37        35        42        43
        37        35        42        44        38        37        35        42
        38        37        40        41        39        37        35        42
        39        37        40        41        40        37        35        42
        42        44        46        47        42        44        46        48
        42        44        46        49        43        42        44        45
        43        42        44        46        44        46        49        50
        44        46        49        51        45        44        46        47
        45        44        46        48        45        44        46        49
        46        49        51        52        46        49        51        55
        47        46        49        50        47        46        49        51
        48        46        49        50        48        46        49        51
        49        51        52        53        49        51        52        54
        49        51        52        60        49        51        55        56
        49        51        55        57        49        51        55        63
        50        49        51        52        50        49        51        55
        51        52        60        57        51        52        60        61
        51        52        60        62        51        55        57        58
        51        55        57        59        51        55        57        60
        51        55        63        64        51        55        63        65
        52        51        55        56        52        51        55        57
        52        51        55        63        52        60        57        55
        52        60        57        58        52        60        57        59
        53        52        51        55        53        52        60        57
        53        52        60        61        53        52        60        62
        54        52        51        55        54        52        60        57
        54        52        60        61        54        52        60        62
        55        51        52        60        55        57        60        61
        55        57        60        62        55        63        65        66
        55        63        65        67        56        55        57        58
        56        55        57        59        56        55        57        60
        56        55        63        64        56        55        63        65
        57        55        63        64        57        55        63        65
        58        57        55        63        58        57        60        61
        58        57        60        62        59        57        55        63
        59        57        60        61        59        57        60        62
        60        57        55        63        63        65        67        68
        63        65        67        69        63        65        67        70
        64        63        65        66        64        63        65        67
        65        67        70        71        65        67        70        72
        66        65        67        68        66        65        67        69
        66        65        67        70        67        70        72        73
        67        70        72        74        68        67        70        71
        68        67        70        72        69        67        70        71
        69        67        70        72        70        72        74        75
        70        72        74        76        70        72        74        82
        71        70        72        73        71        70        72        74
        72        74        76        77        72        74        76        78
        72        74        76        79        72        74        82        83
        72        74        82        84        73        72        74        75
        73        72        74        76        73        72        74        82
        74        76        79        80        74        76        79        81
        74        82        84        85        74        82        84        88
        75        74        76        77        75        74        76        78
        75        74        76        79        75        74        82        83
        75        74        82        84        76        74        82        83
        76        74        82        84        77        76        74        82
        77        76        79        80        77        76        79        81
        78        76        74        82        78        76        79        80
        78        76        79        81        79        76        74        82
        82        84        85        86        82        84        85        87
        82        84        85        93        82        84        88        89
        82        84        88        90        82        84        88        96
        83        82        84        85        83        82        84        88
        84        85        93        90        84        85        93        94
        84        85        93        95        84        88        90        91
        84        88        90        92        84        88        90        93
        84        88        96        97        84        88        96        98
        85        84        88        89        85        84        88        90
        85        84        88        96        85        93        90        88
        85        93        90        91        85        93        90        92
        86        85        84        88        86        85        93        90
        86        85        93        94        86        85        93        95
        87        85        84        88        87        85        93        90
        87        85        93        94        87        85        93        95
        88        84        85        93        88        90        93        94
        88        90        93        95        88        96        98        99
        88        96        98       100        89        88        90        91
        89        88        90        92        89        88        90        93
        89        88        96        97        89        88        96        98
        90        88        96        97        90        88        96        98
        91        90        88        96        91        90        93        94
        91        90        93        95        92        90        88        96
        92        90        93        94        92        90        93        95
        93        90        88        96        96        98       100       101
        96        98       100       102        96        98       100       103
        97        96        98        99        97        96        98       100
        98       100       103       104        98       100       103       105
        99        98       100       101        99        98       100       102
        99        98       100       103       100       103       105       106
       100       103       105       107       101       100       103       104
       101       100       103       105       102       100       103       104
       102       100       103       105       103       105       107       108
       103       105       107       109       103       105       107       115
       104       103       105       106       104       103       105       107
       105       107       109       110       105       107       109       111
       105       107       109       112       105       107       115       116
       105       107       115       117       106       105       107       108
       106       105       107       109       106       105       107       115
       107       109       112       113       107       109       112       114
       107       115       117       118       107       115       117       119
       108       107       109       110       108       107       109       111
       108       107       109       112       108       107       115       116
       108       107       115       117       109       107       115       116
       109       107       115       117       110       109       107       115
       110       109       112       113       110       109       112       114
       111       109       107       115       111       109       112       113
       111       109       112       114       112       109       107       115
       115       117       119       120       115       117       119       121
       115       117       119       126       116       115       117       118
       116       115       117       119       117       119       121       122
       117       119       121       123       117       119       121       124
       117       119       126       127       117       119       126       128
       118       117       119       120       118       117       119       121
       118       117       119       126       119       121       124       125
       119       126       128       129       119       126       128       130
       120       119       121       122       120       119       121       123
       120       119       121       124       120       119       126       127
       120       119       126       128       121       119       126       127
       121       119       126       128       122       121       119       126
       122       121       124       125       123       121       119       126
       123       121       124       125       124       121       119       126
       126       128       130       131       126       128       130       132
       126       128       130       133       127       126       128       129
       127       126       128       130       128       130       133       134
       128       130       133       135       129       128       130       131
       129       128       130       132       129       128       130       133
       131       130       133       134       131       130       133       135
       132       130       133       134       132       130       133       135

        28 !NIMPHI: impropers
        12         5        14        13        14        12        16        15
        19        16        21        20        21        19        23        22
        31        23        33        32        28        25        30        29
        33        31        35        34        42        35        44        43
        44        42        46        45        49        46        51        50
        51        49        55        52        63        55        65        64
        65        63        67        66        70        67        72        71
        72        70        74        73        82        74        84        83
        79        76        81        80        84        82        88        85
        96        88        98        97        98        96       100        99
       103       100       105       104       105       103       107       106
       115       107       117       116       112       109       114       113
       117       115       119       118       126       119       128       127
       128       126       130       129       133       130       135       134

        16 !NDON: donors
         1         2         1         3         1         4        10        11
        14        15        21        22        33        34        40        41
        44        45        65        66        72        73        98        99
       105       106       117       118       124       125       128       129

        23 !NACC: acceptors
        10         0        13        12        20        19        29        28
        30        28        32        31        40         0        43        42
        50        49        64        63        71        70        80        79
        81        79        83        82        97        96       104       103
       113       112       114       112       116       115       124         0
       127       126       134       133       135       133

         0 !NNB

         0         0         0         0         0         0         0         0
         0         0         0         0         0         0         0         0
         0         0         0         0         0         0         0         0
         0         0         0         0         0         0         0         0
         0         0         0         0         0         0         0         0
         0         0         0         0         0         0         0         0
         0         0         0         0         0         0         0         0
         0         0         0         0         0         0         0         0
         0         0         0         0         0         0         0         0
         0         0         0         0         0         0         0         0
         0         0         0         0         0         0         0         0
         0         0         0         0         0         0         0         0
         0         0         0         0         0         0         0         0
         0         0         0         0         0         0         0         0
         0         0         0         0         0         0         0         0
         0         0         0         0         0         0         0         0
         0         0         0         0         0         0         0

        36         0 !NGRP NST2
         0         2         0         6         1         0        11         1         0
        13         1         0        18         1         0        20         1         0
        24         2         0        30         1         0        32         1         0
        36         1         0        41         1         0        43         1         0
        48         1         0        50         1         0        56         1         0
        59         1         0        62         1         0        64         1         0
        69         1         0        71         1         0        75         2         0
        81         1         0        83         1         0        89         1         0
        92         1         0        95         1         0        97         1         0
       102         1         0       104         1         0       108         2         0
       114         1         0       116         1         0       120         1         0
       125         1         0       127         1         0       132         2         0

         0         0 !NUMLP NUMLPH

        11 !NCRTERM: cross-terms
        12        14        16        19        14        16        19        21
        19        21        23        31        21        23        31        33
        31        33        35        42        33        35        42        44
        42        44        46        49        44        46        49        51
        49        51        55        63        51        55        63        65
        63        65        67        70        65        67        70        72
        70        72        74        82        72        74        82        84
        82        84        88        96        84        88        96        98
        96        98       100       103        98       100       103       105
       103       105       107       115       105       107       115       117
       115       117       119       126       117       119       126       128
