Title
  114
    1ASP      N    1   4.216   3.291   5.110  0.2969 -0.0567  0.1380
    1ASP    HT1    2   4.264   3.199   5.117  0.1151 -0.0552  1.5615
    1ASP    HT2    3   4.295   3.359   5.108  0.8849 -0.6266  1.9879
    1ASP    HT3    4   4.160   3.301   5.023 -0.2154  0.0782  0.4808
    1ASP     CA    5   4.119   3.308   5.226 -0.6219  0.6526 -0.1006
    1ASP     HA    6   4.043   3.231   5.227 -0.6749  0.7028  0.7909
    1ASP     CB    7   4.208   3.300   5.350 -0.4275  0.0698  0.4757
    1ASP    HB1    8   4.159   3.328   5.446 -1.1872 -0.2095  0.1756
    1ASP    HB2    9   4.297   3.367   5.345  0.0240 -0.5952 -0.6937
    1ASP     CG   10   4.242   3.152   5.372 -0.6979 -0.3582  0.4073
    1ASP    OD1   11   4.206   3.064   5.290  0.1683 -0.2261 -0.2393
    1ASP    OD2   12   4.302   3.111   5.473  0.2510 -0.0255 -0.8443
    1ASP      C   13   4.051   3.437   5.216 -0.4193 -0.1846  0.0556
    1ASP      O   14   4.059   3.511   5.114 -0.1794 -0.1638  0.1124
    2GLY      N   15   3.985   3.475   5.325 -0.0157  0.1095 -0.1090
    2GLY     HN   16   3.992   3.428   5.412 -0.8681 -1.3248 -0.7887
    2GLY     CA   17   3.895   3.592   5.317 -0.4642 -0.7245  0.2611
    2GLY    HA1   18   3.942   3.667   5.254  1.1869  0.1937  2.4841
    2GLY    HA2   19   3.887   3.622   5.420 -0.4062  0.6509 -0.1099
    2GLY      C   20   3.760   3.555   5.261  0.9017 -0.5756 -0.0868
    2GLY      O   21   3.727   3.441   5.218 -0.2445 -0.5583 -0.5051
    3ASP      N   22   3.659   3.641   5.283  0.9530  0.2402 -0.7945
    3ASP     HN   23   3.682   3.719   5.340  1.4583  0.4041 -1.2125
    3ASP     CA   24   3.524   3.629   5.236  0.4097 -0.1087  0.0874
    3ASP     HA   25   3.510   3.524   5.253  0.5164 -0.1068  0.1940
    3ASP     CB   26   3.411   3.715   5.305 -0.2400 -0.2834  0.3316
    3ASP    HB1   27   3.308   3.686   5.277 -0.9183  2.9279 -0.8259
    3ASP    HB2   28   3.420   3.824   5.290 -2.7751 -0.0240  0.4166
    3ASP     CG   29   3.413   3.688   5.460  0.4883  0.8662 -0.0547
    3ASP    OD1   30   3.443   3.579   5.513 -0.1246 -0.3291 -0.0272
    3ASP    OD2   31   3.356   3.775   5.534  0.0014 -0.1655 -0.1500
    3ASP      C   32   3.521   3.647   5.085 -0.0225  0.4538 -0.5037
    3ASP      O   33   3.606   3.712   5.020  0.4472 -0.4979 -0.1928
    4GLY      N   34   3.413   3.590   5.018  0.0632 -0.2109 -0.2167
    4GLY     HN   35   3.350   3.539   5.076  0.6235 -0.6383  0.0240
    4GLY     CA   36   3.382   3.598   4.877 -0.3289 -0.1634 -0.0257
    4GLY    HA1   37   3.378   3.705   4.859 -1.3588 -0.0223  1.0063
    4GLY    HA2   38   3.287   3.549   4.863 -0.0440 -0.9073  0.6059
    4GLY      C   39   3.484   3.541   4.778 -0.2407 -0.1360 -0.3701
    4GLY      O   40   3.563   3.464   4.830 -0.0208  0.6272  0.3826
    5PRO      N   41   3.480   3.570   4.649 -0.4190  0.5366  0.3467
    5PRO     CD   42   3.379   3.666   4.599 -0.1906 -0.0492 -0.2802
    5PRO    HD1   43   3.405   3.763   4.647  1.5909 -0.9125  0.5773
    5PRO    HD2   44   3.276   3.643   4.635  0.5507 -0.0661  2.0257
    5PRO     CA   45   3.594   3.551   4.553 -0.4654 -0.6775  0.3273
    5PRO     HA   46   3.579   3.447   4.525 -1.7686 -0.7273  1.1325
    5PRO     CB   47   3.551   3.650   4.437 -0.6932  0.2376 -0.1097
    5PRO    HB1   48   3.574   3.601   4.340  3.5372  1.6283 -0.0234
    5PRO    HB2   49   3.609   3.742   4.459  0.9803 -1.1356  1.6097
    5PRO     CG   50   3.398   3.679   4.451  0.0171 -0.3783 -0.6737
    5PRO    HG1   51   3.370   3.780   4.415 -0.9889 -1.0030 -1.7407
    5PRO    HG2   52   3.343   3.609   4.385  0.6054 -0.7529 -0.7751
    5PRO      C   53   3.734   3.569   4.598  0.0600 -0.0215 -0.0558
    5PRO      O   54   3.761   3.647   4.686  0.2567  0.3328  0.4174
    6GLY      N   55   3.831   3.483   4.546  0.3253  0.1360 -0.2020
    6GLY     HN   56   3.808   3.400   4.495  1.6684 -0.5006  0.1933
    6GLY     CA   57   3.976   3.502   4.558 -0.3988  0.2821 -0.1739
    6GLY    HA1   58   4.019   3.412   4.517 -0.3695  0.3794 -0.3566
    6GLY    HA2   59   4.008   3.521   4.659 -2.3272  2.6997  0.0939
    6GLY      C   60   4.034   3.615   4.482  0.1659  0.0907 -0.5169
    6GLY      O   61   3.962   3.708   4.468  0.0370 -0.3757 -0.2393
    7ASP      N   62   4.161   3.607   4.449 -0.8111 -0.0316 -0.2776
    7ASP     HN   63   4.215   3.526   4.470  1.6404  1.8969  1.4299
    7ASP     CA   64   4.227   3.703   4.360  0.1578  1.1728 -0.3901
    7ASP     HA   65   4.239   3.797   4.411 -1.0729 -0.0237  2.2955
    7ASP     CB   66   4.368   3.642   4.328 -0.0422  0.3272  0.0978
    7ASP    HB1   67   4.424   3.703   4.254 -0.4328  2.1420  1.2106
    7ASP    HB2   68   4.372   3.543   4.278  2.7512  0.7391 -0.6515
    7ASP     CG   69   4.458   3.643   4.452 -0.3363 -0.3034  0.3650
    7ASP    OD1   70   4.552   3.556   4.459  0.5279 -0.4346  0.4258
    7ASP    OD2   71   4.450   3.733   4.538  0.5074 -0.0148  0.6385
    7ASP      C   72   4.165   3.724   4.219  0.1672 -0.1167  0.2610
    7ASP      O   73   4.096   3.631   4.168 -0.1015 -0.8464 -0.2151
    8PRO      N   74   4.190   3.835   4.144 -0.3774 -0.0860  0.0348
    8PRO     CD   75   4.264   3.957   4.189 -0.2017 -0.4521 -0.0393
    8PRO    HD1   76   4.341   3.933   4.265  0.6433  1.2840 -0.3004
    8PRO    HD2   77   4.197   4.023   4.249  1.0697 -1.1728  2.2885
    8PRO     CA   78   4.172   3.839   4.000  0.2906 -0.1930 -0.1757
    8PRO     HA   79   4.074   3.814   3.962 -0.1955 -0.5834  1.2589
    8PRO     CB   80   4.218   3.982   3.958 -0.3762 -0.2779  0.4009
    8PRO    HB1   81   4.128   4.046   3.975 -0.0802  0.3884 -0.4381
    8PRO    HB2   82   4.255   3.998   3.855 -1.7739  1.7614  0.1543
    8PRO     CG   83   4.325   4.026   4.062 -0.0793 -0.3312  0.7000
    8PRO    HG1   84   4.430   3.997   4.040  0.4481  1.2216  1.0031
    8PRO    HG2   85   4.326   4.136   4.078 -0.6090 -0.2386  0.1320
    8PRO      C   86   4.258   3.733   3.928 -0.0153  0.3837 -0.1924
    8PRO      O   87   4.363   3.696   3.983  0.4520 -0.0962 -0.3801
    9GLY      N   88   4.206   3.699   3.809  0.3158  0.0002  0.2267
    9GLY     HN   89   4.122   3.741   3.776 -0.1014  0.1787  1.4469
    9GLY     CA   90   4.273   3.601   3.721 -0.2015  0.1250 -0.0469
    9GLY    HA1   91   4.230   3.504   3.742  0.8950 -0.1285  1.1631
    9GLY    HA2   92   4.381   3.605   3.731 -0.2077  2.2776 -0.4421
    9GLY      C   93   4.255   3.631   3.577  0.0759  0.2453  0.1505
    9GLY      O   94   4.187   3.725   3.538  0.1462 -0.3793 -0.0197
   10ASP      N   95   4.327   3.554   3.487 -0.7665  0.3970 -0.2046
   10ASP     HN   96   4.374   3.472   3.518 -0.1810 -0.0146 -2.0878
   10ASP     CA   97   4.315   3.565   3.348 -1.1914 -0.2451 -0.4964
   10ASP     HA   98   4.353   3.663   3.319  0.6162 -0.7695 -0.0052
   10ASP     CB   99   4.398   3.454   3.287  0.1252 -0.6745  0.1300
   10ASP    HB1  100   4.387   3.442   3.177  1.0678 -0.1093 -0.0351
   10ASP    HB2  101   4.363   3.358   3.331 -1.1348 -1.1310 -1.7356
   10ASP     CG  102   4.541   3.469   3.306 -0.7367 -0.2872 -0.1340
   10ASP    OD1  103   4.617   3.374   3.269  0.0984  0.0031  0.1782
   10ASP    OD2  104   4.585   3.576   3.341 -0.2815  0.0651 -0.3344
   10ASP      C  105   4.175   3.544   3.300  0.3204 -0.0273  0.2096
   10ASP      O  106   4.097   3.462   3.355  0.4250  0.2456 -0.1502
   11GLY      N  107   4.130   3.619   3.196 -1.0711  0.2514  0.1348
   11GLY     HN  108   4.199   3.666   3.142 -0.2238 -2.1064 -0.9711
   11GLY     CA  109   3.998   3.609   3.133 -0.7260  0.0323 -0.0041
   11GLY    HA1  110   3.962   3.508   3.131  0.8334 -0.5902  1.2067
   11GLY    HA2  111   4.013   3.645   3.032  0.4007 -2.6620 -0.8859
   11GLY      C  112   3.892   3.700   3.201 -0.1680 -0.1402 -0.1095
   11GLY    OT1  113   3.917   3.823   3.218 -0.0547  0.3086  0.3824
   11GLY    OT2  114   3.788   3.651   3.249  0.0700 -0.3950 -0.1585
   7.21742   6.80466   5.89300   0.00000   0.00000  -2.40581   0.00000  -2.40581  -3.40232
