Title t= 473.00000 step= 236500
44469
    1GLY      N    1   6.344   5.121   3.783
    1GLY    HT1    2   6.346   5.220   3.813
    1GLY    HT2    3   6.421   5.079   3.840
    1GLY    HT3    4   6.259   5.075   3.821
    1GLY     CA    5   6.364   5.117   3.641
    1GLY    HA1    6   6.367   5.013   3.610
    1GLY    HA2    7   6.445   5.182   3.612
    1GLY      C    8   6.245   5.175   3.573
    1GLY      O    9   6.149   5.221   3.636
    2PRO      N   10   6.237   5.183   3.433
    2PRO     CD   11   6.347   5.136   3.345
    2PRO    HD1   12   6.377   5.030   3.365
    2PRO    HD2   13   6.428   5.209   3.366
    2PRO     CA   14   6.149   5.278   3.359
    2PRO     HA   15   6.148   5.371   3.414
    2PRO     CB   16   6.202   5.278   3.220
    2PRO    HB1   17   6.275   5.361   3.213
    2PRO    HB2   18   6.133   5.300   3.135
    2PRO     CG   19   6.291   5.150   3.204
    2PRO    HG1   20   6.232   5.062   3.174
    2PRO    HG2   21   6.365   5.168   3.123
    2PRO      C   22   6.004   5.223   3.358
    2PRO      O   23   5.918   5.295   3.309
    3GLY      N   24   5.979   5.093   3.382
    3GLY     HN   25   6.058   5.032   3.396
    3GLY     CA   26   5.847   5.029   3.378
    3GLY    HA1   27   5.857   4.921   3.380
    3GLY    HA2   28   5.798   5.054   3.285
    3GLY      C   29   5.766   5.063   3.499
    3GLY      O   30   5.643   5.066   3.499
    4ASN      N   31   5.835   5.077   3.618
    4ASN     HN   32   5.933   5.082   3.603
    4ASN     CA   33   5.779   5.107   3.746
    4ASN     HA   34   5.720   5.020   3.770
    4ASN     CB   35   5.894   5.121   3.853
    4ASN    HB1   36   5.841   5.139   3.950
    4ASN    HB2   37   5.956   5.211   3.834
    4ASN     CG   38   5.976   4.995   3.865
    4ASN    OD1   39   6.093   4.999   3.816
    4ASN    ND2   40   5.928   4.887   3.925
    4ASN   HD21   41   5.989   4.808   3.931
    4ASN   HD22   42   5.829   4.875   3.929
    4ASN      C   43   5.704   5.238   3.741
    4ASN      O   44   5.746   5.324   3.660
    5PRO      N   45   5.588   5.262   3.811
    5PRO     CD   46   5.528   5.153   3.892
    5PRO    HD1   47   5.585   5.131   3.985
    5PRO    HD2   48   5.529   5.059   3.834
    5PRO     CA   49   5.511   5.386   3.812
    5PRO     HA   50   5.457   5.390   3.718
    5PRO     CB   51   5.418   5.368   3.930
    5PRO    HB1   52   5.325   5.429   3.923
    5PRO    HB2   53   5.469   5.394   4.026
    5PRO     CG   54   5.387   5.215   3.925
    5PRO    HG1   55   5.351   5.176   4.023
    5PRO    HG2   56   5.322   5.186   3.840
    5PRO      C   57   5.585   5.517   3.822
    5PRO      O   58   5.694   5.529   3.876
    6GLY      N   59   5.524   5.628   3.763
    6GLY     HN   60   5.443   5.602   3.711
    6GLY     CA   61   5.561   5.766   3.784
    6GLY    HA1   62   5.503   5.826   3.716
    6GLY    HA2   63   5.668   5.774   3.777
    6GLY      C   64   5.526   5.815   3.922
    6GLY      O   65   5.496   5.738   4.016
    7PRO      N   66   5.541   5.946   3.944
    7PRO     CD   67   5.602   6.037   3.851
    7PRO    HD1   68   5.527   6.104   3.804
    7PRO    HD2   69   5.655   5.981   3.771
    7PRO     CA   70   5.541   6.006   4.079
    7PRO     HA   71   5.593   5.930   4.135
    7PRO     CB   72   5.613   6.139   4.061
    7PRO    HB1   73   5.674   6.167   4.150
    7PRO    HB2   74   5.541   6.219   4.036
    7PRO     CG   75   5.692   6.120   3.939
    7PRO    HG1   76   5.722   6.216   3.893
    7PRO    HG2   77   5.783   6.058   3.955
    7PRO      C   78   5.405   6.028   4.149
    7PRO      O   79   5.416   6.095   4.255
    8GLY      N   80   5.292   5.977   4.099
    8GLY     HN   81   5.282   5.933   4.011
    8GLY     CA   82   5.159   6.000   4.170
    8GLY    HA1   83   5.174   6.026   4.273
    8GLY    HA2   84   5.111   5.904   4.160
    8GLY      C   85   5.066   6.107   4.122
    8GLY      O   86   5.093   6.188   4.037
    9ASN      N   87   4.938   6.103   4.170
    9ASN     HN   88   4.915   6.040   4.244
    9ASN     CA   89   4.836   6.188   4.116
    9ASN     HA   90   4.833   6.159   4.012
    9ASN     CB   91   4.702   6.146   4.180
    9ASN    HB1   92   4.621   6.199   4.125
    9ASN    HB2   93   4.703   6.160   4.290
    9ASN     CG   94   4.668   6.004   4.133
    9ASN    OD1   95   4.711   5.947   4.036
    9ASN    ND2   96   4.574   5.944   4.215
    9ASN   HD21   97   4.560   5.847   4.192
    9ASN   HD22   98   4.568   5.985   4.306
    9ASN      C   99   4.856   6.344   4.140
    9ASN      O  100   4.887   6.383   4.248
   10PRO      N  101   4.814   6.431   4.043
   10PRO     CD  102   4.825   6.398   3.900
   10PRO    HD1  103   4.745   6.327   3.869
   10PRO    HD2  104   4.921   6.347   3.876
   10PRO     CA  105   4.766   6.566   4.068
   10PRO     HA  106   4.852   6.622   4.101
   10PRO     CB  107   4.716   6.601   3.926
   10PRO    HB1  108   4.703   6.710   3.911
   10PRO    HB2  109   4.619   6.551   3.905
   10PRO     CG  110   4.813   6.532   3.829
   10PRO    HG1  111   4.771   6.514   3.728
   10PRO    HG2  112   4.913   6.579   3.814
   10PRO      C  113   4.658   6.601   4.165
   10PRO      O  114   4.586   6.509   4.211
   11GLY      N  115   4.643   6.732   4.197
   11GLY     HN  116   4.681   6.807   4.143
   11GLY     CA  117   4.545   6.772   4.300
   11GLY    HA1  118   4.583   6.846   4.368
   11GLY    HA2  119   4.534   6.676   4.349
   11GLY      C  120   4.404   6.800   4.248
   11GLY      O  121   4.383   6.796   4.130
   12PRO      N  122   4.310   6.827   4.337
   12PRO     CD  123   4.328   6.816   4.479
   12PRO    HD1  124   4.403   6.892   4.510
   12PRO    HD2  125   4.368   6.714   4.494
   12PRO     CA  126   4.178   6.859   4.294
   12PRO     HA  127   4.152   6.804   4.205
   12PRO     CB  128   4.100   6.814   4.416
   12PRO    HB1  129   4.070   6.708   4.400
   12PRO    HB2  130   4.003   6.865   4.435
   12PRO     CG  131   4.190   6.822   4.540
   12PRO    HG1  132   4.172   6.922   4.585
   12PRO    HG2  133   4.166   6.747   4.618
   12PRO      C  134   4.169   7.008   4.272
   12PRO      O  135   4.091   7.046   4.191
   13GLY      N  136   4.232   7.096   4.351
   13GLY     HN  137   4.285   7.054   4.425
   13GLY     CA  138   4.199   7.235   4.376
   13GLY    HA1  139   4.202   7.276   4.276
   13GLY    HA2  140   4.268   7.275   4.449
   13GLY      C  141   4.062   7.263   4.429
   13GLY      O  142   3.968   7.185   4.430
   14ASN      N  143   4.038   7.384   4.475
   14ASN     HN  144   4.107   7.455   4.468
   14ASN     CA  145   3.921   7.421   4.546
   14ASN     HA  146   3.867   7.329   4.560
   14ASN     CB  147   3.947   7.488   4.687
   14ASN    HB1  148   3.849   7.505   4.735
   14ASN    HB2  149   3.996   7.588   4.680
   14ASN     CG  150   4.021   7.410   4.804
   14ASN    OD1  151   3.990   7.293   4.820
   14ASN    ND2  152   4.114   7.474   4.879
   14ASN   HD21  153   4.140   7.427   4.964
   14ASN   HD22  154   4.119   7.573   4.874
   14ASN      C  155   3.826   7.519   4.465
   14ASN      O  156   3.878   7.618   4.405
   15PRO      N  157   3.695   7.513   4.472
   15PRO     CD  158   3.628   7.395   4.534
   15PRO    HD1  159   3.625   7.418   4.642
   15PRO    HD2  160   3.672   7.299   4.501
   15PRO     CA  161   3.604   7.599   4.399
   15PRO     HA  162   3.620   7.586   4.293
   15PRO     CB  163   3.463   7.551   4.433
   15PRO    HB1  164   3.390   7.558   4.349
   15PRO    HB2  165   3.423   7.599   4.525
   15PRO     CG  166   3.483   7.404   4.473
   15PRO    HG1  167   3.413   7.377   4.555
   15PRO    HG2  168   3.456   7.340   4.386
   15PRO      C  169   3.613   7.744   4.444
   15PRO    OT1  170   6.343   0.016   4.367
   15PRO    OT2  171   3.649   7.770   4.565
   16LIT    LIT  172   1.741   6.719   4.297
   17LIT    LIT  173   4.505   1.912   1.354
   18LIT    LIT  174   0.786   7.540   0.260
   19LIT    LIT  175   1.328   6.038   4.728
   20LIT    LIT  176   3.304   1.355   5.077
   21LIT    LIT  177   7.557   2.361   0.030
   22LIT    LIT  178   8.130   0.200   3.275
   23LIT    LIT  179   3.835   0.870   5.623
   24LIT    LIT  180   3.875   6.463   0.449
   25LIT    LIT  181   6.025   6.191   4.887
   26LIT    LIT  182   4.689   7.253   2.710
   27LIT    LIT  183   1.527   1.318   1.725
   28LIT    LIT  184   2.036   3.060   5.896
   29LIT    LIT  185   7.544   0.364   1.722
   30LIT    LIT  186   6.005   2.068   6.285
   31LIT    LIT  187   0.128   2.007   1.044
   32LIT    LIT  188   5.594   1.889   2.783
   33LIT    LIT  189   0.627   5.623   4.560
   34LIT    LIT  190   8.156   1.732   2.365
   35LIT    LIT  191   7.053   5.036   4.558
   36LIT    LIT  192   5.665   3.962   1.101
   37LIT    LIT  193   5.149   5.673   0.031
   38LIT    LIT  194   2.089   1.305   3.383
   39LIT    LIT  195   3.928   5.568   6.549
   40LIT    LIT  196   5.437   0.719   6.331
   41LIT    LIT  197   1.360   7.107   5.941
   42LIT    LIT  198   0.666   2.463   3.660
   43LIT    LIT  199   6.181   0.111   4.389
   44LIT    LIT  200   3.627   3.869   4.222
   45LIT    LIT  201   3.627   2.844   5.666
   46LIT    LIT  202   5.541   4.352   6.190
   47LIT    LIT  203   5.569   3.883   3.979
   48LIT    LIT  204   0.248   7.520   6.702
   49LIT    LIT  205   0.450   3.039   3.286
   50LIT    LIT  206   2.608   4.771   0.746
   51LIT    LIT  207   4.289   1.188   2.452
   52LIT    LIT  208   4.454   3.660   1.457
   53LIT    LIT  209   4.936   3.126   6.386
   54LIT    LIT  210   4.272   7.688   3.311
   55LIT    LIT  211   7.860   4.232   0.429
   56LIT    LIT  212   0.783   3.495   0.100
   57LIT    LIT  213   7.429   4.782   3.569
   58CLA    CLA  214   2.164   1.669   2.861
   59CLA    CLA  215   3.475   7.529   1.857
   60CLA    CLA  216   1.456   1.438   3.400
   61CLA    CLA  217   5.041   5.180   4.452
   62CLA    CLA  218   5.870   6.780   1.488
   63CLA    CLA  219   1.780   0.326   2.799
   64CLA    CLA  220   1.165   5.631   3.563
   65CLA    CLA  221   3.225   0.063   6.070
   66CLA    CLA  222   5.778   3.048   6.000
   67CLA    CLA  223   0.093   4.696   3.872
   68CLA    CLA  224   1.133   5.827   4.356
   69CLA    CLA  225   5.387   3.901   1.781
   70CLA    CLA  226   2.264   0.854   6.634
   71CLA    CLA  227   7.889   4.823   4.416
   72CLA    CLA  228   3.755   2.185   1.345
   73CLA    CLA  229   0.938   1.852   2.576
   74CLA    CLA  230   3.535   3.058   5.686
   75CLA    CLA  231   2.414   4.236   5.314
   76CLA    CLA  232   3.968   3.514   3.855
   77CLA    CLA  233   5.610   3.700   4.637
   78CLA    CLA  234   2.207   0.241   5.435
   79CLA    CLA  235   5.805   0.157   4.102
   80CLA    CLA  236   0.990   4.942   2.359
   81CLA    CLA  237   4.743   2.697   0.540
   82CLA    CLA  238   7.555   2.252   2.390
   83CLA    CLA  239   4.509   5.815   1.912
   84CLA    CLA  240   2.559   6.496   1.771
   85CLA    CLA  241   7.916   0.651   1.213
   86CLA    CLA  242   7.023   0.893   4.274
   87CLA    CLA  243   0.310   2.508   3.388
   88CLA    CLA  244   4.144   5.021   4.145
   89CLA    CLA  245   7.121   4.831   2.706
   90CLA    CLA  246   5.944   4.106   0.304
   91CLA    CLA  247   3.853   0.244   0.948
   92CLA    CLA  248   7.176   0.696   1.458
   93CLA    CLA  249   6.437   6.361   0.898
   94CLA    CLA  250   1.873   5.033   2.956
   95CLA    CLA  251   8.289   2.133   5.177
   96CLA    CLA  252   1.060   1.444   0.826
   97CLA    CLA  253   4.206   0.041   6.590
   98CLA    CLA  254   0.122   5.279   5.372
   99CLA    CLA  255   6.983   3.726   0.501
  100TIP3   OH2  256   5.164   1.386   4.656
  100TIP3    H1  257   5.231   1.448   4.627
  100TIP3    H2  258   5.107   1.439   4.713
  101TIP3   OH2  259   5.852   2.763   0.978
  101TIP3    H1  260   5.887   2.779   1.066
  101TIP3    H2  261   5.929   2.755   0.922
  102TIP3   OH2  262   6.413   5.265   6.682
  102TIP3    H1  263   6.462   5.326   6.738
  102TIP3    H2  264   6.322   5.291   6.693
  103TIP3   OH2  265   1.712   4.877   5.834
  103TIP3    H1  266   1.718   4.782   5.844
  103TIP3    H2  267   1.631   4.890   5.785
  104TIP3   OH2  268   4.364   7.018   6.578
  104TIP3    H1  269   4.454   7.027   6.548
  104TIP3    H2  270   4.357   6.926   6.604
  105TIP3   OH2  271   5.732   2.739   5.659
  105TIP3    H1  272   5.677   2.807   5.697
  105TIP3    H2  273   5.736   2.671   5.727
  106TIP3   OH2  274   2.953   5.723   1.132
  106TIP3    H1  275   2.924   5.675   1.209
  106TIP3    H2  276   2.951   5.659   1.061
  107TIP3   OH2  277   3.807   1.762   0.475
  107TIP3    H1  278   3.747   1.749   0.401
  107TIP3    H2  279   3.894   1.760   0.435
  108TIP3   OH2  280   6.922   2.081   4.563
  108TIP3    H1  281   7.010   2.072   4.598
  108TIP3    H2  282   6.870   2.114   4.636
  109TIP3   OH2  283   0.176   3.764   1.323
  109TIP3    H1  284   0.123   3.820   1.266
  109TIP3    H2  285   0.258   3.753   1.275
  110TIP3   OH2  286   3.363   0.182   2.109
  110TIP3    H1  287   3.387   0.213   2.022
  110TIP3    H2  288   3.394   0.092   2.112
  111TIP3   OH2  289   7.548   1.026   4.494
  111TIP3    H1  290   7.476   1.073   4.452
  111TIP3    H2  291   7.617   1.024   4.427
  112TIP3   OH2  292   6.828   4.743   3.644
  112TIP3    H1  293   6.889   4.767   3.575
  112TIP3    H2  294   6.840   4.648   3.655
  113TIP3   OH2  295   6.900   1.613   3.743
  113TIP3    H1  296   6.926   1.579   3.828
  113TIP3    H2  297   6.893   1.535   3.687
  114TIP3   OH2  298   6.336   5.434   0.987
  114TIP3    H1  299   6.269   5.492   0.951
  114TIP3    H2  300   6.418   5.482   0.975
  115TIP3   OH2  301   2.467   5.212   1.401
  115TIP3    H1  302   2.523   5.255   1.465
  115TIP3    H2  303   2.402   5.278   1.377
  116TIP3   OH2  304   5.506   2.518   3.913
  116TIP3    H1  305   5.582   2.490   3.962
  116TIP3    H2  306   5.458   2.438   3.893
  117TIP3   OH2  307   5.560   4.722   4.801
  117TIP3    H1  308   5.514   4.775   4.736
  117TIP3    H2  309   5.600   4.652   4.750
  118TIP3   OH2  310   0.140   1.183   2.182
  118TIP3    H1  311   0.050   1.152   2.171
  118TIP3    H2  312   0.151   1.249   2.114
  119TIP3   OH2  313   2.626   2.976   6.352
  119TIP3    H1  314   2.539   2.936   6.354
  119TIP3    H2  315   2.685   2.903   6.335
  120TIP3   OH2  316   1.789   4.856   0.789
  120TIP3    H1  317   1.740   4.846   0.707
  120TIP3    H2  318   1.845   4.931   0.774
  121TIP3   OH2  319   2.086   4.190   0.621
  121TIP3    H1  320   2.102   4.229   0.707
  121TIP3    H2  321   2.028   4.116   0.640
  122TIP3   OH2  322   4.153   6.741   6.091
  122TIP3    H1  323   4.229   6.744   6.032
  122TIP3    H2  324   4.183   6.784   6.171
  123TIP3   OH2  325   3.755   5.533   1.611
  123TIP3    H1  326   3.824   5.541   1.676
  123TIP3    H2  327   3.802   5.525   1.527
  124TIP3   OH2  328   4.466   6.390   2.668
  124TIP3    H1  329   4.527   6.321   2.643
  124TIP3    H2  330   4.522   6.459   2.705
  125TIP3   OH2  331   6.523   0.302   2.055
  125TIP3    H1  332   6.567   0.262   2.130
  125TIP3    H2  333   6.494   0.228   2.002
  126TIP3   OH2  334   4.653   7.470   4.639
  126TIP3    H1  335   4.677   7.486   4.547
  126TIP3    H2  336   4.686   7.546   4.686
  127TIP3   OH2  337   7.551   6.289   2.566
  127TIP3    H1  338   7.479   6.348   2.547
  127TIP3    H2  339   7.599   6.283   2.484
  128TIP3   OH2  340   7.810   2.049   5.270
  128TIP3    H1  341   7.750   2.117   5.300
  128TIP3    H2  342   7.897   2.081   5.293
  129TIP3   OH2  343   4.580   6.140   1.217
  129TIP3    H1  344   4.533   6.084   1.279
  129TIP3    H2  345   4.574   6.095   1.133
  130TIP3   OH2  346   7.291   6.725   2.701
  130TIP3    H1  347   7.216   6.724   2.760
  130TIP3    H2  348   7.313   6.817   2.690
  131TIP3   OH2  349   8.082   2.418   3.857
  131TIP3    H1  350   8.143   2.461   3.917
  131TIP3    H2  351   8.090   2.467   3.775
  132TIP3   OH2  352   7.280   3.660   3.597
  132TIP3    H1  353   7.235   3.733   3.554
  132TIP3    H2  354   7.210   3.610   3.638
  133TIP3   OH2  355   0.823   1.994   0.588
  133TIP3    H1  356   0.794   2.039   0.509
  133TIP3    H2  357   0.919   2.003   0.588
  134TIP3   OH2  358   3.983   6.806   6.417
  134TIP3    H1  359   3.960   6.867   6.487
  134TIP3    H2  360   4.078   6.797   6.424
  135TIP3   OH2  361   6.361   2.513   2.539
  135TIP3    H1  362   6.360   2.420   2.516
  135TIP3    H2  363   6.452   2.530   2.566
  136TIP3   OH2  364   5.096   7.009   0.510
  136TIP3    H1  365   5.134   7.040   0.428
  136TIP3    H2  366   5.009   6.977   0.485
  137TIP3   OH2  367   2.647   5.692   3.156
  137TIP3    H1  368   2.642   5.687   3.061
  137TIP3    H2  369   2.629   5.603   3.186
  138TIP3   OH2  370   4.115   3.689   1.656
  138TIP3    H1  371   4.081   3.648   1.736
  138TIP3    H2  372   4.062   3.652   1.585
  139TIP3   OH2  373   7.867   2.204   4.536
  139TIP3    H1  374   7.848   2.185   4.444
  139TIP3    H2  375   7.895   2.120   4.572
  140TIP3   OH2  376   0.854   6.596   4.117
  140TIP3    H1  377   0.864   6.501   4.122
  140TIP3    H2  378   0.826   6.613   4.027
  141TIP3   OH2  379   6.361   1.935   4.203
  141TIP3    H1  380   6.393   1.885   4.279
  141TIP3    H2  381   6.441   1.966   4.160
  142TIP3   OH2  382   3.831   2.152   0.027
  142TIP3    H1  383   3.765   2.162   0.097
  142TIP3    H2  384   3.911   2.188   0.064
  143TIP3   OH2  385   2.456   5.267   6.027
  143TIP3    H1  386   2.536   5.304   6.064
  143TIP3    H2  387   2.426   5.332   5.964
  144TIP3   OH2  388   5.915   7.241   5.547
  144TIP3    H1  389   5.884   7.151   5.560
  144TIP3    H2  390   5.836   7.294   5.544
  145TIP3   OH2  391   6.349   1.943   3.684
  145TIP3    H1  392   6.434   1.907   3.712
  145TIP3    H2  393   6.290   1.924   3.757
  146TIP3   OH2  394   2.900   5.230   1.862
  146TIP3    H1  395   2.989   5.257   1.839
  146TIP3    H2  396   2.875   5.288   1.934
  147TIP3   OH2  397   7.208   5.464   6.322
  147TIP3    H1  398   7.264   5.397   6.361
  147TIP3    H2  399   7.127   5.419   6.301
  148TIP3   OH2  400   2.676   7.403   3.229
  148TIP3    H1  401   2.627   7.474   3.189
  148TIP3    H2  402   2.715   7.441   3.307
  149TIP3   OH2  403   2.304   2.420   3.839
  149TIP3    H1  404   2.340   2.385   3.921
  149TIP3    H2  405   2.354   2.499   3.822
  150TIP3   OH2  406   0.670   7.228   0.943
  150TIP3    H1  407   0.713   7.169   1.004
  150TIP3    H2  408   0.582   7.240   0.978
  151TIP3   OH2  409   3.632   6.863   2.046
  151TIP3    H1  410   3.607   6.903   1.963
  151TIP3    H2  411   3.600   6.773   2.041
  152TIP3   OH2  412   4.406   1.039   1.585
  152TIP3    H1  413   4.318   1.025   1.549
  152TIP3    H2  414   4.428   0.955   1.625
  153TIP3   OH2  415   6.487   0.564   4.790
  153TIP3    H1  416   6.415   0.503   4.773
  153TIP3    H2  417   6.562   0.523   4.747
  154TIP3   OH2  418   0.242   0.269   3.112
  154TIP3    H1  419   0.261   0.348   3.062
  154TIP3    H2  420   0.317   0.259   3.170
  155TIP3   OH2  421   0.953   1.911   2.256
  155TIP3    H1  422   0.908   1.994   2.265
  155TIP3    H2  423   0.935   1.864   2.337
  156TIP3   OH2  424   0.138   3.397   2.313
  156TIP3    H1  425   0.122   3.306   2.336
  156TIP3    H2  426   0.210   3.394   2.250
  157TIP3   OH2  427   5.724   0.782   2.447
  157TIP3    H1  428   5.773   0.712   2.404
  157TIP3    H2  429   5.656   0.737   2.497
  158TIP3   OH2  430   0.156   1.292   4.157
  158TIP3    H1  431   0.230   1.352   4.154
  158TIP3    H2  432   0.085   1.338   4.113
  159TIP3   OH2  433   1.629   0.348   6.486
  159TIP3    H1  434   1.613   0.267   6.535
  159TIP3    H2  435   1.577   0.338   6.406
  160TIP3   OH2  436   6.163   7.072   6.626
  160TIP3    H1  437   6.175   7.102   6.536
  160TIP3    H2  438   6.098   7.002   6.619
  161TIP3   OH2  439   4.440   5.081   4.042
  161TIP3    H1  440   4.493   5.110   4.116
  161TIP3    H2  441   4.357   5.055   4.081
  162TIP3   OH2  442   1.902   6.521   4.818
  162TIP3    H1  443   1.987   6.566   4.814
  162TIP3    H2  444   1.910   6.459   4.890
  163TIP3   OH2  445   6.812   6.984   4.707
  163TIP3    H1  446   6.768   6.912   4.660
  163TIP3    H2  447   6.762   7.062   4.682
  164TIP3   OH2  448   8.167   4.623   1.176
  164TIP3    H1  449   8.086   4.574   1.191
  164TIP3    H2  450   8.144   4.686   1.107
  165TIP3   OH2  451   3.681   1.925   6.012
  165TIP3    H1  452   3.707   1.902   6.101
  165TIP3    H2  453   3.599   1.876   5.998
  166TIP3   OH2  454   5.850   3.436   2.851
  166TIP3    H1  455   5.874   3.395   2.934
  166TIP3    H2  456   5.869   3.529   2.864
  167TIP3   OH2  457   4.481   4.217   0.775
  167TIP3    H1  458   4.414   4.280   0.748
  167TIP3    H2  459   4.524   4.260   0.849
  168TIP3   OH2  460   5.830   3.419   2.563
  168TIP3    H1  461   5.755   3.359   2.570
  168TIP3    H2  462   5.847   3.447   2.653
  169TIP3   OH2  463   5.046   5.577   1.287
  169TIP3    H1  464   5.014   5.488   1.302
  169TIP3    H2  465   5.095   5.600   1.366
  170TIP3   OH2  466   0.340   7.576   6.550
  170TIP3    H1  467   0.340   7.560   6.455
  170TIP3    H2  468   0.375   7.664   6.559
  171TIP3   OH2  469   3.439   3.038   2.764
  171TIP3    H1  470   3.531   3.041   2.789
  171TIP3    H2  471   3.412   3.130   2.760
  172TIP3   OH2  472   2.892   2.211   5.357
  172TIP3    H1  473   2.854   2.128   5.329
  172TIP3    H2  474   2.847   2.231   5.439
  173TIP3   OH2  475   6.280   3.745   2.652
  173TIP3    H1  476   6.313   3.834   2.641
  173TIP3    H2  477   6.186   3.756   2.665
  174TIP3   OH2  478   7.096   5.282   4.103
  174TIP3    H1  479   7.099   5.377   4.112
  174TIP3    H2  480   7.158   5.262   4.033
  175TIP3   OH2  481   2.664   1.602   3.343
  175TIP3    H1  482   2.598   1.633   3.280
  175TIP3    H2  483   2.664   1.668   3.412
  176TIP3   OH2  484   1.419   1.123   5.557
  176TIP3    H1  485   1.488   1.189   5.563
  176TIP3    H2  486   1.372   1.144   5.476
  177TIP3   OH2  487   7.017   4.511   0.282
  177TIP3    H1  488   7.057   4.559   0.209
  177TIP3    H2  489   6.941   4.467   0.243
  178TIP3   OH2  490   0.022   5.256   3.828
  178TIP3    H1  491   0.024   5.351   3.815
  178TIP3    H2  492   0.103   5.224   3.789
  179TIP3   OH2  493   3.361   5.586   4.851
  179TIP3    H1  494   3.317   5.506   4.881
  179TIP3    H2  495   3.292   5.652   4.850
  180TIP3   OH2  496   0.930   3.026   1.016
  180TIP3    H1  497   0.920   2.931   1.022
  180TIP3    H2  498   0.868   3.052   0.948
  181TIP3   OH2  499   5.530   0.906   3.848
  181TIP3    H1  500   5.565   0.818   3.861
  181TIP3    H2  501   5.558   0.931   3.760
  182TIP3   OH2  502   1.749   5.174   1.945
  182TIP3    H1  503   1.665   5.132   1.965
  182TIP3    H2  504   1.785   5.122   1.873
  183TIP3   OH2  505   5.557   0.213   2.939
  183TIP3    H1  506   5.565   0.195   2.845
  183TIP3    H2  507   5.480   0.164   2.966
  184TIP3   OH2  508   5.796   6.398   1.722
  184TIP3    H1  509   5.791   6.371   1.630
  184TIP3    H2  510   5.830   6.487   1.718
  185TIP3   OH2  511   0.649   0.300   0.735
  185TIP3    H1  512   0.555   0.309   0.754
  185TIP3    H2  513   0.667   0.370   0.673
  186TIP3   OH2  514   2.118   4.666   1.566
  186TIP3    H1  515   2.047   4.727   1.544
  186TIP3    H2  516   2.154   4.699   1.648
  187TIP3   OH2  517   5.465   0.659   5.160
  187TIP3    H1  518   5.397   0.725   5.161
  187TIP3    H2  519   5.436   0.595   5.095
  188TIP3   OH2  520   5.856   5.569   3.509
  188TIP3    H1  521   5.765   5.562   3.480
  188TIP3    H2  522   5.873   5.486   3.554
  189TIP3   OH2  523   4.110   6.140   1.842
  189TIP3    H1  524   4.181   6.103   1.789
  189TIP3    H2  525   4.125   6.105   1.930
  190TIP3   OH2  526   2.661   2.700   4.623
  190TIP3    H1  527   2.718   2.625   4.636
  190TIP3    H2  528   2.713   2.763   4.573
  191TIP3   OH2  529   3.134   5.595   2.345
  191TIP3    H1  530   3.138   5.690   2.358
  191TIP3    H2  531   3.126   5.584   2.251
  192TIP3   OH2  532   2.229   3.980   0.438
  192TIP3    H1  533   2.298   4.013   0.381
  192TIP3    H2  534   2.217   4.050   0.503
  193TIP3   OH2  535   5.559   5.145   0.605
  193TIP3    H1  536   5.508   5.108   0.676
  193TIP3    H2  537   5.639   5.178   0.647
  194TIP3   OH2  538   2.298   1.474   6.522
  194TIP3    H1  539   2.328   1.453   6.434
  194TIP3    H2  540   2.377   1.471   6.576
  195TIP3   OH2  541   3.451   4.525   1.480
  195TIP3    H1  542   3.386   4.593   1.465
  195TIP3    H2  543   3.495   4.513   1.396
  196TIP3   OH2  544   0.131   7.394   1.924
  196TIP3    H1  545   0.110   7.305   1.951
  196TIP3    H2  546   0.098   7.449   1.995
  197TIP3   OH2  547   5.865   3.259   3.818
  197TIP3    H1  548   5.799   3.229   3.756
  197TIP3    H2  549   5.922   3.317   3.766
  198TIP3   OH2  550   6.395   6.175   2.966
  198TIP3    H1  551   6.379   6.088   2.930
  198TIP3    H2  552   6.476   6.204   2.924
  199TIP3   OH2  553   7.900   1.340   4.294
  199TIP3    H1  554   7.917   1.390   4.374
  199TIP3    H2  555   7.987   1.327   4.255
  200TIP3   OH2  556   0.193   0.691   4.518
  200TIP3    H1  557   0.241   0.610   4.535
  200TIP3    H2  558   0.125   0.694   4.585
  201TIP3   OH2  559   5.637   3.647   5.561
  201TIP3    H1  560   5.557   3.614   5.601
  201TIP3    H2  561   5.614   3.659   5.469
  202TIP3   OH2  562   4.750   4.394   1.555
  202TIP3    H1  563   4.742   4.304   1.584
  202TIP3    H2  564   4.830   4.426   1.596
  203TIP3   OH2  565   4.019   3.221   6.480
  203TIP3    H1  566   3.976   3.305   6.465
  203TIP3    H2  567   3.948   3.162   6.505
  204TIP3   OH2  568   7.103   0.100   0.595
  204TIP3    H1  569   7.170   0.127   0.658
  204TIP3    H2  570   7.059   0.026   0.636
  205TIP3   OH2  571   5.809   3.266   5.249
  205TIP3    H1  572   5.827   3.178   5.216
  205TIP3    H2  573   5.754   3.251   5.327
  206TIP3   OH2  574   0.244   0.518   3.016
  206TIP3    H1  575   0.171   0.570   3.048
  206TIP3    H2  576   0.245   0.534   2.921
  207TIP3   OH2  577   0.049   4.099   5.090
  207TIP3    H1  578   0.114   4.148   5.040
  207TIP3    H2  579   0.058   4.009   5.059
  208TIP3   OH2  580   4.111   2.221   1.465
  208TIP3    H1  581   4.109   2.137   1.419
  208TIP3    H2  582   4.019   2.246   1.473
  209TIP3   OH2  583   1.068   2.018   5.195
  209TIP3    H1  584   1.105   2.086   5.138
  209TIP3    H2  585   0.975   2.018   5.173
  210TIP3   OH2  586   6.460   0.264   5.527
  210TIP3    H1  587   6.507   0.287   5.607
  210TIP3    H2  588   6.504   0.314   5.458
  211TIP3   OH2  589   8.140   3.022   0.741
  211TIP3    H1  590   8.146   2.930   0.715
  211TIP3    H2  591   8.078   3.022   0.814
  212TIP3   OH2  592   3.079   7.627   3.324
  212TIP3    H1  593   3.109   7.712   3.355
  212TIP3    H2  594   3.127   7.613   3.242
  213TIP3   OH2  595   7.327   4.002   6.016
  213TIP3    H1  596   7.301   4.018   5.925
  213TIP3    H2  597   7.283   3.920   6.040
  214TIP3   OH2  598   6.990   7.701   0.879
  214TIP3    H1  599   6.910   7.752   0.889
  214TIP3    H2  600   6.964   7.624   0.829
  215TIP3   OH2  601   4.956   2.558   1.998
  215TIP3    H1  602   4.942   2.589   1.909
  215TIP3    H2  603   4.890   2.604   2.050
  216TIP3   OH2  604   5.865   6.079   4.325
  216TIP3    H1  605   5.905   6.139   4.262
  216TIP3    H2  606   5.927   6.076   4.398
  217TIP3   OH2  607   6.286   6.378   1.173
  217TIP3    H1  608   6.319   6.356   1.086
  217TIP3    H2  609   6.343   6.449   1.203
  218TIP3   OH2  610   4.897   0.984   2.686
  218TIP3    H1  611   4.980   0.982   2.639
  218TIP3    H2  612   4.923   0.994   2.778
  219TIP3   OH2  613   4.278   0.095   4.965
  219TIP3    H1  614   4.280   0.001   4.979
  219TIP3    H2  615   4.370   0.122   4.962
  220TIP3   OH2  616   3.100   6.262   0.060
  220TIP3    H1  617   3.156   6.195   0.099
  220TIP3    H2  618   3.016   6.252   0.104
  221TIP3   OH2  619   2.772   0.960   4.342
  221TIP3    H1  620   2.741   1.026   4.405
  221TIP3    H2  621   2.865   0.951   4.362
  222TIP3   OH2  622   2.827   3.456   0.852
  222TIP3    H1  623   2.843   3.543   0.815
  222TIP3    H2  624   2.754   3.468   0.912
  223TIP3   OH2  625   4.723   0.621   6.232
  223TIP3    H1  626   4.666   0.586   6.164
  223TIP3    H2  627   4.750   0.707   6.199
  224TIP3   OH2  628   2.378   3.492   4.024
  224TIP3    H1  629   2.374   3.442   3.943
  224TIP3    H2  630   2.462   3.537   4.020
  225TIP3   OH2  631   2.548   0.860   1.119
  225TIP3    H1  632   2.638   0.847   1.147
  225TIP3    H2  633   2.498   0.869   1.201
  226TIP3   OH2  634   6.368   5.830   6.531
  226TIP3    H1  635   6.330   5.913   6.561
  226TIP3    H2  636   6.431   5.807   6.599
  227TIP3   OH2  637   4.345   1.658   2.958
  227TIP3    H1  638   4.254   1.673   2.932
  227TIP3    H2  639   4.340   1.636   3.051
  228TIP3   OH2  640   0.299   2.348   3.661
  228TIP3    H1  641   0.239   2.416   3.692
  228TIP3    H2  642   0.338   2.384   3.582
  229TIP3   OH2  643   6.081   3.624   4.531
  229TIP3    H1  644   6.155   3.583   4.486
  229TIP3    H2  645   6.004   3.579   4.499
  230TIP3   OH2  646   3.322   3.573   5.092
  230TIP3    H1  647   3.308   3.649   5.149
  230TIP3    H2  648   3.237   3.531   5.085
  231TIP3   OH2  649   7.504   0.254   4.472
  231TIP3    H1  650   7.475   0.294   4.554
  231TIP3    H2  651   7.579   0.306   4.444
  232TIP3   OH2  652   3.600   3.631   0.124
  232TIP3    H1  653   3.611   3.638   0.029
  232TIP3    H2  654   3.576   3.539   0.139
  233TIP3   OH2  655   4.348   3.535   5.689
  233TIP3    H1  656   4.309   3.593   5.755
  233TIP3    H2  657   4.277   3.514   5.629
  234TIP3   OH2  658   3.721   4.404   3.179
  234TIP3    H1  659   3.812   4.392   3.153
  234TIP3    H2  660   3.723   4.404   3.275
  235TIP3   OH2  661   6.478   3.568   4.070
  235TIP3    H1  662   6.513   3.574   4.159
  235TIP3    H2  663   6.407   3.632   4.068
  236TIP3   OH2  664   6.455   6.636   3.615
  236TIP3    H1  665   6.544   6.599   3.620
  236TIP3    H2  666   6.461   6.719   3.663
  237TIP3   OH2  667   3.213   0.190   2.983
  237TIP3    H1  668   3.243   0.110   3.026
  237TIP3    H2  669   3.195   0.163   2.893
  238TIP3   OH2  670   6.933   7.226   1.890
  238TIP3    H1  671   6.988   7.151   1.912
  238TIP3    H2  672   6.876   7.237   1.966
  239TIP3   OH2  673   2.101   4.237   5.184
  239TIP3    H1  674   2.069   4.208   5.270
  239TIP3    H2  675   2.192   4.207   5.182
  240TIP3   OH2  676   0.956   4.839   3.327
  240TIP3    H1  677   0.961   4.854   3.233
  240TIP3    H2  678   1.047   4.829   3.355
  241TIP3   OH2  679   6.739   3.416   0.210
  241TIP3    H1  680   6.775   3.480   0.148
  241TIP3    H2  681   6.811   3.396   0.269
  242TIP3   OH2  682   4.564   0.157   1.926
  242TIP3    H1  683   4.620   0.136   1.851
  242TIP3    H2  684   4.590   0.246   1.950
  243TIP3   OH2  685   5.496   3.540   0.750
  243TIP3    H1  686   5.528   3.481   0.682
  243TIP3    H2  687   5.572   3.556   0.806
  244TIP3   OH2  688   2.413   3.221   2.330
  244TIP3    H1  689   2.439   3.312   2.346
  244TIP3    H2  690   2.477   3.169   2.379
  245TIP3   OH2  691   1.976   4.846   2.743
  245TIP3    H1  692   1.999   4.914   2.680
  245TIP3    H2  693   1.926   4.891   2.811
  246TIP3   OH2  694   1.219   0.252   0.213
  246TIP3    H1  695   1.284   0.306   0.168
  246TIP3    H2  696   1.137   0.299   0.203
  247TIP3   OH2  697   8.082   1.261   5.085
  247TIP3    H1  698   7.990   1.286   5.077
  247TIP3    H2  699   8.093   1.240   5.178
  248TIP3   OH2  700   0.603   6.187   5.849
  248TIP3    H1  701   0.530   6.243   5.875
  248TIP3    H2  702   0.583   6.161   5.759
  249TIP3   OH2  703   6.644   4.623   0.019
  249TIP3    H1  704   6.716   4.673   0.057
  249TIP3    H2  705   6.622   4.557   0.084
  250TIP3   OH2  706   2.693   4.807   0.039
  250TIP3    H1  707   2.612   4.755   0.045
  250TIP3    H2  708   2.758   4.747   0.003
  251TIP3   OH2  709   5.124   0.910   2.539
  251TIP3    H1  710   5.129   0.863   2.456
  251TIP3    H2  711   5.213   0.939   2.556
  252TIP3   OH2  712   2.065   6.264   4.339
  252TIP3    H1  713   1.991   6.279   4.398
  252TIP3    H2  714   2.102   6.351   4.323
  253TIP3   OH2  715   1.144   3.399   2.516
  253TIP3    H1  716   1.238   3.413   2.514
  253TIP3    H2  717   1.113   3.459   2.584
  254TIP3   OH2  718   0.362   5.567   4.927
  254TIP3    H1  719   0.267   5.577   4.925
  254TIP3    H2  720   0.376   5.472   4.931
  255TIP3   OH2  721   5.895   3.485   5.978
  255TIP3    H1  722   5.975   3.535   5.992
  255TIP3    H2  723   5.863   3.513   5.892
  256TIP3   OH2  724   0.700   0.614   0.321
  256TIP3    H1  725   0.635   0.684   0.324
  256TIP3    H2  726   0.690   0.576   0.233
  257TIP3   OH2  727   0.885   2.179   2.184
  257TIP3    H1  728   0.856   2.257   2.232
  257TIP3    H2  729   0.946   2.213   2.119
  258TIP3   OH2  730   0.203   3.256   3.569
  258TIP3    H1  731   0.221   3.330   3.627
  258TIP3    H2  732   0.141   3.289   3.505
  259TIP3   OH2  733   4.784   4.865   1.182
  259TIP3    H1  734   4.809   4.786   1.134
  259TIP3    H2  735   4.688   4.864   1.182
  260TIP3   OH2  736   5.105   6.729   2.805
  260TIP3    H1  737   5.121   6.730   2.710
  260TIP3    H2  738   5.057   6.648   2.821
  261TIP3   OH2  739   2.873   4.434   2.063
  261TIP3    H1  740   2.833   4.353   2.095
  261TIP3    H2  741   2.828   4.453   1.981
  262TIP3   OH2  742   5.020   2.784   4.746
  262TIP3    H1  743   5.065   2.855   4.701
  262TIP3    H2  744   5.081   2.755   4.814
  263TIP3   OH2  745   0.788   6.874   5.809
  263TIP3    H1  746   0.835   6.875   5.726
  263TIP3    H2  747   0.723   6.943   5.801
  264TIP3   OH2  748   3.760   1.455   3.681
  264TIP3    H1  749   3.773   1.506   3.761
  264TIP3    H2  750   3.699   1.507   3.629
  265TIP3   OH2  751   0.296   4.051   0.961
  265TIP3    H1  752   0.347   3.987   1.011
  265TIP3    H2  753   0.209   4.014   0.956
  266TIP3   OH2  754   7.065   0.060   5.564
  266TIP3    H1  755   7.024   0.124   5.622
  266TIP3    H2  756   7.157   0.084   5.563
  267TIP3   OH2  757   7.813   4.641   2.626
  267TIP3    H1  758   7.814   4.712   2.690
  267TIP3    H2  759   7.729   4.599   2.638
  268TIP3   OH2  760   5.260   6.676   1.756
  268TIP3    H1  761   5.262   6.598   1.811
  268TIP3    H2  762   5.352   6.703   1.748
  269TIP3   OH2  763   2.851   1.991   3.240
  269TIP3    H1  764   2.808   2.016   3.158
  269TIP3    H2  765   2.941   1.972   3.216
  270TIP3   OH2  766   7.415   3.478   4.976
  270TIP3    H1  767   7.368   3.555   5.006
  270TIP3    H2  768   7.492   3.513   4.930
  271TIP3   OH2  769   2.404   0.153   2.139
  271TIP3    H1  770   2.407   0.248   2.146
  271TIP3    H2  771   2.478   0.122   2.191
  272TIP3   OH2  772   2.534   7.597   6.566
  272TIP3    H1  773   2.537   7.576   6.660
  272TIP3    H2  774   2.626   7.599   6.540
  273TIP3   OH2  775   4.653   7.435   0.451
  273TIP3    H1  776   4.687   7.455   0.538
  273TIP3    H2  777   4.562   7.464   0.454
  274TIP3   OH2  778   5.188   4.841   3.361
  274TIP3    H1  779   5.266   4.889   3.387
  274TIP3    H2  780   5.210   4.749   3.377
  275TIP3   OH2  781   7.609   7.058   4.768
  275TIP3    H1  782   7.683   7.116   4.783
  275TIP3    H2  783   7.533   7.117   4.760
  276TIP3   OH2  784   6.146   6.443   5.387
  276TIP3    H1  785   6.166   6.349   5.384
  276TIP3    H2  786   6.187   6.473   5.468
  277TIP3   OH2  787   4.878   3.889   2.342
  277TIP3    H1  788   4.954   3.880   2.285
  277TIP3    H2  789   4.813   3.830   2.305
  278TIP3   OH2  790   5.439   7.325   1.501
  278TIP3    H1  791   5.476   7.251   1.548
  278TIP3    H2  792   5.354   7.341   1.544
  279TIP3   OH2  793   3.497   0.721   1.264
  279TIP3    H1  794   3.533   0.788   1.323
  279TIP3    H2  795   3.488   0.767   1.180
  280TIP3   OH2  796   4.858   2.087   3.501
  280TIP3    H1  797   4.920   2.124   3.564
  280TIP3    H2  798   4.889   1.998   3.486
  281TIP3   OH2  799   2.037   7.619   6.300
  281TIP3    H1  800   2.108   7.601   6.362
  281TIP3    H2  801   1.957   7.601   6.348
  282TIP3   OH2  802   1.711   3.005   5.121
  282TIP3    H1  803   1.657   2.980   5.046
  282TIP3    H2  804   1.653   2.998   5.196
  283TIP3   OH2  805   5.920   0.312   6.548
  283TIP3    H1  806   5.955   0.387   6.597
  283TIP3    H2  807   5.826   0.328   6.545
  284TIP3   OH2  808   3.293   5.433   1.309
  284TIP3    H1  809   3.353   5.359   1.321
  284TIP3    H2  810   3.351   5.509   1.300
  285TIP3   OH2  811   7.728   2.675   6.047
  285TIP3    H1  812   7.741   2.766   6.075
  285TIP3    H2  813   7.813   2.634   6.063
  286TIP3   OH2  814   7.963   2.628   4.261
  286TIP3    H1  815   7.869   2.637   4.244
  286TIP3    H2  816   7.968   2.584   4.346
  287TIP3   OH2  817   3.793   6.658   6.597
  287TIP3    H1  818   3.811   6.626   6.508
  287TIP3    H2  819   3.779   6.752   6.586
  288TIP3   OH2  820   5.538   2.733   4.877
  288TIP3    H1  821   5.504   2.813   4.838
  288TIP3    H2  822   5.632   2.750   4.890
  289TIP3   OH2  823   3.194   5.288   4.302
  289TIP3    H1  824   3.195   5.379   4.270
  289TIP3    H2  825   3.273   5.282   4.356
  290TIP3   OH2  826   7.642   4.100   1.390
  290TIP3    H1  827   7.642   4.013   1.350
  290TIP3    H2  828   7.554   4.134   1.372
  291TIP3   OH2  829   7.897   6.438   4.327
  291TIP3    H1  830   7.982   6.463   4.290
  291TIP3    H2  831   7.902   6.461   4.419
  292TIP3   OH2  832   2.574   2.521   5.624
  292TIP3    H1  833   2.582   2.435   5.666
  292TIP3    H2  834   2.504   2.565   5.672
  293TIP3   OH2  835   7.938   1.588   1.510
  293TIP3    H1  836   7.856   1.607   1.464
  293TIP3    H2  837   7.936   1.644   1.587
  294TIP3   OH2  838   2.406   7.444   0.276
  294TIP3    H1  839   2.500   7.431   0.286
  294TIP3    H2  840   2.371   7.439   0.365
  295TIP3   OH2  841   2.493   2.868   4.789
  295TIP3    H1  842   2.576   2.822   4.772
  295TIP3    H2  843   2.518   2.944   4.841
  296TIP3   OH2  844   2.779   4.187   3.894
  296TIP3    H1  845   2.694   4.217   3.861
  296TIP3    H2  846   2.832   4.175   3.815
  297TIP3   OH2  847   2.779   0.645   4.786
  297TIP3    H1  848   2.730   0.641   4.868
  297TIP3    H2  849   2.844   0.574   4.793
  298TIP3   OH2  850   2.797   5.257   5.791
  298TIP3    H1  851   2.749   5.326   5.745
  298TIP3    H2  852   2.856   5.221   5.725
  299TIP3   OH2  853   3.930   2.337   6.634
  299TIP3    H1  854   3.963   2.313   6.721
  299TIP3    H2  855   4.007   2.329   6.577
  300TIP3   OH2  856   7.585   1.784   1.065
  300TIP3    H1  857   7.621   1.851   1.122
  300TIP3    H2  858   7.622   1.803   0.978
  301TIP3   OH2  859   2.058   6.687   5.857
  301TIP3    H1  860   2.084   6.682   5.765
  301TIP3    H2  861   1.989   6.753   5.859
  302TIP3   OH2  862   6.741   1.620   6.600
  302TIP3    H1  863   6.699   1.542   6.565
  302TIP3    H2  864   6.799   1.650   6.530
  303TIP3   OH2  865   4.696   0.443   3.515
  303TIP3    H1  866   4.733   0.427   3.602
  303TIP3    H2  867   4.606   0.413   3.522
  304TIP3   OH2  868   5.075   3.604   5.950
  304TIP3    H1  869   5.145   3.660   5.916
  304TIP3    H2  870   5.015   3.665   5.993
  305TIP3   OH2  871   7.622   1.904   0.806
  305TIP3    H1  872   7.547   1.855   0.772
  305TIP3    H2  873   7.682   1.911   0.732
  306TIP3   OH2  874   6.071   7.571   4.470
  306TIP3    H1  875   6.088   7.477   4.464
  306TIP3    H2  876   5.975   7.578   4.465
  307TIP3   OH2  877   4.007   2.461   5.849
  307TIP3    H1  878   4.085   2.406   5.861
  307TIP3    H2  879   3.982   2.487   5.938
  308TIP3   OH2  880   6.718   3.299   1.643
  308TIP3    H1  881   6.655   3.370   1.636
  308TIP3    H2  882   6.708   3.266   1.732
  309TIP3   OH2  883   4.893   7.162   5.146
  309TIP3    H1  884   4.845   7.193   5.223
  309TIP3    H2  885   4.825   7.140   5.083
  310TIP3   OH2  886   3.556   4.078   3.921
  310TIP3    H1  887   3.618   4.147   3.947
  310TIP3    H2  888   3.611   4.001   3.905
  311TIP3   OH2  889   6.780   7.523   2.560
  311TIP3    H1  890   6.842   7.480   2.617
  311TIP3    H2  891   6.710   7.459   2.547
  312TIP3   OH2  892   4.394   0.610   3.454
  312TIP3    H1  893   4.474   0.626   3.404
  312TIP3    H2  894   4.323   0.628   3.393
  313TIP3   OH2  895   7.633   0.454   6.474
  313TIP3    H1  896   7.580   0.392   6.424
  313TIP3    H2  897   7.592   0.456   6.560
  314TIP3   OH2  898   3.982   7.627   6.607
  314TIP3    H1  899   3.947   7.704   6.650
  314TIP3    H2  900   4.074   7.624   6.634
  315TIP3   OH2  901   8.282   0.042   3.536
  315TIP3    H1  902   8.364  -0.003   3.555
  315TIP3    H2  903   8.228   0.027   3.614
  316TIP3   OH2  904   3.447   7.052   5.481
  316TIP3    H1  905   3.378   7.118   5.480
  316TIP3    H2  906   3.400   6.969   5.494
  317TIP3   OH2  907   1.778   3.648   5.438
  317TIP3    H1  908   1.788   3.628   5.345
  317TIP3    H2  909   1.816   3.572   5.482
  318TIP3   OH2  910   3.751   2.055   4.586
  318TIP3    H1  911   3.769   2.130   4.643
  318TIP3    H2  912   3.659   2.066   4.560
  319TIP3   OH2  913   3.847   0.244   2.433
  319TIP3    H1  914   3.821   0.178   2.498
  319TIP3    H2  915   3.772   0.251   2.375
  320TIP3   OH2  916   6.738   6.513   0.652
  320TIP3    H1  917   6.801   6.521   0.581
  320TIP3    H2  918   6.682   6.440   0.625
  321TIP3   OH2  919   4.412   0.400   1.676
  321TIP3    H1  920   4.350   0.401   1.749
  321TIP3    H2  921   4.372   0.455   1.609
  322TIP3   OH2  922   3.367   3.668   6.336
  322TIP3    H1  923   3.404   3.643   6.252
  322TIP3    H2  924   3.417   3.745   6.363
  323TIP3   OH2  925   3.609   4.299   4.794
  323TIP3    H1  926   3.534   4.267   4.744
  323TIP3    H2  927   3.580   4.293   4.885
  324TIP3   OH2  928   1.193   2.152   4.997
  324TIP3    H1  929   1.238   2.235   4.983
  324TIP3    H2  930   1.135   2.142   4.922
  325TIP3   OH2  931   1.873   2.579   1.896
  325TIP3    H1  932   1.809   2.564   1.827
  325TIP3    H2  933   1.824   2.568   1.978
  326TIP3   OH2  934   3.542   7.058   1.831
  326TIP3    H1  935   3.581   7.110   1.901
  326TIP3    H2  936   3.608   7.057   1.762
  327TIP3   OH2  937   0.275   5.839   5.838
  327TIP3    H1  938   0.190   5.865   5.875
  327TIP3    H2  939   0.340   5.883   5.893
  328TIP3   OH2  940   8.093   1.248   0.445
  328TIP3    H1  941   8.001   1.258   0.468
  328TIP3    H2  942   8.135   1.214   0.524
  329TIP3   OH2  943   2.939   2.347   1.774
  329TIP3    H1  944   2.945   2.430   1.823
  329TIP3    H2  945   2.942   2.373   1.682
  330TIP3   OH2  946   5.630   5.306   6.042
  330TIP3    H1  947   5.594   5.254   5.970
  330TIP3    H2  948   5.593   5.394   6.029
  331TIP3   OH2  949   6.787   1.057   5.031
  331TIP3    H1  950   6.704   1.051   4.985
  331TIP3    H2  951   6.827   0.970   5.019
  332TIP3   OH2  952   3.994   5.225   1.697
  332TIP3    H1  953   3.975   5.258   1.609
  332TIP3    H2  954   4.073   5.273   1.724
  333TIP3   OH2  955   7.158   7.515   6.189
  333TIP3    H1  956   7.194   7.434   6.152
  333TIP3    H2  957   7.109   7.486   6.266
  334TIP3   OH2  958   1.794   5.799   4.482
  334TIP3    H1  959   1.738   5.727   4.511
  334TIP3    H2  960   1.861   5.756   4.428
  335TIP3   OH2  961   8.028   4.382   5.493
  335TIP3    H1  962   8.072   4.333   5.563
  335TIP3    H2  963   7.935   4.363   5.505
  336TIP3   OH2  964   3.709   1.633   4.341
  336TIP3    H1  965   3.772   1.586   4.285
  336TIP3    H2  966   3.740   1.723   4.341
  337TIP3   OH2  967   4.033   3.703   6.452
  337TIP3    H1  968   4.073   3.621   6.424
  337TIP3    H2  969   3.986   3.735   6.375
  338TIP3   OH2  970   0.234   1.707   2.680
  338TIP3    H1  971   0.311   1.747   2.721
  338TIP3    H2  972   0.183   1.673   2.754
  339TIP3   OH2  973   3.481   1.318   5.187
  339TIP3    H1  974   3.576   1.333   5.187
  339TIP3    H2  975   3.469   1.247   5.250
  340TIP3   OH2  976   7.443   4.989   2.846
  340TIP3    H1  977   7.461   4.938   2.767
  340TIP3    H2  978   7.444   5.080   2.817
  341TIP3   OH2  979   6.928   5.865   6.548
  341TIP3    H1  980   6.837   5.894   6.551
  341TIP3    H2  981   6.927   5.789   6.489
  342TIP3   OH2  982   7.238   4.120   5.326
  342TIP3    H1  983   7.300   4.143   5.256
  342TIP3    H2  984   7.154   4.112   5.282
  343TIP3   OH2  985   0.187   6.929   5.934
  343TIP3    H1  986   0.119   6.888   5.987
  343TIP3    H2  987   0.181   7.022   5.955
  344TIP3   OH2  988   7.021   5.472   1.305
  344TIP3    H1  989   6.990   5.535   1.240
  344TIP3    H2  990   6.978   5.390   1.282
  345TIP3   OH2  991   7.561   2.388   5.880
  345TIP3    H1  992   7.513   2.470   5.889
  345TIP3    H2  993   7.652   2.415   5.870
  346TIP3   OH2  994   0.795   2.489   2.598
  346TIP3    H1  995   0.793   2.409   2.651
  346TIP3    H2  996   0.846   2.551   2.649
  347TIP3   OH2  997   1.417   5.719   5.834
  347TIP3    H1  998   1.364   5.643   5.856
  347TIP3    H2  999   1.412   5.726   5.738
  348TIP3   OH2 1000   4.611   5.347   3.558
  348TIP3    H1 1001   4.652   5.282   3.615
  348TIP3    H2 1002   4.518   5.325   3.558
  349TIP3   OH2 1003   0.372   6.554   3.582
  349TIP3    H1 1004   0.440   6.621   3.591
  349TIP3    H2 1005   0.292   6.604   3.561
  350TIP3   OH2 1006   7.527   2.114   0.346
  350TIP3    H1 1007   7.616   2.146   0.358
  350TIP3    H2 1008   7.504   2.138   0.256
  351TIP3   OH2 1009   2.652   3.236   4.612
  351TIP3    H1 1010   2.605   3.263   4.691
  351TIP3    H2 1011   2.677   3.317   4.569
  352TIP3   OH2 1012   8.106   6.075   2.416
  352TIP3    H1 1013   8.108   5.979   2.419
  352TIP3    H2 1014   8.045   6.099   2.485
  353TIP3   OH2 1015   7.269   1.664   2.560
  353TIP3    H1 1016   7.338   1.613   2.518
  353TIP3    H2 1017   7.303   1.753   2.562
  354TIP3   OH2 1018   4.675   2.121   0.570
  354TIP3    H1 1019   4.713   2.131   0.483
  354TIP3    H2 1020   4.626   2.039   0.566
  355TIP3   OH2 1021   2.088   3.457   5.726
  355TIP3    H1 1022   2.154   3.527   5.733
  355TIP3    H2 1023   2.064   3.438   5.817
  356TIP3   OH2 1024   5.105   3.311   5.697
  356TIP3    H1 1025   5.188   3.267   5.676
  356TIP3    H2 1026   5.102   3.313   5.792
  357TIP3   OH2 1027   7.192   0.669   1.006
  357TIP3    H1 1028   7.178   0.623   1.089
  357TIP3    H2 1029   7.146   0.616   0.941
  358TIP3   OH2 1030   6.156   1.358   4.033
  358TIP3    H1 1031   6.238   1.315   4.060
  358TIP3    H2 1032   6.180   1.450   4.021
  359TIP3   OH2 1033   4.982   7.307   2.029
  359TIP3    H1 1034   4.951   7.266   2.110
  359TIP3    H2 1035   5.076   7.287   2.027
  360TIP3   OH2 1036   5.199   7.094   3.161
  360TIP3    H1 1037   5.120   7.086   3.215
  360TIP3    H2 1038   5.209   7.009   3.119
  361TIP3   OH2 1039   1.139   6.245   0.953
  361TIP3    H1 1040   1.137   6.310   0.882
  361TIP3    H2 1041   1.188   6.172   0.916
  362TIP3   OH2 1042   4.535   6.094   5.359
  362TIP3    H1 1043   4.487   6.176   5.372
  362TIP3    H2 1044   4.615   6.105   5.411
  363TIP3   OH2 1045   2.151   4.709   0.577
  363TIP3    H1 1046   2.243   4.689   0.562
  363TIP3    H2 1047   2.113   4.711   0.489
  364TIP3   OH2 1048   7.136   5.197   5.764
  364TIP3    H1 1049   7.051   5.225   5.730
  364TIP3    H2 1050   7.124   5.190   5.858
  365TIP3   OH2 1051   3.027   6.836   1.559
  365TIP3    H1 1052   2.937   6.866   1.568
  365TIP3    H2 1053   3.058   6.825   1.649
  366TIP3   OH2 1054   4.151   3.593   6.013
  366TIP3    H1 1055   4.096   3.598   5.935
  366TIP3    H2 1056   4.231   3.640   5.988
  367TIP3   OH2 1057   2.142   6.803   0.569
  367TIP3    H1 1058   2.116   6.865   0.501
  367TIP3    H2 1059   2.236   6.816   0.579
  368TIP3   OH2 1060   0.292   6.103   6.027
  368TIP3    H1 1061   0.236   6.171   5.988
  368TIP3    H2 1062   0.369   6.101   5.970
  369TIP3   OH2 1063   2.331   2.320   2.164
  369TIP3    H1 1064   2.343   2.311   2.070
  369TIP3    H2 1065   2.267   2.390   2.173
  370TIP3   OH2 1066   0.478   2.512   3.016
  370TIP3    H1 1067   0.396   2.469   3.040
  370TIP3    H2 1068   0.452   2.585   2.960
  371TIP3   OH2 1069   3.047   4.779   5.756
  371TIP3    H1 1070   3.050   4.875   5.759
  371TIP3    H2 1071   2.954   4.758   5.761
  372TIP3   OH2 1072   1.037   0.967   0.574
  372TIP3    H1 1073   1.028   1.056   0.608
  372TIP3    H2 1074   0.952   0.948   0.534
  373TIP3   OH2 1075   7.064   3.106   0.879
  373TIP3    H1 1076   7.146   3.074   0.842
  373TIP3    H2 1077   7.030   3.033   0.929
  374TIP3   OH2 1078   6.890   5.896   2.679
  374TIP3    H1 1079   6.897   5.916   2.586
  374TIP3    H2 1080   6.885   5.801   2.683
  375TIP3   OH2 1081   7.781   3.628   5.767
  375TIP3    H1 1082   7.747   3.699   5.823
  375TIP3    H2 1083   7.858   3.666   5.725
  376TIP3   OH2 1084   2.498   1.408   6.718
  376TIP3    H1 1085   2.454   1.332   6.755
  376TIP3    H2 1086   2.575   1.372   6.673
  377TIP3   OH2 1087   1.109   3.120   0.294
  377TIP3    H1 1088   1.153   3.158   0.218
  377TIP3    H2 1089   1.093   3.195   0.352
  378TIP3   OH2 1090   0.585   0.932   1.015
  378TIP3    H1 1091   0.515   0.996   1.007
  378TIP3    H2 1092   0.618   0.944   1.104
  379TIP3   OH2 1093   3.458   4.908   2.743
  379TIP3    H1 1094   3.403   4.873   2.813
  379TIP3    H2 1095   3.540   4.930   2.785
  380TIP3   OH2 1096   4.413   5.828   5.185
  380TIP3    H1 1097   4.438   5.736   5.187
  380TIP3    H2 1098   4.455   5.866   5.262
  381TIP3   OH2 1099   5.952   0.414   5.450
  381TIP3    H1 1100   5.964   0.466   5.370
  381TIP3    H2 1101   6.041   0.385   5.473
  382TIP3   OH2 1102   2.323   4.240   6.594
  382TIP3    H1 1103   2.269   4.196   6.659
  382TIP3    H2 1104   2.298   4.200   6.511
  383TIP3   OH2 1105   8.046   1.596   4.729
  383TIP3    H1 1106   8.052   1.653   4.806
  383TIP3    H2 1107   8.128   1.547   4.727
  384TIP3   OH2 1108   5.153   4.691   6.495
  384TIP3    H1 1109   5.060   4.711   6.498
  384TIP3    H2 1110   5.181   4.697   6.587
  385TIP3   OH2 1111   7.814   2.255   3.178
  385TIP3    H1 1112   7.731   2.302   3.173
  385TIP3    H2 1113   7.834   2.252   3.272
  386TIP3   OH2 1114   4.551   5.097   4.304
  386TIP3    H1 1115   4.516   5.015   4.338
  386TIP3    H2 1116   4.633   5.110   4.352
  387TIP3   OH2 1117   1.419   7.220   1.097
  387TIP3    H1 1118   1.337   7.236   1.051
  387TIP3    H2 1119   1.477   7.290   1.068
  388TIP3   OH2 1120   4.883   5.810   2.710
  388TIP3    H1 1121   4.807   5.851   2.670
  388TIP3    H2 1122   4.846   5.736   2.760
  389TIP3   OH2 1123   0.333   5.855   0.669
  389TIP3    H1 1124   0.375   5.770   0.665
  389TIP3    H2 1125   0.251   5.844   0.620
  390TIP3   OH2 1126   6.701   4.111   3.563
  390TIP3    H1 1127   6.624   4.096   3.509
  390TIP3    H2 1128   6.752   4.031   3.555
  391TIP3   OH2 1129   6.735   0.248   6.557
  391TIP3    H1 1130   6.690   0.172   6.594
  391TIP3    H2 1131   6.717   0.242   6.463
  392TIP3   OH2 1132   4.000   4.623   4.106
  392TIP3    H1 1133   3.992   4.697   4.046
  392TIP3    H2 1134   3.958   4.550   4.061
  393TIP3   OH2 1135   0.970   2.181   0.810
  393TIP3    H1 1136   0.989   2.260   0.759
  393TIP3    H2 1137   1.039   2.120   0.787
  394TIP3   OH2 1138   6.820   0.518   0.484
  394TIP3    H1 1139   6.912   0.493   0.488
  394TIP3    H2 1140   6.801   0.526   0.391
  395TIP3   OH2 1141   1.073   6.819   0.483
  395TIP3    H1 1142   1.085   6.914   0.480
  395TIP3    H2 1143   1.158   6.785   0.510
  396TIP3   OH2 1144   3.311   1.080   4.648
  396TIP3    H1 1145   3.251   1.137   4.600
  396TIP3    H2 1146   3.398   1.110   4.622
  397TIP3   OH2 1147   1.178   4.113   3.023
  397TIP3    H1 1148   1.218   4.173   2.960
  397TIP3    H2 1149   1.118   4.060   2.970
  398TIP3   OH2 1150   5.979   5.010   5.840
  398TIP3    H1 1151   5.953   4.918   5.843
  398TIP3    H2 1152   6.006   5.024   5.749
  399TIP3   OH2 1153   5.658   7.520   3.766
  399TIP3    H1 1154   5.563   7.508   3.763
  399TIP3    H2 1155   5.690   7.444   3.816
  400TIP3   OH2 1156   6.131   7.365   1.786
  400TIP3    H1 1157   6.055   7.372   1.728
  400TIP3    H2 1158   6.177   7.287   1.755
  401TIP3   OH2 1159   1.722   5.658   2.984
  401TIP3    H1 1160   1.743   5.565   2.996
  401TIP3    H2 1161   1.629   5.658   2.963
  402TIP3   OH2 1162   7.718   3.837   6.619
  402TIP3    H1 1163   7.714   3.782   6.541
  402TIP3    H2 1164   7.810   3.835   6.645
  403TIP3   OH2 1165   1.221   4.972   3.767
  403TIP3    H1 1166   1.161   4.932   3.831
  403TIP3    H2 1167   1.266   5.040   3.817
  404TIP3   OH2 1168   4.451   0.045   1.196
  404TIP3    H1 1169   4.410  -0.007   1.265
  404TIP3    H2 1170   4.447   0.135   1.228
  405TIP3   OH2 1171   7.744   0.933   5.273
  405TIP3    H1 1172   7.823   0.928   5.326
  405TIP3    H2 1173   7.770   0.985   5.197
  406TIP3   OH2 1174   6.201   3.394   4.061
  406TIP3    H1 1175   6.248   3.320   4.100
  406TIP3    H2 1176   6.182   3.365   3.971
  407TIP3   OH2 1177   4.636   3.662   6.342
  407TIP3    H1 1178   4.663   3.745   6.381
  407TIP3    H2 1179   4.596   3.687   6.258
  408TIP3   OH2 1180   0.808   1.019   2.000
  408TIP3    H1 1181   0.813   1.093   2.060
  408TIP3    H2 1182   0.886   0.966   2.021
  409TIP3   OH2 1183   2.056   0.117   3.915
  409TIP3    H1 1184   2.060   0.132   4.010
  409TIP3    H2 1185   1.969   0.146   3.889
  410TIP3   OH2 1186   3.746   4.799   1.621
  410TIP3    H1 1187   3.806   4.774   1.551
  410TIP3    H2 1188   3.782   4.880   1.656
  411TIP3   OH2 1189   7.872   0.071   2.573
  411TIP3    H1 1190   7.779   0.059   2.554
  411TIP3    H2 1191   7.881   0.048   2.666
  412TIP3   OH2 1192   6.726   2.613   4.917
  412TIP3    H1 1193   6.729   2.563   4.835
  412TIP3    H2 1194   6.719   2.705   4.889
  413TIP3   OH2 1195   4.524   5.191   5.521
  413TIP3    H1 1196   4.485   5.183   5.608
  413TIP3    H2 1197   4.588   5.121   5.517
  414TIP3   OH2 1198   3.213   3.422   4.704
  414TIP3    H1 1199   3.144   3.357   4.712
  414TIP3    H2 1200   3.291   3.373   4.679
  415TIP3   OH2 1201   4.899   7.114   1.802
  415TIP3    H1 1202   4.968   7.103   1.737
  415TIP3    H2 1203   4.922   7.195   1.847
  416TIP3   OH2 1204   5.593   6.672   0.215
  416TIP3    H1 1205   5.515   6.670   0.160
  416TIP3    H2 1206   5.626   6.582   0.213
  417TIP3   OH2 1207   1.946   1.234   1.456
  417TIP3    H1 1208   1.981   1.229   1.367
  417TIP3    H2 1209   1.966   1.323   1.484
  418TIP3   OH2 1210   4.886   0.776   1.482
  418TIP3    H1 1211   4.901   0.778   1.387
  418TIP3    H2 1212   4.807   0.829   1.495
  419TIP3   OH2 1213   2.012   3.970   4.756
  419TIP3    H1 1214   2.054   4.036   4.701
  419TIP3    H2 1215   2.008   4.011   4.843
  420TIP3   OH2 1216   1.756   0.806   2.474
  420TIP3    H1 1217   1.757   0.733   2.412
  420TIP3    H2 1218   1.822   0.783   2.539
  421TIP3   OH2 1219   8.234   6.909   4.626
  421TIP3    H1 1220   8.199   6.964   4.555
  421TIP3    H2 1221   8.270   6.833   4.582
  422TIP3   OH2 1222   4.720   3.165   4.098
  422TIP3    H1 1223   4.786   3.114   4.050
  422TIP3    H2 1224   4.657   3.191   4.031
  423TIP3   OH2 1225   1.438   2.756   3.096
  423TIP3    H1 1226   1.469   2.682   3.043
  423TIP3    H2 1227   1.515   2.809   3.111
  424TIP3   OH2 1228   2.884   5.144   2.175
  424TIP3    H1 1229   2.928   5.092   2.108
  424TIP3    H2 1230   2.885   5.234   2.141
  425TIP3   OH2 1231   4.664   7.406   3.697
  425TIP3    H1 1232   4.612   7.369   3.626
  425TIP3    H2 1233   4.699   7.488   3.661
  426TIP3   OH2 1234   2.607   0.893   1.447
  426TIP3    H1 1235   2.572   0.867   1.533
  426TIP3    H2 1236   2.537   0.945   1.408
  427TIP3   OH2 1237   1.404   5.766   3.995
  427TIP3    H1 1238   1.490   5.727   3.983
  427TIP3    H2 1239   1.365   5.767   3.908
  428TIP3   OH2 1240   4.959   1.151   5.796
  428TIP3    H1 1241   4.915   1.236   5.791
  428TIP3    H2 1242   4.997   1.138   5.709
  429TIP3   OH2 1243   6.983   0.843   5.019
  429TIP3    H1 1244   7.059   0.843   4.961
  429TIP3    H2 1245   7.019   0.854   5.107
  430TIP3   OH2 1246   3.765   3.258   5.035
  430TIP3    H1 1247   3.753   3.349   5.063
  430TIP3    H2 1248   3.860   3.244   5.044
  431TIP3   OH2 1249   3.174   1.658   4.938
  431TIP3    H1 1250   3.188   1.566   4.915
  431TIP3    H2 1251   3.083   1.662   4.966
  432TIP3   OH2 1252   1.391   1.388   0.790
  432TIP3    H1 1253   1.413   1.436   0.710
  432TIP3    H2 1254   1.297   1.404   0.802
  433TIP3   OH2 1255   6.979   6.914   2.137
  433TIP3    H1 1256   7.018   6.912   2.050
  433TIP3    H2 1257   7.014   6.993   2.178
  434TIP3   OH2 1258   7.391   0.648   4.075
  434TIP3    H1 1259   7.414   0.617   3.987
  434TIP3    H2 1260   7.410   0.741   4.074
  435TIP3   OH2 1261   5.501   1.157   2.800
  435TIP3    H1 1262   5.582   1.160   2.750
  435TIP3    H2 1263   5.442   1.102   2.749
  436TIP3   OH2 1264   7.987   0.092   5.002
  436TIP3    H1 1265   8.025   0.099   4.915
  436TIP3    H2 1266   7.982  -0.003   5.018
  437TIP3   OH2 1267   6.236   0.817   2.354
  437TIP3    H1 1268   6.153   0.770   2.346
  437TIP3    H2 1269   6.273   0.816   2.265
  438TIP3   OH2 1270   0.644   5.181   4.561
  438TIP3    H1 1271   0.586   5.228   4.619
  438TIP3    H2 1272   0.670   5.103   4.610
  439TIP3   OH2 1273   5.036   2.134   2.790
  439TIP3    H1 1274   4.979   2.100   2.859
  439TIP3    H2 1275   5.107   2.178   2.836
  440TIP3   OH2 1276   7.727   6.738   4.566
  440TIP3    H1 1277   7.794   6.799   4.598
  440TIP3    H2 1278   7.713   6.764   4.475
  441TIP3   OH2 1279   7.216   2.343   0.526
  441TIP3    H1 1280   7.128   2.308   0.540
  441TIP3    H2 1281   7.208   2.437   0.541
  442TIP3   OH2 1282   1.371   6.207   5.769
  442TIP3    H1 1283   1.372   6.240   5.680
  442TIP3    H2 1284   1.418   6.124   5.765
  443TIP3   OH2 1285   4.897   2.919   0.729
  443TIP3    H1 1286   4.990   2.896   0.730
  443TIP3    H2 1287   4.856   2.850   0.677
  444TIP3   OH2 1288   0.195   4.104   1.734
  444TIP3    H1 1289   0.177   4.100   1.640
  444TIP3    H2 1290   0.282   4.145   1.739
  445TIP3   OH2 1291   4.920   0.068   6.335
  445TIP3    H1 1292   4.883  -0.018   6.313
  445TIP3    H2 1293   5.015   0.054   6.333
  446TIP3   OH2 1294   5.908   5.683   3.807
  446TIP3    H1 1295   5.821   5.657   3.838
  446TIP3    H2 1296   5.944   5.604   3.767
  447TIP3   OH2 1297   6.555   1.615   2.437
  447TIP3    H1 1298   6.618   1.557   2.393
  447TIP3    H2 1299   6.493   1.640   2.369
  448TIP3   OH2 1300   2.099   5.455   2.717
  448TIP3    H1 1301   2.116   5.406   2.636
  448TIP3    H2 1302   2.103   5.389   2.786
  449TIP3   OH2 1303   7.887   3.109   1.308
  449TIP3    H1 1304   7.965   3.099   1.362
  449TIP3    H2 1305   7.880   3.204   1.294
  450TIP3   OH2 1306   1.747   0.819   4.645
  450TIP3    H1 1307   1.730   0.794   4.736
  450TIP3    H2 1308   1.693   0.761   4.593
  451TIP3   OH2 1309   5.650   7.483   6.162
  451TIP3    H1 1310   5.557   7.493   6.181
  451TIP3    H2 1311   5.691   7.559   6.204
  452TIP3   OH2 1312   4.718   6.181   3.565
  452TIP3    H1 1313   4.716   6.091   3.532
  452TIP3    H2 1314   4.697   6.173   3.658
  453TIP3   OH2 1315   1.118   7.378   6.162
  453TIP3    H1 1316   1.110   7.464   6.203
  453TIP3    H2 1317   1.046   7.327   6.197
  454TIP3   OH2 1318   5.720   3.731   4.940
  454TIP3    H1 1319   5.684   3.749   4.853
  454TIP3    H2 1320   5.679   3.648   4.966
  455TIP3   OH2 1321   3.623   1.142   0.881
  455TIP3    H1 1322   3.553   1.147   0.816
  455TIP3    H2 1323   3.699   1.109   0.832
  456TIP3   OH2 1324   1.139   4.439   5.960
  456TIP3    H1 1325   1.172   4.406   5.877
  456TIP3    H2 1326   1.065   4.382   5.981
  457TIP3   OH2 1327   6.236   4.379   1.456
  457TIP3    H1 1328   6.242   4.288   1.426
  457TIP3    H2 1329   6.261   4.375   1.549
  458TIP3   OH2 1330   0.951   0.291   3.379
  458TIP3    H1 1331   0.858   0.309   3.370
  458TIP3    H2 1332   0.976   0.254   3.294
  459TIP3   OH2 1333   4.837   7.448   6.387
  459TIP3    H1 1334   4.817   7.406   6.304
  459TIP3    H2 1335   4.850   7.540   6.364
  460TIP3   OH2 1336   6.103   7.464   5.093
  460TIP3    H1 1337   6.135   7.554   5.082
  460TIP3    H2 1338   6.078   7.458   5.185
  461TIP3   OH2 1339   2.445   5.955   4.151
  461TIP3    H1 1340   2.379   5.889   4.135
  461TIP3    H2 1341   2.433   6.019   4.081
  462TIP3   OH2 1342   8.246   4.810   1.387
  462TIP3    H1 1343   8.173   4.802   1.448
  462TIP3    H2 1344   8.232   4.740   1.323
  463TIP3   OH2 1345   7.975   5.107   5.936
  463TIP3    H1 1346   7.993   5.197   5.907
  463TIP3    H2 1347   8.036   5.093   6.009
  464TIP3   OH2 1348   6.852   4.416   0.083
  464TIP3    H1 1349   6.870   4.322   0.081
  464TIP3    H2 1350   6.866   4.445  -0.007
  465TIP3   OH2 1351   4.744   5.144   4.573
  465TIP3    H1 1352   4.826   5.151   4.524
  465TIP3    H2 1353   4.697   5.225   4.551
  466TIP3   OH2 1354   5.152   7.476   0.162
  466TIP3    H1 1355   5.230   7.532   0.168
  466TIP3    H2 1356   5.080   7.536   0.145
  467TIP3   OH2 1357   1.322   0.903   0.690
  467TIP3    H1 1358   1.274   0.891   0.772
  467TIP3    H2 1359   1.366   0.820   0.675
  468TIP3   OH2 1360   5.998   3.758   1.679
  468TIP3    H1 1361   5.964   3.673   1.653
  468TIP3    H2 1362   6.042   3.792   1.601
  469TIP3   OH2 1363   3.576   2.729   5.513
  469TIP3    H1 1364   3.488   2.693   5.526
  469TIP3    H2 1365   3.574   2.763   5.423
  470TIP3   OH2 1366   6.295   6.725   2.930
  470TIP3    H1 1367   6.278   6.704   2.838
  470TIP3    H2 1368   6.381   6.768   2.929
  471TIP3   OH2 1369   3.292   4.436   2.961
  471TIP3    H1 1370   3.323   4.460   3.049
  471TIP3    H2 1371   3.370   4.400   2.918
  472TIP3   OH2 1372   6.896   1.396   6.449
  472TIP3    H1 1373   6.801   1.402   6.437
  472TIP3    H2 1374   6.932   1.422   6.364
  473TIP3   OH2 1375   7.202   4.215   2.395
  473TIP3    H1 1376   7.238   4.132   2.364
  473TIP3    H2 1377   7.116   4.221   2.352
  474TIP3   OH2 1378   3.984   3.774   3.010
  474TIP3    H1 1379   4.044   3.835   2.968
  474TIP3    H2 1380   3.903   3.824   3.022
  475TIP3   OH2 1381   0.704   4.790   2.747
  475TIP3    H1 1382   0.738   4.870   2.788
  475TIP3    H2 1383   0.677   4.818   2.659
  476TIP3   OH2 1384   7.014   3.543   6.502
  476TIP3    H1 1385   6.950   3.485   6.543
  476TIP3    H2 1386   6.968   3.627   6.496
  477TIP3   OH2 1387   6.649   6.997   5.012
  477TIP3    H1 1388   6.731   6.976   4.968
  477TIP3    H2 1389   6.610   7.068   4.961
  478TIP3   OH2 1390   4.017   7.556   1.485
  478TIP3    H1 1391   4.010   7.464   1.459
  478TIP3    H2 1392   4.098   7.586   1.443
  479TIP3   OH2 1393   3.719   2.521   0.489
  479TIP3    H1 1394   3.785   2.576   0.532
  479TIP3    H2 1395   3.646   2.520   0.550
  480TIP3   OH2 1396   4.507   0.206   5.771
  480TIP3    H1 1397   4.549   0.139   5.824
  480TIP3    H2 1398   4.576   0.271   5.755
  481TIP3   OH2 1399   6.869   5.070   6.397
  481TIP3    H1 1400   6.942   5.034   6.449
  481TIP3    H2 1401   6.904   5.078   6.309
  482TIP3   OH2 1402   0.873   0.734   6.409
  482TIP3    H1 1403   0.847   0.673   6.340
  482TIP3    H2 1404   0.968   0.746   6.396
  483TIP3   OH2 1405   2.637   5.044   2.248
  483TIP3    H1 1406   2.570   5.064   2.183
  483TIP3    H2 1407   2.718   5.077   2.211
  484TIP3   OH2 1408   2.704   5.471   1.016
  484TIP3    H1 1409   2.685   5.541   0.954
  484TIP3    H2 1410   2.799   5.476   1.030
  485TIP3   OH2 1411   3.072   0.789   2.388
  485TIP3    H1 1412   3.003   0.746   2.338
  485TIP3    H2 1413   3.082   0.874   2.345
  486TIP3   OH2 1414   0.264   2.160   2.010
  486TIP3    H1 1415   0.204   2.198   2.073
  486TIP3    H2 1416   0.212   2.096   1.962
  487TIP3   OH2 1417   3.038   1.821   1.798
  487TIP3    H1 1418   3.072   1.905   1.766
  487TIP3    H2 1419   2.983   1.844   1.873
  488TIP3   OH2 1420   8.179   7.132   1.555
  488TIP3    H1 1421   8.186   7.102   1.464
  488TIP3    H2 1422   8.143   7.056   1.602
  489TIP3   OH2 1423   3.152   1.806   5.236
  489TIP3    H1 1424   3.133   1.895   5.265
  489TIP3    H2 1425   3.243   1.809   5.207
  490TIP3   OH2 1426   0.827   7.074   1.126
  490TIP3    H1 1427   0.780   7.108   1.202
  490TIP3    H2 1428   0.789   6.988   1.111
  491TIP3   OH2 1429   2.596   4.206   6.822
  491TIP3    H1 1430   2.585   4.261   6.744
  491TIP3    H2 1431   2.664   4.143   6.798
  492TIP3   OH2 1432   3.036   1.244   1.811
  492TIP3    H1 1433   3.111   1.278   1.762
  492TIP3    H2 1434   3.074   1.180   1.872
  493TIP3   OH2 1435   3.436   6.305   2.927
  493TIP3    H1 1436   3.398   6.236   2.872
  493TIP3    H2 1437   3.414   6.279   3.017
  494TIP3   OH2 1438   6.710   5.832   6.185
  494TIP3    H1 1439   6.691   5.891   6.112
  494TIP3    H2 1440   6.672   5.748   6.159
  495TIP3   OH2 1441   1.412   7.716   4.665
  495TIP3    H1 1442   1.353   7.652   4.705
  495TIP3    H2 1443   1.493   7.708   4.715
  496TIP3   OH2 1444   6.622   7.453   4.806
  496TIP3    H1 1445   6.699   7.435   4.860
  496TIP3    H2 1446   6.571   7.373   4.808
  497TIP3   OH2 1447   5.584   0.472   2.794
  497TIP3    H1 1448   5.601   0.499   2.884
  497TIP3    H2 1449   5.523   0.399   2.801
  498TIP3   OH2 1450   3.074   7.102   5.502
  498TIP3    H1 1451   3.018   7.045   5.555
  498TIP3    H2 1452   3.145   7.127   5.561
  499TIP3   OH2 1453   6.246   7.797   3.620
  499TIP3    H1 1454   6.309   7.837   3.680
  499TIP3    H2 1455   6.273   7.705   3.615
  500TIP3   OH2 1456   2.474   5.947   5.461
  500TIP3    H1 1457   2.568   5.963   5.473
  500TIP3    H2 1458   2.455   5.982   5.374
  501TIP3   OH2 1459   1.719   0.595   0.380
  501TIP3    H1 1460   1.791   0.543   0.415
  501TIP3    H2 1461   1.648   0.532   0.366
  502TIP3   OH2 1462   3.630   2.830   1.195
  502TIP3    H1 1463   3.568   2.816   1.124
  502TIP3    H2 1464   3.606   2.915   1.231
  503TIP3   OH2 1465   1.942   6.556   3.871
  503TIP3    H1 1466   1.911   6.602   3.793
  503TIP3    H2 1467   2.036   6.575   3.874
  504TIP3   OH2 1468   0.962   6.183   6.046
  504TIP3    H1 1469   0.995   6.233   5.971
  504TIP3    H2 1470   1.032   6.189   6.111
  505TIP3   OH2 1471   4.048   7.125   0.801
  505TIP3    H1 1472   4.028   7.217   0.816
  505TIP3    H2 1473   4.095   7.124   0.718
  506TIP3   OH2 1474   1.846   6.002   1.213
  506TIP3    H1 1475   1.882   5.995   1.301
  506TIP3    H2 1476   1.862   5.917   1.173
  507TIP3   OH2 1477   0.771   7.317   4.344
  507TIP3    H1 1478   0.846   7.318   4.285
  507TIP3    H2 1479   0.797   7.372   4.418
  508TIP3   OH2 1480   3.490   5.241   0.778
  508TIP3    H1 1481   3.521   5.321   0.735
  508TIP3    H2 1482   3.395   5.243   0.767
  509TIP3   OH2 1483   2.591   7.095   5.847
  509TIP3    H1 1484   2.611   7.188   5.856
  509TIP3    H2 1485   2.528   7.077   5.916
  510TIP3   OH2 1486   0.073   2.733   3.439
  510TIP3    H1 1487   0.146   2.672   3.429
  510TIP3    H2 1488  -0.003   2.686   3.405
  511TIP3   OH2 1489   7.527   5.214   4.223
  511TIP3    H1 1490   7.583   5.152   4.269
  511TIP3    H2 1491   7.460   5.160   4.182
  512TIP3   OH2 1492   7.899   7.602   1.323
  512TIP3    H1 1493   7.865   7.553   1.398
  512TIP3    H2 1494   7.970   7.655   1.360
  513TIP3   OH2 1495   5.923   4.178   3.180
  513TIP3    H1 1496   5.909   4.089   3.211
  513TIP3    H2 1497   5.982   4.168   3.105
  514TIP3   OH2 1498   7.361   3.087   5.649
  514TIP3    H1 1499   7.358   3.027   5.723
  514TIP3    H2 1500   7.425   3.048   5.589
  515TIP3   OH2 1501   1.647   5.738   5.157
  515TIP3    H1 1502   1.720   5.675   5.149
  515TIP3    H2 1503   1.587   5.697   5.218
  516TIP3   OH2 1504   6.196   7.413   4.039
  516TIP3    H1 1505   6.141   7.468   4.095
  516TIP3    H2 1506   6.143   7.397   3.961
  517TIP3   OH2 1507   0.063   6.540   0.657
  517TIP3    H1 1508   0.096   6.618   0.701
  517TIP3    H2 1509   0.085   6.468   0.716
  518TIP3   OH2 1510   6.869   1.495   5.673
  518TIP3    H1 1511   6.935   1.484   5.604
  518TIP3    H2 1512   6.910   1.457   5.751
  519TIP3   OH2 1513   2.351   2.672   2.814
  519TIP3    H1 1514   2.393   2.635   2.892
  519TIP3    H2 1515   2.418   2.727   2.774
  520TIP3   OH2 1516   2.879   4.404   4.816
  520TIP3    H1 1517   2.846   4.417   4.727
  520TIP3    H2 1518   2.974   4.392   4.804
  521TIP3   OH2 1519   7.338   7.602   0.693
  521TIP3    H1 1520   7.369   7.656   0.766
  521TIP3    H2 1521   7.271   7.656   0.650
  522TIP3   OH2 1522   5.444   6.328   0.153
  522TIP3    H1 1523   5.414   6.247   0.194
  522TIP3    H2 1524   5.520   6.354   0.205
  523TIP3   OH2 1525   5.523   5.298   2.767
  523TIP3    H1 1526   5.496   5.208   2.785
  523TIP3    H2 1527   5.612   5.304   2.802
  524TIP3   OH2 1528   7.403   2.437   0.136
  524TIP3    H1 1529   7.381   2.529   0.148
  524TIP3    H2 1530   7.346   2.390   0.197
  525TIP3   OH2 1531   5.385   7.473   0.881
  525TIP3    H1 1532   5.294   7.457   0.905
  525TIP3    H2 1533   5.423   7.385   0.874
  526TIP3   OH2 1534   6.977   6.477   5.658
  526TIP3    H1 1535   7.031   6.529   5.599
  526TIP3    H2 1536   6.931   6.542   5.711
  527TIP3   OH2 1537   1.881   3.730   5.669
  527TIP3    H1 1538   1.904   3.638   5.657
  527TIP3    H2 1539   1.832   3.753   5.590
  528TIP3   OH2 1540   6.955   2.402   2.225
  528TIP3    H1 1541   7.005   2.357   2.157
  528TIP3    H2 1542   7.010   2.476   2.251
  529TIP3   OH2 1543   3.302   5.910   6.544
  529TIP3    H1 1544   3.290   6.000   6.575
  529TIP3    H2 1545   3.261   5.856   6.612
  530TIP3   OH2 1546   0.708   2.699   2.028
  530TIP3    H1 1547   0.769   2.647   2.080
  530TIP3    H2 1548   0.665   2.636   1.971
  531TIP3   OH2 1549   0.415   4.399   5.455
  531TIP3    H1 1550   0.501   4.400   5.413
  531TIP3    H2 1551   0.412   4.480   5.506
  532TIP3   OH2 1552   2.189   6.521   0.900
  532TIP3    H1 1553   2.257   6.526   0.968
  532TIP3    H2 1554   2.236   6.537   0.818
  533TIP3   OH2 1555   7.023   6.289   6.673
  533TIP3    H1 1556   6.962   6.361   6.660
  533TIP3    H2 1557   7.110   6.330   6.665
  534TIP3   OH2 1558   4.404   0.489   6.309
  534TIP3    H1 1559   4.333   0.464   6.250
  534TIP3    H2 1560   4.408   0.584   6.303
  535TIP3   OH2 1561   3.395   2.756   5.299
  535TIP3    H1 1562   3.342   2.679   5.321
  535TIP3    H2 1563   3.418   2.744   5.207
  536TIP3   OH2 1564   5.047   1.039   4.041
  536TIP3    H1 1565   5.020   1.040   4.133
  536TIP3    H2 1566   5.142   1.031   4.045
  537TIP3   OH2 1567   4.088   0.073   1.127
  537TIP3    H1 1568   4.143   0.144   1.160
  537TIP3    H2 1569   4.004   0.115   1.107
  538TIP3   OH2 1570   5.120   4.488   0.990
  538TIP3    H1 1571   5.079   4.542   0.922
  538TIP3    H2 1572   5.097   4.532   1.072
  539TIP3   OH2 1573   2.982   1.632   2.290
  539TIP3    H1 1574   3.034   1.686   2.231
  539TIP3    H2 1575   3.011   1.657   2.378
  540TIP3   OH2 1576   4.109   2.342   0.977
  540TIP3    H1 1577   4.167   2.405   1.020
  540TIP3    H2 1578   4.140   2.338   0.887
  541TIP3   OH2 1579   6.673   5.270   0.507
  541TIP3    H1 1580   6.749   5.323   0.532
  541TIP3    H2 1581   6.710   5.185   0.484
  542TIP3   OH2 1582   1.903   3.988   0.674
  542TIP3    H1 1583   1.893   3.998   0.769
  542TIP3    H2 1584   1.959   3.912   0.663
  543TIP3   OH2 1585   8.202   2.974   3.516
  543TIP3    H1 1586   8.251   2.894   3.500
  543TIP3    H2 1587   8.185   3.009   3.428
  544TIP3   OH2 1588   7.514   6.188   2.126
  544TIP3    H1 1589   7.428   6.149   2.138
  544TIP3    H2 1590   7.552   6.141   2.052
  545TIP3   OH2 1591   4.387   2.654   6.011
  545TIP3    H1 1592   4.387   2.631   6.104
  545TIP3    H2 1593   4.377   2.570   5.965
  546TIP3   OH2 1594   4.984   3.674   3.758
  546TIP3    H1 1595   4.939   3.666   3.674
  546TIP3    H2 1596   4.948   3.605   3.812
  547TIP3   OH2 1597   2.909   2.612   5.375
  547TIP3    H1 1598   2.863   2.696   5.374
  547TIP3    H2 1599   2.950   2.609   5.461
  548TIP3   OH2 1600   3.569   3.039   6.535
  548TIP3    H1 1601   3.487   3.039   6.584
  548TIP3    H2 1602   3.554   2.977   6.463
  549TIP3   OH2 1603   2.480   6.749   2.501
  549TIP3    H1 1604   2.445   6.836   2.522
  549TIP3    H2 1605   2.524   6.760   2.417
  550TIP3   OH2 1606   8.154   7.015   5.915
  550TIP3    H1 1607   8.150   7.098   5.867
  550TIP3    H2 1608   8.129   7.037   6.004
  551TIP3   OH2 1609   5.310   7.718   5.501
  551TIP3    H1 1610   5.272   7.806   5.490
  551TIP3    H2 1611   5.374   7.728   5.571
  552TIP3   OH2 1612   6.420   6.897   2.178
  552TIP3    H1 1613   6.379   6.858   2.100
  552TIP3    H2 1614   6.393   6.840   2.250
  553TIP3   OH2 1615   6.442   2.633   0.869
  553TIP3    H1 1616   6.401   2.574   0.805
  553TIP3    H2 1617   6.470   2.575   0.940
  554TIP3   OH2 1618   3.322   0.844   2.550
  554TIP3    H1 1619   3.303   0.761   2.508
  554TIP3    H2 1620   3.297   0.910   2.485
  555TIP3   OH2 1621   4.873   7.055   3.559
  555TIP3    H1 1622   4.822   7.043   3.479
  555TIP3    H2 1623   4.938   7.121   3.537
  556TIP3   OH2 1624   4.860   7.556   4.394
  556TIP3    H1 1625   4.864   7.651   4.391
  556TIP3    H2 1626   4.769   7.535   4.372
  557TIP3   OH2 1627   4.764   3.355   5.816
  557TIP3    H1 1628   4.748   3.415   5.889
  557TIP3    H2 1629   4.823   3.289   5.851
  558TIP3   OH2 1630   8.019   3.551   3.790
  558TIP3    H1 1631   7.981   3.637   3.812
  558TIP3    H2 1632   8.066   3.525   3.870
  559TIP3   OH2 1633   5.268   2.131   5.701
  559TIP3    H1 1634   5.200   2.172   5.647
  559TIP3    H2 1635   5.227   2.050   5.734
  560TIP3   OH2 1636   5.417   5.992   4.516
  560TIP3    H1 1637   5.322   5.984   4.517
  560TIP3    H2 1638   5.439   6.017   4.426
  561TIP3   OH2 1639   5.153   4.507   5.408
  561TIP3    H1 1640   5.088   4.446   5.443
  561TIP3    H2 1641   5.113   4.542   5.329
  562TIP3   OH2 1642   7.803   5.828   3.671
  562TIP3    H1 1643   7.813   5.917   3.636
  562TIP3    H2 1644   7.828   5.771   3.599
  563TIP3   OH2 1645   7.911   2.707   6.749
  563TIP3    H1 1646   7.825   2.673   6.773
  563TIP3    H2 1647   7.972   2.656   6.803
  564TIP3   OH2 1648   2.115   0.795   0.793
  564TIP3    H1 1649   2.055   0.870   0.792
  564TIP3    H2 1650   2.196   0.828   0.757
  565TIP3   OH2 1651   3.299   4.296   0.548
  565TIP3    H1 1652   3.331   4.363   0.487
  565TIP3    H2 1653   3.278   4.221   0.492
  566TIP3   OH2 1654   7.979   6.933   2.469
  566TIP3    H1 1655   8.019   7.017   2.448
  566TIP3    H2 1656   7.920   6.916   2.396
  567TIP3   OH2 1657   4.815   3.769   1.723
  567TIP3    H1 1658   4.863   3.768   1.805
  567TIP3    H2 1659   4.728   3.800   1.746
  568TIP3   OH2 1660   1.137   6.296   5.864
  568TIP3    H1 1661   1.151   6.380   5.907
  568TIP3    H2 1662   1.226   6.264   5.845
  569TIP3   OH2 1663   6.805   2.194   4.804
  569TIP3    H1 1664   6.752   2.269   4.777
  569TIP3    H2 1665   6.827   2.213   4.896
  570TIP3   OH2 1666   2.825   3.826   2.816
  570TIP3    H1 1667   2.896   3.863   2.764
  570TIP3    H2 1668   2.813   3.888   2.888
  571TIP3   OH2 1669   8.004   1.918   0.615
  571TIP3    H1 1670   7.910   1.930   0.598
  571TIP3    H2 1671   8.047   1.966   0.545
  572TIP3   OH2 1672   5.430   3.305   4.167
  572TIP3    H1 1673   5.494   3.299   4.096
  572TIP3    H2 1674   5.347   3.324   4.122
  573TIP3   OH2 1675   4.856   2.754   5.974
  573TIP3    H1 1676   4.829   2.798   6.055
  573TIP3    H2 1677   4.948   2.731   5.989
  574TIP3   OH2 1678   4.827   0.379   5.411
  574TIP3    H1 1679   4.898   0.392   5.474
  574TIP3    H2 1680   4.748   0.405   5.458
  575TIP3   OH2 1681   7.650   2.258   3.638
  575TIP3    H1 1682   7.644   2.165   3.658
  575TIP3    H2 1683   7.561   2.291   3.649
  576TIP3   OH2 1684   0.924   4.481   1.783
  576TIP3    H1 1685   0.937   4.457   1.692
  576TIP3    H2 1686   0.838   4.522   1.786
  577TIP3   OH2 1687   1.979   2.058   6.580
  577TIP3    H1 1688   1.900   2.093   6.538
  577TIP3    H2 1689   2.046   2.124   6.562
  578TIP3   OH2 1690   5.454   0.280   6.137
  578TIP3    H1 1691   5.492   0.273   6.049
  578TIP3    H2 1692   5.506   0.348   6.180
  579TIP3   OH2 1693   0.436   7.378   1.050
  579TIP3    H1 1694   0.502   7.447   1.046
  579TIP3    H2 1695   0.357   7.422   1.082
  580TIP3   OH2 1696   6.008   1.169   6.548
  580TIP3    H1 1697   6.078   1.219   6.590
  580TIP3    H2 1698   5.933   1.179   6.607
  581TIP3   OH2 1699   7.818   0.404   3.905
  581TIP3    H1 1700   7.850   0.411   3.815
  581TIP3    H2 1701   7.897   0.395   3.958
  582TIP3   OH2 1702   6.765   2.701   5.227
  582TIP3    H1 1703   6.818   2.757   5.171
  582TIP3    H2 1704   6.679   2.744   5.228
  583TIP3   OH2 1705   1.386   7.836   0.508
  583TIP3    H1 1706   1.399   7.741   0.513
  583TIP3    H2 1707   1.333   7.856   0.585
  584TIP3   OH2 1708   5.478   0.272   3.613
  584TIP3    H1 1709   5.458   0.218   3.690
  584TIP3    H2 1710   5.427   0.352   3.626
  585TIP3   OH2 1711   1.506   6.693   1.056
  585TIP3    H1 1712   1.560   6.626   1.100
  585TIP3    H2 1713   1.566   6.765   1.040
  586TIP3   OH2 1714   7.393   6.228   4.451
  586TIP3    H1 1715   7.441   6.151   4.484
  586TIP3    H2 1716   7.461   6.283   4.413
  587TIP3   OH2 1717   0.800   1.910   6.289
  587TIP3    H1 1718   0.888   1.876   6.275
  587TIP3    H2 1719   0.790   1.911   6.384
  588TIP3   OH2 1720   7.410   6.601   3.366
  588TIP3    H1 1721   7.315   6.595   3.374
  588TIP3    H2 1722   7.427   6.586   3.273
  589TIP3   OH2 1723   3.417   7.850   1.850
  589TIP3    H1 1724   3.360   7.885   1.782
  589TIP3    H2 1725   3.413   7.755   1.838
  590TIP3   OH2 1726   1.457   7.561   3.181
  590TIP3    H1 1727   1.533   7.516   3.218
  590TIP3    H2 1728   1.459   7.539   3.088
  591TIP3   OH2 1729   4.425   7.337   0.753
  591TIP3    H1 1730   4.423   7.321   0.847
  591TIP3    H2 1731   4.515   7.364   0.735
  592TIP3   OH2 1732   5.153   2.420   5.354
  592TIP3    H1 1733   5.171   2.512   5.373
  592TIP3    H2 1734   5.058   2.416   5.343
  593TIP3   OH2 1735   0.650   3.238   5.191
  593TIP3    H1 1736   0.648   3.250   5.096
  593TIP3    H2 1737   0.611   3.318   5.227
  594TIP3   OH2 1738   3.711   6.444   1.664
  594TIP3    H1 1739   3.632   6.391   1.652
  594TIP3    H2 1740   3.699   6.519   1.606
  595TIP3   OH2 1741   0.515   7.215   0.097
  595TIP3    H1 1742   0.580   7.177   0.157
  595TIP3    H2 1743   0.489   7.142   0.042
  596TIP3   OH2 1744   6.915   5.813   4.529
  596TIP3    H1 1745   6.850   5.850   4.588
  596TIP3    H2 1746   6.999   5.832   4.570
  597TIP3   OH2 1747   0.983   6.858   4.130
  597TIP3    H1 1748   0.948   6.770   4.113
  597TIP3    H2 1749   1.024   6.851   4.217
  598TIP3   OH2 1750   1.089   5.799   2.156
  598TIP3    H1 1751   1.122   5.829   2.071
  598TIP3    H2 1752   1.155   5.738   2.188
  599TIP3   OH2 1753   7.370   6.485   1.978
  599TIP3    H1 1754   7.463   6.508   1.972
  599TIP3    H2 1755   7.334   6.551   2.037
  600TIP3   OH2 1756   0.170   5.458   6.755
  600TIP3    H1 1757   0.078   5.480   6.769
  600TIP3    H2 1758   0.204   5.439   6.842
  601TIP3   OH2 1759   0.968   5.108   4.780
  601TIP3    H1 1760   1.040   5.104   4.717
  601TIP3    H2 1761   0.899   5.056   4.741
  602TIP3   OH2 1762   5.379   4.404   1.344
  602TIP3    H1 1763   5.444   4.356   1.397
  602TIP3    H2 1764   5.407   4.389   1.254
  603TIP3   OH2 1765   3.474   0.510   5.621
  603TIP3    H1 1766   3.513   0.473   5.541
  603TIP3    H2 1767   3.394   0.459   5.635
  604TIP3   OH2 1768   8.201   3.519   4.015
  604TIP3    H1 1769   8.295   3.502   4.007
  604TIP3    H2 1770   8.196   3.603   4.061
  605TIP3   OH2 1771   6.157   4.289   1.038
  605TIP3    H1 1772   6.199   4.260   1.119
  605TIP3    H2 1773   6.078   4.236   1.031
  606TIP3   OH2 1774   5.511   6.908   5.897
  606TIP3    H1 1775   5.508   6.989   5.846
  606TIP3    H2 1776   5.554   6.932   5.979
  607TIP3   OH2 1777   3.765   4.881   4.803
  607TIP3    H1 1778   3.730   4.879   4.892
  607TIP3    H2 1779   3.687   4.880   4.747
  608TIP3   OH2 1780   5.470   3.981   6.106
  608TIP3    H1 1781   5.554   4.028   6.105
  608TIP3    H2 1782   5.470   3.935   6.190
  609TIP3   OH2 1783   7.094   2.543   5.166
  609TIP3    H1 1784   7.112   2.481   5.237
  609TIP3    H2 1785   7.000   2.533   5.148
  610TIP3   OH2 1786   6.745   6.139   5.207
  610TIP3    H1 1787   6.740   6.162   5.300
  610TIP3    H2 1788   6.807   6.066   5.204
  611TIP3   OH2 1789   3.018   2.486   5.646
  611TIP3    H1 1790   3.015   2.424   5.719
  611TIP3    H2 1791   3.098   2.464   5.598
  612TIP3   OH2 1792   4.453   1.016   3.780
  612TIP3    H1 1793   4.394   0.961   3.729
  612TIP3    H2 1794   4.405   1.033   3.861
  613TIP3   OH2 1795   0.454   3.207   5.507
  613TIP3    H1 1796   0.464   3.112   5.516
  613TIP3    H2 1797   0.539   3.243   5.533
  614TIP3   OH2 1798   3.794   0.489   0.109
  614TIP3    H1 1799   3.863   0.501   0.173
  614TIP3    H2 1800   3.839   0.452   0.032
  615TIP3   OH2 1801   0.824   0.496   4.754
  615TIP3    H1 1802   0.906   0.449   4.758
  615TIP3    H2 1803   0.774   0.464   4.829
  616TIP3   OH2 1804   7.252   6.224   0.589
  616TIP3    H1 1805   7.317   6.294   0.579
  616TIP3    H2 1806   7.299   6.153   0.632
  617TIP3   OH2 1807   6.837   0.493   3.396
  617TIP3    H1 1808   6.858   0.492   3.302
  617TIP3    H2 1809   6.803   0.581   3.412
  618TIP3   OH2 1810   4.261   1.260   4.241
  618TIP3    H1 1811   4.322   1.332   4.222
  618TIP3    H2 1812   4.272   1.244   4.335
  619TIP3   OH2 1813   8.015   5.003   1.511
  619TIP3    H1 1814   8.071   5.028   1.585
  619TIP3    H2 1815   7.994   4.911   1.527
  620TIP3   OH2 1816   0.994   6.757   5.588
  620TIP3    H1 1817   0.969   6.668   5.612
  620TIP3    H2 1818   1.050   6.747   5.511
  621TIP3   OH2 1819   7.738   7.549   6.205
  621TIP3    H1 1820   7.829   7.517   6.209
  621TIP3    H2 1821   7.722   7.563   6.111
  622TIP3   OH2 1822   2.510   6.812   4.436
  622TIP3    H1 1823   2.581   6.794   4.497
  622TIP3    H2 1824   2.494   6.906   4.445
  623TIP3   OH2 1825   8.218   4.554   5.021
  623TIP3    H1 1826   8.205   4.483   5.084
  623TIP3    H2 1827   8.213   4.634   5.074
  624TIP3   OH2 1828   4.234   5.227   0.569
  624TIP3    H1 1829   4.165   5.181   0.617
  624TIP3    H2 1830   4.293   5.157   0.539
  625TIP3   OH2 1831   2.949   6.439   3.094
  625TIP3    H1 1832   2.860   6.473   3.103
  625TIP3    H2 1833   2.941   6.345   3.109
  626TIP3   OH2 1834   2.216   3.372   5.501
  626TIP3    H1 1835   2.173   3.384   5.585
  626TIP3    H2 1836   2.145   3.353   5.440
  627TIP3   OH2 1837   6.091   2.073   0.595
  627TIP3    H1 1838   6.118   2.057   0.504
  627TIP3    H2 1839   6.003   2.109   0.588
  628TIP3   OH2 1840   3.509   6.363   4.063
  628TIP3    H1 1841   3.446   6.321   4.005
  628TIP3    H2 1842   3.470   6.356   4.150
  629TIP3   OH2 1843   0.229   4.310   0.522
  629TIP3    H1 1844   0.167   4.251   0.564
  629TIP3    H2 1845   0.311   4.295   0.569
  630TIP3   OH2 1846   6.310   5.694   5.581
  630TIP3    H1 1847   6.402   5.680   5.560
  630TIP3    H2 1848   6.283   5.614   5.626
  631TIP3   OH2 1849   1.682   7.765   1.456
  631TIP3    H1 1850   1.715   7.726   1.537
  631TIP3    H2 1851   1.626   7.837   1.486
  632TIP3   OH2 1852   4.093   3.785   3.510
  632TIP3    H1 1853   4.125   3.865   3.468
  632TIP3    H2 1854   4.039   3.743   3.444
  633TIP3   OH2 1855   3.258   7.168   1.209
  633TIP3    H1 1856   3.323   7.234   1.188
  633TIP3    H2 1857   3.199   7.211   1.272
  634TIP3   OH2 1858   6.948   6.071   3.479
  634TIP3    H1 1859   6.957   6.087   3.385
  634TIP3    H2 1860   7.037   6.053   3.510
  635TIP3   OH2 1861   3.711   2.156   0.283
  635TIP3    H1 1862   3.617   2.139   0.290
  635TIP3    H2 1863   3.734   2.195   0.368
  636TIP3   OH2 1864   2.250   6.141   2.040
  636TIP3    H1 1865   2.237   6.217   2.097
  636TIP3    H2 1866   2.282   6.178   1.958
  637TIP3   OH2 1867   5.538   2.090   5.701
  637TIP3    H1 1868   5.572   2.178   5.715
  637TIP3    H2 1869   5.445   2.102   5.683
  638TIP3   OH2 1870   1.985   7.502   0.711
  638TIP3    H1 1871   1.933   7.475   0.786
  638TIP3    H2 1872   2.065   7.540   0.749
  639TIP3   OH2 1873   6.290   0.943   2.043
  639TIP3    H1 1874   6.356   1.012   2.039
  639TIP3    H2 1875   6.325   0.874   1.986
  640TIP3   OH2 1876   3.564   5.219   5.459
  640TIP3    H1 1877   3.573   5.153   5.528
  640TIP3    H2 1878   3.511   5.288   5.499
  641TIP3   OH2 1879   6.671   2.665   6.237
  641TIP3    H1 1880   6.678   2.635   6.327
  641TIP3    H2 1881   6.625   2.595   6.191
  642TIP3   OH2 1882   6.756   3.077   2.445
  642TIP3    H1 1883   6.791   3.166   2.437
  642TIP3    H2 1884   6.825   3.021   2.410
  643TIP3   OH2 1885   7.189   4.096   1.880
  643TIP3    H1 1886   7.166   4.032   1.812
  643TIP3    H2 1887   7.282   4.112   1.867
  644TIP3   OH2 1888   6.137   2.508   6.528
  644TIP3    H1 1889   6.101   2.576   6.472
  644TIP3    H2 1890   6.218   2.545   6.563
  645TIP3   OH2 1891   0.538   1.597  -0.035
  645TIP3    H1 1892   0.485   1.535  -0.085
  645TIP3    H2 1893   0.628   1.563  -0.042
  646TIP3   OH2 1894   6.482   1.024   1.633
  646TIP3    H1 1895   6.559   1.002   1.686
  646TIP3    H2 1896   6.517   1.072   1.558
  647TIP3   OH2 1897   5.261   0.097   1.253
  647TIP3    H1 1898   5.333   0.113   1.192
  647TIP3    H2 1899   5.218   0.182   1.262
  648TIP3   OH2 1900   0.303   6.006   6.552
  648TIP3    H1 1901   0.394   5.982   6.534
  648TIP3    H2 1902   0.260   5.923   6.571
  649TIP3   OH2 1903   3.491   3.518   1.234
  649TIP3    H1 1904   3.511   3.483   1.321
  649TIP3    H2 1905   3.409   3.566   1.246
  650TIP3   OH2 1906   0.558   7.163   1.258
  650TIP3    H1 1907   0.518   7.237   1.212
  650TIP3    H2 1908   0.501   7.148   1.334
  651TIP3   OH2 1909   5.184   4.298   4.333
  651TIP3    H1 1910   5.150   4.256   4.254
  651TIP3    H2 1911   5.278   4.287   4.329
  652TIP3   OH2 1912   4.703   4.950   2.796
  652TIP3    H1 1913   4.732   5.040   2.776
  652TIP3    H2 1914   4.734   4.934   2.885
  653TIP3   OH2 1915   2.650   3.963   4.731
  653TIP3    H1 1916   2.652   3.963   4.827
  653TIP3    H2 1917   2.559   3.985   4.709
  654TIP3   OH2 1918   5.926   0.046   3.456
  654TIP3    H1 1919   5.947   0.104   3.382
  654TIP3    H2 1920   5.982   0.078   3.527
  655TIP3   OH2 1921   6.922   1.651   2.530
  655TIP3    H1 1922   6.952   1.706   2.603
  655TIP3    H2 1923   6.998   1.597   2.508
  656TIP3   OH2 1924   3.152   1.515   6.585
  656TIP3    H1 1925   3.102   1.434   6.570
  656TIP3    H2 1926   3.161   1.554   6.498
  657TIP3   OH2 1927   4.164   5.133   3.826
  657TIP3    H1 1928   4.160   5.081   3.906
  657TIP3    H2 1929   4.152   5.223   3.856
  658TIP3   OH2 1930   1.039   2.515   2.923
  658TIP3    H1 1931   0.998   2.431   2.943
  658TIP3    H2 1932   1.086   2.499   2.841
  659TIP3   OH2 1933   5.972   4.113   0.967
  659TIP3    H1 1934   6.000   4.026   0.996
  659TIP3    H2 1935   5.947   4.102   0.876
  660TIP3   OH2 1936   7.055   6.577   5.075
  660TIP3    H1 1937   7.025   6.493   5.109
  660TIP3    H2 1938   7.113   6.554   5.003
  661TIP3   OH2 1939   0.666   6.276   1.787
  661TIP3    H1 1940   0.662   6.300   1.694
  661TIP3    H2 1941   0.677   6.181   1.787
  662TIP3   OH2 1942   3.822   6.357   5.106
  662TIP3    H1 1943   3.805   6.446   5.074
  662TIP3    H2 1944   3.896   6.367   5.166
  663TIP3   OH2 1945   0.340   6.642   5.390
  663TIP3    H1 1946   0.272   6.637   5.322
  663TIP3    H2 1947   0.370   6.733   5.388
  664TIP3   OH2 1948   2.697   3.092   3.001
  664TIP3    H1 1949   2.614   3.113   3.044
  664TIP3    H2 1950   2.691   2.999   2.979
  665TIP3   OH2 1951   3.486   0.264   3.460
  665TIP3    H1 1952   3.451   0.176   3.444
  665TIP3    H2 1953   3.466   0.313   3.380
  666TIP3   OH2 1954   2.604   4.082   0.827
  666TIP3    H1 1955   2.623   4.088   0.920
  666TIP3    H2 1956   2.689   4.093   0.784
  667TIP3   OH2 1957   0.096   5.365   6.448
  667TIP3    H1 1958   0.139   5.339   6.367
  667TIP3    H2 1959   0.165   5.365   6.513
  668TIP3   OH2 1960   0.679   4.638   0.496
  668TIP3    H1 1961   0.732   4.595   0.563
  668TIP3    H2 1962   0.589   4.619   0.521
  669TIP3   OH2 1963   7.659   5.504   5.096
  669TIP3    H1 1964   7.575   5.532   5.131
  669TIP3    H2 1965   7.724   5.534   5.160
  670TIP3   OH2 1966   5.451   7.795   1.190
  670TIP3    H1 1967   5.414   7.707   1.189
  670TIP3    H2 1968   5.412   7.838   1.266
  671TIP3   OH2 1969   0.281   0.367   2.255
  671TIP3    H1 1970   0.215   0.436   2.259
  671TIP3    H2 1971   0.249   0.307   2.188
  672TIP3   OH2 1972   4.371   3.148   3.241
  672TIP3    H1 1973   4.285   3.172   3.275
  672TIP3    H2 1974   4.356   3.068   3.190
  673TIP3   OH2 1975   2.965   6.985   0.889
  673TIP3    H1 1976   3.033   6.971   0.955
  673TIP3    H2 1977   2.886   7.003   0.941
  674TIP3   OH2 1978   2.161   2.078   6.220
  674TIP3    H1 1979   2.066   2.072   6.229
  674TIP3    H2 1980   2.185   2.152   6.277
  675TIP3   OH2 1981   4.838   2.236   5.650
  675TIP3    H1 1982   4.917   2.204   5.606
  675TIP3    H2 1983   4.855   2.222   5.743
  676TIP3   OH2 1984   5.766   4.123   4.867
  676TIP3    H1 1985   5.842   4.175   4.842
  676TIP3    H2 1986   5.733   4.086   4.785
  677TIP3   OH2 1987   3.918   6.077   4.657
  677TIP3    H1 1988   3.832   6.051   4.623
  677TIP3    H2 1989   3.956   6.130   4.587
  678TIP3   OH2 1990   1.384   1.653   0.143
  678TIP3    H1 1991   1.351   1.569   0.176
  678TIP3    H2 1992   1.471   1.633   0.109
  679TIP3   OH2 1993   1.612   6.729   3.825
  679TIP3    H1 1994   1.672   6.791   3.866
  679TIP3    H2 1995   1.610   6.653   3.884
  680TIP3   OH2 1996   1.002   3.385   6.387
  680TIP3    H1 1997   0.943   3.318   6.421
  680TIP3    H2 1998   0.975   3.465   6.432
  681TIP3   OH2 1999   5.551   6.528   4.822
  681TIP3    H1 2000   5.515   6.517   4.910
  681TIP3    H2 2001   5.477   6.512   4.763
  682TIP3   OH2 2002   3.609   7.411   3.220
  682TIP3    H1 2003   3.663   7.488   3.230
  682TIP3    H2 2004   3.524   7.436   3.257
  683TIP3   OH2 2005   5.410   2.497   4.994
  683TIP3    H1 2006   5.314   2.501   4.998
  683TIP3    H2 2007   5.436   2.575   4.946
  684TIP3   OH2 2008   6.685   0.486   3.608
  684TIP3    H1 2009   6.605   0.501   3.558
  684TIP3    H2 2010   6.747   0.449   3.544
  685TIP3   OH2 2011   6.941   4.849   0.319
  685TIP3    H1 2012   6.877   4.795   0.366
  685TIP3    H2 2013   7.017   4.792   0.309
  686TIP3   OH2 2014   6.289   4.134   3.183
  686TIP3    H1 2015   6.303   4.219   3.224
  686TIP3    H2 2016   6.338   4.138   3.101
  687TIP3   OH2 2017   7.788   2.795   6.476
  687TIP3    H1 2018   7.786   2.732   6.548
  687TIP3    H2 2019   7.861   2.766   6.421
  688TIP3   OH2 2020   3.516   3.875   6.427
  688TIP3    H1 2021   3.442   3.935   6.419
  688TIP3    H2 2022   3.589   3.929   6.456
  689TIP3   OH2 2023   6.599   4.433   3.836
  689TIP3    H1 2024   6.645   4.425   3.752
  689TIP3    H2 2025   6.560   4.520   3.834
  690TIP3   OH2 2026   6.843   4.634   4.579
  690TIP3    H1 2027   6.765   4.609   4.627
  690TIP3    H2 2028   6.905   4.563   4.593
  691TIP3   OH2 2029   2.027   6.314   2.111
  691TIP3    H1 2030   2.003   6.222   2.122
  691TIP3    H2 2031   1.971   6.345   2.040
  692TIP3   OH2 2032   3.298   7.207   5.676
  692TIP3    H1 2033   3.372   7.259   5.645
  692TIP3    H2 2034   3.265   7.255   5.752
  693TIP3   OH2 2035   4.640   0.833   0.935
  693TIP3    H1 2036   4.732   0.835   0.907
  693TIP3    H2 2037   4.597   0.899   0.880
  694TIP3   OH2 2038   2.372   4.413   4.324
  694TIP3    H1 2039   2.285   4.393   4.358
  694TIP3    H2 2040   2.385   4.349   4.254
  695TIP3   OH2 2041   3.226   0.537   4.512
  695TIP3    H1 2042   3.281   0.527   4.590
  695TIP3    H2 2043   3.248   0.624   4.478
  696TIP3   OH2 2044   2.457   5.449   3.075
  696TIP3    H1 2045   2.502   5.401   3.005
  696TIP3    H2 2046   2.393   5.504   3.028
  697TIP3   OH2 2047   2.542   1.149   3.846
  697TIP3    H1 2048   2.614   1.200   3.883
  697TIP3    H2 2049   2.473   1.153   3.913
  698TIP3   OH2 2050   5.110   1.086   6.027
  698TIP3    H1 2051   5.155   1.169   6.046
  698TIP3    H2 2052   5.083   1.094   5.936
  699TIP3   OH2 2053   5.762   7.223   3.640
  699TIP3    H1 2054   5.791   7.252   3.727
  699TIP3    H2 2055   5.792   7.132   3.634
  700TIP3   OH2 2056   4.994   0.496   1.419
  700TIP3    H1 2057   4.956   0.421   1.465
  700TIP3    H2 2058   5.033   0.549   1.489
  701TIP3   OH2 2059   2.834   3.641   1.125
  701TIP3    H1 2060   2.806   3.701   1.056
  701TIP3    H2 2061   2.911   3.682   1.163
  702TIP3   OH2 2062   6.140   2.026   6.444
  702TIP3    H1 2063   6.232   2.011   6.420
  702TIP3    H2 2064   6.144   2.095   6.511
  703TIP3   OH2 2065   1.000   0.749   6.112
  703TIP3    H1 2066   0.954   0.765   6.029
  703TIP3    H2 2067   0.973   0.661   6.137
  704TIP3   OH2 2068   4.350   4.450   4.383
  704TIP3    H1 2069   4.290   4.386   4.344
  704TIP3    H2 2070   4.378   4.503   4.309
  705TIP3   OH2 2071   3.364   3.282   1.696
  705TIP3    H1 2072   3.275   3.260   1.721
  705TIP3    H2 2073   3.410   3.294   1.780
  706TIP3   OH2 2074   3.806   1.884   6.290
  706TIP3    H1 2075   3.850   1.854   6.369
  706TIP3    H2 2076   3.869   1.943   6.248
  707TIP3   OH2 2077   7.859   0.372   1.380
  707TIP3    H1 2078   7.861   0.447   1.320
  707TIP3    H2 2079   7.892   0.407   1.463
  708TIP3   OH2 2080   7.655   2.228   5.619
  708TIP3    H1 2081   7.652   2.324   5.615
  708TIP3    H2 2082   7.707   2.203   5.543
  709TIP3   OH2 2083   3.458   3.208   4.028
  709TIP3    H1 2084   3.448   3.226   4.122
  709TIP3    H2 2085   3.530   3.145   4.024
  710TIP3   OH2 2086   5.757   1.270   3.758
  710TIP3    H1 2087   5.768   1.364   3.768
  710TIP3    H2 2088   5.671   1.252   3.797
  711TIP3   OH2 2089   3.871   7.130   0.563
  711TIP3    H1 2090   3.793   7.075   0.574
  711TIP3    H2 2091   3.923   7.113   0.642
  712TIP3   OH2 2092   6.305   5.743   5.892
  712TIP3    H1 2093   6.371   5.693   5.844
  712TIP3    H2 2094   6.222   5.716   5.852
  713TIP3   OH2 2095   0.931   1.885   0.939
  713TIP3    H1 2096   0.951   1.970   0.901
  713TIP3    H2 2097   0.999   1.827   0.905
  714TIP3   OH2 2098   4.661   0.442   4.905
  714TIP3    H1 2099   4.578   0.489   4.908
  714TIP3    H2 2100   4.709   0.473   4.982
  715TIP3   OH2 2101   1.051   6.433   4.472
  715TIP3    H1 2102   1.067   6.412   4.380
  715TIP3    H2 2103   1.137   6.457   4.506
  716TIP3   OH2 2104   0.113   5.784   0.505
  716TIP3    H1 2105   0.030   5.796   0.551
  716TIP3    H2 2106   0.107   5.840   0.427
  717TIP3   OH2 2107   5.543   3.748   6.278
  717TIP3    H1 2108   5.563   3.802   6.354
  717TIP3    H2 2109   5.590   3.666   6.293
  718TIP3   OH2 2110   4.751   2.674   2.951
  718TIP3    H1 2111   4.830   2.644   2.906
  718TIP3    H2 2112   4.770   2.660   3.044
  719TIP3   OH2 2113   2.479   5.928   2.230
  719TIP3    H1 2114   2.511   5.941   2.319
  719TIP3    H2 2115   2.384   5.927   2.237
  720TIP3   OH2 2116   4.033   6.064   1.130
  720TIP3    H1 2117   4.112   6.113   1.105
  720TIP3    H2 2118   4.013   6.095   1.218
  721TIP3   OH2 2119   1.688   6.638   5.411
  721TIP3    H1 2120   1.767   6.584   5.411
  721TIP3    H2 2121   1.618   6.577   5.433
  722TIP3   OH2 2122   0.589   5.855   5.656
  722TIP3    H1 2123   0.671   5.809   5.636
  722TIP3    H2 2124   0.523   5.813   5.601
  723TIP3   OH2 2125   0.829   2.851   6.373
  723TIP3    H1 2126   0.872   2.846   6.459
  723TIP3    H2 2127   0.844   2.765   6.334
  724TIP3   OH2 2128   0.812   1.303   1.809
  724TIP3    H1 2129   0.815   1.225   1.865
  724TIP3    H2 2130   0.820   1.376   1.870
  725TIP3   OH2 2131   1.326   1.372   6.274
  725TIP3    H1 2132   1.356   1.286   6.304
  725TIP3    H2 2133   1.270   1.352   6.199
  726TIP3   OH2 2134   1.600   3.619   2.512
  726TIP3    H1 2135   1.662   3.603   2.442
  726TIP3    H2 2136   1.517   3.585   2.479
  727TIP3   OH2 2137   1.908   6.595   5.149
  727TIP3    H1 2138   1.883   6.523   5.206
  727TIP3    H2 2139   1.995   6.573   5.118
  728TIP3   OH2 2140   6.126   7.419   6.431
  728TIP3    H1 2141   6.068   7.431   6.356
  728TIP3    H2 2142   6.163   7.332   6.420
  729TIP3   OH2 2143   6.610   3.223   5.008
  729TIP3    H1 2144   6.594   3.291   5.074
  729TIP3    H2 2145   6.525   3.181   4.996
  730TIP3   OH2 2146   7.049   2.781   5.590
  730TIP3    H1 2147   7.005   2.854   5.546
  730TIP3    H2 2148   6.982   2.714   5.597
  731TIP3   OH2 2149   7.282   2.594   4.969
  731TIP3    H1 2150   7.310   2.681   4.996
  731TIP3    H2 2151   7.233   2.561   5.045
  732TIP3   OH2 2152   5.628  -0.009   1.118
  732TIP3    H1 2153   5.703  -0.005   1.177
  732TIP3    H2 2154   5.661   0.021   1.034
  733TIP3   OH2 2155   0.461   1.961   3.272
  733TIP3    H1 2156   0.426   2.046   3.300
  733TIP3    H2 2157   0.515   1.932   3.345
  734TIP3   OH2 2158   3.496   5.882   1.637
  734TIP3    H1 2159   3.480   5.932   1.557
  734TIP3    H2 2160   3.430   5.914   1.699
  735TIP3   OH2 2161   3.734   4.504   4.382
  735TIP3    H1 2162   3.662   4.534   4.326
  735TIP3    H2 2163   3.695   4.438   4.438
  736TIP3   OH2 2164   1.900   7.371   3.463
  736TIP3    H1 2165   1.837   7.355   3.533
  736TIP3    H2 2166   1.912   7.286   3.421
  737TIP3   OH2 2167   7.131   0.132   3.804
  737TIP3    H1 2168   7.197   0.064   3.818
  737TIP3    H2 2169   7.048   0.084   3.797
  738TIP3   OH2 2170   2.245   6.792   1.303
  738TIP3    H1 2171   2.165   6.841   1.283
  738TIP3    H2 2172   2.282   6.835   1.380
  739TIP3   OH2 2173   4.956   5.465   2.774
  739TIP3    H1 2174   4.951   5.541   2.832
  739TIP3    H2 2175   4.897   5.401   2.814
  740TIP3   OH2 2176   5.369   6.015   0.844
  740TIP3    H1 2177   5.381   5.992   0.752
  740TIP3    H2 2178   5.458   6.024   0.878
  741TIP3   OH2 2179   3.818   3.005   1.462
  741TIP3    H1 2180   3.758   3.003   1.387
  741TIP3    H2 2181   3.764   3.039   1.534
  742TIP3   OH2 2182   3.110   4.075   5.302
  742TIP3    H1 2183   3.171   4.009   5.267
  742TIP3    H2 2184   3.062   4.029   5.371
  743TIP3   OH2 2185   7.858   6.900   6.553
  743TIP3    H1 2186   7.907   6.905   6.471
  743TIP3    H2 2187   7.877   6.983   6.597
  744TIP3   OH2 2188   2.083   6.719   6.177
  744TIP3    H1 2189   2.064   6.765   6.095
  744TIP3    H2 2190   2.179   6.711   6.178
  745TIP3   OH2 2191   2.653   0.540   0.074
  745TIP3    H1 2192   2.661   0.623   0.121
  745TIP3    H2 2193   2.599   0.485   0.131
  746TIP3   OH2 2194   5.113   5.256   2.650
  746TIP3    H1 2195   5.070   5.341   2.658
  746TIP3    H2 2196   5.054   5.195   2.693
  747TIP3   OH2 2197   1.796   4.213   3.924
  747TIP3    H1 2198   1.800   4.282   3.858
  747TIP3    H2 2199   1.748   4.142   3.880
  748TIP3   OH2 2200   6.218   0.735   5.493
  748TIP3    H1 2201   6.259   0.673   5.432
  748TIP3    H2 2202   6.217   0.818   5.446
  749TIP3   OH2 2203   3.855   5.086   4.073
  749TIP3    H1 2204   3.832   5.179   4.071
  749TIP3    H2 2205   3.946   5.084   4.103
  750TIP3   OH2 2206   2.091   3.648   2.262
  750TIP3    H1 2207   2.180   3.660   2.294
  750TIP3    H2 2208   2.043   3.724   2.294
  751TIP3   OH2 2209   1.025   7.301   0.466
  751TIP3    H1 2210   1.088   7.373   0.467
  751TIP3    H2 2211   0.960   7.327   0.401
  752TIP3   OH2 2212   3.224   6.169   1.623
  752TIP3    H1 2213   3.131   6.152   1.637
  752TIP3    H2 2214   3.242   6.134   1.535
  753TIP3   OH2 2215   2.947   1.487   0.312
  753TIP3    H1 2216   2.870   1.481   0.254
  753TIP3    H2 2217   2.955   1.581   0.331
  754TIP3   OH2 2218   2.991   6.072   1.766
  754TIP3    H1 2219   2.942   5.998   1.802
  754TIP3    H2 2220   3.000   6.133   1.839
  755TIP3   OH2 2221   5.092   3.900   1.686
  755TIP3    H1 2222   5.087   3.838   1.613
  755TIP3    H2 2223   5.175   3.880   1.729
  756TIP3   OH2 2224   7.308   5.160   3.957
  756TIP3    H1 2225   7.296   5.163   3.862
  756TIP3    H2 2226   7.354   5.078   3.973
  757TIP3   OH2 2227   6.421   1.829   3.134
  757TIP3    H1 2228   6.479   1.803   3.205
  757TIP3    H2 2229   6.333   1.809   3.167
  758TIP3   OH2 2230   2.990   0.035   5.614
  758TIP3    H1 2231   2.985   0.123   5.576
  758TIP3    H2 2232   3.031  -0.018   5.546
  759TIP3   OH2 2233   1.966   4.723   0.324
  759TIP3    H1 2234   1.921   4.797   0.285
  759TIP3    H2 2235   1.897   4.672   0.367
  760TIP3   OH2 2236   6.514   2.267   5.167
  760TIP3    H1 2237   6.594   2.320   5.163
  760TIP3    H2 2238   6.498   2.242   5.075
  761TIP3   OH2 2239   8.008   1.845   1.737
  761TIP3    H1 2240   7.933   1.840   1.797
  761TIP3    H2 2241   8.077   1.796   1.781
  762TIP3   OH2 2242   7.251   0.957   3.282
  762TIP3    H1 2243   7.247   0.915   3.196
  762TIP3    H2 2244   7.331   1.009   3.280
  763TIP3   OH2 2245   3.631   0.031   3.152
  763TIP3    H1 2246   3.677   0.000   3.230
  763TIP3    H2 2247   3.587  -0.047   3.118
  764TIP3   OH2 2248   1.436   0.121   3.552
  764TIP3    H1 2249   1.387   0.197   3.582
  764TIP3    H2 2250   1.497   0.156   3.487
  765TIP3   OH2 2251   4.588   0.984   1.163
  765TIP3    H1 2252   4.502   0.941   1.168
  765TIP3    H2 2253   4.647   0.915   1.132
  766TIP3   OH2 2254   3.270   5.980   0.434
  766TIP3    H1 2255   3.252   6.031   0.355
  766TIP3    H2 2256   3.215   6.021   0.502
  767TIP3   OH2 2257   1.796   2.880   2.176
  767TIP3    H1 2258   1.803   2.911   2.266
  767TIP3    H2 2259   1.795   2.784   2.183
  768TIP3   OH2 2260   2.853   1.761   0.770
  768TIP3    H1 2261   2.849   1.675   0.729
  768TIP3    H2 2262   2.853   1.743   0.864
  769TIP3   OH2 2263   5.001   2.009   0.643
  769TIP3    H1 2264   4.944   2.046   0.576
  769TIP3    H2 2265   4.973   1.918   0.651
  770TIP3   OH2 2266   8.291   5.771   2.028
  770TIP3    H1 2267   8.315   5.759   1.936
  770TIP3    H2 2268   8.206   5.816   2.025
  771TIP3   OH2 2269   1.306   2.377   2.904
  771TIP3    H1 2270   1.388   2.425   2.898
  771TIP3    H2 2271   1.260   2.416   2.978
  772TIP3   OH2 2272   1.701   7.115   1.234
  772TIP3    H1 2273   1.695   7.053   1.306
  772TIP3    H2 2274   1.776   7.170   1.256
  773TIP3   OH2 2275   2.470   0.511   5.162
  773TIP3    H1 2276   2.447   0.424   5.130
  773TIP3    H2 2277   2.489   0.499   5.255
  774TIP3   OH2 2278   3.309   0.900   0.754
  774TIP3    H1 2279   3.244   0.868   0.691
  774TIP3    H2 2280   3.340   0.982   0.716
  775TIP3   OH2 2281   2.940   4.929   2.732
  775TIP3    H1 2282   2.970   4.945   2.642
  775TIP3    H2 2283   2.845   4.941   2.728
  776TIP3   OH2 2284   7.741   3.097   4.470
  776TIP3    H1 2285   7.658   3.140   4.489
  776TIP3    H2 2286   7.717   3.015   4.427
  777TIP3   OH2 2287   1.415   4.533   2.171
  777TIP3    H1 2288   1.475   4.561   2.102
  777TIP3    H2 2289   1.424   4.601   2.239
  778TIP3   OH2 2290   2.688   4.898   2.608
  778TIP3    H1 2291   2.632   4.833   2.650
  778TIP3    H2 2292   2.659   4.900   2.517
  779TIP3   OH2 2293   5.259   2.334   1.152
  779TIP3    H1 2294   5.329   2.274   1.179
  779TIP3    H2 2295   5.282   2.358   1.062
  780TIP3   OH2 2296   6.905   6.085   4.135
  780TIP3    H1 2297   6.918   6.105   4.228
  780TIP3    H2 2298   6.958   6.007   4.120
  781TIP3   OH2 2299   8.246   0.932   1.656
  781TIP3    H1 2300   8.312   0.958   1.720
  781TIP3    H2 2301   8.178   0.890   1.708
  782TIP3   OH2 2302   2.228   2.570   2.086
  782TIP3    H1 2303   2.181   2.652   2.100
  782TIP3    H2 2304   2.250   2.569   1.993
  783TIP3   OH2 2305   1.193   2.017   2.263
  783TIP3    H1 2306   1.100   1.996   2.265
  783TIP3    H2 2307   1.219   2.004   2.171
  784TIP3   OH2 2308   3.073   2.842   2.808
  784TIP3    H1 2309   3.050   2.923   2.761
  784TIP3    H2 2310   3.162   2.858   2.841
  785TIP3   OH2 2311   1.603   5.199   3.440
  785TIP3    H1 2312   1.532   5.227   3.498
  785TIP3    H2 2313   1.583   5.108   3.419
  786TIP3   OH2 2314   1.235   6.702   3.438
  786TIP3    H1 2315   1.262   6.692   3.529
  786TIP3    H2 2316   1.140   6.695   3.440
  787TIP3   OH2 2317   4.070   2.781   0.515
  787TIP3    H1 2318   4.157   2.785   0.475
  787TIP3    H2 2319   4.045   2.689   0.511
  788TIP3   OH2 2320   6.120   3.791   5.180
  788TIP3    H1 2321   6.033   3.798   5.220
  788TIP3    H2 2322   6.103   3.755   5.093
  789TIP3   OH2 2323   1.010   3.073   1.421
  789TIP3    H1 2324   1.056   3.103   1.343
  789TIP3    H2 2325   1.006   2.977   1.411
  790TIP3   OH2 2326   7.038   7.341   5.245
  790TIP3    H1 2327   7.048   7.270   5.181
  790TIP3    H2 2328   7.044   7.421   5.193
  791TIP3   OH2 2329   8.278   3.571   4.587
  791TIP3    H1 2330   8.300   3.588   4.678
  791TIP3    H2 2331   8.225   3.491   4.590
  792TIP3   OH2 2332   1.387   4.683   2.892
  792TIP3    H1 2333   1.311   4.723   2.851
  792TIP3    H2 2334   1.461   4.712   2.838
  793TIP3   OH2 2335   1.926   6.378   4.053
  793TIP3    H1 2336   1.949   6.431   3.976
  793TIP3    H2 2337   2.009   6.341   4.082
  794TIP3   OH2 2338   6.829   2.670   2.499
  794TIP3    H1 2339   6.859   2.703   2.583
  794TIP3    H2 2340   6.853   2.577   2.499
  795TIP3   OH2 2341   3.500   1.350   6.661
  795TIP3    H1 2342   3.513   1.434   6.617
  795TIP3    H2 2343   3.554   1.355   6.740
  796TIP3   OH2 2344   4.626   5.069   0.251
  796TIP3    H1 2345   4.653   5.082   0.160
  796TIP3    H2 2346   4.575   5.147   0.272
  797TIP3   OH2 2347   4.664   5.654   5.596
  797TIP3    H1 2348   4.667   5.605   5.678
  797TIP3    H2 2349   4.577   5.635   5.560
  798TIP3   OH2 2350   4.464   0.797   5.939
  798TIP3    H1 2351   4.518   0.722   5.916
  798TIP3    H2 2352   4.523   0.872   5.931
  799TIP3   OH2 2353   8.119   2.298   0.571
  799TIP3    H1 2354   8.049   2.285   0.635
  799TIP3    H2 2355   8.078   2.286   0.486
  800TIP3   OH2 2356   1.563   1.314   5.423
  800TIP3    H1 2357   1.536   1.389   5.371
  800TIP3    H2 2358   1.635   1.347   5.477
  801TIP3   OH2 2359   4.617   3.342   2.917
  801TIP3    H1 2360   4.592   3.371   3.005
  801TIP3    H2 2361   4.669   3.263   2.931
  802TIP3   OH2 2362   8.065   1.048   0.747
  802TIP3    H1 2363   8.140   1.064   0.804
  802TIP3    H2 2364   8.101   0.993   0.676
  803TIP3   OH2 2365   8.311   7.359   6.324
  803TIP3    H1 2366   8.236   7.339   6.268
  803TIP3    H2 2367   8.302   7.300   6.399
  804TIP3   OH2 2368   3.016   6.388   1.071
  804TIP3    H1 2369   2.929   6.426   1.058
  804TIP3    H2 2370   3.015   6.359   1.162
  805TIP3   OH2 2371   3.376   4.904   3.003
  805TIP3    H1 2372   3.421   4.877   3.083
  805TIP3    H2 2373   3.442   4.952   2.953
  806TIP3   OH2 2374   2.479   4.253   0.410
  806TIP3    H1 2375   2.450   4.344   0.407
  806TIP3    H2 2376   2.484   4.232   0.503
  807TIP3   OH2 2377   4.875   6.005   2.920
  807TIP3    H1 2378   4.902   5.993   2.829
  807TIP3    H2 2379   4.943   5.960   2.971
  808TIP3   OH2 2380   5.376   4.311   4.632
  808TIP3    H1 2381   5.360   4.232   4.580
  808TIP3    H2 2382   5.365   4.283   4.722
  809TIP3   OH2 2383   7.765   5.708   4.450
  809TIP3    H1 2384   7.787   5.800   4.464
  809TIP3    H2 2385   7.669   5.704   4.457
  810TIP3   OH2 2386   0.719   7.063   0.718
  810TIP3    H1 2387   0.670   7.101   0.791
  810TIP3    H2 2388   0.806   7.045   0.755
  811TIP3   OH2 2389   7.471   0.645   4.405
  811TIP3    H1 2390   7.543   0.654   4.343
  811TIP3    H2 2391   7.408   0.712   4.379
  812TIP3   OH2 2392   3.706   0.237   3.986
  812TIP3    H1 2393   3.624   0.194   3.960
  812TIP3    H2 2394   3.682   0.290   4.063
  813TIP3   OH2 2395   0.899   4.631   5.680
  813TIP3    H1 2396   0.920   4.538   5.673
  813TIP3    H2 2397   0.888   4.660   5.590
  814TIP3   OH2 2398   1.192   7.535   5.178
  814TIP3    H1 2399   1.106   7.512   5.213
  814TIP3    H2 2400   1.210   7.622   5.212
  815TIP3   OH2 2401   3.451   1.582   1.613
  815TIP3    H1 2402   3.547   1.579   1.614
  815TIP3    H2 2403   3.429   1.652   1.675
  816TIP3   OH2 2404   3.893   5.615   2.397
  816TIP3    H1 2405   3.936   5.701   2.392
  816TIP3    H2 2406   3.856   5.602   2.309
  817TIP3   OH2 2407   5.614   4.785   5.362
  817TIP3    H1 2408   5.544   4.726   5.387
  817TIP3    H2 2409   5.619   4.777   5.267
  818TIP3   OH2 2410   2.388   4.106   0.200
  818TIP3    H1 2411   2.394   4.171   0.270
  818TIP3    H2 2412   2.316   4.137   0.144
  819TIP3   OH2 2413   2.313   6.643   4.329
  819TIP3    H1 2414   2.278   6.702   4.262
  819TIP3    H2 2415   2.394   6.685   4.358
  820TIP3   OH2 2416   7.393   5.649   1.334
  820TIP3    H1 2417   7.338   5.679   1.406
  820TIP3    H2 2418   7.369   5.706   1.260
  821TIP3   OH2 2419   5.597   4.685   5.059
  821TIP3    H1 2420   5.577   4.712   4.969
  821TIP3    H2 2421   5.656   4.611   5.049
  822TIP3   OH2 2422   5.484   1.778   1.008
  822TIP3    H1 2423   5.495   1.873   1.010
  822TIP3    H2 2424   5.571   1.742   1.024
  823TIP3   OH2 2425   0.693   3.584   2.893
  823TIP3    H1 2426   0.629   3.624   2.834
  823TIP3    H2 2427   0.713   3.653   2.956
  824TIP3   OH2 2428   0.652   3.392   1.249
  824TIP3    H1 2429   0.741   3.427   1.250
  824TIP3    H2 2430   0.663   3.297   1.236
  825TIP3   OH2 2431   7.245   1.690   5.304
  825TIP3    H1 2432   7.157   1.729   5.306
  825TIP3    H2 2433   7.229   1.597   5.318
  826TIP3   OH2 2434   0.482   5.928   1.018
  826TIP3    H1 2435   0.540   5.854   1.037
  826TIP3    H2 2436   0.440   5.904   0.935
  827TIP3   OH2 2437   2.693   0.840   1.716
  827TIP3    H1 2438   2.735   0.772   1.663
  827TIP3    H2 2439   2.735   0.834   1.802
  828TIP3   OH2 2440   4.496   4.202   3.607
  828TIP3    H1 2441   4.471   4.258   3.680
  828TIP3    H2 2442   4.443   4.232   3.534
  829TIP3   OH2 2443   0.145   7.442   4.541
  829TIP3    H1 2444   0.157   7.464   4.634
  829TIP3    H2 2445   0.079   7.505   4.510
  830TIP3   OH2 2446   3.476   2.189   3.440
  830TIP3    H1 2447   3.534   2.258   3.473
  830TIP3    H2 2448   3.509   2.171   3.352
  831TIP3   OH2 2449   7.473   7.551   2.726
  831TIP3    H1 2450   7.545   7.493   2.749
  831TIP3    H2 2451   7.470   7.550   2.630
  832TIP3   OH2 2452  -0.046   3.898   3.185
  832TIP3    H1 2453  -0.020   3.848   3.107
  832TIP3    H2 2454   0.015   3.972   3.188
  833TIP3   OH2 2455   3.053   6.373   6.508
  833TIP3    H1 2456   3.015   6.460   6.496
  833TIP3    H2 2457   3.076   6.344   6.420
  834TIP3   OH2 2458   5.108   4.395   3.662
  834TIP3    H1 2459   5.075   4.427   3.578
  834TIP3    H2 2460   5.203   4.404   3.656
  835TIP3   OH2 2461   8.263   3.350   6.467
  835TIP3    H1 2462   8.253   3.405   6.388
  835TIP3    H2 2463   8.292   3.411   6.534
  836TIP3   OH2 2464   8.107   0.210   2.830
  836TIP3    H1 2465   8.139   0.263   2.903
  836TIP3    H2 2466   8.186   0.172   2.792
  837TIP3   OH2 2467   4.066   4.497   6.360
  837TIP3    H1 2468   4.085   4.418   6.310
  837TIP3    H2 2469   4.019   4.554   6.299
  838TIP3   OH2 2470   7.970   5.417   3.067
  838TIP3    H1 2471   8.055   5.454   3.041
  838TIP3    H2 2472   7.945   5.362   2.993
  839TIP3   OH2 2473   5.288   4.699   5.861
  839TIP3    H1 2474   5.235   4.683   5.783
  839TIP3    H2 2475   5.371   4.732   5.827
  840TIP3   OH2 2476   5.104   0.819   3.844
  840TIP3    H1 2477   5.166   0.798   3.914
  840TIP3    H2 2478   5.031   0.863   3.889
  841TIP3   OH2 2479   5.340   1.930   3.098
  841TIP3    H1 2480   5.307   2.007   3.146
  841TIP3    H2 2481   5.296   1.856   3.140
  842TIP3   OH2 2482   2.869   5.761   1.981
  842TIP3    H1 2483   2.813   5.832   2.011
  842TIP3    H2 2484   2.809   5.688   1.964
  843TIP3   OH2 2485   2.723   5.359   6.128
  843TIP3    H1 2486   2.759   5.408   6.054
  843TIP3    H2 2487   2.793   5.298   6.153
  844TIP3   OH2 2488   7.146   2.948   3.882
  844TIP3    H1 2489   7.224   2.901   3.852
  844TIP3    H2 2490   7.176   3.002   3.955
  845TIP3   OH2 2491   2.569   6.409   6.623
  845TIP3    H1 2492   2.655   6.446   6.606
  845TIP3    H2 2493   2.580   6.358   6.704
  846TIP3   OH2 2494   0.580   4.854   6.264
  846TIP3    H1 2495   0.641   4.806   6.208
  846TIP3    H2 2496   0.636   4.894   6.331
  847TIP3   OH2 2497   1.438   5.721   4.290
  847TIP3    H1 2498   1.346   5.735   4.314
  847TIP3    H2 2499   1.442   5.745   4.197
  848TIP3   OH2 2500   1.723   6.551   6.673
  848TIP3    H1 2501   1.722   6.464   6.632
  848TIP3    H2 2502   1.718   6.533   6.767
  849TIP3   OH2 2503   5.246   1.148   2.356
  849TIP3    H1 2504   5.205   1.166   2.440
  849TIP3    H2 2505   5.251   1.233   2.313
  850TIP3   OH2 2506   6.320   4.197   1.268
  850TIP3    H1 2507   6.387   4.217   1.203
  850TIP3    H2 2508   6.330   4.103   1.284
  851TIP3   OH2 2509   4.716   2.688   3.230
  851TIP3    H1 2510   4.748   2.685   3.320
  851TIP3    H2 2511   4.621   2.692   3.238
  852TIP3   OH2 2512   0.764   4.673   6.475
  852TIP3    H1 2513   0.763   4.737   6.404
  852TIP3    H2 2514   0.768   4.726   6.555
  853TIP3   OH2 2515   8.035   3.146   3.747
  853TIP3    H1 2516   8.003   3.056   3.749
  853TIP3    H2 2517   8.093   3.149   3.670
  854TIP3   OH2 2518   2.923   0.217   2.129
  854TIP3    H1 2519   2.977   0.288   2.096
  854TIP3    H2 2520   2.843   0.221   2.076
  855TIP3   OH2 2521   7.862   3.537   2.992
  855TIP3    H1 2522   7.859   3.545   3.088
  855TIP3    H2 2523   7.835   3.623   2.960
  856TIP3   OH2 2524   3.262   6.849   4.779
  856TIP3    H1 2525   3.334   6.911   4.791
  856TIP3    H2 2526   3.230   6.832   4.868
  857TIP3   OH2 2527   4.310   7.735   5.867
  857TIP3    H1 2528   4.326   7.700   5.780
  857TIP3    H2 2529   4.390   7.717   5.916
  858TIP3   OH2 2530   6.112   0.534   2.756
  858TIP3    H1 2531   6.142   0.467   2.816
  858TIP3    H2 2532   6.041   0.578   2.802
  859TIP3   OH2 2533   1.626   2.496   0.122
  859TIP3    H1 2534   1.720   2.511   0.122
  859TIP3    H2 2535   1.590   2.569   0.174
  860TIP3   OH2 2536   3.696   5.023   5.861
  860TIP3    H1 2537   3.624   5.082   5.840
  860TIP3    H2 2538   3.748   5.071   5.926
  861TIP3   OH2 2539   5.876   0.924   0.063
  861TIP3    H1 2540   5.920   0.966  -0.011
  861TIP3    H2 2541   5.804   0.875   0.023
  862TIP3   OH2 2542   1.807   0.521   4.979
  862TIP3    H1 2543   1.762   0.605   4.992
  862TIP3    H2 2544   1.834   0.496   5.068
  863TIP3   OH2 2545   6.468   5.570   2.220
  863TIP3    H1 2546   6.469   5.659   2.256
  863TIP3    H2 2547   6.456   5.582   2.126
  864TIP3   OH2 2548   8.080   5.030   0.314
  864TIP3    H1 2549   8.033   5.113   0.318
  864TIP3    H2 2550   8.171   5.053   0.335
  865TIP3   OH2 2551   1.226   3.328   0.161
  865TIP3    H1 2552   1.216   3.331   0.065
  865TIP3    H2 2553   1.265   3.412   0.183
  866TIP3   OH2 2554   6.039   5.062   4.314
  866TIP3    H1 2555   6.073   5.099   4.395
  866TIP3    H2 2556   6.021   4.971   4.335
  867TIP3   OH2 2557   6.941   0.260   3.442
  867TIP3    H1 2558   6.872   0.203   3.475
  867TIP3    H2 2559   6.896   0.341   3.418
  868TIP3   OH2 2560   3.175   5.855   0.984
  868TIP3    H1 2561   3.184   5.779   0.928
  868TIP3    H2 2562   3.120   5.826   1.057
  869TIP3   OH2 2563   5.920   7.259   0.970
  869TIP3    H1 2564   5.913   7.323   0.899
  869TIP3    H2 2565   6.014   7.252   0.986
  870TIP3   OH2 2566   4.030   0.830   2.504
  870TIP3    H1 2567   3.974   0.908   2.508
  870TIP3    H2 2568   4.031   0.797   2.593
  871TIP3   OH2 2569   8.085   5.233   3.932
  871TIP3    H1 2570   8.166   5.207   3.889
  871TIP3    H2 2571   8.107   5.316   3.976
  872TIP3   OH2 2572   8.253   6.362   3.724
  872TIP3    H1 2573   8.278   6.444   3.682
  872TIP3    H2 2574   8.166   6.380   3.761
  873TIP3   OH2 2575   7.026   1.164   0.233
  873TIP3    H1 2576   6.991   1.204   0.153
  873TIP3    H2 2577   7.043   1.238   0.292
  874TIP3   OH2 2578   2.239   7.356   3.584
  874TIP3    H1 2579   2.164   7.411   3.560
  874TIP3    H2 2580   2.315   7.403   3.553
  875TIP3   OH2 2581   7.230   3.870   3.137
  875TIP3    H1 2582   7.246   3.782   3.103
  875TIP3    H2 2583   7.202   3.920   3.061
  876TIP3   OH2 2584   3.154   2.418   2.541
  876TIP3    H1 2585   3.146   2.492   2.602
  876TIP3    H2 2586   3.174   2.458   2.457
  877TIP3   OH2 2587   6.296   7.037   0.596
  877TIP3    H1 2588   6.307   7.084   0.514
  877TIP3    H2 2589   6.348   7.087   0.659
  878TIP3   OH2 2590   2.505   3.838   3.768
  878TIP3    H1 2591   2.573   3.902   3.747
  878TIP3    H2 2592   2.444   3.886   3.824
  879TIP3   OH2 2593   1.448   6.252   6.316
  879TIP3    H1 2594   1.477   6.164   6.341
  879TIP3    H2 2595   1.482   6.263   6.227
  880TIP3   OH2 2596   2.152   5.072   1.260
  880TIP3    H1 2597   2.092   5.008   1.221
  880TIP3    H2 2598   2.159   5.046   1.351
  881TIP3   OH2 2599   3.508   4.306   2.755
  881TIP3    H1 2600   3.581   4.351   2.713
  881TIP3    H2 2601   3.437   4.312   2.692
  882TIP3   OH2 2602   5.641   2.539   0.702
  882TIP3    H1 2603   5.673   2.629   0.695
  882TIP3    H2 2604   5.720   2.485   0.696
  883TIP3   OH2 2605   2.831   4.241   3.071
  883TIP3    H1 2606   2.902   4.184   3.042
  883TIP3    H2 2607   2.839   4.319   3.017
  884TIP3   OH2 2608   3.168   5.910   6.076
  884TIP3    H1 2609   3.200   5.820   6.081
  884TIP3    H2 2610   3.248   5.964   6.078
  885TIP3   OH2 2611   6.582   2.884   6.134
  885TIP3    H1 2612   6.623   2.803   6.163
  885TIP3    H2 2613   6.581   2.878   6.039
  886TIP3   OH2 2614   5.672   2.990   4.690
  886TIP3    H1 2615   5.632   3.076   4.702
  886TIP3    H2 2616   5.683   2.982   4.595
  887TIP3   OH2 2617   6.447   7.444   3.956
  887TIP3    H1 2618   6.488   7.400   4.030
  887TIP3    H2 2619   6.354   7.449   3.979
  888TIP3   OH2 2620   7.986   2.070   2.696
  888TIP3    H1 2621   7.894   2.088   2.676
  888TIP3    H2 2622   8.034   2.138   2.648
  889TIP3   OH2 2623   5.780   3.982   2.804
  889TIP3    H1 2624   5.841   4.048   2.769
  889TIP3    H2 2625   5.708   3.981   2.741
  890TIP3   OH2 2626   4.903   4.464   4.232
  890TIP3    H1 2627   4.919   4.526   4.303
  890TIP3    H2 2628   4.968   4.396   4.243
  891TIP3   OH2 2629   7.821   0.876   4.832
  891TIP3    H1 2630   7.851   0.813   4.897
  891TIP3    H2 2631   7.816   0.959   4.879
  892TIP3   OH2 2632   3.889   0.706   1.198
  892TIP3    H1 2633   3.862   0.746   1.281
  892TIP3    H2 2634   3.831   0.631   1.187
  893TIP3   OH2 2635   4.966   6.153   2.316
  893TIP3    H1 2636   4.927   6.176   2.232
  893TIP3    H2 2637   5.029   6.083   2.295
  894TIP3   OH2 2638   6.765   5.430   4.323
  894TIP3    H1 2639   6.732   5.349   4.284
  894TIP3    H2 2640   6.802   5.403   4.407
  895TIP3   OH2 2641   5.619   4.149   3.559
  895TIP3    H1 2642   5.659   4.207   3.624
  895TIP3    H2 2643   5.650   4.183   3.475
  896TIP3   OH2 2644   3.068   0.373   3.946
  896TIP3    H1 2645   3.059   0.457   3.992
  896TIP3    H2 2646   2.980   0.353   3.915
  897TIP3   OH2 2647   5.132   2.463   4.965
  897TIP3    H1 2648   5.117   2.557   4.952
  897TIP3    H2 2649   5.044   2.426   4.970
  898TIP3   OH2 2650   2.791   1.219   0.452
  898TIP3    H1 2651   2.715   1.236   0.396
  898TIP3    H2 2652   2.866   1.226   0.393
  899TIP3   OH2 2653   3.047   1.940   4.217
  899TIP3    H1 2654   3.117   1.938   4.284
  899TIP3    H2 2655   2.995   2.017   4.240
  900TIP3   OH2 2656   1.079   1.441   3.036
  900TIP3    H1 2657   0.988   1.437   3.065
  900TIP3    H2 2658   1.126   1.387   3.099
  901TIP3   OH2 2659   7.060   7.771   1.936
  901TIP3    H1 2660   7.091   7.860   1.923
  901TIP3    H2 2661   7.000   7.777   2.011
  902TIP3   OH2 2662   4.666   6.730   0.396
  902TIP3    H1 2663   4.738   6.674   0.425
  902TIP3    H2 2664   4.608   6.671   0.348
  903TIP3   OH2 2665   3.324   3.809   0.666
  903TIP3    H1 2666   3.359   3.744   0.728
  903TIP3    H2 2667   3.383   3.884   0.674
  904TIP3   OH2 2668   1.516   0.398   5.086
  904TIP3    H1 2669   1.521   0.472   5.025
  904TIP3    H2 2670   1.547   0.433   5.170
  905TIP3   OH2 2671   1.116   7.200   4.933
  905TIP3    H1 2672   1.204   7.237   4.937
  905TIP3    H2 2673   1.104   7.178   4.841
  906TIP3   OH2 2674   6.690   0.593   4.173
  906TIP3    H1 2675   6.649   0.512   4.144
  906TIP3    H2 2676   6.779   0.567   4.197
  907TIP3   OH2 2677   2.144   1.790   3.163
  907TIP3    H1 2678   2.148   1.725   3.092
  907TIP3    H2 2679   2.057   1.829   3.155
  908TIP3   OH2 2680   6.794   3.935   1.616
  908TIP3    H1 2681   6.725   3.873   1.593
  908TIP3    H2 2682   6.779   4.010   1.557
  909TIP3   OH2 2683   7.229   4.749   5.146
  909TIP3    H1 2684   7.316   4.779   5.172
  909TIP3    H2 2685   7.225   4.657   5.173
  910TIP3   OH2 2686   2.486   3.637   0.597
  910TIP3    H1 2687   2.474   3.678   0.682
  910TIP3    H2 2688   2.415   3.671   0.543
  911TIP3   OH2 2689   2.698   4.355   5.726
  911TIP3    H1 2690   2.683   4.298   5.651
  911TIP3    H2 2691   2.675   4.302   5.802
  912TIP3   OH2 2692   6.945   3.288   2.374
  912TIP3    H1 2693   6.919   3.272   2.284
  912TIP3    H2 2694   6.981   3.377   2.374
  913TIP3   OH2 2695   3.689   7.365   5.066
  913TIP3    H1 2696   3.742   7.370   5.146
  913TIP3    H2 2697   3.680   7.272   5.048
  914TIP3   OH2 2698   2.709   5.511   1.874
  914TIP3    H1 2699   2.642   5.570   1.840
  914TIP3    H2 2700   2.766   5.494   1.800
  915TIP3   OH2 2701   1.182   7.711   5.431
  915TIP3    H1 2702   1.104   7.683   5.478
  915TIP3    H2 2703   1.183   7.806   5.440
  916TIP3   OH2 2704   4.859   3.375   3.273
  916TIP3    H1 2705   4.766   3.376   3.253
  916TIP3    H2 2706   4.896   3.443   3.217
  917TIP3   OH2 2707   4.320   2.583   0.677
  917TIP3    H1 2708   4.313   2.679   0.676
  917TIP3    H2 2709   4.363   2.561   0.595
  918TIP3   OH2 2710   5.517   5.019   1.661
  918TIP3    H1 2711   5.596   4.981   1.623
  918TIP3    H2 2712   5.447   5.000   1.598
  919TIP3   OH2 2713   5.918   6.359   5.535
  919TIP3    H1 2714   5.852   6.414   5.492
  919TIP3    H2 2715   6.002   6.392   5.503
  920TIP3   OH2 2716   3.716   3.711   4.300
  920TIP3    H1 2717   3.653   3.657   4.348
  920TIP3    H2 2718   3.793   3.654   4.292
  921TIP3   OH2 2719   6.352   4.004   5.925
  921TIP3    H1 2720   6.353   4.094   5.958
  921TIP3    H2 2721   6.263   3.990   5.894
  922TIP3   OH2 2722   3.436   7.649   3.193
  922TIP3    H1 2723   3.492   7.690   3.127
  922TIP3    H2 2724   3.356   7.627   3.146
  923TIP3   OH2 2725   5.357   3.414   0.483
  923TIP3    H1 2726   5.312   3.469   0.547
  923TIP3    H2 2727   5.405   3.350   0.536
  924TIP3   OH2 2728   2.336   3.489   6.677
  924TIP3    H1 2729   2.334   3.487   6.773
  924TIP3    H2 2730   2.423   3.455   6.655
  925TIP3   OH2 2731   8.140   6.908   2.190
  925TIP3    H1 2732   8.192   6.894   2.111
  925TIP3    H2 2733   8.077   6.836   2.192
  926TIP3   OH2 2734   7.075   1.454   5.520
  926TIP3    H1 2735   7.058   1.460   5.426
  926TIP3    H2 2736   7.168   1.471   5.529
  927TIP3   OH2 2737   5.551   1.601   6.290
  927TIP3    H1 2738   5.507   1.630   6.210
  927TIP3    H2 2739   5.481   1.591   6.354
  928TIP3   OH2 2740   4.428   0.388   5.174
  928TIP3    H1 2741   4.376   0.418   5.249
  928TIP3    H2 2742   4.428   0.293   5.182
  929TIP3   OH2 2743   2.012   4.992   3.999
  929TIP3    H1 2744   2.010   5.030   3.911
  929TIP3    H2 2745   2.043   5.063   4.055
  930TIP3   OH2 2746   6.056   5.607   4.239
  930TIP3    H1 2747   5.974   5.582   4.196
  930TIP3    H2 2748   6.112   5.638   4.168
  931TIP3   OH2 2749   6.945   5.602   5.592
  931TIP3    H1 2750   6.940   5.511   5.563
  931TIP3    H2 2751   6.971   5.597   5.684
  932TIP3   OH2 2752   1.528   7.151   6.785
  932TIP3    H1 2753   1.588   7.208   6.736
  932TIP3    H2 2754   1.466   7.211   6.825
  933TIP3   OH2 2755   3.515   6.669   0.664
  933TIP3    H1 2756   3.533   6.655   0.571
  933TIP3    H2 2757   3.426   6.637   0.677
  934TIP3   OH2 2758   1.229   4.822   0.747
  934TIP3    H1 2759   1.307   4.869   0.777
  934TIP3    H2 2760   1.173   4.890   0.710
  935TIP3   OH2 2761   1.638   2.593   1.725
  935TIP3    H1 2762   1.556   2.612   1.678
  935TIP3    H2 2763   1.613   2.593   1.817
  936TIP3   OH2 2764   2.558   0.398   3.915
  936TIP3    H1 2765   2.484   0.382   3.856
  936TIP3    H2 2766   2.632   0.355   3.873
  937TIP3   OH2 2767   5.060   1.211   4.975
  937TIP3    H1 2768   5.101   1.295   4.956
  937TIP3    H2 2769   5.010   1.226   5.056
  938TIP3   OH2 2770   1.196  -0.012   0.170
  938TIP3    H1 2771   1.170   0.078   0.190
  938TIP3    H2 2772   1.202  -0.015   0.074
  939TIP3   OH2 2773   4.931   6.719   1.986
  939TIP3    H1 2774   4.864   6.652   1.997
  939TIP3    H2 2775   5.003   6.690   2.043
  940TIP3   OH2 2776   2.864   0.394   2.761
  940TIP3    H1 2777   2.930   0.413   2.827
  940TIP3    H2 2778   2.783   0.381   2.810
  941TIP3   OH2 2779   3.655   4.854   1.995
  941TIP3    H1 2780   3.745   4.886   1.996
  941TIP3    H2 2781   3.603   4.928   1.964
  942TIP3   OH2 2782   1.096   3.197   1.636
  942TIP3    H1 2783   1.138   3.128   1.687
  942TIP3    H2 2784   1.057   3.152   1.561
  943TIP3   OH2 2785   0.250   0.838   2.207
  943TIP3    H1 2786   0.220   0.781   2.137
  943TIP3    H2 2787   0.342   0.855   2.186
  944TIP3   OH2 2788   4.864   6.157   2.552
  944TIP3    H1 2789   4.938   6.142   2.610
  944TIP3    H2 2790   4.901   6.150   2.464
  945TIP3   OH2 2791   4.934   2.604   5.315
  945TIP3    H1 2792   4.909   2.666   5.384
  945TIP3    H2 2793   4.887   2.524   5.337
  946TIP3   OH2 2794   3.831   6.558   6.324
  946TIP3    H1 2795   3.919   6.520   6.317
  946TIP3    H2 2796   3.773   6.492   6.284
  947TIP3   OH2 2797   1.870   3.281   0.122
  947TIP3    H1 2798   1.828   3.326   0.049
  947TIP3    H2 2799   1.865   3.188   0.099
  948TIP3   OH2 2800   0.000   2.740   4.563
  948TIP3    H1 2801   0.048   2.772   4.487
  948TIP3    H2 2802  -0.005   2.645   4.550
  949TIP3   OH2 2803   5.180   6.162   1.618
  949TIP3    H1 2804   5.199   6.180   1.526
  949TIP3    H2 2805   5.132   6.079   1.617
  950TIP3   OH2 2806   0.584   4.515   5.770
  950TIP3    H1 2807   0.597   4.434   5.721
  950TIP3    H2 2808   0.550   4.577   5.705
  951TIP3   OH2 2809   0.526   4.907   1.352
  951TIP3    H1 2810   0.443   4.860   1.353
  951TIP3    H2 2811   0.502   4.996   1.378
  952TIP3   OH2 2812   0.875   0.514   6.177
  952TIP3    H1 2813   0.925   0.471   6.246
  952TIP3    H2 2814   0.792   0.467   6.175
  953TIP3   OH2 2815   0.342   5.263   0.444
  953TIP3    H1 2816   0.378   5.326   0.381
  953TIP3    H2 2817   0.283   5.314   0.498
  954TIP3   OH2 2818   2.779   4.177   6.518
  954TIP3    H1 2819   2.722   4.101   6.531
  954TIP3    H2 2820   2.718   4.249   6.498
  955TIP3   OH2 2821   6.244   1.882   3.952
  955TIP3    H1 2822   6.248   1.787   3.959
  955TIP3    H2 2823   6.282   1.914   4.034
  956TIP3   OH2 2824   1.880   4.167   6.531
  956TIP3    H1 2825   1.911   4.249   6.570
  956TIP3    H2 2826   1.926   4.098   6.579
  957TIP3   OH2 2827   6.435   4.148   0.795
  957TIP3    H1 2828   6.402   4.225   0.748
  957TIP3    H2 2829   6.361   4.087   0.795
  958TIP3   OH2 2830   2.141   1.099   0.438
  958TIP3    H1 2831   2.191   1.178   0.458
  958TIP3    H2 2832   2.193   1.028   0.475
  959TIP3   OH2 2833   2.885   7.519   6.304
  959TIP3    H1 2834   2.878   7.614   6.308
  959TIP3    H2 2835   2.798   7.487   6.326
  960TIP3   OH2 2836   5.823   4.592   6.131
  960TIP3    H1 2837   5.765   4.646   6.078
  960TIP3    H2 2838   5.865   4.654   6.191
  961TIP3   OH2 2839   6.841   1.288   1.073
  961TIP3    H1 2840   6.880   1.375   1.063
  961TIP3    H2 2841   6.898   1.243   1.135
  962TIP3   OH2 2842   3.619   2.553   6.236
  962TIP3    H1 2843   3.652   2.599   6.158
  962TIP3    H2 2844   3.689   2.562   6.300
  963TIP3   OH2 2845   2.381   4.013   2.543
  963TIP3    H1 2846   2.454   4.012   2.603
  963TIP3    H2 2847   2.409   4.071   2.472
  964TIP3   OH2 2848   4.404   3.583   0.982
  964TIP3    H1 2849   4.412   3.582   0.886
  964TIP3    H2 2850   4.486   3.546   1.013
  965TIP3   OH2 2851   3.871   4.641   6.235
  965TIP3    H1 2852   3.870   4.723   6.186
  965TIP3    H2 2853   3.815   4.582   6.184
  966TIP3   OH2 2854   4.548   1.969   3.348
  966TIP3    H1 2855   4.568   1.998   3.437
  966TIP3    H2 2856   4.517   1.880   3.359
  967TIP3   OH2 2857   7.658   5.939   5.807
  967TIP3    H1 2858   7.573   5.938   5.762
  967TIP3    H2 2859   7.659   6.023   5.853
  968TIP3   OH2 2860   3.835   7.790   1.032
  968TIP3    H1 2861   3.835   7.836   1.116
  968TIP3    H2 2862   3.914   7.736   1.034
  969TIP3   OH2 2863   3.593   5.542   6.093
  969TIP3    H1 2864   3.539   5.468   6.121
  969TIP3    H2 2865   3.682   5.517   6.118
  970TIP3   OH2 2866   6.312   6.036   4.666
  970TIP3    H1 2867   6.274   5.950   4.648
  970TIP3    H2 2868   6.378   6.019   4.732
  971TIP3   OH2 2869   0.621   6.889   1.074
  971TIP3    H1 2870   0.589   6.943   1.145
  971TIP3    H2 2871   0.559   6.817   1.068
  972TIP3   OH2 2872   3.669   7.474   0.172
  972TIP3    H1 2873   3.617   7.554   0.163
  972TIP3    H2 2874   3.662   7.450   0.264
  973TIP3   OH2 2875   1.530   5.493   0.133
  973TIP3    H1 2876   1.468   5.425   0.158
  973TIP3    H2 2877   1.590   5.450   0.072
  974TIP3   OH2 2878   7.437   4.172   1.107
  974TIP3    H1 2879   7.398   4.256   1.129
  974TIP3    H2 2880   7.363   4.112   1.098
  975TIP3   OH2 2881   7.773   1.592   0.370
  975TIP3    H1 2882   7.780   1.581   0.276
  975TIP3    H2 2883   7.746   1.683   0.383
  976TIP3   OH2 2884   5.199   6.052   5.384
  976TIP3    H1 2885   5.293   6.054   5.364
  976TIP3    H2 2886   5.161   6.001   5.312
  977TIP3   OH2 2887   2.913   6.784   2.794
  977TIP3    H1 2888   2.832   6.734   2.801
  977TIP3    H2 2889   2.905   6.833   2.712
  978TIP3   OH2 2890   6.054   0.699   4.084
  978TIP3    H1 2891   5.984   0.701   4.149
  978TIP3    H2 2892   6.134   0.686   4.135
  979TIP3   OH2 2893   5.728   1.234   5.322
  979TIP3    H1 2894   5.697   1.259   5.235
  979TIP3    H2 2895   5.774   1.151   5.308
  980TIP3   OH2 2896   6.768   0.794   4.800
  980TIP3    H1 2897   6.747   0.856   4.730
  980TIP3    H2 2898   6.860   0.812   4.821
  981TIP3   OH2 2899   7.444   2.823   5.042
  981TIP3    H1 2900   7.492   2.828   5.125
  981TIP3    H2 2901   7.512   2.826   4.975
  982TIP3   OH2 2902   3.735   0.464   1.118
  982TIP3    H1 2903   3.760   0.396   1.055
  982TIP3    H2 2904   3.653   0.431   1.156
  983TIP3   OH2 2905   2.129   1.766   1.297
  983TIP3    H1 2906   2.147   1.856   1.270
  983TIP3    H2 2907   2.216   1.729   1.315
  984TIP3   OH2 2908   4.174   5.838   5.653
  984TIP3    H1 2909   4.176   5.759   5.600
  984TIP3    H2 2910   4.082   5.863   5.655
  985TIP3   OH2 2911   5.308   5.576   0.007
  985TIP3    H1 2912   5.402   5.585   0.023
  985TIP3    H2 2913   5.297   5.485  -0.022
  986TIP3   OH2 2914   0.130   0.159   1.085
  986TIP3    H1 2915   0.111   0.202   1.001
  986TIP3    H2 2916   0.071   0.084   1.088
  987TIP3   OH2 2917   7.049   3.712   6.057
  987TIP3    H1 2918   7.016   3.734   6.144
  987TIP3    H2 2919   7.144   3.720   6.065
  988TIP3   OH2 2920   3.194   0.016   6.565
  988TIP3    H1 2921   3.174   0.072   6.490
  988TIP3    H2 2922   3.174   0.070   6.641
  989TIP3   OH2 2923   1.397   2.662   1.968
  989TIP3    H1 2924   1.332   2.592   1.976
  989TIP3    H2 2925   1.357   2.736   2.014
  990TIP3   OH2 2926   0.850   4.818   3.593
  990TIP3    H1 2927   0.881   4.904   3.619
  990TIP3    H2 2928   0.884   4.806   3.504
  991TIP3   OH2 2929   8.159   1.084   1.449
  991TIP3    H1 2930   8.107   1.020   1.401
  991TIP3    H2 2931   8.195   1.036   1.523
  992TIP3   OH2 2932   1.689   6.527   1.187
  992TIP3    H1 2933   1.663   6.448   1.140
  992TIP3    H2 2934   1.784   6.531   1.176
  993TIP3   OH2 2935   3.157   2.086   5.248
  993TIP3    H1 2936   3.208   2.101   5.168
  993TIP3    H2 2937   3.071   2.124   5.228
  994TIP3   OH2 2938   3.445   1.127   5.412
  994TIP3    H1 2939   3.424   1.072   5.487
  994TIP3    H2 2940   3.484   1.066   5.349
  995TIP3   OH2 2941   5.958   4.023   1.382
  995TIP3    H1 2942   5.985   4.111   1.409
  995TIP3    H2 2943   6.027   3.965   1.415
  996TIP3   OH2 2944   5.074   4.227   4.099
  996TIP3    H1 2945   5.041   4.273   4.022
  996TIP3    H2 2946   4.998   4.181   4.134
  997TIP3   OH2 2947   1.636   7.747   3.755
  997TIP3    H1 2948   1.611   7.837   3.778
  997TIP3    H2 2949   1.644   7.748   3.660
  998TIP3   OH2 2950   6.049   6.806   3.579
  998TIP3    H1 2951   5.995   6.829   3.503
  998TIP3    H2 2952   5.988   6.769   3.642
  999TIP3   OH2 2953   4.969   2.525   2.819
  999TIP3    H1 2954   4.989   2.433   2.839
  999TIP3    H2 2955   5.041   2.574   2.858
 1000TIP3   OH2 2956   1.693   5.769   1.517
 1000TIP3    H1 2957   1.713   5.862   1.502
 1000TIP3    H2 2958   1.654   5.741   1.434
 1001TIP3   OH2 2959   4.832   7.633   1.138
 1001TIP3    H1 2960   4.811   7.725   1.121
 1001TIP3    H2 2961   4.927   7.632   1.149
 1002TIP3   OH2 2962   6.237   6.430   3.590
 1002TIP3    H1 2963   6.295   6.506   3.579
 1002TIP3    H2 2964   6.212   6.406   3.501
 1003TIP3   OH2 2965   0.224   0.069   5.789
 1003TIP3    H1 2966   0.201   0.086   5.881
 1003TIP3    H2 2967   0.256   0.152   5.756
 1004TIP3   OH2 2968   1.120   0.270   0.944
 1004TIP3    H1 2969   1.064   0.263   0.867
 1004TIP3    H2 2970   1.171   0.350   0.930
 1005TIP3   OH2 2971   1.834   7.439   0.935
 1005TIP3    H1 2972   1.782   7.449   1.015
 1005TIP3    H2 2973   1.778   7.389   0.876
 1006TIP3   OH2 2974   6.012   3.683   3.157
 1006TIP3    H1 2975   6.050   3.652   3.239
 1006TIP3    H2 2976   5.917   3.671   3.168
 1007TIP3   OH2 2977   1.654   0.395   3.635
 1007TIP3    H1 2978   1.587   0.376   3.702
 1007TIP3    H2 2979   1.631   0.339   3.561
 1008TIP3   OH2 2980   1.321   3.777   1.569
 1008TIP3    H1 2981   1.268   3.761   1.648
 1008TIP3    H2 2982   1.407   3.803   1.603
 1009TIP3   OH2 2983   7.017   1.753   1.121
 1009TIP3    H1 2984   6.967   1.765   1.202
 1009TIP3    H2 2985   7.108   1.771   1.146
 1010TIP3   OH2 2986   1.010   1.586   2.729
 1010TIP3    H1 2987   0.930   1.542   2.757
 1010TIP3    H2 2988   0.983   1.639   2.654
 1011TIP3   OH2 2989   7.843   1.770   2.658
 1011TIP3    H1 2990   7.834   1.796   2.567
 1011TIP3    H2 2991   7.936   1.752   2.669
 1012TIP3   OH2 2992   5.880   3.009   5.189
 1012TIP3    H1 2993   5.844   2.962   5.265
 1012TIP3    H2 2994   5.823   2.984   5.117
 1013TIP3   OH2 2995   4.491   5.516   2.006
 1013TIP3    H1 2996   4.579   5.482   2.024
 1013TIP3    H2 2997   4.505   5.607   1.979
 1014TIP3   OH2 2998   1.786   6.386   3.496
 1014TIP3    H1 2999   1.752   6.321   3.556
 1014TIP3    H2 3000   1.830   6.336   3.428
 1015TIP3   OH2 3001   6.511   7.513   6.647
 1015TIP3    H1 3002   6.521   7.428   6.689
 1015TIP3    H2 3003   6.600   7.543   6.631
 1016TIP3   OH2 3004   6.745   2.688   6.523
 1016TIP3    H1 3005   6.728   2.595   6.538
 1016TIP3    H2 3006   6.841   2.696   6.528
 1017TIP3   OH2 3007   3.688   5.079   1.378
 1017TIP3    H1 3008   3.663   5.163   1.416
 1017TIP3    H2 3009   3.605   5.031   1.372
 1018TIP3   OH2 3010   3.141   2.557   5.237
 1018TIP3    H1 3011   3.210   2.507   5.281
 1018TIP3    H2 3012   3.073   2.568   5.303
 1019TIP3   OH2 3013   7.940   1.411   3.423
 1019TIP3    H1 3014   7.971   1.454   3.502
 1019TIP3    H2 3015   7.852   1.447   3.408
 1020TIP3   OH2 3016   3.223   2.302   4.225
 1020TIP3    H1 3017   3.303   2.347   4.255
 1020TIP3    H2 3018   3.152   2.363   4.247
 1021TIP3   OH2 3019   3.509   4.875   1.412
 1021TIP3    H1 3020   3.452   4.892   1.487
 1021TIP3    H2 3021   3.582   4.824   1.449
 1022TIP3   OH2 3022   4.854   2.045   5.104
 1022TIP3    H1 3023   4.775   2.043   5.158
 1022TIP3    H2 3024   4.847   1.967   5.048
 1023TIP3   OH2 3025   3.196   2.567   2.300
 1023TIP3    H1 3026   3.237   2.531   2.221
 1023TIP3    H2 3027   3.107   2.589   2.273
 1024TIP3   OH2 3028   3.258   5.697   1.820
 1024TIP3    H1 3029   3.278   5.779   1.864
 1024TIP3    H2 3030   3.344   5.660   1.797
 1025TIP3   OH2 3031   5.575   0.063   3.400
 1025TIP3    H1 3032   5.525   0.049   3.320
 1025TIP3    H2 3033   5.530   0.135   3.444
 1026TIP3   OH2 3034   7.083   0.978   2.603
 1026TIP3    H1 3035   7.150   0.917   2.635
 1026TIP3    H2 3036   7.108   1.063   2.641
 1027TIP3   OH2 3037   2.775   6.239   4.685
 1027TIP3    H1 3038   2.862   6.256   4.649
 1027TIP3    H2 3039   2.721   6.220   4.609
 1028TIP3   OH2 3040   6.159   4.834   2.549
 1028TIP3    H1 3041   6.171   4.772   2.621
 1028TIP3    H2 3042   6.176   4.784   2.470
 1029TIP3   OH2 3043   4.559   4.884   1.915
 1029TIP3    H1 3044   4.540   4.828   1.990
 1029TIP3    H2 3045   4.500   4.959   1.926
 1030TIP3   OH2 3046   4.141   6.354   4.759
 1030TIP3    H1 3047   4.145   6.429   4.818
 1030TIP3    H2 3048   4.162   6.279   4.814
 1031TIP3   OH2 3049   0.487   4.554   6.604
 1031TIP3    H1 3050   0.507   4.530   6.513
 1031TIP3    H2 3051   0.497   4.649   6.606
 1032TIP3   OH2 3052   1.347   7.451   0.744
 1032TIP3    H1 3053   1.403   7.493   0.679
 1032TIP3    H2 3054   1.399   7.455   0.825
 1033TIP3   OH2 3055   6.814   6.773   6.751
 1033TIP3    H1 3056   6.849   6.856   6.719
 1033TIP3    H2 3057   6.729   6.796   6.789
 1034TIP3   OH2 3058   5.798   5.437   4.847
 1034TIP3    H1 3059   5.757   5.519   4.822
 1034TIP3    H2 3060   5.857   5.416   4.775
 1035TIP3   OH2 3061   4.358   2.931   5.147
 1035TIP3    H1 3062   4.397   2.934   5.059
 1035TIP3    H2 3063   4.271   2.970   5.136
 1036TIP3   OH2 3064   0.045   0.952   5.333
 1036TIP3    H1 3065   0.128   0.995   5.315
 1036TIP3    H2 3066   0.018   0.916   5.248
 1037TIP3   OH2 3067   7.873   6.786   2.912
 1037TIP3    H1 3068   7.802   6.740   2.869
 1037TIP3    H2 3069   7.918   6.833   2.841
 1038TIP3   OH2 3070   0.650   5.466   5.460
 1038TIP3    H1 3071   0.626   5.461   5.552
 1038TIP3    H2 3072   0.745   5.475   5.460
 1039TIP3   OH2 3073   4.940   0.033   3.341
 1039TIP3    H1 3074   4.880   0.060   3.271
 1039TIP3    H2 3075   4.934   0.101   3.407
 1040TIP3   OH2 3076   2.393   7.283   2.812
 1040TIP3    H1 3077   2.385   7.287   2.716
 1040TIP3    H2 3078   2.450   7.356   2.834
 1041TIP3   OH2 3079   3.383   4.572   3.531
 1041TIP3    H1 3080   3.455   4.591   3.471
 1041TIP3    H2 3081   3.411   4.493   3.578
 1042TIP3   OH2 3082   3.918   5.143   6.002
 1042TIP3    H1 3083   3.996   5.174   6.048
 1042TIP3    H2 3084   3.931   5.172   5.912
 1043TIP3   OH2 3085   1.348   3.987   4.252
 1043TIP3    H1 3086   1.354   4.067   4.304
 1043TIP3    H2 3087   1.435   3.947   4.260
 1044TIP3   OH2 3088   2.352   5.743   2.045
 1044TIP3    H1 3089   2.393   5.823   2.078
 1044TIP3    H2 3090   2.281   5.725   2.107
 1045TIP3   OH2 3091   7.493   7.084   3.922
 1045TIP3    H1 3092   7.403   7.079   3.890
 1045TIP3    H2 3093   7.514   6.994   3.946
 1046TIP3   OH2 3094   2.200   4.814   4.524
 1046TIP3    H1 3095   2.143   4.808   4.448
 1046TIP3    H2 3096   2.162   4.752   4.587
 1047TIP3   OH2 3097   1.096   5.263   1.695
 1047TIP3    H1 3098   1.034   5.290   1.764
 1047TIP3    H2 3099   1.152   5.340   1.682
 1048TIP3   OH2 3100   3.402   6.904   3.554
 1048TIP3    H1 3101   3.381   6.841   3.623
 1048TIP3    H2 3102   3.459   6.856   3.493
 1049TIP3   OH2 3103   1.333   6.743   1.307
 1049TIP3    H1 3104   1.382   6.682   1.362
 1049TIP3    H2 3105   1.387   6.753   1.229
 1050TIP3   OH2 3106   2.306   3.624   5.750
 1050TIP3    H1 3107   2.389   3.668   5.769
 1050TIP3    H2 3108   2.285   3.650   5.660
 1051TIP3   OH2 3109   8.201   1.246   2.877
 1051TIP3    H1 3110   8.273   1.231   2.815
 1051TIP3    H2 3111   8.245   1.269   2.959
 1052TIP3   OH2 3112   2.270   7.085   2.334
 1052TIP3    H1 3113   2.306   7.044   2.412
 1052TIP3    H2 3114   2.217   7.016   2.293
 1053TIP3   OH2 3115   3.306   4.102   3.072
 1053TIP3    H1 3116   3.283   4.012   3.050
 1053TIP3    H2 3117   3.399   4.110   3.051
 1054TIP3   OH2 3118   3.930   4.347   4.243
 1054TIP3    H1 3119   3.934   4.268   4.297
 1054TIP3    H2 3120   3.899   4.415   4.303
 1055TIP3   OH2 3121   6.862   7.731   2.118
 1055TIP3    H1 3122   6.838   7.802   2.178
 1055TIP3    H2 3123   6.783   7.677   2.111
 1056TIP3   OH2 3124   1.932   5.929   2.276
 1056TIP3    H1 3125   1.967   5.943   2.188
 1056TIP3    H2 3126   1.856   5.873   2.263
 1057TIP3   OH2 3127   0.939   1.201   0.677
 1057TIP3    H1 3128   0.981   1.282   0.704
 1057TIP3    H2 3129   0.891   1.172   0.755
 1058TIP3   OH2 3130   4.279   6.129   5.237
 1058TIP3    H1 3131   4.256   6.122   5.330
 1058TIP3    H2 3132   4.326   6.048   5.218
 1059TIP3   OH2 3133   6.621   0.984   0.708
 1059TIP3    H1 3134   6.647   0.983   0.616
 1059TIP3    H2 3135   6.702   0.963   0.755
 1060TIP3   OH2 3136   5.915   7.476   0.504
 1060TIP3    H1 3137   5.873   7.441   0.583
 1060TIP3    H2 3138   5.847   7.530   0.464
 1061TIP3   OH2 3139   1.489   5.512   1.956
 1061TIP3    H1 3140   1.528   5.445   2.013
 1061TIP3    H2 3141   1.453   5.462   1.882
 1062TIP3   OH2 3142   0.458   2.398   0.424
 1062TIP3    H1 3143   0.444   2.305   0.443
 1062TIP3    H2 3144   0.487   2.435   0.507
 1063TIP3   OH2 3145   5.995   4.281   2.175
 1063TIP3    H1 3146   6.013   4.205   2.119
 1063TIP3    H2 3147   6.051   4.350   2.139
 1064TIP3   OH2 3148   8.160   2.383   5.838
 1064TIP3    H1 3149   8.200   2.466   5.863
 1064TIP3    H2 3150   8.073   2.385   5.879
 1065TIP3   OH2 3151   7.010   7.590   2.310
 1065TIP3    H1 3152   6.965   7.659   2.261
 1065TIP3    H2 3153   6.993   7.612   2.402
 1066TIP3   OH2 3154   6.511   7.369   5.901
 1066TIP3    H1 3155   6.595   7.387   5.859
 1066TIP3    H2 3156   6.510   7.274   5.913
 1067TIP3   OH2 3157   6.773   1.778   6.804
 1067TIP3    H1 3158   6.860   1.816   6.789
 1067TIP3    H2 3159   6.761   1.718   6.731
 1068TIP3   OH2 3160   4.146   4.004   1.706
 1068TIP3    H1 3161   4.127   3.925   1.655
 1068TIP3    H2 3162   4.137   4.076   1.644
 1069TIP3   OH2 3163   5.707   5.875   3.199
 1069TIP3    H1 3164   5.663   5.793   3.220
 1069TIP3    H2 3165   5.782   5.879   3.259
 1070TIP3   OH2 3166   4.849   7.791   2.534
 1070TIP3    H1 3167   4.778   7.780   2.471
 1070TIP3    H2 3168   4.806   7.793   2.619
 1071TIP3   OH2 3169   4.786   4.002   4.980
 1071TIP3    H1 3170   4.734   4.074   5.013
 1071TIP3    H2 3171   4.766   3.928   5.038
 1072TIP3   OH2 3172   2.263   3.732   6.539
 1072TIP3    H1 3173   2.311   3.655   6.569
 1072TIP3    H2 3174   2.180   3.729   6.587
 1073TIP3   OH2 3175   3.592   5.500   1.263
 1073TIP3    H1 3176   3.565   5.491   1.171
 1073TIP3    H2 3177   3.552   5.582   1.292
 1074TIP3   OH2 3178   4.143   2.722   4.838
 1074TIP3    H1 3179   4.104   2.665   4.905
 1074TIP3    H2 3180   4.230   2.686   4.823
 1075TIP3   OH2 3181   0.288   0.558   6.112
 1075TIP3    H1 3182   0.349   0.626   6.139
 1075TIP3    H2 3183   0.310   0.483   6.167
 1076TIP3   OH2 3184   2.486   0.433   0.368
 1076TIP3    H1 3185   2.477   0.346   0.406
 1076TIP3    H2 3186   2.567   0.468   0.405
 1077TIP3   OH2 3187   7.038   1.802   0.843
 1077TIP3    H1 3188   7.075   1.808   0.931
 1077TIP3    H2 3189   7.094   1.738   0.798
 1078TIP3   OH2 3190   4.442   0.597   4.471
 1078TIP3    H1 3191   4.521   0.568   4.518
 1078TIP3    H2 3192   4.422   0.683   4.510
 1079TIP3   OH2 3193   6.533   3.670   3.383
 1079TIP3    H1 3194   6.554   3.595   3.439
 1079TIP3    H2 3195   6.438   3.668   3.376
 1080TIP3   OH2 3196   3.935   1.280   2.638
 1080TIP3    H1 3197   3.974   1.342   2.576
 1080TIP3    H2 3198   3.997   1.277   2.711
 1081TIP3   OH2 3199   6.762   7.813   2.603
 1081TIP3    H1 3200   6.781   7.824   2.510
 1081TIP3    H2 3201   6.742   7.719   2.612
 1082TIP3   OH2 3202   4.210   3.062   6.360
 1082TIP3    H1 3203   4.144   3.120   6.397
 1082TIP3    H2 3204   4.162   3.011   6.294
 1083TIP3   OH2 3205   7.440   5.621   2.678
 1083TIP3    H1 3206   7.508   5.617   2.612
 1083TIP3    H2 3207   7.465   5.695   2.734
 1084TIP3   OH2 3208   1.153   1.385   2.031
 1084TIP3    H1 3209   1.203   1.360   2.109
 1084TIP3    H2 3210   1.062   1.371   2.056
 1085TIP3   OH2 3211   1.467   2.743   4.123
 1085TIP3    H1 3212   1.471   2.648   4.123
 1085TIP3    H2 3213   1.486   2.768   4.032
 1086TIP3   OH2 3214   5.276   5.255   4.798
 1086TIP3    H1 3215   5.298   5.335   4.846
 1086TIP3    H2 3216   5.181   5.248   4.807
 1087TIP3   OH2 3217   0.390   6.190   4.605
 1087TIP3    H1 3218   0.415   6.137   4.530
 1087TIP3    H2 3219   0.382   6.278   4.570
 1088TIP3   OH2 3220   3.464   3.060   3.302
 1088TIP3    H1 3221   3.522   3.023   3.367
 1088TIP3    H2 3222   3.377   3.055   3.342
 1089TIP3   OH2 3223   2.199   2.125   0.329
 1089TIP3    H1 3224   2.228   2.121   0.238
 1089TIP3    H2 3225   2.182   2.034   0.353
 1090TIP3   OH2 3226   6.560   6.119   3.333
 1090TIP3    H1 3227   6.497   6.063   3.287
 1090TIP3    H2 3228   6.635   6.122   3.274
 1091TIP3   OH2 3229   8.286   7.742   2.644
 1091TIP3    H1 3230   8.220   7.683   2.608
 1091TIP3    H2 3231   8.364   7.727   2.591
 1092TIP3   OH2 3232   6.336   2.455   4.155
 1092TIP3    H1 3233   6.400   2.458   4.226
 1092TIP3    H2 3234   6.294   2.540   4.157
 1093TIP3   OH2 3235   6.518   4.944   5.179
 1093TIP3    H1 3236   6.443   5.000   5.158
 1093TIP3    H2 3237   6.564   4.934   5.096
 1094TIP3   OH2 3238   5.377   6.756   3.629
 1094TIP3    H1 3239   5.339   6.831   3.583
 1094TIP3    H2 3240   5.339   6.679   3.587
 1095TIP3   OH2 3241   0.206   5.975   0.933
 1095TIP3    H1 3242   0.239   5.985   0.843
 1095TIP3    H2 3243   0.224   5.884   0.955
 1096TIP3   OH2 3244   3.398   5.709   3.049
 1096TIP3    H1 3245   3.357   5.670   2.972
 1096TIP3    H2 3246   3.436   5.791   3.016
 1097TIP3   OH2 3247   2.095   6.627   3.032
 1097TIP3    H1 3248   2.126   6.632   2.942
 1097TIP3    H2 3249   2.080   6.718   3.058
 1098TIP3   OH2 3250   7.943   2.064   3.000
 1098TIP3    H1 3251   7.923   2.134   3.061
 1098TIP3    H2 3252   7.924   2.100   2.914
 1099TIP3   OH2 3253   0.822   1.566   1.902
 1099TIP3    H1 3254   0.824   1.644   1.957
 1099TIP3    H2 3255   0.804   1.599   1.814
 1100TIP3   OH2 3256   3.742   2.453   0.085
 1100TIP3    H1 3257   3.780   2.534   0.119
 1100TIP3    H2 3258   3.765   2.453  -0.008
 1101TIP3   OH2 3259   3.469   5.256   3.715
 1101TIP3    H1 3260   3.386   5.295   3.687
 1101TIP3    H2 3261   3.530   5.330   3.720
 1102TIP3   OH2 3262   1.473   0.937   4.771
 1102TIP3    H1 3263   1.399   0.987   4.735
 1102TIP3    H2 3264   1.504   0.884   4.697
 1103TIP3   OH2 3265   6.286   2.211   2.497
 1103TIP3    H1 3266   6.357   2.207   2.433
 1103TIP3    H2 3267   6.316   2.157   2.570
 1104TIP3   OH2 3268   4.454   5.312   2.695
 1104TIP3    H1 3269   4.419   5.234   2.737
 1104TIP3    H2 3270   4.383   5.376   2.701
 1105TIP3   OH2 3271   7.417   1.764   4.059
 1105TIP3    H1 3272   7.378   1.849   4.040
 1105TIP3    H2 3273   7.387   1.743   4.147
 1106TIP3   OH2 3274   7.533   4.345   5.458
 1106TIP3    H1 3275   7.618   4.374   5.490
 1106TIP3    H2 3276   7.551   4.263   5.413
 1107TIP3   OH2 3277   3.522   3.421   5.763
 1107TIP3    H1 3278   3.483   3.373   5.836
 1107TIP3    H2 3279   3.448   3.456   5.715
 1108TIP3   OH2 3280   4.954   5.866   0.462
 1108TIP3    H1 3281   4.937   5.889   0.553
 1108TIP3    H2 3282   4.963   5.949   0.416
 1109TIP3   OH2 3283   7.393   0.216   0.680
 1109TIP3    H1 3284   7.352   0.235   0.764
 1109TIP3    H2 3285   7.464   0.156   0.700
 1110TIP3   OH2 3286   2.799   5.997   5.790
 1110TIP3    H1 3287   2.817   6.033   5.877
 1110TIP3    H2 3288   2.735   5.927   5.805
 1111TIP3   OH2 3289   7.368   5.956   1.900
 1111TIP3    H1 3290   7.349   5.889   1.834
 1111TIP3    H2 3291   7.289   6.009   1.904
 1112TIP3   OH2 3292   6.722   7.028   6.387
 1112TIP3    H1 3293   6.799   7.036   6.331
 1112TIP3    H2 3294   6.705   7.117   6.417
 1113TIP3   OH2 3295   6.993   7.644   6.391
 1113TIP3    H1 3296   6.911   7.686   6.367
 1113TIP3    H2 3297   7.058   7.715   6.389
 1114TIP3   OH2 3298   7.376   2.296   3.642
 1114TIP3    H1 3299   7.353   2.221   3.698
 1114TIP3    H2 3300   7.295   2.348   3.638
 1115TIP3   OH2 3301   3.158   1.968   0.403
 1115TIP3    H1 3302   3.075   2.004   0.372
 1115TIP3    H2 3303   3.160   1.987   0.497
 1116TIP3   OH2 3304   0.218   3.314   1.560
 1116TIP3    H1 3305   0.165   3.369   1.502
 1116TIP3    H2 3306   0.286   3.278   1.503
 1117TIP3   OH2 3307   4.364   1.325   0.813
 1117TIP3    H1 3308   4.349   1.363   0.726
 1117TIP3    H2 3309   4.331   1.390   0.874
 1118TIP3   OH2 3310   6.186   1.962   5.468
 1118TIP3    H1 3311   6.205   1.868   5.471
 1118TIP3    H2 3312   6.149   1.976   5.381
 1119TIP3   OH2 3313   6.047   2.357   2.522
 1119TIP3    H1 3314   6.124   2.305   2.500
 1119TIP3    H2 3315   6.019   2.323   2.607
 1120TIP3   OH2 3316   4.396   3.125   5.494
 1120TIP3    H1 3317   4.460   3.161   5.556
 1120TIP3    H2 3318   4.425   3.157   5.408
 1121TIP3   OH2 3319   5.788   6.521   6.198
 1121TIP3    H1 3320   5.810   6.458   6.129
 1121TIP3    H2 3321   5.696   6.542   6.182
 1122TIP3   OH2 3322   1.199   5.915   3.373
 1122TIP3    H1 3323   1.139   5.891   3.302
 1122TIP3    H2 3324   1.212   5.835   3.422
 1123TIP3   OH2 3325   6.889   1.895   3.747
 1123TIP3    H1 3326   6.893   1.895   3.843
 1123TIP3    H2 3327   6.913   1.805   3.722
 1124TIP3   OH2 3328   2.118   3.327   3.175
 1124TIP3    H1 3329   2.109   3.245   3.127
 1124TIP3    H2 3330   2.210   3.351   3.165
 1125TIP3   OH2 3331   3.490   5.722   0.806
 1125TIP3    H1 3332   3.492   5.795   0.869
 1125TIP3    H2 3333   3.442   5.757   0.731
 1126TIP3   OH2 3334   2.182   3.357   2.861
 1126TIP3    H1 3335   2.104   3.405   2.889
 1126TIP3    H2 3336   2.237   3.423   2.819
 1127TIP3   OH2 3337   7.228   7.623   1.775
 1127TIP3    H1 3338   7.180   7.675   1.840
 1127TIP3    H2 3339   7.179   7.540   1.770
 1128TIP3   OH2 3340   1.169   6.491   0.409
 1128TIP3    H1 3341   1.157   6.510   0.316
 1128TIP3    H2 3342   1.227   6.560   0.441
 1129TIP3   OH2 3343   5.616   0.976   3.604
 1129TIP3    H1 3344   5.624   0.889   3.565
 1129TIP3    H2 3345   5.699   1.019   3.581
 1130TIP3   OH2 3346   4.321   1.865   0.364
 1130TIP3    H1 3347   4.287   1.781   0.333
 1130TIP3    H2 3348   4.335   1.916   0.285
 1131TIP3   OH2 3349   3.354   1.460   0.601
 1131TIP3    H1 3350   3.333   1.549   0.573
 1131TIP3    H2 3351   3.349   1.463   0.697
 1132TIP3   OH2 3352   2.010   1.756   6.702
 1132TIP3    H1 3353   1.974   1.681   6.748
 1132TIP3    H2 3354   2.032   1.818   6.772
 1133TIP3   OH2 3355   7.123   0.499   2.851
 1133TIP3    H1 3356   7.086   0.415   2.823
 1133TIP3    H2 3357   7.183   0.524   2.781
 1134TIP3   OH2 3358   6.669   2.369   3.687
 1134TIP3    H1 3359   6.682   2.293   3.631
 1134TIP3    H2 3360   6.589   2.411   3.655
 1135TIP3   OH2 3361   7.535   1.482   6.260
 1135TIP3    H1 3362   7.552   1.538   6.185
 1135TIP3    H2 3363   7.564   1.532   6.336
 1136TIP3   OH2 3364   1.337   4.808   6.774
 1136TIP3    H1 3365   1.282   4.752   6.718
 1136TIP3    H2 3366   1.285   4.886   6.788
 1137TIP3   OH2 3367   4.087   1.622   4.878
 1137TIP3    H1 3368   4.014   1.651   4.932
 1137TIP3    H2 3369   4.162   1.674   4.908
 1138TIP3   OH2 3370   7.353   0.133   5.545
 1138TIP3    H1 3371   7.438   0.088   5.539
 1138TIP3    H2 3372   7.327   0.146   5.454
 1139TIP3   OH2 3373   3.424   5.216   5.177
 1139TIP3    H1 3374   3.405   5.151   5.245
 1139TIP3    H2 3375   3.445   5.296   5.225
 1140TIP3   OH2 3376   6.719   2.434   5.128
 1140TIP3    H1 3377   6.713   2.509   5.188
 1140TIP3    H2 3378   6.719   2.473   5.041
 1141TIP3   OH2 3379   4.902   6.549   2.624
 1141TIP3    H1 3380   4.839   6.510   2.685
 1141TIP3    H2 3381   4.982   6.497   2.636
 1142TIP3   OH2 3382   7.848   6.679   3.689
 1142TIP3    H1 3383   7.873   6.735   3.616
 1142TIP3    H2 3384   7.885   6.593   3.667
 1143TIP3   OH2 3385   3.338   7.751   1.355
 1143TIP3    H1 3386   3.418   7.791   1.322
 1143TIP3    H2 3387   3.356   7.734   1.448
 1144TIP3   OH2 3388   0.067   4.075   2.183
 1144TIP3    H1 3389   0.146   4.122   2.156
 1144TIP3    H2 3390   0.099   4.002   2.237
 1145TIP3   OH2 3391   2.857   0.333   1.682
 1145TIP3    H1 3392   2.806   0.285   1.616
 1145TIP3    H2 3393   2.945   0.295   1.676
 1146TIP3   OH2 3394   1.188   3.405   1.178
 1146TIP3    H1 3395   1.213   3.321   1.218
 1146TIP3    H2 3396   1.224   3.471   1.236
 1147TIP3   OH2 3397   4.658   0.904   3.610
 1147TIP3    H1 3398   4.658   0.958   3.690
 1147TIP3    H2 3399   4.614   0.823   3.636
 1148TIP3   OH2 3400   2.558   0.557   1.652
 1148TIP3    H1 3401   2.515   0.630   1.698
 1148TIP3    H2 3402   2.578   0.494   1.722
 1149TIP3   OH2 3403   3.537   2.781   4.619
 1149TIP3    H1 3404   3.625   2.810   4.642
 1149TIP3    H2 3405   3.531   2.797   4.525
 1150TIP3   OH2 3406   1.346   7.526   1.859
 1150TIP3    H1 3407   1.412   7.588   1.828
 1150TIP3    H2 3408   1.268   7.581   1.874
 1151TIP3   OH2 3409   0.371   0.901   2.519
 1151TIP3    H1 3410   0.335   0.982   2.484
 1151TIP3    H2 3411   0.389   0.847   2.442
 1152TIP3   OH2 3412   2.931   6.230   2.518
 1152TIP3    H1 3413   2.969   6.190   2.440
 1152TIP3    H2 3414   3.002   6.283   2.554
 1153TIP3   OH2 3415   1.120   6.076   2.988
 1153TIP3    H1 3416   1.076   6.087   2.904
 1153TIP3    H2 3417   1.198   6.131   2.981
 1154TIP3   OH2 3418   8.221   5.448   3.620
 1154TIP3    H1 3419   8.190   5.383   3.556
 1154TIP3    H2 3420   8.143   5.472   3.669
 1155TIP3   OH2 3421   2.943   2.376   5.127
 1155TIP3    H1 3422   3.005   2.446   5.148
 1155TIP3    H2 3423   2.912   2.345   5.212
 1156TIP3   OH2 3424   7.644   2.609   0.357
 1156TIP3    H1 3425   7.587   2.607   0.434
 1156TIP3    H2 3426   7.592   2.652   0.289
 1157TIP3   OH2 3427   6.699   2.095   3.665
 1157TIP3    H1 3428   6.780   2.053   3.694
 1157TIP3    H2 3429   6.635   2.074   3.732
 1158TIP3   OH2 3430   2.660   0.066   3.351
 1158TIP3    H1 3431   2.603  -0.008   3.332
 1158TIP3    H2 3432   2.691   0.049   3.440
 1159TIP3   OH2 3433   0.024   5.153   0.379
 1159TIP3    H1 3434   0.072   5.136   0.298
 1159TIP3    H2 3435   0.053   5.240   0.406
 1160TIP3   OH2 3436   5.527   2.639   3.472
 1160TIP3    H1 3437   5.523   2.657   3.378
 1160TIP3    H2 3438   5.456   2.690   3.510
 1161TIP3   OH2 3439   1.200   1.354   2.766
 1161TIP3    H1 3440   1.151   1.391   2.693
 1161TIP3    H2 3441   1.152   1.382   2.844
 1162TIP3   OH2 3442   3.430   0.625   6.675
 1162TIP3    H1 3443   3.338   0.600   6.665
 1162TIP3    H2 3444   3.436   0.710   6.633
 1163TIP3   OH2 3445   8.246   2.790   6.364
 1163TIP3    H1 3446   8.228   2.877   6.400
 1163TIP3    H2 3447   8.319   2.757   6.416
 1164TIP3   OH2 3448   5.144   6.436   2.330
 1164TIP3    H1 3449   5.173   6.370   2.267
 1164TIP3    H2 3450   5.052   6.452   2.309
 1165TIP3   OH2 3451   3.574   2.273   4.027
 1165TIP3    H1 3452   3.534   2.269   3.940
 1165TIP3    H2 3453   3.521   2.214   4.080
 1166TIP3   OH2 3454   3.396   6.241   1.970
 1166TIP3    H1 3455   3.438   6.169   2.016
 1166TIP3    H2 3456   3.407   6.316   2.028
 1167TIP3   OH2 3457   4.182   2.553   2.754
 1167TIP3    H1 3458   4.184   2.604   2.835
 1167TIP3    H2 3459   4.266   2.507   2.753
 1168TIP3   OH2 3460   2.785   0.725   2.506
 1168TIP3    H1 3461   2.776   0.784   2.431
 1168TIP3    H2 3462   2.877   0.732   2.531
 1169TIP3   OH2 3463   7.374   6.805   5.596
 1169TIP3    H1 3464   7.456   6.851   5.615
 1169TIP3    H2 3465   7.396   6.741   5.530
 1170TIP3   OH2 3466   7.169   0.834   6.533
 1170TIP3    H1 3467   7.095   0.861   6.478
 1170TIP3    H2 3468   7.148   0.744   6.559
 1171TIP3   OH2 3469   6.007   7.421   3.816
 1171TIP3    H1 3470   5.925   7.466   3.795
 1171TIP3    H2 3471   6.060   7.431   3.737
 1172TIP3   OH2 3472   2.177   6.766   0.208
 1172TIP3    H1 3473   2.236   6.713   0.260
 1172TIP3    H2 3474   2.134   6.704   0.149
 1173TIP3   OH2 3475   1.207   2.488   2.017
 1173TIP3    H1 3476   1.181   2.515   2.105
 1173TIP3    H2 3477   1.136   2.518   1.961
 1174TIP3   OH2 3478   6.635   5.508   3.004
 1174TIP3    H1 3479   6.613   5.600   3.018
 1174TIP3    H2 3480   6.573   5.479   2.936
 1175TIP3   OH2 3481   1.979   2.116   2.506
 1175TIP3    H1 3482   2.057   2.155   2.546
 1175TIP3    H2 3483   2.010   2.035   2.466
 1176TIP3   OH2 3484   7.261   0.171   5.293
 1176TIP3    H1 3485   7.181   0.210   5.258
 1176TIP3    H2 3486   7.332   0.222   5.255
 1177TIP3   OH2 3487   2.450   2.210   0.748
 1177TIP3    H1 3488   2.499   2.269   0.690
 1177TIP3    H2 3489   2.388   2.267   0.794
 1178TIP3   OH2 3490   7.021   4.180   6.074
 1178TIP3    H1 3491   6.987   4.092   6.058
 1178TIP3    H2 3492   6.993   4.200   6.164
 1179TIP3   OH2 3493   7.268   4.468   1.687
 1179TIP3    H1 3494   7.222   4.417   1.753
 1179TIP3    H2 3495   7.221   4.552   1.684
 1180TIP3   OH2 3496   3.802   2.029   5.258
 1180TIP3    H1 3497   3.844   1.973   5.193
 1180TIP3    H2 3498   3.822   1.987   5.342
 1181TIP3   OH2 3499   6.637   6.443   5.728
 1181TIP3    H1 3500   6.687   6.374   5.770
 1181TIP3    H2 3501   6.643   6.518   5.788
 1182TIP3   OH2 3502   5.287   0.010   3.314
 1182TIP3    H1 3503   5.216  -0.026   3.367
 1182TIP3    H2 3504   5.269   0.104   3.310
 1183TIP3   OH2 3505   0.907   3.308   0.681
 1183TIP3    H1 3506   0.929   3.400   0.698
 1183TIP3    H2 3507   0.990   3.262   0.690
 1184TIP3   OH2 3508   2.289   0.775   5.281
 1184TIP3    H1 3509   2.226   0.728   5.336
 1184TIP3    H2 3510   2.374   0.755   5.320
 1185TIP3   OH2 3511   0.474   2.739   2.198
 1185TIP3    H1 3512   0.448   2.829   2.180
 1185TIP3    H2 3513   0.557   2.728   2.152
 1186TIP3   OH2 3514   5.519   0.072   3.843
 1186TIP3    H1 3515   5.572   0.101   3.918
 1186TIP3    H2 3516   5.447   0.023   3.881
 1187TIP3   OH2 3517   2.680   2.366   2.602
 1187TIP3    H1 3518   2.755   2.315   2.571
 1187TIP3    H2 3519   2.618   2.363   2.529
 1188TIP3   OH2 3520   2.195   3.083   2.737
 1188TIP3    H1 3521   2.228   3.158   2.786
 1188TIP3    H2 3522   2.193   3.112   2.646
 1189TIP3   OH2 3523   7.977   4.797   0.391
 1189TIP3    H1 3524   8.058   4.746   0.393
 1189TIP3    H2 3525   8.006   4.887   0.375
 1190TIP3   OH2 3526   0.447   2.654   5.603
 1190TIP3    H1 3527   0.365   2.637   5.649
 1190TIP3    H2 3528   0.436   2.613   5.517
 1191TIP3   OH2 3529   1.529   1.051   0.892
 1191TIP3    H1 3530   1.447   1.094   0.867
 1191TIP3    H2 3531   1.587   1.123   0.919
 1192TIP3   OH2 3532   2.924   4.624   1.549
 1192TIP3    H1 3533   2.970   4.596   1.628
 1192TIP3    H2 3534   2.886   4.543   1.514
 1193TIP3   OH2 3535   7.630   4.194   4.717
 1193TIP3    H1 3536   7.673   4.110   4.735
 1193TIP3    H2 3537   7.578   4.178   4.638
 1194TIP3   OH2 3538   5.838   6.772   0.137
 1194TIP3    H1 3539   5.757   6.722   0.147
 1194TIP3    H2 3540   5.841   6.828   0.215
 1195TIP3   OH2 3541   5.639   7.728   3.997
 1195TIP3    H1 3542   5.605   7.670   3.929
 1195TIP3    H2 3543   5.715   7.682   4.032
 1196TIP3   OH2 3544   4.045   0.878   0.192
 1196TIP3    H1 3545   3.966   0.930   0.184
 1196TIP3    H2 3546   4.028   0.820   0.267
 1197TIP3   OH2 3547   3.530   6.686   3.396
 1197TIP3    H1 3548   3.611   6.642   3.370
 1197TIP3    H2 3549   3.485   6.705   3.314
 1198TIP3   OH2 3550   2.031   2.810   3.705
 1198TIP3    H1 3551   2.070   2.736   3.658
 1198TIP3    H2 3552   2.050   2.886   3.651
 1199TIP3   OH2 3553   1.227   7.071   1.882
 1199TIP3    H1 3554   1.301   7.011   1.886
 1199TIP3    H2 3555   1.152   7.018   1.910
 1200TIP3   OH2 3556   0.714   4.257   6.406
 1200TIP3    H1 3557   0.712   4.233   6.498
 1200TIP3    H2 3558   0.784   4.205   6.368
 1201TIP3   OH2 3559   7.586   5.469   1.221
 1201TIP3    H1 3560   7.567   5.553   1.264
 1201TIP3    H2 3561   7.552   5.480   1.132
 1202TIP3   OH2 3562   3.198   3.210   5.498
 1202TIP3    H1 3563   3.176   3.168   5.581
 1202TIP3    H2 3564   3.249   3.145   5.451
 1203TIP3   OH2 3565   0.530   4.427   4.546
 1203TIP3    H1 3566   0.547   4.383   4.629
 1203TIP3    H2 3567   0.446   4.472   4.560
 1204TIP3   OH2 3568   3.474   4.619   0.048
 1204TIP3    H1 3569   3.469   4.694  -0.011
 1204TIP3    H2 3570   3.490   4.544  -0.009
 1205TIP3   OH2 3571   4.074   3.249   5.008
 1205TIP3    H1 3572   4.107   3.325   5.056
 1205TIP3    H2 3573   4.117   3.255   4.923
 1206TIP3   OH2 3574   4.573   1.666   3.414
 1206TIP3    H1 3575   4.493   1.629   3.452
 1206TIP3    H2 3576   4.641   1.650   3.480
 1207TIP3   OH2 3577   2.552   7.441   0.716
 1207TIP3    H1 3578   2.529   7.361   0.670
 1207TIP3    H2 3579   2.611   7.488   0.656
 1208TIP3   OH2 3580   3.157   6.614   0.326
 1208TIP3    H1 3581   3.252   6.617   0.315
 1208TIP3    H2 3582   3.143   6.628   0.420
 1209TIP3   OH2 3583   1.246   4.736   0.361
 1209TIP3    H1 3584   1.293   4.668   0.410
 1209TIP3    H2 3585   1.176   4.764   0.420
 1210TIP3   OH2 3586   5.032   3.860   0.376
 1210TIP3    H1 3587   5.037   3.914   0.297
 1210TIP3    H2 3588   5.061   3.918   0.446
 1211TIP3   OH2 3589   6.067   4.835   1.207
 1211TIP3    H1 3590   6.042   4.761   1.151
 1211TIP3    H2 3591   6.018   4.822   1.287
 1212TIP3   OH2 3592   6.535   6.183   2.534
 1212TIP3    H1 3593   6.552   6.166   2.627
 1212TIP3    H2 3594   6.533   6.278   2.527
 1213TIP3   OH2 3595   7.898   2.326   6.748
 1213TIP3    H1 3596   7.987   2.352   6.723
 1213TIP3    H2 3597   7.868   2.272   6.676
 1214TIP3   OH2 3598   4.044   4.093   0.384
 1214TIP3    H1 3599   3.967   4.096   0.327
 1214TIP3    H2 3600   4.040   4.007   0.424
 1215TIP3   OH2 3601   1.475   0.361   0.079
 1215TIP3    H1 3602   1.496   0.316  -0.003
 1215TIP3    H2 3603   1.474   0.454   0.056
 1216TIP3   OH2 3604   5.508   6.364   3.689
 1216TIP3    H1 3605   5.471   6.354   3.777
 1216TIP3    H2 3606   5.442   6.326   3.631
 1217TIP3   OH2 3607   4.059   3.043   1.722
 1217TIP3    H1 3608   4.117   2.966   1.725
 1217TIP3    H2 3609   4.088   3.091   1.644
 1218TIP3   OH2 3610   6.895   0.705   2.533
 1218TIP3    H1 3611   6.850   0.622   2.548
 1218TIP3    H2 3612   6.984   0.690   2.565
 1219TIP3   OH2 3613   0.658   6.343   4.902
 1219TIP3    H1 3614   0.627   6.255   4.879
 1219TIP3    H2 3615   0.581   6.399   4.890
 1220TIP3   OH2 3616   0.045   2.607   2.841
 1220TIP3    H1 3617   0.137   2.602   2.812
 1220TIP3    H2 3618   0.035   2.532   2.899
 1221TIP3   OH2 3619   2.488   4.641   1.701
 1221TIP3    H1 3620   2.531   4.585   1.766
 1221TIP3    H2 3621   2.396   4.644   1.729
 1222TIP3   OH2 3622   7.357   0.082   0.426
 1222TIP3    H1 3623   7.396   0.149   0.482
 1222TIP3    H2 3624   7.316   0.021   0.487
 1223TIP3   OH2 3625   7.208   5.482   1.493
 1223TIP3    H1 3626   7.182   5.556   1.548
 1223TIP3    H2 3627   7.152   5.490   1.415
 1224TIP3   OH2 3628   3.338   6.624   1.213
 1224TIP3    H1 3629   3.296   6.647   1.296
 1224TIP3    H2 3630   3.266   6.594   1.157
 1225TIP3   OH2 3631   1.566   7.671   1.825
 1225TIP3    H1 3632   1.553   7.650   1.917
 1225TIP3    H2 3633   1.526   7.758   1.814
 1226TIP3   OH2 3634   0.673   3.025   1.825
 1226TIP3    H1 3635   0.650   3.048   1.734
 1226TIP3    H2 3636   0.760   2.987   1.819
 1227TIP3   OH2 3637   2.700   3.659   3.136
 1227TIP3    H1 3638   2.659   3.590   3.189
 1227TIP3    H2 3639   2.627   3.704   3.094
 1228TIP3   OH2 3640   5.409   6.796   0.061
 1228TIP3    H1 3641   5.341   6.794  -0.005
 1228TIP3    H2 3642   5.462   6.872   0.039
 1229TIP3   OH2 3643   8.073   0.822   3.655
 1229TIP3    H1 3644   8.013   0.788   3.722
 1229TIP3    H2 3645   8.045   0.912   3.641
 1230TIP3   OH2 3646   5.999   7.467   4.734
 1230TIP3    H1 3647   6.041   7.530   4.676
 1230TIP3    H2 3648   6.062   7.454   4.805
 1231TIP3   OH2 3649   0.691   7.127   3.857
 1231TIP3    H1 3650   0.766   7.160   3.906
 1231TIP3    H2 3651   0.617   7.137   3.916
 1232TIP3   OH2 3652   0.316   0.185   6.486
 1232TIP3    H1 3653   0.381   0.179   6.557
 1232TIP3    H2 3654   0.246   0.238   6.523
 1233TIP3   OH2 3655   5.118   3.054   5.983
 1233TIP3    H1 3656   5.097   3.138   5.942
 1233TIP3    H2 3657   5.040   3.000   5.967
 1234TIP3   OH2 3658   8.101   1.607   4.262
 1234TIP3    H1 3659   8.098   1.702   4.254
 1234TIP3    H2 3660   8.014   1.578   4.235
 1235TIP3   OH2 3661   7.318   7.238   0.881
 1235TIP3    H1 3662   7.412   7.255   0.886
 1235TIP3    H2 3663   7.287   7.291   0.808
 1236TIP3   OH2 3664   0.197   6.252   5.394
 1236TIP3    H1 3665   0.191   6.176   5.451
 1236TIP3    H2 3666   0.214   6.325   5.453
 1237TIP3   OH2 3667   5.135   7.571   1.111
 1237TIP3    H1 3668   5.124   7.542   1.020
 1237TIP3    H2 3669   5.175   7.497   1.156
 1238TIP3   OH2 3670   6.888   2.211   5.108
 1238TIP3    H1 3671   6.832   2.288   5.104
 1238TIP3    H2 3672   6.883   2.182   5.199
 1239TIP3   OH2 3673   0.649   3.042   6.539
 1239TIP3    H1 3674   0.576   3.086   6.494
 1239TIP3    H2 3675   0.671   2.969   6.481
 1240TIP3   OH2 3676   5.911   4.846   2.720
 1240TIP3    H1 3677   5.926   4.840   2.625
 1240TIP3    H2 3678   5.983   4.798   2.759
 1241TIP3   OH2 3679   7.642   0.251   0.035
 1241TIP3    H1 3680   7.597   0.166   0.040
 1241TIP3    H2 3681   7.602   0.304   0.103
 1242TIP3   OH2 3682   4.595   1.741   2.436
 1242TIP3    H1 3683   4.575   1.754   2.343
 1242TIP3    H2 3684   4.655   1.666   2.437
 1243TIP3   OH2 3685   3.083   0.556   1.460
 1243TIP3    H1 3686   3.035   0.498   1.401
 1243TIP3    H2 3687   3.172   0.520   1.463
 1244TIP3   OH2 3688   7.275   3.696   0.355
 1244TIP3    H1 3689   7.263   3.644   0.276
 1244TIP3    H2 3690   7.186   3.710   0.388
 1245TIP3   OH2 3691   3.114   1.127   5.615
 1245TIP3    H1 3692   3.210   1.119   5.618
 1245TIP3    H2 3693   3.085   1.095   5.701
 1246TIP3   OH2 3694   2.335   6.399   4.871
 1246TIP3    H1 3695   2.384   6.454   4.810
 1246TIP3    H2 3696   2.285   6.340   4.815
 1247TIP3   OH2 3697   7.305   0.935   3.558
 1247TIP3    H1 3698   7.263   0.952   3.474
 1247TIP3    H2 3699   7.366   0.864   3.540
 1248TIP3   OH2 3700   8.137   3.834   3.912
 1248TIP3    H1 3701   8.210   3.836   3.973
 1248TIP3    H2 3702   8.168   3.882   3.835
 1249TIP3   OH2 3703   5.133   1.472   3.778
 1249TIP3    H1 3704   5.124   1.558   3.818
 1249TIP3    H2 3705   5.105   1.411   3.847
 1250TIP3   OH2 3706   7.821   2.416   3.507
 1250TIP3    H1 3707   7.776   2.340   3.544
 1250TIP3    H2 3708   7.754   2.484   3.502
 1251TIP3   OH2 3709   6.342   4.137   5.474
 1251TIP3    H1 3710   6.332   4.045   5.449
 1251TIP3    H2 3711   6.274   4.152   5.540
 1252TIP3   OH2 3712   3.874   3.455   6.464
 1252TIP3    H1 3713   3.876   3.550   6.458
 1252TIP3    H2 3714   3.791   3.429   6.425
 1253TIP3   OH2 3715   0.040   3.815   2.751
 1253TIP3    H1 3716   0.038   3.734   2.699
 1253TIP3    H2 3717   0.090   3.876   2.697
 1254TIP3   OH2 3718   2.921   7.513   1.031
 1254TIP3    H1 3719   2.965   7.473   1.106
 1254TIP3    H2 3720   2.918   7.607   1.052
 1255TIP3   OH2 3721   3.964   2.558   6.107
 1255TIP3    H1 3722   3.906   2.523   6.175
 1255TIP3    H2 3723   4.032   2.604   6.156
 1256TIP3   OH2 3724   1.976   0.886   4.499
 1256TIP3    H1 3725   2.051   0.837   4.533
 1256TIP3    H2 3726   1.922   0.903   4.576
 1257TIP3   OH2 3727   1.520   7.479   1.038
 1257TIP3    H1 3728   1.507   7.490   1.132
 1257TIP3    H2 3729   1.575   7.553   1.012
 1258TIP3   OH2 3730   6.193   5.440   4.398
 1258TIP3    H1 3731   6.123   5.484   4.350
 1258TIP3    H2 3732   6.253   5.409   4.330
 1259TIP3   OH2 3733   2.089   7.703   4.715
 1259TIP3    H1 3734   2.175   7.667   4.734
 1259TIP3    H2 3735   2.091   7.724   4.621
 1260TIP3   OH2 3736   6.659   7.121   5.584
 1260TIP3    H1 3737   6.639   7.179   5.511
 1260TIP3    H2 3738   6.573   7.089   5.613
 1261TIP3   OH2 3739   4.463   6.073   1.487
 1261TIP3    H1 3740   4.421   6.144   1.535
 1261TIP3    H2 3741   4.393   6.032   1.437
 1262TIP3   OH2 3742   5.015   0.928   6.613
 1262TIP3    H1 3743   5.014   0.834   6.591
 1262TIP3    H2 3744   5.036   0.971   6.530
 1263TIP3   OH2 3745   6.449   2.752   1.151
 1263TIP3    H1 3746   6.494   2.769   1.068
 1263TIP3    H2 3747   6.519   2.727   1.211
 1264TIP3   OH2 3748   2.154   3.862   0.791
 1264TIP3    H1 3749   2.206   3.803   0.736
 1264TIP3    H2 3750   2.159   3.824   0.879
 1265TIP3   OH2 3751   6.705   6.539   3.615
 1265TIP3    H1 3752   6.746   6.583   3.540
 1265TIP3    H2 3753   6.750   6.454   3.620
 1266TIP3   OH2 3754   0.447   0.717   4.596
 1266TIP3    H1 3755   0.356   0.714   4.567
 1266TIP3    H2 3756   0.442   0.729   4.691
 1267TIP3   OH2 3757   6.002   1.451   5.798
 1267TIP3    H1 3758   5.996   1.398   5.718
 1267TIP3    H2 3759   6.078   1.507   5.785
 1268TIP3   OH2 3760   2.112   2.048   1.915
 1268TIP3    H1 3761   2.122   1.979   1.981
 1268TIP3    H2 3762   2.023   2.080   1.926
 1269TIP3   OH2 3763   1.940   7.745   1.655
 1269TIP3    H1 3764   2.017   7.688   1.659
 1269TIP3    H2 3765   1.924   7.771   1.746
 1270TIP3   OH2 3766   3.314   0.945   1.226
 1270TIP3    H1 3767   3.294   1.001   1.151
 1270TIP3    H2 3768   3.254   0.870   1.216
 1271TIP3   OH2 3769   1.104   0.946   1.526
 1271TIP3    H1 3770   1.151   0.942   1.443
 1271TIP3    H2 3771   1.043   0.873   1.522
 1272TIP3   OH2 3772   1.362   6.205   0.207
 1272TIP3    H1 3773   1.271   6.187   0.230
 1272TIP3    H2 3774   1.410   6.191   0.289
 1273TIP3   OH2 3775   2.679   2.324   1.543
 1273TIP3    H1 3776   2.742   2.394   1.526
 1273TIP3    H2 3777   2.594   2.366   1.529
 1274TIP3   OH2 3778   1.507   3.127   2.686
 1274TIP3    H1 3779   1.573   3.062   2.707
 1274TIP3    H2 3780   1.431   3.102   2.738
 1275TIP3   OH2 3781   6.546   2.813   5.482
 1275TIP3    H1 3782   6.479   2.872   5.516
 1275TIP3    H2 3783   6.539   2.822   5.387
 1276TIP3   OH2 3784   3.298   4.650   4.504
 1276TIP3    H1 3785   3.319   4.629   4.596
 1276TIP3    H2 3786   3.203   4.645   4.499
 1277TIP3   OH2 3787   2.875   0.575   6.611
 1277TIP3    H1 3788   2.830   0.570   6.527
 1277TIP3    H2 3789   2.845   0.657   6.650
 1278TIP3   OH2 3790   0.342   5.850   2.546
 1278TIP3    H1 3791   0.387   5.774   2.508
 1278TIP3    H2 3792   0.411   5.915   2.558
 1279TIP3   OH2 3793   5.358   0.474   0.298
 1279TIP3    H1 3794   5.287   0.425   0.256
 1279TIP3    H2 3795   5.320   0.561   0.313
 1280TIP3   OH2 3796   1.734   6.617   5.792
 1280TIP3    H1 3797   1.705   6.526   5.785
 1280TIP3    H2 3798   1.809   6.624   5.733
 1281TIP3   OH2 3799   2.350   0.651   4.446
 1281TIP3    H1 3800   2.316   0.711   4.379
 1281TIP3    H2 3801   2.395   0.707   4.508
 1282TIP3   OH2 3802   4.875   2.249   2.584
 1282TIP3    H1 3803   4.934   2.217   2.652
 1282TIP3    H2 3804   4.787   2.234   2.620
 1283TIP3   OH2 3805   1.142   4.687   2.294
 1283TIP3    H1 3806   1.223   4.720   2.256
 1283TIP3    H2 3807   1.088   4.765   2.307
 1284TIP3   OH2 3808   0.662   5.703   2.725
 1284TIP3    H1 3809   0.678   5.796   2.708
 1284TIP3    H2 3810   0.749   5.665   2.736
 1285TIP3   OH2 3811   0.585   5.880   5.291
 1285TIP3    H1 3812   0.541   5.814   5.344
 1285TIP3    H2 3813   0.514   5.924   5.243
 1286TIP3   OH2 3814   6.507   1.232   5.703
 1286TIP3    H1 3815   6.470   1.149   5.674
 1286TIP3    H2 3816   6.599   1.229   5.674
 1287TIP3   OH2 3817   0.003   1.513   4.666
 1287TIP3    H1 3818  -0.004   1.459   4.587
 1287TIP3    H2 3819   0.038   1.596   4.636
 1288TIP3   OH2 3820   6.498   2.523   6.036
 1288TIP3    H1 3821   6.425   2.532   6.096
 1288TIP3    H2 3822   6.530   2.434   6.049
 1289TIP3   OH2 3823   3.716   3.985   6.582
 1289TIP3    H1 3824   3.730   3.963   6.675
 1289TIP3    H2 3825   3.754   4.072   6.573
 1290TIP3   OH2 3826   6.573   1.065   5.298
 1290TIP3    H1 3827   6.483   1.082   5.273
 1290TIP3    H2 3828   6.626   1.110   5.233
 1291TIP3   OH2 3829   5.144   4.569   2.788
 1291TIP3    H1 3830   5.224   4.527   2.821
 1291TIP3    H2 3831   5.080   4.498   2.788
 1292TIP3   OH2 3832   7.946   1.019   6.573
 1292TIP3    H1 3833   7.872   1.078   6.565
 1292TIP3    H2 3834   7.915   0.936   6.535
 1293TIP3   OH2 3835   2.689   6.197   4.423
 1293TIP3    H1 3836   2.624   6.262   4.396
 1293TIP3    H2 3837   2.730   6.169   4.341
 1294TIP3   OH2 3838   4.261   2.060   4.459
 1294TIP3    H1 3839   4.249   2.116   4.536
 1294TIP3    H2 3840   4.192   2.086   4.398
 1295TIP3   OH2 3841   7.473   6.750   6.359
 1295TIP3    H1 3842   7.479   6.812   6.432
 1295TIP3    H2 3843   7.523   6.674   6.389
 1296TIP3   OH2 3844   7.390   2.293   5.048
 1296TIP3    H1 3845   7.297   2.289   5.025
 1296TIP3    H2 3846   7.395   2.250   5.133
 1297TIP3   OH2 3847   7.949   2.898   2.334
 1297TIP3    H1 3848   7.927   2.808   2.308
 1297TIP3    H2 3849   7.995   2.888   2.417
 1298TIP3   OH2 3850   0.876   7.047   0.490
 1298TIP3    H1 3851   0.834   7.097   0.561
 1298TIP3    H2 3852   0.884   6.958   0.524
 1299TIP3   OH2 3853   6.769   3.278   6.276
 1299TIP3    H1 3854   6.704   3.218   6.238
 1299TIP3    H2 3855   6.719   3.329   6.340
 1300TIP3   OH2 3856   8.047   4.724   1.569
 1300TIP3    H1 3857   8.098   4.643   1.573
 1300TIP3    H2 3858   7.956   4.696   1.566
 1301TIP3   OH2 3859   4.097   0.988   2.768
 1301TIP3    H1 3860   4.013   0.975   2.813
 1301TIP3    H2 3861   4.160   1.002   2.839
 1302TIP3   OH2 3862   1.436   3.002   2.364
 1302TIP3    H1 3863   1.467   2.912   2.354
 1302TIP3    H2 3864   1.508   3.056   2.332
 1303TIP3   OH2 3865   0.751   5.248   5.738
 1303TIP3    H1 3866   0.702   5.166   5.744
 1303TIP3    H2 3867   0.686   5.313   5.711
 1304TIP3   OH2 3868   3.311   6.909   2.135
 1304TIP3    H1 3869   3.237   6.907   2.074
 1304TIP3    H2 3870   3.350   6.995   2.123
 1305TIP3   OH2 3871   4.992   4.853   1.798
 1305TIP3    H1 3872   4.975   4.891   1.712
 1305TIP3    H2 3873   5.049   4.778   1.780
 1306TIP3   OH2 3874   6.585   0.556   1.496
 1306TIP3    H1 3875   6.525   0.622   1.532
 1306TIP3    H2 3876   6.671   0.599   1.498
 1307TIP3   OH2 3877   7.778   6.052   0.633
 1307TIP3    H1 3878   7.870   6.078   0.640
 1307TIP3    H2 3879   7.739   6.077   0.717
 1308TIP3   OH2 3880   4.240   3.237   4.769
 1308TIP3    H1 3881   4.279   3.158   4.733
 1308TIP3    H2 3882   4.210   3.286   4.693
 1309TIP3   OH2 3883   4.067   1.584   3.547
 1309TIP3    H1 3884   4.049   1.674   3.519
 1309TIP3    H2 3885   4.019   1.529   3.485
 1310TIP3   OH2 3886   3.291   0.593   2.965
 1310TIP3    H1 3887   3.309   0.583   2.872
 1310TIP3    H2 3888   3.370   0.635   3.000
 1311TIP3   OH2 3889   7.016   0.315   1.992
 1311TIP3    H1 3890   7.047   0.387   1.937
 1311TIP3    H2 3891   7.006   0.242   1.931
 1312TIP3   OH2 3892   3.763   5.509   6.458
 1312TIP3    H1 3893   3.674   5.538   6.478
 1312TIP3    H2 3894   3.753   5.453   6.380
 1313TIP3   OH2 3895   7.673   0.103   1.417
 1313TIP3    H1 3896   7.685   0.066   1.505
 1313TIP3    H2 3897   7.748   0.071   1.367
 1314TIP3   OH2 3898   0.440   6.595   2.636
 1314TIP3    H1 3899   0.349   6.580   2.613
 1314TIP3    H2 3900   0.452   6.550   2.719
 1315TIP3   OH2 3901   4.414   3.695   1.636
 1315TIP3    H1 3902   4.446   3.747   1.710
 1315TIP3    H2 3903   4.318   3.697   1.645
 1316TIP3   OH2 3904   3.336   5.031   5.375
 1316TIP3    H1 3905   3.405   4.970   5.400
 1316TIP3    H2 3906   3.258   5.000   5.421
 1317TIP3   OH2 3907   0.906   5.656   1.615
 1317TIP3    H1 3908   0.964   5.650   1.539
 1317TIP3    H2 3909   0.965   5.663   1.690
 1318TIP3   OH2 3910   0.077   2.017   4.462
 1318TIP3    H1 3911   0.007   2.049   4.405
 1318TIP3    H2 3912   0.127   1.956   4.408
 1319TIP3   OH2 3913   3.115   0.161   6.364
 1319TIP3    H1 3914   3.023   0.189   6.358
 1319TIP3    H2 3915   3.141   0.147   6.273
 1320TIP3   OH2 3916   7.680   1.792   4.449
 1320TIP3    H1 3917   7.672   1.698   4.433
 1320TIP3    H2 3918   7.701   1.799   4.542
 1321TIP3   OH2 3919   1.518   5.055   6.623
 1321TIP3    H1 3920   1.478   4.983   6.671
 1321TIP3    H2 3921   1.572   5.013   6.556
 1322TIP3   OH2 3922   6.305   1.167   2.281
 1322TIP3    H1 3923   6.371   1.156   2.213
 1322TIP3    H2 3924   6.320   1.094   2.341
 1323TIP3   OH2 3925   7.656   2.601   6.758
 1323TIP3    H1 3926   7.662   2.560   6.671
 1323TIP3    H2 3927   7.607   2.538   6.810
 1324TIP3   OH2 3928   2.369   6.238   1.810
 1324TIP3    H1 3929   2.409   6.325   1.800
 1324TIP3    H2 3930   2.437   6.177   1.782
 1325TIP3   OH2 3931   7.252   5.310   3.403
 1325TIP3    H1 3932   7.303   5.232   3.380
 1325TIP3    H2 3933   7.311   5.383   3.389
 1326TIP3   OH2 3934   2.724   1.392   6.077
 1326TIP3    H1 3935   2.730   1.353   5.990
 1326TIP3    H2 3936   2.643   1.443   6.075
 1327TIP3   OH2 3937   4.023   0.698   6.296
 1327TIP3    H1 3938   4.053   0.787   6.277
 1327TIP3    H2 3939   3.963   0.708   6.370
 1328TIP3   OH2 3940   4.676   6.402   5.248
 1328TIP3    H1 3941   4.595   6.394   5.299
 1328TIP3    H2 3942   4.744   6.372   5.309
 1329TIP3   OH2 3943   3.568   0.184   1.430
 1329TIP3    H1 3944   3.661   0.188   1.404
 1329TIP3    H2 3945   3.553   0.267   1.476
 1330TIP3   OH2 3946   1.868   6.885   2.028
 1330TIP3    H1 3947   1.963   6.878   2.015
 1330TIP3    H2 3948   1.858   6.954   2.093
 1331TIP3   OH2 3949   0.374   7.716   5.814
 1331TIP3    H1 3950   0.404   7.761   5.893
 1331TIP3    H2 3951   0.324   7.783   5.767
 1332TIP3   OH2 3952   0.627   2.559   1.367
 1332TIP3    H1 3953   0.610   2.474   1.327
 1332TIP3    H2 3954   0.714   2.552   1.405
 1333TIP3   OH2 3955   2.615   7.441   4.948
 1333TIP3    H1 3956   2.565   7.379   5.000
 1333TIP3    H2 3957   2.613   7.406   4.859
 1334TIP3   OH2 3958   2.721   5.800   2.692
 1334TIP3    H1 3959   2.775   5.841   2.625
 1334TIP3    H2 3960   2.742   5.847   2.773
 1335TIP3   OH2 3961   8.230   3.061   6.463
 1335TIP3    H1 3962   8.174   3.020   6.529
 1335TIP3    H2 3963   8.202   3.153   6.461
 1336TIP3   OH2 3964   4.631   0.965   5.838
 1336TIP3    H1 3965   4.657   0.915   5.762
 1336TIP3    H2 3966   4.669   1.052   5.824
 1337TIP3   OH2 3967   1.201   5.534   3.909
 1337TIP3    H1 3968   1.284   5.501   3.875
 1337TIP3    H2 3969   1.161   5.580   3.836
 1338TIP3   OH2 3970   6.992   4.994   4.731
 1338TIP3    H1 3971   7.041   4.919   4.765
 1338TIP3    H2 3972   6.940   5.025   4.806
 1339TIP3   OH2 3973   7.683   5.947   0.174
 1339TIP3    H1 3974   7.760   6.004   0.168
 1339TIP3    H2 3975   7.676   5.926   0.268
 1340TIP3   OH2 3976   5.711   7.314   1.818
 1340TIP3    H1 3977   5.719   7.223   1.847
 1340TIP3    H2 3978   5.673   7.308   1.730
 1341TIP3   OH2 3979   2.974   2.605   6.651
 1341TIP3    H1 3980   3.014   2.683   6.613
 1341TIP3    H2 3981   2.880   2.620   6.642
 1342TIP3   OH2 3982   1.428   1.029   2.374
 1342TIP3    H1 3983   1.486   1.074   2.435
 1342TIP3    H2 3984   1.483   1.014   2.296
 1343TIP3   OH2 3985   4.974   7.560   1.786
 1343TIP3    H1 3986   4.908   7.510   1.834
 1343TIP3    H2 3987   5.034   7.591   1.853
 1344TIP3   OH2 3988   3.917   5.905   5.663
 1344TIP3    H1 3989   3.917   5.946   5.749
 1344TIP3    H2 3990   3.839   5.850   5.663
 1345TIP3   OH2 3991   7.574   7.537   0.591
 1345TIP3    H1 3992   7.610   7.472   0.651
 1345TIP3    H2 3993   7.484   7.550   0.621
 1346TIP3   OH2 3994   3.025   7.494   2.149
 1346TIP3    H1 3995   3.022   7.567   2.211
 1346TIP3    H2 3996   3.102   7.512   2.095
 1347TIP3   OH2 3997   6.153   4.765   4.629
 1347TIP3    H1 3998   6.102   4.746   4.708
 1347TIP3    H2 3999   6.214   4.834   4.656
 1348TIP3   OH2 4000   1.469   3.684   5.461
 1348TIP3    H1 4001   1.561   3.660   5.461
 1348TIP3    H2 4002   1.453   3.720   5.374
 1349TIP3   OH2 4003   2.829   6.458   6.708
 1349TIP3    H1 4004   2.886   6.393   6.750
 1349TIP3    H2 4005   2.885   6.500   6.643
 1350TIP3   OH2 4006   6.399   3.306   3.847
 1350TIP3    H1 4007   6.482   3.280   3.886
 1350TIP3    H2 4008   6.400   3.266   3.760
 1351TIP3   OH2 4009   5.686   0.006   6.266
 1351TIP3    H1 4010   5.716   0.069   6.201
 1351TIP3    H2 4011   5.760  -0.003   6.326
 1352TIP3   OH2 4012   6.234   0.842   3.617
 1352TIP3    H1 4013   6.319   0.865   3.653
 1352TIP3    H2 4014   6.248   0.833   3.523
 1353TIP3   OH2 4015   0.088   7.223   4.345
 1353TIP3    H1 4016   0.016   7.161   4.355
 1353TIP3    H2 4017   0.085   7.276   4.426
 1354TIP3   OH2 4018   7.210   0.795   3.058
 1354TIP3    H1 4019   7.242   0.868   3.005
 1354TIP3    H2 4020   7.127   0.770   3.018
 1355TIP3   OH2 4021   5.290   5.229   1.512
 1355TIP3    H1 4022   5.345   5.292   1.559
 1355TIP3    H2 4023   5.202   5.268   1.515
 1356TIP3   OH2 4024   2.712   5.945   2.078
 1356TIP3    H1 4025   2.638   5.935   2.138
 1356TIP3    H2 4026   2.700   6.032   2.039
 1357TIP3   OH2 4027   0.940   7.510   4.969
 1357TIP3    H1 4028   0.889   7.590   4.959
 1357TIP3    H2 4029   0.933   7.488   5.062
 1358TIP3   OH2 4030   6.387   0.800   4.687
 1358TIP3    H1 4031   6.408   0.798   4.594
 1358TIP3    H2 4032   6.424   0.719   4.722
 1359TIP3   OH2 4033   5.970   1.575   4.479
 1359TIP3    H1 4034   6.023   1.643   4.436
 1359TIP3    H2 4035   5.930   1.619   4.553
 1360TIP3   OH2 4036   3.768   2.926   5.378
 1360TIP3    H1 4037   3.785   3.015   5.409
 1360TIP3    H2 4038   3.833   2.872   5.423
 1361TIP3   OH2 4039   2.086   7.255   0.529
 1361TIP3    H1 4040   2.077   7.350   0.543
 1361TIP3    H2 4041   2.009   7.217   0.572
 1362TIP3   OH2 4042   7.838   5.384   1.043
 1362TIP3    H1 4043   7.772   5.315   1.056
 1362TIP3    H2 4044   7.908   5.341   0.993
 1363TIP3   OH2 4045   3.084   2.988   6.678
 1363TIP3    H1 4046   3.008   2.979   6.621
 1363TIP3    H2 4047   3.063   2.935   6.755
 1364TIP3   OH2 4048   0.676   2.465   6.154
 1364TIP3    H1 4049   0.637   2.421   6.230
 1364TIP3    H2 4050   0.755   2.414   6.135
 1365TIP3   OH2 4051   0.485   3.269   0.284
 1365TIP3    H1 4052   0.451   3.219   0.358
 1365TIP3    H2 4053   0.428   3.246   0.211
 1366TIP3   OH2 4054   4.854   7.257   3.842
 1366TIP3    H1 4055   4.790   7.309   3.792
 1366TIP3    H2 4056   4.909   7.322   3.884
 1367TIP3   OH2 4057   2.516   1.253   2.657
 1367TIP3    H1 4058   2.435   1.213   2.626
 1367TIP3    H2 4059   2.491   1.343   2.679
 1368TIP3   OH2 4060   7.324   0.857   4.327
 1368TIP3    H1 4061   7.232   0.884   4.321
 1368TIP3    H2 4062   7.368   0.906   4.258
 1369TIP3   OH2 4063   1.118   5.005   4.034
 1369TIP3    H1 4064   1.212   4.999   4.051
 1369TIP3    H2 4065   1.089   5.081   4.086
 1370TIP3   OH2 4066   6.371   6.985   2.490
 1370TIP3    H1 4067   6.354   7.079   2.495
 1370TIP3    H2 4068   6.466   6.977   2.486
 1371TIP3   OH2 4069   7.148   5.920   5.946
 1371TIP3    H1 4070   7.222   5.943   6.004
 1371TIP3    H2 4071   7.077   5.899   6.006
 1372TIP3   OH2 4072   2.465   5.663   3.794
 1372TIP3    H1 4073   2.390   5.716   3.822
 1372TIP3    H2 4074   2.455   5.654   3.699
 1373TIP3   OH2 4075   6.868   3.770   6.605
 1373TIP3    H1 4076   6.890   3.844   6.549
 1373TIP3    H2 4077   6.783   3.740   6.571
 1374TIP3   OH2 4078   5.630   5.490   5.298
 1374TIP3    H1 4079   5.576   5.445   5.233
 1374TIP3    H2 4080   5.577   5.487   5.378
 1375TIP3   OH2 4081   5.155   4.738   5.573
 1375TIP3    H1 4082   5.124   4.659   5.528
 1375TIP3    H2 4083   5.091   4.805   5.550
 1376TIP3   OH2 4084   4.937   2.077   4.171
 1376TIP3    H1 4085   4.858   2.051   4.219
 1376TIP3    H2 4086   5.000   2.008   4.190
 1377TIP3   OH2 4087   5.588   5.621   1.050
 1377TIP3    H1 4088   5.501   5.581   1.039
 1377TIP3    H2 4089   5.586   5.659   1.137
 1378TIP3   OH2 4090   6.285   3.742   4.008
 1378TIP3    H1 4091   6.207   3.717   4.058
 1378TIP3    H2 4092   6.278   3.837   3.999
 1379TIP3   OH2 4093   7.867   1.225   2.006
 1379TIP3    H1 4094   7.850   1.200   1.915
 1379TIP3    H2 4095   7.780   1.240   2.044
 1380TIP3   OH2 4096   4.835   3.817   5.249
 1380TIP3    H1 4097   4.781   3.755   5.199
 1380TIP3    H2 4098   4.829   3.787   5.339
 1381TIP3   OH2 4099   3.196   3.830   3.245
 1381TIP3    H1 4100   3.106   3.802   3.227
 1381TIP3    H2 4101   3.221   3.779   3.323
 1382TIP3   OH2 4102   5.209   0.959   5.714
 1382TIP3    H1 4103   5.277   0.993   5.771
 1382TIP3    H2 4104   5.188   1.032   5.655
 1383TIP3   OH2 4105   7.283   6.565   1.672
 1383TIP3    H1 4106   7.335   6.548   1.751
 1383TIP3    H2 4107   7.195   6.533   1.694
 1384TIP3   OH2 4108   4.649   6.356   3.163
 1384TIP3    H1 4109   4.606   6.384   3.244
 1384TIP3    H2 4110   4.624   6.422   3.098
 1385TIP3   OH2 4111   2.407   2.196   0.151
 1385TIP3    H1 4112   2.475   2.178   0.086
 1385TIP3    H2 4113   2.437   2.275   0.196
 1386TIP3   OH2 4114   2.812   5.068   3.811
 1386TIP3    H1 4115   2.818   4.990   3.865
 1386TIP3    H2 4116   2.853   5.043   3.728
 1387TIP3   OH2 4117   5.246   0.293   5.170
 1387TIP3    H1 4118   5.240   0.365   5.234
 1387TIP3    H2 4119   5.263   0.215   5.223
 1388TIP3   OH2 4120   0.547   3.053   4.986
 1388TIP3    H1 4121   0.561   3.067   5.080
 1388TIP3    H2 4122   0.535   3.141   4.951
 1389TIP3   OH2 4123   6.005   0.977   3.226
 1389TIP3    H1 4124   5.973   0.968   3.136
 1389TIP3    H2 4125   5.990   1.069   3.248
 1390TIP3   OH2 4126   1.883   4.135   2.973
 1390TIP3    H1 4127   1.961   4.181   3.003
 1390TIP3    H2 4128   1.809   4.188   3.005
 1391TIP3   OH2 4129   3.266   6.215   6.608
 1391TIP3    H1 4130   3.247   6.203   6.701
 1391TIP3    H2 4131   3.190   6.262   6.574
 1392TIP3   OH2 4132   5.707   3.768   0.702
 1392TIP3    H1 4133   5.662   3.809   0.628
 1392TIP3    H2 4134   5.745   3.688   0.665
 1393TIP3   OH2 4135   6.195   7.414   3.187
 1393TIP3    H1 4136   6.153   7.396   3.103
 1393TIP3    H2 4137   6.288   7.421   3.165
 1394TIP3   OH2 4138   5.035   4.085   5.074
 1394TIP3    H1 4139   4.947   4.072   5.038
 1394TIP3    H2 4140   5.087   4.114   5.000
 1395TIP3   OH2 4141   4.867   7.232   0.177
 1395TIP3    H1 4142   4.835   7.322   0.183
 1395TIP3    H2 4143   4.949   7.233   0.228
 1396TIP3   OH2 4144   1.412   4.176   5.022
 1396TIP3    H1 4145   1.355   4.247   5.051
 1396TIP3    H2 4146   1.499   4.199   5.055
 1397TIP3   OH2 4147   7.689   5.616   1.758
 1397TIP3    H1 4148   7.678   5.708   1.734
 1397TIP3    H2 4149   7.724   5.575   1.679
 1398TIP3   OH2 4150   3.358   1.110   6.546
 1398TIP3    H1 4151   3.288   1.089   6.608
 1398TIP3    H2 4152   3.415   1.170   6.595
 1399TIP3   OH2 4153   6.942   7.776   4.046
 1399TIP3    H1 4154   6.853   7.743   4.051
 1399TIP3    H2 4155   6.987   7.735   4.120
 1400TIP3   OH2 4156   3.759   5.312   0.752
 1400TIP3    H1 4157   3.730   5.393   0.712
 1400TIP3    H2 4158   3.678   5.266   0.775
 1401TIP3   OH2 4159   1.599   1.597   5.634
 1401TIP3    H1 4160   1.631   1.671   5.685
 1401TIP3    H2 4161   1.578   1.634   5.549
 1402TIP3   OH2 4162   0.266   3.885   3.180
 1402TIP3    H1 4163   0.193   3.825   3.165
 1402TIP3    H2 4164   0.339   3.847   3.133
 1403TIP3   OH2 4165   3.693   1.585   3.908
 1403TIP3    H1 4166   3.697   1.561   4.000
 1403TIP3    H2 4167   3.724   1.675   3.905
 1404TIP3   OH2 4168   2.725   5.367   5.331
 1404TIP3    H1 4169   2.680   5.344   5.250
 1404TIP3    H2 4170   2.747   5.459   5.321
 1405TIP3   OH2 4171   7.783   6.065   6.300
 1405TIP3    H1 4172   7.803   6.100   6.213
 1405TIP3    H2 4173   7.689   6.046   6.297
 1406TIP3   OH2 4174   4.346   7.365   1.597
 1406TIP3    H1 4175   4.314   7.417   1.524
 1406TIP3    H2 4176   4.275   7.303   1.616
 1407TIP3   OH2 4177   5.132   2.986   1.483
 1407TIP3    H1 4178   5.111   2.920   1.549
 1407TIP3    H2 4179   5.053   3.040   1.476
 1408TIP3   OH2 4180   7.516   7.012   5.311
 1408TIP3    H1 4181   7.466   7.085   5.348
 1408TIP3    H2 4182   7.552   7.047   5.229
 1409TIP3   OH2 4183   6.954   1.849   2.089
 1409TIP3    H1 4184   7.002   1.775   2.051
 1409TIP3    H2 4185   6.982   1.851   2.181
 1410TIP3   OH2 4186   5.058   2.136   1.902
 1410TIP3    H1 4187   5.144   2.172   1.879
 1410TIP3    H2 4188   5.031   2.186   1.980
 1411TIP3   OH2 4189   5.014   6.615   5.147
 1411TIP3    H1 4190   4.933   6.651   5.184
 1411TIP3    H2 4191   4.986   6.543   5.091
 1412TIP3   OH2 4192   5.464   2.149   1.194
 1412TIP3    H1 4193   5.465   2.100   1.112
 1412TIP3    H2 4194   5.462   2.082   1.262
 1413TIP3   OH2 4195   7.027   3.357   2.704
 1413TIP3    H1 4196   7.106   3.411   2.702
 1413TIP3    H2 4197   6.955   3.420   2.694
 1414TIP3   OH2 4198   3.770   6.802   6.183
 1414TIP3    H1 4199   3.808   6.887   6.206
 1414TIP3    H2 4200   3.814   6.740   6.241
 1415TIP3   OH2 4201   0.667   2.505   2.288
 1415TIP3    H1 4202   0.615   2.515   2.367
 1415TIP3    H2 4203   0.754   2.478   2.319
 1416TIP3   OH2 4204   0.979   0.704   0.620
 1416TIP3    H1 4205   1.046   0.770   0.604
 1416TIP3    H2 4206   0.920   0.744   0.684
 1417TIP3   OH2 4207   6.185   3.325   2.966
 1417TIP3    H1 4208   6.194   3.230   2.960
 1417TIP3    H2 4209   6.275   3.357   2.975
 1418TIP3   OH2 4210   2.780   4.709   5.847
 1418TIP3    H1 4211   2.705   4.764   5.824
 1418TIP3    H2 4212   2.742   4.636   5.897
 1419TIP3   OH2 4213   3.589   4.723   2.514
 1419TIP3    H1 4214   3.528   4.660   2.551
 1419TIP3    H2 4215   3.570   4.805   2.560
 1420TIP3   OH2 4216   3.883   6.009   5.251
 1420TIP3    H1 4217   3.899   6.042   5.163
 1420TIP3    H2 4218   3.952   5.944   5.265
 1421TIP3   OH2 4219   6.306   6.323   4.047
 1421TIP3    H1 4220   6.400   6.337   4.033
 1421TIP3    H2 4221   6.293   6.343   4.140
 1422TIP3   OH2 4222   3.743   7.782   5.538
 1422TIP3    H1 4223   3.778   7.750   5.455
 1422TIP3    H2 4224   3.748   7.877   5.532
 1423TIP3   OH2 4225   3.731   3.448   4.621
 1423TIP3    H1 4226   3.770   3.365   4.651
 1423TIP3    H2 4227   3.637   3.434   4.627
 1424TIP3   OH2 4228   7.887   0.827   4.324
 1424TIP3    H1 4229   7.864   0.876   4.404
 1424TIP3    H2 4230   7.908   0.895   4.260
 1425TIP3   OH2 4231   7.011   2.781   1.373
 1425TIP3    H1 4232   6.995   2.761   1.466
 1425TIP3    H2 4233   6.929   2.821   1.343
 1426TIP3   OH2 4234   0.191   6.880   2.856
 1426TIP3    H1 4235   0.160   6.837   2.777
 1426TIP3    H2 4236   0.189   6.812   2.923
 1427TIP3   OH2 4237   7.576   2.134   1.314
 1427TIP3    H1 4238   7.634   2.067   1.277
 1427TIP3    H2 4239   7.517   2.158   1.243
 1428TIP3   OH2 4240   2.062   3.508   1.729
 1428TIP3    H1 4241   2.058   3.550   1.815
 1428TIP3    H2 4242   1.973   3.512   1.697
 1429TIP3   OH2 4243   2.180   4.129   0.866
 1429TIP3    H1 4244   2.139   4.052   0.826
 1429TIP3    H2 4245   2.241   4.092   0.931
 1430TIP3   OH2 4246   1.200   5.055   6.373
 1430TIP3    H1 4247   1.143   5.128   6.398
 1430TIP3    H2 4248   1.184   5.044   6.279
 1431TIP3   OH2 4249   0.066   4.163   3.227
 1431TIP3    H1 4250   0.113   4.191   3.305
 1431TIP3    H2 4251   0.122   4.190   3.154
 1432TIP3   OH2 4252   7.973   2.885   1.881
 1432TIP3    H1 4253   7.951   2.938   1.958
 1432TIP3    H2 4254   8.064   2.906   1.862
 1433TIP3   OH2 4255   4.980   3.824   6.543
 1433TIP3    H1 4256   4.994   3.872   6.625
 1433TIP3    H2 4257   4.886   3.832   6.526
 1434TIP3   OH2 4258   2.338   7.735   2.999
 1434TIP3    H1 4259   2.356   7.816   3.048
 1434TIP3    H2 4260   2.252   7.750   2.960
 1435TIP3   OH2 4261   8.129   0.596   6.419
 1435TIP3    H1 4262   8.101   0.549   6.341
 1435TIP3    H2 4263   8.106   0.688   6.402
 1436TIP3   OH2 4264   5.363   5.006   6.601
 1436TIP3    H1 4265   5.347   4.953   6.679
 1436TIP3    H2 4266   5.283   4.997   6.550
 1437TIP3   OH2 4267   4.029   0.576   0.234
 1437TIP3    H1 4268   4.052   0.590   0.142
 1437TIP3    H2 4269   4.113   0.563   0.278
 1438TIP3   OH2 4270   3.930   4.376   3.781
 1438TIP3    H1 4271   3.961   4.404   3.695
 1438TIP3    H2 4272   3.871   4.446   3.809
 1439TIP3   OH2 4273   6.359   3.142   4.936
 1439TIP3    H1 4274   6.336   3.218   4.883
 1439TIP3    H2 4275   6.369   3.071   4.873
 1440TIP3   OH2 4276   1.692   1.044   1.830
 1440TIP3    H1 4277   1.614   1.050   1.885
 1440TIP3    H2 4278   1.725   0.956   1.844
 1441TIP3   OH2 4279   2.766   4.910   5.085
 1441TIP3    H1 4280   2.792   4.833   5.034
 1441TIP3    H2 4281   2.836   4.920   5.150
 1442TIP3   OH2 4282   5.554   6.208   5.588
 1442TIP3    H1 4283   5.618   6.152   5.544
 1442TIP3    H2 4284   5.489   6.148   5.624
 1443TIP3   OH2 4285   6.226   0.271   5.947
 1443TIP3    H1 4286   6.312   0.233   5.961
 1443TIP3    H2 4287   6.170   0.197   5.925
 1444TIP3   OH2 4288   7.515   7.388   4.073
 1444TIP3    H1 4289   7.538   7.480   4.062
 1444TIP3    H2 4290   7.597   7.341   4.060
 1445TIP3   OH2 4291   0.616   0.840   2.634
 1445TIP3    H1 4292   0.608   0.745   2.624
 1445TIP3    H2 4293   0.525   0.872   2.628
 1446TIP3   OH2 4294   6.171   0.912   1.345
 1446TIP3    H1 4295   6.155   0.912   1.251
 1446TIP3    H2 4296   6.117   0.984   1.379
 1447TIP3   OH2 4297   2.105   2.620   6.748
 1447TIP3    H1 4298   2.168   2.689   6.769
 1447TIP3    H2 4299   2.153   2.539   6.765
 1448TIP3   OH2 4300   2.356   6.716   6.170
 1448TIP3    H1 4301   2.418   6.710   6.098
 1448TIP3    H2 4302   2.408   6.748   6.244
 1449TIP3   OH2 4303   3.486   0.189   2.934
 1449TIP3    H1 4304   3.401   0.200   2.977
 1449TIP3    H2 4305   3.550   0.212   3.001
 1450TIP3   OH2 4306   5.327   3.396   5.482
 1450TIP3    H1 4307   5.300   3.340   5.409
 1450TIP3    H2 4308   5.281   3.479   5.467
 1451TIP3   OH2 4309   5.478   4.944   1.097
 1451TIP3    H1 4310   5.451   5.036   1.098
 1451TIP3    H2 4311   5.403   4.898   1.059
 1452TIP3   OH2 4312   2.568   5.639   1.679
 1452TIP3    H1 4313   2.475   5.633   1.700
 1452TIP3    H2 4314   2.581   5.730   1.653
 1453TIP3   OH2 4315   2.582   7.395   2.279
 1453TIP3    H1 4316   2.521   7.355   2.217
 1453TIP3    H2 4317   2.629   7.460   2.228
 1454TIP3   OH2 4318   2.416   3.980   3.406
 1454TIP3    H1 4319   2.362   4.055   3.431
 1454TIP3    H2 4320   2.380   3.907   3.456
 1455TIP3   OH2 4321   7.751   4.979   5.824
 1455TIP3    H1 4322   7.727   4.985   5.731
 1455TIP3    H2 4323   7.822   5.042   5.834
 1456TIP3   OH2 4324   3.580   5.465   2.988
 1456TIP3    H1 4325   3.504   5.519   2.964
 1456TIP3    H2 4326   3.545   5.400   3.049
 1457TIP3   OH2 4327   3.855   1.344   4.618
 1457TIP3    H1 4328   3.873   1.438   4.612
 1457TIP3    H2 4329   3.814   1.323   4.534
 1458TIP3   OH2 4330   5.163   2.921   2.221
 1458TIP3    H1 4331   5.174   2.846   2.162
 1458TIP3    H2 4332   5.238   2.915   2.281
 1459TIP3   OH2 4333   7.551   7.781   5.515
 1459TIP3    H1 4334   7.578   7.852   5.457
 1459TIP3    H2 4335   7.480   7.819   5.568
 1460TIP3   OH2 4336   6.659   0.788   3.067
 1460TIP3    H1 4337   6.625   0.717   3.121
 1460TIP3    H2 4338   6.608   0.784   2.986
 1461TIP3   OH2 4339   2.928   3.455   0.376
 1461TIP3    H1 4340   2.967   3.376   0.339
 1461TIP3    H2 4341   2.961   3.527   0.323
 1462TIP3   OH2 4342   0.537   7.603   4.899
 1462TIP3    H1 4343   0.558   7.547   4.825
 1462TIP3    H2 4344   0.482   7.549   4.956
 1463TIP3   OH2 4345   1.328   6.668   3.177
 1463TIP3    H1 4346   1.292   6.583   3.152
 1463TIP3    H2 4347   1.311   6.676   3.271
 1464TIP3   OH2 4348   3.697   3.349   3.333
 1464TIP3    H1 4349   3.663   3.410   3.399
 1464TIP3    H2 4350   3.624   3.336   3.273
 1465TIP3   OH2 4351   3.859   2.463   3.024
 1465TIP3    H1 4352   3.796   2.536   3.023
 1465TIP3    H2 4353   3.817   2.396   3.077
 1466TIP3   OH2 4354   0.130   4.197   1.179
 1466TIP3    H1 4355   0.096   4.110   1.203
 1466TIP3    H2 4356   0.208   4.179   1.127
 1467TIP3   OH2 4357   1.955   0.756   2.660
 1467TIP3    H1 4358   1.913   0.730   2.742
 1467TIP3    H2 4359   2.048   0.739   2.674
 1468TIP3   OH2 4360   2.221   4.482   2.808
 1468TIP3    H1 4361   2.293   4.422   2.826
 1468TIP3    H2 4362   2.167   4.437   2.743
 1469TIP3   OH2 4363   3.616   1.908   3.718
 1469TIP3    H1 4364   3.682   1.913   3.787
 1469TIP3    H2 4365   3.535   1.886   3.763
 1470TIP3   OH2 4366   6.703   0.537   6.309
 1470TIP3    H1 4367   6.751   0.604   6.260
 1470TIP3    H2 4368   6.636   0.507   6.248
 1471TIP3   OH2 4369   1.529   1.512   0.584
 1471TIP3    H1 4370   1.599   1.558   0.539
 1471TIP3    H2 4371   1.556   1.420   0.582
 1472TIP3   OH2 4372   1.778   2.552   1.498
 1472TIP3    H1 4373   1.721   2.487   1.455
 1472TIP3    H2 4374   1.722   2.594   1.563
 1473TIP3   OH2 4375   6.914   4.139   0.075
 1473TIP3    H1 4376   6.910   4.080   0.150
 1473TIP3    H2 4377   6.926   4.081  -0.001
 1474TIP3   OH2 4378   7.265   3.496   5.498
 1474TIP3    H1 4379   7.337   3.434   5.514
 1474TIP3    H2 4380   7.216   3.458   5.426
 1475TIP3   OH2 4381   0.449   6.493   2.229
 1475TIP3    H1 4382   0.411   6.412   2.262
 1475TIP3    H2 4383   0.522   6.512   2.289
 1476TIP3   OH2 4384   4.322   1.060   2.596
 1476TIP3    H1 4385   4.401   1.039   2.646
 1476TIP3    H2 4386   4.250   1.027   2.649
 1477TIP3   OH2 4387   2.251   5.485   5.540
 1477TIP3    H1 4388   2.183   5.493   5.474
 1477TIP3    H2 4389   2.331   5.512   5.496
 1478TIP3   OH2 4390   6.105   2.151   2.011
 1478TIP3    H1 4391   6.158   2.108   1.944
 1478TIP3    H2 4392   6.170   2.192   2.069
 1479TIP3   OH2 4393   6.345   1.738   0.913
 1479TIP3    H1 4394   6.251   1.733   0.897
 1479TIP3    H2 4395   6.383   1.681   0.846
 1480TIP3   OH2 4396   5.837   5.992   2.525
 1480TIP3    H1 4397   5.847   5.957   2.437
 1480TIP3    H2 4398   5.859   6.084   2.517
 1481TIP3   OH2 4399   7.223   5.407   0.723
 1481TIP3    H1 4400   7.201   5.417   0.816
 1481TIP3    H2 4401   7.233   5.497   0.691
 1482TIP3   OH2 4402   5.296   0.111   2.990
 1482TIP3    H1 4403   5.291   0.189   3.045
 1482TIP3    H2 4404   5.273   0.141   2.903
 1483TIP3   OH2 4405   0.690   1.532   0.979
 1483TIP3    H1 4406   0.621   1.593   0.951
 1483TIP3    H2 4407   0.747   1.523   0.903
 1484TIP3   OH2 4408   2.453   1.375   1.606
 1484TIP3    H1 4409   2.472   1.404   1.695
 1484TIP3    H2 4410   2.534   1.333   1.578
 1485TIP3   OH2 4411   4.181   5.708   3.006
 1485TIP3    H1 4412   4.170   5.792   3.051
 1485TIP3    H2 4413   4.252   5.664   3.054
 1486TIP3   OH2 4414   1.004   2.093   3.155
 1486TIP3    H1 4415   1.042   2.009   3.183
 1486TIP3    H2 4416   1.040   2.109   3.068
 1487TIP3   OH2 4417   6.966   7.596   5.165
 1487TIP3    H1 4418   7.014   7.624   5.243
 1487TIP3    H2 4419   7.027   7.610   5.093
 1488TIP3   OH2 4420   5.741   7.526   2.564
 1488TIP3    H1 4421   5.724   7.554   2.474
 1488TIP3    H2 4422   5.784   7.601   2.605
 1489TIP3   OH2 4423   2.030   0.332   2.432
 1489TIP3    H1 4424   1.997   0.338   2.343
 1489TIP3    H2 4425   1.959   0.368   2.486
 1490TIP3   OH2 4426   2.780   4.563   0.224
 1490TIP3    H1 4427   2.798   4.504   0.150
 1490TIP3    H2 4428   2.722   4.512   0.280
 1491TIP3   OH2 4429   1.206   2.783   0.571
 1491TIP3    H1 4430   1.250   2.700   0.584
 1491TIP3    H2 4431   1.181   2.783   0.478
 1492TIP3   OH2 4432   5.457   6.285   1.678
 1492TIP3    H1 4433   5.504   6.367   1.658
 1492TIP3    H2 4434   5.381   6.286   1.619
 1493TIP3   OH2 4435   7.568   2.790   3.663
 1493TIP3    H1 4436   7.542   2.794   3.755
 1493TIP3    H2 4437   7.557   2.698   3.639
 1494TIP3   OH2 4438   8.281   7.333   3.841
 1494TIP3    H1 4439   8.340   7.287   3.901
 1494TIP3    H2 4440   8.239   7.263   3.791
 1495TIP3   OH2 4441   6.547   4.509   0.930
 1495TIP3    H1 4442   6.461   4.548   0.918
 1495TIP3    H2 4443   6.580   4.497   0.841
 1496TIP3   OH2 4444   0.395   5.984   4.348
 1496TIP3    H1 4445   0.350   5.910   4.387
 1496TIP3    H2 4446   0.469   5.945   4.301
 1497TIP3   OH2 4447   6.898   7.460   3.035
 1497TIP3    H1 4448   6.895   7.399   3.108
 1497TIP3    H2 4449   6.820   7.515   3.047
 1498TIP3   OH2 4450   6.448   7.474   3.087
 1498TIP3    H1 4451   6.490   7.421   3.019
 1498TIP3    H2 4452   6.510   7.545   3.103
 1499TIP3   OH2 4453   4.233   1.650   3.219
 1499TIP3    H1 4454   4.250   1.660   3.313
 1499TIP3    H2 4455   4.273   1.728   3.180
 1500TIP3   OH2 4456   3.815   2.805   6.643
 1500TIP3    H1 4457   3.783   2.808   6.733
 1500TIP3    H2 4458   3.894   2.752   6.647
 1501TIP3   OH2 4459   7.741   5.445   3.653
 1501TIP3    H1 4460   7.721   5.371   3.709
 1501TIP3    H2 4461   7.686   5.516   3.686
 1502TIP3   OH2 4462   4.016   5.730   6.475
 1502TIP3    H1 4463   3.953   5.770   6.416
 1502TIP3    H2 4464   4.086   5.794   6.483
 1503TIP3   OH2 4465   0.756   4.168   5.001
 1503TIP3    H1 4466   0.707   4.109   4.944
 1503TIP3    H2 4467   0.843   4.129   5.007
 1504TIP3   OH2 4468   1.646   2.799   0.499
 1504TIP3    H1 4469   1.652   2.834   0.588
 1504TIP3    H2 4470   1.671   2.872   0.442
 1505TIP3   OH2 4471   4.413   6.998   3.403
 1505TIP3    H1 4472   4.374   6.944   3.471
 1505TIP3    H2 4473   4.338   7.040   3.360
 1506TIP3   OH2 4474   7.191   1.463   3.598
 1506TIP3    H1 4475   7.128   1.407   3.645
 1506TIP3    H2 4476   7.136   1.526   3.551
 1507TIP3   OH2 4477   6.296   2.619   6.227
 1507TIP3    H1 4478   6.219   2.634   6.172
 1507TIP3    H2 4479   6.302   2.698   6.281
 1508TIP3   OH2 4480   2.228   0.900   2.297
 1508TIP3    H1 4481   2.287   0.838   2.339
 1508TIP3    H2 4482   2.234   0.979   2.350
 1509TIP3   OH2 4483   5.345   6.858   4.073
 1509TIP3    H1 4484   5.274   6.921   4.061
 1509TIP3    H2 4485   5.380   6.877   4.160
 1510TIP3   OH2 4486   0.669   1.877   3.443
 1510TIP3    H1 4487   0.754   1.867   3.400
 1510TIP3    H2 4488   0.660   1.797   3.495
 1511TIP3   OH2 4489   1.108   5.907   6.537
 1511TIP3    H1 4490   1.031   5.963   6.524
 1511TIP3    H2 4491   1.071   5.822   6.563
 1512TIP3   OH2 4492   5.116   0.259   1.749
 1512TIP3    H1 4493   5.159   0.316   1.813
 1512TIP3    H2 4494   5.136   0.170   1.778
 1513TIP3   OH2 4495   5.697   7.211   6.174
 1513TIP3    H1 4496   5.654   7.296   6.180
 1513TIP3    H2 4497   5.625   7.148   6.173
 1514TIP3   OH2 4498   0.503   4.775   3.835
 1514TIP3    H1 4499   0.521   4.720   3.759
 1514TIP3    H2 4500   0.560   4.851   3.823
 1515TIP3   OH2 4501   3.794   1.349   0.667
 1515TIP3    H1 4502   3.866   1.413   0.672
 1515TIP3    H2 4503   3.835   1.265   0.688
 1516TIP3   OH2 4504   1.153   2.040   5.464
 1516TIP3    H1 4505   1.138   2.050   5.370
 1516TIP3    H2 4506   1.157   1.945   5.478
 1517TIP3   OH2 4507   7.751   6.054   1.041
 1517TIP3    H1 4508   7.741   6.034   1.134
 1517TIP3    H2 4509   7.844   6.043   1.023
 1518TIP3   OH2 4510   1.922   2.477   6.105
 1518TIP3    H1 4511   1.848   2.527   6.140
 1518TIP3    H2 4512   1.993   2.541   6.098
 1519TIP3   OH2 4513   0.228  -0.010   3.321
 1519TIP3    H1 4514   0.320   0.006   3.342
 1519TIP3    H2 4515   0.196  -0.065   3.393
 1520TIP3   OH2 4516   8.007   1.566   6.115
 1520TIP3    H1 4517   8.008   1.470   6.116
 1520TIP3    H2 4518   8.073   1.590   6.050
 1521TIP3   OH2 4519   1.391   3.279   2.169
 1521TIP3    H1 4520   1.398   3.250   2.260
 1521TIP3    H2 4521   1.300   3.307   2.160
 1522TIP3   OH2 4522   5.468   5.873   0.644
 1522TIP3    H1 4523   5.378   5.848   0.621
 1522TIP3    H2 4524   5.516   5.870   0.561
 1523TIP3   OH2 4525   7.495   2.975   3.259
 1523TIP3    H1 4526   7.530   3.051   3.214
 1523TIP3    H2 4527   7.539   2.900   3.219
 1524TIP3   OH2 4528   1.356   4.754   3.959
 1524TIP3    H1 4529   1.374   4.672   4.005
 1524TIP3    H2 4530   1.325   4.727   3.872
 1525TIP3   OH2 4531   2.339   0.506   5.758
 1525TIP3    H1 4532   2.249   0.518   5.726
 1525TIP3    H2 4533   2.351   0.412   5.760
 1526TIP3   OH2 4534   6.903   6.213   0.850
 1526TIP3    H1 4535   6.961   6.289   0.856
 1526TIP3    H2 4536   6.962   6.138   0.850
 1527TIP3   OH2 4537   5.026   5.846   3.267
 1527TIP3    H1 4538   5.120   5.844   3.249
 1527TIP3    H2 4539   4.993   5.768   3.223
 1528TIP3   OH2 4540   7.252   1.614   1.428
 1528TIP3    H1 4541   7.274   1.575   1.512
 1528TIP3    H2 4542   7.177   1.564   1.397
 1529TIP3   OH2 4543   2.514   0.142   1.237
 1529TIP3    H1 4544   2.530   0.220   1.290
 1529TIP3    H2 4545   2.429   0.110   1.267
 1530TIP3   OH2 4546   3.341   2.878   1.345
 1530TIP3    H1 4547   3.366   2.931   1.421
 1530TIP3    H2 4548   3.377   2.926   1.270
 1531TIP3   OH2 4549   4.694   1.525   5.569
 1531TIP3    H1 4550   4.682   1.596   5.505
 1531TIP3    H2 4551   4.607   1.513   5.607
 1532TIP3   OH2 4552   4.158   4.881   4.535
 1532TIP3    H1 4553   4.105   4.898   4.456
 1532TIP3    H2 4554   4.181   4.788   4.527
 1533TIP3   OH2 4555   6.402   0.986   0.956
 1533TIP3    H1 4556   6.330   0.947   1.006
 1533TIP3    H2 4557   6.458   1.027   1.023
 1534TIP3   OH2 4558   0.286   6.451   5.573
 1534TIP3    H1 4559   0.304   6.518   5.508
 1534TIP3    H2 4560   0.297   6.495   5.657
 1535TIP3   OH2 4561   7.717   1.033   0.125
 1535TIP3    H1 4562   7.679   1.119   0.142
 1535TIP3    H2 4563   7.642   0.976   0.111
 1536TIP3   OH2 4564   2.244   1.375   0.455
 1536TIP3    H1 4565   2.170   1.411   0.504
 1536TIP3    H2 4566   2.260   1.439   0.385
 1537TIP3   OH2 4567   4.567   6.766   0.668
 1537TIP3    H1 4568   4.483   6.786   0.627
 1537TIP3    H2 4569   4.629   6.765   0.595
 1538TIP3   OH2 4570   0.745   3.964   3.123
 1538TIP3    H1 4571   0.734   3.991   3.032
 1538TIP3    H2 4572   0.724   4.043   3.174
 1539TIP3   OH2 4573   7.953   0.622   2.513
 1539TIP3    H1 4574   7.956   0.668   2.429
 1539TIP3    H2 4575   7.894   0.548   2.498
 1540TIP3   OH2 4576   1.785   2.920   2.472
 1540TIP3    H1 4577   1.733   2.863   2.529
 1540TIP3    H2 4578   1.810   2.993   2.529
 1541TIP3   OH2 4579   8.175   5.969   5.744
 1541TIP3    H1 4580   8.117   6.034   5.784
 1541TIP3    H2 4581   8.248   5.962   5.805
 1542TIP3   OH2 4582   3.046   7.059   0.179
 1542TIP3    H1 4583   3.010   6.997   0.242
 1542TIP3    H2 4584   3.072   7.004   0.104
 1543TIP3   OH2 4585   1.319   2.245   0.654
 1543TIP3    H1 4586   1.312   2.208   0.742
 1543TIP3    H2 4587   1.259   2.192   0.601
 1544TIP3   OH2 4588   7.243   1.584   6.079
 1544TIP3    H1 4589   7.177   1.601   6.012
 1544TIP3    H2 4590   7.312   1.647   6.062
 1545TIP3   OH2 4591   5.585   4.146   1.804
 1545TIP3    H1 4592   5.657   4.084   1.788
 1545TIP3    H2 4593   5.507   4.090   1.809
 1546TIP3   OH2 4594   3.749   0.965   4.697
 1546TIP3    H1 4595   3.702   0.989   4.618
 1546TIP3    H2 4596   3.683   0.923   4.753
 1547TIP3   OH2 4597   7.053   7.074   2.389
 1547TIP3    H1 4598   7.009   7.099   2.470
 1547TIP3    H2 4599   7.048   7.152   2.334
 1548TIP3   OH2 4600   2.188   0.422   3.352
 1548TIP3    H1 4601   2.215   0.331   3.360
 1548TIP3    H2 4602   2.263   0.466   3.311
 1549TIP3   OH2 4603   6.946   0.280   3.030
 1549TIP3    H1 4604   7.037   0.282   3.057
 1549TIP3    H2 4605   6.911   0.365   3.056
 1550TIP3   OH2 4606   6.262   4.482   0.888
 1550TIP3    H1 4607   6.189   4.451   0.941
 1550TIP3    H2 4608   6.252   4.578   0.887
 1551TIP3   OH2 4609   2.063   5.770   1.820
 1551TIP3    H1 4610   2.038   5.721   1.742
 1551TIP3    H2 4611   2.094   5.703   1.881
 1552TIP3   OH2 4612   4.813   1.766   2.015
 1552TIP3    H1 4613   4.846   1.721   2.093
 1552TIP3    H2 4614   4.853   1.719   1.942
 1553TIP3   OH2 4615   7.682   7.465   3.099
 1553TIP3    H1 4616   7.742   7.396   3.128
 1553TIP3    H2 4617   7.686   7.462   3.004
 1554TIP3   OH2 4618   1.153   5.905   6.065
 1554TIP3    H1 4619   1.113   5.898   5.978
 1554TIP3    H2 4620   1.102   5.972   6.109
 1555TIP3   OH2 4621   7.753   0.432   3.329
 1555TIP3    H1 4622   7.791   0.497   3.270
 1555TIP3    H2 4623   7.666   0.465   3.349
 1556TIP3   OH2 4624   6.485   2.163   1.521
 1556TIP3    H1 4625   6.400   2.119   1.519
 1556TIP3    H2 4626   6.481   2.218   1.599
 1557TIP3   OH2 4627   8.041   7.243   4.098
 1557TIP3    H1 4628   8.124   7.206   4.067
 1557TIP3    H2 4629   8.014   7.185   4.169
 1558TIP3   OH2 4630   4.503   6.505   5.629
 1558TIP3    H1 4631   4.558   6.506   5.551
 1558TIP3    H2 4632   4.535   6.430   5.680
 1559TIP3   OH2 4633   7.966   3.784   2.363
 1559TIP3    H1 4634   7.973   3.826   2.277
 1559TIP3    H2 4635   7.934   3.853   2.421
 1560TIP3   OH2 4636   8.240   4.791   3.057
 1560TIP3    H1 4637   8.320   4.829   3.023
 1560TIP3    H2 4638   8.229   4.829   3.144
 1561TIP3   OH2 4639   2.533   6.888   3.211
 1561TIP3    H1 4640   2.516   6.826   3.140
 1561TIP3    H2 4641   2.627   6.880   3.228
 1562TIP3   OH2 4642   4.138   6.435   1.124
 1562TIP3    H1 4643   4.050   6.425   1.162
 1562TIP3    H2 4644   4.189   6.364   1.164
 1563TIP3   OH2 4645   4.034   6.378   5.265
 1563TIP3    H1 4646   4.125   6.363   5.238
 1563TIP3    H2 4647   4.036   6.465   5.306
 1564TIP3   OH2 4648   1.855   0.878   5.249
 1564TIP3    H1 4649   1.811   0.963   5.257
 1564TIP3    H2 4650   1.870   0.850   5.339
 1565TIP3   OH2 4651   4.693   2.708   3.837
 1565TIP3    H1 4652   4.638   2.776   3.876
 1565TIP3    H2 4653   4.714   2.742   3.750
 1566TIP3   OH2 4654   1.141   3.972   0.705
 1566TIP3    H1 4655   1.141   4.054   0.754
 1566TIP3    H2 4656   1.084   3.913   0.755
 1567TIP3   OH2 4657   0.137   4.713   0.745
 1567TIP3    H1 4658   0.198   4.641   0.724
 1567TIP3    H2 4659   0.140   4.769   0.668
 1568TIP3   OH2 4660   7.548   0.389   5.999
 1568TIP3    H1 4661   7.581   0.476   6.020
 1568TIP3    H2 4662   7.491   0.402   5.923
 1569TIP3   OH2 4663   6.945   3.857   4.024
 1569TIP3    H1 4664   7.000   3.800   3.970
 1569TIP3    H2 4665   7.003   3.885   4.096
 1570TIP3   OH2 4666   5.168   4.561   3.208
 1570TIP3    H1 4667   5.133   4.606   3.285
 1570TIP3    H2 4668   5.095   4.509   3.176
 1571TIP3   OH2 4669   2.301   7.430   5.721
 1571TIP3    H1 4670   2.348   7.394   5.796
 1571TIP3    H2 4671   2.229   7.480   5.759
 1572TIP3   OH2 4672   6.966   6.580   0.508
 1572TIP3    H1 4673   7.056   6.557   0.532
 1572TIP3    H2 4674   6.965   6.573   0.412
 1573TIP3   OH2 4675   0.896   5.953   3.481
 1573TIP3    H1 4676   0.985   5.941   3.514
 1573TIP3    H2 4677   0.902   5.937   3.387
 1574TIP3   OH2 4678   0.015   3.640   3.566
 1574TIP3    H1 4679   0.028   3.606   3.478
 1574TIP3    H2 4680   0.104   3.648   3.601
 1575TIP3   OH2 4681   2.480   2.725   6.636
 1575TIP3    H1 4682   2.519   2.663   6.575
 1575TIP3    H2 4683   2.497   2.687   6.723
 1576TIP3   OH2 4684   6.575   3.718   1.859
 1576TIP3    H1 4685   6.618   3.643   1.898
 1576TIP3    H2 4686   6.594   3.791   1.919
 1577TIP3   OH2 4687   7.424   1.693   0.701
 1577TIP3    H1 4688   7.381   1.654   0.777
 1577TIP3    H2 4689   7.468   1.619   0.659
 1578TIP3   OH2 4690   6.859   5.892   1.994
 1578TIP3    H1 4691   6.793   5.869   2.059
 1578TIP3    H2 4692   6.854   5.822   1.929
 1579TIP3   OH2 4693   4.999   2.930   5.539
 1579TIP3    H1 4694   5.018   2.848   5.584
 1579TIP3    H2 4695   4.984   2.993   5.609
 1580TIP3   OH2 4696   6.204   6.984   4.889
 1580TIP3    H1 4697   6.249   6.970   4.972
 1580TIP3    H2 4698   6.208   7.078   4.875
 1581TIP3   OH2 4699   7.396   4.600   0.979
 1581TIP3    H1 4700   7.346   4.638   0.906
 1581TIP3    H2 4701   7.406   4.672   1.041
 1582TIP3   OH2 4702   3.217   3.426   2.873
 1582TIP3    H1 4703   3.152   3.495   2.863
 1582TIP3    H2 4704   3.167   3.345   2.864
 1583TIP3   OH2 4705   4.001   1.891   4.711
 1583TIP3    H1 4706   4.031   1.950   4.780
 1583TIP3    H2 4707   3.916   1.925   4.685
 1584TIP3   OH2 4708   4.658   2.532   1.234
 1584TIP3    H1 4709   4.726   2.485   1.282
 1584TIP3    H2 4710   4.705   2.600   1.186
 1585TIP3   OH2 4711   1.898   7.724   1.957
 1585TIP3    H1 4712   1.879   7.633   1.935
 1585TIP3    H2 4713   1.836   7.746   2.027
 1586TIP3   OH2 4714   1.856   2.214   5.390
 1586TIP3    H1 4715   1.883   2.123   5.374
 1586TIP3    H2 4716   1.863   2.256   5.304
 1587TIP3   OH2 4717   6.434   0.348   3.085
 1587TIP3    H1 4718   6.436   0.305   2.999
 1587TIP3    H2 4719   6.344   0.337   3.115
 1588TIP3   OH2 4720   3.086   2.762   3.512
 1588TIP3    H1 4721   2.995   2.735   3.499
 1588TIP3    H2 4722   3.116   2.710   3.587
 1589TIP3   OH2 4723   7.790   6.891   0.620
 1589TIP3    H1 4724   7.802   6.869   0.527
 1589TIP3    H2 4725   7.795   6.807   0.666
 1590TIP3   OH2 4726   1.221   2.682   2.484
 1590TIP3    H1 4727   1.206   2.770   2.448
 1590TIP3    H2 4728   1.262   2.698   2.569
 1591TIP3   OH2 4729   4.480   5.424   4.218
 1591TIP3    H1 4730   4.385   5.417   4.206
 1591TIP3    H2 4731   4.505   5.342   4.260
 1592TIP3   OH2 4732   5.149   4.394   2.113
 1592TIP3    H1 4733   5.150   4.384   2.017
 1592TIP3    H2 4734   5.109   4.313   2.144
 1593TIP3   OH2 4735   1.606   7.187   1.681
 1593TIP3    H1 4736   1.569   7.109   1.725
 1593TIP3    H2 4737   1.530   7.240   1.660
 1594TIP3   OH2 4738   3.294   5.753   3.316
 1594TIP3    H1 4739   3.361   5.740   3.249
 1594TIP3    H2 4740   3.338   5.736   3.399
 1595TIP3   OH2 4741   4.913   2.509   3.920
 1595TIP3    H1 4742   4.876   2.597   3.911
 1595TIP3    H2 4743   4.957   2.493   3.837
 1596TIP3   OH2 4744   1.095   3.288   3.886
 1596TIP3    H1 4745   1.035   3.327   3.950
 1596TIP3    H2 4746   1.101   3.196   3.911
 1597TIP3   OH2 4747   1.619   2.541   0.427
 1597TIP3    H1 4748   1.643   2.630   0.452
 1597TIP3    H2 4749   1.699   2.490   0.436
 1598TIP3   OH2 4750   4.877   1.106   6.168
 1598TIP3    H1 4751   4.862   1.200   6.158
 1598TIP3    H2 4752   4.957   1.090   6.118
 1599TIP3   OH2 4753   4.199   7.194   0.593
 1599TIP3    H1 4754   4.169   7.178   0.503
 1599TIP3    H2 4755   4.295   7.196   0.586
 1600TIP3   OH2 4756   2.094   3.922   2.911
 1600TIP3    H1 4757   2.001   3.928   2.929
 1600TIP3    H2 4758   2.118   4.010   2.881
 1601TIP3   OH2 4759   0.438   1.543   3.172
 1601TIP3    H1 4760   0.502   1.583   3.114
 1601TIP3    H2 4761   0.464   1.451   3.178
 1602TIP3   OH2 4762   4.696   2.321   4.014
 1602TIP3    H1 4763   4.775   2.350   3.968
 1602TIP3    H2 4764   4.722   2.314   4.105
 1603TIP3   OH2 4765   2.547   3.259   6.343
 1603TIP3    H1 4766   2.566   3.166   6.349
 1603TIP3    H2 4767   2.503   3.270   6.259
 1604TIP3   OH2 4768   0.908   3.729   3.053
 1604TIP3    H1 4769   0.860   3.810   3.071
 1604TIP3    H2 4770   0.937   3.698   3.139
 1605TIP3   OH2 4771   5.084   4.867   2.216
 1605TIP3    H1 4772   4.998   4.841   2.249
 1605TIP3    H2 4773   5.067   4.903   2.129
 1606TIP3   OH2 4774   0.886   1.679   6.155
 1606TIP3    H1 4775   0.799   1.719   6.162
 1606TIP3    H2 4776   0.902   1.674   6.061
 1607TIP3   OH2 4777   5.374   3.625   1.624
 1607TIP3    H1 4778   5.387   3.699   1.684
 1607TIP3    H2 4779   5.280   3.607   1.629
 1608TIP3   OH2 4780   0.796   1.311   6.407
 1608TIP3    H1 4781   0.850   1.366   6.351
 1608TIP3    H2 4782   0.834   1.321   6.494
 1609TIP3   OH2 4783   6.630   0.352   2.830
 1609TIP3    H1 4784   6.638   0.423   2.894
 1609TIP3    H2 4785   6.539   0.323   2.837
 1610TIP3   OH2 4786   5.832   3.725   5.256
 1610TIP3    H1 4787   5.809   3.805   5.210
 1610TIP3    H2 4788   5.753   3.671   5.252
 1611TIP3   OH2 4789   5.918   5.631   0.670
 1611TIP3    H1 4790   5.951   5.717   0.643
 1611TIP3    H2 4791   5.849   5.651   0.733
 1612TIP3   OH2 4792   0.953   7.323   4.752
 1612TIP3    H1 4793   0.947   7.400   4.697
 1612TIP3    H2 4794   1.013   7.348   4.823
 1613TIP3   OH2 4795   7.539   6.473   4.427
 1613TIP3    H1 4796   7.567   6.556   4.389
 1613TIP3    H2 4797   7.572   6.476   4.517
 1614TIP3   OH2 4798   0.172   5.792   1.522
 1614TIP3    H1 4799   0.107   5.859   1.498
 1614TIP3    H2 4800   0.188   5.745   1.440
 1615TIP3   OH2 4801   4.189   7.073   0.083
 1615TIP3    H1 4802   4.274   7.111   0.060
 1615TIP3    H2 4803   4.199   6.979   0.065
 1616TIP3   OH2 4804   2.346   4.649   6.625
 1616TIP3    H1 4805   2.324   4.741   6.637
 1616TIP3    H2 4806   2.413   4.649   6.556
 1617TIP3   OH2 4807   3.542   4.049   1.041
 1617TIP3    H1 4808   3.562   3.964   1.082
 1617TIP3    H2 4809   3.627   4.087   1.022
 1618TIP3   OH2 4810   0.807   2.029   5.127
 1618TIP3    H1 4811   0.845   2.018   5.039
 1618TIP3    H2 4812   0.725   1.980   5.124
 1619TIP3   OH2 4813   7.547   1.140   1.611
 1619TIP3    H1 4814   7.607   1.137   1.536
 1619TIP3    H2 4815   7.460   1.131   1.573
 1620TIP3   OH2 4816   0.843   2.631   3.357
 1620TIP3    H1 4817   0.755   2.605   3.330
 1620TIP3    H2 4818   0.887   2.654   3.275
 1621TIP3   OH2 4819   1.785   7.110   6.638
 1621TIP3    H1 4820   1.769   7.031   6.690
 1621TIP3    H2 4821   1.715   7.109   6.572
 1622TIP3   OH2 4822   4.338   0.536   4.971
 1622TIP3    H1 4823   4.243   0.535   4.962
 1622TIP3    H2 4824   4.357   0.473   5.041
 1623TIP3   OH2 4825   2.457   7.201   3.178
 1623TIP3    H1 4826   2.516   7.177   3.106
 1623TIP3    H2 4827   2.449   7.122   3.230
 1624TIP3   OH2 4828   6.172   1.625   5.687
 1624TIP3    H1 4829   6.167   1.651   5.595
 1624TIP3    H2 4830   6.245   1.564   5.691
 1625TIP3   OH2 4831   3.875   5.561   5.542
 1625TIP3    H1 4832   3.866   5.600   5.455
 1625TIP3    H2 4833   3.823   5.617   5.599
 1626TIP3   OH2 4834   2.603   0.888   0.614
 1626TIP3    H1 4835   2.678   0.917   0.665
 1626TIP3    H2 4836   2.628   0.801   0.582
 1627TIP3   OH2 4837   5.367   6.675   5.933
 1627TIP3    H1 4838   5.387   6.769   5.933
 1627TIP3    H2 4839   5.425   6.639   6.001
 1628TIP3   OH2 4840   2.667   0.291   5.633
 1628TIP3    H1 4841   2.611   0.288   5.556
 1628TIP3    H2 4842   2.735   0.225   5.615
 1629TIP3   OH2 4843   6.870   1.146   6.584
 1629TIP3    H1 4844   6.922   1.132   6.663
 1629TIP3    H2 4845   6.872   1.241   6.570
 1630TIP3   OH2 4846   7.481   4.954   5.902
 1630TIP3    H1 4847   7.564   4.972   5.856
 1630TIP3    H2 4848   7.501   4.971   5.994
 1631TIP3   OH2 4849   2.355   0.213   5.796
 1631TIP3    H1 4850   2.321   0.170   5.875
 1631TIP3    H2 4851   2.370   0.142   5.734
 1632TIP3   OH2 4852   8.297   4.674   4.663
 1632TIP3    H1 4853   8.210   4.714   4.670
 1632TIP3    H2 4854   8.319   4.649   4.753
 1633TIP3   OH2 4855   7.524   3.326   5.672
 1633TIP3    H1 4856   7.593   3.260   5.675
 1633TIP3    H2 4857   7.531   3.371   5.757
 1634TIP3   OH2 4858   4.960   6.677   1.381
 1634TIP3    H1 4859   5.049   6.696   1.410
 1634TIP3    H2 4860   4.956   6.582   1.376
 1635TIP3   OH2 4861   6.061   1.116   2.057
 1635TIP3    H1 4862   6.125   1.047   2.037
 1635TIP3    H2 4863   5.989   1.069   2.099
 1636TIP3   OH2 4864   8.185   7.401   1.537
 1636TIP3    H1 4865   8.191   7.414   1.443
 1636TIP3    H2 4866   8.189   7.306   1.549
 1637TIP3   OH2 4867   5.103   2.145   3.932
 1637TIP3    H1 4868   5.191   2.147   3.969
 1637TIP3    H2 4869   5.044   2.146   4.008
 1638TIP3   OH2 4870   5.791   0.630   1.229
 1638TIP3    H1 4871   5.811   0.639   1.136
 1638TIP3    H2 4872   5.867   0.669   1.273
 1639TIP3   OH2 4873   5.604   0.707   6.247
 1639TIP3    H1 4874   5.637   0.620   6.269
 1639TIP3    H2 4875   5.650   0.731   6.166
 1640TIP3   OH2 4876   6.097   6.726   1.049
 1640TIP3    H1 4877   6.074   6.652   1.106
 1640TIP3    H2 4878   6.088   6.803   1.104
 1641TIP3   OH2 4879   2.364   5.127   2.729
 1641TIP3    H1 4880   2.345   5.171   2.812
 1641TIP3    H2 4881   2.372   5.034   2.752
 1642TIP3   OH2 4882   0.985   0.808   5.642
 1642TIP3    H1 4883   0.950   0.771   5.561
 1642TIP3    H2 4884   0.995   0.901   5.622
 1643TIP3   OH2 4885   4.903   6.110   5.048
 1643TIP3    H1 4886   4.810   6.086   5.043
 1643TIP3    H2 4887   4.902   6.205   5.059
 1644TIP3   OH2 4888   0.385   0.654   6.776
 1644TIP3    H1 4889   0.438   0.658   6.697
 1644TIP3    H2 4890   0.395   0.741   6.815
 1645TIP3   OH2 4891   3.949   1.606   4.623
 1645TIP3    H1 4892   4.022   1.642   4.674
 1645TIP3    H2 4893   3.871   1.636   4.669
 1646TIP3   OH2 4894   8.143   7.723   3.595
 1646TIP3    H1 4895   8.131   7.670   3.674
 1646TIP3    H2 4896   8.069   7.700   3.539
 1647TIP3   OH2 4897   7.790   3.096   3.205
 1647TIP3    H1 4898   7.719   3.124   3.147
 1647TIP3    H2 4899   7.804   3.170   3.263
 1648TIP3   OH2 4900   6.676   2.016   6.761
 1648TIP3    H1 4901   6.700   1.924   6.779
 1648TIP3    H2 4902   6.649   2.016   6.670
 1649TIP3   OH2 4903   4.158   4.542   0.968
 1649TIP3    H1 4904   4.096   4.601   1.012
 1649TIP3    H2 4905   4.103   4.476   0.926
 1650TIP3   OH2 4906   8.103   6.075   0.411
 1650TIP3    H1 4907   8.071   5.985   0.406
 1650TIP3    H2 4908   8.073   6.107   0.496
 1651TIP3   OH2 4909   2.732   5.591   2.875
 1651TIP3    H1 4910   2.718   5.654   2.805
 1651TIP3    H2 4911   2.699   5.508   2.841
 1652TIP3   OH2 4912   2.730   6.947   5.129
 1652TIP3    H1 4913   2.700   6.887   5.197
 1652TIP3    H2 4914   2.656   6.955   5.070
 1653TIP3   OH2 4915   7.253   2.429   5.644
 1653TIP3    H1 4916   7.281   2.520   5.651
 1653TIP3    H2 4917   7.193   2.416   5.717
 1654TIP3   OH2 4918   0.071   2.410   5.533
 1654TIP3    H1 4919   0.047   2.332   5.582
 1654TIP3    H2 4920   0.135   2.380   5.469
 1655TIP3   OH2 4921   4.668   7.614   0.033
 1655TIP3    H1 4922   4.732   7.584   0.097
 1655TIP3    H2 4923   4.651   7.538  -0.022
 1656TIP3   OH2 4924   1.776   6.006   6.696
 1656TIP3    H1 4925   1.694   6.046   6.667
 1656TIP3    H2 4926   1.827   5.995   6.615
 1657TIP3   OH2 4927   1.458   0.777   4.540
 1657TIP3    H1 4928   1.498   0.840   4.481
 1657TIP3    H2 4929   1.364   0.789   4.528
 1658TIP3   OH2 4930   0.694   6.315   3.438
 1658TIP3    H1 4931   0.767   6.287   3.494
 1658TIP3    H2 4932   0.619   6.317   3.496
 1659TIP3   OH2 4933   6.841   7.352   6.055
 1659TIP3    H1 4934   6.916   7.294   6.044
 1659TIP3    H2 4935   6.806   7.364   5.967
 1660TIP3   OH2 4936   0.594   0.695   5.675
 1660TIP3    H1 4937   0.668   0.641   5.647
 1660TIP3    H2 4938   0.627   0.785   5.673
 1661TIP3   OH2 4939   1.941   3.263   3.407
 1661TIP3    H1 4940   1.883   3.325   3.363
 1661TIP3    H2 4941   2.025   3.274   3.363
 1662TIP3   OH2 4942   4.703   4.401   1.273
 1662TIP3    H1 4943   4.683   4.308   1.289
 1662TIP3    H2 4944   4.704   4.440   1.360
 1663TIP3   OH2 4945   7.324   2.218   0.876
 1663TIP3    H1 4946   7.393   2.253   0.820
 1663TIP3    H2 4947   7.280   2.152   0.821
 1664TIP3   OH2 4948   3.382   1.547   2.028
 1664TIP3    H1 4949   3.419   1.630   1.997
 1664TIP3    H2 4950   3.457   1.498   2.062
 1665TIP3   OH2 4951   8.206   3.211   4.258
 1665TIP3    H1 4952   8.186   3.277   4.191
 1665TIP3    H2 4953   8.256   3.259   4.324
 1666TIP3   OH2 4954   6.842   7.591   1.794
 1666TIP3    H1 4955   6.786   7.579   1.870
 1666TIP3    H2 4956   6.922   7.629   1.829
 1667TIP3   OH2 4957   5.764   7.100   2.665
 1667TIP3    H1 4958   5.693   7.160   2.687
 1667TIP3    H2 4959   5.730   7.049   2.591
 1668TIP3   OH2 4960   6.649   3.673   3.872
 1668TIP3    H1 4961   6.579   3.641   3.928
 1668TIP3    H2 4962   6.633   3.767   3.865
 1669TIP3   OH2 4963   1.179   5.382   5.538
 1669TIP3    H1 4964   1.152   5.384   5.446
 1669TIP3    H2 4965   1.245   5.312   5.542
 1670TIP3   OH2 4966   4.764   0.374   3.116
 1670TIP3    H1 4967   4.781   0.281   3.101
 1670TIP3    H2 4968   4.811   0.394   3.196
 1671TIP3   OH2 4969   0.862   3.205   6.532
 1671TIP3    H1 4970   0.789   3.147   6.512
 1671TIP3    H2 4971   0.844   3.238   6.620
 1672TIP3   OH2 4972   7.315   7.178   6.556
 1672TIP3    H1 4973   7.285   7.227   6.479
 1672TIP3    H2 4974   7.288   7.232   6.630
 1673TIP3   OH2 4975   4.273   4.599   2.807
 1673TIP3    H1 4976   4.190   4.629   2.844
 1673TIP3    H2 4977   4.325   4.679   2.798
 1674TIP3   OH2 4978   3.176   4.590   0.767
 1674TIP3    H1 4979   3.189   4.501   0.800
 1674TIP3    H2 4980   3.262   4.630   0.771
 1675TIP3   OH2 4981   5.506   5.735   4.583
 1675TIP3    H1 4982   5.442   5.801   4.556
 1675TIP3    H2 4983   5.558   5.719   4.505
 1676TIP3   OH2 4984   7.041   2.882   6.278
 1676TIP3    H1 4985   7.076   2.886   6.190
 1676TIP3    H2 4986   7.015   2.972   6.298
 1677TIP3   OH2 4987   6.227   1.836   4.992
 1677TIP3    H1 4988   6.236   1.779   5.069
 1677TIP3    H2 4989   6.194   1.779   4.923
 1678TIP3   OH2 4990   1.253   6.205   1.787
 1678TIP3    H1 4991   1.197   6.276   1.815
 1678TIP3    H2 4992   1.317   6.246   1.729
 1679TIP3   OH2 4993   5.251   5.638   2.874
 1679TIP3    H1 4994   5.275   5.549   2.901
 1679TIP3    H2 4995   5.273   5.641   2.781
 1680TIP3   OH2 4996   4.194   4.920   3.270
 1680TIP3    H1 4997   4.240   4.901   3.188
 1680TIP3    H2 4998   4.112   4.962   3.242
 1681TIP3   OH2 4999   6.111   5.847   5.173
 1681TIP3    H1 5000   6.101   5.857   5.267
 1681TIP3    H2 5001   6.203   5.823   5.160
 1682TIP3   OH2 5002   4.531   0.908   4.118
 1682TIP3    H1 5003   4.550   0.969   4.190
 1682TIP3    H2 5004   4.448   0.940   4.082
 1683TIP3   OH2 5005   0.904   5.705   6.517
 1683TIP3    H1 5006   0.942   5.679   6.433
 1683TIP3    H2 5007   0.812   5.723   6.498
 1684TIP3   OH2 5008   5.490   5.625   4.996
 1684TIP3    H1 5009   5.449   5.663   5.074
 1684TIP3    H2 5010   5.416   5.598   4.941
 1685TIP3   OH2 5011   0.443   4.066   1.248
 1685TIP3    H1 5012   0.469   4.043   1.159
 1685TIP3    H2 5013   0.501   4.015   1.305
 1686TIP3   OH2 5014   4.908   6.494   5.668
 1686TIP3    H1 5015   4.993   6.499   5.711
 1686TIP3    H2 5016   4.885   6.586   5.650
 1687TIP3   OH2 5017   0.861   4.964   4.034
 1687TIP3    H1 5018   0.847   5.040   4.091
 1687TIP3    H2 5019   0.955   4.964   4.017
 1688TIP3   OH2 5020   5.527   4.194   5.117
 1688TIP3    H1 5021   5.454   4.235   5.164
 1688TIP3    H2 5022   5.498   4.104   5.102
 1689TIP3   OH2 5023   3.470   6.235   0.822
 1689TIP3    H1 5024   3.428   6.295   0.884
 1689TIP3    H2 5025   3.411   6.160   0.817
 1690TIP3   OH2 5026   0.755   0.121   4.982
 1690TIP3    H1 5027   0.797   0.035   4.981
 1690TIP3    H2 5028   0.827   0.184   4.980
 1691TIP3   OH2 5029   5.711   6.770   1.966
 1691TIP3    H1 5030   5.805   6.771   1.987
 1691TIP3    H2 5031   5.679   6.688   2.004
 1692TIP3   OH2 5032   1.502   7.210   3.292
 1692TIP3    H1 5033   1.446   7.286   3.311
 1692TIP3    H2 5034   1.580   7.226   3.345
 1693TIP3   OH2 5035   7.246   3.445   4.569
 1693TIP3    H1 5036   7.293   3.386   4.629
 1693TIP3    H2 5037   7.314   3.504   4.535
 1694TIP3   OH2 5038   6.388   6.186   5.292
 1694TIP3    H1 5039   6.452   6.201   5.361
 1694TIP3    H2 5040   6.303   6.187   5.336
 1695TIP3   OH2 5041   7.275   6.218   0.298
 1695TIP3    H1 5042   7.314   6.208   0.384
 1695TIP3    H2 5043   7.341   6.185   0.237
 1696TIP3   OH2 5044   3.793   4.233   3.990
 1696TIP3    H1 5045   3.861   4.232   3.924
 1696TIP3    H2 5046   3.808   4.314   4.039
 1697TIP3   OH2 5047   1.483   6.323   3.218
 1697TIP3    H1 5048   1.432   6.332   3.138
 1697TIP3    H2 5049   1.545   6.397   3.216
 1698TIP3   OH2 5050   6.281   1.192   3.183
 1698TIP3    H1 5051   6.243   1.149   3.260
 1698TIP3    H2 5052   6.205   1.220   3.132
 1699TIP3   OH2 5053   0.354   2.097   3.850
 1699TIP3    H1 5054   0.271   2.139   3.827
 1699TIP3    H2 5055   0.389   2.065   3.766
 1700TIP3   OH2 5056   5.831   6.889   5.407
 1700TIP3    H1 5057   5.759   6.852   5.356
 1700TIP3    H2 5058   5.788   6.928   5.484
 1701TIP3   OH2 5059   6.712   3.685   1.151
 1701TIP3    H1 5060   6.772   3.757   1.132
 1701TIP3    H2 5061   6.684   3.653   1.066
 1702TIP3   OH2 5062   2.704   0.508   0.501
 1702TIP3    H1 5063   2.784   0.528   0.451
 1702TIP3    H2 5064   2.716   0.554   0.584
 1703TIP3   OH2 5065   6.120   2.750   0.914
 1703TIP3    H1 5066   6.168   2.755   0.831
 1703TIP3    H2 5067   6.102   2.841   0.937
 1704TIP3   OH2 5068   3.597   1.264   2.082
 1704TIP3    H1 5069   3.531   1.264   2.151
 1704TIP3    H2 5070   3.552   1.227   2.006
 1705TIP3   OH2 5071   4.683   4.475   5.090
 1705TIP3    H1 5072   4.751   4.426   5.137
 1705TIP3    H2 5073   4.601   4.452   5.134
 1706TIP3   OH2 5074   4.944   4.452   6.464
 1706TIP3    H1 5075   4.990   4.445   6.548
 1706TIP3    H2 5076   4.856   4.483   6.487
 1707TIP3   OH2 5077   1.174   6.407   4.803
 1707TIP3    H1 5078   1.216   6.492   4.794
 1707TIP3    H2 5079   1.112   6.417   4.875
 1708TIP3   OH2 5080   3.995   2.528   0.472
 1708TIP3    H1 5081   3.905   2.505   0.448
 1708TIP3    H2 5082   4.012   2.480   0.553
 1709TIP3   OH2 5083   5.476   3.268   0.680
 1709TIP3    H1 5084   5.486   3.227   0.766
 1709TIP3    H2 5085   5.532   3.216   0.622
 1710TIP3   OH2 5086   6.656   4.878   4.640
 1710TIP3    H1 5087   6.670   4.783   4.635
 1710TIP3    H2 5088   6.704   4.913   4.565
 1711TIP3   OH2 5089   6.932   1.974   6.193
 1711TIP3    H1 5090   6.839   1.987   6.212
 1711TIP3    H2 5091   6.940   1.880   6.179
 1712TIP3   OH2 5092   6.240   5.015   1.342
 1712TIP3    H1 5093   6.183   4.965   1.284
 1712TIP3    H2 5094   6.251   5.099   1.298
 1713TIP3   OH2 5095   3.289   0.197   0.229
 1713TIP3    H1 5096   3.382   0.220   0.222
 1713TIP3    H2 5097   3.286   0.105   0.205
 1714TIP3   OH2 5098   1.325   7.181   0.253
 1714TIP3    H1 5099   1.400   7.122   0.263
 1714TIP3    H2 5100   1.362   7.261   0.215
 1715TIP3   OH2 5101   1.668   4.053   4.501
 1715TIP3    H1 5102   1.645   3.998   4.425
 1715TIP3    H2 5103   1.627   4.008   4.575
 1716TIP3   OH2 5104   6.876   4.280   5.355
 1716TIP3    H1 5105   6.923   4.230   5.289
 1716TIP3    H2 5106   6.785   4.278   5.325
 1717TIP3   OH2 5107   5.741   4.372   0.308
 1717TIP3    H1 5108   5.783   4.457   0.293
 1717TIP3    H2 5109   5.813   4.313   0.329
 1718TIP3   OH2 5110   2.225   6.487   4.087
 1718TIP3    H1 5111   2.246   6.454   3.999
 1718TIP3    H2 5112   2.310   6.498   4.129
 1719TIP3   OH2 5113   2.887   5.286   4.089
 1719TIP3    H1 5114   2.965   5.272   4.036
 1719TIP3    H2 5115   2.842   5.201   4.089
 1720TIP3   OH2 5116   0.065   7.229   0.693
 1720TIP3    H1 5117   0.008   7.306   0.697
 1720TIP3    H2 5118   0.151   7.264   0.670
 1721TIP3   OH2 5119   6.019   7.138   3.849
 1721TIP3    H1 5120   6.072   7.071   3.807
 1721TIP3    H2 5121   6.073   7.217   3.846
 1722TIP3   OH2 5122   4.713   0.374   6.739
 1722TIP3    H1 5123   4.788   0.317   6.721
 1722TIP3    H2 5124   4.670   0.383   6.654
 1723TIP3   OH2 5125   5.546   4.146   5.525
 1723TIP3    H1 5126   5.612   4.076   5.528
 1723TIP3    H2 5127   5.587   4.215   5.472
 1724TIP3   OH2 5128   0.227   0.742   5.181
 1724TIP3    H1 5129   0.306   0.789   5.208
 1724TIP3    H2 5130   0.174   0.736   5.260
 1725TIP3   OH2 5131   7.627   6.725   5.330
 1725TIP3    H1 5132   7.588   6.810   5.311
 1725TIP3    H2 5133   7.713   6.728   5.287
 1726TIP3   OH2 5134   6.996   7.381   1.238
 1726TIP3    H1 5135   7.037   7.304   1.279
 1726TIP3    H2 5136   7.026   7.378   1.147
 1727TIP3   OH2 5137   1.606   5.176   5.319
 1727TIP3    H1 5138   1.558   5.139   5.245
 1727TIP3    H2 5139   1.571   5.129   5.396
 1728TIP3   OH2 5140   5.481   5.789   2.976
 1728TIP3    H1 5141   5.398   5.751   2.947
 1728TIP3    H2 5142   5.516   5.726   3.039
 1729TIP3   OH2 5143   0.932   6.841   6.265
 1729TIP3    H1 5144   0.964   6.843   6.175
 1729TIP3    H2 5145   0.858   6.780   6.263
 1730TIP3   OH2 5146   1.688   3.694   2.060
 1730TIP3    H1 5147   1.602   3.728   2.037
 1730TIP3    H2 5148   1.743   3.713   1.984
 1731TIP3   OH2 5149   5.259   5.350   2.891
 1731TIP3    H1 5150   5.330   5.297   2.854
 1731TIP3    H2 5151   5.180   5.320   2.844
 1732TIP3   OH2 5152   6.238   0.044   2.453
 1732TIP3    H1 5153   6.185   0.123   2.440
 1732TIP3    H2 5154   6.185  -0.011   2.510
 1733TIP3   OH2 5155   7.568   1.137   1.085
 1733TIP3    H1 5156   7.477   1.122   1.111
 1733TIP3    H2 5157   7.570   1.229   1.059
 1734TIP3   OH2 5158   5.489   6.900   3.826
 1734TIP3    H1 5159   5.444   6.850   3.758
 1734TIP3    H2 5160   5.452   6.869   3.909
 1735TIP3   OH2 5161   6.426   6.265   5.555
 1735TIP3    H1 5162   6.350   6.310   5.590
 1735TIP3    H2 5163   6.501   6.314   5.588
 1736TIP3   OH2 5164   1.681   2.180   1.694
 1736TIP3    H1 5165   1.651   2.186   1.785
 1736TIP3    H2 5166   1.625   2.113   1.655
 1737TIP3   OH2 5167   1.209   0.794   4.982
 1737TIP3    H1 5168   1.162   0.712   4.992
 1737TIP3    H2 5169   1.203   0.835   5.069
 1738TIP3   OH2 5170   1.397   1.600   4.586
 1738TIP3    H1 5171   1.383   1.680   4.536
 1738TIP3    H2 5172   1.491   1.594   4.597
 1739TIP3   OH2 5173   0.849   6.494   5.322
 1739TIP3    H1 5174   0.760   6.481   5.354
 1739TIP3    H2 5175   0.901   6.430   5.369
 1740TIP3   OH2 5176   3.485   5.276   3.439
 1740TIP3    H1 5177   3.406   5.277   3.385
 1740TIP3    H2 5178   3.453   5.265   3.529
 1741TIP3   OH2 5179   1.841   1.642   3.966
 1741TIP3    H1 5180   1.847   1.686   4.050
 1741TIP3    H2 5181   1.923   1.663   3.922
 1742TIP3   OH2 5182   7.087   0.069   6.463
 1742TIP3    H1 5183   7.076   0.042   6.372
 1742TIP3    H2 5184   7.164   0.125   6.462
 1743TIP3   OH2 5185   1.805   2.919   3.830
 1743TIP3    H1 5186   1.831   2.978   3.902
 1743TIP3    H2 5187   1.886   2.876   3.804
 1744TIP3   OH2 5188   3.671   0.476   6.572
 1744TIP3    H1 5189   3.636   0.544   6.630
 1744TIP3    H2 5190   3.717   0.416   6.632
 1745TIP3   OH2 5191   1.169   1.783   4.815
 1745TIP3    H1 5192   1.080   1.751   4.798
 1745TIP3    H2 5193   1.219   1.705   4.837
 1746TIP3   OH2 5194   1.556   0.494   5.324
 1746TIP3    H1 5195   1.571   0.433   5.396
 1746TIP3    H2 5196   1.479   0.544   5.351
 1747TIP3   OH2 5197   8.073   4.954   0.768
 1747TIP3    H1 5198   8.019   4.910   0.702
 1747TIP3    H2 5199   8.159   4.961   0.726
 1748TIP3   OH2 5200   0.870   5.643   4.281
 1748TIP3    H1 5201   0.941   5.701   4.311
 1748TIP3    H2 5202   0.913   5.561   4.260
 1749TIP3   OH2 5203   5.061   1.103   0.838
 1749TIP3    H1 5204   5.106   1.184   0.864
 1749TIP3    H2 5205   5.088   1.089   0.747
 1750TIP3   OH2 5206   7.564   4.659   3.524
 1750TIP3    H1 5207   7.643   4.619   3.561
 1750TIP3    H2 5208   7.560   4.625   3.434
 1751TIP3   OH2 5209   2.806   2.638   2.611
 1751TIP3    H1 5210   2.854   2.636   2.694
 1751TIP3    H2 5211   2.782   2.546   2.596
 1752TIP3   OH2 5212   2.585   0.253   6.210
 1752TIP3    H1 5213   2.644   0.276   6.139
 1752TIP3    H2 5214   2.499   0.280   6.180
 1753TIP3   OH2 5215   7.769   6.900   2.306
 1753TIP3    H1 5216   7.714   6.866   2.377
 1753TIP3    H2 5217   7.737   6.989   2.290
 1754TIP3   OH2 5218   7.354   1.916   2.559
 1754TIP3    H1 5219   7.384   1.943   2.646
 1754TIP3    H2 5220   7.434   1.911   2.506
 1755TIP3   OH2 5221   5.249   5.731   6.681
 1755TIP3    H1 5222   5.263   5.722   6.775
 1755TIP3    H2 5223   5.177   5.794   6.674
 1756TIP3   OH2 5224   3.279   4.335   0.843
 1756TIP3    H1 5225   3.187   4.314   0.858
 1756TIP3    H2 5226   3.304   4.284   0.766
 1757TIP3   OH2 5227   4.678   7.172   0.360
 1757TIP3    H1 5228   4.727   7.187   0.280
 1757TIP3    H2 5229   4.673   7.258   0.402
 1758TIP3   OH2 5230   7.203   3.221   1.177
 1758TIP3    H1 5231   7.191   3.258   1.265
 1758TIP3    H2 5232   7.115   3.222   1.139
 1759TIP3   OH2 5233   3.189   7.279   2.000
 1759TIP3    H1 5234   3.274   7.238   2.014
 1759TIP3    H2 5235   3.128   7.224   2.049
 1760TIP3   OH2 5236   6.081   4.367   0.215
 1760TIP3    H1 5237   6.168   4.335   0.192
 1760TIP3    H2 5238   6.032   4.288   0.239
 1761TIP3   OH2 5239   5.951   7.063   6.259
 1761TIP3    H1 5240   5.927   6.972   6.243
 1761TIP3    H2 5241   5.886   7.114   6.212
 1762TIP3   OH2 5242   1.761   1.035   6.497
 1762TIP3    H1 5243   1.805   1.053   6.414
 1762TIP3    H2 5244   1.833   1.017   6.558
 1763TIP3   OH2 5245   7.298   4.678   4.281
 1763TIP3    H1 5246   7.334   4.725   4.356
 1763TIP3    H2 5247   7.362   4.610   4.262
 1764TIP3   OH2 5248   6.394   3.116   1.396
 1764TIP3    H1 5249   6.365   3.142   1.483
 1764TIP3    H2 5250   6.487   3.098   1.406
 1765TIP3   OH2 5251   3.138   0.711   1.178
 1765TIP3    H1 5252   3.083   0.751   1.246
 1765TIP3    H2 5253   3.131   0.617   1.194
 1766TIP3   OH2 5254   7.335   1.192   5.970
 1766TIP3    H1 5255   7.299   1.112   5.931
 1766TIP3    H2 5256   7.384   1.233   5.898
 1767TIP3   OH2 5257   7.606   1.396   0.977
 1767TIP3    H1 5258   7.657   1.440   1.045
 1767TIP3    H2 5259   7.654   1.414   0.896
 1768TIP3   OH2 5260   0.991   4.021   2.352
 1768TIP3    H1 5261   0.901   4.027   2.318
 1768TIP3    H2 5262   1.046   4.054   2.281
 1769TIP3   OH2 5263   7.562   3.532   1.890
 1769TIP3    H1 5264   7.655   3.516   1.906
 1769TIP3    H2 5265   7.560   3.575   1.805
 1770TIP3   OH2 5266   1.377   2.829   6.124
 1770TIP3    H1 5267   1.447   2.817   6.187
 1770TIP3    H2 5268   1.306   2.869   6.175
 1771TIP3   OH2 5269   2.842   3.400   2.241
 1771TIP3    H1 5270   2.819   3.363   2.326
 1771TIP3    H2 5271   2.804   3.339   2.178
 1772TIP3   OH2 5272   5.109   3.557   2.265
 1772TIP3    H1 5273   5.204   3.547   2.253
 1772TIP3    H2 5274   5.071   3.484   2.218
 1773TIP3   OH2 5275   0.992   0.646   2.104
 1773TIP3    H1 5276   1.037   0.666   2.022
 1773TIP3    H2 5277   0.903   0.679   2.092
 1774TIP3   OH2 5278   7.456   7.508   5.418
 1774TIP3    H1 5279   7.459   7.495   5.323
 1774TIP3    H2 5280   7.496   7.594   5.431
 1775TIP3   OH2 5281   4.302   7.635   5.140
 1775TIP3    H1 5282   4.239   7.698   5.176
 1775TIP3    H2 5283   4.328   7.672   5.056
 1776TIP3   OH2 5284   3.135   1.669  -0.001
 1776TIP3    H1 5285   3.148   1.697  -0.092
 1776TIP3    H2 5286   3.195   1.724   0.049
 1777TIP3   OH2 5287   0.795   5.310   6.015
 1777TIP3    H1 5288   0.794   5.324   5.920
 1777TIP3    H2 5289   0.703   5.296   6.039
 1778TIP3   OH2 5290   6.464   6.392   3.235
 1778TIP3    H1 5291   6.471   6.305   3.275
 1778TIP3    H2 5292   6.386   6.430   3.275
 1779TIP3   OH2 5293   3.309   6.802   5.547
 1779TIP3    H1 5294   3.283   6.822   5.636
 1779TIP3    H2 5295   3.251   6.732   5.519
 1780TIP3   OH2 5296   8.172   5.203   3.429
 1780TIP3    H1 5297   8.139   5.266   3.365
 1780TIP3    H2 5298   8.266   5.222   3.436
 1781TIP3   OH2 5299   7.360   1.926   2.101
 1781TIP3    H1 5300   7.274   1.967   2.091
 1781TIP3    H2 5301   7.411   1.960   2.027
 1782TIP3   OH2 5302   1.900   1.924   3.444
 1782TIP3    H1 5303   1.902   1.996   3.507
 1782TIP3    H2 5304   1.830   1.948   3.383
 1783TIP3   OH2 5305   5.543   0.465   4.233
 1783TIP3    H1 5306   5.527   0.524   4.307
 1783TIP3    H2 5307   5.457   0.455   4.192
 1784TIP3   OH2 5308   5.971   0.266   3.659
 1784TIP3    H1 5309   6.030   0.340   3.642
 1784TIP3    H2 5310   5.996   0.235   3.746
 1785TIP3   OH2 5311   4.753   5.232   6.345
 1785TIP3    H1 5312   4.703   5.313   6.344
 1785TIP3    H2 5313   4.789   5.225   6.257
 1786TIP3   OH2 5314   6.307   0.684   2.625
 1786TIP3    H1 5315   6.230   0.642   2.664
 1786TIP3    H2 5316   6.319   0.640   2.541
 1787TIP3   OH2 5317   2.336   1.144   2.401
 1787TIP3    H1 5318   2.388   1.224   2.393
 1787TIP3    H2 5319   2.289   1.139   2.317
 1788TIP3   OH2 5320   5.209   7.689   5.152
 1788TIP3    H1 5321   5.192   7.627   5.223
 1788TIP3    H2 5322   5.221   7.634   5.074
 1789TIP3   OH2 5323   6.205   6.023   3.136
 1789TIP3    H1 5324   6.228   6.110   3.167
 1789TIP3    H2 5325   6.219   6.026   3.041
 1790TIP3   OH2 5326   0.924   6.347   2.722
 1790TIP3    H1 5327   0.888   6.397   2.795
 1790TIP3    H2 5328   0.847   6.326   2.668
 1791TIP3   OH2 5329   5.674   6.028   5.141
 1791TIP3    H1 5330   5.753   6.027   5.196
 1791TIP3    H2 5331   5.681   5.948   5.089
 1792TIP3   OH2 5332   4.078   0.498   3.593
 1792TIP3    H1 5333   4.166   0.483   3.627
 1792TIP3    H2 5334   4.088   0.572   3.533
 1793TIP3   OH2 5335   4.715   1.319   3.653
 1793TIP3    H1 5336   4.809   1.302   3.651
 1793TIP3    H2 5337   4.680   1.273   3.577
 1794TIP3   OH2 5338   0.707   2.450   4.667
 1794TIP3    H1 5339   0.715   2.394   4.744
 1794TIP3    H2 5340   0.790   2.499   4.665
 1795TIP3   OH2 5341   5.978   4.596   1.129
 1795TIP3    H1 5342   5.974   4.595   1.033
 1795TIP3    H2 5343   5.897   4.554   1.156
 1796TIP3   OH2 5344   4.636   2.323   0.145
 1796TIP3    H1 5345   4.621   2.369   0.062
 1796TIP3    H2 5346   4.712   2.366   0.183
 1797TIP3   OH2 5347   2.631   6.074   0.883
 1797TIP3    H1 5348   2.552   6.101   0.930
 1797TIP3    H2 5349   2.689   6.039   0.951
 1798TIP3   OH2 5350   7.547   3.882   2.881
 1798TIP3    H1 5351   7.596   3.943   2.826
 1798TIP3    H2 5352   7.613   3.843   2.938
 1799TIP3   OH2 5353   2.665   2.691   1.122
 1799TIP3    H1 5354   2.649   2.653   1.035
 1799TIP3    H2 5355   2.582   2.733   1.146
 1800TIP3   OH2 5356   3.498   3.350   1.968
 1800TIP3    H1 5357   3.535   3.300   2.041
 1800TIP3    H2 5358   3.405   3.358   1.989
 1801TIP3   OH2 5359   2.189   7.731   5.786
 1801TIP3    H1 5360   2.244   7.736   5.708
 1801TIP3    H2 5361   2.133   7.655   5.771
 1802TIP3   OH2 5362   0.290   3.692   5.490
 1802TIP3    H1 5363   0.297   3.606   5.448
 1802TIP3    H2 5364   0.319   3.678   5.580
 1803TIP3   OH2 5365   0.101   1.847   5.311
 1803TIP3    H1 5366   0.045   1.865   5.235
 1803TIP3    H2 5367   0.078   1.916   5.374
 1804TIP3   OH2 5368   8.052   6.043   1.185
 1804TIP3    H1 5369   8.077   5.966   1.237
 1804TIP3    H2 5370   7.988   6.088   1.240
 1805TIP3   OH2 5371   2.234   5.835   3.802
 1805TIP3    H1 5372   2.240   5.930   3.798
 1805TIP3    H2 5373   2.140   5.817   3.797
 1806TIP3   OH2 5374   7.491   7.586   4.605
 1806TIP3    H1 5375   7.462   7.658   4.549
 1806TIP3    H2 5376   7.475   7.507   4.553
 1807TIP3   OH2 5377   1.831   6.856   0.354
 1807TIP3    H1 5378   1.842   6.798   0.279
 1807TIP3    H2 5379   1.909   6.911   0.354
 1808TIP3   OH2 5380   1.810   6.475   0.805
 1808TIP3    H1 5381   1.741   6.531   0.839
 1808TIP3    H2 5382   1.864   6.532   0.752
 1809TIP3   OH2 5383   2.533   4.814   5.772
 1809TIP3    H1 5384   2.527   4.909   5.762
 1809TIP3    H2 5385   2.524   4.780   5.683
 1810TIP3   OH2 5386   7.148   0.893   5.596
 1810TIP3    H1 5387   7.131   0.971   5.543
 1810TIP3    H2 5388   7.232   0.860   5.566
 1811TIP3   OH2 5389   3.563   7.355   1.551
 1811TIP3    H1 5390   3.471   7.364   1.524
 1811TIP3    H2 5391   3.585   7.439   1.591
 1812TIP3   OH2 5392   6.029   7.063   2.743
 1812TIP3    H1 5393   6.061   7.152   2.731
 1812TIP3    H2 5394   5.936   7.067   2.720
 1813TIP3   OH2 5395   0.793   2.647   5.475
 1813TIP3    H1 5396   0.741   2.628   5.397
 1813TIP3    H2 5397   0.801   2.743   5.475
 1814TIP3   OH2 5398   1.798   3.303   4.941
 1814TIP3    H1 5399   1.826   3.394   4.953
 1814TIP3    H2 5400   1.878   3.256   4.915
 1815TIP3   OH2 5401   5.258   4.784   4.757
 1815TIP3    H1 5402   5.304   4.743   4.684
 1815TIP3    H2 5403   5.179   4.820   4.718
 1816TIP3   OH2 5404   2.868   1.049   1.664
 1816TIP3    H1 5405   2.822   0.973   1.699
 1816TIP3    H2 5406   2.925   1.078   1.736
 1817TIP3   OH2 5407   2.463   4.790   3.796
 1817TIP3    H1 5408   2.520   4.714   3.807
 1817TIP3    H2 5409   2.386   4.756   3.750
 1818TIP3   OH2 5410   0.103   2.405   1.737
 1818TIP3    H1 5411   0.131   2.470   1.802
 1818TIP3    H2 5412   0.024   2.444   1.698
 1819TIP3   OH2 5413   5.841   6.887   3.403
 1819TIP3    H1 5414   5.750   6.896   3.431
 1819TIP3    H2 5415   5.847   6.797   3.371
 1820TIP3   OH2 5416   5.015   3.566   2.521
 1820TIP3    H1 5417   5.054   3.572   2.433
 1820TIP3    H2 5418   5.055   3.487   2.559
 1821TIP3   OH2 5419   7.139   7.610   3.288
 1821TIP3    H1 5420   7.217   7.648   3.329
 1821TIP3    H2 5421   7.067   7.632   3.346
 1822TIP3   OH2 5422   2.181   2.529   0.527
 1822TIP3    H1 5423   2.177   2.524   0.622
 1822TIP3    H2 5424   2.200   2.621   0.508
 1823TIP3   OH2 5425   4.192   3.143   6.667
 1823TIP3    H1 5426   4.276   3.155   6.621
 1823TIP3    H2 5427   4.127   3.181   6.608
 1824TIP3   OH2 5428   7.073   7.656   2.560
 1824TIP3    H1 5429   7.114   7.738   2.590
 1824TIP3    H2 5430   6.979   7.669   2.577
 1825TIP3   OH2 5431   7.135   4.137   4.725
 1825TIP3    H1 5432   7.170   4.067   4.780
 1825TIP3    H2 5433   7.211   4.174   4.681
 1826TIP3   OH2 5434   0.411   3.100   1.906
 1826TIP3    H1 5435   0.362   3.023   1.878
 1826TIP3    H2 5436   0.503   3.077   1.891
 1827TIP3   OH2 5437   4.997   6.292   0.077
 1827TIP3    H1 5438   5.049   6.220   0.042
 1827TIP3    H2 5439   4.940   6.250   0.141
 1828TIP3   OH2 5440   3.845   6.177   6.495
 1828TIP3    H1 5441   3.933   6.215   6.492
 1828TIP3    H2 5442   3.798   6.230   6.560
 1829TIP3   OH2 5443   2.247   4.541   4.649
 1829TIP3    H1 5444   2.273   4.607   4.712
 1829TIP3    H2 5445   2.151   4.540   4.654
 1830TIP3   OH2 5446   6.642   4.344   2.182
 1830TIP3    H1 5447   6.642   4.261   2.134
 1830TIP3    H2 5448   6.584   4.401   2.132
 1831TIP3   OH2 5449   6.461   0.211   4.628
 1831TIP3    H1 5450   6.462   0.261   4.546
 1831TIP3    H2 5451   6.404   0.137   4.609
 1832TIP3   OH2 5452   3.365   4.446   0.316
 1832TIP3    H1 5453   3.335   4.523   0.266
 1832TIP3    H2 5454   3.458   4.438   0.294
 1833TIP3   OH2 5455   2.246   4.678   2.993
 1833TIP3    H1 5456   2.208   4.641   3.073
 1833TIP3    H2 5457   2.226   4.614   2.925
 1834TIP3   OH2 5458   6.664   3.865   2.450
 1834TIP3    H1 5459   6.710   3.948   2.463
 1834TIP3    H2 5460   6.572   3.888   2.449
 1835TIP3   OH2 5461   7.225   2.294   3.050
 1835TIP3    H1 5462   7.189   2.276   3.137
 1835TIP3    H2 5463   7.287   2.223   3.035
 1836TIP3   OH2 5464   4.334   0.149   5.248
 1836TIP3    H1 5465   4.310   0.081   5.312
 1836TIP3    H2 5466   4.261   0.149   5.185
 1837TIP3   OH2 5467   3.634   2.549   1.290
 1837TIP3    H1 5468   3.707   2.503   1.250
 1837TIP3    H2 5469   3.641   2.639   1.258
 1838TIP3   OH2 5470   5.598   3.714   5.992
 1838TIP3    H1 5471   5.554   3.632   5.969
 1838TIP3    H2 5472   5.553   3.744   6.071
 1839TIP3   OH2 5473   0.764   5.824   1.126
 1839TIP3    H1 5474   0.716   5.742   1.133
 1839TIP3    H2 5475   0.775   5.839   1.032
 1840TIP3   OH2 5476   2.602   1.208   4.901
 1840TIP3    H1 5477   2.591   1.260   4.980
 1840TIP3    H2 5478   2.524   1.153   4.898
 1841TIP3   OH2 5479   5.536   5.517   2.550
 1841TIP3    H1 5480   5.564   5.437   2.595
 1841TIP3    H2 5481   5.450   5.537   2.587
 1842TIP3   OH2 5482   7.620   5.792   1.281
 1842TIP3    H1 5483   7.678   5.729   1.238
 1842TIP3    H2 5484   7.558   5.738   1.330
 1843TIP3   OH2 5485   3.034   4.160   6.645
 1843TIP3    H1 5486   3.020   4.148   6.739
 1843TIP3    H2 5487   2.946   4.175   6.610
 1844TIP3   OH2 5488   5.202   5.022   5.359
 1844TIP3    H1 5489   5.208   4.952   5.293
 1844TIP3    H2 5490   5.109   5.026   5.381
 1845TIP3   OH2 5491   4.420   3.480   2.079
 1845TIP3    H1 5492   4.331   3.501   2.110
 1845TIP3    H2 5493   4.478   3.516   2.146
 1846TIP3   OH2 5494   4.662   6.773   3.600
 1846TIP3    H1 5495   4.614   6.839   3.650
 1846TIP3    H2 5496   4.596   6.735   3.542
 1847TIP3   OH2 5497   4.650   3.701   3.646
 1847TIP3    H1 5498   4.725   3.729   3.592
 1847TIP3    H2 5499   4.601   3.782   3.662
 1848TIP3   OH2 5500   1.036   2.753   4.222
 1848TIP3    H1 5501   1.075   2.789   4.143
 1848TIP3    H2 5502   1.082   2.796   4.294
 1849TIP3   OH2 5503   7.458   3.134   5.198
 1849TIP3    H1 5504   7.465   3.206   5.261
 1849TIP3    H2 5505   7.448   3.056   5.252
 1850TIP3   OH2 5506   4.362   6.813   3.872
 1850TIP3    H1 5507   4.348   6.727   3.833
 1850TIP3    H2 5508   4.325   6.805   3.960
 1851TIP3   OH2 5509   3.111   1.334   0.127
 1851TIP3    H1 5510   3.060   1.383   0.191
 1851TIP3    H2 5511   3.176   1.287   0.179
 1852TIP3   OH2 5512   2.199   0.988   3.880
 1852TIP3    H1 5513   2.235   0.899   3.886
 1852TIP3    H2 5514   2.229   1.031   3.960
 1853TIP3   OH2 5515   5.073   6.830   4.010
 1853TIP3    H1 5516   4.994   6.797   3.967
 1853TIP3    H2 5517   5.130   6.754   4.016
 1854TIP3   OH2 5518   6.018   0.380   0.987
 1854TIP3    H1 5519   6.103   0.395   1.029
 1854TIP3    H2 5520   5.999   0.288   1.002
 1855TIP3   OH2 5521   5.320   0.243   5.583
 1855TIP3    H1 5522   5.401   0.215   5.540
 1855TIP3    H2 5523   5.307   0.333   5.551
 1856TIP3   OH2 5524   3.720   7.671   3.788
 1856TIP3    H1 5525   3.638   7.688   3.743
 1856TIP3    H2 5526   3.695   7.652   3.878
 1857TIP3   OH2 5527   7.653   3.516   3.648
 1857TIP3    H1 5528   7.730   3.459   3.648
 1857TIP3    H2 5529   7.592   3.473   3.588
 1858TIP3   OH2 5530   3.901   1.677   3.189
 1858TIP3    H1 5531   3.845   1.601   3.173
 1858TIP3    H2 5532   3.967   1.673   3.119
 1859TIP3   OH2 5533   2.069   7.127   1.868
 1859TIP3    H1 5534   2.023   7.144   1.786
 1859TIP3    H2 5535   2.092   7.035   1.864
 1860TIP3   OH2 5536   0.611   4.837   3.325
 1860TIP3    H1 5537   0.688   4.830   3.382
 1860TIP3    H2 5538   0.645   4.875   3.244
 1861TIP3   OH2 5539   2.744   5.831   0.374
 1861TIP3    H1 5540   2.746   5.780   0.293
 1861TIP3    H2 5541   2.683   5.785   0.430
 1862TIP3   OH2 5542   2.587   7.750   2.478
 1862TIP3    H1 5543   2.567   7.686   2.547
 1862TIP3    H2 5544   2.516   7.814   2.484
 1863TIP3   OH2 5545   3.698   5.385   4.394
 1863TIP3    H1 5546   3.722   5.322   4.461
 1863TIP3    H2 5547   3.780   5.425   4.367
 1864TIP3   OH2 5548   0.608   0.718   1.793
 1864TIP3    H1 5549   0.527   0.768   1.785
 1864TIP3    H2 5550   0.591   0.636   1.745
 1865TIP3   OH2 5551   7.961   6.097   3.099
 1865TIP3    H1 5552   7.982   6.190   3.087
 1865TIP3    H2 5553   8.038   6.062   3.145
 1866TIP3   OH2 5554   3.185   3.431   1.167
 1866TIP3    H1 5555   3.194   3.523   1.192
 1866TIP3    H2 5556   3.254   3.416   1.102
 1867TIP3   OH2 5557   7.364   4.062   2.177
 1867TIP3    H1 5558   7.320   4.041   2.095
 1867TIP3    H2 5559   7.450   4.020   2.170
 1868TIP3   OH2 5560   2.012   6.867   4.632
 1868TIP3    H1 5561   1.983   6.865   4.724
 1868TIP3    H2 5562   2.078   6.799   4.626
 1869TIP3   OH2 5563   7.655   5.025   0.794
 1869TIP3    H1 5564   7.697   5.060   0.715
 1869TIP3    H2 5565   7.571   5.070   0.798
 1870TIP3   OH2 5566   4.512   0.347   3.228
 1870TIP3    H1 5567   4.496   0.438   3.252
 1870TIP3    H2 5568   4.596   0.349   3.182
 1871TIP3   OH2 5569   2.212   2.186   3.736
 1871TIP3    H1 5570   2.228   2.280   3.748
 1871TIP3    H2 5571   2.299   2.149   3.719
 1872TIP3   OH2 5572   6.499   6.464   2.983
 1872TIP3    H1 5573   6.516   6.448   3.076
 1872TIP3    H2 5574   6.411   6.501   2.981
 1873TIP3   OH2 5575   8.265   5.419   2.710
 1873TIP3    H1 5576   8.171   5.403   2.698
 1873TIP3    H2 5577   8.300   5.426   2.621
 1874TIP3   OH2 5578   5.614   0.452   2.516
 1874TIP3    H1 5579   5.520   0.451   2.499
 1874TIP3    H2 5580   5.621   0.443   2.611
 1875TIP3   OH2 5581   2.545   3.067   5.378
 1875TIP3    H1 5582   2.626   3.089   5.333
 1875TIP3    H2 5583   2.491   3.024   5.311
 1876TIP3   OH2 5584   4.845   3.433   3.838
 1876TIP3    H1 5585   4.847   3.450   3.744
 1876TIP3    H2 5586   4.780   3.363   3.848
 1877TIP3   OH2 5587   6.327   5.757   3.068
 1877TIP3    H1 5588   6.417   5.729   3.086
 1877TIP3    H2 5589   6.333   5.805   2.985
 1878TIP3   OH2 5590   7.739   2.496   3.800
 1878TIP3    H1 5591   7.741   2.419   3.743
 1878TIP3    H2 5592   7.810   2.552   3.768
 1879TIP3   OH2 5593   1.981   3.519   4.927
 1879TIP3    H1 5594   2.067   3.559   4.937
 1879TIP3    H2 5595   1.933   3.579   4.870
 1880TIP3   OH2 5596   6.732   3.616   4.829
 1880TIP3    H1 5597   6.760   3.630   4.919
 1880TIP3    H2 5598   6.733   3.521   4.818
 1881TIP3   OH2 5599   1.465   3.308   2.470
 1881TIP3    H1 5600   1.525   3.293   2.397
 1881TIP3    H2 5601   1.466   3.226   2.519
 1882TIP3   OH2 5602   7.182   0.307   4.889
 1882TIP3    H1 5603   7.271   0.306   4.927
 1882TIP3    H2 5604   7.126   0.276   4.960
 1883TIP3   OH2 5605   5.632   3.514   1.858
 1883TIP3    H1 5606   5.644   3.504   1.763
 1883TIP3    H2 5607   5.578   3.439   1.883
 1884TIP3   OH2 5608   0.803   7.371   0.754
 1884TIP3    H1 5609   0.898   7.371   0.767
 1884TIP3    H2 5610   0.770   7.308   0.818
 1885TIP3   OH2 5611   6.054   6.241   0.515
 1885TIP3    H1 5612   6.017   6.180   0.579
 1885TIP3    H2 5613   6.095   6.309   0.567
 1886TIP3   OH2 5614   1.720   5.810   3.654
 1886TIP3    H1 5615   1.649   5.839   3.597
 1886TIP3    H2 5616   1.797   5.810   3.598
 1887TIP3   OH2 5617   6.332   3.549   3.198
 1887TIP3    H1 5618   6.299   3.570   3.110
 1887TIP3    H2 5619   6.427   3.561   3.192
 1888TIP3   OH2 5620   2.041   7.610   0.983
 1888TIP3    H1 5621   2.062   7.639   1.071
 1888TIP3    H2 5622   1.967   7.549   0.994
 1889TIP3   OH2 5623   1.902   2.379   5.167
 1889TIP3    H1 5624   1.975   2.430   5.202
 1889TIP3    H2 5625   1.859   2.437   5.103
 1890TIP3   OH2 5626   6.359   2.570   3.348
 1890TIP3    H1 5627   6.438   2.571   3.294
 1890TIP3    H2 5628   6.359   2.485   3.390
 1891TIP3   OH2 5629   0.155   0.939   6.195
 1891TIP3    H1 5630   0.162   0.980   6.281
 1891TIP3    H2 5631   0.063   0.913   6.188
 1892TIP3   OH2 5632   2.032   4.546   5.299
 1892TIP3    H1 5633   2.042   4.640   5.316
 1892TIP3    H2 5634   2.016   4.508   5.386
 1893TIP3   OH2 5635   4.857   0.209   6.560
 1893TIP3    H1 5636   4.792   0.267   6.522
 1893TIP3    H2 5637   4.912   0.183   6.485
 1894TIP3   OH2 5638   2.728   6.381   2.793
 1894TIP3    H1 5639   2.675   6.431   2.731
 1894TIP3    H2 5640   2.740   6.296   2.751
 1895TIP3   OH2 5641   5.113   5.503   4.121
 1895TIP3    H1 5642   5.155   5.421   4.146
 1895TIP3    H2 5643   5.176   5.571   4.146
 1896TIP3   OH2 5644   2.722   2.116   0.810
 1896TIP3    H1 5645   2.632   2.144   0.793
 1896TIP3    H2 5646   2.758   2.096   0.724
 1897TIP3   OH2 5647   2.878   0.680   3.089
 1897TIP3    H1 5648   2.898   0.773   3.080
 1897TIP3    H2 5649   2.803   0.677   3.148
 1898TIP3   OH2 5650   4.628   3.881   5.927
 1898TIP3    H1 5651   4.651   3.974   5.916
 1898TIP3    H2 5652   4.698   3.846   5.981
 1899TIP3   OH2 5653   1.007   5.023   5.838
 1899TIP3    H1 5654   1.068   5.026   5.764
 1899TIP3    H2 5655   0.944   4.956   5.813
 1900TIP3   OH2 5656   0.887   6.864   3.479
 1900TIP3    H1 5657   0.834   6.821   3.412
 1900TIP3    H2 5658   0.842   6.946   3.497
 1901TIP3   OH2 5659   1.139   7.328   1.552
 1901TIP3    H1 5660   1.153   7.319   1.458
 1901TIP3    H2 5661   1.070   7.394   1.560
 1902TIP3   OH2 5662   0.907   7.401   0.210
 1902TIP3    H1 5663   0.888   7.326   0.153
 1902TIP3    H2 5664   1.002   7.406   0.213
 1903TIP3   OH2 5665   6.441   2.388   3.887
 1903TIP3    H1 5666   6.521   2.428   3.854
 1903TIP3    H2 5667   6.442   2.406   3.981
 1904TIP3   OH2 5668   2.619   3.450   3.286
 1904TIP3    H1 5669   2.581   3.372   3.327
 1904TIP3    H2 5670   2.698   3.468   3.337
 1905TIP3   OH2 5671   1.500   1.546   3.101
 1905TIP3    H1 5672   1.492   1.524   3.194
 1905TIP3    H2 5673   1.462   1.471   3.055
 1906TIP3   OH2 5674   7.805   4.768   6.359
 1906TIP3    H1 5675   7.709   4.768   6.355
 1906TIP3    H2 5676   7.830   4.679   6.334
 1907TIP3   OH2 5677   7.706   3.326   5.011
 1907TIP3    H1 5678   7.688   3.232   5.024
 1907TIP3    H2 5679   7.683   3.342   4.920
 1908TIP3   OH2 5680   3.788   5.411   5.118
 1908TIP3    H1 5681   3.714   5.462   5.086
 1908TIP3    H2 5682   3.833   5.470   5.178
 1909TIP3   OH2 5683   6.278   6.243   4.440
 1909TIP3    H1 5684   6.334   6.222   4.365
 1909TIP3    H2 5685   6.322   6.202   4.514
 1910TIP3   OH2 5686   8.242   6.047   5.495
 1910TIP3    H1 5687   8.187   6.032   5.572
 1910TIP3    H2 5688   8.328   6.013   5.519
 1911TIP3   OH2 5689   1.258   3.631   1.936
 1911TIP3    H1 5690   1.247   3.725   1.923
 1911TIP3    H2 5691   1.170   3.595   1.922
 1912TIP3   OH2 5692   6.452   4.587   6.003
 1912TIP3    H1 5693   6.422   4.656   5.945
 1912TIP3    H2 5694   6.488   4.633   6.079
 1913TIP3   OH2 5695   1.378   0.244   4.054
 1913TIP3    H1 5696   1.378   0.149   4.040
 1913TIP3    H2 5697   1.293   0.262   4.094
 1914TIP3   OH2 5698   1.851   7.140   0.618
 1914TIP3    H1 5699   1.791   7.170   0.549
 1914TIP3    H2 5700   1.822   7.051   0.639
 1915TIP3   OH2 5701   1.909   0.799   0.311
 1915TIP3    H1 5702   1.842   0.862   0.283
 1915TIP3    H2 5703   1.861   0.717   0.324
 1916TIP3   OH2 5704   3.094   5.967   5.721
 1916TIP3    H1 5705   2.999   5.957   5.710
 1916TIP3    H2 5706   3.105   6.057   5.752
 1917TIP3   OH2 5707   3.152   2.198   5.509
 1917TIP3    H1 5708   3.229   2.172   5.458
 1917TIP3    H2 5709   3.081   2.201   5.445
 1918TIP3   OH2 5710   4.490   3.298   0.803
 1918TIP3    H1 5711   4.466   3.263   0.889
 1918TIP3    H2 5712   4.563   3.358   0.821
 1919TIP3   OH2 5713   2.891   3.189   0.909
 1919TIP3    H1 5714   2.865   3.277   0.936
 1919TIP3    H2 5715   2.948   3.203   0.833
 1920TIP3   OH2 5716   2.455   0.200   0.478
 1920TIP3    H1 5717   2.453   0.184   0.572
 1920TIP3    H2 5718   2.393   0.137   0.442
 1921TIP3   OH2 5719   1.557   1.560   5.313
 1921TIP3    H1 5720   1.628   1.531   5.256
 1921TIP3    H2 5721   1.555   1.655   5.304
 1922TIP3   OH2 5722   0.553   1.108   1.390
 1922TIP3    H1 5723   0.578   1.199   1.373
 1922TIP3    H2 5724   0.604   1.058   1.327
 1923TIP3   OH2 5725   2.263   7.425   0.034
 1923TIP3    H1 5726   2.308   7.407   0.117
 1923TIP3    H2 5727   2.309   7.370  -0.030
 1924TIP3   OH2 5728   1.026   0.223   4.363
 1924TIP3    H1 5729   0.982   0.193   4.442
 1924TIP3    H2 5730   1.064   0.307   4.387
 1925TIP3   OH2 5731   3.738   4.999   5.580
 1925TIP3    H1 5732   3.770   5.080   5.541
 1925TIP3    H2 5733   3.725   5.020   5.673
 1926TIP3   OH2 5734   2.916   0.411   0.707
 1926TIP3    H1 5735   3.009   0.412   0.730
 1926TIP3    H2 5736   2.880   0.489   0.748
 1927TIP3   OH2 5737   4.769   4.978   5.223
 1927TIP3    H1 5738   4.794   4.886   5.232
 1927TIP3    H2 5739   4.675   4.976   5.204
 1928TIP3   OH2 5740   0.794  -0.044   4.038
 1928TIP3    H1 5741   0.789   0.048   4.065
 1928TIP3    H2 5742   0.868  -0.047   3.977
 1929TIP3   OH2 5743   5.680   7.210   6.784
 1929TIP3    H1 5744   5.702   7.171   6.699
 1929TIP3    H2 5745   5.610   7.272   6.766
 1930TIP3   OH2 5746   5.412   4.613   1.060
 1930TIP3    H1 5747   5.337   4.553   1.058
 1930TIP3    H2 5748   5.381   4.692   1.016
 1931TIP3   OH2 5749   5.875   3.767   1.245
 1931TIP3    H1 5750   5.807   3.705   1.274
 1931TIP3    H2 5751   5.905   3.809   1.326
 1932TIP3   OH2 5752   5.861   6.643   4.984
 1932TIP3    H1 5753   5.795   6.674   4.923
 1932TIP3    H2 5754   5.944   6.672   4.947
 1933TIP3   OH2 5755   8.092   6.863   0.631
 1933TIP3    H1 5756   8.082   6.783   0.579
 1933TIP3    H2 5757   8.067   6.934   0.571
 1934TIP3   OH2 5758   6.031   0.784   4.418
 1934TIP3    H1 5759   6.102   0.732   4.380
 1934TIP3    H2 5760   6.075   0.859   4.459
 1935TIP3   OH2 5761   4.495   0.704   0.673
 1935TIP3    H1 5762   4.405   0.730   0.693
 1935TIP3    H2 5763   4.531   0.675   0.757
 1936TIP3   OH2 5764   6.844   6.844   0.561
 1936TIP3    H1 5765   6.750   6.831   0.570
 1936TIP3    H2 5766   6.881   6.755   0.562
 1937TIP3   OH2 5767   5.883   5.845   3.387
 1937TIP3    H1 5768   5.978   5.836   3.395
 1937TIP3    H2 5769   5.849   5.760   3.412
 1938TIP3   OH2 5770   6.722   4.163   6.322
 1938TIP3    H1 5771   6.655   4.176   6.255
 1938TIP3    H2 5772   6.764   4.249   6.331
 1939TIP3   OH2 5773   3.565   4.841   5.109
 1939TIP3    H1 5774   3.531   4.836   5.198
 1939TIP3    H2 5775   3.600   4.753   5.092
 1940TIP3   OH2 5776   7.528   4.730   6.354
 1940TIP3    H1 5777   7.445   4.777   6.347
 1940TIP3    H2 5778   7.503   4.638   6.346
 1941TIP3   OH2 5779   2.720   4.497   2.783
 1941TIP3    H1 5780   2.773   4.484   2.862
 1941TIP3    H2 5781   2.740   4.586   2.755
 1942TIP3   OH2 5782   7.214   2.455   1.594
 1942TIP3    H1 5783   7.193   2.385   1.532
 1942TIP3    H2 5784   7.306   2.440   1.616
 1943TIP3   OH2 5785   0.065   1.938   5.935
 1943TIP3    H1 5786   0.013   1.930   5.855
 1943TIP3    H2 5787   0.142   1.883   5.919
 1944TIP3   OH2 5788   1.812   1.236   4.432
 1944TIP3    H1 5789   1.826   1.232   4.527
 1944TIP3    H2 5790   1.839   1.324   4.407
 1945TIP3   OH2 5791   0.687   7.514   1.134
 1945TIP3    H1 5792   0.768   7.489   1.179
 1945TIP3    H2 5793   0.620   7.510   1.201
 1946TIP3   OH2 5794   7.786   1.464   4.834
 1946TIP3    H1 5795   7.704   1.509   4.815
 1946TIP3    H2 5796   7.854   1.527   4.811
 1947TIP3   OH2 5797   3.449   3.289   4.670
 1947TIP3    H1 5798   3.482   3.224   4.608
 1947TIP3    H2 5799   3.476   3.257   4.756
 1948TIP3   OH2 5800   6.645   3.309   1.032
 1948TIP3    H1 5801   6.738   3.292   1.047
 1948TIP3    H2 5802   6.608   3.223   1.012
 1949TIP3   OH2 5803   8.105   3.648   1.711
 1949TIP3    H1 5804   8.195   3.614   1.716
 1949TIP3    H2 5805   8.077   3.655   1.802
 1950TIP3   OH2 5806   0.091   6.758   1.655
 1950TIP3    H1 5807   0.152   6.720   1.718
 1950TIP3    H2 5808   0.146   6.806   1.593
 1951TIP3   OH2 5809   2.189   1.511   2.243
 1951TIP3    H1 5810   2.165   1.488   2.153
 1951TIP3    H2 5811   2.222   1.601   2.236
 1952TIP3   OH2 5812   0.348   5.094   1.680
 1952TIP3    H1 5813   0.277   5.095   1.616
 1952TIP3    H2 5814   0.324   5.025   1.741
 1953TIP3   OH2 5815   1.658   7.272   3.515
 1953TIP3    H1 5816   1.669   7.200   3.578
 1953TIP3    H2 5817   1.593   7.329   3.555
 1954TIP3   OH2 5818   6.753   4.973   4.425
 1954TIP3    H1 5819   6.767   5.056   4.379
 1954TIP3    H2 5820   6.762   4.907   4.356
 1955TIP3   OH2 5821   1.199   1.264   1.128
 1955TIP3    H1 5822   1.217   1.350   1.090
 1955TIP3    H2 5823   1.231   1.202   1.062
 1956TIP3   OH2 5824   8.272   3.224   1.975
 1956TIP3    H1 5825   8.275   3.306   2.023
 1956TIP3    H2 5826   8.204   3.172   2.019
 1957TIP3   OH2 5827   5.226   7.342   6.754
 1957TIP3    H1 5828   5.218   7.432   6.723
 1957TIP3    H2 5829   5.139   7.305   6.744
 1958TIP3   OH2 5830   0.273   7.123   1.056
 1958TIP3    H1 5831   0.329   7.199   1.071
 1958TIP3    H2 5832   0.290   7.065   1.130
 1959TIP3   OH2 5833   1.319   5.069   1.685
 1959TIP3    H1 5834   1.239   5.120   1.671
 1959TIP3    H2 5835   1.289   4.982   1.709
 1960TIP3   OH2 5836   4.304   6.158   0.064
 1960TIP3    H1 5837   4.235   6.098   0.037
 1960TIP3    H2 5838   4.269   6.202   0.141
 1961TIP3   OH2 5839   5.892   0.013   1.993
 1961TIP3    H1 5840   5.838   0.048   2.063
 1961TIP3    H2 5841   5.954  -0.046   2.037
 1962TIP3   OH2 5842   4.354   6.256   2.911
 1962TIP3    H1 5843   4.389   6.239   2.823
 1962TIP3    H2 5844   4.362   6.172   2.957
 1963TIP3   OH2 5845   1.347   7.288   6.300
 1963TIP3    H1 5846   1.279   7.318   6.240
 1963TIP3    H2 5847   1.309   7.299   6.387
 1964TIP3   OH2 5848   7.482   4.651   2.134
 1964TIP3    H1 5849   7.517   4.692   2.213
 1964TIP3    H2 5850   7.556   4.603   2.097
 1965TIP3   OH2 5851   7.213   6.726   1.976
 1965TIP3    H1 5852   7.194   6.698   1.886
 1965TIP3    H2 5853   7.141   6.689   2.028
 1966TIP3   OH2 5854   1.518   2.746   2.327
 1966TIP3    H1 5855   1.483   2.676   2.382
 1966TIP3    H2 5856   1.610   2.723   2.313
 1967TIP3   OH2 5857   1.977   2.888   5.111
 1967TIP3    H1 5858   1.894   2.937   5.110
 1967TIP3    H2 5859   2.030   2.933   5.177
 1968TIP3   OH2 5860   0.088   2.779   5.914
 1968TIP3    H1 5861   0.130   2.694   5.930
 1968TIP3    H2 5862   0.027   2.790   5.987
 1969TIP3   OH2 5863   5.530   2.977   3.985
 1969TIP3    H1 5864   5.584   3.053   4.007
 1969TIP3    H2 5865   5.488   3.001   3.902
 1970TIP3   OH2 5866   3.360   3.935   6.749
 1970TIP3    H1 5867   3.344   3.901   6.836
 1970TIP3    H2 5868   3.313   3.876   6.690
 1971TIP3   OH2 5869   6.119   3.363   6.539
 1971TIP3    H1 5870   6.203   3.353   6.495
 1971TIP3    H2 5871   6.054   3.360   6.469
 1972TIP3   OH2 5872   5.983   3.088   6.701
 1972TIP3    H1 5873   5.982   3.142   6.622
 1972TIP3    H2 5874   6.064   3.038   6.695
 1973TIP3   OH2 5875   6.401   7.037   6.729
 1973TIP3    H1 5876   6.474   7.054   6.670
 1973TIP3    H2 5877   6.323   7.045   6.673
 1974TIP3   OH2 5878   1.289   3.393   4.856
 1974TIP3    H1 5879   1.384   3.380   4.848
 1974TIP3    H2 5880   1.270   3.376   4.948
 1975TIP3   OH2 5881   6.152   5.962   0.316
 1975TIP3    H1 5882   6.094   6.038   0.316
 1975TIP3    H2 5883   6.104   5.895   0.267
 1976TIP3   OH2 5884   1.990   4.898   2.374
 1976TIP3    H1 5885   1.972   4.880   2.466
 1976TIP3    H2 5886   1.962   4.819   2.328
 1977TIP3   OH2 5887   2.214   1.017   2.879
 1977TIP3    H1 5888   2.138   1.023   2.822
 1977TIP3    H2 5889   2.241   1.108   2.893
 1978TIP3   OH2 5890   5.015   1.255   5.242
 1978TIP3    H1 5891   5.070   1.178   5.255
 1978TIP3    H2 5892   5.051   1.321   5.301
 1979TIP3   OH2 5893   5.203   0.030   0.757
 1979TIP3    H1 5894   5.296   0.016   0.771
 1979TIP3    H2 5895   5.180   0.101   0.817
 1980TIP3   OH2 5896   6.728   5.158   1.548
 1980TIP3    H1 5897   6.754   5.078   1.501
 1980TIP3    H2 5898   6.804   5.180   1.602
 1981TIP3   OH2 5899   7.942   4.069   0.454
 1981TIP3    H1 5900   7.919   4.007   0.524
 1981TIP3    H2 5901   8.011   4.025   0.405
 1982TIP3   OH2 5902   3.472   6.313   0.247
 1982TIP3    H1 5903   3.430   6.255   0.311
 1982TIP3    H2 5904   3.537   6.257   0.203
 1983TIP3   OH2 5905   3.569   7.019   4.452
 1983TIP3    H1 5906   3.636   7.043   4.388
 1983TIP3    H2 5907   3.539   6.933   4.423
 1984TIP3   OH2 5908   3.434   6.507   0.433
 1984TIP3    H1 5909   3.386   6.457   0.499
 1984TIP3    H2 5910   3.465   6.441   0.370
 1985TIP3   OH2 5911   3.404   3.066   1.546
 1985TIP3    H1 5912   3.418   3.035   1.636
 1985TIP3    H2 5913   3.381   3.158   1.556
 1986TIP3   OH2 5914   3.417   2.166   0.327
 1986TIP3    H1 5915   3.423   2.258   0.304
 1986TIP3    H2 5916   3.341   2.134   0.279
 1987TIP3   OH2 5917   6.035   3.487   0.672
 1987TIP3    H1 5918   6.032   3.394   0.648
 1987TIP3    H2 5919   6.127   3.512   0.662
 1988TIP3   OH2 5920   5.810   1.629   5.887
 1988TIP3    H1 5921   5.873   1.683   5.936
 1988TIP3    H2 5922   5.859   1.549   5.866
 1989TIP3   OH2 5923   5.230   6.974   0.849
 1989TIP3    H1 5924   5.203   6.929   0.929
 1989TIP3    H2 5925   5.289   7.043   0.879
 1990TIP3   OH2 5926   6.641   1.493   3.180
 1990TIP3    H1 5927   6.596   1.412   3.202
 1990TIP3    H2 5928   6.665   1.483   3.088
 1991TIP3   OH2 5929   7.102   5.071   3.537
 1991TIP3    H1 5930   7.053   5.132   3.592
 1991TIP3    H2 5931   7.047   5.059   3.459
 1992TIP3   OH2 5932   6.801   5.854   5.723
 1992TIP3    H1 5933   6.739   5.865   5.651
 1992TIP3    H2 5934   6.870   5.797   5.688
 1993TIP3   OH2 5935   3.829   4.054   1.871
 1993TIP3    H1 5936   3.867   4.043   1.959
 1993TIP3    H2 5937   3.835   3.967   1.831
 1994TIP3   OH2 5938   5.804   1.090   4.812
 1994TIP3    H1 5939   5.822   0.999   4.838
 1994TIP3    H2 5940   5.888   1.134   4.822
 1995TIP3   OH2 5941   5.388   7.250   5.305
 1995TIP3    H1 5942   5.424   7.249   5.216
 1995TIP3    H2 5943   5.330   7.325   5.307
 1996TIP3   OH2 5944   0.374   5.877   3.803
 1996TIP3    H1 5945   0.378   5.859   3.709
 1996TIP3    H2 5946   0.315   5.952   3.810
 1997TIP3   OH2 5947   1.002   1.961   4.524
 1997TIP3    H1 5948   0.976   1.878   4.484
 1997TIP3    H2 5949   0.957   2.027   4.472
 1998TIP3   OH2 5950   3.845   5.318   2.394
 1998TIP3    H1 5951   3.884   5.272   2.319
 1998TIP3    H2 5952   3.884   5.405   2.391
 1999TIP3   OH2 5953   4.890   3.109   1.490
 1999TIP3    H1 5954   4.867   3.201   1.503
 1999TIP3    H2 5955   4.868   3.067   1.573
 2000TIP3   OH2 5956   3.032   2.738   1.631
 2000TIP3    H1 5957   3.060   2.689   1.708
 2000TIP3    H2 5958   3.108   2.737   1.573
 2001TIP3   OH2 5959   0.247   4.271   4.032
 2001TIP3    H1 5960   0.331   4.286   3.989
 2001TIP3    H2 5961   0.218   4.357   4.060
 2002TIP3   OH2 5962   6.583   3.623   0.571
 2002TIP3    H1 5963   6.548   3.700   0.617
 2002TIP3    H2 5964   6.665   3.604   0.616
 2003TIP3   OH2 5965   4.359   0.545   2.428
 2003TIP3    H1 5966   4.408   0.570   2.506
 2003TIP3    H2 5967   4.319   0.627   2.397
 2004TIP3   OH2 5968   7.268   3.029   1.496
 2004TIP3    H1 5969   7.320   3.043   1.575
 2004TIP3    H2 5970   7.258   2.934   1.491
 2005TIP3   OH2 5971   5.484   1.553   0.286
 2005TIP3    H1 5972   5.573   1.527   0.310
 2005TIP3    H2 5973   5.492   1.591   0.199
 2006TIP3   OH2 5974   0.820   4.724   6.129
 2006TIP3    H1 5975   0.826   4.799   6.070
 2006TIP3    H2 5976   0.905   4.721   6.172
 2007TIP3   OH2 5977   1.019   7.286   1.939
 2007TIP3    H1 5978   1.022   7.380   1.951
 2007TIP3    H2 5979   1.110   7.260   1.922
 2008TIP3   OH2 5980   1.916   4.949   5.640
 2008TIP3    H1 5981   1.841   4.931   5.697
 2008TIP3    H2 5982   1.985   4.978   5.699
 2009TIP3   OH2 5983   1.773   2.038   0.552
 2009TIP3    H1 5984   1.824   2.108   0.512
 2009TIP3    H2 5985   1.696   2.028   0.495
 2010TIP3   OH2 5986   6.556   2.096   2.183
 2010TIP3    H1 5987   6.607   2.176   2.186
 2010TIP3    H2 5988   6.480   2.117   2.128
 2011TIP3   OH2 5989   0.166   6.773   3.980
 2011TIP3    H1 5990   0.253   6.772   3.940
 2011TIP3    H2 5991   0.145   6.866   3.990
 2012TIP3   OH2 5992   0.164   2.367   0.491
 2012TIP3    H1 5993   0.127   2.285   0.521
 2012TIP3    H2 5994   0.214   2.400   0.566
 2013TIP3   OH2 5995   0.521   0.073   2.141
 2013TIP3    H1 5996   0.550   0.001   2.086
 2013TIP3    H2 5997   0.581   0.145   2.121
 2014TIP3   OH2 5998   6.007   1.913   1.675
 2014TIP3    H1 5999   5.954   1.992   1.674
 2014TIP3    H2 6000   5.985   1.870   1.757
 2015TIP3   OH2 6001   0.362   0.927   0.083
 2015TIP3    H1 6002   0.299   0.856   0.092
 2015TIP3    H2 6003   0.439   0.898   0.131
 2016TIP3   OH2 6004   8.108   4.513   6.703
 2016TIP3    H1 6005   8.160   4.550   6.774
 2016TIP3    H2 6006   8.051   4.585   6.675
 2017TIP3   OH2 6007   5.872   2.410   3.335
 2017TIP3    H1 6008   5.787   2.370   3.316
 2017TIP3    H2 6009   5.922   2.399   3.255
 2018TIP3   OH2 6010   5.951   4.465   1.485
 2018TIP3    H1 6011   5.872   4.417   1.460
 2018TIP3    H2 6012   6.017   4.397   1.496
 2019TIP3   OH2 6013   2.734   3.257   3.584
 2019TIP3    H1 6014   2.794   3.228   3.653
 2019TIP3    H2 6015   2.651   3.215   3.605
 2020TIP3   OH2 6016   4.554   5.506   2.435
 2020TIP3    H1 6017   4.647   5.486   2.442
 2020TIP3    H2 6018   4.525   5.519   2.525
 2021TIP3   OH2 6019   0.073   7.067   3.360
 2021TIP3    H1 6020   0.086   7.149   3.312
 2021TIP3    H2 6021   0.101   7.087   3.450
 2022TIP3   OH2 6022   5.372   1.113   3.676
 2022TIP3    H1 6023   5.449   1.065   3.645
 2022TIP3    H2 6024   5.341   1.161   3.599
 2023TIP3   OH2 6025   7.672   1.212   5.518
 2023TIP3    H1 6026   7.613   1.215   5.594
 2023TIP3    H2 6027   7.634   1.273   5.455
 2024TIP3   OH2 6028   6.033   7.745   1.477
 2024TIP3    H1 6029   5.971   7.739   1.405
 2024TIP3    H2 6030   5.978   7.755   1.555
 2025TIP3   OH2 6031   3.976   7.490   5.834
 2025TIP3    H1 6032   3.938   7.574   5.809
 2025TIP3    H2 6033   3.923   7.461   5.909
 2026TIP3   OH2 6034   6.687   2.859   6.738
 2026TIP3    H1 6035   6.706   2.787   6.678
 2026TIP3    H2 6036   6.769   2.875   6.784
 2027TIP3   OH2 6037   7.247   4.683   2.455
 2027TIP3    H1 6038   7.220   4.735   2.531
 2027TIP3    H2 6039   7.212   4.731   2.379
 2028TIP3   OH2 6040   2.515   3.323   2.101
 2028TIP3    H1 6041   2.605   3.302   2.075
 2028TIP3    H2 6042   2.477   3.240   2.128
 2029TIP3   OH2 6043   0.526   0.372   5.374
 2029TIP3    H1 6044   0.489   0.456   5.402
 2029TIP3    H2 6045   0.452   0.326   5.334
 2030TIP3   OH2 6046   1.479   3.425   1.572
 2030TIP3    H1 6047   1.528   3.498   1.534
 2030TIP3    H2 6048   1.475   3.446   1.665
 2031TIP3   OH2 6049   8.244   4.806   3.609
 2031TIP3    H1 6050   8.285   4.769   3.687
 2031TIP3    H2 6051   8.286   4.761   3.536
 2032TIP3   OH2 6052   6.450   0.684   1.001
 2032TIP3    H1 6053   6.525   0.631   1.029
 2032TIP3    H2 6054   6.488   0.759   0.956
 2033TIP3   OH2 6055   6.010   0.168   5.028
 2033TIP3    H1 6056   6.033   0.228   5.099
 2033TIP3    H2 6057   6.093   0.125   5.006
 2034TIP3   OH2 6058   2.482   7.586   2.790
 2034TIP3    H1 6059   2.428   7.651   2.835
 2034TIP3    H2 6060   2.570   7.598   2.827
 2035TIP3   OH2 6061   3.527   6.287   5.995
 2035TIP3    H1 6062   3.577   6.346   5.938
 2035TIP3    H2 6063   3.577   6.285   6.077
 2036TIP3   OH2 6064   1.702   4.578   0.872
 2036TIP3    H1 6065   1.749   4.657   0.844
 2036TIP3    H2 6066   1.751   4.546   0.947
 2037TIP3   OH2 6067   5.868   5.042   4.822
 2037TIP3    H1 6068   5.847   4.948   4.813
 2037TIP3    H2 6069   5.963   5.044   4.828
 2038TIP3   OH2 6070   1.801   7.481   1.821
 2038TIP3    H1 6071   1.755   7.409   1.865
 2038TIP3    H2 6072   1.731   7.537   1.787
 2039TIP3   OH2 6073   3.858   6.604   5.703
 2039TIP3    H1 6074   3.904   6.649   5.774
 2039TIP3    H2 6075   3.928   6.567   5.650
 2040TIP3   OH2 6076   6.064   4.276   3.406
 2040TIP3    H1 6077   6.073   4.361   3.363
 2040TIP3    H2 6078   6.033   4.217   3.337
 2041TIP3   OH2 6079   3.899   5.487   6.070
 2041TIP3    H1 6080   3.883   5.417   6.133
 2041TIP3    H2 6081   3.993   5.480   6.051
 2042TIP3   OH2 6082   7.330   1.146   3.727
 2042TIP3    H1 6083   7.418   1.150   3.689
 2042TIP3    H2 6084   7.289   1.071   3.684
 2043TIP3   OH2 6085   7.051   4.009   6.566
 2043TIP3    H1 6086   7.110   3.935   6.554
 2043TIP3    H2 6087   7.058   4.031   6.659
 2044TIP3   OH2 6088   6.740   5.504   0.793
 2044TIP3    H1 6089   6.664   5.510   0.850
 2044TIP3    H2 6090   6.789   5.585   0.810
 2045TIP3   OH2 6091   6.152   0.990   4.235
 2045TIP3    H1 6092   6.127   1.046   4.162
 2045TIP3    H2 6093   6.071   0.945   4.260
 2046TIP3   OH2 6094   0.067   3.387   5.843
 2046TIP3    H1 6095  -0.020   3.383   5.803
 2046TIP3    H2 6096   0.128   3.373   5.771
 2047TIP3   OH2 6097   4.564   5.006   6.125
 2047TIP3    H1 6098   4.553   5.068   6.197
 2047TIP3    H2 6099   4.514   4.929   6.152
 2048TIP3   OH2 6100   7.190   6.995   4.387
 2048TIP3    H1 6101   7.172   6.990   4.293
 2048TIP3    H2 6102   7.284   6.979   4.395
 2049TIP3   OH2 6103   2.083   7.492   1.775
 2049TIP3    H1 6104   2.129   7.459   1.852
 2049TIP3    H2 6105   1.990   7.486   1.798
 2050TIP3   OH2 6106   3.369   0.593   0.316
 2050TIP3    H1 6107   3.455   0.610   0.279
 2050TIP3    H2 6108   3.308   0.598   0.242
 2051TIP3   OH2 6109   6.894   2.917   2.064
 2051TIP3    H1 6110   6.897   2.902   2.158
 2051TIP3    H2 6111   6.918   2.832   2.026
 2052TIP3   OH2 6112   7.127   2.449   3.488
 2052TIP3    H1 6113   7.045   2.473   3.532
 2052TIP3    H2 6114   7.184   2.525   3.499
 2053TIP3   OH2 6115   7.105   3.967   4.265
 2053TIP3    H1 6116   7.137   4.047   4.308
 2053TIP3    H2 6117   7.183   3.929   4.225
 2054TIP3   OH2 6118   0.037   0.594   3.924
 2054TIP3    H1 6119   0.107   0.536   3.896
 2054TIP3    H2 6120   0.056   0.613   4.016
 2055TIP3   OH2 6121   2.313   5.944   0.459
 2055TIP3    H1 6122   2.274   5.858   0.472
 2055TIP3    H2 6123   2.399   5.926   0.421
 2056TIP3   OH2 6124   4.596   2.173   3.614
 2056TIP3    H1 6125   4.674   2.155   3.562
 2056TIP3    H2 6126   4.623   2.244   3.673
 2057TIP3   OH2 6127   6.770   3.343   2.944
 2057TIP3    H1 6128   6.736   3.323   2.856
 2057TIP3    H2 6129   6.816   3.427   2.933
 2058TIP3   OH2 6130   6.721   7.034   3.191
 2058TIP3    H1 6131   6.627   7.045   3.201
 2058TIP3    H2 6132   6.758   7.117   3.220
 2059TIP3   OH2 6133   3.370   2.575   1.078
 2059TIP3    H1 6134   3.392   2.505   1.017
 2059TIP3    H2 6135   3.313   2.534   1.143
 2060TIP3   OH2 6136   0.609   7.464   0.304
 2060TIP3    H1 6137   0.519   7.483   0.276
 2060TIP3    H2 6138   0.601   7.385   0.357
 2061TIP3   OH2 6139   6.980   2.405   0.845
 2061TIP3    H1 6140   6.958   2.320   0.884
 2061TIP3    H2 6141   6.907   2.462   0.868
 2062TIP3   OH2 6142   3.468   5.819   0.551
 2062TIP3    H1 6143   3.474   5.741   0.497
 2062TIP3    H2 6144   3.408   5.877   0.504
 2063TIP3   OH2 6145   0.812   4.960   5.619
 2063TIP3    H1 6146   0.858   4.914   5.550
 2063TIP3    H2 6147   0.808   4.897   5.691
 2064TIP3   OH2 6148   0.648   5.477   6.761
 2064TIP3    H1 6149   0.615   5.473   6.850
 2064TIP3    H2 6150   0.583   5.429   6.709
 2065TIP3   OH2 6151   5.865   1.796   3.088
 2065TIP3    H1 6152   5.925   1.792   3.162
 2065TIP3    H2 6153   5.845   1.889   3.077
 2066TIP3   OH2 6154   4.320   4.413   0.189
 2066TIP3    H1 6155   4.342   4.482   0.126
 2066TIP3    H2 6156   4.261   4.355   0.142
 2067TIP3   OH2 6157   0.476   2.769   4.596
 2067TIP3    H1 6158   0.467   2.782   4.690
 2067TIP3    H2 6159   0.388   2.783   4.561
 2068TIP3   OH2 6160   3.268   7.058   3.173
 2068TIP3    H1 6161   3.226   6.995   3.114
 2068TIP3    H2 6162   3.361   7.033   3.172
 2069TIP3   OH2 6163   1.942   3.977   5.805
 2069TIP3    H1 6164   1.918   3.907   5.744
 2069TIP3    H2 6165   1.875   4.044   5.791
 2070TIP3   OH2 6166   7.515   0.959   5.543
 2070TIP3    H1 6167   7.460   0.881   5.539
 2070TIP3    H2 6168   7.505   1.000   5.457
 2071TIP3   OH2 6169   0.740   3.722   0.686
 2071TIP3    H1 6170   0.743   3.805   0.734
 2071TIP3    H2 6171   0.832   3.702   0.667
 2072TIP3   OH2 6172   3.612   3.359   6.766
 2072TIP3    H1 6173   3.625   3.265   6.755
 2072TIP3    H2 6174   3.666   3.400   6.698
 2073TIP3   OH2 6175   7.826   1.566   1.039
 2073TIP3    H1 6176   7.844   1.625   1.113
 2073TIP3    H2 6177   7.852   1.616   0.962
 2074TIP3   OH2 6178   6.617   0.311   5.751
 2074TIP3    H1 6179   6.709   0.286   5.751
 2074TIP3    H2 6180   6.615   0.398   5.792
 2075TIP3   OH2 6181   4.909   5.808   1.631
 2075TIP3    H1 6182   4.917   5.901   1.609
 2075TIP3    H2 6183   4.886   5.766   1.548
 2076TIP3   OH2 6184   5.010   7.797   1.644
 2076TIP3    H1 6185   4.969   7.730   1.698
 2076TIP3    H2 6186   5.095   7.759   1.619
 2077TIP3   OH2 6187   6.649   1.242   1.933
 2077TIP3    H1 6188   6.725   1.282   1.975
 2077TIP3    H2 6189   6.586   1.313   1.923
 2078TIP3   OH2 6190   0.300   6.718   2.131
 2078TIP3    H1 6191   0.326   6.630   2.158
 2078TIP3    H2 6192   0.383   6.765   2.122
 2079TIP3   OH2 6193   1.855   1.785   2.323
 2079TIP3    H1 6194   1.864   1.702   2.275
 2079TIP3    H2 6195   1.916   1.777   2.396
 2080TIP3   OH2 6196   2.799   1.292   3.931
 2080TIP3    H1 6197   2.819   1.381   3.961
 2080TIP3    H2 6198   2.859   1.236   3.980
 2081TIP3   OH2 6199   6.487   0.738   1.853
 2081TIP3    H1 6200   6.548   0.664   1.847
 2081TIP3    H2 6201   6.536   0.812   1.817
 2082TIP3   OH2 6202   7.700   3.562   1.570
 2082TIP3    H1 6203   7.674   3.549   1.479
 2082TIP3    H2 6204   7.756   3.487   1.590
 2083TIP3   OH2 6205   4.346   2.216   4.998
 2083TIP3    H1 6206   4.384   2.274   4.932
 2083TIP3    H2 6207   4.388   2.132   4.983
 2084TIP3   OH2 6208   3.677   2.569   4.223
 2084TIP3    H1 6209   3.606   2.615   4.179
 2084TIP3    H2 6210   3.749   2.569   4.159
 2085TIP3   OH2 6211   1.184   7.506   0.063
 2085TIP3    H1 6212   1.146   7.592   0.084
 2085TIP3    H2 6213   1.144   7.481  -0.020
 2086TIP3   OH2 6214   3.676   3.001   1.956
 2086TIP3    H1 6215   3.660   3.083   2.003
 2086TIP3    H2 6216   3.731   2.949   2.014
 2087TIP3   OH2 6217   7.187   0.620   3.276
 2087TIP3    H1 6218   7.130   0.663   3.339
 2087TIP3    H2 6219   7.181   0.675   3.197
 2088TIP3   OH2 6220   1.923   7.302   6.762
 2088TIP3    H1 6221   2.010   7.274   6.790
 2088TIP3    H2 6222   1.881   7.222   6.730
 2089TIP3   OH2 6223   5.565   1.084   1.507
 2089TIP3    H1 6224   5.564   1.093   1.602
 2089TIP3    H2 6225   5.586   0.991   1.492
 2090TIP3   OH2 6226   1.810   1.009   3.642
 2090TIP3    H1 6227   1.850   0.958   3.571
 2090TIP3    H2 6228   1.732   1.047   3.602
 2091TIP3   OH2 6229   6.661   7.550   2.034
 2091TIP3    H1 6230   6.601   7.496   1.983
 2091TIP3    H2 6231   6.652   7.518   2.124
 2092TIP3   OH2 6232   5.347   1.268   1.339
 2092TIP3    H1 6233   5.300   1.232   1.264
 2092TIP3    H2 6234   5.320   1.215   1.413
 2093TIP3   OH2 6235   4.083   5.413   5.621
 2093TIP3    H1 6236   4.030   5.476   5.573
 2093TIP3    H2 6237   4.144   5.377   5.556
 2094TIP3   OH2 6238   2.487  -0.019   1.478
 2094TIP3    H1 6239   2.393  -0.021   1.492
 2094TIP3    H2 6240   2.513   0.070   1.505
 2095TIP3   OH2 6241   4.837   2.729   5.567
 2095TIP3    H1 6242   4.809   2.821   5.574
 2095TIP3    H2 6243   4.761   2.679   5.595
 2096TIP3   OH2 6244   0.796   3.811   5.785
 2096TIP3    H1 6245   0.817   3.859   5.704
 2096TIP3    H2 6246   0.763   3.727   5.754
 2097TIP3   OH2 6247   0.862   3.905   1.134
 2097TIP3    H1 6248   0.942   3.954   1.113
 2097TIP3    H2 6249   0.815   3.960   1.196
 2098TIP3   OH2 6250   5.343   4.387   0.464
 2098TIP3    H1 6251   5.363   4.330   0.538
 2098TIP3    H2 6252   5.357   4.333   0.386
 2099TIP3   OH2 6253   4.178   6.139   2.295
 2099TIP3    H1 6254   4.149   6.193   2.369
 2099TIP3    H2 6255   4.225   6.066   2.335
 2100TIP3   OH2 6256   7.061   4.191   4.469
 2100TIP3    H1 6257   7.032   4.279   4.494
 2100TIP3    H2 6258   7.095   4.153   4.550
 2101TIP3   OH2 6259   3.666   4.566   5.111
 2101TIP3    H1 6260   3.592   4.505   5.116
 2101TIP3    H2 6261   3.742   4.514   5.133
 2102TIP3   OH2 6262   4.695   7.809   2.757
 2102TIP3    H1 6263   4.629   7.783   2.693
 2102TIP3    H2 6264   4.670   7.765   2.837
 2103TIP3   OH2 6265   1.522   1.808   3.176
 2103TIP3    H1 6266   1.508   1.732   3.119
 2103TIP3    H2 6267   1.462   1.794   3.249
 2104TIP3   OH2 6268   5.315   2.676   5.267
 2104TIP3    H1 6269   5.387   2.733   5.293
 2104TIP3    H2 6270   5.240   2.735   5.259
 2105TIP3   OH2 6271   6.506   5.977   0.744
 2105TIP3    H1 6272   6.443   5.928   0.692
 2105TIP3    H2 6273   6.452   6.031   0.803
 2106TIP3   OH2 6274   7.392   2.211   5.545
 2106TIP3    H1 6275   7.464   2.213   5.607
 2106TIP3    H2 6276   7.335   2.283   5.572
 2107TIP3   OH2 6277   3.622   4.073   6.026
 2107TIP3    H1 6278   3.707   4.032   6.011
 2107TIP3    H2 6279   3.639   4.167   6.018
 2108TIP3   OH2 6280   5.854   2.587   1.238
 2108TIP3    H1 6281   5.917   2.655   1.262
 2108TIP3    H2 6282   5.808   2.622   1.162
 2109TIP3   OH2 6283   5.046   5.759   5.765
 2109TIP3    H1 6284   4.974   5.727   5.818
 2109TIP3    H2 6285   5.124   5.725   5.807
 2110TIP3   OH2 6286   6.312   0.473   2.440
 2110TIP3    H1 6287   6.328   0.441   2.351
 2110TIP3    H2 6288   6.369   0.420   2.495
 2111TIP3   OH2 6289   1.612   5.939   1.809
 2111TIP3    H1 6290   1.607   5.940   1.713
 2111TIP3    H2 6291   1.631   6.030   1.832
 2112TIP3   OH2 6292   8.129   1.801   2.173
 2112TIP3    H1 6293   8.050   1.856   2.173
 2112TIP3    H2 6294   8.181   1.834   2.099
 2113TIP3   OH2 6295   1.176   4.306   4.162
 2113TIP3    H1 6296   1.191   4.385   4.110
 2113TIP3    H2 6297   1.139   4.338   4.245
 2114TIP3   OH2 6298   2.690   7.118   5.562
 2114TIP3    H1 6299   2.744   7.188   5.599
 2114TIP3    H2 6300   2.662   7.065   5.637
 2115TIP3   OH2 6301   7.273   2.399   4.452
 2115TIP3    H1 6302   7.254   2.310   4.484
 2115TIP3    H2 6303   7.294   2.448   4.531
 2116TIP3   OH2 6304   4.984   2.168   4.429
 2116TIP3    H1 6305   4.954   2.161   4.338
 2116TIP3    H2 6306   5.073   2.131   4.428
 2117TIP3   OH2 6307   5.713   2.747   3.678
 2117TIP3    H1 6308   5.662   2.715   3.603
 2117TIP3    H2 6309   5.745   2.667   3.721
 2118TIP3   OH2 6310   2.968   5.461   2.690
 2118TIP3    H1 6311   2.972   5.440   2.784
 2118TIP3    H2 6312   2.911   5.394   2.653
 2119TIP3   OH2 6313   0.648   2.117   6.217
 2119TIP3    H1 6314   0.626   2.181   6.285
 2119TIP3    H2 6315   0.715   2.061   6.258
 2120TIP3   OH2 6316   4.781   2.520   2.521
 2120TIP3    H1 6317   4.693   2.501   2.490
 2120TIP3    H2 6318   4.836   2.452   2.482
 2121TIP3   OH2 6319   1.373   6.241   2.947
 2121TIP3    H1 6320   1.431   6.238   2.871
 2121TIP3    H2 6321   1.338   6.330   2.948
 2122TIP3   OH2 6322   2.669   4.832   6.629
 2122TIP3    H1 6323   2.644   4.905   6.685
 2122TIP3    H2 6324   2.654   4.863   6.540
 2123TIP3   OH2 6325   1.187   0.902   2.212
 2123TIP3    H1 6326   1.263   0.849   2.192
 2123TIP3    H2 6327   1.116   0.864   2.159
 2124TIP3   OH2 6328   5.884   4.224   0.569
 2124TIP3    H1 6329   5.883   4.190   0.479
 2124TIP3    H2 6330   5.971   4.200   0.602
 2125TIP3   OH2 6331   0.150   6.805   2.578
 2125TIP3    H1 6332   0.185   6.717   2.595
 2125TIP3    H2 6333   0.132   6.805   2.484
 2126TIP3   OH2 6334   1.109   3.743   2.876
 2126TIP3    H1 6335   1.052   3.709   2.945
 2126TIP3    H2 6336   1.090   3.837   2.874
 2127TIP3   OH2 6337   4.736   1.401   2.193
 2127TIP3    H1 6338   4.649   1.363   2.205
 2127TIP3    H2 6339   4.792   1.327   2.173
 2128TIP3   OH2 6340   1.104   7.011   5.555
 2128TIP3    H1 6341   1.039   6.946   5.581
 2128TIP3    H2 6342   1.072   7.045   5.471
 2129TIP3   OH2 6343   0.568   0.350   3.622
 2129TIP3    H1 6344   0.586   0.444   3.626
 2129TIP3    H2 6345   0.654   0.309   3.622
 2130TIP3   OH2 6346   3.747   4.606   2.109
 2130TIP3    H1 6347   3.718   4.515   2.101
 2130TIP3    H2 6348   3.677   4.657   2.067
 2131TIP3   OH2 6349   4.667   2.582   0.819
 2131TIP3    H1 6350   4.661   2.595   0.724
 2131TIP3    H2 6351   4.677   2.488   0.830
 2132TIP3   OH2 6352   2.672   1.365   4.268
 2132TIP3    H1 6353   2.668   1.442   4.211
 2132TIP3    H2 6354   2.624   1.391   4.347
 2133TIP3   OH2 6355   6.285   1.039   5.759
 2133TIP3    H1 6356   6.336   0.958   5.765
 2133TIP3    H2 6357   6.198   1.015   5.791
 2134TIP3   OH2 6358   0.096   3.828   4.670
 2134TIP3    H1 6359   0.079   3.899   4.732
 2134TIP3    H2 6360   0.175   3.856   4.623
 2135TIP3   OH2 6361   5.718   0.605   0.712
 2135TIP3    H1 6362   5.774   0.546   0.663
 2135TIP3    H2 6363   5.631   0.590   0.677
 2136TIP3   OH2 6364   5.336   0.361   4.098
 2136TIP3    H1 6365   5.250   0.393   4.127
 2136TIP3    H2 6366   5.338   0.270   4.128
 2137TIP3   OH2 6367   0.643   6.161   0.914
 2137TIP3    H1 6368   0.735   6.178   0.936
 2137TIP3    H2 6369   0.639   6.067   0.898
 2138TIP3   OH2 6370   5.538   7.525   5.025
 2138TIP3    H1 6371   5.625   7.506   4.989
 2138TIP3    H2 6372   5.504   7.439   5.051
 2139TIP3   OH2 6373   3.654   5.103   3.291
 2139TIP3    H1 6374   3.600   5.027   3.270
 2139TIP3    H2 6375   3.605   5.151   3.357
 2140TIP3   OH2 6376   1.935   7.684   3.686
 2140TIP3    H1 6377   1.870   7.700   3.618
 2140TIP3    H2 6378   1.964   7.771   3.713
 2141TIP3   OH2 6379   4.112   1.591   5.761
 2141TIP3    H1 6380   4.151   1.667   5.803
 2141TIP3    H2 6381   4.152   1.516   5.805
 2142TIP3   OH2 6382   1.584   0.028   4.837
 2142TIP3    H1 6383   1.659   0.068   4.793
 2142TIP3    H2 6384   1.528  -0.002   4.766
 2143TIP3   OH2 6385   7.953   4.711   2.338
 2143TIP3    H1 6386   7.989   4.634   2.293
 2143TIP3    H2 6387   7.894   4.674   2.404
 2144TIP3   OH2 6388   5.722   3.476   0.899
 2144TIP3    H1 6389   5.796   3.536   0.911
 2144TIP3    H2 6390   5.762   3.389   0.897
 2145TIP3   OH2 6391   4.681   0.301   2.578
 2145TIP3    H1 6392   4.621   0.329   2.509
 2145TIP3    H2 6393   4.626   0.255   2.641
 2146TIP3   OH2 6394   0.386   7.226   4.814
 2146TIP3    H1 6395   0.313   7.166   4.829
 2146TIP3    H2 6396   0.433   7.188   4.739
 2147TIP3   OH2 6397   4.409   1.682   1.142
 2147TIP3    H1 6398   4.352   1.759   1.142
 2147TIP3    H2 6399   4.487   1.710   1.093
 2148TIP3   OH2 6400   6.227   2.220   4.127
 2148TIP3    H1 6401   6.272   2.304   4.130
 2148TIP3    H2 6402   6.296   2.156   4.145
 2149TIP3   OH2 6403   5.245   1.987   3.677
 2149TIP3    H1 6404   5.232   1.982   3.582
 2149TIP3    H2 6405   5.184   2.055   3.706
 2150TIP3   OH2 6406   4.129   3.773   6.716
 2150TIP3    H1 6407   4.128   3.681   6.741
 2150TIP3    H2 6408   4.091   3.774   6.628
 2151TIP3   OH2 6409   4.047   5.016   0.668
 2151TIP3    H1 6410   4.134   5.017   0.708
 2151TIP3    H2 6411   3.987   5.023   0.743
 2152TIP3   OH2 6412   3.147   7.760   6.003
 2152TIP3    H1 6413   3.068   7.705   5.996
 2152TIP3    H2 6414   3.116   7.839   6.049
 2153TIP3   OH2 6415   2.637   0.841   3.566
 2153TIP3    H1 6416   2.620   0.844   3.660
 2153TIP3    H2 6417   2.648   0.748   3.546
 2154TIP3   OH2 6418   5.144   2.411   3.150
 2154TIP3    H1 6419   5.050   2.395   3.158
 2154TIP3    H2 6420   5.183   2.365   3.224
 2155TIP3   OH2 6421   2.679   6.570   3.230
 2155TIP3    H1 6422   2.585   6.550   3.228
 2155TIP3    H2 6423   2.702   6.564   3.323
 2156TIP3   OH2 6424   0.587   3.488   2.586
 2156TIP3    H1 6425   0.591   3.420   2.519
 2156TIP3    H2 6426   0.668   3.538   2.574
 2157TIP3   OH2 6427   7.752   3.889   5.431
 2157TIP3    H1 6428   7.696   3.920   5.502
 2157TIP3    H2 6429   7.701   3.819   5.390
 2158TIP3   OH2 6430   1.892   0.622   2.881
 2158TIP3    H1 6431   1.971   0.586   2.921
 2158TIP3    H2 6432   1.839   0.546   2.858
 2159TIP3   OH2 6433   4.041   0.672   4.422
 2159TIP3    H1 6434   4.019   0.686   4.514
 2159TIP3    H2 6435   3.961   0.696   4.375
 2160TIP3   OH2 6436   2.879   4.094   0.721
 2160TIP3    H1 6437   2.943   4.026   0.746
 2160TIP3    H2 6438   2.906   4.171   0.770
 2161TIP3   OH2 6439   2.908   5.101   0.788
 2161TIP3    H1 6440   2.976   5.134   0.846
 2161TIP3    H2 6441   2.954   5.038   0.731
 2162TIP3   OH2 6442   2.230   5.212   6.155
 2162TIP3    H1 6443   2.222   5.231   6.249
 2162TIP3    H2 6444   2.324   5.218   6.138
 2163TIP3   OH2 6445   0.549   1.434   6.526
 2163TIP3    H1 6446   0.629   1.383   6.543
 2163TIP3    H2 6447   0.481   1.369   6.510
 2164TIP3   OH2 6448   6.951   1.047   2.397
 2164TIP3    H1 6449   7.019   1.050   2.330
 2164TIP3    H2 6450   6.992   1.005   2.472
 2165TIP3   OH2 6451   3.006   1.584   1.092
 2165TIP3    H1 6452   3.043   1.610   1.177
 2165TIP3    H2 6453   3.052   1.639   1.029
 2166TIP3   OH2 6454   5.284   3.493   6.376
 2166TIP3    H1 6455   5.194   3.491   6.407
 2166TIP3    H2 6456   5.331   3.542   6.444
 2167TIP3   OH2 6457   2.488   1.463   0.773
 2167TIP3    H1 6458   2.524   1.421   0.851
 2167TIP3    H2 6459   2.425   1.526   0.807
 2168TIP3   OH2 6460   0.922   1.806   5.593
 2168TIP3    H1 6461   0.915   1.831   5.501
 2168TIP3    H2 6462   0.893   1.883   5.641
 2169TIP3   OH2 6463   5.388   0.516   3.656
 2169TIP3    H1 6464   5.395   0.512   3.752
 2169TIP3    H2 6465   5.356   0.604   3.638
 2170TIP3   OH2 6466   3.137   5.708   3.762
 2170TIP3    H1 6467   3.163   5.718   3.854
 2170TIP3    H2 6468   3.210   5.661   3.721
 2171TIP3   OH2 6469   1.958   0.441   0.454
 2171TIP3    H1 6470   2.021   0.447   0.382
 2171TIP3    H2 6471   1.961   0.350   0.481
 2172TIP3   OH2 6472   7.810   3.715   1.902
 2172TIP3    H1 6473   7.902   3.713   1.925
 2172TIP3    H2 6474   7.784   3.806   1.916
 2173TIP3   OH2 6475   4.495   1.767   5.647
 2173TIP3    H1 6476   4.532   1.701   5.705
 2173TIP3    H2 6477   4.476   1.842   5.705
 2174TIP3   OH2 6478   1.165   4.739   0.098
 2174TIP3    H1 6479   1.238   4.687   0.066
 2174TIP3    H2 6480   1.198   4.781   0.178
 2175TIP3   OH2 6481   4.488   5.714   1.195
 2175TIP3    H1 6482   4.420   5.776   1.166
 2175TIP3    H2 6483   4.495   5.651   1.124
 2176TIP3   OH2 6484   4.958   5.927   6.069
 2176TIP3    H1 6485   5.015   5.851   6.062
 2176TIP3    H2 6486   5.015   6.002   6.054
 2177TIP3   OH2 6487   3.896   6.114   0.709
 2177TIP3    H1 6488   3.831   6.050   0.677
 2177TIP3    H2 6489   3.845   6.193   0.725
 2178TIP3   OH2 6490   0.758   4.452   6.643
 2178TIP3    H1 6491   0.689   4.389   6.620
 2178TIP3    H2 6492   0.734   4.532   6.596
 2179TIP3   OH2 6493   3.552   6.980   3.178
 2179TIP3    H1 6494   3.520   6.895   3.148
 2179TIP3    H2 6495   3.632   6.960   3.228
 2180TIP3   OH2 6496   2.290   0.794   6.157
 2180TIP3    H1 6497   2.202   0.827   6.173
 2180TIP3    H2 6498   2.333   0.863   6.107
 2181TIP3   OH2 6499   0.823   0.463   0.905
 2181TIP3    H1 6500   0.857   0.398   0.844
 2181TIP3    H2 6501   0.737   0.429   0.929
 2182TIP3   OH2 6502   3.308   6.443   4.757
 2182TIP3    H1 6503   3.216   6.431   4.731
 2182TIP3    H2 6504   3.349   6.358   4.739
 2183TIP3   OH2 6505   6.269   7.620   6.569
 2183TIP3    H1 6506   6.355   7.581   6.586
 2183TIP3    H2 6507   6.225   7.557   6.511
 2184TIP3   OH2 6508   1.272   0.008   6.362
 2184TIP3    H1 6509   1.182  -0.004   6.331
 2184TIP3    H2 6510   1.309   0.073   6.302
 2185TIP3   OH2 6511   7.729   2.504   6.520
 2185TIP3    H1 6512   7.780   2.552   6.455
 2185TIP3    H2 6513   7.746   2.412   6.499
 2186TIP3   OH2 6514   1.059   1.055   3.124
 2186TIP3    H1 6515   0.998   1.084   3.056
 2186TIP3    H2 6516   1.146   1.077   3.089
 2187TIP3   OH2 6517   1.917   3.054   0.457
 2187TIP3    H1 6518   1.982   3.122   0.475
 2187TIP3    H2 6519   1.946   2.979   0.510
 2188TIP3   OH2 6520   5.804   1.515   2.559
 2188TIP3    H1 6521   5.827   1.608   2.564
 2188TIP3    H2 6522   5.717   1.510   2.598
 2189TIP3   OH2 6523   2.236   6.368   1.133
 2189TIP3    H1 6524   2.211   6.321   1.213
 2189TIP3    H2 6525   2.186   6.325   1.064
 2190TIP3   OH2 6526   1.115   4.165   6.694
 2190TIP3    H1 6527   1.139   4.242   6.746
 2190TIP3    H2 6528   1.197   4.115   6.687
 2191TIP3   OH2 6529   3.607   3.774   1.130
 2191TIP3    H1 6530   3.699   3.763   1.153
 2191TIP3    H2 6531   3.563   3.700   1.172
 2192TIP3   OH2 6532   4.692   7.356   5.934
 2192TIP3    H1 6533   4.760   7.417   5.906
 2192TIP3    H2 6534   4.633   7.350   5.859
 2193TIP3   OH2 6535   2.369   5.168   5.227
 2193TIP3    H1 6536   2.361   5.162   5.132
 2193TIP3    H2 6537   2.420   5.091   5.252
 2194TIP3   OH2 6538   2.776   3.245   0.510
 2194TIP3    H1 6539   2.831   3.323   0.499
 2194TIP3    H2 6540   2.818   3.196   0.580
 2195TIP3   OH2 6541   6.065   2.022   4.618
 2195TIP3    H1 6542   6.074   2.098   4.560
 2195TIP3    H2 6543   6.089   2.055   4.705
 2196TIP3   OH2 6544   4.909   0.008   2.787
 2196TIP3    H1 6545   4.929   0.047   2.702
 2196TIP3    H2 6546   4.826  -0.039   2.774
 2197TIP3   OH2 6547   4.207   1.371   1.757
 2197TIP3    H1 6548   4.228   1.463   1.774
 2197TIP3    H2 6549   4.169   1.371   1.669
 2198TIP3   OH2 6550   5.874   7.707   5.625
 2198TIP3    H1 6551   5.818   7.735   5.552
 2198TIP3    H2 6552   5.840   7.754   5.701
 2199TIP3   OH2 6553   6.135   6.364   5.864
 2199TIP3    H1 6554   6.124   6.273   5.836
 2199TIP3    H2 6555   6.229   6.375   5.875
 2200TIP3   OH2 6556   1.861   3.822   5.042
 2200TIP3    H1 6557   1.868   3.916   5.056
 2200TIP3    H2 6558   1.894   3.808   4.954
 2201TIP3   OH2 6559   4.727   4.708   1.704
 2201TIP3    H1 6560   4.768   4.768   1.642
 2201TIP3    H2 6561   4.670   4.763   1.757
 2202TIP3   OH2 6562   0.566   3.780   2.744
 2202TIP3    H1 6563   0.482   3.747   2.714
 2202TIP3    H2 6564   0.614   3.800   2.663
 2203TIP3   OH2 6565   7.333   4.624   2.773
 2203TIP3    H1 6566   7.284   4.701   2.744
 2203TIP3    H2 6567   7.267   4.556   2.784
 2204TIP3   OH2 6568   2.521   5.264   1.005
 2204TIP3    H1 6569   2.434   5.304   1.005
 2204TIP3    H2 6570   2.581   5.338   1.000
 2205TIP3   OH2 6571   4.582   2.503   5.317
 2205TIP3    H1 6572   4.576   2.589   5.359
 2205TIP3    H2 6573   4.602   2.443   5.389
 2206TIP3   OH2 6574   2.708   1.544   2.270
 2206TIP3    H1 6575   2.639   1.588   2.318
 2206TIP3    H2 6576   2.789   1.582   2.304
 2207TIP3   OH2 6577   7.640   7.620   2.453
 2207TIP3    H1 6578   7.545   7.621   2.442
 2207TIP3    H2 6579   7.666   7.533   2.423
 2208TIP3   OH2 6580   4.127   3.505   3.568
 2208TIP3    H1 6581   4.063   3.482   3.636
 2208TIP3    H2 6582   4.122   3.601   3.564
 2209TIP3   OH2 6583   7.170   4.301   0.684
 2209TIP3    H1 6584   7.146   4.264   0.599
 2209TIP3    H2 6585   7.264   4.285   0.692
 2210TIP3   OH2 6586   7.985   1.908   5.948
 2210TIP3    H1 6587   7.897   1.932   5.978
 2210TIP3    H2 6588   8.043   1.972   5.990
 2211TIP3   OH2 6589   4.840   1.392   5.782
 2211TIP3    H1 6590   4.788   1.409   5.703
 2211TIP3    H2 6591   4.901   1.466   5.786
 2212TIP3   OH2 6592   3.541   7.662   2.909
 2212TIP3    H1 6593   3.633   7.677   2.930
 2212TIP3    H2 6594   3.538   7.572   2.875
 2213TIP3   OH2 6595   2.104   4.180   5.681
 2213TIP3    H1 6596   2.055   4.119   5.735
 2213TIP3    H2 6597   2.184   4.198   5.732
 2214TIP3   OH2 6598   3.061   1.667   6.321
 2214TIP3    H1 6599   2.974   1.703   6.305
 2214TIP3    H2 6600   3.122   1.736   6.294
 2215TIP3   OH2 6601   6.957   1.613   4.026
 2215TIP3    H1 6602   6.888   1.671   4.058
 2215TIP3    H2 6603   6.918   1.525   4.029
 2216TIP3   OH2 6604   3.182   6.763   5.044
 2216TIP3    H1 6605   3.189   6.806   5.129
 2216TIP3    H2 6606   3.134   6.682   5.062
 2217TIP3   OH2 6607   3.649   5.043   2.888
 2217TIP3    H1 6608   3.734   5.031   2.844
 2217TIP3    H2 6609   3.666   5.108   2.955
 2218TIP3   OH2 6610   0.780   7.523   5.647
 2218TIP3    H1 6611   0.868   7.504   5.614
 2218TIP3    H2 6612   0.762   7.612   5.618
 2219TIP3   OH2 6613   5.964   3.863   4.433
 2219TIP3    H1 6614   5.971   3.944   4.484
 2219TIP3    H2 6615   6.020   3.800   4.480
 2220TIP3   OH2 6616   4.822   0.994   5.112
 2220TIP3    H1 6617   4.738   1.022   5.146
 2220TIP3    H2 6618   4.801   0.922   5.052
 2221TIP3   OH2 6619   2.534   1.990   0.310
 2221TIP3    H1 6620   2.589   2.051   0.359
 2221TIP3    H2 6621   2.474   2.046   0.261
 2222TIP3   OH2 6622   3.685   4.145   5.716
 2222TIP3    H1 6623   3.756   4.159   5.778
 2222TIP3    H2 6624   3.610   4.190   5.756
 2223TIP3   OH2 6625   5.190   2.360   2.276
 2223TIP3    H1 6626   5.114   2.318   2.236
 2223TIP3    H2 6627   5.168   2.365   2.369
 2224TIP3   OH2 6628   1.573   3.824   1.640
 2224TIP3    H1 6629   1.630   3.825   1.563
 2224TIP3    H2 6630   1.633   3.811   1.714
 2225TIP3   OH2 6631   1.801   0.817   0.881
 2225TIP3    H1 6632   1.831   0.843   0.793
 2225TIP3    H2 6633   1.803   0.899   0.931
 2226TIP3   OH2 6634   3.605   1.898   5.637
 2226TIP3    H1 6635   3.700   1.888   5.642
 2226TIP3    H2 6636   3.585   1.964   5.704
 2227TIP3   OH2 6637   6.563   1.556   3.451
 2227TIP3    H1 6638   6.637   1.546   3.511
 2227TIP3    H2 6639   6.584   1.500   3.377
 2228TIP3   OH2 6640   0.656   0.289   2.675
 2228TIP3    H1 6641   0.682   0.310   2.586
 2228TIP3    H2 6642   0.697   0.204   2.693
 2229TIP3   OH2 6643   5.347   1.044   3.981
 2229TIP3    H1 6644   5.398   0.995   3.917
 2229TIP3    H2 6645   5.411   1.082   4.040
 2230TIP3   OH2 6646   2.814   0.751   0.163
 2230TIP3    H1 6647   2.838   0.815   0.230
 2230TIP3    H2 6648   2.838   0.666   0.201
 2231TIP3   OH2 6649   1.916   2.297   3.348
 2231TIP3    H1 6650   1.946   2.248   3.271
 2231TIP3    H2 6651   1.856   2.238   3.393
 2232TIP3   OH2 6652   4.401   3.610   4.981
 2232TIP3    H1 6653   4.385   3.583   5.071
 2232TIP3    H2 6654   4.319   3.651   4.952
 2233TIP3   OH2 6655   0.043   1.739   4.485
 2233TIP3    H1 6656   0.072   1.721   4.396
 2233TIP3    H2 6657  -0.045   1.777   4.475
 2234TIP3   OH2 6658   6.708   6.832   1.029
 2234TIP3    H1 6659   6.667   6.794   1.106
 2234TIP3    H2 6660   6.635   6.867   0.977
 2235TIP3   OH2 6661   5.609   5.023   6.124
 2235TIP3    H1 6662   5.551   5.049   6.196
 2235TIP3    H2 6663   5.621   5.102   6.073
 2236TIP3   OH2 6664   4.195   0.544   6.547
 2236TIP3    H1 6665   4.272   0.595   6.573
 2236TIP3    H2 6666   4.160   0.590   6.471
 2237TIP3   OH2 6667   1.228   4.499   4.563
 2237TIP3    H1 6668   1.142   4.497   4.522
 2237TIP3    H2 6669   1.290   4.508   4.490
 2238TIP3   OH2 6670   1.139   6.721   6.477
 2238TIP3    H1 6671   1.092   6.647   6.517
 2238TIP3    H2 6672   1.077   6.755   6.412
 2239TIP3   OH2 6673   7.478   5.192   5.368
 2239TIP3    H1 6674   7.407   5.211   5.308
 2239TIP3    H2 6675   7.443   5.213   5.455
 2240TIP3   OH2 6676   3.603   4.792   5.970
 2240TIP3    H1 6677   3.579   4.860   5.908
 2240TIP3    H2 6678   3.676   4.830   6.020
 2241TIP3   OH2 6679   4.051   7.528   5.495
 2241TIP3    H1 6680   4.121   7.466   5.513
 2241TIP3    H2 6681   4.026   7.562   5.581
 2242TIP3   OH2 6682   5.928   2.417   4.273
 2242TIP3    H1 6683   5.883   2.459   4.347
 2242TIP3    H2 6684   5.971   2.490   4.228
 2243TIP3   OH2 6685   3.118   2.423   1.135
 2243TIP3    H1 6686   3.111   2.331   1.110
 2243TIP3    H2 6687   3.116   2.421   1.231
 2244TIP3   OH2 6688   0.963   2.333   4.492
 2244TIP3    H1 6689   0.951   2.418   4.449
 2244TIP3    H2 6690   0.978   2.354   4.584
 2245TIP3   OH2 6691   5.801   3.923   6.750
 2245TIP3    H1 6692   5.871   3.959   6.695
 2245TIP3    H2 6693   5.800   3.980   6.828
 2246TIP3   OH2 6694   1.207   0.095   4.773
 2246TIP3    H1 6695   1.225   0.020   4.829
 2246TIP3    H2 6696   1.291   0.141   4.766
 2247TIP3   OH2 6697   7.657   3.708   6.042
 2247TIP3    H1 6698   7.595   3.713   6.114
 2247TIP3    H2 6699   7.644   3.790   5.994
 2248TIP3   OH2 6700   1.650   4.093   6.675
 2248TIP3    H1 6701   1.727   4.077   6.621
 2248TIP3    H2 6702   1.681   4.083   6.765
 2249TIP3   OH2 6703   2.044   1.749   1.947
 2249TIP3    H1 6704   2.035   1.766   1.853
 2249TIP3    H2 6705   1.966   1.789   1.986
 2250TIP3   OH2 6706   4.234   7.796   2.113
 2250TIP3    H1 6707   4.279   7.852   2.049
 2250TIP3    H2 6708   4.141   7.816   2.102
 2251TIP3   OH2 6709   2.542   2.384   5.868
 2251TIP3    H1 6710   2.595   2.339   5.933
 2251TIP3    H2 6711   2.509   2.314   5.811
 2252TIP3   OH2 6712   7.317   2.290   4.141
 2252TIP3    H1 6713   7.249   2.342   4.099
 2252TIP3    H2 6714   7.386   2.353   4.160
 2253TIP3   OH2 6715   3.316   7.333   6.152
 2253TIP3    H1 6716   3.402   7.290   6.158
 2253TIP3    H2 6717   3.337   7.426   6.152
 2254TIP3   OH2 6718   7.695   5.519   0.166
 2254TIP3    H1 6719   7.613   5.542   0.123
 2254TIP3    H2 6720   7.738   5.459   0.106
 2255TIP3   OH2 6721   3.461   3.802   3.647
 2255TIP3    H1 6722   3.511   3.723   3.672
 2255TIP3    H2 6723   3.527   3.862   3.613
 2256TIP3   OH2 6724   0.940   6.881   0.102
 2256TIP3    H1 6725   1.023   6.842   0.076
 2256TIP3    H2 6726   0.964   6.965   0.141
 2257TIP3   OH2 6727   1.984   2.102   2.827
 2257TIP3    H1 6728   2.039   2.029   2.799
 2257TIP3    H2 6729   1.915   2.107   2.762
 2258TIP3   OH2 6730   0.586   2.091   2.688
 2258TIP3    H1 6731   0.509   2.137   2.653
 2258TIP3    H2 6732   0.562   2.069   2.778
 2259TIP3   OH2 6733   1.372   0.765   3.446
 2259TIP3    H1 6734   1.400   0.795   3.359
 2259TIP3    H2 6735   1.446   0.715   3.480
 2260TIP3   OH2 6736   8.160   4.987   2.730
 2260TIP3    H1 6737   8.210   5.042   2.791
 2260TIP3    H2 6738   8.095   4.944   2.785
 2261TIP3   OH2 6739   7.811   0.358   5.466
 2261TIP3    H1 6740   7.881   0.420   5.483
 2261TIP3    H2 6741   7.763   0.353   5.549
 2262TIP3   OH2 6742   0.272   2.503   1.378
 2262TIP3    H1 6743   0.298   2.447   1.451
 2262TIP3    H2 6744   0.196   2.459   1.341
 2263TIP3   OH2 6745   6.780   5.410   2.019
 2263TIP3    H1 6746   6.805   5.480   1.959
 2263TIP3    H2 6747   6.797   5.447   2.106
 2264TIP3   OH2 6748   2.535   4.453   0.917
 2264TIP3    H1 6749   2.462   4.500   0.957
 2264TIP3    H2 6750   2.509   4.440   0.826
 2265TIP3   OH2 6751   3.086   3.748   2.646
 2265TIP3    H1 6752   3.170   3.751   2.599
 2265TIP3    H2 6753   3.026   3.797   2.590
 2266TIP3   OH2 6754   0.642   1.804   1.222
 2266TIP3    H1 6755   0.589   1.779   1.147
 2266TIP3    H2 6756   0.690   1.724   1.245
 2267TIP3   OH2 6757   3.097   2.193   6.358
 2267TIP3    H1 6758   3.102   2.256   6.286
 2267TIP3    H2 6759   3.095   2.247   6.437
 2268TIP3   OH2 6760   7.643   7.113   3.475
 2268TIP3    H1 6761   7.714   7.091   3.535
 2268TIP3    H2 6762   7.684   7.111   3.389
 2269TIP3   OH2 6763   3.410   4.233   2.125
 2269TIP3    H1 6764   3.332   4.177   2.119
 2269TIP3    H2 6765   3.416   4.255   2.218
 2270TIP3   OH2 6766   7.795   0.735   5.087
 2270TIP3    H1 6767   7.764   0.804   5.145
 2270TIP3    H2 6768   7.806   0.658   5.143
 2271TIP3   OH2 6769   6.622   0.254   4.357
 2271TIP3    H1 6770   6.646   0.162   4.370
 2271TIP3    H2 6771   6.696   0.304   4.392
 2272TIP3   OH2 6772   0.571   6.860   4.850
 2272TIP3    H1 6773   0.509   6.896   4.787
 2272TIP3    H2 6774   0.610   6.936   4.893
 2273TIP3   OH2 6775   6.110   3.319   5.567
 2273TIP3    H1 6776   6.072   3.400   5.533
 2273TIP3    H2 6777   6.126   3.337   5.660
 2274TIP3   OH2 6778   5.767   3.543   4.139
 2274TIP3    H1 6779   5.858   3.536   4.169
 2274TIP3    H2 6780   5.774   3.555   4.044
 2275TIP3   OH2 6781   0.290   7.289   3.874
 2275TIP3    H1 6782   0.241   7.330   3.946
 2275TIP3    H2 6783   0.339   7.361   3.834
 2276TIP3   OH2 6784   4.321   7.700   0.785
 2276TIP3    H1 6785   4.267   7.741   0.852
 2276TIP3    H2 6786   4.393   7.661   0.834
 2277TIP3   OH2 6787   0.591   7.120   2.191
 2277TIP3    H1 6788   0.601   7.077   2.276
 2277TIP3    H2 6789   0.680   7.130   2.158
 2278TIP3   OH2 6790   1.353   1.639   1.840
 2278TIP3    H1 6791   1.385   1.687   1.763
 2278TIP3    H2 6792   1.259   1.632   1.827
 2279TIP3   OH2 6793   0.928   4.535   4.050
 2279TIP3    H1 6794   0.953   4.484   3.973
 2279TIP3    H2 6795   0.835   4.552   4.039
 2280TIP3   OH2 6796   2.177   4.469   3.961
 2280TIP3    H1 6797   2.098   4.425   3.994
 2280TIP3    H2 6798   2.161   4.562   3.975
 2281TIP3   OH2 6799   3.334   2.255   5.097
 2281TIP3    H1 6800   3.392   2.305   5.040
 2281TIP3    H2 6801   3.326   2.309   5.176
 2282TIP3   OH2 6802   1.153   1.076   5.692
 2282TIP3    H1 6803   1.228   1.082   5.751
 2282TIP3    H2 6804   1.191   1.049   5.608
 2283TIP3   OH2 6805   1.683   3.915   0.428
 2283TIP3    H1 6806   1.665   3.860   0.505
 2283TIP3    H2 6807   1.731   3.990   0.463
 2284TIP3   OH2 6808   8.152   6.507   5.590
 2284TIP3    H1 6809   8.161   6.449   5.515
 2284TIP3    H2 6810   8.234   6.497   5.638
 2285TIP3   OH2 6811   4.728   3.436   0.850
 2285TIP3    H1 6812   4.738   3.474   0.763
 2285TIP3    H2 6813   4.788   3.486   0.906
 2286TIP3   OH2 6814   4.329   4.871   3.783
 2286TIP3    H1 6815   4.422   4.893   3.792
 2286TIP3    H2 6816   4.283   4.943   3.827
 2287TIP3   OH2 6817   1.141   0.986   5.203
 2287TIP3    H1 6818   1.204   1.055   5.224
 2287TIP3    H2 6819   1.075   1.031   5.150
 2288TIP3   OH2 6820   6.572   1.897   5.549
 2288TIP3    H1 6821   6.522   1.951   5.609
 2288TIP3    H2 6822   6.569   1.944   5.465
 2289TIP3   OH2 6823   4.188   4.259   4.170
 2289TIP3    H1 6824   4.093   4.267   4.155
 2289TIP3    H2 6825   4.197   4.180   4.224
 2290TIP3   OH2 6826   5.580   6.068   3.019
 2290TIP3    H1 6827   5.622   6.003   3.077
 2290TIP3    H2 6828   5.606   6.041   2.931
 2291TIP3   OH2 6829   3.680   5.761   5.629
 2291TIP3    H1 6830   3.649   5.748   5.719
 2291TIP3    H2 6831   3.600   5.781   5.580
 2292TIP3   OH2 6832   2.728   1.151   5.556
 2292TIP3    H1 6833   2.635   1.173   5.564
 2292TIP3    H2 6834   2.755   1.191   5.474
 2293TIP3   OH2 6835   4.107   3.196   2.897
 2293TIP3    H1 6836   4.104   3.174   2.804
 2293TIP3    H2 6837   4.138   3.286   2.900
 2294TIP3   OH2 6838   4.874   0.890   0.818
 2294TIP3    H1 6839   4.899   0.888   0.725
 2294TIP3    H2 6840   4.928   0.958   0.856
 2295TIP3   OH2 6841   0.220   4.761   2.957
 2295TIP3    H1 6842   0.220   4.848   2.996
 2295TIP3    H2 6843   0.281   4.710   3.010
 2296TIP3   OH2 6844   2.042   5.256   5.201
 2296TIP3    H1 6845   2.027   5.347   5.225
 2296TIP3    H2 6846   2.046   5.256   5.105
 2297TIP3   OH2 6847   4.204   6.924   5.426
 2297TIP3    H1 6848   4.123   6.964   5.394
 2297TIP3    H2 6849   4.267   6.996   5.425
 2298TIP3   OH2 6850   2.053   6.901   6.751
 2298TIP3    H1 6851   2.088   6.990   6.760
 2298TIP3    H2 6852   2.104   6.862   6.681
 2299TIP3   OH2 6853   1.291   1.314   2.416
 2299TIP3    H1 6854   1.352   1.247   2.444
 2299TIP3    H2 6855   1.338   1.397   2.430
 2300TIP3   OH2 6856   1.151   0.776   6.425
 2300TIP3    H1 6857   1.222   0.822   6.381
 2300TIP3    H2 6858   1.188   0.689   6.445
 2301TIP3   OH2 6859   6.593   1.145   4.425
 2301TIP3    H1 6860   6.519   1.140   4.365
 2301TIP3    H2 6861   6.610   1.238   4.435
 2302TIP3   OH2 6862   4.585   2.781   2.292
 2302TIP3    H1 6863   4.561   2.873   2.302
 2302TIP3    H2 6864   4.562   2.741   2.376
 2303TIP3   OH2 6865   3.172   0.774   5.746
 2303TIP3    H1 6866   3.160   0.815   5.832
 2303TIP3    H2 6867   3.266   0.761   5.739
 2304TIP3   OH2 6868   5.598   3.252   5.828
 2304TIP3    H1 6869   5.653   3.182   5.864
 2304TIP3    H2 6870   5.659   3.319   5.801
 2305TIP3   OH2 6871   7.981   0.296   0.450
 2305TIP3    H1 6872   7.971   0.313   0.543
 2305TIP3    H2 6873   8.059   0.347   0.425
 2306TIP3   OH2 6874   7.485   0.022   1.029
 2306TIP3    H1 6875   7.567   0.063   1.000
 2306TIP3    H2 6876   7.441   0.090   1.081
 2307TIP3   OH2 6877   6.448   1.338   5.427
 2307TIP3    H1 6878   6.363   1.379   5.414
 2307TIP3    H2 6879   6.459   1.334   5.522
 2308TIP3   OH2 6880   1.629   5.421   2.169
 2308TIP3    H1 6881   1.568   5.348   2.181
 2308TIP3    H2 6882   1.636   5.460   2.256
 2309TIP3   OH2 6883   6.969   0.986   3.394
 2309TIP3    H1 6884   6.949   0.964   3.303
 2309TIP3    H2 6885   7.040   1.050   3.388
 2310TIP3   OH2 6886   5.369   6.246   2.578
 2310TIP3    H1 6887   5.406   6.304   2.644
 2310TIP3    H2 6888   5.442   6.223   2.521
 2311TIP3   OH2 6889   6.652   2.309   6.018
 2311TIP3    H1 6890   6.616   2.289   5.932
 2311TIP3    H2 6891   6.746   2.305   6.006
 2312TIP3   OH2 6892   6.636   2.401   4.727
 2312TIP3    H1 6893   6.711   2.424   4.673
 2312TIP3    H2 6894   6.560   2.427   4.675
 2313TIP3   OH2 6895   4.823   6.719   1.119
 2313TIP3    H1 6896   4.877   6.795   1.097
 2313TIP3    H2 6897   4.844   6.701   1.211
 2314TIP3   OH2 6898   2.192   3.191   4.526
 2314TIP3    H1 6899   2.227   3.262   4.580
 2314TIP3    H2 6900   2.157   3.235   4.448
 2315TIP3   OH2 6901   3.960   2.853   6.414
 2315TIP3    H1 6902   3.942   2.838   6.507
 2315TIP3    H2 6903   3.894   2.917   6.387
 2316TIP3   OH2 6904   2.696   4.331   5.447
 2316TIP3    H1 6905   2.617   4.345   5.394
 2316TIP3    H2 6906   2.735   4.419   5.456
 2317TIP3   OH2 6907   5.413   1.074   5.141
 2317TIP3    H1 6908   5.504   1.047   5.129
 2317TIP3    H2 6909   5.373   1.062   5.056
 2318TIP3   OH2 6910   5.468   3.287   5.077
 2318TIP3    H1 6911   5.404   3.327   5.019
 2318TIP3    H2 6912   5.419   3.269   5.157
 2319TIP3   OH2 6913   2.149   3.801   5.935
 2319TIP3    H1 6914   2.192   3.737   5.879
 2319TIP3    H2 6915   2.088   3.846   5.877
 2320TIP3   OH2 6916   0.720   1.546   0.351
 2320TIP3    H1 6917   0.794   1.582   0.401
 2320TIP3    H2 6918   0.758   1.527   0.265
 2321TIP3   OH2 6919   4.036   4.690   6.740
 2321TIP3    H1 6920   3.981   4.704   6.663
 2321TIP3    H2 6921   3.975   4.668   6.810
 2322TIP3   OH2 6922   2.999   2.595   3.758
 2322TIP3    H1 6923   3.019   2.582   3.851
 2322TIP3    H2 6924   2.906   2.577   3.751
 2323TIP3   OH2 6925   0.214   1.451   3.772
 2323TIP3    H1 6926   0.228   1.372   3.823
 2323TIP3    H2 6927   0.240   1.428   3.683
 2324TIP3   OH2 6928   4.311   5.000   0.481
 2324TIP3    H1 6929   4.381   4.943   0.514
 2324TIP3    H2 6930   4.321   4.998   0.386
 2325TIP3   OH2 6931   1.393   6.755   3.682
 2325TIP3    H1 6932   1.455   6.745   3.754
 2325TIP3    H2 6933   1.446   6.790   3.610
 2326TIP3   OH2 6934   3.236   3.336   6.236
 2326TIP3    H1 6935   3.292   3.302   6.306
 2326TIP3    H2 6936   3.193   3.413   6.275
 2327TIP3   OH2 6937   2.499   5.888   0.756
 2327TIP3    H1 6938   2.562   5.951   0.792
 2327TIP3    H2 6939   2.421   5.940   0.737
 2328TIP3   OH2 6940   1.762   6.752   0.874
 2328TIP3    H1 6941   1.834   6.788   0.924
 2328TIP3    H2 6942   1.781   6.775   0.783
 2329TIP3   OH2 6943   2.236   6.547   1.666
 2329TIP3    H1 6944   2.324   6.519   1.690
 2329TIP3    H2 6945   2.246   6.586   1.579
 2330TIP3   OH2 6946   7.247   3.948   4.871
 2330TIP3    H1 6947   7.326   3.925   4.920
 2330TIP3    H2 6948   7.197   3.867   4.866
 2331TIP3   OH2 6949   2.543   3.699   4.713
 2331TIP3    H1 6950   2.555   3.675   4.621
 2331TIP3    H2 6951   2.515   3.790   4.710
 2332TIP3   OH2 6952   7.932   6.695   1.234
 2332TIP3    H1 6953   7.955   6.647   1.313
 2332TIP3    H2 6954   7.850   6.657   1.205
 2333TIP3   OH2 6955   5.531   6.762   1.743
 2333TIP3    H1 6956   5.594   6.760   1.816
 2333TIP3    H2 6957   5.581   6.733   1.667
 2334TIP3   OH2 6958   2.252   0.909   5.066
 2334TIP3    H1 6959   2.278   0.872   5.151
 2334TIP3    H2 6960   2.168   0.867   5.047
 2335TIP3   OH2 6961   0.708   2.412   0.895
 2335TIP3    H1 6962   0.616   2.439   0.897
 2335TIP3    H2 6963   0.706   2.321   0.865
 2336TIP3   OH2 6964   6.012   5.913   6.414
 2336TIP3    H1 6965   6.065   5.858   6.356
 2336TIP3    H2 6966   6.044   6.002   6.397
 2337TIP3   OH2 6967   1.375   6.058   4.128
 2337TIP3    H1 6968   1.406   6.053   4.038
 2337TIP3    H2 6969   1.362   5.967   4.155
 2338TIP3   OH2 6970   7.711   6.250   2.767
 2338TIP3    H1 6971   7.703   6.330   2.818
 2338TIP3    H2 6972   7.642   6.257   2.701
 2339TIP3   OH2 6973   2.522   4.856   0.604
 2339TIP3    H1 6974   2.485   4.939   0.635
 2339TIP3    H2 6975   2.547   4.873   0.513
 2340TIP3   OH2 6976   4.342   2.218   2.699
 2340TIP3    H1 6977   4.293   2.173   2.769
 2340TIP3    H2 6978   4.318   2.171   2.620
 2341TIP3   OH2 6979   1.147   5.528   2.927
 2341TIP3    H1 6980   1.204   5.470   2.978
 2341TIP3    H2 6981   1.130   5.602   2.984
 2342TIP3   OH2 6982   6.403   7.393   0.462
 2342TIP3    H1 6983   6.418   7.434   0.377
 2342TIP3    H2 6984   6.446   7.452   0.524
 2343TIP3   OH2 6985   0.163   5.004   2.230
 2343TIP3    H1 6986   0.187   5.070   2.165
 2343TIP3    H2 6987   0.134   4.929   2.178
 2344TIP3   OH2 6988   0.723   4.861   5.246
 2344TIP3    H1 6989   0.660   4.928   5.274
 2344TIP3    H2 6990   0.712   4.856   5.151
 2345TIP3   OH2 6991   4.729   3.081   3.695
 2345TIP3    H1 6992   4.667   3.019   3.732
 2345TIP3    H2 6993   4.675   3.149   3.655
 2346TIP3   OH2 6994   6.098   6.122   5.704
 2346TIP3    H1 6995   6.078   6.035   5.669
 2346TIP3    H2 6996   6.059   6.182   5.640
 2347TIP3   OH2 6997   6.364   6.770   3.214
 2347TIP3    H1 6998   6.322   6.739   3.133
 2347TIP3    H2 6999   6.323   6.717   3.283
 2348TIP3   OH2 7000   7.679   6.375   3.889
 2348TIP3    H1 7001   7.719   6.374   3.802
 2348TIP3    H2 7002   7.600   6.428   3.878
 2349TIP3   OH2 7003   0.258   2.750   3.169
 2349TIP3    H1 7004   0.269   2.676   3.228
 2349TIP3    H2 7005   0.164   2.763   3.164
 2350TIP3   OH2 7006   0.296   6.391   0.232
 2350TIP3    H1 7007   0.276   6.315   0.286
 2350TIP3    H2 7008   0.392   6.398   0.234
 2351TIP3   OH2 7009   7.941   7.238   0.820
 2351TIP3    H1 7010   7.861   7.199   0.785
 2351TIP3    H2 7011   7.998   7.164   0.841
 2352TIP3   OH2 7012   3.705   4.799   3.612
 2352TIP3    H1 7013   3.764   4.835   3.545
 2352TIP3    H2 7014   3.737   4.837   3.694
 2353TIP3   OH2 7015   3.228   5.068   1.828
 2353TIP3    H1 7016   3.223   5.141   1.890
 2353TIP3    H2 7017   3.137   5.040   1.817
 2354TIP3   OH2 7018   1.057   1.405   0.254
 2354TIP3    H1 7019   1.118   1.342   0.216
 2354TIP3    H2 7020   1.100   1.490   0.242
 2355TIP3   OH2 7021   1.628   4.937   3.856
 2355TIP3    H1 7022   1.706   4.907   3.809
 2355TIP3    H2 7023   1.573   4.859   3.863
 2356TIP3   OH2 7024   4.976   2.989   3.005
 2356TIP3    H1 7025   4.971   2.912   2.948
 2356TIP3    H2 7026   5.027   3.053   2.956
 2357TIP3   OH2 7027   6.320   6.170   0.493
 2357TIP3    H1 7028   6.239   6.209   0.461
 2357TIP3    H2 7029   6.341   6.102   0.429
 2358TIP3   OH2 7030   3.050   1.888   1.172
 2358TIP3    H1 7031   3.064   1.812   1.228
 2358TIP3    H2 7032   2.955   1.901   1.171
 2359TIP3   OH2 7033   1.082   4.855   1.174
 2359TIP3    H1 7034   1.163   4.814   1.206
 2359TIP3    H2 7035   1.018   4.837   1.242
 2360TIP3   OH2 7036   1.010   0.108   1.120
 2360TIP3    H1 7037   1.066   0.152   1.055
 2360TIP3    H2 7038   1.034   0.016   1.113
 2361TIP3   OH2 7039   7.915   6.837   5.352
 2361TIP3    H1 7040   7.980   6.767   5.358
 2361TIP3    H2 7041   7.908   6.855   5.258
 2362TIP3   OH2 7042   2.096   2.448   1.305
 2362TIP3    H1 7043   2.179   2.490   1.284
 2362TIP3    H2 7044   2.121   2.362   1.339
 2363TIP3   OH2 7045   2.820   5.636   5.958
 2363TIP3    H1 7046   2.771   5.713   5.986
 2363TIP3    H2 7047   2.765   5.595   5.892
 2364TIP3   OH2 7048   6.953   6.511   6.300
 2364TIP3    H1 7049   7.016   6.580   6.277
 2364TIP3    H2 7050   6.879   6.558   6.339
 2365TIP3   OH2 7051   4.231   0.819  -0.001
 2365TIP3    H1 7052   4.183   0.841   0.079
 2365TIP3    H2 7053   4.193   0.736  -0.030
 2366TIP3   OH2 7054   5.723   0.699   3.854
 2366TIP3    H1 7055   5.701   0.656   3.771
 2366TIP3    H2 7056   5.729   0.627   3.917
 2367TIP3   OH2 7057   2.066   7.496   5.419
 2367TIP3    H1 7058   2.153   7.502   5.381
 2367TIP3    H2 7059   2.008   7.477   5.344
 2368TIP3   OH2 7060   5.044   0.630   6.533
 2368TIP3    H1 7061   5.031   0.596   6.622
 2368TIP3    H2 7062   5.134   0.605   6.511
 2369TIP3   OH2 7063   8.200   2.589   1.738
 2369TIP3    H1 7064   8.194   2.685   1.744
 2369TIP3    H2 7065   8.159   2.558   1.818
 2370TIP3   OH2 7066   4.501   5.496   5.788
 2370TIP3    H1 7067   4.457   5.413   5.805
 2370TIP3    H2 7068   4.431   5.558   5.773
 2371TIP3   OH2 7069   4.487   3.155   4.230
 2371TIP3    H1 7070   4.500   3.195   4.316
 2371TIP3    H2 7071   4.562   3.185   4.179
 2372TIP3   OH2 7072   3.325   3.113   5.126
 2372TIP3    H1 7073   3.343   3.076   5.212
 2372TIP3    H2 7074   3.245   3.069   5.098
 2373TIP3   OH2 7075   1.095   6.803   4.907
 2373TIP3    H1 7076   1.020   6.742   4.914
 2373TIP3    H2 7077   1.080   6.849   4.825
 2374TIP3   OH2 7078   6.013   1.635   5.411
 2374TIP3    H1 7079   5.946   1.586   5.366
 2374TIP3    H2 7080   5.969   1.714   5.443
 2375TIP3   OH2 7081   2.398   0.363   0.092
 2375TIP3    H1 7082   2.344   0.430   0.051
 2375TIP3    H2 7083   2.411   0.394   0.182
 2376TIP3   OH2 7084   1.214   1.351   1.388
 2376TIP3    H1 7085   1.142   1.291   1.409
 2376TIP3    H2 7086   1.224   1.344   1.293
 2377TIP3   OH2 7087   7.347   4.841   3.968
 2377TIP3    H1 7088   7.278   4.800   4.019
 2377TIP3    H2 7089   7.428   4.810   4.008
 2378TIP3   OH2 7090   0.545   0.875   2.171
 2378TIP3    H1 7091   0.590   0.888   2.255
 2378TIP3    H2 7092   0.539   0.962   2.133
 2379TIP3   OH2 7093   7.165   5.981   4.598
 2379TIP3    H1 7094   7.148   5.986   4.504
 2379TIP3    H2 7095   7.246   6.031   4.610
 2380TIP3   OH2 7096   4.146   2.697   3.020
 2380TIP3    H1 7097   4.063   2.704   2.973
 2380TIP3    H2 7098   4.191   2.779   3.004
 2381TIP3   OH2 7099   6.281   0.079   3.969
 2381TIP3    H1 7100   6.329   0.084   3.887
 2381TIP3    H2 7101   6.343   0.039   4.030
 2382TIP3   OH2 7102   8.102   1.556   3.023
 2382TIP3    H1 7103   8.073   1.642   3.052
 2382TIP3    H2 7104   8.031   1.525   2.967
 2383TIP3   OH2 7105   4.707   1.196   0.685
 2383TIP3    H1 7106   4.779   1.142   0.650
 2383TIP3    H2 7107   4.728   1.285   0.656
 2384TIP3   OH2 7108   7.737   2.512   1.780
 2384TIP3    H1 7109   7.774   2.516   1.869
 2384TIP3    H2 7110   7.782   2.437   1.740
 2385TIP3   OH2 7111   5.932   6.471   2.377
 2385TIP3    H1 7112   5.868   6.527   2.333
 2385TIP3    H2 7113   5.972   6.527   2.443
 2386TIP3   OH2 7114   3.801   6.988   2.234
 2386TIP3    H1 7115   3.858   7.036   2.175
 2386TIP3    H2 7116   3.745   6.936   2.176
 2387TIP3   OH2 7117   0.026   4.292   1.901
 2387TIP3    H1 7118   0.115   4.283   1.865
 2387TIP3    H2 7119   0.036   4.345   1.979
 2388TIP3   OH2 7120   5.386   2.723   3.773
 2388TIP3    H1 7121   5.448   2.662   3.813
 2388TIP3    H2 7122   5.315   2.731   3.837
 2389TIP3   OH2 7123   7.644   3.003   5.897
 2389TIP3    H1 7124   7.687   3.087   5.913
 2389TIP3    H2 7125   7.581   2.995   5.968
 2390TIP3   OH2 7126   7.873   3.956   0.920
 2390TIP3    H1 7127   7.896   4.044   0.951
 2390TIP3    H2 7128   7.778   3.958   0.909
 2391TIP3   OH2 7129   2.129   2.413   4.581
 2391TIP3    H1 7130   2.112   2.319   4.594
 2391TIP3    H2 7131   2.061   2.457   4.632
 2392TIP3   OH2 7132   2.504   1.904   4.782
 2392TIP3    H1 7133   2.445   1.978   4.766
 2392TIP3    H2 7134   2.519   1.904   4.876
 2393TIP3   OH2 7135   1.916   3.992   1.271
 2393TIP3    H1 7136   1.822   4.000   1.254
 2393TIP3    H2 7137   1.935   3.899   1.256
 2394TIP3   OH2 7138   8.249   1.467   4.092
 2394TIP3    H1 7139   8.187   1.527   4.134
 2394TIP3    H2 7140   8.256   1.498   4.002
 2395TIP3   OH2 7141   5.833   6.125   3.518
 2395TIP3    H1 7142   5.818   6.165   3.432
 2395TIP3    H2 7143   5.893   6.184   3.562
 2396TIP3   OH2 7144   0.323   2.174   4.155
 2396TIP3    H1 7145   0.271   2.210   4.083
 2396TIP3    H2 7146   0.316   2.079   4.145
 2397TIP3   OH2 7147   2.228   3.307   0.786
 2397TIP3    H1 7148   2.303   3.319   0.728
 2397TIP3    H2 7149   2.257   3.240   0.848
 2398TIP3   OH2 7150   1.406   1.640   1.400
 2398TIP3    H1 7151   1.319   1.605   1.384
 2398TIP3    H2 7152   1.396   1.697   1.476
 2399TIP3   OH2 7153   5.905   4.769   5.255
 2399TIP3    H1 7154   5.992   4.807   5.267
 2399TIP3    H2 7155   5.858   4.790   5.336
 2400TIP3   OH2 7156   8.032   3.749   3.177
 2400TIP3    H1 7157   8.050   3.658   3.152
 2400TIP3    H2 7158   8.118   3.791   3.181
 2401TIP3   OH2 7159   5.329   2.895   5.680
 2401TIP3    H1 7160   5.360   2.816   5.725
 2401TIP3    H2 7161   5.234   2.885   5.678
 2402TIP3   OH2 7162   8.000   5.466   3.782
 2402TIP3    H1 7163   7.917   5.473   3.734
 2402TIP3    H2 7164   7.993   5.383   3.830
 2403TIP3   OH2 7165   8.089   3.544   2.836
 2403TIP3    H1 7166   8.049   3.512   2.916
 2403TIP3    H2 7167   8.022   3.534   2.769
 2404TIP3   OH2 7168   3.433   1.728   5.910
 2404TIP3    H1 7169   3.458   1.702   5.999
 2404TIP3    H2 7170   3.353   1.680   5.892
 2405TIP3   OH2 7171   4.815   3.903   4.727
 2405TIP3    H1 7172   4.739   3.847   4.707
 2405TIP3    H2 7173   4.788   3.950   4.806
 2406TIP3   OH2 7174   6.618   6.247   2.812
 2406TIP3    H1 7175   6.704   6.259   2.771
 2406TIP3    H2 7176   6.599   6.332   2.852
 2407TIP3   OH2 7177   7.836   4.496   6.564
 2407TIP3    H1 7178   7.744   4.508   6.589
 2407TIP3    H2 7179   7.879   4.576   6.593
 2408TIP3   OH2 7180   8.136   2.770   2.814
 2408TIP3    H1 7181   8.190   2.833   2.862
 2408TIP3    H2 7182   8.196   2.699   2.791
 2409TIP3   OH2 7183   0.350   1.465   0.902
 2409TIP3    H1 7184   0.391   1.379   0.903
 2409TIP3    H2 7185   0.304   1.468   0.818
 2410TIP3   OH2 7186   0.946   5.642   2.759
 2410TIP3    H1 7187   1.009   5.596   2.815
 2410TIP3    H2 7188   0.994   5.658   2.678
 2411TIP3   OH2 7189   6.836   6.286   2.412
 2411TIP3    H1 7190   6.775   6.295   2.338
 2411TIP3    H2 7191   6.922   6.304   2.375
 2412TIP3   OH2 7192   8.253   4.132   6.742
 2412TIP3    H1 7193   8.262   4.045   6.703
 2412TIP3    H2 7194   8.164   4.159   6.719
 2413TIP3   OH2 7195   0.624   4.193   4.095
 2413TIP3    H1 7196   0.569   4.198   4.016
 2413TIP3    H2 7197   0.589   4.261   4.152
 2414TIP3   OH2 7198   6.262   6.246   2.528
 2414TIP3    H1 7199   6.323   6.196   2.474
 2414TIP3    H2 7200   6.235   6.185   2.597
 2415TIP3   OH2 7201   1.736   7.114   4.504
 2415TIP3    H1 7202   1.650   7.083   4.534
 2415TIP3    H2 7203   1.768   7.169   4.575
 2416TIP3   OH2 7204   4.695   3.390   4.699
 2416TIP3    H1 7205   4.674   3.342   4.619
 2416TIP3    H2 7206   4.616   3.383   4.753
 2417TIP3   OH2 7207   7.945   2.626   2.990
 2417TIP3    H1 7208   7.938   2.710   3.035
 2417TIP3    H2 7209   8.007   2.642   2.919
 2418TIP3   OH2 7210   5.896   2.734   2.651
 2418TIP3    H1 7211   5.945   2.772   2.724
 2418TIP3    H2 7212   5.963   2.713   2.585
 2419TIP3   OH2 7213   3.063   6.300   5.547
 2419TIP3    H1 7214   3.032   6.257   5.467
 2419TIP3    H2 7215   2.985   6.341   5.584
 2420TIP3   OH2 7216   1.580   4.950   1.578
 2420TIP3    H1 7217   1.566   4.855   1.577
 2420TIP3    H2 7218   1.501   4.984   1.619
 2421TIP3   OH2 7219   5.898   6.925   0.995
 2421TIP3    H1 7220   5.835   6.940   0.925
 2421TIP3    H2 7221   5.864   6.975   1.069
 2422TIP3   OH2 7222   0.582   3.693   4.766
 2422TIP3    H1 7223   0.610   3.621   4.709
 2422TIP3    H2 7224   0.487   3.682   4.773
 2423TIP3   OH2 7225   8.130   5.996   6.627
 2423TIP3    H1 7226   8.124   5.917   6.681
 2423TIP3    H2 7227   8.049   5.996   6.576
 2424TIP3   OH2 7228   4.965   0.301   2.015
 2424TIP3    H1 7229   4.907   0.240   1.970
 2424TIP3    H2 7230   5.029   0.327   1.949
 2425TIP3   OH2 7231   0.392   2.749   0.038
 2425TIP3    H1 7232   0.305   2.789   0.034
 2425TIP3    H2 7233   0.393   2.701   0.121
 2426TIP3   OH2 7234   3.049   2.565   0.914
 2426TIP3    H1 7235   3.037   2.635   0.978
 2426TIP3    H2 7236   3.079   2.491   0.966
 2427TIP3   OH2 7237   0.919   2.534   2.111
 2427TIP3    H1 7238   0.941   2.625   2.131
 2427TIP3    H2 7239   0.942   2.486   2.190
 2428TIP3   OH2 7240   0.597   5.412   4.772
 2428TIP3    H1 7241   0.692   5.416   4.786
 2428TIP3    H2 7242   0.569   5.504   4.774
 2429TIP3   OH2 7243   6.117   6.030   1.363
 2429TIP3    H1 7244   6.038   6.084   1.366
 2429TIP3    H2 7245   6.168   6.059   1.439
 2430TIP3   OH2 7246   3.640   1.779   2.130
 2430TIP3    H1 7247   3.614   1.831   2.206
 2430TIP3    H2 7248   3.574   1.799   2.063
 2431TIP3   OH2 7249   3.851   6.104   2.346
 2431TIP3    H1 7250   3.922   6.053   2.384
 2431TIP3    H2 7251   3.874   6.111   2.253
 2432TIP3   OH2 7252   4.317   3.565   2.726
 2432TIP3    H1 7253   4.373   3.494   2.695
 2432TIP3    H2 7254   4.309   3.624   2.651
 2433TIP3   OH2 7255   0.285   5.307   4.128
 2433TIP3    H1 7256   0.226   5.322   4.201
 2433TIP3    H2 7257   0.295   5.393   4.087
 2434TIP3   OH2 7258   3.847   3.683   6.253
 2434TIP3    H1 7259   3.751   3.678   6.256
 2434TIP3    H2 7260   3.874   3.597   6.220
 2435TIP3   OH2 7261   3.635   1.926   0.782
 2435TIP3    H1 7262   3.645   1.833   0.762
 2435TIP3    H2 7263   3.620   1.968   0.697
 2436TIP3   OH2 7264   0.481   4.869   2.939
 2436TIP3    H1 7265   0.443   4.957   2.929
 2436TIP3    H2 7266   0.518   4.849   2.853
 2437TIP3   OH2 7267   2.299   6.539   0.665
 2437TIP3    H1 7268   2.370   6.592   0.628
 2437TIP3    H2 7269   2.264   6.492   0.589
 2438TIP3   OH2 7270   2.961   6.964   5.790
 2438TIP3    H1 7271   2.995   7.016   5.863
 2438TIP3    H2 7272   3.033   6.907   5.765
 2439TIP3   OH2 7273   4.728   3.219   1.151
 2439TIP3    H1 7274   4.678   3.187   1.227
 2439TIP3    H2 7275   4.819   3.221   1.182
 2440TIP3   OH2 7276   5.013   6.128   1.199
 2440TIP3    H1 7277   4.947   6.156   1.262
 2440TIP3    H2 7278   5.096   6.159   1.235
 2441TIP3   OH2 7279   2.290   4.504   5.228
 2441TIP3    H1 7280   2.195   4.512   5.236
 2441TIP3    H2 7281   2.308   4.412   5.251
 2442TIP3   OH2 7282   4.077   5.617   2.635
 2442TIP3    H1 7283   4.149   5.576   2.588
 2442TIP3    H2 7284   4.001   5.607   2.578
 2443TIP3   OH2 7285   1.707   6.794   5.075
 2443TIP3    H1 7286   1.621   6.757   5.091
 2443TIP3    H2 7287   1.768   6.727   5.106
 2444TIP3   OH2 7288   3.928   6.749   5.947
 2444TIP3    H1 7289   4.006   6.708   5.985
 2444TIP3    H2 7290   3.874   6.771   6.023
 2445TIP3   OH2 7291   5.232   6.826   4.762
 2445TIP3    H1 7292   5.310   6.772   4.780
 2445TIP3    H2 7293   5.229   6.832   4.666
 2446TIP3   OH2 7294   1.537   6.500   2.773
 2446TIP3    H1 7295   1.560   6.453   2.853
 2446TIP3    H2 7296   1.552   6.436   2.702
 2447TIP3   OH2 7297   2.659   7.101   2.915
 2447TIP3    H1 7298   2.748   7.074   2.892
 2447TIP3    H2 7299   2.660   7.197   2.907
 2448TIP3   OH2 7300   5.277   0.470   4.466
 2448TIP3    H1 7301   5.196   0.463   4.416
 2448TIP3    H2 7302   5.251   0.465   4.557
 2449TIP3   OH2 7303   0.164   7.223   6.017
 2449TIP3    H1 7304   0.093   7.263   5.967
 2449TIP3    H2 7305   0.243   7.243   5.967
 2450TIP3   OH2 7306   6.388   4.506   0.458
 2450TIP3    H1 7307   6.342   4.579   0.499
 2450TIP3    H2 7308   6.471   4.500   0.505
 2451TIP3   OH2 7309   5.699   0.655   6.727
 2451TIP3    H1 7310   5.609   0.655   6.762
 2451TIP3    H2 7311   5.738   0.575   6.761
 2452TIP3   OH2 7312   7.671   0.557   2.205
 2452TIP3    H1 7313   7.638   0.613   2.134
 2452TIP3    H2 7314   7.596   0.546   2.263
 2453TIP3   OH2 7315   4.392   2.783   3.216
 2453TIP3    H1 7316   4.382   2.690   3.194
 2453TIP3    H2 7317   4.317   2.825   3.174
 2454TIP3   OH2 7318   4.325   1.419   6.479
 2454TIP3    H1 7319   4.372   1.336   6.485
 2454TIP3    H2 7320   4.367   1.465   6.405
 2455TIP3   OH2 7321   2.095   6.802   2.310
 2455TIP3    H1 7322   2.130   6.726   2.357
 2455TIP3    H2 7323   2.119   6.786   2.219
 2456TIP3   OH2 7324   7.986   7.365   6.515
 2456TIP3    H1 7325   8.055   7.313   6.555
 2456TIP3    H2 7326   8.014   7.456   6.527
 2457TIP3   OH2 7327   2.467   0.732   0.355
 2457TIP3    H1 7328   2.373   0.749   0.356
 2457TIP3    H2 7329   2.476   0.643   0.390
 2458TIP3   OH2 7330   2.810   2.886   1.591
 2458TIP3    H1 7331   2.893   2.839   1.601
 2458TIP3    H2 7332   2.751   2.843   1.653
 2459TIP3   OH2 7333   2.429   1.679   4.133
 2459TIP3    H1 7334   2.516   1.702   4.166
 2459TIP3    H2 7335   2.444   1.601   4.079
 2460TIP3   OH2 7336   1.883   7.592   4.858
 2460TIP3    H1 7337   1.940   7.637   4.797
 2460TIP3    H2 7338   1.896   7.637   4.941
 2461TIP3   OH2 7339   2.839   2.080   4.377
 2461TIP3    H1 7340   2.811   2.121   4.459
 2461TIP3    H2 7341   2.809   2.140   4.309
 2462TIP3   OH2 7342   4.917   2.611   1.722
 2462TIP3    H1 7343   4.823   2.622   1.712
 2462TIP3    H2 7344   4.931   2.517   1.716
 2463TIP3   OH2 7345   6.843   5.746   0.854
 2463TIP3    H1 7346   6.778   5.778   0.917
 2463TIP3    H2 7347   6.832   5.803   0.778
 2464TIP3   OH2 7348   0.105   1.793   3.399
 2464TIP3    H1 7349   0.150   1.864   3.446
 2464TIP3    H2 7350   0.175   1.749   3.352
 2465TIP3   OH2 7351   0.981   7.016   0.767
 2465TIP3    H1 7352   1.030   7.034   0.687
 2465TIP3    H2 7353   1.049   6.997   0.832
 2466TIP3   OH2 7354   3.194   1.833   3.314
 2466TIP3    H1 7355   3.112   1.785   3.301
 2466TIP3    H2 7356   3.167   1.919   3.345
 2467TIP3   OH2 7357   4.074   5.822   4.208
 2467TIP3    H1 7358   4.135   5.883   4.251
 2467TIP3    H2 7359   4.127   5.774   4.146
 2468TIP3   OH2 7360   0.322   2.830   2.482
 2468TIP3    H1 7361   0.295   2.767   2.549
 2468TIP3    H2 7362   0.406   2.797   2.451
 2469TIP3   OH2 7363   1.977   4.615   4.664
 2469TIP3    H1 7364   1.922   4.686   4.698
 2469TIP3    H2 7365   1.933   4.588   4.583
 2470TIP3   OH2 7366   4.141   0.711   4.833
 2470TIP3    H1 7367   4.180   0.793   4.802
 2470TIP3    H2 7368   4.064   0.698   4.778
 2471TIP3   OH2 7369   0.142   7.023   3.627
 2471TIP3    H1 7370   0.130   6.928   3.631
 2471TIP3    H2 7371   0.221   7.039   3.679
 2472TIP3   OH2 7372   7.679   2.746   2.105
 2472TIP3    H1 7373   7.616   2.792   2.049
 2472TIP3    H2 7374   7.747   2.811   2.122
 2473TIP3   OH2 7375   2.749   6.744   0.965
 2473TIP3    H1 7376   2.680   6.780   1.022
 2473TIP3    H2 7377   2.821   6.723   1.025
 2474TIP3   OH2 7378   5.137   7.338   5.571
 2474TIP3    H1 7379   5.090   7.269   5.524
 2474TIP3    H2 7380   5.196   7.291   5.630
 2475TIP3   OH2 7381   5.917   5.683   0.245
 2475TIP3    H1 7382   5.875   5.624   0.308
 2475TIP3    H2 7383   6.009   5.659   0.247
 2476TIP3   OH2 7384   2.752   2.267   1.058
 2476TIP3    H1 7385   2.848   2.271   1.053
 2476TIP3    H2 7386   2.730   2.186   1.012
 2477TIP3   OH2 7387   7.506   6.674   2.897
 2477TIP3    H1 7388   7.574   6.684   2.831
 2477TIP3    H2 7389   7.424   6.682   2.849
 2478TIP3   OH2 7390   8.288   0.646   5.408
 2478TIP3    H1 7391   8.237   0.688   5.339
 2478TIP3    H2 7392   8.249   0.678   5.489
 2479TIP3   OH2 7393   0.791   3.701   0.080
 2479TIP3    H1 7394   0.832   3.780   0.115
 2479TIP3    H2 7395   0.753   3.728  -0.003
 2480TIP3   OH2 7396   7.932   1.297   3.156
 2480TIP3    H1 7397   7.961   1.350   3.082
 2480TIP3    H2 7398   7.947   1.353   3.233
 2481TIP3   OH2 7399   8.329   6.397   6.790
 2481TIP3    H1 7400   8.315   6.314   6.746
 2481TIP3    H2 7401   8.242   6.436   6.797
 2482TIP3   OH2 7402   4.185   4.929   2.710
 2482TIP3    H1 7403   4.147   4.916   2.623
 2482TIP3    H2 7404   4.200   5.023   2.715
 2483TIP3   OH2 7405   7.795   0.405   2.496
 2483TIP3    H1 7406   7.829   0.363   2.575
 2483TIP3    H2 7407   7.793   0.334   2.431
 2484TIP3   OH2 7408   0.569   2.560   0.619
 2484TIP3    H1 7409   0.592   2.647   0.587
 2484TIP3    H2 7410   0.498   2.576   0.682
 2485TIP3   OH2 7411   1.096   6.905   1.453
 2485TIP3    H1 7412   1.063   6.960   1.524
 2485TIP3    H2 7413   1.123   6.967   1.385
 2486TIP3   OH2 7414   7.577   5.957   0.459
 2486TIP3    H1 7415   7.646   5.993   0.514
 2486TIP3    H2 7416   7.546   5.879   0.505
 2487TIP3   OH2 7417   0.826   5.397   0.063
 2487TIP3    H1 7418   0.806   5.351  -0.019
 2487TIP3    H2 7419   0.840   5.326   0.126
 2488TIP3   OH2 7420   1.018   6.730   3.081
 2488TIP3    H1 7421   0.999   6.803   3.022
 2488TIP3    H2 7422   1.113   6.728   3.088
 2489TIP3   OH2 7423   6.290   7.731   4.487
 2489TIP3    H1 7424   6.355   7.714   4.555
 2489TIP3    H2 7425   6.218   7.671   4.507
 2490TIP3   OH2 7426   4.810   3.882   1.118
 2490TIP3    H1 7427   4.720   3.851   1.109
 2490TIP3    H2 7428   4.835   3.910   1.030
 2491TIP3   OH2 7429   2.314   1.150   4.087
 2491TIP3    H1 7430   2.248   1.137   4.154
 2491TIP3    H2 7431   2.387   1.191   4.134
 2492TIP3   OH2 7432   3.590   4.248   1.815
 2492TIP3    H1 7433   3.556   4.326   1.859
 2492TIP3    H2 7434   3.680   4.240   1.845
 2493TIP3   OH2 7435   6.241   1.396   1.165
 2493TIP3    H1 7436   6.273   1.306   1.168
 2493TIP3    H2 7437   6.320   1.450   1.173
 2494TIP3   OH2 7438   1.566   1.587   6.006
 2494TIP3    H1 7439   1.524   1.567   5.922
 2494TIP3    H2 7440   1.512   1.657   6.044
 2495TIP3   OH2 7441   3.807   2.805   4.696
 2495TIP3    H1 7442   3.889   2.762   4.671
 2495TIP3    H2 7443   3.834   2.878   4.752
 2496TIP3   OH2 7444   4.636   7.549   1.298
 2496TIP3    H1 7445   4.557   7.604   1.292
 2496TIP3    H2 7446   4.691   7.580   1.226
 2497TIP3   OH2 7447   4.773   0.868   6.768
 2497TIP3    H1 7448   4.749   0.809   6.697
 2497TIP3    H2 7449   4.795   0.951   6.724
 2498TIP3   OH2 7450   5.266   0.638   4.760
 2498TIP3    H1 7451   5.183   0.610   4.722
 2498TIP3    H2 7452   5.290   0.568   4.820
 2499TIP3   OH2 7453   6.363   5.660   4.221
 2499TIP3    H1 7454   6.358   5.751   4.190
 2499TIP3    H2 7455   6.316   5.660   4.304
 2500TIP3   OH2 7456   4.179   3.273   5.605
 2500TIP3    H1 7457   4.099   3.255   5.555
 2500TIP3    H2 7458   4.250   3.247   5.547
 2501TIP3   OH2 7459   3.517   7.078   5.208
 2501TIP3    H1 7460   3.476   7.162   5.188
 2501TIP3    H2 7461   3.466   7.043   5.281
 2502TIP3   OH2 7462   4.705   2.602   0.214
 2502TIP3    H1 7463   4.610   2.610   0.205
 2502TIP3    H2 7464   4.723   2.628   0.304
 2503TIP3   OH2 7465   3.995   3.601   0.229
 2503TIP3    H1 7466   4.077   3.601   0.278
 2503TIP3    H2 7467   4.009   3.662   0.157
 2504TIP3   OH2 7468   6.221   1.212   0.619
 2504TIP3    H1 7469   6.163   1.269   0.569
 2504TIP3    H2 7470   6.224   1.251   0.707
 2505TIP3   OH2 7471   3.435   0.298   0.666
 2505TIP3    H1 7472   3.427   0.393   0.659
 2505TIP3    H2 7473   3.529   0.281   0.660
 2506TIP3   OH2 7474   4.476   0.166   2.694
 2506TIP3    H1 7475   4.442   0.221   2.765
 2506TIP3    H2 7476   4.417   0.182   2.621
 2507TIP3   OH2 7477   7.418   6.996   0.788
 2507TIP3    H1 7478   7.345   7.045   0.825
 2507TIP3    H2 7479   7.495   7.051   0.805
 2508TIP3   OH2 7480   4.274   6.591   2.007
 2508TIP3    H1 7481   4.326   6.512   1.993
 2508TIP3    H2 7482   4.208   6.589   1.938
 2509TIP3   OH2 7483   6.104   3.179   3.903
 2509TIP3    H1 7484   6.009   3.188   3.893
 2509TIP3    H2 7485   6.126   3.100   3.854
 2510TIP3   OH2 7486   7.252   0.653   2.254
 2510TIP3    H1 7487   7.293   0.739   2.245
 2510TIP3    H2 7488   7.180   0.653   2.191
 2511TIP3   OH2 7489   2.173   7.482   2.798
 2511TIP3    H1 7490   2.224   7.496   2.718
 2511TIP3    H2 7491   2.234   7.439   2.858
 2512TIP3   OH2 7492   4.656   0.557   4.613
 2512TIP3    H1 7493   4.677   0.470   4.579
 2512TIP3    H2 7494   4.635   0.543   4.705
 2513TIP3   OH2 7495   2.727   5.485   0.209
 2513TIP3    H1 7496   2.758   5.438   0.286
 2513TIP3    H2 7497   2.632   5.479   0.214
 2514TIP3   OH2 7498   1.407   2.436   3.975
 2514TIP3    H1 7499   1.348   2.424   3.901
 2514TIP3    H2 7500   1.349   2.455   4.049
 2515TIP3   OH2 7501   2.190   7.395   1.242
 2515TIP3    H1 7502   2.278   7.418   1.213
 2515TIP3    H2 7503   2.185   7.427   1.333
 2516TIP3   OH2 7504   4.456   2.214   3.227
 2516TIP3    H1 7505   4.486   2.128   3.257
 2516TIP3    H2 7506   4.363   2.201   3.207
 2517TIP3   OH2 7507   3.385   0.254   6.670
 2517TIP3    H1 7508   3.326   0.211   6.732
 2517TIP3    H2 7509   3.381   0.347   6.694
 2518TIP3   OH2 7510   2.663   5.774   4.179
 2518TIP3    H1 7511   2.641   5.686   4.149
 2518TIP3    H2 7512   2.604   5.831   4.129
 2519TIP3   OH2 7513   0.170   6.117   1.335
 2519TIP3    H1 7514   0.182   6.147   1.425
 2519TIP3    H2 7515   0.250   6.070   1.314
 2520TIP3   OH2 7516   4.157   7.639   1.735
 2520TIP3    H1 7517   4.089   7.611   1.673
 2520TIP3    H2 7518   4.114   7.636   1.820
 2521TIP3   OH2 7519   5.477   0.993   3.251
 2521TIP3    H1 7520   5.421   0.995   3.328
 2521TIP3    H2 7521   5.435   1.051   3.188
 2522TIP3   OH2 7522   2.639   5.467   2.140
 2522TIP3    H1 7523   2.708   5.491   2.202
 2522TIP3    H2 7524   2.683   5.458   2.056
 2523TIP3   OH2 7525   7.957   0.115   3.715
 2523TIP3    H1 7526   7.888   0.180   3.723
 2523TIP3    H2 7527   7.981   0.093   3.805
 2524TIP3   OH2 7528   2.314   2.427   0.941
 2524TIP3    H1 7529   2.293   2.435   1.034
 2524TIP3    H2 7530   2.229   2.422   0.897
 2525TIP3   OH2 7531   8.134   0.402   2.113
 2525TIP3    H1 7532   8.215   0.350   2.117
 2525TIP3    H2 7533   8.120   0.432   2.203
 2526TIP3   OH2 7534   6.027   6.668   5.528
 2526TIP3    H1 7535   6.094   6.674   5.460
 2526TIP3    H2 7536   5.964   6.736   5.505
 2527TIP3   OH2 7537   5.208   0.418   1.945
 2527TIP3    H1 7538   5.234   0.379   2.029
 2527TIP3    H2 7539   5.174   0.504   1.969
 2528TIP3   OH2 7540   6.967   6.245   6.358
 2528TIP3    H1 7541   6.948   6.338   6.358
 2528TIP3    H2 7542   6.922   6.212   6.436
 2529TIP3   OH2 7543   4.784   7.590   3.277
 2529TIP3    H1 7544   4.862   7.616   3.325
 2529TIP3    H2 7545   4.774   7.657   3.209
 2530TIP3   OH2 7546   2.486   1.088   3.239
 2530TIP3    H1 7547   2.419   1.033   3.280
 2530TIP3    H2 7548   2.520   1.141   3.310
 2531TIP3   OH2 7549   7.923   0.665   3.348
 2531TIP3    H1 7550   8.018   0.664   3.357
 2531TIP3    H2 7551   7.908   0.662   3.253
 2532TIP3   OH2 7552   5.327   3.699   3.293
 2532TIP3    H1 7553   5.274   3.779   3.296
 2532TIP3    H2 7554   5.368   3.701   3.207
 2533TIP3   OH2 7555   3.295   0.728   3.815
 2533TIP3    H1 7556   3.238   0.678   3.757
 2533TIP3    H2 7557   3.353   0.776   3.756
 2534TIP3   OH2 7558   8.171   7.128   5.243
 2534TIP3    H1 7559   8.253   7.108   5.288
 2534TIP3    H2 7560   8.115   7.166   5.310
 2535TIP3   OH2 7561   0.754   3.197   3.585
 2535TIP3    H1 7562   0.727   3.272   3.532
 2535TIP3    H2 7563   0.770   3.234   3.672
 2536TIP3   OH2 7564   6.818   6.362   1.184
 2536TIP3    H1 7565   6.792   6.397   1.099
 2536TIP3    H2 7566   6.914   6.363   1.182
 2537TIP3   OH2 7567   4.531   3.375   3.209
 2537TIP3    H1 7568   4.483   3.292   3.207
 2537TIP3    H2 7569   4.482   3.430   3.269
 2538TIP3   OH2 7570   6.071   5.462   2.845
 2538TIP3    H1 7571   5.999   5.435   2.788
 2538TIP3    H2 7572   6.130   5.387   2.846
 2539TIP3   OH2 7573   1.342   3.222   6.408
 2539TIP3    H1 7574   1.427   3.178   6.413
 2539TIP3    H2 7575   1.363   3.313   6.386
 2540TIP3   OH2 7576   5.184   1.800   1.120
 2540TIP3    H1 7577   5.165   1.890   1.146
 2540TIP3    H2 7578   5.153   1.795   1.029
 2541TIP3   OH2 7579   4.006   3.913   5.726
 2541TIP3    H1 7580   4.083   3.954   5.686
 2541TIP3    H2 7581   4.036   3.825   5.751
 2542TIP3   OH2 7582   2.818   2.465   4.915
 2542TIP3    H1 7583   2.860   2.417   4.987
 2542TIP3    H2 7584   2.749   2.515   4.958
 2543TIP3   OH2 7585   1.202   2.357   0.174
 2543TIP3    H1 7586   1.208   2.444   0.134
 2543TIP3    H2 7587   1.293   2.328   0.181
 2544TIP3   OH2 7588   2.467   7.378   1.212
 2544TIP3    H1 7589   2.506   7.448   1.264
 2544TIP3    H2 7590   2.520   7.375   1.132
 2545TIP3   OH2 7591   6.508   7.693   4.674
 2545TIP3    H1 7592   6.591   7.734   4.649
 2545TIP3    H2 7593   6.534   7.613   4.720
 2546TIP3   OH2 7594   0.679   3.875   2.501
 2546TIP3    H1 7595   0.765   3.844   2.529
 2546TIP3    H2 7596   0.692   3.907   2.412
 2547TIP3   OH2 7597   0.911   6.100   6.452
 2547TIP3    H1 7598   0.895   6.194   6.451
 2547TIP3    H2 7599   0.842   6.062   6.397
 2548TIP3   OH2 7600   6.439   2.802   1.672
 2548TIP3    H1 7601   6.363   2.798   1.615
 2548TIP3    H2 7602   6.404   2.824   1.758
 2549TIP3   OH2 7603   2.444   3.321   3.519
 2549TIP3    H1 7604   2.430   3.297   3.610
 2549TIP3    H2 7605   2.365   3.368   3.494
 2550TIP3   OH2 7606   5.077   4.540   2.437
 2550TIP3    H1 7607   5.120   4.605   2.492
 2550TIP3    H2 7608   5.116   4.457   2.464
 2551TIP3   OH2 7609   8.192   3.626   0.058
 2551TIP3    H1 7610   8.212   3.586  -0.027
 2551TIP3    H2 7611   8.277   3.637   0.100
 2552TIP3   OH2 7612   0.318   4.991   0.373
 2552TIP3    H1 7613   0.344   5.081   0.394
 2552TIP3    H2 7614   0.353   4.976   0.285
 2553TIP3   OH2 7615   6.030   0.427   1.435
 2553TIP3    H1 7616   6.008   0.520   1.442
 2553TIP3    H2 7617   6.062   0.403   1.523
 2554TIP3   OH2 7618   2.613   0.283   5.900
 2554TIP3    H1 7619   2.533   0.247   5.937
 2554TIP3    H2 7620   2.608   0.261   5.806
 2555TIP3   OH2 7621   6.522   3.239   5.904
 2555TIP3    H1 7622   6.463   3.238   5.980
 2555TIP3    H2 7623   6.544   3.147   5.890
 2556TIP3   OH2 7624   5.626   5.062   6.702
 2556TIP3    H1 7625   5.666   5.093   6.621
 2556TIP3    H2 7626   5.532   5.060   6.682
 2557TIP3   OH2 7627   5.083   7.715   4.109
 2557TIP3    H1 7628   5.146   7.679   4.172
 2557TIP3    H2 7629   5.007   7.738   4.162
 2558TIP3   OH2 7630   1.925   2.020   1.629
 2558TIP3    H1 7631   1.982   2.068   1.569
 2558TIP3    H2 7632   1.846   2.073   1.635
 2559TIP3   OH2 7633   0.748   4.960   4.675
 2559TIP3    H1 7634   0.673   4.900   4.675
 2559TIP3    H2 7635   0.816   4.913   4.628
 2560TIP3   OH2 7636   3.705   0.920   3.192
 2560TIP3    H1 7637   3.657   0.988   3.239
 2560TIP3    H2 7638   3.735   0.860   3.260
 2561TIP3   OH2 7639   0.093   5.704   3.710
 2561TIP3    H1 7640   0.157   5.675   3.645
 2561TIP3    H2 7641   0.090   5.633   3.774
 2562TIP3   OH2 7642   4.464   1.947   4.964
 2562TIP3    H1 7643   4.532   1.935   4.898
 2562TIP3    H2 7644   4.429   1.859   4.978
 2563TIP3   OH2 7645   6.840   2.082   2.216
 2563TIP3    H1 7646   6.841   2.024   2.141
 2563TIP3    H2 7647   6.819   2.168   2.180
 2564TIP3   OH2 7648   2.618   7.128   1.043
 2564TIP3    H1 7649   2.542   7.093   1.090
 2564TIP3    H2 7650   2.654   7.194   1.101
 2565TIP3   OH2 7651   2.771   3.536   1.776
 2565TIP3    H1 7652   2.835   3.587   1.726
 2565TIP3    H2 7653   2.801   3.544   1.867
 2566TIP3   OH2 7654   3.798   1.885   3.909
 2566TIP3    H1 7655   3.893   1.886   3.900
 2566TIP3    H2 7656   3.780   1.942   3.984
 2567TIP3   OH2 7657   3.561   0.228   0.938
 2567TIP3    H1 7658   3.541   0.260   0.850
 2567TIP3    H2 7659   3.657   0.223   0.940
 2568TIP3   OH2 7660   4.973   4.590   4.466
 2568TIP3    H1 7661   4.924   4.535   4.527
 2568TIP3    H2 7662   5.063   4.589   4.500
 2569TIP3   OH2 7663   1.540   3.115   4.365
 2569TIP3    H1 7664   1.575   3.189   4.415
 2569TIP3    H2 7665   1.465   3.085   4.416
 2570TIP3   OH2 7666   7.982   1.529   5.305
 2570TIP3    H1 7667   7.955   1.549   5.395
 2570TIP3    H2 7668   8.073   1.560   5.300
 2571TIP3   OH2 7669   0.358   6.989   2.550
 2571TIP3    H1 7670   0.278   6.936   2.548
 2571TIP3    H2 7671   0.428   6.924   2.553
 2572TIP3   OH2 7672   3.059   1.485   0.801
 2572TIP3    H1 7673   2.974   1.472   0.842
 2572TIP3    H2 7674   3.120   1.439   0.859
 2573TIP3   OH2 7675   3.932   6.808   4.715
 2573TIP3    H1 7676   3.922   6.800   4.809
 2573TIP3    H2 7677   3.922   6.902   4.698
 2574TIP3   OH2 7678   6.632   6.611   5.031
 2574TIP3    H1 7679   6.620   6.691   4.981
 2574TIP3    H2 7680   6.626   6.540   4.966
 2575TIP3   OH2 7681   3.123   0.545   3.678
 2575TIP3    H1 7682   3.029   0.530   3.686
 2575TIP3    H2 7683   3.151   0.484   3.610
 2576TIP3   OH2 7684   3.197   4.594   2.627
 2576TIP3    H1 7685   3.146   4.539   2.568
 2576TIP3    H2 7686   3.274   4.542   2.649
 2577TIP3   OH2 7687   5.608   5.600   6.490
 2577TIP3    H1 7688   5.658   5.598   6.409
 2577TIP3    H2 7689   5.656   5.542   6.549
 2578TIP3   OH2 7690   3.332   4.568   5.203
 2578TIP3    H1 7691   3.291   4.582   5.288
 2578TIP3    H2 7692   3.264   4.591   5.139
 2579TIP3   OH2 7693   1.559   4.549   4.054
 2579TIP3    H1 7694   1.617   4.560   3.979
 2579TIP3    H2 7695   1.525   4.459   4.045
 2580TIP3   OH2 7696   0.979   5.209   6.186
 2580TIP3    H1 7697   0.985   5.204   6.282
 2580TIP3    H2 7698   0.889   5.236   6.168
 2581TIP3   OH2 7699   8.115   7.180   4.821
 2581TIP3    H1 7700   8.183   7.185   4.888
 2581TIP3    H2 7701   8.145   7.240   4.752
 2582TIP3   OH2 7702   2.609   4.263   6.217
 2582TIP3    H1 7703   2.575   4.186   6.262
 2582TIP3    H2 7704   2.702   4.244   6.203
 2583TIP3   OH2 7705   1.654   1.538   4.622
 2583TIP3    H1 7706   1.746   1.556   4.640
 2583TIP3    H2 7707   1.635   1.458   4.671
 2584TIP3   OH2 7708   7.596   2.597   4.735
 2584TIP3    H1 7709   7.657   2.597   4.662
 2584TIP3    H2 7710   7.618   2.675   4.785
 2585TIP3   OH2 7711   5.939   2.634   6.699
 2585TIP3    H1 7712   5.997   2.677   6.761
 2585TIP3    H2 7713   5.984   2.553   6.675
 2586TIP3   OH2 7714   4.821   5.701   5.170
 2586TIP3    H1 7715   4.765   5.762   5.121
 2586TIP3    H2 7716   4.812   5.729   5.262
 2587TIP3   OH2 7717   7.416   7.737   0.902
 2587TIP3    H1 7718   7.482   7.752   0.971
 2587TIP3    H2 7719   7.335   7.773   0.939
 2588TIP3   OH2 7720   4.101   6.505   6.263
 2588TIP3    H1 7721   4.132   6.444   6.196
 2588TIP3    H2 7722   4.104   6.591   6.220
 2589TIP3   OH2 7723   5.802   3.092   2.914
 2589TIP3    H1 7724   5.821   3.158   2.981
 2589TIP3    H2 7725   5.879   3.094   2.857
 2590TIP3   OH2 7726   2.795   1.788   6.634
 2590TIP3    H1 7727   2.777   1.713   6.577
 2590TIP3    H2 7728   2.878   1.765   6.677
 2591TIP3   OH2 7729   5.127   5.299   6.213
 2591TIP3    H1 7730   5.088   5.212   6.216
 2591TIP3    H2 7731   5.118   5.332   6.303
 2592TIP3   OH2 7732   4.867   2.268   6.682
 2592TIP3    H1 7733   4.824   2.217   6.613
 2592TIP3    H2 7734   4.946   2.218   6.703
 2593TIP3   OH2 7735   2.783   1.031   3.389
 2593TIP3    H1 7736   2.830   0.988   3.460
 2593TIP3    H2 7737   2.694   1.040   3.421
 2594TIP3   OH2 7738   5.388   1.223   3.429
 2594TIP3    H1 7739   5.307   1.202   3.383
 2594TIP3    H2 7740   5.386   1.319   3.437
 2595TIP3   OH2 7741   5.350   5.907   2.155
 2595TIP3    H1 7742   5.407   5.937   2.084
 2595TIP3    H2 7743   5.409   5.867   2.219
 2596TIP3   OH2 7744   0.978   5.706   3.789
 2596TIP3    H1 7745   1.046   5.744   3.845
 2596TIP3    H2 7746   1.026   5.670   3.715
 2597TIP3   OH2 7747   6.946   4.406   3.995
 2597TIP3    H1 7748   6.998   4.335   4.034
 2597TIP3    H2 7749   6.972   4.406   3.903
 2598TIP3   OH2 7750   4.455   2.475   2.704
 2598TIP3    H1 7751   4.435   2.383   2.689
 2598TIP3    H2 7752   4.502   2.477   2.787
 2599TIP3   OH2 7753   7.700   1.121   0.408
 2599TIP3    H1 7754   7.661   1.200   0.372
 2599TIP3    H2 7755   7.634   1.053   0.396
 2600TIP3   OH2 7756   6.900   6.280   3.265
 2600TIP3    H1 7757   6.862   6.214   3.207
 2600TIP3    H2 7758   6.837   6.352   3.265
 2601TIP3   OH2 7759   2.983   0.025   1.280
 2601TIP3    H1 7760   2.927   0.088   1.236
 2601TIP3    H2 7761   2.926  -0.019   1.343
 2602TIP3   OH2 7762   4.254   5.379   6.354
 2602TIP3    H1 7763   4.218   5.310   6.298
 2602TIP3    H2 7764   4.250   5.458   6.300
 2603TIP3   OH2 7765   6.012   4.208   1.602
 2603TIP3    H1 7766   6.072   4.162   1.661
 2603TIP3    H2 7767   5.958   4.262   1.660
 2604TIP3   OH2 7768   5.885   1.613   1.444
 2604TIP3    H1 7769   5.961   1.612   1.386
 2604TIP3    H2 7770   5.866   1.521   1.460
 2605TIP3   OH2 7771   4.960   4.586   2.208
 2605TIP3    H1 7772   5.022   4.535   2.156
 2605TIP3    H2 7773   4.983   4.568   2.299
 2606TIP3   OH2 7774   4.150   7.722   4.089
 2606TIP3    H1 7775   4.081   7.749   4.149
 2606TIP3    H2 7776   4.128   7.630   4.068
 2607TIP3   OH2 7777   3.446   5.643   0.293
 2607TIP3    H1 7778   3.375   5.681   0.242
 2607TIP3    H2 7779   3.510   5.613   0.228
 2608TIP3   OH2 7780   0.263   3.905   4.413
 2608TIP3    H1 7781   0.297   3.912   4.324
 2608TIP3    H2 7782   0.196   3.836   4.407
 2609TIP3   OH2 7783   6.564   3.706   1.582
 2609TIP3    H1 7784   6.566   3.709   1.678
 2609TIP3    H2 7785   6.516   3.626   1.562
 2610TIP3   OH2 7786   7.531   3.311   5.387
 2610TIP3    H1 7787   7.589   3.383   5.362
 2610TIP3    H2 7788   7.548   3.298   5.480
 2611TIP3   OH2 7789   3.678   0.389   0.737
 2611TIP3    H1 7790   3.738   0.334   0.788
 2611TIP3    H2 7791   3.662   0.466   0.792
 2612TIP3   OH2 7792   6.060   4.924   0.850
 2612TIP3    H1 7793   6.047   4.991   0.918
 2612TIP3    H2 7794   5.972   4.907   0.816
 2613TIP3   OH2 7795   6.570   2.106   4.029
 2613TIP3    H1 7796   6.603   2.154   3.954
 2613TIP3    H2 7797   6.626   2.029   4.035
 2614TIP3   OH2 7798   0.219   3.895   4.958
 2614TIP3    H1 7799   0.248   3.886   4.867
 2614TIP3    H2 7800   0.293   3.937   5.002
 2615TIP3   OH2 7801   3.970   2.877   3.437
 2615TIP3    H1 7802   4.020   2.810   3.391
 2615TIP3    H2 7803   3.933   2.931   3.367
 2616TIP3   OH2 7804   4.591   7.043   2.919
 2616TIP3    H1 7805   4.585   6.971   2.981
 2616TIP3    H2 7806   4.577   7.003   2.834
 2617TIP3   OH2 7807   4.323   2.169   3.601
 2617TIP3    H1 7808   4.413   2.179   3.571
 2617TIP3    H2 7809   4.290   2.092   3.553
 2618TIP3   OH2 7810   7.681   2.359   0.995
 2618TIP3    H1 7811   7.644   2.363   1.084
 2618TIP3    H2 7812   7.611   2.393   0.939
 2619TIP3   OH2 7813   4.744   7.382   3.126
 2619TIP3    H1 7814   4.749   7.469   3.166
 2619TIP3    H2 7815   4.684   7.333   3.182
 2620TIP3   OH2 7816   3.167   5.303   6.619
 2620TIP3    H1 7817   3.167   5.209   6.600
 2620TIP3    H2 7818   3.154   5.344   6.533
 2621TIP3   OH2 7819   4.352   0.815   6.566
 2621TIP3    H1 7820   4.398   0.748   6.515
 2621TIP3    H2 7821   4.297   0.860   6.503
 2622TIP3   OH2 7822   4.686   4.202   4.207
 2622TIP3    H1 7823   4.609   4.177   4.156
 2622TIP3    H2 7824   4.727   4.272   4.157
 2623TIP3   OH2 7825   6.169   6.255   4.784
 2623TIP3    H1 7826   6.191   6.346   4.766
 2623TIP3    H2 7827   6.243   6.205   4.749
 2624TIP3   OH2 7828   1.674   0.103   6.076
 2624TIP3    H1 7829   1.630   0.106   5.991
 2624TIP3    H2 7830   1.675   0.195   6.105
 2625TIP3   OH2 7831   6.256   4.424   3.739
 2625TIP3    H1 7832   6.198   4.476   3.683
 2625TIP3    H2 7833   6.305   4.370   3.679
 2626TIP3   OH2 7834   0.918   0.807   3.167
 2626TIP3    H1 7835   0.964   0.787   3.249
 2626TIP3    H2 7836   0.957   0.888   3.136
 2627TIP3   OH2 7837   4.842   2.365   1.407
 2627TIP3    H1 7838   4.846   2.272   1.432
 2627TIP3    H2 7839   4.866   2.412   1.487
 2628TIP3   OH2 7840   7.547   5.487   4.307
 2628TIP3    H1 7841   7.640   5.483   4.330
 2628TIP3    H2 7842   7.525   5.398   4.279
 2629TIP3   OH2 7843   7.062   4.727   5.498
 2629TIP3    H1 7844   7.095   4.804   5.545
 2629TIP3    H2 7845   6.967   4.734   5.503
 2630TIP3   OH2 7846   1.742   3.552   2.278
 2630TIP3    H1 7847   1.803   3.626   2.267
 2630TIP3    H2 7848   1.691   3.551   2.197
 2631TIP3   OH2 7849   2.784   4.494   4.119
 2631TIP3    H1 7850   2.691   4.513   4.108
 2631TIP3    H2 7851   2.786   4.416   4.175
 2632TIP3   OH2 7852   1.127   4.512   6.261
 2632TIP3    H1 7853   1.112   4.606   6.260
 2632TIP3    H2 7854   1.137   4.489   6.169
 2633TIP3   OH2 7855   2.933   3.402   3.732
 2633TIP3    H1 7856   2.994   3.329   3.733
 2633TIP3    H2 7857   2.932   3.434   3.822
 2634TIP3   OH2 7858   2.033   4.376   6.629
 2634TIP3    H1 7859   2.061   4.377   6.720
 2634TIP3    H2 7860   2.114   4.388   6.579
 2635TIP3   OH2 7861   1.333   1.910   0.291
 2635TIP3    H1 7862   1.264   1.952   0.239
 2635TIP3    H2 7863   1.329   1.818   0.266
 2636TIP3   OH2 7864   5.645   7.702   1.375
 2636TIP3    H1 7865   5.692   7.778   1.410
 2636TIP3    H2 7866   5.555   7.732   1.366
 2637TIP3   OH2 7867   3.317   2.063   4.846
 2637TIP3    H1 7868   3.389   2.127   4.853
 2637TIP3    H2 7869   3.242   2.109   4.883
 2638TIP3   OH2 7870   1.978   1.666   3.631
 2638TIP3    H1 7871   1.920   1.740   3.647
 2638TIP3    H2 7872   1.919   1.595   3.603
 2639TIP3   OH2 7873   0.544   3.264   2.746
 2639TIP3    H1 7874   0.590   3.344   2.721
 2639TIP3    H2 7875   0.452   3.289   2.747
 2640TIP3   OH2 7876   8.001   0.151   1.702
 2640TIP3    H1 7877   7.911   0.123   1.720
 2640TIP3    H2 7878   8.055   0.087   1.748
 2641TIP3   OH2 7879   8.245   7.470   0.715
 2641TIP3    H1 7880   8.329   7.490   0.755
 2641TIP3    H2 7881   8.194   7.551   0.722
 2642TIP3   OH2 7882   5.401   3.360   1.861
 2642TIP3    H1 7883   5.354   3.421   1.918
 2642TIP3    H2 7884   5.333   3.307   1.819
 2643TIP3   OH2 7885   8.023   3.999   0.069
 2643TIP3    H1 7886   8.015   3.979   0.162
 2643TIP3    H2 7887   8.118   4.000   0.053
 2644TIP3   OH2 7888   0.888   5.510   0.369
 2644TIP3    H1 7889   0.968   5.547   0.332
 2644TIP3    H2 7890   0.889   5.536   0.461
 2645TIP3   OH2 7891   2.659   6.029   6.231
 2645TIP3    H1 7892   2.717   6.067   6.164
 2645TIP3    H2 7893   2.611   6.104   6.267
 2646TIP3   OH2 7894   1.471   3.704   1.028
 2646TIP3    H1 7895   1.516   3.643   1.087
 2646TIP3    H2 7896   1.441   3.775   1.085
 2647TIP3   OH2 7897   2.766   7.138   0.660
 2647TIP3    H1 7898   2.763   7.221   0.708
 2647TIP3    H2 7899   2.859   7.118   0.655
 2648TIP3   OH2 7900   3.980   2.121   4.027
 2648TIP3    H1 7901   4.059   2.123   4.082
 2648TIP3    H2 7902   3.915   2.076   4.081
 2649TIP3   OH2 7903   0.320   0.197   5.280
 2649TIP3    H1 7904   0.313   0.146   5.200
 2649TIP3    H2 7905   0.231   0.196   5.317
 2650TIP3   OH2 7906   6.509   1.269   3.316
 2650TIP3    H1 7907   6.580   1.206   3.306
 2650TIP3    H2 7908   6.443   1.241   3.253
 2651TIP3   OH2 7909   1.023   7.127   5.336
 2651TIP3    H1 7910   1.076   7.196   5.296
 2651TIP3    H2 7911   0.973   7.090   5.264
 2652TIP3   OH2 7912   4.075   6.407   1.958
 2652TIP3    H1 7913   3.993   6.406   1.908
 2652TIP3    H2 7914   4.123   6.330   1.926
 2653TIP3   OH2 7915   0.500   7.745   4.084
 2653TIP3    H1 7916   0.482   7.838   4.101
 2653TIP3    H2 7917   0.466   7.730   3.996
 2654TIP3   OH2 7918   2.149   6.188   0.681
 2654TIP3    H1 7919   2.124   6.187   0.773
 2654TIP3    H2 7920   2.245   6.190   0.683
 2655TIP3   OH2 7921   6.695   2.113   6.240
 2655TIP3    H1 7922   6.603   2.129   6.262
 2655TIP3    H2 7923   6.709   2.163   6.159
 2656TIP3   OH2 7924   6.548   2.999   3.988
 2656TIP3    H1 7925   6.642   2.999   3.969
 2656TIP3    H2 7926   6.507   2.996   3.901
 2657TIP3   OH2 7927   1.862   0.453   6.351
 2657TIP3    H1 7928   1.930   0.498   6.401
 2657TIP3    H2 7929   1.797   0.427   6.417
 2658TIP3   OH2 7930   2.827   6.262   3.706
 2658TIP3    H1 7931   2.877   6.232   3.781
 2658TIP3    H2 7932   2.806   6.182   3.658
 2659TIP3   OH2 7933   7.388   2.147   1.542
 2659TIP3    H1 7934   7.411   2.075   1.600
 2659TIP3    H2 7935   7.448   2.139   1.468
 2660TIP3   OH2 7936   4.537   1.884   0.533
 2660TIP3    H1 7937   4.460   1.884   0.476
 2660TIP3    H2 7938   4.511   1.833   0.609
 2661TIP3   OH2 7939   8.078   4.115   6.359
 2661TIP3    H1 7940   8.162   4.072   6.344
 2661TIP3    H2 7941   8.072   4.123   6.454
 2662TIP3   OH2 7942   1.689   4.098   5.777
 2662TIP3    H1 7943   1.609   4.107   5.830
 2662TIP3    H2 7944   1.657   4.075   5.690
 2663TIP3   OH2 7945   5.042   5.880   6.613
 2663TIP3    H1 7946   4.957   5.916   6.638
 2663TIP3    H2 7947   5.052   5.904   6.520
 2664TIP3   OH2 7948   3.048   7.423   1.829
 2664TIP3    H1 7949   3.116   7.400   1.892
 2664TIP3    H2 7950   3.056   7.518   1.819
 2665TIP3   OH2 7951   5.789   6.121   2.242
 2665TIP3    H1 7952   5.742   6.056   2.190
 2665TIP3    H2 7953   5.842   6.169   2.179
 2666TIP3   OH2 7954   5.857   4.569   6.771
 2666TIP3    H1 7955   5.952   4.566   6.759
 2666TIP3    H2 7956   5.835   4.662   6.776
 2667TIP3   OH2 7957   2.332   7.473   5.349
 2667TIP3    H1 7958   2.408   7.445   5.400
 2667TIP3    H2 7959   2.286   7.392   5.327
 2668TIP3   OH2 7960   2.342   1.436   5.642
 2668TIP3    H1 7961   2.404   1.480   5.702
 2668TIP3    H2 7962   2.259   1.481   5.657
 2669TIP3   OH2 7963   5.149   1.266   6.534
 2669TIP3    H1 7964   5.085   1.209   6.491
 2669TIP3    H2 7965   5.153   1.234   6.624
 2670TIP3   OH2 7966   5.242   2.695   3.155
 2670TIP3    H1 7967   5.276   2.606   3.154
 2670TIP3    H2 7968   5.215   2.711   3.064
 2671TIP3   OH2 7969   0.478   0.771   0.321
 2671TIP3    H1 7970   0.445   0.832   0.387
 2671TIP3    H2 7971   0.432   0.689   0.339
 2672TIP3   OH2 7972   3.698   4.051   2.393
 2672TIP3    H1 7973   3.613   4.026   2.432
 2672TIP3    H2 7974   3.731   3.970   2.355
 2673TIP3   OH2 7975   5.723   5.942   2.057
 2673TIP3    H1 7976   5.680   5.969   1.976
 2673TIP3    H2 7977   5.696   5.852   2.071
 2674TIP3   OH2 7978   3.433   1.255   4.871
 2674TIP3    H1 7979   3.405   1.184   4.814
 2674TIP3    H2 7980   3.525   1.268   4.851
 2675TIP3   OH2 7981   1.411   7.266   1.943
 2675TIP3    H1 7982   1.340   7.213   1.908
 2675TIP3    H2 7983   1.395   7.354   1.908
 2676TIP3   OH2 7984   6.154   1.061   3.888
 2676TIP3    H1 7985   6.073   1.017   3.913
 2676TIP3    H2 7986   6.222   0.995   3.902
 2677TIP3   OH2 7987   4.637   6.364   6.299
 2677TIP3    H1 7988   4.706   6.427   6.321
 2677TIP3    H2 7989   4.667   6.324   6.217
 2678TIP3   OH2 7990   4.202   1.994   2.190
 2678TIP3    H1 7991   4.262   2.068   2.179
 2678TIP3    H2 7992   4.125   2.017   2.139
 2679TIP3   OH2 7993   7.547   4.436   6.119
 2679TIP3    H1 7994   7.477   4.380   6.153
 2679TIP3    H2 7995   7.561   4.406   6.029
 2680TIP3   OH2 7996   5.014   2.524   0.626
 2680TIP3    H1 7997   4.933   2.473   0.632
 2680TIP3    H2 7998   4.986   2.609   0.591
 2681TIP3   OH2 7999   5.763   0.381   3.531
 2681TIP3    H1 8000   5.853   0.353   3.547
 2681TIP3    H2 8001   5.709   0.324   3.586
 2682TIP3   OH2 8002   0.370   1.210   0.196
 2682TIP3    H1 8003   0.355   1.203   0.102
 2682TIP3    H2 8004   0.459   1.176   0.209
 2683TIP3   OH2 8005   6.052   0.245   3.920
 2683TIP3    H1 8006   5.989   0.252   3.993
 2683TIP3    H2 8007   6.115   0.179   3.948
 2684TIP3   OH2 8008   7.021   4.554   2.392
 2684TIP3    H1 8009   6.960   4.536   2.464
 2684TIP3    H2 8010   7.092   4.603   2.432
 2685TIP3   OH2 8011   0.726   2.174   0.390
 2685TIP3    H1 8012   0.714   2.250   0.447
 2685TIP3    H2 8013   0.801   2.197   0.336
 2686TIP3   OH2 8014   2.250   0.108   1.610
 2686TIP3    H1 8015   2.201   0.164   1.550
 2686TIP3    H2 8016   2.215   0.130   1.697
 2687TIP3   OH2 8017   5.981   3.482   3.697
 2687TIP3    H1 8018   6.067   3.523   3.698
 2687TIP3    H2 8019   5.930   3.534   3.635
 2688TIP3   OH2 8020   1.499   5.054   4.638
 2688TIP3    H1 8021   1.447   4.994   4.584
 2688TIP3    H2 8022   1.582   5.063   4.590
 2689TIP3   OH2 8023   2.407   4.752   0.025
 2689TIP3    H1 8024   2.369   4.674  -0.015
 2689TIP3    H2 8025   2.395   4.821  -0.040
 2690TIP3   OH2 8026   5.303   5.893   3.263
 2690TIP3    H1 8027   5.366   5.918   3.331
 2690TIP3    H2 8028   5.319   5.800   3.249
 2691TIP3   OH2 8029   1.941   3.218   0.787
 2691TIP3    H1 8030   2.014   3.155   0.783
 2691TIP3    H2 8031   1.980   3.301   0.762
 2692TIP3   OH2 8032   8.201   5.580   4.467
 2692TIP3    H1 8033   8.127   5.546   4.418
 2692TIP3    H2 8034   8.228   5.508   4.524
 2693TIP3   OH2 8035   1.695   7.050   6.119
 2693TIP3    H1 8036   1.725   7.042   6.209
 2693TIP3    H2 8037   1.660   7.138   6.112
 2694TIP3   OH2 8038   3.190   5.996   0.142
 2694TIP3    H1 8039   3.096   5.988   0.126
 2694TIP3    H2 8040   3.222   5.905   0.139
 2695TIP3   OH2 8041   4.068   5.238   3.108
 2695TIP3    H1 8042   4.030   5.261   3.023
 2695TIP3    H2 8043   4.131   5.309   3.125
 2696TIP3   OH2 8044   2.059   4.251   4.588
 2696TIP3    H1 8045   2.125   4.300   4.539
 2696TIP3    H2 8046   1.989   4.237   4.524
 2697TIP3   OH2 8047   6.612   6.773   6.117
 2697TIP3    H1 8048   6.614   6.678   6.104
 2697TIP3    H2 8049   6.545   6.804   6.055
 2698TIP3   OH2 8050   1.469   4.788   3.138
 2698TIP3    H1 8051   1.446   4.771   3.047
 2698TIP3    H2 8052   1.463   4.883   3.147
 2699TIP3   OH2 8053   6.593   0.667   0.575
 2699TIP3    H1 8054   6.546   0.585   0.592
 2699TIP3    H2 8055   6.674   0.639   0.532
 2700TIP3   OH2 8056   1.533   0.303   2.458
 2700TIP3    H1 8057   1.578   0.350   2.387
 2700TIP3    H2 8058   1.468   0.365   2.491
 2701TIP3   OH2 8059   5.065   6.666   0.489
 2701TIP3    H1 8060   4.982   6.618   0.484
 2701TIP3    H2 8061   5.115   6.635   0.413
 2702TIP3   OH2 8062   2.849   2.079   2.754
 2702TIP3    H1 8063   2.877   2.121   2.835
 2702TIP3    H2 8064   2.903   2.000   2.748
 2703TIP3   OH2 8065   8.134   2.048   0.408
 2703TIP3    H1 8066   8.177   2.068   0.324
 2703TIP3    H2 8067   8.196   2.075   0.474
 2704TIP3   OH2 8068   3.689   0.226   2.042
 2704TIP3    H1 8069   3.623   0.232   1.973
 2704TIP3    H2 8070   3.731   0.141   2.028
 2705TIP3   OH2 8071   6.995   4.859   3.845
 2705TIP3    H1 8072   6.961   4.948   3.855
 2705TIP3    H2 8073   6.918   4.806   3.825
 2706TIP3   OH2 8074   1.175   3.250   0.758
 2706TIP3    H1 8075   1.220   3.321   0.802
 2706TIP3    H2 8076   1.243   3.209   0.703
 2707TIP3   OH2 8077   1.015   2.740   0.122
 2707TIP3    H1 8078   0.936   2.775   0.164
 2707TIP3    H2 8079   0.991   2.731   0.030
 2708TIP3   OH2 8080   7.973   1.650   0.762
 2708TIP3    H1 8081   8.060   1.612   0.758
 2708TIP3    H2 8082   7.984   1.739   0.730
 2709TIP3   OH2 8083   2.878   4.329   1.750
 2709TIP3    H1 8084   2.803   4.388   1.760
 2709TIP3    H2 8085   2.954   4.386   1.741
 2710TIP3   OH2 8086   4.690   4.361   6.214
 2710TIP3    H1 8087   4.676   4.339   6.122
 2710TIP3    H2 8088   4.776   4.326   6.235
 2711TIP3   OH2 8089   7.731   7.461   2.803
 2711TIP3    H1 8090   7.803   7.524   2.794
 2711TIP3    H2 8091   7.770   7.378   2.776
 2712TIP3   OH2 8092   5.958   0.943   0.837
 2712TIP3    H1 8093   5.984   0.852   0.842
 2712TIP3    H2 8094   5.905   0.950   0.757
 2713TIP3   OH2 8095   3.225   5.862   4.466
 2713TIP3    H1 8096   3.259   5.906   4.544
 2713TIP3    H2 8097   3.299   5.862   4.405
 2714TIP3   OH2 8098   4.895   2.961   2.175
 2714TIP3    H1 8099   4.983   2.947   2.209
 2714TIP3    H2 8100   4.837   2.937   2.247
 2715TIP3   OH2 8101   0.519   6.067   2.576
 2715TIP3    H1 8102   0.597   6.057   2.630
 2715TIP3    H2 8103   0.462   6.125   2.626
 2716TIP3   OH2 8104   4.450   5.870   6.665
 2716TIP3    H1 8105   4.518   5.805   6.680
 2716TIP3    H2 8106   4.413   5.886   6.752
 2717TIP3   OH2 8107   3.733   3.101   5.948
 2717TIP3    H1 8108   3.656   3.081   6.001
 2717TIP3    H2 8109   3.704   3.090   5.857
 2718TIP3   OH2 8110   1.404   5.853   6.066
 2718TIP3    H1 8111   1.420   5.790   5.996
 2718TIP3    H2 8112   1.310   5.870   6.061
 2719TIP3   OH2 8113   3.161   0.676   4.839
 2719TIP3    H1 8114   3.088   0.709   4.891
 2719TIP3    H2 8115   3.142   0.583   4.827
 2720TIP3   OH2 8116   2.155   1.739   4.494
 2720TIP3    H1 8117   2.132   1.648   4.474
 2720TIP3    H2 8118   2.242   1.733   4.533
 2721TIP3   OH2 8119   5.440   7.276   0.683
 2721TIP3    H1 8120   5.352   7.242   0.671
 2721TIP3    H2 8121   5.496   7.219   0.630
 2722TIP3   OH2 8122   0.515   7.189   6.287
 2722TIP3    H1 8123   0.573   7.263   6.305
 2722TIP3    H2 8124   0.568   7.130   6.233
 2723TIP3   OH2 8125   7.983   6.140   5.588
 2723TIP3    H1 8126   7.940   6.222   5.612
 2723TIP3    H2 8127   7.911   6.082   5.562
 2724TIP3   OH2 8128   4.064   6.315   6.504
 2724TIP3    H1 8129   4.092   6.384   6.443
 2724TIP3    H2 8130   4.139   6.301   6.561
 2725TIP3   OH2 8131   7.179   7.728   0.487
 2725TIP3    H1 8132   7.168   7.822   0.501
 2725TIP3    H2 8133   7.115   7.705   0.420
 2726TIP3   OH2 8134   1.704   3.082   6.222
 2726TIP3    H1 8135   1.678   3.138   6.295
 2726TIP3    H2 8136   1.774   3.130   6.178
 2727TIP3   OH2 8137   6.709   7.632   4.112
 2727TIP3    H1 8138   6.629   7.596   4.149
 2727TIP3    H2 8139   6.688   7.649   4.020
 2728TIP3   OH2 8140   0.106   2.634   6.150
 2728TIP3    H1 8141   0.021   2.671   6.174
 2728TIP3    H2 8142   0.169   2.681   6.205
 2729TIP3   OH2 8143   6.410   1.408   1.898
 2729TIP3    H1 8144   6.370   1.329   1.863
 2729TIP3    H2 8145   6.382   1.410   1.990
 2730TIP3   OH2 8146   6.421   5.124   1.529
 2730TIP3    H1 8147   6.375   5.074   1.460
 2730TIP3    H2 8148   6.512   5.126   1.500
 2731TIP3   OH2 8149   6.218   0.301   4.408
 2731TIP3    H1 8150   6.146   0.364   4.405
 2731TIP3    H2 8151   6.292   0.351   4.444
 2732TIP3   OH2 8152   6.130   5.289   4.141
 2732TIP3    H1 8153   6.049   5.336   4.118
 2732TIP3    H2 8154   6.100   5.202   4.168
 2733TIP3   OH2 8155   3.135   0.792   6.043
 2733TIP3    H1 8156   3.130   0.778   6.138
 2733TIP3    H2 8157   3.064   0.739   6.007
 2734TIP3   OH2 8158   6.703   4.711   1.209
 2734TIP3    H1 8159   6.730   4.713   1.117
 2734TIP3    H2 8160   6.642   4.637   1.214
 2735TIP3   OH2 8161   6.872   5.187   1.245
 2735TIP3    H1 8162   6.953   5.197   1.294
 2735TIP3    H2 8163   6.848   5.095   1.256
 2736TIP3   OH2 8164   2.009   3.696   3.313
 2736TIP3    H1 8165   1.965   3.653   3.239
 2736TIP3    H2 8166   1.942   3.699   3.382
 2737TIP3   OH2 8167   6.421   6.734   0.095
 2737TIP3    H1 8168   6.334   6.726   0.134
 2737TIP3    H2 8169   6.481   6.705   0.164
 2738TIP3   OH2 8170   7.447   5.675   0.073
 2738TIP3    H1 8171   7.366   5.691   0.024
 2738TIP3    H2 8172   7.500   5.754   0.059
 2739TIP3   OH2 8173   3.042   6.741   3.525
 2739TIP3    H1 8174   3.129   6.702   3.532
 2739TIP3    H2 8175   3.014   6.721   3.436
 2740TIP3   OH2 8176   2.006   5.503   3.086
 2740TIP3    H1 8177   2.064   5.577   3.066
 2740TIP3    H2 8178   1.949   5.536   3.155
 2741TIP3   OH2 8179   6.905   6.229   1.698
 2741TIP3    H1 8180   6.928   6.322   1.692
 2741TIP3    H2 8181   6.906   6.198   1.607
 2742TIP3   OH2 8182   3.975   4.843   3.927
 2742TIP3    H1 8183   3.899   4.885   3.889
 2742TIP3    H2 8184   3.997   4.896   4.004
 2743TIP3   OH2 8185   0.793   1.400   4.239
 2743TIP3    H1 8186   0.854   1.374   4.169
 2743TIP3    H2 8187   0.773   1.492   4.219
 2744TIP3   OH2 8188   5.284   4.454   0.079
 2744TIP3    H1 8189   5.362   4.497   0.114
 2744TIP3    H2 8190   5.213   4.486   0.135
 2745TIP3   OH2 8191   5.144   7.120   2.721
 2745TIP3    H1 8192   5.082   7.143   2.652
 2745TIP3    H2 8193   5.203   7.196   2.727
 2746TIP3   OH2 8194   4.877   2.599   6.295
 2746TIP3    H1 8195   4.956   2.630   6.339
 2746TIP3    H2 8196   4.830   2.678   6.270
 2747TIP3   OH2 8197   5.645   0.592   0.225
 2747TIP3    H1 8198   5.693   0.514   0.200
 2747TIP3    H2 8199   5.558   0.561   0.248
 2748TIP3   OH2 8200   5.414   7.537   3.392
 2748TIP3    H1 8201   5.429   7.451   3.430
 2748TIP3    H2 8202   5.440   7.599   3.460
 2749TIP3   OH2 8203   3.031   7.693   1.762
 2749TIP3    H1 8204   2.954   7.744   1.738
 2749TIP3    H2 8205   3.062   7.731   1.844
 2750TIP3   OH2 8206   1.087   2.703   3.941
 2750TIP3    H1 8207   1.092   2.626   3.997
 2750TIP3    H2 8208   1.102   2.669   3.853
 2751TIP3   OH2 8209   2.691   0.902   2.928
 2751TIP3    H1 8210   2.704   0.997   2.930
 2751TIP3    H2 8211   2.683   0.881   2.835
 2752TIP3   OH2 8212   4.230   3.639   2.485
 2752TIP3    H1 8213   4.304   3.594   2.443
 2752TIP3    H2 8214   4.153   3.605   2.439
 2753TIP3   OH2 8215   4.017   6.201   3.309
 2753TIP3    H1 8216   4.044   6.287   3.278
 2753TIP3    H2 8217   4.093   6.144   3.295
 2754TIP3   OH2 8218   6.732   2.673   3.894
 2754TIP3    H1 8219   6.737   2.753   3.947
 2754TIP3    H2 8220   6.703   2.703   3.808
 2755TIP3   OH2 8221   5.635   2.303   3.270
 2755TIP3    H1 8222   5.570   2.311   3.340
 2755TIP3    H2 8223   5.627   2.212   3.240
 2756TIP3   OH2 8224   7.054   3.911   1.701
 2756TIP3    H1 8225   7.071   3.860   1.623
 2756TIP3    H2 8226   6.959   3.925   1.700
 2757TIP3   OH2 8227   7.767   4.955   1.660
 2757TIP3    H1 8228   7.758   4.860   1.666
 2757TIP3    H2 8229   7.736   4.988   1.744
 2758TIP3   OH2 8230   6.025   5.391   1.479
 2758TIP3    H1 8231   5.985   5.476   1.463
 2758TIP3    H2 8232   5.998   5.369   1.569
 2759TIP3   OH2 8233   2.478   2.905   5.142
 2759TIP3    H1 8234   2.396   2.861   5.117
 2759TIP3    H2 8235   2.491   2.972   5.075
 2760TIP3   OH2 8236   5.721   7.717   5.394
 2760TIP3    H1 8237   5.678   7.801   5.378
 2760TIP3    H2 8238   5.651   7.653   5.387
 2761TIP3   OH2 8239   1.346   3.702   3.592
 2761TIP3    H1 8240   1.318   3.706   3.501
 2761TIP3    H2 8241   1.391   3.618   3.600
 2762TIP3   OH2 8242   7.935   1.031   4.100
 2762TIP3    H1 8243   7.983   1.013   4.019
 2762TIP3    H2 8244   7.989   1.095   4.146
 2763TIP3   OH2 8245   0.504   3.232   6.416
 2763TIP3    H1 8246   0.415   3.265   6.429
 2763TIP3    H2 8247   0.527   3.260   6.328
 2764TIP3   OH2 8248   0.484   0.123   1.765
 2764TIP3    H1 8249   0.456   0.036   1.736
 2764TIP3    H2 8250   0.576   0.129   1.738
 2765TIP3   OH2 8251   6.481   6.540   4.568
 2765TIP3    H1 8252   6.407   6.554   4.627
 2765TIP3    H2 8253   6.558   6.543   4.626
 2766TIP3   OH2 8254   2.291   2.354   6.269
 2766TIP3    H1 8255   2.328   2.346   6.181
 2766TIP3    H2 8256   2.270   2.447   6.278
 2767TIP3   OH2 8257   1.952   2.852   0.640
 2767TIP3    H1 8258   1.906   2.801   0.707
 2767TIP3    H2 8259   2.022   2.896   0.688
 2768TIP3   OH2 8260   5.584   2.230   3.745
 2768TIP3    H1 8261   5.669   2.260   3.775
 2768TIP3    H2 8262   5.587   2.135   3.753
 2769TIP3   OH2 8263   3.212   5.570   4.281
 2769TIP3    H1 8264   3.195   5.624   4.204
 2769TIP3    H2 8265   3.279   5.617   4.330
 2770TIP3   OH2 8266   1.508   3.138   1.627
 2770TIP3    H1 8267   1.440   3.178   1.682
 2770TIP3    H2 8268   1.542   3.211   1.575
 2771TIP3   OH2 8269   5.740   4.216   2.254
 2771TIP3    H1 8270   5.713   4.125   2.243
 2771TIP3    H2 8271   5.835   4.211   2.268
 2772TIP3   OH2 8272   7.288   5.373   2.405
 2772TIP3    H1 8273   7.297   5.320   2.485
 2772TIP3    H2 8274   7.266   5.311   2.337
 2773TIP3   OH2 8275   7.792   1.882   5.077
 2773TIP3    H1 8276   7.764   1.943   5.009
 2773TIP3    H2 8277   7.817   1.937   5.151
 2774TIP3   OH2 8278   0.857   6.071   2.387
 2774TIP3    H1 8279   0.771   6.103   2.359
 2774TIP3    H2 8280   0.917   6.143   2.365
 2775TIP3   OH2 8281   1.095   7.392   1.275
 2775TIP3    H1 8282   1.127   7.417   1.189
 2775TIP3    H2 8283   1.027   7.458   1.295
 2776TIP3   OH2 8284   1.189   0.484   0.770
 2776TIP3    H1 8285   1.179   0.404   0.718
 2776TIP3    H2 8286   1.273   0.520   0.743
 2777TIP3   OH2 8287   4.303   2.867   2.273
 2777TIP3    H1 8288   4.389   2.824   2.269
 2777TIP3    H2 8289   4.254   2.817   2.337
 2778TIP3   OH2 8290   5.965   7.490   6.662
 2778TIP3    H1 8291   6.011   7.506   6.580
 2778TIP3    H2 8292   5.872   7.486   6.637
 2779TIP3   OH2 8293   7.898   0.209   1.155
 2779TIP3    H1 8294   7.914   0.124   1.195
 2779TIP3    H2 8295   7.882   0.268   1.228
 2780TIP3   OH2 8296   3.401   1.336   3.809
 2780TIP3    H1 8297   3.435   1.404   3.750
 2780TIP3    H2 8298   3.327   1.299   3.761
 2781TIP3   OH2 8299   2.117   0.566   5.384
 2781TIP3    H1 8300   2.152   0.483   5.415
 2781TIP3    H2 8301   2.094   0.550   5.292
 2782TIP3   OH2 8302   5.067   0.659   4.222
 2782TIP3    H1 8303   5.023   0.663   4.306
 2782TIP3    H2 8304   5.038   0.577   4.183
 2783TIP3   OH2 8305   2.672   2.199   4.788
 2783TIP3    H1 8306   2.690   2.288   4.819
 2783TIP3    H2 8307   2.742   2.146   4.825
 2784TIP3   OH2 8308   6.905   5.128   3.885
 2784TIP3    H1 8309   6.901   5.157   3.794
 2784TIP3    H2 8310   6.955   5.196   3.931
 2785TIP3   OH2 8311   7.411   0.329   5.726
 2785TIP3    H1 8312   7.392   0.245   5.686
 2785TIP3    H2 8313   7.506   0.333   5.730
 2786TIP3   OH2 8314   4.808   5.580   4.679
 2786TIP3    H1 8315   4.780   5.505   4.627
 2786TIP3    H2 8316   4.730   5.634   4.689
 2787TIP3   OH2 8317   5.041   3.231   4.557
 2787TIP3    H1 8318   4.998   3.277   4.629
 2787TIP3    H2 8319   5.022   3.284   4.480
 2788TIP3   OH2 8320   4.720   6.754   3.255
 2788TIP3    H1 8321   4.778   6.681   3.275
 2788TIP3    H2 8322   4.632   6.721   3.273
 2789TIP3   OH2 8323   2.050   2.358   1.933
 2789TIP3    H1 8324   2.020   2.321   2.016
 2789TIP3    H2 8325   2.018   2.448   1.933
 2790TIP3   OH2 8326   5.555   5.949   0.124
 2790TIP3    H1 8327   5.582   5.857   0.127
 2790TIP3    H2 8328   5.487   5.956   0.192
 2791TIP3   OH2 8329   6.763   4.619   2.013
 2791TIP3    H1 8330   6.805   4.569   2.083
 2791TIP3    H2 8331   6.744   4.555   1.945
 2792TIP3   OH2 8332   2.785   1.570   3.928
 2792TIP3    H1 8333   2.755   1.643   3.982
 2792TIP3    H2 8334   2.871   1.597   3.898
 2793TIP3   OH2 8335   3.968   5.760   2.856
 2793TIP3    H1 8336   3.996   5.778   2.767
 2793TIP3    H2 8337   4.048   5.731   2.901
 2794TIP3   OH2 8338   0.923   2.283   1.362
 2794TIP3    H1 8339   0.983   2.302   1.289
 2794TIP3    H2 8340   0.878   2.203   1.335
 2795TIP3   OH2 8341   5.504   1.233   0.097
 2795TIP3    H1 8342   5.554   1.203   0.174
 2795TIP3    H2 8343   5.415   1.201   0.112
 2796TIP3   OH2 8344   5.254   2.390   6.172
 2796TIP3    H1 8345   5.338   2.406   6.214
 2796TIP3    H2 8346   5.276   2.354   6.086
 2797TIP3   OH2 8347   6.699   1.951   4.924
 2797TIP3    H1 8348   6.721   2.030   4.876
 2797TIP3    H2 8349   6.779   1.929   4.972
 2798TIP3   OH2 8350   7.351   5.981   0.690
 2798TIP3    H1 8351   7.362   5.892   0.657
 2798TIP3    H2 8352   7.387   5.978   0.779
 2799TIP3   OH2 8353   2.681   6.753   0.154
 2799TIP3    H1 8354   2.654   6.758   0.246
 2799TIP3    H2 8355   2.621   6.689   0.116
 2800TIP3   OH2 8356   2.212   3.880   6.321
 2800TIP3    H1 8357   2.232   3.848   6.409
 2800TIP3    H2 8358   2.124   3.847   6.303
 2801TIP3   OH2 8359   1.215   6.784   1.951
 2801TIP3    H1 8360   1.235   6.719   2.018
 2801TIP3    H2 8361   1.120   6.781   1.942
 2802TIP3   OH2 8362   6.047   1.668   1.882
 2802TIP3    H1 8363   6.121   1.629   1.837
 2802TIP3    H2 8364   5.999   1.594   1.919
 2803TIP3   OH2 8365   2.399   2.522   4.831
 2803TIP3    H1 8366   2.386   2.617   4.824
 2803TIP3    H2 8367   2.342   2.495   4.903
 2804TIP3   OH2 8368   6.033   4.651   1.968
 2804TIP3    H1 8369   5.941   4.680   1.968
 2804TIP3    H2 8370   6.077   4.712   1.909
 2805TIP3   OH2 8371   1.647   3.705   2.892
 2805TIP3    H1 8372   1.563   3.740   2.861
 2805TIP3    H2 8373   1.625   3.619   2.927
 2806TIP3   OH2 8374   0.378   0.535   0.384
 2806TIP3    H1 8375   0.379   0.450   0.340
 2806TIP3    H2 8376   0.358   0.515   0.475
 2807TIP3   OH2 8377   3.501   7.681   0.180
 2807TIP3    H1 8378   3.522   7.702   0.271
 2807TIP3    H2 8379   3.466   7.762   0.144
 2808TIP3   OH2 8380   1.676   6.399   2.987
 2808TIP3    H1 8381   1.726   6.326   2.952
 2808TIP3    H2 8382   1.739   6.471   2.993
 2809TIP3   OH2 8383   3.419   0.725   5.110
 2809TIP3    H1 8384   3.436   0.632   5.121
 2809TIP3    H2 8385   3.398   0.757   5.197
 2810TIP3   OH2 8386   5.789   7.110   5.936
 2810TIP3    H1 8387   5.770   7.017   5.927
 2810TIP3    H2 8388   5.764   7.131   6.026
 2811TIP3   OH2 8389   7.476   3.037   0.230
 2811TIP3    H1 8390   7.385   3.066   0.230
 2811TIP3    H2 8391   7.493   3.013   0.139
 2812TIP3   OH2 8392   2.032   5.537   5.376
 2812TIP3    H1 8393   1.985   5.499   5.450
 2812TIP3    H2 8394   1.963   5.562   5.315
 2813TIP3   OH2 8395   1.104   7.087   3.406
 2813TIP3    H1 8396   1.156   7.084   3.326
 2813TIP3    H2 8397   1.069   6.999   3.416
 2814TIP3   OH2 8398   8.015   3.101   5.959
 2814TIP3    H1 8399   8.043   3.083   5.870
 2814TIP3    H2 8400   7.958   3.178   5.952
 2815TIP3   OH2 8401   3.450   6.606   5.841
 2815TIP3    H1 8402   3.481   6.647   5.922
 2815TIP3    H2 8403   3.486   6.517   5.844
 2816TIP3   OH2 8404   0.586   3.291   4.514
 2816TIP3    H1 8405   0.622   3.246   4.439
 2816TIP3    H2 8406   0.541   3.223   4.564
 2817TIP3   OH2 8407   2.017   1.474   3.297
 2817TIP3    H1 8408   2.065   1.543   3.342
 2817TIP3    H2 8409   1.961   1.521   3.234
 2818TIP3   OH2 8410   6.518   3.495   4.494
 2818TIP3    H1 8411   6.588   3.484   4.558
 2818TIP3    H2 8412   6.556   3.551   4.426
 2819TIP3   OH2 8413   7.998   4.184   5.234
 2819TIP3    H1 8414   7.948   4.249   5.184
 2819TIP3    H2 8415   8.040   4.235   5.303
 2820TIP3   OH2 8416   6.193   0.009   5.285
 2820TIP3    H1 8417   6.233   0.056   5.212
 2820TIP3    H2 8418   6.106   0.046   5.293
 2821TIP3   OH2 8419   2.629   4.698   1.187
 2821TIP3    H1 8420   2.538   4.716   1.163
 2821TIP3    H2 8421   2.630   4.704   1.283
 2822TIP3   OH2 8422   3.137   6.162   3.655
 2822TIP3    H1 8423   3.073   6.106   3.610
 2822TIP3    H2 8424   3.214   6.107   3.665
 2823TIP3   OH2 8425   1.828   0.117   0.010
 2823TIP3    H1 8426   1.872   0.067  -0.059
 2823TIP3    H2 8427   1.735   0.098  -0.002
 2824TIP3   OH2 8428   4.012   7.569   1.960
 2824TIP3    H1 8429   3.919   7.592   1.967
 2824TIP3    H2 8430   4.027   7.507   2.031
 2825TIP3   OH2 8431   6.468   3.993   4.183
 2825TIP3    H1 8432   6.503   4.003   4.272
 2825TIP3    H2 8433   6.528   3.931   4.141
 2826TIP3   OH2 8434   3.786   5.167   6.707
 2826TIP3    H1 8435   3.795   5.135   6.796
 2826TIP3    H2 8436   3.785   5.087   6.653
 2827TIP3   OH2 8437   7.331   5.146   3.652
 2827TIP3    H1 8438   7.340   5.240   3.635
 2827TIP3    H2 8439   7.260   5.118   3.595
 2828TIP3   OH2 8440   3.535   2.269   5.485
 2828TIP3    H1 8441   3.600   2.281   5.417
 2828TIP3    H2 8442   3.577   2.299   5.565
 2829TIP3   OH2 8443   0.506   6.167   0.377
 2829TIP3    H1 8444   0.587   6.188   0.423
 2829TIP3    H2 8445   0.533   6.102   0.311
 2830TIP3   OH2 8446   2.812   7.776   5.310
 2830TIP3    H1 8447   2.802   7.681   5.307
 2830TIP3    H2 8448   2.773   7.807   5.228
 2831TIP3   OH2 8449   0.322   6.301   3.487
 2831TIP3    H1 8450   0.335   6.252   3.568
 2831TIP3    H2 8451   0.346   6.391   3.509
 2832TIP3   OH2 8452   4.229   7.313   5.542
 2832TIP3    H1 8453   4.237   7.254   5.467
 2832TIP3    H2 8454   4.287   7.276   5.608
 2833TIP3   OH2 8455   3.854   6.881   3.298
 2833TIP3    H1 8456   3.819   6.865   3.385
 2833TIP3    H2 8457   3.894   6.967   3.304
 2834TIP3   OH2 8458   0.469   0.284   5.994
 2834TIP3    H1 8459   0.409   0.253   6.062
 2834TIP3    H2 8460   0.412   0.324   5.928
 2835TIP3   OH2 8461   3.781   7.284   6.487
 2835TIP3    H1 8462   3.727   7.358   6.516
 2835TIP3    H2 8463   3.758   7.272   6.395
 2836TIP3   OH2 8464   8.257   7.487   3.533
 2836TIP3    H1 8465   8.254   7.581   3.518
 2836TIP3    H2 8466   8.179   7.469   3.587
 2837TIP3   OH2 8467   7.661   5.632   4.837
 2837TIP3    H1 8468   7.658   5.593   4.924
 2837TIP3    H2 8469   7.732   5.696   4.842
 2838TIP3   OH2 8470   4.415   3.555   3.421
 2838TIP3    H1 8471   4.395   3.648   3.428
 2838TIP3    H2 8472   4.348   3.512   3.474
 2839TIP3   OH2 8473   7.292   3.315   5.852
 2839TIP3    H1 8474   7.359   3.377   5.881
 2839TIP3    H2 8475   7.331   3.272   5.776
 2840TIP3   OH2 8476   3.947   0.874   5.465
 2840TIP3    H1 8477   4.042   0.882   5.459
 2840TIP3    H2 8478   3.916   0.896   5.377
 2841TIP3   OH2 8479   1.218   7.549   4.777
 2841TIP3    H1 8480   1.233   7.466   4.731
 2841TIP3    H2 8481   1.168   7.523   4.855
 2842TIP3   OH2 8482   3.147   4.429   2.015
 2842TIP3    H1 8483   3.179   4.514   2.045
 2842TIP3    H2 8484   3.054   4.428   2.038
 2843TIP3   OH2 8485   2.716   0.011   6.056
 2843TIP3    H1 8486   2.656   0.044   6.122
 2843TIP3    H2 8487   2.778   0.082   6.042
 2844TIP3   OH2 8488   2.716   0.185   4.462
 2844TIP3    H1 8489   2.662   0.108   4.446
 2844TIP3    H2 8490   2.751   0.208   4.376
 2845TIP3   OH2 8491   7.234   1.943   6.246
 2845TIP3    H1 8492   7.238   2.039   6.252
 2845TIP3    H2 8493   7.168   1.927   6.178
 2846TIP3   OH2 8494   3.783   6.604   4.931
 2846TIP3    H1 8495   3.799   6.690   4.968
 2846TIP3    H2 8496   3.688   6.600   4.918
 2847TIP3   OH2 8497   2.126   0.200   0.197
 2847TIP3    H1 8498   2.136   0.203   0.292
 2847TIP3    H2 8499   2.107   0.291   0.173
 2848TIP3   OH2 8500   6.042   6.959   5.243
 2848TIP3    H1 8501   5.962   6.939   5.291
 2848TIP3    H2 8502   6.096   6.881   5.252
 2849TIP3   OH2 8503   7.890   1.275   5.943
 2849TIP3    H1 8504   7.935   1.277   6.027
 2849TIP3    H2 8505   7.957   1.298   5.879
 2850TIP3   OH2 8506   3.659   5.774   4.574
 2850TIP3    H1 8507   3.663   5.866   4.599
 2850TIP3    H2 8508   3.731   5.764   4.511
 2851TIP3   OH2 8509   4.237   0.988   4.779
 2851TIP3    H1 8510   4.280   1.008   4.862
 2851TIP3    H2 8511   4.174   1.060   4.768
 2852TIP3   OH2 8512   7.806   4.510   3.245
 2852TIP3    H1 8513   7.884   4.529   3.193
 2852TIP3    H2 8514   7.756   4.592   3.244
 2853TIP3   OH2 8515   3.874   6.105   2.062
 2853TIP3    H1 8516   3.847   6.194   2.040
 2853TIP3    H2 8517   3.851   6.053   1.985
 2854TIP3   OH2 8518   0.336   3.629   2.673
 2854TIP3    H1 8519   0.290   3.638   2.589
 2854TIP3    H2 8520   0.421   3.592   2.650
 2855TIP3   OH2 8521   6.873   0.135   1.802
 2855TIP3    H1 8522   6.821   0.185   1.739
 2855TIP3    H2 8523   6.863   0.044   1.775
 2856TIP3   OH2 8524   4.347   0.457   3.674
 2856TIP3    H1 8525   4.372   0.506   3.595
 2856TIP3    H2 8526   4.381   0.510   3.746
 2857TIP3   OH2 8527   5.829   4.012   1.814
 2857TIP3    H1 8528   5.922   3.998   1.801
 2857TIP3    H2 8529   5.793   3.923   1.823
 2858TIP3   OH2 8530   6.673   1.043   4.115
 2858TIP3    H1 8531   6.578   1.046   4.130
 2858TIP3    H2 8532   6.706   0.985   4.184
 2859TIP3   OH2 8533   2.083   0.316   6.761
 2859TIP3    H1 8534   2.070   0.221   6.759
 2859TIP3    H2 8535   2.177   0.328   6.746
 2860TIP3   OH2 8536   3.322   4.952   1.604
 2860TIP3    H1 8537   3.339   4.932   1.696
 2860TIP3    H2 8538   3.226   4.952   1.597
 2861TIP3   OH2 8539   0.876   4.032   6.392
 2861TIP3    H1 8540   0.919   3.973   6.330
 2861TIP3    H2 8541   0.947   4.084   6.430
 2862TIP3   OH2 8542   4.820   1.486   4.883
 2862TIP3    H1 8543   4.905   1.479   4.926
 2862TIP3    H2 8544   4.793   1.396   4.867
 2863TIP3   OH2 8545   2.212   4.666   1.303
 2863TIP3    H1 8546   2.148   4.598   1.283
 2863TIP3    H2 8547   2.211   4.672   1.399
 2864TIP3   OH2 8548   8.258   4.579   5.428
 2864TIP3    H1 8549   8.228   4.670   5.436
 2864TIP3    H2 8550   8.177   4.529   5.414
 2865TIP3   OH2 8551   0.770   5.906   0.851
 2865TIP3    H1 8552   0.819   5.975   0.807
 2865TIP3    H2 8553   0.731   5.855   0.780
 2866TIP3   OH2 8554   5.714   1.689   4.726
 2866TIP3    H1 8555   5.666   1.644   4.657
 2866TIP3    H2 8556   5.730   1.777   4.692
 2867TIP3   OH2 8557   4.588   3.520   5.958
 2867TIP3    H1 8558   4.530   3.587   5.993
 2867TIP3    H2 8559   4.538   3.482   5.885
 2868TIP3   OH2 8560   0.247   5.577   4.073
 2868TIP3    H1 8561   0.253   5.664   4.113
 2868TIP3    H2 8562   0.168   5.581   4.019
 2869TIP3   OH2 8563   1.536   4.600   5.866
 2869TIP3    H1 8564   1.502   4.685   5.836
 2869TIP3    H2 8565   1.534   4.606   5.962
 2870TIP3   OH2 8566   3.011   1.658   5.406
 2870TIP3    H1 8567   3.064   1.723   5.361
 2870TIP3    H2 8568   3.013   1.684   5.498
 2871TIP3   OH2 8569   4.897   3.191   5.568
 2871TIP3    H1 8570   4.963   3.219   5.631
 2871TIP3    H2 8571   4.872   3.271   5.522
 2872TIP3   OH2 8572   4.717   2.469   4.543
 2872TIP3    H1 8573   4.779   2.537   4.517
 2872TIP3    H2 8574   4.692   2.494   4.632
 2873TIP3   OH2 8575   4.720   1.755   1.571
 2873TIP3    H1 8576   4.672   1.802   1.639
 2873TIP3    H2 8577   4.810   1.787   1.580
 2874TIP3   OH2 8578   0.011   6.578   1.959
 2874TIP3    H1 8579  -0.062   6.524   1.989
 2874TIP3    H2 8580   0.083   6.516   1.945
 2875TIP3   OH2 8581   5.074   2.014   4.884
 2875TIP3    H1 8582   5.152   2.048   4.926
 2875TIP3    H2 8583   5.068   2.062   4.801
 2876TIP3   OH2 8584   7.738   1.751   2.390
 2876TIP3    H1 8585   7.675   1.811   2.350
 2876TIP3    H2 8586   7.685   1.677   2.419
 2877TIP3   OH2 8587   8.292   2.637   5.363
 2877TIP3    H1 8588   8.305   2.588   5.444
 2877TIP3    H2 8589   8.300   2.572   5.293
 2878TIP3   OH2 8590   8.171   4.916   0.048
 2878TIP3    H1 8591   8.261   4.896   0.071
 2878TIP3    H2 8592   8.132   4.948   0.129
 2879TIP3   OH2 8593   5.536   5.145   2.086
 2879TIP3    H1 8594   5.578   5.060   2.099
 2879TIP3    H2 8595   5.562   5.196   2.164
 2880TIP3   OH2 8596   5.172   7.328   5.138
 2880TIP3    H1 8597   5.175   7.389   5.211
 2880TIP3    H2 8598   5.086   7.287   5.144
 2881TIP3   OH2 8599   7.680   7.395   4.993
 2881TIP3    H1 8600   7.679   7.416   4.900
 2881TIP3    H2 8601   7.701   7.478   5.036
 2882TIP3   OH2 8602   0.958   4.463   2.844
 2882TIP3    H1 8603   0.952   4.548   2.888
 2882TIP3    H2 8604   0.934   4.399   2.912
 2883TIP3   OH2 8605   4.519   5.716   4.661
 2883TIP3    H1 8606   4.487   5.770   4.733
 2883TIP3    H2 8607   4.456   5.643   4.656
 2884TIP3   OH2 8608   0.731   1.639   4.560
 2884TIP3    H1 8609   0.791   1.678   4.496
 2884TIP3    H2 8610   0.644   1.657   4.525
 2885TIP3   OH2 8611   7.007   6.646   3.094
 2885TIP3    H1 8612   7.010   6.579   3.025
 2885TIP3    H2 8613   6.921   6.687   3.083
 2886TIP3   OH2 8614   3.204   1.143   6.315
 2886TIP3    H1 8615   3.265   1.117   6.384
 2886TIP3    H2 8616   3.215   1.076   6.248
 2887TIP3   OH2 8617   0.147   1.855   1.840
 2887TIP3    H1 8618   0.123   1.939   1.877
 2887TIP3    H2 8619   0.238   1.866   1.812
 2888TIP3   OH2 8620   5.328   2.667   4.644
 2888TIP3    H1 8621   5.348   2.715   4.725
 2888TIP3    H2 8622   5.298   2.581   4.674
 2889TIP3   OH2 8623   5.913   5.363   2.279
 2889TIP3    H1 8624   5.863   5.349   2.199
 2889TIP3    H2 8625   6.002   5.334   2.257
 2890TIP3   OH2 8626   5.575   6.262   5.990
 2890TIP3    H1 8627   5.528   6.318   6.051
 2890TIP3    H2 8628   5.601   6.320   5.919
 2891TIP3   OH2 8629   5.176   2.430   0.867
 2891TIP3    H1 8630   5.125   2.424   0.787
 2891TIP3    H2 8631   5.143   2.509   0.911
 2892TIP3   OH2 8632   4.253   7.660   6.623
 2892TIP3    H1 8633   4.309   7.703   6.688
 2892TIP3    H2 8634   4.263   7.712   6.544
 2893TIP3   OH2 8635   6.111   1.242   1.500
 2893TIP3    H1 8636   6.064   1.200   1.428
 2893TIP3    H2 8637   6.116   1.174   1.568
 2894TIP3   OH2 8638   6.342   4.664   5.735
 2894TIP3    H1 8639   6.353   4.750   5.693
 2894TIP3    H2 8640   6.387   4.603   5.676
 2895TIP3   OH2 8641   5.180   5.654   1.554
 2895TIP3    H1 8642   5.170   5.735   1.603
 2895TIP3    H2 8643   5.164   5.585   1.619
 2896TIP3   OH2 8644   4.460   3.503   2.342
 2896TIP3    H1 8645   4.387   3.442   2.333
 2896TIP3    H2 8646   4.530   3.451   2.382
 2897TIP3   OH2 8647   2.532   7.296   6.625
 2897TIP3    H1 8648   2.474   7.300   6.701
 2897TIP3    H2 8649   2.602   7.237   6.651
 2898TIP3   OH2 8650   7.263   4.066   3.334
 2898TIP3    H1 8651   7.257   4.008   3.258
 2898TIP3    H2 8652   7.315   4.017   3.397
 2899TIP3   OH2 8653   2.584   1.954   5.894
 2899TIP3    H1 8654   2.627   2.010   5.830
 2899TIP3    H2 8655   2.506   2.003   5.921
 2900TIP3   OH2 8656   4.491   6.615   0.201
 2900TIP3    H1 8657   4.400   6.631   0.226
 2900TIP3    H2 8658   4.491   6.619   0.105
 2901TIP3   OH2 8659   3.550   7.263   0.351
 2901TIP3    H1 8660   3.495   7.327   0.396
 2901TIP3    H2 8661   3.488   7.200   0.314
 2902TIP3   OH2 8662   0.015   1.648   2.448
 2902TIP3    H1 8663   0.066   1.684   2.520
 2902TIP3    H2 8664   0.051   1.561   2.433
 2903TIP3   OH2 8665   6.877   5.673   6.346
 2903TIP3    H1 8666   6.872   5.581   6.321
 2903TIP3    H2 8667   6.795   5.711   6.316
 2904TIP3   OH2 8668   7.228   5.327   3.129
 2904TIP3    H1 8669   7.216   5.233   3.133
 2904TIP3    H2 8670   7.214   5.357   3.218
 2905TIP3   OH2 8671   1.247   4.739   5.593
 2905TIP3    H1 8672   1.315   4.713   5.530
 2905TIP3    H2 8673   1.166   4.703   5.557
 2906TIP3   OH2 8674   2.959   1.262   3.423
 2906TIP3    H1 8675   2.901   1.187   3.434
 2906TIP3    H2 8676   2.942   1.317   3.499
 2907TIP3   OH2 8677   2.175   3.044   4.217
 2907TIP3    H1 8678   2.239   3.016   4.151
 2907TIP3    H2 8679   2.215   3.120   4.258
 2908TIP3   OH2 8680   4.773   3.281   1.698
 2908TIP3    H1 8681   4.708   3.331   1.747
 2908TIP3    H2 8682   4.832   3.348   1.663
 2909TIP3   OH2 8683   5.496   2.779   1.368
 2909TIP3    H1 8684   5.432   2.716   1.336
 2909TIP3    H2 8685   5.538   2.734   1.442
 2910TIP3   OH2 8686   1.578   7.434   2.694
 2910TIP3    H1 8687   1.524   7.510   2.669
 2910TIP3    H2 8688   1.572   7.375   2.619
 2911TIP3   OH2 8689   5.129   1.820   2.058
 2911TIP3    H1 8690   5.182   1.897   2.080
 2911TIP3    H2 8691   5.131   1.817   1.962
 2912TIP3   OH2 8692   4.473   7.379   5.727
 2912TIP3    H1 8693   4.456   7.464   5.686
 2912TIP3    H2 8694   4.410   7.373   5.798
 2913TIP3   OH2 8695   7.733   0.485   5.222
 2913TIP3    H1 8696   7.766   0.441   5.301
 2913TIP3    H2 8697   7.777   0.441   5.150
 2914TIP3   OH2 8698   0.042   3.810   1.597
 2914TIP3    H1 8699   0.081   3.743   1.653
 2914TIP3    H2 8700   0.024   3.764   1.514
 2915TIP3   OH2 8701   6.991   2.125   0.533
 2915TIP3    H1 8702   6.973   2.033   0.554
 2915TIP3    H2 8703   7.051   2.121   0.459
 2916TIP3   OH2 8704   6.621   3.590   2.178
 2916TIP3    H1 8705   6.677   3.553   2.110
 2916TIP3    H2 8706   6.578   3.664   2.136
 2917TIP3   OH2 8707   8.295   2.163   3.329
 2917TIP3    H1 8708   8.331   2.081   3.295
 2917TIP3    H2 8709   8.200   2.154   3.317
 2918TIP3   OH2 8710   8.100   3.722   4.215
 2918TIP3    H1 8711   8.017   3.677   4.198
 2918TIP3    H2 8712   8.074   3.799   4.267
 2919TIP3   OH2 8713   4.163   1.881   3.681
 2919TIP3    H1 8714   4.248   1.912   3.711
 2919TIP3    H2 8715   4.147   1.930   3.600
 2920TIP3   OH2 8716   4.652   6.317   5.751
 2920TIP3    H1 8717   4.710   6.375   5.702
 2920TIP3    H2 8718   4.711   6.267   5.808
 2921TIP3   OH2 8719   5.222   0.085   5.384
 2921TIP3    H1 8720   5.303   0.036   5.389
 2921TIP3    H2 8721   5.230   0.153   5.450
 2922TIP3   OH2 8722   2.021   3.001   1.666
 2922TIP3    H1 8723   2.059   3.089   1.666
 2922TIP3    H2 8724   1.927   3.015   1.674
 2923TIP3   OH2 8725   4.077   4.721   2.261
 2923TIP3    H1 8726   4.017   4.688   2.194
 2923TIP3    H2 8727   4.148   4.656   2.263
 2924TIP3   OH2 8728   5.102   1.493   4.928
 2924TIP3    H1 8729   5.117   1.585   4.909
 2924TIP3    H2 8730   5.184   1.462   4.965
 2925TIP3   OH2 8731   1.630   3.947   1.205
 2925TIP3    H1 8732   1.545   3.911   1.231
 2925TIP3    H2 8733   1.664   3.884   1.142
 2926TIP3   OH2 8734   4.718   0.889   4.559
 2926TIP3    H1 8735   4.664   0.838   4.620
 2926TIP3    H2 8736   4.808   0.876   4.589
 2927TIP3   OH2 8737   2.299   0.925   0.613
 2927TIP3    H1 8738   2.322   1.007   0.655
 2927TIP3    H2 8739   2.380   0.874   0.614
 2928TIP3   OH2 8740   0.893   0.741   3.512
 2928TIP3    H1 8741   0.975   0.703   3.543
 2928TIP3    H2 8742   0.851   0.671   3.463
 2929TIP3   OH2 8743   2.618   7.090   4.161
 2929TIP3    H1 8744   2.552   7.048   4.106
 2929TIP3    H2 8745   2.675   7.136   4.099
 2930TIP3   OH2 8746   7.003   7.110   5.964
 2930TIP3    H1 8747   6.919   7.092   5.922
 2930TIP3    H2 8748   7.063   7.045   5.927
 2931TIP3   OH2 8749   2.328   1.163   1.138
 2931TIP3    H1 8750   2.411   1.151   1.092
 2931TIP3    H2 8751   2.268   1.104   1.094
 2932TIP3   OH2 8752   2.289   7.099   0.601
 2932TIP3    H1 8753   2.308   7.138   0.686
 2932TIP3    H2 8754   2.221   7.155   0.564
 2933TIP3   OH2 8755   6.623   1.279   1.599
 2933TIP3    H1 8756   6.659   1.354   1.648
 2933TIP3    H2 8757   6.535   1.308   1.574
 2934TIP3   OH2 8758   4.489   1.442   4.272
 2934TIP3    H1 8759   4.489   1.520   4.327
 2934TIP3    H2 8760   4.485   1.476   4.182
 2935TIP3   OH2 8761   7.818   7.366   2.458
 2935TIP3    H1 8762   7.891   7.331   2.509
 2935TIP3    H2 8763   7.854   7.445   2.417
 2936TIP3   OH2 8764   0.998   4.098   3.750
 2936TIP3    H1 8765   0.917   4.116   3.797
 2936TIP3    H2 8766   1.066   4.098   3.817
 2937TIP3   OH2 8767   0.131   2.398   6.624
 2937TIP3    H1 8768   0.214   2.378   6.666
 2937TIP3    H2 8769   0.153   2.412   6.532
 2938TIP3   OH2 8770   5.476   5.417   1.659
 2938TIP3    H1 8771   5.442   5.501   1.625
 2938TIP3    H2 8772   5.564   5.438   1.690
 2939TIP3   OH2 8773   0.828   2.696   4.795
 2939TIP3    H1 8774   0.795   2.785   4.804
 2939TIP3    H2 8775   0.888   2.699   4.721
 2940TIP3   OH2 8776   4.972   7.385   4.574
 2940TIP3    H1 8777   4.950   7.447   4.643
 2940TIP3    H2 8778   4.952   7.432   4.492
 2941TIP3   OH2 8779   7.763   0.074   5.232
 2941TIP3    H1 8780   7.831   0.034   5.179
 2941TIP3    H2 8781   7.741   0.155   5.186
 2942TIP3   OH2 8782   2.313   3.926   2.173
 2942TIP3    H1 8783   2.217   3.933   2.168
 2942TIP3    H2 8784   2.341   4.009   2.211
 2943TIP3   OH2 8785   2.141   6.623   4.864
 2943TIP3    H1 8786   2.197   6.579   4.800
 2943TIP3    H2 8787   2.160   6.580   4.947
 2944TIP3   OH2 8788   7.461   7.400   1.671
 2944TIP3    H1 8789   7.470   7.483   1.718
 2944TIP3    H2 8790   7.408   7.422   1.594
 2945TIP3   OH2 8791   8.078   6.683   1.815
 2945TIP3    H1 8792   8.091   6.761   1.761
 2945TIP3    H2 8793   8.166   6.655   1.840
 2946TIP3   OH2 8794   4.854   1.923   0.054
 2946TIP3    H1 8795   4.894   1.923   0.141
 2946TIP3    H2 8796   4.863   2.013   0.023
 2947TIP3   OH2 8797   7.298   1.752   1.011
 2947TIP3    H1 8798   7.393   1.762   1.023
 2947TIP3    H2 8799   7.288   1.668   0.967
 2948TIP3   OH2 8800   7.514   5.966   4.544
 2948TIP3    H1 8801   7.594   5.990   4.499
 2948TIP3    H2 8802   7.488   5.883   4.504
 2949TIP3   OH2 8803   0.370   2.231   2.585
 2949TIP3    H1 8804   0.288   2.271   2.555
 2949TIP3    H2 8805   0.361   2.228   2.681
 2950TIP3   OH2 8806   2.215   3.452   3.436
 2950TIP3    H1 8807   2.210   3.483   3.345
 2950TIP3    H2 8808   2.134   3.482   3.476
 2951TIP3   OH2 8809   1.701   1.252   5.136
 2951TIP3    H1 8810   1.610   1.276   5.120
 2951TIP3    H2 8811   1.696   1.179   5.198
 2952TIP3   OH2 8812   8.121   7.653   4.673
 2952TIP3    H1 8813   8.056   7.694   4.615
 2952TIP3    H2 8814   8.072   7.633   4.753
 2953TIP3   OH2 8815   4.761   4.647   3.924
 2953TIP3    H1 8816   4.701   4.639   3.998
 2953TIP3    H2 8817   4.846   4.668   3.963
 2954TIP3   OH2 8818   7.961   3.703   1.012
 2954TIP3    H1 8819   7.929   3.788   0.982
 2954TIP3    H2 8820   7.960   3.709   1.108
 2955TIP3   OH2 8821   1.188   1.038   0.357
 2955TIP3    H1 8822   1.247   1.109   0.383
 2955TIP3    H2 8823   1.161   0.998   0.439
 2956TIP3   OH2 8824   5.906   2.842   1.593
 2956TIP3    H1 8825   5.856   2.865   1.515
 2956TIP3    H2 8826   5.840   2.816   1.657
 2957TIP3   OH2 8827   0.153   7.558   0.874
 2957TIP3    H1 8828   0.237   7.520   0.851
 2957TIP3    H2 8829   0.174   7.629   0.934
 2958TIP3   OH2 8830   2.959   6.286   5.925
 2958TIP3    H1 8831   2.888   6.235   5.964
 2958TIP3    H2 8832   2.922   6.317   5.842
 2959TIP3   OH2 8833   2.378   1.586   3.461
 2959TIP3    H1 8834   2.446   1.613   3.399
 2959TIP3    H2 8835   2.299   1.631   3.432
 2960TIP3   OH2 8836   3.359   6.683   1.538
 2960TIP3    H1 8837   3.349   6.773   1.508
 2960TIP3    H2 8838   3.289   6.635   1.495
 2961TIP3   OH2 8839   4.602   1.438   6.697
 2961TIP3    H1 8840   4.591   1.371   6.765
 2961TIP3    H2 8841   4.642   1.392   6.624
 2962TIP3   OH2 8842   3.589   2.055   3.250
 2962TIP3    H1 8843   3.678   2.029   3.225
 2962TIP3    H2 8844   3.547   1.974   3.279
 2963TIP3   OH2 8845   2.658   6.097   2.731
 2963TIP3    H1 8846   2.569   6.123   2.754
 2963TIP3    H2 8847   2.685   6.040   2.802
 2964TIP3   OH2 8848   0.811   0.043   6.673
 2964TIP3    H1 8849   0.826   0.049   6.767
 2964TIP3    H2 8850   0.787  -0.048   6.658
 2965TIP3   OH2 8851   1.145   4.158   5.844
 2965TIP3    H1 8852   1.149   4.166   5.749
 2965TIP3    H2 8853   1.061   4.196   5.868
 2966TIP3   OH2 8854   0.454   5.363   0.174
 2966TIP3    H1 8855   0.526   5.412   0.212
 2966TIP3    H2 8856   0.493   5.280   0.146
 2967TIP3   OH2 8857   0.423   7.516   4.229
 2967TIP3    H1 8858   0.417   7.597   4.178
 2967TIP3    H2 8859   0.337   7.474   4.217
 2968TIP3   OH2 8860   7.558   7.666   0.095
 2968TIP3    H1 8861   7.520   7.711   0.171
 2968TIP3    H2 8862   7.638   7.714   0.077
 2969TIP3   OH2 8863   2.336   3.163   3.755
 2969TIP3    H1 8864   2.283   3.240   3.771
 2969TIP3    H2 8865   2.323   3.107   3.832
 2970TIP3   OH2 8866   0.625   5.018   4.328
 2970TIP3    H1 8867   0.576   5.052   4.253
 2970TIP3    H2 8868   0.628   5.091   4.390
 2971TIP3   OH2 8869   0.732   7.734   5.049
 2971TIP3    H1 8870   0.718   7.679   5.126
 2971TIP3    H2 8871   0.672   7.700   4.983
 2972TIP3   OH2 8872   7.290   7.478   0.398
 2972TIP3    H1 8873   7.222   7.497   0.333
 2972TIP3    H2 8874   7.292   7.555   0.454
 2973TIP3   OH2 8875   5.207   3.972   2.989
 2973TIP3    H1 8876   5.196   3.877   2.983
 2973TIP3    H2 8877   5.233   3.999   2.901
 2974TIP3   OH2 8878   4.271   1.297   3.160
 2974TIP3    H1 8879   4.354   1.336   3.187
 2974TIP3    H2 8880   4.237   1.256   3.240
 2975TIP3   OH2 8881   1.305   1.263   0.164
 2975TIP3    H1 8882   1.331   1.339   0.216
 2975TIP3    H2 8883   1.386   1.215   0.150
 2976TIP3   OH2 8884   6.718   0.902   2.413
 2976TIP3    H1 8885   6.755   0.815   2.426
 2976TIP3    H2 8886   6.793   0.957   2.391
 2977TIP3   OH2 8887   7.769   3.210   0.749
 2977TIP3    H1 8888   7.691   3.176   0.706
 2977TIP3    H2 8889   7.744   3.221   0.841
 2978TIP3   OH2 8890   5.316   5.497   6.213
 2978TIP3    H1 8891   5.252   5.428   6.233
 2978TIP3    H2 8892   5.312   5.556   6.288
 2979TIP3   OH2 8893   5.795   7.041   3.946
 2979TIP3    H1 8894   5.882   7.075   3.926
 2979TIP3    H2 8895   5.761   7.009   3.863
 2980TIP3   OH2 8896   3.404   5.494   2.394
 2980TIP3    H1 8897   3.327   5.449   2.430
 2980TIP3    H2 8898   3.400   5.582   2.433
 2981TIP3   OH2 8899   0.130   3.171   2.453
 2981TIP3    H1 8900   0.225   3.173   2.438
 2981TIP3    H2 8901   0.113   3.084   2.488
 2982TIP3   OH2 8902   2.009   3.022   6.453
 2982TIP3    H1 8903   1.921   3.034   6.490
 2982TIP3    H2 8904   2.013   3.085   6.380
 2983TIP3   OH2 8905   2.861   1.535   5.697
 2983TIP3    H1 8906   2.951   1.510   5.677
 2983TIP3    H2 8907   2.866   1.628   5.719
 2984TIP3   OH2 8908   4.121   4.994   1.456
 2984TIP3    H1 8909   4.074   5.077   1.453
 2984TIP3    H2 8910   4.171   4.991   1.375
 2985TIP3   OH2 8911   0.170   5.027   0.119
 2985TIP3    H1 8912   0.194   5.091   0.053
 2985TIP3    H2 8913   0.218   4.948   0.095
 2986TIP3   OH2 8914   4.627   7.781   5.795
 2986TIP3    H1 8915   4.589   7.799   5.709
 2986TIP3    H2 8916   4.655   7.689   5.790
 2987TIP3   OH2 8917   1.832   7.028   3.686
 2987TIP3    H1 8918   1.873   7.109   3.716
 2987TIP3    H2 8919   1.738   7.041   3.703
 2988TIP3   OH2 8920   6.981   4.611   1.560
 2988TIP3    H1 8921   6.950   4.683   1.505
 2988TIP3    H2 8922   7.032   4.652   1.629
 2989TIP3   OH2 8923   6.825   2.918   3.156
 2989TIP3    H1 8924   6.773   2.892   3.080
 2989TIP3    H2 8925   6.819   3.014   3.157
 2990TIP3   OH2 8926   1.492   5.014   1.937
 2990TIP3    H1 8927   1.510   4.943   1.999
 2990TIP3    H2 8928   1.455   4.971   1.861
 2991TIP3   OH2 8929   7.237   5.544   4.523
 2991TIP3    H1 8930   7.263   5.456   4.498
 2991TIP3    H2 8931   7.172   5.531   4.592
 2992TIP3   OH2 8932   4.925   5.377   3.954
 2992TIP3    H1 8933   5.003   5.393   4.006
 2992TIP3    H2 8934   4.859   5.346   4.016
 2993TIP3   OH2 8935   5.831   5.049   6.267
 2993TIP3    H1 8936   5.759   5.039   6.206
 2993TIP3    H2 8937   5.901   5.089   6.216
 2994TIP3   OH2 8938   3.977   1.174   5.187
 2994TIP3    H1 8939   4.030   1.245   5.150
 2994TIP3    H2 8940   3.986   1.103   5.123
 2995TIP3   OH2 8941   1.940   6.380   5.661
 2995TIP3    H1 8942   1.933   6.288   5.688
 2995TIP3    H2 8943   2.017   6.413   5.707
 2996TIP3   OH2 8944   4.873   2.697   0.007
 2996TIP3    H1 8945   4.803   2.659   0.060
 2996TIP3    H2 8946   4.871   2.647  -0.075
 2997TIP3   OH2 8947   1.928   4.415   2.318
 2997TIP3    H1 8948   1.957   4.425   2.227
 2997TIP3    H2 8949   1.995   4.459   2.369
 2998TIP3   OH2 8950   6.468   0.257   0.665
 2998TIP3    H1 8951   6.405   0.232   0.597
 2998TIP3    H2 8952   6.554   0.243   0.624
 2999TIP3   OH2 8953   5.172   2.298   0.593
 2999TIP3    H1 8954   5.143   2.228   0.535
 2999TIP3    H2 8955   5.103   2.365   0.586
 3000TIP3   OH2 8956   7.178   4.944   5.649
 3000TIP3    H1 8957   7.232   4.881   5.697
 3000TIP3    H2 8958   7.171   5.019   5.708
 3001TIP3   OH2 8959   3.171   0.323   1.777
 3001TIP3    H1 8960   3.260   0.326   1.743
 3001TIP3    H2 8961   3.147   0.230   1.775
 3002TIP3   OH2 8962   7.529   6.980   0.541
 3002TIP3    H1 8963   7.612   6.949   0.576
 3002TIP3    H2 8964   7.477   7.002   0.619
 3003TIP3   OH2 8965   1.628   0.635   6.307
 3003TIP3    H1 8966   1.722   0.617   6.312
 3003TIP3    H2 8967   1.618   0.724   6.340
 3004TIP3   OH2 8968   2.738   4.408   3.335
 3004TIP3    H1 8969   2.719   4.412   3.242
 3004TIP3    H2 8970   2.653   4.414   3.378
 3005TIP3   OH2 8971   4.287   3.157   1.331
 3005TIP3    H1 8972   4.207   3.200   1.361
 3005TIP3    H2 8973   4.256   3.083   1.278
 3006TIP3   OH2 8974   2.284   0.420   1.006
 3006TIP3    H1 8975   2.239   0.457   0.930
 3006TIP3    H2 8976   2.289   0.326   0.987
 3007TIP3   OH2 8977   7.783   5.608   3.072
 3007TIP3    H1 8978   7.853   5.550   3.101
 3007TIP3    H2 8979   7.717   5.604   3.142
 3008TIP3   OH2 8980   1.680   5.372   1.640
 3008TIP3    H1 8981   1.746   5.306   1.661
 3008TIP3    H2 8982   1.611   5.359   1.705
 3009TIP3   OH2 8983   6.922   0.170   4.043
 3009TIP3    H1 8984   6.942   0.087   4.086
 3009TIP3    H2 8985   6.971   0.235   4.093
 3010TIP3   OH2 8986   4.002   4.558   2.021
 3010TIP3    H1 8987   3.912   4.584   2.040
 3010TIP3    H2 8988   4.007   4.555   1.926
 3011TIP3   OH2 8989   7.286   3.080   0.709
 3011TIP3    H1 8990   7.381   3.073   0.698
 3011TIP3    H2 8991   7.270   3.173   0.722
 3012TIP3   OH2 8992   6.092   0.548   6.363
 3012TIP3    H1 8993   6.092   0.642   6.345
 3012TIP3    H2 8994   6.039   0.539   6.443
 3013TIP3   OH2 8995   4.623   6.008   0.966
 3013TIP3    H1 8996   4.536   5.973   0.946
 3013TIP3    H2 8997   4.679   5.931   0.973
 3014TIP3   OH2 8998   3.562   5.838   3.767
 3014TIP3    H1 8999   3.475   5.876   3.774
 3014TIP3    H2 9000   3.601   5.851   3.853
 3015TIP3   OH2 9001   8.303   0.679   2.066
 3015TIP3    H1 9002   8.315   0.652   2.158
 3015TIP3    H2 9003   8.238   0.618   2.031
 3016TIP3   OH2 9004   5.217   3.449   0.878
 3016TIP3    H1 9005   5.208   3.523   0.938
 3016TIP3    H2 9006   5.308   3.454   0.848
 3017TIP3   OH2 9007   4.806   7.288   5.373
 3017TIP3    H1 9008   4.719   7.269   5.409
 3017TIP3    H2 9009   4.867   7.264   5.443
 3018TIP3   OH2 9010   6.302   1.147   1.820
 3018TIP3    H1 9011   6.356   1.120   1.745
 3018TIP3    H2 9012   6.212   1.130   1.793
 3019TIP3   OH2 9013   3.419   4.269   4.525
 3019TIP3    H1 9014   3.349   4.206   4.540
 3019TIP3    H2 9015   3.385   4.328   4.458
 3020TIP3   OH2 9016   5.916   1.456   3.134
 3020TIP3    H1 9017   5.923   1.534   3.078
 3020TIP3    H2 9018   5.966   1.389   3.087
 3021TIP3   OH2 9019   6.411   0.019   0.785
 3021TIP3    H1 9020   6.474  -0.005   0.854
 3021TIP3    H2 9021   6.417   0.115   0.780
 3022TIP3   OH2 9022   1.063   1.341   2.528
 3022TIP3    H1 9023   1.049   1.430   2.495
 3022TIP3    H2 9024   1.148   1.316   2.491
 3023TIP3   OH2 9025   3.365   3.889   2.899
 3023TIP3    H1 9026   3.292   3.835   2.927
 3023TIP3    H2 9027   3.414   3.834   2.838
 3024TIP3   OH2 9028   0.473   2.934   5.545
 3024TIP3    H1 9029   0.401   2.939   5.608
 3024TIP3    H2 9030   0.459   2.850   5.500
 3025TIP3   OH2 9031   8.170   5.575   2.219
 3025TIP3    H1 9032   8.199   5.658   2.183
 3025TIP3    H2 9033   8.146   5.522   2.142
 3026TIP3   OH2 9034   3.793   2.652   4.984
 3026TIP3    H1 9035   3.806   2.747   4.987
 3026TIP3    H2 9036   3.881   2.616   4.978
 3027TIP3   OH2 9037   5.691   4.312   3.785
 3027TIP3    H1 9038   5.682   4.406   3.804
 3027TIP3    H2 9039   5.779   4.291   3.816
 3028TIP3   OH2 9040   2.508   3.530   4.477
 3028TIP3    H1 9041   2.592   3.494   4.447
 3028TIP3    H2 9042   2.472   3.572   4.400
 3029TIP3   OH2 9043   4.057   4.563   0.665
 3029TIP3    H1 9044   4.034   4.505   0.737
 3029TIP3    H2 9045   3.990   4.632   0.667
 3030TIP3   OH2 9046   5.319   5.638   6.451
 3030TIP3    H1 9047   5.411   5.612   6.456
 3030TIP3    H2 9048   5.306   5.695   6.527
 3031TIP3   OH2 9049   5.809   0.490   6.068
 3031TIP3    H1 9050   5.781   0.481   5.977
 3031TIP3    H2 9051   5.904   0.496   6.063
 3032TIP3   OH2 9052   0.765   4.180   1.736
 3032TIP3    H1 9053   0.798   4.150   1.821
 3032TIP3    H2 9054   0.770   4.275   1.741
 3033TIP3   OH2 9055   3.919   5.593   3.211
 3033TIP3    H1 9056   3.830   5.570   3.238
 3033TIP3    H2 9057   3.908   5.639   3.128
 3034TIP3   OH2 9058   7.581   4.989   3.080
 3034TIP3    H1 9059   7.529   4.978   3.001
 3034TIP3    H2 9060   7.599   5.083   3.085
 3035TIP3   OH2 9061   4.144   1.306   1.266
 3035TIP3    H1 9062   4.193   1.316   1.348
 3035TIP3    H2 9063   4.179   1.226   1.227
 3036TIP3   OH2 9064   2.027   7.517   5.807
 3036TIP3    H1 9065   1.993   7.519   5.896
 3036TIP3    H2 9066   1.958   7.478   5.754
 3037TIP3   OH2 9067   6.245   4.534   3.986
 3037TIP3    H1 9068   6.248   4.627   3.966
 3037TIP3    H2 9069   6.247   4.491   3.901
 3038TIP3   OH2 9070   3.665   3.754   5.654
 3038TIP3    H1 9071   3.728   3.815   5.617
 3038TIP3    H2 9072   3.653   3.688   5.586
 3039TIP3   OH2 9073   1.533   7.636   4.994
 3039TIP3    H1 9074   1.605   7.608   5.050
 3039TIP3    H2 9075   1.553   7.601   4.908
 3040TIP3   OH2 9076   1.578   5.900   5.473
 3040TIP3    H1 9077   1.493   5.857   5.464
 3040TIP3    H2 9078   1.642   5.833   5.450
 3041TIP3   OH2 9079   6.935   2.924   1.018
 3041TIP3    H1 9080   6.992   2.854   1.051
 3041TIP3    H2 9081   6.849   2.904   1.055
 3042TIP3   OH2 9082   3.182   0.818   3.163
 3042TIP3    H1 9083   3.206   0.801   3.071
 3042TIP3    H2 9084   3.098   0.864   3.157
 3043TIP3   OH2 9085   5.633   1.619   4.469
 3043TIP3    H1 9086   5.650   1.699   4.418
 3043TIP3    H2 9087   5.654   1.548   4.409
 3044TIP3   OH2 9088   6.149   7.734   5.228
 3044TIP3    H1 9089   6.103   7.789   5.291
 3044TIP3    H2 9090   6.186   7.663   5.281
 3045TIP3   OH2 9091   3.472   6.973   1.300
 3045TIP3    H1 9092   3.437   6.921   1.228
 3045TIP3    H2 9093   3.397   7.023   1.332
 3046TIP3   OH2 9094   3.316   3.046   0.396
 3046TIP3    H1 9095   3.385   3.106   0.367
 3046TIP3    H2 9096   3.241   3.103   0.412
 3047TIP3   OH2 9097   3.765   0.819   3.504
 3047TIP3    H1 9098   3.674   0.836   3.478
 3047TIP3    H2 9099   3.762   0.817   3.600
 3048TIP3   OH2 9100   0.973   6.213   3.176
 3048TIP3    H1 9101   1.034   6.208   3.250
 3048TIP3    H2 9102   1.003   6.144   3.116
 3049TIP3   OH2 9103   4.921   6.450   2.181
 3049TIP3    H1 9104   4.853   6.511   2.153
 3049TIP3    H2 9105   4.945   6.402   2.102
 3050TIP3   OH2 9106   2.528   6.805   5.536
 3050TIP3    H1 9107   2.590   6.838   5.601
 3050TIP3    H2 9108   2.583   6.786   5.459
 3051TIP3   OH2 9109   3.930   0.740   6.056
 3051TIP3    H1 9110   3.978   0.716   6.135
 3051TIP3    H2 9111   3.993   0.792   6.005
 3052TIP3   OH2 9112   1.914   5.496   6.571
 3052TIP3    H1 9113   1.879   5.539   6.493
 3052TIP3    H2 9114   1.888   5.552   6.644
 3053TIP3   OH2 9115   2.406   6.131   1.048
 3053TIP3    H1 9116   2.328   6.093   1.088
 3053TIP3    H2 9117   2.476   6.113   1.111
 3054TIP3   OH2 9118   3.486   6.050   2.124
 3054TIP3    H1 9119   3.569   6.003   2.126
 3054TIP3    H2 9120   3.453   6.045   2.213
 3055TIP3   OH2 9121   1.038   4.213   2.666
 3055TIP3    H1 9122   0.961   4.268   2.654
 3055TIP3    H2 9123   1.097   4.266   2.720
 3056TIP3   OH2 9124   7.285   3.344   2.376
 3056TIP3    H1 9125   7.332   3.344   2.293
 3056TIP3    H2 9126   7.198   3.377   2.354
 3057TIP3   OH2 9127   5.400   3.875   5.746
 3057TIP3    H1 9128   5.361   3.872   5.658
 3057TIP3    H2 9129   5.412   3.783   5.770
 3058TIP3   OH2 9130   4.896   6.210   3.144
 3058TIP3    H1 9131   4.864   6.121   3.164
 3058TIP3    H2 9132   4.817   6.259   3.123
 3059TIP3   OH2 9133   2.825   5.381   3.648
 3059TIP3    H1 9134   2.809   5.302   3.699
 3059TIP3    H2 9135   2.788   5.452   3.700
 3060TIP3   OH2 9136   6.693   0.323   4.053
 3060TIP3    H1 9137   6.686   0.279   4.138
 3060TIP3    H2 9138   6.780   0.299   4.021
 3061TIP3   OH2 9139   0.146   0.692   0.724
 3061TIP3    H1 9140   0.225   0.689   0.671
 3061TIP3    H2 9141   0.075   0.681   0.662
 3062TIP3   OH2 9142   1.483   3.368   0.643
 3062TIP3    H1 9143   1.533   3.441   0.608
 3062TIP3    H2 9144   1.452   3.321   0.566
 3063TIP3   OH2 9145   0.507   2.586   3.613
 3063TIP3    H1 9146   0.452   2.566   3.537
 3063TIP3    H2 9147   0.506   2.681   3.620
 3064TIP3   OH2 9148   4.834   4.944   0.574
 3064TIP3    H1 9149   4.752   4.922   0.530
 3064TIP3    H2 9150   4.828   5.038   0.592
 3065TIP3   OH2 9151   3.258   7.199   0.898
 3065TIP3    H1 9152   3.233   7.134   0.964
 3065TIP3    H2 9153   3.297   7.270   0.948
 3066TIP3   OH2 9154   2.627   7.378   3.982
 3066TIP3    H1 9155   2.715   7.401   3.950
 3066TIP3    H2 9156   2.617   7.285   3.961
 3067TIP3   OH2 9157   1.115   7.809   4.727
 3067TIP3    H1 9158   1.172   7.736   4.701
 3067TIP3    H2 9159   1.142   7.830   4.816
 3068TIP3   OH2 9160   0.625   4.169   5.258
 3068TIP3    H1 9161   0.679   4.171   5.180
 3068TIP3    H2 9162   0.544   4.213   5.233
 3069TIP3   OH2 9163   4.556   3.174   1.389
 3069TIP3    H1 9164   4.464   3.179   1.361
 3069TIP3    H2 9165   4.551   3.138   1.478
 3070TIP3   OH2 9166   7.598   7.037   1.096
 3070TIP3    H1 9167   7.690   7.014   1.100
 3070TIP3    H2 9168   7.552   6.954   1.083
 3071TIP3   OH2 9169   7.622   0.651   6.059
 3071TIP3    H1 9170   7.708   0.671   6.024
 3071TIP3    H2 9171   7.631   0.660   6.154
 3072TIP3   OH2 9172   6.469   4.838   0.470
 3072TIP3    H1 9173   6.476   4.913   0.529
 3072TIP3    H2 9174   6.385   4.797   0.493
 3073TIP3   OH2 9175   6.053   3.676   0.262
 3073TIP3    H1 9176   6.126   3.615   0.275
 3073TIP3    H2 9177   6.090   3.745   0.207
 3074TIP3   OH2 9178   8.117   2.439   5.172
 3074TIP3    H1 9179   8.141   2.378   5.103
 3074TIP3    H2 9180   8.021   2.433   5.177
 3075TIP3   OH2 9181   3.775   3.997   4.156
 3075TIP3    H1 9182   3.784   4.068   4.093
 3075TIP3    H2 9183   3.843   4.015   4.221
 3076TIP3   OH2 9184   3.869   2.559   4.016
 3076TIP3    H1 9185   3.934   2.494   3.987
 3076TIP3    H2 9186   3.836   2.598   3.935
 3077TIP3   OH2 9187   5.349   1.939   0.547
 3077TIP3    H1 9188   5.274   1.993   0.522
 3077TIP3    H2 9189   5.317   1.849   0.539
 3078TIP3   OH2 9190   7.428  -0.013   3.130
 3078TIP3    H1 9191   7.378   0.021   3.056
 3078TIP3    H2 9192   7.501   0.050   3.140
 3079TIP3   OH2 9193   7.839   7.073   6.066
 3079TIP3    H1 9194   7.874   7.143   6.121
 3079TIP3    H2 9195   7.745   7.086   6.067
 3080TIP3   OH2 9196   0.054   3.039   2.746
 3080TIP3    H1 9197  -0.002   3.113   2.766
 3080TIP3    H2 9198   0.017   3.000   2.667
 3081TIP3   OH2 9199   2.676   2.575   2.947
 3081TIP3    H1 9200   2.770   2.590   2.933
 3081TIP3    H2 9201   2.659   2.490   2.908
 3082TIP3   OH2 9202   5.073   2.199   5.521
 3082TIP3    H1 9203   5.082   2.107   5.496
 3082TIP3    H2 9204   5.103   2.248   5.445
 3083TIP3   OH2 9205   3.458   7.226   0.622
 3083TIP3    H1 9206   3.439   7.141   0.660
 3083TIP3    H2 9207   3.539   7.214   0.573
 3084TIP3   OH2 9208   5.309   2.280   5.927
 3084TIP3    H1 9209   5.385   2.327   5.892
 3084TIP3    H2 9210   5.289   2.214   5.861
 3085TIP3   OH2 9211   3.316   2.846   4.822
 3085TIP3    H1 9212   3.273   2.931   4.815
 3085TIP3    H2 9213   3.393   2.853   4.765
 3086TIP3   OH2 9214   2.089   7.680   0.209
 3086TIP3    H1 9215   2.182   7.677   0.186
 3086TIP3    H2 9216   2.048   7.622   0.146
 3087TIP3   OH2 9217   2.045   1.852   0.681
 3087TIP3    H1 9218   1.961   1.893   0.700
 3087TIP3    H2 9219   2.095   1.862   0.762
 3088TIP3   OH2 9220   3.666   2.417   5.792
 3088TIP3    H1 9221   3.762   2.413   5.790
 3088TIP3    H2 9222   3.639   2.329   5.818
 3089TIP3   OH2 9223   2.469   4.808   4.527
 3089TIP3    H1 9224   2.374   4.818   4.525
 3089TIP3    H2 9225   2.502   4.892   4.560
 3090TIP3   OH2 9226   4.090   3.293   1.868
 3090TIP3    H1 9227   4.078   3.221   1.807
 3090TIP3    H2 9228   4.166   3.268   1.920
 3091TIP3   OH2 9229   2.000   0.427   0.053
 3091TIP3    H1 9230   1.965   0.502   0.005
 3091TIP3    H2 9231   1.927   0.396   0.106
 3092TIP3   OH2 9232   7.210   1.945   5.058
 3092TIP3    H1 9233   7.166   2.031   5.061
 3092TIP3    H2 9234   7.281   1.953   5.122
 3093TIP3   OH2 9235   3.811   3.119   6.629
 3093TIP3    H1 9236   3.777   3.155   6.711
 3093TIP3    H2 9237   3.735   3.078   6.587
 3094TIP3   OH2 9238   1.750   2.752   3.566
 3094TIP3    H1 9239   1.674   2.714   3.610
 3094TIP3    H2 9240   1.800   2.794   3.636
 3095TIP3   OH2 9241   4.929   3.521   4.062
 3095TIP3    H1 9242   4.856   3.548   4.117
 3095TIP3    H2 9243   4.888   3.498   3.979
 3096TIP3   OH2 9244   0.687   5.005   3.145
 3096TIP3    H1 9245   0.779   5.033   3.140
 3096TIP3    H2 9246   0.640   5.068   3.090
 3097TIP3   OH2 9247   4.685   0.379   1.771
 3097TIP3    H1 9248   4.681   0.473   1.792
 3097TIP3    H2 9249   4.601   0.361   1.729
 3098TIP3   OH2 9250   6.856   7.050   3.624
 3098TIP3    H1 9251   6.786   7.103   3.587
 3098TIP3    H2 9252   6.932   7.108   3.627
 3099TIP3   OH2 9253   7.642   5.239   3.107
 3099TIP3    H1 9254   7.630   5.222   3.200
 3099TIP3    H2 9255   7.592   5.319   3.090
 3100TIP3   OH2 9256   2.540   3.808   5.717
 3100TIP3    H1 9257   2.528   3.785   5.625
 3100TIP3    H2 9258   2.541   3.904   5.718
 3101TIP3   OH2 9259   3.410   6.603   2.689
 3101TIP3    H1 9260   3.416   6.519   2.733
 3101TIP3    H2 9261   3.470   6.596   2.614
 3102TIP3   OH2 9262   5.584   2.217   1.570
 3102TIP3    H1 9263   5.599   2.300   1.524
 3102TIP3    H2 9264   5.529   2.167   1.510
 3103TIP3   OH2 9265   7.728   6.742   0.879
 3103TIP3    H1 9266   7.705   6.690   0.957
 3103TIP3    H2 9267   7.781   6.814   0.913
 3104TIP3   OH2 9268   4.253   0.126   5.718
 3104TIP3    H1 9269   4.335   0.163   5.750
 3104TIP3    H2 9270   4.280   0.072   5.643
 3105TIP3   OH2 9271   6.225   4.547   2.600
 3105TIP3    H1 9272   6.276   4.537   2.680
 3105TIP3    H2 9273   6.290   4.548   2.530
 3106TIP3   OH2 9274   4.003   1.031   6.258
 3106TIP3    H1 9275   3.912   1.021   6.287
 3106TIP3    H2 9276   4.046   1.076   6.331
 3107TIP3   OH2 9277   1.971   4.366   2.610
 3107TIP3    H1 9278   1.914   4.427   2.657
 3107TIP3    H2 9279   1.912   4.316   2.554
 3108TIP3   OH2 9280   0.141   3.634   0.181
 3108TIP3    H1 9281   0.143   3.718   0.227
 3108TIP3    H2 9282   0.102   3.573   0.244
 3109TIP3   OH2 9283   6.250   5.669   3.780
 3109TIP3    H1 9284   6.254   5.665   3.684
 3109TIP3    H2 9285   6.157   5.677   3.800
 3110TIP3   OH2 9286   6.116   4.490   5.371
 3110TIP3    H1 9287   6.064   4.429   5.319
 3110TIP3    H2 9288   6.086   4.477   5.461
 3111TIP3   OH2 9289   7.168   5.542   4.146
 3111TIP3    H1 9290   7.259   5.533   4.177
 3111TIP3    H2 9291   7.121   5.578   4.221
 3112TIP3   OH2 9292   6.818   0.142   1.426
 3112TIP3    H1 9293   6.795   0.218   1.480
 3112TIP3    H2 9294   6.914   0.139   1.428
 3113TIP3   OH2 9295   2.425   0.430   2.047
 3113TIP3    H1 9296   2.332   0.435   2.025
 3113TIP3    H2 9297   2.470   0.463   1.969
 3114TIP3   OH2 9298   6.459   2.896   3.357
 3114TIP3    H1 9299   6.501   2.839   3.293
 3114TIP3    H2 9300   6.529   2.952   3.390
 3115TIP3   OH2 9301   5.310   3.691   4.561
 3115TIP3    H1 9302   5.397   3.698   4.601
 3115TIP3    H2 9303   5.325   3.697   4.467
 3116TIP3   OH2 9304   7.313   1.339   0.578
 3116TIP3    H1 9305   7.376   1.405   0.552
 3116TIP3    H2 9306   7.359   1.286   0.643
 3117TIP3   OH2 9307   6.428   5.311   5.194
 3117TIP3    H1 9308   6.390   5.397   5.174
 3117TIP3    H2 9309   6.403   5.256   5.120
 3118TIP3   OH2 9310   1.448   6.271   1.604
 3118TIP3    H1 9311   1.493   6.354   1.617
 3118TIP3    H2 9312   1.449   6.258   1.509
 3119TIP3   OH2 9313   1.647   1.332   6.353
 3119TIP3    H1 9314   1.601   1.260   6.310
 3119TIP3    H2 9315   1.682   1.385   6.281
 3120TIP3   OH2 9316   6.101   6.332   1.615
 3120TIP3    H1 9317   6.073   6.417   1.650
 3120TIP3    H2 9318   6.076   6.335   1.523
 3121TIP3   OH2 9319   3.664   3.507   1.813
 3121TIP3    H1 9320   3.622   3.588   1.786
 3121TIP3    H2 9321   3.604   3.469   1.877
 3122TIP3   OH2 9322   4.923   4.129   1.564
 3122TIP3    H1 9323   4.972   4.162   1.489
 3122TIP3    H2 9324   4.904   4.037   1.541
 3123TIP3   OH2 9325   0.493   0.391   3.228
 3123TIP3    H1 9326   0.454   0.437   3.302
 3123TIP3    H2 9327   0.523   0.461   3.170
 3124TIP3   OH2 9328   2.090   3.071   3.088
 3124TIP3    H1 9329   2.130   3.043   3.005
 3124TIP3    H2 9330   1.998   3.048   3.079
 3125TIP3   OH2 9331   5.861   7.769   6.196
 3125TIP3    H1 9332   5.937   7.729   6.154
 3125TIP3    H2 9333   5.870   7.748   6.288
 3126TIP3   OH2 9334   5.209   1.221   1.750
 3126TIP3    H1 9335   5.287   1.194   1.799
 3126TIP3    H2 9336   5.145   1.152   1.767
 3127TIP3   OH2 9337   2.302   6.080   3.912
 3127TIP3    H1 9338   2.235   6.076   3.980
 3127TIP3    H2 9339   2.303   6.172   3.885
 3128TIP3   OH2 9340   5.058   3.916   1.216
 3128TIP3    H1 9341   4.974   3.904   1.172
 3128TIP3    H2 9342   5.081   4.007   1.198
 3129TIP3   OH2 9343   7.013   1.512   5.230
 3129TIP3    H1 9344   6.973   1.426   5.222
 3129TIP3    H2 9345   6.940   1.571   5.249
 3130TIP3   OH2 9346   0.759   2.386   0.527
 3130TIP3    H1 9347   0.695   2.438   0.576
 3130TIP3    H2 9348   0.838   2.389   0.581
 3131TIP3   OH2 9349   2.861   4.993   0.159
 3131TIP3    H1 9350   2.898   5.031   0.080
 3131TIP3    H2 9351   2.807   4.921   0.128
 3132TIP3   OH2 9352   2.381   0.034   1.863
 3132TIP3    H1 9353   2.385   0.097   1.790
 3132TIP3    H2 9354   2.375   0.089   1.941
 3133TIP3   OH2 9355   2.937   5.441   6.761
 3133TIP3    H1 9356   3.017   5.403   6.724
 3133TIP3    H2 9357   2.953   5.441   6.855
 3134TIP3   OH2 9358   2.989   5.656   4.668
 3134TIP3    H1 9359   2.913   5.608   4.635
 3134TIP3    H2 9360   3.064   5.608   4.632
 3135TIP3   OH2 9361   0.605   1.768   6.161
 3135TIP3    H1 9362   0.648   1.815   6.232
 3135TIP3    H2 9363   0.538   1.828   6.130
 3136TIP3   OH2 9364   4.303   5.961   2.456
 3136TIP3    H1 9365   4.349   5.877   2.448
 3136TIP3    H2 9366   4.279   5.967   2.548
 3137TIP3   OH2 9367   0.473   2.891   5.941
 3137TIP3    H1 9368   0.506   2.808   5.908
 3137TIP3    H2 9369   0.551   2.945   5.953
 3138TIP3   OH2 9370   0.022   2.204   5.672
 3138TIP3    H1 9371  -0.029   2.245   5.742
 3138TIP3    H2 9372  -0.005   2.112   5.675
 3139TIP3   OH2 9373   1.088   6.663   5.358
 3139TIP3    H1 9374   1.099   6.712   5.276
 3139TIP3    H2 9375   1.011   6.608   5.343
 3140TIP3   OH2 9376   7.404   2.450   6.567
 3140TIP3    H1 9377   7.457   2.524   6.538
 3140TIP3    H2 9378   7.325   2.454   6.513
 3141TIP3   OH2 9379   1.324   1.097   4.363
 3141TIP3    H1 9380   1.409   1.110   4.403
 3141TIP3    H2 9381   1.326   1.008   4.329
 3142TIP3   OH2 9382   6.614   4.068   1.191
 3142TIP3    H1 9383   6.591   4.131   1.123
 3142TIP3    H2 9384   6.690   4.022   1.157
 3143TIP3   OH2 9385   1.724   2.846   6.522
 3143TIP3    H1 9386   1.672   2.785   6.574
 3143TIP3    H2 9387   1.808   2.852   6.567
 3144TIP3   OH2 9388   5.885   1.112   3.577
 3144TIP3    H1 9389   5.918   1.179   3.517
 3144TIP3    H2 9390   5.858   1.161   3.655
 3145TIP3   OH2 9391   3.898   4.949   1.147
 3145TIP3    H1 9392   3.935   4.869   1.110
 3145TIP3    H2 9393   3.958   5.019   1.121
 3146TIP3   OH2 9394   3.719   7.799   4.130
 3146TIP3    H1 9395   3.680   7.799   4.217
 3146TIP3    H2 9396   3.713   7.708   4.101
 3147TIP3   OH2 9397   0.998   7.457   4.236
 3147TIP3    H1 9398   1.021   7.496   4.152
 3147TIP3    H2 9399   0.936   7.519   4.275
 3148TIP3   OH2 9400   6.638   2.287   1.317
 3148TIP3    H1 9401   6.633   2.243   1.232
 3148TIP3    H2 9402   6.579   2.236   1.373
 3149TIP3   OH2 9403   4.615   4.403   0.321
 3149TIP3    H1 9404   4.646   4.375   0.407
 3149TIP3    H2 9405   4.694   4.408   0.267
 3150TIP3   OH2 9406   1.421   1.888   5.899
 3150TIP3    H1 9407   1.401   1.930   5.815
 3150TIP3    H2 9408   1.340   1.843   5.923
 3151TIP3   OH2 9409   4.449   6.445   0.846
 3151TIP3    H1 9410   4.517   6.492   0.893
 3151TIP3    H2 9411   4.368   6.488   0.871
 3152TIP3   OH2 9412   5.159   7.584   3.245
 3152TIP3    H1 9413   5.244   7.606   3.282
 3152TIP3    H2 9414   5.159   7.488   3.241
 3153TIP3   OH2 9415   1.763   5.621   6.778
 3153TIP3    H1 9416   1.727   5.708   6.796
 3153TIP3    H2 9417   1.694   5.576   6.730
 3154TIP3   OH2 9418   8.209   1.728   1.889
 3154TIP3    H1 9419   8.212   1.633   1.900
 3154TIP3    H2 9420   8.298   1.753   1.864
 3155TIP3   OH2 9421   0.982   7.083   1.601
 3155TIP3    H1 9422   1.023   7.169   1.611
 3155TIP3    H2 9423   0.918   7.096   1.530
 3156TIP3   OH2 9424   3.156   5.119   2.849
 3156TIP3    H1 9425   3.092   5.146   2.914
 3156TIP3    H2 9426   3.123   5.035   2.815
 3157TIP3   OH2 9427   4.275   0.577   0.393
 3157TIP3    H1 9428   4.226   0.540   0.466
 3157TIP3    H2 9429   4.345   0.514   0.377
 3158TIP3   OH2 9430   7.441   4.520   4.986
 3158TIP3    H1 9431   7.402   4.539   5.071
 3158TIP3    H2 9432   7.528   4.559   4.990
 3159TIP3   OH2 9433   5.318   0.923   2.233
 3159TIP3    H1 9434   5.297   1.009   2.270
 3159TIP3    H2 9435   5.238   0.872   2.244
 3160TIP3   OH2 9436   7.141   4.917   1.322
 3160TIP3    H1 9437   7.104   4.878   1.243
 3160TIP3    H2 9438   7.081   4.989   1.344
 3161TIP3   OH2 9439   0.686   6.124   3.972
 3161TIP3    H1 9440   0.670   6.085   3.886
 3161TIP3    H2 9441   0.776   6.099   3.993
 3162TIP3   OH2 9442   6.249   5.238   0.818
 3162TIP3    H1 9443   6.263   5.315   0.873
 3162TIP3    H2 9444   6.215   5.172   0.878
 3163TIP3   OH2 9445   3.663   6.316   5.554
 3163TIP3    H1 9446   3.660   6.221   5.539
 3163TIP3    H2 9447   3.755   6.340   5.540
 3164TIP3   OH2 9448   6.286   7.810   6.080
 3164TIP3    H1 9449   6.314   7.721   6.058
 3164TIP3    H2 9450   6.242   7.801   6.165
 3165TIP3   OH2 9451   2.894   7.787   6.657
 3165TIP3    H1 9452   2.843   7.795   6.738
 3165TIP3    H2 9453   2.834   7.817   6.588
 3166TIP3   OH2 9454   5.141   0.187   0.959
 3166TIP3    H1 9455   5.158   0.273   0.920
 3166TIP3    H2 9456   5.220   0.167   1.008
 3167TIP3   OH2 9457   4.118   1.131   2.367
 3167TIP3    H1 9458   4.032   1.094   2.387
 3167TIP3    H2 9459   4.124   1.128   2.271
 3168TIP3   OH2 9460   6.609   6.213   4.821
 3168TIP3    H1 9461   6.527   6.164   4.828
 3168TIP3    H2 9462   6.614   6.263   4.902
 3169TIP3   OH2 9463   3.483   4.167   0.101
 3169TIP3    H1 9464   3.549   4.218   0.147
 3169TIP3    H2 9465   3.468   4.091   0.157
 3170TIP3   OH2 9466   3.776   2.873   2.674
 3170TIP3    H1 9467   3.687   2.855   2.645
 3170TIP3    H2 9468   3.831   2.851   2.598
 3171TIP3   OH2 9469   6.976   3.868   5.334
 3171TIP3    H1 9470   6.923   3.893   5.258
 3171TIP3    H2 9471   6.970   3.942   5.394
 3172TIP3   OH2 9472   7.763   4.826   0.939
 3172TIP3    H1 9473   7.720   4.895   0.887
 3172TIP3    H2 9474   7.825   4.873   0.994
 3173TIP3   OH2 9475   5.232   1.522   1.964
 3173TIP3    H1 9476   5.320   1.485   1.958
 3173TIP3    H2 9477   5.240   1.609   1.926
 3174TIP3   OH2 9478   3.294   7.267   2.972
 3174TIP3    H1 9479   3.213   7.226   3.002
 3174TIP3    H2 9480   3.355   7.193   2.963
 3175TIP3   OH2 9481   6.838   0.946   0.905
 3175TIP3    H1 9482   6.908   0.946   0.840
 3175TIP3    H2 9483   6.876   0.988   0.982
 3176TIP3   OH2 9484   3.441   6.148   6.390
 3176TIP3    H1 9485   3.382   6.169   6.462
 3176TIP3    H2 9486   3.468   6.057   6.408
 3177TIP3   OH2 9487   1.882   6.040   3.137
 3177TIP3    H1 9488   1.923   6.108   3.190
 3177TIP3    H2 9489   1.953   6.006   3.083
 3178TIP3   OH2 9490   0.032   5.255   3.144
 3178TIP3    H1 9491   0.111   5.293   3.106
 3178TIP3    H2 9492   0.047   5.257   3.238
 3179TIP3   OH2 9493   0.223   4.668   5.389
 3179TIP3    H1 9494   0.139   4.625   5.402
 3179TIP3    H2 9495   0.202   4.761   5.388
 3180TIP3   OH2 9496   3.907   7.265   2.050
 3180TIP3    H1 9497   3.949   7.307   2.124
 3180TIP3    H2 9498   3.979   7.237   1.993
 3181TIP3   OH2 9499   3.885   1.186   5.429
 3181TIP3    H1 9500   3.855   1.277   5.425
 3181TIP3    H2 9501   3.934   1.173   5.348
 3182TIP3   OH2 9502   4.663   7.328   2.884
 3182TIP3    H1 9503   4.698   7.353   2.970
 3182TIP3    H2 9504   4.597   7.395   2.865
 3183TIP3   OH2 9505   6.878   7.806   1.537
 3183TIP3    H1 9506   6.837   7.826   1.453
 3183TIP3    H2 9507   6.944   7.740   1.516
 3184TIP3   OH2 9508   2.106   4.297   3.037
 3184TIP3    H1 9509   2.154   4.288   3.120
 3184TIP3    H2 9510   2.171   4.276   2.970
 3185TIP3   OH2 9511   3.064   6.862   2.368
 3185TIP3    H1 9512   3.122   6.799   2.409
 3185TIP3    H2 9513   3.112   6.945   2.372
 3186TIP3   OH2 9514   6.913   3.815   3.192
 3186TIP3    H1 9515   6.944   3.827   3.103
 3186TIP3    H2 9516   6.842   3.752   3.184
 3187TIP3   OH2 9517   4.910   1.700   0.787
 3187TIP3    H1 9518   4.883   1.670   0.700
 3187TIP3    H2 9519   4.930   1.619   0.835
 3188TIP3   OH2 9520   7.238   4.598   3.275
 3188TIP3    H1 9521   7.219   4.505   3.265
 3188TIP3    H2 9522   7.288   4.621   3.197
 3189TIP3   OH2 9523   7.297   0.182   1.181
 3189TIP3    H1 9524   7.313   0.111   1.243
 3189TIP3    H2 9525   7.332   0.260   1.223
 3190TIP3   OH2 9526   5.356   0.450   4.976
 3190TIP3    H1 9527   5.296   0.401   5.032
 3190TIP3    H2 9528   5.438   0.400   4.980
 3191TIP3   OH2 9529   1.696   5.795   6.154
 3191TIP3    H1 9530   1.765   5.806   6.089
 3191TIP3    H2 9531   1.617   5.829   6.111
 3192TIP3   OH2 9532   7.842   3.832   2.977
 3192TIP3    H1 9533   7.860   3.831   3.071
 3192TIP3    H2 9534   7.922   3.869   2.939
 3193TIP3   OH2 9535   1.575   4.390   6.359
 3193TIP3    H1 9536   1.658   4.351   6.331
 3193TIP3    H2 9537   1.523   4.315   6.389
 3194TIP3   OH2 9538   4.111   5.989   0.840
 3194TIP3    H1 9539   4.075   5.983   0.928
 3194TIP3    H2 9540   4.053   6.049   0.794
 3195TIP3   OH2 9541   6.846   6.261   3.663
 3195TIP3    H1 9542   6.875   6.223   3.580
 3195TIP3    H2 9543   6.759   6.224   3.677
 3196TIP3   OH2 9544   6.879   0.187   4.716
 3196TIP3    H1 9545   6.837   0.216   4.635
 3196TIP3    H2 9546   6.960   0.146   4.688
 3197TIP3   OH2 9547   8.249   3.393   3.761
 3197TIP3    H1 9548   8.248   3.351   3.675
 3197TIP3    H2 9549   8.179   3.458   3.756
 3198TIP3   OH2 9550   2.795   1.934   5.318
 3198TIP3    H1 9551   2.785   1.863   5.380
 3198TIP3    H2 9552   2.797   1.891   5.232
 3199TIP3   OH2 9553   7.170   3.988   0.498
 3199TIP3    H1 9554   7.149   4.051   0.429
 3199TIP3    H2 9555   7.114   3.913   0.480
 3200TIP3   OH2 9556   7.934   0.048   2.164
 3200TIP3    H1 9557   7.986   0.099   2.226
 3200TIP3    H2 9558   7.843   0.066   2.189
 3201TIP3   OH2 9559   2.331   7.067   4.995
 3201TIP3    H1 9560   2.388   6.990   4.992
 3201TIP3    H2 9561   2.253   7.038   5.042
 3202TIP3   OH2 9562   5.719   1.547   3.768
 3202TIP3    H1 9563   5.701   1.590   3.851
 3202TIP3    H2 9564   5.812   1.564   3.752
 3203TIP3   OH2 9565   0.972   7.461   6.397
 3203TIP3    H1 9566   0.922   7.535   6.361
 3203TIP3    H2 9567   0.927   7.383   6.364
 3204TIP3   OH2 9568   0.437   3.186   0.806
 3204TIP3    H1 9569   0.399   3.272   0.825
 3204TIP3    H2 9570   0.418   3.134   0.883
 3205TIP3   OH2 9571   3.385   1.180   0.650
 3205TIP3    H1 9572   3.395   1.150   0.560
 3205TIP3    H2 9573   3.359   1.272   0.642
 3206TIP3   OH2 9574   5.060   2.758   1.267
 3206TIP3    H1 9575   4.977   2.735   1.309
 3206TIP3    H2 9576   5.046   2.847   1.234
 3207TIP3   OH2 9577   6.249   1.280   0.193
 3207TIP3    H1 9578   6.274   1.190   0.215
 3207TIP3    H2 9579   6.214   1.316   0.274
 3208TIP3   OH2 9580   6.386   6.113   1.242
 3208TIP3    H1 9581   6.299   6.074   1.242
 3208TIP3    H2 9582   6.371   6.206   1.225
 3209TIP3   OH2 9583   5.231   3.232   1.678
 3209TIP3    H1 9584   5.271   3.162   1.627
 3209TIP3    H2 9585   5.246   3.312   1.627
 3210TIP3   OH2 9586   0.170   7.741   1.859
 3210TIP3    H1 9587   0.139   7.656   1.892
 3210TIP3    H2 9588   0.099   7.773   1.804
 3211TIP3   OH2 9589   5.578   2.543   2.436
 3211TIP3    H1 9590   5.556   2.563   2.527
 3211TIP3    H2 9591   5.657   2.490   2.442
 3212TIP3   OH2 9592   3.445   5.514   0.983
 3212TIP3    H1 9593   3.358   5.531   0.946
 3212TIP3    H2 9594   3.501   5.580   0.943
 3213TIP3   OH2 9595   8.112   6.258   5.871
 3213TIP3    H1 9596   8.060   6.269   5.792
 3213TIP3    H2 9597   8.080   6.326   5.931
 3214TIP3   OH2 9598   0.004   0.988   3.059
 3214TIP3    H1 9599  -0.001   1.071   3.105
 3214TIP3    H2 9600   0.094   0.985   3.025
 3215TIP3   OH2 9601   3.033   7.313   6.506
 3215TIP3    H1 9602   3.103   7.287   6.566
 3215TIP3    H2 9603   3.063   7.284   6.420
 3216TIP3   OH2 9604   4.865   1.715   3.323
 3216TIP3    H1 9605   4.770   1.728   3.323
 3216TIP3    H2 9606   4.889   1.718   3.416
 3217TIP3   OH2 9607   6.528   6.497   4.093
 3217TIP3    H1 9608   6.531   6.447   4.174
 3217TIP3    H2 9609   6.619   6.515   4.072
 3218TIP3   OH2 9610   6.091   7.552   1.185
 3218TIP3    H1 9611   6.121   7.487   1.248
 3218TIP3    H2 9612   6.137   7.530   1.104
 3219TIP3   OH2 9613   5.485   2.624   0.452
 3219TIP3    H1 9614   5.566   2.598   0.495
 3219TIP3    H2 9615   5.417   2.609   0.518
 3220TIP3   OH2 9616   6.839   7.488   0.782
 3220TIP3    H1 9617   6.786   7.443   0.848
 3220TIP3    H2 9618   6.810   7.452   0.698
 3221TIP3   OH2 9619   3.387   0.068   2.383
 3221TIP3    H1 9620   3.385   0.070   2.478
 3221TIP3    H2 9621   3.319   0.130   2.356
 3222TIP3   OH2 9622   3.896   4.159   1.528
 3222TIP3    H1 9623   3.973   4.192   1.574
 3222TIP3    H2 9624   3.827   4.157   1.594
 3223TIP3   OH2 9625   7.606   0.694   5.373
 3223TIP3    H1 9626   7.658   0.633   5.321
 3223TIP3    H2 9627   7.667   0.765   5.394
 3224TIP3   OH2 9628   4.969   7.668   0.065
 3224TIP3    H1 9629   4.950   7.725   0.139
 3224TIP3    H2 9630   5.022   7.721   0.006
 3225TIP3   OH2 9631   1.782   3.980   0.156
 3225TIP3    H1 9632   1.835   4.021   0.225
 3225TIP3    H2 9633   1.798   3.886   0.166
 3226TIP3   OH2 9634   4.196   2.496   3.471
 3226TIP3    H1 9635   4.165   2.559   3.406
 3226TIP3    H2 9636   4.162   2.528   3.555
 3227TIP3   OH2 9637   4.686   5.319   6.677
 3227TIP3    H1 9638   4.595   5.331   6.649
 3227TIP3    H2 9639   4.736   5.377   6.620
 3228TIP3   OH2 9640   7.029   7.459   0.275
 3228TIP3    H1 9641   7.028   7.400   0.201
 3228TIP3    H2 9642   7.008   7.404   0.351
 3229TIP3   OH2 9643   7.588   1.567   5.614
 3229TIP3    H1 9644   7.563   1.658   5.624
 3229TIP3    H2 9645   7.643   1.547   5.690
 3230TIP3   OH2 9646   2.609   0.188   2.368
 3230TIP3    H1 9647   2.544   0.127   2.403
 3230TIP3    H2 9648   2.661   0.214   2.444
 3231TIP3   OH2 9649   7.503   3.235   4.490
 3231TIP3    H1 9650   7.512   3.329   4.504
 3231TIP3    H2 9651   7.433   3.208   4.550
 3232TIP3   OH2 9652   4.550   4.826   2.202
 3232TIP3    H1 9653   4.512   4.812   2.289
 3232TIP3    H2 9654   4.641   4.850   2.220
 3233TIP3   OH2 9655   0.142   5.929   0.267
 3233TIP3    H1 9656   0.083   5.889   0.203
 3233TIP3    H2 9657   0.192   5.993   0.217
 3234TIP3   OH2 9658   0.661   4.980   3.768
 3234TIP3    H1 9659   0.708   5.030   3.702
 3234TIP3    H2 9660   0.706   5.000   3.850
 3235TIP3   OH2 9661   2.079   0.836   4.762
 3235TIP3    H1 9662   2.076   0.932   4.756
 3235TIP3    H2 9663   2.029   0.816   4.841
 3236TIP3   OH2 9664   6.967   4.266   1.234
 3236TIP3    H1 9665   6.960   4.319   1.155
 3236TIP3    H2 9666   6.952   4.329   1.305
 3237TIP3   OH2 9667   7.179   0.842   5.228
 3237TIP3    H1 9668   7.236   0.775   5.266
 3237TIP3    H2 9669   7.212   0.925   5.263
 3238TIP3   OH2 9670   3.108   2.194   0.741
 3238TIP3    H1 9671   3.038   2.226   0.797
 3238TIP3    H2 9672   3.102   2.098   0.746
 3239TIP3   OH2 9673   1.727   4.559   3.843
 3239TIP3    H1 9674   1.660   4.585   3.780
 3239TIP3    H2 9675   1.760   4.475   3.810
 3240TIP3   OH2 9676   3.237   6.431   3.478
 3240TIP3    H1 9677   3.225   6.337   3.489
 3240TIP3    H2 9678   3.321   6.450   3.520
 3241TIP3   OH2 9679   7.969   7.458   5.555
 3241TIP3    H1 9680   7.902   7.524   5.574
 3241TIP3    H2 9681   8.051   7.498   5.583
 3242TIP3   OH2 9682   4.839   3.821   2.041
 3242TIP3    H1 9683   4.817   3.913   2.030
 3242TIP3    H2 9684   4.789   3.793   2.117
 3243TIP3   OH2 9685   3.617   5.100   4.999
 3243TIP3    H1 9686   3.582   5.160   5.064
 3243TIP3    H2 9687   3.597   5.013   5.034
 3244TIP3   OH2 9688   8.124   1.209   4.621
 3244TIP3    H1 9689   8.163   1.271   4.559
 3244TIP3    H2 9690   8.138   1.123   4.580
 3245TIP3   OH2 9691   1.040   1.411   4.851
 3245TIP3    H1 9692   0.971   1.428   4.915
 3245TIP3    H2 9693   0.993   1.402   4.768
 3246TIP3   OH2 9694   7.474   7.520   6.296
 3246TIP3    H1 9695   7.423   7.596   6.268
 3246TIP3    H2 9696   7.564   7.543   6.275
 3247TIP3   OH2 9697   7.486   4.742   5.264
 3247TIP3    H1 9698   7.573   4.756   5.302
 3247TIP3    H2 9699   7.425   4.758   5.336
 3248TIP3   OH2 9700   4.819   2.862   6.240
 3248TIP3    H1 9701   4.848   2.883   6.328
 3248TIP3    H2 9702   4.741   2.915   6.226
 3249TIP3   OH2 9703   3.898   6.875   4.968
 3249TIP3    H1 9704   3.860   6.873   5.056
 3249TIP3    H2 9705   3.914   6.968   4.951
 3250TIP3   OH2 9706   7.369   1.509   0.908
 3250TIP3    H1 9707   7.306   1.437   0.913
 3250TIP3    H2 9708   7.450   1.473   0.945
 3251TIP3   OH2 9709   6.393   3.925   2.239
 3251TIP3    H1 9710   6.324   3.974   2.284
 3251TIP3    H2 9711   6.358   3.836   2.231
 3252TIP3   OH2 9712   4.259   7.551   1.351
 3252TIP3    H1 9713   4.261   7.490   1.277
 3252TIP3    H2 9714   4.304   7.629   1.319
 3253TIP3   OH2 9715   7.949   7.316   3.087
 3253TIP3    H1 9716   8.030   7.306   3.037
 3253TIP3    H2 9717   7.971   7.285   3.175
 3254TIP3   OH2 9718   0.469   6.473   1.479
 3254TIP3    H1 9719   0.393   6.485   1.422
 3254TIP3    H2 9720   0.544   6.466   1.419
 3255TIP3   OH2 9721   8.176   4.795   6.119
 3255TIP3    H1 9722   8.266   4.790   6.151
 3255TIP3    H2 9723   8.183   4.843   6.037
 3256TIP3   OH2 9724   6.659   1.360   5.258
 3256TIP3    H1 9725   6.650   1.454   5.274
 3256TIP3    H2 9726   6.596   1.320   5.318
 3257TIP3   OH2 9727   6.056   3.324   5.202
 3257TIP3    H1 9728   5.967   3.317   5.235
 3257TIP3    H2 9729   6.047   3.326   5.107
 3258TIP3   OH2 9730   6.854   0.446   5.936
 3258TIP3    H1 9731   6.895   0.481   6.015
 3258TIP3    H2 9732   6.883   0.503   5.865
 3259TIP3   OH2 9733   5.930   4.680   1.683
 3259TIP3    H1 9734   5.924   4.613   1.615
 3259TIP3    H2 9735   5.842   4.716   1.689
 3260TIP3   OH2 9736   1.237   1.808   5.252
 3260TIP3    H1 9737   1.329   1.817   5.226
 3260TIP3    H2 9738   1.194   1.885   5.215
 3261TIP3   OH2 9739   7.387   2.100   4.386
 3261TIP3    H1 9740   7.305   2.067   4.423
 3261TIP3    H2 9741   7.359   2.152   4.311
 3262TIP3   OH2 9742   0.673   3.649   6.663
 3262TIP3    H1 9743   0.653   3.670   6.754
 3262TIP3    H2 9744   0.708   3.730   6.626
 3263TIP3   OH2 9745   4.790   4.836   4.637
 3263TIP3    H1 9746   4.744   4.807   4.559
 3263TIP3    H2 9747   4.762   4.927   4.649
 3264TIP3   OH2 9748   4.238   6.475   4.108
 3264TIP3    H1 9749   4.286   6.558   4.103
 3264TIP3    H2 9750   4.225   6.461   4.202
 3265TIP3   OH2 9751   0.315   2.697   1.632
 3265TIP3    H1 9752   0.349   2.607   1.635
 3265TIP3    H2 9753   0.388   2.750   1.665
 3266TIP3   OH2 9754   7.239   1.297   4.191
 3266TIP3    H1 9755   7.215   1.236   4.261
 3266TIP3    H2 9756   7.236   1.383   4.233
 3267TIP3   OH2 9757   1.308   6.959   4.063
 3267TIP3    H1 9758   1.294   7.030   4.000
 3267TIP3    H2 9759   1.220   6.924   4.078
 3268TIP3   OH2 9760   7.180   6.309   4.596
 3268TIP3    H1 9761   7.251   6.313   4.532
 3268TIP3    H2 9762   7.223   6.320   4.680
 3269TIP3   OH2 9763   7.884   2.119   3.812
 3269TIP3    H1 9764   7.976   2.105   3.790
 3269TIP3    H2 9765   7.883   2.123   3.908
 3270TIP3   OH2 9766   2.958   2.061   2.124
 3270TIP3    H1 9767   2.902   2.046   2.200
 3270TIP3    H2 9768   2.934   1.991   2.063
 3271TIP3   OH2 9769   0.421   1.660   1.699
 3271TIP3    H1 9770   0.489   1.613   1.747
 3271TIP3    H2 9771   0.405   1.607   1.620
 3272TIP3   OH2 9772   5.593   1.482   0.597
 3272TIP3    H1 9773   5.553   1.534   0.666
 3272TIP3    H2 9774   5.669   1.534   0.569
 3273TIP3   OH2 9775   2.376   1.651   0.944
 3273TIP3    H1 9776   2.454   1.705   0.944
 3273TIP3    H2 9777   2.397   1.578   1.003
 3274TIP3   OH2 9778   5.602   4.040   4.651
 3274TIP3    H1 9779   5.598   3.946   4.634
 3274TIP3    H2 9780   5.521   4.074   4.613
 3275TIP3   OH2 9781   3.848   1.055   3.026
 3275TIP3    H1 9782   3.788   1.094   2.962
 3275TIP3    H2 9783   3.791   1.006   3.085
 3276TIP3   OH2 9784   1.809   6.610   0.184
 3276TIP3    H1 9785   1.837   6.529   0.142
 3276TIP3    H2 9786   1.804   6.588   0.277
 3277TIP3   OH2 9787   7.598   1.933   5.401
 3277TIP3    H1 9788   7.673   1.951   5.344
 3277TIP3    H2 9789   7.538   1.882   5.347
 3278TIP3   OH2 9790   5.290   6.637   0.637
 3278TIP3    H1 9791   5.231   6.685   0.579
 3278TIP3    H2 9792   5.236   6.616   0.713
 3279TIP3   OH2 9793   6.840   1.940   4.072
 3279TIP3    H1 9794   6.793   1.924   4.154
 3279TIP3    H2 9795   6.933   1.934   4.097
 3280TIP3   OH2 9796   6.652   4.648   6.393
 3280TIP3    H1 9797   6.645   4.683   6.482
 3280TIP3    H2 9798   6.637   4.723   6.336
 3281TIP3   OH2 9799   2.852   1.675  -0.001
 3281TIP3    H1 9800   2.809   1.731   0.064
 3281TIP3    H2 9801   2.945   1.685   0.016
 3282TIP3   OH2 9802   3.367   0.488   0.958
 3282TIP3    H1 9803   3.363   0.412   1.016
 3282TIP3    H2 9804   3.460   0.512   0.957
 3283TIP3   OH2 9805   3.067   2.332   4.614
 3283TIP3    H1 9806   3.093   2.250   4.572
 3283TIP3    H2 9807   3.081   2.316   4.707
 3284TIP3   OH2 9808   1.049   3.871   0.214
 3284TIP3    H1 9809   1.030   3.908   0.300
 3284TIP3    H2 9810   1.128   3.916   0.184
 3285TIP3   OH2 9811   1.585   5.833   1.253
 3285TIP3    H1 9812   1.535   5.904   1.212
 3285TIP3    H2 9813   1.536   5.754   1.233
 3286TIP3   OH2 9814   5.416   3.563   5.680
 3286TIP3    H1 9815   5.374   3.487   5.641
 3286TIP3    H2 9816   5.404   3.552   5.774
 3287TIP3   OH2 9817   8.065   5.539   6.054
 3287TIP3    H1 9818   8.045   5.631   6.036
 3287TIP3    H2 9819   8.151   5.541   6.095
 3288TIP3   OH2 9820   4.597   3.380   3.708
 3288TIP3    H1 9821   4.554   3.343   3.631
 3288TIP3    H2 9822   4.585   3.475   3.699
 3289TIP3   OH2 9823   4.540   4.781   5.085
 3289TIP3    H1 9824   4.528   4.845   5.156
 3289TIP3    H2 9825   4.516   4.828   5.006
 3290TIP3   OH2 9826   1.459   7.714   4.117
 3290TIP3    H1 9827   1.412   7.676   4.191
 3290TIP3    H2 9828   1.391   7.740   4.055
 3291TIP3   OH2 9829   5.103   2.833   6.724
 3291TIP3    H1 9830   5.051   2.890   6.780
 3291TIP3    H2 9831   5.177   2.806   6.778
 3292TIP3   OH2 9832   5.712   6.260   3.303
 3292TIP3    H1 9833   5.618   6.243   3.294
 3292TIP3    H2 9834   5.740   6.289   3.216
 3293TIP3   OH2 9835   4.391   0.190   3.776
 3293TIP3    H1 9836   4.388   0.273   3.728
 3293TIP3    H2 9837   4.305   0.185   3.819
 3294TIP3   OH2 9838   5.806   0.512   5.760
 3294TIP3    H1 9839   5.827   0.419   5.768
 3294TIP3    H2 9840   5.782   0.523   5.668
 3295TIP3   OH2 9841   6.062   1.931   4.210
 3295TIP3    H1 9842   6.152   1.959   4.192
 3295TIP3    H2 9843   6.008   2.008   4.190
 3296TIP3   OH2 9844   7.739   3.238   5.934
 3296TIP3    H1 9845   7.812   3.300   5.945
 3296TIP3    H2 9846   7.664   3.283   5.973
 3297TIP3   OH2 9847   4.497   4.109   5.695
 3297TIP3    H1 9848   4.513   4.150   5.610
 3297TIP3    H2 9849   4.580   4.069   5.720
 3298TIP3   OH2 9850   5.596   6.629   2.193
 3298TIP3    H1 9851   5.501   6.636   2.202
 3298TIP3    H2 9852   5.629   6.640   2.282
 3299TIP3   OH2 9853   6.928   2.605   2.963
 3299TIP3    H1 9854   6.869   2.552   2.910
 3299TIP3    H2 9855   7.016   2.578   2.936
 3300TIP3   OH2 9856   1.839   4.605   2.007
 3300TIP3    H1 9857   1.773   4.561   1.954
 3300TIP3    H2 9858   1.841   4.695   1.974
 3301TIP3   OH2 9859   2.128   6.060   2.952
 3301TIP3    H1 9860   2.091   5.976   2.924
 3301TIP3    H2 9861   2.203   6.036   3.007
 3302TIP3   OH2 9862   6.531   2.882   6.408
 3302TIP3    H1 9863   6.544   2.888   6.313
 3302TIP3    H2 9864   6.600   2.821   6.437
 3303TIP3   OH2 9865   6.496   2.767   2.242
 3303TIP3    H1 9866   6.546   2.775   2.323
 3303TIP3    H2 9867   6.558   2.734   2.178
 3304TIP3   OH2 9868   6.033   3.646   4.955
 3304TIP3    H1 9869   6.082   3.630   4.875
 3304TIP3    H2 9870   5.944   3.665   4.926
 3305TIP3   OH2 9871   8.181   6.284   1.952
 3305TIP3    H1 9872   8.194   6.313   1.861
 3305TIP3    H2 9873   8.269   6.283   1.989
 3306TIP3   OH2 9874   1.835   3.831   1.802
 3306TIP3    H1 9875   1.838   3.780   1.721
 3306TIP3    H2 9876   1.899   3.788   1.860
 3307TIP3   OH2 9877   2.852   3.860   4.289
 3307TIP3    H1 9878   2.844   3.816   4.374
 3307TIP3    H2 9879   2.937   3.903   4.292
 3308TIP3   OH2 9880   2.826   3.679   0.092
 3308TIP3    H1 9881   2.789   3.755   0.136
 3308TIP3    H2 9882   2.905   3.658   0.142
 3309TIP3   OH2 9883   5.683   0.269   0.975
 3309TIP3    H1 9884   5.720   0.275   1.063
 3309TIP3    H2 9885   5.752   0.230   0.922
 3310TIP3   OH2 9886   5.146   5.039   1.123
 3310TIP3    H1 9887   5.102   5.001   1.047
 3310TIP3    H2 9888   5.213   5.097   1.086
 3311TIP3   OH2 9889   2.595   5.596   5.071
 3311TIP3    H1 9890   2.607   5.583   4.977
 3311TIP3    H2 9891   2.544   5.520   5.099
 3312TIP3   OH2 9892   0.091   4.060   5.362
 3312TIP3    H1 9893   0.179   4.055   5.397
 3312TIP3    H2 9894   0.102   4.061   5.267
 3313TIP3   OH2 9895   7.765   0.670   3.577
 3313TIP3    H1 9896   7.688   0.712   3.540
 3313TIP3    H2 9897   7.830   0.673   3.507
 3314TIP3   OH2 9898   2.882   6.554   5.388
 3314TIP3    H1 9899   2.861   6.569   5.296
 3314TIP3    H2 9900   2.974   6.579   5.396
 3315TIP3   OH2 9901   4.364   6.342   3.371
 3315TIP3    H1 9902   4.400   6.347   3.283
 3315TIP3    H2 9903   4.439   6.328   3.428
 3316TIP3   OH2 9904   6.498   1.497   4.047
 3316TIP3    H1 9905   6.591   1.474   4.046
 3316TIP3    H2 9906   6.469   1.486   3.957
 3317TIP3   OH2 9907   0.556   7.370   3.037
 3317TIP3    H1 9908   0.483   7.428   3.013
 3317TIP3    H2 9909   0.634   7.424   3.024
 3318TIP3   OH2 9910   3.852   5.297   3.789
 3318TIP3    H1 9911   3.823   5.206   3.779
 3318TIP3    H2 9912   3.837   5.317   3.881
 3319TIP3   OH2 9913   2.790   7.176   6.666
 3319TIP3    H1 9914   2.793   7.205   6.757
 3319TIP3    H2 9915   2.860   7.226   6.623
 3320TIP3   OH2 9916   6.029   4.956   5.564
 3320TIP3    H1 9917   5.946   4.923   5.528
 3320TIP3    H2 9918   6.097   4.905   5.520
 3321TIP3   OH2 9919   1.684   4.201   5.116
 3321TIP3    H1 9920   1.726   4.179   5.200
 3321TIP3    H2 9921   1.743   4.264   5.076
 3322TIP3   OH2 9922   6.402   5.337   0.557
 3322TIP3    H1 9923   6.492   5.310   0.538
 3322TIP3    H2 9924   6.387   5.307   0.647
 3323TIP3   OH2 9925   1.930   2.539   5.689
 3323TIP3    H1 9926   1.885   2.608   5.738
 3323TIP3    H2 9927   2.010   2.522   5.738
 3324TIP3   OH2 9928   3.039   4.066   3.077
 3324TIP3    H1 9929   3.122   4.114   3.077
 3324TIP3    H2 9930   3.063   3.977   3.104
 3325TIP3   OH2 9931   2.095   2.551   5.248
 3325TIP3    H1 9932   2.066   2.627   5.298
 3325TIP3    H2 9933   2.117   2.486   5.314
 3326TIP3   OH2 9934   1.402   4.067   0.948
 3326TIP3    H1 9935   1.474   4.097   1.004
 3326TIP3    H2 9936   1.389   4.139   0.885
 3327TIP3   OH2 9937   5.456   4.883   3.487
 3327TIP3    H1 9938   5.488   4.795   3.507
 3327TIP3    H2 9939   5.536   4.934   3.471
 3328TIP3   OH2 9940   1.171   0.357   5.663
 3328TIP3    H1 9941   1.097   0.300   5.686
 3328TIP3    H2 9942   1.148   0.442   5.700
 3329TIP3   OH2 9943   1.387   0.087   0.484
 3329TIP3    H1 9944   1.396   0.046   0.397
 3329TIP3    H2 9945   1.322   0.156   0.470
 3330TIP3   OH2 9946   2.382   4.797   4.262
 3330TIP3    H1 9947   2.395   4.892   4.264
 3330TIP3    H2 9948   2.381   4.771   4.354
 3331TIP3   OH2 9949   1.892   4.158   4.380
 3331TIP3    H1 9950   1.914   4.073   4.342
 3331TIP3    H2 9951   1.814   4.140   4.433
 3332TIP3   OH2 9952   0.185   3.113   4.525
 3332TIP3    H1 9953   0.123   3.184   4.508
 3332TIP3    H2 9954   0.197   3.071   4.440
 3333TIP3   OH2 9955   6.650   4.770   6.636
 3333TIP3    H1 9956   6.658   4.845   6.577
 3333TIP3    H2 9957   6.738   4.757   6.671
 3334TIP3   OH2 9958   3.404   2.790   0.407
 3334TIP3    H1 9959   3.386   2.884   0.401
 3334TIP3    H2 9960   3.460   2.781   0.484
 3335TIP3   OH2 9961   2.255   5.791   2.522
 3335TIP3    H1 9962   2.182   5.852   2.533
 3335TIP3    H2 9963   2.258   5.774   2.428
 3336TIP3   OH2 9964   0.464   0.846   4.109
 3336TIP3    H1 9965   0.485   0.938   4.125
 3336TIP3    H2 9966   0.412   0.820   4.185
 3337TIP3   OH2 9967   4.008   3.081   3.633
 3337TIP3    H1 9968   3.991   3.031   3.553
 3337TIP3    H2 9969   4.044   3.016   3.694
 3338TIP3   OH2 9970   6.135   5.177   2.196
 3338TIP3    H1 9971   6.225   5.208   2.182
 3338TIP3    H2 9972   6.117   5.120   2.121
 3339TIP3   OH2 9973   7.365   2.772   6.225
 3339TIP3    H1 9974   7.301   2.799   6.291
 3339TIP3    H2 9975   7.438   2.736   6.275
 3340TIP3   OH2 9976   2.664   3.963   5.031
 3340TIP3    H1 9977   2.706   3.988   5.114
 3340TIP3    H2 9978   2.615   4.040   5.004
 3341TIP3   OH2 9979   6.574   2.079   5.332
 3341TIP3    H1 9980   6.544   2.137   5.262
 3341TIP3    H2 9981   6.543   2.120   5.412
 3342TIP3   OH2 9982   1.397   3.225   3.318
 3342TIP3    H1 9983   1.475   3.268   3.352
 3342TIP3    H2 9984   1.373   3.162   3.386
 3343TIP3   OH2 9985   6.829   5.135   1.939
 3343TIP3    H1 9986   6.803   5.217   1.982
 3343TIP3    H2 9987   6.746   5.097   1.908
 3344TIP3   OH2 9988   4.013   5.167   2.229
 3344TIP3    H1 9989   4.096   5.180   2.183
 3344TIP3    H2 9990   3.989   5.077   2.209
 3345TIP3   OH2 9991   7.327   1.156   1.442
 3345TIP3    H1 9992   7.246   1.105   1.443
 3345TIP3    H2 9993   7.343   1.174   1.349
 3346TIP3   OH2 9994   1.518   6.994   5.921
 3346TIP3    H1 9995   1.489   6.908   5.950
 3346TIP3    H2 9996   1.601   7.008   5.967
 3347TIP3   OH2 9997   2.019   5.528   4.881
 3347TIP3    H1 9998   2.090   5.553   4.821
 3347TIP3    H2 9999   1.946   5.585   4.856
 3348TIP3   OH210000   7.078   0.484   0.841
 3348TIP3    H110001   7.090   0.536   0.762
 3348TIP3    H210002   6.984   0.470   0.847
 3349TIP3   OH210003   1.508   3.378   5.979
 3349TIP3    H110004   1.446   3.314   6.015
 3349TIP3    H210005   1.562   3.404   6.053
 3350TIP3   OH210006   0.602   3.120   1.571
 3350TIP3    H110007   0.549   3.152   1.499
 3350TIP3    H210008   0.633   3.034   1.542
 3351TIP3   OH210009   4.169   0.943   4.362
 3351TIP3    H110010   4.124   0.859   4.372
 3351TIP3    H210011   4.132   0.980   4.282
 3352TIP3   OH210012   2.473   5.459   2.417
 3352TIP3    H110013   2.471   5.545   2.459
 3352TIP3    H210014   2.525   5.471   2.339
 3353TIP3   OH210015   0.833   5.801   2.273
 3353TIP3    H110016   0.824   5.891   2.303
 3353TIP3    H210017   0.920   5.797   2.234
 3354TIP3   OH210018   4.966   6.749   1.721
 3354TIP3    H110019   4.956   6.759   1.815
 3354TIP3    H210020   5.055   6.716   1.709
 3355TIP3   OH210021   5.924   0.765   5.520
 3355TIP3    H110022   5.939   0.715   5.439
 3355TIP3    H210023   5.982   0.723   5.584
 3356TIP3   OH210024   6.739   2.302   2.078
 3356TIP3    H110025   6.820   2.349   2.097
 3356TIP3    H210026   6.720   2.322   1.986
 3357TIP3   OH210027   3.943   5.606   6.738
 3357TIP3    H110028   3.892   5.653   6.804
 3357TIP3    H210029   4.028   5.592   6.780
 3358TIP3   OH210030   7.517   2.842   1.408
 3358TIP3    H110031   7.577   2.768   1.394
 3358TIP3    H210032   7.435   2.802   1.437
 3359TIP3   OH210033   0.382   5.001   5.254
 3359TIP3    H110034   0.318   4.985   5.324
 3359TIP3    H210035   0.427   5.081   5.281
 3360TIP3   OH210036   1.336   2.633   0.119
 3360TIP3    H110037   1.327   2.672   0.032
 3360TIP3    H210038   1.423   2.660   0.148
 3361TIP3   OH210039   0.054   0.237   2.116
 3361TIP3    H110040   0.014   0.179   2.180
 3361TIP3    H210041   0.123   0.185   2.075
 3362TIP3   OH210042   5.789   0.747   0.417
 3362TIP3    H110043   5.878   0.713   0.428
 3362TIP3    H210044   5.753   0.697   0.344
 3363TIP3   OH210045   0.289   4.498   2.530
 3363TIP3    H110046   0.241   4.558   2.589
 3363TIP3    H210047   0.222   4.467   2.469
 3364TIP3   OH210048   1.822   3.141   3.175
 3364TIP3    H110049   1.898   3.117   3.227
 3364TIP3    H210050   1.754   3.162   3.239
 3365TIP3   OH210051   3.229   0.313   4.845
 3365TIP3    H110052   3.291   0.368   4.797
 3365TIP3    H210053   3.182   0.266   4.776
 3366TIP3   OH210054   1.025   2.988   5.819
 3366TIP3    H110055   1.002   3.080   5.826
 3366TIP3    H210056   1.081   2.971   5.895
 3367TIP3   OH210057   8.262   4.225   5.859
 3367TIP3    H110058   8.293   4.309   5.891
 3367TIP3    H210059   8.172   4.219   5.892
 3368TIP3   OH210060   0.076   2.118   6.596
 3368TIP3    H110061   0.080   2.213   6.599
 3368TIP3    H210062   0.057   2.092   6.686
 3369TIP3   OH210063   0.334   4.852   2.470
 3369TIP3    H110064   0.286   4.812   2.543
 3369TIP3    H210065   0.278   4.925   2.442
 3370TIP3   OH210066   1.828   0.350   4.073
 3370TIP3    H110067   1.836   0.333   4.167
 3370TIP3    H210068   1.884   0.426   4.057
 3371TIP3   OH210069   1.040   4.365   4.394
 3371TIP3    H110070   0.955   4.399   4.366
 3371TIP3    H210071   1.031   4.270   4.391
 3372TIP3   OH210072   6.111   4.358   5.906
 3372TIP3    H110073   6.039   4.338   5.965
 3372TIP3    H210074   6.190   4.339   5.957
 3373TIP3   OH210075   4.885   0.775   0.189
 3373TIP3    H110076   4.800   0.782   0.232
 3373TIP3    H210077   4.869   0.718   0.114
 3374TIP3   OH210078   7.607   2.150   4.042
 3374TIP3    H110079   7.582   2.222   3.985
 3374TIP3    H210080   7.525   2.106   4.063
 3375TIP3   OH210081   4.725   0.850   5.596
 3375TIP3    H110082   4.778   0.909   5.543
 3375TIP3    H210083   4.649   0.830   5.542
 3376TIP3   OH210084   1.882   1.204   4.115
 3376TIP3    H110085   1.860   1.286   4.070
 3376TIP3    H210086   1.890   1.140   4.045
 3377TIP3   OH210087   6.430   4.010   3.478
 3377TIP3    H110088   6.435   3.968   3.564
 3377TIP3    H210089   6.353   3.972   3.436
 3378TIP3   OH210090   4.385   2.759   2.819
 3378TIP3    H110091   4.457   2.787   2.876
 3378TIP3    H210092   4.427   2.741   2.735
 3379TIP3   OH210093   4.100   1.922   2.911
 3379TIP3    H110094   4.141   1.949   2.829
 3379TIP3    H210095   4.077   2.004   2.954
 3380TIP3   OH210096   4.296   0.864   0.779
 3380TIP3    H110097   4.249   0.886   0.859
 3380TIP3    H210098   4.351   0.941   0.761
 3381TIP3   OH210099   1.714   7.683   4.471
 3381TIP3    H110100   1.745   7.769   4.441
 3381TIP3    H210101   1.684   7.698   4.561
 3382TIP3   OH210102   6.059   2.437   0.915
 3382TIP3    H110103   5.970   2.406   0.933
 3382TIP3    H210104   6.084   2.485   0.994
 3383TIP3   OH210105   6.176   0.731   0.792
 3383TIP3    H110106   6.160   0.637   0.779
 3383TIP3    H210107   6.259   0.747   0.748
 3384TIP3   OH210108   1.343   1.730   0.584
 3384TIP3    H110109   1.403   1.655   0.588
 3384TIP3    H210110   1.398   1.805   0.606
 3385TIP3   OH210111   4.736   3.995   0.290
 3385TIP3    H110112   4.712   3.909   0.255
 3385TIP3    H210113   4.829   4.004   0.271
 3386TIP3   OH210114   4.954   2.393   4.703
 3386TIP3    H110115   4.878   2.417   4.650
 3386TIP3    H210116   4.917   2.371   4.789
 3387TIP3   OH210117   2.470   7.780   3.823
 3387TIP3    H110118   2.429   7.697   3.845
 3387TIP3    H210119   2.402   7.828   3.775
 3388TIP3   OH210120   4.018   2.102   1.040
 3388TIP3    H110121   4.104   2.060   1.040
 3388TIP3    H210122   4.037   2.196   1.031
 3389TIP3   OH210123   1.839   4.482   4.467
 3389TIP3    H110124   1.775   4.424   4.510
 3389TIP3    H210125   1.790   4.520   4.394
 3390TIP3   OH210126   2.425   2.674   1.580
 3390TIP3    H110127   2.508   2.701   1.541
 3390TIP3    H210128   2.364   2.746   1.559
 3391TIP3   OH210129   4.857   5.102   3.009
 3391TIP3    H110130   4.911   5.057   3.074
 3391TIP3    H210131   4.917   5.118   2.936
 3392TIP3   OH210132   5.625   0.812   0.879
 3392TIP3    H110133   5.689   0.852   0.821
 3392TIP3    H210134   5.649   0.719   0.883
 3393TIP3   OH210135   6.212   3.160   0.168
 3393TIP3    H110136   6.213   3.255   0.157
 3393TIP3    H210137   6.282   3.128   0.111
 3394TIP3   OH210138   3.906   2.866   2.044
 3394TIP3    H110139   3.987   2.877   2.093
 3394TIP3    H210140   3.934   2.848   1.955
 3395TIP3   OH210141   3.942   6.286   1.662
 3395TIP3    H110142   3.963   6.232   1.739
 3395TIP3    H210143   3.851   6.312   1.676
 3396TIP3   OH210144   3.198   1.597   5.912
 3396TIP3    H110145   3.193   1.536   5.839
 3396TIP3    H210146   3.207   1.542   5.990
 3397TIP3   OH210147   2.689   6.218   2.051
 3397TIP3    H110148   2.646   6.267   2.122
 3397TIP3    H210149   2.734   6.285   1.999
 3398TIP3   OH210150   6.261   2.914   3.537
 3398TIP3    H110151   6.210   2.840   3.505
 3398TIP3    H210152   6.348   2.903   3.499
 3399TIP3   OH210153   6.694   5.522   0.073
 3399TIP3    H110154   6.788   5.509   0.063
 3399TIP3    H210155   6.672   5.589   0.009
 3400TIP3   OH210156   1.734   0.273   2.265
 3400TIP3    H110157   1.815   0.309   2.228
 3400TIP3    H210158   1.702   0.212   2.199
 3401TIP3   OH210159   3.882   2.540   1.131
 3401TIP3    H110160   3.832   2.498   1.061
 3401TIP3    H210161   3.950   2.476   1.153
 3402TIP3   OH210162   7.694   2.774   4.907
 3402TIP3    H110163   7.764   2.834   4.883
 3402TIP3    H210164   7.737   2.706   4.959
 3403TIP3   OH210165   6.153   6.073   3.529
 3403TIP3    H110166   6.152   6.168   3.535
 3403TIP3    H210167   6.098   6.043   3.602
 3404TIP3   OH210168   7.573   1.765   3.021
 3404TIP3    H110169   7.485   1.778   3.055
 3404TIP3    H210170   7.618   1.848   3.036
 3405TIP3   OH210171   5.878   0.442   0.414
 3405TIP3    H110172   5.922   0.522   0.386
 3405TIP3    H210173   5.918   0.421   0.498
 3406TIP3   OH210174   6.912   3.294   0.740
 3406TIP3    H110175   6.866   3.243   0.674
 3406TIP3    H210176   6.979   3.236   0.775
 3407TIP3   OH210177   2.026   3.529   6.318
 3407TIP3    H110178   2.021   3.496   6.408
 3407TIP3    H210179   2.002   3.621   6.324
 3408TIP3   OH210180   2.355   5.439   5.827
 3408TIP3    H110181   2.336   5.394   5.744
 3408TIP3    H210182   2.295   5.514   5.826
 3409TIP3   OH210183   7.205   0.547   4.519
 3409TIP3    H110184   7.157   0.629   4.513
 3409TIP3    H210185   7.280   0.559   4.461
 3410TIP3   OH210186   1.334   5.974   4.535
 3410TIP3    H110187   1.410   5.976   4.476
 3410TIP3    H210188   1.265   5.933   4.483
 3411TIP3   OH210189   0.471   5.951   2.136
 3411TIP3    H110190   0.383   5.915   2.139
 3411TIP3    H210191   0.524   5.882   2.096
 3412TIP3   OH210192   6.889   7.346   4.680
 3412TIP3    H110193   6.888   7.410   4.608
 3412TIP3    H210194   6.813   7.290   4.662
 3413TIP3   OH210195   8.148   3.412   2.163
 3413TIP3    H110196   8.068   3.419   2.215
 3413TIP3    H210197   8.218   3.442   2.221
 3414TIP3   OH210198   1.115   1.896   1.836
 3414TIP3    H110199   1.194   1.863   1.879
 3414TIP3    H210200   1.135   1.987   1.815
 3415TIP3   OH210201   1.865   3.284   2.203
 3415TIP3    H110202   1.946   3.280   2.152
 3415TIP3    H210203   1.821   3.363   2.172
 3416TIP3   OH210204   4.989   7.196   6.747
 3416TIP3    H110205   4.918   7.160   6.695
 3416TIP3    H210206   4.972   7.165   6.836
 3417TIP3   OH210207   6.386   1.460   5.063
 3417TIP3    H110208   6.382   1.422   4.975
 3417TIP3    H210209   6.383   1.385   5.122
 3418TIP3   OH210210   7.561   6.459   5.008
 3418TIP3    H110211   7.527   6.548   5.006
 3418TIP3    H210212   7.527   6.418   4.928
 3419TIP3   OH210213   6.986   3.576   1.882
 3419TIP3    H110214   6.986   3.550   1.790
 3419TIP3    H210215   7.044   3.652   1.886
 3420TIP3   OH210216   4.251   0.836   5.424
 3420TIP3    H110217   4.319   0.841   5.356
 3420TIP3    H210218   4.288   0.778   5.490
 3421TIP3   OH210219   4.674   0.953   1.446
 3421TIP3    H110220   4.682   0.981   1.355
 3421TIP3    H210221   4.589   0.909   1.450
 3422TIP3   OH210222   1.940   1.890   3.848
 3422TIP3    H110223   1.942   1.965   3.788
 3422TIP3    H210224   1.983   1.922   3.927
 3423TIP3   OH210225   0.376   4.557   4.022
 3423TIP3    H110226   0.443   4.601   3.970
 3423TIP3    H210227   0.295   4.568   3.971
 3424TIP3   OH210228   4.576   4.320   5.522
 3424TIP3    H110229   4.530   4.353   5.599
 3424TIP3    H210230   4.658   4.285   5.555
 3425TIP3   OH210231   7.325   6.133   1.148
 3425TIP3    H110232   7.401   6.168   1.194
 3425TIP3    H210233   7.312   6.192   1.075
 3426TIP3   OH210234   3.771   3.236   2.408
 3426TIP3    H110235   3.790   3.310   2.466
 3426TIP3    H210236   3.853   3.187   2.405
 3427TIP3   OH210237   4.058   2.397   3.926
 3427TIP3    H110238   4.133   2.389   3.866
 3427TIP3    H210239   4.009   2.316   3.914
 3428TIP3   OH210240   3.344   2.041   0.975
 3428TIP3    H110241   3.370   2.091   1.053
 3428TIP3    H210242   3.370   2.096   0.902
 3429TIP3   OH210243   4.691   0.020   4.061
 3429TIP3    H110244   4.704  -0.075   4.055
 3429TIP3    H210245   4.679   0.048   3.971
 3430TIP3   OH210246   3.097   3.515   0.794
 3430TIP3    H110247   3.072   3.561   0.714
 3430TIP3    H210248   3.023   3.457   0.812
 3431TIP3   OH210249   7.425   5.118   3.341
 3431TIP3    H110250   7.520   5.108   3.344
 3431TIP3    H210251   7.393   5.034   3.308
 3432TIP3   OH210252   6.903   3.341   6.042
 3432TIP3    H110253   6.982   3.291   6.067
 3432TIP3    H210254   6.853   3.348   6.123
 3433TIP3   OH210255   5.147   3.390   1.972
 3433TIP3    H110256   5.060   3.401   1.934
 3433TIP3    H210257   5.182   3.479   1.979
 3434TIP3   OH210258   3.944   4.612   1.762
 3434TIP3    H110259   3.926   4.702   1.736
 3434TIP3    H210260   3.858   4.572   1.772
 3435TIP3   OH210261   0.904   3.933   1.627
 3435TIP3    H110262   0.898   3.975   1.541
 3435TIP3    H210263   0.849   3.987   1.684
 3436TIP3   OH210264   2.069   0.537   0.786
 3436TIP3    H110265   2.070   0.633   0.786
 3436TIP3    H210266   1.977   0.514   0.803
 3437TIP3   OH210267   4.949   6.450   3.306
 3437TIP3    H110268   5.016   6.501   3.261
 3437TIP3    H210269   4.947   6.366   3.260
 3438TIP3   OH210270   0.461   1.845   0.022
 3438TIP3    H110271   0.467   1.751   0.005
 3438TIP3    H210272   0.542   1.866   0.069
 3439TIP3   OH210273   2.501   0.665   6.288
 3439TIP3    H110274   2.502   0.674   6.383
 3439TIP3    H210275   2.423   0.713   6.260
 3440TIP3   OH210276   6.818   1.695   0.108
 3440TIP3    H110277   6.841   1.626   0.171
 3440TIP3    H210278   6.746   1.657   0.058
 3441TIP3   OH210279   2.931   1.213   2.801
 3441TIP3    H110280   2.963   1.124   2.784
 3441TIP3    H210281   2.848   1.199   2.847
 3442TIP3   OH210282   0.633   2.292   1.310
 3442TIP3    H110283   0.687   2.286   1.389
 3442TIP3    H210284   0.653   2.211   1.262
 3443TIP3   OH210285   6.538   5.616   6.237
 3443TIP3    H110286   6.515   5.560   6.162
 3443TIP3    H210287   6.549   5.555   6.310
 3444TIP3   OH210288   0.758   3.619   4.029
 3444TIP3    H110289   0.685   3.677   4.051
 3444TIP3    H210290   0.832   3.679   4.016
 3445TIP3   OH210291   5.759   1.496   4.931
 3445TIP3    H110292   5.732   1.534   4.847
 3445TIP3    H210293   5.854   1.506   4.932
 3446TIP3   OH210294   1.788   5.001   4.861
 3446TIP3    H110295   1.784   4.989   4.956
 3446TIP3    H210296   1.727   5.072   4.843
 3447TIP3   OH210297   4.849   4.707   2.630
 3447TIP3    H110298   4.807   4.767   2.692
 3447TIP3    H210299   4.941   4.735   2.628
 3448TIP3   OH210300   6.973   0.615   1.677
 3448TIP3    H110301   7.030   0.615   1.754
 3448TIP3    H210302   7.032   0.609   1.603
 3449TIP3   OH210303   5.306   6.969   3.461
 3449TIP3    H110304   5.230   6.919   3.433
 3449TIP3    H210305   5.270   7.041   3.513
 3450TIP3   OH210306   4.061   1.046   0.930
 3450TIP3    H110307   4.010   1.112   0.977
 3450TIP3    H210308   4.046   1.065   0.837
 3451TIP3   OH210309   1.560   1.855   0.708
 3451TIP3    H110310   1.559   1.905   0.627
 3451TIP3    H210311   1.642   1.805   0.704
 3452TIP3   OH210312   5.293   6.452   1.915
 3452TIP3    H110313   5.242   6.377   1.885
 3452TIP3    H210314   5.379   6.416   1.936
 3453TIP3   OH210315   7.101   2.048   2.575
 3453TIP3    H110316   7.115   2.133   2.615
 3453TIP3    H210317   7.187   2.007   2.574
 3454TIP3   OH210318   7.132   5.632   0.363
 3454TIP3    H110319   7.099   5.632   0.453
 3454TIP3    H210320   7.078   5.698   0.318
 3455TIP3   OH210321   0.293   3.650   3.602
 3455TIP3    H110322   0.379   3.688   3.620
 3455TIP3    H210323   0.308   3.587   3.532
 3456TIP3   OH210324   1.897   7.694   1.269
 3456TIP3    H110325   1.832   7.743   1.319
 3456TIP3    H210326   1.867   7.603   1.274
 3457TIP3   OH210327   4.958   1.124   6.412
 3457TIP3    H110328   4.874   1.167   6.428
 3457TIP3    H210329   4.947   1.083   6.326
 3458TIP3   OH210330   7.095   7.008   1.319
 3458TIP3    H110331   7.162   7.041   1.260
 3458TIP3    H210332   7.037   6.956   1.264
 3459TIP3   OH210333   3.984   0.213   0.156
 3459TIP3    H110334   4.029   0.135   0.123
 3459TIP3    H210335   3.900   0.214   0.110
 3460TIP3   OH210336   4.986   0.624   5.223
 3460TIP3    H110337   4.979   0.629   5.318
 3460TIP3    H210338   5.008   0.533   5.205
 3461TIP3   OH210339   0.361   0.828   1.497
 3461TIP3    H110340   0.316   0.772   1.434
 3461TIP3    H210341   0.316   0.912   1.491
 3462TIP3   OH210342   7.679   7.434   1.949
 3462TIP3    H110343   7.674   7.512   1.893
 3462TIP3    H210344   7.602   7.382   1.924
 3463TIP3   OH210345   3.147   1.669   1.320
 3463TIP3    H110346   3.226   1.723   1.319
 3463TIP3    H210347   3.129   1.655   1.413
 3464TIP3   OH210348   3.222   3.354   4.287
 3464TIP3    H110349   3.177   3.270   4.278
 3464TIP3    H210350   3.303   3.333   4.333
 3465TIP3   OH210351   5.530   0.515   1.214
 3465TIP3    H110352   5.608   0.558   1.249
 3465TIP3    H210353   5.504   0.568   1.139
 3466TIP3   OH210354   7.457   2.887   6.711
 3466TIP3    H110355   7.437   2.817   6.774
 3466TIP3    H210356   7.446   2.967   6.761
 3467TIP3   OH210357   1.399   5.386   4.150
 3467TIP3    H110358   1.436   5.332   4.220
 3467TIP3    H210359   1.310   5.406   4.179
 3468TIP3   OH210360   6.340   7.240   4.585
 3468TIP3    H110361   6.267   7.275   4.534
 3468TIP3    H210362   6.354   7.152   4.550
 3469TIP3   OH210363   7.204   3.270   6.483
 3469TIP3    H110364   7.134   3.228   6.433
 3469TIP3    H210365   7.158   3.313   6.556
 3470TIP3   OH210366   0.223   3.452   3.805
 3470TIP3    H110367   0.209   3.546   3.804
 3470TIP3    H210368   0.136   3.414   3.793
 3471TIP3   OH210369   4.506   7.783   4.204
 3471TIP3    H110370   4.498   7.751   4.114
 3471TIP3    H210371   4.480   7.875   4.200
 3472TIP3   OH210372   7.355   4.348   0.191
 3472TIP3    H110373   7.374   4.442   0.194
 3472TIP3    H210374   7.400   4.317   0.113
 3473TIP3   OH210375   6.033   1.544   4.914
 3473TIP3    H110376   6.052   1.564   5.006
 3473TIP3    H210377   6.111   1.570   4.867
 3474TIP3   OH210378   5.176   1.034   5.316
 3474TIP3    H110379   5.269   1.021   5.296
 3474TIP3    H210380   5.134   0.953   5.290
 3475TIP3   OH210381   0.506   0.521   2.308
 3475TIP3    H110382   0.517   0.555   2.219
 3475TIP3    H210383   0.429   0.465   2.303
 3476TIP3   OH210384   2.510   1.306   0.384
 3476TIP3    H110385   2.424   1.325   0.424
 3476TIP3    H210386   2.499   1.219   0.345
 3477TIP3   OH210387   0.840   0.821   1.691
 3477TIP3    H110388   0.780   0.748   1.706
 3477TIP3    H210389   0.783   0.896   1.676
 3478TIP3   OH210390   7.214   2.805   2.806
 3478TIP3    H110391   7.211   2.714   2.835
 3478TIP3    H210392   7.139   2.846   2.849
 3479TIP3   OH210393   2.051   0.950   1.432
 3479TIP3    H110394   2.059   0.913   1.344
 3479TIP3    H210395   2.066   1.044   1.419
 3480TIP3   OH210396   2.788   1.112   5.231
 3480TIP3    H110397   2.696   1.131   5.213
 3480TIP3    H210398   2.817   1.059   5.157
 3481TIP3   OH210399   7.974   1.539   4.477
 3481TIP3    H110400   8.041   1.588   4.429
 3481TIP3    H210401   7.985   1.566   4.568
 3482TIP3   OH210402   1.401   5.443   3.418
 3482TIP3    H110403   1.370   5.489   3.496
 3482TIP3    H210404   1.495   5.435   3.430
 3483TIP3   OH210405   1.891   3.405   0.994
 3483TIP3    H110406   1.917   3.314   0.983
 3483TIP3    H210407   1.805   3.411   0.954
 3484TIP3   OH210408   5.254   3.802   6.513
 3484TIP3    H110409   5.164   3.812   6.543
 3484TIP3    H210410   5.287   3.726   6.560
 3485TIP3   OH210411   1.711   3.570   3.426
 3485TIP3    H110412   1.735   3.575   3.518
 3485TIP3    H210413   1.684   3.659   3.403
 3486TIP3   OH210414   3.961   6.521   2.960
 3486TIP3    H110415   3.980   6.560   2.874
 3486TIP3    H210416   3.889   6.574   2.995
 3487TIP3   OH210417   4.370   6.738   6.615
 3487TIP3    H110418   4.316   6.701   6.684
 3487TIP3    H210419   4.447   6.680   6.611
 3488TIP3   OH210420   0.694   1.241   3.974
 3488TIP3    H110421   0.780   1.233   4.016
 3488TIP3    H210422   0.631   1.240   4.046
 3489TIP3   OH210423   3.563   2.872   0.618
 3489TIP3    H110424   3.649   2.831   0.611
 3489TIP3    H210425   3.582   2.963   0.639
 3490TIP3   OH210426   2.125   3.027   3.548
 3490TIP3    H110427   2.045   3.067   3.514
 3490TIP3    H210428   2.159   3.091   3.610
 3491TIP3   OH210429   5.177   2.042   6.015
 3491TIP3    H110430   5.217   1.996   6.089
 3491TIP3    H210431   5.224   2.125   6.009
 3492TIP3   OH210432   4.741   5.047   5.806
 3492TIP3    H110433   4.832   5.076   5.795
 3492TIP3    H210434   4.723   4.996   5.727
 3493TIP3   OH210435   7.125   4.077   1.444
 3493TIP3    H110436   7.044   4.117   1.411
 3493TIP3    H210437   7.106   4.054   1.535
 3494TIP3   OH210438   7.191   5.671   3.374
 3494TIP3    H110439   7.177   5.694   3.466
 3494TIP3    H210440   7.270   5.617   3.374
 3495TIP3   OH210441   7.067   7.238   0.962
 3495TIP3    H110442   7.128   7.169   0.989
 3495TIP3    H210443   7.122   7.313   0.944
 3496TIP3   OH210444   0.906   1.480   3.385
 3496TIP3    H110445   0.875   1.452   3.299
 3496TIP3    H210446   0.838   1.450   3.446
 3497TIP3   OH210447   1.218   6.336   6.520
 3497TIP3    H110448   1.273   6.395   6.469
 3497TIP3    H210449   1.130   6.373   6.514
 3498TIP3   OH210450   1.593   1.032   4.540
 3498TIP3    H110451   1.648   0.975   4.593
 3498TIP3    H210452   1.608   1.120   4.576
 3499TIP3   OH210453   6.617   4.505   1.515
 3499TIP3    H110454   6.661   4.444   1.574
 3499TIP3    H210455   6.637   4.473   1.427
 3500TIP3   OH210456   4.315   0.071   6.025
 3500TIP3    H110457   4.230   0.111   6.005
 3500TIP3    H210458   4.328   0.007   5.955
 3501TIP3   OH210459   4.870   2.328   5.350
 3501TIP3    H110460   4.871   2.263   5.280
 3501TIP3    H210461   4.844   2.279   5.428
 3502TIP3   OH210462   4.171   2.927   6.135
 3502TIP3    H110463   4.115   3.001   6.111
 3502TIP3    H210464   4.253   2.943   6.087
 3503TIP3   OH210465   0.176   4.984   3.428
 3503TIP3    H110466   0.200   5.076   3.427
 3503TIP3    H210467   0.201   4.954   3.516
 3504TIP3   OH210468   1.458   4.831   5.752
 3504TIP3    H110469   1.392   4.789   5.697
 3504TIP3    H210470   1.408   4.874   5.821
 3505TIP3   OH210471   2.111   1.297   3.986
 3505TIP3    H110472   2.186   1.239   4.005
 3505TIP3    H210473   2.042   1.237   3.958
 3506TIP3   OH210474   1.306   6.654   0.603
 3506TIP3    H110475   1.368   6.725   0.622
 3506TIP3    H210476   1.256   6.644   0.683
 3507TIP3   OH210477   2.277   2.898   3.255
 3507TIP3    H110478   2.216   2.939   3.193
 3507TIP3    H210479   2.317   2.972   3.301
 3508TIP3   OH210480   1.491   2.212   4.736
 3508TIP3    H110481   1.579   2.196   4.701
 3508TIP3    H210482   1.506   2.258   4.818
 3509TIP3   OH210483   5.427   3.604   6.596
 3509TIP3    H110484   5.448   3.544   6.668
 3509TIP3    H210485   5.456   3.690   6.627
 3510TIP3   OH210486   3.399   6.535   6.265
 3510TIP3    H110487   3.312   6.498   6.244
 3510TIP3    H210488   3.405   6.530   6.360
 3511TIP3   OH210489   3.522   0.775   2.323
 3511TIP3    H110490   3.434   0.739   2.319
 3511TIP3    H210491   3.528   0.834   2.248
 3512TIP3   OH210492   7.318   6.484   6.046
 3512TIP3    H110493   7.360   6.455   5.965
 3512TIP3    H210494   7.310   6.579   6.036
 3513TIP3   OH210495   6.704   0.923   3.867
 3513TIP3    H110496   6.697   0.962   3.954
 3513TIP3    H210497   6.748   0.840   3.882
 3514TIP3   OH210498   7.979   7.616   0.375
 3514TIP3    H110499   7.889   7.643   0.389
 3514TIP3    H210500   7.985   7.529   0.416
 3515TIP3   OH210501   1.457   6.436   0.979
 3515TIP3    H110502   1.481   6.529   0.982
 3515TIP3    H210503   1.372   6.431   1.022
 3516TIP3   OH210504   0.647   3.923   5.418
 3516TIP3    H110505   0.653   4.008   5.376
 3516TIP3    H210506   0.710   3.927   5.489
 3517TIP3   OH210507   5.305   6.217   2.113
 3517TIP3    H110508   5.297   6.136   2.163
 3517TIP3    H210509   5.284   6.191   2.023
 3518TIP3   OH210510   4.419   4.644   6.465
 3518TIP3    H110511   4.372   4.720   6.499
 3518TIP3    H210512   4.362   4.570   6.483
 3519TIP3   OH210513   2.247   0.066   1.231
 3519TIP3    H110514   2.263  -0.028   1.218
 3519TIP3    H210515   2.152   0.074   1.236
 3520TIP3   OH210516   4.163   1.118   3.813
 3520TIP3    H110517   4.086   1.071   3.781
 3520TIP3    H210518   4.167   1.198   3.760
 3521TIP3   OH210519   2.394   5.232   0.507
 3521TIP3    H110520   2.486   5.251   0.493
 3521TIP3    H210521   2.379   5.151   0.458
 3522TIP3   OH210522   0.913   5.331   3.691
 3522TIP3    H110523   0.827   5.332   3.734
 3522TIP3    H210524   0.909   5.403   3.628
 3523TIP3   OH210525   6.740   1.178   2.289
 3523TIP3    H110526   6.671   1.191   2.354
 3523TIP3    H210527   6.814   1.145   2.339
 3524TIP3   OH210528   6.802   7.284   4.307
 3524TIP3    H110529   6.814   7.192   4.332
 3524TIP3    H210530   6.791   7.282   4.212
 3525TIP3   OH210531   0.813   4.510   0.706
 3525TIP3    H110532   0.760   4.563   0.765
 3525TIP3    H210533   0.902   4.518   0.741
 3526TIP3   OH210534   5.948   7.544   5.344
 3526TIP3    H110535   5.999   7.528   5.423
 3526TIP3    H210536   5.915   7.633   5.354
 3527TIP3   OH210537   2.895   2.325   0.313
 3527TIP3    H110538   2.938   2.319   0.399
 3527TIP3    H210539   2.967   2.337   0.251
 3528TIP3   OH210540   5.642   2.331   0.856
 3528TIP3    H110541   5.606   2.396   0.797
 3528TIP3    H210542   5.585   2.255   0.847
 3529TIP3   OH210543   8.035   0.031   5.909
 3529TIP3    H110544   8.085   0.090   5.852
 3529TIP3    H210545   8.100  -0.007   5.967
 3530TIP3   OH210546   0.205   7.840   5.115
 3530TIP3    H110547   0.176   7.749   5.113
 3530TIP3    H210548   0.259   7.849   5.036
 3531TIP3   OH210549   7.046   3.752   2.841
 3531TIP3    H110550   7.109   3.762   2.769
 3531TIP3    H210551   7.021   3.841   2.864
 3532TIP3   OH210552   3.206   6.222   5.787
 3532TIP3    H110553   3.209   6.257   5.698
 3532TIP3    H210554   3.125   6.257   5.824
 3533TIP3   OH210555   4.031   5.199   4.565
 3533TIP3    H110556   4.074   5.145   4.632
 3533TIP3    H210557   3.980   5.136   4.514
 3534TIP3   OH210558   5.430   5.595   1.455
 3534TIP3    H110559   5.368   5.667   1.466
 3534TIP3    H210560   5.511   5.638   1.427
 3535TIP3   OH210561   5.929   2.504   0.681
 3535TIP3    H110562   5.987   2.501   0.757
 3535TIP3    H210563   5.976   2.557   0.617
 3536TIP3   OH210564   2.555   5.702   0.560
 3536TIP3    H110565   2.521   5.626   0.606
 3536TIP3    H210566   2.521   5.778   0.608
 3537TIP3   OH210567   1.511   4.960   5.467
 3537TIP3    H110568   1.475   4.891   5.411
 3537TIP3    H210569   1.556   4.913   5.538
 3538TIP3   OH210570   5.085   2.511   2.574
 3538TIP3    H110571   5.135   2.437   2.609
 3538TIP3    H210572   5.022   2.533   2.643
 3539TIP3   OH210573   0.312   6.626   6.534
 3539TIP3    H110574   0.326   6.565   6.606
 3539TIP3    H210575   0.220   6.652   6.541
 3540TIP3   OH210576   5.514   2.254   5.006
 3540TIP3    H110577   5.455   2.329   5.007
 3540TIP3    H210578   5.597   2.289   4.976
 3541TIP3   OH210579   6.453   1.961   0.291
 3541TIP3    H110580   6.457   1.868   0.270
 3541TIP3    H210581   6.505   1.971   0.370
 3542TIP3   OH210582   7.837   2.764   1.673
 3542TIP3    H110583   7.882   2.807   1.746
 3542TIP3    H210584   7.800   2.684   1.711
 3543TIP3   OH210585   0.162   5.917   5.607
 3543TIP3    H110586   0.136   5.825   5.615
 3543TIP3    H210587   0.251   5.919   5.644
 3544TIP3   OH210588   3.095   7.853   1.257
 3544TIP3    H110589   3.181   7.814   1.277
 3544TIP3    H210590   3.075   7.905   1.335
 3545TIP3   OH210591   7.857   4.594   0.560
 3545TIP3    H110592   7.846   4.672   0.506
 3545TIP3    H210593   7.867   4.629   0.649
 3546TIP3   OH210594   5.899   4.743   6.370
 3546TIP3    H110595   5.833   4.675   6.384
 3546TIP3    H210596   5.850   4.825   6.371
 3547TIP3   OH210597   5.953   6.844   0.658
 3547TIP3    H110598   5.867   6.855   0.617
 3547TIP3    H210599   5.935   6.794   0.738
 3548TIP3   OH210600   4.357   6.792   1.788
 3548TIP3    H110601   4.410   6.792   1.868
 3548TIP3    H210602   4.268   6.775   1.819
 3549TIP3   OH210603   0.757   4.752   6.789
 3549TIP3    H110604   0.830   4.690   6.785
 3549TIP3    H210605   0.794   4.830   6.830
 3550TIP3   OH210606   7.151   0.017   4.520
 3550TIP3    H110607   7.176   0.097   4.565
 3550TIP3    H210608   7.216   0.008   4.450
 3551TIP3   OH210609   2.707   7.493   2.002
 3551TIP3    H110610   2.636   7.494   1.938
 3551TIP3    H210611   2.745   7.405   1.995
 3552TIP3   OH210612   7.430   1.137   2.204
 3552TIP3    H110613   7.503   1.156   2.264
 3552TIP3    H210614   7.439   1.202   2.134
 3553TIP3   OH210615   6.195   5.164   5.588
 3553TIP3    H110616   6.196   5.237   5.650
 3553TIP3    H210617   6.109   5.125   5.597
 3554TIP3   OH210618   6.987   7.665   3.498
 3554TIP3    H110619   6.997   7.756   3.526
 3554TIP3    H210620   6.950   7.620   3.575
 3555TIP3   OH210621   3.646   3.291   0.489
 3555TIP3    H110622   3.676   3.257   0.573
 3555TIP3    H210623   3.603   3.374   0.510
 3556TIP3   OH210624   6.452   7.070   4.389
 3556TIP3    H110625   6.539   7.031   4.377
 3556TIP3    H210626   6.429   7.104   4.302
 3557TIP3   OH210627   7.337   2.885   5.884
 3557TIP3    H110628   7.387   2.804   5.893
 3557TIP3    H210629   7.384   2.949   5.939
 3558TIP3   OH210630   8.055   2.292   3.416
 3558TIP3    H110631   8.122   2.354   3.442
 3558TIP3    H210632   7.973   2.329   3.449
 3559TIP3   OH210633   5.511   3.073   0.444
 3559TIP3    H110634   5.606   3.070   0.428
 3559TIP3    H210635   5.473   3.079   0.357
 3560TIP3   OH210636   2.664   1.584   1.796
 3560TIP3    H110637   2.710   1.615   1.718
 3560TIP3    H210638   2.724   1.601   1.869
 3561TIP3   OH210639   3.248   7.473   5.202
 3561TIP3    H110640   3.232   7.544   5.140
 3561TIP3    H210641   3.310   7.511   5.265
 3562TIP3   OH210642   6.949   6.275   4.722
 3562TIP3    H110643   7.014   6.319   4.666
 3562TIP3    H210644   6.873   6.264   4.665
 3563TIP3   OH210645   1.871   7.204   1.612
 3563TIP3    H110646   1.853   7.298   1.605
 3563TIP3    H210647   1.786   7.165   1.631
 3564TIP3   OH210648   4.376   6.979   1.310
 3564TIP3    H110649   4.452   6.964   1.253
 3564TIP3    H210650   4.406   6.954   1.397
 3565TIP3   OH210651   3.670   2.681   3.302
 3565TIP3    H110652   3.577   2.672   3.325
 3565TIP3    H210653   3.698   2.760   3.349
 3566TIP3   OH210654   5.639   7.292   4.223
 3566TIP3    H110655   5.591   7.232   4.281
 3566TIP3    H210656   5.573   7.323   4.161
 3567TIP3   OH210657   7.447   6.827   1.125
 3567TIP3    H110658   7.412   6.821   1.214
 3567TIP3    H210659   7.370   6.822   1.069
 3568TIP3   OH210660   6.797   2.364   0.302
 3568TIP3    H110661   6.818   2.386   0.392
 3568TIP3    H210662   6.701   2.373   0.296
 3569TIP3   OH210663   5.857   1.471   1.960
 3569TIP3    H110664   5.814   1.438   2.039
 3569TIP3    H210665   5.814   1.555   1.943
 3570TIP3   OH210666   3.595   1.713   5.105
 3570TIP3    H110667   3.549   1.658   5.042
 3570TIP3    H210668   3.528   1.773   5.138
 3571TIP3   OH210669   2.875   7.831   4.982
 3571TIP3    H110670   2.842   7.745   5.008
 3571TIP3    H210671   2.872   7.829   4.886
 3572TIP3   OH210672   0.019   0.190   3.276
 3572TIP3    H110673   0.054   0.138   3.349
 3572TIP3    H210674   0.096   0.221   3.229
 3573TIP3   OH210675   7.440   3.761   1.031
 3573TIP3    H110676   7.491   3.681   1.022
 3573TIP3    H210677   7.363   3.748   0.976
 3574TIP3   OH210678   4.985   2.149   1.508
 3574TIP3    H110679   4.917   2.084   1.522
 3574TIP3    H210680   5.056   2.100   1.467
 3575TIP3   OH210681   1.359   5.666   4.729
 3575TIP3    H110682   1.339   5.607   4.802
 3575TIP3    H210683   1.275   5.707   4.708
 3576TIP3   OH210684   5.298   2.269   1.843
 3576TIP3    H110685   5.325   2.350   1.800
 3576TIP3    H210686   5.354   2.263   1.921
 3577TIP3   OH210687   2.623   1.773   1.413
 3577TIP3    H110688   2.550   1.826   1.445
 3577TIP3    H210689   2.661   1.825   1.342
 3578TIP3   OH210690   4.490   7.223   6.130
 3578TIP3    H110691   4.463   7.146   6.180
 3578TIP3    H210692   4.491   7.193   6.039
 3579TIP3   OH210693   0.954   4.805   2.060
 3579TIP3    H110694   0.943   4.863   2.135
 3579TIP3    H210695   0.893   4.733   2.075
 3580TIP3   OH210696   4.292   2.581   2.443
 3580TIP3    H110697   4.250   2.511   2.392
 3580TIP3    H210698   4.220   2.624   2.489
 3581TIP3   OH210699   0.102   2.130   2.995
 3581TIP3    H110700   0.134   2.052   3.041
 3581TIP3    H210701   0.015   2.104   2.963
 3582TIP3   OH210702   6.284   5.811   2.381
 3582TIP3    H110703   6.249   5.835   2.296
 3582TIP3    H210704   6.229   5.738   2.410
 3583TIP3   OH210705   7.906   5.618   6.446
 3583TIP3    H110706   7.958   5.540   6.423
 3583TIP3    H210707   7.871   5.648   6.362
 3584TIP3   OH210708   2.497   6.847   5.037
 3584TIP3    H110709   2.550   6.778   4.998
 3584TIP3    H210710   2.460   6.806   5.116
 3585TIP3   OH210711   6.306   0.079   5.022
 3585TIP3    H110712   6.378   0.140   5.035
 3585TIP3    H210713   6.342   0.010   4.966
 3586TIP3   OH210714   7.665   2.817   5.679
 3586TIP3    H110715   7.728   2.860   5.622
 3586TIP3    H210716   7.651   2.879   5.751
 3587TIP3   OH210717   0.196   5.612   2.989
 3587TIP3    H110718   0.203   5.701   3.024
 3587TIP3    H210719   0.257   5.610   2.915
 3588TIP3   OH210720   5.400   2.492   2.215
 3588TIP3    H110721   5.444   2.499   2.299
 3588TIP3    H210722   5.322   2.439   2.232
 3589TIP3   OH210723   2.260   1.319   2.909
 3589TIP3    H110724   2.169   1.347   2.910
 3589TIP3    H210725   2.310   1.398   2.887
 3590TIP3   OH210726   7.714   1.556   3.127
 3590TIP3    H110727   7.655   1.621   3.089
 3590TIP3    H210728   7.675   1.535   3.211
 3591TIP3   OH210729   2.982   3.664   0.619
 3591TIP3    H110730   2.901   3.661   0.569
 3591TIP3    H210731   3.038   3.725   0.571
 3592TIP3   OH210732   5.356   3.986   0.571
 3592TIP3    H110733   5.352   3.919   0.639
 3592TIP3    H210734   5.411   3.947   0.502
 3593TIP3   OH210735   2.004   3.749   4.050
 3593TIP3    H110736   2.099   3.754   4.039
 3593TIP3    H210737   1.986   3.656   4.061
 3594TIP3   OH210738   6.468   4.530   2.067
 3594TIP3    H110739   6.434   4.546   1.979
 3594TIP3    H210740   6.526   4.604   2.085
 3595TIP3   OH210741   4.283   2.103   6.412
 3595TIP3    H110742   4.268   2.151   6.330
 3595TIP3    H210743   4.289   2.011   6.385
 3596TIP3   OH210744   7.305   2.731   5.587
 3596TIP3    H110745   7.338   2.747   5.676
 3596TIP3    H210746   7.214   2.761   5.589
 3597TIP3   OH210747   3.238   3.109   4.842
 3597TIP3    H110748   3.188   3.092   4.922
 3597TIP3    H210749   3.320   3.148   4.872
 3598TIP3   OH210750   6.712   5.076   5.599
 3598TIP3    H110751   6.625   5.113   5.586
 3598TIP3    H210752   6.733   5.034   5.515
 3599TIP3   OH210753   5.927   5.312   6.628
 3599TIP3    H110754   5.891   5.316   6.717
 3599TIP3    H210755   5.869   5.251   6.581
 3600TIP3   OH210756   5.962   0.855   3.586
 3600TIP3    H110757   5.928   0.935   3.626
 3600TIP3    H210758   6.057   0.859   3.599
 3601TIP3   OH210759   0.674   4.190   3.253
 3601TIP3    H110760   0.624   4.244   3.315
 3601TIP3    H210761   0.766   4.206   3.275
 3602TIP3   OH210762   5.213   2.771   6.221
 3602TIP3    H110763   5.188   2.713   6.292
 3602TIP3    H210764   5.285   2.823   6.256
 3603TIP3   OH210765   7.364   2.053   3.762
 3603TIP3    H110766   7.329   1.992   3.697
 3603TIP3    H210767   7.459   2.044   3.755
 3604TIP3   OH210768   5.569   1.541   6.613
 3604TIP3    H110769   5.514   1.468   6.642
 3604TIP3    H210770   5.648   1.533   6.665
 3605TIP3   OH210771   5.315   6.365   4.366
 3605TIP3    H110772   5.231   6.330   4.394
 3605TIP3    H210773   5.328   6.330   4.278
 3606TIP3   OH210774   2.674   1.194   2.904
 3606TIP3    H110775   2.614   1.229   2.970
 3606TIP3    H210776   2.628   1.205   2.821
 3607TIP3   OH210777   5.637   1.276   3.313
 3607TIP3    H110778   5.691   1.198   3.320
 3607TIP3    H210779   5.565   1.260   3.373
 3608TIP3   OH210780   4.434   6.257   4.974
 3608TIP3    H110781   4.343   6.247   4.948
 3608TIP3    H210782   4.434   6.330   5.035
 3609TIP3   OH210783   1.227   6.560   5.727
 3609TIP3    H110784   1.273   6.570   5.644
 3609TIP3    H210785   1.137   6.539   5.703
 3610TIP3   OH210786   8.168   6.586   2.712
 3610TIP3    H110787   8.203   6.566   2.625
 3610TIP3    H210788   8.124   6.670   2.701
 3611TIP3   OH210789   1.638   6.346   4.868
 3611TIP3    H110790   1.606   6.391   4.946
 3611TIP3    H210791   1.711   6.293   4.899
 3612TIP3   OH210792   7.346   2.639   1.860
 3612TIP3    H110793   7.411   2.699   1.897
 3612TIP3    H210794   7.269   2.694   1.842
 3613TIP3   OH210795   4.379   4.395   1.274
 3613TIP3    H110796   4.371   4.471   1.332
 3613TIP3    H210797   4.472   4.392   1.252
 3614TIP3   OH210798   0.892   5.601   0.610
 3614TIP3    H110799   0.804   5.583   0.643
 3614TIP3    H210800   0.943   5.622   0.688
 3615TIP3   OH210801   0.522   0.851   3.547
 3615TIP3    H110802   0.572   0.885   3.621
 3615TIP3    H210803   0.502   0.929   3.494
 3616TIP3   OH210804   1.072   1.587   2.399
 3616TIP3    H110805   1.046   1.675   2.428
 3616TIP3    H210806   1.155   1.600   2.353
 3617TIP3   OH210807   6.679   2.395   3.128
 3617TIP3    H110808   6.629   2.424   3.052
 3617TIP3    H210809   6.739   2.329   3.093
 3618TIP3   OH210810   4.073   1.812   6.493
 3618TIP3    H110811   4.154   1.819   6.443
 3618TIP3    H210812   4.099   1.772   6.575
 3619TIP3   OH210813   2.818   2.004   2.362
 3619TIP3    H110814   2.726   2.009   2.386
 3619TIP3    H210815   2.861   2.069   2.418
 3620TIP3   OH210816   8.062   2.153   5.368
 3620TIP3    H110817   8.142   2.177   5.320
 3620TIP3    H210818   8.052   2.222   5.434
 3621TIP3   OH210819   7.089   3.163   0.440
 3621TIP3    H110820   7.038   3.242   0.425
 3621TIP3    H210821   7.146   3.184   0.513
 3622TIP3   OH210822   1.157   4.649   6.631
 3622TIP3    H110823   1.190   4.563   6.605
 3622TIP3    H210824   1.081   4.631   6.685
 3623TIP3   OH210825   4.598   1.516   0.774
 3623TIP3    H110826   4.675   1.481   0.729
 3623TIP3    H210827   4.583   1.455   0.846
 3624TIP3   OH210828   3.448   4.122   3.653
 3624TIP3    H110829   3.357   4.100   3.634
 3624TIP3    H210830   3.472   4.063   3.725
 3625TIP3   OH210831   5.360   4.549   3.810
 3625TIP3    H110832   5.431   4.491   3.839
 3625TIP3    H210833   5.299   4.551   3.884
 3626TIP3   OH210834   7.279   6.267   1.849
 3626TIP3    H110835   7.191   6.248   1.882
 3626TIP3    H210836   7.303   6.349   1.893
 3627TIP3   OH210837   2.940   6.825   0.267
 3627TIP3    H110838   2.991   6.745   0.283
 3627TIP3    H210839   2.862   6.795   0.221
 3628TIP3   OH210840   4.280   4.373   0.680
 3628TIP3    H110841   4.279   4.311   0.607
 3628TIP3    H210842   4.204   4.428   0.666
 3629TIP3   OH210843   4.253   5.800   0.578
 3629TIP3    H110844   4.347   5.783   0.575
 3629TIP3    H210845   4.221   5.745   0.649
 3630TIP3   OH210846   1.571   6.799   4.221
 3630TIP3    H110847   1.590   6.893   4.217
 3630TIP3    H210848   1.539   6.777   4.133
 3631TIP3   OH210849   4.400   5.991   5.676
 3631TIP3    H110850   4.481   5.990   5.625
 3631TIP3    H210851   4.348   5.920   5.639
 3632TIP3   OH210852   4.802   6.193   0.238
 3632TIP3    H110853   4.742   6.202   0.312
 3632TIP3    H210854   4.745   6.193   0.161
 3633TIP3   OH210855   4.696   6.178   2.191
 3633TIP3    H110856   4.680   6.248   2.255
 3633TIP3    H210857   4.630   6.112   2.211
 3634TIP3   OH210858   1.023   7.558   0.949
 3634TIP3    H110859   0.981   7.641   0.973
 3634TIP3    H210860   1.094   7.548   1.012
 3635TIP3   OH210861   3.019   1.208   5.352
 3635TIP3    H110862   3.045   1.153   5.426
 3635TIP3    H210863   2.948   1.159   5.310
 3636TIP3   OH210864   5.630   0.859   5.221
 3636TIP3    H110865   5.662   0.854   5.131
 3636TIP3    H210866   5.578   0.780   5.232
 3637TIP3   OH210867   5.322   7.332   1.895
 3637TIP3    H110868   5.392   7.267   1.903
 3637TIP3    H210869   5.278   7.310   1.813
 3638TIP3   OH210870   1.788   4.604   5.735
 3638TIP3    H110871   1.735   4.525   5.746
 3638TIP3    H210872   1.750   4.647   5.659
 3639TIP3   OH210873   4.032   1.736   3.896
 3639TIP3    H110874   4.107   1.730   3.954
 3639TIP3    H210875   4.069   1.759   3.811
 3640TIP3   OH210876   5.943   5.175   4.574
 3640TIP3    H110877   5.982   5.124   4.645
 3640TIP3    H210878   5.955   5.266   4.600
 3641TIP3   OH210879   1.608   3.728   5.815
 3641TIP3    H110880   1.702   3.724   5.802
 3641TIP3    H210881   1.582   3.814   5.780
 3642TIP3   OH210882   3.716   0.944   6.474
 3642TIP3    H110883   3.686   0.902   6.393
 3642TIP3    H210884   3.790   0.889   6.503
 3643TIP3   OH210885   0.452   5.678   5.445
 3643TIP3    H110886   0.368   5.633   5.439
 3643TIP3    H210887   0.517   5.608   5.441
 3644TIP3   OH210888   2.468   3.352   0.674
 3644TIP3    H110889   2.449   3.423   0.612
 3644TIP3    H210890   2.545   3.309   0.638
 3645TIP3   OH210891   3.414   4.502   2.308
 3645TIP3    H110892   3.424   4.587   2.266
 3645TIP3    H210893   3.474   4.444   2.261
 3646TIP3   OH210894   1.715   5.663   1.779
 3646TIP3    H110895   1.709   5.669   1.683
 3646TIP3    H210896   1.642   5.716   1.811
 3647TIP3   OH210897   7.193   6.467   2.331
 3647TIP3    H110898   7.275   6.493   2.288
 3647TIP3    H210899   7.148   6.413   2.266
 3648TIP3   OH210900   6.777   5.853   3.459
 3648TIP3    H110901   6.835   5.929   3.456
 3648TIP3    H210902   6.727   5.864   3.540
 3649TIP3   OH210903   6.416   3.843   3.719
 3649TIP3    H110904   6.359   3.872   3.789
 3649TIP3    H210905   6.505   3.863   3.750
 3650TIP3   OH210906   2.962   6.039   3.077
 3650TIP3    H110907   2.960   5.947   3.049
 3650TIP3    H210908   3.026   6.080   3.020
 3651TIP3   OH210909   0.557   2.389   0.158
 3651TIP3    H110910   0.512   2.388   0.243
 3651TIP3    H210911   0.636   2.441   0.173
 3652TIP3   OH210912   2.209   3.589   4.342
 3652TIP3    H110913   2.214   3.651   4.270
 3652TIP3    H210914   2.144   3.626   4.402
 3653TIP3   OH210915   7.149   0.290   4.617
 3653TIP3    H110916   7.166   0.296   4.710
 3653TIP3    H210917   7.168   0.378   4.583
 3654TIP3   OH210918   1.850   4.856   1.878
 3654TIP3    H110919   1.837   4.890   1.789
 3654TIP3    H210920   1.945   4.860   1.891
 3655TIP3   OH210921   4.517   3.788   0.558
 3655TIP3    H110922   4.433   3.834   0.549
 3655TIP3    H210923   4.516   3.724   0.487
 3656TIP3   OH210924   3.875   4.686   6.515
 3656TIP3    H110925   3.915   4.677   6.428
 3656TIP3    H210926   3.793   4.638   6.509
 3657TIP3   OH210927   7.788   6.410   0.375
 3657TIP3    H110928   7.731   6.343   0.413
 3657TIP3    H210929   7.846   6.361   0.316
 3658TIP3   OH210930   4.393   2.231   0.227
 3658TIP3    H110931   4.415   2.248   0.318
 3658TIP3    H210932   4.450   2.288   0.177
 3659TIP3   OH210933   7.026   7.106   5.038
 3659TIP3    H110934   7.037   7.071   4.950
 3659TIP3    H210935   7.035   7.030   5.095
 3660TIP3   OH210936   0.812   7.350   1.531
 3660TIP3    H110937   0.741   7.337   1.593
 3660TIP3    H210938   0.780   7.313   1.449
 3661TIP3   OH210939   6.907   6.205   1.398
 3661TIP3    H110940   6.860   6.220   1.316
 3661TIP3    H210941   6.990   6.165   1.371
 3662TIP3   OH210942   7.490   5.608   6.592
 3662TIP3    H110943   7.545   5.662   6.649
 3662TIP3    H210944   7.538   5.526   6.581
 3663TIP3   OH210945   7.463   0.496   2.368
 3663TIP3    H110946   7.433   0.565   2.426
 3663TIP3    H210947   7.435   0.415   2.411
 3664TIP3   OH210948   1.630   3.722   0.638
 3664TIP3    H110949   1.555   3.734   0.696
 3664TIP3    H210950   1.707   3.730   0.695
 3665TIP3   OH210951   6.118   3.383   0.053
 3665TIP3    H110952   6.135   3.327  -0.022
 3665TIP3    H210953   6.174   3.460   0.039
 3666TIP3   OH210954   1.881   7.771   0.842
 3666TIP3    H110955   1.948   7.719   0.886
 3666TIP3    H210956   1.923   7.856   0.828
 3667TIP3   OH210957   5.302   4.336   5.232
 3667TIP3    H110958   5.309   4.416   5.180
 3667TIP3    H210959   5.294   4.366   5.322
 3668TIP3   OH210960   2.158   6.160   4.797
 3668TIP3    H110961   2.202   6.182   4.715
 3668TIP3    H210962   2.103   6.085   4.776
 3669TIP3   OH210963   0.992   6.092   2.719
 3669TIP3    H110964   1.051   6.051   2.655
 3669TIP3    H210965   1.020   6.184   2.721
 3670TIP3   OH210966   3.233   3.902   6.135
 3670TIP3    H110967   3.168   3.907   6.204
 3670TIP3    H210968   3.308   3.952   6.168
 3671TIP3   OH210969   0.462   5.759   1.577
 3671TIP3    H110970   0.372   5.769   1.546
 3671TIP3    H210971   0.501   5.694   1.518
 3672TIP3   OH210972   1.733   3.521   4.624
 3672TIP3    H110973   1.712   3.548   4.534
 3672TIP3    H210974   1.746   3.604   4.670
 3673TIP3   OH210975   5.089   4.910   5.944
 3673TIP3    H110976   4.999   4.887   5.922
 3673TIP3    H210977   5.141   4.834   5.918
 3674TIP3   OH210978   6.888   1.302   5.134
 3674TIP3    H110979   6.801   1.316   5.172
 3674TIP3    H210980   6.880   1.218   5.089
 3675TIP3   OH210981   3.569   0.311   0.271
 3675TIP3    H110982   3.523   0.395   0.280
 3675TIP3    H210983   3.634   0.327   0.203
 3676TIP3   OH210984   0.039   2.126   1.802
 3676TIP3    H110985   0.046   2.221   1.792
 3676TIP3    H210986  -0.029   2.101   1.740
 3677TIP3   OH210987   4.524   6.060   5.900
 3677TIP3    H110988   4.467   6.059   5.823
 3677TIP3    H210989   4.610   6.036   5.867
 3678TIP3   OH210990   2.360   2.111   6.024
 3678TIP3    H110991   2.303   2.083   6.096
 3678TIP3    H210992   2.301   2.147   5.959
 3679TIP3   OH210993   5.486   0.031   6.454
 3679TIP3    H110994   5.403   0.002   6.416
 3679TIP3    H210995   5.550   0.018   6.383
 3680TIP3   OH210996   0.614   3.792   3.361
 3680TIP3    H110997   0.598   3.801   3.455
 3680TIP3    H210998   0.697   3.837   3.347
 3681TIP3   OH210999   7.263   5.835   5.479
 3681TIP3    H111000   7.216   5.904   5.526
 3681TIP3    H211001   7.289   5.877   5.397
 3682TIP3   OH211002   4.208   7.516   3.234
 3682TIP3    H111003   4.114   7.500   3.235
 3682TIP3    H211004   4.237   7.483   3.149
 3683TIP3   OH211005   7.373   1.654   1.797
 3683TIP3    H111006   7.415   1.641   1.712
 3683TIP3    H211007   7.444   1.650   1.860
 3684TIP3   OH211008   0.968   6.179   4.930
 3684TIP3    H111009   0.898   6.117   4.909
 3684TIP3    H211010   0.948   6.208   5.020
 3685TIP3   OH211011   0.978   3.646   6.067
 3685TIP3    H111012   0.956   3.688   6.151
 3685TIP3    H211013   0.911   3.579   6.056
 3686TIP3   OH211014   3.931   6.311   2.584
 3686TIP3    H111015   3.937   6.310   2.680
 3686TIP3    H211016   4.020   6.327   2.554
 3687TIP3   OH211017   1.174   7.764   3.833
 3687TIP3    H111018   1.155   7.798   3.746
 3687TIP3    H211019   1.137   7.829   3.893
 3688TIP3   OH211020   1.474   0.573   4.207
 3688TIP3    H111021   1.413   0.578   4.133
 3688TIP3    H211022   1.561   0.577   4.167
 3689TIP3   OH211023   3.837   3.557   0.662
 3689TIP3    H111024   3.796   3.571   0.577
 3689TIP3    H211025   3.768   3.519   0.716
 3690TIP3   OH211026   6.132   2.976   4.286
 3690TIP3    H111027   6.160   3.049   4.231
 3690TIP3    H211028   6.038   2.989   4.297
 3691TIP3   OH211029   8.114   4.166   2.066
 3691TIP3    H111030   8.154   4.209   1.990
 3691TIP3    H211031   8.178   4.099   2.092
 3692TIP3   OH211032   3.370   1.605   0.259
 3692TIP3    H111033   3.333   1.682   0.216
 3692TIP3    H211034   3.302   1.578   0.321
 3693TIP3   OH211035   8.034   5.827   5.442
 3693TIP3    H111036   8.094   5.901   5.449
 3693TIP3    H211037   7.947   5.866   5.455
 3694TIP3   OH211038   1.567   0.295   4.269
 3694TIP3    H111039   1.497   0.239   4.302
 3694TIP3    H211040   1.524   0.352   4.205
 3695TIP3   OH211041   6.101   2.627   2.488
 3695TIP3    H111042   6.101   2.532   2.486
 3695TIP3    H211043   6.194   2.651   2.489
 3696TIP3   OH211044   3.296   2.317   6.555
 3696TIP3    H111045   3.202   2.335   6.560
 3696TIP3    H211046   3.336   2.403   6.540
 3697TIP3   OH211047   7.933   5.333   4.680
 3697TIP3    H111048   7.873   5.258   4.682
 3697TIP3    H211049   7.940   5.360   4.772
 3698TIP3   OH211050   5.070   6.341   5.281
 3698TIP3    H111051   5.145   6.399   5.297
 3698TIP3    H211052   5.109   6.255   5.265
 3699TIP3   OH211053   3.431   0.438   3.808
 3699TIP3    H111054   3.474   0.411   3.888
 3699TIP3    H211055   3.392   0.523   3.829
 3700TIP3   OH211056   1.458   4.707   2.394
 3700TIP3    H111057   1.473   4.801   2.402
 3700TIP3    H211058   1.480   4.672   2.480
 3701TIP3   OH211059   2.283   1.035   4.505
 3701TIP3    H111060   2.321   1.010   4.420
 3701TIP3    H211061   2.327   0.978   4.568
 3702TIP3   OH211062   0.520   2.137   5.038
 3702TIP3    H111063   0.550   2.204   5.099
 3702TIP3    H211064   0.426   2.130   5.055
 3703TIP3   OH211065   4.075   4.414   2.487
 3703TIP3    H111066   4.001   4.471   2.467
 3703TIP3    H211067   4.042   4.355   2.555
 3704TIP3   OH211068   3.321   7.445   0.158
 3704TIP3    H111069   3.301   7.420   0.249
 3704TIP3    H211070   3.372   7.526   0.166
 3705TIP3   OH211071   2.780   2.770   6.303
 3705TIP3    H111072   2.875   2.774   6.312
 3705TIP3    H211073   2.765   2.732   6.216
 3706TIP3   OH211074   2.359   6.555   1.345
 3706TIP3    H111075   2.312   6.638   1.334
 3706TIP3    H211076   2.337   6.504   1.267
 3707TIP3   OH211077   6.056   5.477   3.718
 3707TIP3    H111078   6.097   5.508   3.637
 3707TIP3    H211079   6.062   5.382   3.714
 3708TIP3   OH211080   0.614   2.132   4.772
 3708TIP3    H111081   0.706   2.106   4.778
 3708TIP3    H211082   0.583   2.134   4.862
 3709TIP3   OH211083   4.946   0.822   4.683
 3709TIP3    H111084   4.936   0.763   4.758
 3709TIP3    H211085   5.036   0.809   4.654
 3710TIP3   OH211086   1.196   1.989   0.074
 3710TIP3    H111087   1.217   2.057   0.009
 3710TIP3    H211088   1.102   1.976   0.066
 3711TIP3   OH211089   6.291   2.281   4.644
 3711TIP3    H111090   6.330   2.369   4.640
 3711TIP3    H211091   6.220   2.284   4.581
 3712TIP3   OH211092   1.663   3.144   2.312
 3712TIP3    H111093   1.736   3.181   2.261
 3712TIP3    H211094   1.705   3.078   2.368
 3713TIP3   OH211095   4.216   6.178   5.647
 3713TIP3    H111096   4.237   6.251   5.705
 3713TIP3    H211097   4.283   6.112   5.667
 3714TIP3   OH211098   0.340   2.165   1.352
 3714TIP3    H111099   0.402   2.232   1.379
 3714TIP3    H211100   0.316   2.119   1.432
 3715TIP3   OH211101   6.998   7.304   0.483
 3715TIP3    H111102   6.913   7.266   0.505
 3715TIP3    H211103   7.039   7.239   0.426
 3716TIP3   OH211104   0.005   1.411   5.154
 3716TIP3    H111105   0.024   1.441   5.065
 3716TIP3    H211106  -0.072   1.355   5.145
 3717TIP3   OH211107   4.099   7.173   0.335
 3717TIP3    H111108   4.120   7.173   0.241
 3717TIP3    H211109   4.006   7.198   0.339
 3718TIP3   OH211110   7.984   2.396   0.796
 3718TIP3    H111111   7.897   2.401   0.756
 3718TIP3    H211112   7.967   2.404   0.890
 3719TIP3   OH211113   6.159   0.505   3.891
 3719TIP3    H111114   6.149   0.410   3.903
 3719TIP3    H211115   6.100   0.543   3.956
 3720TIP3   OH211116   5.195   0.349   1.239
 3720TIP3    H111117   5.144   0.379   1.314
 3720TIP3    H211118   5.231   0.428   1.200
 3721TIP3   OH211119   0.353   4.091   5.480
 3721TIP3    H111120   0.404   4.070   5.559
 3721TIP3    H211121   0.371   4.184   5.465
 3722TIP3   OH211122   5.730   4.576   2.871
 3722TIP3    H111123   5.685   4.593   2.788
 3722TIP3    H211124   5.823   4.586   2.849
 3723TIP3   OH211125   7.843   6.656   2.482
 3723TIP3    H111126   7.927   6.694   2.507
 3723TIP3    H211127   7.861   6.611   2.399
 3724TIP3   OH211128   0.192   6.407   0.880
 3724TIP3    H111129   0.207   6.452   0.963
 3724TIP3    H211130   0.134   6.335   0.903
 3725TIP3   OH211131   7.731   1.462   0.091
 3725TIP3    H111132   7.669   1.431   0.157
 3725TIP3    H211133   7.758   1.382   0.046
 3726TIP3   OH211134   1.437   6.962   5.589
 3726TIP3    H111135   1.472   7.048   5.564
 3726TIP3    H211136   1.478   6.942   5.673
 3727TIP3   OH211137   8.216   5.022   1.040
 3727TIP3    H111138   8.234   5.095   0.982
 3727TIP3    H211139   8.203   5.061   1.126
 3728TIP3   OH211140   0.967   4.218   3.258
 3728TIP3    H111141   0.988   4.309   3.240
 3728TIP3    H211142   0.977   4.174   3.174
 3729TIP3   OH211143   7.209   5.172   6.750
 3729TIP3    H111144   7.263   5.196   6.675
 3729TIP3    H211145   7.268   5.123   6.807
 3730TIP3   OH211146   1.670   1.249   3.886
 3730TIP3    H111147   1.616   1.188   3.937
 3730TIP3    H211148   1.736   1.193   3.846
 3731TIP3   OH211149   6.674   7.748   6.599
 3731TIP3    H111150   6.593   7.741   6.549
 3731TIP3    H211151   6.732   7.799   6.543
 3732TIP3   OH211152   1.298   3.112   4.505
 3732TIP3    H111153   1.284   3.074   4.592
 3732TIP3    H211154   1.295   3.207   4.520
 3733TIP3   OH211155   2.288   4.280   6.230
 3733TIP3    H111156   2.364   4.276   6.173
 3733TIP3    H211157   2.224   4.221   6.189
 3734TIP3   OH211158   6.801   0.765   3.409
 3734TIP3    H111159   6.872   0.820   3.376
 3734TIP3    H211160   6.725   0.823   3.413
 3735TIP3   OH211161   4.102   5.446   4.823
 3735TIP3    H111162   4.060   5.483   4.900
 3735TIP3    H211163   4.033   5.400   4.777
 3736TIP3   OH211164   2.597   4.713   5.533
 3736TIP3    H111165   2.654   4.636   5.533
 3736TIP3    H211166   2.542   4.701   5.455
 3737TIP3   OH211167   2.341   7.161   1.354
 3737TIP3    H111168   2.263   7.190   1.400
 3737TIP3    H211169   2.372   7.238   1.306
 3738TIP3   OH211170   8.114   5.743   3.767
 3738TIP3    H111171   8.181   5.692   3.721
 3738TIP3    H211172   8.031   5.709   3.734
 3739TIP3   OH211173   4.302   7.633   4.730
 3739TIP3    H111174   4.290   7.712   4.783
 3739TIP3    H211175   4.359   7.661   4.658
 3740TIP3   OH211176   8.323   2.396   3.015
 3740TIP3    H111177   8.362   2.309   3.023
 3740TIP3    H211178   8.232   2.384   3.044
 3741TIP3   OH211179   3.503   5.039   4.176
 3741TIP3    H111180   3.560   5.007   4.106
 3741TIP3    H211181   3.457   4.962   4.207
 3742TIP3   OH211182   1.567   0.051   0.031
 3742TIP3    H111183   1.527   0.123   0.079
 3742TIP3    H211184   1.498  -0.016   0.026
 3743TIP3   OH211185   0.613   1.744   2.709
 3743TIP3    H111186   0.674   1.811   2.676
 3743TIP3    H211187   0.666   1.691   2.768
 3744TIP3   OH211188   0.285   3.941   2.658
 3744TIP3    H111189   0.336   3.910   2.584
 3744TIP3    H211190   0.334   4.015   2.692
 3745TIP3   OH211191   5.582   6.140   1.236
 3745TIP3    H111192   5.541   6.192   1.167
 3745TIP3    H211193   5.674   6.165   1.233
 3746TIP3   OH211194   2.602   3.689   3.958
 3746TIP3    H111195   2.552   3.733   3.890
 3746TIP3    H211196   2.693   3.712   3.939
 3747TIP3   OH211197   2.840   4.091   3.308
 3747TIP3    H111198   2.918   4.057   3.265
 3747TIP3    H211199   2.807   4.159   3.249
 3748TIP3   OH211200   1.197   5.991   5.678
 3748TIP3    H111201   1.223   6.071   5.724
 3748TIP3    H211202   1.130   6.019   5.616
 3749TIP3   OH211203   4.343   6.087   6.080
 3749TIP3    H111204   4.409   6.091   6.011
 3749TIP3    H211205   4.388   6.118   6.159
 3750TIP3   OH211206   3.365   0.669   0.037
 3750TIP3    H111207   3.434   0.618  -0.004
 3750TIP3    H211208   3.393   0.760   0.030
 3751TIP3   OH211209   7.585   3.211   3.078
 3751TIP3    H111210   7.499   3.198   3.039
 3751TIP3    H211211   7.581   3.297   3.119
 3752TIP3   OH211212   3.040   4.441   3.219
 3752TIP3    H111213   3.013   4.476   3.134
 3752TIP3    H211214   2.970   4.379   3.242
 3753TIP3   OH211215   4.895   7.792   0.289
 3753TIP3    H111216   4.894   7.719   0.352
 3753TIP3    H211217   4.947   7.860   0.331
 3754TIP3   OH211218   0.112   5.905   3.099
 3754TIP3    H111219   0.069   5.977   3.147
 3754TIP3    H211220   0.046   5.874   3.038
 3755TIP3   OH211221   0.791   5.371   2.825
 3755TIP3    H111222   0.860   5.361   2.759
 3755TIP3    H211223   0.816   5.449   2.874
 3756TIP3   OH211224   0.500   4.874   0.701
 3756TIP3    H111225   0.529   4.917   0.620
 3756TIP3    H211226   0.413   4.840   0.680
 3757TIP3   OH211227   2.081   6.185   0.964
 3757TIP3    H111228   2.084   6.090   0.951
 3757TIP3    H211229   1.987   6.206   0.969
 3758TIP3   OH211230   0.086   5.484   1.918
 3758TIP3    H111231   0.022   5.549   1.891
 3758TIP3    H211232   0.036   5.425   1.976
 3759TIP3   OH211233   7.127   6.017   5.663
 3759TIP3    H111234   7.061   6.086   5.666
 3759TIP3    H211235   7.124   5.977   5.750
 3760TIP3   OH211236   7.215   6.003   4.316
 3760TIP3    H111237   7.149   5.991   4.248
 3760TIP3    H211238   7.276   6.066   4.279
 3761TIP3   OH211239   7.691   7.081   0.797
 3761TIP3    H111240   7.737   7.014   0.746
 3761TIP3    H211241   7.717   7.065   0.887
 3762TIP3   OH211242   6.460   6.689   5.459
 3762TIP3    H111243   6.447   6.632   5.383
 3762TIP3    H211244   6.470   6.777   5.420
 3763TIP3   OH211245   5.081   0.090   2.186
 3763TIP3    H111246   4.988   0.067   2.180
 3763TIP3    H211247   5.120   0.053   2.107
 3764TIP3   OH211248   6.529   1.315   0.128
 3764TIP3    H111249   6.438   1.298   0.149
 3764TIP3    H211250   6.529   1.403   0.090
 3765TIP3   OH211251   3.842   7.741   5.806
 3765TIP3    H111252   3.794   7.741   5.723
 3765TIP3    H211253   3.833   7.831   5.838
 3766TIP3   OH211254   6.846   0.915   2.769
 3766TIP3    H111255   6.892   0.846   2.817
 3766TIP3    H211256   6.904   0.935   2.694
 3767TIP3   OH211257   0.133   1.520   3.181
 3767TIP3    H111258   0.222   1.536   3.212
 3767TIP3    H211259   0.084   1.501   3.261
 3768TIP3   OH211260   4.677   6.982   1.246
 3768TIP3    H111261   4.722   7.013   1.325
 3768TIP3    H211262   4.686   6.886   1.250
 3769TIP3   OH211263   3.749   5.496   0.476
 3769TIP3    H111264   3.840   5.511   0.503
 3769TIP3    H211265   3.756   5.432   0.405
 3770TIP3   OH211266   0.784   2.647   4.097
 3770TIP3    H111267   0.860   2.675   4.148
 3770TIP3    H211268   0.746   2.576   4.148
 3771TIP3   OH211269   4.947   0.233   3.522
 3771TIP3    H111270   4.929   0.320   3.557
 3771TIP3    H211271   4.969   0.180   3.599
 3772TIP3   OH211272   1.054   1.778   6.509
 3772TIP3    H111273   1.041   1.821   6.424
 3772TIP3    H211274   1.079   1.689   6.487
 3773TIP3   OH211275   7.647   4.130   5.332
 3773TIP3    H111276   7.699   4.056   5.363
 3773TIP3    H211277   7.678   4.144   5.242
 3774TIP3   OH211278   7.887   4.425   5.855
 3774TIP3    H111279   7.907   4.334   5.879
 3774TIP3    H211280   7.947   4.478   5.908
 3775TIP3   OH211281   4.294   0.221   2.036
 3775TIP3    H111282   4.389   0.207   2.039
 3775TIP3    H211283   4.282   0.287   1.968
 3776TIP3   OH211284   7.807   4.055   1.612
 3776TIP3    H111285   7.732   4.095   1.568
 3776TIP3    H211286   7.773   4.032   1.699
 3777TIP3   OH211287   4.208   1.547   5.249
 3777TIP3    H111288   4.127   1.530   5.297
 3777TIP3    H211289   4.275   1.557   5.316
 3778TIP3   OH211290   4.516   7.047   2.391
 3778TIP3    H111291   4.566   6.991   2.332
 3778TIP3    H211292   4.448   7.086   2.336
 3779TIP3   OH211293   3.630   6.360   2.745
 3779TIP3    H111294   3.717   6.336   2.776
 3779TIP3    H211295   3.575   6.357   2.823
 3780TIP3   OH211296   2.898   2.034   0.417
 3780TIP3    H111297   2.845   1.965   0.457
 3780TIP3    H211298   2.843   2.111   0.419
 3781TIP3   OH211299   8.099   4.531   3.096
 3781TIP3    H111300   8.191   4.542   3.072
 3781TIP3    H211301   8.052   4.534   3.013
 3782TIP3   OH211302   5.270   3.025   4.105
 3782TIP3    H111303   5.360   2.992   4.103
 3782TIP3    H211304   5.254   3.054   4.016
 3783TIP3   OH211305   1.651   5.342   0.562
 3783TIP3    H111306   1.734   5.313   0.525
 3783TIP3    H211307   1.584   5.310   0.501
 3784TIP3   OH211308   3.628   7.551   4.033
 3784TIP3    H111309   3.551   7.516   3.988
 3784TIP3    H211310   3.682   7.475   4.050
 3785TIP3   OH211311   5.058   4.568   0.162
 3785TIP3    H111312   5.033   4.625   0.235
 3785TIP3    H211313   5.075   4.629   0.089
 3786TIP3   OH211314   7.754   3.603   6.445
 3786TIP3    H111315   7.837   3.648   6.431
 3786TIP3    H211316   7.779   3.513   6.467
 3787TIP3   OH211317   3.915   3.104   5.538
 3787TIP3    H111318   3.974   3.059   5.598
 3787TIP3    H211319   3.850   3.146   5.594
 3788TIP3   OH211320   6.866   4.466   6.717
 3788TIP3    H111321   6.936   4.438   6.658
 3788TIP3    H211322   6.792   4.409   6.695
 3789TIP3   OH211323   8.171   4.871   3.958
 3789TIP3    H111324   8.227   4.796   3.935
 3789TIP3    H211325   8.175   4.928   3.882
 3790TIP3   OH211326   6.052   6.096   5.072
 3790TIP3    H111327   6.068   6.004   5.094
 3790TIP3    H211328   6.000   6.129   5.145
 3791TIP3   OH211329   4.246   7.186   2.659
 3791TIP3    H111330   4.192   7.248   2.708
 3791TIP3    H211331   4.222   7.101   2.695
 3792TIP3   OH211332   7.457   5.884   4.095
 3792TIP3    H111333   7.366   5.882   4.068
 3792TIP3    H211334   7.454   5.894   4.190
 3793TIP3   OH211335   2.346   3.923   4.850
 3793TIP3    H111336   2.382   3.985   4.914
 3793TIP3    H211337   2.357   3.967   4.766
 3794TIP3   OH211338   2.853   3.573   2.020
 3794TIP3    H111339   2.877   3.528   2.101
 3794TIP3    H211340   2.797   3.645   2.048
 3795TIP3   OH211341   5.458   1.842   2.384
 3795TIP3    H111342   5.368   1.876   2.385
 3795TIP3    H211343   5.492   1.868   2.299
 3796TIP3   OH211344   1.056   5.585   0.843
 3796TIP3    H111345   1.095   5.522   0.782
 3796TIP3    H211346   1.119   5.591   0.915
 3797TIP3   OH211347   0.650   4.526   2.828
 3797TIP3    H111348   0.704   4.521   2.906
 3797TIP3    H211349   0.669   4.612   2.791
 3798TIP3   OH211350   5.459   5.457   2.053
 3798TIP3    H111351   5.425   5.455   2.143
 3798TIP3    H211352   5.425   5.378   2.012
 3799TIP3   OH211353   0.641   5.916   4.782
 3799TIP3    H111354   0.720   5.966   4.761
 3799TIP3    H211355   0.578   5.982   4.809
 3800TIP3   OH211356   4.588   7.255   4.395
 3800TIP3    H111357   4.573   7.205   4.315
 3800TIP3    H211358   4.604   7.189   4.462
 3801TIP3   OH211359   1.386   5.796   0.770
 3801TIP3    H111360   1.356   5.708   0.745
 3801TIP3    H211361   1.443   5.823   0.697
 3802TIP3   OH211362   2.642   3.777   2.133
 3802TIP3    H111363   2.556   3.737   2.145
 3802TIP3    H211364   2.692   3.753   2.211
 3803TIP3   OH211365   6.433   3.748   6.443
 3803TIP3    H111366   6.480   3.678   6.487
 3803TIP3    H211367   6.378   3.704   6.378
 3804TIP3   OH211368   4.779   4.807   3.241
 3804TIP3    H111369   4.863   4.841   3.272
 3804TIP3    H211370   4.795   4.787   3.148
 3805TIP3   OH211371   5.320   4.744   1.667
 3805TIP3    H111372   5.414   4.760   1.659
 3805TIP3    H211373   5.312   4.688   1.744
 3806TIP3   OH211374   5.049   3.572   6.475
 3806TIP3    H111375   5.018   3.662   6.466
 3806TIP3    H211376   5.041   3.554   6.569
 3807TIP3   OH211377   1.283   3.187   5.117
 3807TIP3    H111378   1.279   3.145   5.203
 3807TIP3    H211379   1.195   3.176   5.081
 3808TIP3   OH211380   4.032   5.397   0.773
 3808TIP3    H111381   4.026   5.447   0.691
 3808TIP3    H211382   3.961   5.333   0.767
 3809TIP3   OH211383   8.196   7.475   5.799
 3809TIP3    H111384   8.232   7.529   5.729
 3809TIP3    H211385   8.255   7.490   5.874
 3810TIP3   OH211386   2.592   0.808   2.688
 3810TIP3    H111387   2.661   0.752   2.652
 3810TIP3    H211388   2.572   0.870   2.618
 3811TIP3   OH211389   5.818   4.457   5.850
 3811TIP3    H111390   5.844   4.489   5.936
 3811TIP3    H211391   5.794   4.536   5.802
 3812TIP3   OH211392   8.270   6.628   3.641
 3812TIP3    H111393   8.218   6.606   3.563
 3812TIP3    H211394   8.335   6.690   3.609
 3813TIP3   OH211395   2.173   6.567   4.552
 3813TIP3    H111396   2.196   6.590   4.462
 3813TIP3    H211397   2.251   6.590   4.603
 3814TIP3   OH211398   5.262   4.747   2.382
 3814TIP3    H111399   5.193   4.791   2.332
 3814TIP3    H211400   5.275   4.663   2.336
 3815TIP3   OH211401   4.282   2.383   3.772
 3815TIP3    H111402   4.296   2.324   3.697
 3815TIP3    H211403   4.370   2.405   3.802
 3816TIP3   OH211404   1.691   4.598   3.206
 3816TIP3    H111405   1.751   4.548   3.151
 3816TIP3    H211406   1.610   4.603   3.155
 3817TIP3   OH211407   0.373   7.159   1.450
 3817TIP3    H111408   0.335   7.077   1.480
 3817TIP3    H211409   0.389   7.209   1.530
 3818TIP3   OH211410   6.665   2.797   4.394
 3818TIP3    H111411   6.634   2.877   4.352
 3818TIP3    H211412   6.743   2.824   4.443
 3819TIP3   OH211413   1.971   4.011   3.335
 3819TIP3    H111414   1.964   3.921   3.367
 3819TIP3    H211415   1.971   4.002   3.239
 3820TIP3   OH211416   0.514   3.750   4.079
 3820TIP3    H111417   0.460   3.813   4.032
 3820TIP3    H211418   0.455   3.711   4.144
 3821TIP3   OH211419   7.986   3.361   6.258
 3821TIP3    H111420   8.047   3.425   6.295
 3821TIP3    H211421   8.003   3.363   6.164
 3822TIP3   OH211422   7.518   0.704   1.039
 3822TIP3    H111423   7.475   0.764   1.100
 3822TIP3    H211424   7.464   0.706   0.961
 3823TIP3   OH211425   2.544   3.055   1.868
 3823TIP3    H111426   2.614   3.024   1.926
 3823TIP3    H211427   2.470   2.996   1.887
 3824TIP3   OH211428   8.035   1.870   3.966
 3824TIP3    H111429   7.951   1.903   3.997
 3824TIP3    H211430   8.069   1.817   4.038
 3825TIP3   OH211431   0.657   5.397   0.575
 3825TIP3    H111432   0.624   5.432   0.492
 3825TIP3    H211433   0.588   5.414   0.638
 3826TIP3   OH211434   3.743   6.640   4.264
 3826TIP3    H111435   3.771   6.614   4.352
 3826TIP3    H211436   3.657   6.679   4.277
 3827TIP3   OH211437   2.910   7.343   5.123
 3827TIP3    H111438   2.941   7.388   5.044
 3827TIP3    H211439   2.910   7.250   5.099
 3828TIP3   OH211440   3.020   0.382   1.249
 3828TIP3    H111441   2.941   0.393   1.197
 3828TIP3    H211442   3.077   0.328   1.195
 3829TIP3   OH211443   4.326   5.724   5.845
 3829TIP3    H111444   4.273   5.790   5.801
 3829TIP3    H211445   4.393   5.774   5.892
 3830TIP3   OH211446   5.944   0.558   5.007
 3830TIP3    H111447   5.966   0.620   4.938
 3830TIP3    H211448   5.874   0.504   4.970
 3831TIP3   OH211449   8.258   0.336   1.776
 3831TIP3    H111450   8.163   0.328   1.786
 3831TIP3    H211451   8.274   0.430   1.772
 3832TIP3   OH211452   0.856   2.881   5.380
 3832TIP3    H111453   0.882   2.846   5.294
 3832TIP3    H211454   0.852   2.975   5.367
 3833TIP3   OH211455   3.128   4.318   0.110
 3833TIP3    H111456   3.042   4.298   0.074
 3833TIP3    H211457   3.145   4.409   0.085
 3834TIP3   OH211458   0.750   4.570   3.313
 3834TIP3    H111459   0.822   4.512   3.336
 3834TIP3    H211460   0.764   4.649   3.365
 3835TIP3   OH211461   2.861   2.051   6.249
 3835TIP3    H111462   2.897   2.086   6.331
 3835TIP3    H211463   2.937   2.039   6.192
 3836TIP3   OH211464   7.853   4.478   3.838
 3836TIP3    H111465   7.797   4.520   3.772
 3836TIP3    H211466   7.831   4.385   3.833
 3837TIP3   OH211467   6.368   7.189   3.539
 3837TIP3    H111468   6.313   7.261   3.571
 3837TIP3    H211469   6.343   7.178   3.448
 3838TIP3   OH211470   7.794   5.875   2.563
 3838TIP3    H111471   7.856   5.821   2.612
 3838TIP3    H211472   7.814   5.965   2.589
 3839TIP3   OH211473   4.581   1.108   0.152
 3839TIP3    H111474   4.593   1.015   0.172
 3839TIP3    H211475   4.505   1.134   0.204
 3840TIP3   OH211476   0.672   5.706   3.543
 3840TIP3    H111477   0.588   5.719   3.587
 3840TIP3    H211478   0.725   5.782   3.570
 3841TIP3   OH211479   8.236   5.855   3.489
 3841TIP3    H111480   8.321   5.868   3.530
 3841TIP3    H211481   8.173   5.871   3.559
 3842TIP3   OH211482   1.538   4.013   5.541
 3842TIP3    H111483   1.519   3.945   5.477
 3842TIP3    H211484   1.493   4.091   5.509
 3843TIP3   OH211485   6.942   2.154   2.848
 3843TIP3    H111486   7.016   2.200   2.809
 3843TIP3    H211487   6.960   2.156   2.942
 3844TIP3   OH211488   5.165   4.193   6.590
 3844TIP3    H111489   5.171   4.175   6.684
 3844TIP3    H211490   5.220   4.270   6.577
 3845TIP3   OH211491   0.834   1.510   5.512
 3845TIP3    H111492   0.899   1.519   5.581
 3845TIP3    H211493   0.773   1.443   5.544
 3846TIP3   OH211494   6.153   2.123   5.890
 3846TIP3    H111495   6.158   2.184   5.816
 3846TIP3    H211496   6.176   2.038   5.853
 3847TIP3   OH211497   7.202   6.045   3.577
 3847TIP3    H111498   7.286   6.018   3.538
 3847TIP3    H211499   7.221   6.128   3.620
 3848TIP3   OH211500   2.315   0.828   3.048
 3848TIP3    H111501   2.322   0.765   2.976
 3848TIP3    H211502   2.287   0.909   3.007
 3849TIP3   OH211503   3.170   2.033   6.787
 3849TIP3    H111504   3.191   2.126   6.780
 3849TIP3    H211505   3.107   2.017   6.718
 3850TIP3   OH211506   5.861   2.047   4.937
 3850TIP3    H111507   5.956   2.052   4.926
 3850TIP3    H211508   5.834   2.138   4.948
 3851TIP3   OH211509   3.417   1.450   0.009
 3851TIP3    H111510   3.403   1.501   0.089
 3851TIP3    H211511   3.343   1.474  -0.048
 3852TIP3   OH211512   5.437   4.036   2.767
 3852TIP3    H111513   5.503   4.061   2.703
 3852TIP3    H211514   5.357   4.023   2.716
 3853TIP3   OH211515   0.036   6.177   6.628
 3853TIP3    H111516   0.118   6.127   6.621
 3853TIP3    H211517  -0.032   6.110   6.631
 3854TIP3   OH211518   2.477   2.459   4.076
 3854TIP3    H111519   2.507   2.547   4.099
 3854TIP3    H211520   2.458   2.417   4.159
 3855TIP3   OH211521   3.119   3.766   4.626
 3855TIP3    H111522   3.138   3.793   4.716
 3855TIP3    H211523   3.172   3.687   4.614
 3856TIP3   OH211524   4.902   2.913   1.708
 3856TIP3    H111525   4.935   2.823   1.703
 3856TIP3    H211526   4.807   2.903   1.701
 3857TIP3   OH211527   4.741   4.681   0.721
 3857TIP3    H111528   4.765   4.724   0.638
 3857TIP3    H211529   4.825   4.666   0.764
 3858TIP3   OH211530   5.060   4.761   1.531
 3858TIP3    H111531   5.148   4.793   1.550
 3858TIP3    H211532   5.026   4.822   1.466
 3859TIP3   OH211533   3.617   3.699   0.807
 3859TIP3    H111534   3.557   3.697   0.881
 3859TIP3    H211535   3.629   3.607   0.782
 3860TIP3   OH211536   7.745   2.229   1.642
 3860TIP3    H111537   7.653   2.253   1.652
 3860TIP3    H211538   7.768   2.259   1.554
 3861TIP3   OH211539   1.160   7.080   0.526
 3861TIP3    H111540   1.096   7.149   0.515
 3861TIP3    H211541   1.245   7.125   0.528
 3862TIP3   OH211542   5.693   6.671   3.653
 3862TIP3    H111543   5.606   6.707   3.638
 3862TIP3    H211544   5.700   6.598   3.591
 3863TIP3   OH211545   0.196   5.419   1.109
 3863TIP3    H111546   0.266   5.355   1.120
 3863TIP3    H211547   0.133   5.397   1.177
 3864TIP3   OH211548   3.510   2.295   6.161
 3864TIP3    H111549   3.559   2.378   6.164
 3864TIP3    H211550   3.555   2.240   6.225
 3865TIP3   OH211551   3.760   2.479   0.795
 3865TIP3    H111552   3.772   2.405   0.854
 3865TIP3    H211553   3.819   2.546   0.829
 3866TIP3   OH211554   2.678   5.718   2.414
 3866TIP3    H111555   2.673   5.763   2.499
 3866TIP3    H211556   2.661   5.786   2.349
 3867TIP3   OH211557   5.309   0.099   1.867
 3867TIP3    H111558   5.381   0.067   1.812
 3867TIP3    H211559   5.348   0.172   1.915
 3868TIP3   OH211560   0.544   1.677   4.270
 3868TIP3    H111561   0.577   1.765   4.285
 3868TIP3    H211562   0.489   1.658   4.346
 3869TIP3   OH211563   5.320   3.132   0.937
 3869TIP3    H111564   5.315   3.038   0.924
 3869TIP3    H211565   5.278   3.169   0.860
 3870TIP3   OH211566   8.040   3.730   4.610
 3870TIP3    H111567   8.095   3.652   4.601
 3870TIP3    H211568   8.069   3.772   4.691
 3871TIP3   OH211569   2.341   2.107   4.610
 3871TIP3    H111570   2.408   2.171   4.638
 3871TIP3    H211571   2.347   2.106   4.515
 3872TIP3   OH211572   0.715   7.063   3.605
 3872TIP3    H111573   0.678   7.141   3.565
 3872TIP3    H211574   0.701   7.075   3.699
 3873TIP3   OH211575   0.629   1.817   5.218
 3873TIP3    H111576   0.538   1.789   5.229
 3873TIP3    H211577   0.641   1.885   5.283
 3874TIP3   OH211578   1.790   5.090   1.658
 3874TIP3    H111579   1.711   5.068   1.608
 3874TIP3    H211580   1.857   5.030   1.626
 3875TIP3   OH211581   0.649   3.106   6.006
 3875TIP3    H111582   0.592   3.139   5.936
 3875TIP3    H211583   0.635   3.166   6.079
 3876TIP3   OH211584   5.488   0.623   6.495
 3876TIP3    H111585   5.426   0.556   6.525
 3876TIP3    H211586   5.558   0.621   6.561
 3877TIP3   OH211587   4.896   5.317   0.680
 3877TIP3    H111588   4.896   5.286   0.770
 3877TIP3    H211589   4.957   5.390   0.680
 3878TIP3   OH211590   6.008   1.316   4.506
 3878TIP3    H111591   5.925   1.299   4.551
 3878TIP3    H211592   6.010   1.411   4.496
 3879TIP3   OH211593   0.290   3.971   0.511
 3879TIP3    H111594   0.362   3.909   0.519
 3879TIP3    H211595   0.317   4.045   0.566
 3880TIP3   OH211596   7.642   2.776   4.424
 3880TIP3    H111597   7.577   2.707   4.415
 3880TIP3    H211598   7.708   2.740   4.484
 3881TIP3   OH211599   7.924   3.103   6.309
 3881TIP3    H111600   7.964   3.189   6.307
 3881TIP3    H211601   7.859   3.108   6.379
 3882TIP3   OH211602   2.291   1.134   4.909
 3882TIP3    H111603   2.276   1.185   4.988
 3882TIP3    H211604   2.278   1.043   4.936
 3883TIP3   OH211605   0.543   1.459   1.811
 3883TIP3    H111606   0.614   1.474   1.874
 3883TIP3    H211607   0.587   1.422   1.734
 3884TIP3   OH211608   0.964   7.197   5.915
 3884TIP3    H111609   0.880   7.224   5.950
 3884TIP3    H211610   0.948   7.183   5.821
 3885TIP3   OH211611   4.188   2.316   4.178
 3885TIP3    H111612   4.111   2.330   4.123
 3885TIP3    H211613   4.234   2.242   4.138
 3886TIP3   OH211614   2.102   7.696   6.556
 3886TIP3    H111615   2.011   7.699   6.585
 3886TIP3    H211616   2.130   7.788   6.558
 3887TIP3   OH211617   2.760   6.913   6.569
 3887TIP3    H111618   2.788   7.002   6.587
 3887TIP3    H211619   2.816   6.884   6.496
 3888TIP3   OH211620   7.341   3.746   5.761
 3888TIP3    H111621   7.388   3.728   5.679
 3888TIP3    H211622   7.250   3.755   5.735
 3889TIP3   OH211623   8.206   7.337   0.035
 3889TIP3    H111624   8.278   7.274   0.032
 3889TIP3    H211625   8.241   7.411   0.085
 3890TIP3   OH211626   0.091   7.671   3.027
 3890TIP3    H111627   0.036   7.746   3.010
 3890TIP3    H211628   0.041   7.617   3.088
 3891TIP3   OH211629   0.313   7.691   3.229
 3891TIP3    H111630   0.258   7.667   3.154
 3891TIP3    H211631   0.402   7.693   3.194
 3892TIP3   OH211632   3.864   4.127   3.268
 3892TIP3    H111633   3.914   4.176   3.202
 3892TIP3    H211634   3.920   4.051   3.289
 3893TIP3   OH211635   1.380   4.042   6.675
 3893TIP3    H111636   1.355   3.998   6.594
 3893TIP3    H211637   1.475   4.052   6.669
 3894TIP3   OH211638   0.408   5.645   2.789
 3894TIP3    H111639   0.432   5.561   2.750
 3894TIP3    H211640   0.466   5.709   2.747
 3895TIP3   OH211641   1.619   4.771   2.700
 3895TIP3    H111642   1.598   4.852   2.654
 3895TIP3    H211643   1.711   4.779   2.723
 3896TIP3   OH211644   8.025   5.815   3.256
 3896TIP3    H111645   8.096   5.867   3.294
 3896TIP3    H211646   8.057   5.789   3.170
 3897TIP3   OH211647   3.419   2.637   4.178
 3897TIP3    H111648   3.417   2.562   4.238
 3897TIP3    H211649   3.356   2.698   4.214
 3898TIP3   OH211650   6.227   6.577   0.848
 3898TIP3    H111651   6.182   6.620   0.921
 3898TIP3    H211652   6.303   6.536   0.888
 3899TIP3   OH211653   7.604   6.276   4.784
 3899TIP3    H111654   7.655   6.260   4.864
 3899TIP3    H211655   7.647   6.352   4.744
 3900TIP3   OH211656   4.255   2.652   3.893
 3900TIP3    H111657   4.280   2.661   3.985
 3900TIP3    H211658   4.298   2.572   3.863
 3901TIP3   OH211659   0.795   1.201   6.695
 3901TIP3    H111660   0.841   1.170   6.773
 3901TIP3    H211661   0.823   1.141   6.625
 3902TIP3   OH211662   8.130   2.055   1.632
 3902TIP3    H111663   8.100   1.968   1.659
 3902TIP3    H211664   8.079   2.075   1.554
 3903TIP3   OH211665   7.286   2.990   2.568
 3903TIP3    H111666   7.293   2.965   2.660
 3903TIP3    H211667   7.210   3.049   2.565
 3904TIP3   OH211668   1.075   2.528   0.401
 3904TIP3    H111669   1.166   2.545   0.426
 3904TIP3    H211670   1.077   2.529   0.305
 3905TIP3   OH211671   0.419   1.129   5.079
 3905TIP3    H111672   0.367   1.168   5.008
 3905TIP3    H211673   0.476   1.199   5.109
 3906TIP3   OH211674   6.849   4.009   5.959
 3906TIP3    H111675   6.831   3.979   5.870
 3906TIP3    H211676   6.868   3.930   6.008
 3907TIP3   OH211677   5.087   6.915   0.238
 3907TIP3    H111678   5.002   6.909   0.195
 3907TIP3    H211679   5.100   6.829   0.278
 3908TIP3   OH211680   3.513   4.267   1.310
 3908TIP3    H111681   3.488   4.308   1.227
 3908TIP3    H211682   3.609   4.273   1.312
 3909TIP3   OH211683   2.451   5.081   4.292
 3909TIP3    H111684   2.532   5.089   4.243
 3909TIP3    H211685   2.479   5.074   4.384
 3910TIP3   OH211686   1.674   1.071   5.348
 3910TIP3    H111687   1.632   0.987   5.366
 3910TIP3    H211688   1.606   1.136   5.364
 3911TIP3   OH211689   3.275   4.898   5.092
 3911TIP3    H111690   3.230   4.936   5.167
 3911TIP3    H211691   3.350   4.853   5.130
 3912TIP3   OH211692   2.143   7.184   0.201
 3912TIP3    H111693   2.225   7.201   0.247
 3912TIP3    H211694   2.135   7.257   0.139
 3913TIP3   OH211695   5.361   7.258   2.887
 3913TIP3    H111696   5.403   7.309   2.819
 3913TIP3    H211697   5.410   7.278   2.967
 3914TIP3   OH211698   0.245   1.897   4.256
 3914TIP3    H111699   0.200   1.854   4.183
 3914TIP3    H211700   0.328   1.849   4.264
 3915TIP3   OH211701   7.722   2.172   2.640
 3915TIP3    H111702   7.656   2.158   2.708
 3915TIP3    H211703   7.672   2.173   2.558
 3916TIP3   OH211704   7.360   5.286   4.436
 3916TIP3    H111705   7.334   5.209   4.386
 3916TIP3    H211706   7.456   5.286   4.432
 3917TIP3   OH211707   4.204   5.635   5.442
 3917TIP3    H111708   4.149   5.560   5.421
 3917TIP3    H211709   4.293   5.600   5.444
 3918TIP3   OH211710   5.210   6.731   1.478
 3918TIP3    H111711   5.253   6.671   1.417
 3918TIP3    H211712   5.245   6.707   1.564
 3919TIP3   OH211713   1.448   1.363   2.910
 3919TIP3    H111714   1.392   1.379   2.834
 3919TIP3    H211715   1.530   1.329   2.874
 3920TIP3   OH211716   8.041   4.600   1.928
 3920TIP3    H111717   8.035   4.536   1.857
 3920TIP3    H211718   7.958   4.648   1.925
 3921TIP3   OH211719   4.090   3.529   5.094
 3921TIP3    H111720   4.130   3.599   5.145
 3921TIP3    H211721   4.000   3.524   5.126
 3922TIP3   OH211722   2.838   6.986   4.430
 3922TIP3    H111723   2.829   6.976   4.335
 3922TIP3    H211724   2.876   7.073   4.441
 3923TIP3   OH211725   4.675   4.122   1.317
 3923TIP3    H111726   4.595   4.072   1.334
 3923TIP3    H211727   4.746   4.061   1.337
 3924TIP3   OH211728   4.871   5.374   1.316
 3924TIP3    H111729   4.822   5.314   1.373
 3924TIP3    H211730   4.836   5.357   1.229
 3925TIP3   OH211731   2.315   7.221   0.856
 3925TIP3    H111732   2.366   7.163   0.913
 3925TIP3    H211733   2.228   7.222   0.895
 3926TIP3   OH211734   2.736   1.825   4.051
 3926TIP3    H111735   2.808   1.868   4.005
 3926TIP3    H211736   2.758   1.834   4.144
 3927TIP3   OH211737   2.144   1.691   3.403
 3927TIP3    H111738   2.145   1.729   3.315
 3927TIP3    H211739   2.073   1.737   3.448
 3928TIP3   OH211740   5.025   2.413   6.054
 3928TIP3    H111741   5.034   2.506   6.032
 3928TIP3    H211742   5.102   2.394   6.108
 3929TIP3   OH211743   5.890   6.174   5.284
 3929TIP3    H111744   5.866   6.266   5.289
 3929TIP3    H211745   5.839   6.132   5.352
 3930TIP3   OH211746   3.897   3.232   4.676
 3930TIP3    H111747   3.923   3.181   4.753
 3930TIP3    H211748   3.911   3.172   4.602
 3931TIP3   OH211749   4.505   5.838   2.689
 3931TIP3    H111750   4.524   5.905   2.756
 3931TIP3    H211751   4.570   5.853   2.621
 3932TIP3   OH211752   2.818   6.376   1.863
 3932TIP3    H111753   2.739   6.429   1.854
 3932TIP3    H211754   2.885   6.423   1.814
 3933TIP3   OH211755   2.264   3.745   4.132
 3933TIP3    H111756   2.319   3.820   4.154
 3933TIP3    H211757   2.326   3.676   4.109
 3934TIP3   OH211758   6.132   6.149   5.429
 3934TIP3    H111759   6.112   6.058   5.450
 3934TIP3    H211760   6.072   6.169   5.356
 3935TIP3   OH211761   7.757   3.374   4.041
 3935TIP3    H111762   7.684   3.344   4.095
 3935TIP3    H211763   7.831   3.319   4.067
 3936TIP3   OH211764   1.552   6.391   5.391
 3936TIP3    H111765   1.599   6.323   5.343
 3936TIP3    H211766   1.498   6.343   5.454
 3937TIP3   OH211767   6.926   0.720   5.378
 3937TIP3    H111768   6.845   0.769   5.367
 3937TIP3    H211769   6.992   0.774   5.334
 3938TIP3   OH211770   1.997   2.920   2.823
 3938TIP3    H111771   2.059   2.985   2.789
 3938TIP3    H211772   2.020   2.839   2.779
 3939TIP3   OH211773   5.479   5.802   2.366
 3939TIP3    H111774   5.562   5.772   2.401
 3939TIP3    H211775   5.447   5.866   2.430
 3940TIP3   OH211776   4.359   4.662   1.123
 3940TIP3    H111777   4.337   4.636   1.213
 3940TIP3    H211778   4.306   4.605   1.068
 3941TIP3   OH211779   5.112   7.453   0.874
 3941TIP3    H111780   5.029   7.495   0.851
 3941TIP3    H211781   5.131   7.395   0.801
 3942TIP3   OH211782   4.322   2.479   1.605
 3942TIP3    H111783   4.356   2.399   1.646
 3942TIP3    H211784   4.265   2.447   1.535
 3943TIP3   OH211785   6.423   2.494   1.488
 3943TIP3    H111786   6.452   2.431   1.554
 3943TIP3    H211787   6.335   2.464   1.464
 3944TIP3   OH211788   4.222   4.919   5.364
 3944TIP3    H111789   4.196   4.896   5.274
 3944TIP3    H211790   4.159   4.986   5.390
 3945TIP3   OH211791   3.397   1.913   5.177
 3945TIP3    H111792   3.384   1.993   5.127
 3945TIP3    H211793   3.426   1.943   5.263
 3946TIP3   OH211794   4.415   4.916   3.442
 3946TIP3    H111795   4.387   4.988   3.500
 3946TIP3    H211796   4.335   4.889   3.397
 3947TIP3   OH211797   4.267   7.512   0.584
 3947TIP3    H111798   4.289   7.585   0.642
 3947TIP3    H211799   4.288   7.434   0.635
 3948TIP3   OH211800   3.418   2.758   0.113
 3948TIP3    H111801   3.492   2.816   0.099
 3948TIP3    H211802   3.410   2.751   0.209
 3949TIP3   OH211803   3.660   3.669   2.992
 3949TIP3    H111804   3.577   3.662   3.038
 3949TIP3    H211805   3.669   3.762   2.973
 3950TIP3   OH211806   5.530   1.381   5.992
 3950TIP3    H111807   5.611   1.365   5.944
 3950TIP3    H211808   5.532   1.319   6.065
 3951TIP3   OH211809   2.298   5.577   6.307
 3951TIP3    H111810   2.311   5.603   6.216
 3951TIP3    H211811   2.330   5.652   6.358
 3952TIP3   OH211812   8.001   6.502   0.943
 3952TIP3    H111813   8.068   6.558   0.981
 3952TIP3    H211814   8.028   6.492   0.851
 3953TIP3   OH211815   8.100   1.313   5.783
 3953TIP3    H111816   8.179   1.294   5.835
 3953TIP3    H211817   8.130   1.377   5.719
 3954TIP3   OH211818   3.708   4.277   4.532
 3954TIP3    H111819   3.704   4.265   4.627
 3954TIP3    H211820   3.620   4.256   4.502
 3955TIP3   OH211821   5.789   2.764   0.617
 3955TIP3    H111822   5.867   2.818   0.626
 3955TIP3    H211823   5.752   2.789   0.532
 3956TIP3   OH211824   2.068   2.057   5.925
 3956TIP3    H111825   2.023   2.117   5.984
 3956TIP3    H211826   2.106   1.991   5.983
 3957TIP3   OH211827   0.826   1.647   1.612
 3957TIP3    H111828   0.779   1.729   1.627
 3957TIP3    H211829   0.915   1.675   1.589
 3958TIP3   OH211830   6.421   0.990   4.182
 3958TIP3    H111831   6.420   0.954   4.094
 3958TIP3    H211832   6.329   0.988   4.210
 3959TIP3   OH211833   5.160   0.233   0.546
 3959TIP3    H111834   5.137   0.200   0.459
 3959TIP3    H211835   5.076   0.235   0.593
 3960TIP3   OH211836   4.952   5.941   3.859
 3960TIP3    H111837   4.894   5.930   3.934
 3960TIP3    H211838   5.040   5.943   3.897
 3961TIP3   OH211839   1.342   4.319   4.710
 3961TIP3    H111840   1.291   4.380   4.655
 3961TIP3    H211841   1.374   4.373   4.782
 3962TIP3   OH211842   7.661   0.128   3.229
 3962TIP3    H111843   7.719   0.204   3.222
 3962TIP3    H211844   7.634   0.126   3.321
 3963TIP3   OH211845   6.965   2.641   6.798
 3963TIP3    H111846   6.965   2.735   6.818
 3963TIP3    H211847   7.012   2.635   6.714
 3964TIP3   OH211848   2.035   1.617   6.120
 3964TIP3    H111849   2.037   1.640   6.213
 3964TIP3    H211850   1.950   1.577   6.107
 3965TIP3   OH211851   0.581   0.564   6.518
 3965TIP3    H111852   0.564   0.498   6.450
 3965TIP3    H211853   0.649   0.525   6.573
 3966TIP3   OH211854   7.433   5.517   3.396
 3966TIP3    H111855   7.484   5.585   3.351
 3966TIP3    H211856   7.431   5.546   3.487
 3967TIP3   OH211857   3.659   4.554   5.503
 3967TIP3    H111858   3.666   4.461   5.484
 3967TIP3    H211859   3.730   4.595   5.453
 3968TIP3   OH211860   4.094   3.223   4.117
 3968TIP3    H111861   4.163   3.272   4.162
 3968TIP3    H211862   4.120   3.227   4.024
 3969TIP3   OH211863   7.198   6.334   3.620
 3969TIP3    H111864   7.141   6.389   3.674
 3969TIP3    H211865   7.184   6.366   3.531
 3970TIP3   OH211866   3.597   4.345   5.959
 3970TIP3    H111867   3.640   4.409   5.903
 3970TIP3    H211868   3.515   4.386   5.986
 3971TIP3   OH211869   2.383   3.235   1.515
 3971TIP3    H111870   2.462   3.187   1.541
 3971TIP3    H211871   2.335   3.249   1.597
 3972TIP3   OH211872   8.094   7.338   6.085
 3972TIP3    H111873   8.160   7.383   6.031
 3972TIP3    H211874   8.016   7.393   6.079
 3973TIP3   OH211875   2.508   1.484   3.958
 3973TIP3    H111876   2.479   1.482   3.867
 3973TIP3    H211877   2.603   1.488   3.953
 3974TIP3   OH211878   2.786   1.024   6.097
 3974TIP3    H111879   2.719   1.015   6.164
 3974TIP3    H211880   2.756   0.969   6.025
 3975TIP3   OH211881   4.589   7.523   4.324
 3975TIP3    H111882   4.552   7.436   4.341
 3975TIP3    H211883   4.512   7.577   4.304
 3976TIP3   OH211884   3.477   6.735   3.107
 3976TIP3    H111885   3.383   6.714   3.112
 3976TIP3    H211886   3.501   6.716   3.016
 3977TIP3   OH211887   4.687   1.184   5.611
 3977TIP3    H111888   4.625   1.246   5.572
 3977TIP3    H211889   4.750   1.166   5.541
 3978TIP3   OH211890   2.219   3.907   1.353
 3978TIP3    H111891   2.175   3.952   1.425
 3978TIP3    H211892   2.295   3.864   1.393
 3979TIP3   OH211893   1.321   4.258   6.155
 3979TIP3    H111894   1.260   4.328   6.132
 3979TIP3    H211895   1.392   4.303   6.201
 3980TIP3   OH211896   5.898   6.532   6.763
 3980TIP3    H111897   5.993   6.545   6.760
 3980TIP3    H211898   5.878   6.482   6.684
 3981TIP3   OH211899   0.349   4.055   2.935
 3981TIP3    H111900   0.305   3.971   2.923
 3981TIP3    H211901   0.280   4.116   2.962
 3982TIP3   OH211902   3.740   0.458   2.573
 3982TIP3    H111903   3.780   0.372   2.583
 3982TIP3    H211904   3.741   0.474   2.478
 3983TIP3   OH211905   3.975   4.369   0.837
 3983TIP3    H111906   4.018   4.288   0.865
 3983TIP3    H211907   3.882   4.352   0.851
 3984TIP3   OH211908   4.919   3.974   3.475
 3984TIP3    H111909   4.914   3.881   3.493
 3984TIP3    H211910   4.952   3.981   3.386
 3985TIP3   OH211911   7.561   1.580   1.585
 3985TIP3    H111912   7.489   1.517   1.576
 3985TIP3    H211913   7.572   1.616   1.497
 3986TIP3   OH211914   5.462   6.855   0.361
 3986TIP3    H111915   5.464   6.933   0.306
 3986TIP3    H211916   5.505   6.787   0.308
 3987TIP3   OH211917   4.538   1.716   6.274
 3987TIP3    H111918   4.599   1.740   6.344
 3987TIP3    H211919   4.539   1.620   6.273
 3988TIP3   OH211920   5.439   3.910   2.446
 3988TIP3    H111921   5.347   3.936   2.440
 3988TIP3    H211922   5.460   3.877   2.359
 3989TIP3   OH211923   7.239   5.402   1.009
 3989TIP3    H111924   7.295   5.470   1.049
 3989TIP3    H211925   7.154   5.414   1.050
 3990TIP3   OH211926   3.898   7.279   1.406
 3990TIP3    H111927   3.871   7.338   1.336
 3990TIP3    H211928   3.838   7.205   1.400
 3991TIP3   OH211929   0.424   5.209   3.911
 3991TIP3    H111930   0.362   5.234   3.980
 3991TIP3    H211931   0.510   5.214   3.954
 3992TIP3   OH211932   6.105   3.992   4.854
 3992TIP3    H111933   6.180   3.933   4.849
 3992TIP3    H211934   6.060   3.967   4.934
 3993TIP3   OH211935   7.871   5.137   1.313
 3993TIP3    H111936   7.778   5.117   1.325
 3993TIP3    H211937   7.912   5.113   1.396
 3994TIP3   OH211938   2.854   5.097   6.716
 3994TIP3    H111939   2.764   5.127   6.729
 3994TIP3    H211940   2.858   5.013   6.761
 3995TIP3   OH211941   1.521   7.321   3.898
 3995TIP3    H111942   1.584   7.364   3.955
 3995TIP3    H211943   1.477   7.392   3.852
 3996TIP3   OH211944   1.182   2.135   2.943
 3996TIP3    H111945   1.214   2.225   2.935
 3996TIP3    H211946   1.261   2.083   2.961
 3997TIP3   OH211947   3.475   6.289   4.380
 3997TIP3    H111948   3.507   6.365   4.428
 3997TIP3    H211949   3.408   6.251   4.437
 3998TIP3   OH211950   7.522   6.219   1.751
 3998TIP3    H111951   7.436   6.240   1.788
 3998TIP3    H211952   7.559   6.156   1.812
 3999TIP3   OH211953   2.204   4.744   2.620
 3999TIP3    H111954   2.225   4.695   2.699
 3999TIP3    H211955   2.144   4.813   2.650
 4000TIP3   OH211956   0.281   7.148   0.394
 4000TIP3    H111957   0.290   7.214   0.462
 4000TIP3    H211958   0.361   7.156   0.342
 4001TIP3   OH211959   5.287   7.038   6.258
 4001TIP3    H111960   5.357   6.995   6.210
 4001TIP3    H211961   5.224   6.968   6.277
 4002TIP3   OH211962   6.588   3.042   4.251
 4002TIP3    H111963   6.596   3.054   4.156
 4002TIP3    H211964   6.582   3.131   4.286
 4003TIP3   OH211965   8.207   0.756   0.528
 4003TIP3    H111966   8.124   0.710   0.513
 4003TIP3    H211967   8.220   0.807   0.448
 4004TIP3   OH211968   5.408   3.556   3.931
 4004TIP3    H111969   5.450   3.523   3.852
 4004TIP3    H211970   5.345   3.488   3.956
 4005TIP3   OH211971   4.654   1.855   1.247
 4005TIP3    H111972   4.683   1.772   1.285
 4005TIP3    H211973   4.715   1.872   1.176
 4006TIP3   OH211974   1.704   2.366   2.307
 4006TIP3    H111975   1.700   2.294   2.369
 4006TIP3    H211976   1.622   2.360   2.258
 4007TIP3   OH211977   5.419   7.711   0.761
 4007TIP3    H111978   5.406   7.782   0.824
 4007TIP3    H211979   5.419   7.632   0.814
 4008TIP3   OH211980   3.181   0.240   5.119
 4008TIP3    H111981   3.186   0.234   5.024
 4008TIP3    H211982   3.087   0.245   5.138
 4009TIP3   OH211983   2.591   6.615   3.783
 4009TIP3    H111984   2.526   6.664   3.834
 4009TIP3    H211985   2.540   6.562   3.722
 4010TIP3   OH211986   3.526   2.465   0.261
 4010TIP3    H111987   3.593   2.455   0.193
 4010TIP3    H211988   3.575   2.490   0.340
 4011TIP3   OH211989   1.513   4.592   0.289
 4011TIP3    H111990   1.552   4.589   0.202
 4011TIP3    H211991   1.424   4.561   0.278
 4012TIP3   OH211992   4.681   2.018   4.270
 4012TIP3    H111993   4.661   1.925   4.278
 4012TIP3    H211994   4.624   2.060   4.335
 4013TIP3   OH211995   2.062   0.769   0.089
 4013TIP3    H111996   2.045   0.781   0.182
 4013TIP3    H211997   1.991   0.817   0.046
 4014TIP3   OH211998   3.249   6.311   5.080
 4014TIP3    H111999   3.183   6.329   5.014
 4014TIP3    H212000   3.319   6.267   5.033
 4015TIP3   OH212001   6.192   1.627   1.625
 4015TIP3    H112002   6.199   1.653   1.533
 4015TIP3    H212003   6.108   1.663   1.654
 4016TIP3   OH212004   0.421   3.183   1.391
 4016TIP3    H112005   0.402   3.232   1.311
 4016TIP3    H212006   0.346   3.124   1.400
 4017TIP3   OH212007   7.700   5.238   5.988
 4017TIP3    H112008   7.745   5.154   5.979
 4017TIP3    H212009   7.748   5.283   6.057
 4018TIP3   OH212010   6.303   6.499   5.615
 4018TIP3    H112011   6.276   6.588   5.640
 4018TIP3    H212012   6.390   6.510   5.577
 4019TIP3   OH212013   6.514   7.711   1.797
 4019TIP3    H112014   6.523   7.617   1.815
 4019TIP3    H212015   6.601   7.746   1.814
 4020TIP3   OH212016   1.287   7.648   4.330
 4020TIP3    H112017   1.199   7.665   4.363
 4020TIP3    H212018   1.343   7.658   4.407
 4021TIP3   OH212019   3.871   6.595   0.828
 4021TIP3    H112020   3.865   6.541   0.907
 4021TIP3    H212021   3.945   6.654   0.845
 4022TIP3   OH212022   2.812   7.554   3.407
 4022TIP3    H112023   2.900   7.583   3.385
 4022TIP3    H212024   2.772   7.627   3.454
 4023TIP3   OH212025   0.919   7.786   1.964
 4023TIP3    H112026   0.976   7.711   1.986
 4023TIP3    H212027   0.860   7.793   2.038
 4024TIP3   OH212028   8.049   3.383   4.569
 4024TIP3    H112029   8.042   3.394   4.474
 4024TIP3    H212030   7.975   3.431   4.604
 4025TIP3   OH212031   2.467   7.061   3.732
 4025TIP3    H112032   2.562   7.063   3.731
 4025TIP3    H212033   2.443   7.074   3.824
 4026TIP3   OH212034   7.022   5.003   5.457
 4026TIP3    H112035   7.091   4.990   5.522
 4026TIP3    H212036   7.053   4.954   5.380
 4027TIP3   OH212037   2.123   1.126   4.254
 4027TIP3    H112038   2.063   1.184   4.209
 4027TIP3    H212039   2.080   1.106   4.337
 4028TIP3   OH212040   6.085   0.416   1.704
 4028TIP3    H112041   6.133   0.481   1.756
 4028TIP3    H212042   5.993   0.438   1.717
 4029TIP3   OH212043   6.966   3.714   4.721
 4029TIP3    H112044   6.875   3.715   4.753
 4029TIP3    H212045   7.019   3.732   4.799
 4030TIP3   OH212046   0.722   0.997   4.372
 4030TIP3    H112047   0.731   0.918   4.425
 4030TIP3    H212048   0.812   1.022   4.350
 4031TIP3   OH212049   8.080   5.217   6.238
 4031TIP3    H112050   8.071   5.135   6.288
 4031TIP3    H212051   7.994   5.230   6.199
 4032TIP3   OH212052   3.441   6.924   0.113
 4032TIP3    H112053   3.447   6.893   0.204
 4032TIP3    H212054   3.454   6.846   0.060
 4033TIP3   OH212055   1.914   4.773   3.105
 4033TIP3    H112056   1.845   4.707   3.100
 4033TIP3    H212057   1.883   4.846   3.051
 4034TIP3   OH212058   5.214   4.109   2.265
 4034TIP3    H112059   5.140   4.146   2.217
 4034TIP3    H212060   5.221   4.019   2.232
 4035TIP3   OH212061   4.304   5.366   1.278
 4035TIP3    H112062   4.376   5.328   1.328
 4035TIP3    H212063   4.307   5.321   1.194
 4036TIP3   OH212064   4.176   7.155   1.186
 4036TIP3    H112065   4.240   7.122   1.250
 4036TIP3    H212066   4.195   7.248   1.180
 4037TIP3   OH212067   2.401   6.796   3.945
 4037TIP3    H112068   2.369   6.886   3.939
 4037TIP3    H212069   2.476   6.802   4.004
 4038TIP3   OH212070   7.642   5.306   1.544
 4038TIP3    H112071   7.580   5.344   1.481
 4038TIP3    H212072   7.656   5.217   1.514
 4039TIP3   OH212073   5.729   4.074   6.152
 4039TIP3    H112074   5.784   4.125   6.211
 4039TIP3    H212075   5.783   4.063   6.073
 4040TIP3   OH212076   6.385   4.138   4.932
 4040TIP3    H112077   6.360   4.149   5.024
 4040TIP3    H212078   6.303   4.144   4.884
 4041TIP3   OH212079   0.524   0.491   0.974
 4041TIP3    H112080   0.520   0.582   0.943
 4041TIP3    H212081   0.440   0.476   1.016
 4042TIP3   OH212082   2.669   6.689   4.898
 4042TIP3    H112083   2.680   6.609   4.846
 4042TIP3    H212084   2.704   6.759   4.843
 4043TIP3   OH212085   3.370   7.829   5.868
 4043TIP3    H112086   3.281   7.829   5.903
 4043TIP3    H212087   3.359   7.816   5.774
 4044TIP3   OH212088   8.137   4.891   1.748
 4044TIP3    H112089   8.222   4.848   1.754
 4044TIP3    H212090   8.084   4.832   1.694
 4045TIP3   OH212091   7.224   0.408   6.236
 4045TIP3    H112092   7.166   0.332   6.230
 4045TIP3    H212093   7.235   0.422   6.331
 4046TIP3   OH212094   7.660   6.895   5.647
 4046TIP3    H112095   7.684   6.849   5.567
 4046TIP3    H212096   7.738   6.889   5.702
 4047TIP3   OH212097   7.715   1.621   5.196
 4047TIP3    H112098   7.717   1.692   5.132
 4047TIP3    H212099   7.773   1.651   5.266
 4048TIP3   OH212100   7.488   3.428   6.483
 4048TIP3    H112101   7.451   3.340   6.481
 4048TIP3    H212102   7.567   3.422   6.429
 4049TIP3   OH212103   3.848   1.066   4.959
 4049TIP3    H112104   3.923   1.009   4.948
 4049TIP3    H212105   3.775   1.018   4.919
 4050TIP3   OH212106   2.003   6.028   3.798
 4050TIP3    H112107   1.992   6.028   3.893
 4050TIP3    H212108   1.916   6.005   3.765
 4051TIP3   OH212109   1.978   1.323   2.918
 4051TIP3    H112110   1.931   1.399   2.952
 4051TIP3    H212111   1.913   1.252   2.918
 4052TIP3   OH212112   5.317   5.621   1.129
 4052TIP3    H112113   5.262   5.595   1.204
 4052TIP3    H212114   5.278   5.702   1.098
 4053TIP3   OH212115   8.096   2.147   1.105
 4053TIP3    H112116   8.049   2.230   1.116
 4053TIP3    H212117   8.070   2.117   1.018
 4054TIP3   OH212118   7.993   6.619   2.197
 4054TIP3    H112119   8.000   6.536   2.151
 4054TIP3    H212120   7.942   6.675   2.139
 4055TIP3   OH212121   7.878   5.338   2.374
 4055TIP3    H112122   7.893   5.432   2.380
 4055TIP3    H212123   7.950   5.299   2.423
 4056TIP3   OH212124   3.305   4.429   3.247
 4056TIP3    H112125   3.315   4.340   3.280
 4056TIP3    H212126   3.211   4.447   3.256
 4057TIP3   OH212127   6.306   2.861   1.907
 4057TIP3    H112128   6.295   2.788   1.969
 4057TIP3    H212129   6.228   2.915   1.920
 4058TIP3   OH212130   2.461   3.484   5.374
 4058TIP3    H112131   2.385   3.453   5.424
 4058TIP3    H212132   2.443   3.459   5.284
 4059TIP3   OH212133   7.060   0.383   0.493
 4059TIP3    H112134   7.049   0.331   0.573
 4059TIP3    H212135   7.155   0.389   0.481
 4060TIP3   OH212136   1.025   7.378   3.376
 4060TIP3    H112137   1.054   7.287   3.388
 4060TIP3    H212138   1.096   7.430   3.414
 4061TIP3   OH212139   7.013   5.015   6.598
 4061TIP3    H112140   7.018   5.081   6.667
 4061TIP3    H212141   7.001   4.933   6.646
 4062TIP3   OH212142   2.582   0.329   0.747
 4062TIP3    H112143   2.645   0.272   0.791
 4062TIP3    H212144   2.627   0.360   0.669
 4063TIP3   OH212145   5.961   3.014   2.226
 4063TIP3    H112146   6.027   2.952   2.257
 4063TIP3    H212147   5.969   3.090   2.283
 4064TIP3   OH212148   3.273   7.844   4.485
 4064TIP3    H112149   3.233   7.763   4.454
 4064TIP3    H212150   3.318   7.820   4.565
 4065TIP3   OH212151   8.171   2.947   3.933
 4065TIP3    H112152   8.075   2.944   3.930
 4065TIP3    H212153   8.194   2.886   4.003
 4066TIP3   OH212154   2.466   5.471   3.358
 4066TIP3    H112155   2.455   5.454   3.265
 4066TIP3    H212156   2.434   5.560   3.370
 4067TIP3   OH212157   3.765   5.255   1.884
 4067TIP3    H112158   3.726   5.342   1.880
 4067TIP3    H212159   3.846   5.263   1.834
 4068TIP3   OH212160   2.388   2.839   6.394
 4068TIP3    H112161   2.436   2.813   6.473
 4068TIP3    H212162   2.306   2.876   6.427
 4069TIP3   OH212163   2.195   4.153   2.797
 4069TIP3    H112164   2.263   4.201   2.751
 4069TIP3    H212165   2.135   4.124   2.727
 4070TIP3   OH212166   3.193   5.911   2.357
 4070TIP3    H112167   3.279   5.952   2.368
 4070TIP3    H212168   3.165   5.890   2.446
 4071TIP3   OH212169   4.558   3.053   2.323
 4071TIP3    H112170   4.637   3.039   2.375
 4071TIP3    H212171   4.491   3.076   2.388
 4072TIP3   OH212172   5.508   0.823   2.800
 4072TIP3    H112173   5.593   0.785   2.824
 4072TIP3    H212174   5.459   0.827   2.882
 4073TIP3   OH212175   1.319   1.978   1.125
 4073TIP3    H112176   1.341   2.023   1.044
 4073TIP3    H212177   1.385   1.908   1.133
 4074TIP3   OH212178   7.055   1.698   3.428
 4074TIP3    H112179   7.071   1.787   3.458
 4074TIP3    H212180   7.032   1.707   3.336
 4075TIP3   OH212181   6.511   5.995   1.836
 4075TIP3    H112182   6.580   6.060   1.821
 4075TIP3    H212183   6.431   6.046   1.842
 4076TIP3   OH212184   4.505   0.687   4.828
 4076TIP3    H112185   4.463   0.721   4.749
 4076TIP3    H212186   4.434   0.644   4.877
 4077TIP3   OH212187   7.779   5.660   1.099
 4077TIP3    H112188   7.820   5.576   1.079
 4077TIP3    H212189   7.757   5.698   1.014
 4078TIP3   OH212190   3.741   1.497   0.124
 4078TIP3    H112191   3.744   1.464   0.214
 4078TIP3    H212192   3.832   1.498   0.096
 4079TIP3   OH212193   7.825   3.398   2.213
 4079TIP3    H112194   7.810   3.389   2.119
 4079TIP3    H212195   7.763   3.465   2.241
 4080TIP3   OH212196   5.000   4.388   3.069
 4080TIP3    H112197   4.908   4.415   3.079
 4080TIP3    H212198   5.002   4.341   2.986
 4081TIP3   OH212199   6.902   5.267   5.604
 4081TIP3    H112200   6.866   5.179   5.597
 4081TIP3    H212201   6.920   5.294   5.514
 4082TIP3   OH212202   5.629   4.585   1.830
 4082TIP3    H112203   5.674   4.501   1.841
 4082TIP3    H212204   5.634   4.626   1.916
 4083TIP3   OH212205   2.053   0.164   0.957
 4083TIP3    H112206   2.140   0.195   0.979
 4083TIP3    H212207   2.017   0.132   1.040
 4084TIP3   OH212208   3.101   2.354   1.417
 4084TIP3    H112209   3.107   2.265   1.452
 4084TIP3    H212210   3.192   2.380   1.402
 4085TIP3   OH212211   1.574   0.942   2.628
 4085TIP3    H112212   1.553   0.871   2.688
 4085TIP3    H212213   1.617   0.899   2.554
 4086TIP3   OH212214   8.096   0.255   5.311
 4086TIP3    H112215   8.141   0.284   5.232
 4086TIP3    H212216   8.012   0.221   5.280
 4087TIP3   OH212217   4.749   0.766   4.982
 4087TIP3    H112218   4.813   0.697   4.963
 4087TIP3    H212219   4.673   0.744   4.928
 4088TIP3   OH212220   1.656   1.170   3.466
 4088TIP3    H112221   1.683   1.120   3.389
 4088TIP3    H212222   1.591   1.232   3.433
 4089TIP3   OH212223   3.995   5.853   2.400
 4089TIP3    H112224   4.084   5.833   2.371
 4089TIP3    H212225   4.004   5.874   2.493
 4090TIP3   OH212226   1.722   0.043   4.045
 4090TIP3    H112227   1.695   0.128   4.080
 4090TIP3    H212228   1.727   0.056   3.951
 4091TIP3   OH212229   2.584   1.973   6.689
 4091TIP3    H112230   2.542   1.953   6.605
 4091TIP3    H212231   2.667   1.925   6.686
 4092TIP3   OH212232   5.560   1.990   5.118
 4092TIP3    H112233   5.557   2.084   5.098
 4092TIP3    H212234   5.595   1.985   5.207
 4093TIP3   OH212235   1.536   2.004   6.595
 4093TIP3    H112236   1.460   2.037   6.642
 4093TIP3    H212237   1.544   1.913   6.624
 4094TIP3   OH212238   2.371   4.306   1.526
 4094TIP3    H112239   2.356   4.225   1.574
 4094TIP3    H212240   2.428   4.357   1.583
 4095TIP3   OH212241   0.383   3.083   2.450
 4095TIP3    H112242   0.471   3.081   2.488
 4095TIP3    H212243   0.353   2.992   2.453
 4096TIP3   OH212244   5.420   1.986   4.275
 4096TIP3    H112245   5.473   1.908   4.294
 4096TIP3    H212246   5.484   2.052   4.248
 4097TIP3   OH212247   7.330   2.969   1.191
 4097TIP3    H112248   7.264   3.035   1.169
 4097TIP3    H212249   7.340   2.976   1.286
 4098TIP3   OH212250   2.062   4.440   1.225
 4098TIP3    H112251   2.053   4.358   1.274
 4098TIP3    H212252   2.132   4.423   1.163
 4099TIP3   OH212253   2.040   4.829   4.287
 4099TIP3    H112254   2.063   4.760   4.224
 4099TIP3    H212255   2.081   4.908   4.252
 4100TIP3   OH212256   0.469   3.171   5.818
 4100TIP3    H112257   0.416   3.233   5.868
 4100TIP3    H212258   0.405   3.116   5.772
 4101TIP3   OH212259   7.368   6.819   2.337
 4101TIP3    H112260   7.431   6.865   2.392
 4101TIP3    H212261   7.417   6.746   2.300
 4102TIP3   OH212262   3.961   5.844   1.756
 4102TIP3    H112263   3.895   5.907   1.786
 4102TIP3    H212264   4.043   5.877   1.792
 4103TIP3   OH212265   0.128   1.197   2.756
 4103TIP3    H112266   0.181   1.237   2.825
 4103TIP3    H212267   0.162   1.108   2.749
 4104TIP3   OH212268   3.591   5.337   1.494
 4104TIP3    H112269   3.577   5.406   1.429
 4104TIP3    H212270   3.647   5.378   1.560
 4105TIP3   OH212271   1.848   1.408   6.562
 4105TIP3    H112272   1.772   1.389   6.507
 4105TIP3    H212273   1.922   1.410   6.501
 4106TIP3   OH212274   2.524   3.871   0.104
 4106TIP3    H112275   2.598   3.876   0.164
 4106TIP3    H212276   2.462   3.937   0.135
 4107TIP3   OH212277   5.392   4.119   4.830
 4107TIP3    H112278   5.486   4.114   4.817
 4107TIP3    H212279   5.381   4.152   4.919
 4108TIP3   OH212280   0.953   1.303   5.330
 4108TIP3    H112281   0.859   1.319   5.337
 4108TIP3    H212282   0.994   1.389   5.338
 4109TIP3   OH212283   4.703   3.479   0.551
 4109TIP3    H112284   4.742   3.401   0.511
 4109TIP3    H212285   4.702   3.544   0.482
 4110TIP3   OH212286   1.019   6.278  -0.014
 4110TIP3    H112287   1.014   6.193   0.029
 4110TIP3    H212288   0.927   6.304  -0.026
 4111TIP3   OH212289   0.038   0.299   4.262
 4111TIP3    H112290   0.009   0.368   4.321
 4111TIP3    H212291   0.125   0.327   4.233
 4112TIP3   OH212292   6.140   6.501   0.595
 4112TIP3    H112293   6.174   6.527   0.680
 4112TIP3    H212294   6.161   6.575   0.537
 4113TIP3   OH212295   4.151   2.684   1.394
 4113TIP3    H112296   4.205   2.605   1.404
 4113TIP3    H212297   4.215   2.756   1.391
 4114TIP3   OH212298   5.768   0.093   1.520
 4114TIP3    H112299   5.743   0.182   1.544
 4114TIP3    H212300   5.823   0.063   1.592
 4115TIP3   OH212301   7.876   6.149   2.257
 4115TIP3    H112302   7.964   6.122   2.282
 4115TIP3    H212303   7.881   6.163   2.162
 4116TIP3   OH212304   8.206   5.080   1.303
 4116TIP3    H112305   8.260   5.016   1.351
 4116TIP3    H212306   8.118   5.068   1.338
 4117TIP3   OH212307   2.910   6.614   6.476
 4117TIP3    H112308   2.830   6.623   6.425
 4117TIP3    H212309   2.976   6.663   6.427
 4118TIP3   OH212310   5.947   2.013   6.777
 4118TIP3    H112311   6.019   2.004   6.714
 4118TIP3    H212312   5.872   1.972   6.734
 4119TIP3   OH212313   0.496   5.167   1.427
 4119TIP3    H112314   0.454   5.169   1.513
 4119TIP3    H212315   0.589   5.179   1.445
 4120TIP3   OH212316   5.210   1.771   1.799
 4120TIP3    H112317   5.245   1.860   1.789
 4120TIP3    H212318   5.267   1.717   1.745
 4121TIP3   OH212319   0.251   1.751   5.894
 4121TIP3    H112320   0.223   1.668   5.931
 4121TIP3    H212321   0.347   1.746   5.894
 4122TIP3   OH212322   7.099   5.707   2.958
 4122TIP3    H112323   7.052   5.790   2.964
 4122TIP3    H212324   7.034   5.641   2.983
 4123TIP3   OH212325   2.523   0.794   5.412
 4123TIP3    H112326   2.601   0.843   5.385
 4123TIP3    H212327   2.558   0.711   5.445
 4124TIP3   OH212328   0.943   7.597   2.419
 4124TIP3    H112329   1.030   7.609   2.457
 4124TIP3    H212330   0.889   7.565   2.491
 4125TIP3   OH212331   6.092   1.806   4.478
 4125TIP3    H112332   6.117   1.834   4.390
 4125TIP3    H212333   6.097   1.885   4.532
 4126TIP3   OH212334   1.019   2.397   0.652
 4126TIP3    H112335   1.037   2.434   0.565
 4126TIP3    H212336   0.975   2.468   0.698
 4127TIP3   OH212337   4.571   5.058   6.415
 4127TIP3    H112338   4.647   5.115   6.402
 4127TIP3    H212339   4.609   4.971   6.432
 4128TIP3   OH212340   3.545   5.483   0.638
 4128TIP3    H112341   3.528   5.573   0.666
 4128TIP3    H212342   3.603   5.492   0.562
 4129TIP3   OH212343   1.357   2.779   1.268
 4129TIP3    H112344   1.383   2.871   1.272
 4129TIP3    H212345   1.439   2.731   1.274
 4130TIP3   OH212346   4.925   0.380   2.890
 4130TIP3    H112347   4.847   0.346   2.934
 4130TIP3    H212348   4.995   0.370   2.955
 4131TIP3   OH212349   6.438   7.018   5.707
 4131TIP3    H112350   6.461   6.975   5.789
 4131TIP3    H212351   6.408   7.105   5.733
 4132TIP3   OH212352   5.119   2.169   2.456
 4132TIP3    H112353   5.025   2.156   2.469
 4132TIP3    H212354   5.149   2.209   2.538
 4133TIP3   OH212355   6.389   5.105   2.393
 4133TIP3    H112356   6.378   5.018   2.356
 4133TIP3    H212357   6.436   5.154   2.326
 4134TIP3   OH212358   2.595   0.548   2.471
 4134TIP3    H112359   2.661   0.599   2.517
 4134TIP3    H212360   2.635   0.528   2.386
 4135TIP3   OH212361   6.627   3.586   0.911
 4135TIP3    H112362   6.613   3.503   0.955
 4135TIP3    H212363   6.700   3.570   0.851
 4136TIP3   OH212364   1.030   0.384   6.373
 4136TIP3    H112365   1.091   0.358   6.442
 4136TIP3    H212366   0.945   0.351   6.402
 4137TIP3   OH212367   4.594   5.604   6.709
 4137TIP3    H112368   4.647   5.597   6.788
 4137TIP3    H212369   4.650   5.573   6.638
 4138TIP3   OH212370   5.992   5.508   1.111
 4138TIP3    H112371   6.046   5.563   1.054
 4138TIP3    H212372   5.993   5.422   1.069
 4139TIP3   OH212373   5.301   3.240   1.203
 4139TIP3    H112374   5.302   3.203   1.115
 4139TIP3    H212375   5.365   3.187   1.251
 4140TIP3   OH212376   5.692   6.320   3.003
 4140TIP3    H112377   5.770   6.318   2.948
 4140TIP3    H212378   5.646   6.239   2.981
 4141TIP3   OH212379   1.531   2.188   3.257
 4141TIP3    H112380   1.574   2.274   3.258
 4141TIP3    H212381   1.444   2.204   3.294
 4142TIP3   OH212382   6.767   3.884   0.856
 4142TIP3    H112383   6.822   3.807   0.874
 4142TIP3    H212384   6.822   3.959   0.878
 4143TIP3   OH212385   2.294   7.425   3.066
 4143TIP3    H112386   2.373   7.370   3.067
 4143TIP3    H212387   2.306   7.485   3.139
 4144TIP3   OH212388   7.888   3.372   1.167
 4144TIP3    H112389   7.860   3.456   1.204
 4144TIP3    H212390   7.983   3.380   1.161
 4145TIP3   OH212391   4.318   5.633   1.391
 4145TIP3    H112392   4.394   5.665   1.343
 4145TIP3    H212393   4.317   5.539   1.376
 4146TIP3   OH212394   1.346   2.998   0.146
 4146TIP3    H112395   1.280   3.015   0.079
 4146TIP3    H212396   1.297   2.960   0.220
 4147TIP3   OH212397   8.267   1.299   3.428
 4147TIP3    H112398   8.333   1.341   3.483
 4147TIP3    H212399   8.227   1.371   3.379
 4148TIP3   OH212400   8.222   3.245   0.587
 4148TIP3    H112401   8.219   3.204   0.500
 4148TIP3    H212402   8.207   3.173   0.648
 4149TIP3   OH212403   1.774   3.777   1.025
 4149TIP3    H112404   1.817   3.716   1.085
 4149TIP3    H212405   1.812   3.757   0.940
 4150TIP3   OH212406   6.966   4.676   6.397
 4150TIP3    H112407   6.982   4.689   6.303
 4150TIP3    H212408   6.875   4.648   6.402
 4151TIP3   OH212409   6.789   0.501   0.814
 4151TIP3    H112410   6.733   0.543   0.748
 4151TIP3    H212411   6.791   0.563   0.887
 4152TIP3   OH212412   2.758   0.534   3.586
 4152TIP3    H112413   2.823   0.518   3.518
 4152TIP3    H212414   2.674   0.523   3.541
 4153TIP3   OH212415   2.005   0.234   1.428
 4153TIP3    H112416   1.923   0.207   1.470
 4153TIP3    H212417   1.978   0.279   1.348
 4154TIP3   OH212418   0.335   0.427   3.901
 4154TIP3    H112419   0.389   0.351   3.883
 4154TIP3    H212420   0.383   0.476   3.967
 4155TIP3   OH212421   3.749   3.590   0.384
 4155TIP3    H112422   3.813   3.586   0.313
 4155TIP3    H212423   3.699   3.670   0.367
 4156TIP3   OH212424   4.876   1.409   2.936
 4156TIP3    H112425   4.862   1.424   3.030
 4156TIP3    H212426   4.795   1.367   2.907
 4157TIP3   OH212427   3.294   6.086   1.152
 4157TIP3    H112428   3.207   6.067   1.185
 4157TIP3    H212429   3.312   6.015   1.090
 4158TIP3   OH212430   5.246   7.307   1.088
 4158TIP3    H112431   5.256   7.240   1.155
 4158TIP3    H212432   5.324   7.298   1.033
 4159TIP3   OH212433   5.798   0.208   3.248
 4159TIP3    H112434   5.731   0.149   3.281
 4159TIP3    H212435   5.816   0.267   3.321
 4160TIP3   OH212436   6.650   0.146   6.279
 4160TIP3    H112437   6.559   0.166   6.260
 4160TIP3    H212438   6.699   0.210   6.227
 4161TIP3   OH212439   1.048   2.830   1.316
 4161TIP3    H112440   1.020   2.739   1.328
 4161TIP3    H212441   1.139   2.824   1.287
 4162TIP3   OH212442   4.487   4.955   5.282
 4162TIP3    H112443   4.488   5.051   5.283
 4162TIP3    H212444   4.398   4.932   5.307
 4163TIP3   OH212445   2.974   5.740   1.730
 4163TIP3    H112446   2.929   5.730   1.814
 4163TIP3    H212447   3.067   5.744   1.753
 4164TIP3   OH212448   0.794   2.301   5.775
 4164TIP3    H112449   0.812   2.290   5.682
 4164TIP3    H212450   0.748   2.384   5.781
 4165TIP3   OH212451   6.036   3.074   3.249
 4165TIP3    H112452   6.027   2.980   3.233
 4165TIP3    H212453   6.130   3.090   3.245
 4166TIP3   OH212454   0.684   5.234   2.170
 4166TIP3    H112455   0.659   5.278   2.251
 4166TIP3    H212456   0.674   5.302   2.103
 4167TIP3   OH212457   7.973   3.214   3.465
 4167TIP3    H112458   7.946   3.268   3.390
 4167TIP3    H212459   7.930   3.254   3.540
 4168TIP3   OH212460   0.704   7.034   6.141
 4168TIP3    H112461   0.791   7.000   6.121
 4168TIP3    H212462   0.662   7.046   6.055
 4169TIP3   OH212463   3.886   4.757   1.398
 4169TIP3    H112464   3.879   4.825   1.331
 4169TIP3    H212465   3.979   4.737   1.403
 4170TIP3   OH212466   3.115   7.607   6.475
 4170TIP3    H112467   3.044   7.549   6.449
 4170TIP3    H212468   3.151   7.567   6.554
 4171TIP3   OH212469   3.554   0.452   1.526
 4171TIP3    H112470   3.486   0.501   1.479
 4171TIP3    H212471   3.613   0.520   1.558
 4172TIP3   OH212472   3.769   7.089   4.287
 4172TIP3    H112473   3.841   7.094   4.349
 4172TIP3    H212474   3.788   7.011   4.235
 4173TIP3   OH212475   5.029   6.024   1.868
 4173TIP3    H112476   4.958   6.005   1.807
 4173TIP3    H212477   4.998   5.990   1.952
 4174TIP3   OH212478   8.124   1.173  -0.001
 4174TIP3    H112479   8.031   1.188  -0.018
 4174TIP3    H212480   8.130   1.170   0.095
 4175TIP3   OH212481   0.626   2.604   4.941
 4175TIP3    H112482   0.571   2.676   4.909
 4175TIP3    H212483   0.708   2.613   4.892
 4176TIP3   OH212484   1.097   2.226   5.969
 4176TIP3    H112485   1.083   2.274   5.887
 4176TIP3    H212486   1.072   2.136   5.948
 4177TIP3   OH212487   1.401   7.346   1.614
 4177TIP3    H112488   1.314   7.321   1.583
 4177TIP3    H212489   1.385   7.394   1.696
 4178TIP3   OH212490   8.201   2.624   1.081
 4178TIP3    H112491   8.271   2.688   1.076
 4178TIP3    H212492   8.191   2.606   1.175
 4179TIP3   OH212493   2.146   5.079   4.232
 4179TIP3    H112494   2.197   5.100   4.154
 4179TIP3    H212495   2.210   5.076   4.303
 4180TIP3   OH212496   4.072   5.139   6.619
 4180TIP3    H112497   3.997   5.165   6.673
 4180TIP3    H212498   4.138   5.111   6.683
 4181TIP3   OH212499   1.985   1.395   1.756
 4181TIP3    H112500   1.993   1.309   1.795
 4181TIP3    H212501   2.041   1.392   1.679
 4182TIP3   OH212502   7.251   4.665   1.996
 4182TIP3    H112503   7.343   4.678   2.018
 4182TIP3    H212504   7.235   4.572   2.008
 4183TIP3   OH212505   4.245   7.340   5.227
 4183TIP3    H112506   4.298   7.386   5.291
 4183TIP3    H212507   4.289   7.355   5.143
 4184TIP3   OH212508   6.517   2.110   4.554
 4184TIP3    H112509   6.424   2.131   4.542
 4184TIP3    H212510   6.563   2.185   4.516
 4185TIP3   OH212511   1.595   5.299   1.371
 4185TIP3    H112512   1.574   5.375   1.317
 4185TIP3    H212513   1.618   5.337   1.456
 4186TIP3   OH212514   4.806   0.004   2.211
 4186TIP3    H112515   4.743   0.075   2.221
 4186TIP3    H212516   4.775  -0.044   2.134
 4187TIP3   OH212517   7.390   6.395   5.800
 4187TIP3    H112518   7.366   6.306   5.825
 4187TIP3    H212519   7.465   6.384   5.741
 4188TIP3   OH212520   4.442   3.283   6.575
 4188TIP3    H112521   4.479   3.300   6.488
 4188TIP3    H212522   4.505   3.224   6.617
 4189TIP3   OH212523   7.816   7.844   6.021
 4189TIP3    H112524   7.742   7.788   5.998
 4189TIP3    H212525   7.891   7.805   5.976
 4190TIP3   OH212526   5.821   4.485   0.598
 4190TIP3    H112527   5.854   4.510   0.512
 4190TIP3    H212528   5.853   4.396   0.610
 4191TIP3   OH212529   0.164  -0.008   0.496
 4191TIP3    H112530   0.082   0.018   0.454
 4191TIP3    H212531   0.156   0.022   0.587
 4192TIP3   OH212532   3.249   4.722   1.429
 4192TIP3    H112533   3.239   4.695   1.520
 4192TIP3    H212534   3.302   4.802   1.432
 4193TIP3   OH212535   7.050   1.452   3.123
 4193TIP3    H112536   7.037   1.358   3.133
 4193TIP3    H212537   7.027   1.470   3.032
 4194TIP3   OH212538   3.470   3.935   1.494
 4194TIP3    H112539   3.482   4.024   1.460
 4194TIP3    H212540   3.377   3.930   1.517
 4195TIP3   OH212541   6.864   3.570   5.065
 4195TIP3    H112542   6.800   3.630   5.103
 4195TIP3    H212543   6.882   3.507   5.134
 4196TIP3   OH212544   3.154   1.789   0.942
 4196TIP3    H112545   3.134   1.836   1.023
 4196TIP3    H212546   3.218   1.845   0.898
 4197TIP3   OH212547   3.290   1.641   3.139
 4197TIP3    H112548   3.263   1.707   3.203
 4197TIP3    H212549   3.291   1.559   3.189
 4198TIP3   OH212550   6.734   1.117   0.041
 4198TIP3    H112551   6.789   1.196   0.046
 4198TIP3    H212552   6.646   1.147   0.064
 4199TIP3   OH212553   7.234   5.094   4.599
 4199TIP3    H112554   7.281   5.166   4.556
 4199TIP3    H212555   7.279   5.082   4.682
 4200TIP3   OH212556   0.190   1.654   6.478
 4200TIP3    H112557   0.201   1.577   6.423
 4200TIP3    H212558   0.266   1.709   6.459
 4201TIP3   OH212559   4.677   1.939   4.737
 4201TIP3    H112560   4.736   1.935   4.662
 4201TIP3    H212561   4.646   2.030   4.740
 4202TIP3   OH212562   4.065   6.673   6.651
 4202TIP3    H112563   4.095   6.738   6.587
 4202TIP3    H212564   3.971   6.664   6.636
 4203TIP3   OH212565   3.492   4.036   0.635
 4203TIP3    H112566   3.478   4.092   0.711
 4203TIP3    H212567   3.568   4.073   0.590
 4204TIP3   OH212568   0.470   2.832   4.863
 4204TIP3    H112569   0.516   2.901   4.911
 4204TIP3    H212570   0.403   2.801   4.925
 4205TIP3   OH212571   0.849   2.383   1.855
 4205TIP3    H112572   0.925   2.325   1.862
 4205TIP3    H212573   0.839   2.420   1.943
 4206TIP3   OH212574   4.487   3.732   6.135
 4206TIP3    H112575   4.403   3.745   6.180
 4206TIP3    H212576   4.522   3.820   6.125
 4207TIP3   OH212577   4.070   3.788   0.056
 4207TIP3    H112578   4.023   3.803  -0.026
 4207TIP3    H212579   4.106   3.874   0.079
 4208TIP3   OH212580   7.657   6.320   2.302
 4208TIP3    H112581   7.749   6.295   2.294
 4208TIP3    H212582   7.612   6.268   2.235
 4209TIP3   OH212583   5.406   5.209   1.056
 4209TIP3    H112584   5.420   5.277   0.990
 4209TIP3    H212585   5.422   5.252   1.139
 4210TIP3   OH212586   5.772   2.729   3.314
 4210TIP3    H112587   5.803   2.639   3.322
 4210TIP3    H212588   5.815   2.776   3.384
 4211TIP3   OH212589   3.811   1.037   0.717
 4211TIP3    H112590   3.776   0.949   0.734
 4211TIP3    H212591   3.885   1.021   0.658
 4212TIP3   OH212592   3.847   1.892   1.605
 4212TIP3    H112593   3.899   1.923   1.530
 4212TIP3    H212594   3.912   1.878   1.674
 4213TIP3   OH212595   7.754   5.915   4.163
 4213TIP3    H112596   7.796   5.901   4.078
 4213TIP3    H212597   7.665   5.881   4.152
 4214TIP3   OH212598   4.244   5.166   5.223
 4214TIP3    H112599   4.332   5.195   5.199
 4214TIP3    H212600   4.207   5.134   5.140
 4215TIP3   OH212601   7.076   3.879   5.796
 4215TIP3    H112602   7.049   3.839   5.714
 4215TIP3    H212603   7.076   3.806   5.859
 4216TIP3   OH212604   7.787   0.030   6.733
 4216TIP3    H112605   7.747   0.095   6.790
 4216TIP3    H212606   7.807   0.078   6.652
 4217TIP3   OH212607   6.801   2.601   0.940
 4217TIP3    H112608   6.795   2.635   1.029
 4217TIP3    H212609   6.720   2.553   0.926
 4218TIP3   OH212610   0.155   2.860   5.357
 4218TIP3    H112611   0.114   2.775   5.344
 4218TIP3    H212612   0.082   2.920   5.375
 4219TIP3   OH212613   4.513   4.155   3.994
 4219TIP3    H112614   4.597   4.181   3.957
 4219TIP3    H212615   4.451   4.218   3.958
 4220TIP3   OH212616   4.724   0.670   0.499
 4220TIP3    H112617   4.665   0.679   0.573
 4220TIP3    H212618   4.668   0.680   0.422
 4221TIP3   OH212619   8.291   0.171   0.340
 4221TIP3    H112620   8.213   0.123   0.367
 4221TIP3    H212621   8.278   0.259   0.375
 4222TIP3   OH212622   7.544   5.481   2.299
 4222TIP3    H112623   7.592   5.519   2.372
 4222TIP3    H212624   7.465   5.443   2.338
 4223TIP3   OH212625   2.412   6.816   3.579
 4223TIP3    H112626   2.507   6.811   3.574
 4223TIP3    H212627   2.395   6.879   3.650
 4224TIP3   OH212628   6.548   6.263   5.069
 4224TIP3    H112629   6.630   6.221   5.096
 4224TIP3    H212630   6.483   6.229   5.131
 4225TIP3   OH212631   0.877   7.778   1.053
 4225TIP3    H112632   0.842   7.755   1.139
 4225TIP3    H212633   0.906   7.869   1.061
 4226TIP3   OH212634   6.451   0.854   4.435
 4226TIP3    H112635   6.489   0.909   4.368
 4226TIP3    H212636   6.370   0.821   4.397
 4227TIP3   OH212637   7.989   7.200   5.488
 4227TIP3    H112638   7.900   7.166   5.490
 4227TIP3    H212639   7.979   7.295   5.497
 4228TIP3   OH212640   2.498   2.463   0.232
 4228TIP3    H112641   2.455   2.546   0.209
 4228TIP3    H212642   2.457   2.438   0.315
 4229TIP3   OH212643   5.570   2.043   1.780
 4229TIP3    H112644   5.566   2.128   1.736
 4229TIP3    H212645   5.656   2.042   1.822
 4230TIP3   OH212646   7.089   1.806   2.317
 4230TIP3    H112647   7.016   1.771   2.369
 4230TIP3    H212648   7.149   1.841   2.383
 4231TIP3   OH212649   6.746   7.632   3.353
 4231TIP3    H112650   6.754   7.539   3.373
 4231TIP3    H212651   6.831   7.669   3.379
 4232TIP3   OH212652   6.391   7.665   5.009
 4232TIP3    H112653   6.486   7.649   5.010
 4232TIP3    H212654   6.367   7.667   5.102
 4233TIP3   OH212655   3.745   7.338   5.721
 4233TIP3    H112656   3.766   7.408   5.784
 4233TIP3    H212657   3.824   7.284   5.718
 4234TIP3   OH212658   6.737   5.948   4.694
 4234TIP3    H112659   6.744   6.033   4.738
 4234TIP3    H212660   6.643   5.934   4.684
 4235TIP3   OH212661   0.431   4.429   2.929
 4235TIP3    H112662   0.416   4.493   2.998
 4235TIP3    H212663   0.512   4.459   2.887
 4236TIP3   OH212664   0.510   3.578   0.636
 4236TIP3    H112665   0.539   3.503   0.584
 4236TIP3    H212666   0.588   3.631   0.648
 4237TIP3   OH212667   5.957   4.569   0.374
 4237TIP3    H112668   6.032   4.532   0.328
 4237TIP3    H212669   5.976   4.663   0.378
 4238TIP3   OH212670   3.612   5.022   0.563
 4238TIP3    H112671   3.581   4.940   0.602
 4238TIP3    H212672   3.558   5.090   0.604
 4239TIP3   OH212673   0.250   1.370   2.580
 4239TIP3    H112674   0.197   1.323   2.643
 4239TIP3    H212675   0.189   1.394   2.510
 4240TIP3   OH212676   6.423   6.041   3.583
 4240TIP3    H112677   6.479   6.097   3.529
 4240TIP3    H212678   6.336   6.049   3.543
 4241TIP3   OH212679   5.533   7.122   5.737
 4241TIP3    H112680   5.565   7.189   5.677
 4241TIP3    H212681   5.475   7.067   5.684
 4242TIP3   OH212682   3.661   7.092   5.842
 4242TIP3    H112683   3.688   7.176   5.803
 4242TIP3    H212684   3.703   7.026   5.787
 4243TIP3   OH212685   4.994   1.353   4.006
 4243TIP3    H112686   4.948   1.338   4.088
 4243TIP3    H212687   4.925   1.354   3.939
 4244TIP3   OH212688   1.744   0.815   1.420
 4244TIP3    H112689   1.757   0.892   1.475
 4244TIP3    H212690   1.652   0.819   1.394
 4245TIP3   OH212691   7.951   1.173   2.846
 4245TIP3    H112692   8.042   1.151   2.867
 4245TIP3    H212693   7.947   1.268   2.854
 4246TIP3   OH212694   3.005   4.667   3.701
 4246TIP3    H112695   2.983   4.584   3.743
 4246TIP3    H212696   2.920   4.706   3.679
 4247TIP3   OH212697   7.798   0.191   0.726
 4247TIP3    H112698   7.788   0.282   0.754
 4247TIP3    H212699   7.745   0.184   0.646
 4248TIP3   OH212700   7.644   2.266   2.087
 4248TIP3    H112701   7.581   2.226   2.027
 4248TIP3    H212702   7.601   2.263   2.172
 4249TIP3   OH212703   1.331   6.772   5.899
 4249TIP3    H112704   1.279   6.724   5.964
 4249TIP3    H212705   1.336   6.712   5.825
 4250TIP3   OH212706   8.233   2.129   6.353
 4250TIP3    H112707   8.279   2.105   6.272
 4250TIP3    H212708   8.292   2.102   6.423
 4251TIP3   OH212709   1.449   0.356   5.707
 4251TIP3    H112710   1.355   0.355   5.689
 4251TIP3    H212711   1.461   0.294   5.779
 4252TIP3   OH212712   1.168   1.520   6.479
 4252TIP3    H112713   1.258   1.498   6.456
 4252TIP3    H212714   1.126   1.435   6.495
 4253TIP3   OH212715   7.362   0.544   2.699
 4253TIP3    H112716   7.436   0.588   2.742
 4253TIP3    H212717   7.395   0.457   2.678
 4254TIP3   OH212718   5.757   1.346   5.569
 4254TIP3    H112719   5.755   1.302   5.484
 4254TIP3    H212720   5.850   1.359   5.587
 4255TIP3   OH212721   3.876   6.107   4.978
 4255TIP3    H112722   3.881   6.111   4.882
 4255TIP3    H212723   3.885   6.198   5.006
 4256TIP3   OH212724   5.132   1.654   6.189
 4256TIP3    H112725   5.197   1.690   6.249
 4256TIP3    H212726   5.117   1.724   6.125
 4257TIP3   OH212727   6.374   4.921   5.647
 4257TIP3    H112728   6.309   4.964   5.703
 4257TIP3    H212729   6.362   4.962   5.561
 4258TIP3   OH212730   3.679   4.535   2.694
 4258TIP3    H112731   3.733   4.586   2.633
 4258TIP3    H212732   3.707   4.564   2.781
 4259TIP3   OH212733   3.120   6.644   1.398
 4259TIP3    H112734   3.056   6.582   1.431
 4259TIP3    H212735   3.102   6.726   1.445
 4260TIP3   OH212736   0.922   6.236   1.116
 4260TIP3    H112737   0.952   6.259   1.204
 4260TIP3    H212738   1.002   6.221   1.067
 4261TIP3   OH212739   0.722   6.112   5.422
 4261TIP3    H112740   0.689   6.022   5.413
 4261TIP3    H212741   0.650   6.167   5.390
 4262TIP3   OH212742   0.207   4.197   3.474
 4262TIP3    H112743   0.206   4.103   3.456
 4262TIP3    H212744   0.173   4.205   3.562
 4263TIP3   OH212745   7.659   2.873   5.229
 4263TIP3    H112746   7.739   2.822   5.211
 4263TIP3    H212747   7.683   2.962   5.205
 4264TIP3   OH212748   1.344   7.788   5.153
 4264TIP3    H112749   1.370   7.776   5.245
 4264TIP3    H212750   1.390   7.720   5.105
 4265TIP3   OH212751   1.372   1.910   4.217
 4265TIP3    H112752   1.407   1.838   4.270
 4265TIP3    H212753   1.404   1.892   4.129
 4266TIP3   OH212754   4.069   4.144   0.911
 4266TIP3    H112755   4.099   4.061   0.875
 4266TIP3    H212756   4.118   4.155   0.992
 4267TIP3   OH212757   6.728   5.009   5.335
 4267TIP3    H112758   6.760   5.099   5.327
 4267TIP3    H212759   6.644   5.010   5.289
 4268TIP3   OH212760   7.564   4.085   4.192
 4268TIP3    H112761   7.578   3.998   4.155
 4268TIP3    H212762   7.487   4.118   4.146
 4269TIP3   OH212763   6.399   1.499   0.772
 4269TIP3    H112764   6.426   1.412   0.802
 4269TIP3    H212765   6.460   1.520   0.702
 4270TIP3   OH212766   7.752   3.183   5.547
 4270TIP3    H112767   7.746   3.176   5.451
 4270TIP3    H212768   7.805   3.107   5.573
 4271TIP3   OH212769   0.517   1.100   6.550
 4271TIP3    H112770   0.603   1.138   6.530
 4271TIP3    H212771   0.521   1.012   6.513
 4272TIP3   OH212772   2.409   6.051   3.519
 4272TIP3    H112773   2.456   6.032   3.601
 4272TIP3    H212774   2.470   6.103   3.468
 4273TIP3   OH212775   5.722   1.939   2.274
 4273TIP3    H112776   5.816   1.958   2.268
 4273TIP3    H212777   5.719   1.846   2.297
 4274TIP3   OH212778   3.652   0.279   5.471
 4274TIP3    H112779   3.681   0.245   5.556
 4274TIP3    H212780   3.562   0.249   5.462
 4275TIP3   OH212781   6.278   3.735   6.184
 4275TIP3    H112782   6.337   3.785   6.128
 4275TIP3    H212783   6.218   3.800   6.220
 4276TIP3   OH212784   0.346   0.908   5.649
 4276TIP3    H112785   0.253   0.926   5.640
 4276TIP3    H212786   0.374   0.960   5.725
 4277TIP3   OH212787   5.044   1.406   0.553
 4277TIP3    H112788   5.111   1.396   0.620
 4277TIP3    H212789   5.093   1.406   0.470
 4278TIP3   OH212790   3.003   0.612   3.353
 4278TIP3    H112791   3.087   0.567   3.345
 4278TIP3    H212792   2.980   0.637   3.263
 4279TIP3   OH212793   5.607   4.398   4.302
 4279TIP3    H112794   5.563   4.316   4.277
 4279TIP3    H212795   5.549   4.467   4.268
 4280TIP3   OH212796   4.760   1.349   6.479
 4280TIP3    H112797   4.793   1.404   6.408
 4280TIP3    H212798   4.838   1.328   6.531
 4281TIP3   OH212799   5.817   2.095   2.962
 4281TIP3    H112800   5.852   2.180   2.936
 4281TIP3    H212801   5.823   2.095   3.058
 4282TIP3   OH212802   6.947   6.334  -0.009
 4282TIP3    H112803   7.025   6.354   0.042
 4282TIP3    H212804   6.881   6.310   0.056
 4283TIP3   OH212805   6.920   0.775   1.240
 4283TIP3    H112806   6.970   0.698   1.266
 4283TIP3    H212807   6.853   0.785   1.308
 4284TIP3   OH212808   5.608   2.985   4.390
 4284TIP3    H112809   5.625   2.920   4.321
 4284TIP3    H212810   5.512   2.988   4.396
 4285TIP3   OH212811   0.942   4.499   5.268
 4285TIP3    H112812   0.979   4.412   5.279
 4285TIP3    H212813   0.848   4.486   5.268
 4286TIP3   OH212814   3.475   1.867   1.949
 4286TIP3    H112815   3.397   1.900   1.994
 4286TIP3    H212816   3.492   1.932   1.881
 4287TIP3   OH212817   0.150   2.909   0.050
 4287TIP3    H112818   0.073   2.857   0.074
 4287TIP3    H212819   0.126   2.949  -0.034
 4288TIP3   OH212820   3.635   5.783   3.306
 4288TIP3    H112821   3.620   5.706   3.361
 4288TIP3    H212822   3.656   5.748   3.220
 4289TIP3   OH212823   8.041   2.580   6.032
 4289TIP3    H112824   8.085   2.652   6.077
 4289TIP3    H212825   8.014   2.617   5.947
 4290TIP3   OH212826   0.369   1.110   1.075
 4290TIP3    H112827   0.439   1.166   1.042
 4290TIP3    H212828   0.351   1.144   1.163
 4291TIP3   OH212829   6.592   4.696   2.384
 4291TIP3    H112830   6.654   4.756   2.343
 4291TIP3    H212831   6.517   4.694   2.324
 4292TIP3   OH212832   6.654   0.489   1.852
 4292TIP3    H112833   6.712   0.520   1.921
 4292TIP3    H212834   6.611   0.412   1.889
 4293TIP3   OH212835   0.614   5.562   4.208
 4293TIP3    H112836   0.593   5.639   4.155
 4293TIP3    H212837   0.708   5.570   4.226
 4294TIP3   OH212838   7.253   5.552   3.853
 4294TIP3    H112839   7.311   5.488   3.896
 4294TIP3    H212840   7.197   5.584   3.923
 4295TIP3   OH212841   7.618   5.131   0.274
 4295TIP3    H112842   7.565   5.196   0.321
 4295TIP3    H212843   7.561   5.099   0.204
 4296TIP3   OH212844   5.418   7.130   4.323
 4296TIP3    H112845   5.349   7.173   4.373
 4296TIP3    H212846   5.458   7.069   4.385
 4297TIP3   OH212847   1.892   4.117   0.369
 4297TIP3    H112848   1.930   4.123   0.457
 4297TIP3    H212849   1.834   4.192   0.363
 4298TIP3   OH212850   2.160   4.644   6.074
 4298TIP3    H112851   2.250   4.662   6.047
 4298TIP3    H212852   2.122   4.730   6.090
 4299TIP3   OH212853   5.328   6.981   5.269
 4299TIP3    H112854   5.349   7.074   5.275
 4299TIP3    H212855   5.246   6.978   5.220
 4300TIP3   OH212856   5.312   5.916   1.536
 4300TIP3    H112857   5.313   5.884   1.446
 4300TIP3    H212858   5.374   5.989   1.536
 4301TIP3   OH212859   0.713   6.409   5.641
 4301TIP3    H112860   0.679   6.400   5.552
 4301TIP3    H212861   0.679   6.331   5.687
 4302TIP3   OH212862   0.435   1.226   6.290
 4302TIP3    H112863   0.439   1.308   6.241
 4302TIP3    H212864   0.519   1.183   6.272
 4303TIP3   OH212865   6.030   7.163   0.617
 4303TIP3    H112866   6.057   7.208   0.537
 4303TIP3    H212867   6.102   7.103   0.636
 4304TIP3   OH212868   5.715   2.255   4.658
 4304TIP3    H112869   5.741   2.347   4.659
 4304TIP3    H212870   5.727   2.225   4.748
 4305TIP3   OH212871   3.612   0.269   2.305
 4305TIP3    H112872   3.548   0.207   2.339
 4305TIP3    H212873   3.632   0.238   2.217
 4306TIP3   OH212874   5.744   1.991   2.706
 4306TIP3    H112875   5.777   2.045   2.778
 4306TIP3    H212876   5.771   2.039   2.627
 4307TIP3   OH212877   4.644   3.597   6.693
 4307TIP3    H112878   4.612   3.665   6.633
 4307TIP3    H212879   4.696   3.645   6.758
 4308TIP3   OH212880   0.843   5.261   0.344
 4308TIP3    H112881   0.845   5.356   0.328
 4308TIP3    H212882   0.850   5.254   0.439
 4309TIP3   OH212883   3.634   5.713   6.669
 4309TIP3    H112884   3.557   5.747   6.623
 4309TIP3    H212885   3.691   5.789   6.680
 4310TIP3   OH212886   4.179   5.611   6.214
 4310TIP3    H112887   4.248   5.677   6.201
 4310TIP3    H212888   4.099   5.662   6.224
 4311TIP3   OH212889   5.695   0.825   4.953
 4311TIP3    H112890   5.623   0.830   4.891
 4311TIP3    H212891   5.765   0.781   4.905
 4312TIP3   OH212892   1.944   3.710   4.468
 4312TIP3    H112893   1.945   3.655   4.546
 4312TIP3    H212894   1.857   3.697   4.431
 4313TIP3   OH212895   2.016   5.026   0.298
 4313TIP3    H112896   2.080   5.021   0.226
 4313TIP3    H212897   2.060   4.983   0.371
 4314TIP3   OH212898   6.788   0.027   4.930
 4314TIP3    H112899   6.803   0.075   4.849
 4314TIP3    H212900   6.875   0.011   4.966
 4315TIP3   OH212901   5.433   1.743   3.954
 4315TIP3    H112902   5.495   1.703   4.015
 4315TIP3    H212903   5.347   1.715   3.986
 4316TIP3   OH212904   5.972   2.304   2.792
 4316TIP3    H112905   5.891   2.353   2.778
 4316TIP3    H212906   6.039   2.371   2.804
 4317TIP3   OH212907   0.081   3.202   4.003
 4317TIP3    H112908   0.137   3.137   3.960
 4317TIP3    H212909  -0.008   3.174   3.984
 4318TIP3   OH212910   3.452   2.943   1.803
 4318TIP3    H112911   3.467   2.848   1.796
 4318TIP3    H212912   3.512   2.971   1.872
 4319TIP3   OH212913   7.479   2.919   3.949
 4319TIP3    H112914   7.486   3.000   3.899
 4319TIP3    H212915   7.550   2.925   4.013
 4320TIP3   OH212916   3.160   6.556   5.490
 4320TIP3    H112917   3.225   6.554   5.420
 4320TIP3    H212918   3.149   6.464   5.515
 4321TIP3   OH212919   5.948   6.965   0.379
 4321TIP3    H112920   5.976   6.905   0.448
 4321TIP3    H212921   6.018   7.031   0.376
 4322TIP3   OH212922   3.899   7.040   6.238
 4322TIP3    H112923   3.914   7.130   6.207
 4322TIP3    H212924   3.972   7.024   6.298
 4323TIP3   OH212925   7.985   2.396   1.084
 4323TIP3    H112926   8.043   2.436   1.148
 4323TIP3    H212927   7.897   2.424   1.111
 4324TIP3   OH212928   0.897   4.160   0.765
 4324TIP3    H112929   0.943   4.232   0.809
 4324TIP3    H212930   0.908   4.178   0.672
 4325TIP3   OH212931   6.197   2.217   5.124
 4325TIP3    H112932   6.260   2.289   5.121
 4325TIP3    H212933   6.118   2.255   5.163
 4326TIP3   OH212934   3.995   4.284   1.882
 4326TIP3    H112935   4.090   4.267   1.879
 4326TIP3    H212936   3.955   4.198   1.875
 4327TIP3   OH212937   6.828   1.780   5.537
 4327TIP3    H112938   6.781   1.850   5.582
 4327TIP3    H212939   6.780   1.700   5.562
 4328TIP3   OH212940   4.792   2.199   3.260
 4328TIP3    H112941   4.697   2.190   3.265
 4328TIP3    H212942   4.823   2.183   3.349
 4329TIP3   OH212943   3.493   1.972   0.095
 4329TIP3    H112944   3.529   1.891   0.059
 4329TIP3    H212945   3.526   2.041   0.036
 4330TIP3   OH212946   4.801   2.767   1.465
 4330TIP3    H112947   4.728   2.709   1.486
 4330TIP3    H212948   4.761   2.854   1.461
 4331TIP3   OH212949   2.636   4.852   0.340
 4331TIP3    H112950   2.632   4.817   0.251
 4331TIP3    H212951   2.710   4.806   0.380
 4332TIP3   OH212952   2.224   3.776   0.170
 4332TIP3    H112953   2.279   3.834   0.118
 4332TIP3    H212954   2.279   3.700   0.187
 4333TIP3   OH212955   0.815   2.465   0.260
 4333TIP3    H112956   0.801   2.437   0.351
 4333TIP3    H212957   0.908   2.448   0.244
 4334TIP3   OH212958   0.531   7.695   2.732
 4334TIP3    H112959   0.528   7.609   2.690
 4334TIP3    H212960   0.486   7.682   2.816
 4335TIP3   OH212961   4.311   5.518   2.815
 4335TIP3    H112962   4.290   5.569   2.737
 4335TIP3    H212963   4.281   5.572   2.888
 4336TIP3   OH212964   6.346   1.373   1.506
 4336TIP3    H112965   6.351   1.463   1.474
 4336TIP3    H212966   6.252   1.354   1.511
 4337TIP3   OH212967   3.510   3.582   6.135
 4337TIP3    H112968   3.572   3.637   6.087
 4337TIP3    H212969   3.527   3.493   6.103
 4338TIP3   OH212970   4.515   5.448   1.484
 4338TIP3    H112971   4.585   5.513   1.486
 4338TIP3    H212972   4.470   5.458   1.568
 4339TIP3   OH212973   2.493   7.721   0.477
 4339TIP3    H112974   2.475   7.745   0.568
 4339TIP3    H212975   2.425   7.658   0.454
 4340TIP3   OH212976   3.187   4.726   1.963
 4340TIP3    H112977   3.265   4.751   2.012
 4340TIP3    H212978   3.116   4.774   2.004
 4341TIP3   OH212979   2.176   2.968   5.800
 4341TIP3    H112980   2.252   2.921   5.833
 4341TIP3    H212981   2.176   2.950   5.706
 4342TIP3   OH212982   0.264   2.097   0.308
 4342TIP3    H112983   0.329   2.146   0.258
 4342TIP3    H212984   0.279   2.124   0.399
 4343TIP3   OH212985   4.381   2.659   4.677
 4343TIP3    H112986   4.339   2.685   4.595
 4343TIP3    H212987   4.475   2.662   4.659
 4344TIP3   OH212988   0.514   5.238   5.326
 4344TIP3    H112989   0.597   5.215   5.283
 4344TIP3    H212990   0.533   5.318   5.374
 4345TIP3   OH212991   5.795   6.982   4.826
 4345TIP3    H112992   5.827   7.006   4.739
 4345TIP3    H212993   5.742   6.904   4.811
 4346TIP3   OH212994   2.148   2.331   1.693
 4346TIP3    H112995   2.099   2.339   1.775
 4346TIP3    H212996   2.082   2.341   1.625
 4347TIP3   OH212997   4.890   6.164   6.465
 4347TIP3    H112998   4.807   6.195   6.502
 4347TIP3    H212999   4.957   6.215   6.510
 4348TIP3   OH213000   5.048   6.460   2.873
 4348TIP3    H113001   4.987   6.399   2.916
 4348TIP3    H213002   5.129   6.452   2.924
 4349TIP3   OH213003   7.730   2.342   0.661
 4349TIP3    H113004   7.655   2.341   0.602
 4349TIP3    H213005   7.713   2.270   0.722
 4350TIP3   OH213006   1.784   5.327   5.136
 4350TIP3    H113007   1.726   5.325   5.212
 4350TIP3    H213008   1.859   5.273   5.161
 4351TIP3   OH213009   6.315   1.727   6.393
 4351TIP3    H113010   6.226   1.762   6.405
 4351TIP3    H213011   6.301   1.634   6.375
 4352TIP3   OH213012   4.518   0.096   6.231
 4352TIP3    H113013   4.440   0.093   6.176
 4352TIP3    H213014   4.498   0.040   6.306
 4353TIP3   OH213015   0.173   4.216   0.260
 4353TIP3    H113016   0.199   4.246   0.347
 4353TIP3    H213017   0.246   4.163   0.230
 4354TIP3   OH213018   0.962   4.736   2.633
 4354TIP3    H113019   0.969   4.803   2.565
 4354TIP3    H213020   0.871   4.707   2.629
 4355TIP3   OH213021   7.377   4.483   5.668
 4355TIP3    H113022   7.445   4.508   5.605
 4355TIP3    H213023   7.310   4.441   5.615
 4356TIP3   OH213024   5.223   2.732   4.951
 4356TIP3    H113025   5.167   2.765   5.022
 4356TIP3    H213026   5.304   2.783   4.959
 4357TIP3   OH213027   7.272   3.848   6.494
 4357TIP3    H113028   7.264   3.757   6.467
 4357TIP3    H213029   7.353   3.851   6.546
 4358TIP3   OH213030   6.723   4.566   4.054
 4358TIP3    H113031   6.674   4.529   3.981
 4358TIP3    H213032   6.807   4.519   4.053
 4359TIP3   OH213033   2.822   5.627   5.224
 4359TIP3    H113034   2.748   5.625   5.164
 4359TIP3    H213035   2.893   5.669   5.175
 4360TIP3   OH213036   1.587   2.844   6.284
 4360TIP3    H113037   1.632   2.918   6.242
 4360TIP3    H213038   1.625   2.840   6.372
 4361TIP3   OH213039   3.750   6.339   3.952
 4361TIP3    H113040   3.808   6.398   4.001
 4361TIP3    H213041   3.664   6.350   3.993
 4362TIP3   OH213042   4.892   6.958   1.438
 4362TIP3    H113043   4.930   6.951   1.525
 4362TIP3    H213044   4.915   6.875   1.395
 4363TIP3   OH213045   2.389   7.830   4.518
 4363TIP3    H113046   2.363   7.750   4.563
 4363TIP3    H213047   2.380   7.809   4.425
 4364TIP3   OH213048   4.523   6.075   0.331
 4364TIP3    H113049   4.513   6.170   0.333
 4364TIP3    H213050   4.487   6.048   0.247
 4365TIP3   OH213051   3.275   3.677   1.253
 4365TIP3    H113052   3.270   3.741   1.182
 4365TIP3    H213053   3.243   3.724   1.330
 4366TIP3   OH213054   1.941   0.226   5.858
 4366TIP3    H113055   1.939   0.131   5.844
 4366TIP3    H213056   1.869   0.241   5.920
 4367TIP3   OH213057   2.370   5.712   5.323
 4367TIP3    H113058   2.443   5.770   5.299
 4367TIP3    H213059   2.293   5.753   5.285
 4368TIP3   OH213060   0.608   4.710   3.561
 4368TIP3    H113061   0.673   4.767   3.604
 4368TIP3    H213062   0.570   4.764   3.492
 4369TIP3   OH213063   3.296   4.878   6.122
 4369TIP3    H113064   3.201   4.862   6.119
 4369TIP3    H213065   3.329   4.839   6.042
 4370TIP3   OH213066   1.044   6.329   4.165
 4370TIP3    H113067   0.951   6.307   4.156
 4370TIP3    H213068   1.083   6.301   4.082
 4371TIP3   OH213069   0.800   1.586   1.259
 4371TIP3    H113070   0.876   1.644   1.273
 4371TIP3    H213071   0.800   1.569   1.165
 4372TIP3   OH213072   6.411   4.815   3.076
 4372TIP3    H113073   6.391   4.875   3.004
 4372TIP3    H213074   6.489   4.852   3.117
 4373TIP3   OH213075   6.371   1.574   4.551
 4373TIP3    H113076   6.439   1.641   4.555
 4373TIP3    H213077   6.298   1.611   4.600
 4374TIP3   OH213078   7.260   3.471   0.172
 4374TIP3    H113079   7.315   3.488   0.095
 4374TIP3    H213080   7.296   3.390   0.209
 4375TIP3   OH213081   0.708   6.880   4.081
 4375TIP3    H113082   0.726   6.840   3.996
 4375TIP3    H213083   0.790   6.924   4.105
 4376TIP3   OH213084   1.350   6.635   6.725
 4376TIP3    H113085   1.312   6.721   6.708
 4376TIP3    H213086   1.364   6.598   6.637
 4377TIP3   OH213087   2.673   0.103   0.040
 4377TIP3    H113088   2.604   0.160   0.072
 4377TIP3    H213089   2.754   0.147   0.065
 4378TIP3   OH213090   6.618   5.847   1.019
 4378TIP3    H113091   6.622   5.939   0.994
 4378TIP3    H213092   6.580   5.848   1.107
 4379TIP3   OH213093   2.050   7.629   3.023
 4379TIP3    H113094   2.122   7.580   2.982
 4379TIP3    H213095   1.982   7.632   2.956
 4380TIP3   OH213096   8.151   7.505   1.015
 4380TIP3    H113097   8.175   7.480   0.926
 4380TIP3    H213098   8.191   7.590   1.029
 4381TIP3   OH213099   0.917   6.087   0.653
 4381TIP3    H113100   0.972   6.164   0.665
 4381TIP3    H213101   0.864   6.107   0.576
 4382TIP3   OH213102   5.663   4.443   3.374
 4382TIP3    H113103   5.707   4.459   3.291
 4382TIP3    H213104   5.576   4.413   3.349
 4383TIP3   OH213105   7.911   0.437   1.945
 4383TIP3    H113106   7.913   0.531   1.961
 4383TIP3    H213107   7.974   0.401   2.008
 4384TIP3   OH213108   2.718   1.764   2.863
 4384TIP3    H113109   2.778   1.704   2.906
 4384TIP3    H213110   2.708   1.730   2.774
 4385TIP3   OH213111   6.588   3.005   5.855
 4385TIP3    H113112   6.500   2.970   5.847
 4385TIP3    H213113   6.641   2.951   5.796
 4386TIP3   OH213114   3.033   3.924   3.883
 4386TIP3    H113115   3.092   3.896   3.812
 4386TIP3    H213116   3.061   4.013   3.904
 4387TIP3   OH213117   2.251   1.831   3.998
 4387TIP3    H113118   2.303   1.771   4.051
 4387TIP3    H213119   2.233   1.783   3.918
 4388TIP3   OH213120   4.201   6.947   2.780
 4388TIP3    H113121   4.262   6.878   2.756
 4388TIP3    H213122   4.135   6.946   2.711
 4389TIP3   OH213123   3.072   3.488   4.013
 4389TIP3    H113124   3.154   3.524   4.048
 4389TIP3    H213125   3.070   3.398   4.044
 4390TIP3   OH213126   5.115   2.721   4.426
 4390TIP3    H113127   5.129   2.653   4.361
 4390TIP3    H213128   5.162   2.690   4.504
 4391TIP3   OH213129   2.800   4.250   2.589
 4391TIP3    H113130   2.781   4.315   2.520
 4391TIP3    H213131   2.794   4.300   2.670
 4392TIP3   OH213132   2.119   2.781   1.820
 4392TIP3    H113133   2.049   2.715   1.826
 4392TIP3    H213134   2.092   2.837   1.747
 4393TIP3   OH213135   2.001   3.188   1.344
 4393TIP3    H113136   2.076   3.168   1.288
 4393TIP3    H213137   1.943   3.112   1.334
 4394TIP3   OH213138   3.738   6.326   1.928
 4394TIP3    H113139   3.743   6.394   1.861
 4394TIP3    H213140   3.659   6.276   1.906
 4395TIP3   OH213141   3.060   6.484   2.835
 4395TIP3    H113142   2.989   6.439   2.882
 4395TIP3    H213143   3.032   6.575   2.831
 4396TIP3   OH213144   4.565   2.719   5.514
 4396TIP3    H113145   4.470   2.719   5.506
 4396TIP3    H213146   4.594   2.786   5.452
 4397TIP3   OH213147   7.116   1.385   6.669
 4397TIP3    H113148   7.207   1.391   6.638
 4397TIP3    H213149   7.063   1.397   6.590
 4398TIP3   OH213150   1.460   6.201   0.808
 4398TIP3    H113151   1.445   6.252   0.729
 4398TIP3    H213152   1.458   6.265   0.879
 4399TIP3   OH213153   6.012   3.793   2.675
 4399TIP3    H113154   6.019   3.881   2.637
 4399TIP3    H213155   5.949   3.749   2.619
 4400TIP3   OH213156   7.843   3.902   5.004
 4400TIP3    H113157   7.852   3.933   5.094
 4400TIP3    H213158   7.933   3.904   4.969
 4401TIP3   OH213159   0.692   5.384   1.841
 4401TIP3    H113160   0.609   5.371   1.888
 4401TIP3    H213161   0.688   5.475   1.810
 4402TIP3   OH213162   6.780   0.399   4.902
 4402TIP3    H113163   6.794   0.305   4.897
 4402TIP3    H213164   6.806   0.432   4.816
 4403TIP3   OH213165   4.417   0.102   4.185
 4403TIP3    H113166   4.344   0.041   4.173
 4403TIP3    H213167   4.485   0.070   4.127
 4404TIP3   OH213168   6.034   2.419   0.093
 4404TIP3    H113169   6.101   2.366   0.049
 4404TIP3    H213170   6.065   2.424   0.184
 4405TIP3   OH213171   1.274   6.299   2.211
 4405TIP3    H113172   1.184   6.272   2.228
 4405TIP3    H213173   1.307   6.235   2.149
 4406TIP3   OH213174   2.962   1.273   1.174
 4406TIP3    H113175   2.970   1.365   1.199
 4406TIP3    H213176   2.899   1.237   1.237
 4407TIP3   OH213177   3.058   0.980   2.680
 4407TIP3    H113178   3.075   0.886   2.679
 4407TIP3    H213179   3.043   1.003   2.588
 4408TIP3   OH213180   3.029   7.403   4.216
 4408TIP3    H113181   3.053   7.488   4.178
 4408TIP3    H213182   2.996   7.352   4.142
 4409TIP3   OH213183   8.052   4.678   4.170
 4409TIP3    H113184   8.075   4.743   4.104
 4409TIP3    H213185   8.020   4.729   4.244
 4410TIP3   OH213186   1.247   4.146   2.474
 4410TIP3    H113187   1.292   4.226   2.447
 4410TIP3    H213188   1.175   4.176   2.529
 4411TIP3   OH213189   1.012   3.734   4.866
 4411TIP3    H113190   0.985   3.788   4.792
 4411TIP3    H213191   0.932   3.687   4.891
 4412TIP3   OH213192   0.702   3.232   5.686
 4412TIP3    H113193   0.776   3.225   5.746
 4412TIP3    H213194   0.625   3.219   5.742
 4413TIP3   OH213195   3.408   2.063   6.431
 4413TIP3    H113196   3.369   2.142   6.468
 4413TIP3    H213197   3.501   2.084   6.419
 4414TIP3   OH213198   1.747   5.638   5.744
 4414TIP3    H113199   1.654   5.618   5.759
 4414TIP3    H213200   1.776   5.677   5.826
 4415TIP3   OH213201   2.290   6.146   5.974
 4415TIP3    H113202   2.343   6.122   5.898
 4415TIP3    H213203   2.311   6.238   5.989
 4416TIP3   OH213204   4.110   6.467   3.193
 4416TIP3    H113205   4.063   6.490   3.113
 4416TIP3    H213206   4.102   6.544   3.249
 4417TIP3   OH213207   6.381   5.367   4.198
 4417TIP3    H113208   6.377   5.463   4.191
 4417TIP3    H213209   6.306   5.336   4.148
 4418TIP3   OH213210   0.210   3.024   1.407
 4418TIP3    H113211   0.122   3.053   1.382
 4418TIP3    H213212   0.198   2.935   1.440
 4419TIP3   OH213213  -0.006   7.531   0.243
 4419TIP3    H113214  -0.008   7.582   0.324
 4419TIP3    H213215   0.029   7.590   0.177
 4420TIP3   OH213216   8.160   4.281   0.974
 4420TIP3    H113217   8.084   4.233   0.939
 4420TIP3    H213218   8.156   4.266   1.068
 4421TIP3   OH213219   5.005   4.720   4.038
 4421TIP3    H113220   5.049   4.788   3.987
 4421TIP3    H213221   5.016   4.747   4.129
 4422TIP3   OH213222   2.664   7.472   4.637
 4422TIP3    H113223   2.684   7.452   4.545
 4422TIP3    H213224   2.716   7.549   4.657
 4423TIP3   OH213225   1.895   5.853   5.291
 4423TIP3    H113226   1.815   5.825   5.247
 4423TIP3    H213227   1.894   5.806   5.375
 4424TIP3   OH213228   6.229   2.077   1.460
 4424TIP3    H113229   6.176   2.155   1.442
 4424TIP3    H213230   6.173   2.022   1.515
 4425TIP3   OH213231   6.318   0.769   6.180
 4425TIP3    H113232   6.344   0.787   6.270
 4425TIP3    H213233   6.245   0.829   6.164
 4426TIP3   OH213234   4.547   2.949   4.933
 4426TIP3    H113235   4.633   2.907   4.940
 4426TIP3    H213236   4.561   3.037   4.968
 4427TIP3   OH213237   3.875   6.653   0.352
 4427TIP3    H113238   3.832   6.704   0.284
 4427TIP3    H213239   3.942   6.712   0.388
 4428TIP3   OH213240   3.652   0.484   2.966
 4428TIP3    H113241   3.591   0.541   2.920
 4428TIP3    H213242   3.671   0.413   2.905
 4429TIP3   OH213243   0.669   0.812   3.028
 4429TIP3    H113244   0.632   0.759   3.098
 4429TIP3    H213245   0.758   0.833   3.059
 4430TIP3   OH213246   6.552   3.893   6.100
 4430TIP3    H113247   6.481   3.919   6.042
 4430TIP3    H213248   6.594   3.819   6.056
 4431TIP3   OH213249   8.186   0.922   2.707
 4431TIP3    H113250   8.212   0.895   2.795
 4431TIP3    H213251   8.265   0.959   2.668
 4432TIP3   OH213252   5.295   3.876   4.789
 4432TIP3    H113253   5.331   3.963   4.809
 4432TIP3    H213254   5.371   3.818   4.795
 4433TIP3   OH213255   0.448   7.545   5.300
 4433TIP3    H113256   0.469   7.471   5.244
 4433TIP3    H213257   0.409   7.506   5.378
 4434TIP3   OH213258   2.379   1.695   5.882
 4434TIP3    H113259   2.364   1.765   5.819
 4434TIP3    H213260   2.359   1.735   5.967
 4435TIP3   OH213261   7.004   6.790   4.003
 4435TIP3    H113262   6.949   6.828   3.934
 4435TIP3    H213263   6.971   6.827   4.084
 4436TIP3   OH213264   6.059   0.148   1.646
 4436TIP3    H113265   6.099   0.162   1.561
 4436TIP3    H213266   6.073   0.230   1.694
 4437TIP3   OH213267   6.114   7.527   3.424
 4437TIP3    H113268   6.048   7.459   3.412
 4437TIP3    H213269   6.163   7.528   3.342
 4438TIP3   OH213270   3.488   7.406   2.823
 4438TIP3    H113271   3.545   7.358   2.883
 4438TIP3    H213272   3.400   7.375   2.842
 4439TIP3   OH213273   0.162   3.829   2.292
 4439TIP3    H113274   0.114   3.805   2.372
 4439TIP3    H213275   0.234   3.766   2.287
 4440TIP3   OH213276   2.867   6.111   5.005
 4440TIP3    H113277   2.872   6.033   5.061
 4440TIP3    H213278   2.840   6.077   4.920
 4441TIP3   OH213279   5.113   4.784   2.629
 4441TIP3    H113280   5.154   4.712   2.677
 4441TIP3    H213281   5.178   4.810   2.565
 4442TIP3   OH213282   4.692   0.689   1.206
 4442TIP3    H113283   4.730   0.730   1.129
 4442TIP3    H213284   4.693   0.595   1.186
 4443TIP3   OH213285   8.236   5.248   0.890
 4443TIP3    H113286   8.239   5.344   0.894
 4443TIP3    H213287   8.159   5.230   0.835
 4444TIP3   OH213288   5.978   3.294   3.418
 4444TIP3    H113289   6.021   3.378   3.401
 4444TIP3    H213290   6.029   3.230   3.367
 4445TIP3   OH213291   8.053   4.982   6.598
 4445TIP3    H113292   8.093   5.066   6.618
 4445TIP3    H213293   8.049   4.980   6.502
 4446TIP3   OH213294   7.092   0.076   3.275
 4446TIP3    H113295   7.008   0.105   3.310
 4446TIP3    H213296   7.149   0.153   3.282
 4447TIP3   OH213297   0.689   5.373   3.316
 4447TIP3    H113298   0.744   5.445   3.347
 4447TIP3    H213299   0.750   5.311   3.275
 4448TIP3   OH213300   4.180   5.462   3.209
 4448TIP3    H113301   4.098   5.511   3.201
 4448TIP3    H213302   4.247   5.524   3.180
 4449TIP3   OH213303   4.898   4.227   0.996
 4449TIP3    H113304   4.888   4.167   0.922
 4449TIP3    H213305   4.821   4.283   0.991
 4450TIP3   OH213306   7.854   4.311   3.465
 4450TIP3    H113307   7.947   4.326   3.482
 4450TIP3    H213308   7.836   4.360   3.385
 4451TIP3   OH213309   1.813   5.086   2.274
 4451TIP3    H113310   1.852   5.164   2.313
 4451TIP3    H213311   1.868   5.014   2.304
 4452TIP3   OH213312   5.254   3.778   6.249
 4452TIP3    H113313   5.261   3.794   6.343
 4452TIP3    H213314   5.247   3.683   6.241
 4453TIP3   OH213315   2.451   6.290   5.605
 4453TIP3    H113316   2.369   6.336   5.626
 4453TIP3    H213317   2.520   6.351   5.630
 4454TIP3   OH213318   7.587   5.523   5.897
 4454TIP3    H113319   7.494   5.524   5.873
 4454TIP3    H213320   7.593   5.461   5.969
 4455TIP3   OH213321   6.349   2.872   2.679
 4455TIP3    H113322   6.416   2.871   2.611
 4455TIP3    H213323   6.329   2.965   2.691
 4456TIP3   OH213324   2.901   2.510   1.500
 4456TIP3    H113325   2.940   2.597   1.510
 4456TIP3    H213326   2.973   2.456   1.468
 4457TIP3   OH213327   6.564   3.417   1.310
 4457TIP3    H113328   6.511   3.385   1.237
 4457TIP3    H213329   6.653   3.416   1.277
 4458TIP3   OH213330   7.545   4.926   1.882
 4458TIP3    H113331   7.561   5.021   1.884
 4458TIP3    H213332   7.525   4.903   1.973
 4459TIP3   OH213333   2.106   0.029   2.632
 4459TIP3    H113334   2.031   0.056   2.579
 4459TIP3    H213335   2.124  -0.061   2.604
 4460TIP3   OH213336   3.878   5.255   5.764
 4460TIP3    H113337   3.797   5.304   5.749
 4460TIP3    H213338   3.946   5.307   5.721
 4461TIP3   OH213339   6.024   0.641   5.284
 4461TIP3    H113340   5.991   0.666   5.198
 4461TIP3    H213341   6.115   0.672   5.284
 4462TIP3   OH213342   2.824   6.381   0.697
 4462TIP3    H113343   2.789   6.411   0.781
 4462TIP3    H213344   2.756   6.323   0.663
 4463TIP3   OH213345   7.305   1.019   4.690
 4463TIP3    H113346   7.354   1.055   4.765
 4463TIP3    H213347   7.350   0.937   4.670
 4464TIP3   OH213348   3.510   4.384   6.436
 4464TIP3    H113349   3.498   4.341   6.521
 4464TIP3    H213350   3.509   4.478   6.457
 4465TIP3   OH213351   2.768   4.767   4.184
 4465TIP3    H113352   2.772   4.751   4.279
 4465TIP3    H213353   2.784   4.681   4.145
 4466TIP3   OH213354   5.471   2.432   5.267
 4466TIP3    H113355   5.406   2.502   5.263
 4466TIP3    H213356   5.469   2.392   5.180
 4467TIP3   OH213357   3.863   2.251   3.252
 4467TIP3    H113358   3.946   2.262   3.298
 4467TIP3    H213359   3.834   2.163   3.275
 4468TIP3   OH213360   3.060   3.189   0.690
 4468TIP3    H113361   3.153   3.213   0.683
 4468TIP3    H213362   3.046   3.129   0.617
 4469TIP3   OH213363   8.189   5.333   2.062
 4469TIP3    H113364   8.107   5.343   2.013
 4469TIP3    H213365   8.165   5.280   2.138
 4470TIP3   OH213366   8.027   3.935   5.830
 4470TIP3    H113367   7.974   3.924   5.752
 4470TIP3    H213368   8.089   3.861   5.828
 4471TIP3   OH213369   5.307   5.139   3.474
 4471TIP3    H113370   5.362   5.066   3.502
 4471TIP3    H213371   5.311   5.137   3.379
 4472TIP3   OH213372   2.207   1.902   0.899
 4472TIP3    H113373   2.273   1.971   0.892
 4472TIP3    H213374   2.254   1.822   0.877
 4473TIP3   OH213375   2.295   4.890   5.596
 4473TIP3    H113376   2.244   4.930   5.667
 4473TIP3    H213377   2.283   4.949   5.522
 4474TIP3   OH213378   8.323   5.770   4.255
 4474TIP3    H113379   8.276   5.840   4.209
 4474TIP3    H213380   8.266   5.749   4.329
 4475TIP3   OH213381   0.995   3.581   0.672
 4475TIP3    H113382   1.053   3.611   0.742
 4475TIP3    H213383   1.052   3.575   0.595
 4476TIP3   OH213384   3.214   4.947   0.617
 4476TIP3    H113385   3.220   5.040   0.636
 4476TIP3    H213386   3.246   4.904   0.696
 4477TIP3   OH213387   1.870   4.327   1.746
 4477TIP3    H113388   1.938   4.371   1.695
 4477TIP3    H213389   1.916   4.291   1.822
 4478TIP3   OH213390   0.517   7.034   1.931
 4478TIP3    H113391   0.470   7.112   1.901
 4478TIP3    H213392   0.569   7.065   2.005
 4479TIP3   OH213393   6.795   1.706   5.241
 4479TIP3    H113394   6.716   1.685   5.192
 4479TIP3    H213395   6.765   1.757   5.316
 4480TIP3   OH213396   6.392   5.903   2.842
 4480TIP3    H113397   6.334   5.924   2.770
 4480TIP3    H213398   6.477   5.885   2.801
 4481TIP3   OH213399   5.502   2.641   6.388
 4481TIP3    H113400   5.472   2.660   6.477
 4481TIP3    H213401   5.489   2.547   6.378
 4482TIP3   OH213402   7.446   4.945   2.530
 4482TIP3    H113403   7.403   4.962   2.446
 4482TIP3    H213404   7.498   5.024   2.546
 4483TIP3   OH213405   3.281   7.421   0.438
 4483TIP3    H113406   3.317   7.504   0.470
 4483TIP3    H213407   3.237   7.383   0.514
 4484TIP3   OH213408   3.969   6.376   3.558
 4484TIP3    H113409   3.914   6.410   3.630
 4484TIP3    H213410   4.045   6.434   3.558
 4485TIP3   OH213411   5.386   1.565   4.777
 4485TIP3    H113412   5.419   1.640   4.826
 4485TIP3    H213413   5.377   1.597   4.687
 4486TIP3   OH213414   1.997   0.804   3.495
 4486TIP3    H113415   2.013   0.793   3.401
 4486TIP3    H213416   2.055   0.876   3.521
 4487TIP3   OH213417   0.844   1.652   4.086
 4487TIP3    H113418   0.894   1.729   4.058
 4487TIP3    H213419   0.902   1.578   4.069
 4488TIP3   OH213420   3.833   3.796   4.894
 4488TIP3    H113421   3.905   3.794   4.830
 4488TIP3    H213422   3.782   3.717   4.874
 4489TIP3   OH213423   2.702   5.955   2.966
 4489TIP3    H113424   2.644   5.984   3.037
 4489TIP3    H213425   2.789   5.958   3.005
 4490TIP3   OH213426   5.536   0.344   5.874
 4490TIP3    H113427   5.572   0.268   5.828
 4490TIP3    H213428   5.493   0.396   5.806
 4491TIP3   OH213429   7.470   3.791   2.022
 4491TIP3    H113430   7.407   3.726   2.054
 4491TIP3    H213431   7.553   3.744   2.020
 4492TIP3   OH213432   4.389   0.781   1.129
 4492TIP3    H113433   4.304   0.815   1.102
 4492TIP3    H213434   4.413   0.718   1.062
 4493TIP3   OH213435   5.003   1.998   5.731
 4493TIP3    H113436   5.059   1.922   5.714
 4493TIP3    H213437   4.917   1.971   5.700
 4494TIP3   OH213438   4.504   3.822   2.423
 4494TIP3    H113439   4.470   3.812   2.334
 4494TIP3    H213440   4.456   3.758   2.475
 4495TIP3   OH213441   1.496   2.574   3.650
 4495TIP3    H113442   1.415   2.531   3.622
 4495TIP3    H213443   1.470   2.625   3.727
 4496TIP3   OH213444   0.569   0.483   1.656
 4496TIP3    H113445   0.477   0.467   1.632
 4496TIP3    H213446   0.619   0.425   1.600
 4497TIP3   OH213447   1.560   5.630   4.532
 4497TIP3    H113448   1.525   5.630   4.442
 4497TIP3    H213449   1.482   5.639   4.587
 4498TIP3   OH213450   1.067   4.470   0.556
 4498TIP3    H113451   1.145   4.518   0.529
 4498TIP3    H213452   1.048   4.503   0.644
 4499TIP3   OH213453   7.532   2.737   2.851
 4499TIP3    H113454   7.437   2.725   2.857
 4499TIP3    H213455   7.544   2.832   2.843
 4500TIP3   OH213456   4.718   6.059   5.559
 4500TIP3    H113457   4.785   6.126   5.545
 4500TIP3    H213458   4.738   6.023   5.645
 4501TIP3   OH213459   2.017   2.584   2.410
 4501TIP3    H113460   2.100   2.542   2.433
 4501TIP3    H213461   2.035   2.678   2.421
 4502TIP3   OH213462   0.589   4.403   1.927
 4502TIP3    H113463   0.637   4.479   1.894
 4502TIP3    H213464   0.648   4.363   1.991
 4503TIP3   OH213465   0.680   4.349   4.804
 4503TIP3    H113466   0.727   4.293   4.865
 4503TIP3    H213467   0.674   4.434   4.849
 4504TIP3   OH213468   7.213   0.978   5.859
 4504TIP3    H113469   7.283   0.917   5.880
 4504TIP3    H213470   7.153   0.928   5.803
 4505TIP3   OH213471   1.431   4.495   0.827
 4505TIP3    H113472   1.440   4.403   0.801
 4505TIP3    H213473   1.521   4.526   0.835
 4506TIP3   OH213474   4.970   7.118   4.171
 4506TIP3    H113475   5.054   7.134   4.129
 4506TIP3    H213476   4.986   7.044   4.230
 4507TIP3   OH213477   6.747   5.028   1.032
 4507TIP3    H113478   6.791   5.098   0.984
 4507TIP3    H213479   6.706   5.071   1.106
 4508TIP3   OH213480   0.267   1.149   2.418
 4508TIP3    H113481   0.288   1.233   2.458
 4508TIP3    H213482   0.243   1.170   2.328
 4509TIP3   OH213483   4.021   1.524   1.604
 4509TIP3    H113484   4.067   1.581   1.543
 4509TIP3    H213485   3.970   1.465   1.549
 4510TIP3   OH213486   1.093   4.029   4.769
 4510TIP3    H113487   1.045   4.092   4.715
 4510TIP3    H213488   1.112   3.956   4.711
 4511TIP3   OH213489   3.534   2.065   4.287
 4511TIP3    H113490   3.460   2.088   4.231
 4511TIP3    H213491   3.498   2.066   4.376
 4512TIP3   OH213492   2.556   7.350   2.550
 4512TIP3    H113493   2.537   7.327   2.458
 4512TIP3    H213494   2.649   7.331   2.561
 4513TIP3   OH213495   4.472   0.754   1.608
 4513TIP3    H113496   4.544   0.725   1.664
 4513TIP3    H213497   4.476   0.697   1.532
 4514TIP3   OH213498   8.327   3.397   2.739
 4514TIP3    H113499   8.352   3.432   2.654
 4514TIP3    H213500   8.252   3.450   2.766
 4515TIP3   OH213501   4.251   3.948   0.211
 4515TIP3    H113502   4.181   4.012   0.214
 4515TIP3    H213503   4.331   3.998   0.228
 4516TIP3   OH213504   3.178   1.373   1.364
 4516TIP3    H113505   3.232   1.452   1.356
 4516TIP3    H213506   3.091   1.405   1.386
 4517TIP3   OH213507   5.964   6.302   4.195
 4517TIP3    H113508   5.879   6.342   4.180
 4517TIP3    H213509   6.021   6.374   4.222
 4518TIP3   OH213510   5.097   0.370   3.105
 4518TIP3    H113511   5.046   0.419   3.170
 4518TIP3    H213512   5.185   0.407   3.111
 4519TIP3   OH213513   3.019   0.837   5.068
 4519TIP3    H113514   3.096   0.893   5.054
 4519TIP3    H213515   2.950   0.877   5.016
 4520TIP3   OH213516   4.764   6.707   5.161
 4520TIP3    H113517   4.705   6.744   5.095
 4520TIP3    H213518   4.718   6.718   5.244
 4521TIP3   OH213519   2.690   4.631   0.639
 4521TIP3    H113520   2.701   4.548   0.592
 4521TIP3    H213521   2.780   4.660   0.656
 4522TIP3   OH213522   5.169   4.515   4.027
 4522TIP3    H113523   5.103   4.584   4.027
 4522TIP3    H213524   5.119   4.433   4.021
 4523TIP3   OH213525   7.877   7.810   0.647
 4523TIP3    H113526   7.821   7.813   0.569
 4523TIP3    H213527   7.823   7.846   0.717
 4524TIP3   OH213528   8.224   5.342   4.663
 4524TIP3    H113529   8.254   5.310   4.748
 4524TIP3    H213530   8.129   5.327   4.665
 4525TIP3   OH213531   7.849   7.259   6.283
 4525TIP3    H113532   7.786   7.331   6.286
 4525TIP3    H213533   7.898   7.266   6.365
 4526TIP3   OH213534   4.668   3.189   5.293
 4526TIP3    H113535   4.628   3.167   5.209
 4526TIP3    H213536   4.651   3.282   5.304
 4527TIP3   OH213537   6.678   6.770   4.586
 4527TIP3    H113538   6.676   6.747   4.493
 4527TIP3    H213539   6.587   6.765   4.615
 4528TIP3   OH213540   1.745   7.542   5.171
 4528TIP3    H113541   1.823   7.493   5.198
 4528TIP3    H213542   1.750   7.625   5.218
 4529TIP3   OH213543   1.492   2.203   5.264
 4529TIP3    H113544   1.445   2.273   5.310
 4529TIP3    H213545   1.559   2.175   5.326
 4530TIP3   OH213546   6.468   0.463   4.450
 4530TIP3    H113547   6.535   0.532   4.453
 4530TIP3    H213548   6.506   0.396   4.392
 4531TIP3   OH213549   4.140   6.591   4.881
 4531TIP3    H113550   4.075   6.635   4.828
 4531TIP3    H213551   4.117   6.613   4.971
 4532TIP3   OH213552   7.912   5.859   3.929
 4532TIP3    H113553   7.999   5.827   3.903
 4532TIP3    H213554   7.859   5.848   3.850
 4533TIP3   OH213555   6.444   2.250   6.260
 4533TIP3    H113556   6.395   2.294   6.190
 4533TIP3    H213557   6.465   2.320   6.322
 4534TIP3   OH213558   4.956   3.390   4.815
 4534TIP3    H113559   4.867   3.389   4.780
 4534TIP3    H213560   5.005   3.448   4.756
 4535TIP3   OH213561   8.057   6.437   6.671
 4535TIP3    H113562   8.003   6.425   6.593
 4535TIP3    H213563   8.117   6.507   6.647
 4536TIP3   OH213564   1.252   1.825   4.473
 4536TIP3    H113565   1.196   1.858   4.543
 4536TIP3    H213566   1.257   1.897   4.410
 4537TIP3   OH213567   6.561   3.972   2.799
 4537TIP3    H113568   6.523   3.903   2.853
 4537TIP3    H213569   6.491   3.998   2.740
 4538TIP3   OH213570   6.054   3.861   0.486
 4538TIP3    H113571   6.011   3.927   0.431
 4538TIP3    H213572   6.065   3.786   0.428
 4539TIP3   OH213573   5.948   0.214   2.318
 4539TIP3    H113574   5.918   0.305   2.319
 4539TIP3    H213575   5.873   0.164   2.284
 4540TIP3   OH213576   8.265   0.928   1.954
 4540TIP3    H113577   8.285   0.844   1.996
 4540TIP3    H213578   8.179   0.952   1.989
 4541TIP3   OH213579   0.238   2.477   5.937
 4541TIP3    H113580   0.199   2.513   6.017
 4541TIP3    H213581   0.331   2.493   5.947
 4542TIP3   OH213582   6.391   5.521   4.564
 4542TIP3    H113583   6.418   5.596   4.511
 4542TIP3    H213584   6.328   5.474   4.508
 4543TIP3   OH213585   2.112   4.405   1.654
 4543TIP3    H113586   2.101   4.490   1.611
 4543TIP3    H213587   2.199   4.376   1.626
 4544TIP3   OH213588   6.321   0.458   3.688
 4544TIP3    H113589   6.400   0.435   3.737
 4544TIP3    H213590   6.260   0.492   3.753
 4545TIP3   OH213591   5.369   2.060   6.690
 4545TIP3    H113592   5.392   2.130   6.753
 4545TIP3    H213593   5.441   1.997   6.698
 4546TIP3   OH213594   4.379   3.544   3.984
 4546TIP3    H113595   4.461   3.595   3.988
 4546TIP3    H213596   4.336   3.576   3.905
 4547TIP3   OH213597   1.950   7.124   4.299
 4547TIP3    H113598   1.873   7.112   4.355
 4547TIP3    H213599   2.023   7.092   4.352
 4548TIP3   OH213600   5.621   6.995   2.438
 4548TIP3    H113601   5.635   6.914   2.390
 4548TIP3    H213602   5.530   6.990   2.468
 4549TIP3   OH213603   4.258   2.860   1.722
 4549TIP3    H113604   4.287   2.838   1.634
 4549TIP3    H213605   4.339   2.876   1.771
 4550TIP3   OH213606   0.566   6.870   4.373
 4550TIP3    H113607   0.471   6.859   4.369
 4550TIP3    H213608   0.582   6.955   4.330
 4551TIP3   OH213609   5.226   5.439   6.710
 4551TIP3    H113610   5.245   5.531   6.694
 4551TIP3    H213611   5.306   5.393   6.687
 4552TIP3   OH213612   6.854   1.023   1.604
 4552TIP3    H113613   6.789   1.026   1.675
 4552TIP3    H213614   6.858   1.113   1.572
 4553TIP3   OH213615   4.978   5.612   6.180
 4553TIP3    H113616   4.977   5.521   6.151
 4553TIP3    H213617   5.000   5.607   6.273
 4554TIP3   OH213618   5.154   4.525   4.896
 4554TIP3    H113619   5.059   4.533   4.886
 4554TIP3    H213620   5.188   4.611   4.872
 4555TIP3   OH213621   0.637   5.936   4.184
 4555TIP3    H113622   0.593   5.881   4.119
 4555TIP3    H213623   0.728   5.938   4.156
 4556TIP3   OH213624   0.557   1.966   2.198
 4556TIP3    H113625   0.554   2.045   2.144
 4556TIP3    H213626   0.595   1.996   2.281
 4557TIP3   OH213627   1.289   4.670   3.297
 4557TIP3    H113628   1.351   4.698   3.231
 4557TIP3    H213629   1.293   4.738   3.365
 4558TIP3   OH213630   1.788   1.676   3.270
 4558TIP3    H113631   1.697   1.695   3.291
 4558TIP3    H213632   1.833   1.759   3.281
 4559TIP3   OH213633   0.935   1.722   2.956
 4559TIP3    H113634   0.952   1.700   2.865
 4559TIP3    H213635   1.013   1.693   3.003
 4560TIP3   OH213636   4.919   2.656   2.301
 4560TIP3    H113637   4.985   2.724   2.311
 4560TIP3    H213638   4.936   2.596   2.374
 4561TIP3   OH213639   0.153   1.411   1.151
 4561TIP3    H113640   0.127   1.319   1.153
 4561TIP3    H213641   0.247   1.409   1.136
 4562TIP3   OH213642   1.577   5.752   0.145
 4562TIP3    H113643   1.546   5.668   0.179
 4562TIP3    H213644   1.562   5.747   0.050
 4563TIP3   OH213645   5.716   0.237   0.687
 4563TIP3    H113646   5.726   0.288   0.607
 4563TIP3    H213647   5.651   0.286   0.739
 4564TIP3   OH213648   7.297   1.228   1.166
 4564TIP3    H113649   7.210   1.218   1.205
 4564TIP3    H213650   7.280   1.260   1.077
 4565TIP3   OH213651   3.510   2.723   6.599
 4565TIP3    H113652   3.445   2.753   6.663
 4565TIP3    H213653   3.594   2.738   6.641
 4566TIP3   OH213654   5.132   5.110   2.349
 4566TIP3    H113655   5.125   5.038   2.286
 4566TIP3    H213656   5.042   5.126   2.377
 4567TIP3   OH213657   3.270   5.734   0.087
 4567TIP3    H113658   3.183   5.696   0.101
 4567TIP3    H213659   3.309   5.679   0.019
 4568TIP3   OH213660   4.332   0.149   1.567
 4568TIP3    H113661   4.371   0.232   1.595
 4568TIP3    H213662   4.238   0.162   1.580
 4569TIP3   OH213663   1.124   5.293   1.222
 4569TIP3    H113664   1.131   5.254   1.309
 4569TIP3    H213665   1.079   5.227   1.169
 4570TIP3   OH213666   6.889   3.386   5.267
 4570TIP3    H113667   6.933   3.301   5.272
 4570TIP3    H213668   6.832   3.388   5.344
 4571TIP3   OH213669   3.323   2.658   1.555
 4571TIP3    H113670   3.386   2.689   1.619
 4571TIP3    H213671   3.324   2.724   1.486
 4572TIP3   OH213672   4.942   5.705   5.511
 4572TIP3    H113673   4.853   5.680   5.538
 4572TIP3    H213674   4.985   5.729   5.593
 4573TIP3   OH213675   4.200   3.448   1.111
 4573TIP3    H113676   4.213   3.358   1.080
 4573TIP3    H213677   4.264   3.500   1.062
 4574TIP3   OH213678   1.950   6.418   3.142
 4574TIP3    H113679   1.998   6.490   3.102
 4574TIP3    H213680   1.868   6.458   3.171
 4575TIP3   OH213681   1.247   3.966   5.150
 4575TIP3    H113682   1.273   3.873   5.151
 4575TIP3    H213683   1.302   4.005   5.082
 4576TIP3   OH213684   7.160   3.095   2.246
 4576TIP3    H113685   7.236   3.103   2.304
 4576TIP3    H213686   7.100   3.037   2.293
 4577TIP3   OH213687   3.268   1.223   2.171
 4577TIP3    H113688   3.263   1.296   2.233
 4577TIP3    H213689   3.315   1.259   2.096
 4578TIP3   OH213690   4.952   2.527   6.694
 4578TIP3    H113691   4.927   2.439   6.723
 4578TIP3    H213692   4.869   2.571   6.678
 4579TIP3   OH213693   6.426   3.577   4.730
 4579TIP3    H113694   6.427   3.539   4.642
 4579TIP3    H213695   6.394   3.508   4.786
 4580TIP3   OH213696   2.431   6.625   2.030
 4580TIP3    H113697   2.440   6.612   1.936
 4580TIP3    H213698   2.407   6.539   2.064
 4581TIP3   OH213699   7.901   1.382   2.216
 4581TIP3    H113700   7.897   1.323   2.141
 4581TIP3    H213701   7.954   1.334   2.281
 4582TIP3   OH213702   8.083   1.312   6.154
 4582TIP3    H113703   8.099   1.308   6.249
 4582TIP3    H213704   8.170   1.318   6.116
 4583TIP3   OH213705   1.771   4.881   4.292
 4583TIP3    H113706   1.756   4.942   4.220
 4583TIP3    H213707   1.865   4.863   4.289
 4584TIP3   OH213708   7.655   0.703   6.324
 4584TIP3    H113709   7.618   0.769   6.382
 4584TIP3    H213710   7.644   0.620   6.372
 4585TIP3   OH213711   1.836   5.547   0.021
 4585TIP3    H113712   1.780   5.610   0.067
 4585TIP3    H213713   1.925   5.574   0.045
 4586TIP3   OH213714   7.625   4.285   4.961
 4586TIP3    H113715   7.636   4.224   4.888
 4586TIP3    H213716   7.560   4.348   4.930
 4587TIP3   OH213717   3.091   0.458   6.193
 4587TIP3    H113718   3.032   0.401   6.243
 4587TIP3    H213719   3.099   0.537   6.245
 4588TIP3   OH213720   6.502   4.872   0.049
 4588TIP3    H113721   6.526   4.779   0.046
 4588TIP3    H213722   6.413   4.872   0.082
 4589TIP3   OH213723   4.787   5.214   2.670
 4589TIP3    H113724   4.712   5.268   2.643
 4589TIP3    H213725   4.828   5.188   2.588
 4590TIP3   OH213726   6.839   6.629   5.905
 4590TIP3    H113727   6.775   6.699   5.898
 4590TIP3    H213728   6.914   6.669   5.950
 4591TIP3   OH213729   4.436   5.138   2.397
 4591TIP3    H113730   4.416   5.205   2.463
 4591TIP3    H213731   4.413   5.055   2.439
 4592TIP3   OH213732   5.895   4.245   5.717
 4592TIP3    H113733   5.874   4.327   5.762
 4592TIP3    H213734   5.865   4.258   5.627
 4593TIP3   OH213735   7.589   6.491   6.542
 4593TIP3    H113736   7.496   6.488   6.518
 4593TIP3    H213737   7.634   6.514   6.461
 4594TIP3   OH213738   4.591   6.810   2.013
 4594TIP3    H113739   4.516   6.869   2.022
 4594TIP3    H213740   4.635   6.814   2.098
 4595TIP3   OH213741   7.838   6.569   5.002
 4595TIP3    H113742   7.824   6.658   5.034
 4595TIP3    H213743   7.752   6.528   5.008
 4596TIP3   OH213744   4.571   5.535   1.001
 4596TIP3    H113745   4.596   5.515   0.911
 4596TIP3    H213746   4.575   5.451   1.046
 4597TIP3   OH213747   1.307   4.885   2.151
 4597TIP3    H113748   1.370   4.909   2.219
 4597TIP3    H213749   1.250   4.962   2.142
 4598TIP3   OH213750   2.468   2.902   2.704
 4598TIP3    H113751   2.512   2.985   2.689
 4598TIP3    H213752   2.420   2.885   2.623
 4599TIP3   OH213753   2.858   7.356   6.036
 4599TIP3    H113754   2.897   7.442   6.022
 4599TIP3    H213755   2.882   7.333   6.126
 4600TIP3   OH213756   5.165   1.121   3.306
 4600TIP3    H113757   5.136   1.043   3.259
 4600TIP3    H213758   5.085   1.166   3.331
 4601TIP3   OH213759   0.515   3.082   3.987
 4601TIP3    H113760   0.463   3.118   3.916
 4601TIP3    H213761   0.530   2.991   3.962
 4602TIP3   OH213762   7.544   6.705   3.753
 4602TIP3    H113763   7.478   6.744   3.695
 4602TIP3    H213764   7.627   6.740   3.720
 4603TIP3   OH213765   4.629   2.202   2.758
 4603TIP3    H113766   4.538   2.190   2.728
 4603TIP3    H213767   4.621   2.257   2.836
 4604TIP3   OH213768   7.289   0.073   3.538
 4604TIP3    H113769   7.320   0.118   3.617
 4604TIP3    H213770   7.262   0.144   3.480
 4605TIP3   OH213771   6.677   5.420   5.268
 4605TIP3    H113772   6.733   5.344   5.256
 4605TIP3    H213773   6.588   5.388   5.254
 4606TIP3   OH213774   6.671   5.633   2.592
 4606TIP3    H113775   6.716   5.550   2.609
 4606TIP3    H213776   6.585   5.607   2.558
 4607TIP3   OH213777   6.057   3.054   1.049
 4607TIP3    H113778   6.123   3.051   1.119
 4607TIP3    H213779   6.108   3.054   0.968
 4608TIP3   OH213780   5.510   2.754   2.147
 4608TIP3    H113781   5.441   2.688   2.139
 4608TIP3    H213782   5.500   2.809   2.069
 4609TIP3   OH213783   4.961   3.445   5.462
 4609TIP3    H113784   5.032   3.405   5.513
 4609TIP3    H213785   4.962   3.537   5.487
 4610TIP3   OH213786   4.358   5.239   4.891
 4610TIP3    H113787   4.265   5.219   4.900
 4610TIP3    H213788   4.383   5.196   4.809
 4611TIP3   OH213789   0.959   5.553   5.262
 4611TIP3    H113790   1.003   5.468   5.260
 4611TIP3    H213791   0.955   5.580   5.170
 4612TIP3   OH213792   0.584   6.606   5.909
 4612TIP3    H113793   0.653   6.594   5.975
 4612TIP3    H213794   0.604   6.689   5.867
 4613TIP3   OH213795   2.389   1.046   6.431
 4613TIP3    H113796   2.452   1.065   6.500
 4613TIP3    H213797   2.342   0.968   6.462
 4614TIP3   OH213798   7.876   0.972   4.572
 4614TIP3    H113799   7.856   0.931   4.656
 4614TIP3    H213800   7.838   1.059   4.578
 4615TIP3   OH213801   6.469   5.693   3.456
 4615TIP3    H113802   6.544   5.641   3.485
 4615TIP3    H213803   6.491   5.717   3.366
 4616TIP3   OH213804   2.403   6.933   0.059
 4616TIP3    H113805   2.471   6.986   0.099
 4616TIP3    H213806   2.380   6.869   0.127
 4617TIP3   OH213807   6.477   3.451   5.525
 4617TIP3    H113808   6.443   3.376   5.477
 4617TIP3    H213809   6.440   3.527   5.480
 4618TIP3   OH213810   1.340   4.987   1.108
 4618TIP3    H113811   1.379   5.023   1.188
 4618TIP3    H213812   1.247   4.977   1.128
 4619TIP3   OH213813   2.719   7.184   3.686
 4619TIP3    H113814   2.725   7.138   3.602
 4619TIP3    H213815   2.733   7.276   3.663
 4620TIP3   OH213816   0.498   4.835   4.479
 4620TIP3    H113817   0.520   4.924   4.451
 4620TIP3    H213818   0.461   4.794   4.402
 4621TIP3   OH213819   1.357   6.112   2.035
 4621TIP3    H113820   1.344   6.142   1.945
 4621TIP3    H213821   1.333   6.019   2.033
 4622TIP3   OH213822   4.546   0.897   5.402
 4622TIP3    H113823   4.538   0.974   5.346
 4622TIP3    H213824   4.589   0.831   5.347
 4623TIP3   OH213825   4.426   1.111   6.131
 4623TIP3    H113826   4.341   1.091   6.092
 4623TIP3    H213827   4.485   1.123   6.057
 4624TIP3   OH213828   7.665   0.472   4.453
 4624TIP3    H113829   7.576   0.506   4.445
 4624TIP3    H213830   7.710   0.536   4.507
 4625TIP3   OH213831   1.298   5.894   2.725
 4625TIP3    H113832   1.337   5.981   2.726
 4625TIP3    H213833   1.365   5.839   2.684
 4626TIP3   OH213834   2.485   0.574   1.114
 4626TIP3    H113835   2.416   0.532   1.063
 4626TIP3    H213836   2.484   0.665   1.086
 4627TIP3   OH213837   5.223   6.308   5.750
 4627TIP3    H113838   5.216   6.213   5.753
 4627TIP3    H213839   5.291   6.325   5.685
 4628TIP3   OH213840   6.258   0.313   3.309
 4628TIP3    H113841   6.285   0.250   3.376
 4628TIP3    H213842   6.166   0.331   3.329
 4629TIP3   OH213843   0.062   7.138   2.046
 4629TIP3    H113844   0.118   7.126   2.124
 4629TIP3    H213845   0.070   7.056   1.998
 4630TIP3   OH213846   7.512   3.730   6.331
 4630TIP3    H113847   7.600   3.696   6.350
 4630TIP3    H213848   7.452   3.670   6.375
 4631TIP3   OH213849   6.881   5.919   2.346
 4631TIP3    H113850   6.811   5.868   2.305
 4631TIP3    H213851   6.875   6.005   2.306
 4632TIP3   OH213852   1.133   5.451   2.501
 4632TIP3    H113853   1.060   5.513   2.503
 4632TIP3    H213854   1.092   5.368   2.477
 4633TIP3   OH213855   1.075   4.204   1.533
 4633TIP3    H113856   1.006   4.139   1.551
 4633TIP3    H213857   1.028   4.285   1.516
 4634TIP3   OH213858   2.662   2.299   3.918
 4634TIP3    H113859   2.625   2.250   3.845
 4634TIP3    H213860   2.586   2.340   3.960
 4635TIP3   OH213861   5.406   0.702   3.284
 4635TIP3    H113862   5.461   0.775   3.312
 4635TIP3    H213863   5.419   0.635   3.351
 4636TIP3   OH213864   6.879   4.981   2.848
 4636TIP3    H113865   6.942   5.053   2.849
 4636TIP3    H213866   6.921   4.913   2.796
 4637TIP3   OH213867   6.106   1.027   4.550
 4637TIP3    H113868   6.043   1.099   4.558
 4637TIP3    H213869   6.187   1.070   4.522
 4638TIP3   OH213870   2.663   1.338   6.329
 4638TIP3    H113871   2.713   1.322   6.249
 4638TIP3    H213872   2.571   1.338   6.300
 4639TIP3   OH213873   2.436   3.142   3.087
 4639TIP3    H113874   2.442   3.113   3.178
 4639TIP3    H213875   2.383   3.075   3.044
 4640TIP3   OH213876   2.814   3.320   3.036
 4640TIP3    H113877   2.781   3.232   3.018
 4640TIP3    H213878   2.759   3.353   3.107
 4641TIP3   OH213879   8.141   6.875   3.943
 4641TIP3    H113880   8.175   6.786   3.931
 4641TIP3    H213881   8.046   6.865   3.941
 4642TIP3   OH213882   4.309   1.063   4.036
 4642TIP3    H113883   4.257   1.086   3.959
 4642TIP3    H213884   4.276   1.121   4.105
 4643TIP3   OH213885   4.459   1.753   0.746
 4643TIP3    H113886   4.493   1.664   0.736
 4643TIP3    H213887   4.506   1.788   0.822
 4644TIP3   OH213888   0.083   3.407   1.069
 4644TIP3    H113889   0.039   3.378   1.149
 4644TIP3    H213890   0.017   3.460   1.024
 4645TIP3   OH213891   4.343   1.038   5.042
 4645TIP3    H113892   4.255   1.021   5.078
 4645TIP3    H213893   4.337   1.127   5.008
 4646TIP3   OH213894   2.697   0.135   3.722
 4646TIP3    H113895   2.671   0.057   3.673
 4646TIP3    H213896   2.697   0.107   3.814
 4647TIP3   OH213897   0.738   3.960   0.812
 4647TIP3    H113898   0.692   3.982   0.731
 4647TIP3    H213899   0.820   4.008   0.807
 4648TIP3   OH213900   0.666   6.786   0.513
 4648TIP3    H113901   0.695   6.797   0.603
 4648TIP3    H213902   0.728   6.724   0.475
 4649TIP3   OH213903   8.294   6.257   0.365
 4649TIP3    H113904   8.377   6.238   0.408
 4649TIP3    H213905   8.236   6.185   0.391
 4650TIP3   OH213906   6.124   4.590   6.460
 4650TIP3    H113907   6.052   4.653   6.465
 4650TIP3    H213908   6.195   4.631   6.510
 4651TIP3   OH213909   7.185   6.046   2.654
 4651TIP3    H113910   7.153   6.076   2.738
 4651TIP3    H213911   7.275   6.077   2.650
 4652TIP3   OH213912   1.667   6.054   1.517
 4652TIP3    H113913   1.621   6.037   1.435
 4652TIP3    H213914   1.701   6.143   1.508
 4653TIP3   OH213915   4.289   0.800   3.704
 4653TIP3    H113916   4.305   0.745   3.628
 4653TIP3    H213917   4.331   0.754   3.777
 4654TIP3   OH213918   7.148   1.205   3.396
 4654TIP3    H113919   7.171   1.289   3.436
 4654TIP3    H213920   7.220   1.187   3.336
 4655TIP3   OH213921   3.513   0.191   6.169
 4655TIP3    H113922   3.432   0.144   6.150
 4655TIP3    H213923   3.498   0.230   6.255
 4656TIP3   OH213924   4.718   4.652   0.182
 4656TIP3    H113925   4.785   4.635   0.249
 4656TIP3    H213926   4.638   4.613   0.217
 4657TIP3   OH213927   3.863   2.955   0.850
 4657TIP3    H113928   3.957   2.935   0.848
 4657TIP3    H213929   3.822   2.873   0.876
 4658TIP3   OH213930   6.970   1.654   4.725
 4658TIP3    H113931   7.036   1.680   4.790
 4658TIP3    H213932   6.891   1.636   4.776
 4659TIP3   OH213933   4.339   2.727   6.700
 4659TIP3    H113934   4.343   2.766   6.787
 4659TIP3    H213935   4.383   2.642   6.709
 4660TIP3   OH213936   1.097   1.880   6.246
 4660TIP3    H113937   1.152   1.802   6.244
 4660TIP3    H213938   1.065   1.888   6.156
 4661TIP3   OH213939   2.722   7.220   4.758
 4661TIP3    H113940   2.758   7.309   4.754
 4661TIP3    H213941   2.770   7.178   4.830
 4662TIP3   OH213942   8.080   6.472   0.688
 4662TIP3    H113943   8.167   6.501   0.661
 4662TIP3    H213944   8.020   6.522   0.634
 4663TIP3   OH213945   7.516   7.261   6.296
 4663TIP3    H113946   7.524   7.247   6.201
 4663TIP3    H213947   7.504   7.355   6.305
 4664TIP3   OH213948   5.110   5.820   2.530
 4664TIP3    H113949   5.043   5.780   2.585
 4664TIP3    H213950   5.148   5.888   2.586
 4665TIP3   OH213951   0.246   1.495   6.062
 4665TIP3    H113952   0.290   1.429   6.008
 4665TIP3    H213953   0.306   1.509   6.136
 4666TIP3   OH213954   5.111   3.830   2.234
 4666TIP3    H113955   5.118   3.734   2.238
 4666TIP3    H213956   5.140   3.852   2.146
 4667TIP3   OH213957   1.759   3.832   2.277
 4667TIP3    H113958   1.675   3.861   2.313
 4667TIP3    H213959   1.738   3.795   2.192
 4668TIP3   OH213960   7.825   5.511   0.652
 4668TIP3    H113961   7.801   5.419   0.645
 4668TIP3    H213962   7.919   5.511   0.669
 4669TIP3   OH213963   3.910   6.260   2.859
 4669TIP3    H113964   3.941   6.348   2.883
 4669TIP3    H213965   3.919   6.209   2.939
 4670TIP3   OH213966   4.731   2.745   5.142
 4670TIP3    H113967   4.701   2.803   5.211
 4670TIP3    H213968   4.710   2.656   5.173
 4671TIP3   OH213969   6.171   7.388   0.168
 4671TIP3    H113970   6.257   7.365   0.134
 4671TIP3    H213971   6.170   7.353   0.257
 4672TIP3   OH213972   0.080   4.561   6.021
 4672TIP3    H113973   0.047   4.647   6.046
 4672TIP3    H213974   0.046   4.547   5.932
 4673TIP3   OH213975   5.581   7.177   6.511
 4673TIP3    H113976   5.495   7.137   6.525
 4673TIP3    H213977   5.569   7.268   6.537
 4674TIP3   OH213978   2.919   3.536   2.919
 4674TIP3    H113979   2.885   3.454   2.954
 4674TIP3    H213980   2.847   3.598   2.929
 4675TIP3   OH213981   4.034   5.522   0.213
 4675TIP3    H113982   4.035   5.554   0.122
 4675TIP3    H213983   3.999   5.433   0.205
 4676TIP3   OH213984   6.550   5.609   5.808
 4676TIP3    H113985   6.603   5.677   5.850
 4676TIP3    H213986   6.612   5.538   5.792
 4677TIP3   OH213987   6.781   6.579   4.065
 4677TIP3    H113988   6.843   6.506   4.069
 4677TIP3    H213989   6.833   6.654   4.036
 4678TIP3   OH213990   5.784   7.091   0.775
 4678TIP3    H113991   5.827   7.068   0.692
 4678TIP3    H213992   5.845   7.152   0.817
 4679TIP3   OH213993   7.335   1.424   1.606
 4679TIP3    H113994   7.358   1.352   1.547
 4679TIP3    H213995   7.282   1.383   1.674
 4680TIP3   OH213996   4.227   7.793   0.355
 4680TIP3    H113997   4.237   7.825   0.444
 4680TIP3    H213998   4.316   7.769   0.329
 4681TIP3   OH213999   2.604   5.840   6.048
 4681TIP3    H114000   2.623   5.898   6.121
 4681TIP3    H214001   2.602   5.752   6.087
 4682TIP3   OH214002   0.665   0.247   0.426
 4682TIP3    H114003   0.745   0.248   0.374
 4682TIP3    H214004   0.596   0.223   0.364
 4683TIP3   OH214005   2.953   0.064   4.218
 4683TIP3    H114006   2.892   0.137   4.229
 4683TIP3    H214007   3.023   0.099   4.162
 4684TIP3   OH214008   7.693   4.505   2.046
 4684TIP3    H114009   7.721   4.480   2.134
 4684TIP3    H214010   7.691   4.423   1.997
 4685TIP3   OH214011   3.594   7.503   6.419
 4685TIP3    H114012   3.624   7.593   6.411
 4685TIP3    H214013   3.576   7.475   6.329
 4686TIP3   OH214014   7.293   3.205   4.679
 4686TIP3    H114015   7.292   3.129   4.738
 4686TIP3    H214016   7.202   3.219   4.655
 4687TIP3   OH214017   6.677   6.297   2.188
 4687TIP3    H114018   6.715   6.247   2.117
 4687TIP3    H214019   6.597   6.335   2.150
 4688TIP3   OH214020   3.164   2.370   3.679
 4688TIP3    H114021   3.100   2.317   3.632
 4688TIP3    H214022   3.128   2.459   3.676
 4689TIP3   OH214023   7.243   5.999   4.972
 4689TIP3    H114024   7.286   6.039   4.896
 4689TIP3    H214025   7.150   6.018   4.960
 4690TIP3   OH214026   5.102   2.998   2.546
 4690TIP3    H114027   5.106   3.079   2.495
 4690TIP3    H214028   5.121   2.929   2.483
 4691TIP3   OH214029   1.334   6.547   2.096
 4691TIP3    H114030   1.321   6.468   2.148
 4691TIP3    H214031   1.376   6.609   2.157
 4692TIP3   OH214032   2.822   6.073   0.466
 4692TIP3    H114033   2.750   6.120   0.507
 4692TIP3    H214034   2.783   5.991   0.435
 4693TIP3   OH214035   4.805   0.107   5.383
 4693TIP3    H114036   4.819   0.201   5.393
 4693TIP3    H214037   4.889   0.068   5.405
 4694TIP3   OH214038   4.686   1.228   3.068
 4694TIP3    H114039   4.648   1.151   3.110
 4694TIP3    H214040   4.642   1.302   3.108
 4695TIP3   OH214041   2.784   1.281   5.797
 4695TIP3    H114042   2.787   1.370   5.761
 4695TIP3    H214043   2.772   1.224   5.721
 4696TIP3   OH214044   5.546   7.013   3.153
 4696TIP3    H114045   5.520   7.104   3.167
 4696TIP3    H214046   5.467   6.970   3.122
 4697TIP3   OH214047   6.704   6.576   6.407
 4697TIP3    H114048   6.643   6.643   6.440
 4697TIP3    H214049   6.649   6.517   6.355
 4698TIP3   OH214050   3.302   5.961   1.813
 4698TIP3    H114051   3.216   5.980   1.776
 4698TIP3    H214052   3.331   6.045   1.850
 4699TIP3   OH214053   5.790   2.815   0.363
 4699TIP3    H114054   5.818   2.766   0.285
 4699TIP3    H214055   5.701   2.842   0.344
 4700TIP3   OH214056   2.293   3.426   4.648
 4700TIP3    H114057   2.206   3.464   4.635
 4700TIP3    H214058   2.353   3.491   4.610
 4701TIP3   OH214059   1.590   1.732   6.700
 4701TIP3    H114060   1.638   1.684   6.633
 4701TIP3    H214061   1.515   1.677   6.721
 4702TIP3   OH214062   4.887   7.590   2.333
 4702TIP3    H114063   4.930   7.610   2.416
 4702TIP3    H214064   4.848   7.503   2.346
 4703TIP3   OH214065   4.262   2.867   5.620
 4703TIP3    H114066   4.331   2.827   5.672
 4703TIP3    H214067   4.307   2.934   5.568
 4704TIP3   OH214068   1.956   0.251   3.508
 4704TIP3    H114069   1.945   0.200   3.427
 4704TIP3    H214070   1.869   0.288   3.525
 4705TIP3   OH214071   1.531   2.521   2.519
 4705TIP3    H114072   1.624   2.497   2.523
 4705TIP3    H214073   1.485   2.440   2.542
 4706TIP3   OH214074   6.722   1.423   2.929
 4706TIP3    H114075   6.762   1.339   2.906
 4706TIP3    H214076   6.681   1.454   2.849
 4707TIP3   OH214077   3.176   3.773   1.011
 4707TIP3    H114078   3.238   3.732   0.950
 4707TIP3    H214079   3.090   3.752   0.976
 4708TIP3   OH214080   4.525   0.299   1.278
 4708TIP3    H114081   4.513   0.393   1.285
 4708TIP3    H214082   4.581   0.275   1.352
 4709TIP3   OH214083   6.514   6.001   2.329
 4709TIP3    H114084   6.538   6.055   2.405
 4709TIP3    H214085   6.445   5.943   2.361
 4710TIP3   OH214086   3.522   1.558   1.060
 4710TIP3    H114087   3.519   1.517   1.147
 4710TIP3    H214088   3.585   1.506   1.011
 4711TIP3   OH214089   1.018   0.356   5.363
 4711TIP3    H114090   0.976   0.289   5.309
 4711TIP3    H214091   1.098   0.314   5.395
 4712TIP3   OH214092   0.630   6.691   5.597
 4712TIP3    H114093   0.655   6.600   5.616
 4712TIP3    H214094   0.590   6.686   5.510
 4713TIP3   OH214095   1.559   7.198   5.550
 4713TIP3    H114096   1.545   7.257   5.477
 4713TIP3    H214097   1.654   7.187   5.555
 4714TIP3   OH214098   0.905   2.919   3.327
 4714TIP3    H114099   0.884   2.832   3.294
 4714TIP3    H214100   0.981   2.946   3.277
 4715TIP3   OH214101   3.112   3.237   3.210
 4715TIP3    H114102   3.028   3.258   3.251
 4715TIP3    H214103   3.152   3.323   3.193
 4716TIP3   OH214104   6.304   3.189   3.582
 4716TIP3    H114105   6.311   3.097   3.554
 4716TIP3    H214106   6.238   3.188   3.651
 4717TIP3   OH214107   0.275   3.201   0.126
 4717TIP3    H114108   0.199   3.256   0.141
 4717TIP3    H214109   0.239   3.118   0.094
 4718TIP3   OH214110   6.197   6.666   0.307
 4718TIP3    H114111   6.268   6.611   0.338
 4718TIP3    H214112   6.185   6.732   0.375
 4719TIP3   OH214113   5.838   7.678   0.086
 4719TIP3    H114114   5.866   7.701   0.175
 4719TIP3    H214115   5.797   7.592   0.095
 4720TIP3   OH214116   1.709   7.777   2.159
 4720TIP3    H114117   1.617   7.788   2.182
 4720TIP3    H214118   1.757   7.806   2.237
 4721TIP3   OH214119   7.471   1.503   3.577
 4721TIP3    H114120   7.497   1.492   3.668
 4721TIP3    H214121   7.380   1.474   3.574
 4722TIP3   OH214122   0.239   3.041   3.787
 4722TIP3    H114123   0.173   3.052   3.718
 4722TIP3    H214124   0.286   3.125   3.789
 4723TIP3   OH214125   7.566   5.228   5.052
 4723TIP3    H114126   7.619   5.307   5.057
 4723TIP3    H214127   7.603   5.169   5.118
 4724TIP3   OH214128   5.782   2.490   2.689
 4724TIP3    H114129   5.704   2.509   2.742
 4724TIP3    H214130   5.805   2.574   2.649
 4725TIP3   OH214131   0.258   0.484   1.079
 4725TIP3    H114132   0.268   0.565   1.129
 4725TIP3    H214133   0.237   0.417   1.144
 4726TIP3   OH214134   2.148   4.891   3.216
 4726TIP3    H114135   2.085   4.820   3.204
 4726TIP3    H214136   2.095   4.971   3.211
 4727TIP3   OH214137   6.505   6.526   6.061
 4727TIP3    H114138   6.476   6.470   5.990
 4727TIP3    H214139   6.428   6.536   6.117
 4728TIP3   OH214140   1.547   6.334   4.147
 4728TIP3    H114141   1.457   6.323   4.178
 4728TIP3    H214142   1.578   6.245   4.132
 4729TIP3   OH214143   6.255   4.309   4.415
 4729TIP3    H114144   6.344   4.318   4.448
 4729TIP3    H214145   6.233   4.217   4.429
 4730TIP3   OH214146   7.889   0.718   2.256
 4730TIP3    H114147   7.853   0.807   2.248
 4730TIP3    H214148   7.816   0.661   2.233
 4731TIP3   OH214149   2.705   6.866   5.765
 4731TIP3    H114150   2.785   6.891   5.811
 4731TIP3    H214151   2.641   6.932   5.791
 4732TIP3   OH214152   0.712   0.791   4.543
 4732TIP3    H114153   0.642   0.727   4.555
 4732TIP3    H214154   0.701   0.853   4.615
 4733TIP3   OH214155   5.199   1.898   6.523
 4733TIP3    H114156   5.127   1.865   6.577
 4733TIP3    H214157   5.237   1.969   6.575
 4734TIP3   OH214158   7.245   3.920   2.568
 4734TIP3    H114159   7.183   3.970   2.622
 4734TIP3    H214160   7.330   3.934   2.610
 4735TIP3   OH214161   4.727   5.464   3.255
 4735TIP3    H114162   4.637   5.431   3.261
 4735TIP3    H214163   4.782   5.388   3.274
 4736TIP3   OH214164   0.457   2.756   6.385
 4736TIP3    H114165   0.511   2.720   6.315
 4736TIP3    H214166   0.505   2.736   6.466
 4737TIP3   OH214167   2.260   4.683   3.363
 4737TIP3    H114168   2.255   4.776   3.341
 4737TIP3    H214169   2.194   4.642   3.307
 4738TIP3   OH214170   0.485   5.333   0.804
 4738TIP3    H114171   0.398   5.301   0.828
 4738TIP3    H214172   0.544   5.260   0.822
 4739TIP3   OH214173   4.505   2.723   2.589
 4739TIP3    H114174   4.429   2.735   2.531
 4739TIP3    H214175   4.507   2.630   2.608
 4740TIP3   OH214176   6.290   4.899   4.216
 4740TIP3    H114177   6.248   4.962   4.275
 4740TIP3    H214178   6.375   4.880   4.257
 4741TIP3   OH214179   5.681   5.736   1.337
 4741TIP3    H114180   5.608   5.799   1.334
 4741TIP3    H214181   5.743   5.768   1.272
 4742TIP3   OH214182   1.717   1.930   2.659
 4742TIP3    H114183   1.764   1.885   2.730
 4742TIP3    H214184   1.631   1.950   2.697
 4743TIP3   OH214185   5.833   2.178   0.045
 4743TIP3    H114186   5.845   2.190  -0.049
 4743TIP3    H214187   5.894   2.240   0.085
 4744TIP3   OH214188   4.519   3.336   2.660
 4744TIP3    H114189   4.550   3.354   2.749
 4744TIP3    H214190   4.586   3.375   2.604
 4745TIP3   OH214191   0.374   6.489   5.134
 4745TIP3    H114192   0.383   6.448   5.048
 4745TIP3    H214193   0.414   6.576   5.124
 4746TIP3   OH214194   5.413   3.974   3.902
 4746TIP3    H114195   5.356   4.026   3.959
 4746TIP3    H214196   5.379   3.989   3.814
 4747TIP3   OH214197   2.739   7.649   5.771
 4747TIP3    H114198   2.652   7.689   5.763
 4747TIP3    H214199   2.786   7.677   5.693
 4748TIP3   OH214200   3.135   0.643   6.452
 4748TIP3    H114201   3.097   0.731   6.453
 4748TIP3    H214202   3.121   0.611   6.542
 4749TIP3   OH214203   0.205   6.073   4.897
 4749TIP3    H114204   0.120   6.030   4.898
 4749TIP3    H214205   0.212   6.109   4.808
 4750TIP3   OH214206   2.601   2.463   6.226
 4750TIP3    H114207   2.686   2.505   6.234
 4750TIP3    H214208   2.619   2.383   6.175
 4751TIP3   OH214209   6.805   2.768   3.391
 4751TIP3    H114210   6.836   2.678   3.377
 4751TIP3    H214211   6.817   2.811   3.307
 4752TIP3   OH214212   5.685   7.346   1.325
 4752TIP3    H114213   5.634   7.358   1.405
 4752TIP3    H214214   5.666   7.425   1.273
 4753TIP3   OH214215   6.365   2.032   1.209
 4753TIP3    H114216   6.393   2.118   1.176
 4753TIP3    H214217   6.321   2.052   1.292
 4754TIP3   OH214218   5.668   2.840   2.505
 4754TIP3    H114219   5.735   2.782   2.542
 4754TIP3    H214220   5.669   2.821   2.411
 4755TIP3   OH214221   2.632   1.510   1.329
 4755TIP3    H114222   2.611   1.596   1.366
 4755TIP3    H214223   2.716   1.487   1.369
 4756TIP3   OH214224   6.332   5.846   0.536
 4756TIP3    H114225   6.410   5.795   0.512
 4756TIP3    H214226   6.278   5.845   0.458
 4757TIP3   OH214227   7.036   2.050   6.429
 4757TIP3    H114228   7.015   2.024   6.339
 4757TIP3    H214229   7.117   2.099   6.421
 4758TIP3   OH214230   2.806   4.531   6.705
 4758TIP3    H114231   2.758   4.473   6.645
 4758TIP3    H214232   2.767   4.617   6.692
 4759TIP3   OH214233   8.145   3.449   5.726
 4759TIP3    H114234   8.055   3.439   5.695
 4759TIP3    H214235   8.162   3.543   5.722
 4760TIP3   OH214236   6.232   5.287   2.542
 4760TIP3    H114237   6.291   5.257   2.472
 4760TIP3    H214238   6.175   5.212   2.559
 4761TIP3   OH214239   6.103   4.322   6.485
 4761TIP3    H114240   6.192   4.288   6.497
 4761TIP3    H214241   6.114   4.417   6.473
 4762TIP3   OH214242   5.504   7.782   5.122
 4762TIP3    H114243   5.412   7.776   5.147
 4762TIP3    H214244   5.520   7.703   5.069
 4763TIP3   OH214245   6.404   0.792   0.339
 4763TIP3    H114246   6.444   0.803   0.425
 4763TIP3    H214247   6.446   0.714   0.303
 4764TIP3   OH214248   1.859   3.730   4.750
 4764TIP3    H114249   1.774   3.770   4.730
 4764TIP3    H214250   1.922   3.801   4.737
 4765TIP3   OH214251   0.415   2.791   2.964
 4765TIP3    H114252   0.377   2.860   2.909
 4765TIP3    H214253   0.357   2.787   3.040
 4766TIP3   OH214254   0.062   3.293   2.994
 4766TIP3    H114255   0.031   3.203   2.998
 4766TIP3    H214256   0.052   3.318   2.903
 4767TIP3   OH214257   1.320   6.685   4.792
 4767TIP3    H114258   1.376   6.758   4.765
 4767TIP3    H214259   1.259   6.724   4.855
 4768TIP3   OH214260   4.948   4.334   5.374
 4768TIP3    H114261   4.944   4.334   5.278
 4768TIP3    H214262   4.958   4.241   5.397
 4769TIP3   OH214263   0.048   4.509   2.948
 4769TIP3    H114264   0.050   4.479   2.857
 4769TIP3    H214265   0.074   4.601   2.943
 4770TIP3   OH214266   7.523   7.817   2.110
 4770TIP3    H114267   7.445   7.767   2.135
 4770TIP3    H214268   7.561   7.845   2.193
 4771TIP3   OH214269   2.172   5.350   0.622
 4771TIP3    H114270   2.230   5.290   0.577
 4771TIP3    H214271   2.131   5.298   0.691
 4772TIP3   OH214272   0.776   7.677   3.647
 4772TIP3    H114273   0.791   7.582   3.646
 4772TIP3    H214274   0.686   7.687   3.617
 4773TIP3   OH214275   0.942   5.036   0.658
 4773TIP3    H114276   0.950   5.130   0.644
 4773TIP3    H214277   0.850   5.022   0.683
 4774TIP3   OH214278   1.946   5.670   2.650
 4774TIP3    H114279   1.972   5.731   2.582
 4774TIP3    H214280   2.020   5.609   2.657
 4775TIP3   OH214281   8.047   1.720   0.361
 4775TIP3    H114282   7.984   1.648   0.359
 4775TIP3    H214283   8.032   1.763   0.445
 4776TIP3   OH214284   4.075   4.317   4.991
 4776TIP3    H114285   4.136   4.258   4.946
 4776TIP3    H214286   4.030   4.362   4.921
 4777TIP3   OH214287   6.830   0.535   3.127
 4777TIP3    H114288   6.834   0.609   3.066
 4777TIP3    H214289   6.740   0.536   3.160
 4778TIP3   OH214290   3.108   0.052   2.248
 4778TIP3    H114291   3.041   0.108   2.208
 4778TIP3    H214292   3.171   0.038   2.178
 4779TIP3   OH214293   5.152   5.830   0.167
 4779TIP3    H114294   5.110   5.905   0.208
 4779TIP3    H214295   5.230   5.813   0.219
 4780TIP3   OH214296   2.377   2.658   6.205
 4780TIP3    H114297   2.386   2.733   6.264
 4780TIP3    H214298   2.459   2.610   6.215
 4781TIP3   OH214299   3.460   5.985   0.017
 4781TIP3    H114300   3.375   6.020  -0.009
 4781TIP3    H214301   3.440   5.920   0.085
 4782TIP3   OH214302   2.765   3.901   6.771
 4782TIP3    H114303   2.816   3.821   6.762
 4782TIP3    H214304   2.716   3.907   6.688
 4783TIP3   OH214305   7.735   7.186   5.167
 4783TIP3    H114306   7.811   7.153   5.119
 4783TIP3    H214307   7.704   7.260   5.115
 4784TIP3   OH214308   2.252   7.044   6.047
 4784TIP3    H114309   2.234   7.052   5.953
 4784TIP3    H214310   2.173   7.079   6.089
 4785TIP3   OH214311   7.499   7.721   1.398
 4785TIP3    H114312   7.506   7.748   1.489
 4785TIP3    H214313   7.448   7.640   1.401
 4786TIP3   OH214314   4.721   3.104   3.080
 4786TIP3    H114315   4.727   3.124   3.174
 4786TIP3    H214316   4.807   3.070   3.057
 4787TIP3   OH214317   4.921   0.600   4.441
 4787TIP3    H114318   4.906   0.658   4.515
 4787TIP3    H214319   4.903   0.513   4.475
 4788TIP3   OH214320   6.470   5.487   1.885
 4788TIP3    H114321   6.415   5.475   1.808
 4788TIP3    H214322   6.492   5.398   1.912
 4789TIP3   OH214323   3.877   4.130   5.903
 4789TIP3    H114324   3.899   4.038   5.917
 4789TIP3    H214325   3.933   4.159   5.831
 4790TIP3   OH214326   2.764   4.404   0.489
 4790TIP3    H114327   2.850   4.387   0.451
 4790TIP3    H214328   2.747   4.327   0.544
 4791TIP3   OH214329   7.115   6.594   1.260
 4791TIP3    H114330   7.068   6.618   1.181
 4791TIP3    H214331   7.064   6.632   1.332
 4792TIP3   OH214332   5.743   3.627   6.555
 4792TIP3    H114333   5.815   3.576   6.592
 4792TIP3    H214334   5.721   3.583   6.473
 4793TIP3   OH214335   6.266   3.576   1.836
 4793TIP3    H114336   6.355   3.593   1.804
 4793TIP3    H214337   6.275   3.499   1.892
 4794TIP3   OH214338   4.444   0.555   6.713
 4794TIP3    H114339   4.538   0.554   6.693
 4794TIP3    H214340   4.425   0.467   6.745
 4795TIP3   OH214341   2.686   4.241   1.298
 4795TIP3    H114342   2.744   4.293   1.354
 4795TIP3    H214343   2.610   4.221   1.352
 4796TIP3   OH214344   1.923   4.475   4.093
 4796TIP3    H114345   1.901   4.568   4.101
 4796TIP3    H214346   1.840   4.430   4.110
 4797TIP3   OH214347   6.019   4.385   1.837
 4797TIP3    H114348   5.934   4.373   1.878
 4797TIP3    H214349   6.030   4.480   1.832
 4798TIP3   OH214350   5.178   0.483   0.643
 4798TIP3    H114351   5.176   0.397   0.601
 4798TIP3    H214352   5.095   0.524   0.618
 4799TIP3   OH214353   7.795   7.662   0.987
 4799TIP3    H114354   7.807   7.742   0.935
 4799TIP3    H214355   7.821   7.591   0.928
 4800TIP3   OH214356   0.551   1.077   1.967
 4800TIP3    H114357   0.646   1.069   1.959
 4800TIP3    H214358   0.516   1.040   1.886
 4801TIP3   OH214359   4.073   6.312   0.769
 4801TIP3    H114360   4.028   6.267   0.697
 4801TIP3    H214361   4.025   6.285   0.848
 4802TIP3   OH214362   4.599   3.901   1.787
 4802TIP3    H114363   4.546   3.926   1.862
 4802TIP3    H214364   4.611   3.983   1.738
 4803TIP3   OH214365   5.362   6.979   2.549
 4803TIP3    H114366   5.348   6.884   2.554
 4803TIP3    H214367   5.288   7.017   2.595
 4804TIP3   OH214368   4.456   3.926   0.857
 4804TIP3    H114369   4.460   4.016   0.823
 4804TIP3    H214370   4.464   3.871   0.779
 4805TIP3   OH214371   6.818   5.093   5.897
 4805TIP3    H114372   6.869   5.012   5.888
 4805TIP3    H214373   6.773   5.102   5.814
 4806TIP3   OH214374   1.710   3.729   4.094
 4806TIP3    H114375   1.786   3.671   4.093
 4806TIP3    H214376   1.645   3.684   4.041
 4807TIP3   OH214377   1.912   2.195   6.079
 4807TIP3    H114378   1.816   2.199   6.083
 4807TIP3    H214379   1.940   2.284   6.102
 4808TIP3   OH214380   4.726   5.418   5.232
 4808TIP3    H114381   4.750   5.410   5.324
 4808TIP3    H214382   4.791   5.478   5.196
 4809TIP3   OH214383   4.089   4.514   5.178
 4809TIP3    H114384   4.071   4.596   5.133
 4809TIP3    H214385   4.117   4.454   5.109
 4810TIP3   OH214386   0.988   3.443   4.664
 4810TIP3    H114387   0.994   3.497   4.586
 4810TIP3    H214388   1.026   3.496   4.734
 4811TIP3   OH214389   2.566   2.162   3.642
 4811TIP3    H114390   2.548   2.176   3.550
 4811TIP3    H214391   2.519   2.082   3.665
 4812TIP3   OH214392   3.777   3.080   1.724
 4812TIP3    H114393   3.724   3.067   1.803
 4812TIP3    H214394   3.855   3.026   1.738
 4813TIP3   OH214395   1.697   1.008   4.246
 4813TIP3    H114396   1.755   1.071   4.203
 4813TIP3    H214397   1.685   1.042   4.334
 4814TIP3   OH214398   1.183   3.977   6.123
 4814TIP3    H114399   1.228   4.038   6.182
 4814TIP3    H214400   1.134   4.034   6.063
 4815TIP3   OH214401   7.460   2.553   0.942
 4815TIP3    H114402   7.472   2.617   1.012
 4815TIP3    H214403   7.372   2.570   0.908
 4816TIP3   OH214404   2.866   7.458   2.540
 4816TIP3    H114405   2.877   7.553   2.538
 4816TIP3    H214406   2.944   7.426   2.586
 4817TIP3   OH214407   7.841   0.143   6.492
 4817TIP3    H114408   7.884   0.092   6.422
 4817TIP3    H214409   7.861   0.234   6.471
 4818TIP3   OH214410   0.706   1.051   1.618
 4818TIP3    H114411   0.651   1.036   1.541
 4818TIP3    H214412   0.669   1.129   1.659
 4819TIP3   OH214413   3.884   6.208   4.252
 4819TIP3    H114414   3.964   6.180   4.298
 4819TIP3    H214415   3.913   6.283   4.199
 4820TIP3   OH214416   5.491   7.151   1.706
 4820TIP3    H114417   5.499   7.080   1.643
 4820TIP3    H214418   5.462   7.109   1.787
 4821TIP3   OH214419   1.356   6.129   3.599
 4821TIP3    H114420   1.414   6.058   3.570
 4821TIP3    H214421   1.390   6.207   3.556
 4822TIP3   OH214422   0.615   5.715   2.109
 4822TIP3    H114423   0.685   5.745   2.167
 4822TIP3    H214424   0.652   5.724   2.021
 4823TIP3   OH214425   7.665   5.103   6.369
 4823TIP3    H114426   7.714   5.067   6.443
 4823TIP3    H214427   7.705   5.188   6.353
 4824TIP3   OH214428   7.392   2.005   3.400
 4824TIP3    H114429   7.314   2.008   3.455
 4824TIP3    H214430   7.403   1.912   3.379
 4825TIP3   OH214431   4.659   4.507   1.858
 4825TIP3    H114432   4.725   4.518   1.926
 4825TIP3    H214433   4.680   4.576   1.794
 4826TIP3   OH214434   1.143   0.441   4.448
 4826TIP3    H114435   1.107   0.483   4.525
 4826TIP3    H214436   1.166   0.513   4.389
 4827TIP3   OH214437   6.598   1.357   6.222
 4827TIP3    H114438   6.588   1.426   6.157
 4827TIP3    H214439   6.670   1.303   6.189
 4828TIP3   OH214440   3.486   0.318   1.191
 4828TIP3    H114441   3.479   0.260   1.267
 4828TIP3    H214442   3.503   0.259   1.118
 4829TIP3   OH214443   1.644   6.005   4.960
 4829TIP3    H114444   1.582   6.035   5.026
 4829TIP3    H214445   1.729   6.007   5.004
 4830TIP3   OH214446   1.098   0.957   4.752
 4830TIP3    H114447   1.124   0.922   4.837
 4830TIP3    H214448   1.048   0.887   4.711
 4831TIP3   OH214449   6.731   1.645   4.245
 4831TIP3    H114450   6.714   1.556   4.276
 4831TIP3    H214451   6.811   1.672   4.291
 4832TIP3   OH214452   4.598   2.700   6.383
 4832TIP3    H114453   4.616   2.737   6.469
 4832TIP3    H214454   4.606   2.773   6.322
 4833TIP3   OH214455   3.785   0.491   0.515
 4833TIP3    H114456   3.725   0.446   0.575
 4833TIP3    H214457   3.852   0.426   0.496
 4834TIP3   OH214458   3.372   6.583   1.804
 4834TIP3    H114459   3.319   6.503   1.800
 4834TIP3    H214460   3.353   6.629   1.723
 4835TIP3   OH214461   1.412   7.583   3.821
 4835TIP3    H114462   1.483   7.647   3.811
 4835TIP3    H214463   1.332   7.635   3.821
 4836TIP3   OH214464   6.049   5.987   3.952
 4836TIP3    H114465   6.075   6.079   3.960
 4836TIP3    H214466   6.023   5.978   3.860
 4837TIP3   OH214467   0.846   7.586   3.263
 4837TIP3    H114468   0.762   7.590   3.308
 4837TIP3    H214469   0.899   7.528   3.318
 4838TIP3   OH214470   0.273   5.672   1.259
 4838TIP3    H114471   0.354   5.642   1.299
 4838TIP3    H214472   0.230   5.592   1.228
 4839TIP3   OH214473   2.525   1.756   6.246
 4839TIP3    H114474   2.574   1.704   6.311
 4839TIP3    H214475   2.574   1.744   6.165
 4840TIP3   OH214476   6.136   2.703   3.442
 4840TIP3    H114477   6.215   2.661   3.410
 4840TIP3    H214478   6.097   2.638   3.501
 4841TIP3   OH214479   4.287   5.418   1.822
 4841TIP3    H114480   4.336   5.447   1.899
 4841TIP3    H214481   4.347   5.360   1.775
 4842TIP3   OH214482   2.607   3.993   6.561
 4842TIP3    H114483   2.609   3.982   6.466
 4842TIP3    H214484   2.514   3.991   6.583
 4843TIP3   OH214485   1.226   1.547   1.079
 4843TIP3    H114486   1.316   1.563   1.050
 4843TIP3    H214487   1.176   1.536   0.998
 4844TIP3   OH214488   6.204   2.573   1.114
 4844TIP3    H114489   6.196   2.613   1.028
 4844TIP3    H214490   6.282   2.612   1.153
 4845TIP3   OH214491   5.286   6.284   3.890
 4845TIP3    H114492   5.256   6.264   3.801
 4845TIP3    H214493   5.218   6.247   3.947
 4846TIP3   OH214494   3.393   1.792   4.141
 4846TIP3    H114495   3.401   1.888   4.148
 4846TIP3    H214496   3.303   1.778   4.110
 4847TIP3   OH214497   5.821   7.592   4.159
 4847TIP3    H114498   5.821   7.499   4.138
 4847TIP3    H214499   5.910   7.610   4.190
 4848TIP3   OH214500   3.124   4.982   1.168
 4848TIP3    H114501   3.218   4.966   1.177
 4848TIP3    H214502   3.083   4.903   1.203
 4849TIP3   OH214503   0.730   7.775   2.146
 4849TIP3    H114504   0.717   7.811   2.234
 4849TIP3    H214505   0.751   7.682   2.161
 4850TIP3   OH214506   6.140   2.061   4.902
 4850TIP3    H114507   6.174   2.133   4.956
 4850TIP3    H214508   6.194   1.986   4.926
 4851TIP3   OH214509   6.430   2.915   0.826
 4851TIP3    H114510   6.436   2.819   0.822
 4851TIP3    H214511   6.346   2.935   0.783
 4852TIP3   OH214512   6.808   1.221   5.958
 4852TIP3    H114513   6.758   1.229   5.877
 4852TIP3    H214514   6.900   1.219   5.929
 4853TIP3   OH214515   6.059   4.158   2.917
 4853TIP3    H114516   6.137   4.171   2.862
 4853TIP3    H214517   6.049   4.063   2.920
 4854TIP3   OH214518   7.004   5.121   2.169
 4854TIP3    H114519   6.953   5.126   2.088
 4854TIP3    H214520   6.938   5.120   2.239
 4855TIP3   OH214521   0.788   0.219   5.225
 4855TIP3    H114522   0.761   0.164   5.151
 4855TIP3    H214523   0.764   0.308   5.199
 4856TIP3   OH214524   3.998   1.808   3.395
 4856TIP3    H114525   3.939   1.882   3.410
 4856TIP3    H214526   3.949   1.751   3.335
 4857TIP3   OH214527   0.402   4.056   0.185
 4857TIP3    H114528   0.375   3.984   0.241
 4857TIP3    H214529   0.389   4.024   0.096
 4858TIP3   OH214530   2.326   5.967   3.155
 4858TIP3    H114531   2.326   5.871   3.155
 4858TIP3    H214532   2.415   5.990   3.181
 4859TIP3   OH214533   2.068   3.789   1.913
 4859TIP3    H114534   2.159   3.802   1.887
 4859TIP3    H214535   2.074   3.753   2.002
 4860TIP3   OH214536   6.490   6.849   4.221
 4860TIP3    H114537   6.430   6.886   4.286
 4860TIP3    H214538   6.434   6.832   4.145
 4861TIP3   OH214539   7.222   2.166   4.621
 4861TIP3    H114540   7.242   2.097   4.683
 4861TIP3    H214541   7.193   2.240   4.674
 4862TIP3   OH214542   0.375   4.205   2.683
 4862TIP3    H114543   0.393   4.197   2.777
 4862TIP3    H214544   0.389   4.298   2.664
 4863TIP3   OH214545   8.206   0.758   4.309
 4863TIP3    H114546   8.149   0.768   4.233
 4863TIP3    H214547   8.281   0.709   4.277
 4864TIP3   OH214548   2.865   0.288   6.317
 4864TIP3    H114549   2.821   0.205   6.335
 4864TIP3    H214550   2.801   0.355   6.342
 4865TIP3   OH214551   7.215   5.354   5.976
 4865TIP3    H114552   7.269   5.317   5.906
 4865TIP3    H214553   7.266   5.339   6.055
 4866TIP3   OH214554   6.808   3.656   1.440
 4866TIP3    H114555   6.718   3.665   1.470
 4866TIP3    H214556   6.801   3.649   1.345
 4867TIP3   OH214557   4.711   0.015   5.912
 4867TIP3    H114558   4.798  -0.024   5.913
 4867TIP3    H214559   4.711   0.078   5.984
 4868TIP3   OH214560   5.939   0.116   1.023
 4868TIP3    H114561   5.870   0.091   1.084
 4868TIP3    H214562   6.004   0.045   1.029
 4869TIP3   OH214563   7.445   3.888   0.289
 4869TIP3    H114564   7.436   3.793   0.299
 4869TIP3    H214565   7.368   3.915   0.239
 4870TIP3   OH214566   5.397   3.933   5.108
 4870TIP3    H114567   5.410   3.839   5.116
 4870TIP3    H214568   5.342   3.957   5.182
 4871TIP3   OH214569   5.721   4.457   1.184
 4871TIP3    H114570   5.722   4.406   1.265
 4871TIP3    H214571   5.669   4.404   1.123
 4872TIP3   OH214572   4.964   4.363   3.886
 4872TIP3    H114573   5.010   4.364   3.802
 4872TIP3    H214574   4.919   4.447   3.890
 4873TIP3   OH214575   4.313   3.521   6.605
 4873TIP3    H114576   4.380   3.454   6.587
 4873TIP3    H214577   4.358   3.604   6.590
 4874TIP3   OH214578   3.647   7.253   1.988
 4874TIP3    H114579   3.634   7.334   1.939
 4874TIP3    H214580   3.738   7.257   2.017
 4875TIP3   OH214581   0.393   4.176   4.309
 4875TIP3    H114582   0.404   4.269   4.290
 4875TIP3    H214583   0.313   4.171   4.361
 4876TIP3   OH214584   7.043   6.490   3.819
 4876TIP3    H114585   7.022   6.454   3.905
 4876TIP3    H214586   6.961   6.486   3.770
 4877TIP3   OH214587   4.239   1.970   3.411
 4877TIP3    H114588   4.265   1.994   3.322
 4877TIP3    H214589   4.159   1.918   3.400
 4878TIP3   OH214590   5.929   3.253   0.891
 4878TIP3    H114591   5.971   3.200   0.958
 4878TIP3    H214592   5.899   3.189   0.825
 4879TIP3   OH214593   1.095   2.584   1.781
 4879TIP3    H114594   1.105   2.505   1.729
 4879TIP3    H214595   1.121   2.655   1.723
 4880TIP3   OH214596   0.820   4.215   5.431
 4880TIP3    H114597   0.754   4.217   5.361
 4880TIP3    H214598   0.901   4.191   5.386
 4881TIP3   OH214599   1.484   4.221   4.359
 4881TIP3    H114600   1.463   4.314   4.373
 4881TIP3    H214601   1.565   4.222   4.309
 4882TIP3   OH214602   3.480   1.241   6.041
 4882TIP3    H114603   3.496   1.253   6.135
 4882TIP3    H214604   3.550   1.183   6.012
 4883TIP3   OH214605   3.906   7.085   4.666
 4883TIP3    H114606   3.929   7.160   4.721
 4883TIP3    H214607   3.928   7.114   4.577
 4884TIP3   OH214608   7.173   5.063   2.895
 4884TIP3    H114609   7.265   5.080   2.875
 4884TIP3    H214610   7.150   4.989   2.840
 4885TIP3   OH214611   4.085   6.282   6.061
 4885TIP3    H114612   3.990   6.280   6.053
 4885TIP3    H214613   4.112   6.190   6.057
 4886TIP3   OH214614   2.892   5.488   1.649
 4886TIP3    H114615   2.965   5.428   1.664
 4886TIP3    H214616   2.927   5.575   1.669
 4887TIP3   OH214617   3.334   2.803   2.879
 4887TIP3    H114618   3.375   2.888   2.863
 4887TIP3    H214619   3.312   2.803   2.972
 4888TIP3   OH214620   7.032   2.706   3.861
 4888TIP3    H114621   7.017   2.671   3.949
 4888TIP3    H214622   7.059   2.796   3.876
 4889TIP3   OH214623   6.422   2.879   4.748
 4889TIP3    H114624   6.510   2.852   4.774
 4889TIP3    H214625   6.419   2.863   4.654
 4890TIP3   OH214626   1.664   6.565   4.697
 4890TIP3    H114627   1.753   6.557   4.731
 4890TIP3    H214628   1.618   6.489   4.731
 4891TIP3   OH214629   6.369   0.612   5.301
 4891TIP3    H114630   6.362   0.544   5.235
 4891TIP3    H214631   6.446   0.587   5.354
 4892TIP3   OH214632   5.096   5.908   2.257
 4892TIP3    H114633   5.182   5.905   2.216
 4892TIP3    H214634   5.113   5.894   2.350
 4893TIP3   OH214635   1.925   6.067   5.536
 4893TIP3    H114636   1.950   5.975   5.530
 4893TIP3    H214637   1.973   6.109   5.464
 4894TIP3   OH214638   4.998   4.662   0.798
 4894TIP3    H114639   5.060   4.652   0.726
 4894TIP3    H214640   5.025   4.742   0.842
 4895TIP3   OH214641   0.407   0.607   5.470
 4895TIP3    H114642   0.409   0.654   5.553
 4895TIP3    H214643   0.338   0.541   5.481
 4896TIP3   OH214644   7.679   5.396   6.576
 4896TIP3    H114645   7.750   5.460   6.579
 4896TIP3    H214646   7.718   5.314   6.605
 4897TIP3   OH214647   6.996   4.528   0.781
 4897TIP3    H114648   7.063   4.471   0.744
 4897TIP3    H214649   6.914   4.483   0.764
 4898TIP3   OH214650   1.035   7.589   2.847
 4898TIP3    H114651   1.071   7.645   2.915
 4898TIP3    H214652   1.111   7.546   2.809
 4899TIP3   OH214653   8.084   5.412   3.300
 4899TIP3    H114654   7.997   5.418   3.340
 4899TIP3    H214655   8.067   5.404   3.207
 4900TIP3   OH214656   1.215   2.157   1.731
 4900TIP3    H114657   1.268   2.237   1.727
 4900TIP3    H214658   1.196   2.137   1.639
 4901TIP3   OH214659   2.781   0.042   6.347
 4901TIP3    H114660   2.819  -0.044   6.331
 4901TIP3    H214661   2.748   0.038   6.437
 4902TIP3   OH214662   1.696   0.180   0.429
 4902TIP3    H114663   1.745   0.189   0.511
 4902TIP3    H214664   1.643   0.260   0.425
 4903TIP3   OH214665   3.340   3.220   2.332
 4903TIP3    H114666   3.313   3.257   2.416
 4903TIP3    H214667   3.294   3.137   2.326
 4904TIP3   OH214668   5.646   1.776   1.475
 4904TIP3    H114669   5.663   1.756   1.382
 4904TIP3    H214670   5.716   1.731   1.522
 4905TIP3   OH214671   5.845   5.543   3.164
 4905TIP3    H114672   5.883   5.481   3.227
 4905TIP3    H214673   5.915   5.606   3.147
 4906TIP3   OH214674   2.725   1.686   4.798
 4906TIP3    H114675   2.694   1.596   4.804
 4906TIP3    H214676   2.645   1.739   4.793
 4907TIP3   OH214677   3.839   4.124   0.207
 4907TIP3    H114678   3.778   4.186   0.248
 4907TIP3    H214679   3.785   4.049   0.186
 4908TIP3   OH214680   4.632   2.445   6.509
 4908TIP3    H114681   4.603   2.521   6.458
 4908TIP3    H214682   4.689   2.396   6.450
 4909TIP3   OH214683   7.934   0.826   6.312
 4909TIP3    H114684   7.909   0.911   6.278
 4909TIP3    H214685   7.852   0.776   6.314
 4910TIP3   OH214686   3.169   3.874   4.138
 4910TIP3    H114687   3.102   3.868   4.070
 4910TIP3    H214688   3.236   3.931   4.101
 4911TIP3   OH214689   2.764   3.225   2.027
 4911TIP3    H114690   2.832   3.174   2.071
 4911TIP3    H214691   2.810   3.273   1.958
 4912TIP3   OH214692   3.594   7.548   2.598
 4912TIP3    H114693   3.573   7.476   2.658
 4912TIP3    H214694   3.576   7.512   2.511
 4913TIP3   OH214695   1.930   3.796   6.345
 4913TIP3    H114696   1.856   3.791   6.406
 4913TIP3    H214697   1.890   3.820   6.261
 4914TIP3   OH214698   5.081   7.728   4.853
 4914TIP3    H114699   5.019   7.656   4.841
 4914TIP3    H214700   5.167   7.685   4.855
 4915TIP3   OH214701   2.338   6.992   2.602
 4915TIP3    H114702   2.392   6.952   2.670
 4915TIP3    H214703   2.256   7.013   2.646
 4916TIP3   OH214704   4.773   7.388   2.595
 4916TIP3    H114705   4.740   7.377   2.506
 4916TIP3    H214706   4.847   7.448   2.586
 4917TIP3   OH214707   8.059   0.220   6.169
 4917TIP3    H114708   7.966   0.239   6.154
 4917TIP3    H214709   8.059   0.134   6.210
 4918TIP3   OH214710   1.246   0.317   5.120
 4918TIP3    H114711   1.257   0.277   5.206
 4918TIP3    H214712   1.334   0.320   5.083
 4919TIP3   OH214713   3.426   5.252   3.078
 4919TIP3    H114714   3.397   5.164   3.053
 4919TIP3    H214715   3.371   5.275   3.153
 4920TIP3   OH214716   3.623   6.272   4.689
 4920TIP3    H114717   3.711   6.302   4.712
 4920TIP3    H214718   3.592   6.335   4.625
 4921TIP3   OH214719   0.578   5.958   0.633
 4921TIP3    H114720   0.491   5.921   0.649
 4921TIP3    H214721   0.565   6.053   0.641
 4922TIP3   OH214722   5.586   4.587   1.568
 4922TIP3    H114723   5.596   4.493   1.553
 4922TIP3    H214724   5.598   4.597   1.662
 4923TIP3   OH214725   5.375   0.969   6.088
 4923TIP3    H114726   5.289   1.006   6.069
 4923TIP3    H214727   5.417   0.962   6.002
 4924TIP3   OH214728   0.515   5.166   2.436
 4924TIP3    H114729   0.485   5.130   2.520
 4924TIP3    H214730   0.569   5.097   2.397
 4925TIP3   OH214731   6.173   6.520   3.034
 4925TIP3    H114732   6.193   6.596   2.979
 4925TIP3    H214733   6.170   6.447   2.974
 4926TIP3   OH214734   2.272   5.331   0.993
 4926TIP3    H114735   2.198   5.329   1.054
 4926TIP3    H214736   2.276   5.421   0.962
 4927TIP3   OH214737   7.116   4.450   4.568
 4927TIP3    H114738   7.191   4.413   4.521
 4927TIP3    H214739   7.146   4.459   4.658
 4928TIP3   OH214740   3.825   6.242   6.016
 4928TIP3    H114741   3.799   6.316   5.960
 4928TIP3    H214742   3.814   6.165   5.960
 4929TIP3   OH214743   6.935   0.870   0.408
 4929TIP3    H114744   6.903   0.780   0.413
 4929TIP3    H214745   7.030   0.862   0.418
 4930TIP3   OH214746   2.779   6.046   4.226
 4930TIP3    H114747   2.829   6.081   4.152
 4930TIP3    H214748   2.768   5.953   4.205
 4931TIP3   OH214749   4.516   7.752   3.926
 4931TIP3    H114750   4.608   7.731   3.943
 4931TIP3    H214751   4.479   7.670   3.894
 4932TIP3   OH214752   4.927   5.573   3.147
 4932TIP3    H114753   4.987   5.504   3.119
 4932TIP3    H214754   4.872   5.533   3.214
 4933TIP3   OH214755   4.412   5.625   3.124
 4933TIP3    H114756   4.473   5.588   3.060
 4933TIP3    H214757   4.468   5.673   3.185
 4934TIP3   OH214758   0.848   7.533   4.601
 4934TIP3    H114759   0.773   7.489   4.641
 4934TIP3    H214760   0.830   7.627   4.613
 4935TIP3   OH214761   1.684   3.349   5.204
 4935TIP3    H114762   1.700   3.300   5.124
 4935TIP3    H214763   1.749   3.419   5.203
 4936TIP3   OH214764   8.166   2.154   3.735
 4936TIP3    H114765   8.119   2.219   3.786
 4936TIP3    H214766   8.196   2.201   3.657
 4937TIP3   OH214767   0.294   4.380   1.407
 4937TIP3    H114768   0.212   4.418   1.377
 4937TIP3    H214769   0.308   4.419   1.493
 4938TIP3   OH214770   8.200   1.012   3.347
 4938TIP3    H114771   8.209   0.925   3.387
 4938TIP3    H214772   8.289   1.048   3.347
 4939TIP3   OH214773   3.566   3.076   1.306
 4939TIP3    H114774   3.536   3.130   1.234
 4939TIP3    H214775   3.518   3.108   1.383
 4940TIP3   OH214776   7.034   6.896   0.796
 4940TIP3    H114777   6.954   6.870   0.751
 4940TIP3    H214778   7.070   6.967   0.742
 4941TIP3   OH214779   0.905   4.741   5.420
 4941TIP3    H114780   0.824   4.769   5.378
 4941TIP3    H214781   0.950   4.690   5.354
 4942TIP3   OH214782   0.409   7.381   4.460
 4942TIP3    H114783   0.320   7.409   4.480
 4942TIP3    H214784   0.437   7.439   4.389
 4943TIP3   OH214785   3.702   3.075   2.846
 4943TIP3    H114786   3.772   3.075   2.911
 4943TIP3    H214787   3.739   3.024   2.773
 4944TIP3   OH214788   1.602   2.493   6.018
 4944TIP3    H114789   1.605   2.497   6.114
 4944TIP3    H214790   1.509   2.506   5.997
 4945TIP3   OH214791   8.074   6.163   5.107
 4945TIP3    H114792   8.069   6.069   5.126
 4945TIP3    H214793   8.163   6.176   5.076
 4946TIP3   OH214794   6.752   7.355   1.671
 4946TIP3    H114795   6.697   7.423   1.631
 4946TIP3    H214796   6.817   7.403   1.723
 4947TIP3   OH214797   3.670   2.276   6.583
 4947TIP3    H114798   3.755   2.302   6.617
 4947TIP3    H214799   3.647   2.198   6.633
 4948TIP3   OH214800   3.909   7.282   0.051
 4948TIP3    H114801   3.880   7.266   0.141
 4948TIP3    H214802   3.854   7.224  -0.003
 4949TIP3   OH214803   0.312   7.535   5.575
 4949TIP3    H114804   0.248   7.591   5.532
 4949TIP3    H214805   0.330   7.579   5.658
 4950TIP3   OH214806   4.754   3.803   4.433
 4950TIP3    H114807   4.846   3.777   4.428
 4950TIP3    H214808   4.718   3.751   4.504
 4951TIP3   OH214809   6.558   4.243   1.685
 4951TIP3    H114810   6.586   4.180   1.619
 4951TIP3    H214811   6.469   4.268   1.659
 4952TIP3   OH214812   3.761   0.076   4.355
 4952TIP3    H114813   3.753  -0.016   4.379
 4952TIP3    H214814   3.710   0.084   4.274
 4953TIP3   OH214815   2.818   4.224   5.014
 4953TIP3    H114816   2.728   4.250   5.033
 4953TIP3    H214817   2.848   4.289   4.951
 4954TIP3   OH214818   5.552   0.441   3.359
 4954TIP3    H114819   5.639   0.436   3.400
 4954TIP3    H214820   5.507   0.362   3.389
 4955TIP3   OH214821   4.189   1.081   1.799
 4955TIP3    H114822   4.159   1.040   1.718
 4955TIP3    H214823   4.191   1.175   1.779
 4956TIP3   OH214824   0.021   1.125   3.939
 4956TIP3    H114825  -0.028   1.042   3.940
 4956TIP3    H214826   0.077   1.119   3.862
 4957TIP3   OH214827   3.189   3.171   3.997
 4957TIP3    H114828   3.282   3.193   4.002
 4957TIP3    H214829   3.165   3.192   3.906
 4958TIP3   OH214830   5.438   4.689   0.391
 4958TIP3    H114831   5.471   4.656   0.475
 4958TIP3    H214832   5.453   4.618   0.329
 4959TIP3   OH214833   2.440   3.012   0.715
 4959TIP3    H114834   2.535   3.015   0.703
 4959TIP3    H214835   2.404   3.025   0.628
 4960TIP3   OH214836   1.001   3.256   5.550
 4960TIP3    H114837   1.013   3.339   5.504
 4960TIP3    H214838   0.953   3.279   5.629
 4961TIP3   OH214839   6.723   7.003   5.820
 4961TIP3    H114840   6.688   7.046   5.743
 4961TIP3    H214841   6.760   6.921   5.788
 4962TIP3   OH214842   2.125   4.769   6.404
 4962TIP3    H114843   2.076   4.792   6.325
 4962TIP3    H214844   2.127   4.674   6.404
 4963TIP3   OH214845   6.033   5.262   0.647
 4963TIP3    H114846   5.947   5.279   0.686
 4963TIP3    H214847   6.090   5.243   0.722
 4964TIP3   OH214848   6.078   6.127   0.930
 4964TIP3    H114849   6.066   6.043   0.974
 4964TIP3    H214850   6.156   6.116   0.876
 4965TIP3   OH214851   7.446   7.768   1.704
 4965TIP3    H114852   7.372   7.714   1.732
 4965TIP3    H214853   7.407   7.852   1.680
 4966TIP3   OH214854   6.608   0.475   5.398
 4966TIP3    H114855   6.633   0.563   5.428
 4966TIP3    H214856   6.619   0.479   5.303
 4967TIP3   OH214857   7.794   1.957   4.061
 4967TIP3    H114858   7.767   1.873   4.023
 4967TIP3    H214859   7.722   2.017   4.041
 4968TIP3   OH214860   1.923   5.565   1.589
 4968TIP3    H114861   1.899   5.518   1.669
 4968TIP3    H214862   1.839   5.582   1.545
 4969TIP3   OH214863   3.710   5.821   4.101
 4969TIP3    H114864   3.684   5.892   4.160
 4969TIP3    H214865   3.645   5.753   4.116
 4970TIP3   OH214866   1.145   0.003   4.501
 4970TIP3    H114867   1.070  -0.024   4.448
 4970TIP3    H214868   1.165   0.092   4.470
 4971TIP3   OH214869   2.451   5.437   4.666
 4971TIP3    H114870   2.471   5.455   4.574
 4971TIP3    H214871   2.356   5.437   4.671
 4972TIP3   OH214872   7.958   5.330   1.917
 4972TIP3    H114873   7.961   5.281   1.835
 4972TIP3    H214874   7.870   5.314   1.952
 4973TIP3   OH214875   8.120   1.869   5.197
 4973TIP3    H114876   8.159   1.954   5.175
 4973TIP3    H214877   8.113   1.870   5.292
 4974TIP3   OH214878   1.525   2.501   3.344
 4974TIP3    H114879   1.579   2.555   3.288
 4974TIP3    H214880   1.556   2.519   3.433
 4975TIP3   OH214881   6.836   3.557   2.687
 4975TIP3    H114882   6.833   3.628   2.751
 4975TIP3    H214883   6.845   3.600   2.603
 4976TIP3   OH214884   0.414   0.160   2.744
 4976TIP3    H114885   0.441   0.149   2.836
 4976TIP3    H214886   0.462   0.238   2.715
 4977TIP3   OH214887   4.688   6.922   1.777
 4977TIP3    H114888   4.650   6.883   1.856
 4977TIP3    H214889   4.765   6.969   1.809
 4978TIP3   OH214890   0.694   4.452   6.019
 4978TIP3    H114891   0.642   4.468   5.941
 4978TIP3    H214892   0.744   4.533   6.031
 4979TIP3   OH214893   1.226   5.000   2.540
 4979TIP3    H114894   1.203   5.079   2.588
 4979TIP3    H214895   1.153   4.986   2.479
 4980TIP3   OH214896   5.852   5.320   5.288
 4980TIP3    H114897   5.807   5.237   5.305
 4980TIP3    H214898   5.786   5.387   5.307
 4981TIP3   OH214899   3.395   7.026   5.885
 4981TIP3    H114900   3.469   7.013   5.945
 4981TIP3    H214901   3.430   7.083   5.817
 4982TIP3   OH214902   5.024   3.620   0.517
 4982TIP3    H114903   4.987   3.617   0.605
 4982TIP3    H214904   5.028   3.713   0.495
 4983TIP3   OH214905   2.111   6.565   6.603
 4983TIP3    H114906   2.128   6.604   6.689
 4983TIP3    H214907   2.197   6.557   6.563
 4984TIP3   OH214908   7.176   3.183   6.063
 4984TIP3    H114909   7.214   3.228   5.986
 4984TIP3    H214910   7.140   3.102   6.028
 4985TIP3   OH214911   5.612   0.495   4.702
 4985TIP3    H114912   5.586   0.575   4.656
 4985TIP3    H214913   5.573   0.424   4.651
 4986TIP3   OH214914   8.128   2.995   3.256
 4986TIP3    H114915   8.090   3.072   3.214
 4986TIP3    H214916   8.095   2.921   3.205
 4987TIP3   OH214917   2.026   5.404   1.403
 4987TIP3    H114918   2.113   5.383   1.438
 4987TIP3    H214919   2.002   5.485   1.447
 4988TIP3   OH214920   7.764   2.466   1.252
 4988TIP3    H114921   7.690   2.490   1.308
 4988TIP3    H214922   7.819   2.411   1.307
 4989TIP3   OH214923   3.124   7.738   5.110
 4989TIP3    H114924   3.188   7.803   5.081
 4989TIP3    H214925   3.039   7.772   5.080
 4990TIP3   OH214926   0.333   2.994   2.196
 4990TIP3    H114927   0.344   3.052   2.121
 4990TIP3    H214928   0.372   3.041   2.270
 4991TIP3   OH214929   6.590   5.415   6.415
 4991TIP3    H114930   6.501   5.408   6.449
 4991TIP3    H214931   6.638   5.346   6.460
 4992TIP3   OH214932   7.699   6.463   6.083
 4992TIP3    H114933   7.629   6.437   6.143
 4992TIP3    H214934   7.684   6.557   6.069
 4993TIP3   OH214935   2.968   7.329   5.381
 4993TIP3    H114936   2.953   7.343   5.288
 4993TIP3    H214937   2.995   7.237   5.388
 4994TIP3   OH214938   3.214   4.165   5.918
 4994TIP3    H114939   3.292   4.134   5.964
 4994TIP3    H214940   3.238   4.162   5.826
 4995TIP3   OH214941   2.859   3.790   4.564
 4995TIP3    H114942   2.833   3.853   4.631
 4995TIP3    H214943   2.951   3.771   4.583
 4996TIP3   OH214944   4.128   2.192   5.643
 4996TIP3    H114945   4.175   2.114   5.614
 4996TIP3    H214946   4.132   2.189   5.739
 4997TIP3   OH214947   1.957   0.357   1.198
 4997TIP3    H114948   1.978   0.424   1.133
 4997TIP3    H214949   1.862   0.363   1.209
 4998TIP3   OH214950   2.209   3.445   3.751
 4998TIP3    H114951   2.126   3.483   3.721
 4998TIP3    H214952   2.275   3.512   3.732
 4999TIP3   OH214953   4.726   5.303   2.024
 4999TIP3    H114954   4.658   5.261   2.077
 4999TIP3    H214955   4.762   5.232   1.970
 5000TIP3   OH214956   4.836   7.173   5.730
 5000TIP3    H114957   4.893   7.230   5.780
 5000TIP3    H214958   4.805   7.108   5.793
 5001TIP3   OH214959   7.581   0.659   4.889
 5001TIP3    H114960   7.659   0.697   4.931
 5001TIP3    H214961   7.568   0.712   4.810
 5002TIP3   OH214962   2.574   3.201   6.079
 5002TIP3    H114963   2.506   3.186   6.013
 5002TIP3    H214964   2.653   3.219   6.028
 5003TIP3   OH214965   3.268   1.092   2.854
 5003TIP3    H114966   3.244   1.141   2.932
 5003TIP3    H214967   3.184   1.065   2.816
 5004TIP3   OH214968   2.637   6.753   4.152
 5004TIP3    H114969   2.607   6.759   4.243
 5004TIP3    H214970   2.704   6.821   4.143
 5005TIP3   OH214971   8.108   1.729   6.690
 5005TIP3    H114972   8.030   1.677   6.669
 5005TIP3    H214973   8.151   1.741   6.605
 5006TIP3   OH214974   5.735   1.925   6.612
 5006TIP3    H114975   5.779   1.866   6.551
 5006TIP3    H214976   5.648   1.888   6.623
 5007TIP3   OH214977   2.562   0.087   2.765
 5007TIP3    H114978   2.632   0.076   2.701
 5007TIP3    H214979   2.501   0.148   2.723
 5008TIP3   OH214980   1.668   6.797   3.293
 5008TIP3    H114981   1.730   6.821   3.362
 5008TIP3    H214982   1.716   6.812   3.211
 5009TIP3   OH214983   5.052   3.201   3.423
 5009TIP3    H114984   5.062   3.119   3.374
 5009TIP3    H214985   4.971   3.239   3.388
 5010TIP3   OH214986   0.568   0.164   4.578
 5010TIP3    H114987   0.477   0.136   4.584
 5010TIP3    H214988   0.612   0.095   4.529
 5011TIP3   OH214989   5.096   4.205   4.623
 5011TIP3    H114990   5.099   4.111   4.607
 5011TIP3    H214991   5.130   4.244   4.542
 5012TIP3   OH214992   6.402   7.128   2.022
 5012TIP3    H114993   6.449   7.136   1.938
 5012TIP3    H214994   6.434   7.047   2.060
 5013TIP3   OH214995   1.401   0.730   3.822
 5013TIP3    H114996   1.375   0.803   3.765
 5013TIP3    H214997   1.497   0.728   3.816
 5014TIP3   OH214998   8.216   0.537   5.813
 5014TIP3    H114999   8.217   0.603   5.882
 5014TIP3    H215000   8.211   0.453   5.860
 5015TIP3   OH215001   1.750   2.004   4.076
 5015TIP3    H115002   1.826   2.052   4.044
 5015TIP3    H215003   1.681   2.070   4.084
 5016TIP3   OH215004   7.933   7.173   3.647
 5016TIP3    H115005   7.874   7.134   3.710
 5016TIP3    H215006   8.013   7.120   3.653
 5017TIP3   OH215007   0.428   6.481   0.477
 5017TIP3    H115008   0.436   6.439   0.562
 5017TIP3    H215009   0.451   6.412   0.414
 5018TIP3   OH215010   7.819   1.873   5.546
 5018TIP3    H115011   7.816   1.916   5.631
 5018TIP3    H215012   7.732   1.889   5.508
 5019TIP3   OH215013   1.850   3.456   5.605
 5019TIP3    H115014   1.788   3.405   5.658
 5019TIP3    H215015   1.933   3.450   5.653
 5020TIP3   OH215016   5.971   1.738   3.858
 5020TIP3    H115017   5.903   1.795   3.822
 5020TIP3    H215018   5.952   1.734   3.952
 5021TIP3   OH215019   5.722   4.935   5.750
 5021TIP3    H115020   5.798   4.889   5.785
 5021TIP3    H215021   5.757   5.016   5.713
 5022TIP3   OH215022   4.698   2.992   0.484
 5022TIP3    H115023   4.694   2.898   0.500
 5022TIP3    H215024   4.791   3.013   0.482
 5023TIP3   OH215025   4.504   2.591   3.523
 5023TIP3    H115026   4.447   2.520   3.493
 5023TIP3    H215027   4.446   2.653   3.565
 5024TIP3   OH215028   2.093   1.108   4.680
 5024TIP3    H115029   2.137   1.157   4.749
 5024TIP3    H215030   2.165   1.070   4.629
 5025TIP3   OH215031   2.825   5.210   1.100
 5025TIP3    H115032   2.862   5.158   1.028
 5025TIP3    H215033   2.737   5.233   1.069
 5026TIP3   OH215034   5.329   4.561   1.878
 5026TIP3    H115035   5.311   4.634   1.938
 5026TIP3    H215036   5.422   4.568   1.859
 5027TIP3   OH215037   2.154   6.048   3.565
 5027TIP3    H115038   2.125   6.053   3.656
 5027TIP3    H215039   2.248   6.065   3.568
 5028TIP3   OH215040   4.464   4.978   4.913
 5028TIP3    H115041   4.433   4.963   4.823
 5028TIP3    H215042   4.426   5.063   4.937
 5029TIP3   OH215043   0.079   5.557   4.935
 5029TIP3    H115044  -0.010   5.593   4.932
 5029TIP3    H215045   0.068   5.468   4.970
 5030TIP3   OH215046   1.821   0.260   4.384
 5030TIP3    H115047   1.817   0.257   4.480
 5030TIP3    H215048   1.729   0.259   4.356
 5031TIP3   OH215049   2.613   0.745   4.292
 5031TIP3    H115050   2.527   0.782   4.273
 5031TIP3    H215051   2.674   0.819   4.283
 5032TIP3   OH215052   2.051   2.514   3.806
 5032TIP3    H115053   2.089   2.521   3.718
 5032TIP3    H215054   2.116   2.464   3.856
 5033TIP3   OH215055   4.220   1.329   6.729
 5033TIP3    H115056   4.248   1.382   6.654
 5033TIP3    H215057   4.236   1.385   6.805
 5034TIP3   OH215058   5.718   2.999   2.105
 5034TIP3    H115059   5.698   2.921   2.053
 5034TIP3    H215060   5.803   2.980   2.144
 5035TIP3   OH215061   2.614   6.487   0.113
 5035TIP3    H115062   2.604   6.437   0.032
 5035TIP3    H215063   2.680   6.440   0.163
 5036TIP3   OH215064   7.337   4.450   6.559
 5036TIP3    H115065   7.348   4.368   6.511
 5036TIP3    H215066   7.315   4.423   6.648
 5037TIP3   OH215067   2.271   6.310   0.221
 5037TIP3    H115068   2.207   6.241   0.240
 5037TIP3    H215069   2.280   6.309   0.126
 5038TIP3   OH215070   2.665   1.166   4.519
 5038TIP3    H115071   2.637   1.092   4.573
 5038TIP3    H215072   2.601   1.235   4.536
 5039TIP3   OH215073   2.883   7.097   4.959
 5039TIP3    H115074   2.826   7.054   5.023
 5039TIP3    H215075   2.971   7.067   4.982
 5040TIP3   OH215076   3.864   6.393   4.753
 5040TIP3    H115077   3.957   6.376   4.738
 5040TIP3    H215078   3.862   6.444   4.834
 5041TIP3   OH215079   0.029   1.910   2.656
 5041TIP3    H115080   0.000   1.944   2.740
 5041TIP3    H215081   0.116   1.875   2.673
 5042TIP3   OH215082   3.110   7.212   3.735
 5042TIP3    H115083   3.126   7.118   3.723
 5042TIP3    H215084   3.114   7.248   3.646
 5043TIP3   OH215085   2.577   6.092   1.241
 5043TIP3    H115086   2.572   6.156   1.313
 5043TIP3    H215087   2.669   6.088   1.218
 5044TIP3   OH215088   0.567   5.627   0.986
 5044TIP3    H115089   0.649   5.606   0.941
 5044TIP3    H215090   0.551   5.551   1.043
 5045TIP3   OH215091   5.489   7.018   2.816
 5045TIP3    H115092   5.475   7.008   2.722
 5045TIP3    H215093   5.433   7.091   2.841
 5046TIP3   OH215094   6.269   6.530   6.263
 5046TIP3    H115095   6.214   6.564   6.192
 5046TIP3    H215096   6.228   6.563   6.342
 5047TIP3   OH215097   5.515   5.025   1.367
 5047TIP3    H115098   5.543   4.983   1.285
 5047TIP3    H215099   5.547   5.115   1.360
 5048TIP3   OH215100   2.571   0.464   1.375
 5048TIP3    H115101   2.545   0.520   1.448
 5048TIP3    H215102   2.527   0.500   1.299
 5049TIP3   OH215103   2.053   3.573   2.617
 5049TIP3    H115104   2.029   3.653   2.571
 5049TIP3    H215105   2.025   3.502   2.558
 5050TIP3   OH215106   7.481   4.506   4.468
 5050TIP3    H115107   7.570   4.532   4.445
 5050TIP3    H215108   7.464   4.552   4.551
 5051TIP3   OH215109   3.524   4.996   3.809
 5051TIP3    H115110   3.513   5.082   3.767
 5051TIP3    H215111   3.471   4.937   3.756
 5052TIP3   OH215112   0.452   2.623   1.180
 5052TIP3    H115113   0.392   2.582   1.243
 5052TIP3    H215114   0.539   2.604   1.215
 5053TIP3   OH215115   2.894   1.430   1.456
 5053TIP3    H115116   2.858   1.391   1.536
 5053TIP3    H215117   2.881   1.524   1.467
 5054TIP3   OH215118   1.484   0.476   2.792
 5054TIP3    H115119   1.556   0.413   2.788
 5054TIP3    H215120   1.407   0.425   2.767
 5055TIP3   OH215121   4.391   2.067   0.969
 5055TIP3    H115122   4.327   2.116   0.917
 5055TIP3    H215123   4.473   2.078   0.922
 5056TIP3   OH215124   0.537   1.951   1.426
 5056TIP3    H115125   0.499   2.018   1.368
 5056TIP3    H215126   0.571   1.885   1.367
 5057TIP3   OH215127   1.315   6.132   1.167
 5057TIP3    H115128   1.352   6.082   1.095
 5057TIP3    H215129   1.229   6.158   1.137
 5058TIP3   OH215130   5.572   3.588   5.288
 5058TIP3    H115131   5.541   3.505   5.325
 5058TIP3    H215132   5.507   3.610   5.221
 5059TIP3   OH215133   5.035   3.219   6.537
 5059TIP3    H115134   4.980   3.246   6.611
 5059TIP3    H215135   5.124   3.239   6.565
 5060TIP3   OH215136   0.258   3.897   3.455
 5060TIP3    H115137   0.264   3.806   3.482
 5060TIP3    H215138   0.237   3.893   3.362
 5061TIP3   OH215139   1.130   1.544   4.456
 5061TIP3    H115140   1.173   1.481   4.398
 5061TIP3    H215141   1.202   1.594   4.495
 5062TIP3   OH215142   2.173   2.497   3.090
 5062TIP3    H115143   2.157   2.491   2.996
 5062TIP3    H215144   2.247   2.557   3.098
 5063TIP3   OH215145   4.774   1.935   2.876
 5063TIP3    H115146   4.770   1.957   2.783
 5063TIP3    H215147   4.740   1.846   2.881
 5064TIP3   OH215148   0.253   5.714   0.985
 5064TIP3    H115149   0.297   5.640   0.944
 5064TIP3    H215150   0.260   5.698   1.079
 5065TIP3   OH215151   5.140   5.501   0.589
 5065TIP3    H115152   5.209   5.508   0.654
 5065TIP3    H215153   5.185   5.474   0.509
 5066TIP3   OH215154   0.188   6.022   2.407
 5066TIP3    H115155   0.162   5.979   2.326
 5066TIP3    H215156   0.250   5.962   2.448
 5067TIP3   OH215157   1.820   2.503   6.720
 5067TIP3    H115158   1.903   2.527   6.762
 5067TIP3    H215159   1.826   2.409   6.705
 5068TIP3   OH215160   2.724   0.308   3.220
 5068TIP3    H115161   2.720   0.214   3.238
 5068TIP3    H215162   2.807   0.319   3.173
 5069TIP3   OH215163   2.728   5.614   3.808
 5069TIP3    H115164   2.739   5.577   3.896
 5069TIP3    H215165   2.643   5.658   3.811
 5070TIP3   OH215166   6.905   0.100   5.329
 5070TIP3    H115167   6.955   0.103   5.411
 5070TIP3    H215168   6.839   0.033   5.345
 5071TIP3   OH215169   0.741   6.076   4.489
 5071TIP3    H115170   0.695   6.156   4.465
 5071TIP3    H215171   0.806   6.063   4.419
 5072TIP3   OH215172   3.905   4.445   0.268
 5072TIP3    H115173   3.914   4.415   0.359
 5072TIP3    H215174   3.870   4.533   0.275
 5073TIP3   OH215175   5.261   5.312   5.951
 5073TIP3    H115176   5.229   5.324   6.041
 5073TIP3    H215177   5.254   5.218   5.936
 5074TIP3   OH215178   4.062   6.459   0.499
 5074TIP3    H115179   4.107   6.377   0.519
 5074TIP3    H215180   4.110   6.526   0.548
 5075TIP3   OH215181   4.420   5.210   1.710
 5075TIP3    H115182   4.382   5.149   1.773
 5075TIP3    H215183   4.443   5.155   1.635
 5076TIP3   OH215184   2.304   5.152   6.678
 5076TIP3    H115185   2.319   5.208   6.602
 5076TIP3    H215186   2.275   5.069   6.640
 5077TIP3   OH215187   0.928   1.088   4.059
 5077TIP3    H115188   0.977   1.156   4.105
 5077TIP3    H215189   0.981   1.068   3.982
 5078TIP3   OH215190   6.393   0.221   2.838
 5078TIP3    H115191   6.403   0.139   2.789
 5078TIP3    H215192   6.298   0.231   2.848
 5079TIP3   OH215193   2.870   4.259   6.191
 5079TIP3    H115194   2.899   4.168   6.184
 5079TIP3    H215195   2.929   4.299   6.255
 5080TIP3   OH215196   7.431   0.818   5.908
 5080TIP3    H115197   7.398   0.760   5.840
 5080TIP3    H215198   7.514   0.779   5.936
 5081TIP3   OH215199   7.579   4.555   3.809
 5081TIP3    H115200   7.598   4.615   3.881
 5081TIP3    H215201   7.484   4.541   3.813
 5082TIP3   OH215202   4.849   1.929   4.544
 5082TIP3    H115203   4.871   2.019   4.524
 5082TIP3    H215204   4.905   1.877   4.487
 5083TIP3   OH215205   1.357   5.923   0.498
 5083TIP3    H115206   1.265   5.928   0.473
 5083TIP3    H215207   1.375   5.829   0.504
 5084TIP3   OH215208   6.038   3.878   2.975
 5084TIP3    H115209   6.018   3.848   2.886
 5084TIP3    H215210   6.034   3.798   3.028
 5085TIP3   OH215211   1.281   4.638   1.009
 5085TIP3    H115212   1.215   4.667   0.945
 5085TIP3    H215213   1.340   4.582   0.959
 5086TIP3   OH215214   1.397   4.387   2.435
 5086TIP3    H115215   1.424   4.435   2.357
 5086TIP3    H215216   1.315   4.429   2.462
 5087TIP3   OH215217   6.067   5.543   6.125
 5087TIP3    H115218   6.067   5.509   6.215
 5087TIP3    H215219   6.117   5.624   6.130
 5088TIP3   OH215220   4.391   1.626   1.661
 5088TIP3    H115221   4.358   1.687   1.727
 5088TIP3    H215222   4.475   1.597   1.695
 5089TIP3   OH215223   0.104   6.322   2.774
 5089TIP3    H115224   0.161   6.279   2.838
 5089TIP3    H215225   0.041   6.255   2.749
 5090TIP3   OH215226   5.306   3.716   0.688
 5090TIP3    H115227   5.238   3.723   0.755
 5090TIP3    H215228   5.370   3.656   0.726
 5091TIP3   OH215229   7.499   2.589   3.875
 5091TIP3    H115230   7.480   2.576   3.968
 5091TIP3    H215231   7.592   2.569   3.867
 5092TIP3   OH215232   4.327   2.424   5.553
 5092TIP3    H115233   4.233   2.413   5.543
 5092TIP3    H215234   4.353   2.477   5.478
 5093TIP3   OH215235   6.759   5.226   0.816
 5093TIP3    H115236   6.670   5.211   0.849
 5093TIP3    H215237   6.753   5.309   0.768
 5094TIP3   OH215238   2.427   4.745   6.012
 5094TIP3    H115239   2.497   4.687   6.042
 5094TIP3    H215240   2.442   4.754   5.918
 5095TIP3   OH215241   1.269   2.278   4.476
 5095TIP3    H115242   1.177   2.280   4.502
 5095TIP3    H215243   1.317   2.299   4.556
 5096TIP3   OH215244   8.217   2.739   0.054
 5096TIP3    H115245   8.241   2.660   0.006
 5096TIP3    H215246   8.247   2.722   0.144
 5097TIP3   OH215247   0.067   3.877   1.057
 5097TIP3    H115248   0.056   3.892   0.963
 5097TIP3    H215249  -0.019   3.898   1.095
 5098TIP3   OH215250   4.851   0.319   4.722
 5098TIP3    H115251   4.796   0.376   4.776
 5098TIP3    H215252   4.791   0.283   4.656
 5099TIP3   OH215253   5.581   2.075   0.211
 5099TIP3    H115254   5.647   2.112   0.152
 5099TIP3    H215255   5.589   2.126   0.291
 5100TIP3   OH215256   2.080   6.612   2.091
 5100TIP3    H115257   1.985   6.606   2.102
 5100TIP3    H215258   2.111   6.524   2.111
 5101TIP3   OH215259   2.961   6.735   1.144
 5101TIP3    H115260   2.995   6.809   1.193
 5101TIP3    H215261   2.922   6.678   1.211
 5102TIP3   OH215262   7.412   7.193   4.274
 5102TIP3    H115263   7.335   7.136   4.267
 5102TIP3    H215264   7.425   7.226   4.186
 5103TIP3   OH215265   5.116   1.397   6.104
 5103TIP3    H115266   5.113   1.481   6.149
 5103TIP3    H215267   5.172   1.412   6.028
 5104TIP3   OH215268   5.944   3.656   0.883
 5104TIP3    H115269   5.976   3.616   0.802
 5104TIP3    H215270   6.007   3.727   0.900
 5105TIP3   OH215271   1.510   1.319   5.893
 5105TIP3    H115272   1.525   1.337   5.986
 5105TIP3    H215273   1.585   1.267   5.866
 5106TIP3   OH215274   4.338   2.977   4.729
 5106TIP3    H115275   4.305   2.891   4.756
 5106TIP3    H215276   4.424   2.983   4.769
 5107TIP3   OH215277   6.875   1.426   6.165
 5107TIP3    H115278   6.881   1.501   6.107
 5107TIP3    H215279   6.874   1.350   6.106
 5108TIP3   OH215280   4.432   7.763   2.662
 5108TIP3    H115281   4.388   7.842   2.693
 5108TIP3    H215282   4.406   7.756   2.570
 5109TIP3   OH215283   1.604   3.580   6.540
 5109TIP3    H115284   1.612   3.621   6.627
 5109TIP3    H215285   1.510   3.568   6.528
 5110TIP3   OH215286   6.487   0.078   1.905
 5110TIP3    H115287   6.487   0.101   1.812
 5110TIP3    H215288   6.400   0.040   1.920
 5111TIP3   OH215289   1.002   2.440   6.717
 5111TIP3    H115290   0.987   2.358   6.765
 5111TIP3    H215291   0.915   2.477   6.705
 5112TIP3   OH215292   0.120   7.634   4.155
 5112TIP3    H115293   0.072   7.617   4.236
 5112TIP3    H215294   0.139   7.728   4.157
 5113TIP3   OH215295   5.534   4.502   0.193
 5113TIP3    H115296   5.597   4.557   0.147
 5113TIP3    H215297   5.586   4.453   0.257
 5114TIP3   OH215298   6.606   6.138   3.812
 5114TIP3    H115299   6.565   6.062   3.772
 5114TIP3    H215300   6.535   6.203   3.818
 5115TIP3   OH215301   6.452   2.915   0.485
 5115TIP3    H115302   6.454   2.825   0.452
 5115TIP3    H215303   6.536   2.952   0.460
 5116TIP3   OH215304   0.270   7.391   2.759
 5116TIP3    H115305   0.223   7.453   2.703
 5116TIP3    H215306   0.219   7.311   2.754
 5117TIP3   OH215307   0.454   0.080   0.622
 5117TIP3    H115308   0.487   0.131   0.547
 5117TIP3    H215309   0.379   0.130   0.654
 5118TIP3   OH215310   5.084   4.983   0.843
 5118TIP3    H115311   5.081   4.978   0.748
 5118TIP3    H215312   5.128   5.066   0.862
 5119TIP3   OH215313   0.375   3.779   1.990
 5119TIP3    H115314   0.283   3.791   1.968
 5119TIP3    H215315   0.420   3.775   1.905
 5120TIP3   OH215316   0.453   6.398   3.901
 5120TIP3    H115317   0.506   6.319   3.892
 5120TIP3    H215318   0.464   6.444   3.818
 5121TIP3   OH215319   3.526   0.381   4.183
 5121TIP3    H115320   3.441   0.358   4.220
 5121TIP3    H215321   3.532   0.476   4.193
 5122TIP3   OH215322   5.941   7.821   4.008
 5122TIP3    H115323   5.972   7.754   4.069
 5122TIP3    H215324   5.846   7.824   4.022
 5123TIP3   OH215325   2.184   4.114   4.144
 5123TIP3    H115326   2.198   4.087   4.235
 5123TIP3    H215327   2.090   4.124   4.136
 5124TIP3   OH215328   0.095   0.630   3.599
 5124TIP3    H115329   0.122   0.546   3.635
 5124TIP3    H215330   0.139   0.695   3.654
 5125TIP3   OH215331   7.913   7.129   0.550
 5125TIP3    H115332   7.868   7.044   0.559
 5125TIP3    H215333   7.941   7.131   0.458
 5126TIP3   OH215334   0.929   1.723   4.394
 5126TIP3    H115335   1.006   1.667   4.405
 5126TIP3    H215336   0.929   1.746   4.301
 5127TIP3   OH215337   6.858   2.184   1.431
 5127TIP3    H115338   6.774   2.218   1.400
 5127TIP3    H215339   6.900   2.149   1.353
 5128TIP3   OH215340   3.492   2.705   5.023
 5128TIP3    H115341   3.439   2.754   4.961
 5128TIP3    H215342   3.581   2.708   4.988
 5129TIP3   OH215343   2.670   5.660   6.411
 5129TIP3    H115344   2.728   5.736   6.418
 5129TIP3    H215345   2.626   5.656   6.496
 5130TIP3   OH215346   1.675   5.304   3.756
 5130TIP3    H115347   1.726   5.291   3.675
 5130TIP3    H215348   1.639   5.217   3.775
 5131TIP3   OH215349   0.944   2.590   1.379
 5131TIP3    H115350   0.907   2.548   1.301
 5131TIP3    H215351   0.915   2.534   1.452
 5132TIP3   OH215352   6.535   6.340   0.592
 5132TIP3    H115353   6.469   6.277   0.561
 5132TIP3    H215354   6.516   6.348   0.686
 5133TIP3   OH215355   6.185   4.488   2.121
 5133TIP3    H115356   6.272   4.489   2.081
 5133TIP3    H215357   6.133   4.545   2.064
 5134TIP3   OH215358   7.932   6.368   0.137
 5134TIP3    H115359   8.007   6.428   0.138
 5134TIP3    H215360   7.891   6.382   0.052
 5135TIP3   OH215361   3.453   6.210   4.917
 5135TIP3    H115362   3.472   6.145   4.848
 5135TIP3    H215363   3.495   6.290   4.886
 5136TIP3   OH215364   3.131   0.612   0.472
 5136TIP3    H115365   3.134   0.594   0.566
 5136TIP3    H215366   3.223   0.616   0.446
 5137TIP3   OH215367   0.627   4.080   2.914
 5137TIP3    H115368   0.540   4.075   2.953
 5137TIP3    H215369   0.626   4.015   2.843
 5138TIP3   OH215370   7.329   7.813   5.734
 5138TIP3    H115371   7.343   7.728   5.775
 5138TIP3    H215372   7.238   7.835   5.756
 5139TIP3   OH215373   6.341   7.174   4.165
 5139TIP3    H115374   6.299   7.097   4.126
 5139TIP3    H215375   6.304   7.249   4.118
 5140TIP3   OH215376   0.683   0.403   4.530
 5140TIP3    H115377   0.748   0.437   4.592
 5140TIP3    H215378   0.661   0.316   4.562
 5141TIP3   OH215379   4.845   5.468   4.317
 5141TIP3    H115380   4.927   5.507   4.347
 5141TIP3    H215381   4.867   5.377   4.298
 5142TIP3   OH215382   3.871   0.526   3.762
 5142TIP3    H115383   3.816   0.487   3.694
 5142TIP3    H215384   3.955   0.542   3.719
 5143TIP3   OH215385   5.080   3.011   6.319
 5143TIP3    H115386   5.136   2.979   6.390
 5143TIP3    H215387   5.119   2.975   6.239
 5144TIP3   OH215388   5.230   7.133   2.171
 5144TIP3    H115389   5.213   7.204   2.234
 5144TIP3    H215390   5.325   7.127   2.167
 5145TIP3   OH215391   5.214   3.640   5.425
 5145TIP3    H115392   5.239   3.649   5.334
 5145TIP3    H215393   5.260   3.710   5.470
 5146TIP3   OH215394   5.484   5.882   5.625
 5146TIP3    H115395   5.556   5.854   5.681
 5146TIP3    H215396   5.499   5.837   5.542
 5147TIP3   OH215397   1.972   3.942   6.719
 5147TIP3    H115398   1.943   3.897   6.639
 5147TIP3    H215399   1.981   3.871   6.783
 5148TIP3   OH215400   5.051   6.475   6.195
 5148TIP3    H115401   5.095   6.390   6.194
 5148TIP3    H215402   5.022   6.489   6.105
 5149TIP3   OH215403   5.465   6.191   3.230
 5149TIP3    H115404   5.371   6.199   3.216
 5149TIP3    H215405   5.497   6.146   3.152
 5150TIP3   OH215406   5.657   6.474   0.804
 5150TIP3    H115407   5.713   6.429   0.741
 5150TIP3    H215408   5.576   6.491   0.757
 5151TIP3   OH215409   6.644   5.675   4.313
 5151TIP3    H115410   6.724   5.727   4.317
 5151TIP3    H215411   6.673   5.585   4.320
 5152TIP3   OH215412   2.822   1.775   6.216
 5152TIP3    H115413   2.791   1.747   6.130
 5152TIP3    H215414   2.803   1.869   6.218
 5153TIP3   OH215415   2.497   4.584   4.124
 5153TIP3    H115416   2.449   4.523   4.181
 5153TIP3    H215417   2.477   4.671   4.159
 5154TIP3   OH215418   3.035   0.114   1.606
 5154TIP3    H115419   3.051   0.024   1.634
 5154TIP3    H215420   2.939   0.119   1.596
 5155TIP3   OH215421   4.511   3.133   5.812
 5155TIP3    H115422   4.600   3.099   5.823
 5155TIP3    H215423   4.518   3.199   5.743
 5156TIP3   OH215424   3.598   1.042   1.213
 5156TIP3    H115425   3.540   0.966   1.208
 5156TIP3    H215426   3.540   1.117   1.220
 5157TIP3   OH215427   6.570   3.589   2.876
 5157TIP3    H115428   6.479   3.562   2.889
 5157TIP3    H215429   6.582   3.586   2.781
 5158TIP3   OH215430   7.417   2.626   4.378
 5158TIP3    H115431   7.340   2.572   4.398
 5158TIP3    H215432   7.454   2.586   4.300
 5159TIP3   OH215433   5.144   1.911   4.192
 5159TIP3    H115434   5.208   1.893   4.261
 5159TIP3    H215435   5.151   1.836   4.133
 5160TIP3   OH215436   7.984   0.925   0.978
 5160TIP3    H115437   8.002   0.982   0.904
 5160TIP3    H215438   7.930   0.855   0.941
 5161TIP3   OH215439   6.459   7.199   6.505
 5161TIP3    H115440   6.440   7.150   6.425
 5161TIP3    H215441   6.457   7.291   6.477
 5162TIP3   OH215442   0.445   4.524   0.592
 5162TIP3    H115443   0.360   4.528   0.549
 5162TIP3    H215444   0.425   4.514   0.685
 5163TIP3   OH215445   0.876   4.734   1.328
 5163TIP3    H115446   0.861   4.767   1.416
 5163TIP3    H215447   0.794   4.751   1.281
 5164TIP3   OH215448   5.443   0.640   2.031
 5164TIP3    H115449   5.430   0.588   1.951
 5164TIP3    H215450   5.356   0.671   2.055
 5165TIP3   OH215451   3.880   5.897   1.503
 5165TIP3    H115452   3.908   5.880   1.593
 5165TIP3    H215453   3.939   5.845   1.449
 5166TIP3   OH215454   2.859   6.902   4.177
 5166TIP3    H115455   2.952   6.882   4.180
 5166TIP3    H215456   2.847   6.953   4.097
 5167TIP3   OH215457   2.191   7.193   3.826
 5167TIP3    H115458   2.111   7.206   3.876
 5167TIP3    H215459   2.190   7.262   3.760
 5168TIP3   OH215460   2.337   5.352   4.282
 5168TIP3    H115461   2.406   5.399   4.329
 5168TIP3    H215462   2.368   5.261   4.280
 5169TIP3   OH215463   2.792   0.596   6.324
 5169TIP3    H115464   2.696   0.591   6.322
 5169TIP3    H215465   2.812   0.687   6.301
 5170TIP3   OH215466   2.570   0.573   5.898
 5170TIP3    H115467   2.607   0.492   5.932
 5170TIP3    H215468   2.485   0.548   5.861
 5171TIP3   OH215469   7.354   0.543   5.050
 5171TIP3    H115470   7.443   0.537   5.017
 5171TIP3    H215471   7.302   0.567   4.973
 5172TIP3   OH215472   3.732   1.264   3.924
 5172TIP3    H115473   3.656   1.283   3.979
 5172TIP3    H215474   3.718   1.318   3.846
 5173TIP3   OH215475   0.728   3.912   6.597
 5173TIP3    H115476   0.800   3.948   6.650
 5173TIP3    H215477   0.755   3.930   6.507
 5174TIP3   OH215478   4.975   5.470   5.698
 5174TIP3    H115479   5.011   5.382   5.689
 5174TIP3    H215480   5.051   5.527   5.707
 5175TIP3   OH215481   8.300   6.629   6.130
 5175TIP3    H115482   8.292   6.638   6.035
 5175TIP3    H215483   8.306   6.534   6.144
 5176TIP3   OH215484   0.228   2.161   5.406
 5176TIP3    H115485   0.151   2.172   5.351
 5176TIP3    H215486   0.207   2.087   5.462
 5177TIP3   OH215487   1.424   2.973   5.320
 5177TIP3    H115488   1.399   3.056   5.361
 5177TIP3    H215489   1.412   2.908   5.389
 5178TIP3   OH215490   5.407   1.703   5.604
 5178TIP3    H115491   5.474   1.650   5.646
 5178TIP3    H215492   5.391   1.659   5.520
 5179TIP3   OH215493   4.079   4.910   2.460
 5179TIP3    H115494   3.990   4.914   2.427
 5179TIP3    H215495   4.116   4.829   2.423
 5180TIP3   OH215496   0.817   2.717   3.639
 5180TIP3    H115497   0.814   2.811   3.624
 5180TIP3    H215498   0.799   2.678   3.553
 5181TIP3   OH215499   5.370   4.307   3.539
 5181TIP3    H115500   5.390   4.232   3.595
 5181TIP3    H215501   5.406   4.284   3.454
 5182TIP3   OH215502   7.092   4.293   0.957
 5182TIP3    H115503   7.136   4.294   0.871
 5182TIP3    H215504   7.163   4.306   1.019
 5183TIP3   OH215505   1.825   7.066   0.052
 5183TIP3    H115506   1.741   7.111   0.051
 5183TIP3    H215507   1.868   7.095   0.132
 5184TIP3   OH215508   7.304   1.795   2.978
 5184TIP3    H115509   7.231   1.809   3.038
 5184TIP3    H215510   7.322   1.701   2.985
 5185TIP3   OH215511   6.630   4.262   6.675
 5185TIP3    H115512   6.625   4.167   6.669
 5185TIP3    H215513   6.569   4.293   6.608
 5186TIP3   OH215514   4.839   3.189   2.746
 5186TIP3    H115515   4.910   3.205   2.808
 5186TIP3    H215516   4.804   3.276   2.726
 5187TIP3   OH215517   0.036   2.030   0.142
 5187TIP3    H115518   0.111   2.059   0.195
 5187TIP3    H215519   0.074   2.013   0.056
 5188TIP3   OH215520   0.800   6.360   6.414
 5188TIP3    H115521   0.710   6.364   6.449
 5188TIP3    H215522   0.790   6.375   6.320
 5189TIP3   OH215523   0.278   1.795   3.168
 5189TIP3    H115524   0.338   1.720   3.160
 5189TIP3    H215525   0.334   1.868   3.196
 5190TIP3   OH215526   1.194   5.681   5.352
 5190TIP3    H115527   1.124   5.616   5.346
 5190TIP3    H215528   1.167   5.752   5.295
 5191TIP3   OH215529   1.445   0.621   4.899
 5191TIP3    H115530   1.400   0.681   4.840
 5191TIP3    H215531   1.493   0.679   4.959
 5192TIP3   OH215532   6.539   6.463   2.514
 5192TIP3    H115533   6.603   6.481   2.583
 5192TIP3    H215534   6.580   6.496   2.434
 5193TIP3   OH215535   0.442   5.525   2.192
 5193TIP3    H115536   0.496   5.603   2.173
 5193TIP3    H215537   0.501   5.467   2.241
 5194TIP3   OH215538   7.302   2.728   4.034
 5194TIP3    H115539   7.367   2.788   3.998
 5194TIP3    H215540   7.235   2.785   4.072
 5195TIP3   OH215541   0.352   6.209   6.348
 5195TIP3    H115542   0.352   6.130   6.402
 5195TIP3    H215543   0.357   6.176   6.258
 5196TIP3   OH215544   3.246   5.355   4.961
 5196TIP3    H115545   3.246   5.261   4.946
 5196TIP3    H215546   3.180   5.369   5.029
 5197TIP3   OH215547   6.102   5.383   0.217
 5197TIP3    H115548   6.109   5.316   0.285
 5197TIP3    H215549   6.088   5.333   0.137
 5198TIP3   OH215550   8.216   5.505   1.445
 5198TIP3    H115551   8.218   5.541   1.533
 5198TIP3    H215552   8.127   5.471   1.435
 5199TIP3   OH215553   4.264   1.492   2.090
 5199TIP3    H115554   4.170   1.486   2.106
 5199TIP3    H215555   4.280   1.586   2.077
 5200TIP3   OH215556   1.483   2.392   6.573
 5200TIP3    H115557   1.513   2.358   6.656
 5200TIP3    H215558   1.398   2.350   6.559
 5201TIP3   OH215559   5.520   6.731   0.716
 5201TIP3    H115560   5.543   6.691   0.799
 5201TIP3    H215561   5.428   6.710   0.703
 5202TIP3   OH215562   6.023   2.436   6.052
 5202TIP3    H115563   6.048   2.419   5.961
 5202TIP3    H215564   6.027   2.532   6.059
 5203TIP3   OH215565   3.851   1.395   6.624
 5203TIP3    H115566   3.849   1.449   6.703
 5203TIP3    H215567   3.866   1.306   6.656
 5204TIP3   OH215568   3.774   2.001   4.175
 5204TIP3    H115569   3.809   1.968   4.258
 5204TIP3    H215570   3.681   2.014   4.192
 5205TIP3   OH215571   7.041   7.184   2.970
 5205TIP3    H115572   7.052   7.279   2.971
 5205TIP3    H215573   7.130   7.150   2.976
 5206TIP3   OH215574   6.946   4.486   3.710
 5206TIP3    H115575   6.886   4.421   3.673
 5206TIP3    H215576   7.006   4.506   3.638
 5207TIP3   OH215577   5.344   7.722   2.514
 5207TIP3    H115578   5.272   7.770   2.555
 5207TIP3    H215579   5.403   7.700   2.586
 5208TIP3   OH215580   3.973   3.135   6.137
 5208TIP3    H115581   3.919   3.151   6.060
 5208TIP3    H215582   3.912   3.139   6.211
 5209TIP3   OH215583   3.729   6.924   6.547
 5209TIP3    H115584   3.742   7.003   6.495
 5209TIP3    H215585   3.674   6.951   6.620
 5210TIP3   OH215586   8.204   3.816   2.149
 5210TIP3    H115587   8.281   3.792   2.096
 5210TIP3    H215588   8.240   3.836   2.235
 5211TIP3   OH215589   4.001   6.856   0.905
 5211TIP3    H115590   4.049   6.916   0.848
 5211TIP3    H215591   3.981   6.908   0.983
 5212TIP3   OH215592   4.448   4.898   2.511
 5212TIP3    H115593   4.531   4.852   2.498
 5212TIP3    H215594   4.385   4.828   2.528
 5213TIP3   OH215595   0.873   7.784   4.101
 5213TIP3    H115596   0.830   7.818   4.023
 5213TIP3    H215597   0.823   7.706   4.125
 5214TIP3   OH215598   4.776   1.440   0.575
 5214TIP3    H115599   4.742   1.388   0.502
 5214TIP3    H215600   4.869   1.449   0.558
 5215TIP3   OH215601   2.545   3.829   6.020
 5215TIP3    H115602   2.633   3.861   6.038
 5215TIP3    H215603   2.556   3.736   6.000
 5216TIP3   OH215604   7.732   2.865   2.630
 5216TIP3    H115605   7.727   2.789   2.687
 5216TIP3    H215606   7.701   2.834   2.545
 5217TIP3   OH215607   7.608   7.052   0.294
 5217TIP3    H115608   7.658   7.131   0.273
 5217TIP3    H215609   7.575   7.068   0.383
 5218TIP3   OH215610   7.732   6.508   4.688
 5218TIP3    H115611   7.725   6.598   4.656
 5218TIP3    H215612   7.826   6.491   4.691
 5219TIP3   OH215613   1.373   3.873   1.282
 5219TIP3    H115614   1.292   3.915   1.310
 5219TIP3    H215615   1.403   3.826   1.360
 5220TIP3   OH215616   1.998   7.577   4.036
 5220TIP3    H115617   1.917   7.543   3.998
 5220TIP3    H215618   1.989   7.560   4.130
 5221TIP3   OH215619   5.252   0.680   5.521
 5221TIP3    H115620   5.276   0.737   5.594
 5221TIP3    H215621   5.187   0.730   5.472
 5222TIP3   OH215622   5.416   1.958   2.822
 5222TIP3    H115623   5.344   1.986   2.767
 5222TIP3    H215624   5.378   1.950   2.910
 5223TIP3   OH215625   6.522   3.061   3.014
 5223TIP3    H115626   6.473   2.979   3.021
 5223TIP3    H215627   6.552   3.063   2.923
 5224TIP3   OH215628   7.190   2.572   0.908
 5224TIP3    H115629   7.133   2.623   0.965
 5224TIP3    H215630   7.133   2.503   0.874
 5225TIP3   OH215631   3.964   2.765   2.506
 5225TIP3    H115632   4.046   2.778   2.553
 5225TIP3    H215633   3.942   2.672   2.520
 5226TIP3   OH215634   6.997   6.561   2.077
 5226TIP3    H115635   6.996   6.482   2.131
 5226TIP3    H215636   6.961   6.629   2.134
 5227TIP3   OH215637   7.831   2.705   4.613
 5227TIP3    H115638   7.857   2.623   4.572
 5227TIP3    H215639   7.913   2.751   4.630
 5228TIP3   OH215640   6.873   3.186   2.107
 5228TIP3    H115641   6.875   3.091   2.096
 5228TIP3    H215642   6.923   3.219   2.033
 5229TIP3   OH215643   1.371   3.045   2.907
 5229TIP3    H115644   1.311   3.118   2.892
 5229TIP3    H215645   1.320   2.980   2.955
 5230TIP3   OH215646   1.930   7.205   3.878
 5230TIP3    H115647   1.887   7.195   3.963
 5230TIP3    H215648   1.895   7.288   3.844
 5231TIP3   OH215649   7.331   0.217   4.282
 5231TIP3    H115650   7.308   0.299   4.239
 5231TIP3    H215651   7.421   0.230   4.312
 5232TIP3   OH215652   8.143   3.449   3.117
 5232TIP3    H115653   8.085   3.374   3.106
 5232TIP3    H215654   8.222   3.426   3.067
 5233TIP3   OH215655   1.422   5.968   2.345
 5233TIP3    H115656   1.440   6.059   2.368
 5233TIP3    H215657   1.503   5.936   2.305
 5234TIP3   OH215658   4.290   1.825   1.835
 5234TIP3    H115659   4.203   1.828   1.796
 5234TIP3    H215660   4.274   1.828   1.930
 5235TIP3   OH215661   6.971   6.334   5.138
 5235TIP3    H115662   7.015   6.322   5.222
 5235TIP3    H215663   6.880   6.311   5.155
 5236TIP3   OH215664   4.213   6.336   2.553
 5236TIP3    H115665   4.232   6.418   2.599
 5236TIP3    H215666   4.276   6.273   2.589
 5237TIP3   OH215667   5.705   7.356   0.728
 5237TIP3    H115668   5.697   7.260   0.732
 5237TIP3    H215669   5.619   7.387   0.700
 5238TIP3   OH215670   4.921   7.731   3.455
 5238TIP3    H115671   5.016   7.731   3.452
 5238TIP3    H215672   4.898   7.819   3.485
 5239TIP3   OH215673   3.245   3.438   0.563
 5239TIP3    H115674   3.180   3.446   0.632
 5239TIP3    H215675   3.296   3.361   0.586
 5240TIP3   OH215676   5.700   1.162   0.265
 5240TIP3    H115677   5.774   1.109   0.232
 5240TIP3    H215678   5.715   1.168   0.359
 5241TIP3   OH215679   4.870   1.906   1.018
 5241TIP3    H115680   4.921   1.983   1.041
 5241TIP3    H215681   4.917   1.867   0.945
 5242TIP3   OH215682   5.284   5.587   2.296
 5242TIP3    H115683   5.261   5.613   2.207
 5242TIP3    H215684   5.356   5.645   2.320
 5243TIP3   OH215685   3.394   4.915   1.145
 5243TIP3    H115686   3.431   4.844   1.092
 5243TIP3    H215687   3.445   4.913   1.226
 5244TIP3   OH215688   3.309   7.570   4.885
 5244TIP3    H115689   3.393   7.586   4.928
 5244TIP3    H215690   3.313   7.478   4.857
 5245TIP3   OH215691   0.782   3.823   3.777
 5245TIP3    H115692   0.846   3.818   3.848
 5245TIP3    H215693   0.808   3.900   3.727
 5246TIP3   OH215694   7.851   3.822   3.920
 5246TIP3    H115695   7.908   3.806   3.995
 5246TIP3    H215696   7.902   3.878   3.862
 5247TIP3   OH215697   3.363   6.866   3.942
 5247TIP3    H115698   3.388   6.774   3.927
 5247TIP3    H215699   3.446   6.913   3.948
 5248TIP3   OH215700   1.312   2.248   5.600
 5248TIP3    H115701   1.278   2.188   5.533
 5248TIP3    H215702   1.238   2.266   5.657
 5249TIP3   OH215703   3.273   3.691   1.840
 5249TIP3    H115704   3.357   3.700   1.796
 5249TIP3    H215705   3.266   3.598   1.860
 5250TIP3   OH215706   1.924   3.927   4.238
 5250TIP3    H115707   1.955   3.866   4.171
 5250TIP3    H215708   1.838   3.895   4.262
 5251TIP3   OH215709   1.998   2.206   3.089
 5251TIP3    H115710   1.974   2.155   3.011
 5251TIP3    H215711   2.088   2.178   3.108
 5252TIP3   OH215712   5.533   3.718   4.112
 5252TIP3    H115713   5.482   3.650   4.067
 5252TIP3    H215714   5.600   3.671   4.160
 5253TIP3   OH215715   8.253   7.754   1.028
 5253TIP3    H115716   8.219   7.759   0.939
 5253TIP3    H215717   8.284   7.842   1.048
 5254TIP3   OH215718   5.417   4.585   5.381
 5254TIP3    H115719   5.390   4.600   5.290
 5254TIP3    H215720   5.336   4.570   5.428
 5255TIP3   OH215721   5.819   2.403   2.357
 5255TIP3    H115722   5.893   2.396   2.417
 5255TIP3    H215723   5.844   2.349   2.282
 5256TIP3   OH215724   2.495   4.919   1.596
 5256TIP3    H115725   2.483   4.838   1.644
 5256TIP3    H215726   2.552   4.972   1.651
 5257TIP3   OH215727   3.946   7.520   3.179
 5257TIP3    H115728   3.915   7.567   3.102
 5257TIP3    H215729   3.880   7.538   3.246
 5258TIP3   OH215730   7.900   7.707   4.481
 5258TIP3    H115731   7.821   7.666   4.448
 5258TIP3    H215732   7.884   7.801   4.475
 5259TIP3   OH215733   3.176   0.565   6.716
 5259TIP3    H115734   3.209   0.554   6.805
 5259TIP3    H215735   3.080   0.569   6.726
 5260TIP3   OH215736   4.690   7.053   3.761
 5260TIP3    H115737   4.741   7.130   3.786
 5260TIP3    H215738   4.732   7.020   3.682
 5261TIP3   OH215739   3.675   6.268   2.413
 5261TIP3    H115740   3.746   6.217   2.374
 5261TIP3    H215741   3.717   6.319   2.482
 5262TIP3   OH215742   0.434   0.976   1.734
 5262TIP3    H115743   0.339   0.971   1.737
 5262TIP3    H215744   0.459   0.935   1.652
 5263TIP3   OH215745   2.659   2.763   5.761
 5263TIP3    H115746   2.618   2.848   5.747
 5263TIP3    H215747   2.610   2.704   5.704
 5264TIP3   OH215748   5.273   1.307   6.295
 5264TIP3    H115749   5.210   1.318   6.224
 5264TIP3    H215750   5.221   1.310   6.374
 5265TIP3   OH215751   1.921   2.655   4.391
 5265TIP3    H115752   2.010   2.625   4.375
 5265TIP3    H215753   1.865   2.592   4.345
 5266TIP3   OH215754   4.337   5.456   2.269
 5266TIP3    H115755   4.422   5.446   2.313
 5266TIP3    H215756   4.352   5.522   2.201
 5267TIP3   OH215757   3.757   2.674   2.165
 5267TIP3    H115758   3.699   2.698   2.236
 5267TIP3    H215759   3.796   2.757   2.136
 5268TIP3   OH215760   6.116   2.411   5.805
 5268TIP3    H115761   6.091   2.484   5.749
 5268TIP3    H215762   6.208   2.394   5.784
 5269TIP3   OH215763   4.206   5.894   3.924
 5269TIP3    H115764   4.114   5.911   3.946
 5269TIP3    H215765   4.219   5.802   3.943
 5270TIP3   OH215766   0.350   5.624   6.407
 5270TIP3    H115767   0.414   5.693   6.389
 5270TIP3    H215768   0.280   5.668   6.455
 5271TIP3   OH215769   7.580   5.991   2.351
 5271TIP3    H115770   7.501   5.993   2.297
 5271TIP3    H215771   7.649   6.023   2.292
 5272TIP3   OH215772   8.217   6.584   6.491
 5272TIP3    H115773   8.140   6.571   6.435
 5272TIP3    H215774   8.290   6.550   6.440
 5273TIP3   OH215775   3.229   7.603   5.727
 5273TIP3    H115776   3.162   7.661   5.764
 5273TIP3    H215777   3.207   7.599   5.634
 5274TIP3   OH215778   6.326   2.018   6.785
 5274TIP3    H115779   6.352   2.053   6.699
 5274TIP3    H215780   6.319   1.923   6.771
 5275TIP3   OH215781   6.039   6.494   2.123
 5275TIP3    H115782   5.975   6.466   2.188
 5275TIP3    H215783   6.124   6.469   2.160
 5276TIP3   OH215784   8.093   1.835   4.411
 5276TIP3    H115785   8.044   1.842   4.493
 5276TIP3    H215786   8.108   1.926   4.385
 5277TIP3   OH215787   7.305   0.333   3.935
 5277TIP3    H115788   7.236   0.274   3.904
 5277TIP3    H215789   7.273   0.366   4.019
 5278TIP3   OH215790   1.976   3.824   2.479
 5278TIP3    H115791   1.885   3.839   2.452
 5278TIP3    H215792   1.996   3.899   2.536
 5279TIP3   OH215793   5.483   0.303   2.244
 5279TIP3    H115794   5.475   0.245   2.319
 5279TIP3    H215795   5.397   0.343   2.236
 5280TIP3   OH215796   4.987   4.037   3.181
 5280TIP3    H115797   4.926   4.111   3.181
 5280TIP3    H215798   5.038   4.048   3.100
 5281TIP3   OH215799   6.744   5.940   0.048
 5281TIP3    H115800   6.785   5.858   0.078
 5281TIP3    H215801   6.805   5.975  -0.017
 5282TIP3   OH215802   3.369   0.810   4.682
 5282TIP3    H115803   3.339   0.900   4.674
 5282TIP3    H215804   3.294   0.762   4.716
 5283TIP3   OH215805   6.614   7.099   2.691
 5283TIP3    H115806   6.679   7.128   2.755
 5283TIP3    H215807   6.644   7.012   2.664
 5284TIP3   OH215808   8.288   0.078   1.660
 5284TIP3    H115809   8.380   0.056   1.642
 5284TIP3    H215810   8.291   0.170   1.689
 5285TIP3   OH215811   5.417   1.420   3.183
 5285TIP3    H115812   5.460   1.340   3.213
 5285TIP3    H215813   5.410   1.474   3.262
 5286TIP3   OH215814   4.927   1.261   2.010
 5286TIP3    H115815   4.941   1.188   1.950
 5286TIP3    H215816   4.891   1.331   1.955
 5287TIP3   OH215817   2.041   4.518   3.541
 5287TIP3    H115818   1.974   4.576   3.505
 5287TIP3    H215819   2.071   4.467   3.466
 5288TIP3   OH215820   3.298   3.462   5.587
 5288TIP3    H115821   3.239   3.533   5.614
 5288TIP3    H215822   3.241   3.398   5.545
 5289TIP3   OH215823   0.045   0.897   5.908
 5289TIP3    H115824   0.036   0.913   5.814
 5289TIP3    H215825   0.102   0.967   5.939
 5290TIP3   OH215826   5.666   5.201   1.825
 5290TIP3    H115827   5.586   5.240   1.861
 5290TIP3    H215828   5.635   5.138   1.760
 5291TIP3   OH215829   3.815   2.750   0.624
 5291TIP3    H115830   3.862   2.710   0.696
 5291TIP3    H215831   3.883   2.789   0.569
 5292TIP3   OH215832   6.896   0.235   5.717
 5292TIP3    H115833   6.929   0.308   5.663
 5292TIP3    H215834   6.970   0.212   5.773
 5293TIP3   OH215835   0.433   1.584   4.779
 5293TIP3    H115836   0.450   1.652   4.845
 5293TIP3    H215837   0.338   1.578   4.775
 5294TIP3   OH215838   3.542   2.903   4.365
 5294TIP3    H115839   3.629   2.869   4.342
 5294TIP3    H215840   3.495   2.905   4.282
 5295TIP3   OH215841   1.956   6.261   0.491
 5295TIP3    H115842   1.976   6.232   0.402
 5295TIP3    H215843   2.030   6.227   0.543
 5296TIP3   OH215844   4.948   5.595   3.777
 5296TIP3    H115845   4.872   5.647   3.805
 5296TIP3    H215846   4.938   5.512   3.823
 5297TIP3   OH215847   5.652   3.174   1.051
 5297TIP3    H115848   5.607   3.111   1.107
 5297TIP3    H215849   5.693   3.120   0.983
 5298TIP3   OH215850   3.409   3.961   0.255
 5298TIP3    H115851   3.357   3.880   0.249
 5298TIP3    H215852   3.488   3.935   0.302
 5299TIP3   OH215853   8.010   6.636   4.579
 5299TIP3    H115854   8.017   6.579   4.655
 5299TIP3    H215855   7.965   6.715   4.611
 5300TIP3   OH215856   6.270   4.411   6.249
 5300TIP3    H115857   6.186   4.457   6.252
 5300TIP3    H215858   6.247   4.319   6.241
 5301TIP3   OH215859   3.459   5.214   5.748
 5301TIP3    H115860   3.518   5.288   5.738
 5301TIP3    H215861   3.375   5.253   5.774
 5302TIP3   OH215862   0.839   2.283   3.272
 5302TIP3    H115863   0.773   2.289   3.203
 5302TIP3    H215864   0.903   2.219   3.239
 5303TIP3   OH215865   4.130   4.116   6.559
 5303TIP3    H115866   4.063   4.181   6.537
 5303TIP3    H215867   4.181   4.106   6.479
 5304TIP3   OH215868   5.266   5.663   0.815
 5304TIP3    H115869   5.343   5.648   0.759
 5304TIP3    H215870   5.207   5.714   0.760
 5305TIP3   OH215871   7.730   6.627   6.362
 5305TIP3    H115872   7.752   6.711   6.323
 5305TIP3    H215873   7.814   6.584   6.377
 5306TIP3   OH215874   0.475   2.223   5.499
 5306TIP3    H115875   0.480   2.267   5.584
 5306TIP3    H215876   0.382   2.226   5.476
 5307TIP3   OH215877   3.226   4.852   2.503
 5307TIP3    H115878   3.275   4.918   2.553
 5307TIP3    H215879   3.237   4.771   2.553
 5308TIP3   OH215880   7.400   6.681   4.937
 5308TIP3    H115881   7.336   6.749   4.958
 5308TIP3    H215882   7.452   6.718   4.866
 5309TIP3   OH215883   6.344   7.270   5.603
 5309TIP3    H115884   6.294   7.233   5.529
 5309TIP3    H215885   6.433   7.278   5.569
 5310TIP3   OH215886   5.748   3.087   0.250
 5310TIP3    H115887   5.667   3.079   0.199
 5310TIP3    H215888   5.817   3.060   0.190
 5311TIP3   OH215889   7.329   7.105   3.514
 5311TIP3    H115890   7.304   7.139   3.429
 5311TIP3    H215891   7.420   7.076   3.503
 5312TIP3   OH215892   1.726   4.241   2.260
 5312TIP3    H115893   1.669   4.282   2.195
 5312TIP3    H215894   1.800   4.300   2.269
 5313TIP3   OH215895   0.094   3.565   2.505
 5313TIP3    H115896   0.054   3.638   2.459
 5313TIP3    H215897   0.108   3.499   2.437
 5314TIP3   OH215898   0.463   2.488   4.005
 5314TIP3    H115899   0.413   2.407   3.994
 5314TIP3    H215900   0.537   2.479   3.945
 5315TIP3   OH215901   6.579   0.469   6.543
 5315TIP3    H115902   6.656   0.412   6.541
 5315TIP3    H215903   6.576   0.508   6.456
 5316TIP3   OH215904   8.142   2.246   2.203
 5316TIP3    H115905   8.149   2.316   2.137
 5316TIP3    H215906   8.049   2.224   2.204
 5317TIP3   OH215907   5.607   3.286   3.938
 5317TIP3    H115908   5.694   3.324   3.941
 5317TIP3    H215909   5.573   3.309   3.852
 5318TIP3   OH215910   3.538   4.868   0.211
 5318TIP3    H115911   3.475   4.830   0.150
 5318TIP3    H215912   3.496   4.948   0.241
 5319TIP3   OH215913   7.567   4.502   2.641
 5319TIP3    H115914   7.514   4.490   2.562
 5319TIP3    H215915   7.519   4.567   2.692
 5320TIP3   OH215916   1.398   2.891   0.916
 5320TIP3    H115917   1.391   2.967   0.859
 5320TIP3    H215918   1.475   2.908   0.970
 5321TIP3   OH215919   1.694   3.567   0.202
 5321TIP3    H115920   1.777   3.614   0.214
 5321TIP3    H215921   1.705   3.520   0.120
 5322TIP3   OH215922   6.421   2.070   1.813
 5322TIP3    H115923   6.385   2.154   1.786
 5322TIP3    H215924   6.514   2.087   1.829
 5323TIP3   OH215925   7.082   3.793   0.954
 5323TIP3    H115926   7.066   3.858   1.022
 5323TIP3    H215927   7.133   3.839   0.888
 5324TIP3   OH215928   3.986   1.326   4.008
 5324TIP3    H115929   4.006   1.356   3.919
 5324TIP3    H215930   3.899   1.288   4.001
 5325TIP3   OH215931   3.351   6.897   6.221
 5325TIP3    H115932   3.386   6.832   6.283
 5325TIP3    H215933   3.420   6.908   6.156
 5326TIP3   OH215934   3.608   0.015   4.730
 5326TIP3    H115935   3.704   0.017   4.729
 5326TIP3    H215936   3.585   0.018   4.822
 5327TIP3   OH215937   3.421   6.441   6.525
 5327TIP3    H115938   3.345   6.383   6.525
 5327TIP3    H215939   3.409   6.495   6.603
 5328TIP3   OH215940   7.647   0.626   0.271
 5328TIP3    H115941   7.656   0.615   0.365
 5328TIP3    H215942   7.736   0.622   0.237
 5329TIP3   OH215943   7.093   0.367   2.230
 5329TIP3    H115944   7.179   0.409   2.221
 5329TIP3    H215945   7.073   0.335   2.142
 5330TIP3   OH215946   4.697   0.411   3.794
 5330TIP3    H115947   4.782   0.448   3.817
 5330TIP3    H215948   4.636   0.450   3.858
 5331TIP3   OH215949   2.931   1.705   5.927
 5331TIP3    H115950   3.006   1.646   5.921
 5331TIP3    H215951   2.947   1.770   5.859
 5332TIP3   OH215952   2.729   6.046   5.530
 5332TIP3    H115953   2.742   6.139   5.515
 5332TIP3    H215954   2.771   6.029   5.614
 5333TIP3   OH215955   1.660   7.327   5.794
 5333TIP3    H115956   1.608   7.275   5.732
 5333TIP3    H215957   1.606   7.331   5.873
 5334TIP3   OH215958   1.214   7.585   6.382
 5334TIP3    H115959   1.141   7.549   6.433
 5334TIP3    H215960   1.195   7.679   6.377
 5335TIP3   OH215961   7.406   2.293   6.164
 5335TIP3    H115962   7.488   2.333   6.195
 5335TIP3    H215963   7.435   2.226   6.102
 5336TIP3   OH215964   8.192   4.751   2.621
 5336TIP3    H115965   8.176   4.845   2.633
 5336TIP3    H215966   8.167   4.735   2.530
 5337TIP3   OH215967   0.082   5.313   4.315
 5337TIP3    H115968   0.050   5.264   4.239
 5337TIP3    H215969   0.002   5.349   4.355
 5338TIP3   OH215970   6.350  -0.012   2.174
 5338TIP3    H115971   6.317  -0.004   2.264
 5338TIP3    H215972   6.283   0.030   2.120
 5339TIP3   OH215973   5.633   2.863   3.131
 5339TIP3    H115974   5.687   2.820   3.197
 5339TIP3    H215975   5.641   2.956   3.150
 5340TIP3   OH215976   4.819   6.586   6.293
 5340TIP3    H115977   4.903   6.543   6.275
 5340TIP3    H215978   4.783   6.605   6.207
 5341TIP3   OH215979   3.430   0.590   3.535
 5341TIP3    H115980   3.388   0.524   3.479
 5341TIP3    H215981   3.438   0.547   3.620
 5342TIP3   OH215982   4.427   3.786   6.559
 5342TIP3    H115983   4.366   3.797   6.486
 5342TIP3    H215984   4.374   3.801   6.638
 5343TIP3   OH215985   5.795   5.189   0.768
 5343TIP3    H115986   5.782   5.252   0.839
 5343TIP3    H215987   5.783   5.104   0.809
 5344TIP3   OH215988   2.387   6.167   2.822
 5344TIP3    H115989   2.388   6.261   2.841
 5344TIP3    H215990   2.306   6.135   2.861
 5345TIP3   OH215991   3.165   4.598   5.923
 5345TIP3    H115992   3.113   4.661   5.874
 5345TIP3    H215993   3.099   4.541   5.965
 5346TIP3   OH215994   6.597   6.396   6.588
 5346TIP3    H115995   6.673   6.429   6.540
 5346TIP3    H215996   6.530   6.384   6.522
 5347TIP3   OH215997   5.500   7.448   3.060
 5347TIP3    H115998   5.468   7.386   3.126
 5347TIP3    H215999   5.590   7.468   3.086
 5348TIP3   OH216000   2.875   5.622   1.404
 5348TIP3    H116001   2.939   5.553   1.384
 5348TIP3    H216002   2.845   5.602   1.492
 5349TIP3   OH216003   4.973   5.410   5.048
 5349TIP3    H116004   4.974   5.318   5.076
 5349TIP3    H216005   4.893   5.418   4.996
 5350TIP3   OH216006   0.759   0.470   6.698
 5350TIP3    H116007   0.851   0.446   6.695
 5350TIP3    H216008   0.718   0.405   6.755
 5351TIP3   OH216009   4.943   5.850   0.759
 5351TIP3    H116010   4.941   5.867   0.853
 5351TIP3    H216011   4.867   5.794   0.742
 5352TIP3   OH216012   5.475   5.493   4.436
 5352TIP3    H116013   5.386   5.461   4.453
 5352TIP3    H216014   5.506   5.523   4.521
 5353TIP3   OH216015   0.065   1.352   2.389
 5353TIP3    H116016  -0.030   1.339   2.382
 5353TIP3    H216017   0.101   1.313   2.309
 5354TIP3   OH216018   3.765   6.894   5.207
 5354TIP3    H116019   3.743   6.809   5.245
 5354TIP3    H216020   3.684   6.944   5.209
 5355TIP3   OH216021   5.367   3.650   5.139
 5355TIP3    H116022   5.273   3.670   5.141
 5355TIP3    H216023   5.384   3.624   5.049
 5356TIP3   OH216024   7.153   4.396   5.961
 5356TIP3    H116025   7.104   4.315   5.973
 5356TIP3    H216026   7.245   4.369   5.961
 5357TIP3   OH216027   0.828   4.863   1.561
 5357TIP3    H116028   0.814   4.933   1.497
 5357TIP3    H216029   0.788   4.896   1.642
 5358TIP3   OH216030   6.298   3.578   0.649
 5358TIP3    H116031   6.294   3.604   0.557
 5358TIP3    H216032   6.389   3.596   0.675
 5359TIP3   OH216033   2.983   2.286   3.477
 5359TIP3    H116034   3.043   2.226   3.433
 5359TIP3    H216035   2.923   2.230   3.526
 5360TIP3   OH216036   2.404   0.578   3.221
 5360TIP3    H116037   2.437   0.664   3.198
 5360TIP3    H216038   2.449   0.555   3.302
 5361TIP3   OH216039   4.670   6.057   0.619
 5361TIP3    H116040   4.683   5.967   0.649
 5361TIP3    H216041   4.575   6.070   0.622
 5362TIP3   OH216042   4.536   6.945   1.531
 5362TIP3    H116043   4.600   6.895   1.479
 5362TIP3    H216044   4.549   6.914   1.621
 5363TIP3   OH216045   4.535   0.151   4.854
 5363TIP3    H116046   4.607   0.190   4.904
 5363TIP3    H216047   4.512   0.218   4.789
 5364TIP3   OH216048   5.574   3.449   1.120
 5364TIP3    H116049   5.598   3.357   1.106
 5364TIP3    H216050   5.623   3.496   1.052
 5365TIP3   OH216051   0.076   6.049   4.063
 5365TIP3    H116052   0.086   5.988   3.990
 5365TIP3    H216053   0.082   6.136   4.023
 5366TIP3   OH216054   2.274   7.180   6.458
 5366TIP3    H116055   2.243   7.112   6.517
 5366TIP3    H216056   2.357   7.208   6.495
 5367TIP3   OH216057   0.501   7.151   5.609
 5367TIP3    H116058   0.511   7.061   5.581
 5367TIP3    H216059   0.555   7.202   5.548
 5368TIP3   OH216060   6.512   5.276   2.206
 5368TIP3    H116061   6.596   5.299   2.246
 5368TIP3    H216062   6.468   5.360   2.192
 5369TIP3   OH216063   3.593   1.160   3.341
 5369TIP3    H116064   3.646   1.154   3.421
 5369TIP3    H216065   3.650   1.206   3.279
 5370TIP3   OH216066   4.898   6.687   3.511
 5370TIP3    H116067   4.812   6.723   3.534
 5370TIP3    H216068   4.894   6.596   3.540
 5371TIP3   OH216069   0.442   5.635   5.802
 5371TIP3    H116070   0.371   5.698   5.802
 5371TIP3    H216071   0.519   5.685   5.829
 5372TIP3   OH216072   1.927   1.686   1.115
 5372TIP3    H116073   1.850   1.743   1.110
 5372TIP3    H216074   1.982   1.725   1.183
 5373TIP3   OH216075   2.170   6.188   2.414
 5373TIP3    H116076   2.149   6.098   2.389
 5373TIP3    H216077   2.085   6.232   2.419
 5374TIP3   OH216078   6.870   4.426   1.020
 5374TIP3    H116079   6.858   4.521   1.023
 5374TIP3    H216080   6.942   4.413   0.958
 5375TIP3   OH216081   4.881   4.555   4.864
 5375TIP3    H116082   4.804   4.545   4.919
 5375TIP3    H216083   4.854   4.521   4.778
 5376TIP3   OH216084   6.638   6.754   5.739
 5376TIP3    H116085   6.708   6.760   5.674
 5376TIP3    H216086   6.561   6.729   5.688
 5377TIP3   OH216087   2.578   2.274   2.854
 5377TIP3    H116088   2.619   2.300   2.772
 5377TIP3    H216089   2.498   2.325   2.859
 5378TIP3   OH216090   7.603   0.350   1.535
 5378TIP3    H116091   7.637   0.274   1.488
 5378TIP3    H216092   7.601   0.420   1.469
 5379TIP3   OH216093   6.739   2.653   1.209
 5379TIP3    H116094   6.697   2.694   1.285
 5379TIP3    H216095   6.792   2.583   1.245
 5380TIP3   OH216096   6.203   5.232   6.258
 5380TIP3    H116097   6.127   5.213   6.202
 5380TIP3    H216098   6.197   5.326   6.274
 5381TIP3   OH216099   1.208   2.142   6.215
 5381TIP3    H116100   1.166   2.167   6.133
 5381TIP3    H216101   1.178   2.052   6.231
 5382TIP3   OH216102   4.302   6.895   3.616
 5382TIP3    H116103   4.332   6.840   3.688
 5382TIP3    H216104   4.301   6.984   3.652
 5383TIP3   OH216105   7.579   3.872   1.270
 5383TIP3    H116106   7.581   3.810   1.344
 5383TIP3    H216107   7.526   3.828   1.204
 5384TIP3   OH216108   7.596   7.402   5.931
 5384TIP3    H116109   7.545   7.325   5.958
 5384TIP3    H216110   7.670   7.365   5.883
 5385TIP3   OH216111   3.448   1.987   5.429
 5385TIP3    H116112   3.510   1.961   5.496
 5385TIP3    H216113   3.468   2.079   5.410
 5386TIP3   OH216114   3.489   3.646   4.430
 5386TIP3    H116115   3.400   3.679   4.418
 5386TIP3    H216116   3.484   3.554   4.407
 5387TIP3   OH216117   6.870   1.535   1.399
 5387TIP3    H116118   6.793   1.572   1.356
 5387TIP3    H216119   6.901   1.605   1.457
 5388TIP3   OH216120   0.812   4.105   1.391
 5388TIP3    H116121   0.799   4.197   1.367
 5388TIP3    H216122   0.727   4.077   1.425
 5389TIP3   OH216123   0.892   2.277   6.157
 5389TIP3    H116124   0.955   2.279   6.085
 5389TIP3    H216125   0.932   2.331   6.226
 5390TIP3   OH216126   1.768   5.152   6.422
 5390TIP3    H116127   1.741   5.060   6.426
 5390TIP3    H216128   1.860   5.152   6.448
 5391TIP3   OH216129   2.759   0.950   2.330
 5391TIP3    H116130   2.675   0.951   2.376
 5391TIP3    H216131   2.743   1.001   2.250
 5392TIP3   OH216132   0.840   3.030   2.738
 5392TIP3    H116133   0.877   2.948   2.705
 5392TIP3    H216134   0.897   3.098   2.701
 5393TIP3   OH216135   6.547   6.845   0.511
 5393TIP3    H116136   6.504   6.798   0.582
 5393TIP3    H216137   6.500   6.928   0.504
 5394TIP3   OH216138   1.993   1.505   5.766
 5394TIP3    H116139   1.998   1.444   5.839
 5394TIP3    H216140   1.982   1.591   5.807
 5395TIP3   OH216141   6.038   0.069   5.608
 5395TIP3    H116142   5.991   0.041   5.529
 5395TIP3    H216143   6.103   0.130   5.575
 5396TIP3   OH216144   0.776   7.019   3.227
 5396TIP3    H116145   0.831   6.941   3.231
 5396TIP3    H216146   0.687   6.986   3.239
 5397TIP3   OH216147   2.460   3.380   1.173
 5397TIP3    H116148   2.524   3.415   1.234
 5397TIP3    H216149   2.495   3.401   1.086
 5398TIP3   OH216150   1.653   4.453   0.044
 5398TIP3    H116151   1.669   4.368   0.002
 5398TIP3    H216152   1.731   4.467   0.099
 5399TIP3   OH216153   5.378   3.339   6.147
 5399TIP3    H116154   5.346   3.394   6.219
 5399TIP3    H216155   5.431   3.272   6.190
 5400TIP3   OH216156   7.673   3.722   0.569
 5400TIP3    H116157   7.640   3.806   0.602
 5400TIP3    H216158   7.695   3.739   0.477
 5401TIP3   OH216159   1.731   5.042   4.485
 5401TIP3    H116160   1.797   5.104   4.454
 5401TIP3    H216161   1.733   4.971   4.420
 5402TIP3   OH216162   5.787   1.742   0.480
 5402TIP3    H116163   5.833   1.747   0.564
 5402TIP3    H216164   5.716   1.806   0.488
 5403TIP3   OH216165   1.073   4.840   4.292
 5403TIP3    H116166   0.983   4.830   4.263
 5403TIP3    H216167   1.107   4.914   4.242
 5404TIP3   OH216168   1.352   0.077   2.360
 5404TIP3    H116169   1.305   0.123   2.291
 5404TIP3    H216170   1.429   0.132   2.377
 5405TIP3   OH216171   4.647   6.690   5.788
 5405TIP3    H116172   4.597   6.627   5.737
 5405TIP3    H216173   4.659   6.765   5.730
 5406TIP3   OH216174   0.605   3.356   6.143
 5406TIP3    H116175   0.673   3.379   6.079
 5406TIP3    H216176   0.530   3.409   6.118
 5407TIP3   OH216177   3.248   0.197   3.713
 5407TIP3    H116178   3.246   0.237   3.626
 5407TIP3    H216179   3.254   0.271   3.773
 5408TIP3   OH216180   0.581   3.526   2.010
 5408TIP3    H116181   0.535   3.571   1.939
 5408TIP3    H216182   0.628   3.455   1.966
 5409TIP3   OH216183   5.000   1.088   2.228
 5409TIP3    H116184   4.993   1.140   2.148
 5409TIP3    H216185   5.083   1.114   2.268
 5410TIP3   OH216186   1.132   3.507   5.831
 5410TIP3    H116187   1.115   3.510   5.925
 5410TIP3    H216188   1.221   3.541   5.821
 5411TIP3   OH216189   5.276   0.633   6.220
 5411TIP3    H116190   5.282   0.611   6.127
 5411TIP3    H216191   5.185   0.614   6.244
 5412TIP3   OH216192   3.942   3.546   4.207
 5412TIP3    H116193   3.925   3.485   4.135
 5412TIP3    H216194   3.971   3.627   4.165
 5413TIP3   OH216195   7.960   5.141   5.114
 5413TIP3    H116196   7.953   5.109   5.024
 5413TIP3    H216197   7.882   5.108   5.157
 5414TIP3   OH216198   2.597   5.077   5.746
 5414TIP3    H116199   2.519   5.130   5.761
 5414TIP3    H216200   2.666   5.120   5.798
 5415TIP3   OH216201   6.821   4.754   2.583
 5415TIP3    H116202   6.913   4.768   2.605
 5415TIP3    H216203   6.811   4.795   2.497
 5416TIP3   OH216204   3.624   4.191   3.367
 5416TIP3    H116205   3.571   4.203   3.289
 5416TIP3    H216206   3.710   4.165   3.334
 5417TIP3   OH216207   1.808   7.458   3.818
 5417TIP3    H116208   1.732   7.479   3.872
 5417TIP3    H216209   1.834   7.542   3.779
 5418TIP3   OH216210   5.321   3.760   4.295
 5418TIP3    H116211   5.244   3.766   4.238
 5418TIP3    H216212   5.395   3.770   4.235
 5419TIP3   OH216213   3.557   1.558   3.269
 5419TIP3    H116214   3.493   1.487   3.277
 5419TIP3    H216215   3.613   1.531   3.196
 5420TIP3   OH216216   6.017   6.302   3.655
 5420TIP3    H116217   6.032   6.291   3.749
 5420TIP3    H216218   6.068   6.379   3.631
 5421TIP3   OH216219   7.955   6.182   1.666
 5421TIP3    H116220   7.950   6.087   1.658
 5421TIP3    H216221   8.047   6.200   1.686
 5422TIP3   OH216222   6.132   5.823   0.755
 5422TIP3    H116223   6.220   5.844   0.726
 5422TIP3    H216224   6.077   5.838   0.679
 5423TIP3   OH216225   1.080   1.812   4.087
 5423TIP3    H116226   1.174   1.832   4.091
 5423TIP3    H216227   1.038   1.898   4.086
 5424TIP3   OH216228   7.303   2.384   2.261
 5424TIP3    H116229   7.243   2.311   2.276
 5424TIP3    H216230   7.384   2.358   2.305
 5425TIP3   OH216231   6.557   4.829   5.888
 5425TIP3    H116232   6.541   4.852   5.796
 5425TIP3    H216233   6.539   4.910   5.936
 5426TIP3   OH216234   4.805   6.593   0.804
 5426TIP3    H116235   4.810   6.686   0.782
 5426TIP3    H216236   4.723   6.584   0.853
 5427TIP3   OH216237   5.396   2.523   1.777
 5427TIP3    H116238   5.367   2.607   1.811
 5427TIP3    H216239   5.412   2.539   1.684
 5428TIP3   OH216240   6.647   5.901   6.592
 5428TIP3    H116241   6.636   5.965   6.662
 5428TIP3    H216242   6.604   5.940   6.516
 5429TIP3   OH216243   5.951   2.832   1.221
 5429TIP3    H116244   6.025   2.893   1.217
 5429TIP3    H216245   5.885   2.879   1.272
 5430TIP3   OH216246   1.355   7.072   3.575
 5430TIP3    H116247   1.299   7.116   3.511
 5430TIP3    H216248   1.390   6.995   3.529
 5431TIP3   OH216249   3.018   6.688   4.039
 5431TIP3    H116250   2.960   6.679   3.964
 5431TIP3    H216251   3.060   6.773   4.027
 5432TIP3   OH216252   8.176   4.366   4.288
 5432TIP3    H116253   8.220   4.448   4.310
 5432TIP3    H216254   8.153   4.376   4.195
 5433TIP3   OH216255   6.955   5.398   1.041
 5433TIP3    H116256   6.928   5.315   1.080
 5433TIP3    H216257   6.878   5.426   0.990
 5434TIP3   OH216258   7.432   1.123   0.034
 5434TIP3    H116259   7.467   1.056  -0.026
 5434TIP3    H216260   7.369   1.076   0.088
 5435TIP3   OH216261   3.560   4.266   5.042
 5435TIP3    H116262   3.487   4.245   5.100
 5435TIP3    H216263   3.631   4.291   5.101
 5436TIP3   OH216264   4.265   4.246   1.846
 5436TIP3    H116265   4.268   4.152   1.826
 5436TIP3    H216266   4.335   4.283   1.793
 5437TIP3   OH216267   6.933   0.691   6.755
 5437TIP3    H116268   7.013   0.640   6.771
 5437TIP3    H216269   6.923   0.691   6.660
 5438TIP3   OH216270   7.004   6.850   5.148
 5438TIP3    H116271   7.088   6.856   5.192
 5438TIP3    H216272   7.006   6.765   5.104
 5439TIP3   OH216273   1.687   4.877   6.447
 5439TIP3    H116274   1.751   4.816   6.409
 5439TIP3    H216275   1.641   4.826   6.513
 5440TIP3   OH216276   2.225   4.748   1.820
 5440TIP3    H116277   2.217   4.710   1.907
 5440TIP3    H216278   2.234   4.842   1.834
 5441TIP3   OH216279   1.052   4.254   6.428
 5441TIP3    H116280   1.097   4.331   6.395
 5441TIP3    H216281   1.104   4.226   6.504
 5442TIP3   OH216282   3.304   7.318   1.700
 5442TIP3    H116283   3.285   7.268   1.779
 5442TIP3    H216284   3.366   7.385   1.728
 5443TIP3   OH216285   6.428   4.510   5.518
 5443TIP3    H116286   6.355   4.454   5.492
 5443TIP3    H216287   6.431   4.578   5.450
 5444TIP3   OH216288   1.209   5.473   6.378
 5444TIP3    H116289   1.304   5.485   6.369
 5444TIP3    H216290   1.174   5.562   6.378
 5445TIP3   OH216291   1.746   4.524   2.712
 5445TIP3    H116292   1.692   4.447   2.692
 5445TIP3    H216293   1.683   4.596   2.717
 5446TIP3   OH216294   2.777   0.680   0.704
 5446TIP3    H116295   2.806   0.686   0.795
 5446TIP3    H216296   2.814   0.758   0.662
 5447TIP3   OH216297   3.982   4.651   4.918
 5447TIP3    H116298   3.914   4.586   4.930
 5447TIP3    H216299   3.948   4.730   4.959
 5448TIP3   OH216300   2.517   3.441   4.805
 5448TIP3    H116301   2.429   3.415   4.778
 5448TIP3    H216302   2.521   3.535   4.790
 5449TIP3   OH216303   0.773   5.019   6.043
 5449TIP3    H116304   0.830   5.095   6.031
 5449TIP3    H216305   0.782   4.969   5.962
 5450TIP3   OH216306   7.897   5.893   6.500
 5450TIP3    H116307   7.884   5.806   6.463
 5450TIP3    H216308   7.862   5.952   6.432
 5451TIP3   OH216309   2.913   0.166   0.177
 5451TIP3    H116310   2.964   0.247   0.183
 5451TIP3    H216311   2.849   0.172   0.248
 5452TIP3   OH216312   3.760   6.434   0.626
 5452TIP3    H116313   3.669   6.407   0.617
 5452TIP3    H216314   3.760   6.499   0.697
 5453TIP3   OH216315   7.890   6.160   1.367
 5453TIP3    H116316   7.916   6.236   1.314
 5453TIP3    H216317   7.817   6.192   1.420
 5454TIP3   OH216318   4.093   6.126   4.408
 5454TIP3    H116319   4.147   6.202   4.385
 5454TIP3    H216320   4.146   6.076   4.470
 5455TIP3   OH216321   0.697   2.788   3.021
 5455TIP3    H116322   0.603   2.776   3.008
 5455TIP3    H216323   0.713   2.879   2.997
 5456TIP3   OH216324   7.788   4.173   5.609
 5456TIP3    H116325   7.734   4.118   5.552
 5456TIP3    H216326   7.862   4.118   5.633
 5457TIP3   OH216327   6.404   6.956   5.092
 5457TIP3    H116328   6.398   6.983   5.183
 5457TIP3    H216329   6.493   6.981   5.065
 5458TIP3   OH216330   2.930   5.602   6.341
 5458TIP3    H116331   2.928   5.694   6.370
 5458TIP3    H216332   2.840   5.583   6.315
 5459TIP3   OH216333   3.866   1.102   1.105
 5459TIP3    H116334   3.889   1.182   1.151
 5459TIP3    H216335   3.778   1.081   1.135
 5460TIP3   OH216336   6.173   2.656   0.022
 5460TIP3    H116337   6.121   2.580   0.052
 5460TIP3    H216338   6.164   2.720   0.093
 5461TIP3   OH216339   1.796   3.477   1.867
 5461TIP3    H116340   1.733   3.411   1.894
 5461TIP3    H216341   1.868   3.468   1.930
 5462TIP3   OH216342   5.278   2.990   3.184
 5462TIP3    H116343   5.287   2.895   3.195
 5462TIP3    H216344   5.184   3.006   3.190
 5463TIP3   OH216345   4.972   5.006   3.256
 5463TIP3    H116346   4.948   5.013   3.348
 5463TIP3    H216347   5.067   4.994   3.256
 5464TIP3   OH216348   1.584   1.231   2.513
 5464TIP3    H116349   1.654   1.183   2.468
 5464TIP3    H216350   1.607   1.224   2.606
 5465TIP3   OH216351   7.080   1.246   5.860
 5465TIP3    H116352   7.157   1.295   5.890
 5465TIP3    H216353   7.115   1.164   5.825
 5466TIP3   OH216354   1.112   6.182   3.414
 5466TIP3    H116355   1.187   6.221   3.460
 5466TIP3    H216356   1.132   6.089   3.410
 5467TIP3   OH216357   5.921   5.906   0.557
 5467TIP3    H116358   5.900   5.930   0.467
 5467TIP3    H216359   5.877   5.973   0.610
 5468TIP3   OH216360   7.018   7.562   1.446
 5468TIP3    H116361   7.013   7.504   1.370
 5468TIP3    H216362   7.018   7.503   1.521
 5469TIP3   OH216363   4.197   1.124   5.774
 5469TIP3    H116364   4.267   1.091   5.718
 5469TIP3    H216365   4.150   1.187   5.720
 5470TIP3   OH216366   0.396   2.154   0.539
 5470TIP3    H116367   0.456   2.081   0.555
 5470TIP3    H216368   0.384   2.195   0.625
 5471TIP3   OH216369   7.232   6.160   6.420
 5471TIP3    H116370   7.152   6.171   6.369
 5471TIP3    H216371   7.207   6.100   6.491
 5472TIP3   OH216372   1.763   0.245   5.587
 5472TIP3    H116373   1.785   0.170   5.643
 5472TIP3    H216374   1.677   0.223   5.551
 5473TIP3   OH216375   7.093   6.339   6.016
 5473TIP3    H116376   7.054   6.359   6.102
 5473TIP3    H216377   7.155   6.410   6.001
 5474TIP3   OH216378   5.701   1.534   3.299
 5474TIP3    H116379   5.763   1.515   3.228
 5474TIP3    H216380   5.672   1.447   3.328
 5475TIP3   OH216381   1.876   6.498   2.768
 5475TIP3    H116382   1.895   6.584   2.730
 5475TIP3    H216383   1.961   6.464   2.794
 5476TIP3   OH216384   4.993   1.609   4.243
 5476TIP3    H116385   5.052   1.638   4.312
 5476TIP3    H216386   4.972   1.519   4.265
 5477TIP3   OH216387   1.727   4.610   0.450
 5477TIP3    H116388   1.648   4.614   0.395
 5477TIP3    H216389   1.711   4.673   0.520
 5478TIP3   OH216390   5.704   6.963   3.682
 5478TIP3    H116391   5.631   6.935   3.737
 5478TIP3    H216392   5.668   6.963   3.593
 5479TIP3   OH216393   4.498   4.072   2.807
 5479TIP3    H116394   4.431   4.004   2.815
 5479TIP3    H216395   4.464   4.131   2.740
 5480TIP3   OH216396   3.467   3.994   1.802
 5480TIP3    H116397   3.505   4.081   1.794
 5480TIP3    H216398   3.500   3.960   1.885
 5481TIP3   OH216399   7.406   0.670   0.653
 5481TIP3    H116400   7.312   0.686   0.660
 5481TIP3    H216401   7.445   0.757   0.657
 5482TIP3   OH216402   5.864   3.054   4.298
 5482TIP3    H116403   5.773   3.070   4.324
 5482TIP3    H216404   5.869   3.082   4.207
 5483TIP3   OH216405   2.370   6.666   0.355
 5483TIP3    H116406   2.396   6.733   0.419
 5483TIP3    H216407   2.451   6.620   0.335
 5484TIP3   OH216408   7.245   0.278   6.752
 5484TIP3    H116409   7.281   0.215   6.815
 5484TIP3    H216410   7.157   0.245   6.732
 5485TIP3   OH216411   2.433   6.474   3.317
 5485TIP3    H116412   2.389   6.390   3.303
 5485TIP3    H216413   2.410   6.498   3.407
 5486TIP3   OH216414   4.171   3.775   5.173
 5486TIP3    H116415   4.205   3.829   5.102
 5486TIP3    H216416   4.237   3.781   5.242
 5487TIP3   OH216417   1.065   1.551   5.335
 5487TIP3    H116418   1.109   1.626   5.296
 5487TIP3    H216419   0.986   1.588   5.376
 5488TIP3   OH216420   1.224   6.343   3.857
 5488TIP3    H116421   1.319   6.348   3.851
 5488TIP3    H216422   1.192   6.380   3.775
 5489TIP3   OH216423   1.029   6.286   2.325
 5489TIP3    H116424   1.070   6.281   2.411
 5489TIP3    H216425   0.993   6.375   2.321
 5490TIP3   OH216426   8.201   1.544   5.640
 5490TIP3    H116427   8.183   1.605   5.568
 5490TIP3    H216428   8.248   1.471   5.599
 5491TIP3   OH216429   1.541   6.583   2.334
 5491TIP3    H116430   1.570   6.495   2.309
 5491TIP3    H216431   1.613   6.641   2.310
 5492TIP3   OH216432   1.005   1.808   6.763
 5492TIP3    H116433   1.031   1.812   6.671
 5492TIP3    H216434   1.078   1.849   6.810
 5493TIP3   OH216435   7.065   2.288   3.793
 5493TIP3    H116436   7.121   2.337   3.852
 5493TIP3    H216437   7.061   2.341   3.713
 5494TIP3   OH216438   5.171   4.626   6.107
 5494TIP3    H116439   5.092   4.591   6.066
 5494TIP3    H216440   5.230   4.644   6.034
 5495TIP3   OH216441   4.654   0.188   1.494
 5495TIP3    H116442   4.641   0.102   1.532
 5495TIP3    H216443   4.732   0.222   1.537
 5496TIP3   OH216444   3.264   4.337   6.284
 5496TIP3    H116445   3.286   4.374   6.198
 5496TIP3    H216446   3.331   4.373   6.343
 5497TIP3   OH216447   8.092   4.058   1.179
 5497TIP3    H116448   8.000   4.032   1.175
 5497TIP3    H216449   8.124   4.019   1.260
 5498TIP3   OH216450   1.526   5.985   5.775
 5498TIP3    H116451   1.493   5.901   5.807
 5498TIP3    H216452   1.529   5.974   5.680
 5499TIP3   OH216453   0.518   2.525   4.490
 5499TIP3    H116454   0.520   2.616   4.518
 5499TIP3    H216455   0.555   2.477   4.565
 5500TIP3   OH216456   0.494   4.654   5.558
 5500TIP3    H116457   0.433   4.660   5.485
 5500TIP3    H216458   0.491   4.740   5.600
 5501TIP3   OH216459   3.533   7.312   5.560
 5501TIP3    H116460   3.568   7.230   5.527
 5501TIP3    H216461   3.601   7.347   5.617
 5502TIP3   OH216462   1.716   1.240   0.973
 5502TIP3    H116463   1.789   1.291   0.939
 5502TIP3    H216464   1.709   1.266   1.065
 5503TIP3   OH216465   4.510   2.141   6.250
 5503TIP3    H116466   4.452   2.193   6.194
 5503TIP3    H216467   4.469   2.144   6.336
 5504TIP3   OH216468   4.386   6.454   3.101
 5504TIP3    H116469   4.374   6.410   3.017
 5504TIP3    H216470   4.299   6.450   3.143
 5505TIP3   OH216471   0.763   7.658   0.105
 5505TIP3    H116472   0.693   7.718   0.129
 5505TIP3    H216473   0.767   7.662   0.009
 5506TIP3   OH216474   6.501   3.345   3.044
 5506TIP3    H116475   6.504   3.250   3.033
 5506TIP3    H216476   6.576   3.377   2.994
 5507TIP3   OH216477   7.556   1.957   2.328
 5507TIP3    H116478   7.502   1.962   2.249
 5507TIP3    H216479   7.552   2.046   2.364
 5508TIP3   OH216480   5.737   6.338   4.792
 5508TIP3    H116481   5.698   6.425   4.785
 5508TIP3    H216482   5.666   6.282   4.822
 5509TIP3   OH216483   2.698   7.580   1.328
 5509TIP3    H116484   2.669   7.662   1.367
 5509TIP3    H216485   2.782   7.602   1.285
 5510TIP3   OH216486   6.807   4.324   0.754
 5510TIP3    H116487   6.786   4.256   0.690
 5510TIP3    H216488   6.801   4.280   0.839
 5511TIP3   OH216489   8.161   2.689   5.104
 5511TIP3    H116490   8.165   2.606   5.150
 5511TIP3    H216491   8.228   2.682   5.036
 5512TIP3   OH216492   4.251   0.434   5.640
 5512TIP3    H116493   4.189   0.361   5.634
 5512TIP3    H216494   4.242   0.466   5.730
 5513TIP3   OH216495   2.883   5.449   4.982
 5513TIP3    H116496   2.802   5.499   4.975
 5513TIP3    H216497   2.904   5.423   4.892
 5514TIP3   OH216498   2.440   3.078   3.388
 5514TIP3    H116499   2.407   3.161   3.421
 5514TIP3    H216500   2.467   3.030   3.467
 5515TIP3   OH216501   4.989   2.940   1.000
 5515TIP3    H116502   4.964   2.909   0.913
 5515TIP3    H216503   4.992   3.035   0.992
 5516TIP3   OH216504   1.670   6.053   6.291
 5516TIP3    H116505   1.749   6.074   6.240
 5516TIP3    H216506   1.667   5.957   6.291
 5517TIP3   OH216507   5.275   3.251   5.269
 5517TIP3    H116508   5.299   3.159   5.264
 5517TIP3    H216509   5.181   3.253   5.254
 5518TIP3   OH216510   3.156   5.318   0.121
 5518TIP3    H116511   3.246   5.346   0.106
 5518TIP3    H216512   3.150   5.233   0.077
 5519TIP3   OH216513   7.981   6.650   0.470
 5519TIP3    H116514   8.065   6.649   0.424
 5519TIP3    H216515   7.915   6.639   0.401
 5520TIP3   OH216516   2.938   0.039   0.584
 5520TIP3    H116517   2.969   0.037   0.675
 5520TIP3    H216518   2.978   0.118   0.547
 5521TIP3   OH216519   1.559   3.112   0.229
 5521TIP3    H116520   1.523   3.178   0.288
 5521TIP3    H216521   1.483   3.061   0.201
 5522TIP3   OH216522   7.352   1.480   0.168
 5522TIP3    H116523   7.284   1.438   0.116
 5522TIP3    H216524   7.352   1.571   0.138
 5523TIP3   OH216525   1.905   5.237   6.041
 5523TIP3    H116526   1.901   5.328   6.071
 5523TIP3    H216527   1.998   5.221   6.028
 5524TIP3   OH216528   1.478   2.147   6.285
 5524TIP3    H116529   1.514   2.108   6.205
 5524TIP3    H216530   1.383   2.140   6.275
 5525TIP3   OH216531   5.990   7.225   6.780
 5525TIP3    H116532   6.059   7.177   6.733
 5525TIP3    H216533   5.984   7.309   6.734
 5526TIP3   OH216534   7.240   7.098   3.194
 5526TIP3    H116535   7.303   7.048   3.247
 5526TIP3    H216536   7.222   7.177   3.246
 5527TIP3   OH216537   7.213   0.813   0.430
 5527TIP3    H116538   7.269   0.770   0.365
 5527TIP3    H216539   7.222   0.906   0.410
 5528TIP3   OH216540   2.998   4.426   2.928
 5528TIP3    H116541   3.090   4.400   2.939
 5528TIP3    H216542   3.002   4.518   2.904
 5529TIP3   OH216543   3.650   2.132   6.346
 5529TIP3    H116544   3.668   2.184   6.425
 5529TIP3    H216545   3.732   2.085   6.330
 5530TIP3   OH216546   1.047   2.959   4.908
 5530TIP3    H116547   0.969   2.982   4.858
 5530TIP3    H216548   1.045   3.016   4.985
 5531TIP3   OH216549   0.639   4.256   2.381
 5531TIP3    H116550   0.628   4.216   2.467
 5531TIP3    H216551   0.600   4.343   2.390
 5532TIP3   OH216552   5.130   3.593   3.476
 5532TIP3    H116553   5.173   3.610   3.559
 5532TIP3    H216554   5.172   3.652   3.414
 5533TIP3   OH216555   2.557   4.545   4.471
 5533TIP3    H116556   2.481   4.527   4.417
 5533TIP3    H216557   2.545   4.636   4.499
 5534TIP3   OH216558   2.840   7.479   6.628
 5534TIP3    H116559   2.883   7.559   6.658
 5534TIP3    H216560   2.905   7.435   6.573
 5535TIP3   OH216561   4.062   7.400   2.231
 5535TIP3    H116562   4.087   7.329   2.290
 5535TIP3    H216563   4.142   7.452   2.222
 5536TIP3   OH216564   1.134   5.821   0.990
 5536TIP3    H116565   1.085   5.776   0.921
 5536TIP3    H216566   1.141   5.912   0.959
 5537TIP3   OH216567   0.797   6.942   5.524
 5537TIP3    H116568   0.871   6.881   5.518
 5537TIP3    H216569   0.751   6.932   5.441
 5538TIP3   OH216570   6.322   2.934   5.801
 5538TIP3    H116571   6.319   2.968   5.711
 5538TIP3    H216572   6.233   2.906   5.818
 5539TIP3   OH216573   1.537   6.124   0.428
 5539TIP3    H116574   1.571   6.152   0.513
 5539TIP3    H216575   1.481   6.050   0.448
 5540TIP3   OH216576   3.786   1.561   2.324
 5540TIP3    H116577   3.744   1.499   2.384
 5540TIP3    H216578   3.715   1.619   2.296
 5541TIP3   OH216579   8.137   2.403   6.657
 5541TIP3    H116580   8.228   2.387   6.684
 5541TIP3    H216581   8.142   2.411   6.562
 5542TIP3   OH216582   4.511   4.886   1.110
 5542TIP3    H116583   4.472   4.799   1.119
 5542TIP3    H216584   4.530   4.894   1.016
 5543TIP3   OH216585   6.813   3.564   0.705
 5543TIP3    H116586   6.846   3.475   0.693
 5543TIP3    H216587   6.860   3.616   0.640
 5544TIP3   OH216588   5.993   3.745   6.470
 5544TIP3    H116589   6.002   3.685   6.396
 5544TIP3    H216590   5.916   3.713   6.517
 5545TIP3   OH216591   2.357   3.092   0.456
 5545TIP3    H116592   2.432   3.054   0.411
 5545TIP3    H216593   2.367   3.187   0.445
 5546TIP3   OH216594   1.159   5.121   2.140
 5546TIP3    H116595   1.116   5.060   2.200
 5546TIP3    H216596   1.092   5.143   2.075
 5547TIP3   OH216597   7.097   6.447   0.842
 5547TIP3    H116598   7.066   6.491   0.921
 5547TIP3    H216599   7.102   6.517   0.776
 5548TIP3   OH216600   6.011   2.269   6.275
 5548TIP3    H116601   6.034   2.323   6.350
 5548TIP3    H216602   5.988   2.331   6.206
 5549TIP3   OH216603   0.558   7.140   4.345
 5549TIP3    H116604   0.492   7.196   4.385
 5549TIP3    H216605   0.624   7.200   4.312
 5550TIP3   OH216606   7.206   3.349   5.263
 5550TIP3    H116607   7.137   3.412   5.245
 5550TIP3    H216608   7.240   3.325   5.176
 5551TIP3   OH216609   6.869   6.721   2.277
 5551TIP3    H116610   6.896   6.801   2.232
 5551TIP3    H216611   6.912   6.726   2.362
 5552TIP3   OH216612   4.032   4.162   5.455
 5552TIP3    H116613   3.992   4.112   5.383
 5552TIP3    H216614   4.097   4.102   5.491
 5553TIP3   OH216615   3.580   0.862   0.022
 5553TIP3    H116616   3.561   0.948  -0.016
 5553TIP3    H216617   3.622   0.813  -0.049
 5554TIP3   OH216618   6.679   7.762   5.017
 5554TIP3    H116619   6.686   7.844   5.065
 5554TIP3    H216620   6.664   7.696   5.084
 5555TIP3   OH216621   3.122   1.373   4.650
 5555TIP3    H116622   3.098   1.465   4.658
 5555TIP3    H216623   3.060   1.337   4.587
 5556TIP3   OH216624   3.222   2.095   1.453
 5556TIP3    H116625   3.292   2.128   1.397
 5556TIP3    H216626   3.256   2.013   1.488
 5557TIP3   OH216627   5.054   7.018   5.904
 5557TIP3    H116628   5.057   7.111   5.881
 5557TIP3    H216629   5.090   6.973   5.826
 5558TIP3   OH216630   7.763   3.465   5.232
 5558TIP3    H116631   7.766   3.433   5.141
 5558TIP3    H216632   7.725   3.552   5.225
 5559TIP3   OH216633   3.606   7.055   4.951
 5559TIP3    H116634   3.692   7.072   4.990
 5559TIP3    H216635   3.547   7.045   5.026
 5560TIP3   OH216636   6.320   3.652   3.560
 5560TIP3    H116637   6.310   3.589   3.631
 5560TIP3    H216638   6.372   3.723   3.598
 5561TIP3   OH216639   0.329   3.333   6.004
 5561TIP3    H116640   0.247   3.310   5.960
 5561TIP3    H216641   0.321   3.428   6.019
 5562TIP3   OH216642   0.117   1.624   4.256
 5562TIP3    H116643   0.070   1.547   4.224
 5562TIP3    H216644   0.209   1.599   4.251
 5563TIP3   OH216645   5.925   0.878   3.929
 5563TIP3    H116646   5.864   0.814   3.891
 5563TIP3    H216647   5.986   0.825   3.980
 5564TIP3   OH216648   0.478   1.521   6.231
 5564TIP3    H116649   0.507   1.607   6.201
 5564TIP3    H216650   0.520   1.511   6.317
 5565TIP3   OH216651   1.835   4.838   3.716
 5565TIP3    H116652   1.789   4.754   3.711
 5565TIP3    H216653   1.816   4.881   3.633
 5566TIP3   OH216654   1.199   4.578   5.305
 5566TIP3    H116655   1.111   4.550   5.279
 5566TIP3    H216656   1.216   4.531   5.386
 5567TIP3   OH216657   5.849   5.361   4.081
 5567TIP3    H116658   5.786   5.322   4.142
 5567TIP3    H216659   5.796   5.418   4.025
 5568TIP3   OH216660   0.349   1.809   2.265
 5568TIP3    H116661   0.390   1.734   2.308
 5568TIP3    H216662   0.422   1.867   2.243
 5569TIP3   OH216663   1.928   1.516   4.607
 5569TIP3    H116664   2.005   1.461   4.622
 5569TIP3    H216665   1.918   1.516   4.512
 5570TIP3   OH216666   4.166   4.771   0.205
 5570TIP3    H116667   4.181   4.717   0.283
 5570TIP3    H216668   4.214   4.852   0.223
 5571TIP3   OH216669   8.008   5.376   5.804
 5571TIP3    H116670   8.059   5.402   5.727
 5571TIP3    H216671   8.039   5.434   5.874
 5572TIP3   OH216672   0.317   5.300   5.842
 5572TIP3    H116673   0.281   5.270   5.925
 5572TIP3    H216674   0.247   5.287   5.778
 5573TIP3   OH216675   3.712   1.465   0.400
 5573TIP3    H116676   3.616   1.471   0.399
 5573TIP3    H216677   3.732   1.424   0.484
 5574TIP3   OH216678   5.018   2.211   3.689
 5574TIP3    H116679   5.005   2.302   3.662
 5574TIP3    H216680   5.043   2.218   3.781
 5575TIP3   OH216681   3.080   5.385   5.179
 5575TIP3    H116682   3.052   5.322   5.245
 5575TIP3    H216683   3.001   5.404   5.129
 5576TIP3   OH216684   1.504   0.768   0.927
 5576TIP3    H116685   1.583   0.748   0.976
 5576TIP3    H216686   1.509   0.862   0.910
 5577TIP3   OH216687   0.092   0.597   0.302
 5577TIP3    H116688   0.019   0.660   0.310
 5577TIP3    H216689   0.118   0.580   0.393
 5578TIP3   OH216690   6.132   3.448   1.010
 5578TIP3    H116691   6.056   3.461   0.953
 5578TIP3    H216692   6.177   3.372   0.971
 5579TIP3   OH216693   5.399   1.766   3.399
 5579TIP3    H116694   5.422   1.766   3.492
 5579TIP3    H216695   5.480   1.791   3.354
 5580TIP3   OH216696   2.039   3.475   6.028
 5580TIP3    H116697   2.007   3.492   6.116
 5580TIP3    H216698   2.071   3.560   5.997
 5581TIP3   OH216699   3.131   1.056   1.962
 5581TIP3    H116700   3.179   0.973   1.957
 5581TIP3    H216701   3.189   1.115   2.010
 5582TIP3   OH216702   7.225   0.081   1.971
 5582TIP3    H116703   7.302   0.041   1.932
 5582TIP3    H216704   7.252   0.103   2.060
 5583TIP3   OH216705   3.309   5.293   1.082
 5583TIP3    H116706   3.281   5.355   1.149
 5583TIP3    H216707   3.383   5.336   1.040
 5584TIP3   OH216708   5.628   6.579   5.171
 5584TIP3    H116709   5.701   6.596   5.111
 5584TIP3    H216710   5.553   6.562   5.114
 5585TIP3   OH216711   4.655   2.532   1.716
 5585TIP3    H116712   4.579   2.508   1.769
 5585TIP3    H216713   4.619   2.551   1.630
 5586TIP3   OH216714   5.005   1.855   6.705
 5586TIP3    H116715   4.960   1.934   6.734
 5586TIP3    H216716   5.072   1.840   6.772
 5587TIP3   OH216717   6.237   2.180   5.611
 5587TIP3    H116718   6.231   2.103   5.555
 5587TIP3    H216719   6.212   2.253   5.553
 5588TIP3   OH216720   5.066   6.253   4.798
 5588TIP3    H116721   4.993   6.236   4.738
 5588TIP3    H216722   5.024   6.281   4.879
 5589TIP3   OH216723   1.188   6.029   4.855
 5589TIP3    H116724   1.202   6.012   4.948
 5589TIP3    H216725   1.130   6.105   4.853
 5590TIP3   OH216726   3.175   0.998   6.722
 5590TIP3    H116727   3.182   1.056   6.798
 5590TIP3    H216728   3.196   0.911   6.756
 5591TIP3   OH216729   5.441   3.192   2.243
 5591TIP3    H116730   5.525   3.218   2.206
 5591TIP3    H216731   5.386   3.175   2.167
 5592TIP3   OH216732   2.791   3.173   1.335
 5592TIP3    H116733   2.728   3.202   1.401
 5592TIP3    H216734   2.820   3.254   1.293
 5593TIP3   OH216735   1.880   6.035   5.073
 5593TIP3    H116736   1.901   5.983   5.150
 5593TIP3    H216737   1.937   6.001   5.005
 5594TIP3   OH216738   6.950   2.541   3.261
 5594TIP3    H116739   6.970   2.558   3.169
 5594TIP3    H216740   7.035   2.543   3.305
 5595TIP3   OH216741   7.699   0.917   1.911
 5595TIP3    H116742   7.656   0.908   1.826
 5595TIP3    H216743   7.793   0.910   1.891
 5596TIP3   OH216744   4.968   4.207   2.868
 5596TIP3    H116745   4.919   4.278   2.827
 5596TIP3    H216746   4.902   4.141   2.888
 5597TIP3   OH216747   6.032   0.572   3.586
 5597TIP3    H116748   6.075   0.563   3.671
 5597TIP3    H216749   6.007   0.664   3.582
 5598TIP3   OH216750   2.427   6.300   5.116
 5598TIP3    H116751   2.519   6.274   5.119
 5598TIP3    H216752   2.408   6.311   5.023
 5599TIP3   OH216753   1.323   6.213   5.493
 5599TIP3    H116754   1.290   6.124   5.487
 5599TIP3    H216755   1.268   6.263   5.432
 5600TIP3   OH216756   2.858   4.362   1.465
 5600TIP3    H116757   2.941   4.316   1.453
 5600TIP3    H216758   2.835   4.346   1.556
 5601TIP3   OH216759   5.453   1.074   6.549
 5601TIP3    H116760   5.549   1.078   6.554
 5601TIP3    H216761   5.427   1.018   6.622
 5602TIP3   OH216762   2.451   0.567   0.703
 5602TIP3    H116763   2.445   0.630   0.775
 5602TIP3    H216764   2.512   0.500   0.734
 5603TIP3   OH216765   3.493   2.394   0.911
 5603TIP3    H116766   3.479   2.319   0.854
 5603TIP3    H216767   3.582   2.385   0.942
 5604TIP3   OH216768   8.267   3.487   0.363
 5604TIP3    H116769   8.177   3.477   0.333
 5604TIP3    H216770   8.273   3.432   0.441
 5605TIP3   OH216771   5.005   0.764   5.475
 5605TIP3    H116772   4.972   0.729   5.557
 5605TIP3    H216773   4.969   0.852   5.470
 5606TIP3   OH216774   4.018   5.462   2.032
 5606TIP3    H116775   3.966   5.386   2.059
 5606TIP3    H216776   4.109   5.430   2.035
 5607TIP3   OH216777   1.635   0.429   0.741
 5607TIP3    H116778   1.630   0.384   0.825
 5607TIP3    H216779   1.704   0.383   0.693
 5608TIP3   OH216780   7.620   5.825   5.164
 5608TIP3    H116781   7.699   5.785   5.201
 5608TIP3    H216782   7.553   5.757   5.170
 5609TIP3   OH216783   0.670   6.806   5.285
 5609TIP3    H116784   0.748   6.774   5.240
 5609TIP3    H216785   0.602   6.805   5.217
 5610TIP3   OH216786   5.660   3.977   4.143
 5610TIP3    H116787   5.676   3.945   4.231
 5610TIP3    H216788   5.747   3.989   4.105
 5611TIP3   OH216789   2.457   4.977   6.177
 5611TIP3    H116790   2.425   4.899   6.133
 5611TIP3    H216791   2.443   5.048   6.114
 5612TIP3   OH216792   0.960   4.679   2.997
 5612TIP3    H116793   0.991   4.768   2.985
 5612TIP3    H216794   0.875   4.688   3.040
 5613TIP3   OH216795   7.600   3.683   5.298
 5613TIP3    H116796   7.526   3.737   5.271
 5613TIP3    H216797   7.571   3.642   5.380
 5614TIP3   OH216798   6.445   1.391   3.789
 5614TIP3    H116799   6.445   1.327   3.718
 5614TIP3    H216800   6.362   1.437   3.780
 5615TIP3   OH216801   7.319   1.041   1.864
 5615TIP3    H116802   7.234   1.080   1.843
 5615TIP3    H216803   7.381   1.114   1.858
 5616TIP3   OH216804   2.077   6.119   4.105
 5616TIP3    H116805   2.084   6.188   4.170
 5616TIP3    H216806   2.033   6.047   4.150
 5617TIP3   OH216807   4.432   7.087   4.719
 5617TIP3    H116808   4.382   7.036   4.782
 5617TIP3    H216809   4.432   7.176   4.753
 5618TIP3   OH216810   2.135   0.211   2.836
 5618TIP3    H116811   2.146   0.150   2.763
 5618TIP3    H216812   2.043   0.238   2.832
 5619TIP3   OH216813   6.351   2.297   2.062
 5619TIP3    H116814   6.391   2.359   2.123
 5619TIP3    H216815   6.322   2.350   1.988
 5620TIP3   OH216816   2.047   5.911   4.911
 5620TIP3    H116817   2.046   5.917   4.816
 5620TIP3    H216818   2.132   5.872   4.932
 5621TIP3   OH216819   2.700   3.568   3.697
 5621TIP3    H116820   2.763   3.611   3.755
 5621TIP3    H216821   2.748   3.494   3.660
 5622TIP3   OH216822   0.244   1.804   0.219
 5622TIP3    H116823   0.282   1.801   0.131
 5622TIP3    H216824   0.280   1.884   0.258
 5623TIP3   OH216825   0.992   0.352   2.336
 5623TIP3    H116826   0.904   0.389   2.332
 5623TIP3    H216827   1.048   0.425   2.364
 5624TIP3   OH216828   5.942   0.898   1.127
 5624TIP3    H116829   6.028   0.878   1.088
 5624TIP3    H216830   5.884   0.912   1.052
 5625TIP3   OH216831   0.923   7.706   5.860
 5625TIP3    H116832   0.949   7.614   5.862
 5625TIP3    H216833   0.837   7.706   5.817
 5626TIP3   OH216834   0.299   3.029   2.878
 5626TIP3    H116835   0.206   3.038   2.858
 5626TIP3    H216836   0.343   3.077   2.807
 5627TIP3   OH216837   6.927   6.654   4.674
 5627TIP3    H116838   7.016   6.684   4.653
 5627TIP3    H216839   6.870   6.726   4.646
 5628TIP3   OH216840   3.785   2.301   1.041
 5628TIP3    H116841   3.799   2.233   0.976
 5628TIP3    H216842   3.791   2.256   1.125
 5629TIP3   OH216843   2.010   6.200   3.303
 5629TIP3    H116844   2.096   6.177   3.339
 5629TIP3    H216845   2.025   6.280   3.253
 5630TIP3   OH216846   2.549   2.243   5.395
 5630TIP3    H116847   2.589   2.217   5.478
 5630TIP3    H216848   2.587   2.328   5.375
 5631TIP3   OH216849   6.724   4.334   5.790
 5631TIP3    H116850   6.664   4.321   5.717
 5631TIP3    H216851   6.747   4.427   5.786
 5632TIP3   OH216852   2.933   2.274   2.457
 5632TIP3    H116853   3.013   2.326   2.453
 5632TIP3    H216854   2.954   2.201   2.516
 5633TIP3   OH216855   2.707   7.154   3.401
 5633TIP3    H116856   2.802   7.166   3.396
 5633TIP3    H216857   2.671   7.220   3.341
 5634TIP3   OH216858   6.750   2.063   0.030
 5634TIP3    H116859   6.781   1.976   0.004
 5634TIP3    H216860   6.818   2.123  -0.001
 5635TIP3   OH216861   6.743   4.231   0.391
 5635TIP3    H116862   6.769   4.154   0.340
 5635TIP3    H216863   6.658   4.208   0.428
 5636TIP3   OH216864   4.444   1.317   1.957
 5636TIP3    H116865   4.430   1.308   1.863
 5636TIP3    H216866   4.367   1.364   1.989
 5637TIP3   OH216867   0.999   6.378   5.517
 5637TIP3    H116868   1.047   6.298   5.541
 5637TIP3    H216869   0.912   6.365   5.554
 5638TIP3   OH216870   6.694   1.647   4.658
 5638TIP3    H116871   6.671   1.717   4.719
 5638TIP3    H216872   6.702   1.691   4.574
 5639TIP3   OH216873   1.960   1.062   2.634
 5639TIP3    H116874   1.996   0.977   2.610
 5639TIP3    H216875   1.901   1.043   2.707
 5640TIP3   OH216876   3.369   2.399   5.933
 5640TIP3    H116877   3.383   2.484   5.975
 5640TIP3    H216878   3.435   2.342   5.973
 5641TIP3   OH216879   5.770   2.270   6.492
 5641TIP3    H116880   5.675   2.258   6.491
 5641TIP3    H216881   5.793   2.277   6.585
 5642TIP3   OH216882   6.424   7.583   2.628
 5642TIP3    H116883   6.493   7.516   2.629
 5642TIP3    H216884   6.385   7.576   2.541
 5643TIP3   OH216885   4.762   0.329   5.864
 5643TIP3    H116886   4.765   0.301   5.955
 5643TIP3    H216887   4.853   0.322   5.834
 5644TIP3   OH216888   5.188   2.750   2.462
 5644TIP3    H116889   5.151   2.682   2.519
 5644TIP3    H216890   5.256   2.704   2.412
 5645TIP3   OH216891   1.489   7.461   2.401
 5645TIP3    H116892   1.500   7.551   2.431
 5645TIP3    H216893   1.565   7.445   2.344
 5646TIP3   OH216894   4.925   0.482   3.661
 5646TIP3    H116895   4.950   0.540   3.590
 5646TIP3    H216896   4.994   0.493   3.726
 5647TIP3   OH216897   4.019   5.501   0.487
 5647TIP3    H116898   4.106   5.467   0.508
 5647TIP3    H216899   4.026   5.535   0.398
 5648TIP3   OH216900   7.613   0.403   4.199
 5648TIP3    H116901   7.662   0.431   4.276
 5648TIP3    H216902   7.611   0.480   4.142
 5649TIP3   OH216903   3.303   5.082   3.983
 5649TIP3    H116904   3.384   5.042   3.953
 5649TIP3    H216905   3.238   5.059   3.916
 5650TIP3   OH216906   0.174   5.430   0.077
 5650TIP3    H116907   0.167   5.440   0.172
 5650TIP3    H216908   0.265   5.405   0.062
 5651TIP3   OH216909   5.483   5.354   6.641
 5651TIP3    H116910   5.533   5.426   6.680
 5651TIP3    H216911   5.507   5.355   6.548
 5652TIP3   OH216912   6.524   5.042   1.221
 5652TIP3    H116913   6.444   4.990   1.225
 5652TIP3    H216914   6.582   5.003   1.286
 5653TIP3   OH216915   7.156   3.164   4.393
 5653TIP3    H116916   7.121   3.135   4.478
 5653TIP3    H216917   7.178   3.256   4.406
 5654TIP3   OH216918   0.084   2.459   4.309
 5654TIP3    H116919   0.133   2.393   4.359
 5654TIP3    H216920   0.001   2.467   4.356
 5655TIP3   OH216921   4.998   4.495   6.748
 5655TIP3    H116922   4.986   4.590   6.749
 5655TIP3    H216923   4.926   4.462   6.802
 5656TIP3   OH216924   7.684   5.025   5.560
 5656TIP3    H116925   7.754   5.065   5.510
 5656TIP3    H216926   7.640   4.966   5.498
 5657TIP3   OH216927   7.321   5.020   6.511
 5657TIP3    H116928   7.325   4.942   6.456
 5657TIP3    H216929   7.228   5.030   6.532
 5658TIP3   OH216930   4.201   6.218   0.481
 5658TIP3    H116931   4.159   6.132   0.483
 5658TIP3    H216932   4.213   6.236   0.388
 5659TIP3   OH216933   7.995   1.621   2.358
 5659TIP3    H116934   7.917   1.675   2.346
 5659TIP3    H216935   7.978   1.542   2.307
 5660TIP3   OH216936   0.366   2.246   0.810
 5660TIP3    H116937   0.313   2.325   0.809
 5660TIP3    H216938   0.391   2.236   0.902
 5661TIP3   OH216939   7.081   3.652   1.331
 5661TIP3    H116940   7.000   3.703   1.339
 5661TIP3    H216941   7.111   3.640   1.421
 5662TIP3   OH216942   1.278   3.468   3.214
 5662TIP3    H116943   1.355   3.522   3.227
 5662TIP3    H216944   1.309   3.378   3.222
 5663TIP3   OH216945   5.037   0.720   1.234
 5663TIP3    H116946   5.092   0.670   1.175
 5663TIP3    H216947   5.020   0.661   1.307
 5664TIP3   OH216948   8.240   3.011   5.401
 5664TIP3    H116949   8.199   3.057   5.328
 5664TIP3    H216950   8.261   3.080   5.464
 5665TIP3   OH216951   4.318   7.444   1.862
 5665TIP3    H116952   4.366   7.407   1.788
 5665TIP3    H216953   4.254   7.502   1.822
 5666TIP3   OH216954   2.827   4.853   1.071
 5666TIP3    H116955   2.873   4.822   1.150
 5666TIP3    H216956   2.734   4.844   1.092
 5667TIP3   OH216957   1.548   3.533   3.210
 5667TIP3    H116958   1.627   3.533   3.262
 5667TIP3    H216959   1.578   3.513   3.121
 5668TIP3   OH216960   1.670   6.345   6.492
 5668TIP3    H116961   1.593   6.388   6.455
 5668TIP3    H216962   1.646   6.253   6.497
 5669TIP3   OH216963   5.805   7.598   1.128
 5669TIP3    H116964   5.895   7.617   1.154
 5669TIP3    H216965   5.751   7.655   1.183
 5670TIP3   OH216966   0.056   3.361   4.432
 5670TIP3    H116967   0.064   3.439   4.487
 5670TIP3    H216968   0.137   3.358   4.382
 5671TIP3   OH216969   0.065   4.557   4.415
 5671TIP3    H116970   0.153   4.522   4.426
 5671TIP3    H216971   0.044   4.595   4.501
 5672TIP3   OH216972   7.295   3.225   5.026
 5672TIP3    H116973   7.364   3.191   5.082
 5672TIP3    H216974   7.332   3.306   4.990
 5673TIP3   OH216975   1.854   4.974   3.423
 5673TIP3    H116976   1.924   5.015   3.371
 5673TIP3    H216977   1.773   5.013   3.390
 5674TIP3   OH216978   5.360   4.626   2.996
 5674TIP3    H116979   5.434   4.571   3.022
 5674TIP3    H216980   5.294   4.611   3.063
 5675TIP3   OH216981   7.969   5.684   0.111
 5675TIP3    H116982   7.916   5.691   0.191
 5675TIP3    H216983   8.015   5.601   0.121
 5676TIP3   OH216984   6.767   4.867   0.106
 5676TIP3    H116985   6.839   4.869   0.170
 5676TIP3    H216986   6.693   4.906   0.153
 5677TIP3   OH216987   6.598   1.029   1.186
 5677TIP3    H116988   6.679   1.073   1.160
 5677TIP3    H216989   6.551   1.095   1.238
 5678TIP3   OH216990   3.833   4.061   1.030
 5678TIP3    H116991   3.844   3.968   1.014
 5678TIP3    H216992   3.893   4.103   0.968
 5679TIP3   OH216993   7.141   5.362   4.762
 5679TIP3    H116994   7.231   5.331   4.763
 5679TIP3    H216995   7.112   5.356   4.853
 5680TIP3   OH216996   5.330   3.680   2.673
 5680TIP3    H116997   5.352   3.611   2.610
 5680TIP3    H216998   5.285   3.747   2.621
 5681TIP3   OH216999   5.620   3.461   6.343
 5681TIP3    H117000   5.662   3.425   6.265
 5681TIP3    H217001   5.548   3.402   6.362
 5682TIP3   OH217002   1.340   1.492   5.590
 5682TIP3    H117003   1.339   1.463   5.499
 5682TIP3    H217004   1.430   1.522   5.605
 5683TIP3   OH217005   7.486   7.090   5.719
 5683TIP3    H117006   7.552   7.021   5.709
 5683TIP3    H217007   7.473   7.123   5.630
 5684TIP3   OH217008   6.462   2.234   4.888
 5684TIP3    H117009   6.395   2.212   4.824
 5684TIP3    H217010   6.517   2.299   4.843
 5685TIP3   OH217011   4.845   6.301   5.452
 5685TIP3    H117012   4.923   6.305   5.396
 5685TIP3    H217013   4.876   6.330   5.538
 5686TIP3   OH217014   6.289   0.354   4.810
 5686TIP3    H117015   6.199   0.361   4.779
 5686TIP3    H217016   6.336   0.306   4.742
 5687TIP3   OH217017   6.096   1.282   3.741
 5687TIP3    H117018   6.116   1.189   3.744
 5687TIP3    H217019   6.107   1.313   3.831
 5688TIP3   OH217020   6.037   6.043   2.769
 5688TIP3    H117021   5.989   5.999   2.840
 5688TIP3    H217022   5.969   6.075   2.710
 5689TIP3   OH217023   7.964   3.637   0.185
 5689TIP3    H117024   7.908   3.624   0.108
 5689TIP3    H217025   8.052   3.621   0.153
 5690TIP3   OH217026   5.121   2.651   0.375
 5690TIP3    H117027   5.161   2.592   0.311
 5690TIP3    H217028   5.155   2.623   0.460
 5691TIP3   OH217029   1.456   5.290   1.802
 5691TIP3    H117030   1.443   5.231   1.877
 5691TIP3    H217031   1.414   5.245   1.729
 5692TIP3   OH217032   1.550   1.966   2.249
 5692TIP3    H117033   1.498   2.013   2.313
 5692TIP3    H217034   1.596   1.898   2.300
 5693TIP3   OH217035   7.429   0.096   6.555
 5693TIP3    H117036   7.404   0.157   6.624
 5693TIP3    H217037   7.465   0.020   6.601
 5694TIP3   OH217038   1.810   0.553   1.506
 5694TIP3    H117039   1.762   0.636   1.500
 5694TIP3    H217040   1.902   0.578   1.499
 5695TIP3   OH217041   4.285   5.745   2.104
 5695TIP3    H117042   4.224   5.814   2.078
 5695TIP3    H217043   4.359   5.753   2.044
 5696TIP3   OH217044   1.243   6.513   5.135
 5696TIP3    H117045   1.313   6.578   5.145
 5696TIP3    H217046   1.247   6.489   5.042
 5697TIP3   OH217047   1.307   2.126   6.752
 5697TIP3    H117048   1.261   2.174   6.683
 5697TIP3    H217049   1.246   2.059   6.780
 5698TIP3   OH217050   6.974   7.769   3.143
 5698TIP3    H117051   7.008   7.765   3.053
 5698TIP3    H217052   7.035   7.716   3.194
 5699TIP3   OH217053   7.765   2.137   0.844
 5699TIP3    H117054   7.716   2.055   0.838
 5699TIP3    H217055   7.723   2.185   0.915
 5700TIP3   OH217056   2.491   3.376   2.652
 5700TIP3    H117057   2.520   3.367   2.742
 5700TIP3    H217058   2.419   3.439   2.656
 5701TIP3   OH217059   3.556   3.640   2.271
 5701TIP3    H117060   3.491   3.697   2.229
 5701TIP3    H217061   3.518   3.620   2.356
 5702TIP3   OH217062   1.467   6.952   1.954
 5702TIP3    H117063   1.542   6.916   1.907
 5702TIP3    H217064   1.402   6.881   1.953
 5703TIP3   OH217065   1.553   6.303   6.050
 5703TIP3    H117066   1.627   6.245   6.068
 5703TIP3    H217067   1.521   6.275   5.964
 5704TIP3   OH217068   1.195   7.271   6.531
 5704TIP3    H117069   1.115   7.322   6.528
 5704TIP3    H217070   1.166   7.180   6.521
 5705TIP3   OH217071   0.151   6.596   1.102
 5705TIP3    H117072   0.056   6.605   1.114
 5705TIP3    H217073   0.176   6.672   1.050
 5706TIP3   OH217074   2.698   4.198   0.228
 5706TIP3    H117075   2.608   4.193   0.260
 5706TIP3    H217076   2.751   4.206   0.307
 5707TIP3   OH217077   0.907   6.249   2.064
 5707TIP3    H117078   0.821   6.287   2.082
 5707TIP3    H217079   0.960   6.270   2.141
 5708TIP3   OH217080   4.222   0.633   2.755
 5708TIP3    H117081   4.316   0.646   2.742
 5708TIP3    H217082   4.197   0.569   2.689
 5709TIP3   OH217083   7.229   7.318   2.608
 5709TIP3    H117084   7.202   7.409   2.620
 5709TIP3    H217085   7.279   7.318   2.527
 5710TIP3   OH217086   7.845   6.168   1.936
 5710TIP3    H117087   7.764   6.118   1.936
 5710TIP3    H217088   7.891   6.141   1.856
 5711TIP3   OH217089   5.585   3.518   2.276
 5711TIP3    H117090   5.603   3.428   2.249
 5711TIP3    H217091   5.608   3.571   2.199
 5712TIP3   OH217092  -0.010   3.896   6.597
 5712TIP3    H117093   0.002   3.914   6.504
 5712TIP3    H217094   0.078   3.877   6.630
 5713TIP3   OH217095   5.121   7.743   0.676
 5713TIP3    H117096   5.103   7.831   0.708
 5713TIP3    H217097   5.166   7.700   0.749
 5714TIP3   OH217098   4.786   7.321   4.120
 5714TIP3    H117099   4.754   7.327   4.210
 5714TIP3    H217100   4.851   7.251   4.121
 5715TIP3   OH217101   7.949   5.398   1.318
 5715TIP3    H117102   7.945   5.302   1.327
 5715TIP3    H217103   7.912   5.415   1.231
 5716TIP3   OH217104   3.058   3.563   6.237
 5716TIP3    H117105   2.980   3.606   6.272
 5716TIP3    H217106   3.122   3.634   6.228
 5717TIP3   OH217107   4.969   1.642   1.841
 5717TIP3    H117108   4.959   1.605   1.753
 5717TIP3    H217109   5.063   1.640   1.858
 5718TIP3   OH217110   1.207   6.442   3.104
 5718TIP3    H117111   1.131   6.383   3.100
 5718TIP3    H217112   1.196   6.501   3.030
 5719TIP3   OH217113   6.042   2.274   1.473
 5719TIP3    H117114   5.956   2.269   1.513
 5719TIP3    H217115   6.027   2.312   1.386
 5720TIP3   OH217116   1.431   4.038   3.978
 5720TIP3    H117117   1.409   4.036   4.071
 5720TIP3    H217118   1.404   3.952   3.945
 5721TIP3   OH217119   1.753   3.289   3.869
 5721TIP3    H117120   1.800   3.206   3.885
 5721TIP3    H217121   1.676   3.284   3.926
 5722TIP3   OH217122   3.367   3.000   0.832
 5722TIP3    H117123   3.312   2.962   0.764
 5722TIP3    H217124   3.430   2.931   0.853
 5723TIP3   OH217125   6.131   7.199   5.368
 5723TIP3    H117126   6.100   7.122   5.320
 5723TIP3    H217127   6.055   7.227   5.418
 5724TIP3   OH217128   6.178   2.910   3.793
 5724TIP3    H117129   6.235   2.874   3.861
 5724TIP3    H217130   6.223   2.890   3.711
 5725TIP3   OH217131   3.077   3.857   6.601
 5725TIP3    H117132   3.062   3.951   6.608
 5725TIP3    H217133   3.065   3.824   6.690
 5726TIP3   OH217134   4.724   6.194   6.077
 5726TIP3    H117135   4.801   6.195   6.019
 5726TIP3    H217136   4.651   6.174   6.019
 5727TIP3   OH217137   5.714   1.356   6.333
 5727TIP3    H117138   5.648   1.290   6.315
 5727TIP3    H217139   5.668   1.440   6.320
 5728TIP3   OH217140   7.800   0.637   6.645
 5728TIP3    H117141   7.810   0.575   6.573
 5728TIP3    H217142   7.842   0.595   6.720
 5729TIP3   OH217143   2.132   6.985   5.151
 5729TIP3    H117144   2.124   6.942   5.236
 5729TIP3    H217145   2.093   6.924   5.089
 5730TIP3   OH217146   4.262   4.190   4.837
 5730TIP3    H117147   4.222   4.178   4.750
 5730TIP3    H217148   4.349   4.225   4.818
 5731TIP3   OH217149   7.999   5.392   2.705
 5731TIP3    H117150   7.986   5.302   2.673
 5731TIP3    H217151   7.927   5.407   2.765
 5732TIP3   OH217152   5.783   0.691   2.806
 5732TIP3    H117153   5.810   0.673   2.897
 5732TIP3    H217154   5.743   0.609   2.777
 5733TIP3   OH217155   4.861   3.528   1.593
 5733TIP3    H117156   4.829   3.605   1.641
 5733TIP3    H217157   4.848   3.550   1.501
 5734TIP3   OH217158   7.968   0.930   1.774
 5734TIP3    H117159   7.928   1.016   1.763
 5734TIP3    H217160   7.964   0.890   1.687
 5735TIP3   OH217161   0.496   0.571   2.031
 5735TIP3    H117162   0.427   0.505   2.019
 5735TIP3    H217163   0.467   0.646   1.979
 5736TIP3   OH217164   4.375   1.771   6.655
 5736TIP3    H117165   4.415   1.735   6.576
 5736TIP3    H217166   4.427   1.849   6.675
 5737TIP3   OH217167   1.936   5.975   6.464
 5737TIP3    H117168   1.946   6.020   6.381
 5737TIP3    H217169   2.025   5.969   6.499
 5738TIP3   OH217170   1.683   2.310   3.717
 5738TIP3    H117171   1.641   2.253   3.782
 5738TIP3    H217172   1.634   2.294   3.636
 5739TIP3   OH217173   0.076   5.711   2.541
 5739TIP3    H117174   0.160   5.732   2.500
 5739TIP3    H217175   0.086   5.621   2.573
 5740TIP3   OH217176   3.573   1.040   1.850
 5740TIP3    H117177   3.504   1.009   1.791
 5740TIP3    H217178   3.551   1.001   1.935
 5741TIP3   OH217179   1.218   6.027   5.130
 5741TIP3    H117180   1.183   6.112   5.157
 5741TIP3    H217181   1.313   6.035   5.144
 5742TIP3   OH217182   4.027   1.715   0.335
 5742TIP3    H117183   3.989   1.796   0.300
 5742TIP3    H217184   4.102   1.698   0.277
 5743TIP3   OH217185   1.406   3.434   3.589
 5743TIP3    H117186   1.437   3.378   3.518
 5743TIP3    H217187   1.424   3.384   3.669
 5744TIP3   OH217188   4.513   5.629   3.701
 5744TIP3    H117189   4.545   5.625   3.611
 5744TIP3    H217190   4.590   5.655   3.752
 5745TIP3   OH217191   8.330   7.545   2.118
 5745TIP3    H117192   8.276   7.491   2.175
 5745TIP3    H217193   8.296   7.634   2.129
 5746TIP3   OH217194   6.104   3.048   1.908
 5746TIP3    H117195   6.025   3.018   1.862
 5746TIP3    H217196   6.124   3.133   1.869
 5747TIP3   OH217197   1.812   6.283   1.440
 5747TIP3    H117198   1.855   6.368   1.439
 5747TIP3    H217199   1.794   6.265   1.348
 5748TIP3   OH217200   4.699   2.199   1.702
 5748TIP3    H117201   4.780   2.248   1.718
 5748TIP3    H217202   4.683   2.152   1.784
 5749TIP3   OH217203   1.190   3.255   2.861
 5749TIP3    H117204   1.245   3.327   2.830
 5749TIP3    H217205   1.107   3.297   2.886
 5750TIP3   OH217206   4.116   3.051   2.197
 5750TIP3    H117207   4.181   2.982   2.205
 5750TIP3    H217208   4.129   3.087   2.110
 5751TIP3   OH217209   1.889   3.825   3.542
 5751TIP3    H117210   1.808   3.858   3.504
 5751TIP3    H217211   1.889   3.860   3.631
 5752TIP3   OH217212   0.115   0.493   6.375
 5752TIP3    H117213   0.147   0.583   6.369
 5752TIP3    H217214   0.021   0.502   6.395
 5753TIP3   OH217215   6.555   1.762   4.061
 5753TIP3    H117216   6.605   1.749   4.142
 5753TIP3    H217217   6.522   1.676   4.038
 5754TIP3   OH217218   3.566   6.222   0.568
 5754TIP3    H117219   3.556   6.129   0.550
 5754TIP3    H217220   3.527   6.234   0.655
 5755TIP3   OH217221   7.127   2.781   1.786
 5755TIP3    H117222   7.147   2.868   1.819
 5755TIP3    H217223   7.050   2.792   1.731
 5756TIP3   OH217224   4.897   6.089   1.590
 5756TIP3    H117225   4.833   6.136   1.644
 5756TIP3    H217226   4.882   6.122   1.501
 5757TIP3   OH217227   5.484   5.302   5.622
 5757TIP3    H117228   5.492   5.253   5.704
 5757TIP3    H217229   5.465   5.236   5.557
 5758TIP3   OH217230   6.654   3.960   3.832
 5758TIP3    H117231   6.735   3.990   3.793
 5758TIP3    H217232   6.634   4.026   3.899
 5759TIP3   OH217233   2.625   6.962   0.377
 5759TIP3    H117234   2.713   6.978   0.344
 5759TIP3    H217235   2.573   7.034   0.343
 5760TIP3   OH217236   5.327   2.510   6.665
 5760TIP3    H117237   5.356   2.600   6.678
 5760TIP3    H217238   5.383   2.458   6.722
 5761TIP3   OH217239   1.201   6.450   0.133
 5761TIP3    H117240   1.277   6.474   0.080
 5761TIP3    H217241   1.166   6.372   0.091
 5762TIP3   OH217242   1.539   1.452   1.572
 5762TIP3    H117243   1.474   1.485   1.509
 5762TIP3    H217244   1.621   1.492   1.545
 5763TIP3   OH217245   3.324   6.173   4.591
 5763TIP3    H117246   3.230   6.183   4.576
 5763TIP3    H217247   3.330   6.108   4.661
 5764TIP3   OH217248   2.327   6.226   3.269
 5764TIP3    H117249   2.339   6.189   3.357
 5764TIP3    H217250   2.305   6.152   3.214
 5765TIP3   OH217251   3.065   6.898   3.021
 5765TIP3    H117252   3.132   6.829   3.018
 5765TIP3    H217253   3.005   6.877   2.950
 5766TIP3   OH217254   7.367   1.255   2.551
 5766TIP3    H117255   7.424   1.315   2.601
 5766TIP3    H217256   7.317   1.208   2.617
 5767TIP3   OH217257   1.545   4.221   3.357
 5767TIP3    H117258   1.578   4.135   3.384
 5767TIP3    H217259   1.450   4.210   3.351
 5768TIP3   OH217260   5.840   3.932   3.247
 5768TIP3    H117261   5.790   3.899   3.322
 5768TIP3    H217262   5.926   3.891   3.255
 5769TIP3   OH217263   5.160   4.564   0.564
 5769TIP3    H117264   5.079   4.513   0.555
 5769TIP3    H217265   5.229   4.501   0.543
 5770TIP3   OH217266   3.636   0.879   2.535
 5770TIP3    H117267   3.698   0.819   2.577
 5770TIP3    H217268   3.596   0.826   2.466
 5771TIP3   OH217269   7.510   1.276   3.981
 5771TIP3    H117270   7.433   1.254   3.929
 5771TIP3    H217271   7.583   1.267   3.920
 5772TIP3   OH217272   4.305   5.384   3.462
 5772TIP3    H117273   4.285   5.293   3.487
 5772TIP3    H217274   4.265   5.394   3.376
 5773TIP3   OH217275   0.328   3.456   5.010
 5773TIP3    H117276   0.300   3.512   4.938
 5773TIP3    H217277   0.281   3.374   4.996
 5774TIP3   OH217278   7.029   1.539   1.962
 5774TIP3    H117279   7.089   1.509   2.030
 5774TIP3    H217280   6.943   1.505   1.988
 5775TIP3   OH217281   1.986   5.536   6.245
 5775TIP3    H117282   1.960   5.619   6.286
 5775TIP3    H217283   2.079   5.527   6.266
 5776TIP3   OH217284   0.293   2.800   0.507
 5776TIP3    H117285   0.215   2.854   0.508
 5776TIP3    H217286   0.350   2.837   0.574
 5777TIP3   OH217287   7.831   3.437   1.931
 5777TIP3    H117288   7.817   3.392   1.848
 5777TIP3    H217289   7.857   3.526   1.906
 5778TIP3   OH217290   3.252   3.537   3.506
 5778TIP3    H117291   3.188   3.599   3.541
 5778TIP3    H217292   3.201   3.479   3.449
 5779TIP3   OH217293   2.908   4.847   3.977
 5779TIP3    H117294   2.991   4.882   4.010
 5779TIP3    H217295   2.862   4.818   4.056
 5780TIP3   OH217296   6.141   2.616   1.414
 5780TIP3    H117297   6.147   2.639   1.321
 5780TIP3    H217298   6.190   2.685   1.459
 5781TIP3   OH217299   0.255   1.130   5.972
 5781TIP3    H117300   0.273   1.073   6.047
 5781TIP3    H217301   0.332   1.187   5.967
 5782TIP3   OH217302   3.257   1.518   5.209
 5782TIP3    H117303   3.307   1.564   5.276
 5782TIP3    H217304   3.199   1.585   5.172
 5783TIP3   OH217305   7.089   7.333   3.872
 5783TIP3    H117306   7.030   7.330   3.796
 5783TIP3    H217307   7.154   7.399   3.850
 5784TIP3   OH217308   2.325   0.209   4.188
 5784TIP3    H117309   2.251   0.173   4.236
 5784TIP3    H217310   2.373   0.262   4.251
 5785TIP3   OH217311   3.171   5.903   5.474
 5785TIP3    H117312   3.139   5.918   5.563
 5785TIP3    H217313   3.257   5.945   5.472
 5786TIP3   OH217314   8.292   3.918   6.312
 5786TIP3    H117315   8.314   3.947   6.224
 5786TIP3    H217316   8.258   3.829   6.301
 5787TIP3   OH217317   3.936   0.340   1.840
 5787TIP3    H117318   3.937   0.254   1.882
 5787TIP3    H217319   3.849   0.347   1.801
 5788TIP3   OH217320   0.609   4.249   0.270
 5788TIP3    H117321   0.564   4.165   0.269
 5788TIP3    H217322   0.662   4.249   0.190
 5789TIP3   OH217323   6.233   7.492   5.368
 5789TIP3    H117324   6.281   7.421   5.326
 5789TIP3    H217325   6.285   7.514   5.445
 5790TIP3   OH217326   4.112   1.637   4.371
 5790TIP3    H117327   4.072   1.580   4.436
 5790TIP3    H217328   4.147   1.711   4.421
 5791TIP3   OH217329   1.426   5.301   4.990
 5791TIP3    H117330   1.517   5.300   4.961
 5791TIP3    H217331   1.385   5.230   4.941
 5792TIP3   OH217332   0.150   2.278   3.948
 5792TIP3    H117333   0.062   2.284   3.986
 5792TIP3    H217334   0.154   2.351   3.886
 5793TIP3   OH217335   8.129   1.883   3.710
 5793TIP3    H117336   8.074   1.865   3.787
 5793TIP3    H217337   8.131   1.978   3.703
 5794TIP3   OH217338   0.311   4.944   1.906
 5794TIP3    H117339   0.245   5.013   1.907
 5794TIP3    H217340   0.375   4.970   1.973
 5795TIP3   OH217341   2.967   5.995   6.675
 5795TIP3    H117342   2.946   5.902   6.677
 5795TIP3    H217343   3.052   6.001   6.719
 5796TIP3   OH217344   0.410   7.627   6.226
 5796TIP3    H117345   0.426   7.710   6.181
 5796TIP3    H217346   0.333   7.591   6.183
 5797TIP3   OH217347   2.720   1.405   4.762
 5797TIP3    H117348   2.664   1.345   4.810
 5797TIP3    H217349   2.745   1.356   4.683
 5798TIP3   OH217350   0.822   0.742   2.343
 5798TIP3    H117351   0.804   0.836   2.349
 5798TIP3    H217352   0.798   0.720   2.253
 5799TIP3   OH217353   8.223   6.618   3.921
 5799TIP3    H117354   8.174   6.544   3.886
 5799TIP3    H217355   8.279   6.647   3.849
 5800TIP3   OH217356   3.605   1.454   5.900
 5800TIP3    H117357   3.540   1.399   5.944
 5800TIP3    H217358   3.677   1.461   5.963
 5801TIP3   OH217359   3.464   3.224   4.299
 5801TIP3    H117360   3.473   3.164   4.374
 5801TIP3    H217361   3.530   3.292   4.315
 5802TIP3   OH217362   2.356   6.831   0.865
 5802TIP3    H117363   2.403   6.911   0.841
 5802TIP3    H217364   2.340   6.786   0.782
 5803TIP3   OH217365   6.575   4.557   4.326
 5803TIP3    H117366   6.652   4.593   4.283
 5803TIP3    H217367   6.544   4.488   4.267
 5804TIP3   OH217368   2.273   1.907   5.743
 5804TIP3    H117369   2.218   1.911   5.665
 5804TIP3    H217370   2.213   1.924   5.816
 5805TIP3   OH217371   7.264   1.043   0.822
 5805TIP3    H117372   7.318   0.997   0.759
 5805TIP3    H217373   7.256   0.984   0.896
 5806TIP3   OH217374   0.086   5.458   0.341
 5806TIP3    H117375  -0.005   5.482   0.358
 5806TIP3    H217376   0.133   5.484   0.420
 5807TIP3   OH217377   5.998   6.741   1.966
 5807TIP3    H117378   5.987   6.662   2.018
 5807TIP3    H217379   6.086   6.772   1.987
 5808TIP3   OH217380   5.287   7.036   4.932
 5808TIP3    H117381   5.270   6.959   4.877
 5808TIP3    H217382   5.234   7.021   5.011
 5809TIP3   OH217383   8.134   0.080   6.622
 5809TIP3    H117384   8.058   0.110   6.573
 5809TIP3    H217385   8.097   0.024   6.691
 5810TIP3   OH217386   2.568   2.479   3.194
 5810TIP3    H117387   2.515   2.405   3.165
 5810TIP3    H217388   2.620   2.502   3.118
 5811TIP3   OH217389   3.694   3.721   4.613
 5811TIP3    H117390   3.771   3.672   4.583
 5811TIP3    H217391   3.619   3.671   4.580
 5812TIP3   OH217392   6.352   5.632   1.614
 5812TIP3    H117393   6.320   5.682   1.539
 5812TIP3    H217394   6.307   5.670   1.690
 5813TIP3   OH217395   4.759   7.718   4.708
 5813TIP3    H117396   4.787   7.725   4.616
 5813TIP3    H217397   4.791   7.799   4.748
 5814TIP3   OH217398   1.790   4.429   1.460
 5814TIP3    H117399   1.766   4.490   1.390
 5814TIP3    H217400   1.877   4.397   1.435
 5815TIP3   OH217401   4.916   2.188   0.021
 5815TIP3    H117402   4.885   2.263   0.071
 5815TIP3    H217403   4.929   2.221  -0.068
 5816TIP3   OH217404   7.314   3.707   4.477
 5816TIP3    H117405   7.338   3.669   4.392
 5816TIP3    H217406   7.221   3.726   4.470
 5817TIP3   OH217407   2.726   4.911   0.827
 5817TIP3    H117408   2.761   4.892   0.914
 5817TIP3    H217409   2.791   4.968   0.787
 5818TIP3   OH217410   3.220   3.071   5.759
 5818TIP3    H117411   3.315   3.066   5.749
 5818TIP3    H217412   3.204   3.048   5.851
 5819TIP3   OH217413   6.697   4.445   2.917
 5819TIP3    H117414   6.790   4.463   2.929
 5819TIP3    H217415   6.664   4.522   2.870
 5820TIP3   OH217416   4.169   5.966   0.362
 5820TIP3    H117417   4.191   5.894   0.421
 5820TIP3    H217418   4.225   5.951   0.285
 5821TIP3   OH217419   6.172   6.902   4.271
 5821TIP3    H117420   6.121   6.980   4.292
 5821TIP3    H217421   6.125   6.862   4.198
 5822TIP3   OH217422   6.996   7.176   2.622
 5822TIP3    H117423   7.075   7.221   2.591
 5822TIP3    H217424   6.953   7.240   2.679
 5823TIP3   OH217425   0.427   2.314   1.091
 5823TIP3    H117426   0.371   2.391   1.085
 5823TIP3    H217427   0.507   2.346   1.135
 5824TIP3   OH217428   2.476   6.311   1.467
 5824TIP3    H117429   2.517   6.352   1.544
 5824TIP3    H217430   2.419   6.379   1.432
 5825TIP3   OH217431   1.422   5.009   2.842
 5825TIP3    H117432   1.343   4.957   2.825
 5825TIP3    H217433   1.477   4.994   2.765
 5826TIP3   OH217434   2.779   5.349   0.450
 5826TIP3    H117435   2.718   5.311   0.512
 5826TIP3    H217436   2.830   5.275   0.418
 5827TIP3   OH217437   7.304   4.849   3.409
 5827TIP3    H117438   7.222   4.876   3.452
 5827TIP3    H217439   7.276   4.814   3.325
 5828TIP3   OH217440   7.291   1.512   3.286
 5828TIP3    H117441   7.203   1.488   3.256
 5828TIP3    H217442   7.350   1.472   3.222
 5829TIP3   OH217443   5.704   5.831   4.939
 5829TIP3    H117444   5.631   5.770   4.945
 5829TIP3    H217445   5.673   5.900   4.879
 5830TIP3   OH217446   1.794   2.566   3.825
 5830TIP3    H117447   1.887   2.546   3.833
 5830TIP3    H217448   1.756   2.488   3.784
 5831TIP3   OH217449   6.677   6.638   4.325
 5831TIP3    H117450   6.727   6.608   4.249
 5831TIP3    H217451   6.605   6.688   4.288
 5832TIP3   OH217452   4.914   4.069   5.324
 5832TIP3    H117453   4.880   3.983   5.302
 5832TIP3    H217454   4.953   4.101   5.243
 5833TIP3   OH217455   2.367   1.177   1.872
 5833TIP3    H117456   2.444   1.139   1.830
 5833TIP3    H217457   2.374   1.271   1.854
 5834TIP3   OH217458   1.687   0.883   3.323
 5834TIP3    H117459   1.593   0.875   3.307
 5834TIP3    H217460   1.723   0.798   3.299
 5835TIP3   OH217461   3.407   2.336   0.011
 5835TIP3    H117462   3.351   2.266   0.045
 5835TIP3    H217463   3.387   2.412   0.066
 5836TIP3   OH217464   3.783   1.673   2.670
 5836TIP3    H117465   3.792   1.633   2.757
 5836TIP3    H217466   3.756   1.601   2.613
 5837TIP3   OH217467   6.812   4.742   5.667
 5837TIP3    H117468   6.752   4.746   5.593
 5837TIP3    H217469   6.854   4.656   5.660
 5838TIP3   OH217470   4.008   0.263   5.669
 5838TIP3    H117471   4.091   0.233   5.705
 5838TIP3    H217472   3.978   0.330   5.730
 5839TIP3   OH217473   2.921   6.712   6.035
 5839TIP3    H117474   2.976   6.717   5.957
 5839TIP3    H217475   2.952   6.784   6.091
 5840TIP3   OH217476   4.091   6.737   3.305
 5840TIP3    H117477   4.013   6.787   3.330
 5840TIP3    H217478   4.127   6.785   3.230
 5841TIP3   OH217479   5.724   5.644   4.172
 5841TIP3    H117480   5.666   5.642   4.095
 5841TIP3    H217481   5.765   5.730   4.169
 5842TIP3   OH217482   7.118   6.258   5.342
 5842TIP3    H117483   7.072   6.226   5.419
 5842TIP3    H217484   7.205   6.284   5.375
 5843TIP3   OH217485   0.233   3.861   6.095
 5843TIP3    H117486   0.257   3.901   6.179
 5843TIP3    H217487   0.179   3.928   6.051
 5844TIP3   OH217488   8.000   3.323   0.878
 5844TIP3    H117489   8.036   3.245   0.922
 5844TIP3    H217490   7.917   3.293   0.841
 5845TIP3   OH217491   0.346   0.218   1.974
 5845TIP3    H117492   0.387   0.179   2.051
 5845TIP3    H217493   0.396   0.182   1.900
 5846TIP3   OH217494   3.608   3.656   2.606
 5846TIP3    H117495   3.563   3.573   2.618
 5846TIP3    H217496   3.695   3.643   2.644
 5847TIP3   OH217497   1.979   6.709   1.415
 5847TIP3    H117498   2.011   6.761   1.489
 5847TIP3    H217499   1.962   6.774   1.346
 5848TIP3   OH217500   6.952   6.210   5.733
 5848TIP3    H117501   6.918   6.230   5.820
 5848TIP3    H217502   6.978   6.295   5.697
 5849TIP3   OH217503   0.383   1.690   3.504
 5849TIP3    H117504   0.396   1.692   3.599
 5849TIP3    H217505   0.433   1.614   3.475
 5850TIP3   OH217506   2.362   5.212   4.950
 5850TIP3    H117507   2.377   5.136   4.894
 5850TIP3    H217508   2.358   5.286   4.889
 5851TIP3   OH217509   4.667   3.895   3.318
 5851TIP3    H117510   4.716   3.823   3.358
 5851TIP3    H217511   4.682   3.884   3.224
 5852TIP3   OH217512   3.027   6.248   4.278
 5852TIP3    H117513   2.978   6.319   4.237
 5852TIP3    H217514   3.102   6.233   4.219
 5853TIP3   OH217515   7.205   7.478   3.558
 5853TIP3    H117516   7.168   7.565   3.572
 5853TIP3    H217517   7.283   7.476   3.614
 5854TIP3   OH217518   8.167   4.192   4.495
 5854TIP3    H117519   8.115   4.229   4.567
 5854TIP3    H217520   8.182   4.265   4.436
 5855TIP3   OH217521   6.720   2.786   2.932
 5855TIP3    H117522   6.789   2.727   2.962
 5855TIP3    H217523   6.707   2.763   2.840
 5856TIP3   OH217524   4.692   3.283   6.713
 5856TIP3    H117525   4.782   3.295   6.745
 5856TIP3    H217526   4.661   3.372   6.696
 5857TIP3   OH217527   4.716   0.650   2.341
 5857TIP3    H117528   4.697   0.683   2.429
 5857TIP3    H217529   4.811   0.636   2.341
 5858TIP3   OH217530   6.102   6.449   4.480
 5858TIP3    H117531   6.171   6.382   4.482
 5858TIP3    H217532   6.024   6.405   4.514
 5859TIP3   OH217533   6.225   4.095   2.356
 5859TIP3    H117534   6.148   4.093   2.300
 5859TIP3    H217535   6.247   4.188   2.363
 5860TIP3   OH217536   2.309   5.444   2.203
 5860TIP3    H117537   2.386   5.412   2.156
 5860TIP3    H217538   2.340   5.459   2.293
 5861TIP3   OH217539   4.491   5.835   0.457
 5861TIP3    H117540   4.519   5.925   0.441
 5861TIP3    H217541   4.434   5.814   0.383
 5862TIP3   OH217542   3.742   7.622   2.041
 5862TIP3    H117543   3.667   7.576   2.004
 5862TIP3    H217544   3.704   7.699   2.085
 5863TIP3   OH217545   7.838   7.066   1.897
 5863TIP3    H117546   7.848   7.134   1.963
 5863TIP3    H217547   7.778   7.102   1.832
 5864TIP3   OH217548   7.484   2.992   6.124
 5864TIP3    H117549   7.466   3.064   6.184
 5864TIP3    H217550   7.439   2.917   6.162
 5865TIP3   OH217551   6.191   0.119   0.116
 5865TIP3    H117552   6.237   0.181   0.059
 5865TIP3    H217553   6.127   0.173   0.163
 5866TIP3   OH217554   0.422   4.627   1.101
 5866TIP3    H117555   0.328   4.623   1.083
 5866TIP3    H217556   0.431   4.587   1.187
 5867TIP3   OH217557   5.581   6.920   6.168
 5867TIP3    H117558   5.639   6.938   6.242
 5867TIP3    H217559   5.547   6.833   6.185
 5868TIP3   OH217560   5.508   7.220   1.006
 5868TIP3    H117561   5.502   7.140   0.953
 5868TIP3    H217562   5.599   7.221   1.037
 5869TIP3   OH217563   3.392   7.702   6.650
 5869TIP3    H117564   3.400   7.693   6.555
 5869TIP3    H217565   3.307   7.743   6.664
 5870TIP3   OH217566   6.787   6.466   4.504
 5870TIP3    H117567   6.823   6.547   4.540
 5870TIP3    H217568   6.711   6.493   4.453
 5871TIP3   OH217569   7.741   5.095   3.665
 5871TIP3    H117570   7.694   5.143   3.733
 5871TIP3    H217571   7.813   5.052   3.712
 5872TIP3   OH217572   4.262   3.229   4.454
 5872TIP3    H117573   4.192   3.291   4.436
 5872TIP3    H217574   4.233   3.148   4.412
 5873TIP3   OH217575   1.142   3.695   3.767
 5873TIP3    H117576   1.088   3.617   3.754
 5873TIP3    H217577   1.208   3.690   3.698
 5874TIP3   OH217578   7.355   0.205   2.463
 5874TIP3    H117579   7.273   0.244   2.494
 5874TIP3    H217580   7.418   0.225   2.532
 5875TIP3   OH217581   6.751   3.560   3.647
 5875TIP3    H117582   6.707   3.610   3.716
 5875TIP3    H217583   6.808   3.624   3.604
 5876TIP3   OH217584   1.165   5.519   4.345
 5876TIP3    H117585   1.150   5.501   4.437
 5876TIP3    H217586   1.139   5.611   4.333
 5877TIP3   OH217587   2.838   6.618   5.125
 5877TIP3    H117588   2.785   6.653   5.053
 5877TIP3    H217589   2.889   6.548   5.085
 5878TIP3   OH217590   1.374   4.083   4.584
 5878TIP3    H117591   1.403   4.132   4.507
 5878TIP3    H217592   1.356   4.150   4.650
 5879TIP3   OH217593   3.859   0.207   1.399
 5879TIP3    H117594   3.910   0.169   1.470
 5879TIP3    H217595   3.918   0.270   1.358
 5880TIP3   OH217596   0.041   4.683   3.352
 5880TIP3    H117597   0.031   4.591   3.331
 5880TIP3    H217598   0.104   4.717   3.289
 5881TIP3   OH217599   2.765   3.716   4.894
 5881TIP3    H117600   2.684   3.695   4.847
 5881TIP3    H217601   2.737   3.772   4.967
 5882TIP3   OH217602   4.269   1.153   4.503
 5882TIP3    H117603   4.229   1.152   4.590
 5882TIP3    H217604   4.240   1.071   4.462
 5883TIP3   OH217605   6.983   5.249   3.333
 5883TIP3    H117606   7.072   5.267   3.362
 5883TIP3    H217607   6.937   5.332   3.342
 5884TIP3   OH217608   4.054   0.400   2.554
 5884TIP3    H117609   3.998   0.331   2.518
 5884TIP3    H217610   4.027   0.407   2.646
 5885TIP3   OH217611   2.259   7.580   0.496
 5885TIP3    H117612   2.180   7.552   0.450
 5885TIP3    H217613   2.228   7.610   0.581
 5886TIP3   OH217614   2.618   5.845   3.606
 5886TIP3    H117615   2.661   5.928   3.588
 5886TIP3    H217616   2.689   5.782   3.612
 5887TIP3   OH217617   3.150   2.560   3.096
 5887TIP3    H117618   3.075   2.516   3.135
 5887TIP3    H217619   3.160   2.641   3.147
 5888TIP3   OH217620   5.054   0.258   3.949
 5888TIP3    H117621   5.029   0.344   3.915
 5888TIP3    H217622   5.105   0.219   3.878
 5889TIP3   OH217623   4.469   7.054   3.919
 5889TIP3    H117624   4.450   6.963   3.896
 5889TIP3    H217625   4.557   7.070   3.884
 5890TIP3   OH217626   2.265   6.268   6.301
 5890TIP3    H117627   2.237   6.355   6.273
 5890TIP3    H217628   2.258   6.214   6.221
 5891TIP3   OH217629   2.798   4.640   4.997
 5891TIP3    H117630   2.797   4.571   4.932
 5891TIP3    H217631   2.749   4.604   5.071
 5892TIP3   OH217632   2.250   3.708   5.489
 5892TIP3    H117633   2.211   3.673   5.409
 5892TIP3    H217634   2.239   3.803   5.482
 5893TIP3   OH217635   6.072   0.523   2.041
 5893TIP3    H117636   6.158   0.495   2.072
 5893TIP3    H217637   6.085   0.543   1.949
 5894TIP3   OH217638   2.896   4.124   3.630
 5894TIP3    H117639   2.887   4.205   3.582
 5894TIP3    H217640   2.907   4.057   3.563
 5895TIP3   OH217641   3.590   0.074   0.442
 5895TIP3    H117642   3.585   0.153   0.387
 5895TIP3    H217643   3.683   0.062   0.457
 5896TIP3   OH217644   4.026   5.432   4.388
 5896TIP3    H117645   4.067   5.380   4.318
 5896TIP3    H217646   4.016   5.371   4.461
 5897TIP3   OH217647   2.155   4.993   0.604
 5897TIP3    H117648   2.238   5.026   0.639
 5897TIP3    H217649   2.161   4.898   0.616
 5898TIP3   OH217650   1.034   4.237   5.244
 5898TIP3    H117651   1.030   4.187   5.163
 5898TIP3    H217652   1.105   4.196   5.294
 5899TIP3   OH217653   8.050   0.031   3.242
 5899TIP3    H117654   8.020  -0.009   3.324
 5899TIP3    H217655   8.049  -0.041   3.178
 5900TIP3   OH217656   5.517   4.832   2.388
 5900TIP3    H117657   5.531   4.889   2.463
 5900TIP3    H217658   5.426   4.802   2.398
 5901TIP3   OH217659   6.520   2.795   5.208
 5901TIP3    H117660   6.457   2.866   5.222
 5901TIP3    H217661   6.480   2.740   5.140
 5902TIP3   OH217662   4.889   1.702   6.524
 5902TIP3    H117663   4.938   1.744   6.595
 5902TIP3    H217664   4.864   1.773   6.466
 5903TIP3   OH217665   7.475   5.439   3.050
 5903TIP3    H117666   7.388   5.400   3.065
 5903TIP3    H217667   7.456   5.525   3.013
 5904TIP3   OH217668   7.261   7.350   2.029
 5904TIP3    H117669   7.343   7.303   2.018
 5904TIP3    H217670   7.215   7.339   1.946
 5905TIP3   OH217671   6.288   0.466   5.754
 5905TIP3    H117672   6.351   0.524   5.796
 5905TIP3    H217673   6.258   0.408   5.824
 5906TIP3   OH217674   4.050   1.474   3.798
 5906TIP3    H117675   4.048   1.478   3.703
 5906TIP3    H217676   4.023   1.562   3.826
 5907TIP3   OH217677   1.550   1.769   1.044
 5907TIP3    H117678   1.534   1.675   1.034
 5907TIP3    H217679   1.526   1.807   0.959
 5908TIP3   OH217680   5.657   0.261   6.471
 5908TIP3    H117681   5.608   0.199   6.416
 5908TIP3    H217682   5.607   0.265   6.552
 5909TIP3   OH217683   5.405   0.945   2.570
 5909TIP3    H117684   5.434   0.870   2.621
 5909TIP3    H217685   5.482   0.973   2.521
 5910TIP3   OH217686   0.085   3.699   4.359
 5910TIP3    H117687   0.062   3.642   4.432
 5910TIP3    H217688   0.009   3.694   4.300
 5911TIP3   OH217689   5.816   5.932   0.280
 5911TIP3    H117690   5.878   5.860   0.266
 5911TIP3    H217691   5.853   6.005   0.230
 5912TIP3   OH217692   6.250   0.576   1.280
 5912TIP3    H117693   6.156   0.565   1.292
 5912TIP3    H217694   6.279   0.627   1.355
 5913TIP3   OH217695   0.774   5.917   3.728
 5913TIP3    H117696   0.811   5.943   3.644
 5913TIP3    H217697   0.840   5.860   3.767
 5914TIP3   OH217698   2.113   4.139   0.099
 5914TIP3    H117699   2.081   4.229   0.106
 5914TIP3    H217700   2.092   4.100   0.185
 5915TIP3   OH217701   1.693   1.004   4.918
 5915TIP3    H117702   1.622   0.951   4.883
 5915TIP3    H217703   1.658   1.040   5.000
 5916TIP3   OH217704   1.369   0.324   1.914
 5916TIP3    H117705   1.314   0.265   1.863
 5916TIP3    H217706   1.458   0.306   1.885
 5917TIP3   OH217707   6.060   3.880   2.229
 5917TIP3    H117708   6.133   3.820   2.242
 5917TIP3    H217709   6.009   3.841   2.158
 5918TIP3   OH217710   0.388   2.556   5.357
 5918TIP3    H117711   0.306   2.562   5.308
 5918TIP3    H217712   0.450   2.518   5.295
 5919TIP3   OH217713   2.436   1.787   3.264
 5919TIP3    H117714   2.448   1.795   3.170
 5919TIP3    H217715   2.344   1.808   3.279
 5920TIP3   OH217716   1.391   3.033   1.901
 5920TIP3    H117717   1.357   3.122   1.897
 5920TIP3    H217718   1.476   3.042   1.944
 5921TIP3   OH217719   2.278   5.310   2.535
 5921TIP3    H117720   2.318   5.229   2.566
 5921TIP3    H217721   2.351   5.367   2.513
 5922TIP3   OH217722   1.070   2.407   6.379
 5922TIP3    H117723   1.119   2.349   6.437
 5922TIP3    H217724   1.121   2.409   6.298
 5923TIP3   OH217725   3.855   1.072   1.527
 5923TIP3    H117726   3.815   1.143   1.477
 5923TIP3    H217727   3.872   1.109   1.613
 5924TIP3   OH217728   2.475   7.269   5.120
 5924TIP3    H117729   2.413   7.226   5.061
 5924TIP3    H217730   2.505   7.199   5.178
 5925TIP3   OH217731   4.342   4.621   1.415
 5925TIP3    H117732   4.389   4.685   1.470
 5925TIP3    H217733   4.260   4.605   1.462
 5926TIP3   OH217734   0.426   3.723   6.324
 5926TIP3    H117735   0.374   3.796   6.359
 5926TIP3    H217736   0.442   3.667   6.400
 5927TIP3   OH217737   1.871   3.165   2.602
 5927TIP3    H117738   1.842   3.255   2.616
 5927TIP3    H217739   1.894   3.134   2.690
 5928TIP3   OH217740   1.333   0.238   4.437
 5928TIP3    H117741   1.413   0.254   4.488
 5928TIP3    H217742   1.277   0.313   4.456
 5929TIP3   OH217743   0.884   2.363   4.046
 5929TIP3    H117744   0.974   2.392   4.062
 5929TIP3    H217745   0.835   2.392   4.123
 5930TIP3   OH217746   1.850   4.222   3.436
 5930TIP3    H117747   1.891   4.149   3.390
 5930TIP3    H217748   1.784   4.255   3.374
 5931TIP3   OH217749   7.828   5.338   3.413
 5931TIP3    H117750   7.797   5.247   3.405
 5931TIP3    H217751   7.797   5.366   3.499
 5932TIP3   OH217752   6.996   1.863   6.667
 5932TIP3    H117753   6.999   1.959   6.672
 5932TIP3    H217754   6.991   1.844   6.574
 5933TIP3   OH217755   1.349   6.307   6.758
 5933TIP3    H117756   1.311   6.385   6.799
 5933TIP3    H217757   1.304   6.300   6.674
 5934TIP3   OH217758   0.182   2.449   0.772
 5934TIP3    H117759   0.182   2.544   0.786
 5934TIP3    H217760   0.097   2.420   0.806
 5935TIP3   OH217761   7.404   5.606   0.354
 5935TIP3    H117762   7.427   5.596   0.261
 5935TIP3    H217763   7.308   5.617   0.354
 5936TIP3   OH217764   7.425   5.274   6.451
 5936TIP3    H117765   7.492   5.305   6.512
 5936TIP3    H217766   7.407   5.184   6.479
 5937TIP3   OH217767   0.996   6.896   5.996
 5937TIP3    H117768   1.025   6.986   5.983
 5937TIP3    H217769   0.936   6.880   5.923
 5938TIP3   OH217770   6.696   4.745   0.718
 5938TIP3    H117771   6.714   4.821   0.663
 5938TIP3    H217772   6.621   4.772   0.771
 5939TIP3   OH217773   0.026   0.445   4.777
 5939TIP3    H117774   0.073   0.491   4.847
 5939TIP3    H217775   0.094   0.393   4.733
 5940TIP3   OH217776   2.082   2.407   0.289
 5940TIP3    H117777   2.115   2.463   0.360
 5940TIP3    H217778   2.150   2.340   0.278
 5941TIP3   OH217779   5.642   0.761   5.761
 5941TIP3    H117780   5.646   0.804   5.676
 5941TIP3    H217781   5.700   0.685   5.752
 5942TIP3   OH217782   4.131   5.203   2.740
 5942TIP3    H117783   4.130   5.233   2.649
 5942TIP3    H217784   4.086   5.272   2.788
 5943TIP3   OH217785   5.676   3.016   0.832
 5943TIP3    H117786   5.737   2.943   0.827
 5943TIP3    H217787   5.594   2.981   0.797
 5944TIP3   OH217788   2.658   5.104   4.871
 5944TIP3    H117789   2.683   5.044   4.942
 5944TIP3    H217790   2.741   5.126   4.829
 5945TIP3   OH217791   6.713   2.845   0.398
 5945TIP3    H117792   6.795   2.895   0.392
 5945TIP3    H217793   6.697   2.815   0.308
 5946TIP3   OH217794   4.737   6.527   1.988
 5946TIP3    H117795   4.647   6.560   1.986
 5946TIP3    H217796   4.731   6.439   1.950
 5947TIP3   OH217797   7.399   2.281   1.152
 5947TIP3    H117798   7.414   2.374   1.167
 5947TIP3    H217799   7.370   2.276   1.061
 5948TIP3   OH217800   3.171   0.873   4.115
 5948TIP3    H117801   3.215   0.922   4.184
 5948TIP3    H217802   3.239   0.858   4.049
 5949TIP3   OH217803   0.792   5.121   1.456
 5949TIP3    H117804   0.760   5.151   1.371
 5949TIP3    H217805   0.887   5.123   1.447
 5950TIP3   OH217806   8.103   0.599   2.747
 5950TIP3    H117807   8.183   0.575   2.701
 5950TIP3    H217808   8.043   0.628   2.677
 5951TIP3   OH217809   4.087   4.780   2.914
 5951TIP3    H117810   3.992   4.774   2.925
 5951TIP3    H217811   4.098   4.830   2.833
 5952TIP3   OH217812   1.182   6.451   1.124
 5952TIP3    H117813   1.132   6.394   1.065
 5952TIP3    H217814   1.186   6.402   1.207
 5953TIP3   OH217815   7.251   3.369   3.434
 5953TIP3    H117816   7.172   3.422   3.445
 5953TIP3    H217817   7.234   3.290   3.484
 5954TIP3   OH217818   6.655   3.698   5.193
 5954TIP3    H117819   6.612   3.776   5.158
 5954TIP3    H217820   6.666   3.716   5.286
 5955TIP3   OH217821   1.286   7.306   4.676
 5955TIP3    H117822   1.220   7.307   4.606
 5955TIP3    H217823   1.364   7.269   4.635
 5956TIP3   OH217824   2.451   7.282   4.623
 5956TIP3    H117825   2.511   7.351   4.651
 5956TIP3    H217826   2.444   7.294   4.528
 5957TIP3   OH217827   6.306   2.408   0.775
 5957TIP3    H117828   6.232   2.409   0.835
 5957TIP3    H217829   6.336   2.317   0.775
 5958TIP3   OH217830   7.241   6.738   0.962
 5958TIP3    H117831   7.169   6.787   0.923
 5958TIP3    H217832   7.282   6.691   0.889
 5959TIP3   OH217833   1.765   0.080   2.980
 5959TIP3    H117834   1.832   0.014   2.963
 5959TIP3    H217835   1.781   0.148   2.914
 5960TIP3   OH217836   3.976   6.968   2.585
 5960TIP3    H117837   3.891   6.929   2.608
 5960TIP3    H217838   3.983   6.956   2.491
 5961TIP3   OH217839   4.938   7.021   3.211
 5961TIP3    H117840   4.852   7.047   3.244
 5961TIP3    H217841   4.924   7.006   3.117
 5962TIP3   OH217842   2.341   4.765   5.128
 5962TIP3    H117843   2.419   4.813   5.157
 5962TIP3    H217844   2.333   4.692   5.190
 5963TIP3   OH217845   1.525   0.263   5.475
 5963TIP3    H117846   1.461   0.216   5.421
 5963TIP3    H217847   1.474   0.301   5.546
 5964TIP3   OH217848   5.353   2.817   1.000
 5964TIP3    H117849   5.428   2.758   0.999
 5964TIP3    H217850   5.277   2.759   1.010
 5965TIP3   OH217851   1.321   6.581   2.542
 5965TIP3    H117852   1.309   6.569   2.447
 5965TIP3    H217853   1.416   6.579   2.555
 5966TIP3   OH217854   4.503   1.530   4.009
 5966TIP3    H117855   4.498   1.601   3.945
 5966TIP3    H217856   4.434   1.469   3.982
 5967TIP3   OH217857   4.915   0.261   0.661
 5967TIP3    H117858   4.853   0.321   0.703
 5967TIP3    H217859   4.916   0.184   0.719
 5968TIP3   OH217860   3.146   1.946   4.503
 5968TIP3    H117861   3.189   1.882   4.560
 5968TIP3    H217862   3.075   1.982   4.556
 5969TIP3   OH217863   1.107   2.055   1.501
 5969TIP3    H117864   1.103   2.019   1.412
 5969TIP3    H217865   1.019   2.086   1.518
 5970TIP3   OH217866   2.207   3.578   1.158
 5970TIP3    H117867   2.215   3.519   1.233
 5970TIP3    H217868   2.235   3.526   1.083
 5971TIP3   OH217869   0.777   3.730   4.418
 5971TIP3    H117870   0.722   3.651   4.415
 5971TIP3    H217871   0.735   3.790   4.356
 5972TIP3   OH217872   7.255   5.215   2.167
 5972TIP3    H117873   7.270   5.249   2.079
 5972TIP3    H217874   7.165   5.182   2.164
 5973TIP3   OH217875   1.072   4.976   6.099
 5973TIP3    H117876   1.081   4.972   6.004
 5973TIP3    H217877   1.050   5.068   6.117
 5974TIP3   OH217878   4.734   1.781   4.178
 5974TIP3    H117879   4.812   1.735   4.208
 5974TIP3    H217880   4.730   1.761   4.084
 5975TIP3   OH217881   7.364   4.204   1.437
 5975TIP3    H117882   7.291   4.142   1.434
 5975TIP3    H217883   7.322   4.288   1.456
 5976TIP3   OH217884   5.907   4.710   1.384
 5976TIP3    H117885   5.818   4.708   1.348
 5976TIP3    H217886   5.932   4.618   1.391
 5977TIP3   OH217887   2.832   1.104   3.696
 5977TIP3    H117888   2.838   1.174   3.762
 5977TIP3    H217889   2.859   1.025   3.743
 5978TIP3   OH217890   6.807   0.135   2.814
 5978TIP3    H117891   6.799   0.150   2.908
 5978TIP3    H217892   6.746   0.197   2.775
 5979TIP3   OH217893   1.997   5.873   0.183
 5979TIP3    H117894   1.915   5.914   0.157
 5979TIP3    H217895   1.971   5.803   0.243
 5980TIP3   OH217896   1.264   2.147   3.325
 5980TIP3    H117897   1.259   2.051   3.329
 5980TIP3    H217898   1.184   2.174   3.281
 5981TIP3   OH217899   3.139   7.120   5.936
 5981TIP3    H117900   3.129   7.214   5.925
 5981TIP3    H217901   3.233   7.104   5.925
 5982TIP3   OH217902   3.307   5.601   2.806
 5982TIP3    H117903   3.230   5.657   2.804
 5982TIP3    H217904   3.274   5.514   2.783
 5983TIP3   OH217905   2.042   1.274   5.419
 5983TIP3    H117906   2.091   1.201   5.380
 5983TIP3    H217907   1.989   1.235   5.487
 5984TIP3   OH217908   5.223   7.132   4.033
 5984TIP3    H117909   5.282   7.207   4.026
 5984TIP3    H217910   5.169   7.137   3.955
 5985TIP3   OH217911   1.401   7.522   5.575
 5985TIP3    H117912   1.330   7.470   5.537
 5985TIP3    H217913   1.357   7.584   5.633
 5986TIP3   OH217914   5.652   7.231   4.778
 5986TIP3    H117915   5.559   7.252   4.782
 5986TIP3    H217916   5.681   7.233   4.869
 5987TIP3   OH217917   6.095   0.218   0.658
 5987TIP3    H117918   6.094   0.123   0.667
 5987TIP3    H217919   6.158   0.234   0.588
 5988TIP3   OH217920   0.558   2.238   4.330
 5988TIP3    H117921   0.497   2.290   4.279
 5988TIP3    H217922   0.514   2.223   4.413
 5989TIP3   OH217923   5.679   4.896   0.133
 5989TIP3    H117924   5.589   4.916   0.108
 5989TIP3    H217925   5.725   4.979   0.126
 5990TIP3   OH217926   7.826   3.314   3.688
 5990TIP3    H117927   7.910   3.312   3.733
 5990TIP3    H217928   7.774   3.246   3.731
 5991TIP3   OH217929   1.139   2.056   0.559
 5991TIP3    H117930   1.136   2.096   0.472
 5991TIP3    H217931   1.155   1.963   0.542
 5992TIP3   OH217932   6.583   2.724   1.410
 5992TIP3    H117933   6.544   2.801   1.451
 5992TIP3    H217934   6.548   2.650   1.460
 5993TIP3   OH217935   1.087   2.485   3.383
 5993TIP3    H117936   1.152   2.536   3.335
 5993TIP3    H217937   1.003   2.509   3.342
 5994TIP3   OH217938   2.742   1.647   1.028
 5994TIP3    H117939   2.828   1.608   1.045
 5994TIP3    H217940   2.679   1.578   1.050
 5995TIP3   OH217941   3.795   2.373   5.380
 5995TIP3    H117942   3.845   2.361   5.299
 5995TIP3    H217943   3.861   2.391   5.447
 5996TIP3   OH217944   6.426   4.374   4.153
 5996TIP3    H117945   6.383   4.426   4.085
 5996TIP3    H217946   6.353   4.338   4.204
 5997TIP3   OH217947   3.483   0.923   2.858
 5997TIP3    H117948   3.417   0.981   2.820
 5997TIP3    H217949   3.520   0.877   2.782
 5998TIP3   OH217950   5.207   5.453   4.560
 5998TIP3    H117951   5.258   5.414   4.631
 5998TIP3    H217952   5.146   5.384   4.533
 5999TIP3   OH217953   1.616   0.113   2.640
 5999TIP3    H117954   1.602   0.175   2.568
 5999TIP3    H217955   1.676   0.158   2.699
 6000TIP3   OH217956   1.675   1.757   3.738
 6000TIP3    H117957   1.628   1.677   3.762
 6000TIP3    H217958   1.737   1.771   3.810
 6001TIP3   OH217959   4.358   6.282   1.652
 6001TIP3    H117960   4.298   6.349   1.617
 6001TIP3    H217961   4.356   6.296   1.746
 6002TIP3   OH217962   5.791   3.768   0.064
 6002TIP3    H117963   5.801   3.740   0.155
 6002TIP3    H217964   5.779   3.863   0.068
 6003TIP3   OH217965   1.347   3.577   0.183
 6003TIP3    H117966   1.401   3.583   0.104
 6003TIP3    H217967   1.300   3.660   0.186
 6004TIP3   OH217968   0.000   2.430   4.880
 6004TIP3    H117969  -0.062   2.359   4.869
 6004TIP3    H217970   0.085   2.387   4.887
 6005TIP3   OH217971   0.317   4.269   5.209
 6005TIP3    H117972   0.351   4.331   5.144
 6005TIP3    H217973   0.314   4.319   5.290
 6006TIP3   OH217974   4.951   1.026   4.307
 6006TIP3    H117975   4.860   1.007   4.288
 6006TIP3    H217976   4.951   1.055   4.398
 6007TIP3   OH217977   4.673   7.769   1.874
 6007TIP3    H117978   4.654   7.684   1.833
 6007TIP3    H217979   4.744   7.750   1.935
 6008TIP3   OH217980   0.936   5.457   5.646
 6008TIP3    H117981   0.891   5.377   5.673
 6008TIP3    H217982   1.026   5.430   5.628
 6009TIP3   OH217983   1.655   0.454   5.927
 6009TIP3    H117984   1.571   0.444   5.883
 6009TIP3    H217985   1.715   0.483   5.858
 6010TIP3   OH217986   2.014   3.737   1.562
 6010TIP3    H117987   2.070   3.676   1.611
 6010TIP3    H217988   1.962   3.681   1.504
 6011TIP3   OH217989   6.907   6.756   3.453
 6011TIP3    H117990   6.826   6.760   3.403
 6011TIP3    H217991   6.960   6.828   3.419
 6012TIP3   OH217992   5.652   1.064   2.485
 6012TIP3    H117993   5.697   0.980   2.474
 6012TIP3    H217994   5.722   1.128   2.496
 6013TIP3   OH217995   1.017   0.207   1.743
 6013TIP3    H117996   1.094   0.161   1.778
 6013TIP3    H217997   1.004   0.281   1.802
 6014TIP3   OH217998   7.649   1.430   3.378
 6014TIP3    H117999   7.665   1.344   3.416
 6014TIP3    H218000   7.594   1.475   3.442
 6015TIP3   OH218001   0.523   1.357   3.426
 6015TIP3    H118002   0.458   1.321   3.485
 6015TIP3    H218003   0.607   1.347   3.472
 6016TIP3   OH218004   1.767   6.609   1.620
 6016TIP3    H118005   1.830   6.563   1.676
 6016TIP3    H218006   1.821   6.670   1.570
 6017TIP3   OH218007   7.768   0.461   0.777
 6017TIP3    H118008   7.821   0.539   0.798
 6017TIP3    H218009   7.733   0.432   0.861
 6018TIP3   OH218010   7.261   3.698   0.646
 6018TIP3    H118011   7.167   3.693   0.632
 6018TIP3    H218012   7.293   3.752   0.574
 6019TIP3   OH218013   1.565   0.302   3.022
 6019TIP3    H118014   1.593   0.212   3.037
 6019TIP3    H218015   1.628   0.337   2.958
 6020TIP3   OH218016   4.212   4.712   4.259
 6020TIP3    H118017   4.189   4.802   4.238
 6020TIP3    H218018   4.158   4.659   4.201
 6021TIP3   OH218019   0.269   2.872   5.697
 6021TIP3    H118020   0.269   2.895   5.790
 6021TIP3    H218021   0.229   2.785   5.695
 6022TIP3   OH218022   4.383   6.321   5.797
 6022TIP3    H118023   4.354   6.329   5.888
 6022TIP3    H218024   4.479   6.320   5.803
 6023TIP3   OH218025   7.217   5.169   0.549
 6023TIP3    H118026   7.269   5.103   0.594
 6023TIP3    H218027   7.205   5.239   0.613
 6024TIP3   OH218028   4.294   1.747   2.106
 6024TIP3    H118029   4.254   1.818   2.156
 6024TIP3    H218030   4.386   1.773   2.098
 6025TIP3   OH218031   0.097   3.561   5.237
 6025TIP3    H118032   0.172   3.533   5.289
 6025TIP3    H218033   0.132   3.626   5.177
 6026TIP3   OH218034   4.668   4.319   0.590
 6026TIP3    H118035   4.603   4.251   0.608
 6026TIP3    H218036   4.679   4.364   0.674
 6027TIP3   OH218037   4.741   2.886   4.297
 6027TIP3    H118038   4.719   2.965   4.247
 6027TIP3    H218039   4.683   2.888   4.372
 6028TIP3   OH218040   0.059   7.477   6.704
 6028TIP3    H118041  -0.017   7.519   6.663
 6028TIP3    H218042   0.021   7.418   6.770
 6029TIP3   OH218043   4.102   1.716   0.922
 6029TIP3    H118044   4.131   1.630   0.952
 6029TIP3    H218045   4.147   1.729   0.838
 6030TIP3   OH218046   0.766   2.996   0.805
 6030TIP3    H118047   0.747   3.071   0.749
 6030TIP3    H218048   0.853   2.967   0.777
 6031TIP3   OH218049   4.417   3.214   1.059
 6031TIP3    H118050   4.397   3.133   1.012
 6031TIP3    H218051   4.407   3.192   1.151
 6032TIP3   OH218052   3.604   3.960   4.971
 6032TIP3    H118053   3.652   4.035   4.936
 6032TIP3    H218054   3.672   3.905   5.011
 6033TIP3   OH218055   0.968   0.409   3.888
 6033TIP3    H118056   1.027   0.484   3.880
 6033TIP3    H218057   0.898   0.427   3.826
 6034TIP3   OH218058   3.433   1.625   5.402
 6034TIP3    H118059   3.467   1.547   5.446
 6034TIP3    H218060   3.509   1.684   5.396
 6035TIP3   OH218061   3.767   1.988   3.489
 6035TIP3    H118062   3.797   2.072   3.523
 6035TIP3    H218063   3.709   1.953   3.556
 6036TIP3   OH218064   7.426   3.981   1.625
 6036TIP3    H118065   7.432   4.057   1.568
 6036TIP3    H218066   7.501   3.927   1.602
 6037TIP3   OH218067   5.776   2.329   4.955
 6037TIP3    H118068   5.833   2.382   5.011
 6037TIP3    H218069   5.780   2.373   4.869
 6038TIP3   OH218070   1.186   5.412   0.678
 6038TIP3    H118071   1.257   5.438   0.619
 6038TIP3    H218072   1.212   5.327   0.712
 6039TIP3   OH218073   6.718   4.166   3.189
 6039TIP3    H118074   6.695   4.090   3.242
 6039TIP3    H218075   6.638   4.188   3.142
 6040TIP3   OH218076   3.909   3.330   3.498
 6040TIP3    H118077   3.990   3.380   3.485
 6040TIP3    H218078   3.849   3.364   3.431
 6041TIP3   OH218079   5.900   5.177   1.371
 6041TIP3    H118080   5.923   5.111   1.436
 6041TIP3    H218081   5.920   5.260   1.414
 6042TIP3   OH218082   2.903   2.973   3.361
 6042TIP3    H118083   2.859   2.933   3.436
 6042TIP3    H218084   2.875   2.922   3.286
 6043TIP3   OH218085   5.514   2.980   1.192
 6043TIP3    H118086   5.490   2.909   1.253
 6043TIP3    H218087   5.478   2.952   1.108
 6044TIP3   OH218088   5.596   5.816   0.405
 6044TIP3    H118089   5.653   5.886   0.375
 6044TIP3    H218090   5.650   5.737   0.401
 6045TIP3   OH218091   6.067   6.921   5.935
 6045TIP3    H118092   6.003   6.872   5.885
 6045TIP3    H218093   6.077   7.004   5.888
 6046TIP3   OH218094   5.117   0.408   4.680
 6046TIP3    H118095   5.171   0.338   4.715
 6046TIP3    H218096   5.029   0.370   4.673
 6047TIP3   OH218097   0.375   1.466   2.152
 6047TIP3    H118098   0.300   1.525   2.149
 6047TIP3    H218099   0.436   1.501   2.088
 6048TIP3   OH218100   3.130   6.243   2.964
 6048TIP3    H118101   3.123   6.331   2.926
 6048TIP3    H218102   3.184   6.194   2.902
 6049TIP3   OH218103   2.449   3.818   1.471
 6049TIP3    H118104   2.446   3.734   1.516
 6049TIP3    H218105   2.519   3.867   1.515
 6050TIP3   OH218106   6.330   5.711   4.754
 6050TIP3    H118107   6.281   5.644   4.801
 6050TIP3    H218108   6.361   5.667   4.675
 6051TIP3   OH218109   4.633   0.736   3.365
 6051TIP3    H118110   4.659   0.788   3.441
 6051TIP3    H218111   4.693   0.764   3.295
 6052TIP3   OH218112   1.886   1.049   3.200
 6052TIP3    H118113   1.837   0.986   3.253
 6052TIP3    H218114   1.843   1.133   3.217
 6053TIP3   OH218115   6.399   5.031   0.699
 6053TIP3    H118116   6.459   5.031   0.773
 6053TIP3    H218117   6.319   5.073   0.731
 6054TIP3   OH218118   6.449   0.143   3.776
 6054TIP3    H118119   6.518   0.079   3.759
 6054TIP3    H218120   6.491   0.210   3.830
 6055TIP3   OH218121   6.306   3.662   2.209
 6055TIP3    H118122   6.328   3.616   2.290
 6055TIP3    H218123   6.322   3.598   2.140
 6056TIP3   OH218124   4.469   4.285   1.643
 6056TIP3    H118125   4.494   4.372   1.613
 6056TIP3    H218126   4.552   4.243   1.667
 6057TIP3   OH218127   0.511   1.690   5.909
 6057TIP3    H118128   0.560   1.712   5.989
 6057TIP3    H218129   0.558   1.735   5.839
 6058TIP3   OH218130   3.468   2.113   2.902
 6058TIP3    H118131   3.494   2.149   2.818
 6058TIP3    H218132   3.441   2.023   2.882
 6059TIP3   OH218133   4.895   0.346   1.216
 6059TIP3    H118134   4.978   0.305   1.189
 6059TIP3    H218135   4.922   0.424   1.264
 6060TIP3   OH218136   6.868   7.510   4.475
 6060TIP3    H118137   6.929   7.557   4.419
 6060TIP3    H218138   6.842   7.433   4.424
 6061TIP3   OH218139   2.426   3.556   1.557
 6061TIP3    H118140   2.343   3.507   1.555
 6061TIP3    H218141   2.480   3.513   1.490
 6062TIP3   OH218142   5.699   4.399   5.062
 6062TIP3    H118143   5.656   4.318   5.089
 6062TIP3    H218144   5.731   4.381   4.974
 6063TIP3   OH218145   5.229   2.251   3.378
 6063TIP3    H118146   5.314   2.289   3.402
 6063TIP3    H218147   5.239   2.158   3.399
 6064TIP3   OH218148   3.492   6.447   0.017
 6064TIP3    H118149   3.420   6.414  -0.036
 6064TIP3    H218150   3.475   6.413   0.105
 6065TIP3   OH218151   1.885   1.806   1.447
 6065TIP3    H118152   1.898   1.881   1.505
 6065TIP3    H218153   1.963   1.803   1.393
 6066TIP3   OH218154   3.267   3.809   4.392
 6066TIP3    H118155   3.216   3.838   4.316
 6066TIP3    H218156   3.215   3.839   4.467
 6067TIP3   OH218157   5.341   4.009   1.358
 6067TIP3    H118158   5.310   4.084   1.408
 6067TIP3    H218159   5.414   3.974   1.409
 6068TIP3   OH218160   1.061   0.563   0.410
 6068TIP3    H118161   1.097   0.635   0.359
 6068TIP3    H218162   1.020   0.606   0.485
 6069TIP3   OH218163   0.987   3.388   0.972
 6069TIP3    H118164   1.023   3.314   0.924
 6069TIP3    H218165   1.040   3.393   1.051
 6070TIP3   OH218166   1.885   3.561   5.199
 6070TIP3    H118167   1.896   3.570   5.105
 6070TIP3    H218168   1.969   3.588   5.236
 6071TIP3   OH218169   1.266   3.279   1.448
 6071TIP3    H118170   1.212   3.262   1.525
 6071TIP3    H218171   1.340   3.329   1.481
 6072TIP3   OH218172   7.143   2.598   2.198
 6072TIP3    H118173   7.205   2.525   2.201
 6072TIP3    H218174   7.193   2.674   2.228
 6073TIP3   OH218175   5.247   4.011   4.130
 6073TIP3    H118176   5.187   3.943   4.101
 6073TIP3    H218177   5.191   4.088   4.145
 6074TIP3   OH218178   1.186   4.454   5.553
 6074TIP3    H118179   1.240   4.411   5.619
 6074TIP3    H218180   1.097   4.425   5.574
 6075TIP3   OH218181   5.010   0.782   2.964
 6075TIP3    H118182   5.021   0.877   2.955
 6075TIP3    H218183   5.070   0.744   2.900
 6076TIP3   OH218184   1.874   3.689   0.776
 6076TIP3    H118185   1.947   3.693   0.715
 6076TIP3    H218186   1.858   3.595   0.788
 6077TIP3   OH218187   6.936   4.213   2.287
 6077TIP3    H118188   6.887   4.201   2.368
 6077TIP3    H218189   6.921   4.133   2.237
 6078TIP3   OH218190   6.219   5.299   1.246
 6078TIP3    H118191   6.300   5.348   1.264
 6078TIP3    H218192   6.158   5.330   1.314
 6079TIP3   OH218193   6.911   3.621   5.800
 6079TIP3    H118194   6.933   3.593   5.889
 6079TIP3    H218195   6.931   3.545   5.745
 6080TIP3   OH218196   8.167   7.141   2.371
 6080TIP3    H118197   8.147   7.088   2.294
 6080TIP3    H218198   8.254   7.177   2.354
 6081TIP3   OH218199   0.395   5.497   1.508
 6081TIP3    H118200   0.375   5.540   1.591
 6081TIP3    H218201   0.482   5.460   1.520
 6082TIP3   OH218202   4.792   6.823   6.567
 6082TIP3    H118203   4.879   6.785   6.576
 6082TIP3    H218204   4.777   6.829   6.473
 6083TIP3   OH218205   7.075   2.188   3.319
 6083TIP3    H118206   7.054   2.279   3.343
 6083TIP3    H218207   7.079   2.141   3.402
 6084TIP3   OH218208   5.203   0.307   0.149
 6084TIP3    H118209   5.200   0.331   0.057
 6084TIP3    H218210   5.217   0.212   0.149
 6085TIP3   OH218211   5.762   0.256   5.318
 6085TIP3    H118212   5.748   0.337   5.268
 6085TIP3    H218213   5.846   0.269   5.362
 6086TIP3   OH218214   2.947   3.307   5.116
 6086TIP3    H118215   2.955   3.379   5.054
 6086TIP3    H218216   3.016   3.322   5.181
 6087TIP3   OH218217   2.304   5.602   2.847
 6087TIP3    H118218   2.356   5.603   2.767
 6087TIP3    H218219   2.237   5.536   2.831
 6088TIP3   OH218220   5.420   5.070   2.852
 6088TIP3    H118221   5.358   5.049   2.781
 6088TIP3    H218222   5.387   5.021   2.927
 6089TIP3   OH218223   3.116   7.813   2.729
 6089TIP3    H118224   3.196   7.795   2.681
 6089TIP3    H218225   3.109   7.741   2.792
 6090TIP3   OH218226   5.196   1.941   6.263
 6090TIP3    H118227   5.181   1.901   6.349
 6090TIP3    H218228   5.183   2.035   6.277
 6091TIP3   OH218229   0.251   5.718   3.271
 6091TIP3    H118230   0.171   5.688   3.313
 6091TIP3    H218231   0.222   5.790   3.214
 6092TIP3   OH218232   2.492   6.890   2.845
 6092TIP3    H118233   2.553   6.816   2.842
 6092TIP3    H218234   2.548   6.968   2.848
 6093TIP3   OH218235   3.245   7.065   2.374
 6093TIP3    H118236   3.231   7.160   2.371
 6093TIP3    H218237   3.310   7.048   2.307
 6094TIP3   OH218238   1.453   0.145   6.670
 6094TIP3    H118239   1.536   0.181   6.702
 6094TIP3    H218240   1.479   0.074   6.611
 6095TIP3   OH218241   0.020   5.413   2.441
 6095TIP3    H118242   0.106   5.383   2.412
 6095TIP3    H218243  -0.019   5.455   2.364
 6096TIP3   OH218244   6.875   7.022   6.633
 6096TIP3    H118245   6.869   7.114   6.657
 6096TIP3    H218246   6.808   7.011   6.565
 6097TIP3   OH218247   7.427   0.290   3.631
 6097TIP3    H118248   7.378   0.369   3.607
 6097TIP3    H218249   7.456   0.306   3.721
 6098TIP3   OH218250   2.950   0.295   5.507
 6098TIP3    H118251   2.913   0.370   5.554
 6098TIP3    H218252   2.901   0.293   5.425
 6099TIP3   OH218253   4.813   1.470   3.201
 6099TIP3    H118254   4.858   1.550   3.228
 6099TIP3    H218255   4.723   1.498   3.185
 6100TIP3   OH218256   1.758   3.419   6.136
 6100TIP3    H118257   1.731   3.511   6.134
 6100TIP3    H218258   1.731   3.388   6.222
 6101TIP3   OH218259   1.421   2.651   1.572
 6101TIP3    H118260   1.357   2.717   1.599
 6101TIP3    H218261   1.402   2.636   1.479
 6102TIP3   OH218262   6.145   5.771   1.766
 6102TIP3    H118263   6.079   5.742   1.829
 6102TIP3    H218264   6.166   5.861   1.793
 6103TIP3   OH218265   6.183   5.730   1.432
 6103TIP3    H118266   6.102   5.681   1.429
 6103TIP3    H218267   6.158   5.818   1.461
 6104TIP3   OH218268   1.642   1.426   4.207
 6104TIP3    H118269   1.675   1.350   4.254
 6104TIP3    H218270   1.681   1.420   4.120
 6105TIP3   OH218271   2.645   4.008   1.576
 6105TIP3    H118272   2.686   3.980   1.658
 6105TIP3    H218273   2.718   4.043   1.525
 6106TIP3   OH218274   6.478   4.549   3.148
 6106TIP3    H118275   6.440   4.632   3.117
 6106TIP3    H218276   6.569   4.570   3.170
 6107TIP3   OH218277   6.377   6.159   2.152
 6107TIP3    H118278   6.298   6.144   2.204
 6107TIP3    H218279   6.436   6.088   2.178
 6108TIP3   OH218280   7.352   7.334   2.344
 6108TIP3    H118281   7.341   7.253   2.294
 6108TIP3    H218282   7.441   7.364   2.322
 6109TIP3   OH218283   2.716   6.595   2.082
 6109TIP3    H118284   2.767   6.600   2.001
 6109TIP3    H218285   2.625   6.605   2.054
 6110TIP3   OH218286   5.165   2.192   5.177
 6110TIP3    H118287   5.097   2.216   5.115
 6110TIP3    H218288   5.180   2.271   5.228
 6111TIP3   OH218289   7.429   4.768   1.199
 6111TIP3    H118290   7.414   4.863   1.204
 6111TIP3    H218291   7.497   4.751   1.264
 6112TIP3   OH218292   1.945   1.376   0.188
 6112TIP3    H118293   2.032   1.346   0.213
 6112TIP3    H218294   1.941   1.365   0.093
 6113TIP3   OH218295   1.426   2.463   4.253
 6113TIP3    H118296   1.505   2.409   4.254
 6113TIP3    H218297   1.415   2.491   4.344
 6114TIP3   OH218298   3.256   0.910   3.415
 6114TIP3    H118299   3.207   0.865   3.484
 6114TIP3    H218300   3.208   0.890   3.334
 6115TIP3   OH218301   2.015   4.795   5.406
 6115TIP3    H118302   2.011   4.868   5.343
 6115TIP3    H218303   2.001   4.837   5.491
 6116TIP3   OH218304   5.015   0.469   5.623
 6116TIP3    H118305   5.028   0.384   5.665
 6116TIP3    H218306   4.975   0.524   5.691
 6117TIP3   OH218307   6.930   4.734   3.387
 6117TIP3    H118308   6.948   4.825   3.361
 6117TIP3    H218309   7.008   4.686   3.359
 6118TIP3   OH218310   6.762   2.003   4.351
 6118TIP3    H118311   6.707   2.080   4.335
 6118TIP3    H218312   6.816   2.029   4.426
 6119TIP3   OH218313   5.024   4.266   1.352
 6119TIP3    H118314   4.983   4.294   1.270
 6119TIP3    H218315   5.052   4.348   1.394
 6120TIP3   OH218316   3.292   0.334   4.341
 6120TIP3    H118317   3.262   0.413   4.385
 6120TIP3    H218318   3.339   0.285   4.408
 6121TIP3   OH218319   6.899   2.746   5.870
 6121TIP3    H118320   6.924   2.837   5.854
 6121TIP3    H218321   6.910   2.735   5.965
 6122TIP3   OH218322   1.760   3.521   3.718
 6122TIP3    H118323   1.717   3.566   3.791
 6122TIP3    H218324   1.766   3.430   3.747
 6123TIP3   OH218325   4.830   7.531   5.763
 6123TIP3    H118326   4.781   7.527   5.681
 6123TIP3    H218327   4.897   7.598   5.748
 6124TIP3   OH218328   1.416   6.818   0.080
 6124TIP3    H118329   1.450   6.822   0.169
 6124TIP3    H218330   1.487   6.853   0.026
 6125TIP3   OH218331   4.510   3.887   4.054
 6125TIP3    H118332   4.542   3.977   4.047
 6125TIP3    H218333   4.448   3.877   3.981
 6126TIP3   OH218334   0.973   5.739   6.799
 6126TIP3    H118335   0.998   5.831   6.806
 6126TIP3    H218336   0.927   5.733   6.715
 6127TIP3   OH218337   6.111   3.279   2.108
 6127TIP3    H118338   6.109   3.196   2.155
 6127TIP3    H218339   6.027   3.283   2.062
 6128TIP3   OH218340   2.256   0.390   0.639
 6128TIP3    H118341   2.187   0.438   0.685
 6128TIP3    H218342   2.328   0.452   0.634
 6129TIP3   OH218343   2.193   3.399   1.372
 6129TIP3    H118344   2.270   3.342   1.379
 6129TIP3    H218345   2.119   3.341   1.390
 6130TIP3   OH218346   7.903   7.594   2.294
 6130TIP3    H118347   7.932   7.593   2.203
 6130TIP3    H218348   7.847   7.671   2.301
 6131TIP3   OH218349   5.477   3.925   1.119
 6131TIP3    H118350   5.410   3.925   1.050
 6131TIP3    H218351   5.435   3.970   1.192
 6132TIP3   OH218352   1.475   3.075   3.897
 6132TIP3    H118353   1.537   3.069   3.970
 6132TIP3    H218354   1.519   3.029   3.825
 6133TIP3   OH218355   3.950   0.046   4.112
 6133TIP3    H118356   3.932  -0.031   4.165
 6133TIP3    H218357   3.864   0.086   4.097
 6134TIP3   OH218358   2.494   4.276   3.813
 6134TIP3    H118359   2.448   4.250   3.893
 6134TIP3    H218360   2.428   4.268   3.744
 6135TIP3   OH218361   3.345   0.466   5.170
 6135TIP3    H118362   3.320   0.383   5.129
 6135TIP3    H218363   3.286   0.474   5.245
 6136TIP3   OH218364   0.528   1.081   5.791
 6136TIP3    H118365   0.505   1.169   5.762
 6136TIP3    H218366   0.615   1.065   5.755
 6137TIP3   OH218367   2.448   1.323   3.089
 6137TIP3    H118368   2.455   1.241   3.139
 6137TIP3    H218369   2.389   1.302   3.017
 6138TIP3   OH218370   7.928   4.336   0.578
 6138TIP3    H118371   7.982   4.341   0.657
 6138TIP3    H218372   7.896   4.425   0.564
 6139TIP3   OH218373   2.805   4.591   3.119
 6139TIP3    H118374   2.848   4.626   3.197
 6139TIP3    H218375   2.716   4.626   3.122
 6140TIP3   OH218376   0.647   4.459   5.164
 6140TIP3    H118377   0.673   4.494   5.079
 6140TIP3    H218378   0.567   4.506   5.186
 6141TIP3   OH218379   7.381   1.460   6.571
 6141TIP3    H118380   7.390   1.523   6.643
 6141TIP3    H218381   7.421   1.504   6.496
 6142TIP3   OH218382   2.584   5.866   4.877
 6142TIP3    H118383   2.530   5.933   4.837
 6142TIP3    H218384   2.672   5.879   4.841
 6143TIP3   OH218385   3.450   5.964   5.491
 6143TIP3    H118386   3.442   6.022   5.567
 6143TIP3    H218387   3.535   5.985   5.453
 6144TIP3   OH218388   6.003   7.069   1.886
 6144TIP3    H118389   6.062   7.121   1.832
 6144TIP3    H218390   6.039   7.075   1.975
 6145TIP3   OH218391   5.581   0.467   0.482
 6145TIP3    H118392   5.655   0.444   0.425
 6145TIP3    H218393   5.503   0.443   0.430
 6146TIP3   OH218394   5.873   6.303   4.552
 6146TIP3    H118395   5.877   6.217   4.594
 6146TIP3    H218396   5.831   6.359   4.616
 6147TIP3   OH218397   1.900   6.449   5.399
 6147TIP3    H118398   1.897   6.358   5.371
 6147TIP3    H218399   1.918   6.445   5.493
 6148TIP3   OH218400   3.488   3.414   2.512
 6148TIP3    H118401   3.405   3.389   2.552
 6148TIP3    H218402   3.480   3.385   2.421
 6149TIP3   OH218403   6.564   1.982   2.912
 6149TIP3    H118404   6.627   1.914   2.938
 6149TIP3    H218405   6.514   2.000   2.991
 6150TIP3   OH218406   0.146   4.629   1.060
 6150TIP3    H118407   0.108   4.576   1.130
 6150TIP3    H218408   0.079   4.632   0.992
 6151TIP3   OH218409   1.284   2.400   4.955
 6151TIP3    H118410   1.265   2.481   4.908
 6151TIP3    H218411   1.357   2.422   5.013
 6152TIP3   OH218412   1.156   6.027   0.798
 6152TIP3    H118413   1.217   5.976   0.745
 6152TIP3    H218414   1.081   6.042   0.740
 6153TIP3   OH218415   1.891   5.592   2.207
 6153TIP3    H118416   1.823   5.574   2.273
 6153TIP3    H218417   1.853   5.560   2.125
 6154TIP3   OH218418   3.458   0.779   1.547
 6154TIP3    H118419   3.421   0.746   1.629
 6154TIP3    H218420   3.545   0.740   1.543
 6155TIP3   OH218421   7.844   6.829   6.181
 6155TIP3    H118422   7.937   6.810   6.168
 6155TIP3    H218423   7.832   6.918   6.146
 6156TIP3   OH218424   5.141   1.427   5.429
 6156TIP3    H118425   5.207   1.487   5.394
 6156TIP3    H218426   5.087   1.482   5.486
 6157TIP3   OH218427   0.978   0.325   5.012
 6157TIP3    H118428   1.066   0.288   5.007
 6157TIP3    H218429   0.991   0.411   5.051
 6158TIP3   OH218430   6.324   7.133   5.937
 6158TIP3    H118431   6.335   7.225   5.961
 6158TIP3    H218432   6.240   7.130   5.892
 6159TIP3   OH218433   1.303   6.941   6.457
 6159TIP3    H118434   1.385   6.923   6.411
 6159TIP3    H218435   1.268   6.854   6.479
 6160TIP3   OH218436   0.035   3.592   3.286
 6160TIP3    H118437   0.067   3.612   3.198
 6160TIP3    H218438  -0.035   3.528   3.272
 6161TIP3   OH218439   6.037   1.830   3.292
 6161TIP3    H118440   6.082   1.754   3.255
 6161TIP3    H218441   6.058   1.828   3.385
 6162TIP3   OH218442   4.366   3.829   2.182
 6162TIP3    H118443   4.317   3.907   2.209
 6162TIP3    H218444   4.298   3.767   2.153
 6163TIP3   OH218445   6.720   3.637   6.412
 6163TIP3    H118446   6.665   3.577   6.362
 6163TIP3    H218447   6.720   3.718   6.361
 6164TIP3   OH218448   3.813   1.891   1.228
 6164TIP3    H118449   3.747   1.851   1.171
 6164TIP3    H218450   3.782   1.980   1.242
 6165TIP3   OH218451   0.346   3.606   4.243
 6165TIP3    H118452   0.284   3.653   4.298
 6165TIP3    H218453   0.292   3.554   4.184
 6166TIP3   OH218454   8.098   7.832   4.309
 6166TIP3    H118455   8.007   7.856   4.327
 6166TIP3    H218456   8.099   7.807   4.217
 6167TIP3   OH218457   6.603   6.579   1.652
 6167TIP3    H118458   6.547   6.507   1.622
 6167TIP3    H218459   6.692   6.548   1.638
 6168TIP3   OH218460   2.066   1.088   6.552
 6168TIP3    H118461   2.070   1.170   6.602
 6168TIP3    H218462   2.138   1.035   6.588
 6169TIP3   OH218463   7.512   2.449   3.168
 6169TIP3    H118464   7.530   2.409   3.083
 6169TIP3    H218465   7.472   2.379   3.219
 6170TIP3   OH218466   3.970   3.168   0.163
 6170TIP3    H118467   3.957   3.204   0.251
 6170TIP3    H218468   4.065   3.163   0.153
 6171TIP3   OH218469   2.170   4.738   4.002
 6171TIP3    H118470   2.136   4.827   3.997
 6171TIP3    H218471   2.261   4.747   4.027
 6172TIP3   OH218472   3.519   4.831   5.396
 6172TIP3    H118473   3.578   4.877   5.456
 6172TIP3    H218474   3.526   4.739   5.422
 6173TIP3   OH218475   5.944   6.371   0.819
 6173TIP3    H118476   5.948   6.467   0.812
 6173TIP3    H218477   6.034   6.342   0.808
 6174TIP3   OH218478   3.743   1.723   6.659
 6174TIP3    H118479   3.671   1.746   6.601
 6174TIP3    H218480   3.822   1.742   6.608
 6175TIP3   OH218481   3.884   4.983   3.110
 6175TIP3    H118482   3.950   4.993   3.042
 6175TIP3    H218483   3.844   5.069   3.119
 6176TIP3   OH218484   1.016   3.164   5.096
 6176TIP3    H118485   0.987   3.114   5.173
 6176TIP3    H218486   1.003   3.256   5.121
 6177TIP3   OH218487   4.219   3.356   2.307
 6177TIP3    H118488   4.218   3.268   2.269
 6177TIP3    H218489   4.127   3.378   2.317
 6178TIP3   OH218490   0.058   7.020   6.197
 6178TIP3    H118491   0.134   6.998   6.251
 6178TIP3    H218492   0.090   7.090   6.140
 6179TIP3   OH218493   3.496   1.111   2.455
 6179TIP3    H118494   3.413   1.092   2.411
 6179TIP3    H218495   3.520   1.029   2.498
 6180TIP3   OH218496   2.049   1.611   6.399
 6180TIP3    H118497   2.071   1.701   6.421
 6180TIP3    H218498   2.125   1.560   6.426
 6181TIP3   OH218499   0.698   1.876   1.636
 6181TIP3    H118500   0.776   1.929   1.622
 6181TIP3    H218501   0.641   1.896   1.562
 6182TIP3   OH218502   0.604   4.042   0.563
 6182TIP3    H118503   0.620   4.133   0.588
 6182TIP3    H218504   0.646   4.032   0.478
 6183TIP3   OH218505   3.891   3.988   0.714
 6183TIP3    H118506   3.797   4.004   0.711
 6183TIP3    H218507   3.902   3.921   0.782
 6184TIP3   OH218508   4.635   4.522   3.695
 6184TIP3    H118509   4.671   4.562   3.775
 6184TIP3    H218510   4.676   4.571   3.624
 6185TIP3   OH218511   8.077   6.619   0.149
 6185TIP3    H118512   8.111   6.707   0.131
 6185TIP3    H218513   8.142   6.580   0.208
 6186TIP3   OH218514   5.636   1.156   5.712
 6186TIP3    H118515   5.648   1.085   5.649
 6186TIP3    H218516   5.664   1.234   5.665
 6187TIP3   OH218517   6.088   3.062   6.198
 6187TIP3    H118518   6.006   3.076   6.151
 6187TIP3    H218519   6.156   3.093   6.138
 6188TIP3   OH218520   0.168   1.103   0.362
 6188TIP3    H118521   0.240   1.147   0.316
 6188TIP3    H218522   0.178   1.131   0.453
 6189TIP3   OH218523   0.001   0.057   4.472
 6189TIP3    H118524   0.045   0.003   4.406
 6189TIP3    H218525   0.013   0.147   4.442
 6190TIP3   OH218526   4.500   0.395   3.986
 6190TIP3    H118527   4.531   0.386   4.076
 6190TIP3    H218528   4.424   0.337   3.982
 6191TIP3   OH218529   0.944   0.748   4.674
 6191TIP3    H118530   0.861   0.751   4.626
 6191TIP3    H218531   0.943   0.663   4.718
 6192TIP3   OH218532   1.710   1.303   1.220
 6192TIP3    H118533   1.678   1.229   1.271
 6192TIP3    H218534   1.744   1.364   1.286
 6193TIP3   OH218535   0.868   6.617   0.445
 6193TIP3    H118536   0.900   6.545   0.500
 6193TIP3    H218537   0.946   6.669   0.427
 6194TIP3   OH218538   5.438   4.172   4.262
 6194TIP3    H118539   5.377   4.126   4.205
 6194TIP3    H218540   5.517   4.117   4.262
 6195TIP3   OH218541   5.691   2.693   4.247
 6195TIP3    H118542   5.701   2.683   4.152
 6195TIP3    H218543   5.597   2.681   4.263
 6196TIP3   OH218544   2.344   6.839   1.547
 6196TIP3    H118545   2.407   6.779   1.508
 6196TIP3    H218546   2.383   6.865   1.630
 6197TIP3   OH218547   7.326   0.846   2.677
 6197TIP3    H118548   7.382   0.860   2.601
 6197TIP3    H218549   7.355   0.762   2.712
 6198TIP3   OH218550   4.148   1.339   0.641
 6198TIP3    H118551   4.144   1.293   0.558
 6198TIP3    H218552   4.133   1.431   0.619
 6199TIP3   OH218553   4.619   2.919   5.322
 6199TIP3    H118554   4.650   3.009   5.318
 6199TIP3    H218555   4.532   2.922   5.284
 6200TIP3   OH218556   1.984   0.751   6.679
 6200TIP3    H118557   2.075   0.774   6.662
 6200TIP3    H218558   1.981   0.731   6.773
 6201TIP3   OH218559   5.594   2.629   4.557
 6201TIP3    H118560   5.620   2.700   4.498
 6201TIP3    H218561   5.499   2.641   4.568
 6202TIP3   OH218562   6.922   4.458   5.613
 6202TIP3    H118563   7.015   4.456   5.636
 6202TIP3    H218564   6.912   4.388   5.549
 6203TIP3   OH218565   2.337   1.958   2.391
 6203TIP3    H118566   2.301   2.039   2.355
 6203TIP3    H218567   2.261   1.900   2.400
 6204TIP3   OH218568   5.911   7.190   1.421
 6204TIP3    H118569   5.892   7.133   1.495
 6204TIP3    H218570   5.833   7.246   1.414
 6205TIP3   OH218571   5.614   3.193   1.838
 6205TIP3    H118572   5.537   3.250   1.848
 6205TIP3    H218573   5.594   3.116   1.891
 6206TIP3   OH218574   0.803   2.912   3.977
 6206TIP3    H118575   0.815   2.817   3.978
 6206TIP3    H218576   0.891   2.948   3.984
 6207TIP3   OH218577   3.580   3.971   4.642
 6207TIP3    H118578   3.633   3.892   4.635
 6207TIP3    H218579   3.539   3.965   4.728
 6208TIP3   OH218580   2.088   4.398   4.344
 6208TIP3    H118581   2.056   4.405   4.254
 6208TIP3    H218582   2.008   4.399   4.397
 6209TIP3   OH218583   4.536   2.625   1.478
 6209TIP3    H118584   4.460   2.570   1.498
 6209TIP3    H218585   4.545   2.619   1.383
 6210TIP3   OH218586   7.105   5.025   5.187
 6210TIP3    H118587   7.137   4.937   5.167
 6210TIP3    H218588   7.182   5.081   5.176
 6211TIP3   OH218589   2.059   0.039   4.642
 6211TIP3    H118590   2.123   0.110   4.653
 6211TIP3    H218591   2.090  -0.007   4.564
 6212TIP3   OH218592   6.572   4.212   3.999
 6212TIP3    H118593   6.600   4.292   3.953
 6212TIP3    H218594   6.508   4.243   4.063
 6213TIP3   OH218595   0.476   1.457   1.198
 6213TIP3    H118596   0.560   1.414   1.188
 6213TIP3    H218597   0.479   1.530   1.136
 6214TIP3   OH218598   5.408   4.248   0.674
 6214TIP3    H118599   5.374   4.165   0.643
 6214TIP3    H218600   5.500   4.231   0.693
 6215TIP3   OH218601   3.790   4.605   4.637
 6215TIP3    H118602   3.745   4.603   4.552
 6215TIP3    H218603   3.810   4.697   4.651
 6216TIP3   OH218604   0.139   7.370   4.075
 6216TIP3    H118605   0.143   7.465   4.089
 6216TIP3    H218606   0.108   7.335   4.159
 6217TIP3   OH218607   6.501   5.934   4.824
 6217TIP3    H118608   6.452   5.853   4.811
 6217TIP3    H218609   6.558   5.915   4.899
 6218TIP3   OH218610   5.537   7.591   5.880
 6218TIP3    H118611   5.485   7.528   5.930
 6218TIP3    H218612   5.538   7.670   5.934
 6219TIP3   OH218613   2.533   5.838   5.764
 6219TIP3    H118614   2.556   5.763   5.710
 6219TIP3    H218615   2.553   5.810   5.854
 6220TIP3   OH218616   1.208   1.144   0.889
 6220TIP3    H118617   1.143   1.210   0.868
 6220TIP3    H218618   1.159   1.061   0.891
 6221TIP3   OH218619   2.299   2.519   2.490
 6221TIP3    H118620   2.291   2.610   2.519
 6221TIP3    H218621   2.348   2.524   2.408
 6222TIP3   OH218622   4.542   0.360   2.351
 6222TIP3    H118623   4.554   0.347   2.257
 6222TIP3    H218624   4.464   0.414   2.358
 6223TIP3   OH218625   1.696   1.973   3.283
 6223TIP3    H118626   1.643   2.052   3.292
 6223TIP3    H218627   1.639   1.912   3.236
 6224TIP3   OH218628   5.238   3.673   3.710
 6224TIP3    H118629   5.150   3.670   3.747
 6224TIP3    H218630   5.292   3.707   3.781
 6225TIP3   OH218631   3.822   1.944   3.156
 6225TIP3    H118632   3.849   1.855   3.181
 6225TIP3    H218633   3.792   1.935   3.065
 6226TIP3   OH218634   6.580   0.070   1.613
 6226TIP3    H118635   6.530   0.143   1.578
 6226TIP3    H218636   6.645   0.051   1.545
 6227TIP3   OH218637   7.930   3.895   0.654
 6227TIP3    H118638   7.871   3.819   0.650
 6227TIP3    H218639   7.920   3.929   0.742
 6228TIP3   OH218640   2.642   6.699   6.057
 6228TIP3    H118641   2.737   6.702   6.051
 6228TIP3    H218642   2.612   6.731   5.972
 6229TIP3   OH218643   0.182   6.424   1.532
 6229TIP3    H118644   0.093   6.459   1.535
 6229TIP3    H218645   0.199   6.407   1.439
 6230TIP3   OH218646   7.131   6.655   3.340
 6230TIP3    H118647   7.063   6.661   3.406
 6230TIP3    H218648   7.087   6.677   3.258
 6231TIP3   OH218649   3.033   6.219   5.237
 6231TIP3    H118650   3.104   6.253   5.183
 6231TIP3    H218651   2.972   6.179   5.175
 6232TIP3   OH218652   7.742   1.932   0.543
 6232TIP3    H118653   7.748   2.016   0.497
 6232TIP3    H218654   7.678   1.882   0.492
 6233TIP3   OH218655   6.069   0.275   6.274
 6233TIP3    H118656   6.027   0.202   6.320
 6233TIP3    H218657   6.071   0.346   6.339
 6234TIP3   OH218658   7.860   5.027   4.010
 6234TIP3    H118659   7.867   4.956   3.946
 6234TIP3    H218660   7.930   5.088   3.985
 6235TIP3   OH218661   7.998   6.176   0.961
 6235TIP3    H118662   8.043   6.139   1.037
 6235TIP3    H218663   7.959   6.257   0.993
 6236TIP3   OH218664   8.032   2.465   4.778
 6236TIP3    H118665   8.064   2.525   4.846
 6236TIP3    H218666   7.978   2.402   4.825
 6237TIP3   OH218667   2.457   0.148   3.022
 6237TIP3    H118668   2.457   0.096   2.942
 6237TIP3    H218669   2.541   0.128   3.064
 6238TIP3   OH218670   6.798   0.096   3.623
 6238TIP3    H118671   6.767   0.014   3.584
 6238TIP3    H218672   6.790   0.083   3.717
 6239TIP3   OH218673   4.850   6.401   5.009
 6239TIP3    H118674   4.796   6.442   5.077
 6239TIP3    H218675   4.796   6.404   4.930
 6240TIP3   OH218676   5.594   6.605   2.913
 6240TIP3    H118677   5.636   6.556   2.983
 6240TIP3    H218678   5.593   6.695   2.944
 6241TIP3   OH218679   7.118   7.380   1.698
 6241TIP3    H118680   7.063   7.320   1.749
 6241TIP3    H218681   7.162   7.324   1.635
 6242TIP3   OH218682   1.355   7.800   0.082
 6242TIP3    H118683   1.426   7.792   0.145
 6242TIP3    H218684   1.372   7.731   0.018
 6243TIP3   OH218685   8.066   0.399   0.692
 6243TIP3    H118686   8.028   0.464   0.634
 6243TIP3    H218687   8.039   0.427   0.780
 6244TIP3   OH218688   3.326   3.770   5.297
 6244TIP3    H118689   3.330   3.769   5.392
 6244TIP3    H218690   3.369   3.852   5.272
 6245TIP3   OH218691   5.484   5.583   5.995
 6245TIP3    H118692   5.440   5.547   5.918
 6245TIP3    H218693   5.440   5.542   6.069
 6246TIP3   OH218694   4.481   0.681   2.660
 6246TIP3    H118695   4.523   0.765   2.643
 6246TIP3    H218696   4.554   0.623   2.685
 6247TIP3   OH218697   5.853   1.623   3.493
 6247TIP3    H118698   5.783   1.589   3.437
 6247TIP3    H218699   5.808   1.680   3.556
 6248TIP3   OH218700   5.570   6.157   6.327
 6248TIP3    H118701   5.508   6.087   6.307
 6248TIP3    H218702   5.637   6.150   6.259
 6249TIP3   OH218703   3.258   6.523   4.008
 6249TIP3    H118704   3.241   6.469   3.931
 6249TIP3    H218705   3.171   6.546   4.041
 6250TIP3   OH218706   0.021   0.668   6.051
 6250TIP3    H118707   0.035   0.754   6.011
 6250TIP3    H218708   0.109   0.632   6.063
 6251TIP3   OH218709   1.702   0.374   1.312
 6251TIP3    H118710   1.633   0.313   1.338
 6251TIP3    H218711   1.695   0.446   1.375
 6252TIP3   OH218712   1.173   4.585   4.143
 6252TIP3    H118713   1.097   4.565   4.089
 6252TIP3    H218714   1.153   4.669   4.183
 6253TIP3   OH218715   3.131   4.801   0.113
 6253TIP3    H118716   3.170   4.810   0.200
 6253TIP3    H218717   3.038   4.785   0.130
 6254TIP3   OH218718   2.538   5.295   6.552
 6254TIP3    H118719   2.621   5.327   6.517
 6254TIP3    H218720   2.546   5.305   6.647
 6255TIP3   OH218721   1.905   6.375   0.079
 6255TIP3    H118722   1.895   6.357  -0.015
 6255TIP3    H218723   1.854   6.307   0.122
 6256TIP3   OH218724   8.136   0.438   2.380
 6256TIP3    H118725   8.084   0.509   2.420
 6256TIP3    H218726   8.125   0.365   2.441
 6257TIP3   OH218727   5.523   2.445   1.130
 6257TIP3    H118728   5.561   2.526   1.095
 6257TIP3    H218729   5.565   2.375   1.080
 6258TIP3   OH218730   7.220   2.848   0.552
 6258TIP3    H118731   7.261   2.925   0.592
 6258TIP3    H218732   7.129   2.852   0.580
 6259TIP3   OH218733   3.838   0.714   1.821
 6259TIP3    H118734   3.921   0.758   1.839
 6259TIP3    H218735   3.795   0.708   1.906
 6260TIP3   OH218736   4.513   6.618   3.429
 6260TIP3    H118737   4.436   6.574   3.464
 6260TIP3    H218738   4.583   6.552   3.434
 6261TIP3   OH218739   2.645   2.212   6.107
 6261TIP3    H118740   2.714   2.157   6.143
 6261TIP3    H218741   2.565   2.162   6.120
 6262TIP3   OH218742   6.613   4.958   6.432
 6262TIP3    H118743   6.685   5.014   6.401
 6262TIP3    H218744   6.543   4.972   6.368
 6263TIP3   OH218745   4.071   7.781   5.998
 6263TIP3    H118746   4.151   7.769   5.947
 6263TIP3    H218747   4.000   7.769   5.934
 6264TIP3   OH218748   3.598   0.475   6.113
 6264TIP3    H118749   3.592   0.380   6.122
 6264TIP3    H218750   3.537   0.509   6.178
 6265TIP3   OH218751   6.464   4.434   2.702
 6265TIP3    H118752   6.495   4.416   2.614
 6265TIP3    H218753   6.528   4.495   2.739
 6266TIP3   OH218754   7.106   4.904   4.165
 6266TIP3    H118755   7.051   4.893   4.088
 6266TIP3    H218756   7.102   4.820   4.210
 6267TIP3   OH218757   7.669   1.996   3.731
 6267TIP3    H118758   7.677   1.916   3.782
 6267TIP3    H218759   7.733   2.055   3.771
 6268TIP3   OH218760   0.052   2.702   0.284
 6268TIP3    H118761   0.030   2.758   0.359
 6268TIP3    H218762   0.130   2.654   0.312
 6269TIP3   OH218763   5.829   2.834   6.516
 6269TIP3    H118764   5.827   2.766   6.583
 6269TIP3    H218765   5.759   2.894   6.540
 6270TIP3   OH218766   7.741   0.064   0.963
 6270TIP3    H118767   7.778   0.090   0.879
 6270TIP3    H218768   7.786   0.117   1.028
 6271TIP3   OH218769   7.472   5.321   0.421
 6271TIP3    H118770   7.386   5.281   0.435
 6271TIP3    H218771   7.464   5.409   0.458
 6272TIP3   OH218772   7.437   2.227   2.826
 6272TIP3    H118773   7.405   2.264   2.743
 6272TIP3    H218774   7.446   2.133   2.809
 6273TIP3   OH218775   4.877   2.302   4.968
 6273TIP3    H118776   4.863   2.210   4.990
 6273TIP3    H218777   4.796   2.346   4.994
 6274TIP3   OH218778   1.512   0.561   6.687
 6274TIP3    H118779   1.522   0.620   6.613
 6274TIP3    H218780   1.550   0.478   6.657
 6275TIP3   OH218781   3.041   4.190   2.426
 6275TIP3    H118782   2.949   4.209   2.443
 6275TIP3    H218783   3.077   4.169   2.512
 6276TIP3   OH218784   4.843   5.646   5.925
 6276TIP3    H118785   4.823   5.556   5.900
 6276TIP3    H218786   4.881   5.638   6.013
 6277TIP3   OH218787   4.746   4.194   3.867
 6277TIP3    H118788   4.820   4.254   3.877
 6277TIP3    H218789   4.784   4.106   3.874
 6278TIP3   OH218790   5.928   2.952   3.755
 6278TIP3    H118791   5.904   2.934   3.664
 6278TIP3    H218792   6.021   2.933   3.760
 6279TIP3   OH218793   2.589   0.852   5.983
 6279TIP3    H118794   2.582   0.884   6.073
 6279TIP3    H218795   2.586   0.756   5.992
 6280TIP3   OH218796   4.759   3.724   0.165
 6280TIP3    H118797   4.829   3.659   0.170
 6280TIP3    H218798   4.680   3.676   0.186
 6281TIP3   OH218799   5.257   5.904   1.061
 6281TIP3    H118800   5.163   5.923   1.056
 6281TIP3    H218801   5.289   5.919   0.972
 6282TIP3   OH218802   0.562   7.062   0.464
 6282TIP3    H118803   0.602   7.059   0.551
 6282TIP3    H218804   0.544   6.970   0.443
 6283TIP3   OH218805   7.976   5.934   1.509
 6283TIP3    H118806   7.993   5.870   1.441
 6283TIP3    H218807   7.951   6.014   1.461
 6284TIP3   OH218808   0.684   1.673   5.668
 6284TIP3    H118809   0.716   1.651   5.581
 6284TIP3    H218810   0.689   1.591   5.717
 6285TIP3   OH218811   4.459   4.823   2.847
 6285TIP3    H118812   4.402   4.900   2.849
 6285TIP3    H218813   4.542   4.856   2.814
 6286TIP3   OH218814   0.400   1.855   4.896
 6286TIP3    H118815   0.340   1.840   4.823
 6286TIP3    H218816   0.375   1.941   4.929
 6287TIP3   OH218817   6.944   5.155   6.130
 6287TIP3    H118818   7.031   5.130   6.098
 6287TIP3    H218819   6.886   5.139   6.056
 6288TIP3   OH218820   5.921   5.852   1.249
 6288TIP3    H118821   6.008   5.872   1.284
 6288TIP3    H218822   5.935   5.838   1.156
 6289TIP3   OH218823   5.293   2.613   1.288
 6289TIP3    H118824   5.274   2.522   1.267
 6289TIP3    H218825   5.210   2.658   1.278
 6290TIP3   OH218826   0.672   1.274   4.496
 6290TIP3    H118827   0.722   1.293   4.416
 6290TIP3    H218828   0.730   1.220   4.549
 6291TIP3   OH218829   5.727   5.632   4.697
 6291TIP3    H118830   5.651   5.690   4.687
 6291TIP3    H218831   5.735   5.589   4.613
 6292TIP3   OH218832   5.772   1.569   0.264
 6292TIP3    H118833   5.794   1.620   0.342
 6292TIP3    H218834   5.854   1.526   0.240
 6293TIP3   OH218835   1.936   6.337   2.378
 6293TIP3    H118836   1.841   6.333   2.394
 6293TIP3    H218837   1.944   6.321   2.284
 6294TIP3   OH218838   4.539   2.940   3.404
 6294TIP3    H118839   4.593   2.879   3.454
 6294TIP3    H218840   4.496   2.884   3.339
 6295TIP3   OH218841   0.294   3.347   2.758
 6295TIP3    H118842   0.202   3.329   2.739
 6295TIP3    H218843   0.295   3.436   2.794
 6296TIP3   OH218844   1.297   5.108   0.130
 6296TIP3    H118845   1.292   5.202   0.150
 6296TIP3    H218846   1.390   5.087   0.133
 6297TIP3   OH218847   1.002   0.465   1.903
 6297TIP3    H118848   0.910   0.454   1.924
 6297TIP3    H218849   1.042   0.494   1.985
 6298TIP3   OH218850   4.459   5.060   1.460
 6298TIP3    H118851   4.450   4.971   1.494
 6298TIP3    H218852   4.387   5.070   1.398
 6299TIP3   OH218853   5.464   1.452   2.314
 6299TIP3    H118854   5.512   1.392   2.372
 6299TIP3    H218855   5.372   1.441   2.339
 6300TIP3   OH218856   7.980   1.941   4.639
 6300TIP3    H118857   7.899   1.913   4.680
 6300TIP3    H218858   8.035   1.971   4.712
 6301TIP3   OH218859   7.817   5.236   0.646
 6301TIP3    H118860   7.896   5.207   0.691
 6301TIP3    H218861   7.794   5.163   0.588
 6302TIP3   OH218862   2.622   4.671   1.467
 6302TIP3    H118863   2.690   4.703   1.527
 6302TIP3    H218864   2.551   4.643   1.525
 6303TIP3   OH218865   3.889   7.396   0.915
 6303TIP3    H118866   3.840   7.398   0.998
 6303TIP3    H218867   3.836   7.449   0.855
 6304TIP3   OH218868   2.949   3.850   1.302
 6304TIP3    H118869   2.896   3.848   1.382
 6304TIP3    H218870   3.040   3.856   1.333
 6305TIP3   OH218871   5.140   2.108   0.336
 6305TIP3    H118872   5.127   2.020   0.300
 6305TIP3    H218873   5.199   2.151   0.273
 6306TIP3   OH218874   6.540   2.992   3.708
 6306TIP3    H118875   6.538   3.048   3.630
 6306TIP3    H218876   6.585   2.913   3.679
 6307TIP3   OH218877   4.999   7.012   2.936
 6307TIP3    H118878   5.070   7.020   2.872
 6307TIP3    H218879   4.919   7.023   2.885
 6308TIP3   OH218880   6.923   7.757   4.600
 6308TIP3    H118881   6.838   7.801   4.603
 6308TIP3    H218882   6.903   7.667   4.578
 6309TIP3   OH218883   0.403   1.965   6.201
 6309TIP3    H118884   0.360   2.022   6.266
 6309TIP3    H218885   0.466   2.023   6.157
 6310TIP3   OH218886   1.018   4.484   0.279
 6310TIP3    H118887   0.926   4.511   0.270
 6310TIP3    H218888   1.035   4.490   0.373
 6311TIP3   OH218889   2.377   4.065   4.620
 6311TIP3    H118890   2.418   4.151   4.626
 6311TIP3    H218891   2.350   4.058   4.528
 6312TIP3   OH218892   4.461   1.651   4.486
 6312TIP3    H118893   4.376   1.691   4.501
 6312TIP3    H218894   4.517   1.684   4.557
 6313TIP3   OH218895   2.402   0.971   3.498
 6313TIP3    H118896   2.452   0.890   3.512
 6313TIP3    H218897   2.441   1.033   3.559
 6314TIP3   OH218898   5.470   1.487   1.464
 6314TIP3    H118899   5.477   1.561   1.403
 6314TIP3    H218900   5.431   1.417   1.413
 6315TIP3   OH218901   2.545   5.030   3.900
 6315TIP3    H118902   2.615   5.064   3.843
 6315TIP3    H218903   2.506   4.959   3.850
 6316TIP3   OH218904   6.329   3.644   5.736
 6316TIP3    H118905   6.347   3.730   5.698
 6316TIP3    H218906   6.415   3.603   5.745
 6317TIP3   OH218907   8.047   5.070   4.424
 6317TIP3    H118908   7.983   5.000   4.436
 6317TIP3    H218909   8.083   5.055   4.337
 6318TIP3   OH218910   0.739   0.018   1.377
 6318TIP3    H118911   0.656  -0.008   1.417
 6318TIP3    H218912   0.713   0.069   1.300
 6319TIP3   OH218913   3.995   2.416   5.568
 6319TIP3    H118914   4.027   2.328   5.588
 6319TIP3    H218915   3.994   2.461   5.653
 6320TIP3   OH218916   1.053   3.764   2.202
 6320TIP3    H118917   1.148   3.773   2.204
 6320TIP3    H218918   1.021   3.844   2.245
 6321TIP3   OH218919   2.768   5.524   4.051
 6321TIP3    H118920   2.676   5.499   4.064
 6321TIP3    H218921   2.818   5.450   4.087
 6322TIP3   OH218922   6.304   3.367   6.745
 6322TIP3    H118923   6.294   3.276   6.771
 6322TIP3    H218924   6.221   3.389   6.701
 6323TIP3   OH218925   5.421   1.681   1.276
 6323TIP3    H118926   5.456   1.703   1.190
 6323TIP3    H218927   5.335   1.722   1.279
 6324TIP3   OH218928   1.713   2.169   6.504
 6324TIP3    H118929   1.686   2.260   6.519
 6324TIP3    H218930   1.632   2.119   6.514
 6325TIP3   OH218931   0.903   2.626   6.237
 6325TIP3    H118932   0.893   2.586   6.151
 6325TIP3    H218933   0.992   2.603   6.264
 6326TIP3   OH218934   1.238   0.899   5.475
 6326TIP3    H118935   1.247   0.919   5.382
 6326TIP3    H218936   1.204   0.809   5.476
 6327TIP3   OH218937   5.370   6.028   5.962
 6327TIP3    H118938   5.455   6.068   5.942
 6327TIP3    H218939   5.316   6.047   5.885
 6328TIP3   OH218940   5.537   0.190   5.429
 6328TIP3    H118941   5.616   0.229   5.391
 6328TIP3    H218942   5.547   0.096   5.414
 6329TIP3   OH218943   3.532   6.624   2.019
 6329TIP3    H118944   3.536   6.536   2.058
 6329TIP3    H218945   3.474   6.613   1.943
 6330TIP3   OH218946   5.417   7.534   4.475
 6330TIP3    H118947   5.503   7.532   4.517
 6330TIP3    H218948   5.355   7.536   4.547
 6331TIP3   OH218949   2.996   2.736   5.040
 6331TIP3    H118950   3.032   2.680   5.109
 6331TIP3    H218951   2.903   2.715   5.037
 6332TIP3   OH218952   5.260   6.569   6.653
 6332TIP3    H118953   5.355   6.581   6.663
 6332TIP3    H218954   5.247   6.475   6.663
 6333TIP3   OH218955   7.138   5.711   3.656
 6333TIP3    H118956   7.216   5.732   3.707
 6333TIP3    H218957   7.074   5.776   3.683
 6334TIP3   OH218958   0.971   0.149   3.684
 6334TIP3    H118959   0.935   0.234   3.658
 6334TIP3    H218960   1.003   0.111   3.602
 6335TIP3   OH218961   1.472   2.270   0.196
 6335TIP3    H118962   1.483   2.250   0.289
 6335TIP3    H218963   1.527   2.347   0.182
 6336TIP3   OH218964   0.782   1.117   3.008
 6336TIP3    H118965   0.859   1.139   2.956
 6336TIP3    H218966   0.726   1.066   2.948
 6337TIP3   OH218967   3.497   4.491   1.925
 6337TIP3    H118968   3.460   4.533   2.002
 6337TIP3    H218969   3.493   4.558   1.857
 6338TIP3   OH218970   3.215   2.914   0.610
 6338TIP3    H118971   3.242   2.951   0.526
 6338TIP3    H218972   3.121   2.899   0.600
 6339TIP3   OH218973   1.419   1.571   2.487
 6339TIP3    H118974   1.367   1.616   2.421
 6339TIP3    H218975   1.489   1.634   2.508
 6340TIP3   OH218976   0.100   3.164   0.952
 6340TIP3    H118977   0.118   3.241   1.005
 6340TIP3    H218978   0.013   3.136   0.980
 6341TIP3   OH218979   4.869   2.443   3.184
 6341TIP3    H118980   4.801   2.507   3.202
 6341TIP3    H218981   4.826   2.358   3.192
 6342TIP3   OH218982   2.300   3.561   2.714
 6342TIP3    H118983   2.311   3.653   2.737
 6342TIP3    H218984   2.225   3.560   2.655
 6343TIP3   OH218985   5.136   4.941   5.066
 6343TIP3    H118986   5.208   4.977   5.015
 6343TIP3    H218987   5.072   4.912   5.001
 6344TIP3   OH218988   5.817   4.556   4.171
 6344TIP3    H118989   5.894   4.514   4.208
 6344TIP3    H218990   5.746   4.533   4.232
 6345TIP3   OH218991   4.092   7.762   3.342
 6345TIP3    H118992   4.042   7.720   3.413
 6345TIP3    H218993   4.030   7.822   3.301
 6346TIP3   OH218994   3.934   5.193   1.407
 6346TIP3    H118995   3.930   5.219   1.315
 6346TIP3    H218996   3.868   5.124   1.415
 6347TIP3   OH218997   6.644   6.305   6.155
 6347TIP3    H118998   6.582   6.235   6.177
 6347TIP3    H218999   6.588   6.377   6.126
 6348TIP3   OH219000   7.484   7.657   3.995
 6348TIP3    H119001   7.450   7.727   3.940
 6348TIP3    H219002   7.414   7.637   4.056
 6349TIP3   OH219003   0.203   2.102   1.589
 6349TIP3    H119004   0.127   2.096   1.647
 6349TIP3    H219005   0.274   2.061   1.639
 6350TIP3   OH219006   3.596   1.742  -0.015
 6350TIP3    H119007   3.588   1.654   0.022
 6350TIP3    H219008   3.687   1.747  -0.044
 6351TIP3   OH219009   2.903   5.498   5.640
 6351TIP3    H119010   2.886   5.571   5.582
 6351TIP3    H219011   2.943   5.537   5.718
 6352TIP3   OH219012   0.631   7.092   5.853
 6352TIP3    H119013   0.654   7.167   5.906
 6352TIP3    H219014   0.578   7.128   5.782
 6353TIP3   OH219015   0.778   5.441   5.005
 6353TIP3    H119016   0.714   5.494   5.053
 6353TIP3    H219017   0.792   5.364   5.060
 6354TIP3   OH219018   3.052   4.949   1.543
 6354TIP3    H119019   3.040   5.037   1.506
 6354TIP3    H219020   3.023   4.890   1.474
 6355TIP3   OH219021   5.824   6.059   1.413
 6355TIP3    H119022   5.748   6.038   1.467
 6355TIP3    H219023   5.828   5.987   1.349
 6356TIP3   OH219024   5.044   2.510   3.687
 6356TIP3    H119025   5.119   2.570   3.683
 6356TIP3    H219026   5.033   2.480   3.597
 6357TIP3   OH219027   8.173   1.142   6.688
 6357TIP3    H119028   8.111   1.104   6.625
 6357TIP3    H219029   8.205   1.068   6.739
 6358TIP3   OH219030   7.732   6.217   5.454
 6358TIP3    H119031   7.808   6.244   5.401
 6358TIP3    H219032   7.658   6.261   5.412
 6359TIP3   OH219033   4.446   5.850   4.912
 6359TIP3    H119034   4.438   5.830   5.006
 6359TIP3    H219035   4.379   5.795   4.871
 6360TIP3   OH219036   5.234   5.477   4.979
 6360TIP3    H119037   5.276   5.422   5.044
 6360TIP3    H219038   5.141   5.474   5.000
 6361TIP3   OH219039   8.245   7.061   4.108
 6361TIP3    H119040   8.282   7.004   4.175
 6361TIP3    H219041   8.178   7.008   4.065
 6362TIP3   OH219042   2.961   7.585   0.398
 6362TIP3    H119043   3.006   7.663   0.428
 6362TIP3    H219044   2.987   7.575   0.307
 6363TIP3   OH219045   5.731   4.742   4.407
 6363TIP3    H119046   5.824   4.764   4.415
 6363TIP3    H219047   5.701   4.792   4.330
 6364TIP3   OH219048   0.405   0.545   0.695
 6364TIP3    H119049   0.459   0.529   0.773
 6364TIP3    H219050   0.465   0.587   0.633
 6365TIP3   OH219051   6.919   3.276   1.048
 6365TIP3    H119052   6.956   3.364   1.057
 6365TIP3    H219053   6.957   3.243   0.966
 6366TIP3   OH219054   0.734   2.461   4.302
 6366TIP3    H119055   0.730   2.507   4.386
 6366TIP3    H219056   0.675   2.386   4.313
 6367TIP3   OH219057   5.410   3.510   2.494
 6367TIP3    H119058   5.472   3.442   2.517
 6367TIP3    H219059   5.437   3.539   2.406
 6368TIP3   OH219060   6.007   6.959   1.295
 6368TIP3    H119061   5.991   7.043   1.339
 6368TIP3    H219062   5.953   6.896   1.343
 6369TIP3   OH219063   8.330   5.550   3.368
 6369TIP3    H119064   8.318   5.562   3.462
 6369TIP3    H219065   8.241   5.537   3.334
 6370TIP3   OH219066   7.988   4.983   2.959
 6370TIP3    H119067   7.980   4.960   3.052
 6370TIP3    H219068   7.956   5.073   2.954
 6371TIP3   OH219069   0.893   1.543   0.580
 6371TIP3    H119070   0.912   1.504   0.665
 6371TIP3    H219071   0.842   1.621   0.600
 6372TIP3   OH219072   3.458   0.126   3.944
 6372TIP3    H119073   3.405   0.093   3.871
 6372TIP3    H219074   3.394   0.156   4.008
 6373TIP3   OH219075   0.147   4.262   4.858
 6373TIP3    H119076   0.237   4.241   4.832
 6373TIP3    H219077   0.146   4.357   4.866
 6374TIP3   OH219078   3.415   2.595   3.376
 6374TIP3    H119079   3.417   2.518   3.320
 6374TIP3    H219080   3.328   2.632   3.364
 6375TIP3   OH219081   5.010   2.848   2.766
 6375TIP3    H119082   4.934   2.810   2.723
 6375TIP3    H219083   5.053   2.899   2.696
 6376TIP3   OH219084   0.644   1.177   0.202
 6376TIP3    H119085   0.715   1.134   0.250
 6376TIP3    H219086   0.631   1.260   0.249
 6377TIP3   OH219087   3.412   7.298   4.083
 6377TIP3    H119088   3.365   7.382   4.076
 6377TIP3    H219089   3.362   7.249   4.148
 6378TIP3   OH219090   4.756   0.877   6.119
 6378TIP3    H119091   4.716   0.892   6.033
 6378TIP3    H219092   4.802   0.959   6.139
 6379TIP3   OH219093   4.853   1.999   2.174
 6379TIP3    H119094   4.930   2.037   2.132
 6379TIP3    H219095   4.844   1.912   2.135
 6380TIP3   OH219096   6.948   1.174   3.133
 6380TIP3    H119097   6.905   1.213   3.209
 6380TIP3    H219098   6.974   1.087   3.162
 6381TIP3   OH219099   7.908   5.812   0.842
 6381TIP3    H119100   7.875   5.901   0.857
 6381TIP3    H219101   7.834   5.766   0.803
 6382TIP3   OH219102   0.841   2.668   2.817
 6382TIP3    H119103   0.781   2.692   2.887
 6382TIP3    H219104   0.908   2.614   2.859
 6383TIP3   OH219105   0.374   3.269   0.554
 6383TIP3    H119106   0.290   3.299   0.589
 6383TIP3    H219107   0.424   3.245   0.631
 6384TIP3   OH219108   4.955   0.359   0.283
 6384TIP3    H119109   5.011   0.387   0.211
 6384TIP3    H219110   4.987   0.272   0.307
 6385TIP3   OH219111   0.999   5.383   1.929
 6385TIP3    H119112   0.903   5.380   1.926
 6385TIP3    H219113   1.020   5.387   2.022
 6386TIP3   OH219114   0.555   4.748   2.353
 6386TIP3    H119115   0.613   4.824   2.349
 6386TIP3    H219116   0.477   4.779   2.398
 6387TIP3   OH219117   3.568   0.603   4.420
 6387TIP3    H119118   3.556   0.639   4.508
 6387TIP3    H219119   3.600   0.514   4.435
 6388TIP3   OH219120   4.478   4.282   2.974
 6388TIP3    H119121   4.491   4.254   3.065
 6388TIP3    H219122   4.494   4.203   2.922
 6389TIP3   OH219123   4.070   6.734   1.815
 6389TIP3    H119124   4.027   6.817   1.793
 6389TIP3    H219125   4.003   6.685   1.863
 6390TIP3   OH219126   7.276   4.924   3.128
 6390TIP3    H119127   7.365   4.896   3.149
 6390TIP3    H219128   7.279   4.946   3.034
 6391TIP3   OH219129   3.802   4.946   6.531
 6391TIP3    H119130   3.780   4.857   6.558
 6391TIP3    H219131   3.874   4.936   6.468
 6392TIP3   OH219132   0.405   1.824   6.438
 6392TIP3    H119133   0.348   1.899   6.451
 6392TIP3    H219134   0.429   1.828   6.345
 6393TIP3   OH219135   4.364   7.340   4.977
 6393TIP3    H119136   4.419   7.418   4.973
 6393TIP3    H219137   4.344   7.321   4.885
 6394TIP3   OH219138   1.522   7.070   2.718
 6394TIP3    H119139   1.529   7.071   2.623
 6394TIP3    H219140   1.608   7.100   2.749
 6395TIP3   OH219141   1.650   5.152   0.875
 6395TIP3    H119142   1.710   5.161   0.800
 6395TIP3    H219143   1.663   5.234   0.924
 6396TIP3   OH219144   5.466   2.958   1.946
 6396TIP3    H119145   5.409   2.918   1.881
 6396TIP3    H219146   5.417   3.035   1.977
 6397TIP3   OH219147   5.911   0.911   2.148
 6397TIP3    H119148   5.816   0.905   2.157
 6397TIP3    H219149   5.945   0.837   2.198
 6398TIP3   OH219150   6.252   1.667   5.204
 6398TIP3    H119151   6.254   1.671   5.299
 6398TIP3    H219152   6.308   1.593   5.182
 6399TIP3   OH219153   6.880   5.097   0.432
 6399TIP3    H119154   6.913   5.019   0.386
 6399TIP3    H219155   6.869   5.162   0.362
 6400TIP3   OH219156   4.153   6.464   1.629
 6400TIP3    H119157   4.086   6.405   1.594
 6400TIP3    H219158   4.107   6.516   1.696
 6401TIP3   OH219159   5.935   6.427   0.087
 6401TIP3    H119160   5.880   6.428   0.008
 6401TIP3    H219161   6.004   6.491   0.069
 6402TIP3   OH219162   4.886   3.718   3.457
 6402TIP3    H119163   4.887   3.624   3.475
 6402TIP3    H219164   4.956   3.731   3.393
 6403TIP3   OH219165   7.177   1.147   2.270
 6403TIP3    H119166   7.266   1.113   2.270
 6403TIP3    H219167   7.185   1.238   2.300
 6404TIP3   OH219168   6.393   5.803   5.160
 6404TIP3    H119169   6.460   5.847   5.108
 6404TIP3    H219170   6.411   5.829   5.250
 6405TIP3   OH219171   3.211   6.818   5.812
 6405TIP3    H119172   3.267   6.886   5.849
 6405TIP3    H219173   3.250   6.735   5.841
 6406TIP3   OH219174   2.443   0.789   4.895
 6406TIP3    H119175   2.374   0.825   4.951
 6406TIP3    H219176   2.514   0.766   4.955
 6407TIP3   OH219177   1.852   1.051   2.926
 6407TIP3    H119178   1.892   1.056   3.013
 6407TIP3    H219179   1.799   0.971   2.929
 6408TIP3   OH219180   6.616   4.466   0.271
 6408TIP3    H119181   6.545   4.474   0.335
 6408TIP3    H219182   6.678   4.406   0.312
 6409TIP3   OH219183   6.325   4.004   3.932
 6409TIP3    H119184   6.267   4.079   3.927
 6409TIP3    H219185   6.412   4.042   3.948
 6410TIP3   OH219186   7.862   5.506   1.544
 6410TIP3    H119187   7.790   5.446   1.560
 6410TIP3    H219188   7.896   5.481   1.458
 6411TIP3   OH219189   5.076   0.853   5.146
 6411TIP3    H119190   4.998   0.909   5.136
 6411TIP3    H219191   5.043   0.772   5.184
 6412TIP3   OH219192   4.692   5.197   1.447
 6412TIP3    H119193   4.597   5.186   1.443
 6412TIP3    H219194   4.712   5.203   1.540
 6413TIP3   OH219195   4.560   4.140   3.204
 6413TIP3    H119196   4.600   4.216   3.246
 6413TIP3    H219197   4.601   4.065   3.246
 6414TIP3   OH219198   5.583   1.621   5.167
 6414TIP3    H119199   5.609   1.579   5.085
 6414TIP3    H219200   5.516   1.685   5.142
 6415TIP3   OH219201   4.343   4.806   5.897
 6415TIP3    H119202   4.288   4.874   5.935
 6415TIP3    H219203   4.324   4.809   5.803
 6416TIP3   OH219204   6.189   3.056   0.808
 6416TIP3    H119205   6.227   3.142   0.825
 6416TIP3    H219206   6.181   3.051   0.713
 6417TIP3   OH219207   1.821   3.209   2.892
 6417TIP3    H119208   1.889   3.273   2.911
 6417TIP3    H219209   1.775   3.197   2.975
 6418TIP3   OH219210   5.109   3.587   1.731
 6418TIP3    H119211   5.056   3.591   1.810
 6418TIP3    H219212   5.048   3.555   1.664
 6419TIP3   OH219213   7.193   0.420   3.098
 6419TIP3    H119214   7.198   0.492   3.160
 6419TIP3    H219215   7.175   0.462   3.014
 6420TIP3   OH219216   7.204   6.282   4.210
 6420TIP3    H119217   7.256   6.247   4.282
 6420TIP3    H219218   7.130   6.325   4.253
 6421TIP3   OH219219   5.841   7.393   5.868
 6421TIP3    H119220   5.759   7.443   5.862
 6421TIP3    H219221   5.812   7.302   5.877
 6422TIP3   OH219222   7.020   3.791   0.087
 6422TIP3    H119223   6.995   3.825   0.000
 6422TIP3    H219224   6.944   3.808   0.142
 6423TIP3   OH219225   4.470   4.366   5.266
 6423TIP3    H119226   4.398   4.423   5.291
 6423TIP3    H219227   4.508   4.337   5.348
 6424TIP3   OH219228   2.434   1.302   5.914
 6424TIP3    H119229   2.384   1.344   5.984
 6424TIP3    H219230   2.482   1.373   5.873
 6425TIP3   OH219231   8.151   0.041   1.436
 6425TIP3    H119232   8.095  -0.003   1.499
 6425TIP3    H219233   8.221   0.079   1.490
 6426TIP3   OH219234   6.283   5.007   2.886
 6426TIP3    H119235   6.343   5.072   2.850
 6426TIP3    H219236   6.201   5.055   2.897
 6427TIP3   OH219237   0.396   7.029   3.762
 6427TIP3    H119238   0.381   6.936   3.781
 6427TIP3    H219239   0.437   7.064   3.841
 6428TIP3   OH219240   5.741   3.275   3.565
 6428TIP3    H119241   5.707   3.223   3.492
 6428TIP3    H219242   5.821   3.314   3.531
 6429TIP3   OH219243   1.689   4.910   0.523
 6429TIP3    H119244   1.717   5.001   0.525
 6429TIP3    H219245   1.624   4.906   0.453
 6430TIP3   OH219246   7.093   3.290   2.964
 6430TIP3    H119247   7.020   3.308   3.023
 6430TIP3    H219248   7.059   3.307   2.877
 6431TIP3   OH219249   7.375   2.910   4.495
 6431TIP3    H119250   7.418   2.976   4.441
 6431TIP3    H219251   7.432   2.833   4.489
 6432TIP3   OH219252   1.627   4.985   2.554
 6432TIP3    H119253   1.618   5.001   2.461
 6432TIP3    H219254   1.679   5.058   2.587
 6433TIP3   OH219255   4.707   0.433   0.208
 6433TIP3    H119256   4.666   0.437   0.294
 6433TIP3    H219257   4.800   0.416   0.226
 6434TIP3   OH219258   1.447   0.782   3.175
 6434TIP3    H119259   1.368   0.791   3.122
 6434TIP3    H219260   1.497   0.711   3.134
 6435TIP3   OH219261   5.069   7.262   3.499
 6435TIP3    H119262   5.059   7.346   3.543
 6435TIP3    H219263   5.032   7.275   3.412
 6436TIP3   OH219264   6.659   7.332   6.282
 6436TIP3    H119265   6.674   7.307   6.191
 6436TIP3    H219266   6.613   7.416   6.276
 6437TIP3   OH219267   5.589   5.817   5.361
 6437TIP3    H119268   5.675   5.785   5.336
 6437TIP3    H219269   5.529   5.777   5.298
 6438TIP3   OH219270   4.565   2.895   2.973
 6438TIP3    H119271   4.570   2.953   3.049
 6438TIP3    H219272   4.653   2.860   2.963
 6439TIP3   OH219273   3.941   5.026   4.398
 6439TIP3    H119274   3.991   5.028   4.316
 6439TIP3    H219275   3.895   4.943   4.396
 6440TIP3   OH219276   1.491   4.080   2.699
 6440TIP3    H119277   1.398   4.071   2.680
 6440TIP3    H219278   1.530   4.001   2.662
 6441TIP3   OH219279   3.540   5.635   5.842
 6441TIP3    H119280   3.561   5.615   5.933
 6441TIP3    H219281   3.445   5.625   5.836
 6442TIP3   OH219282   7.651   0.099   4.846
 6442TIP3    H119283   7.730   0.045   4.849
 6442TIP3    H219284   7.684   0.189   4.840
 6443TIP3   OH219285   3.481   5.312   6.177
 6443TIP3    H119286   3.505   5.220   6.187
 6443TIP3    H219287   3.456   5.340   6.264
 6444TIP3   OH219288   2.457   3.078   1.265
 6444TIP3    H119289   2.422   3.096   1.352
 6444TIP3    H219290   2.435   3.156   1.214
 6445TIP3   OH219291   6.078   2.066   3.846
 6445TIP3    H119292   6.141   2.003   3.881
 6445TIP3    H219293   5.996   2.046   3.892
 6446TIP3   OH219294   8.029   6.999   1.744
 6446TIP3    H119295   7.954   7.022   1.798
 6446TIP3    H219296   7.992   6.967   1.662
 6447TIP3   OH219297   4.660   4.889   3.602
 6447TIP3    H119298   4.634   4.950   3.671
 6447TIP3    H219299   4.593   4.899   3.535
 6448TIP3   OH219300   5.780   2.963   1.371
 6448TIP3    H119301   5.788   3.052   1.335
 6448TIP3    H219302   5.703   2.927   1.327
 6449TIP3   OH219303   6.179   1.843   0.713
 6449TIP3    H119304   6.275   1.849   0.707
 6449TIP3    H219305   6.147   1.915   0.659
 6450TIP3   OH219306   3.375   5.755   2.245
 6450TIP3    H119307   3.451   5.792   2.290
 6450TIP3    H219308   3.299   5.793   2.290
 6451TIP3   OH219309   5.994   6.200   0.267
 6451TIP3    H119310   5.985   6.223   0.359
 6451TIP3    H219311   6.014   6.283   0.223
 6452TIP3   OH219312   3.050   3.673   0.260
 6452TIP3    H119313   3.093   3.718   0.332
 6452TIP3    H219314   3.117   3.668   0.192
 6453TIP3   OH219315   6.794   3.068   5.251
 6453TIP3    H119316   6.713   3.117   5.265
 6453TIP3    H219317   6.782   3.025   5.166
 6454TIP3   OH219318   4.255   4.571   5.629
 6454TIP3    H119319   4.195   4.601   5.697
 6454TIP3    H219320   4.198   4.532   5.562
 6455TIP3   OH219321   5.717   5.626   5.866
 6455TIP3    H119322   5.781   5.686   5.905
 6455TIP3    H219323   5.639   5.636   5.920
 6456TIP3   OH219324   6.069   1.262   3.006
 6456TIP3    H119325   5.993   1.286   2.953
 6456TIP3    H219326   6.127   1.216   2.946
 6457TIP3   OH219327   7.703   6.463   2.917
 6457TIP3    H119328   7.642   6.535   2.932
 6457TIP3    H219329   7.745   6.449   3.002
 6458TIP3   OH219330   0.569   3.441   2.275
 6458TIP3    H119331   0.582   3.348   2.253
 6458TIP3    H219332   0.579   3.487   2.192
 6459TIP3   OH219333   4.087   4.134   4.616
 6459TIP3    H119334   4.007   4.082   4.606
 6459TIP3    H219335   4.150   4.092   4.558
 6460TIP3   OH219336   8.174   6.320   4.208
 6460TIP3    H119337   8.093   6.268   4.212
 6460TIP3    H219338   8.196   6.323   4.115
 6461TIP3   OH219339   6.774   7.319   5.778
 6461TIP3    H119340   6.765   7.405   5.737
 6461TIP3    H219341   6.829   7.269   5.718
 6462TIP3   OH219342   5.806   3.332   5.681
 6462TIP3    H119343   5.830   3.424   5.691
 6462TIP3    H219344   5.760   3.328   5.597
 6463TIP3   OH219345   6.934   1.827   2.802
 6463TIP3    H119346   6.876   1.839   2.877
 6463TIP3    H219347   6.981   1.911   2.795
 6464TIP3   OH219348   4.105   5.164   4.945
 6464TIP3    H119349   4.021   5.211   4.951
 6464TIP3    H219350   4.086   5.089   4.889
 6465TIP3   OH219351   5.200   5.592   2.036
 6465TIP3    H119352   5.125   5.648   2.015
 6465TIP3    H219353   5.175   5.505   2.004
 6466TIP3   OH219354   4.068   7.335   2.791
 6466TIP3    H119355   3.992   7.280   2.810
 6466TIP3    H219356   4.038   7.395   2.723
 6467TIP3   OH219357   8.023   0.715   2.006
 6467TIP3    H119358   8.014   0.810   1.994
 6467TIP3    H219359   8.005   0.701   2.099
 6468TIP3   OH219360   3.861   1.813   5.656
 6468TIP3    H119361   3.829   1.722   5.663
 6468TIP3    H219362   3.905   1.817   5.572
 6469TIP3   OH219363   2.073   7.271   0.999
 6469TIP3    H119364   2.131   7.325   1.053
 6469TIP3    H219365   2.002   7.330   0.974
 6470TIP3   OH219366   4.008   5.649   3.601
 6470TIP3    H119367   4.064   5.631   3.676
 6470TIP3    H219368   3.982   5.563   3.569
 6471TIP3   OH219369   5.101   6.871   2.538
 6471TIP3    H119370   5.053   6.928   2.598
 6471TIP3    H219371   5.050   6.874   2.457
 6472TIP3   OH219372   3.995   4.397   4.557
 6472TIP3    H119373   4.028   4.317   4.597
 6472TIP3    H219374   3.900   4.386   4.556
 6473TIP3   OH219375   6.913   1.628   5.941
 6473TIP3    H119376   6.981   1.621   5.874
 6473TIP3    H219377   6.848   1.687   5.902
 6474TIP3   OH219378   5.812   3.477   4.745
 6474TIP3    H119379   5.747   3.453   4.811
 6474TIP3    H219380   5.779   3.560   4.710
 6475TIP3   OH219381   3.508   2.263   4.813
 6475TIP3    H119382   3.591   2.310   4.800
 6475TIP3    H219383   3.440   2.328   4.795
 6476TIP3   OH219384   5.732   3.805   1.001
 6476TIP3    H119385   5.686   3.777   0.922
 6476TIP3    H219386   5.813   3.754   1.002
 6477TIP3   OH219387   7.449   0.699   3.676
 6477TIP3    H119388   7.384   0.647   3.628
 6477TIP3    H219389   7.483   0.639   3.742
 6478TIP3   OH219390   4.395   1.957   2.496
 6478TIP3    H119391   4.429   2.041   2.467
 6478TIP3    H219392   4.464   1.894   2.472
 6479TIP3   OH219393   4.987   3.006   4.116
 6479TIP3    H119394   5.081   3.021   4.121
 6479TIP3    H219395   4.962   2.979   4.205
 6480TIP3   OH219396   0.920   6.259   3.602
 6480TIP3    H119397   0.907   6.181   3.656
 6480TIP3    H219398   0.970   6.228   3.526
 6481TIP3   OH219399   5.717   7.786   2.098
 6481TIP3    H119400   5.801   7.775   2.052
 6481TIP3    H219401   5.656   7.729   2.050
 6482TIP3   OH219402   3.516   1.809   6.511
 6482TIP3    H119403   3.457   1.803   6.586
 6482TIP3    H219404   3.502   1.897   6.477
 6483TIP3   OH219405   3.501   2.377   4.312
 6483TIP3    H119406   3.567   2.419   4.256
 6483TIP3    H219407   3.529   2.286   4.317
 6484TIP3   OH219408   2.541   1.497   5.470
 6484TIP3    H119409   2.608   1.428   5.473
 6484TIP3    H219410   2.462   1.455   5.504
 6485TIP3   OH219411   1.150   1.755   0.805
 6485TIP3    H119412   1.123   1.666   0.782
 6485TIP3    H219413   1.227   1.772   0.752
 6486TIP3   OH219414   1.313   1.445   5.315
 6486TIP3    H119415   1.223   1.470   5.336
 6486TIP3    H219416   1.358   1.528   5.299
 6487TIP3   OH219417   3.365   3.900   5.552
 6487TIP3    H119418   3.310   3.869   5.624
 6487TIP3    H219419   3.453   3.866   5.572
 6488TIP3   OH219420   0.382   2.492   2.174
 6488TIP3    H119421   0.374   2.434   2.250
 6488TIP3    H219422   0.398   2.578   2.212
 6489TIP3   OH219423   2.542   4.975   3.005
 6489TIP3    H119424   2.580   4.887   2.998
 6489TIP3    H219425   2.475   4.977   2.936
 6490TIP3   OH219426   1.481   2.182   3.628
 6490TIP3    H119427   1.464   2.099   3.672
 6490TIP3    H219428   1.400   2.201   3.580
 6491TIP3   OH219429   4.250   5.219   5.503
 6491TIP3    H119430   4.345   5.223   5.491
 6491TIP3    H219431   4.217   5.182   5.421
 6492TIP3   OH219432   6.866   1.899   0.631
 6492TIP3    H119433   6.905   1.863   0.711
 6492TIP3    H219434   6.862   1.825   0.571
 6493TIP3   OH219435   3.084   1.698   0.425
 6493TIP3    H119436   3.117   1.680   0.513
 6493TIP3    H219437   3.099   1.792   0.412
 6494TIP3   OH219438   0.728   5.496   1.453
 6494TIP3    H119439   0.806   5.471   1.404
 6494TIP3    H219440   0.762   5.541   1.530
 6495TIP3   OH219441   5.706   3.271   6.548
 6495TIP3    H119442   5.762   3.233   6.481
 6495TIP3    H219443   5.749   3.353   6.573
 6496TIP3   OH219444   0.770   6.681   2.747
 6496TIP3    H119445   0.789   6.626   2.823
 6496TIP3    H219446   0.856   6.705   2.713
 6497TIP3   OH219447   3.200   5.461   1.603
 6497TIP3    H119448   3.238   5.391   1.550
 6497TIP3    H219449   3.234   5.542   1.565
 6498TIP3   OH219450   5.580   6.932   3.413
 6498TIP3    H119451   5.488   6.941   3.436
 6498TIP3    H219452   5.583   6.938   3.318
 6499TIP3   OH219453   0.244   1.239   4.875
 6499TIP3    H119454   0.258   1.219   4.783
 6499TIP3    H219455   0.158   1.202   4.895
 6500TIP3   OH219456   1.760   4.705   5.484
 6500TIP3    H119457   1.753   4.777   5.421
 6500TIP3    H219458   1.850   4.673   5.473
 6501TIP3   OH219459   5.052   4.907   4.606
 6501TIP3    H119460   5.039   5.000   4.586
 6501TIP3    H219461   4.964   4.871   4.613
 6502TIP3   OH219462   7.227   4.310   5.527
 6502TIP3    H119463   7.207   4.242   5.463
 6502TIP3    H219464   7.290   4.269   5.586
 6503TIP3   OH219465   6.286   0.460   0.978
 6503TIP3    H119466   6.357   0.490   0.921
 6503TIP3    H219467   6.271   0.533   1.038
 6504TIP3   OH219468   2.335   3.842   2.776
 6504TIP3    H119469   2.329   3.918   2.718
 6504TIP3    H219470   2.265   3.855   2.840
 6505TIP3   OH219471   2.824   5.887   1.409
 6505TIP3    H119472   2.747   5.879   1.465
 6505TIP3    H219473   2.861   5.799   1.405
 6506TIP3   OH219474   3.647   5.856   2.267
 6506TIP3    H119475   3.696   5.874   2.347
 6506TIP3    H219476   3.673   5.767   2.243
 6507TIP3   OH219477   7.967   6.982   3.202
 6507TIP3    H119478   7.985   6.982   3.108
 6507TIP3    H219479   8.052   6.963   3.242
 6508TIP3   OH219480   5.186   5.416   0.323
 6508TIP3    H119481   5.271   5.387   0.291
 6508TIP3    H219482   5.134   5.336   0.330
 6509TIP3   OH219483   2.899   1.736   4.331
 6509TIP3    H119484   2.959   1.807   4.309
 6509TIP3    H219485   2.822   1.781   4.367
 6510TIP3   OH219486   4.548   3.946   3.715
 6510TIP3    H119487   4.599   4.027   3.725
 6510TIP3    H219488   4.458   3.976   3.704
 6511TIP3   OH219489   3.971   7.319   5.222
 6511TIP3    H119490   3.936   7.369   5.295
 6511TIP3    H219491   4.066   7.325   5.232
 6512TIP3   OH219492   3.921   1.147   6.666
 6512TIP3    H119493   3.870   1.086   6.719
 6512TIP3    H219494   4.009   1.110   6.666
 6513TIP3   OH219495   7.762   4.206   6.522
 6513TIP3    H119496   7.751   4.301   6.532
 6513TIP3    H219497   7.750   4.172   6.611
 6514TIP3   OH219498   4.713   1.599   1.353
 6514TIP3    H119499   4.633   1.547   1.343
 6514TIP3    H219500   4.719   1.616   1.447
 6515TIP3   OH219501   7.957   0.571   5.545
 6515TIP3    H119502   8.036   0.615   5.576
 6515TIP3    H219503   7.909   0.549   5.624
 6516TIP3   OH219504   8.236   6.241   0.030
 6516TIP3    H119505   8.237   6.244   0.126
 6516TIP3    H219506   8.329   6.234   0.006
 6517TIP3   OH219507   2.500   1.981   1.230
 6517TIP3    H119508   2.522   2.009   1.319
 6517TIP3    H219509   2.404   1.975   1.229
 6518TIP3   OH219510   1.555   7.341   1.386
 6518TIP3    H119511   1.538   7.336   1.480
 6518TIP3    H219512   1.536   7.252   1.354
 6519TIP3   OH219513   8.067   3.850   2.831
 6519TIP3    H119514   8.136   3.862   2.765
 6519TIP3    H219515   8.081   3.762   2.865
 6520TIP3   OH219516   0.375   0.394   1.434
 6520TIP3    H119517   0.303   0.397   1.371
 6520TIP3    H219518   0.333   0.376   1.518
 6521TIP3   OH219519   2.424   7.519   4.363
 6521TIP3    H119520   2.410   7.526   4.457
 6521TIP3    H219521   2.351   7.569   4.324
 6522TIP3   OH219522   1.496   4.254   0.271
 6522TIP3    H119523   1.515   4.214   0.186
 6522TIP3    H219524   1.410   4.293   0.260
 6523TIP3   OH219525   2.482   0.243   6.494
 6523TIP3    H119526   2.395   0.281   6.476
 6523TIP3    H219527   2.515   0.219   6.408
 6524TIP3   OH219528   4.599   3.045   4.485
 6524TIP3    H119529   4.590   2.991   4.563
 6524TIP3    H219530   4.617   3.133   4.518
 6525TIP3   OH219531   2.726   2.537   3.716
 6525TIP3    H119532   2.657   2.494   3.666
 6525TIP3    H219533   2.745   2.476   3.788
 6526TIP3   OH219534   0.415   3.615   1.678
 6526TIP3    H119535   0.458   3.540   1.638
 6526TIP3    H219536   0.399   3.675   1.605
 6527TIP3   OH219537   2.360   7.541   6.238
 6527TIP3    H119538   2.320   7.603   6.176
 6527TIP3    H219539   2.295   7.471   6.246
 6528TIP3   OH219540   4.297   6.900   4.865
 6528TIP3    H119541   4.251   6.941   4.938
 6528TIP3    H219542   4.252   6.816   4.852
 6529TIP3   OH219543   1.692   7.509   3.320
 6529TIP3    H119544   1.671   7.458   3.399
 6529TIP3    H219545   1.783   7.487   3.300
 6530TIP3   OH219546   7.961   4.183   4.076
 6530TIP3    H119547   8.040   4.128   4.071
 6530TIP3    H219548   7.987   4.265   4.035
 6531TIP3   OH219549   4.245   7.409   2.990
 6531TIP3    H119550   4.181   7.372   2.930
 6531TIP3    H219551   4.313   7.341   2.998
 6532TIP3   OH219552   5.539   3.370   0.103
 6532TIP3    H119553   5.455   3.399   0.140
 6532TIP3    H219554   5.537   3.274   0.110
 6533TIP3   OH219555   1.187   4.471   1.830
 6533TIP3    H119556   1.096   4.468   1.803
 6533TIP3    H219557   1.190   4.538   1.899
 6534TIP3   OH219558   7.192   3.875   2.301
 6534TIP3    H119559   7.273   3.910   2.263
 6534TIP3    H219560   7.201   3.889   2.395
 6535TIP3   OH219561   1.894   2.946   1.422
 6535TIP3    H119562   1.920   2.854   1.416
 6535TIP3    H219563   1.936   2.977   1.502
 6536TIP3   OH219564   2.186   7.311   4.326
 6536TIP3    H119565   2.280   7.300   4.318
 6536TIP3    H219566   2.151   7.222   4.335
 6537TIP3   OH219567   5.381   6.117   6.723
 6537TIP3    H119568   5.464   6.159   6.698
 6537TIP3    H219569   5.363   6.055   6.652
 6538TIP3   OH219570   7.056   1.123   1.817
 6538TIP3    H119571   6.993   1.070   1.769
 6538TIP3    H219572   7.011   1.147   1.898
 6539TIP3   OH219573   0.029   4.509   5.713
 6539TIP3    H119574   0.067   4.447   5.651
 6539TIP3    H219575  -0.027   4.565   5.659
 6540TIP3   OH219576   4.552   1.924   1.750
 6540TIP3    H119577   4.473   1.881   1.781
 6540TIP3    H219578   4.584   1.973   1.826
 6541TIP3   OH219579   0.200   5.756   5.182
 6541TIP3    H119580   0.212   5.700   5.259
 6541TIP3    H219581   0.196   5.695   5.109
 6542TIP3   OH219582   0.521   0.669   3.319
 6542TIP3    H119583   0.428   0.660   3.301
 6542TIP3    H219584   0.525   0.727   3.395
 6543TIP3   OH219585   6.306   3.327   0.864
 6543TIP3    H119586   6.309   3.321   0.769
 6543TIP3    H219587   6.374   3.390   0.886
 6544TIP3   OH219588   5.502   7.372   0.229
 6544TIP3    H119589   5.469   7.461   0.239
 6544TIP3    H219590   5.587   7.382   0.187
 6545TIP3   OH219591   4.634   3.467   1.117
 6545TIP3    H119592   4.722   3.464   1.079
 6545TIP3    H219593   4.606   3.376   1.124
 6546TIP3   OH219594   3.858   6.818   1.506
 6546TIP3    H119595   3.832   6.905   1.476
 6546TIP3    H219596   3.776   6.769   1.513
 6547TIP3   OH219597   3.929   4.850   5.109
 6547TIP3    H119598   3.898   4.940   5.122
 6547TIP3    H219599   3.882   4.799   5.175
 6548TIP3   OH219600   3.029   5.713   2.762
 6548TIP3    H119601   2.977   5.737   2.839
 6548TIP3    H219602   2.974   5.649   2.716
 6549TIP3   OH219603   1.559   2.296   4.976
 6549TIP3    H119604   1.566   2.382   5.017
 6549TIP3    H219605   1.500   2.247   5.034
 6550TIP3   OH219606   6.569   2.410   0.963
 6550TIP3    H119607   6.581   2.348   1.035
 6550TIP3    H219608   6.597   2.363   0.885
 6551TIP3   OH219609   1.689   6.192   3.674
 6551TIP3    H119610   1.728   6.172   3.759
 6551TIP3    H219611   1.692   6.110   3.625
 6552TIP3   OH219612   3.121   5.647   2.070
 6552TIP3    H119613   3.171   5.629   1.991
 6552TIP3    H219614   3.042   5.692   2.040
 6553TIP3   OH219615   5.939   4.062   4.040
 6553TIP3    H119616   6.021   4.101   4.010
 6553TIP3    H219617   5.926   4.096   4.128
 6554TIP3   OH219618   7.294   6.934   4.964
 6554TIP3    H119619   7.302   7.023   4.997
 6554TIP3    H219620   7.222   6.938   4.901
 6555TIP3   OH219621   1.867   4.524   2.996
 6555TIP3    H119622   1.823   4.489   2.919
 6555TIP3    H219623   1.928   4.590   2.962
 6556TIP3   OH219624   4.023   4.968   4.784
 6556TIP3    H119625   3.933   4.934   4.787
 6556TIP3    H219626   4.062   4.922   4.709
 6557TIP3   OH219627   4.816   1.917   5.968
 6557TIP3    H119628   4.842   1.998   5.924
 6557TIP3    H219629   4.724   1.930   5.990
 6558TIP3   OH219630   2.129   2.461   3.345
 6558TIP3    H119631   2.041   2.425   3.340
 6558TIP3    H219632   2.154   2.478   3.255
 6559TIP3   OH219633   1.338   0.535   2.514
 6559TIP3    H119634   1.250   0.556   2.482
 6559TIP3    H219635   1.323   0.474   2.586
 6560TIP3   OH219636   8.248   2.551   0.548
 6560TIP3    H119637   8.182   2.484   0.564
 6560TIP3    H219638   8.326   2.503   0.521
 6561TIP3   OH219639   1.875   3.495   4.090
 6561TIP3    H119640   1.835   3.440   4.157
 6561TIP3    H219641   1.853   3.453   4.007
 6562TIP3   OH219642   4.671   7.745   5.269
 6562TIP3    H119643   4.594   7.802   5.265
 6562TIP3    H219644   4.689   7.724   5.178
 6563TIP3   OH219645   7.177   1.324   3.908
 6563TIP3    H119646   7.205   1.307   3.998
 6563TIP3    H219647   7.211   1.251   3.857
 6564TIP3   OH219648   5.146   0.868   0.166
 6564TIP3    H119649   5.058   0.834   0.180
 6564TIP3    H219650   5.202   0.813   0.220
 6565TIP3   OH219651   1.866   1.892   5.360
 6565TIP3    H119652   1.898   1.882   5.270
 6565TIP3    H219653   1.908   1.822   5.409
 6566TIP3   OH219654   6.591   7.596   5.220
 6566TIP3    H119655   6.623   7.514   5.182
 6566TIP3    H219656   6.562   7.573   5.308
 6567TIP3   OH219657   3.887   6.073   3.060
 6567TIP3    H119658   3.798   6.048   3.087
 6567TIP3    H219659   3.927   6.107   3.140
 6568TIP3   OH219660   4.261   3.406   4.208
 6568TIP3    H119661   4.293   3.398   4.118
 6568TIP3    H219662   4.324   3.464   4.251
 6569TIP3   OH219663   4.113   2.703   6.262
 6569TIP3    H119664   4.164   2.768   6.212
 6569TIP3    H219665   4.056   2.756   6.318
 6570TIP3   OH219666   5.529   5.416   4.714
 6570TIP3    H119667   5.519   5.321   4.724
 6570TIP3    H219668   5.620   5.433   4.736
 6571TIP3   OH219669   6.904   0.500   4.674
 6571TIP3    H119670   6.917   0.593   4.652
 6571TIP3    H219671   6.992   0.462   4.667
 6572TIP3   OH219672   7.408   1.332   5.061
 6572TIP3    H119673   7.431   1.395   4.993
 6572TIP3    H219674   7.475   1.264   5.054
 6573TIP3   OH219675   8.037   3.966   4.306
 6573TIP3    H119676   7.944   3.984   4.295
 6573TIP3    H219677   8.077   4.052   4.322
 6574TIP3   OH219678   6.564   6.817   6.400
 6574TIP3    H119679   6.620   6.895   6.397
 6574TIP3    H219680   6.570   6.780   6.312
 6575TIP3   OH219681   1.795   5.697   1.192
 6575TIP3    H119682   1.734   5.763   1.225
 6575TIP3    H219683   1.744   5.617   1.188
 6576TIP3   OH219684   4.408   4.665   5.304
 6576TIP3    H119685   4.354   4.744   5.314
 6576TIP3    H219686   4.436   4.668   5.213
 6577TIP3   OH219687   6.861   2.405   2.510
 6577TIP3    H119688   6.774   2.377   2.538
 6577TIP3    H219689   6.862   2.392   2.415
 6578TIP3   OH219690   0.272   0.741   1.913
 6578TIP3    H119691   0.213   0.667   1.896
 6578TIP3    H219692   0.232   0.815   1.868
 6579TIP3   OH219693   1.251   7.544   1.105
 6579TIP3    H119694   1.298   7.589   1.176
 6579TIP3    H219695   1.319   7.525   1.040
 6580TIP3   OH219696   4.167   2.961   1.172
 6580TIP3    H119697   4.077   2.944   1.142
 6580TIP3    H219698   4.207   2.875   1.178
 6581TIP3   OH219699   5.740   6.732   2.400
 6581TIP3    H119700   5.737   6.700   2.490
 6581TIP3    H219701   5.823   6.779   2.394
 6582TIP3   OH219702   7.981   4.435   6.328
 6582TIP3    H119703   7.919   4.373   6.290
 6582TIP3    H219704   7.939   4.465   6.408
 6583TIP3   OH219705   4.004   0.166   5.415
 6583TIP3    H119706   3.975   0.210   5.495
 6583TIP3    H219707   4.066   0.227   5.375
 6584TIP3   OH219708   3.012   3.239   1.746
 6584TIP3    H119709   3.001   3.199   1.660
 6584TIP3    H219710   3.011   3.165   1.807
 6585TIP3   OH219711   4.610   6.744   5.383
 6585TIP3    H119712   4.617   6.800   5.459
 6585TIP3    H219713   4.521   6.711   5.385
 6586TIP3   OH219714   1.301   4.774   1.717
 6586TIP3    H119715   1.294   4.691   1.669
 6586TIP3    H219716   1.267   4.754   1.804
 6587TIP3   OH219717   1.937   3.769   0.489
 6587TIP3    H119718   1.863   3.804   0.539
 6587TIP3    H219719   1.954   3.835   0.422
 6588TIP3   OH219720   3.623   6.048   3.190
 6588TIP3    H119721   3.641   6.129   3.237
 6588TIP3    H219722   3.627   5.980   3.258
 6589TIP3   OH219723   2.794   3.024   0.130
 6589TIP3    H119724   2.790   3.109   0.174
 6589TIP3    H219725   2.849   2.970   0.187
 6590TIP3   OH219726   6.506   0.151   5.945
 6590TIP3    H119727   6.568   0.198   5.890
 6590TIP3    H219728   6.510   0.196   6.029
 6591TIP3   OH219729   5.572   6.958   1.220
 6591TIP3    H119730   5.493   7.005   1.246
 6591TIP3    H219731   5.638   7.027   1.208
 6592TIP3   OH219732   7.553   4.387   4.037
 6592TIP3    H119733   7.576   4.422   3.951
 6592TIP3    H219734   7.507   4.305   4.019
 6593TIP3   OH219735   0.056   3.901   0.764
 6593TIP3    H119736  -0.008   3.837   0.732
 6593TIP3    H219737   0.138   3.877   0.721
 6594TIP3   OH219738   2.155   7.493   1.497
 6594TIP3    H119739   2.118   7.473   1.583
 6594TIP3    H219740   2.220   7.562   1.513
 6595TIP3   OH219741   0.378   4.302   1.086
 6595TIP3    H119742   0.470   4.290   1.062
 6595TIP3    H219743   0.375   4.284   1.180
 6596TIP3   OH219744   2.489   1.788   1.801
 6596TIP3    H119745   2.551   1.715   1.795
 6596TIP3    H219746   2.482   1.805   1.895
 6597TIP3   OH219747   7.675   4.289   0.415
 6597TIP3    H119748   7.617   4.362   0.396
 6597TIP3    H219749   7.619   4.226   0.461
 6598TIP3   OH219750   0.515   2.984   5.288
 6598TIP3    H119751   0.545   3.072   5.313
 6598TIP3    H219752   0.496   2.941   5.372
 6599TIP3   OH219753   1.362   7.336   5.013
 6599TIP3    H119754   1.437   7.384   4.976
 6599TIP3    H219755   1.334   7.388   5.088
 6600TIP3   OH219756   5.461   3.023   5.230
 6600TIP3    H119757   5.459   3.026   5.325
 6600TIP3    H219758   5.547   2.988   5.209
 6601TIP3   OH219759   0.298   0.317   6.239
 6601TIP3    H119760   0.216   0.366   6.251
 6601TIP3    H219761   0.315   0.278   6.324
 6602TIP3   OH219762   3.252   5.370   3.937
 6602TIP3    H119763   3.273   5.390   3.846
 6602TIP3    H219764   3.207   5.285   3.933
 6603TIP3   OH219765   4.410   2.906   4.330
 6603TIP3    H119766   4.374   2.987   4.293
 6603TIP3    H219767   4.493   2.933   4.370
 6604TIP3   OH219768   5.408   1.545   5.364
 6604TIP3    H119769   5.478   1.582   5.310
 6604TIP3    H219770   5.392   1.459   5.326
 6605TIP3   OH219771   5.914   4.168   4.306
 6605TIP3    H119772   5.915   4.263   4.306
 6605TIP3    H219773   5.963   4.144   4.385
 6606TIP3   OH219774   7.660   6.624   1.128
 6606TIP3    H119775   7.675   6.574   1.208
 6606TIP3    H219776   7.588   6.684   1.150
 6607TIP3   OH219777   4.608   1.028   4.345
 6607TIP3    H119778   4.603   1.111   4.391
 6607TIP3    H219779   4.632   0.965   4.413
 6608TIP3   OH219780   5.792   4.781   1.999
 6608TIP3    H119781   5.794   4.848   1.931
 6608TIP3    H219782   5.731   4.814   2.064
 6609TIP3   OH219783   1.393   3.798   0.778
 6609TIP3    H119784   1.335   3.874   0.785
 6609TIP3    H219785   1.414   3.775   0.868
 6610TIP3   OH219786   1.227   5.494   1.602
 6610TIP3    H119787   1.322   5.504   1.605
 6610TIP3    H219788   1.193   5.577   1.634
 6611TIP3   OH219789   5.155   0.257   3.340
 6611TIP3    H119790   5.114   0.296   3.263
 6611TIP3    H219791   5.082   0.233   3.397
 6612TIP3   OH219792   5.801   2.506   1.520
 6612TIP3    H119793   5.790   2.514   1.425
 6612TIP3    H219794   5.884   2.550   1.538
 6613TIP3   OH219795   2.203   2.850   1.493
 6613TIP3    H119796   2.175   2.902   1.568
 6613TIP3    H219797   2.127   2.796   1.471
 6614TIP3   OH219798   8.022   6.933   0.328
 6614TIP3    H119799   7.971   6.977   0.260
 6614TIP3    H219800   8.080   6.873   0.279
 6615TIP3   OH219801   7.600   3.805   3.654
 6615TIP3    H119802   7.590   3.710   3.646
 6615TIP3    H219803   7.694   3.820   3.644
 6616TIP3   OH219804   3.476   5.471   6.415
 6616TIP3    H119805   3.447   5.553   6.376
 6616TIP3    H219806   3.432   5.469   6.500
 6617TIP3   OH219807   2.792   5.951   5.294
 6617TIP3    H119808   2.792   6.006   5.372
 6617TIP3    H219809   2.741   5.874   5.318
 6618TIP3   OH219810   1.095   7.433   5.889
 6618TIP3    H119811   1.135   7.447   5.975
 6618TIP3    H219812   1.058   7.345   5.895
 6619TIP3   OH219813   1.189   4.158   3.921
 6619TIP3    H119814   1.185   4.190   4.011
 6619TIP3    H219815   1.278   4.123   3.912
 6620TIP3   OH219816   1.036   7.525   5.540
 6620TIP3    H119817   1.060   7.482   5.458
 6620TIP3    H219818   1.087   7.480   5.607
 6621TIP3   OH219819   2.886   2.974   6.055
 6621TIP3    H119820   2.838   3.033   5.998
 6621TIP3    H219821   2.831   2.896   6.060
 6622TIP3   OH219822   4.128   4.819   1.666
 6622TIP3    H119823   4.146   4.855   1.579
 6622TIP3    H219824   4.080   4.889   1.711
 6623TIP3   OH219825   8.148   2.977   5.075
 6623TIP3    H119826   8.195   2.895   5.091
 6623TIP3    H219827   8.079   2.953   5.014
 6624TIP3   OH219828   1.967   5.773   2.924
 6624TIP3    H119829   1.981   5.709   2.854
 6624TIP3    H219830   1.876   5.760   2.951
 6625TIP3   OH219831   2.598   3.140   2.716
 6625TIP3    H119832   2.605   3.161   2.809
 6625TIP3    H219833   2.556   3.216   2.677
 6626TIP3   OH219834   2.215   4.965   0.952
 6626TIP3    H119835   2.166   4.885   0.937
 6626TIP3    H219836   2.230   4.967   1.047
 6627TIP3   OH219837   6.076   3.010   4.990
 6627TIP3    H119838   6.056   3.075   5.058
 6627TIP3    H219839   6.030   3.041   4.912
 6628TIP3   OH219840   4.796   0.460   0.799
 6628TIP3    H119841   4.763   0.454   0.888
 6628TIP3    H219842   4.860   0.531   0.802
 6629TIP3   OH219843   0.022   0.274   6.513
 6629TIP3    H119844   0.006   0.292   6.420
 6629TIP3    H219845  -0.059   0.232   6.543
 6630TIP3   OH219846   8.178   3.296   5.507
 6630TIP3    H119847   8.188   3.364   5.573
 6630TIP3    H219848   8.119   3.334   5.441
 6631TIP3   OH219849   0.931   4.053   3.488
 6631TIP3    H119850   0.953   4.092   3.573
 6631TIP3    H219851   0.981   4.103   3.424
 6632TIP3   OH219852   3.966   7.537   6.132
 6632TIP3    H119853   3.971   7.585   6.214
 6632TIP3    H219854   3.957   7.605   6.065
 6633TIP3   OH219855   0.308   5.530   2.477
 6633TIP3    H119856   0.276   5.527   2.387
 6633TIP3    H219857   0.402   5.543   2.468
 6634TIP3   OH219858   2.708   5.729   0.904
 6634TIP3    H119859   2.614   5.747   0.909
 6634TIP3    H219860   2.739   5.786   0.834
 6635TIP3   OH219861   4.319   5.147   3.610
 6635TIP3    H119862   4.245   5.142   3.671
 6635TIP3    H219863   4.395   5.163   3.666
 6636TIP3   OH219864   5.155   4.917   4.178
 6636TIP3    H119865   5.119   4.995   4.136
 6636TIP3    H219866   5.192   4.950   4.260
 6637TIP3   OH219867   4.512   7.504   2.722
 6637TIP3    H119868   4.554   7.485   2.638
 6637TIP3    H219869   4.479   7.594   2.712
 6638TIP3   OH219870   0.955   1.082   2.585
 6638TIP3    H119871   1.019   1.022   2.546
 6638TIP3    H219872   0.970   1.165   2.540
 6639TIP3   OH219873   7.370   1.521   4.869
 6639TIP3    H119874   7.304   1.565   4.923
 6639TIP3    H219875   7.324   1.500   4.788
 6640TIP3   OH219876   2.321   7.763   1.928
 6640TIP3    H119877   2.414   7.780   1.912
 6640TIP3    H219878   2.320   7.685   1.983
 6641TIP3   OH219879   1.113   1.184   2.247
 6641TIP3    H119880   1.171   1.222   2.313
 6641TIP3    H219881   1.142   1.093   2.240
 6642TIP3   OH219882   1.457   0.883   4.263
 6642TIP3    H119883   1.543   0.921   4.279
 6642TIP3    H219884   1.475   0.800   4.219
 6643TIP3   OH219885   1.506   1.084   4.002
 6643TIP3    H119886   1.512   1.063   4.096
 6643TIP3    H219887   1.507   0.998   3.959
 6644TIP3   OH219888   4.288   0.912   3.349
 6644TIP3    H119889   4.381   0.895   3.333
 6644TIP3    H219890   4.271   0.994   3.302
 6645TIP3   OH219891   0.784   0.252   6.037
 6645TIP3    H119892   0.789   0.157   6.040
 6645TIP3    H219893   0.690   0.271   6.035
 6646TIP3   OH219894   0.769   6.699   3.872
 6646TIP3    H119895   0.853   6.710   3.827
 6646TIP3    H219896   0.749   6.606   3.863
 6647TIP3   OH219897   3.384   0.308   6.381
 6647TIP3    H119898   3.295   0.328   6.350
 6647TIP3    H219899   3.373   0.289   6.474
 6648TIP3   OH219900   4.932   1.510   6.332
 6648TIP3    H119901   4.928   1.554   6.417
 6648TIP3    H219902   4.990   1.565   6.279
 6649TIP3   OH219903   3.072   3.338   5.783
 6649TIP3    H119904   3.080   3.431   5.808
 6649TIP3    H219905   3.155   3.299   5.812
 6650TIP3   OH219906   3.003   3.483   2.626
 6650TIP3    H119907   2.976   3.468   2.716
 6650TIP3    H219908   3.062   3.559   2.631
 6651TIP3   OH219909   0.766   2.955   4.831
 6651TIP3    H119910   0.790   2.996   4.748
 6651TIP3    H219911   0.701   3.015   4.868
 6652TIP3   OH219912   5.523   5.145   5.841
 6652TIP3    H119913   5.565   5.067   5.804
 6652TIP3    H219914   5.447   5.110   5.888
 6653TIP3   OH219915   8.285   2.914   2.503
 6653TIP3    H119916   8.194   2.886   2.514
 6653TIP3    H219917   8.315   2.866   2.426
 6654TIP3   OH219918   2.937   2.757   5.700
 6654TIP3    H119919   2.951   2.667   5.671
 6654TIP3    H219920   2.841   2.767   5.700
 6655TIP3   OH219921   3.098   0.371   0.182
 6655TIP3    H119922   3.163   0.301   0.194
 6655TIP3    H219923   3.144   0.437   0.130
 6656TIP3   OH219924   3.132   4.015   3.498
 6656TIP3    H119925   3.118   4.078   3.568
 6656TIP3    H219926   3.198   4.055   3.442
 6657TIP3   OH219927   1.577   3.794   5.084
 6657TIP3    H119928   1.671   3.790   5.069
 6657TIP3    H219929   1.549   3.874   5.041
 6658TIP3   OH219930   1.262   3.731   3.334
 6658TIP3    H119931   1.239   3.661   3.272
 6658TIP3    H219932   1.321   3.787   3.284
 6659TIP3   OH219933   5.649   1.139   1.220
 6659TIP3    H119934   5.600   1.128   1.302
 6659TIP3    H219935   5.614   1.220   1.183
 6660TIP3   OH219936   8.161   5.854   0.637
 6660TIP3    H119937   8.077   5.869   0.593
 6660TIP3    H219938   8.171   5.928   0.697
 6661TIP3   OH219939   8.094   3.197   2.810
 6661TIP3    H119940   8.114   3.253   2.735
 6661TIP3    H219941   8.052   3.119   2.772
 6662TIP3   OH219942   7.395   6.255   3.320
 6662TIP3    H119943   7.321   6.315   3.330
 6662TIP3    H219944   7.358   6.168   3.338
 6663TIP3   OH219945   4.986   7.114   5.490
 6663TIP3    H119946   4.973   7.029   5.447
 6663TIP3    H219947   4.956   7.100   5.580
 6664TIP3   OH219948   6.814   6.977   5.307
 6664TIP3    H119949   6.896   6.938   5.277
 6664TIP3    H219950   6.770   7.005   5.227
 6665TIP3   OH219951   0.249   2.081   6.387
 6665TIP3    H119952   0.288   2.167   6.400
 6665TIP3    H219953   0.178   2.076   6.451
 6666TIP3   OH219954   0.289   6.669   1.816
 6666TIP3    H119955   0.307   6.676   1.910
 6666TIP3    H219956   0.316   6.580   1.793
 6667TIP3   OH219957   6.800   2.259   3.908
 6667TIP3    H119958   6.891   2.236   3.887
 6667TIP3    H219959   6.759   2.272   3.823
 6668TIP3   OH219960   4.446   5.477   5.433
 6668TIP3    H119961   4.491   5.396   5.456
 6668TIP3    H219962   4.450   5.481   5.337
 6669TIP3   OH219963   7.192   2.626   6.083
 6669TIP3    H119964   7.127   2.695   6.071
 6669TIP3    H219965   7.267   2.672   6.122
 6670TIP3   OH219966   3.625   0.154   4.997
 6670TIP3    H119967   3.690   0.159   5.067
 6670TIP3    H219968   3.570   0.079   5.022
 6671TIP3   OH219969   8.281   2.532   4.029
 6671TIP3    H119970   8.319   2.502   4.111
 6671TIP3    H219971   8.252   2.621   4.047
 6672TIP3   OH219972   6.804   5.144   2.431
 6672TIP3    H119973   6.772   5.229   2.403
 6672TIP3    H219974   6.754   5.124   2.510
 6673TIP3   OH219975   3.119   2.657   5.920
 6673TIP3    H119976   3.041   2.621   5.961
 6673TIP3    H219977   3.086   2.713   5.850
 6674TIP3   OH219978   7.268   2.943   3.455
 6674TIP3    H119979   7.345   2.974   3.407
 6674TIP3    H219980   7.201   2.931   3.388
 6675TIP3   OH219981   8.086   4.184   3.061
 6675TIP3    H119982   8.162   4.138   3.097
 6675TIP3    H219983   8.099   4.182   2.966
 6676TIP3   OH219984   8.051   2.225   4.050
 6676TIP3    H119985   8.049   2.308   4.003
 6676TIP3    H219986   7.972   2.226   4.103
 6677TIP3   OH219987   2.287   5.329   6.426
 6677TIP3    H119988   2.274   5.421   6.404
 6677TIP3    H219989   2.377   5.325   6.459
 6678TIP3   OH219990   4.712   5.922   2.513
 6678TIP3    H119991   4.713   5.889   2.423
 6678TIP3    H219992   4.786   5.984   2.517
 6679TIP3   OH219993   4.397   3.838   3.419
 6679TIP3    H119994   4.346   3.834   3.339
 6679TIP3    H219995   4.472   3.894   3.398
 6680TIP3   OH219996   6.635   5.261   4.683
 6680TIP3    H119997   6.609   5.258   4.591
 6680TIP3    H219998   6.729   5.283   4.680
 6681TIP3   OH219999   1.711   3.663   1.339
 6681TIP3    H120000   1.727   3.634   1.428
 6681TIP3    H220001   1.781   3.622   1.288
 6682TIP3   OH220002   1.260   7.183   3.892
 6682TIP3    H120003   1.345   7.225   3.908
 6682TIP3    H220004   1.213   7.245   3.835
 6683TIP3   OH220005   1.962   3.229   6.259
 6683TIP3    H120006   1.911   3.310   6.258
 6683TIP3    H220007   2.052   3.256   6.243
 6684TIP3   OH220008   7.689   0.949   2.272
 6684TIP3    H120009   7.654   0.956   2.183
 6684TIP3    H220010   7.664   1.031   2.314
 6685TIP3   OH220011   7.233   6.801   2.953
 6685TIP3    H120012   7.171   6.757   3.011
 6685TIP3    H220013   7.179   6.857   2.898
 6686TIP3   OH220014   3.273   3.373   2.108
 6686TIP3    H120015   3.232   3.436   2.167
 6686TIP3    H220016   3.313   3.308   2.165
 6687TIP3   OH220017   1.485   4.726   4.729
 6687TIP3    H120018   1.467   4.649   4.783
 6687TIP3    H220019   1.579   4.737   4.734
 6688TIP3   OH220020   0.114   4.180   2.578
 6688TIP3    H120021   0.154   4.267   2.575
 6688TIP3    H220022   0.175   4.127   2.629
 6689TIP3   OH220023   7.678   7.741   3.157
 6689TIP3    H120024   7.760   7.739   3.108
 6689TIP3    H220025   7.657   7.649   3.172
 6690TIP3   OH220026   5.729   7.026   1.891
 6690TIP3    H120027   5.736   6.935   1.921
 6690TIP3    H220028   5.820   7.051   1.872
 6691TIP3   OH220029   6.487   0.640   2.233
 6691TIP3    H120030   6.451   0.631   2.321
 6691TIP3    H220031   6.417   0.682   2.183
 6692TIP3   OH220032   6.955   4.517   2.984
 6692TIP3    H120033   6.997   4.602   2.994
 6692TIP3    H220034   6.971   4.473   3.068
 6693TIP3   OH220035   2.620   1.107   4.143
 6693TIP3    H120036   2.646   1.196   4.167
 6693TIP3    H220037   2.660   1.051   4.209
 6694TIP3   OH220038   4.039   4.630  -0.005
 6694TIP3    H120039   4.077   4.672   0.072
 6694TIP3    H220040   4.099   4.559  -0.026
 6695TIP3   OH220041   1.021   3.511   3.259
 6695TIP3    H120042   1.025   3.592   3.309
 6695TIP3    H220043   1.112   3.486   3.246
 6696TIP3   OH220044   5.896   6.620   3.346
 6696TIP3    H120045   5.879   6.603   3.253
 6696TIP3    H220046   5.880   6.536   3.390
 6697TIP3   OH220047   5.322   4.410   6.597
 6697TIP3    H120048   5.335   4.498   6.561
 6697TIP3    H220049   5.376   4.408   6.676
 6698TIP3   OH220050   6.841   2.173   5.405
 6698TIP3    H120051   6.752   2.139   5.395
 6698TIP3    H220052   6.843   2.207   5.495
 6699TIP3   OH220053   1.770   7.646   0.600
 6699TIP3    H120054   1.818   7.711   0.652
 6699TIP3    H220055   1.828   7.571   0.595
 6700TIP3   OH220056   5.455   5.101   5.433
 6700TIP3    H120057   5.456   5.016   5.478
 6700TIP3    H220058   5.368   5.105   5.393
 6701TIP3   OH220059   5.356   5.742   5.228
 6701TIP3    H120060   5.309   5.799   5.166
 6701TIP3    H220061   5.287   5.707   5.284
 6702TIP3   OH220062   7.677   3.769   4.308
 6702TIP3    H120063   7.722   3.840   4.353
 6702TIP3    H220064   7.617   3.814   4.247
 6703TIP3   OH220065   8.238   0.868   3.879
 6703TIP3    H120066   8.189   0.856   3.797
 6703TIP3    H220067   8.281   0.784   3.893
 6704TIP3   OH220068   1.002   5.188   4.219
 6704TIP3    H120069   1.064   5.187   4.292
 6704TIP3    H220070   0.919   5.215   4.259
 6705TIP3   OH220071   4.556   5.107   0.822
 6705TIP3    H120072   4.546   5.012   0.815
 6705TIP3    H220073   4.576   5.135   0.733
 6706TIP3   OH220074   3.846   6.506   3.775
 6706TIP3    H120075   3.930   6.540   3.808
 6706TIP3    H220076   3.809   6.459   3.849
 6707TIP3   OH220077   1.990   0.803   1.644
 6707TIP3    H120078   1.993   0.862   1.569
 6707TIP3    H220079   2.078   0.807   1.681
 6708TIP3   OH220080   1.596   2.896   5.956
 6708TIP3    H120081   1.588   2.975   6.010
 6708TIP3    H220082   1.538   2.833   5.998
 6709TIP3   OH220083   7.503   5.508   0.956
 6709TIP3    H120084   7.518   5.570   0.885
 6709TIP3    H220085   7.511   5.422   0.915
 6710TIP3   OH220086   2.424   2.354   4.305
 6710TIP3    H120087   2.345   2.309   4.276
 6710TIP3    H220088   2.394   2.411   4.377
 6711TIP3   OH220089   4.629   3.769   4.982
 6711TIP3    H120090   4.701   3.706   4.990
 6711TIP3    H220091   4.551   3.715   4.970
 6712TIP3   OH220092   2.645   2.198   5.113
 6712TIP3    H120093   2.570   2.236   5.068
 6712TIP3    H220094   2.639   2.231   5.203
 6713TIP3   OH220095   2.355   7.697   5.569
 6713TIP3    H120096   2.392   7.712   5.482
 6713TIP3    H220097   2.346   7.602   5.576
 6714TIP3   OH220098   2.531   4.737   3.128
 6714TIP3    H120099   2.469   4.665   3.115
 6714TIP3    H220100   2.477   4.814   3.142
 6715TIP3   OH220101   2.077   5.188   0.832
 6715TIP3    H120102   2.111   5.104   0.865
 6715TIP3    H220103   2.131   5.254   0.875
 6716TIP3   OH220104   7.763   2.474   2.470
 6716TIP3    H120105   7.770   2.500   2.561
 6716TIP3    H220106   7.688   2.415   2.467
 6717TIP3   OH220107   1.076   6.912   4.676
 6717TIP3    H120108   0.983   6.929   4.689
 6717TIP3    H220109   1.081   6.861   4.595
 6718TIP3   OH220110   1.560   2.745   0.215
 6718TIP3    H120111   1.642   2.786   0.186
 6718TIP3    H220112   1.550   2.774   0.306
 6719TIP3   OH220113   3.509   0.418   3.208
 6719TIP3    H120114   3.540   0.434   3.119
 6719TIP3    H220115   3.584   0.436   3.264
 6720TIP3   OH220116   5.579   2.315   2.956
 6720TIP3    H120117   5.616   2.236   2.995
 6720TIP3    H220118   5.646   2.382   2.971
 6721TIP3   OH220119   7.789   2.173   0.304
 6721TIP3    H120120   7.836   2.256   0.297
 6721TIP3    H220121   7.837   2.112   0.249
 6722TIP3   OH220122   1.218   0.913   1.269
 6722TIP3    H120123   1.168   0.974   1.215
 6722TIP3    H220124   1.243   0.843   1.210
 6723TIP3   OH220125   2.909   5.948   0.927
 6723TIP3    H120126   2.946   5.901   0.851
 6723TIP3    H220127   2.912   5.883   0.997
 6724TIP3   OH220128   7.922   6.193   4.222
 6724TIP3    H120129   7.903   6.271   4.274
 6724TIP3    H220130   7.841   6.142   4.224
 6725TIP3   OH220131   1.549   4.034   2.239
 6725TIP3    H120132   1.528   4.015   2.148
 6725TIP3    H220133   1.626   4.090   2.236
 6726TIP3   OH220134   1.359   6.362   3.459
 6726TIP3    H120135   1.306   6.442   3.459
 6726TIP3    H220136   1.405   6.364   3.375
 6727TIP3   OH220137   0.613   5.243   2.992
 6727TIP3    H120138   0.645   5.285   2.912
 6727TIP3    H220139   0.569   5.313   3.040
 6728TIP3   OH220140   5.830   3.567   4.426
 6728TIP3    H120141   5.767   3.618   4.477
 6728TIP3    H220142   5.785   3.549   4.344
 6729TIP3   OH220143   5.983   5.826   0.977
 6729TIP3    H120144   5.896   5.816   0.939
 6729TIP3    H220145   6.040   5.847   0.903
 6730TIP3   OH220146   5.420   7.418   3.831
 6730TIP3    H120147   5.436   7.389   3.920
 6730TIP3    H220148   5.401   7.339   3.782
 6731TIP3   OH220149   6.963   6.271   0.575
 6731TIP3    H120150   6.925   6.271   0.662
 6731TIP3    H220151   7.057   6.261   0.589
 6732TIP3   OH220152   3.880   3.818   5.151
 6732TIP3    H120153   3.870   3.816   5.056
 6732TIP3    H220154   3.972   3.795   5.166
 6733TIP3   OH220155   0.151   3.329   0.681
 6733TIP3    H120156   0.056   3.327   0.667
 6733TIP3    H220157   0.162   3.376   0.763
 6734TIP3   OH220158   0.217   1.079   6.447
 6734TIP3    H120159   0.204   1.133   6.525
 6734TIP3    H220160   0.298   1.111   6.409
 6735TIP3   OH220161   1.808   5.512   3.899
 6735TIP3    H120162   1.774   5.428   3.870
 6735TIP3    H220163   1.881   5.490   3.957
 6736TIP3   OH220164   3.403   5.104   0.274
 6736TIP3    H120165   3.379   5.149   0.355
 6736TIP3    H220166   3.387   5.169   0.206
 6737TIP3   OH220167   0.218   5.850   2.171
 6737TIP3    H120168   0.139   5.832   2.121
 6737TIP3    H220169   0.245   5.765   2.206
 6738TIP3   OH220170   1.700   2.146   0.822
 6738TIP3    H120171   1.687   2.113   0.734
 6738TIP3    H220172   1.747   2.076   0.867
 6739TIP3   OH220173   3.946   2.977   4.848
 6739TIP3    H120174   4.037   2.948   4.860
 6739TIP3    H220175   3.907   2.971   4.936
 6740TIP3   OH220176   0.956   2.603   4.442
 6740TIP3    H120177   0.983   2.643   4.359
 6740TIP3    H220178   0.890   2.664   4.477
 6741TIP3   OH220179   4.349   6.411   6.070
 6741TIP3    H120180   4.374   6.443   6.157
 6741TIP3    H220181   4.268   6.361   6.086
 6742TIP3   OH220182   3.659   3.409   0.771
 6742TIP3    H120183   3.717   3.334   0.756
 6742TIP3    H220184   3.600   3.380   0.840
 6743TIP3   OH220185   2.683   4.482   2.448
 6743TIP3    H120186   2.645   4.487   2.360
 6743TIP3    H220187   2.731   4.564   2.458
 6744TIP3   OH220188   6.517   4.704   3.474
 6744TIP3    H120189   6.542   4.743   3.391
 6744TIP3    H220190   6.585   4.639   3.491
 6745TIP3   OH220191   2.449   2.213   3.135
 6745TIP3    H120192   2.495   2.156   3.074
 6745TIP3    H220193   2.361   2.175   3.141
 6746TIP3   OH220194   7.982   3.538   3.529
 6746TIP3    H120195   7.980   3.545   3.624
 6746TIP3    H220196   8.072   3.557   3.505
 6747TIP3   OH220197   4.535   6.948   2.654
 6747TIP3    H120198   4.522   7.015   2.587
 6747TIP3    H220199   4.456   6.893   2.648
 6748TIP3   OH220200   3.879   4.997   1.768
 6748TIP3    H120201   3.829   5.048   1.831
 6748TIP3    H220202   3.921   5.062   1.712
 6749TIP3   OH220203   1.267   3.504   6.360
 6749TIP3    H120204   1.284   3.548   6.276
 6749TIP3    H220205   1.181   3.464   6.349
 6750TIP3   OH220206   4.641   0.379   6.477
 6750TIP3    H120207   4.578   0.309   6.495
 6750TIP3    H220208   4.609   0.419   6.396
 6751TIP3   OH220209   0.371   5.197   5.556
 6751TIP3    H120210   0.423   5.222   5.479
 6751TIP3    H220211   0.281   5.196   5.525
 6752TIP3   OH220212   5.335   4.055   6.414
 6752TIP3    H120213   5.313   3.973   6.457
 6752TIP3    H220214   5.279   4.120   6.455
 6753TIP3   OH220215   8.238   7.294   2.992
 6753TIP3    H120216   8.277   7.380   2.978
 6753TIP3    H220217   8.312   7.234   2.996
 6754TIP3   OH220218   3.741   6.041   5.479
 6754TIP3    H120219   3.796   6.008   5.551
 6754TIP3    H220220   3.787   6.014   5.400
 6755TIP3   OH220221   4.647   7.291   1.696
 6755TIP3    H120222   4.564   7.286   1.743
 6755TIP3    H220223   4.682   7.202   1.698
 6756TIP3   OH220224   3.932   2.775   2.890
 6756TIP3    H120225   3.905   2.809   2.805
 6756TIP3    H220226   3.929   2.851   2.948
 6757TIP3   OH220227   0.134   4.713   1.929
 6757TIP3    H120228   0.155   4.672   1.845
 6757TIP3    H220229   0.184   4.795   1.929
 6758TIP3   OH220230   4.781   2.968   0.022
 6758TIP3    H120231   4.834   3.018   0.084
 6758TIP3    H220232   4.812   2.878   0.033
 6759TIP3   OH220233   2.597   7.125   5.300
 6759TIP3    H120234   2.678   7.089   5.264
 6759TIP3    H220235   2.610   7.124   5.395
 6760TIP3   OH220236   4.820   3.969   6.289
 6760TIP3    H120237   4.833   4.031   6.361
 6760TIP3    H220238   4.902   3.973   6.239
 6761TIP3   OH220239   1.037   4.476   3.202
 6761TIP3    H120240   1.095   4.551   3.208
 6761TIP3    H220241   0.979   4.496   3.128
 6762TIP3   OH220242   8.161   4.192   1.705
 6762TIP3    H120243   8.222   4.223   1.773
 6762TIP3    H220244   8.152   4.099   1.722
 6763TIP3   OH220245   0.978   3.320   2.316
 6763TIP3    H120246   1.048   3.360   2.367
 6763TIP3    H220247   0.910   3.387   2.311
 6764TIP3   OH220248   0.740   3.508   3.743
 6764TIP3    H120249   0.744   3.571   3.815
 6764TIP3    H220250   0.715   3.426   3.783
 6765TIP3   OH220251   1.878   5.576   5.120
 6765TIP3    H120252   1.827   5.495   5.107
 6765TIP3    H220253   1.952   5.567   5.060
 6766TIP3   OH220254   7.630   1.591   6.501
 6766TIP3    H120255   7.650   1.683   6.521
 6766TIP3    H220256   7.641   1.546   6.585
 6767TIP3   OH220257   1.658   0.012   4.469
 6767TIP3    H120258   1.576  -0.032   4.492
 6767TIP3    H220259   1.642   0.104   4.491
 6768TIP3   OH220260   1.891   7.289   5.899
 6768TIP3    H120261   1.904   7.368   5.951
 6768TIP3    H220262   1.807   7.303   5.854
 6769TIP3   OH220263   2.085   7.014   2.734
 6769TIP3    H120264   1.996   6.990   2.708
 6769TIP3    H220265   2.074   7.066   2.814
 6770TIP3   OH220266   0.433   4.024   5.751
 6770TIP3    H120267   0.474   4.105   5.722
 6770TIP3    H220268   0.348   4.051   5.786
 6771TIP3   OH220269   6.240   3.826   6.600
 6771TIP3    H120270   6.157   3.793   6.564
 6771TIP3    H220271   6.307   3.795   6.539
 6772TIP3   OH220272   1.803   6.954   2.668
 6772TIP3    H120273   1.755   6.881   2.707
 6772TIP3    H220274   1.767   7.031   2.712
 6773TIP3   OH220275   3.690   3.564   4.883
 6773TIP3    H120276   3.730   3.528   4.804
 6773TIP3    H220277   3.596   3.553   4.869
 6774TIP3   OH220278   8.124   7.609   5.267
 6774TIP3    H120279   8.106   7.535   5.325
 6774TIP3    H220280   8.051   7.669   5.281
 6775TIP3   OH220281   3.383   2.852   2.198
 6775TIP3    H120282   3.431   2.793   2.256
 6775TIP3    H220283   3.371   2.802   2.117
 6776TIP3   OH220284   5.526   0.806   0.422
 6776TIP3    H120285   5.611   0.813   0.380
 6776TIP3    H220286   5.537   0.739   0.489
 6777TIP3   OH220287   2.150   4.809   3.608
 6777TIP3    H120288   2.178   4.736   3.553
 6777TIP3    H220289   2.058   4.789   3.629
 6778TIP3   OH220290   5.056   0.700   3.482
 6778TIP3    H120291   5.006   0.778   3.505
 6778TIP3    H220292   5.147   0.723   3.498
 6779TIP3   OH220293   4.420   2.238   1.741
 6779TIP3    H120294   4.506   2.213   1.708
 6779TIP3    H220295   4.375   2.154   1.755
 6780TIP3   OH220296   2.399   5.018   2.390
 6780TIP3    H120297   2.356   5.022   2.304
 6780TIP3    H220298   2.491   5.038   2.371
 6781TIP3   OH220299   2.723   7.466   4.367
 6781TIP3    H120300   2.643   7.494   4.323
 6781TIP3    H220301   2.778   7.544   4.370
 6782TIP3   OH220302   0.044   2.089   4.727
 6782TIP3    H120303   0.030   2.078   4.632
 6782TIP3    H220304   0.127   2.137   4.733
 6783TIP3   OH220305   7.762   4.685   5.577
 6783TIP3    H120306   7.723   4.708   5.661
 6783TIP3    H220307   7.774   4.590   5.581
 6784TIP3   OH220308   3.938   3.516   1.524
 6784TIP3    H120309   3.920   3.566   1.444
 6784TIP3    H220310   3.856   3.470   1.542
 6785TIP3   OH220311   2.404   3.715   0.873
 6785TIP3    H120312   2.437   3.797   0.910
 6785TIP3    H220313   2.336   3.686   0.935
 6786TIP3   OH220314   3.990   0.747   2.878
 6786TIP3    H120315   4.060   0.697   2.836
 6786TIP3    H220316   4.029   0.783   2.957
 6787TIP3   OH220317   0.096   0.851   0.940
 6787TIP3    H120318   0.098   0.784   0.871
 6787TIP3    H220319   0.032   0.915   0.909
 6788TIP3   OH220320   2.456   6.752   6.416
 6788TIP3    H120321   2.474   6.769   6.509
 6788TIP3    H220322   2.427   6.836   6.382
 6789TIP3   OH220323   7.599   6.761   3.136
 6789TIP3    H120324   7.560   6.707   3.067
 6789TIP3    H220325   7.607   6.848   3.097
 6790TIP3   OH220326   0.708   6.010   6.277
 6790TIP3    H120327   0.736   5.957   6.203
 6790TIP3    H220328   0.688   6.096   6.239
 6791TIP3   OH220329   0.049   4.170   4.231
 6791TIP3    H120330  -0.009   4.247   4.235
 6791TIP3    H220331   0.112   4.191   4.162
 6792TIP3   OH220332   2.916   0.557   0.320
 6792TIP3    H120333   2.986   0.609   0.358
 6792TIP3    H220334   2.951   0.469   0.315
 6793TIP3   OH220335   0.782   0.787   4.960
 6793TIP3    H120336   0.764   0.698   4.932
 6793TIP3    H220337   0.782   0.838   4.879
 6794TIP3   OH220338   6.095   4.487   5.670
 6794TIP3    H120339   6.179   4.518   5.703
 6794TIP3    H220340   6.063   4.427   5.738
 6795TIP3   OH220341   8.087   3.872   0.313
 6795TIP3    H120342   8.038   3.791   0.325
 6795TIP3    H220343   8.158   3.867   0.376
 6796TIP3   OH220344   3.080   1.923   2.766
 6796TIP3    H120345   3.086   1.830   2.785
 6796TIP3    H220346   3.092   1.966   2.851
 6797TIP3   OH220347   0.368   7.421   5.014
 6797TIP3    H120348   0.290   7.398   5.064
 6797TIP3    H220349   0.390   7.341   4.965
 6798TIP3   OH220350   7.802   3.878   2.648
 6798TIP3    H120351   7.847   3.947   2.598
 6798TIP3    H220352   7.856   3.865   2.726
 6799TIP3   OH220353   7.813   5.310   0.035
 6799TIP3    H120354   7.802   5.215   0.026
 6799TIP3    H220355   7.871   5.335  -0.037
 6800TIP3   OH220356   5.238   7.691   2.782
 6800TIP3    H120357   5.308   7.718   2.841
 6800TIP3    H220358   5.176   7.644   2.838
 6801TIP3   OH220359   4.137   2.350   6.425
 6801TIP3    H120360   4.134   2.303   6.341
 6801TIP3    H220361   4.224   2.390   6.427
 6802TIP3   OH220362   1.483   4.689   5.467
 6802TIP3    H120363   1.486   4.657   5.377
 6802TIP3    H220364   1.559   4.648   5.509
 6803TIP3   OH220365   7.114   4.316   4.194
 6803TIP3    H120366   7.072   4.262   4.261
 6803TIP3    H220367   7.200   4.337   4.230
 6804TIP3   OH220368   2.536   6.801   6.656
 6804TIP3    H120369   2.565   6.744   6.727
 6804TIP3    H220370   2.614   6.850   6.631
 6805TIP3   OH220371   8.210   7.501   3.185
 6805TIP3    H120372   8.180   7.555   3.258
 6805TIP3    H220373   8.148   7.428   3.182
 6806TIP3   OH220374   7.163   4.158   2.696
 6806TIP3    H120375   7.144   4.244   2.734
 6806TIP3    H220376   7.196   4.177   2.608
 6807TIP3   OH220377   0.579   6.886   2.989
 6807TIP3    H120378   0.625   6.951   2.936
 6807TIP3    H220379   0.623   6.803   2.969
 6808TIP3   OH220380   5.709   1.116   6.589
 6808TIP3    H120381   5.714   1.200   6.545
 6808TIP3    H220382   5.729   1.051   6.522
 6809TIP3   OH220383   1.399   7.793   2.636
 6809TIP3    H120384   1.420   7.886   2.634
 6809TIP3    H220385   1.351   7.780   2.717
 6810TIP3   OH220386   7.477   7.190   1.945
 6810TIP3    H120387   7.442   7.101   1.956
 6810TIP3    H220388   7.506   7.193   1.853
 6811TIP3   OH220389   6.956   4.330   4.870
 6811TIP3    H120390   7.044   4.354   4.899
 6811TIP3    H220391   6.970   4.262   4.805
 6812TIP3   OH220392   7.918   6.377   1.175
 6812TIP3    H120393   7.976   6.418   1.238
 6812TIP3    H220394   7.940   6.418   1.091
 6813TIP3   OH220395   0.846   6.678   5.125
 6813TIP3    H120396   0.865   6.607   5.186
 6813TIP3    H220397   0.846   6.636   5.039
 6814TIP3   OH220398   3.605   2.148   5.832
 6814TIP3    H120399   3.658   2.087   5.883
 6814TIP3    H220400   3.516   2.133   5.861
 6815TIP3   OH220401   5.264   7.228   3.681
 6815TIP3    H120402   5.218   7.178   3.749
 6815TIP3    H220403   5.198   7.241   3.613
 6816TIP3   OH220404   4.279   3.812   6.318
 6816TIP3    H120405   4.196   3.787   6.357
 6816TIP3    H220406   4.265   3.902   6.288
 6817TIP3   OH220407   1.539   2.264   0.464
 6817TIP3    H120408   1.593   2.337   0.496
 6817TIP3    H220409   1.466   2.260   0.525
 6818TIP3   OH220410   5.467   5.188   0.320
 6818TIP3    H120411   5.494   5.172   0.410
 6818TIP3    H220412   5.429   5.106   0.291
 6819TIP3   OH220413   0.924   7.170   3.033
 6819TIP3    H120414   0.882   7.118   3.101
 6819TIP3    H220415   1.003   7.205   3.074
 6820TIP3   OH220416   3.421   6.844   1.062
 6820TIP3    H120417   3.399   6.758   1.097
 6820TIP3    H220418   3.491   6.829   1.000
 6821TIP3   OH220419   0.380   3.382   1.176
 6821TIP3    H120420   0.471   3.403   1.197
 6821TIP3    H220421   0.386   3.302   1.124
 6822TIP3   OH220422   8.094   2.576   1.335
 6822TIP3    H120423   8.119   2.558   1.425
 6822TIP3    H220424   8.038   2.654   1.340
 6823TIP3   OH220425   2.620   7.432   6.342
 6823TIP3    H120426   2.536   7.467   6.313
 6823TIP3    H220427   2.597   7.363   6.405
 6824TIP3   OH220428   0.231   2.437   4.659
 6824TIP3    H120429   0.308   2.451   4.604
 6824TIP3    H220430   0.157   2.438   4.598
 6825TIP3   OH220431   6.222   7.260   4.986
 6825TIP3    H120432   6.142   7.207   4.988
 6825TIP3    H220433   6.195   7.345   5.020
 6826TIP3   OH220434   4.389   2.395   4.774
 6826TIP3    H120435   4.483   2.399   4.755
 6826TIP3    H220436   4.373   2.472   4.829
 6827TIP3   OH220437   5.161   4.386   1.758
 6827TIP3    H120438   5.094   4.442   1.719
 6827TIP3    H220439   5.223   4.448   1.798
 6828TIP3   OH220440   0.130   7.108   1.648
 6828TIP3    H120441   0.171   7.023   1.633
 6828TIP3    H220442   0.036   7.091   1.637
 6829TIP3   OH220443   3.279   1.731   3.603
 6829TIP3    H120444   3.304   1.820   3.577
 6829TIP3    H220445   3.306   1.724   3.695
 6830TIP3   OH220446  -0.015   7.770   5.760
 6830TIP3    H120447  -0.018   7.785   5.854
 6830TIP3    H220448   0.062   7.818   5.730
 6831TIP3   OH220449   3.958   2.511   2.603
 6831TIP3    H120450   3.919   2.427   2.626
 6831TIP3    H220451   4.025   2.525   2.671
 6832TIP3   OH220452   6.423   6.053   4.284
 6832TIP3    H120453   6.353   6.006   4.239
 6832TIP3    H220454   6.496   6.051   4.222
 6833TIP3   OH220455   2.639   2.021   1.757
 6833TIP3    H120456   2.584   1.943   1.752
 6833TIP3    H220457   2.659   2.042   1.666
 6834TIP3   OH220458   7.318   4.743   5.805
 6834TIP3    H120459   7.408   4.771   5.822
 6834TIP3    H220460   7.325   4.648   5.792
 6835TIP3   OH220461   3.658   6.150   0.118
 6835TIP3    H120462   3.599   6.095   0.066
 6835TIP3    H220463   3.673   6.099   0.198
 6836TIP3   OH220464   3.328   4.256   1.532
 6836TIP3    H120465   3.352   4.308   1.608
 6836TIP3    H220466   3.399   4.270   1.469
 6837TIP3   OH220467   5.305   2.033   1.690
 6837TIP3    H120468   5.277   2.116   1.729
 6837TIP3    H220469   5.396   2.023   1.717
 6838TIP3   OH220470   1.488   4.962   4.891
 6838TIP3    H120471   1.516   4.874   4.870
 6838TIP3    H220472   1.464   5.001   4.807
 6839TIP3   OH220473   6.528   1.529   1.265
 6839TIP3    H120474   6.463   1.575   1.318
 6839TIP3    H220475   6.600   1.591   1.254
 6840TIP3   OH220476   1.725   1.086   1.551
 6840TIP3    H120477   1.815   1.112   1.533
 6840TIP3    H220478   1.718   1.087   1.647
 6841TIP3   OH220479   0.196   6.054   1.642
 6841TIP3    H120480   0.233   6.103   1.716
 6841TIP3    H220481   0.260   5.986   1.623
 6842TIP3   OH220482   0.947   6.542   2.388
 6842TIP3    H120483   0.865   6.586   2.366
 6842TIP3    H220484   0.967   6.572   2.477
 6843TIP3   OH220485   3.573   6.441   5.309
 6843TIP3    H120486   3.598   6.414   5.397
 6843TIP3    H220487   3.579   6.361   5.257
 6844TIP3   OH220488   7.764   6.002   2.877
 6844TIP3    H120489   7.738   6.086   2.838
 6844TIP3    H220490   7.805   6.025   2.960
 6845TIP3   OH220491   4.396   0.841   0.404
 6845TIP3    H120492   4.400   0.831   0.500
 6845TIP3    H220493   4.328   0.779   0.377
 6846TIP3   OH220494   8.164   7.225   1.867
 6846TIP3    H120495   8.257   7.203   1.876
 6846TIP3    H220496   8.127   7.150   1.820
 6847TIP3   OH220497   5.288   0.426   6.476
 6847TIP3    H120498   5.236   0.385   6.544
 6847TIP3    H220499   5.295   0.359   6.407
 6848TIP3   OH220500   4.126   7.443   4.031
 6848TIP3    H120501   4.051   7.384   4.029
 6848TIP3    H220502   4.201   7.387   4.011
 6849TIP3   OH220503   0.245   2.047   5.033
 6849TIP3    H120504   0.160   2.024   5.071
 6849TIP3    H220505   0.230   2.128   4.985
 6850TIP3   OH220506  -0.006   3.134   1.689
 6850TIP3    H120507  -0.006   3.158   1.782
 6850TIP3    H220508   0.065   3.185   1.651
 6851TIP3   OH220509   5.197   3.376   4.022
 6851TIP3    H120510   5.110   3.401   4.054
 6851TIP3    H220511   5.180   3.332   3.939
 6852TIP3   OH220512   6.854   5.776   1.462
 6852TIP3    H120513   6.882   5.694   1.501
 6852TIP3    H220514   6.809   5.822   1.532
 6853TIP3   OH220515   3.521   3.802   4.073
 6853TIP3    H120516   3.566   3.811   3.988
 6853TIP3    H220517   3.445   3.748   4.053
 6854TIP3   OH220518   7.674   1.484   2.366
 6854TIP3    H120519   7.724   1.474   2.447
 6854TIP3    H220520   7.720   1.431   2.302
 6855TIP3   OH220521   3.807   0.748   4.333
 6855TIP3    H120522   3.780   0.675   4.277
 6855TIP3    H220523   3.745   0.746   4.406
 6856TIP3   OH220524   6.518   1.903   1.029
 6856TIP3    H120525   6.469   1.840   0.976
 6856TIP3    H220526   6.454   1.935   1.093
 6857TIP3   OH220527   5.063   7.310   5.899
 6857TIP3    H120528   5.006   7.378   5.865
 6857TIP3    H220529   5.135   7.357   5.941
 6858TIP3   OH220530   7.775   3.317   1.633
 6858TIP3    H120531   7.726   3.235   1.643
 6858TIP3    H220532   7.867   3.291   1.636
 6859TIP3   OH220533   6.524   5.408   6.065
 6859TIP3    H120534   6.526   5.328   6.118
 6859TIP3    H220535   6.446   5.399   6.010
 6860TIP3   OH220536   3.810   1.006   0.116
 6860TIP3    H120537   3.736   1.064   0.131
 6860TIP3    H220538   3.780   0.945   0.049
 6861TIP3   OH220539   5.243   0.157   4.730
 6861TIP3    H120540   5.255   0.085   4.792
 6861TIP3    H220541   5.201   0.115   4.654
 6862TIP3   OH220542   5.860   2.217   1.004
 6862TIP3    H120543   5.853   2.122   0.991
 6862TIP3    H220544   5.789   2.253   0.951
 6863TIP3   OH220545   7.691   5.760   2.002
 6863TIP3    H120546   7.774   5.792   2.036
 6863TIP3    H220547   7.712   5.729   1.913
 6864TIP3   OH220548   7.054   2.373   6.691
 6864TIP3    H120549   7.016   2.455   6.724
 6864TIP3    H220550   6.992   2.305   6.716
 6865TIP3   OH220551   1.891   3.463   6.643
 6865TIP3    H120552   1.812   3.415   6.621
 6865TIP3    H220553   1.957   3.395   6.660
 6866TIP3   OH220554   0.880   6.759   0.943
 6866TIP3    H120555   0.841   6.846   0.929
 6866TIP3    H220556   0.926   6.767   1.027
 6867TIP3   OH220557   5.841   2.234   0.609
 6867TIP3    H120558   5.799   2.200   0.688
 6867TIP3    H220559   5.883   2.315   0.638
 6868TIP3   OH220560   6.252   4.565   1.261
 6868TIP3    H120561   6.244   4.507   1.337
 6868TIP3    H220562   6.172   4.550   1.211
 6869TIP3   OH220563   4.116   0.077   3.632
 6869TIP3    H120564   4.075   0.140   3.572
 6869TIP3    H220565   4.115   0.121   3.717
 6870TIP3   OH220566   8.206   4.738   0.929
 6870TIP3    H120567   8.267   4.726   0.857
 6870TIP3    H220568   8.171   4.826   0.918
 6871TIP3   OH220569   1.157   6.251   6.248
 6871TIP3    H120570   1.103   6.266   6.326
 6871TIP3    H220571   1.247   6.256   6.280
 6872TIP3   OH220572   5.039   5.058   6.213
 6872TIP3    H120573   4.957   5.074   6.167
 6872TIP3    H220574   5.055   4.964   6.202
 6873TIP3   OH220575   1.897   7.107   4.749
 6873TIP3    H120576   1.815   7.059   4.759
 6873TIP3    H220577   1.963   7.053   4.792
 6874TIP3   OH220578   6.841   4.573   5.126
 6874TIP3    H120579   6.803   4.504   5.072
 6874TIP3    H220580   6.916   4.532   5.168
 6875TIP3   OH220581   3.459   0.766   5.716
 6875TIP3    H120582   3.437   0.731   5.802
 6875TIP3    H220583   3.476   0.688   5.662
 6876TIP3   OH220584   7.728   7.107   1.399
 6876TIP3    H120585   7.731   7.200   1.377
 6876TIP3    H220586   7.636   7.083   1.388
 6877TIP3   OH220587   1.184   5.317   3.653
 6877TIP3    H120588   1.205   5.400   3.610
 6877TIP3    H220589   1.091   5.323   3.673
 6878TIP3   OH220590   7.532   1.517   0.540
 6878TIP3    H120591   7.609   1.488   0.590
 6878TIP3    H220592   7.569   1.551   0.458
 6879TIP3   OH220593   0.572   1.682   2.039
 6879TIP3    H120594   0.540   1.722   2.120
 6879TIP3    H220595   0.586   1.755   1.979
 6880TIP3   OH220596   6.757   3.451   5.526
 6880TIP3    H120597   6.804   3.423   5.604
 6880TIP3    H220598   6.665   3.436   5.545
 6881TIP3   OH220599   2.393   2.755   3.498
 6881TIP3    H120600   2.476   2.801   3.482
 6881TIP3    H220601   2.331   2.796   3.439
 6882TIP3   OH220602   3.520   4.727   1.786
 6882TIP3    H120603   3.589   4.756   1.726
 6882TIP3    H220604   3.544   4.765   1.870
 6883TIP3   OH220605   5.405   6.743   6.421
 6883TIP3    H120606   5.427   6.661   6.466
 6883TIP3    H220607   5.443   6.811   6.476
 6884TIP3   OH220608   3.617   4.560   3.738
 6884TIP3    H120609   3.648   4.628   3.678
 6884TIP3    H220610   3.589   4.489   3.680
 6885TIP3   OH220611   4.692   7.184   2.115
 6885TIP3    H120612   4.610   7.176   2.067
 6885TIP3    H220613   4.752   7.123   2.072
 6886TIP3   OH220614   3.639   2.915   3.500
 6886TIP3    H120615   3.600   2.853   3.561
 6886TIP3    H220616   3.651   2.995   3.552
 6887TIP3   OH220617   3.495   6.597   4.971
 6887TIP3    H120618   3.453   6.631   5.050
 6887TIP3    H220619   3.427   6.603   4.903
 6888TIP3   OH220620   3.480   5.266   4.825
 6888TIP3    H120621   3.405   5.282   4.883
 6888TIP3    H220622   3.512   5.180   4.851
 6889TIP3   OH220623   7.445   4.175   3.905
 6889TIP3    H120624   7.373   4.219   3.859
 6889TIP3    H220625   7.440   4.084   3.876
 6890TIP3   OH220626   6.785   1.881   3.063
 6890TIP3    H120627   6.801   1.970   3.093
 6890TIP3    H220628   6.770   1.831   3.143
 6891TIP3   OH220629   0.187   5.566   2.196
 6891TIP3    H120630   0.141   5.586   2.115
 6891TIP3    H220631   0.278   5.551   2.170
 6892TIP3   OH220632   4.921   6.845   0.752
 6892TIP3    H120633   4.994   6.866   0.809
 6892TIP3    H220634   4.959   6.843   0.664
 6893TIP3   OH220635   0.598   7.613   3.390
 6893TIP3    H120636   0.606   7.673   3.464
 6893TIP3    H220637   0.527   7.553   3.414
 6894TIP3   OH220638   0.288   6.143   3.738
 6894TIP3    H120639   0.195   6.122   3.748
 6894TIP3    H220640   0.317   6.163   3.827
 6895TIP3   OH220641   0.804   4.395   3.071
 6895TIP3    H120642   0.742   4.326   3.093
 6895TIP3    H220643   0.777   4.469   3.126
 6896TIP3   OH220644   1.376   5.826   3.734
 6896TIP3    H120645   1.320   5.775   3.676
 6896TIP3    H220646   1.464   5.788   3.722
 6897TIP3   OH220647   6.741   2.889   5.665
 6897TIP3    H120648   6.812   2.940   5.626
 6897TIP3    H220649   6.684   2.867   5.591
 6898TIP3   OH220650   1.473   0.222   1.358
 6898TIP3    H120651   1.478   0.136   1.316
 6898TIP3    H220652   1.397   0.264   1.317
 6899TIP3   OH220653   6.698   0.915   6.597
 6899TIP3    H120654   6.682   0.910   6.691
 6899TIP3    H220655   6.748   0.996   6.586
 6900TIP3   OH220656   1.040   3.270   6.115
 6900TIP3    H120657   0.977   3.199   6.129
 6900TIP3    H220658   1.035   3.322   6.196
 6901TIP3   OH220659   7.436   5.228   5.858
 6901TIP3    H120660   7.521   5.257   5.889
 6901TIP3    H220661   7.444   5.133   5.849
 6902TIP3   OH220662   3.768   2.851   4.214
 6902TIP3    H120663   3.809   2.890   4.137
 6902TIP3    H220664   3.840   2.806   4.259
 6903TIP3   OH220665   1.557   0.996   3.053
 6903TIP3    H120666   1.602   0.974   2.972
 6903TIP3    H220667   1.527   0.912   3.088
 6904TIP3   OH220668   4.170   5.231   6.084
 6904TIP3    H120669   4.228   5.264   6.015
 6904TIP3    H220670   4.228   5.181   6.141
 6905TIP3   OH220671   7.113   6.897   5.842
 6905TIP3    H120672   7.101   6.855   5.927
 6905TIP3    H220673   7.179   6.843   5.798
 6906TIP3   OH220674   4.604  -0.020   5.272
 6906TIP3    H120675   4.530   0.036   5.294
 6906TIP3    H220676   4.678   0.018   5.320
 6907TIP3   OH220677   1.791   1.711   0.766
 6907TIP3    H120678   1.840   1.783   0.806
 6907TIP3    H220679   1.790   1.643   0.833
 6908TIP3   OH220680   7.208   7.452   3.073
 6908TIP3    H120681   7.157   7.512   3.018
 6908TIP3    H220682   7.295   7.492   3.077
 6909TIP3   OH220683   0.020   2.901   0.505
 6909TIP3    H120684   0.019   2.944   0.590
 6909TIP3    H220685  -0.071   2.874   0.490
 6910TIP3   OH220686   3.738   6.650   5.346
 6910TIP3    H120687   3.688   6.586   5.296
 6910TIP3    H220688   3.685   6.667   5.424
 6911TIP3   OH220689   0.820   4.072   1.972
 6911TIP3    H120690   0.742   4.025   2.000
 6911TIP3    H220691   0.823   4.150   2.027
 6912TIP3   OH220692   3.175   6.636   0.978
 6912TIP3    H120693   3.095   6.645   1.029
 6912TIP3    H220694   3.187   6.722   0.936
 6913TIP3   OH220695   2.543   4.539   6.118
 6913TIP3    H120696   2.568   4.451   6.146
 6913TIP3    H220697   2.508   4.526   6.029
 6914TIP3   OH220698   1.183   4.822   2.759
 6914TIP3    H120699   1.106   4.770   2.737
 6914TIP3    H220700   1.204   4.869   2.679
 6915TIP3   OH220701   4.039   7.732   1.241
 6915TIP3    H120702   4.073   7.787   1.312
 6915TIP3    H220703   3.956   7.698   1.275
 6916TIP3   OH220704   0.129   3.922   1.935
 6916TIP3    H120705   0.162   3.966   1.856
 6916TIP3    H220706   0.143   3.986   2.005
 6917TIP3   OH220707   7.310   6.056   2.989
 6917TIP3    H120708   7.264   6.012   3.061
 6917TIP3    H220709   7.340   5.985   2.932
 6918TIP3   OH220710   5.229   5.564   5.845
 6918TIP3    H120711   5.268   5.556   5.758
 6918TIP3    H220712   5.234   5.476   5.882
 6919TIP3   OH220713   0.590   3.469   5.358
 6919TIP3    H120714   0.582   3.523   5.437
 6919TIP3    H220715   0.684   3.467   5.340
 6920TIP3   OH220716   7.862   6.780   3.931
 6920TIP3    H120717   7.832   6.741   3.849
 6920TIP3    H220718   7.828   6.722   4.000
 6921TIP3   OH220719   1.953   7.493   6.070
 6921TIP3    H120720   2.038   7.511   6.110
 6921TIP3    H220721   1.889   7.525   6.133
 6922TIP3   OH220722   3.604   6.693   5.573
 6922TIP3    H120723   3.521   6.694   5.621
 6922TIP3    H220724   3.664   6.645   5.631
 6923TIP3   OH220725   7.286   3.239   3.148
 6923TIP3    H120726   7.261   3.278   3.232
 6923TIP3    H220727   7.215   3.263   3.089
 6924TIP3   OH220728   8.003   7.746   0.116
 6924TIP3    H120729   8.088   7.789   0.103
 6924TIP3    H220730   8.012   7.701   0.200
 6925TIP3   OH220731   0.544   6.515   4.702
 6925TIP3    H120732   0.571   6.601   4.734
 6925TIP3    H220733   0.622   6.480   4.660
 6926TIP3   OH220734   5.584   7.048   0.062
 6926TIP3    H120735   5.650   7.099   0.108
 6926TIP3    H220736   5.521   7.113   0.031
 6927TIP3   OH220737   0.300   4.014   6.344
 6927TIP3    H120738   0.351   4.011   6.425
 6927TIP3    H220739   0.219   4.059   6.368
 6928TIP3   OH220740   8.084   7.612   6.514
 6928TIP3    H120741   8.128   7.683   6.561
 6928TIP3    H220742   8.001   7.650   6.485
 6929TIP3   OH220743   7.760   4.338   1.816
 6929TIP3    H120744   7.821   4.402   1.779
 6929TIP3    H220745   7.674   4.364   1.780
 6930TIP3   OH220746   6.863   6.530   6.649
 6930TIP3    H120747   6.867   6.615   6.693
 6930TIP3    H220748   6.824   6.549   6.564
 6931TIP3   OH220749   2.116   0.187   3.131
 6931TIP3    H120750   2.112   0.092   3.141
 6931TIP3    H220751   2.166   0.201   3.051
 6932TIP3   OH220752   5.943   1.289   6.000
 6932TIP3    H120753   5.993   1.303   6.081
 6932TIP3    H220754   5.983   1.348   5.937
 6933TIP3   OH220755   7.640   0.164   3.505
 6933TIP3    H120756   7.551   0.193   3.523
 6933TIP3    H220757   7.695   0.227   3.551
 6934TIP3   OH220758   2.725   4.079   0.510
 6934TIP3    H120759   2.793   4.080   0.577
 6934TIP3    H220760   2.647   4.048   0.556
 6935TIP3   OH220761   5.390   6.154   3.500
 6935TIP3    H120762   5.438   6.070   3.497
 6935TIP3    H220763   5.404   6.192   3.413
 6936TIP3   OH220764   4.813   6.815   2.688
 6936TIP3    H120765   4.831   6.730   2.649
 6936TIP3    H220766   4.871   6.818   2.764
 6937TIP3   OH220767   4.394   7.600   5.595
 6937TIP3    H120768   4.354   7.683   5.570
 6937TIP3    H220769   4.384   7.544   5.517
 6938TIP3   OH220770   4.438   0.586   0.932
 6938TIP3    H120771   4.530   0.574   0.955
 6938TIP3    H220772   4.400   0.498   0.937
 6939TIP3   OH220773   7.233   3.247   1.708
 6939TIP3    H120774   7.320   3.257   1.671
 6939TIP3    H220775   7.245   3.188   1.782
 6940TIP3   OH220776   1.951   6.555   1.050
 6940TIP3    H120777   1.919   6.514   0.969
 6940TIP3    H220778   2.045   6.563   1.037
 6941TIP3   OH220779   6.638   2.518   4.364
 6941TIP3    H120780   6.668   2.609   4.365
 6941TIP3    H220781   6.703   2.471   4.312
 6942TIP3   OH220782   4.812   3.041   2.485
 6942TIP3    H120783   4.846   3.099   2.553
 6942TIP3    H220784   4.832   2.953   2.517
 6943TIP3   OH220785   3.729   0.059   6.058
 6943TIP3    H120786   3.685  -0.017   6.019
 6943TIP3    H220787   3.660   0.103   6.107
 6944TIP3   OH220788   4.336   7.065   1.691
 6944TIP3    H120789   4.269   6.998   1.702
 6944TIP3    H220790   4.394   7.029   1.624
 6945TIP3   OH220791   4.309   1.395   1.470
 6945TIP3    H120792   4.379   1.409   1.406
 6945TIP3    H220793   4.355   1.386   1.554
 6946TIP3   OH220794   0.664   3.368   0.539
 6946TIP3    H120795   0.692   3.413   0.459
 6946TIP3    H220796   0.744   3.354   0.588
 6947TIP3   OH220797   0.121   7.236   2.394
 6947TIP3    H120798   0.162   7.199   2.316
 6947TIP3    H220799   0.165   7.320   2.407
 6948TIP3   OH220800   6.009   7.180   0.055
 6948TIP3    H120801   6.079   7.240   0.077
 6948TIP3    H220802   5.961   7.223  -0.016
 6949TIP3   OH220803   8.219   7.632   5.529
 6949TIP3    H120804   8.209   7.697   5.459
 6949TIP3    H220805   8.222   7.685   5.609
 6950TIP3   OH220806   3.796   5.292   0.301
 6950TIP3    H120807   3.760   5.286   0.213
 6950TIP3    H220808   3.809   5.201   0.328
 6951TIP3   OH220809   1.599   6.670   0.553
 6951TIP3    H120810   1.656   6.621   0.494
 6951TIP3    H220811   1.571   6.606   0.618
 6952TIP3   OH220812   4.632   1.738   0.972
 6952TIP3    H120813   4.660   1.666   0.916
 6952TIP3    H220814   4.707   1.797   0.973
 6953TIP3   OH220815   6.946   0.034   0.976
 6953TIP3    H120816   6.948   0.017   1.070
 6953TIP3    H220817   6.899   0.118   0.968
 6954TIP3   OH220818   7.835   2.694   3.331
 6954TIP3    H120819   7.770   2.625   3.338
 6954TIP3    H220820   7.822   2.732   3.245
 6955TIP3   OH220821   3.252   1.324   6.786
 6955TIP3    H120822   3.199   1.392   6.745
 6955TIP3    H220823   3.331   1.320   6.732
 6956TIP3   OH220824   4.704   2.986   5.650
 6956TIP3    H120825   4.749   3.055   5.601
 6956TIP3    H220826   4.622   2.972   5.602
 6957TIP3   OH220827   2.642   0.805   3.191
 6957TIP3    H120828   2.626   0.893   3.225
 6957TIP3    H220829   2.639   0.815   3.096
 6958TIP3   OH220830   4.548   7.416   1.059
 6958TIP3    H120831   4.575   7.429   1.150
 6958TIP3    H220832   4.590   7.335   1.033
 6959TIP3   OH220833   4.990   7.328   3.234
 6959TIP3    H120834   5.022   7.321   3.144
 6959TIP3    H220835   4.896   7.343   3.225
 6960TIP3   OH220836   8.130   1.683   2.738
 6960TIP3    H120837   8.164   1.769   2.713
 6960TIP3    H220838   8.187   1.653   2.809
 6961TIP3   OH220839   6.683   2.744   0.135
 6961TIP3    H120840   6.618   2.700   0.080
 6961TIP3    H220841   6.763   2.743   0.083
 6962TIP3   OH220842   5.495   1.679   3.643
 6962TIP3    H120843   5.582   1.657   3.676
 6962TIP3    H220844   5.445   1.705   3.721
 6963TIP3   OH220845   7.744   3.269   4.694
 6963TIP3    H120846   7.761   3.188   4.644
 6963TIP3    H220847   7.758   3.339   4.631
 6964TIP3   OH220848   6.150   4.645   5.919
 6964TIP3    H120849   6.129   4.552   5.909
 6964TIP3    H220850   6.216   4.662   5.852
 6965TIP3   OH220851   7.051   4.760   0.698
 6965TIP3    H120852   6.966   4.803   0.695
 6965TIP3    H220853   7.034   4.676   0.740
 6966TIP3   OH220854   2.347   0.142   4.820
 6966TIP3    H120855   2.281   0.182   4.763
 6966TIP3    H220856   2.430   0.174   4.787
 6967TIP3   OH220857   7.282   3.531   0.881
 6967TIP3    H120858   7.235   3.570   0.808
 6967TIP3    H220859   7.214   3.504   0.942
 6968TIP3   OH220860   4.572   5.464   2.965
 6968TIP3    H120861   4.571   5.374   2.997
 6968TIP3    H220862   4.506   5.466   2.896
 6969TIP3   OH220863   8.021   4.673   5.699
 6969TIP3    H120864   7.929   4.694   5.683
 6969TIP3    H220865   8.019   4.615   5.776
 6970TIP3   OH220866   2.441   7.591   5.123
 6970TIP3    H120867   2.516   7.532   5.109
 6970TIP3    H220868   2.403   7.561   5.206
 6971TIP3   OH220869   6.380   4.797   1.122
 6971TIP3    H120870   6.285   4.813   1.123
 6971TIP3    H220871   6.394   4.732   1.190
 6972TIP3   OH220872   7.603   4.394   0.704
 6972TIP3    H120873   7.640   4.426   0.622
 6972TIP3    H220874   7.633   4.456   0.770
 6973TIP3   OH220875   2.666   0.645   5.027
 6973TIP3    H120876   2.703   0.687   5.104
 6973TIP3    H220877   2.596   0.589   5.062
 6974TIP3   OH220878   7.435   4.157   3.010
 6974TIP3    H120879   7.503   4.106   2.966
 6974TIP3    H220880   7.353   4.114   2.985
 6975TIP3   OH220881   5.975   6.880   2.425
 6975TIP3    H120882   6.013   6.830   2.497
 6975TIP3    H220883   6.026   6.960   2.420
 6976TIP3   OH220884   3.190   0.776   1.961
 6976TIP3    H120885   3.140   0.731   1.894
 6976TIP3    H220886   3.190   0.716   2.036
 6977TIP3   OH220887   2.448   6.511   2.611
 6977TIP3    H120888   2.458   6.597   2.571
 6977TIP3    H220889   2.515   6.457   2.567
 6978TIP3   OH220890   3.829   1.039   1.959
 6978TIP3    H120891   3.738   1.049   1.934
 6978TIP3    H220892   3.829   0.964   2.019
 6979TIP3   OH220893   2.701   4.011   2.479
 6979TIP3    H120894   2.637   3.975   2.541
 6979TIP3    H220895   2.732   4.092   2.522
 6980TIP3   OH220896   3.483   0.631   2.754
 6980TIP3    H120897   3.567   0.633   2.708
 6980TIP3    H220898   3.435   0.706   2.720
 6981TIP3   OH220899   1.000   0.832   1.910
 6981TIP3    H120900   0.945   0.827   1.831
 6981TIP3    H220901   1.083   0.866   1.879
 6982TIP3   OH220902   4.031   2.653   4.256
 6982TIP3    H120903   3.973   2.592   4.302
 6982TIP3    H220904   4.020   2.632   4.164
 6983TIP3   OH220905   0.235   4.864   1.401
 6983TIP3    H120906   0.221   4.953   1.434
 6983TIP3    H220907   0.152   4.839   1.361
 6984TIP3   OH220908   0.365   6.369   4.407
 6984TIP3    H120909   0.354   6.460   4.380
 6984TIP3    H220910   0.311   6.319   4.346
 6985TIP3   OH220911   0.626   0.073   5.837
 6985TIP3    H120912   0.583   0.151   5.873
 6985TIP3    H220913   0.668   0.033   5.913
 6986TIP3   OH220914   3.828   4.234   1.280
 6986TIP3    H120915   3.829   4.158   1.221
 6986TIP3    H220916   3.834   4.197   1.368
 6987TIP3   OH220917   2.746   1.116   2.125
 6987TIP3    H120918   2.667   1.167   2.109
 6987TIP3    H220919   2.817   1.181   2.124
 6988TIP3   OH220920   2.147   4.977   5.820
 6988TIP3    H120921   2.113   5.058   5.857
 6988TIP3    H220922   2.153   4.917   5.895
 6989TIP3   OH220923   7.975   3.399   4.308
 6989TIP3    H120924   7.938   3.481   4.276
 6989TIP3    H220925   7.916   3.332   4.274
 6990TIP3   OH220926   5.691   6.451   3.498
 6990TIP3    H120927   5.704   6.378   3.437
 6990TIP3    H220928   5.648   6.410   3.574
 6991TIP3   OH220929   4.620   4.170   6.450
 6991TIP3    H120930   4.612   4.257   6.410
 6991TIP3    H220931   4.712   4.165   6.477
 6992TIP3   OH220932   6.312   7.527   5.682
 6992TIP3    H120933   6.219   7.535   5.701
 6992TIP3    H220934   6.326   7.433   5.668
 6993TIP3   OH220935   5.329   6.101   1.853
 6993TIP3    H120936   5.358   6.147   1.774
 6993TIP3    H220937   5.237   6.080   1.837
 6994TIP3   OH220938   3.715   1.666   0.717
 6994TIP3    H120939   3.803   1.642   0.746
 6994TIP3    H220940   3.726   1.689   0.624
 6995TIP3   OH220941   6.505   1.656   0.323
 6995TIP3    H120942   6.433   1.597   0.346
 6995TIP3    H220943   6.485   1.685   0.234
 6996TIP3   OH220944   7.395   7.755   6.186
 6996TIP3    H120945   7.442   7.829   6.222
 6996TIP3    H220946   7.316   7.793   6.147
 6997TIP3   OH220947   0.268   2.874   1.854
 6997TIP3    H120948   0.255   2.824   1.773
 6997TIP3    H220949   0.196   2.845   1.911
 6998TIP3   OH220950   0.967   2.250   5.538
 6998TIP3    H120951   1.006   2.167   5.512
 6998TIP3    H220952   1.018   2.316   5.491
 6999TIP3   OH220953   7.668   3.512   1.297
 6999TIP3    H120954   7.662   3.419   1.279
 6999TIP3    H220955   7.579   3.545   1.284
 7000TIP3   OH220956   5.934   1.007   0.338
 7000TIP3    H120957   5.896   0.946   0.274
 7000TIP3    H220958   5.974   0.950   0.404
 7001TIP3   OH220959   0.483   4.986   4.975
 7001TIP3    H120960   0.422   4.981   4.901
 7001TIP3    H220961   0.435   5.036   5.041
 7002TIP3   OH220962   7.876   6.148   6.041
 7002TIP3    H120963   7.906   6.236   6.020
 7002TIP3    H220964   7.784   6.147   6.014
 7003TIP3   OH220965   0.914   5.987   4.073
 7003TIP3    H120966   0.954   5.900   4.078
 7003TIP3    H220967   0.983   6.043   4.037
 7004TIP3   OH220968   0.791   6.685   3.256
 7004TIP3    H120969   0.879   6.675   3.220
 7004TIP3    H220970   0.777   6.606   3.308
 7005TIP3   OH220971   2.710   7.363   2.919
 7005TIP3    H120972   2.790   7.408   2.892
 7005TIP3    H220973   2.720   7.350   3.013
 7006TIP3   OH220974   4.567   0.490   6.067
 7006TIP3    H120975   4.621   0.424   6.109
 7006TIP3    H220976   4.478   0.454   6.070
 7007TIP3   OH220977   4.025   2.664   3.280
 7007TIP3    H120978   3.942   2.673   3.234
 7007TIP3    H220979   4.091   2.694   3.217
 7008TIP3   OH220980   1.404   2.182   1.341
 7008TIP3    H120981   1.334   2.246   1.359
 7008TIP3    H220982   1.383   2.148   1.254
 7009TIP3   OH220983   2.817   3.027   6.599
 7009TIP3    H120984   2.826   3.074   6.682
 7009TIP3    H220985   2.793   3.094   6.535
 7010TIP3   OH220986   6.874   5.417   3.907
 7010TIP3    H120987   6.850   5.463   3.987
 7010TIP3    H220988   6.819   5.338   3.907
 7011TIP3   OH220989   0.836   0.599   2.582
 7011TIP3    H120990   0.909   0.655   2.609
 7011TIP3    H220991   0.804   0.639   2.501
 7012TIP3   OH220992   8.065   0.816   3.108
 7012TIP3    H120993   8.040   0.894   3.157
 7012TIP3    H220994   8.152   0.835   3.074
 7013TIP3   OH220995   4.929   6.423   1.537
 7013TIP3    H120996   4.964   6.471   1.612
 7013TIP3    H220997   4.835   6.420   1.552
 7014TIP3   OH220998   2.217   0.245   4.594
 7014TIP3    H120999   2.167   0.317   4.556
 7014TIP3    H221000   2.305   0.255   4.557
 7015TIP3   OH221001   2.749   0.000   2.176
 7015TIP3    H121002   2.780   0.028   2.090
 7015TIP3    H221003   2.711   0.078   2.215
 7016TIP3   OH221004   4.607   7.606   2.127
 7016TIP3    H121005   4.646   7.530   2.084
 7016TIP3    H221006   4.681   7.662   2.148
 7017TIP3   OH221007   4.485   5.100   5.791
 7017TIP3    H121008   4.445   5.014   5.803
 7017TIP3    H221009   4.568   5.094   5.838
 7018TIP3   OH221010   6.359   5.532   2.601
 7018TIP3    H121011   6.323   5.444   2.588
 7018TIP3    H221012   6.296   5.591   2.560
 7019TIP3   OH221013   0.442   4.942   4.064
 7019TIP3    H121014   0.411   5.031   4.050
 7019TIP3    H221015   0.492   4.921   3.985
 7020TIP3   OH221016   1.211   1.694   3.028
 7020TIP3    H121017   1.265   1.696   2.949
 7020TIP3    H221018   1.218   1.604   3.059
 7021TIP3   OH221019   2.532   0.705   6.588
 7021TIP3    H121020   2.448   0.744   6.612
 7021TIP3    H221021   2.544   0.634   6.652
 7022TIP3   OH221022   5.404   6.999   0.584
 7022TIP3    H121023   5.320   6.978   0.625
 7022TIP3    H221024   5.409   6.940   0.508
 7023TIP3   OH221025   4.254   3.882   0.573
 7023TIP3    H121026   4.184   3.848   0.517
 7023TIP3    H221027   4.211   3.897   0.658
 7024TIP3   OH221028   5.864   6.342   5.975
 7024TIP3    H121029   5.794   6.336   5.909
 7024TIP3    H221030   5.935   6.388   5.930
 7025TIP3   OH221031   7.498   1.424   2.718
 7025TIP3    H121032   7.412   1.450   2.753
 7025TIP3    H221033   7.560   1.483   2.761
 7026TIP3   OH221034   6.218   3.034   0.427
 7026TIP3    H121035   6.228   3.105   0.364
 7026TIP3    H221036   6.307   3.000   0.439
 7027TIP3   OH221037   2.935   6.747   0.745
 7027TIP3    H121038   2.941   6.831   0.790
 7027TIP3    H221039   2.848   6.714   0.768
 7028TIP3   OH221040   3.759   6.651   2.660
 7028TIP3    H121041   3.767   6.667   2.566
 7028TIP3    H221042   3.735   6.558   2.666
 7029TIP3   OH221043   5.959   0.049   6.400
 7029TIP3    H121044   5.944   0.099   6.481
 7029TIP3    H221045   5.952  -0.043   6.427
 7030TIP3   OH221046   2.026   1.676   5.154
 7030TIP3    H121047   1.990   1.592   5.127
 7030TIP3    H221048   2.105   1.687   5.101
 7031TIP3   OH221049   7.650   2.123   6.292
 7031TIP3    H121050   7.634   2.185   6.221
 7031TIP3    H221051   7.565   2.113   6.335
 7032TIP3   OH221052   2.168   5.310   2.957
 7032TIP3    H121053   2.096   5.353   3.003
 7032TIP3    H221054   2.225   5.277   3.027
 7033TIP3   OH221055   5.188   3.403   3.004
 7033TIP3    H121056   5.282   3.416   2.988
 7033TIP3    H221057   5.180   3.400   3.099
 7034TIP3   OH221058   7.560   6.568   2.322
 7034TIP3    H121059   7.640   6.607   2.360
 7034TIP3    H221060   7.589   6.486   2.284
 7035TIP3   OH221061   6.788   5.981   0.749
 7035TIP3    H121062   6.809   6.069   0.782
 7035TIP3    H221063   6.693   5.976   0.753
 7036TIP3   OH221064   2.206   2.260   2.613
 7036TIP3    H121065   2.245   2.336   2.571
 7036TIP3    H221066   2.279   2.219   2.661
 7037TIP3   OH221067   7.119   1.625   4.982
 7037TIP3    H121068   7.093   1.601   5.071
 7037TIP3    H221069   7.055   1.691   4.955
 7038TIP3   OH221070   6.760   0.090   2.036
 7038TIP3    H121071   6.674   0.093   1.993
 7038TIP3    H221072   6.821   0.123   1.969
 7039TIP3   OH221073   0.730   2.759   4.487
 7039TIP3    H121074   0.710   2.788   4.397
 7039TIP3    H221075   0.646   2.760   4.532
 7040TIP3   OH221076   6.839   1.285   2.576
 7040TIP3    H121077   6.870   1.258   2.662
 7040TIP3    H221078   6.744   1.278   2.581
 7041TIP3   OH221079   0.622   6.326   4.413
 7041TIP3    H121080   0.527   6.333   4.422
 7041TIP3    H221081   0.657   6.390   4.475
 7042TIP3   OH221082   0.008   3.026   3.055
 7042TIP3    H121083   0.033   3.025   3.148
 7042TIP3    H221084  -0.028   2.939   3.039
 7043TIP3   OH221085   6.243   0.493   0.444
 7043TIP3    H121086   6.153   0.518   0.423
 7043TIP3    H221087   6.292   0.513   0.364
 7044TIP3   OH221088   6.920   0.887   3.129
 7044TIP3    H121089   6.826   0.874   3.114
 7044TIP3    H221090   6.961   0.817   3.079
 7045TIP3   OH221091   5.701   1.630   4.020
 7045TIP3    H121092   5.703   1.558   4.084
 7045TIP3    H221093   5.757   1.697   4.058
 7046TIP3   OH221094   3.361   7.405   3.322
 7046TIP3    H121095   3.333   7.478   3.267
 7046TIP3    H221096   3.325   7.327   3.279
 7047TIP3   OH221097   2.890   5.919   2.510
 7047TIP3    H121098   2.848   5.953   2.431
 7047TIP3    H221099   2.955   5.986   2.533
 7048TIP3   OH221100   2.153   0.610   5.074
 7048TIP3    H121101   2.238   0.630   5.114
 7048TIP3    H221102   2.167   0.526   5.029
 7049TIP3   OH221103   7.370   6.644   5.347
 7049TIP3    H121104   7.464   6.654   5.332
 7049TIP3    H221105   7.344   6.571   5.290
 7050TIP3   OH221106   4.980   1.426   1.439
 7050TIP3    H121107   4.963   1.511   1.398
 7050TIP3    H221108   4.970   1.363   1.368
 7051TIP3   OH221109   5.457   7.850   2.279
 7051TIP3    H121110   5.416   7.798   2.347
 7051TIP3    H221111   5.550   7.825   2.282
 7052TIP3   OH221112   3.773   1.572   5.244
 7052TIP3    H121113   3.723   1.621   5.180
 7052TIP3    H221114   3.739   1.483   5.239
 7053TIP3   OH221115   2.226   0.007   0.032
 7053TIP3    H121116   2.311  -0.009   0.071
 7053TIP3    H221117   2.191   0.083   0.079
 7054TIP3   OH221118   5.329   5.733   0.346
 7054TIP3    H121119   5.407   5.777   0.378
 7054TIP3    H221120   5.350   5.640   0.350
 7055TIP3   OH221121   1.862   4.376   0.642
 7055TIP3    H121122   1.784   4.370   0.588
 7055TIP3    H221123   1.830   4.361   0.732
 7056TIP3   OH221124   5.383   1.955   2.093
 7056TIP3    H121125   5.443   2.005   2.038
 7056TIP3    H221126   5.412   1.864   2.084
 7057TIP3   OH221127   4.126   2.577   0.185
 7057TIP3    H121128   4.063   2.599   0.254
 7057TIP3    H221129   4.080   2.598   0.104
 7058TIP3   OH221130   7.297   2.201   6.673
 7058TIP3    H121131   7.234   2.273   6.679
 7058TIP3    H221132   7.257   2.130   6.722
 7059TIP3   OH221133   7.250   2.204   6.389
 7059TIP3    H121134   7.311   2.182   6.459
 7059TIP3    H221135   7.306   2.231   6.316
 7060TIP3   OH221136   3.396   5.738   2.578
 7060TIP3    H121137   3.373   5.702   2.664
 7060TIP3    H221138   3.489   5.720   2.569
 7061TIP3   OH221139   6.647   0.655   4.528
 7061TIP3    H121140   6.709   0.670   4.599
 7061TIP3    H221141   6.613   0.742   4.506
 7062TIP3   OH221142   3.255   7.102   3.476
 7062TIP3    H121143   3.284   7.029   3.531
 7062TIP3    H221144   3.279   7.076   3.387
 7063TIP3   OH221145   1.448   6.197   4.751
 7063TIP3    H121146   1.520   6.223   4.808
 7063TIP3    H221147   1.480   6.214   4.662
 7064TIP3   OH221148   6.831   3.194   3.162
 7064TIP3    H121149   6.807   3.263   3.224
 7064TIP3    H221150   6.789   3.219   3.080
 7065TIP3   OH221151   7.972   3.429   6.616
 7065TIP3    H121152   7.948   3.341   6.588
 7065TIP3    H221153   8.067   3.435   6.600
 7066TIP3   OH221154   1.708   2.688   4.569
 7066TIP3    H121155   1.777   2.689   4.503
 7066TIP3    H221156   1.696   2.595   4.589
 7067TIP3   OH221157   1.597   1.317   4.785
 7067TIP3    H121158   1.692   1.307   4.780
 7067TIP3    H221159   1.578   1.315   4.878
 7068TIP3   OH221160   6.395   1.379   4.781
 7068TIP3    H121161   6.431   1.413   4.699
 7068TIP3    H221162   6.390   1.284   4.768
 7069TIP3   OH221163   4.258   5.566   3.696
 7069TIP3    H121164   4.294   5.504   3.632
 7069TIP3    H221165   4.326   5.633   3.704
 7070TIP3   OH221166   7.222   1.988   0.405
 7070TIP3    H121167   7.215   1.905   0.359
 7070TIP3    H221168   7.262   2.048   0.342
 7071TIP3   OH221169   7.886   3.690   1.284
 7071TIP3    H121170   7.887   3.732   1.371
 7071TIP3    H221171   7.799   3.652   1.276
 7072TIP3   OH221172   1.013   0.141   0.479
 7072TIP3    H121173   0.974   0.064   0.520
 7072TIP3    H221174   0.967   0.151   0.396
 7073TIP3   OH221175   2.061   0.134   4.321
 7073TIP3    H121176   1.991   0.199   4.332
 7073TIP3    H221177   2.024   0.053   4.355
 7074TIP3   OH221178   4.729   7.220   4.754
 7074TIP3    H121179   4.725   7.299   4.700
 7074TIP3    H221180   4.697   7.150   4.697
 7075TIP3   OH221181   6.840   2.113   3.209
 7075TIP3    H121182   6.928   2.131   3.242
 7075TIP3    H221183   6.787   2.102   3.288
 7076TIP3   OH221184   1.460   1.329   5.021
 7076TIP3    H121185   1.391   1.297   4.963
 7076TIP3    H221186   1.449   1.424   5.023
 7077TIP3   OH221187   6.400   6.881   5.986
 7077TIP3    H121188   6.311   6.847   5.996
 7077TIP3    H221189   6.389   6.976   5.982
 7078TIP3   OH221190   3.002   1.144   5.932
 7078TIP3    H121191   2.951   1.215   5.894
 7078TIP3    H221192   2.947   1.110   6.002
 7079TIP3   OH221193   0.546   0.244   4.057
 7079TIP3    H121194   0.630   0.222   4.096
 7079TIP3    H221195   0.502   0.159   4.045
 7080TIP3   OH221196   0.887   2.485   1.112
 7080TIP3    H121197   0.953   2.418   1.096
 7080TIP3    H221198   0.816   2.464   1.051
 7081TIP3   OH221199   7.160   1.125   0.528
 7081TIP3    H121200   7.075   1.158   0.500
 7081TIP3    H221201   7.217   1.202   0.531
 7082TIP3   OH221202   2.031   6.991   0.985
 7082TIP3    H121203   2.024   7.086   0.986
 7082TIP3    H221204   2.103   6.973   0.925
 7083TIP3   OH221205   7.990   2.220   1.795
 7083TIP3    H121206   8.057   2.175   1.744
 7083TIP3    H221207   7.917   2.229   1.734
 7084TIP3   OH221208   0.386   6.236   2.308
 7084TIP3    H121209   0.337   6.171   2.358
 7084TIP3    H221210   0.456   6.186   2.266
 7085TIP3   OH221211   8.054   3.508   2.407
 7085TIP3    H121212   8.014   3.594   2.390
 7085TIP3    H221213   8.041   3.494   2.501
 7086TIP3   OH221214   3.786   7.524   2.299
 7086TIP3    H121215   3.878   7.501   2.285
 7086TIP3    H221216   3.760   7.569   2.218
 7087TIP3   OH221217   2.087   1.804   2.479
 7087TIP3    H121218   2.119   1.847   2.559
 7087TIP3    H221219   2.119   1.714   2.486
 7088TIP3   OH221220   7.220   5.583   6.580
 7088TIP3    H121221   7.314   5.602   6.581
 7088TIP3    H221222   7.199   5.571   6.487
 7089TIP3   OH221223   1.047   5.581   5.983
 7089TIP3    H121224   1.073   5.501   5.937
 7089TIP3    H221225   1.114   5.645   5.961
 7090TIP3   OH221226   3.381   1.879   2.750
 7090TIP3    H121227   3.298   1.831   2.741
 7090TIP3    H221228   3.376   1.948   2.684
 7091TIP3   OH221229   2.053   4.562   5.807
 7091TIP3    H121230   2.100   4.578   5.888
 7091TIP3    H221231   1.964   4.590   5.825
 7092TIP3   OH221232   7.384   4.178   6.523
 7092TIP3    H121233   7.429   4.095   6.535
 7092TIP3    H221234   7.342   4.170   6.437
 7093TIP3   OH221235   2.668   5.169   3.356
 7093TIP3    H121236   2.724   5.115   3.411
 7093TIP3    H221237   2.588   5.180   3.407
 7094TIP3   OH221238   4.521   4.696   4.560
 7094TIP3    H121239   4.469   4.636   4.506
 7094TIP3    H221240   4.532   4.650   4.644
 7095TIP3   OH221241   1.356   1.164   0.536
 7095TIP3    H121242   1.336   1.239   0.592
 7095TIP3    H221243   1.343   1.088   0.592
 7096TIP3   OH221244   6.129   5.553   5.764
 7096TIP3    H121245   6.083   5.483   5.809
 7096TIP3    H221246   6.087   5.558   5.679
 7097TIP3   OH221247   5.912   3.466   6.685
 7097TIP3    H121248   5.906   3.396   6.750
 7097TIP3    H221249   5.995   3.449   6.640
 7098TIP3   OH221250   1.696   2.450   1.101
 7098TIP3    H121251   1.687   2.425   1.010
 7098TIP3    H221252   1.790   2.454   1.116
 7099TIP3   OH221253   2.625   1.314   3.301
 7099TIP3    H121254   2.566   1.353   3.237
 7099TIP3    H221255   2.668   1.389   3.342
 7100TIP3   OH221256   4.204   0.454   1.825
 7100TIP3    H121257   4.229   0.538   1.863
 7100TIP3    H221258   4.114   0.439   1.855
 7101TIP3   OH221259   6.994   6.131   3.868
 7101TIP3    H121260   6.945   6.132   3.950
 7101TIP3    H221261   6.942   6.185   3.808
 7102TIP3   OH221262   2.159   3.148   2.469
 7102TIP3    H121263   2.089   3.212   2.479
 7102TIP3    H221264   2.225   3.193   2.417
 7103TIP3   OH221265   6.322   4.044   2.648
 7103TIP3    H121266   6.278   4.052   2.563
 7103TIP3    H221267   6.312   4.130   2.689
 7104TIP3   OH221268   4.172   1.078   6.056
 7104TIP3    H121269   4.122   1.084   6.137
 7104TIP3    H221270   4.126   1.135   5.995
 7105TIP3   OH221271   1.977   6.625   0.663
 7105TIP3    H121272   2.048   6.572   0.699
 7105TIP3    H221273   2.020   6.705   0.632
 7106TIP3   OH221274   3.533   7.461   2.352
 7106TIP3    H121275   3.523   7.368   2.334
 7106TIP3    H221276   3.627   7.478   2.338
 7107TIP3   OH221277   5.668   4.221   0.733
 7107TIP3    H121278   5.692   4.298   0.784
 7107TIP3    H221279   5.740   4.209   0.671
 7108TIP3   OH221280   4.488   2.476   3.921
 7108TIP3    H121281   4.553   2.418   3.961
 7108TIP3    H221282   4.524   2.564   3.932
 7109TIP3   OH221283   6.271   3.630   5.383
 7109TIP3    H121284   6.221   3.673   5.313
 7109TIP3    H221285   6.255   3.537   5.371
 7110TIP3   OH221286   1.635   0.160   5.073
 7110TIP3    H121287   1.591   0.244   5.071
 7110TIP3    H221288   1.617   0.121   4.987
 7111TIP3   OH221289   5.652   1.752   2.895
 7111TIP3    H121290   5.716   1.753   2.966
 7111TIP3    H221291   5.602   1.672   2.909
 7112TIP3   OH221292   4.362   4.643   0.783
 7112TIP3    H121293   4.271   4.649   0.811
 7112TIP3    H221294   4.375   4.550   0.761
 7113TIP3   OH221295   0.541   7.194   6.580
 7113TIP3    H121296   0.501   7.207   6.493
 7113TIP3    H221297   0.568   7.102   6.581
 7114TIP3   OH221298   8.066   3.286   4.000
 7114TIP3    H121299   8.114   3.368   3.985
 7114TIP3    H221300   8.062   3.245   3.914
 7115TIP3   OH221301   0.106   7.408   1.155
 7115TIP3    H121302   0.087   7.483   1.098
 7115TIP3    H221303   0.063   7.334   1.112
 7116TIP3   OH221304   3.343   3.040   6.677
 7116TIP3    H121305   3.267   2.982   6.670
 7116TIP3    H221306   3.313   3.111   6.734
 7117TIP3   OH221307   5.838   7.422   2.855
 7117TIP3    H121308   5.882   7.364   2.918
 7117TIP3    H221309   5.908   7.452   2.798
 7118TIP3   OH221310   5.496   7.085   2.069
 7118TIP3    H121311   5.425   7.080   2.006
 7118TIP3    H221312   5.560   7.020   2.039
 7119TIP3   OH221313   3.549   0.994   5.922
 7119TIP3    H121314   3.583   1.002   5.832
 7119TIP3    H221315   3.583   0.910   5.953
 7120TIP3   OH221316   2.626   5.339   2.863
 7120TIP3    H121317   2.619   5.271   2.797
 7120TIP3    H221318   2.650   5.293   2.943
 7121TIP3   OH221319   6.356   7.264   2.464
 7121TIP3    H121320   6.370   7.296   2.375
 7121TIP3    H221321   6.430   7.297   2.513
 7122TIP3   OH221322   0.433   7.351   2.216
 7122TIP3    H121323   0.457   7.411   2.287
 7122TIP3    H221324   0.496   7.278   2.224
 7123TIP3   OH221325   1.897   6.620   4.240
 7123TIP3    H121326   1.980   6.668   4.237
 7123TIP3    H221327   1.911   6.546   4.181
 7124TIP3   OH221328   1.095   0.569   5.136
 7124TIP3    H121329   1.153   0.494   5.132
 7124TIP3    H221330   1.110   0.606   5.223
 7125TIP3   OH221331   7.876   6.380   5.283
 7125TIP3    H121332   7.882   6.460   5.230
 7125TIP3    H221333   7.961   6.375   5.327
 7126TIP3   OH221334   4.629   2.760   4.611
 7126TIP3    H121335   4.688   2.796   4.678
 7126TIP3    H221336   4.688   2.725   4.545
 7127TIP3   OH221337   1.763   4.150   6.275
 7127TIP3    H121338   1.825   4.169   6.346
 7127TIP3    H221339   1.806   4.082   6.224
 7128TIP3   OH221340   1.480   0.641   0.033
 7128TIP3    H121341   1.402   0.696   0.021
 7128TIP3    H221342   1.553   0.702   0.035
 7129TIP3   OH221343   6.567   3.677   0.074
 7129TIP3    H121344   6.569   3.765   0.037
 7129TIP3    H221345   6.627   3.681   0.148
 7130TIP3   OH221346   2.587   5.323   5.069
 7130TIP3    H121347   2.495   5.296   5.070
 7130TIP3    H221348   2.626   5.271   4.998
 7131TIP3   OH221349   1.677   7.733   4.743
 7131TIP3    H121350   1.739   7.663   4.764
 7131TIP3    H221351   1.716   7.812   4.779
 7132TIP3   OH221352   7.568   2.538   1.412
 7132TIP3    H121353   7.553   2.528   1.506
 7132TIP3    H221354   7.480   2.544   1.374
 7133TIP3   OH221355   4.390   2.043   5.900
 7133TIP3    H121356   4.450   2.007   5.965
 7133TIP3    H221357   4.446   2.061   5.824
 7134TIP3   OH221358   1.999   3.305   5.357
 7134TIP3    H121359   1.920   3.278   5.403
 7134TIP3    H221360   1.972   3.380   5.305
 7135TIP3   OH221361   6.817   7.281   4.943
 7135TIP3    H121362   6.886   7.227   4.981
 7135TIP3    H221363   6.851   7.307   4.857
 7136TIP3   OH221364   7.667   5.710   0.732
 7136TIP3    H121365   7.714   5.640   0.686
 7136TIP3    H221366   7.591   5.728   0.676
 7137TIP3   OH221367   0.677  -0.015   6.343
 7137TIP3    H121368   0.689  -0.065   6.423
 7137TIP3    H221369   0.668   0.076   6.372
 7138TIP3   OH221370   4.887   1.776   3.578
 7138TIP3    H121371   4.950   1.757   3.648
 7138TIP3    H221372   4.812   1.719   3.598
 7139TIP3   OH221373   5.439   2.887   0.752
 7139TIP3    H121374   5.379   2.912   0.682
 7139TIP3    H221375   5.386   2.884   0.831
 7140TIP3   OH221376   0.029   7.163   4.999
 7140TIP3    H121377   0.093   7.209   5.052
 7140TIP3    H221378  -0.044   7.147   5.058
 7141TIP3   OH221379   5.199   1.447   2.419
 7141TIP3    H121380   5.160   1.525   2.380
 7141TIP3    H221381   5.125   1.388   2.434
 7142TIP3   OH221382   3.708   1.303   4.858
 7142TIP3    H121383   3.761   1.227   4.884
 7142TIP3    H221384   3.750   1.335   4.779
 7143TIP3   OH221385   4.002   6.640   5.381
 7143TIP3    H121386   4.029   6.668   5.468
 7143TIP3    H221387   3.908   6.659   5.377
 7144TIP3   OH221388   3.068   2.021   3.040
 7144TIP3    H121389   3.008   2.095   3.033
 7144TIP3    H221390   3.152   2.060   3.061
 7145TIP3   OH221391   7.085   3.610   3.938
 7145TIP3    H121392   7.178   3.592   3.953
 7145TIP3    H221393   7.072   3.593   3.845
 7146TIP3   OH221394   7.680   3.271   0.078
 7146TIP3    H121395   7.678   3.270   0.174
 7146TIP3    H221396   7.770   3.293   0.055
 7147TIP3   OH221397   6.755   1.488   1.730
 7147TIP3    H121398   6.748   1.572   1.777
 7147TIP3    H221399   6.842   1.456   1.753
 7148TIP3   OH221400   1.323   3.489   6.659
 7148TIP3    H121401   1.301   3.485   6.565
 7148TIP3    H221402   1.246   3.453   6.703
 7149TIP3   OH221403   4.687   0.445   1.059
 7149TIP3    H121404   4.759   0.397   1.100
 7149TIP3    H221405   4.624   0.378   1.035
 7150TIP3   OH221406   0.848   1.141   4.665
 7150TIP3    H121407   0.898   1.071   4.706
 7150TIP3    H221408   0.913   1.205   4.636
 7151TIP3   OH221409   7.464   1.208   5.713
 7151TIP3    H121410   7.490   1.116   5.715
 7151TIP3    H221411   7.531   1.253   5.764
 7152TIP3   OH221412   5.298   6.866   2.980
 7152TIP3    H121413   5.363   6.890   2.913
 7152TIP3    H221414   5.219   6.847   2.930
 7153TIP3   OH221415   0.037   3.309   0.151
 7153TIP3    H121416   0.047   3.367   0.226
 7153TIP3    H221417   0.015   3.224   0.189
 7154TIP3   OH221418   5.486   7.159   3.894
 7154TIP3    H121419   5.479   7.127   3.984
 7154TIP3    H221420   5.482   7.080   3.840
 7155TIP3   OH221421   7.339   2.374   1.985
 7155TIP3    H121422   7.357   2.462   1.952
 7155TIP3    H221423   7.332   2.385   2.080
 7156TIP3   OH221424   0.759   3.969   0.342
 7156TIP3    H121425   0.840   3.973   0.391
 7156TIP3    H221426   0.774   4.027   0.267
 7157TIP3   OH221427   5.841   4.965   1.793
 7157TIP3    H121428   5.837   5.061   1.789
 7157TIP3    H221429   5.813   4.936   1.707
 7158TIP3   OH221430   3.041   6.262   1.311
 7158TIP3    H121431   3.033   6.339   1.367
 7158TIP3    H221432   3.006   6.190   1.363
 7159TIP3   OH221433   1.433   2.044   2.496
 7159TIP3    H121434   1.443   2.005   2.583
 7159TIP3    H221435   1.348   2.013   2.465
 7160TIP3   OH221436   3.624   3.993   2.119
 7160TIP3    H121437   3.720   3.997   2.120
 7160TIP3    H221438   3.596   4.084   2.109
 7161TIP3   OH221439   7.718   1.136   4.240
 7161TIP3    H121440   7.770   1.213   4.265
 7161TIP3    H221441   7.775   1.087   4.181
 7162TIP3   OH221442   6.199   1.178   2.749
 7162TIP3    H121443   6.220   1.085   2.736
 7162TIP3    H221444   6.137   1.198   2.679
 7163TIP3   OH221445   3.978   6.024   2.636
 7163TIP3    H121446   4.070   6.043   2.655
 7163TIP3    H221447   3.935   6.110   2.634
 7164TIP3   OH221448   3.564   4.168   2.992
 7164TIP3    H121449   3.629   4.238   3.000
 7164TIP3    H221450   3.521   4.185   2.908
 7165TIP3   OH221451   0.513   2.054   2.994
 7165TIP3    H121452   0.549   2.138   3.022
 7165TIP3    H221453   0.498   2.006   3.076
 7166TIP3   OH221454   6.407   6.027   0.245
 7166TIP3    H121455   6.434   6.021   0.153
 7166TIP3    H221456   6.314   6.004   0.243
 7167TIP3   OH221457   4.820   5.374   1.693
 7167TIP3    H121458   4.783   5.293   1.730
 7167TIP3    H221459   4.753   5.440   1.709
 7168TIP3   OH221460   4.993   5.141   5.842
 7168TIP3    H121461   5.033   5.113   5.760
 7168TIP3    H221462   5.016   5.072   5.904
 7169TIP3   OH221463   0.220   3.668   0.646
 7169TIP3    H121464   0.309   3.649   0.618
 7169TIP3    H221465   0.207   3.614   0.724
 7170TIP3   OH221466   8.192   6.866   6.618
 7170TIP3    H121467   8.104   6.902   6.614
 7170TIP3    H221468   8.185   6.780   6.578
 7171TIP3   OH221469   3.262   4.150   5.641
 7171TIP3    H121470   3.296   4.063   5.620
 7171TIP3    H221471   3.328   4.211   5.605
 7172TIP3   OH221472   6.882   5.526   1.560
 7172TIP3    H121473   6.800   5.488   1.527
 7172TIP3    H221474   6.950   5.484   1.507
 7173TIP3   OH221475   7.918   7.697   4.861
 7173TIP3    H121476   7.917   7.792   4.854
 7173TIP3    H221477   7.889   7.679   4.950
 7174TIP3   OH221478   3.702   1.174   3.581
 7174TIP3    H121479   3.719   1.260   3.618
 7174TIP3    H221480   3.724   1.113   3.652
 7175TIP3   OH221481   0.550   0.591   0.030
 7175TIP3    H121482   0.456   0.585   0.048
 7175TIP3    H221483   0.568   0.513  -0.023
 7176TIP3   OH221484   2.247   1.768   4.984
 7176TIP3    H121485   2.332   1.793   5.019
 7176TIP3    H221486   2.202   1.852   4.971
 7177TIP3   OH221487   4.623   2.403   5.067
 7177TIP3    H121488   4.607   2.309   5.077
 7177TIP3    H221489   4.598   2.441   5.152
 7178TIP3   OH221490   2.949   6.408   4.937
 7178TIP3    H121491   2.961   6.430   4.845
 7178TIP3    H221492   2.899   6.327   4.936
 7179TIP3   OH221493   3.771   1.329   5.140
 7179TIP3    H121494   3.758   1.363   5.052
 7179TIP3    H221495   3.866   1.322   5.149
 7180TIP3   OH221496   6.470   1.187   3.595
 7180TIP3    H121497   6.451   1.195   3.502
 7180TIP3    H221498   6.543   1.125   3.600
 7181TIP3   OH221499   3.220   2.154   0.112
 7181TIP3    H121500   3.179   2.109   0.038
 7181TIP3    H221501   3.166   2.232   0.124
 7182TIP3   OH221502   0.427   2.860   3.687
 7182TIP3    H121503   0.353   2.920   3.698
 7182TIP3    H221504   0.497   2.898   3.740
 7183TIP3   OH221505   3.843   5.320   4.855
 7183TIP3    H121506   3.813   5.322   4.946
 7183TIP3    H221507   3.763   5.328   4.803
 7184TIP3   OH221508   7.395   4.879   1.468
 7184TIP3    H121509   7.360   4.958   1.508
 7184TIP3    H221510   7.330   4.854   1.403
 7185TIP3   OH221511   2.949   3.733   3.250
 7185TIP3    H121512   2.870   3.716   3.200
 7185TIP3    H221513   2.924   3.716   3.341
 7186TIP3   OH221514   6.534   0.406   1.161
 7186TIP3    H121515   6.581   0.479   1.201
 7186TIP3    H221516   6.448   0.440   1.141
 7187TIP3   OH221517   4.784   2.795   2.617
 7187TIP3    H121518   4.693   2.823   2.610
 7187TIP3    H221519   4.781   2.699   2.610
 7188TIP3   OH221520   4.631   0.641   2.050
 7188TIP3    H121521   4.652   0.560   2.095
 7188TIP3    H221522   4.658   0.710   2.111
 7189TIP3   OH221523   0.683   1.325   1.297
 7189TIP3    H121524   0.765   1.317   1.247
 7189TIP3    H221525   0.692   1.407   1.346
 7190TIP3   OH221526   3.632   1.373   2.483
 7190TIP3    H121527   3.620   1.279   2.468
 7190TIP3    H221528   3.546   1.403   2.514
 7191TIP3   OH221529   7.809   2.260   4.180
 7191TIP3    H121530   7.730   2.235   4.133
 7191TIP3    H221531   7.805   2.209   4.261
 7192TIP3   OH221532   4.459   0.391   0.360
 7192TIP3    H121533   4.474   0.355   0.448
 7192TIP3    H221534   4.457   0.315   0.303
 7193TIP3   OH221535   5.675   6.845   0.527
 7193TIP3    H121536   5.608   6.851   0.458
 7193TIP3    H221537   5.630   6.803   0.600
 7194TIP3   OH221538   6.447   5.194   5.463
 7194TIP3    H121539   6.447   5.230   5.375
 7194TIP3    H221540   6.354   5.189   5.487
 7195TIP3   OH221541   1.534   5.560   1.261
 7195TIP3    H121542   1.512   5.538   1.171
 7195TIP3    H221543   1.452   5.550   1.309
 7196TIP3   OH221544   4.600   7.727   4.936
 7196TIP3    H121545   4.605   7.634   4.957
 7196TIP3    H221546   4.641   7.735   4.850
 7197TIP3   OH221547   0.334   6.376   4.886
 7197TIP3    H121548   0.260   6.436   4.901
 7197TIP3    H221549   0.372   6.406   4.803
 7198TIP3   OH221550   7.082   3.538   2.363
 7198TIP3    H121551   7.005   3.595   2.356
 7198TIP3    H221552   7.120   3.560   2.448
 7199TIP3   OH221553   2.723   3.570   5.199
 7199TIP3    H121554   2.725   3.549   5.293
 7199TIP3    H221555   2.813   3.555   5.169
 7200TIP3   OH221556   5.027   3.248   1.268
 7200TIP3    H121557   5.029   3.184   1.339
 7200TIP3    H221558   5.118   3.267   1.249
 7201TIP3   OH221559   2.978   4.416   3.910
 7201TIP3    H121560   2.947   4.327   3.928
 7201TIP3    H221561   2.916   4.473   3.955
 7202TIP3   OH221562   4.180   0.188   3.038
 7202TIP3    H121563   4.184   0.148   3.125
 7202TIP3    H221564   4.133   0.125   2.984
 7203TIP3   OH221565   2.703   2.759   0.743
 7203TIP3    H121566   2.758   2.681   0.757
 7203TIP3    H221567   2.614   2.729   0.762
 7204TIP3   OH221568   3.549   2.453   3.569
 7204TIP3    H121569   3.502   2.512   3.510
 7204TIP3    H221570   3.641   2.466   3.547
 7205TIP3   OH221571   5.954   2.166   5.297
 7205TIP3    H121572   5.997   2.089   5.261
 7205TIP3    H221573   5.897   2.198   5.227
 7206TIP3   OH221574   6.025   2.335   1.207
 7206TIP3    H121575   5.975   2.416   1.200
 7206TIP3    H221576   5.998   2.283   1.132
 7207TIP3   OH221577   7.913   6.128   2.628
 7207TIP3    H121578   7.937   6.075   2.704
 7207TIP3    H221579   7.852   6.193   2.663
 7208TIP3   OH221580   1.829   0.854   2.118
 7208TIP3    H121581   1.762   0.923   2.116
 7208TIP3    H221582   1.827   0.816   2.030
 7209TIP3   OH221583   0.888   1.810   5.307
 7209TIP3    H121584   0.931   1.844   5.229
 7209TIP3    H221585   0.796   1.799   5.280
 7210TIP3   OH221586   1.258   5.698   1.202
 7210TIP3    H121587   1.285   5.625   1.148
 7210TIP3    H221588   1.200   5.750   1.146
 7211TIP3   OH221589   4.614   3.003   1.715
 7211TIP3    H121590   4.633   3.096   1.728
 7211TIP3    H221591   4.576   2.975   1.799
 7212TIP3   OH221592   3.582   1.945   1.508
 7212TIP3    H121593   3.668   1.927   1.546
 7212TIP3    H221594   3.596   2.021   1.452
 7213TIP3   OH221595   3.398   2.968   3.912
 7213TIP3    H121596   3.400   3.060   3.941
 7213TIP3    H221597   3.371   2.919   3.990
 7214TIP3   OH221598   4.377   0.836   4.590
 7214TIP3    H121599   4.395   0.900   4.520
 7214TIP3    H221600   4.326   0.885   4.655
 7215TIP3   OH221601   5.934   0.787   4.827
 7215TIP3    H121602   6.015   0.839   4.824
 7215TIP3    H221603   5.929   0.747   4.740
 7216TIP3   OH221604   1.922   3.009   1.088
 7216TIP3    H121605   1.984   3.070   1.128
 7216TIP3    H221606   1.977   2.943   1.046
 7217TIP3   OH221607   3.802   2.240   3.865
 7217TIP3    H121608   3.861   2.194   3.924
 7217TIP3    H221609   3.729   2.268   3.920
 7218TIP3   OH221610   5.204   3.929   2.011
 7218TIP3    H121611   5.283   3.920   1.958
 7218TIP3    H221612   5.150   3.992   1.964
 7219TIP3   OH221613   5.277   2.305   2.667
 7219TIP3    H121614   5.356   2.268   2.628
 7219TIP3    H221615   5.290   2.298   2.761
 7220TIP3   OH221616   7.027   6.393   4.390
 7220TIP3    H121617   7.071   6.357   4.468
 7220TIP3    H221618   6.934   6.393   4.412
 7221TIP3   OH221619   3.439   5.339   1.870
 7221TIP3    H121620   3.461   5.404   1.804
 7221TIP3    H221621   3.406   5.390   1.944
 7222TIP3   OH221622   7.535   7.324   4.480
 7222TIP3    H121623   7.505   7.281   4.400
 7222TIP3    H221624   7.471   7.299   4.547
 7223TIP3   OH221625   1.176   4.494   3.494
 7223TIP3    H121626   1.081   4.479   3.501
 7223TIP3    H221627   1.185   4.559   3.425
 7224TIP3   OH221628   2.575   3.816   4.403
 7224TIP3    H121629   2.517   3.849   4.334
 7224TIP3    H221630   2.662   3.813   4.363
 7225TIP3   OH221631   6.699   7.205   4.560
 7225TIP3    H121632   6.659   7.280   4.516
 7225TIP3    H221633   6.680   7.131   4.502
 7226TIP3   OH221634   7.305   1.827   4.319
 7226TIP3    H121635   7.319   1.744   4.366
 7226TIP3    H221636   7.380   1.881   4.343
 7227TIP3   OH221637   4.804   0.219   4.240
 7227TIP3    H121638   4.724   0.272   4.241
 7227TIP3    H221639   4.790   0.155   4.170
 7228TIP3   OH221640   4.607   1.153   3.434
 7228TIP3    H121641   4.648   1.072   3.464
 7228TIP3    H221642   4.557   1.127   3.356
 7229TIP3   OH221643   5.224   4.154   1.577
 7229TIP3    H121644   5.189   4.077   1.621
 7229TIP3    H221645   5.210   4.226   1.638
 7230TIP3   OH221646   2.154   2.082   2.201
 7230TIP3    H121647   2.229   2.132   2.169
 7230TIP3    H221648   2.087   2.147   2.219
 7231TIP3   OH221649   8.060   4.785   4.699
 7231TIP3    H121650   8.121   4.858   4.697
 7231TIP3    H221651   8.001   4.801   4.625
 7232TIP3   OH221652   0.579   5.095   0.886
 7232TIP3    H121653   0.514   5.048   0.939
 7232TIP3    H221654   0.585   5.046   0.805
 7233TIP3   OH221655   4.717   4.452   3.071
 7233TIP3    H121656   4.638   4.415   3.031
 7233TIP3    H221657   4.711   4.427   3.163
 7234TIP3   OH221658   7.028   0.991   4.691
 7234TIP3    H121659   7.124   0.992   4.690
 7234TIP3    H221660   7.004   1.076   4.729
 7235TIP3   OH221661   6.992   3.373   5.677
 7235TIP3    H121662   6.993   3.316   5.755
 7235TIP3    H221663   7.060   3.337   5.621
 7236TIP3   OH221664   3.073   3.547   4.418
 7236TIP3    H121665   3.140   3.615   4.419
 7236TIP3    H221666   3.113   3.475   4.369
 7237TIP3   OH221667   0.710   4.621   4.913
 7237TIP3    H121668   0.648   4.643   4.844
 7237TIP3    H221669   0.742   4.706   4.945
 7238TIP3   OH221670   2.094   5.446   4.431
 7238TIP3    H121671   2.133   5.412   4.512
 7238TIP3    H221672   2.163   5.438   4.366
 7239TIP3   OH221673   3.525   2.696   1.780
 7239TIP3    H121674   3.558   2.650   1.702
 7239TIP3    H221675   3.604   2.722   1.827
 7240TIP3   OH221676   1.719   2.915   4.732
 7240TIP3    H121677   1.709   2.855   4.659
 7240TIP3    H221678   1.655   2.884   4.797
 7241TIP3   OH221679   4.353   3.502   1.399
 7241TIP3    H121680   4.298   3.445   1.344
 7241TIP3    H221681   4.376   3.447   1.474
 7242TIP3   OH221682   7.104   4.417   2.751
 7242TIP3    H121683   7.061   4.424   2.837
 7242TIP3    H221684   7.035   4.438   2.688
 7243TIP3   OH221685   4.692   6.350   6.615
 7243TIP3    H121686   4.619   6.291   6.595
 7243TIP3    H221687   4.728   6.317   6.697
 7244TIP3   OH221688   7.462   1.730   1.298
 7244TIP3    H121689   7.377   1.688   1.312
 7244TIP3    H221690   7.477   1.722   1.204
 7245TIP3   OH221691   4.075   0.285   3.392
 7245TIP3    H121692   4.169   0.267   3.385
 7245TIP3    H221693   4.070   0.366   3.442
 7246TIP3   OH221694   1.777   2.631   2.617
 7246TIP3    H121695   1.858   2.620   2.568
 7246TIP3    H221696   1.772   2.553   2.672
 7247TIP3   OH221697   4.416   2.350   0.823
 7247TIP3    H121698   4.431   2.325   0.732
 7247TIP3    H221699   4.382   2.440   0.818
 7248TIP3   OH221700   5.417   5.404   0.658
 7248TIP3    H121701   5.389   5.428   0.570
 7248TIP3    H221702   5.457   5.318   0.648
 7249TIP3   OH221703   3.710   5.451   2.756
 7249TIP3    H121704   3.725   5.359   2.737
 7249TIP3    H221705   3.641   5.451   2.822
 7250TIP3   OH221706   1.671   5.190   5.855
 7250TIP3    H121707   1.613   5.128   5.900
 7250TIP3    H221708   1.754   5.182   5.901
 7251TIP3   OH221709   3.481   6.846   2.357
 7251TIP3    H121710   3.428   6.856   2.278
 7251TIP3    H221711   3.519   6.933   2.371
 7252TIP3   OH221712   5.729   7.308   3.925
 7252TIP3    H121713   5.786   7.267   3.991
 7252TIP3    H221714   5.649   7.255   3.927
 7253TIP3   OH221715   4.708   2.367   4.298
 7253TIP3    H121716   4.734   2.404   4.382
 7253TIP3    H221717   4.624   2.325   4.316
 7254TIP3   OH221718   4.530   2.133   4.501
 7254TIP3    H121719   4.450   2.080   4.500
 7254TIP3    H221720   4.505   2.215   4.460
 7255TIP3   OH221721   2.990   1.283   6.492
 7255TIP3    H121722   3.041   1.232   6.429
 7255TIP3    H221723   2.931   1.336   6.438
 7256TIP3   OH221724   0.347   7.593   2.913
 7256TIP3    H121725   0.271   7.649   2.928
 7256TIP3    H221726   0.310   7.509   2.886
 7257TIP3   OH221727   0.309   6.865   1.233
 7257TIP3    H121728   0.232   6.830   1.190
 7257TIP3    H221729   0.372   6.792   1.233
 7258TIP3   OH221730   2.328   0.121   0.948
 7258TIP3    H121731   2.333   0.094   1.040
 7258TIP3    H221732   2.419   0.125   0.919
 7259TIP3   OH221733   7.126   7.086   4.135
 7259TIP3    H121734   7.154   7.059   4.047
 7259TIP3    H221735   7.030   7.079   4.132
 7260TIP3   OH221736   3.386   1.947   2.468
 7260TIP3    H121737   3.384   2.009   2.395
 7260TIP3    H221738   3.469   1.900   2.457
 7261TIP3   OH221739   4.371   3.049   4.018
 7261TIP3    H121740   4.397   3.093   4.099
 7261TIP3    H221741   4.354   3.120   3.956
 7262TIP3   OH221742   1.310   6.544   5.466
 7262TIP3    H121743   1.358   6.490   5.403
 7262TIP3    H221744   1.238   6.582   5.415
 7263TIP3   OH221745   1.015   2.943   0.714
 7263TIP3    H121746   1.042   2.887   0.642
 7263TIP3    H221747   1.086   3.007   0.724
 7264TIP3   OH221748   1.781   4.172   2.519
 7264TIP3    H121749   1.707   4.131   2.563
 7264TIP3    H221750   1.754   4.182   2.428
 7265TIP3   OH221751   2.131   7.414   4.595
 7265TIP3    H121752   2.044   7.380   4.616
 7265TIP3    H221753   2.148   7.382   4.506
 7266TIP3   OH221754   5.222   6.248   0.723
 7266TIP3    H121755   5.131   6.246   0.754
 7266TIP3    H221756   5.267   6.183   0.778
 7267TIP3   OH221757   5.957   5.754   1.988
 7267TIP3    H121758   5.937   5.670   2.029
 7267TIP3    H221759   5.923   5.819   2.049
 7268TIP3   OH221760   7.430   3.676   3.059
 7268TIP3    H121761   7.450   3.684   2.966
 7268TIP3    H221762   7.489   3.737   3.102
 7269TIP3   OH221763   5.426   1.080   0.452
 7269TIP3    H121764   5.451   0.988   0.455
 7269TIP3    H221765   5.398   1.095   0.362
 7270TIP3   OH221766   6.472   4.724   5.343
 7270TIP3    H121767   6.460   4.794   5.278
 7270TIP3    H221768   6.567   4.713   5.349
 7271TIP3   OH221769   0.839   5.104   3.372
 7271TIP3    H121770   0.873   5.015   3.382
 7271TIP3    H221771   0.917   5.159   3.378
 7272TIP3   OH221772   2.180   2.973   5.520
 7272TIP3    H121773   2.193   3.049   5.463
 7272TIP3    H221774   2.142   2.907   5.463
 7273TIP3   OH221775   6.833   7.250   2.153
 7273TIP3    H121776   6.911   7.261   2.207
 7273TIP3    H221777   6.767   7.306   2.194
 7274TIP3   OH221778   3.660   6.182   5.218
 7274TIP3    H121779   3.716   6.126   5.270
 7274TIP3    H221780   3.721   6.232   5.163
 7275TIP3   OH221781   1.728   2.754   1.058
 7275TIP3    H121782   1.696   2.841   1.036
 7275TIP3    H221783   1.694   2.737   1.146
 7276TIP3   OH221784   6.140   2.242   6.613
 7276TIP3    H121785   6.174   2.256   6.702
 7276TIP3    H221786   6.155   2.326   6.568
 7277TIP3   OH221787   6.061   6.146   6.286
 7277TIP3    H121788   6.117   6.159   6.210
 7277TIP3    H221789   6.089   6.212   6.349
 7278TIP3   OH221790   8.233   4.348   5.183
 7278TIP3    H121791   8.242   4.344   5.279
 7278TIP3    H221792   8.244   4.258   5.154
 7279TIP3   OH221793   2.539   1.471   3.643
 7279TIP3    H121794   2.483   1.513   3.578
 7279TIP3    H221795   2.613   1.531   3.653
 7280TIP3   OH221796   0.755   0.219   4.236
 7280TIP3    H121797   0.781   0.309   4.221
 7280TIP3    H221798   0.812   0.189   4.307
 7281TIP3   OH221799   5.868   1.210   1.880
 7281TIP3    H121800   5.923   1.174   1.950
 7281TIP3    H221801   5.877   1.304   1.888
 7282TIP3   OH221802   3.708   7.179   3.320
 7282TIP3    H121803   3.663   7.157   3.402
 7282TIP3    H221804   3.655   7.249   3.282
 7283TIP3   OH221805   4.030   3.775   4.707
 7283TIP3    H121806   4.040   3.692   4.753
 7283TIP3    H221807   4.039   3.752   4.614
 7284TIP3   OH221808   2.143   5.549   0.074
 7284TIP3    H121809   2.201   5.625   0.064
 7284TIP3    H221810   2.184   5.480   0.022
 7285TIP3   OH221811   2.729   0.090   3.047
 7285TIP3    H121812   2.803   0.145   3.070
 7285TIP3    H221813   2.696   0.128   2.965
 7286TIP3   OH221814   4.702   3.715   5.740
 7286TIP3    H121815   4.740   3.659   5.808
 7286TIP3    H221816   4.673   3.794   5.788
 7287TIP3   OH221817   2.858   0.434   5.801
 7287TIP3    H121818   2.767   0.413   5.782
 7287TIP3    H221819   2.896   0.353   5.833
 7288TIP3   OH221820   2.754   6.401   3.990
 7288TIP3    H121821   2.821   6.334   3.973
 7288TIP3    H221822   2.733   6.436   3.904
 7289TIP3   OH221823   7.977   5.434   4.968
 7289TIP3    H121824   7.893   5.463   5.004
 7289TIP3    H221825   8.009   5.370   5.031
 7290TIP3   OH221826   6.040   4.748   0.132
 7290TIP3    H121827   6.131   4.717   0.139
 7290TIP3    H221828   6.034   4.819   0.196
 7291TIP3   OH221829   5.288   1.483   2.673
 7291TIP3    H121830   5.383   1.473   2.668
 7291TIP3    H221831   5.260   1.485   2.581
 7292TIP3   OH221832   6.086   6.753   4.757
 7292TIP3    H121833   6.125   6.796   4.681
 7292TIP3    H221834   6.096   6.816   4.828
 7293TIP3   OH221835   4.307   3.735   3.724
 7293TIP3    H121836   4.402   3.724   3.714
 7293TIP3    H221837   4.275   3.750   3.635
 7294TIP3   OH221838   4.653   0.279   4.543
 7294TIP3    H121839   4.573   0.240   4.578
 7294TIP3    H221840   4.639   0.284   4.449
 7295TIP3   OH221841   4.496   1.303   1.658
 7295TIP3    H121842   4.582   1.314   1.617
 7295TIP3    H221843   4.459   1.225   1.616
 7296TIP3   OH221844   3.392   7.425   1.175
 7296TIP3    H121845   3.349   7.454   1.094
 7296TIP3    H221846   3.409   7.505   1.224
 7297TIP3   OH221847   5.622   2.001   5.426
 7297TIP3    H121848   5.555   2.065   5.403
 7297TIP3    H221849   5.624   2.000   5.522
 7298TIP3   OH221850   6.745   7.206   1.288
 7298TIP3    H121851   6.771   7.289   1.248
 7298TIP3    H221852   6.760   7.141   1.219
 7299TIP3   OH221853   3.308   5.540   5.236
 7299TIP3    H121854   3.231   5.485   5.222
 7299TIP3    H221855   3.273   5.629   5.233
 7300TIP3   OH221856   3.044   2.468   4.319
 7300TIP3    H121857   3.056   2.543   4.377
 7300TIP3    H221858   2.952   2.472   4.293
 7301TIP3   OH221859   1.012   2.132   6.439
 7301TIP3    H121860   0.944   2.076   6.476
 7301TIP3    H221861   0.979   2.155   6.352
 7302TIP3   OH221862   6.475   6.846   1.549
 7302TIP3    H121863   6.456   6.753   1.566
 7302TIP3    H221864   6.533   6.872   1.620
 7303TIP3   OH221865   0.996   3.295   3.084
 7303TIP3    H121866   0.920   3.302   3.026
 7303TIP3    H221867   0.998   3.379   3.131
 7304TIP3   OH221868   6.500   3.236   2.177
 7304TIP3    H121869   6.481   3.156   2.128
 7304TIP3    H221870   6.569   3.211   2.238
 7305TIP3   OH221871   4.121   4.682   3.752
 7305TIP3    H121872   4.080   4.735   3.821
 7305TIP3    H221873   4.212   4.710   3.751
 7306TIP3   OH221874   6.646   5.562   5.022
 7306TIP3    H121875   6.604   5.499   4.963
 7306TIP3    H221876   6.674   5.509   5.097
 7307TIP3   OH221877   1.802   2.731   6.181
 7307TIP3    H121878   1.870   2.759   6.243
 7307TIP3    H221879   1.721   2.736   6.232
 7308TIP3   OH221880   2.469   4.376   2.886
 7308TIP3    H121881   2.542   4.426   2.849
 7308TIP3    H221882   2.508   4.291   2.909
 7309TIP3   OH221883   5.917   6.822   2.803
 7309TIP3    H121884   5.967   6.899   2.777
 7309TIP3    H221885   5.873   6.848   2.883
 7310TIP3   OH221886   3.075   7.432   1.238
 7310TIP3    H121887   3.075   7.474   1.324
 7310TIP3    H221888   3.167   7.411   1.222
 7311TIP3   OH221889   6.431   7.464   1.089
 7311TIP3    H121890   6.373   7.398   1.128
 7311TIP3    H221891   6.455   7.521   1.163
 7312TIP3   OH221892   7.928   1.120   5.609
 7312TIP3    H121893   7.976   1.174   5.673
 7312TIP3    H221894   7.857   1.177   5.579
 7313TIP3   OH221895   6.661   3.338   4.763
 7313TIP3    H121896   6.676   3.253   4.721
 7313TIP3    H221897   6.645   3.317   4.855
 7314TIP3   OH221898   0.972   2.683   3.129
 7314TIP3    H121899   1.018   2.617   3.077
 7314TIP3    H221900   0.956   2.755   3.068
 7315TIP3   OH221901   4.351   5.851   0.172
 7315TIP3    H121902   4.435   5.871   0.131
 7315TIP3    H221903   4.324   5.768   0.133
 7316TIP3   OH221904   6.983   6.085   4.978
 7316TIP3    H121905   6.952   6.109   4.891
 7316TIP3    H221906   6.977   6.165   5.030
 7317TIP3   OH221907   2.764   3.666   2.336
 7317TIP3    H121908   2.745   3.677   2.429
 7317TIP3    H221909   2.782   3.573   2.326
 7318TIP3   OH221910   5.103   6.097   2.691
 7318TIP3    H121911   5.152   6.102   2.773
 7318TIP3    H221912   5.158   6.143   2.628
 7319TIP3   OH221913   8.086   7.385   2.075
 7319TIP3    H121914   8.025   7.444   2.032
 7319TIP3    H221915   8.122   7.332   2.004
 7320TIP3   OH221916   6.013   4.996   1.515
 7320TIP3    H121917   6.025   4.934   1.587
 7320TIP3    H221918   6.096   4.991   1.466
 7321TIP3   OH221919   2.901   6.758   4.564
 7321TIP3    H121920   2.849   6.787   4.639
 7321TIP3    H221921   2.896   6.830   4.501
 7322TIP3   OH221922   4.806   7.502   0.251
 7322TIP3    H121923   4.738   7.485   0.316
 7322TIP3    H221924   4.877   7.543   0.300
 7323TIP3   OH221925   4.747   6.621   1.626
 7323TIP3    H121926   4.831   6.667   1.632
 7323TIP3    H221927   4.693   6.662   1.694
 7324TIP3   OH221928   5.826   0.442   1.771
 7324TIP3    H121929   5.783   0.467   1.853
 7324TIP3    H221930   5.794   0.354   1.753
 7325TIP3   OH221931   7.746   3.210   0.993
 7325TIP3    H121932   7.813   3.250   1.049
 7325TIP3    H221933   7.668   3.207   1.049
 7326TIP3   OH221934   0.664   6.155   6.695
 7326TIP3    H121935   0.631   6.081   6.643
 7326TIP3    H221936   0.757   6.138   6.704
 7327TIP3   OH221937   7.255   2.981   4.906
 7327TIP3    H121938   7.323   2.934   4.954
 7327TIP3    H221939   7.235   3.057   4.961
 7328TIP3   OH221940   1.066   2.533   5.508
 7328TIP3    H121941   1.117   2.570   5.436
 7328TIP3    H221942   0.975   2.556   5.488
 7329TIP3   OH221943   7.619   2.746   3.118
 7329TIP3    H121944   7.631   2.775   3.027
 7329TIP3    H221945   7.577   2.661   3.111
 7330TIP3   OH221946   0.814   2.505   6.467
 7330TIP3    H121947   0.811   2.566   6.393
 7330TIP3    H221948   0.889   2.449   6.448
 7331TIP3   OH221949   7.005   1.192   2.077
 7331TIP3    H121950   6.973   1.276   2.110
 7331TIP3    H221951   7.073   1.166   2.139
 7332TIP3   OH221952   5.588   0.066   2.418
 7332TIP3    H121953   5.508   0.015   2.431
 7332TIP3    H221954   5.649   0.005   2.375
 7333TIP3   OH221955   1.844   5.730   4.840
 7333TIP3    H121956   1.917   5.787   4.863
 7333TIP3    H221957   1.769   5.767   4.886
 7334TIP3   OH221958   2.647   2.870   4.075
 7334TIP3    H121959   2.696   2.860   3.993
 7334TIP3    H221960   2.688   2.946   4.117
 7335TIP3   OH221961   8.087   5.554   0.728
 7335TIP3    H121962   8.137   5.546   0.810
 7335TIP3    H221963   8.073   5.649   0.719
 7336TIP3   OH221964   7.414   6.998   2.718
 7336TIP3    H121965   7.429   7.023   2.809
 7336TIP3    H221966   7.404   7.081   2.672
 7337TIP3   OH221967   1.658   6.134   5.362
 7337TIP3    H121968   1.617   6.057   5.404
 7337TIP3    H221969   1.752   6.117   5.368
 7338TIP3   OH221970   6.694   0.962   5.995
 7338TIP3    H121971   6.605   0.934   5.974
 7338TIP3    H221972   6.686   1.055   6.016
 7339TIP3   OH221973   7.303   1.429   4.632
 7339TIP3    H121974   7.348   1.354   4.594
 7339TIP3    H221975   7.213   1.422   4.601
 7340TIP3   OH221976   0.871   5.360   4.765
 7340TIP3    H121977   0.855   5.391   4.854
 7340TIP3    H221978   0.892   5.268   4.775
 7341TIP3   OH221979   1.814   4.079   5.323
 7341TIP3    H121980   1.780   3.996   5.357
 7341TIP3    H221981   1.898   4.090   5.366
 7342TIP3   OH221982   6.844   6.289   2.673
 7342TIP3    H121983   6.833   6.239   2.592
 7342TIP3    H221984   6.826   6.380   2.648
 7343TIP3   OH221985   1.936   0.046   1.174
 7343TIP3    H121986   1.951   0.006   1.259
 7343TIP3    H221987   1.840   0.050   1.165
 7344TIP3   OH221988   6.732   2.438   6.587
 7344TIP3    H121989   6.757   2.349   6.563
 7344TIP3    H221990   6.653   2.428   6.640
 7345TIP3   OH221991   4.701   0.537   2.772
 7345TIP3    H121992   4.748   0.453   2.779
 7345TIP3    H221993   4.709   0.575   2.860
 7346TIP3   OH221994   4.620   7.453   4.974
 7346TIP3    H121995   4.651   7.380   4.920
 7346TIP3    H221996   4.679   7.454   5.050
 7347TIP3   OH221997   0.766   2.504   5.164
 7347TIP3    H121998   0.711   2.571   5.123
 7347TIP3    H221999   0.855   2.528   5.139
 7348TIP3   OH222000   2.739   2.835   5.337
 7348TIP3    H122001   2.656   2.856   5.380
 7348TIP3    H222002   2.752   2.907   5.274
 7349TIP3   OH222003   3.457   0.980   3.757
 7349TIP3    H122004   3.431   1.008   3.845
 7349TIP3    H222005   3.448   1.059   3.703
 7350TIP3   OH222006   1.854   2.648   5.042
 7350TIP3    H122007   1.793   2.664   4.969
 7350TIP3    H222008   1.872   2.735   5.077
 7351TIP3   OH222009   7.401   5.059   4.842
 7351TIP3    H122010   7.423   5.149   4.865
 7351TIP3    H222011   7.477   5.008   4.871
 7352TIP3   OH222012   8.003   6.693   3.255
 7352TIP3    H122013   7.961   6.736   3.181
 7352TIP3    H222014   8.081   6.746   3.273
 7353TIP3   OH222015   4.958   2.885   3.585
 7353TIP3    H122016   4.913   2.964   3.615
 7353TIP3    H222017   5.051   2.906   3.593
 7354TIP3   OH222018   5.029   5.961   6.367
 7354TIP3    H122019   4.978   6.041   6.380
 7354TIP3    H222020   5.016   5.938   6.275
 7355TIP3   OH222021   7.922   2.890   3.947
 7355TIP3    H122022   7.908   2.825   3.877
 7355TIP3    H222023   7.943   2.837   4.024
 7356TIP3   OH222024   5.797   1.935   5.884
 7356TIP3    H122025   5.751   1.859   5.849
 7356TIP3    H222026   5.826   1.983   5.807
 7357TIP3   OH222027   3.276   7.005   1.798
 7357TIP3    H122028   3.273   6.986   1.704
 7357TIP3    H222029   3.366   7.034   1.813
 7358TIP3   OH222030   7.113   6.838   2.501
 7358TIP3    H122031   7.084   6.911   2.447
 7358TIP3    H222032   7.208   6.840   2.496
 7359TIP3   OH222033   4.800   4.442   2.481
 7359TIP3    H122034   4.876   4.500   2.475
 7359TIP3    H222035   4.834   4.356   2.454
 7360TIP3   OH222036   3.518   5.509   5.076
 7360TIP3    H122037   3.437   5.510   5.127
 7360TIP3    H222038   3.490   5.515   4.985
 7361TIP3   OH222039   2.418   4.525   0.390
 7361TIP3    H122040   2.412   4.530   0.485
 7361TIP3    H222041   2.374   4.603   0.359
 7362TIP3   OH222042   2.028   0.676   2.208
 7362TIP3    H122043   2.088   0.744   2.239
 7362TIP3    H222044   1.945   0.722   2.194
 7363TIP3   OH222045   1.824   5.296   0.153
 7363TIP3    H122046   1.824   5.209   0.113
 7363TIP3    H222047   1.838   5.356   0.080
 7364TIP3   OH222048   3.098   5.198   0.981
 7364TIP3    H122049   3.188   5.227   0.995
 7364TIP3    H222050   3.087   5.123   1.040
 7365TIP3   OH222051   4.972   1.082   2.936
 7365TIP3    H122052   5.031   1.156   2.955
 7365TIP3    H222053   4.884   1.119   2.943
 7366TIP3   OH222054   2.877   3.523   6.019
 7366TIP3    H122055   2.947   3.514   6.083
 7366TIP3    H222056   2.919   3.560   5.942
 7367TIP3   OH222057   3.785   2.358   1.612
 7367TIP3    H122058   3.779   2.291   1.544
 7367TIP3    H222059   3.750   2.437   1.571
 7368TIP3   OH222060   3.681   7.258   4.105
 7368TIP3    H122061   3.701   7.202   4.180
 7368TIP3    H222062   3.587   7.273   4.111
 7369TIP3   OH222063   5.480   3.381   2.994
 7369TIP3    H122064   5.559   3.404   3.044
 7369TIP3    H222065   5.512   3.323   2.925
 7370TIP3   OH222066   7.997   1.803   3.102
 7370TIP3    H122067   7.948   1.787   3.183
 7370TIP3    H222068   7.977   1.894   3.080
 7371TIP3   OH222069   7.588   4.805   4.320
 7371TIP3    H122070   7.683   4.809   4.327
 7371TIP3    H222071   7.570   4.830   4.229
 7372TIP3   OH222072   4.304   3.277   6.182
 7372TIP3    H122073   4.296   3.244   6.093
 7372TIP3    H222074   4.276   3.205   6.238
 7373TIP3   OH222075   2.027   2.821   3.990
 7373TIP3    H122076   2.046   2.811   3.897
 7373TIP3    H222077   2.061   2.741   4.030
 7374TIP3   OH222078   4.672   0.923   1.903
 7374TIP3    H122079   4.632   0.854   1.849
 7374TIP3    H222080   4.695   0.992   1.841
 7375TIP3   OH222081   7.423   3.921   5.271
 7375TIP3    H122082   7.369   3.932   5.349
 7375TIP3    H222083   7.474   4.002   5.264
 7376TIP3   OH222084   0.656   0.223   3.387
 7376TIP3    H122085   0.600   0.242   3.462
 7376TIP3    H222086   0.615   0.269   3.314
 7377TIP3   OH222087   7.947   6.380   2.082
 7377TIP3    H122088   8.036   6.345   2.086
 7377TIP3    H222089   7.897   6.316   2.032
 7378TIP3   OH222090   0.715   7.027   5.013
 7378TIP3    H122091   0.672   7.002   5.095
 7378TIP3    H222092   0.808   7.029   5.034
 7379TIP3   OH222093   0.660   6.284   6.122
 7379TIP3    H122094   0.654   6.275   6.027
 7379TIP3    H222095   0.569   6.293   6.152
 7380TIP3   OH222096   7.589   6.254   5.673
 7380TIP3    H122097   7.651   6.227   5.605
 7380TIP3    H222098   7.516   6.193   5.664
 7381TIP3   OH222099   5.206   2.665   2.063
 7381TIP3    H122100   5.261   2.588   2.075
 7381TIP3    H222101   5.116   2.632   2.071
 7382TIP3   OH222102   5.152   7.203   0.690
 7382TIP3    H122103   5.150   7.131   0.627
 7382TIP3    H222104   5.094   7.175   0.761
 7383TIP3   OH222105   1.755   0.057   5.280
 7383TIP3    H122106   1.690   0.097   5.222
 7383TIP3    H222107   1.800   0.131   5.321
 7384TIP3   OH222108   1.267   4.182   5.341
 7384TIP3    H122109   1.310   4.252   5.292
 7384TIP3    H222110   1.274   4.105   5.284
 7385TIP3   OH222111   1.435   6.739   5.109
 7385TIP3    H122112   1.388   6.769   5.187
 7385TIP3    H222113   1.433   6.814   5.050
 7386TIP3   OH222114   0.865   6.443   0.906
 7386TIP3    H122115   0.929   6.510   0.928
 7386TIP3    H222116   0.871   6.379   0.977
 7387TIP3   OH222117   3.226   6.997   1.503
 7387TIP3    H122118   3.147   6.943   1.504
 7387TIP3    H222119   3.193   7.087   1.503
 7388TIP3   OH222120   3.017   2.981   1.891
 7388TIP3    H122121   2.942   2.935   1.929
 7388TIP3    H222122   3.047   2.924   1.821
 7389TIP3   OH222123   4.554   4.018   6.202
 7389TIP3    H122124   4.641   3.995   6.235
 7389TIP3    H222125   4.516   4.073   6.271
 7390TIP3   OH222126   1.555   2.004   0.139
 7390TIP3    H122127   1.501   1.941   0.187
 7390TIP3    H222128   1.504   2.085   0.140
 7391TIP3   OH222129   3.514   5.883   5.961
 7391TIP3    H122130   3.432   5.837   5.977
 7391TIP3    H222131   3.494   5.943   5.890
 7392TIP3   OH222132   4.595   7.542   6.149
 7392TIP3    H122133   4.506   7.508   6.147
 7392TIP3    H222134   4.646   7.480   6.097
 7393TIP3   OH222135   4.383   1.495   3.537
 7393TIP3    H122136   4.289   1.512   3.542
 7393TIP3    H222137   4.393   1.406   3.570
 7394TIP3   OH222138   6.228   3.451   0.319
 7394TIP3    H122139   6.215   3.419   0.230
 7394TIP3    H222140   6.323   3.466   0.325
 7395TIP3   OH222141   7.276   2.748   1.527
 7395TIP3    H122142   7.271   2.660   1.564
 7395TIP3    H222143   7.203   2.752   1.465
 7396TIP3   OH222144   0.953   0.793   1.186
 7396TIP3    H122145   0.977   0.775   1.276
 7396TIP3    H222146   0.977   0.713   1.138
 7397TIP3   OH222147   6.162   0.909   4.811
 7397TIP3    H122148   6.255   0.886   4.806
 7397TIP3    H222149   6.147   0.965   4.735
 7398TIP3   OH222150   0.112   6.795   2.312
 7398TIP3    H122151   0.100   6.889   2.296
 7398TIP3    H222152   0.176   6.768   2.246
 7399TIP3   OH222153   5.997   3.245   2.379
 7399TIP3    H122154   5.946   3.311   2.426
 7399TIP3    H222155   6.088   3.265   2.402
 7400TIP3   OH222156   3.368   3.224   0.656
 7400TIP3    H122157   3.352   3.141   0.700
 7400TIP3    H222158   3.463   3.228   0.645
 7401TIP3   OH222159   5.706   3.807   3.852
 7401TIP3    H122160   5.735   3.719   3.830
 7401TIP3    H222161   5.734   3.861   3.778
 7402TIP3   OH222162   7.346   0.604   5.727
 7402TIP3    H122163   7.330   0.575   5.817
 7402TIP3    H222164   7.346   0.523   5.676
 7403TIP3   OH222165   4.510   1.022   6.672
 7403TIP3    H122166   4.505   0.943   6.618
 7403TIP3    H222167   4.424   1.029   6.712
 7404TIP3   OH222168   4.166   3.601   2.131
 7404TIP3    H122169   4.107   3.639   2.066
 7404TIP3    H222170   4.113   3.591   2.210
 7405TIP3   OH222171   0.995   3.027   3.573
 7405TIP3    H122172   0.969   3.018   3.482
 7405TIP3    H222173   0.936   3.094   3.608
 7406TIP3   OH222174   7.455   1.304   1.977
 7406TIP3    H122175   7.512   1.368   1.935
 7406TIP3    H222176   7.367   1.328   1.950
 7407TIP3   OH222177   5.169   6.201   3.643
 7407TIP3    H122178   5.238   6.191   3.579
 7407TIP3    H222179   5.112   6.125   3.630
 7408TIP3   OH222180   0.179   7.126   3.019
 7408TIP3    H122181   0.162   7.033   3.032
 7408TIP3    H222182   0.231   7.131   2.939
 7409TIP3   OH222183   2.168  -0.009   3.434
 7409TIP3    H122184   2.218   0.071   3.419
 7409TIP3    H222185   2.168  -0.054   3.350
 7410TIP3   OH222186   4.118   0.814   1.109
 7410TIP3    H122187   4.046   0.768   1.150
 7410TIP3    H222188   4.079   0.894   1.074
 7411TIP3   OH222189   7.879   6.724   6.741
 7411TIP3    H122190   7.802   6.668   6.746
 7411TIP3    H222191   7.875   6.762   6.653
 7412TIP3   OH222192   5.189   6.656   0.238
 7412TIP3    H122193   5.245   6.721   0.194
 7412TIP3    H222194   5.203   6.575   0.188
 7413TIP3   OH222195   2.045   4.549   0.769
 7413TIP3    H122196   2.079   4.605   0.699
 7413TIP3    H222197   1.977   4.496   0.727
 7414TIP3   OH222198   7.317   7.232   2.925
 7414TIP3    H122199   7.272   7.245   2.842
 7414TIP3    H222200   7.281   7.299   2.983
 7415TIP3   OH222201   3.356   6.675   4.575
 7415TIP3    H122202   3.327   6.734   4.645
 7415TIP3    H222203   3.303   6.596   4.587
 7416TIP3   OH222204   4.166   0.459   1.483
 7416TIP3    H122205   4.156   0.535   1.541
 7416TIP3    H222206   4.090   0.463   1.425
 7417TIP3   OH222207   1.818   5.715   6.392
 7417TIP3    H122208   1.843   5.798   6.432
 7417TIP3    H222209   1.769   5.741   6.314
 7418TIP3   OH222210   7.917   0.999   2.626
 7418TIP3    H122211   7.904   1.040   2.712
 7418TIP3    H222212   8.009   0.973   2.626
 7419TIP3   OH222213   4.417   6.306   5.447
 7419TIP3    H122214   4.412   6.387   5.499
 7419TIP3    H222215   4.386   6.238   5.507
 7420TIP3   OH222216   3.290   1.416   0.927
 7420TIP3    H122217   3.298   1.498   0.976
 7420TIP3    H222218   3.380   1.394   0.903
 7421TIP3   OH222219   7.066   7.229   3.610
 7421TIP3    H122220   7.088   7.320   3.593
 7421TIP3    H222221   7.146   7.180   3.589
 7422TIP3   OH222222   7.349   3.737   1.711
 7422TIP3    H122223   7.343   3.832   1.699
 7422TIP3    H222224   7.420   3.725   1.773
 7423TIP3   OH222225   3.979   0.284   4.332
 7423TIP3    H122226   4.040   0.251   4.398
 7423TIP3    H222227   3.935   0.206   4.299
 7424TIP3   OH222228   3.779   0.811   2.112
 7424TIP3    H122229   3.789   0.716   2.118
 7424TIP3    H222230   3.777   0.841   2.203
 7425TIP3   OH222231   5.239   7.692   1.576
 7425TIP3    H122232   5.280   7.654   1.654
 7425TIP3    H222233   5.258   7.629   1.506
 7426TIP3   OH222234   3.842   0.408   3.178
 7426TIP3    H122235   3.799   0.474   3.124
 7426TIP3    H222236   3.829   0.437   3.268
 7427TIP3   OH222237   6.774   1.391   3.612
 7427TIP3    H122238   6.703   1.353   3.664
 7427TIP3    H222239   6.853   1.349   3.646
 7428TIP3   OH222240   2.863   3.250   3.341
 7428TIP3    H122241   2.882   3.157   3.330
 7428TIP3    H222242   2.805   3.254   3.417
 7429TIP3   OH222243   4.950   3.222   0.910
 7429TIP3    H122244   4.856   3.235   0.908
 7429TIP3    H222245   4.987   3.310   0.902
 7430TIP3   OH222246   0.866   3.804   1.972
 7430TIP3    H122247   0.850   3.892   1.938
 7430TIP3    H222248   0.923   3.818   2.048
 7431TIP3   OH222249   6.566   5.582   0.981
 7431TIP3    H122250   6.576   5.676   0.965
 7431TIP3    H222251   6.591   5.571   1.073
 7432TIP3   OH222252   6.446   1.823   5.908
 7432TIP3    H122253   6.438   1.911   5.869
 7432TIP3    H222254   6.356   1.793   5.918
 7433TIP3   OH222255   0.710   0.362   2.409
 7433TIP3    H122256   0.636   0.419   2.392
 7433TIP3    H222257   0.729   0.320   2.325
 7434TIP3   OH222258   6.927   6.633   1.054
 7434TIP3    H122259   6.864   6.575   1.010
 7434TIP3    H222260   6.882   6.717   1.059
 7435TIP3   OH222261   6.528   3.858   0.707
 7435TIP3    H122262   6.481   3.941   0.716
 7435TIP3    H222263   6.601   3.866   0.768
 7436TIP3   OH222264   5.807   3.207   1.269
 7436TIP3    H122265   5.866   3.277   1.297
 7436TIP3    H222266   5.769   3.239   1.187
 7437TIP3   OH222267   3.787   1.778   4.896
 7437TIP3    H122268   3.719   1.731   4.944
 7437TIP3    H222269   3.758   1.778   4.805
 7438TIP3   OH222270   0.320   4.431   1.978
 7438TIP3    H122271   0.416   4.426   1.979
 7438TIP3    H222272   0.298   4.478   2.058
 7439TIP3   OH222273   1.781   2.164   0.148
 7439TIP3    H122274   1.842   2.099   0.112
 7439TIP3    H222275   1.700   2.116   0.163
 7440TIP3   OH222276   6.013   0.690   2.278
 7440TIP3    H122277   5.992   0.634   2.352
 7440TIP3    H222278   6.031   0.629   2.206
 7441TIP3   OH222279   1.051   6.692   2.650
 7441TIP3    H122280   1.065   6.786   2.647
 7441TIP3    H222281   1.115   6.660   2.714
 7442TIP3   OH222282   0.201   0.730   1.187
 7442TIP3    H122283   0.135   0.734   1.256
 7442TIP3    H222284   0.168   0.788   1.118
 7443TIP3   OH222285   0.617   3.738   6.130
 7443TIP3    H122286   0.560   3.760   6.204
 7443TIP3    H222287   0.558   3.731   6.055
 7444TIP3   OH222288   1.463   6.417   0.581
 7444TIP3    H122289   1.411   6.495   0.595
 7444TIP3    H222290   1.478   6.415   0.486
 7445TIP3   OH222291   0.659   5.635   1.776
 7445TIP3    H122292   0.748   5.660   1.750
 7445TIP3    H222293   0.602   5.675   1.710
 7446TIP3   OH222294   5.030   3.126   1.847
 7446TIP3    H122295   5.092   3.168   1.787
 7446TIP3    H222296   4.984   3.062   1.792
 7447TIP3   OH222297   6.164   0.985   6.205
 7447TIP3    H122298   6.106   1.061   6.216
 7447TIP3    H222299   6.252   1.020   6.216
 7448TIP3   OH222300   5.232   6.463   0.059
 7448TIP3    H122301   5.152   6.410   0.053
 7448TIP3    H222302   5.298   6.403   0.094
 7449TIP3   OH222303   1.896   3.892   3.815
 7449TIP3    H122304   1.920   3.870   3.904
 7449TIP3    H222305   1.810   3.933   3.823
 7450TIP3   OH222306   3.493   0.322   1.861
 7450TIP3    H122307   3.548   0.338   1.784
 7450TIP3    H222308   3.443   0.243   1.839
 7451TIP3   OH222309   4.874   7.603   0.847
 7451TIP3    H122310   4.880   7.695   0.820
 7451TIP3    H222311   4.845   7.606   0.938
 7452TIP3   OH222312   7.887   3.477   2.644
 7452TIP3    H122313   7.851   3.391   2.625
 7452TIP3    H222314   7.819   3.538   2.615
 7453TIP3   OH222315   4.296   7.069   0.945
 7453TIP3    H122316   4.281   7.043   1.035
 7453TIP3    H222317   4.211   7.099   0.914
 7454TIP3   OH222318   4.055   1.160   4.667
 7454TIP3    H122319   3.982   1.098   4.657
 7454TIP3    H222320   4.015   1.246   4.660
 7455TIP3   OH222321   6.806   2.180   6.496
 7455TIP3    H122322   6.896   2.149   6.512
 7455TIP3    H222323   6.783   2.143   6.411
 7456TIP3   OH222324   4.440   3.381   1.622
 7456TIP3    H122325   4.362   3.349   1.667
 7456TIP3    H222326   4.499   3.407   1.692
 7457TIP3   OH222327   2.383   4.072   1.673
 7457TIP3    H122328   2.477   4.066   1.660
 7457TIP3    H222329   2.364   4.007   1.741
 7458TIP3   OH222330   0.062   6.215   1.045
 7458TIP3    H122331   0.141   6.162   1.055
 7458TIP3    H222332   0.022   6.214   1.132
 7459TIP3   OH222333   3.076   7.269   4.641
 7459TIP3    H122334   3.023   7.283   4.562
 7459TIP3    H222335   3.078   7.174   4.652
 7460TIP3   OH222336   6.124   2.236   4.418
 7460TIP3    H122337   6.073   2.316   4.409
 7460TIP3    H222338   6.133   2.204   4.328
 7461TIP3   OH222339   1.235   7.361   4.370
 7461TIP3    H122340   1.271   7.446   4.343
 7461TIP3    H222341   1.150   7.357   4.326
 7462TIP3   OH222342   2.588   3.040   5.779
 7462TIP3    H122343   2.542   3.107   5.728
 7462TIP3    H222344   2.681   3.060   5.765
 7463TIP3   OH222345   4.700   6.879   2.255
 7463TIP3    H122346   4.743   6.803   2.293
 7463TIP3    H222347   4.771   6.931   2.218
 7464TIP3   OH222348   0.475   7.648   2.416
 7464TIP3    H122349   0.509   7.616   2.500
 7464TIP3    H222350   0.498   7.741   2.415
 7465TIP3   OH222351   7.825   4.153   2.051
 7465TIP3    H122352   7.906   4.193   2.082
 7465TIP3    H222353   7.816   4.182   1.960
 7466TIP3   OH222354   4.555   2.036   1.500
 7466TIP3    H122355   4.568   1.981   1.577
 7466TIP3    H222356   4.597   2.119   1.522
 7467TIP3   OH222357   8.089   6.963   0.878
 7467TIP3    H122358   8.077   6.920   0.793
 7467TIP3    H222359   8.184   6.971   0.887
 7468TIP3   OH222360   1.556   3.600   3.900
 7468TIP3    H122361   1.485   3.665   3.906
 7468TIP3    H222362   1.511   3.519   3.877
 7469TIP3   OH222363   0.049   2.416   3.484
 7469TIP3    H122364   0.136   2.456   3.484
 7469TIP3    H222365   0.057   2.342   3.424
 7470TIP3   OH222366   6.951   1.041   3.695
 7470TIP3    H122367   6.982   0.976   3.631
 7470TIP3    H222368   6.874   1.000   3.735
 7471TIP3   OH222369   2.165   0.494   2.838
 7471TIP3    H122370   2.253   0.530   2.853
 7471TIP3    H222371   2.177   0.399   2.848
 7472TIP3   OH222372   7.458   0.786   1.426
 7472TIP3    H122373   7.432   0.878   1.428
 7472TIP3    H222374   7.375   0.739   1.423
 7473TIP3   OH222375   7.118   2.316   2.677
 7473TIP3    H122376   7.066   2.364   2.613
 7473TIP3    H222377   7.208   2.343   2.661
 7474TIP3   OH222378   0.033   6.105   2.604
 7474TIP3    H122379   0.115   6.085   2.558
 7474TIP3    H222380  -0.034   6.106   2.535
 7475TIP3   OH222381   8.187   2.321   1.504
 7475TIP3    H122382   8.229   2.337   1.420
 7475TIP3    H222383   8.258   2.295   1.562
 7476TIP3   OH222384   7.458   3.079   1.746
 7476TIP3    H122385   7.470   3.156   1.800
 7476TIP3    H222386   7.537   3.075   1.692
 7477TIP3   OH222387   7.706   0.330   5.724
 7477TIP3    H122388   7.743   0.268   5.786
 7477TIP3    H222389   7.718   0.415   5.765
 7478TIP3   OH222390   6.945   3.265   3.512
 7478TIP3    H122391   6.866   3.280   3.565
 7478TIP3    H222392   6.947   3.170   3.500
 7479TIP3   OH222393   3.914   0.701   4.671
 7479TIP3    H122394   3.830   0.738   4.645
 7479TIP3    H222395   3.894   0.647   4.748
 7480TIP3   OH222396   0.054   6.376   3.345
 7480TIP3    H122397  -0.004   6.327   3.403
 7480TIP3    H222398   0.142   6.344   3.365
 7481TIP3   OH222399   3.938   6.978   2.995
 7481TIP3    H122400   3.928   7.054   3.052
 7481TIP3    H222401   3.992   6.917   3.045
 7482TIP3   OH222402   7.419   5.188   0.908
 7482TIP3    H122403   7.370   5.265   0.939
 7482TIP3    H222404   7.359   5.114   0.924
 7483TIP3   OH222405   2.582   4.391   5.098
 7483TIP3    H122406   2.547   4.349   5.177
 7483TIP3    H222407   2.505   4.427   5.054
 7484TIP3   OH222408   1.044   1.129   2.836
 7484TIP3    H122409   1.003   1.130   2.749
 7484TIP3    H222410   1.127   1.175   2.823
 7485TIP3   OH222411   5.865   7.387   4.395
 7485TIP3    H122412   5.855   7.320   4.462
 7485TIP3    H222413   5.784   7.382   4.344
 7486TIP3   OH222414   2.492   3.686   6.362
 7486TIP3    H122415   2.427   3.725   6.420
 7486TIP3    H222416   2.442   3.655   6.287
 7487TIP3   OH222417   3.194   2.751   3.275
 7487TIP3    H122418   3.176   2.836   3.235
 7487TIP3    H222419   3.151   2.755   3.361
 7488TIP3   OH222420   1.118   3.396   4.341
 7488TIP3    H122421   1.035   3.350   4.339
 7488TIP3    H222422   1.096   3.484   4.372
 7489TIP3   OH222423   3.463  -0.010   1.290
 7489TIP3    H122424   3.517   0.037   1.354
 7489TIP3    H222425   3.373   0.012   1.315
 7490TIP3   OH222426   5.697   3.913   5.847
 7490TIP3    H122427   5.639   3.851   5.892
 7490TIP3    H222428   5.744   3.958   5.917
 7491TIP3   OH222429   8.003   4.515   4.848
 7491TIP3    H122430   8.075   4.506   4.910
 7491TIP3    H222431   8.011   4.604   4.814
 7492TIP3   OH222432   3.376   1.250   1.898
 7492TIP3    H122433   3.319   1.322   1.869
 7492TIP3    H222434   3.410   1.212   1.817
 7493TIP3   OH222435   8.023   7.687   3.298
 7493TIP3    H122436   7.953   7.637   3.341
 7493TIP3    H222437   8.014   7.665   3.205
 7494TIP3   OH222438   4.343   4.991   0.213
 7494TIP3    H122439   4.337   5.058   0.146
 7494TIP3    H222440   4.434   4.963   0.211
 7495TIP3   OH222441   2.215   6.101   5.095
 7495TIP3    H122442   2.274   6.177   5.104
 7495TIP3    H222443   2.241   6.060   5.012
 7496TIP3   OH222444   3.979   0.400   1.274
 7496TIP3    H122445   4.045   0.445   1.221
 7496TIP3    H222446   3.902   0.396   1.217
 7497TIP3   OH222447   1.908   0.793   5.498
 7497TIP3    H122448   1.936   0.712   5.457
 7497TIP3    H222449   1.829   0.770   5.547
 7498TIP3   OH222450   1.488   6.101   2.744
 7498TIP3    H122451   1.554   6.084   2.811
 7498TIP3    H222452   1.535   6.146   2.674
 7499TIP3   OH222453   3.874   4.698   5.346
 7499TIP3    H122454   3.922   4.735   5.420
 7499TIP3    H222455   3.936   4.640   5.303
 7500TIP3   OH222456   2.095   0.305   5.032
 7500TIP3    H122457   2.063   0.233   5.087
 7500TIP3    H222458   2.032   0.311   4.960
 7501TIP3   OH222459   2.901   5.732   6.702
 7501TIP3    H122460   2.809   5.742   6.678
 7501TIP3    H222461   2.907   5.643   6.737
 7502TIP3   OH222462   1.916   3.996   0.965
 7502TIP3    H122463   1.992   3.993   1.022
 7502TIP3    H222464   1.866   3.917   0.985
 7503TIP3   OH222465   7.213   6.787   4.659
 7503TIP3    H122466   7.189   6.767   4.568
 7503TIP3    H222467   7.308   6.794   4.658
 7504TIP3   OH222468   0.558   6.655   4.115
 7504TIP3    H122469   0.566   6.561   4.098
 7504TIP3    H222470   0.647   6.689   4.106
 7505TIP3   OH222471   2.860   0.630   1.590
 7505TIP3    H122472   2.835   0.538   1.590
 7505TIP3    H222473   2.938   0.634   1.535
 7506TIP3   OH222474   1.400   4.437   1.649
 7506TIP3    H122475   1.486   4.459   1.685
 7506TIP3    H222476   1.341   4.441   1.724
 7507TIP3   OH222477   6.781   4.139   4.161
 7507TIP3    H122478   6.867   4.161   4.126
 7507TIP3    H222479   6.719   4.183   4.102
 7508TIP3   OH222480   6.531   5.226   4.396
 7508TIP3    H122481   6.462   5.192   4.453
 7508TIP3    H222482   6.485   5.254   4.317
 7509TIP3   OH222483   7.184   7.377   0.694
 7509TIP3    H122484   7.240   7.453   0.679
 7509TIP3    H222485   7.125   7.375   0.619
 7510TIP3   OH222486   0.995   6.005   5.487
 7510TIP3    H122487   0.920   6.057   5.513
 7510TIP3    H222488   0.959   5.940   5.427
 7511TIP3   OH222489   4.961   0.874   5.845
 7511TIP3    H122490   4.926   0.962   5.832
 7511TIP3    H222491   5.050   0.878   5.810
 7512TIP3   OH222492   0.381   5.678   0.395
 7512TIP3    H122493   0.352   5.593   0.363
 7512TIP3    H222494   0.302   5.718   0.431
 7513TIP3   OH222495   2.804   0.494   5.343
 7513TIP3    H122496   2.727   0.498   5.400
 7513TIP3    H222497   2.818   0.585   5.316
 7514TIP3   OH222498   0.370   5.930   1.291
 7514TIP3    H122499   0.462   5.950   1.304
 7514TIP3    H222500   0.365   5.894   1.203
 7515TIP3   OH222501   3.188   5.229   5.951
 7515TIP3    H122502   3.268   5.223   6.003
 7515TIP3    H222503   3.138   5.299   5.993
 7516TIP3   OH222504   2.285   4.731   2.100
 7516TIP3    H122505   2.234   4.812   2.100
 7516TIP3    H222506   2.317   4.723   2.190
 7517TIP3   OH222507   4.939   0.528   2.244
 7517TIP3    H122508   4.970   0.506   2.157
 7517TIP3    H222509   4.952   0.449   2.296
 7518TIP3   OH222510   3.654   4.875   4.017
 7518TIP3    H122511   3.723   4.928   4.058
 7518TIP3    H222512   3.633   4.922   3.937
 7519TIP3   OH222513   5.804   5.637  -0.047
 7519TIP3    H122514   5.849   5.566  -0.093
 7519TIP3    H222515   5.875   5.692  -0.013
 7520TIP3   OH222516   5.317   2.780   1.817
 7520TIP3    H122517   5.261   2.761   1.892
 7520TIP3    H222518   5.257   2.783   1.742
 7521TIP3   OH222519   1.610   3.854   4.716
 7521TIP3    H122520   1.604   3.935   4.768
 7521TIP3    H222521   1.523   3.816   4.721
 7522TIP3   OH222522   6.798   4.015   0.587
 7522TIP3    H122523   6.851   3.937   0.575
 7522TIP3    H222524   6.720   3.985   0.632
 7523TIP3   OH222525   6.283   4.363   1.725
 7523TIP3    H122526   6.310   4.455   1.732
 7523TIP3    H222527   6.200   4.359   1.772
 7524TIP3   OH222528   0.380   3.918   4.727
 7524TIP3    H122529   0.376   4.013   4.725
 7524TIP3    H222530   0.401   3.893   4.637
 7525TIP3   OH222531   6.165   1.380   5.339
 7525TIP3    H122532   6.144   1.346   5.252
 7525TIP3    H222533   6.137   1.471   5.336
 7526TIP3   OH222534   6.889   7.510   3.715
 7526TIP3    H122535   6.947   7.580   3.747
 7526TIP3    H222536   6.802   7.537   3.742
 7527TIP3   OH222537   3.760   3.457   2.228
 7527TIP3    H122538   3.722   3.378   2.191
 7527TIP3    H222539   3.691   3.523   2.221
 7528TIP3   OH222540   5.491   3.225   6.376
 7528TIP3    H122541   5.436   3.152   6.405
 7528TIP3    H222542   5.545   3.246   6.452
 7529TIP3   OH222543   0.971   3.766   5.141
 7529TIP3    H122544   0.883   3.780   5.177
 7529TIP3    H222545   0.956   3.752   5.048
 7530TIP3   OH222546   3.511   0.725   3.078
 7530TIP3    H122547   3.568   0.787   3.125
 7530TIP3    H222548   3.511   0.756   2.988
 7531TIP3   OH222549   0.486   7.065   5.237
 7531TIP3    H122550   0.454   7.009   5.308
 7531TIP3    H222551   0.413   7.071   5.175
 7532TIP3   OH222552   3.499   2.830   2.587
 7532TIP3    H122553   3.421   2.780   2.565
 7532TIP3    H222554   3.467   2.899   2.646
 7533TIP3   OH222555   3.621   7.210   0.008
 7533TIP3    H122556   3.644   7.300   0.027
 7533TIP3    H222557   3.542   7.194   0.060
 7534TIP3   OH222558   0.472   2.246   1.815
 7534TIP3    H122559   0.396   2.235   1.872
 7534TIP3    H222560   0.546   2.214   1.867
 7535TIP3   OH222561   3.962   2.227   2.573
 7535TIP3    H122562   4.005   2.166   2.513
 7535TIP3    H222563   3.945   2.176   2.652
 7536TIP3   OH222564   4.022   0.880   5.033
 7536TIP3    H122565   4.046   0.813   4.970
 7536TIP3    H222566   3.998   0.831   5.112
 7537TIP3   OH222567   0.468   5.091   6.478
 7537TIP3    H122568   0.473   5.172   6.427
 7537TIP3    H222569   0.377   5.065   6.473
 7538TIP3   OH222570   4.632   3.634   3.916
 7538TIP3    H122571   4.664   3.669   3.833
 7538TIP3    H222572   4.672   3.692   3.982
 7539TIP3   OH222573   0.522   5.764   3.996
 7539TIP3    H122574   0.453   5.812   3.950
 7539TIP3    H222575   0.578   5.730   3.926
 7540TIP3   OH222576   8.229   7.605   3.825
 7540TIP3    H122577   8.301   7.593   3.887
 7540TIP3    H222578   8.175   7.527   3.835
 7541TIP3   OH222579   2.693   6.274   5.147
 7541TIP3    H122580   2.750   6.224   5.089
 7541TIP3    H222581   2.730   6.260   5.234
 7542TIP3   OH222582   2.139   6.751   4.116
 7542TIP3    H122583   2.164   6.663   4.090
 7542TIP3    H222584   2.117   6.795   4.033
 7543TIP3   OH222585   5.408   4.753   2.082
 7543TIP3    H122586   5.399   4.722   2.172
 7543TIP3    H222587   5.358   4.834   2.079
 7544TIP3   OH222588   5.458   3.740   3.042
 7544TIP3    H122589   5.476   3.702   2.956
 7544TIP3    H222590   5.527   3.805   3.054
 7545TIP3   OH222591   0.696   4.809   1.140
 7545TIP3    H122592   0.642   4.850   1.209
 7545TIP3    H222593   0.633   4.757   1.090
 7546TIP3   OH222594   7.241   4.326   3.222
 7546TIP3    H122595   7.264   4.245   3.268
 7546TIP3    H222596   7.321   4.351   3.176
 7547TIP3   OH222597   7.264   0.514   3.599
 7547TIP3    H122598   7.218   0.461   3.664
 7547TIP3    H222599   7.196   0.566   3.557
 7548TIP3   OH222600   3.740   7.056   1.359
 7548TIP3    H122601   3.772   7.017   1.278
 7548TIP3    H222602   3.645   7.040   1.358
 7549TIP3   OH222603   0.617   3.503   4.343
 7549TIP3    H122604   0.552   3.540   4.283
 7549TIP3    H222605   0.577   3.422   4.373
 7550TIP3   OH222606   2.992   1.995   6.003
 7550TIP3    H122607   2.991   1.901   6.025
 7550TIP3    H222608   3.077   2.007   5.961
 7551TIP3   OH222609   6.029   5.139   2.882
 7551TIP3    H122610   5.938   5.170   2.877
 7551TIP3    H222611   6.026   5.065   2.942
 7552TIP3   OH222612   3.438   7.029   2.818
 7552TIP3    H122613   3.387   6.955   2.787
 7552TIP3    H222614   3.527   6.995   2.826
 7553TIP3   OH222615   0.064   6.356   6.126
 7553TIP3    H122616   0.044   6.339   6.218
 7553TIP3    H222617   0.157   6.377   6.125
 7554TIP3   OH222618   2.027   0.975   5.652
 7554TIP3    H122619   1.977   0.920   5.591
 7554TIP3    H222620   1.974   1.053   5.663
 7555TIP3   OH222621   5.786   7.127   0.245
 7555TIP3    H122622   5.851   7.152   0.179
 7555TIP3    H222623   5.831   7.064   0.301
 7556TIP3   OH222624   5.870   4.546   3.908
 7556TIP3    H122625   5.851   4.540   4.002
 7556TIP3    H222626   5.827   4.627   3.880
 7557TIP3   OH222627   2.858   4.127   1.092
 7557TIP3    H122628   2.818   4.040   1.093
 7557TIP3    H222629   2.840   4.163   1.178
 7558TIP3   OH222630   5.792   2.525   4.749
 7558TIP3    H122631   5.737   2.584   4.698
 7558TIP3    H222632   5.819   2.577   4.825
 7559TIP3   OH222633   7.275   3.339   4.160
 7559TIP3    H122634   7.192   3.374   4.191
 7559TIP3    H222635   7.257   3.307   4.071
 7560TIP3   OH222636   2.415   3.616   3.667
 7560TIP3    H122637   2.495   3.567   3.685
 7560TIP3    H222638   2.437   3.707   3.689
 7561TIP3   OH222639   7.496   3.778   4.700
 7561TIP3    H122640   7.442   3.723   4.644
 7561TIP3    H222641   7.515   3.856   4.647
 7562TIP3   OH222642   7.970   6.261   3.357
 7562TIP3    H122643   8.035   6.301   3.300
 7562TIP3    H222644   7.886   6.280   3.315
 7563TIP3   OH222645   4.752   4.389   2.200
 7563TIP3    H122646   4.750   4.359   2.291
 7563TIP3    H222647   4.802   4.470   2.203
 7564TIP3   OH222648   6.869   1.510   0.312
 7564TIP3    H122649   6.821   1.427   0.314
 7564TIP3    H222650   6.952   1.491   0.355
 7565TIP3   OH222651   0.966   0.163   4.637
 7565TIP3    H122652   0.908   0.088   4.623
 7565TIP3    H222653   1.037   0.128   4.690
 7566TIP3   OH222654   7.557   1.004   6.262
 7566TIP3    H122655   7.485   1.057   6.227
 7566TIP3    H222656   7.560   0.927   6.205
 7567TIP3   OH222657   3.220   4.583   5.458
 7567TIP3    H122658   3.190   4.499   5.424
 7567TIP3    H222659   3.248   4.565   5.547
 7568TIP3   OH222660   0.444   4.714   4.238
 7568TIP3    H122661   0.396   4.659   4.176
 7568TIP3    H222662   0.448   4.800   4.194
 7569TIP3   OH222663   7.670   7.595   4.321
 7569TIP3    H122664   7.588   7.632   4.354
 7569TIP3    H222665   7.663   7.502   4.338
 7570TIP3   OH222666   4.803   1.888   5.540
 7570TIP3    H122667   4.875   1.922   5.485
 7570TIP3    H222668   4.792   1.798   5.511
 7571TIP3   OH222669   2.868   2.087   6.651
 7571TIP3    H122670   2.873   2.073   6.746
 7571TIP3    H222671   2.844   2.002   6.616
 7572TIP3   OH222672   0.184   4.865   4.108
 7572TIP3    H122673   0.279   4.869   4.097
 7572TIP3    H222674   0.152   4.824   4.028
 7573TIP3   OH222675   5.742   6.223   1.924
 7573TIP3    H122676   5.651   6.241   1.947
 7573TIP3    H222677   5.760   6.283   1.852
 7574TIP3   OH222678   0.369   4.187   0.705
 7574TIP3    H122679   0.464   4.187   0.711
 7574TIP3    H222680   0.339   4.140   0.782
 7575TIP3   OH222681   7.143   1.867   5.977
 7575TIP3    H122682   7.078   1.797   5.987
 7575TIP3    H222683   7.105   1.925   5.910
 7576TIP3   OH222684   1.005   5.492   3.237
 7576TIP3    H122685   1.012   5.472   3.330
 7576TIP3    H222686   1.093   5.520   3.211
 7577TIP3   OH222687   6.542   7.392   4.199
 7577TIP3    H122688   6.524   7.300   4.216
 7577TIP3    H222689   6.561   7.430   4.285
 7578TIP3   OH222690   2.607   4.731   2.044
 7578TIP3    H122691   2.517   4.762   2.045
 7578TIP3    H222692   2.611   4.665   2.113
 7579TIP3   OH222693   7.764   0.382   4.771
 7579TIP3    H122694   7.769   0.478   4.775
 7579TIP3    H222695   7.845   0.356   4.727
 7580TIP3   OH222696   7.377   7.204   4.724
 7580TIP3    H122697   7.294   7.207   4.676
 7580TIP3    H222698   7.353   7.227   4.813
 7581TIP3   OH222699   6.109   3.897   3.568
 7581TIP3    H122700   6.141   3.919   3.481
 7581TIP3    H222701   6.186   3.867   3.615
 7582TIP3   OH222702   7.819   4.830   2.804
 7582TIP3    H122703   7.888   4.850   2.867
 7582TIP3    H222704   7.764   4.908   2.803
 7583TIP3   OH222705   1.927   3.567   1.225
 7583TIP3    H122706   1.898   3.498   1.165
 7583TIP3    H222707   2.022   3.563   1.221
 7584TIP3   OH222708   2.421   1.969   3.752
 7584TIP3    H122709   2.467   1.928   3.825
 7584TIP3    H222710   2.359   1.902   3.722
 7585TIP3   OH222711   4.877   5.234   0.949
 7585TIP3    H122712   4.924   5.155   0.977
 7585TIP3    H222713   4.791   5.225   0.989
 7586TIP3   OH222714   3.598   6.246   3.698
 7586TIP3    H122715   3.650   6.272   3.774
 7586TIP3    H222716   3.663   6.221   3.632
 7587TIP3   OH222717   5.920   0.042   5.354
 7587TIP3    H122718   5.858   0.114   5.361
 7587TIP3    H222719   5.883  -0.014   5.286
 7588TIP3   OH222720   6.091   1.178   5.155
 7588TIP3    H122721   6.166   1.126   5.126
 7588TIP3    H222722   6.042   1.119   5.212
 7589TIP3   OH222723   3.328   1.814   6.714
 7589TIP3    H122724   3.353   1.784   6.802
 7589TIP3    H222725   3.285   1.899   6.729
 7590TIP3   OH222726   7.847   2.494   5.210
 7590TIP3    H122727   7.799   2.458   5.284
 7590TIP3    H222728   7.788   2.482   5.135
 7591TIP3   OH222729   6.472   4.868   2.615
 7591TIP3    H122730   6.476   4.783   2.570
 7591TIP3    H222731   6.382   4.898   2.601
 7592TIP3   OH222732   7.588   4.545   6.643
 7592TIP3    H122733   7.517   4.497   6.601
 7592TIP3    H222734   7.561   4.636   6.640
 7593TIP3   OH222735   6.557   4.403   6.284
 7593TIP3    H122736   6.612   4.481   6.282
 7593TIP3    H222737   6.469   4.435   6.263
 7594TIP3   OH222738   0.918   7.446   5.267
 7594TIP3    H122739   0.869   7.523   5.297
 7594TIP3    H222740   0.852   7.376   5.264
 7595TIP3   OH222741   8.087   7.276   2.597
 7595TIP3    H122742   8.164   7.295   2.651
 7595TIP3    H222743   8.121   7.223   2.525
 7596TIP3   OH222744   4.061   1.527   2.530
 7596TIP3    H122745   3.990   1.565   2.477
 7596TIP3    H222746   4.089   1.598   2.587
 7597TIP3   OH222747   1.968   1.980   0.028
 7597TIP3    H122748   1.975   1.900   0.079
 7597TIP3    H222749   1.961   1.950  -0.063
 7598TIP3   OH222750   6.089   5.468   6.404
 7598TIP3    H122751   6.100   5.548   6.455
 7598TIP3    H222752   6.067   5.401   6.469
 7599TIP3   OH222753   0.729   4.662   2.151
 7599TIP3    H122754   0.773   4.584   2.185
 7599TIP3    H222755   0.678   4.695   2.225
 7600TIP3   OH222756   6.777   4.166   4.421
 7600TIP3    H122757   6.790   4.161   4.326
 7600TIP3    H222758   6.864   4.188   4.456
 7601TIP3   OH222759   7.169   1.224   2.745
 7601TIP3    H122760   7.200   1.314   2.743
 7601TIP3    H222761   7.074   1.231   2.752
 7602TIP3   OH222762   5.982   5.602   5.538
 7602TIP3    H122763   6.012   5.587   5.448
 7602TIP3    H222764   5.903   5.549   5.546
 7603TIP3   OH222765   0.947   0.688   4.081
 7603TIP3    H122766   0.872   0.743   4.059
 7603TIP3    H222767   0.991   0.672   3.998
 7604TIP3   OH222768   5.628   7.294   5.509
 7604TIP3    H122769   5.561   7.236   5.473
 7604TIP3    H222770   5.610   7.379   5.471
 7605TIP3   OH222771   2.203   3.325   4.286
 7605TIP3    H122772   2.216   3.323   4.191
 7605TIP3    H222773   2.227   3.414   4.311
 7606TIP3   OH222774   2.099   5.722   1.208
 7606TIP3    H122775   2.140   5.677   1.282
 7606TIP3    H222776   2.010   5.687   1.205
 7607TIP3   OH222777   5.352   7.235   0.022
 7607TIP3    H122778   5.369   7.293   0.095
 7607TIP3    H222779   5.386   7.282  -0.055
 7608TIP3   OH222780   7.642   3.983   2.183
 7608TIP3    H122781   7.672   4.042   2.115
 7608TIP3    H222782   7.720   3.933   2.209
 7609TIP3   OH222783   6.844   4.889   2.350
 7609TIP3    H122784   6.939   4.882   2.348
 7609TIP3    H222785   6.827   4.979   2.377
 7610TIP3   OH222786   1.268   5.549   3.195
 7610TIP3    H122787   1.299   5.567   3.284
 7610TIP3    H222788   1.336   5.493   3.157
 7611TIP3   OH222789   6.742   4.546   3.374
 7611TIP3    H122790   6.790   4.628   3.368
 7611TIP3    H222791   6.799   4.481   3.333
 7612TIP3   OH222792   8.031   2.871   2.594
 7612TIP3    H122793   8.063   2.840   2.678
 7612TIP3    H222794   7.941   2.838   2.589
 7613TIP3   OH222795   4.569   1.930   6.077
 7613TIP3    H122796   4.568   1.850   6.129
 7613TIP3    H222797   4.552   2.000   6.140
 7614TIP3   OH222798   1.103   0.244   6.068
 7614TIP3    H122799   1.015   0.276   6.046
 7614TIP3    H222800   1.088   0.176   6.133
 7615TIP3   OH222801   2.238   5.843   0.047
 7615TIP3    H122802   2.304   5.900   0.085
 7615TIP3    H222803   2.157   5.866   0.093
 7616TIP3   OH222804   8.166   4.205   0.269
 7616TIP3    H122805   8.260   4.198   0.250
 7616TIP3    H222806   8.162   4.216   0.364
 7617TIP3   OH222807   3.921   3.164   0.666
 7617TIP3    H122808   3.887   3.087   0.713
 7617TIP3    H222809   4.013   3.144   0.652
 7618TIP3   OH222810   2.405   3.025   4.524
 7618TIP3    H122811   2.464   3.064   4.459
 7618TIP3    H222812   2.336   3.090   4.537
 7619TIP3   OH222813   6.364   5.974   5.709
 7619TIP3    H122814   6.336   6.043   5.649
 7619TIP3    H222815   6.333   5.893   5.668
 7620TIP3   OH222816   3.730   3.108   6.309
 7620TIP3    H122817   3.694   3.153   6.386
 7620TIP3    H222818   3.666   3.039   6.290
 7621TIP3   OH222819   0.143   4.944   5.391
 7621TIP3    H122820   0.138   5.039   5.401
 7621TIP3    H222821   0.057   4.913   5.419
 7622TIP3   OH222822   7.137   1.607   5.791
 7622TIP3    H122823   7.193   1.538   5.756
 7622TIP3    H222824   7.134   1.673   5.722
 7623TIP3   OH222825   5.269   7.790   4.518
 7623TIP3    H122826   5.226   7.753   4.441
 7623TIP3    H222827   5.353   7.822   4.485
 7624TIP3   OH222828   5.389   4.365   2.774
 7624TIP3    H122829   5.389   4.314   2.855
 7624TIP3    H222830   5.479   4.362   2.743
 7625TIP3   OH222831   7.373   5.752   3.025
 7625TIP3    H122832   7.299   5.724   2.971
 7625TIP3    H222833   7.446   5.757   2.963
 7626TIP3   OH222834   2.597   6.301   3.086
 7626TIP3    H122835   2.646   6.336   3.011
 7626TIP3    H222836   2.508   6.336   3.074
 7627TIP3   OH222837   6.343   6.664   1.256
 7627TIP3    H122838   6.277   6.646   1.323
 7627TIP3    H222839   6.341   6.760   1.247
 7628TIP3   OH222840   5.717   0.420   4.924
 7628TIP3    H122841   5.645   0.370   4.963
 7628TIP3    H222842   5.688   0.438   4.835
 7629TIP3   OH222843   2.661   0.072   6.613
 7629TIP3    H122844   2.619   0.156   6.596
 7629TIP3    H222845   2.632   0.049   6.702
 7630TIP3   OH222846   7.466   5.249   2.752
 7630TIP3    H122847   7.533   5.278   2.690
 7630TIP3    H222848   7.419   5.329   2.774
 7631TIP3   OH222849   3.433   3.110   6.041
 7631TIP3    H122850   3.422   3.137   5.950
 7631TIP3    H222851   3.386   3.176   6.092
 7632TIP3   OH222852   3.109   1.480   3.316
 7632TIP3    H122853   3.058   1.400   3.326
 7632TIP3    H222854   3.046   1.551   3.325
 7633TIP3   OH222855   7.445   0.207   4.982
 7633TIP3    H122856   7.487   0.137   4.931
 7633TIP3    H222857   7.508   0.227   5.051
 7634TIP3   OH222858   4.805   5.802   2.269
 7634TIP3    H122859   4.896   5.821   2.247
 7634TIP3    H222860   4.791   5.713   2.238
 7635TIP3   OH222861   3.035   7.082   0.594
 7635TIP3    H122862   3.115   7.043   0.557
 7635TIP3    H222863   3.013   7.024   0.668
 7636TIP3   OH222864   0.687   0.992   2.381
 7636TIP3    H122865   0.661   0.958   2.466
 7636TIP3    H222866   0.715   1.082   2.399
 7637TIP3   OH222867   5.858   6.530   1.279
 7637TIP3    H122868   5.843   6.599   1.344
 7637TIP3    H222869   5.818   6.452   1.319
 7638TIP3   OH222870   6.227   4.741   0.552
 7638TIP3    H122871   6.138   4.772   0.537
 7638TIP3    H222872   6.229   4.716   0.644
 7639TIP3   OH222873   5.743   5.757   0.891
 7639TIP3    H122874   5.679   5.797   0.832
 7639TIP3    H222875   5.691   5.698   0.947
 7640TIP3   OH222876   6.167   4.046   1.745
 7640TIP3    H122877   6.255   4.026   1.713
 7640TIP3    H222878   6.164   4.008   1.833
 7641TIP3   OH222879   1.243   3.835   4.613
 7641TIP3    H122880   1.291   3.828   4.695
 7641TIP3    H222881   1.293   3.899   4.561
 7642TIP3   OH222882   1.299   2.858   4.874
 7642TIP3    H122883   1.222   2.914   4.873
 7642TIP3    H222884   1.373   2.919   4.875
 7643TIP3   OH222885   7.486   3.514   0.520
 7643TIP3    H122886   7.550   3.582   0.499
 7643TIP3    H222887   7.401   3.555   0.504
 7644TIP3   OH222888   3.787   1.357   1.510
 7644TIP3    H122889   3.783   1.311   1.594
 7644TIP3    H222890   3.743   1.440   1.525
 7645TIP3   OH222891   4.765   3.899   0.621
 7645TIP3    H122892   4.684   3.855   0.595
 7645TIP3    H222893   4.805   3.927   0.539
 7646TIP3   OH222894   2.916   5.071   0.437
 7646TIP3    H122895   2.920   4.977   0.454
 7646TIP3    H222896   2.882   5.078   0.348
 7647TIP3   OH222897   3.889   3.400   6.169
 7647TIP3    H122898   3.984   3.402   6.179
 7647TIP3    H222899   3.856   3.372   6.254
 7648TIP3   OH222900   1.217   0.344   6.613
 7648TIP3    H122901   1.267   0.279   6.661
 7648TIP3    H222902   1.154   0.378   6.677
 7649TIP3   OH222903   7.243   6.869   5.281
 7649TIP3    H122904   7.324   6.819   5.290
 7649TIP3    H222905   7.249   6.936   5.350
 7650TIP3   OH222906   5.071   3.831   5.660
 7650TIP3    H122907   5.164   3.853   5.674
 7650TIP3    H222908   5.032   3.837   5.747
 7651TIP3   OH222909   7.810   1.480   6.702
 7651TIP3    H122910   7.853   1.510   6.622
 7651TIP3    H222911   7.873   1.419   6.741
 7652TIP3   OH222912   2.340   4.555   1.082
 7652TIP3    H122913   2.300   4.614   1.146
 7652TIP3    H222914   2.371   4.481   1.134
 7653TIP3   OH222915   1.325   1.179   5.250
 7653TIP3    H122916   1.379   1.196   5.173
 7653TIP3    H222917   1.313   1.265   5.291
 7654TIP3   OH222918   4.150   6.171   4.973
 7654TIP3    H122919   4.089   6.098   4.964
 7654TIP3    H222920   4.179   6.167   5.064
 7655TIP3   OH222921   3.942   6.994   1.769
 7655TIP3    H122922   3.854   7.019   1.741
 7655TIP3    H222923   3.992   7.075   1.767
 7656TIP3   OH222924   1.320   0.921   3.659
 7656TIP3    H122925   1.320   0.876   3.575
 7656TIP3    H222926   1.326   1.014   3.636
 7657TIP3   OH222927   0.637   3.711   0.394
 7657TIP3    H122928   0.635   3.722   0.489
 7657TIP3    H222929   0.695   3.779   0.363
 7658TIP3   OH222930   5.065   1.270   0.123
 7658TIP3    H122931   5.076   1.361   0.150
 7658TIP3    H222932   5.090   1.269   0.030
 7659TIP3   OH222933   0.725   4.357   1.252
 7659TIP3    H122934   0.707   4.339   1.160
 7659TIP3    H222935   0.812   4.397   1.252
 7660TIP3   OH222936   7.099   4.996   1.834
 7660TIP3    H122937   7.057   4.967   1.915
 7660TIP3    H222938   7.027   5.005   1.772
 7661TIP3   OH222939   1.062   5.774   4.689
 7661TIP3    H122940   1.072   5.783   4.594
 7661TIP3    H222941   1.002   5.844   4.713
 7662TIP3   OH222942   4.153   0.208   3.897
 7662TIP3    H122943   4.087   0.167   3.953
 7662TIP3    H222944   4.168   0.294   3.938
 7663TIP3   OH222945   7.293   0.405   6.509
 7663TIP3    H122946   7.265   0.341   6.575
 7663TIP3    H222947   7.340   0.472   6.559
 7664TIP3   OH222948   5.018   7.556   2.877
 7664TIP3    H122949   5.019   7.471   2.921
 7664TIP3    H222950   5.004   7.619   2.948
 7665TIP3   OH222951   3.805   4.719   0.367
 7665TIP3    H122952   3.834   4.735   0.457
 7665TIP3    H222953   3.852   4.784   0.314
 7666TIP3   OH222954   1.248   4.092   3.533
 7666TIP3    H122955   1.170   4.039   3.545
 7666TIP3    H222956   1.255   4.104   3.439
 7667TIP3   OH222957   6.409   2.615   5.016
 7667TIP3    H122958   6.390   2.539   4.961
 7667TIP3    H222959   6.348   2.682   4.987
 7668TIP3   OH222960   1.697   6.318   2.664
 7668TIP3    H122961   1.696   6.359   2.578
 7668TIP3    H222962   1.751   6.375   2.718
 7669TIP3   OH222963   4.440   5.306   6.541
 7669TIP3    H122964   4.451   5.222   6.497
 7669TIP3    H222965   4.384   5.357   6.482
 7670TIP3   OH222966   4.707   0.709   4.270
 7670TIP3    H122967   4.718   0.693   4.364
 7670TIP3    H222968   4.662   0.793   4.265
 7671TIP3   OH222969   4.377   0.236   4.400
 7671TIP3    H122970   4.396   0.196   4.315
 7671TIP3    H222971   4.319   0.310   4.379
 7672TIP3   OH222972   1.267   3.367   4.574
 7672TIP3    H122973   1.209   3.351   4.648
 7672TIP3    H222974   1.208   3.395   4.504
 7673TIP3   OH222975   6.007   2.690   4.122
 7673TIP3    H122976   5.929   2.740   4.096
 7673TIP3    H222977   6.042   2.655   4.041
 7674TIP3   OH222978   5.295   6.363   4.909
 7674TIP3    H122979   5.221   6.313   4.874
 7674TIP3    H222980   5.354   6.296   4.945
 7675TIP3   OH222981   7.462   3.354   1.574
 7675TIP3    H122982   7.479   3.303   1.495
 7675TIP3    H222983   7.545   3.400   1.591
 7676TIP3   OH222984   1.033   3.818   5.406
 7676TIP3    H122985   1.033   3.798   5.313
 7676TIP3    H222986   1.119   3.857   5.422
 7677TIP3   OH222987   1.704   5.255   4.870
 7677TIP3    H122988   1.773   5.281   4.932
 7677TIP3    H222989   1.694   5.331   4.813
 7678TIP3   OH222990   5.011   7.536   2.591
 7678TIP3    H122991   4.987   7.548   2.682
 7678TIP3    H222992   5.098   7.498   2.594
 7679TIP3   OH222993   0.065   6.864   4.261
 7679TIP3    H122994   0.087   6.817   4.181
 7679TIP3    H222995   0.012   6.803   4.311
 7680TIP3   OH222996   3.277   2.546   0.358
 7680TIP3    H122997   3.291   2.638   0.380
 7680TIP3    H222998   3.364   2.513   0.334
 7681TIP3   OH222999   1.700   2.183   2.508
 7681TIP3    H123000   1.656   2.103   2.537
 7681TIP3    H223001   1.793   2.164   2.517
 7682TIP3   OH223002   2.910   0.327   5.102
 7682TIP3    H123003   2.873   0.399   5.153
 7682TIP3    H223004   2.837   0.267   5.089
 7683TIP3   OH223005   7.728   6.340   0.766
 7683TIP3    H123006   7.724   6.311   0.857
 7683TIP3    H223007   7.791   6.412   0.766
 7684TIP3   OH223008   6.622   6.675   0.316
 7684TIP3    H123009   6.599   6.750   0.371
 7684TIP3    H223010   6.587   6.599   0.362
 7685TIP3   OH223011   4.654   2.075   2.356
 7685TIP3    H123012   4.619   2.133   2.288
 7685TIP3    H223013   4.720   2.022   2.311
 7686TIP3   OH223014   4.662   5.603   1.702
 7686TIP3    H123015   4.623   5.682   1.740
 7686TIP3    H223016   4.691   5.631   1.615
 7687TIP3   OH223017   5.621   6.027   0.934
 7687TIP3    H123018   5.684   5.993   0.871
 7687TIP3    H223019   5.674   6.070   1.001
 7688TIP3   OH223020   4.896   6.669   4.710
 7688TIP3    H123021   4.877   6.582   4.746
 7688TIP3    H223022   4.991   6.672   4.703
 7689TIP3   OH223023   4.868   2.939   6.504
 7689TIP3    H123024   4.785   2.972   6.540
 7689TIP3    H223025   4.905   2.887   6.574
 7690TIP3   OH223026   6.496   2.983   2.084
 7690TIP3    H123027   6.482   2.907   2.141
 7690TIP3    H223028   6.470   2.952   1.997
 7691TIP3   OH223029   5.318   6.430   0.910
 7691TIP3    H123030   5.227   6.460   0.912
 7691TIP3    H223031   5.321   6.369   0.837
 7692TIP3   OH223032   7.927   7.619   3.059
 7692TIP3    H123033   7.905   7.526   3.069
 7692TIP3    H223034   7.948   7.629   2.966
 7693TIP3   OH223035   0.791   5.538   0.884
 7693TIP3    H123036   0.882   5.562   0.899
 7693TIP3    H223037   0.794   5.444   0.864
 7694TIP3   OH223038   0.986   3.790   3.972
 7694TIP3    H123039   1.039   3.810   4.049
 7694TIP3    H223040   1.050   3.778   3.902
 7695TIP3   OH223041   1.756   2.948   5.597
 7695TIP3    H123042   1.779   2.980   5.510
 7695TIP3    H223043   1.708   2.867   5.581
 7696TIP3   OH223044   5.520   2.428   1.418
 7696TIP3    H123045   5.486   2.517   1.424
 7696TIP3    H223046   5.492   2.397   1.332
 7697TIP3   OH223047   8.170   2.571   3.647
 7697TIP3    H123048   8.238   2.536   3.589
 7697TIP3    H223049   8.206   2.653   3.680
 7698TIP3   OH223050   2.946   7.151   3.089
 7698TIP3    H123051   2.974   7.063   3.065
 7698TIP3    H223052   2.951   7.152   3.185
 7699TIP3   OH223053   7.494   3.520   5.859
 7699TIP3    H123054   7.569   3.559   5.904
 7699TIP3    H223055   7.434   3.593   5.844
 7700TIP3   OH223056   6.896   5.592   2.258
 7700TIP3    H123057   6.897   5.672   2.205
 7700TIP3    H223058   6.982   5.590   2.300
 7701TIP3   OH223059   7.245   1.189   4.497
 7701TIP3    H123060   7.279   1.126   4.560
 7701TIP3    H223061   7.150   1.181   4.504
 7702TIP3   OH223062   6.912   2.299   5.651
 7702TIP3    H123063   6.985   2.238   5.640
 7702TIP3    H223064   6.952   2.378   5.685
 7703TIP3   OH223065   0.307   1.087   1.485
 7703TIP3    H123066   0.296   1.154   1.552
 7703TIP3    H223067   0.398   1.094   1.457
 7704TIP3   OH223068   0.965   0.464   5.875
 7704TIP3    H123069   0.962   0.488   5.967
 7704TIP3    H223070   0.923   0.378   5.871
 7705TIP3   OH223071   0.940   5.013   0.276
 7705TIP3    H123072   0.859   4.961   0.265
 7705TIP3    H223073   0.909   5.097   0.310
 7706TIP3   OH223074   5.502   4.037   3.263
 7706TIP3    H123075   5.546   4.047   3.179
 7706TIP3    H223076   5.545   3.962   3.304
 7707TIP3   OH223077   4.755   0.617   3.021
 7707TIP3    H123078   4.835   0.654   3.059
 7707TIP3    H223079   4.756   0.525   3.050
 7708TIP3   OH223080   7.849   1.242   4.673
 7708TIP3    H123081   7.850   1.333   4.702
 7708TIP3    H223082   7.941   1.218   4.662
 7709TIP3   OH223083   0.202   5.496   4.509
 7709TIP3    H123084   0.156   5.424   4.465
 7709TIP3    H223085   0.174   5.491   4.600
 7710TIP3   OH223086   5.692   3.863   3.452
 7710TIP3    H123087   5.612   3.823   3.487
 7710TIP3    H223088   5.734   3.903   3.528
 7711TIP3   OH223089   0.761   0.551   3.364
 7711TIP3    H123090   0.681   0.597   3.340
 7711TIP3    H223091   0.805   0.532   3.281
 7712TIP3   OH223092   2.526   3.450   0.916
 7712TIP3    H123093   2.534   3.393   0.839
 7712TIP3    H223094   2.496   3.534   0.881
 7713TIP3   OH223095   7.412   1.092   4.186
 7713TIP3    H123096   7.350   1.164   4.199
 7713TIP3    H223097   7.495   1.135   4.169
 7714TIP3   OH223098   6.278   3.355   5.779
 7714TIP3    H123099   6.352   3.297   5.792
 7714TIP3    H223100   6.317   3.439   5.754
 7715TIP3   OH223101   2.442   0.276   2.606
 7715TIP3    H123102   2.365   0.330   2.587
 7715TIP3    H223103   2.515   0.325   2.569
 7716TIP3   OH223104   1.852   2.861   4.179
 7716TIP3    H123105   1.924   2.854   4.116
 7716TIP3    H223106   1.791   2.791   4.154
 7717TIP3   OH223107   6.217   1.460   3.308
 7717TIP3    H123108   6.271   1.390   3.271
 7717TIP3    H223109   6.161   1.416   3.372
 7718TIP3   OH223110   3.238   0.313   5.677
 7718TIP3    H123111   3.160   0.365   5.659
 7718TIP3    H223112   3.243   0.310   5.773
 7719TIP3   OH223113   3.874   3.210   1.097
 7719TIP3    H123114   3.860   3.115   1.101
 7719TIP3    H223115   3.959   3.220   1.054
 7720TIP3   OH223116   0.520   5.190   5.951
 7720TIP3    H123117   0.457   5.258   5.926
 7720TIP3    H223118   0.521   5.129   5.877
 7721TIP3   OH223119   6.840   6.739   5.546
 7721TIP3    H123120   6.786   6.730   5.468
 7721TIP3    H223121   6.929   6.718   5.517
 7722TIP3   OH223122   3.515   4.591   3.286
 7722TIP3    H123123   3.430   4.553   3.262
 7722TIP3    H223124   3.579   4.534   3.243
 7723TIP3   OH223125   2.537   6.249   6.371
 7723TIP3    H123126   2.542   6.302   6.451
 7723TIP3    H223127   2.444   6.230   6.361
 7724TIP3   OH223128   0.908   4.262   5.919
 7724TIP3    H123129   0.917   4.264   6.014
 7724TIP3    H223130   0.853   4.187   5.901
 7725TIP3   OH223131   0.341   3.642   2.934
 7725TIP3    H123132   0.426   3.676   2.961
 7725TIP3    H223133   0.348   3.632   2.839
 7726TIP3   OH223134   7.091   5.314   5.012
 7726TIP3    H123135   7.013   5.262   5.031
 7726TIP3    H223136   7.062   5.405   5.024
 7727TIP3   OH223137   5.559   6.639   3.333
 7727TIP3    H123138   5.565   6.721   3.382
 7727TIP3    H223139   5.629   6.585   3.368
 7728TIP3   OH223140   0.674   3.838   5.133
 7728TIP3    H123141   0.619   3.903   5.177
 7728TIP3    H223142   0.616   3.764   5.116
 7729TIP3   OH223143   7.044   2.304   1.990
 7729TIP3    H123144   7.031   2.348   1.906
 7729TIP3    H223145   7.132   2.266   1.984
 7730TIP3   OH223146   4.572   6.837   4.901
 7730TIP3    H123147   4.559   6.750   4.938
 7730TIP3    H223148   4.492   6.853   4.849
 7731TIP3   OH223149   2.441   0.805   0.863
 7731TIP3    H123150   2.438   0.872   0.932
 7731TIP3    H223151   2.505   0.839   0.801
 7732TIP3   OH223152   0.447   5.389   1.968
 7732TIP3    H123153   0.396   5.412   2.046
 7732TIP3    H223154   0.398   5.428   1.895
 7733TIP3   OH223155   7.296   1.402   5.285
 7733TIP3    H123156   7.378   1.444   5.309
 7733TIP3    H223157   7.309   1.373   5.195
 7734TIP3   OH223158   5.599   5.256   2.336
 7734TIP3    H123159   5.509   5.287   2.348
 7734TIP3    H223160   5.595   5.163   2.355
 7735TIP3   OH223161   2.538   2.326   1.257
 7735TIP3    H123162   2.571   2.290   1.340
 7735TIP3    H223163   2.614   2.327   1.199
 7736TIP3   OH223164   5.912   6.141   1.709
 7736TIP3    H123165   5.991   6.191   1.693
 7736TIP3    H223166   5.841   6.205   1.704
 7737TIP3   OH223167   2.339   2.381   2.845
 7737TIP3    H123168   2.253   2.351   2.872
 7737TIP3    H223169   2.324   2.467   2.806
 7738TIP3   OH223170   6.698   0.993   1.815
 7738TIP3    H123171   6.744   0.953   1.889
 7738TIP3    H223172   6.682   1.083   1.842
 7739TIP3   OH223173   0.117   6.287   5.862
 7739TIP3    H123174   0.027   6.277   5.830
 7739TIP3    H223175   0.106   6.327   5.948
 7740TIP3   OH223176   3.234   2.618   0.661
 7740TIP3    H123177   3.245   2.712   0.648
 7740TIP3    H223178   3.185   2.610   0.743
 7741TIP3   OH223179   4.654   7.658   3.556
 7741TIP3    H123180   4.600   7.737   3.552
 7741TIP3    H223181   4.730   7.678   3.503
 7742TIP3   OH223182   6.695   3.652   4.345
 7742TIP3    H123183   6.754   3.583   4.316
 7742TIP3    H223184   6.699   3.718   4.276
 7743TIP3   OH223185   1.831   4.513   6.079
 7743TIP3    H123186   1.876   4.432   6.103
 7743TIP3    H223187   1.789   4.494   5.995
 7744TIP3   OH223188   1.848   7.460   0.184
 7744TIP3    H123189   1.834   7.551   0.210
 7744TIP3    H223190   1.911   7.466   0.112
 7745TIP3   OH223191   1.205   4.709   1.969
 7745TIP3    H123192   1.119   4.737   2.002
 7745TIP3    H223193   1.267   4.748   2.030
 7746TIP3   OH223194   4.887   3.909   2.634
 7746TIP3    H123195   4.863   3.890   2.544
 7746TIP3    H223196   4.959   3.972   2.628
 7747TIP3   OH223197   1.271   7.355   2.539
 7747TIP3    H123198   1.259   7.260   2.544
 7747TIP3    H223199   1.337   7.366   2.471
 7748TIP3   OH223200   0.894   1.344   5.945
 7748TIP3    H123201   0.880   1.367   6.037
 7748TIP3    H223202   0.934   1.257   5.947
 7749TIP3   OH223203   4.110   0.173   6.336
 7749TIP3    H123204   4.147   0.116   6.403
 7749TIP3    H223205   4.138   0.133   6.253
 7750TIP3   OH223206   0.880   1.745   4.806
 7750TIP3    H123207   0.832   1.720   4.727
 7750TIP3    H223208   0.815   1.749   4.875
 7751TIP3   OH223209   1.289   1.672   6.727
 7751TIP3    H123210   1.292   1.763   6.696
 7751TIP3    H223211   1.239   1.626   6.660
 7752TIP3   OH223212   7.837   6.417   1.632
 7752TIP3    H123213   7.851   6.472   1.709
 7752TIP3    H223214   7.863   6.329   1.661
 7753TIP3   OH223215   4.883   3.662   0.800
 7753TIP3    H123216   4.824   3.736   0.786
 7753TIP3    H223217   4.971   3.699   0.799
 7754TIP3   OH223218   6.099   1.654   6.123
 7754TIP3    H123219   6.101   1.699   6.207
 7754TIP3    H223220   6.065   1.567   6.144
 7755TIP3   OH223221   0.668   2.661  -0.019
 7755TIP3    H123222   0.721   2.671   0.060
 7755TIP3    H223223   0.583   2.697   0.004
 7756TIP3   OH223224   3.535   5.002   6.717
 7756TIP3    H123225   3.615   4.958   6.747
 7756TIP3    H223226   3.486   5.018   6.798
 7757TIP3   OH223227   0.980   5.891   3.209
 7757TIP3    H123228   0.995   5.939   3.128
 7757TIP3    H223229   0.950   5.804   3.181
 7758TIP3   OH223230   2.622   1.971   2.690
 7758TIP3    H123231   2.634   1.884   2.727
 7758TIP3    H223232   2.700   2.020   2.718
 7759TIP3   OH223233   2.284   5.692   4.944
 7759TIP3    H123234   2.376   5.718   4.953
 7759TIP3    H223235   2.263   5.648   5.027
 7760TIP3   OH223236   8.179   0.443   4.462
 7760TIP3    H123237   8.217   0.531   4.469
 7760TIP3    H223238   8.161   0.418   4.552
 7761TIP3   OH223239   5.069   3.194   2.881
 7761TIP3    H123240   5.111   3.275   2.910
 7761TIP3    H223241   5.127   3.160   2.813
 7762TIP3   OH223242   3.498   3.297   5.450
 7762TIP3    H123243   3.440   3.358   5.496
 7762TIP3    H223244   3.522   3.233   5.516
 7763TIP3   OH223245   3.460   1.539   2.733
 7763TIP3    H123246   3.419   1.470   2.786
 7763TIP3    H223247   3.448   1.618   2.785
 7764TIP3   OH223248   8.096   0.619   5.019
 7764TIP3    H123249   8.050   0.641   5.100
 7764TIP3    H223250   8.135   0.533   5.035
 7765TIP3   OH223251   6.791   6.198   0.198
 7765TIP3    H123252   6.802   6.175   0.290
 7765TIP3    H223253   6.832   6.126   0.150
 7766TIP3   OH223254   6.233   3.841   1.956
 7766TIP3    H123255   6.208   3.793   1.877
 7766TIP3    H223256   6.286   3.780   2.007
 7767TIP3   OH223257   7.025   5.849   4.138
 7767TIP3    H123258   7.082   5.818   4.067
 7767TIP3    H223259   7.031   5.781   4.205
 7768TIP3   OH223260   6.992   3.279   1.860
 7768TIP3    H123261   6.933   3.264   1.786
 7768TIP3    H223262   7.074   3.309   1.820
 7769TIP3   OH223263   3.127   4.905   4.622
 7769TIP3    H123264   3.213   4.949   4.630
 7769TIP3    H223265   3.106   4.877   4.711
 7770TIP3   OH223266   1.850   7.573   6.531
 7770TIP3    H123267   1.868   7.568   6.625
 7770TIP3    H223268   1.783   7.506   6.516
 7771TIP3   OH223269   2.899   0.312   3.711
 7771TIP3    H123270   2.822   0.256   3.721
 7771TIP3    H223271   2.917   0.313   3.617
 7772TIP3   OH223272   2.388   0.004   2.474
 7772TIP3    H123273   2.366   0.065   2.544
 7772TIP3    H223274   2.311   0.002   2.417
 7773TIP3   OH223275   1.049   7.652   4.477
 7773TIP3    H123276   1.067   7.725   4.536
 7773TIP3    H223277   0.975   7.607   4.517
 7774TIP3   OH223278   6.497   5.463   5.528
 7774TIP3    H123279   6.514   5.371   5.506
 7774TIP3    H223280   6.575   5.510   5.499
 7775TIP3   OH223281   6.261   5.955   2.619
 7775TIP3    H123282   6.175   5.970   2.658
 7775TIP3    H223283   6.244   5.894   2.547
 7776TIP3   OH223284   4.290   5.520   0.321
 7776TIP3    H123285   4.201   5.534   0.291
 7776TIP3    H223286   4.329   5.462   0.256
 7777TIP3   OH223287   3.114   4.823   3.041
 7777TIP3    H123288   3.081   4.781   2.962
 7777TIP3    H223289   3.206   4.843   3.021
 7778TIP3   OH223290   1.819   5.999   0.434
 7778TIP3    H123291   1.901   5.991   0.483
 7778TIP3    H223292   1.781   6.082   0.464
 7779TIP3   OH223293   2.992   7.158   3.360
 7779TIP3    H123294   3.060   7.090   3.361
 7779TIP3    H223295   3.034   7.235   3.399
 7780TIP3   OH223296   4.189   4.814   5.096
 7780TIP3    H123297   4.107   4.844   5.058
 7780TIP3    H223298   4.246   4.797   5.021
 7781TIP3   OH223299   0.554   1.270   3.122
 7781TIP3    H123300   0.537   1.264   3.215
 7781TIP3    H223301   0.598   1.188   3.100
 7782TIP3   OH223302   4.856   2.116   6.207
 7782TIP3    H123303   4.947   2.141   6.225
 7782TIP3    H223304   4.852   2.107   6.112
 7783TIP3   OH223305   2.111   1.866   6.423
 7783TIP3    H123306   2.076   1.926   6.489
 7783TIP3    H223307   2.088   1.907   6.339
 7784TIP3   OH223308   7.675   6.211   1.535
 7784TIP3    H123309   7.734   6.277   1.569
 7784TIP3    H223310   7.615   6.192   1.607
 7785TIP3   OH223311   7.925   0.611   0.246
 7785TIP3    H123312   7.990   0.679   0.228
 7785TIP3    H223313   7.918   0.562   0.164
 7786TIP3   OH223314   0.294   0.126   4.977
 7786TIP3    H123315   0.251   0.040   4.970
 7786TIP3    H223316   0.386   0.108   4.961
 7787TIP3   OH223317   7.683   7.663   1.812
 7787TIP3    H123318   7.607   7.695   1.765
 7787TIP3    H223319   7.737   7.741   1.827
 7788TIP3   OH223320   6.250   1.492   0.388
 7788TIP3    H123321   6.185   1.551   0.350
 7788TIP3    H223322   6.247   1.511   0.482
 7789TIP3   OH223323   1.532   3.005   3.636
 7789TIP3    H123324   1.502   2.946   3.567
 7789TIP3    H223325   1.616   3.039   3.604
 7790TIP3   OH223326   1.040   6.384   1.548
 7790TIP3    H123327   1.053   6.478   1.549
 7790TIP3    H223328   1.037   6.358   1.640
 7791TIP3   OH223329   7.168   0.798   3.777
 7791TIP3    H123330   7.145   0.866   3.840
 7791TIP3    H223331   7.255   0.822   3.746
 7792TIP3   OH223332   4.335   6.739   2.645
 7792TIP3    H123333   4.403   6.672   2.653
 7792TIP3    H223334   4.300   6.728   2.557
 7793TIP3   OH223335   2.236   3.976   4.386
 7793TIP3    H123336   2.279   3.894   4.362
 7793TIP3    H223337   2.145   3.952   4.400
 7794TIP3   OH223338   5.327   5.279   5.158
 7794TIP3    H123339   5.319   5.188   5.127
 7794TIP3    H223340   5.415   5.305   5.133
 7795TIP3   OH223341   1.430   0.777   1.728
 7795TIP3    H123342   1.374   0.703   1.749
 7795TIP3    H223343   1.512   0.738   1.699
 7796TIP3   OH223344   7.475   4.099   0.491
 7796TIP3    H123345   7.380   4.089   0.496
 7796TIP3    H223346   7.502   4.041   0.419
 7797TIP3   OH223347   2.836   7.248   1.906
 7797TIP3    H123348   2.925   7.274   1.884
 7797TIP3    H223349   2.825   7.162   1.867
 7798TIP3   OH223350   4.890   0.834   2.070
 7798TIP3    H123351   4.926   0.922   2.079
 7798TIP3    H223352   4.797   0.848   2.050
 7799TIP3   OH223353   0.710   4.630   1.848
 7799TIP3    H123354   0.698   4.668   1.936
 7799TIP3    H223355   0.695   4.704   1.789
 7800TIP3   OH223356   2.369   2.161   1.920
 7800TIP3    H123357   2.279   2.142   1.891
 7800TIP3    H223358   2.419   2.170   1.839
 7801TIP3   OH223359   3.004   5.713   4.376
 7801TIP3    H123360   3.052   5.779   4.426
 7801TIP3    H223361   3.063   5.638   4.373
 7802TIP3   OH223362   5.521   1.660   6.031
 7802TIP3    H123363   5.492   1.719   5.961
 7802TIP3    H223364   5.532   1.575   5.987
 7803TIP3   OH223365   5.361   6.959   1.862
 7803TIP3    H123366   5.426   6.900   1.825
 7803TIP3    H223367   5.280   6.908   1.866
 7804TIP3   OH223368   2.335   5.468   5.152
 7804TIP3    H123369   2.361   5.523   5.226
 7804TIP3    H223370   2.317   5.383   5.191
 7805TIP3   OH223371   0.707   1.124   6.204
 7805TIP3    H123372   0.751   1.160   6.281
 7805TIP3    H223373   0.777   1.108   6.141
 7806TIP3   OH223374   2.322   7.698   6.030
 7806TIP3    H123375   2.273   7.737   5.958
 7806TIP3    H223376   2.408   7.741   6.027
 7807TIP3   OH223377   2.429   4.138   4.992
 7807TIP3    H123378   2.440   4.152   5.086
 7807TIP3    H223379   2.404   4.223   4.957
 7808TIP3   OH223380   2.967   1.112   2.387
 7808TIP3    H123381   2.889   1.067   2.355
 7808TIP3    H223382   2.967   1.196   2.340
 7809TIP3   OH223383   6.972   4.191   5.775
 7809TIP3    H123384   6.905   4.259   5.776
 7809TIP3    H223385   6.974   4.158   5.864
 7810TIP3   OH223386   1.933   3.486   2.860
 7810TIP3    H123387   1.959   3.549   2.793
 7810TIP3    H223388   1.854   3.444   2.825
 7811TIP3   OH223389   5.363   1.494   4.503
 7811TIP3    H123390   5.449   1.536   4.494
 7811TIP3    H223391   5.380   1.401   4.496
 7812TIP3   OH223392   5.688   3.871   4.387
 7812TIP3    H123393   5.647   3.815   4.454
 7812TIP3    H223394   5.781   3.871   4.410
 7813TIP3   OH223395   0.787   7.663   6.258
 7813TIP3    H123396   0.766   7.722   6.186
 7813TIP3    H223397   0.746   7.703   6.335
 7814TIP3   OH223398   1.980   1.388   6.285
 7814TIP3    H123399   1.917   1.406   6.214
 7814TIP3    H223400   2.022   1.472   6.301
 7815TIP3   OH223401   6.299   2.119   2.991
 7815TIP3    H123402   6.205   2.101   2.994
 7815TIP3    H223403   6.329   2.080   2.908
 7816TIP3   OH223404   6.366   6.671   2.318
 7816TIP3    H123405   6.336   6.600   2.261
 7816TIP3    H223406   6.449   6.640   2.352
 7817TIP3   OH223407   7.733   0.782   2.620
 7817TIP3    H123408   7.808   0.726   2.598
 7817TIP3    H223409   7.767   0.871   2.614
 7818TIP3   OH223410   7.365   4.357   4.250
 7818TIP3    H123411   7.421   4.383   4.324
 7818TIP3    H223412   7.418   4.373   4.173
 7819TIP3   OH223413   3.809   4.579   3.489
 7819TIP3    H123414   3.761   4.650   3.532
 7819TIP3    H223415   3.810   4.605   3.396
 7820TIP3   OH223416   7.858   7.689   3.632
 7820TIP3    H123417   7.786   7.673   3.571
 7820TIP3    H223418   7.885   7.601   3.659
 7821TIP3   OH223419   1.530   3.829   0.156
 7821TIP3    H123420   1.581   3.755   0.189
 7821TIP3    H223421   1.592   3.902   0.152
 7822TIP3   OH223422   5.665   6.748   2.680
 7822TIP3    H123423   5.753   6.779   2.703
 7822TIP3    H223424   5.639   6.693   2.754
 7823TIP3   OH223425   6.632   4.653   2.754
 7823TIP3    H123426   6.680   4.667   2.672
 7823TIP3    H223427   6.631   4.739   2.796
 7824TIP3   OH223428   8.031   0.571   4.767
 7824TIP3    H123429   8.052   0.604   4.854
 7824TIP3    H223430   8.024   0.476   4.778
 7825TIP3   OH223431   5.969   0.797   1.886
 7825TIP3    H123432   5.878   0.775   1.869
 7825TIP3    H223433   5.975   0.810   1.981
 7826TIP3   OH223434   0.719   2.900   5.712
 7826TIP3    H123435   0.765   2.984   5.700
 7826TIP3    H223436   0.637   2.911   5.664
 7827TIP3   OH223437   6.454   3.463   1.554
 7827TIP3    H123438   6.375   3.411   1.541
 7827TIP3    H223439   6.502   3.454   1.472
 7828TIP3   OH223440   3.664   3.567   3.739
 7828TIP3    H123441   3.755   3.535   3.745
 7828TIP3    H223442   3.629   3.524   3.661
 7829TIP3   OH223443   1.901   1.515   4.290
 7829TIP3    H123444   1.842   1.586   4.267
 7829TIP3    H223445   1.978   1.528   4.235
 7830TIP3   OH223446   4.174   0.553   1.154
 7830TIP3    H123447   4.176   0.647   1.171
 7830TIP3    H223448   4.195   0.545   1.061
 7831TIP3   OH223449   1.084   0.404   4.734
 7831TIP3    H123450   1.166   0.400   4.783
 7831TIP3    H223451   1.068   0.314   4.706
 7832TIP3   OH223452   2.789   1.901   0.175
 7832TIP3    H123453   2.700   1.932   0.189
 7832TIP3    H223454   2.836   1.925   0.255
 7833TIP3   OH223455   4.809   0.995   3.926
 7833TIP3    H123456   4.879   1.019   3.987
 7833TIP3    H223457   4.749   1.069   3.927
 7834TIP3   OH223458   1.679   3.360   0.820
 7834TIP3    H123459   1.744   3.295   0.793
 7834TIP3    H223460   1.621   3.369   0.744
 7835TIP3   OH223461   2.214   2.206   6.503
 7835TIP3    H123462   2.235   2.281   6.447
 7835TIP3    H223463   2.286   2.201   6.565
 7836TIP3   OH223464   3.324   1.883   1.595
 7836TIP3    H123465   3.412   1.891   1.558
 7836TIP3    H223466   3.325   1.942   1.671
 7837TIP3   OH223467   3.320   4.179   3.358
 7837TIP3    H123468   3.411   4.180   3.387
 7837TIP3    H223469   3.320   4.127   3.278
 7838TIP3   OH223470   2.812   7.093   3.951
 7838TIP3    H123471   2.775   7.051   3.873
 7838TIP3    H223472   2.858   7.170   3.918
 7839TIP3   OH223473   3.197   5.928   4.091
 7839TIP3    H123474   3.114   5.917   4.137
 7839TIP3    H223475   3.225   5.839   4.069
 7840TIP3   OH223476   2.750   3.123   5.187
 7840TIP3    H123477   2.684   3.162   5.130
 7840TIP3    H223478   2.824   3.183   5.183
 7841TIP3   OH223479   0.178   1.045   1.845
 7841TIP3    H123480   0.118   1.004   1.907
 7841TIP3    H223481   0.211   1.122   1.891
 7842TIP3   OH223482   5.415   6.442   5.578
 7842TIP3    H123483   5.374   6.433   5.492
 7842TIP3    H223484   5.466   6.362   5.589
 7843TIP3   OH223485   8.051   4.675   3.339
 7843TIP3    H123486   8.131   4.645   3.383
 7843TIP3    H223487   8.072   4.669   3.245
 7844TIP3   OH223488   4.852   3.499   6.285
 7844TIP3    H123489   4.779   3.520   6.343
 7844TIP3    H223490   4.924   3.475   6.343
 7845TIP3   OH223491   7.360   7.539   5.831
 7845TIP3    H123492   7.310   7.458   5.843
 7845TIP3    H223493   7.449   7.516   5.857
 7846TIP3   OH223494   2.739   4.077   5.575
 7846TIP3    H123495   2.742   4.155   5.519
 7846TIP3    H223496   2.648   4.072   5.605
 7847TIP3   OH223497   2.738   3.453   5.447
 7847TIP3    H123498   2.763   3.390   5.514
 7847TIP3    H223499   2.642   3.457   5.453
 7848TIP3   OH223500   2.074   0.737   3.250
 7848TIP3    H123501   2.066   0.658   3.195
 7848TIP3    H223502   2.165   0.765   3.237
 7849TIP3   OH223503   5.954   6.253   2.564
 7849TIP3    H123504   6.049   6.258   2.551
 7849TIP3    H223505   5.919   6.324   2.510
 7850TIP3   OH223506   1.434   1.962   2.763
 7850TIP3    H123507   1.428   1.866   2.764
 7850TIP3    H223508   1.438   1.987   2.855
 7851TIP3   OH223509   8.291   5.586   3.952
 7851TIP3    H123510   8.231   5.528   3.998
 7851TIP3    H223511   8.235   5.657   3.919
 7852TIP3   OH223512   0.674   5.952   1.664
 7852TIP3    H123513   0.739   5.976   1.598
 7852TIP3    H223514   0.608   5.902   1.616
 7853TIP3   OH223515   1.097   4.900   1.559
 7853TIP3    H123516   1.021   4.850   1.588
 7853TIP3    H223517   1.171   4.842   1.574
 7854TIP3   OH223518   7.602   1.888   0.013
 7854TIP3    H123519   7.675   1.827  -0.001
 7854TIP3    H223520   7.524   1.832   0.011
 7855TIP3   OH223521   0.401   3.780   0.258
 7855TIP3    H123522   0.388   3.691   0.291
 7855TIP3    H223523   0.491   3.801   0.281
 7856TIP3   OH223524   3.010   6.559   1.765
 7856TIP3    H123525   3.021   6.644   1.808
 7856TIP3    H223526   3.086   6.508   1.794
 7857TIP3   OH223527   5.741   7.155   1.132
 7857TIP3    H123528   5.813   7.194   1.082
 7857TIP3    H223529   5.737   7.206   1.212
 7858TIP3   OH223530   1.774   4.806   4.675
 7858TIP3    H123531   1.774   4.847   4.589
 7858TIP3    H223532   1.802   4.875   4.735
 7859TIP3   OH223533   4.840   4.494   5.570
 7859TIP3    H123534   4.883   4.432   5.511
 7859TIP3    H223535   4.776   4.539   5.514
 7860TIP3   OH223536   2.008   6.605   1.785
 7860TIP3    H123537   2.020   6.588   1.878
 7860TIP3    H223538   2.087   6.570   1.744
 7861TIP3   OH223539   5.116   2.539   4.148
 7861TIP3    H123540   5.055   2.494   4.089
 7861TIP3    H223541   5.117   2.485   4.227
 7862TIP3   OH223542   2.300   2.944   2.945
 7862TIP3    H123543   2.326   2.937   2.853
 7862TIP3    H223544   2.297   2.854   2.976
 7863TIP3   OH223545   0.820   5.833   1.895
 7863TIP3    H123546   0.888   5.900   1.908
 7863TIP3    H223547   0.760   5.872   1.832
 7864TIP3   OH223548   7.247   6.641   0.587
 7864TIP3    H123549   7.186   6.712   0.566
 7864TIP3    H223550   7.316   6.683   0.638
 7865TIP3   OH223551   3.756   5.621   0.941
 7865TIP3    H123552   3.683   5.678   0.916
 7865TIP3    H223553   3.832   5.679   0.942
 7866TIP3   OH223554   6.528   0.814   6.409
 7866TIP3    H123555   6.605   0.806   6.465
 7866TIP3    H223556   6.556   0.776   6.325
 7867TIP3   OH223557   3.008   0.572   1.830
 7867TIP3    H123558   3.048   0.485   1.818
 7867TIP3    H223559   2.991   0.602   1.741
 7868TIP3   OH223560   4.536   1.097   5.216
 7868TIP3    H123561   4.492   1.078   5.134
 7868TIP3    H223562   4.488   1.171   5.253
 7869TIP3   OH223563   1.969   4.871   1.228
 7869TIP3    H123564   1.998   4.806   1.164
 7869TIP3    H223565   1.899   4.919   1.184
 7870TIP3   OH223566   0.931   4.354   5.643
 7870TIP3    H123567   0.914   4.303   5.723
 7870TIP3    H223568   0.873   4.315   5.578
 7871TIP3   OH223569   4.757   5.908   5.811
 7871TIP3    H123570   4.754   5.819   5.846
 7871TIP3    H223571   4.825   5.952   5.863
 7872TIP3   OH223572   7.351   4.242   6.142
 7872TIP3    H123573   7.378   4.154   6.115
 7872TIP3    H223574   7.277   4.227   6.201
 7873TIP3   OH223575   5.806   7.004   5.656
 7873TIP3    H123576   5.825   6.918   5.694
 7873TIP3    H223577   5.769   7.054   5.728
 7874TIP3   OH223578   7.001   3.504   0.029
 7874TIP3    H123579   7.041   3.570   0.085
 7874TIP3    H223580   6.998   3.545  -0.058
 7875TIP3   OH223581   3.535   1.538   6.471
 7875TIP3    H123582   3.616   1.537   6.421
 7875TIP3    H223583   3.516   1.631   6.484
 7876TIP3   OH223584   1.568   7.312   6.155
 7876TIP3    H123585   1.603   7.399   6.173
 7876TIP3    H223586   1.484   7.310   6.201
 7877TIP3   OH223587   0.811   0.070   3.225
 7877TIP3    H123588   0.751   0.106   3.290
 7877TIP3    H223589   0.757   0.008   3.174
 7878TIP3   OH223590   0.203   7.052   3.998
 7878TIP3    H123591   0.124   7.099   4.025
 7878TIP3    H223592   0.254   7.117   3.951
 7879TIP3   OH223593   5.818   5.472   2.008
 7879TIP3    H123594   5.816   5.488   1.914
 7879TIP3    H223595   5.812   5.377   2.017
 7880TIP3   OH223596   6.550   7.279   5.399
 7880TIP3    H123597   6.629   7.298   5.349
 7880TIP3    H223598   6.483   7.260   5.333
 7881TIP3   OH223599   3.301   1.355   5.501
 7881TIP3    H123600   3.267   1.398   5.422
 7881TIP3    H223601   3.351   1.280   5.467
 7882TIP3   OH223602   5.569   6.767   1.427
 7882TIP3    H123603   5.541   6.840   1.373
 7882TIP3    H223604   5.663   6.781   1.439
 7883TIP3   OH223605   5.531   7.391   2.683
 7883TIP3    H123606   5.539   7.371   2.590
 7883TIP3    H223607   5.612   7.437   2.705
 7884TIP3   OH223608   7.919   2.858   3.523
 7884TIP3    H123609   7.881   2.852   3.435
 7884TIP3    H223610   7.985   2.926   3.516
 7885TIP3   OH223611   2.523   7.618   4.092
 7885TIP3    H123612   2.557   7.535   4.058
 7885TIP3    H223613   2.584   7.684   4.059
 7886TIP3   OH223614   1.299   7.486   2.776
 7886TIP3    H123615   1.304   7.432   2.697
 7886TIP3    H223616   1.359   7.445   2.837
 7887TIP3   OH223617   4.894   2.217   0.396
 7887TIP3    H123618   4.958   2.160   0.353
 7887TIP3    H223619   4.890   2.294   0.339
 7888TIP3   OH223620   7.198   4.330   4.967
 7888TIP3    H123621   7.245   4.413   4.972
 7888TIP3    H223622   7.257   4.266   5.007
 7889TIP3   OH223623   3.444   5.016   2.435
 7889TIP3    H123624   3.514   5.006   2.371
 7889TIP3    H223625   3.481   5.074   2.502
 7890TIP3   OH223626   0.544   0.963   6.058
 7890TIP3    H123627   0.582   1.029   6.116
 7890TIP3    H223628   0.545   1.003   5.971
 7891TIP3   OH223629   5.722   5.372   0.966
 7891TIP3    H123630   5.743   5.333   1.050
 7891TIP3    H223631   5.672   5.451   0.987
 7892TIP3   OH223632   6.275   2.492   1.846
 7892TIP3    H123633   6.241   2.529   1.928
 7892TIP3    H223634   6.206   2.508   1.782
 7893TIP3   OH223635   6.189   7.136   6.355
 7893TIP3    H123636   6.256   7.088   6.305
 7893TIP3    H223637   6.106   7.103   6.321
 7894TIP3   OH223638   3.108   3.756   2.914
 7894TIP3    H123639   3.051   3.686   2.946
 7894TIP3    H223640   3.088   3.763   2.820
 7895TIP3   OH223641   5.529   3.060   0.075
 7895TIP3    H123642   5.458   3.006   0.108
 7895TIP3    H223643   5.517   3.061  -0.020
 7896TIP3   OH223644   1.914   7.265   6.442
 7896TIP3    H123645   1.822   7.286   6.428
 7896TIP3    H223646   1.926   7.272   6.537
 7897TIP3   OH223647   2.741   5.698   4.435
 7897TIP3    H123648   2.835   5.689   4.419
 7897TIP3    H223649   2.703   5.716   4.349
 7898TIP3   OH223650   3.009   4.567   1.171
 7898TIP3    H123651   3.048   4.481   1.187
 7898TIP3    H223652   2.918   4.549   1.147
 7899TIP3   OH223653   4.421   4.886   4.405
 7899TIP3    H123654   4.342   4.839   4.378
 7899TIP3    H223655   4.463   4.827   4.469
 7900TIP3   OH223656   7.182   6.673   6.252
 7900TIP3    H123657   7.275   6.655   6.241
 7900TIP3    H223658   7.179   6.745   6.315
 7901TIP3   OH223659   5.015   7.737   5.678
 7901TIP3    H123660   4.957   7.807   5.648
 7901TIP3    H223661   5.103   7.766   5.652
 7902TIP3   OH223662   5.215   7.808   6.287
 7902TIP3    H123663   5.241   7.747   6.357
 7902TIP3    H223664   5.133   7.772   6.254
 7903TIP3   OH223665   0.526   4.414   4.253
 7903TIP3    H123666   0.547   4.443   4.342
 7903TIP3    H223667   0.458   4.475   4.224
 7904TIP3   OH223668   2.080   6.847   1.649
 7904TIP3    H123669   2.174   6.845   1.633
 7904TIP3    H223670   2.065   6.781   1.717
 7905TIP3   OH223671   4.958   1.683   2.224
 7905TIP3    H123672   4.989   1.724   2.305
 7905TIP3    H223673   5.027   1.699   2.160
 7906TIP3   OH223674   1.900   0.687   6.206
 7906TIP3    H123675   1.954   0.613   6.177
 7906TIP3    H223676   1.961   0.744   6.252
 7907TIP3   OH223677   3.818   2.527   3.496
 7907TIP3    H123678   3.888   2.508   3.434
 7907TIP3    H223679   3.767   2.596   3.455
 7908TIP3   OH223680   5.455   4.600   4.222
 7908TIP3    H123681   5.399   4.632   4.151
 7908TIP3    H223682   5.488   4.679   4.264
 7909TIP3   OH223683   0.360   1.497   4.191
 7909TIP3    H123684   0.390   1.426   4.247
 7909TIP3    H223685   0.426   1.566   4.204
 7910TIP3   OH223686   5.973   1.412   0.122
 7910TIP3    H123687   5.928   1.337   0.084
 7910TIP3    H223688   6.004   1.381   0.207
 7911TIP3   OH223689   7.546   0.707   2.815
 7911TIP3    H123690   7.615   0.747   2.763
 7911TIP3    H223691   7.591   0.640   2.867
 7912TIP3   OH223692   7.638   1.334   5.894
 7912TIP3    H123693   7.614   1.409   5.949
 7912TIP3    H223694   7.727   1.313   5.921
 7913TIP3   OH223695   5.275   6.370   3.014
 7913TIP3    H123696   5.300   6.408   3.098
 7913TIP3    H223697   5.272   6.276   3.031
 7914TIP3   OH223698   4.229   6.625   5.654
 7914TIP3    H123699   4.257   6.703   5.701
 7914TIP3    H223700   4.290   6.557   5.682
 7915TIP3   OH223701   8.098   2.362   6.371
 7915TIP3    H123702   8.157   2.291   6.347
 7915TIP3    H223703   8.010   2.329   6.350
 7916TIP3   OH223704   6.561   0.380   3.822
 7916TIP3    H123705   6.615   0.375   3.901
 7916TIP3    H223706   6.619   0.415   3.755
 7917TIP3   OH223707   6.035   1.232   4.872
 7917TIP3    H123708   6.074   1.319   4.871
 7917TIP3    H223709   6.031   1.208   4.965
 7918TIP3   OH223710   7.037   3.502   3.687
 7918TIP3    H123711   6.950   3.523   3.719
 7918TIP3    H223712   7.022   3.447   3.610
 7919TIP3   OH223713   5.654   4.360   6.714
 7919TIP3    H123714   5.571   4.391   6.751
 7919TIP3    H223715   5.721   4.412   6.759
 7920TIP3   OH223716   5.428   0.887   4.829
 7920TIP3    H123717   5.416   0.804   4.783
 7920TIP3    H223718   5.340   0.911   4.859
 7921TIP3   OH223719   1.457   0.630   0.710
 7921TIP3    H123720   1.524   0.562   0.701
 7921TIP3    H223721   1.488   0.686   0.781
 7922TIP3   OH223722   6.864   2.894   2.685
 7922TIP3    H123723   6.828   2.953   2.751
 7922TIP3    H223724   6.926   2.947   2.635
 7923TIP3   OH223725   0.649   0.695   5.297
 7923TIP3    H123726   0.618   0.785   5.285
 7923TIP3    H223727   0.578   0.652   5.345
 7924TIP3   OH223728   0.238   0.319   1.685
 7924TIP3    H123729   0.292   0.281   1.754
 7924TIP3    H223730   0.171   0.369   1.732
 7925TIP3   OH223731   2.305   2.163   5.306
 7925TIP3    H123732   2.392   2.201   5.320
 7925TIP3    H223733   2.291   2.171   5.211
 7926TIP3   OH223734   4.964   1.348   1.704
 7926TIP3    H123735   4.971   1.357   1.609
 7926TIP3    H223736   5.045   1.305   1.730
 7927TIP3   OH223737   7.988   4.245   1.502
 7927TIP3    H123738   7.927   4.173   1.520
 7927TIP3    H223739   8.062   4.229   1.561
 7928TIP3   OH223740   7.895   6.860   3.503
 7928TIP3    H123741   7.819   6.828   3.454
 7928TIP3    H223742   7.962   6.875   3.436
 7929TIP3   OH223743   6.938   2.966   0.350
 7929TIP3    H123744   6.975   2.954   0.263
 7929TIP3    H223745   6.984   3.043   0.385
 7930TIP3   OH223746   2.411   0.014   5.278
 7930TIP3    H123747   2.318   0.021   5.302
 7930TIP3    H223748   2.422   0.078   5.208
 7931TIP3   OH223749   3.016   2.615   1.872
 7931TIP3    H123750   3.081   2.601   1.941
 7931TIP3    H223751   2.963   2.689   1.903
 7932TIP3   OH223752   7.483   0.822   4.675
 7932TIP3    H123753   7.459   0.792   4.587
 7932TIP3    H223754   7.548   0.890   4.660
 7933TIP3   OH223755   3.202   6.941   5.257
 7933TIP3    H123756   3.177   6.962   5.347
 7933TIP3    H223757   3.174   7.016   5.205
 7934TIP3   OH223758   4.210   4.586   4.569
 7934TIP3    H123759   4.269   4.536   4.513
 7934TIP3    H223760   4.125   4.544   4.557
 7935TIP3   OH223761   0.730   3.252   3.868
 7935TIP3    H123762   0.685   3.174   3.900
 7935TIP3    H223763   0.798   3.269   3.933
 7936TIP3   OH223764   7.401   4.218   0.767
 7936TIP3    H123765   7.424   4.214   0.860
 7936TIP3    H223766   7.476   4.260   0.725
 7937TIP3   OH223767   0.529   3.788   3.074
 7937TIP3    H123768   0.606   3.838   3.099
 7937TIP3    H223769   0.529   3.713   3.135
 7938TIP3   OH223770   7.247   6.680   3.858
 7938TIP3    H123771   7.182   6.611   3.847
 7938TIP3    H223772   7.205   6.758   3.820
 7939TIP3   OH223773   4.077   0.864   3.114
 7939TIP3    H123774   4.131   0.936   3.082
 7939TIP3    H223775   3.987   0.891   3.095
 7940TIP3   OH223776   2.247   1.543   2.593
 7940TIP3    H123777   2.225   1.573   2.681
 7940TIP3    H223778   2.195   1.464   2.581
 7941TIP3   OH223779   5.674   0.524   5.493
 7941TIP3    H123780   5.665   0.535   5.399
 7941TIP3    H223781   5.738   0.454   5.503
 7942TIP3   OH223782   3.566   2.694   2.356
 7942TIP3    H123783   3.555   2.605   2.392
 7942TIP3    H223784   3.528   2.751   2.423
 7943TIP3   OH223785   7.257   1.111   5.362
 7943TIP3    H123786   7.233   1.182   5.302
 7943TIP3    H223787   7.352   1.112   5.362
 7944TIP3   OH223788   5.315   6.497   1.360
 7944TIP3    H123789   5.236   6.460   1.321
 7944TIP3    H223790   5.358   6.543   1.288
 7945TIP3   OH223791   6.912   3.099   1.302
 7945TIP3    H123792   6.902   3.138   1.216
 7945TIP3    H223793   6.985   3.147   1.342
 7946TIP3   OH223794   6.674   7.657   3.098
 7946TIP3    H123795   6.708   7.726   3.041
 7946TIP3    H223796   6.704   7.680   3.185
 7947TIP3   OH223797   3.182   7.587   3.069
 7947TIP3    H123798   3.212   7.552   2.985
 7947TIP3    H223799   3.105   7.534   3.091
 7948TIP3   OH223800   7.130   1.408   0.368
 7948TIP3    H123801   7.207   1.392   0.314
 7948TIP3    H223802   7.163   1.410   0.457
 7949TIP3   OH223803   8.110   4.108   5.613
 7949TIP3    H123804   8.153   4.049   5.549
 7949TIP3    H223805   8.166   4.103   5.691
 7950TIP3   OH223806   3.455   0.002   5.810
 7950TIP3    H123807   3.513   0.075   5.832
 7950TIP3    H223808   3.384   0.008   5.874
 7951TIP3   OH223809   3.332   1.158   3.492
 7951TIP3    H123810   3.424   1.147   3.466
 7951TIP3    H223811   3.293   1.073   3.475
 7952TIP3   OH223812   0.129   6.304   2.067
 7952TIP3    H123813   0.143   6.283   2.160
 7952TIP3    H223814   0.184   6.242   2.020
 7953TIP3   OH223815   2.601   4.152   2.955
 7953TIP3    H123816   2.655   4.206   3.013
 7953TIP3    H223817   2.543   4.105   3.013
 7954TIP3   OH223818   7.446   5.668   2.109
 7954TIP3    H123819   7.483   5.608   2.174
 7954TIP3    H223820   7.523   5.707   2.067
 7955TIP3   OH223821   6.244   3.369   4.827
 7955TIP3    H123822   6.254   3.318   4.746
 7955TIP3    H223823   6.155   3.351   4.856
 7956TIP3   OH223824   5.857   5.842   6.019
 7956TIP3    H123825   5.870   5.812   6.109
 7956TIP3    H223826   5.940   5.884   5.996
 7957TIP3   OH223827   5.836   1.404   6.588
 7957TIP3    H123828   5.777   1.405   6.513
 7957TIP3    H223829   5.910   1.459   6.561
 7958TIP3   OH223830   0.909   6.487   4.948
 7958TIP3    H123831   0.854   6.410   4.935
 7958TIP3    H223832   0.871   6.555   4.892
 7959TIP3   OH223833   8.179   2.764   4.144
 7959TIP3    H123834   8.212   2.822   4.213
 7959TIP3    H223835   8.095   2.732   4.178
 7960TIP3   OH223836   5.087   0.067   2.517
 7960TIP3    H123837   5.074   0.148   2.567
 7960TIP3    H223838   5.067   0.091   2.427
 7961TIP3   OH223839   5.719   5.576   1.747
 7961TIP3    H123840   5.767   5.635   1.689
 7961TIP3    H223841   5.668   5.634   1.803
 7962TIP3   OH223842   2.625   3.067   2.394
 7962TIP3    H123843   2.653   3.127   2.464
 7962TIP3    H223844   2.626   2.981   2.435
 7963TIP3   OH223845   1.736   6.915   5.421
 7963TIP3    H123846   1.655   6.964   5.433
 7963TIP3    H223847   1.710   6.823   5.427
 7964TIP3   OH223848   3.485   5.209   2.667
 7964TIP3    H123849   3.417   5.270   2.695
 7964TIP3    H223850   3.449   5.122   2.688
 7965TIP3   OH223851   1.410   1.824   3.963
 7965TIP3    H123852   1.378   1.873   3.887
 7965TIP3    H223853   1.499   1.799   3.938
 7966TIP3   OH223854   4.438   1.837   5.399
 7966TIP3    H123855   4.488   1.773   5.350
 7966TIP3    H223856   4.479   1.840   5.485
 7967TIP3   OH223857   6.753   7.532   5.604
 7967TIP3    H123858   6.810   7.519   5.529
 7967TIP3    H223859   6.667   7.551   5.565
 7968TIP3   OH223860   5.136   0.270   6.659
 7968TIP3    H123861   5.047   0.254   6.690
 7968TIP3    H223862   5.190   0.213   6.713
 7969TIP3   OH223863   6.237   6.767   1.689
 7969TIP3    H123864   6.255   6.794   1.599
 7969TIP3    H223865   6.221   6.673   1.682
 7970TIP3   OH223866   7.024   1.856   5.323
 7970TIP3    H123867   7.058   1.945   5.315
 7970TIP3    H223868   6.940   1.867   5.368
 7971TIP3   OH223869   4.172   5.423   3.910
 7971TIP3    H123870   4.098   5.484   3.898
 7971TIP3    H223871   4.239   5.456   3.850
 7972TIP3   OH223872   4.247   5.661   4.055
 7972TIP3    H123873   4.200   5.579   4.041
 7972TIP3    H223874   4.296   5.646   4.136
 7973TIP3   OH223875   2.579   0.878   3.822
 7973TIP3    H123876   2.649   0.842   3.877
 7973TIP3    H223877   2.580   0.972   3.841
 7974TIP3   OH223878   7.464   1.998   6.051
 7974TIP3    H123879   7.424   2.039   5.974
 7974TIP3    H223880   7.395   1.943   6.088
 7975TIP3   OH223881   5.001   7.581   3.872
 7975TIP3    H123882   4.943   7.656   3.883
 7975TIP3    H223883   5.027   7.558   3.961
 7976TIP3   OH223884   4.129   4.908   2.013
 7976TIP3    H123885   4.111   4.859   1.932
 7976TIP3    H223886   4.043   4.931   2.047
 7977TIP3   OH223887   7.466   6.973   3.291
 7977TIP3    H123888   7.544   7.025   3.313
 7977TIP3    H223889   7.501   6.894   3.248
 7978TIP3   OH223890   3.172   5.745   1.484
 7978TIP3    H123891   3.159   5.810   1.415
 7978TIP3    H223892   3.122   5.778   1.559
 7979TIP3   OH223893   3.292   3.708   5.954
 7979TIP3    H123894   3.248   3.782   5.995
 7979TIP3    H223895   3.384   3.721   5.972
 7980TIP3   OH223896   7.087   5.144   1.439
 7980TIP3    H123897   7.041   5.180   1.514
 7980TIP3    H223898   7.171   5.114   1.475
 7981TIP3   OH223899   6.753   0.387   0.186
 7981TIP3    H123900   6.777   0.295   0.193
 7981TIP3    H223901   6.833   0.430   0.155
 7982TIP3   OH223902   1.805   6.491   0.453
 7982TIP3    H123903   1.864   6.530   0.518
 7982TIP3    H223904   1.834   6.401   0.445
 7983TIP3   OH223905   3.762   0.715   2.689
 7983TIP3    H123906   3.826   0.728   2.759
 7983TIP3    H223907   3.759   0.620   2.677
 7984TIP3   OH223908   5.522   1.350   1.957
 7984TIP3    H123909   5.563   1.391   2.033
 7984TIP3    H223910   5.576   1.379   1.882
 7985TIP3   OH223911   8.229   6.549   0.391
 7985TIP3    H123912   8.215   6.461   0.356
 7985TIP3    H223913   8.298   6.538   0.457
 7986TIP3   OH223914   0.165   4.813   0.494
 7986TIP3    H123915   0.125   4.755   0.429
 7986TIP3    H223916   0.229   4.863   0.445
 7987TIP3   OH223917   0.602   6.782   3.681
 7987TIP3    H123918   0.647   6.859   3.645
 7987TIP3    H223919   0.663   6.748   3.747
 7988TIP3   OH223920   5.864   6.377   6.523
 7988TIP3    H123921   5.828   6.289   6.511
 7988TIP3    H223922   5.947   6.376   6.474
 7989TIP3   OH223923   1.189   6.891   0.935
 7989TIP3    H123924   1.231   6.969   0.971
 7989TIP3    H223925   1.179   6.832   1.009
 7990TIP3   OH223926   8.131   2.538   2.458
 7990TIP3    H123927   8.095   2.578   2.378
 7990TIP3    H223928   8.070   2.468   2.479
 7991TIP3   OH223929   5.447   0.893   4.452
 7991TIP3    H123930   5.504   0.914   4.526
 7991TIP3    H223931   5.497   0.921   4.375
 7992TIP3   OH223932   7.702   7.685   5.055
 7992TIP3    H123933   7.646   7.685   4.978
 7992TIP3    H223934   7.664   7.751   5.113
 7993TIP3   OH223935   0.301   4.600   2.231
 7993TIP3    H123936   0.311   4.594   2.326
 7993TIP3    H223937   0.367   4.664   2.204
 7994TIP3   OH223938   7.969   1.323   0.950
 7994TIP3    H123939   7.903   1.374   0.997
 7994TIP3    H223940   7.925   1.242   0.926
 7995TIP3   OH223941   5.199   7.210   4.501
 7995TIP3    H123942   5.120   7.265   4.501
 7995TIP3    H223943   5.241   7.230   4.584
 7996TIP3   OH223944   8.196   1.496   0.003
 7996TIP3    H123945   8.183   1.479   0.096
 7996TIP3    H223946   8.290   1.492  -0.010
 7997TIP3   OH223947   1.886   1.912   0.925
 7997TIP3    H123948   1.833   1.930   1.003
 7997TIP3    H223949   1.975   1.905   0.957
 7998TIP3   OH223950   0.768   6.321   4.163
 7998TIP3    H123951   0.734   6.308   4.251
 7998TIP3    H223952   0.734   6.246   4.113
 7999TIP3   OH223953   0.309   0.108   4.543
 7999TIP3    H123954   0.288   0.029   4.493
 7999TIP3    H223955   0.250   0.104   4.619
 8000TIP3   OH223956   8.085   5.706   4.901
 8000TIP3    H123957   8.066   5.613   4.913
 8000TIP3    H223958   8.005   5.750   4.931
 8001TIP3   OH223959   0.204   6.190   3.164
 8001TIP3    H123960   0.261   6.131   3.115
 8001TIP3    H223961   0.237   6.277   3.146
 8002TIP3   OH223962   1.373   0.627   0.430
 8002TIP3    H123963   1.385   0.609   0.523
 8002TIP3    H223964   1.432   0.566   0.386
 8003TIP3   OH223965   1.443   1.285   4.561
 8003TIP3    H123966   1.483   1.287   4.648
 8003TIP3    H223967   1.425   1.377   4.541
 8004TIP3   OH223968   0.646   0.961   4.756
 8004TIP3    H123969   0.681   1.050   4.752
 8004TIP3    H223970   0.554   0.970   4.733
 8005TIP3   OH223971   0.081   0.763   1.428
 8005TIP3    H123972   0.007   0.706   1.411
 8005TIP3    H223973   0.043   0.838   1.474
 8006TIP3   OH223974   7.673   2.523   5.578
 8006TIP3    H123975   7.642   2.599   5.628
 8006TIP3    H223976   7.640   2.539   5.489
 8007TIP3   OH223977   7.865   4.622   3.566
 8007TIP3    H123978   7.909   4.648   3.485
 8007TIP3    H223979   7.904   4.538   3.589
 8008TIP3   OH223980   0.721   4.086   5.869
 8008TIP3    H123981   0.702   3.993   5.869
 8008TIP3    H223982   0.662   4.123   5.934
 8009TIP3   OH223983   7.534   3.507   4.495
 8009TIP3    H123984   7.537   3.552   4.411
 8009TIP3    H223985   7.624   3.508   4.527
 8010TIP3   OH223986   0.065   0.415   0.589
 8010TIP3    H123987   0.122   0.346   0.622
 8010TIP3    H223988   0.000   0.428   0.658
 8011TIP3   OH223989   3.775   2.675   3.747
 8011TIP3    H123990   3.798   2.617   3.673
 8011TIP3    H223991   3.696   2.720   3.719
 8012TIP3   OH223992   1.018   6.380   1.844
 8012TIP3    H123993   0.972   6.323   1.905
 8012TIP3    H223994   0.977   6.466   1.854
 8013TIP3   OH223995   8.242   3.900   5.517
 8013TIP3    H123996   8.298   3.948   5.457
 8013TIP3    H223997   8.290   3.820   5.537
 8014TIP3   OH223998   8.150   0.896   1.185
 8014TIP3    H123999   8.128   0.916   1.094
 8014TIP3    H224000   8.093   0.822   1.208
 8015TIP3   OH224001   6.128   6.099   2.227
 8015TIP3    H124002   6.094   6.133   2.144
 8015TIP3    H224003   6.136   6.005   2.213
 8016TIP3   OH224004   5.774   3.590   3.492
 8016TIP3    H124005   5.791   3.589   3.398
 8016TIP3    H224006   5.709   3.659   3.504
 8017TIP3   OH224007   0.656   7.566   0.865
 8017TIP3    H124008   0.691   7.515   0.792
 8017TIP3    H224009   0.722   7.557   0.934
 8018TIP3   OH224010   2.549   4.211   1.054
 8018TIP3    H124011   2.622   4.219   1.116
 8018TIP3    H224012   2.543   4.298   1.014
 8019TIP3   OH224013   0.163   6.532   2.607
 8019TIP3    H124014   0.100   6.530   2.536
 8019TIP3    H224015   0.139   6.458   2.663
 8020TIP3   OH224016   1.522   4.348   2.671
 8020TIP3    H124017   1.529   4.254   2.687
 8020TIP3    H224018   1.494   4.354   2.580
 8021TIP3   OH224019   4.574   3.195   5.031
 8021TIP3    H124020   4.659   3.239   5.028
 8021TIP3    H224021   4.517   3.248   4.976
 8022TIP3   OH224022   2.926   1.699   3.364
 8022TIP3    H124023   2.835   1.673   3.345
 8022TIP3    H224024   2.929   1.705   3.460
 8023TIP3   OH224025   6.688   0.820   5.277
 8023TIP3    H124026   6.658   0.812   5.187
 8023TIP3    H224027   6.638   0.894   5.312
 8024TIP3   OH224028   4.258   1.413   4.667
 8024TIP3    H124029   4.311   1.493   4.667
 8024TIP3    H224030   4.204   1.420   4.588
 8025TIP3   OH224031   5.518   1.755   2.641
 8025TIP3    H124032   5.470   1.673   2.650
 8025TIP3    H224033   5.496   1.787   2.554
 8026TIP3   OH224034   1.438   5.775   3.000
 8026TIP3    H124035   1.357   5.739   3.036
 8026TIP3    H224036   1.448   5.733   2.915
 8027TIP3   OH224037   0.873   1.256   2.130
 8027TIP3    H124038   0.928   1.209   2.192
 8027TIP3    H224039   0.840   1.332   2.178
 8028TIP3   OH224040   5.159   6.866   5.697
 8028TIP3    H124041   5.172   6.772   5.689
 8028TIP3    H224042   5.240   6.905   5.664
 8029TIP3   OH224043   6.826   1.406   2.112
 8029TIP3    H124044   6.805   1.363   2.195
 8029TIP3    H224045   6.770   1.484   2.111
 8030TIP3   OH224046   7.019   6.304   2.170
 8030TIP3    H124047   7.032   6.262   2.084
 8030TIP3    H224048   7.056   6.241   2.232
 8031TIP3   OH224049   4.273   5.013   1.229
 8031TIP3    H124050   4.357   5.007   1.183
 8031TIP3    H224051   4.210   5.038   1.162
 8032TIP3   OH224052   7.145   1.768   1.702
 8032TIP3    H124053   7.223   1.715   1.718
 8032TIP3    H224054   7.146   1.834   1.771
 8033TIP3   OH224055   2.025   2.358   4.066
 8033TIP3    H124056   1.983   2.420   4.008
 8033TIP3    H224057   2.077   2.412   4.126
 8034TIP3   OH224058   5.651   0.844   3.097
 8034TIP3    H124059   5.611   0.915   3.147
 8034TIP3    H224060   5.740   0.876   3.077
 8035TIP3   OH224061   0.604   4.315   0.633
 8035TIP3    H124062   0.551   4.389   0.602
 8035TIP3    H224063   0.690   4.353   0.652
 8036TIP3   OH224064   7.799   2.585   2.724
 8036TIP3    H124065   7.867   2.521   2.744
 8036TIP3    H224066   7.734   2.573   2.793
 8037TIP3   OH224067   2.183   2.497   4.995
 8037TIP3    H124068   2.194   2.408   5.028
 8037TIP3    H224069   2.146   2.545   5.069
 8038TIP3   OH224070   2.844   1.599   2.001
 8038TIP3    H124071   2.792   1.561   2.072
 8038TIP3    H224072   2.935   1.584   2.028
 8039TIP3   OH224073   0.730   4.274   2.726
 8039TIP3    H124074   0.694   4.361   2.746
 8039TIP3    H224075   0.699   4.219   2.797
 8040TIP3   OH224076   4.189   7.161   3.304
 8040TIP3    H124077   4.246   7.190   3.232
 8040TIP3    H224078   4.100   7.178   3.272
 8041TIP3   OH224079   6.389   4.260   6.518
 8041TIP3    H124080   6.410   4.285   6.428
 8041TIP3    H224081   6.439   4.180   6.533
 8042TIP3   OH224082   1.682   0.037   1.037
 8042TIP3    H124083   1.606   0.008   1.087
 8042TIP3    H224084   1.654   0.118   0.995
 8043TIP3   OH224085   6.414   7.470   1.915
 8043TIP3    H124086   6.337   7.438   1.962
 8043TIP3    H224087   6.379   7.504   1.833
 8044TIP3   OH224088   7.458   6.766   0.340
 8044TIP3    H124089   7.452   6.747   0.434
 8044TIP3    H224090   7.473   6.860   0.335
 8045TIP3   OH224091   3.528   7.320   3.833
 8045TIP3    H124092   3.458   7.381   3.808
 8045TIP3    H224093   3.493   7.274   3.910
 8046TIP3   OH224094   6.925   0.675   6.458
 8046TIP3    H124095   6.861   0.626   6.405
 8046TIP3    H224096   6.908   0.767   6.437
 8047TIP3   OH224097   5.345   2.108   2.341
 8047TIP3    H124098   5.262   2.147   2.368
 8047TIP3    H224099   5.329   2.078   2.251
 8048TIP3   OH224100   6.798   6.603   5.267
 8048TIP3    H124101   6.888   6.626   5.242
 8048TIP3    H224102   6.751   6.596   5.183
 8049TIP3   OH224103   3.422   2.152   1.277
 8049TIP3    H124104   3.415   2.244   1.302
 8049TIP3    H224105   3.516   2.137   1.268
 8050TIP3   OH224106   4.494   6.004   3.448
 8050TIP3    H124107   4.588   5.986   3.450
 8050TIP3    H224108   4.462   5.971   3.532
 8051TIP3   OH224109   1.038   0.028   3.904
 8051TIP3    H124110   1.000   0.062   3.823
 8051TIP3    H224111   1.063   0.106   3.953
 8052TIP3   OH224112   7.938   5.859   2.063
 8052TIP3    H124113   7.959   5.868   2.156
 8052TIP3    H224114   7.990   5.928   2.020
 8053TIP3   OH224115   2.738   0.140   4.865
 8053TIP3    H124116   2.815   0.141   4.808
 8053TIP3    H224117   2.667   0.172   4.810
 8054TIP3   OH224118   6.712   3.713   0.294
 8054TIP3    H124119   6.633   3.715   0.349
 8054TIP3    H224120   6.783   3.739   0.352
 8055TIP3   OH224121   7.280   3.862   4.072
 8055TIP3    H124122   7.313   3.884   3.985
 8055TIP3    H224123   7.276   3.766   4.072
 8056TIP3   OH224124   3.113   7.614   4.432
 8056TIP3    H124125   3.114   7.523   4.401
 8056TIP3    H224126   3.021   7.640   4.426
 8057TIP3   OH224127   7.156   0.132   6.167
 8057TIP3    H124128   7.120   0.044   6.161
 8057TIP3    H224129   7.247   0.122   6.138
 8058TIP3   OH224130   8.108   1.389   2.665
 8058TIP3    H124131   8.136   1.476   2.692
 8058TIP3    H224132   8.124   1.334   2.741
 8059TIP3   OH224133   3.549   5.996   3.476
 8059TIP3    H124134   3.606   5.923   3.452
 8059TIP3    H224135   3.609   6.067   3.499
 8060TIP3   OH224136   2.728   4.774   3.356
 8060TIP3    H124137   2.647   4.794   3.309
 8060TIP3    H224138   2.700   4.729   3.435
 8061TIP3   OH224139   0.853   3.074   0.032
 8061TIP3    H124140   0.876   3.102   0.121
 8061TIP3    H224141   0.760   3.054   0.037
 8062TIP3   OH224142   6.934   5.407   5.969
 8062TIP3    H124143   7.025   5.402   5.998
 8062TIP3    H224144   6.883   5.408   6.049
 8063TIP3   OH224145   2.618   5.900   1.622
 8063TIP3    H124146   2.650   5.977   1.670
 8063TIP3    H224147   2.537   5.929   1.580
 8064TIP3   OH224148   5.788   4.266   5.438
 8064TIP3    H124149   5.852   4.230   5.376
 8064TIP3    H224150   5.778   4.358   5.412
 8065TIP3   OH224151   5.160   2.858   0.627
 8065TIP3    H124152   5.173   2.951   0.646
 8065TIP3    H224153   5.141   2.854   0.534
 8066TIP3   OH224154   1.584   4.290   2.043
 8066TIP3    H124155   1.496   4.319   2.069
 8066TIP3    H224156   1.571   4.248   1.958
 8067TIP3   OH224157   2.724   3.378   1.563
 8067TIP3    H124158   2.736   3.427   1.645
 8067TIP3    H224159   2.697   3.291   1.592
 8068TIP3   OH224160   7.837   2.413   5.828
 8068TIP3    H124161   7.840   2.360   5.748
 8068TIP3    H224162   7.859   2.502   5.799
 8069TIP3   OH224163   0.400   7.740   4.452
 8069TIP3    H124164   0.441   7.684   4.387
 8069TIP3    H224165   0.340   7.795   4.403
 8070TIP3   OH224166   2.974   0.462   4.380
 8070TIP3    H124167   3.059   0.487   4.416
 8070TIP3    H224168   2.910   0.516   4.427
 8071TIP3   OH224169   5.622   3.269   5.471
 8071TIP3    H124170   5.595   3.178   5.482
 8071TIP3    H224171   5.550   3.320   5.509
 8072TIP3   OH224172   7.414   1.731   3.392
 8072TIP3    H124173   7.363   1.656   3.362
 8072TIP3    H224174   7.469   1.696   3.462
 8073TIP3   OH224175   6.425   5.080   0.299
 8073TIP3    H124176   6.376   5.122   0.369
 8073TIP3    H224177   6.442   4.991   0.332
 8074TIP3   OH224178   6.446   4.001   0.062
 8074TIP3    H124179   6.524   4.052   0.042
 8074TIP3    H224180   6.404   3.986  -0.023
 8075TIP3   OH224181   0.867   6.538   2.950
 8075TIP3    H124182   0.917   6.599   3.004
 8075TIP3    H224183   0.797   6.507   3.008
 8076TIP3   OH224184   4.800   5.663   1.406
 8076TIP3    H124185   4.844   5.578   1.406
 8076TIP3    H224186   4.822   5.702   1.321
 8077TIP3   OH224187   7.424   5.330   4.741
 8077TIP3    H124188   7.500   5.321   4.683
 8077TIP3    H224189   7.420   5.424   4.762
 8078TIP3   OH224190   3.341   2.630   3.884
 8078TIP3    H124191   3.366   2.543   3.852
 8078TIP3    H224192   3.402   2.648   3.956
 8079TIP3   OH224193   1.369   0.737   5.868
 8079TIP3    H124194   1.291   0.694   5.834
 8079TIP3    H224195   1.375   0.707   5.959
 8080TIP3   OH224196   5.903   7.294   2.543
 8080TIP3    H124197   5.841   7.367   2.552
 8080TIP3    H224198   5.869   7.227   2.603
 8081TIP3   OH224199   6.624   3.356   2.697
 8081TIP3    H124200   6.688   3.414   2.658
 8081TIP3    H224201   6.539   3.390   2.669
 8082TIP3   OH224202   0.701   3.116   0.365
 8082TIP3    H124203   0.642   3.128   0.291
 8082TIP3    H224204   0.684   3.192   0.422
 8083TIP3   OH224205   3.378   0.595   6.340
 8083TIP3    H124206   3.301   0.615   6.393
 8083TIP3    H224207   3.422   0.524   6.387
 8084TIP3   OH224208   5.761   4.337   1.937
 8084TIP3    H124209   5.796   4.273   1.999
 8084TIP3    H224210   5.689   4.292   1.893
 8085TIP3   OH224211   7.968   7.076   5.083
 8085TIP3    H124212   8.010   7.044   5.003
 8085TIP3    H224213   8.041   7.104   5.138
 8086TIP3   OH224214   3.460   1.608   4.909
 8086TIP3    H124215   3.379   1.657   4.924
 8086TIP3    H224216   3.447   1.565   4.825
 8087TIP3   OH224217   1.482   6.041   3.187
 8087TIP3    H124218   1.511   6.131   3.199
 8087TIP3    H224219   1.412   6.047   3.122
 8088TIP3   OH224220   3.036   0.475   2.977
 8088TIP3    H124221   2.987   0.551   3.007
 8088TIP3    H224222   3.127   0.504   2.977
 8089TIP3   OH224223   0.804   4.179   6.712
 8089TIP3    H124224   0.810   4.275   6.712
 8089TIP3    H224225   0.884   4.149   6.670
 8090TIP3   OH224226   3.943   7.231   4.020
 8090TIP3    H124227   3.979   7.157   4.068
 8090TIP3    H224228   3.856   7.245   4.058
 8091TIP3   OH224229   0.663   1.784   4.955
 8091TIP3    H124230   0.578   1.811   4.920
 8091TIP3    H224231   0.652   1.790   5.050
 8092TIP3   OH224232   7.545   0.331   2.641
 8092TIP3    H124233   7.624   0.360   2.595
 8092TIP3    H224234   7.579   0.291   2.722
 8093TIP3   OH224235   1.072   4.581   0.800
 8093TIP3    H124236   1.032   4.594   0.886
 8093TIP3    H224237   1.100   4.669   0.773
 8094TIP3   OH224238   8.270   0.854   5.093
 8094TIP3    H124239   8.346   0.825   5.042
 8094TIP3    H224240   8.195   0.811   5.052
 8095TIP3   OH224241   4.340   2.830   0.552
 8095TIP3    H124242   4.357   2.869   0.466
 8095TIP3    H224243   4.418   2.852   0.603
 8096TIP3   OH224244   0.083   0.999   5.624
 8096TIP3    H124245   0.057   0.995   5.532
 8096TIP3    H224246   0.085   1.093   5.644
 8097TIP3   OH224247   4.909   6.836   3.761
 8097TIP3    H124248   4.880   6.894   3.690
 8097TIP3    H224249   4.931   6.754   3.717
 8098TIP3   OH224250   3.289   4.607   4.785
 8098TIP3    H124251   3.279   4.665   4.861
 8098TIP3    H224252   3.383   4.587   4.783
 8099TIP3   OH224253   3.554   1.033   4.985
 8099TIP3    H124254   3.517   1.116   4.955
 8099TIP3    H224255   3.566   1.045   5.080
 8100TIP3   OH224256   0.709   0.532   0.587
 8100TIP3    H124257   0.689   0.518   0.494
 8100TIP3    H224258   0.795   0.573   0.587
 8101TIP3   OH224259   1.346   2.408   1.764
 8101TIP3    H124260   1.403   2.469   1.718
 8101TIP3    H224261   1.318   2.455   1.843
 8102TIP3   OH224262   1.930   5.191   3.595
 8102TIP3    H124263   1.990   5.251   3.551
 8102TIP3    H224264   1.889   5.142   3.523
 8103TIP3   OH224265   1.570   0.863   6.518
 8103TIP3    H124266   1.637   0.927   6.496
 8103TIP3    H224267   1.526   0.899   6.595
 8104TIP3   OH224268   3.993   3.843   0.494
 8104TIP3    H124269   3.923   3.783   0.468
 8104TIP3    H224270   3.973   3.865   0.585
 8105TIP3   OH224271   5.685   1.810   4.295
 8105TIP3    H124272   5.762   1.766   4.258
 8105TIP3    H224273   5.720   1.890   4.334
 8106TIP3   OH224274   2.306   4.927   6.550
 8106TIP3    H124275   2.393   4.932   6.510
 8106TIP3    H224276   2.251   4.886   6.483
 8107TIP3   OH224277   7.500   7.758   4.893
 8107TIP3    H124278   7.409   7.743   4.870
 8107TIP3    H224279   7.537   7.803   4.817
 8108TIP3   OH224280   2.225   2.064   1.646
 8108TIP3    H124281   2.200   2.157   1.644
 8108TIP3    H224282   2.199   2.035   1.734
 8109TIP3   OH224283   3.222   6.656   3.066
 8109TIP3    H124284   3.186   6.578   3.024
 8109TIP3    H224285   3.203   6.645   3.159
 8110TIP3   OH224286   7.151   1.987   1.872
 8110TIP3    H124287   7.141   2.057   1.808
 8110TIP3    H224288   7.071   1.991   1.925
 8111TIP3   OH224289   7.150   7.627   4.965
 8111TIP3    H124290   7.140   7.721   4.951
 8111TIP3    H224291   7.150   7.589   4.877
 8112TIP3   OH224292   2.974   1.031   3.992
 8112TIP3    H124293   2.951   0.980   3.915
 8112TIP3    H224294   3.022   0.969   4.048
 8113TIP3   OH224295   3.418   1.057   4.045
 8113TIP3    H124296   3.454   1.145   4.057
 8113TIP3    H224297   3.402   1.025   4.134
 8114TIP3   OH224298   5.553   6.546   6.568
 8114TIP3    H124299   5.583   6.461   6.601
 8114TIP3    H224300   5.630   6.602   6.571
 8115TIP3   OH224301   3.727   4.289   5.472
 8115TIP3    H124302   3.802   4.256   5.423
 8115TIP3    H224303   3.712   4.224   5.540
 8116TIP3   OH224304   1.974   4.070   4.990
 8116TIP3    H124305   2.004   4.125   5.063
 8116TIP3    H224306   1.923   4.129   4.935
 8117TIP3   OH224307   0.964   3.535   1.955
 8117TIP3    H124308   0.939   3.624   1.931
 8117TIP3    H224309   0.904   3.479   1.905
 8118TIP3   OH224310   4.393   7.371   4.703
 8118TIP3    H124311   4.471   7.394   4.652
 8118TIP3    H224312   4.348   7.455   4.717
 8119TIP3   OH224313   7.093   5.756   0.980
 8119TIP3    H124314   7.004   5.723   0.970
 8119TIP3    H224315   7.096   5.793   1.068
 8120TIP3   OH224316   1.213   1.713   5.963
 8120TIP3    H124317   1.217   1.640   5.902
 8120TIP3    H224318   1.224   1.672   6.049
 8121TIP3   OH224319   5.482   3.192   4.762
 8121TIP3    H124320   5.440   3.267   4.718
 8121TIP3    H224321   5.409   3.139   4.794
 8122TIP3   OH224322   1.533   3.342   4.513
 8122TIP3    H124323   1.586   3.339   4.592
 8122TIP3    H224324   1.443   3.330   4.544
 8123TIP3   OH224325   1.209   2.869   3.015
 8123TIP3    H124326   1.291   2.839   3.053
 8123TIP3    H224327   1.151   2.884   3.089
 8124TIP3   OH224328   0.145   5.130   1.484
 8124TIP3    H124329   0.155   5.207   1.428
 8124TIP3    H224330   0.076   5.154   1.546
 8125TIP3   OH224331   0.140   4.648   6.740
 8125TIP3    H124332   0.114   4.615   6.826
 8125TIP3    H224333   0.179   4.573   6.696
 8126TIP3   OH224334   7.803   3.049   2.044
 8126TIP3    H124335   7.867   3.103   2.090
 8126TIP3    H224336   7.719   3.090   2.064
 8127TIP3   OH224337   3.015   5.388   1.322
 8127TIP3    H124338   3.109   5.405   1.309
 8127TIP3    H224339   3.012   5.297   1.353
 8128TIP3   OH224340   7.498   2.152   1.884
 8128TIP3    H124341   7.436   2.225   1.876
 8128TIP3    H224342   7.468   2.088   1.820
 8129TIP3   OH224343   8.060   0.169   0.919
 8129TIP3    H124344   8.027   0.219   0.844
 8129TIP3    H224345   8.012   0.204   0.994
 8130TIP3   OH224346   6.632   4.187   6.009
 8130TIP3    H124347   6.694   4.114   6.008
 8130TIP3    H224348   6.667   4.249   5.946
 8131TIP3   OH224349   0.431   2.897   1.205
 8131TIP3    H124350   0.476   2.923   1.286
 8131TIP3    H224351   0.439   2.802   1.203
 8132TIP3   OH224352   0.789   1.182   0.941
 8132TIP3    H124353   0.773   1.106   0.996
 8132TIP3    H224354   0.833   1.245   0.998
 8133TIP3   OH224355   7.740   5.106   2.703
 8133TIP3    H124356   7.805   5.134   2.639
 8133TIP3    H224357   7.656   5.119   2.659
 8134TIP3   OH224358   1.363   0.568   5.512
 8134TIP3    H124359   1.331   0.575   5.602
 8134TIP3    H224360   1.290   0.598   5.458
 8135TIP3   OH224361   6.717   3.855   4.151
 8135TIP3    H124362   6.794   3.852   4.094
 8135TIP3    H224363   6.737   3.925   4.214
 8136TIP3   OH224364   5.709   4.712   3.726
 8136TIP3    H124365   5.644   4.649   3.694
 8136TIP3    H224366   5.663   4.760   3.795
 8137TIP3   OH224367   4.874   1.364   4.265
 8137TIP3    H124368   4.788   1.321   4.262
 8137TIP3    H224369   4.921   1.318   4.335
 8138TIP3   OH224370   0.164   4.998   3.081
 8138TIP3    H124371   0.120   5.070   3.036
 8138TIP3    H224372   0.154   5.018   3.174
 8139TIP3   OH224373   2.023   4.000   2.146
 8139TIP3    H124374   1.962   4.025   2.076
 8139TIP3    H224375   1.968   3.991   2.223
 8140TIP3   OH224376   2.049   1.940   4.909
 8140TIP3    H124377   1.961   1.936   4.948
 8140TIP3    H224378   2.040   1.893   4.825
 8141TIP3   OH224379   1.823   0.193   4.710
 8141TIP3    H124380   1.891   0.128   4.692
 8141TIP3    H224381   1.872   0.271   4.738
 8142TIP3   OH224382   4.286   3.955   3.856
 8142TIP3    H124383   4.266   3.864   3.837
 8142TIP3    H224384   4.203   3.992   3.887
 8143TIP3   OH224385   6.169   4.835   3.492
 8143TIP3    H124386   6.089   4.801   3.533
 8143TIP3    H224387   6.238   4.778   3.524
 8144TIP3   OH224388   2.853   2.836   3.080
 8144TIP3    H124389   2.789   2.829   3.008
 8144TIP3    H224390   2.810   2.794   3.154
 8145TIP3   OH224391   5.463   6.708   5.648
 8145TIP3    H124392   5.439   6.706   5.741
 8145TIP3    H224393   5.461   6.616   5.621
 8146TIP3   OH224394   4.957   6.582   4.399
 8146TIP3    H124395   4.929   6.511   4.341
 8146TIP3    H224396   4.998   6.538   4.473
 8147TIP3   OH224397   6.299   1.925   2.236
 8147TIP3    H124398   6.297   1.886   2.149
 8147TIP3    H224399   6.388   1.958   2.246
 8148TIP3   OH224400   7.488   6.371   0.635
 8148TIP3    H124401   7.497   6.347   0.542
 8148TIP3    H224402   7.578   6.370   0.669
 8149TIP3   OH224403   0.411   7.600   0.758
 8149TIP3    H124404   0.494   7.591   0.805
 8149TIP3    H224405   0.426   7.556   0.674
 8150TIP3   OH224406   7.570   3.977   5.612
 8150TIP3    H124407   7.474   3.971   5.610
 8150TIP3    H224408   7.592   3.970   5.705
 8151TIP3   OH224409   2.754   3.688   2.610
 8151TIP3    H124410   2.848   3.683   2.596
 8151TIP3    H224411   2.744   3.734   2.693
 8152TIP3   OH224412   1.104   6.255   1.314
 8152TIP3    H124413   1.101   6.166   1.349
 8152TIP3    H224414   1.061   6.308   1.381
 8153TIP3   OH224415   1.735   7.737   3.483
 8153TIP3    H124416   1.798   7.757   3.413
 8153TIP3    H224417   1.684   7.664   3.449
 8154TIP3   OH224418   4.818   4.977   4.004
 8154TIP3    H124419   4.760   4.902   4.015
 8154TIP3    H224420   4.886   4.947   3.945
 8155TIP3   OH224421   6.049   5.685   3.041
 8155TIP3    H124422   6.134   5.728   3.052
 8155TIP3    H224423   6.064   5.621   2.971
 8156TIP3   OH224424   1.401   5.500   0.529
 8156TIP3    H124425   1.426   5.425   0.476
 8156TIP3    H224426   1.464   5.568   0.504
 8157TIP3   OH224427   6.618   0.673   1.255
 8157TIP3    H124428   6.608   0.768   1.254
 8157TIP3    H224429   6.603   0.648   1.346
 8158TIP3   OH224430   3.830   2.673   0.225
 8158TIP3    H124431   3.803   2.758   0.191
 8158TIP3    H224432   3.767   2.654   0.295
 8159TIP3   OH224433   2.518   6.507   4.119
 8159TIP3    H124434   2.562   6.592   4.122
 8159TIP3    H224435   2.580   6.450   4.074
 8160TIP3   OH224436   5.844   6.133   0.678
 8160TIP3    H124437   5.863   6.189   0.753
 8160TIP3    H224438   5.761   6.165   0.643
 8161TIP3   OH224439   0.376   3.140   3.139
 8161TIP3    H124440   0.336   3.123   3.054
 8161TIP3    H224441   0.420   3.225   3.127
 8162TIP3   OH224442   5.525   5.380   0.118
 8162TIP3    H124443   5.611   5.369   0.076
 8162TIP3    H224444   5.516   5.302   0.173
 8163TIP3   OH224445   4.226   2.249   5.900
 8163TIP3    H124446   4.277   2.168   5.893
 8163TIP3    H224447   4.291   2.319   5.893
 8164TIP3   OH224448   3.472   1.811   3.340
 8164TIP3    H124449   3.490   1.720   3.315
 8164TIP3    H224450   3.377   1.820   3.327
 8165TIP3   OH224451   3.765   0.520   3.415
 8165TIP3    H124452   3.806   0.605   3.432
 8165TIP3    H224453   3.718   0.499   3.496
 8166TIP3   OH224454   8.106   5.431   6.385
 8166TIP3    H124455   8.186   5.408   6.432
 8166TIP3    H224456   8.087   5.355   6.330
 8167TIP3   OH224457   3.806   3.578   5.886
 8167TIP3    H124458   3.753   3.498   5.885
 8167TIP3    H224459   3.753   3.643   5.839
 8168TIP3   OH224460   2.560   7.765   1.462
 8168TIP3    H124461   2.528   7.823   1.393
 8168TIP3    H224462   2.485   7.708   1.481
 8169TIP3   OH224463   4.995   5.966   3.600
 8169TIP3    H124464   4.921   5.978   3.540
 8169TIP3    H224465   4.955   5.938   3.682
 8170TIP3   OH224466   2.756   1.659   2.622
 8170TIP3    H124467   2.779   1.566   2.618
 8170TIP3    H224468   2.834   1.705   2.590
 8171TIP3   OH224469   6.663   3.089   1.460
 8171TIP3    H124470   6.748   3.084   1.416
 8171TIP3    H224471   6.670   3.165   1.518
 8172TIP3   OH224472   1.359   4.697   6.405
 8172TIP3    H124473   1.397   4.784   6.389
 8172TIP3    H224474   1.265   4.710   6.398
 8173TIP3   OH224475   7.973   6.436   6.019
 8173TIP3    H124476   7.991   6.513   5.965
 8173TIP3    H224477   7.880   6.442   6.040
 8174TIP3   OH224478   0.420   0.827   2.902
 8174TIP3    H124479   0.513   0.849   2.910
 8174TIP3    H224480   0.418   0.757   2.837
 8175TIP3   OH224481   0.470   6.744   5.082
 8175TIP3    H124482   0.402   6.810   5.072
 8175TIP3    H224483   0.525   6.753   5.004
 8176TIP3   OH224484   7.225   3.015   4.157
 8176TIP3    H124485   7.318   3.010   4.180
 8176TIP3    H224486   7.189   3.081   4.217
 8177TIP3   OH224487   7.469   6.608   1.488
 8177TIP3    H124488   7.398   6.577   1.543
 8177TIP3    H224489   7.433   6.686   1.445
 8178TIP3   OH224490   1.440   2.040   3.032
 8178TIP3    H124491   1.427   1.953   3.070
 8178TIP3    H224492   1.482   2.091   3.101
 8179TIP3   OH224493   4.293   1.738   5.909
 8179TIP3    H124494   4.356   1.676   5.946
 8179TIP3    H224495   4.268   1.794   5.983
 8180TIP3   OH224496   5.039   1.001   1.293
 8180TIP3    H124497   5.030   0.910   1.266
 8180TIP3    H224498   5.070   0.996   1.383
 8181TIP3   OH224499   5.010   0.216   5.748
 8181TIP3    H124500   5.052   0.235   5.833
 8181TIP3    H224501   4.954   0.141   5.766
 8182TIP3   OH224502   0.173   4.873   5.119
 8182TIP3    H124503   0.156   4.894   5.211
 8182TIP3    H224504   0.188   4.958   5.078
 8183TIP3   OH224505   3.862   1.250   1.751
 8183TIP3    H124506   3.928   1.308   1.789
 8183TIP3    H224507   3.849   1.182   1.817
 8184TIP3   OH224508   3.254   6.951   0.518
 8184TIP3    H124509   3.319   6.970   0.585
 8184TIP3    H224510   3.287   6.993   0.439
 8185TIP3   OH224511   7.751   5.434   5.682
 8185TIP3    H124512   7.693   5.458   5.755
 8185TIP3    H224513   7.833   5.408   5.724
 8186TIP3   OH224514   4.889   4.192   2.375
 8186TIP3    H124515   4.913   4.100   2.391
 8186TIP3    H224516   4.918   4.208   2.285
 8187TIP3   OH224517   0.806   5.972   1.361
 8187TIP3    H124518   0.767   5.918   1.292
 8187TIP3    H224519   0.898   5.946   1.363
 8188TIP3   OH224520   7.710   6.049   4.386
 8188TIP3    H124521   7.784   6.028   4.444
 8188TIP3    H224522   7.724   5.994   4.310
 8189TIP3   OH224523   7.778   7.074   3.856
 8189TIP3    H124524   7.817   7.014   3.919
 8189TIP3    H224525   7.684   7.064   3.869
 8190TIP3   OH224526   1.313   4.332   3.692
 8190TIP3    H124527   1.258   4.370   3.624
 8190TIP3    H224528   1.311   4.238   3.675
 8191TIP3   OH224529   6.657   2.269   5.752
 8191TIP3    H124530   6.603   2.327   5.698
 8191TIP3    H224531   6.747   2.288   5.725
 8192TIP3   OH224532   1.632   6.781   2.781
 8192TIP3    H124533   1.623   6.686   2.774
 8192TIP3    H224534   1.589   6.804   2.863
 8193TIP3   OH224535   0.606   2.722   6.155
 8193TIP3    H124536   0.632   2.630   6.167
 8193TIP3    H224537   0.679   2.761   6.107
 8194TIP3   OH224538   6.072   7.662   0.743
 8194TIP3    H124539   5.998   7.627   0.792
 8194TIP3    H224540   6.039   7.744   0.705
 8195TIP3   OH224541   5.903   2.076   3.598
 8195TIP3    H124542   5.976   2.099   3.655
 8195TIP3    H224543   5.895   2.150   3.538
 8196TIP3   OH224544   3.723   7.640   3.299
 8196TIP3    H124545   3.633   7.674   3.298
 8196TIP3    H224546   3.773   7.705   3.348
 8197TIP3   OH224547   4.580   6.911   5.631
 8197TIP3    H124548   4.486   6.914   5.645
 8197TIP3    H224549   4.604   7.002   5.612
 8198TIP3   OH224550   0.333   6.034   2.973
 8198TIP3    H124551   0.254   5.984   2.953
 8198TIP3    H224552   0.402   5.969   2.979
 8199TIP3   OH224553   0.170   3.104   4.244
 8199TIP3    H124554   0.114   3.158   4.188
 8199TIP3    H224555   0.173   3.019   4.199
 8200TIP3   OH224556   5.189   6.820   1.066
 8200TIP3    H124557   5.272   6.782   1.092
 8200TIP3    H224558   5.123   6.771   1.115
 8201TIP3   OH224559   1.728   0.057   6.622
 8201TIP3    H124560   1.785  -0.020   6.611
 8201TIP3    H224561   1.757   0.096   6.704
 8202TIP3   OH224562   2.829   6.836   2.536
 8202TIP3    H124563   2.755   6.841   2.476
 8202TIP3    H224564   2.904   6.866   2.484
 8203TIP3   OH224565   2.323   4.012   3.934
 8203TIP3    H124566   2.277   4.037   3.854
 8203TIP3    H224567   2.270   4.048   4.005
 8204TIP3   OH224568   5.338   4.520   2.258
 8204TIP3    H124569   5.419   4.508   2.208
 8204TIP3    H224570   5.271   4.480   2.203
 8205TIP3   OH224571   2.487   1.910   5.568
 8205TIP3    H124572   2.465   1.951   5.484
 8205TIP3    H224573   2.403   1.903   5.613
 8206TIP3   OH224574   6.796   0.038   2.358
 8206TIP3    H124575   6.872  -0.006   2.319
 8206TIP3    H224576   6.780  -0.012   2.439
 8207TIP3   OH224577   5.501   6.615   6.197
 8207TIP3    H124578   5.480   6.641   6.287
 8207TIP3    H224579   5.454   6.533   6.184
 8208TIP3   OH224580   3.271   5.651   4.015
 8208TIP3    H124581   3.364   5.656   4.039
 8208TIP3    H224582   3.260   5.562   3.983
 8209TIP3   OH224583   2.146   4.569   2.424
 8209TIP3    H124584   2.196   4.600   2.349
 8209TIP3    H224585   2.168   4.631   2.494
 8210TIP3   OH224586   2.396   2.880   5.912
 8210TIP3    H124587   2.462   2.939   5.876
 8210TIP3    H224588   2.371   2.920   5.995
 8211TIP3   OH224589   5.656   4.079   2.562
 8211TIP3    H124590   5.622   4.062   2.474
 8211TIP3    H224591   5.684   4.171   2.559
 8212TIP3   OH224592   6.717   7.026   4.342
 8212TIP3    H124593   6.778   6.959   4.371
 8212TIP3    H224594   6.702   7.007   4.250
 8213TIP3   OH224595   3.342   1.549   4.235
 8213TIP3    H124596   3.248   1.559   4.248
 8213TIP3    H224597   3.370   1.630   4.193
 8214TIP3   OH224598   0.951   3.145   4.691
 8214TIP3    H124599   0.912   3.132   4.605
 8214TIP3    H224600   0.948   3.240   4.704
 8215TIP3   OH224601   8.248   6.043   0.858
 8215TIP3    H124602   8.327   6.012   0.902
 8215TIP3    H224603   8.226   6.124   0.904
 8216TIP3   OH224604   5.123   3.749   0.925
 8216TIP3    H124605   5.180   3.826   0.921
 8216TIP3    H224606   5.147   3.706   1.007
 8217TIP3   OH224607   0.765   3.129   1.236
 8217TIP3    H124608   0.801   3.048   1.273
 8217TIP3    H224609   0.809   3.137   1.151
 8218TIP3   OH224610   5.885   5.859   4.136
 8218TIP3    H124611   5.868   5.937   4.189
 8218TIP3    H224612   5.918   5.894   4.053
 8219TIP3   OH224613   3.628   2.428   2.152
 8219TIP3    H124614   3.636   2.366   2.225
 8219TIP3    H224615   3.679   2.504   2.180
 8220TIP3   OH224616   2.075   4.720   0.993
 8220TIP3    H124617   2.051   4.672   0.913
 8220TIP3    H224618   2.131   4.658   1.041
 8221TIP3   OH224619   1.448   4.482   3.071
 8221TIP3    H124620   1.403   4.526   2.999
 8221TIP3    H224621   1.440   4.542   3.145
 8222TIP3   OH224622   2.324   0.273   6.135
 8222TIP3    H124623   2.289   0.206   6.076
 8222TIP3    H224624   2.271   0.351   6.116
 8223TIP3   OH224625   2.003   0.401   2.165
 8223TIP3    H124626   2.009   0.497   2.174
 8223TIP3    H224627   2.074   0.378   2.106
 8224TIP3   OH224628   1.190   0.015   0.778
 8224TIP3    H124629   1.223  -0.039   0.706
 8224TIP3    H224630   1.167   0.098   0.737
 8225TIP3   OH224631   1.060   5.438   2.213
 8225TIP3    H124632   1.015   5.502   2.268
 8225TIP3    H224633   1.153   5.451   2.233
 8226TIP3   OH224634   0.567   2.326   5.243
 8226TIP3    H124635   0.642   2.385   5.233
 8226TIP3    H224636   0.555   2.319   5.338
 8227TIP3   OH224637   8.090   0.259   3.451
 8227TIP3    H124638   8.042   0.205   3.513
 8227TIP3    H224639   8.082   0.348   3.484
 8228TIP3   OH224640   1.245   7.053   2.503
 8228TIP3    H124641   1.259   6.989   2.573
 8228TIP3    H224642   1.331   7.064   2.462
 8229TIP3   OH224643   3.576   1.191   2.982
 8229TIP3    H124644   3.622   1.226   2.905
 8229TIP3    H224645   3.521   1.121   2.947
 8230TIP3   OH224646   4.678   4.459   0.858
 8230TIP3    H124647   4.685   4.525   0.789
 8230TIP3    H224648   4.698   4.508   0.938
 8231TIP3   OH224649   4.650   5.498   0.744
 8231TIP3    H124650   4.695   5.413   0.742
 8231TIP3    H224651   4.587   5.492   0.672
 8232TIP3   OH224652   6.305   6.160   1.571
 8232TIP3    H124653   6.386   6.185   1.528
 8232TIP3    H224654   6.255   6.241   1.577
 8233TIP3   OH224655   6.038   1.918   0.937
 8233TIP3    H124656   6.078   1.874   0.863
 8233TIP3    H224657   6.048   2.011   0.918
 8234TIP3   OH224658   6.949   7.712   0.303
 8234TIP3    H124659   6.879   7.734   0.242
 8234TIP3    H224660   6.967   7.619   0.287
 8235TIP3   OH224661   3.354   3.598   0.875
 8235TIP3    H124662   3.284   3.557   0.825
 8235TIP3    H224663   3.398   3.526   0.918
 8236TIP3   OH224664   2.234   4.765   0.279
 8236TIP3    H124665   2.138   4.759   0.273
 8236TIP3    H224666   2.262   4.799   0.194
 8237TIP3   OH224667   3.882   7.136   5.007
 8237TIP3    H124668   3.935   7.162   5.083
 8237TIP3    H224669   3.894   7.207   4.944
 8238TIP3   OH224670   6.230   4.797   3.961
 8238TIP3    H124671   6.241   4.845   4.043
 8238TIP3    H224672   6.177   4.854   3.906
 8239TIP3   OH224673   5.827   0.177   6.093
 8239TIP3    H124674   5.818   0.235   6.017
 8239TIP3    H224675   5.878   0.227   6.156
 8240TIP3   OH224676   4.605   4.083   4.455
 8240TIP3    H124677   4.629   3.991   4.469
 8240TIP3    H224678   4.620   4.096   4.361
 8241TIP3   OH224679   4.837   5.787   0.220
 8241TIP3    H124680   4.769   5.743   0.270
 8241TIP3    H224681   4.912   5.792   0.281
 8242TIP3   OH224682   1.258   0.083   1.789
 8242TIP3    H124683   1.320   0.037   1.845
 8242TIP3    H224684   1.269   0.043   1.703
 8243TIP3   OH224685   3.674   5.492   3.374
 8243TIP3    H124686   3.602   5.434   3.400
 8243TIP3    H224687   3.752   5.454   3.414
 8244TIP3   OH224688   2.436   0.375   4.400
 8244TIP3    H124689   2.493   0.412   4.332
 8244TIP3    H224690   2.456   0.427   4.478
 8245TIP3   OH224691   0.669   0.714   6.071
 8245TIP3    H124692   0.636   0.804   6.064
 8245TIP3    H224693   0.746   0.713   6.015
 8246TIP3   OH224694   0.651   4.256   0.992
 8246TIP3    H124695   0.589   4.231   0.924
 8246TIP3    H224696   0.737   4.251   0.949
 8247TIP3   OH224697   4.269   0.678   3.123
 8247TIP3    H124698   4.211   0.754   3.126
 8247TIP3    H224699   4.211   0.605   3.102
 8248TIP3   OH224700   2.133   0.494   4.491
 8248TIP3    H124701   2.074   0.488   4.416
 8248TIP3    H224702   2.213   0.533   4.456
 8249TIP3   OH224703   2.440   5.323   1.973
 8249TIP3    H124704   2.429   5.390   1.905
 8249TIP3    H224705   2.524   5.344   2.014
 8250TIP3   OH224706   5.123   6.517   4.704
 8250TIP3    H124707   5.215   6.544   4.707
 8250TIP3    H224708   5.124   6.425   4.731
 8251TIP3   OH224709   2.285   6.232   4.528
 8251TIP3    H124710   2.214   6.199   4.474
 8251TIP3    H224711   2.351   6.262   4.466
 8252TIP3   OH224712   4.391   6.510   6.336
 8252TIP3    H124713   4.470   6.456   6.323
 8252TIP3    H224714   4.387   6.524   6.431
 8253TIP3   OH224715   2.354   4.371   0.062
 8253TIP3    H124716   2.360   4.398   0.153
 8253TIP3    H224717   2.438   4.328   0.044
 8254TIP3   OH224718   1.517   4.602   6.163
 8254TIP3    H124719   1.449   4.629   6.224
 8254TIP3    H224720   1.577   4.549   6.216
 8255TIP3   OH224721   5.276   5.999   2.910
 8255TIP3    H124722   5.364   5.968   2.933
 8255TIP3    H224723   5.217   5.931   2.942
 8256TIP3   OH224724   6.757   4.151   2.471
 8256TIP3    H124725   6.687   4.169   2.408
 8256TIP3    H224726   6.730   4.196   2.551
 8257TIP3   OH224727   2.889   3.671   3.881
 8257TIP3    H124728   2.935   3.755   3.885
 8257TIP3    H224729   2.957   3.606   3.899
 8258TIP3   OH224730   1.898   0.056   2.406
 8258TIP3    H124731   1.868  -0.035   2.407
 8258TIP3    H224732   1.818   0.107   2.396
 8259TIP3   OH224733   1.493   1.924   5.624
 8259TIP3    H124734   1.504   1.851   5.564
 8259TIP3    H224735   1.538   1.998   5.583
 8260TIP3   OH224736   7.911   5.207   1.675
 8260TIP3    H124737   7.900   5.121   1.634
 8260TIP3    H224738   7.826   5.250   1.663
 8261TIP3   OH224739   0.988   4.000   2.831
 8261TIP3    H124740   0.916   3.949   2.793
 8261TIP3    H224741   0.999   4.074   2.771
 8262TIP3   OH224742   7.162   4.288   0.389
 8262TIP3    H124743   7.095   4.349   0.359
 8262TIP3    H224744   7.238   4.305   0.333
 8263TIP3   OH224745   0.401   0.768   4.864
 8263TIP3    H124746   0.312   0.802   4.856
 8263TIP3    H224747   0.433   0.802   4.947
 8264TIP3   OH224748   2.892   7.632   6.026
 8264TIP3    H124749   2.828   7.635   5.955
 8264TIP3    H224750   2.847   7.676   6.099
 8265TIP3   OH224751   1.773   0.499   4.591
 8265TIP3    H124752   1.765   0.524   4.499
 8265TIP3    H224753   1.866   0.506   4.610
 8266TIP3   OH224754   2.975   7.803   0.863
 8266TIP3    H124755   3.007   7.878   0.814
 8266TIP3    H224756   3.001   7.727   0.810
 8267TIP3   OH224757   4.736   2.482   2.215
 8267TIP3    H124758   4.781   2.555   2.258
 8267TIP3    H224759   4.659   2.466   2.269
 8268TIP3   OH224760   0.954   1.007   6.513
 8268TIP3    H124761   0.990   0.935   6.461
 8268TIP3    H224762   0.915   0.965   6.590
 8269TIP3   OH224763   7.729   4.616   4.963
 8269TIP3    H124764   7.747   4.571   4.881
 8269TIP3    H224765   7.810   4.607   5.014
 8270TIP3   OH224766   2.417   0.656   2.849
 8270TIP3    H124767   2.491   0.698   2.806
 8270TIP3    H224768   2.456   0.605   2.920
 8271TIP3   OH224769   0.791   5.609   3.966
 8271TIP3    H124770   0.845   5.547   4.014
 8271TIP3    H224771   0.850   5.647   3.901
 8272TIP3   OH224772   1.343   3.784   3.918
 8272TIP3    H124773   1.318   3.761   4.007
 8272TIP3    H224774   1.270   3.754   3.864
 8273TIP3   OH224775   6.102   7.634   4.225
 8273TIP3    H124776   6.188   7.654   4.187
 8273TIP3    H224777   6.119   7.627   4.319
 8274TIP3   OH224778   2.887   1.037   4.927
 8274TIP3    H124779   2.886   1.131   4.948
 8274TIP3    H224780   2.920   1.033   4.837
 8275TIP3   OH224781   3.560   4.430   0.699
 8275TIP3    H124782   3.473   4.458   0.670
 8275TIP3    H224783   3.601   4.511   0.732
 8276TIP3   OH224784   3.270   5.332   3.293
 8276TIP3    H124785   3.196   5.272   3.292
 8276TIP3    H224786   3.233   5.415   3.324
 8277TIP3   OH224787   4.833   1.838   4.921
 8277TIP3    H124788   4.908   1.882   4.880
 8277TIP3    H224789   4.758   1.864   4.869
 8278TIP3   OH224790   4.254   7.131   3.752
 8278TIP3    H124791   4.324   7.132   3.816
 8278TIP3    H224792   4.248   7.221   3.721
 8279TIP3   OH224793   7.807   7.280   4.505
 8279TIP3    H124794   7.809   7.249   4.595
 8279TIP3    H224795   7.721   7.320   4.495
 8280TIP3   OH224796   5.025   3.756   3.217
 8280TIP3    H124797   4.992   3.842   3.191
 8280TIP3    H224798   5.110   3.748   3.174
 8281TIP3   OH224799   0.821   6.710   4.831
 8281TIP3    H124800   0.733   6.740   4.852
 8281TIP3    H224801   0.830   6.727   4.737
 8282TIP3   OH224802   3.995   5.402   2.859
 8282TIP3    H124803   3.915   5.422   2.810
 8282TIP3    H224804   4.045   5.483   2.857
 8283TIP3   OH224805   0.351   1.234   3.599
 8283TIP3    H124806   0.434   1.212   3.641
 8283TIP3    H224807   0.294   1.159   3.619
 8284TIP3   OH224808   6.048   2.791   3.195
 8284TIP3    H124809   5.966   2.757   3.160
 8284TIP3    H224810   6.073   2.729   3.263
 8285TIP3   OH224811   2.658   6.488   4.691
 8285TIP3    H124812   2.698   6.530   4.615
 8285TIP3    H224813   2.709   6.409   4.705
 8286TIP3   OH224814   6.216   7.449   0.862
 8286TIP3    H124815   6.293   7.495   0.896
 8286TIP3    H224816   6.173   7.513   0.806
 8287TIP3   OH224817   1.572   3.434   2.947
 8287TIP3    H124818   1.575   3.417   2.853
 8287TIP3    H224819   1.558   3.348   2.987
 8288TIP3   OH224820   0.247   5.768   4.410
 8288TIP3    H124821   0.175   5.750   4.349
 8288TIP3    H224822   0.261   5.684   4.455
 8289TIP3   OH224823   1.431   2.318   2.234
 8289TIP3    H124824   1.384   2.398   2.257
 8289TIP3    H224825   1.395   2.251   2.292
 8290TIP3   OH224826   4.318   4.133   2.491
 8290TIP3    H124827   4.413   4.132   2.485
 8290TIP3    H224828   4.299   4.187   2.568
 8291TIP3   OH224829   4.338   5.662   4.326
 8291TIP3    H124830   4.394   5.594   4.364
 8291TIP3    H224831   4.285   5.693   4.399
 8292TIP3   OH224832   1.459   0.987   5.801
 8292TIP3    H124833   1.452   0.987   5.705
 8292TIP3    H224834   1.440   0.897   5.826
 8293TIP3   OH224835   6.191   6.581   3.311
 8293TIP3    H124836   6.108   6.608   3.350
 8293TIP3    H224837   6.168   6.556   3.221
 8294TIP3   OH224838   5.904   6.682   3.813
 8294TIP3    H124839   5.825   6.705   3.764
 8294TIP3    H224840   5.892   6.591   3.838
 8295TIP3   OH224841   5.035   3.420   5.194
 8295TIP3    H124842   5.032   3.507   5.153
 8295TIP3    H224843   5.014   3.437   5.286
 8296TIP3   OH224844   3.892   5.823   4.432
 8296TIP3    H124845   3.854   5.905   4.399
 8296TIP3    H224846   3.963   5.804   4.371
 8297TIP3   OH224847   6.983   5.787   5.404
 8297TIP3    H124848   7.077   5.802   5.413
 8297TIP3    H224849   6.967   5.703   5.448
 8298TIP3   OH224850   6.771   6.180   6.561
 8298TIP3    H124851   6.728   6.265   6.575
 8298TIP3    H224852   6.826   6.169   6.639
 8299TIP3   OH224853   1.858   7.415   5.617
 8299TIP3    H124854   1.843   7.323   5.595
 8299TIP3    H224855   1.918   7.446   5.550
 8300TIP3   OH224856   7.235   0.568   5.977
 8300TIP3    H124857   7.139   0.570   5.984
 8300TIP3    H224858   7.263   0.510   6.047
 8301TIP3   OH224859   2.627   7.478   0.988
 8301TIP3    H124860   2.667   7.558   0.954
 8301TIP3    H224861   2.555   7.459   0.928
 8302TIP3   OH224862   1.667   4.890   2.159
 8302TIP3    H124863   1.719   4.970   2.174
 8302TIP3    H224864   1.723   4.819   2.190
 8303TIP3   OH224865   4.338   7.703   3.507
 8303TIP3    H124866   4.301   7.691   3.595
 8303TIP3    H224867   4.405   7.770   3.518
 8304TIP3   OH224868   7.724   0.838   5.662
 8304TIP3    H124869   7.786   0.897   5.704
 8304TIP3    H224870   7.659   0.896   5.621
 8305TIP3   OH224871   0.589   6.430   0.991
 8305TIP3    H124872   0.652   6.438   0.920
 8305TIP3    H224873   0.583   6.336   1.007
 8306TIP3   OH224874   6.468   6.688   0.718
 8306TIP3    H124875   6.392   6.645   0.756
 8306TIP3    H224876   6.536   6.620   0.717
 8307TIP3   OH224877   2.206   5.209   4.545
 8307TIP3    H124878   2.279   5.153   4.569
 8307TIP3    H224879   2.146   5.204   4.620
 8308TIP3   OH224880   4.181   1.965   2.661
 8308TIP3    H124881   4.123   1.982   2.586
 8308TIP3    H224882   4.264   1.938   2.621
 8309TIP3   OH224883   5.764   6.027   5.457
 8309TIP3    H124884   5.708   5.952   5.434
 8309TIP3    H224885   5.824   5.993   5.524
 8310TIP3   OH224886   4.391   2.622   0.193
 8310TIP3    H124887   4.395   2.717   0.205
 8310TIP3    H224888   4.299   2.600   0.203
 8311TIP3   OH224889   6.366   5.347   5.771
 8311TIP3    H124890   6.412   5.333   5.688
 8311TIP3    H224891   6.384   5.438   5.794
 8312TIP3   OH224892   6.133   4.960   2.034
 8312TIP3    H124893   6.195   4.936   1.965
 8312TIP3    H224894   6.051   4.918   2.008
 8313TIP3   OH224895   3.000   6.110   2.273
 8313TIP3    H124896   2.954   6.102   2.189
 8313TIP3    H224897   3.051   6.030   2.281
 8314TIP3   OH224898   0.363   5.974   5.141
 8314TIP3    H124899   0.303   6.007   5.074
 8314TIP3    H224900   0.317   5.899   5.179
 8315TIP3   OH224901   0.528   0.050   4.850
 8315TIP3    H124902   0.598   0.045   4.914
 8315TIP3    H224903   0.552   0.124   4.794
 8316TIP3   OH224904   0.316   2.628   2.755
 8316TIP3    H124905   0.332   2.711   2.799
 8316TIP3    H224906   0.378   2.627   2.681
 8317TIP3   OH224907   7.107   2.894   6.010
 8317TIP3    H124908   7.186   2.876   5.959
 8317TIP3    H224909   7.051   2.944   5.950
 8318TIP3   OH224910   4.106   0.706   3.426
 8318TIP3    H124911   4.174   0.773   3.430
 8318TIP3    H224912   4.053   0.731   3.349
 8319TIP3   OH224913   2.402   6.889   2.050
 8319TIP3    H124914   2.418   6.798   2.077
 8319TIP3    H224915   2.488   6.930   2.055
 8320TIP3   OH224916   7.137   2.144   5.667
 8320TIP3    H124917   7.174   2.105   5.587
 8320TIP3    H224918   7.213   2.175   5.716
 8321TIP3   OH224919   1.807   6.191   6.010
 8321TIP3    H124920   1.871   6.262   6.009
 8321TIP3    H224921   1.798   6.166   5.918
 8322TIP3   OH224922   7.793   1.085   4.999
 8322TIP3    H124923   7.754   1.170   5.019
 8322TIP3    H224924   7.887   1.101   4.997
 8323TIP3   OH224925   3.103   2.093   2.558
 8323TIP3    H124926   3.118   2.144   2.637
 8323TIP3    H224927   3.062   2.012   2.589
 8324TIP3   OH224928   1.070   6.363   0.649
 8324TIP3    H124929   1.106   6.382   0.563
 8324TIP3    H224930   1.029   6.444   0.677
 8325TIP3   OH224931   3.401   2.206   0.743
 8325TIP3    H124932   3.313   2.202   0.707
 8325TIP3    H224933   3.456   2.165   0.676
 8326TIP3   OH224934   7.322   0.141   0.136
 8326TIP3    H124935   7.337   0.124   0.229
 8326TIP3    H224936   7.386   0.087   0.090
 8327TIP3   OH224937   5.213   3.383   4.982
 8327TIP3    H124938   5.146   3.379   4.914
 8327TIP3    H224939   5.166   3.416   5.059
 8328TIP3   OH224940   0.274   3.327   6.286
 8328TIP3    H124941   0.252   3.238   6.314
 8328TIP3    H224942   0.295   3.318   6.193
 8329TIP3   OH224943   4.238   6.157   3.831
 8329TIP3    H124944   4.205   6.068   3.839
 8329TIP3    H224945   4.228   6.179   3.739
 8330TIP3   OH224946   7.633   0.851   6.707
 8330TIP3    H124947   7.582   0.861   6.626
 8330TIP3    H224948   7.693   0.779   6.688
 8331TIP3   OH224949   5.952   3.024   0.063
 8331TIP3    H124950   5.999   3.080   0.125
 8331TIP3    H224951   6.014   3.013  -0.010
 8332TIP3   OH224952   4.915   4.432   0.558
 8332TIP3    H124953   4.959   4.349   0.539
 8332TIP3    H224954   4.824   4.407   0.575
 8333TIP3   OH224955   5.260   1.438   0.376
 8333TIP3    H124956   5.341   1.486   0.358
 8333TIP3    H224957   5.205   1.456   0.300
 8334TIP3   OH224958   4.872   7.711   2.071
 8334TIP3    H124959   4.960   7.685   2.044
 8334TIP3    H224960   4.870   7.694   2.165
 8335TIP3   OH224961   2.010   6.924   1.233
 8335TIP3    H124962   2.005   6.932   1.138
 8335TIP3    H224963   1.969   7.004   1.266
 8336TIP3   OH224964   5.699   3.040   6.288
 8336TIP3    H124965   5.622   3.095   6.299
 8336TIP3    H224966   5.709   3.032   6.193
 8337TIP3   OH224967   5.051   7.503   3.596
 8337TIP3    H124968   5.063   7.575   3.659
 8337TIP3    H224969   5.002   7.542   3.524
 8338TIP3   OH224970   7.519   0.815   2.457
 8338TIP3    H124971   7.597   0.787   2.504
 8338TIP3    H224972   7.550   0.842   2.371
 8339TIP3   OH224973   1.335   3.731   6.057
 8339TIP3    H124974   1.273   3.792   6.097
 8339TIP3    H224975   1.354   3.770   5.971
 8340TIP3   OH224976   7.693   4.032   6.292
 8340TIP3    H124977   7.709   4.074   6.377
 8340TIP3    H224978   7.607   3.991   6.302
 8341TIP3   OH224979   0.655   1.706   2.318
 8341TIP3    H124980   0.584   1.693   2.380
 8341TIP3    H224981   0.683   1.796   2.331
 8342TIP3   OH224982   1.533   5.063   0.004
 8342TIP3    H124983   1.619   5.023  -0.002
 8342TIP3    H224984   1.549   5.157  -0.009
 8343TIP3   OH224985   2.273   1.510   6.030
 8343TIP3    H124986   2.195   1.559   6.058
 8343TIP3    H224987   2.305   1.558   5.954
 8344TIP3   OH224988   1.047   5.046   0.026
 8344TIP3    H124989   1.135   5.081   0.041
 8344TIP3    H224990   1.026   5.000   0.107
 8345TIP3   OH224991   6.340   3.747   0.433
 8345TIP3    H124992   6.272   3.777   0.373
 8345TIP3    H224993   6.352   3.821   0.494
 8346TIP3   OH224994   1.094   2.487   2.661
 8346TIP3    H124995   1.087   2.557   2.596
 8346TIP3    H224996   1.131   2.413   2.613
 8347TIP3   OH224997   1.867   6.840   3.498
 8347TIP3    H124998   1.825   6.786   3.564
 8347TIP3    H224999   1.867   6.928   3.535
 8348TIP3   OH225000   3.725   7.397   6.137
 8348TIP3    H125001   3.802   7.445   6.165
 8348TIP3    H225002   3.703   7.435   6.052
 8349TIP3   OH225003   0.757   4.311   2.122
 8349TIP3    H125004   0.829   4.364   2.158
 8349TIP3    H225005   0.715   4.274   2.199
 8350TIP3   OH225006   4.250   1.057   6.738
 8350TIP3    H125007   4.169   1.044   6.788
 8350TIP3    H225008   4.258   1.151   6.728
 8351TIP3   OH225009   2.739   0.900   4.644
 8351TIP3    H125010   2.765   0.971   4.704
 8351TIP3    H225011   2.779   0.821   4.682
 8352TIP3   OH225012   1.425   4.984   0.858
 8352TIP3    H125013   1.385   4.987   0.945
 8352TIP3    H225014   1.511   5.024   0.870
 8353TIP3   OH225015   3.322   4.866   3.645
 8353TIP3    H125016   3.247   4.849   3.702
 8353TIP3    H225017   3.338   4.782   3.602
 8354TIP3   OH225018   1.028   0.624   0.954
 8354TIP3    H125019   0.942   0.587   0.938
 8354TIP3    H225020   1.083   0.593   0.882
 8355TIP3   OH225021   0.483   1.049   3.370
 8355TIP3    H125022   0.567   1.080   3.337
 8355TIP3    H225023   0.431   1.032   3.291
 8356TIP3   OH225024   1.788   5.908   0.898
 8356TIP3    H125025   1.723   5.915   0.968
 8356TIP3    H225026   1.809   5.999   0.876
 8357TIP3   OH225027   0.286   6.152   1.895
 8357TIP3    H125028   0.333   6.211   1.836
 8357TIP3    H225029   0.354   6.094   1.930
 8358TIP3   OH225030   5.440   0.510   5.690
 8358TIP3    H125031   5.517   0.518   5.634
 8358TIP3    H225032   5.371   0.556   5.642
 8359TIP3   OH225033   7.970   5.851   2.329
 8359TIP3    H125034   7.902   5.871   2.392
 8359TIP3    H225035   8.022   5.783   2.371
 8360TIP3   OH225036   3.156   3.800   1.483
 8360TIP3    H125037   3.187   3.870   1.541
 8360TIP3    H225038   3.146   3.724   1.541
 8361TIP3   OH225039   7.016   1.158   5.528
 8361TIP3    H125040   7.066   1.175   5.448
 8361TIP3    H225041   7.046   1.224   5.589
 8362TIP3   OH225042   2.548   4.580   5.300
 8362TIP3    H125043   2.456   4.554   5.291
 8362TIP3    H225044   2.590   4.541   5.223
 8363TIP3   OH225045   0.497   1.268   0.552
 8363TIP3    H125046   0.460   1.349   0.516
 8363TIP3    H225047   0.577   1.253   0.502
 8364TIP3   OH225048   0.298   3.479   0.870
 8364TIP3    H125049   0.381   3.525   0.885
 8364TIP3    H225050   0.271   3.450   0.957
 8365TIP3   OH225051   2.415   6.763   5.878
 8365TIP3    H125052   2.365   6.682   5.866
 8365TIP3    H225053   2.349   6.831   5.891
 8366TIP3   OH225054   5.833   5.910   5.720
 8366TIP3    H125055   5.776   5.953   5.783
 8366TIP3    H225056   5.909   5.882   5.771
 8367TIP3   OH225057   3.211   0.224   0.497
 8367TIP3    H125058   3.242   0.238   0.407
 8367TIP3    H225059   3.282   0.258   0.552
 8368TIP3   OH225060   0.614   6.159   3.675
 8368TIP3    H125061   0.660   6.078   3.696
 8368TIP3    H225062   0.521   6.137   3.683
 8369TIP3   OH225063   7.923   2.890   3.088
 8369TIP3    H125064   7.875   2.939   3.155
 8369TIP3    H225065   7.892   2.926   3.005
 8370TIP3   OH225066   6.137   4.249   3.937
 8370TIP3    H125067   6.104   4.315   3.998
 8370TIP3    H225068   6.194   4.298   3.877
 8371TIP3   OH225069   3.117   4.178   1.368
 8371TIP3    H125070   3.157   4.175   1.281
 8371TIP3    H225071   3.173   4.237   1.418
 8372TIP3   OH225072   4.410   7.128   0.371
 8372TIP3    H125073   4.503   7.147   0.376
 8372TIP3    H225074   4.373   7.201   0.321
 8373TIP3   OH225075   5.022   6.300   1.811
 8373TIP3    H125076   5.007   6.290   1.716
 8373TIP3    H225077   5.015   6.211   1.845
 8374TIP3   OH225078   7.555   6.948   5.018
 8374TIP3    H125079   7.468   6.910   5.012
 8374TIP3    H225080   7.569   6.989   4.932
 8375TIP3   OH225081   0.426   5.152   3.287
 8375TIP3    H125082   0.467   5.177   3.204
 8375TIP3    H225083   0.472   5.071   3.312
 8376TIP3   OH225084   6.351   4.490   6.696
 8376TIP3    H125085   6.327   4.407   6.656
 8376TIP3    H225086   6.433   4.515   6.652
 8377TIP3   OH225087   7.941   0.867   5.447
 8377TIP3    H125088   8.007   0.818   5.496
 8377TIP3    H225089   7.943   0.954   5.485
 8378TIP3   OH225090   2.466   1.214   5.533
 8378TIP3    H125091   2.426   1.274   5.596
 8378TIP3    H225092   2.425   1.130   5.550
 8379TIP3   OH225093   1.805   5.807   3.269
 8379TIP3    H125094   1.829   5.865   3.197
 8379TIP3    H225095   1.713   5.784   3.252
 8380TIP3   OH225096   2.864   3.924   5.851
 8380TIP3    H125097   2.802   3.865   5.810
 8380TIP3    H225098   2.893   3.982   5.780
 8381TIP3   OH225099   3.183   3.625   6.519
 8381TIP3    H125100   3.256   3.627   6.457
 8381TIP3    H225101   3.156   3.716   6.527
 8382TIP3   OH225102   7.360   5.849   1.161
 8382TIP3    H125103   7.454   5.838   1.146
 8382TIP3    H225104   7.349   5.942   1.178
 8383TIP3   OH225105   2.545   6.332   3.737
 8383TIP3    H125106   2.535   6.237   3.734
 8383TIP3    H225107   2.639   6.347   3.720
 8384TIP3   OH225108   3.958   7.831   4.264
 8384TIP3    H125109   3.925   7.766   4.325
 8384TIP3    H225110   3.879   7.870   4.226
 8385TIP3   OH225111   2.145   3.097   5.249
 8385TIP3    H125112   2.181   3.127   5.166
 8385TIP3    H225113   2.100   3.173   5.285
 8386TIP3   OH225114   0.527   7.753   0.214
 8386TIP3    H125115   0.557   7.731   0.302
 8386TIP3    H225116   0.465   7.683   0.192
 8387TIP3   OH225117   2.046   0.047   5.227
 8387TIP3    H125118   2.072   0.112   5.292
 8387TIP3    H225119   1.953   0.063   5.212
 8388TIP3   OH225120   3.053   5.588   3.151
 8388TIP3    H125121   3.094   5.540   3.079
 8388TIP3    H225122   3.119   5.651   3.178
 8389TIP3   OH225123   5.799   5.291   2.531
 8389TIP3    H125124   5.738   5.277   2.459
 8389TIP3    H225125   5.883   5.308   2.489
 8390TIP3   OH225126   5.407   7.380   4.125
 8390TIP3    H125127   5.407   7.473   4.147
 8390TIP3    H225128   5.338   7.343   4.180
 8391TIP3   OH225129   8.025   4.360   4.641
 8391TIP3    H125130   7.967   4.396   4.573
 8391TIP3    H225131   8.018   4.421   4.714
 8392TIP3   OH225132   2.395   2.822   1.908
 8392TIP3    H125133   2.373   2.798   1.998
 8392TIP3    H225134   2.310   2.823   1.862
 8393TIP3   OH225135   6.788   5.009   0.657
 8393TIP3    H125136   6.813   5.044   0.571
 8393TIP3    H225137   6.770   5.087   0.710
 8394TIP3   OH225138   6.454   2.515   4.564
 8394TIP3    H125139   6.428   2.607   4.568
 8394TIP3    H225140   6.519   2.511   4.494
 8395TIP3   OH225141   6.576   3.828   4.696
 8395TIP3    H125142   6.505   3.767   4.712
 8395TIP3    H225143   6.654   3.774   4.693
 8396TIP3   OH225144   7.038   6.050   0.351
 8396TIP3    H125145   7.011   6.108   0.422
 8396TIP3    H225146   7.097   6.103   0.298
 8397TIP3   OH225147   0.382   7.450   3.372
 8397TIP3    H125148   0.300   7.404   3.388
 8397TIP3    H225149   0.359   7.524   3.317
 8398TIP3   OH225150   4.656   6.538   2.946
 8398TIP3    H125151   4.642   6.459   2.894
 8398TIP3    H225152   4.729   6.582   2.903
 8399TIP3   OH225153   1.215   4.337   1.164
 8399TIP3    H125154   1.306   4.366   1.155
 8399TIP3    H225155   1.216   4.276   1.237
 8400TIP3   OH225156   4.916   5.904   4.383
 8400TIP3    H125157   4.993   5.922   4.438
 8400TIP3    H225158   4.926   5.813   4.357
 8401TIP3   OH225159   3.695   2.463   2.775
 8401TIP3    H125160   3.786   2.464   2.805
 8401TIP3    H225161   3.648   2.513   2.841
 8402TIP3   OH225162   1.040   6.631   0.726
 8402TIP3    H125163   1.012   6.676   0.806
 8402TIP3    H225164   1.018   6.692   0.655
 8403TIP3   OH225165   3.873   1.340   1.250
 8403TIP3    H125166   3.966   1.337   1.271
 8403TIP3    H225167   3.829   1.329   1.334
 8404TIP3   OH225168   1.037   1.571   5.680
 8404TIP3    H125169   1.128   1.560   5.653
 8404TIP3    H225170   1.010   1.654   5.642
 8405TIP3   OH225171   4.977   1.912   2.632
 8405TIP3    H125172   5.005   1.991   2.678
 8405TIP3    H225173   4.882   1.922   2.623
 8406TIP3   OH225174   7.215   1.350   1.843
 8406TIP3    H125175   7.170   1.428   1.876
 8406TIP3    H225176   7.144   1.285   1.832
 8407TIP3   OH225177   7.529   2.174   0.039
 8407TIP3    H125178   7.443   2.131   0.034
 8407TIP3    H225179   7.592   2.103   0.024
 8408TIP3   OH225180   4.380   5.211   1.000
 8408TIP3    H125181   4.437   5.171   0.935
 8408TIP3    H225182   4.360   5.298   0.965
 8409TIP3   OH225183   5.869   0.629   4.609
 8409TIP3    H125184   5.841   0.539   4.623
 8409TIP3    H225185   5.881   0.637   4.515
 8410TIP3   OH225186   6.713   0.242   0.540
 8410TIP3    H125187   6.771   0.229   0.465
 8410TIP3    H225188   6.746   0.322   0.581
 8411TIP3   OH225189   7.529   2.234   3.332
 8411TIP3    H125190   7.458   2.172   3.346
 8411TIP3    H225191   7.570   2.243   3.418
 8412TIP3   OH225192   8.129   4.210   2.792
 8412TIP3    H125193   8.198   4.256   2.743
 8412TIP3    H225194   8.087   4.154   2.727
 8413TIP3   OH225195   2.640   6.706   0.705
 8413TIP3    H125196   2.636   6.719   0.800
 8413TIP3    H225197   2.650   6.794   0.669
 8414TIP3   OH225198   0.532   1.127   4.182
 8414TIP3    H125199   0.601   1.122   4.248
 8414TIP3    H225200   0.453   1.149   4.231
 8415TIP3   OH225201   1.908   2.112   3.657
 8415TIP3    H125202   1.987   2.154   3.690
 8415TIP3    H225203   1.837   2.167   3.690
 8416TIP3   OH225204   8.027   6.927   5.591
 8416TIP3    H125205   8.046   7.019   5.573
 8416TIP3    H225206   7.997   6.892   5.507
 8417TIP3   OH225207   0.340   1.212   3.879
 8417TIP3    H125208   0.345   1.191   3.972
 8417TIP3    H225209   0.429   1.198   3.846
 8418TIP3   OH225210   1.092   1.549   1.790
 8418TIP3    H125211   1.119   1.488   1.858
 8418TIP3    H225212   0.998   1.563   1.806
 8419TIP3   OH225213   3.652   4.585   5.822
 8419TIP3    H125214   3.574   4.600   5.768
 8419TIP3    H225215   3.644   4.649   5.893
 8420TIP3   OH225216   0.363   3.633   2.262
 8420TIP3    H125217   0.360   3.537   2.263
 8420TIP3    H225218   0.379   3.655   2.170
 8421TIP3   OH225219   2.464   1.483   4.454
 8421TIP3    H125220   2.491   1.570   4.423
 8421TIP3    H225221   2.492   1.480   4.545
 8422TIP3   OH225222   7.305   4.808   3.698
 8422TIP3    H125223   7.336   4.825   3.787
 8422TIP3    H225224   7.215   4.841   3.697
 8423TIP3   OH225225   1.198   0.370   3.407
 8423TIP3    H125226   1.243   0.313   3.346
 8423TIP3    H225227   1.107   0.341   3.406
 8424TIP3   OH225228   3.254   0.961   4.986
 8424TIP3    H125229   3.271   0.961   4.892
 8424TIP3    H225230   3.309   0.890   5.021
 8425TIP3   OH225231   8.124   6.711   4.165
 8425TIP3    H125232   8.167   6.668   4.238
 8425TIP3    H225233   8.156   6.664   4.087
 8426TIP3   OH225234   0.642   6.366   2.062
 8426TIP3    H125235   0.591   6.415   2.126
 8426TIP3    H225236   0.609   6.394   1.977
 8427TIP3   OH225237   5.396   4.191   3.013
 8427TIP3    H125238   5.329   4.124   3.024
 8427TIP3    H225239   5.474   4.142   2.986
 8428TIP3   OH225240   6.638   1.802   1.267
 8428TIP3    H125241   6.623   1.831   1.178
 8428TIP3    H225242   6.596   1.869   1.322
 8429TIP3   OH225243   4.383   7.459   0.351
 8429TIP3    H125244   4.331   7.500   0.420
 8429TIP3    H225245   4.321   7.444   0.280
 8430TIP3   OH225246   0.203   5.249   2.677
 8430TIP3    H125247   0.240   5.337   2.686
 8430TIP3    H225248   0.228   5.221   2.589
 8431TIP3   OH225249   6.405   6.321   5.886
 8431TIP3    H125250   6.427   6.229   5.901
 8431TIP3    H225251   6.468   6.349   5.820
 8432TIP3   OH225252   4.008   2.640   0.809
 8432TIP3    H125253   4.073   2.577   0.777
 8432TIP3    H225254   4.052   2.725   0.805
 8433TIP3   OH225255   5.767   5.457   1.270
 8433TIP3    H125256   5.842   5.486   1.219
 8433TIP3    H225257   5.707   5.532   1.269
 8434TIP3   OH225258   1.041   0.966   3.559
 8434TIP3    H125259   0.991   0.891   3.526
 8434TIP3    H225260   1.041   1.028   3.486
 8435TIP3   OH225261   0.041   5.738   1.751
 8435TIP3    H125262  -0.050   5.730   1.722
 8435TIP3    H225263   0.088   5.768   1.673
 8436TIP3   OH225264   5.430   1.564   2.940
 8436TIP3    H125265   5.418   1.544   3.033
 8436TIP3    H225266   5.342   1.559   2.903
 8437TIP3   OH225267   7.697   6.268   3.285
 8437TIP3    H125268   7.690   6.350   3.236
 8437TIP3    H225269   7.608   6.234   3.288
 8438TIP3   OH225270   6.788   1.519   4.910
 8438TIP3    H125271   6.745   1.569   4.979
 8438TIP3    H225272   6.841   1.455   4.956
 8439TIP3   OH225273   2.975   3.271   4.679
 8439TIP3    H125274   2.964   3.181   4.708
 8439TIP3    H225275   2.894   3.292   4.633
 8440TIP3   OH225276   7.370   6.937   1.966
 8440TIP3    H125277   7.389   6.932   1.872
 8440TIP3    H225278   7.335   6.850   1.988
 8441TIP3   OH225279   1.033   4.086   5.033
 8441TIP3    H125280   1.066   4.071   4.944
 8441TIP3    H225281   1.062   4.010   5.083
 8442TIP3   OH225282   7.441   5.724   0.590
 8442TIP3    H125283   7.443   5.691   0.500
 8442TIP3    H225284   7.361   5.687   0.627
 8443TIP3   OH225285   5.980   4.206   6.673
 8443TIP3    H125286   5.891   4.193   6.639
 8443TIP3    H225287   6.022   4.262   6.607
 8444TIP3   OH225288   5.992   6.621   2.634
 8444TIP3    H125289   6.077   6.664   2.621
 8444TIP3    H225290   5.952   6.669   2.706
 8445TIP3   OH225291   3.454   5.244   4.384
 8445TIP3    H125292   3.470   5.193   4.304
 8445TIP3    H225293   3.506   5.323   4.373
 8446TIP3   OH225294   5.953   4.123   5.238
 8446TIP3    H125295   5.967   4.197   5.180
 8446TIP3    H225296   5.932   4.050   5.179
 8447TIP3   OH225297   1.229   7.298   5.594
 8447TIP3    H125298   1.319   7.268   5.591
 8447TIP3    H225299   1.177   7.224   5.562
 8448TIP3   OH225300   2.172   2.377   5.476
 8448TIP3    H125301   2.191   2.344   5.563
 8448TIP3    H225302   2.219   2.318   5.417
 8449TIP3   OH225303   0.201   1.431   0.242
 8449TIP3    H125304   0.237   1.345   0.221
 8449TIP3    H225305   0.107   1.417   0.249
 8450TIP3   OH225306   0.155   4.562   0.347
 8450TIP3    H125307   0.245   4.540   0.323
 8450TIP3    H225308   0.136   4.503   0.421
 8451TIP3   OH225309   1.680   3.686   6.180
 8451TIP3    H125310   1.632   3.692   6.262
 8451TIP3    H225311   1.634   3.745   6.120
 8452TIP3   OH225312   0.488   2.254   3.393
 8452TIP3    H125313   0.428   2.327   3.381
 8452TIP3    H225314   0.576   2.292   3.387
 8453TIP3   OH225315   1.047   3.625   4.482
 8453TIP3    H125316   0.960   3.653   4.452
 8453TIP3    H225317   1.087   3.705   4.517
 8454TIP3   OH225318   5.106   5.388   3.100
 8454TIP3    H125319   5.172   5.382   3.031
 8454TIP3    H225320   5.142   5.337   3.172
 8455TIP3   OH225321   1.598   1.836   1.363
 8455TIP3    H125322   1.676   1.793   1.396
 8455TIP3    H225323   1.542   1.765   1.331
 8456TIP3   OH225324   6.690   2.908   1.684
 8456TIP3    H125325   6.599   2.879   1.690
 8456TIP3    H225326   6.697   2.947   1.597
 8457TIP3   OH225327   5.122   4.509   1.430
 8457TIP3    H125328   5.211   4.494   1.399
 8457TIP3    H225329   5.122   4.600   1.459
 8458TIP3   OH225330   3.586   7.635   1.188
 8458TIP3    H125331   3.636   7.679   1.120
 8458TIP3    H225332   3.642   7.638   1.265
 8459TIP3   OH225333   1.933   0.988   0.687
 8459TIP3    H125334   1.966   1.015   0.602
 8459TIP3    H225335   1.840   1.010   0.685
 8460TIP3   OH225336   7.418   0.756   0.221
 8460TIP3    H125337   7.498   0.704   0.217
 8460TIP3    H225338   7.377   0.743   0.136
 8461TIP3   OH225339   0.353   7.816   4.889
 8461TIP3    H125340   0.393   7.883   4.834
 8461TIP3    H225341   0.403   7.736   4.870
 8462TIP3   OH225342   4.873   6.896   5.350
 8462TIP3    H125343   4.901   6.919   5.262
 8462TIP3    H225344   4.778   6.886   5.344
 8463TIP3   OH225345   4.044   7.592   0.280
 8463TIP3    H125346   3.993   7.543   0.345
 8463TIP3    H225347   4.073   7.670   0.326
 8464TIP3   OH225348   1.585   2.021   6.064
 8464TIP3    H125349   1.613   2.095   6.010
 8464TIP3    H225350   1.519   1.976   6.011
 8465TIP3   OH225351   3.484   5.043   6.222
 8465TIP3    H125352   3.419   5.002   6.165
 8465TIP3    H225353   3.474   4.998   6.306
 8466TIP3   OH225354   8.167   2.761   5.737
 8466TIP3    H125355   8.236   2.775   5.802
 8466TIP3    H225356   8.211   2.772   5.653
 8467TIP3   OH225357   0.434   3.579   6.561
 8467TIP3    H125358   0.389   3.526   6.627
 8467TIP3    H225359   0.524   3.585   6.592
 8468TIP3   OH225360   6.596   7.342   2.588
 8468TIP3    H125361   6.614   7.248   2.587
 8468TIP3    H225362   6.597   7.366   2.681
 8469TIP3   OH225363   4.542   5.505   6.072
 8469TIP3    H125364   4.569   5.592   6.043
 8469TIP3    H225365   4.488   5.471   6.000
 8470TIP3   OH225366   1.287   6.261   4.275
 8470TIP3    H125367   1.193   6.275   4.266
 8470TIP3    H225368   1.305   6.186   4.218
 8471TIP3   OH225369   1.541   1.167   0.020
 8471TIP3    H125370   1.565   1.127   0.103
 8471TIP3    H225371   1.543   1.261   0.038
 8472TIP3   OH225372   1.526   5.193   4.340
 8472TIP3    H125373   1.586   5.160   4.273
 8472TIP3    H225374   1.566   5.165   4.423
 8473TIP3   OH225375   4.114   7.244   1.874
 8473TIP3    H125376   4.199   7.290   1.871
 8473TIP3    H225377   4.084   7.243   1.783
 8474TIP3   OH225378   3.326   4.934   5.771
 8474TIP3    H125379   3.239   4.972   5.758
 8474TIP3    H225380   3.386   5.009   5.766
 8475TIP3   OH225381   3.129   1.168   0.806
 8475TIP3    H125382   3.190   1.164   0.880
 8475TIP3    H225383   3.176   1.125   0.734
 8476TIP3   OH225384   5.061   1.802   5.954
 8476TIP3    H125385   4.967   1.817   5.963
 8476TIP3    H225386   5.099   1.890   5.955
 8477TIP3   OH225387   0.040   7.066   0.924
 8477TIP3    H125388   0.127   7.078   0.961
 8477TIP3    H225389   0.044   7.107   0.838
 8478TIP3   OH225390   4.213   1.879   5.246
 8478TIP3    H125391   4.223   1.972   5.268
 8478TIP3    H225392   4.237   1.833   5.327
 8479TIP3   OH225393   4.133   1.863   1.182
 8479TIP3    H125394   4.066   1.909   1.132
 8479TIP3    H225395   4.118   1.770   1.164
 8480TIP3   OH225396   2.078   3.250   1.716
 8480TIP3    H125397   2.053   3.339   1.741
 8480TIP3    H225398   2.169   3.242   1.746
 8481TIP3   OH225399   4.791   3.312   0.339
 8481TIP3    H125400   4.827   3.230   0.305
 8481TIP3    H225401   4.857   3.377   0.318
 8482TIP3   OH225402   1.524   7.721   2.416
 8482TIP3    H125403   1.613   7.696   2.443
 8482TIP3    H225404   1.483   7.751   2.497
 8483TIP3   OH225405   6.513   3.382   0.078
 8483TIP3    H125406   6.581   3.367   0.143
 8483TIP3    H225407   6.516   3.476   0.060
 8484TIP3   OH225408   0.805   1.451   5.019
 8484TIP3    H125409   0.734   1.467   5.082
 8484TIP3    H225410   0.760   1.427   4.938
 8485TIP3   OH225411   3.885   1.536   2.874
 8485TIP3    H125412   3.823   1.467   2.896
 8485TIP3    H225413   3.957   1.525   2.936
 8486TIP3   OH225414   4.236   3.260   3.586
 8486TIP3    H125415   4.203   3.348   3.565
 8486TIP3    H225416   4.159   3.204   3.579
 8487TIP3   OH225417   2.594   7.038   4.581
 8487TIP3    H125418   2.677   7.036   4.532
 8487TIP3    H225419   2.588   7.127   4.614
 8488TIP3   OH225420   8.056   6.151   0.679
 8488TIP3    H125421   8.130   6.116   0.729
 8488TIP3    H225422   8.035   6.234   0.724
 8489TIP3   OH225423   0.623   3.087   2.571
 8489TIP3    H125424   0.697   3.049   2.618
 8489TIP3    H225425   0.589   3.154   2.630
 8490TIP3   OH225426   1.713   5.827   2.675
 8490TIP3    H125427   1.779   5.794   2.736
 8490TIP3    H225428   1.757   5.899   2.629
 8491TIP3   OH225429   7.467   0.979   0.361
 8491TIP3    H125430   7.388   0.995   0.310
 8491TIP3    H225431   7.495   0.891   0.336
 8492TIP3   OH225432   2.372   1.036   5.944
 8492TIP3    H125433   2.383   1.126   5.914
 8492TIP3    H225434   2.448   0.990   5.909
 8493TIP3   OH225435   1.709   5.386   6.285
 8493TIP3    H125436   1.747   5.308   6.326
 8493TIP3    H225437   1.785   5.438   6.260
 8494TIP3   OH225438   2.215   7.092   5.787
 8494TIP3    H125439   2.244   7.100   5.696
 8494TIP3    H225440   2.120   7.104   5.783
 8495TIP3   OH225441   3.900   6.493   4.124
 8495TIP3    H125442   3.839   6.537   4.183
 8495TIP3    H225443   3.939   6.564   4.073
 8496TIP3   OH225444   7.842   6.075   3.575
 8496TIP3    H125445   7.750   6.090   3.554
 8496TIP3    H225446   7.888   6.088   3.492
 8497TIP3   OH225447   2.107   6.421   3.597
 8497TIP3    H125448   2.065   6.483   3.537
 8497TIP3    H225449   2.064   6.338   3.581
 8498TIP3   OH225450   5.404   5.034   6.318
 8498TIP3    H125451   5.365   4.951   6.291
 8498TIP3    H225452   5.404   5.030   6.414
 8499TIP3   OH225453   7.616   5.670   2.469
 8499TIP3    H125454   7.559   5.741   2.439
 8499TIP3    H225455   7.701   5.712   2.484
 8500TIP3   OH225456   7.112   6.870   3.714
 8500TIP3    H125457   7.037   6.814   3.735
 8500TIP3    H225458   7.119   6.865   3.618
 8501TIP3   OH225459   0.907   2.386   2.361
 8501TIP3    H125460   0.882   2.426   2.444
 8501TIP3    H225461   0.974   2.322   2.385
 8502TIP3   OH225462   4.241   5.446   2.509
 8502TIP3    H125463   4.292   5.456   2.429
 8502TIP3    H225464   4.205   5.357   2.504
 8503TIP3   OH225465   4.040   2.529   2.138
 8503TIP3    H125466   4.077   2.594   2.078
 8503TIP3    H225467   3.945   2.537   2.126
 8504TIP3   OH225468   2.804   7.587   5.071
 8504TIP3    H125469   2.734   7.540   5.026
 8504TIP3    H225470   2.848   7.520   5.124
 8505TIP3   OH225471   0.574   5.150   6.213
 8505TIP3    H125472   0.561   5.161   6.119
 8505TIP3    H225473   0.600   5.059   6.224
 8506TIP3   OH225474   6.048   1.030   1.705
 8506TIP3    H125475   5.962   1.065   1.727
 8506TIP3    H225476   6.059   0.955   1.762
 8507TIP3   OH225477   8.180   1.133   2.262
 8507TIP3    H125478   8.121   1.173   2.325
 8507TIP3    H225479   8.233   1.072   2.314
 8508TIP3   OH225480   1.787   3.551   1.603
 8508TIP3    H125481   1.783   3.462   1.568
 8508TIP3    H225482   1.758   3.543   1.694
 8509TIP3   OH225483   7.461   6.916   1.707
 8509TIP3    H125484   7.456   6.987   1.644
 8509TIP3    H225485   7.545   6.874   1.690
 8510TIP3   OH225486   1.576   0.259   4.581
 8510TIP3    H125487   1.635   0.249   4.656
 8510TIP3    H225488   1.576   0.353   4.563
 8511TIP3   OH225489   4.674   0.218   2.876
 8511TIP3    H125490   4.583   0.224   2.905
 8511TIP3    H225491   4.677   0.139   2.821
 8512TIP3   OH225492   2.773   5.735   0.082
 8512TIP3    H125493   2.700   5.730   0.020
 8512TIP3    H225494   2.769   5.652   0.131
 8513TIP3   OH225495   1.778   0.213   3.837
 8513TIP3    H125496   1.735   0.262   3.767
 8513TIP3    H225497   1.802   0.280   3.901
 8514TIP3   OH225498   6.361   1.406   2.715
 8514TIP3    H125499   6.317   1.348   2.777
 8514TIP3    H225500   6.294   1.428   2.651
 8515TIP3   OH225501   7.786   1.360   5.088
 8515TIP3    H125502   7.795   1.392   4.999
 8515TIP3    H225503   7.768   1.439   5.140
 8516TIP3   OH225504   7.630   7.132   2.215
 8516TIP3    H125505   7.565   7.134   2.144
 8516TIP3    H225506   7.707   7.175   2.179
 8517TIP3   OH225507   3.070   5.930   1.318
 8517TIP3    H125508   2.999   5.921   1.382
 8517TIP3    H225509   3.026   5.929   1.233
 8518TIP3   OH225510   6.660   7.028   0.282
 8518TIP3    H125511   6.733   6.995   0.231
 8518TIP3    H225512   6.630   6.952   0.333
 8519TIP3   OH225513   3.637   7.507   5.908
 8519TIP3    H125514   3.552   7.498   5.865
 8519TIP3    H225515   3.631   7.591   5.954
 8520TIP3   OH225516   5.370   7.197   0.389
 8520TIP3    H125517   5.425   7.168   0.462
 8520TIP3    H225518   5.424   7.261   0.342
 8521TIP3   OH225519   7.881   4.371   5.074
 8521TIP3    H125520   7.920   4.376   4.987
 8521TIP3    H225521   7.787   4.379   5.058
 8522TIP3   OH225522   2.393   6.644   3.111
 8522TIP3    H125523   2.393   6.589   3.189
 8522TIP3    H225524   2.301   6.667   3.098
 8523TIP3   OH225525   2.244   3.452   0.419
 8523TIP3    H125526   2.230   3.525   0.481
 8523TIP3    H225527   2.309   3.485   0.358
 8524TIP3   OH225528   4.511   3.592   0.714
 8524TIP3    H125529   4.557   3.528   0.659
 8524TIP3    H225530   4.511   3.672   0.662
 8525TIP3   OH225531   3.920   4.732   4.364
 8525TIP3    H125532   3.858   4.659   4.375
 8525TIP3    H225533   3.963   4.714   4.281
 8526TIP3   OH225534   5.125   3.778   1.411
 8526TIP3    H125535   5.089   3.833   1.341
 8526TIP3    H225536   5.219   3.775   1.393
 8527TIP3   OH225537   2.174   0.255   1.987
 8527TIP3    H125538   2.100   0.199   2.011
 8527TIP3    H225539   2.245   0.225   2.044
 8528TIP3   OH225540   7.897   2.687   5.781
 8528TIP3    H125541   7.821   2.744   5.779
 8528TIP3    H225542   7.967   2.738   5.740
 8529TIP3   OH225543   2.995   4.368   5.704
 8529TIP3    H125544   3.002   4.346   5.797
 8529TIP3    H225545   2.904   4.395   5.692
 8530TIP3   OH225546   5.817   0.328   1.237
 8530TIP3    H125547   5.751   0.390   1.268
 8530TIP3    H225548   5.888   0.336   1.300
 8531TIP3   OH225549   4.686   5.149   1.790
 8531TIP3    H125550   4.704   5.055   1.803
 8531TIP3    H225551   4.595   5.151   1.758
 8532TIP3   OH225552   6.941   5.968   2.934
 8532TIP3    H125553   6.915   5.940   2.847
 8532TIP3    H225554   6.968   6.060   2.923
 8533TIP3   OH225555   7.356   5.582   1.837
 8533TIP3    H125556   7.389   5.657   1.788
 8533TIP3    H225557   7.387   5.597   1.927
 8534TIP3   OH225558   8.067   4.436   4.011
 8534TIP3    H125559   8.087   4.485   3.931
 8534TIP3    H225560   8.041   4.503   4.074
 8535TIP3   OH225561   2.094   4.969   6.112
 8535TIP3    H125562   2.028   4.977   6.182
 8535TIP3    H225563   2.148   5.047   6.122
 8536TIP3   OH225564   7.705   1.147   1.391
 8536TIP3    H125565   7.719   1.064   1.346
 8536TIP3    H225566   7.792   1.172   1.423
 8537TIP3   OH225567   6.297   5.542   5.103
 8537TIP3    H125568   6.342   5.617   5.141
 8537TIP3    H225569   6.299   5.559   5.009
 8538TIP3   OH225570   2.272   3.787   3.119
 8538TIP3    H125571   2.225   3.746   3.191
 8538TIP3    H225572   2.204   3.806   3.054
 8539TIP3   OH225573   1.186   2.620   4.848
 8539TIP3    H125574   1.218   2.705   4.878
 8539TIP3    H225575   1.139   2.639   4.767
 8540TIP3   OH225576   1.127   3.439   3.660
 8540TIP3    H125577   1.213   3.428   3.620
 8540TIP3    H225578   1.130   3.383   3.738
 8541TIP3   OH225579   6.590   2.296   2.555
 8541TIP3    H125580   6.606   2.226   2.492
 8541TIP3    H225581   6.587   2.252   2.639
 8542TIP3   OH225582   2.310   5.776   3.501
 8542TIP3    H125583   2.251   5.818   3.563
 8542TIP3    H225584   2.363   5.848   3.466
 8543TIP3   OH225585   2.428   1.178   0.665
 8543TIP3    H125586   2.482   1.172   0.585
 8543TIP3    H225587   2.435   1.270   0.691
 8544TIP3   OH225588   2.216   3.309   6.217
 8544TIP3    H125589   2.260   3.380   6.171
 8544TIP3    H225590   2.191   3.346   6.302
 8545TIP3   OH225591   2.599   2.622   0.483
 8545TIP3    H125592   2.680   2.613   0.433
 8545TIP3    H225593   2.624   2.673   0.560
 8546TIP3   OH225594   7.398   6.749   6.002
 8546TIP3    H125595   7.491   6.737   6.023
 8546TIP3    H225596   7.375   6.831   6.045
 8547TIP3   OH225597   1.046   3.527   2.722
 8547TIP3    H125598   1.080   3.595   2.780
 8547TIP3    H225599   0.956   3.554   2.705
 8548TIP3   OH225600   1.948   3.728   0.209
 8548TIP3    H125601   2.030   3.701   0.249
 8548TIP3    H225602   1.971   3.752   0.120
 8549TIP3   OH225603   2.956   1.305   4.425
 8549TIP3    H125604   2.862   1.288   4.415
 8549TIP3    H225605   2.973   1.380   4.368
 8550TIP3   OH225606   5.067   4.118   5.617
 8550TIP3    H125607   5.053   4.027   5.591
 8550TIP3    H225608   5.130   4.151   5.553
 8551TIP3   OH225609   4.063   3.531   4.810
 8551TIP3    H125610   4.016   3.452   4.782
 8551TIP3    H225611   4.070   3.523   4.905
 8552TIP3   OH225612   6.020   3.563   2.153
 8552TIP3    H125613   5.998   3.480   2.111
 8552TIP3    H225614   6.038   3.622   2.079
 8553TIP3   OH225615   4.978   0.047   3.758
 8553TIP3    H125616   4.971  -0.025   3.821
 8553TIP3    H225617   4.908   0.108   3.783
 8554TIP3   OH225618   6.795   7.277   6.537
 8554TIP3    H125619   6.745   7.309   6.462
 8554TIP3    H225620   6.755   7.320   6.612
 8555TIP3   OH225621   7.634   5.264   4.523
 8555TIP3    H125622   7.707   5.261   4.461
 8555TIP3    H225623   7.665   5.214   4.599
 8556TIP3   OH225624   0.168   1.668   0.493
 8556TIP3    H125625   0.197   1.725   0.422
 8556TIP3    H225626   0.238   1.603   0.503
 8557TIP3   OH225627   0.912   6.575   5.800
 8557TIP3    H125628   0.913   6.609   5.889
 8557TIP3    H225629   0.820   6.558   5.781
 8558TIP3   OH225630   5.494   7.678   6.323
 8558TIP3    H125631   5.539   7.716   6.399
 8558TIP3    H225632   5.418   7.633   6.360
 8559TIP3   OH225633   4.364   7.317   3.973
 8559TIP3    H125634   4.442   7.374   3.977
 8559TIP3    H225635   4.398   7.232   3.945
 8560TIP3   OH225636   6.427   2.566   3.684
 8560TIP3    H125637   6.394   2.494   3.738
 8560TIP3    H225638   6.368   2.638   3.702
 8561TIP3   OH225639   3.900   7.511   2.624
 8561TIP3    H125640   3.938   7.597   2.639
 8561TIP3    H225641   3.859   7.517   2.538
 8562TIP3   OH225642   0.949   5.060   3.662
 8562TIP3    H125643   0.924   5.152   3.660
 8562TIP3    H225644   1.044   5.061   3.673
 8563TIP3   OH225645   7.795   3.987   4.750
 8563TIP3    H125646   7.773   3.956   4.838
 8563TIP3    H225647   7.872   4.042   4.762
 8564TIP3   OH225648   2.872   0.948   1.923
 8564TIP3    H125649   2.807   0.993   1.977
 8564TIP3    H225650   2.954   0.994   1.941
 8565TIP3   OH225651   7.789   5.552   2.808
 8565TIP3    H125652   7.863   5.607   2.782
 8565TIP3    H225653   7.779   5.568   2.902
 8566TIP3   OH225654   2.558   5.858   5.164
 8566TIP3    H125655   2.581   5.769   5.138
 8566TIP3    H225656   2.559   5.908   5.082
 8567TIP3   OH225657   2.044   2.392   2.849
 8567TIP3    H125658   2.014   2.302   2.839
 8567TIP3    H225659   1.990   2.427   2.920
 8568TIP3   OH225660   4.276   5.437   0.900
 8568TIP3    H125661   4.310   5.522   0.872
 8568TIP3    H225662   4.195   5.426   0.851
 8569TIP3   OH225663   7.763   1.151   0.844
 8569TIP3    H125664   7.690   1.131   0.904
 8569TIP3    H225665   7.794   1.066   0.815
 8570TIP3   OH225666   0.700   4.991   2.306
 8570TIP3    H125667   0.712   5.050   2.232
 8570TIP3    H225668   0.789   4.974   2.338
 8571TIP3   OH225669   4.671   7.135   0.004
 8571TIP3    H125670   4.752   7.144   0.053
 8571TIP3    H225671   4.642   7.045   0.021
 8572TIP3   OH225672   4.532   1.255   4.548
 8572TIP3    H125673   4.441   1.226   4.544
 8572TIP3    H225674   4.531   1.342   4.509
 8573TIP3   OH225675   3.865   5.337   6.280
 8573TIP3    H125676   3.836   5.246   6.273
 8573TIP3    H225677   3.890   5.348   6.372
 8574TIP3   OH225678   7.156   3.202   5.506
 8574TIP3    H125679   7.176   3.245   5.422
 8574TIP3    H225680   7.240   3.166   5.534
 8575TIP3   OH225681   5.293   1.926   5.169
 8575TIP3    H125682   5.380   1.946   5.135
 8575TIP3    H225683   5.243   2.007   5.159
 8576TIP3   OH225684   2.673   0.412   2.223
 8576TIP3    H125685   2.610   0.411   2.151
 8576TIP3    H225686   2.663   0.327   2.266
 8577TIP3   OH225687   2.324   7.524   2.051
 8577TIP3    H125688   2.286   7.496   2.134
 8577TIP3    H225689   2.317   7.447   1.994
 8578TIP3   OH225690   3.984   0.472   2.828
 8578TIP3    H125691   3.909   0.517   2.868
 8578TIP3    H225692   4.055   0.482   2.892
 8579TIP3   OH225693   5.665   1.416   4.239
 8579TIP3    H125694   5.598   1.348   4.245
 8579TIP3    H225695   5.746   1.368   4.220
 8580TIP3   OH225696   1.947   7.062   5.757
 8580TIP3    H125697   1.927   7.137   5.814
 8580TIP3    H225698   1.924   6.985   5.809
 8581TIP3   OH225699   6.158   1.484   2.522
 8581TIP3    H125700   6.102   1.414   2.488
 8581TIP3    H225701   6.100   1.560   2.526
 8582TIP3   OH225702   8.016   4.200   5.949
 8582TIP3    H125703   8.013   4.110   5.917
 8582TIP3    H225704   8.031   4.193   6.043
 8583TIP3   OH225705   2.706   1.768   5.534
 8583TIP3    H125706   2.664   1.682   5.524
 8583TIP3    H225707   2.633   1.828   5.552
 8584TIP3   OH225708   1.406   4.135   5.941
 8584TIP3    H125709   1.317   4.147   5.908
 8584TIP3    H225710   1.404   4.170   6.030
 8585TIP3   OH225711   4.703   0.218   0.495
 8585TIP3    H125712   4.784   0.214   0.546
 8585TIP3    H225713   4.641   0.262   0.553
 8586TIP3   OH225714   7.404   5.273   6.177
 8586TIP3    H125715   7.399   5.251   6.271
 8586TIP3    H225716   7.431   5.191   6.135
 8587TIP3   OH225717   5.053   4.224   5.866
 8587TIP3    H125718   5.061   4.184   5.780
 8587TIP3    H225719   5.080   4.155   5.927
 8588TIP3   OH225720   3.572   2.470   2.516
 8588TIP3    H125721   3.602   2.472   2.607
 8588TIP3    H225722   3.500   2.407   2.515
 8589TIP3   OH225723   2.239   1.252   5.193
 8589TIP3    H125724   2.165   1.304   5.224
 8589TIP3    H225725   2.208   1.161   5.198
 8590TIP3   OH225726   1.190   0.936   2.491
 8590TIP3    H125727   1.156   0.908   2.406
 8590TIP3    H225728   1.271   0.984   2.470
 8591TIP3   OH225729   0.217   1.331   5.318
 8591TIP3    H125730   0.253   1.243   5.321
 8591TIP3    H225731   0.156   1.330   5.244
 8592TIP3   OH225732   1.964  -0.015   0.318
 8592TIP3    H125733   1.891   0.010   0.374
 8592TIP3    H225734   1.994   0.067   0.280
 8593TIP3   OH225735   1.215   4.588   1.497
 8593TIP3    H125736   1.250   4.614   1.413
 8593TIP3    H225737   1.272   4.517   1.526
 8594TIP3   OH225738   5.768   1.941   3.911
 8594TIP3    H125739   5.778   2.036   3.916
 8594TIP3    H225740   5.676   1.928   3.889
 8595TIP3   OH225741   5.356   6.369   5.325
 8595TIP3    H125742   5.370   6.292   5.269
 8595TIP3    H225743   5.360   6.443   5.265
 8596TIP3   OH225744   0.209   2.034   3.550
 8596TIP3    H125745   0.193   2.129   3.558
 8596TIP3    H225746   0.303   2.027   3.533
 8597TIP3   OH225747   4.513   6.141   2.458
 8597TIP3    H125748   4.439   6.081   2.457
 8597TIP3    H225749   4.590   6.085   2.459
 8598TIP3   OH225750   7.162   7.327   3.321
 8598TIP3    H125751   7.203   7.382   3.389
 8598TIP3    H225752   7.140   7.389   3.251
 8599TIP3   OH225753   2.517   2.872   0.301
 8599TIP3    H125754   2.467   2.820   0.238
 8599TIP3    H225755   2.559   2.806   0.357
 8600TIP3   OH225756   2.401   6.618   4.716
 8600TIP3    H125757   2.494   6.596   4.719
 8600TIP3    H225758   2.398   6.713   4.723
 8601TIP3   OH225759   5.686   5.171   1.209
 8601TIP3    H125760   5.761   5.156   1.267
 8601TIP3    H225761   5.657   5.261   1.229
 8602TIP3   OH225762   3.130   0.895   0.521
 8602TIP3    H125763   3.208   0.949   0.505
 8602TIP3    H225764   3.144   0.817   0.468
 8603TIP3   OH225765   3.662   0.744   6.010
 8603TIP3    H125766   3.756   0.739   6.028
 8603TIP3    H225767   3.635   0.653   5.999
 8604TIP3   OH225768   4.212   5.326   4.167
 8604TIP3    H125769   4.194   5.232   4.167
 8604TIP3    H225770   4.204   5.353   4.075
 8605TIP3   OH225771   6.678   3.712   5.960
 8605TIP3    H125772   6.756   3.720   5.904
 8605TIP3    H225773   6.627   3.642   5.919
 8606TIP3   OH225774   3.704   5.165   2.133
 8606TIP3    H125775   3.712   5.193   2.042
 8606TIP3    H225776   3.643   5.228   2.172
 8607TIP3   OH225777   1.287   1.634   2.237
 8607TIP3    H125778   1.282   1.729   2.246
 8607TIP3    H225779   1.369   1.618   2.190
 8608TIP3   OH225780   7.441   1.832   5.205
 8608TIP3    H125781   7.519   1.780   5.184
 8608TIP3    H225782   7.371   1.767   5.213
 8609TIP3   OH225783   0.293   0.186   3.557
 8609TIP3    H125784   0.375   0.212   3.599
 8609TIP3    H225785   0.287   0.092   3.572
 8610TIP3   OH225786   4.626   4.821   6.532
 8610TIP3    H125787   4.539   4.785   6.519
 8610TIP3    H225788   4.628   4.848   6.624
 8611TIP3   OH225789   3.404   1.593   4.615
 8611TIP3    H125790   3.326   1.648   4.604
 8611TIP3    H225791   3.429   1.569   4.525
 8612TIP3   OH225792   8.253   2.851   1.739
 8612TIP3    H125793   8.281   2.836   1.829
 8612TIP3    H225794   8.288   2.936   1.716
 8613TIP3   OH225795   6.657   3.103   4.623
 8613TIP3    H125796   6.629   3.155   4.548
 8613TIP3    H225797   6.721   3.041   4.588
 8614TIP3   OH225798   4.791   3.906   1.440
 8614TIP3    H125799   4.783   3.854   1.521
 8614TIP3    H225800   4.829   3.845   1.377
 8615TIP3   OH225801   1.224   7.712   3.107
 8615TIP3    H125802   1.188   7.751   3.187
 8615TIP3    H225803   1.294   7.655   3.137
 8616TIP3   OH225804   0.843   7.179   2.126
 8616TIP3    H125805   0.926   7.177   2.173
 8616TIP3    H225806   0.864   7.220   2.042
 8617TIP3   OH225807   3.034   7.592   0.708
 8617TIP3    H125808   3.039   7.651   0.633
 8617TIP3    H225809   3.052   7.505   0.672
 8618TIP3   OH225810   4.244   6.567   3.478
 8618TIP3    H125811   4.270   6.489   3.429
 8618TIP3    H225812   4.187   6.615   3.418
 8619TIP3   OH225813   5.685   7.538   1.979
 8619TIP3    H125814   5.616   7.497   2.031
 8619TIP3    H225815   5.723   7.466   1.928
 8620TIP3   OH225816   7.117   2.394   5.409
 8620TIP3    H125817   7.053   2.457   5.442
 8620TIP3    H225818   7.193   2.405   5.466
 8621TIP3   OH225819   3.716   5.598   2.183
 8621TIP3    H125820   3.710   5.588   2.088
 8621TIP3    H225821   3.670   5.521   2.218
 8622TIP3   OH225822   6.710   6.049   1.229
 8622TIP3    H125823   6.667   6.096   1.157
 8622TIP3    H225824   6.646   5.982   1.254
 8623TIP3   OH225825   0.378   6.426   3.217
 8623TIP3    H125826   0.420   6.507   3.248
 8623TIP3    H225827   0.385   6.365   3.290
 8624TIP3   OH225828   2.307   0.346   1.767
 8624TIP3    H125829   2.265   0.410   1.710
 8624TIP3    H225830   2.256   0.348   1.848
 8625TIP3   OH225831   1.170   2.434   6.145
 8625TIP3    H125832   1.210   2.504   6.093
 8625TIP3    H225833   1.156   2.363   6.082
 8626TIP3   OH225834   6.583   0.976   5.548
 8626TIP3    H125835   6.677   0.969   5.563
 8626TIP3    H225836   6.575   1.004   5.457
 8627TIP3   OH225837   3.835   7.177   2.848
 8627TIP3    H125838   3.884   7.099   2.875
 8627TIP3    H225839   3.753   7.171   2.895
 8628TIP3   OH225840   3.459   6.114   5.721
 8628TIP3    H125841   3.515   6.185   5.752
 8628TIP3    H225842   3.372   6.137   5.754
 8629TIP3   OH225843   3.727   5.904   6.456
 8629TIP3    H125844   3.774   5.986   6.441
 8629TIP3    H225845   3.683   5.887   6.373
 8630TIP3   OH225846   4.417   6.189   4.358
 8630TIP3    H125847   4.398   6.279   4.384
 8630TIP3    H225848   4.402   6.188   4.263
 8631TIP3   OH225849   7.498   3.875   4.953
 8631TIP3    H125850   7.496   3.848   4.861
 8631TIP3    H225851   7.577   3.832   4.988
 8632TIP3   OH225852   5.997   0.960   5.800
 8632TIP3    H125853   5.996   0.865   5.806
 8632TIP3    H225854   5.915   0.988   5.843
 8633TIP3   OH225855   7.131   2.784   1.140
 8633TIP3    H125856   7.203   2.846   1.156
 8633TIP3    H225857   7.073   2.795   1.216
 8634TIP3   OH225858   6.150   2.017   0.328
 8634TIP3    H125859   6.246   2.019   0.330
 8634TIP3    H225860   6.128   2.023   0.235
 8635TIP3   OH225861   5.069   6.399   1.298
 8635TIP3    H125862   5.039   6.367   1.383
 8635TIP3    H225863   4.999   6.375   1.237
 8636TIP3   OH225864   7.080   2.092   3.569
 8636TIP3    H125865   7.070   2.147   3.647
 8636TIP3    H225866   7.083   2.003   3.603
 8637TIP3   OH225867   2.816   3.491   4.506
 8637TIP3    H125868   2.905   3.480   4.475
 8637TIP3    H225869   2.812   3.582   4.537
 8638TIP3   OH225870   7.934   2.580   0.546
 8638TIP3    H125871   7.841   2.561   0.532
 8638TIP3    H225872   7.937   2.632   0.626
 8639TIP3   OH225873   1.779   6.164   4.146
 8639TIP3    H125874   1.822   6.243   4.112
 8639TIP3    H225875   1.801   6.163   4.239
 8640TIP3   OH225876   3.336   5.947   4.778
 8640TIP3    H125877   3.250   5.911   4.799
 8640TIP3    H225878   3.397   5.891   4.827
 8641TIP3   OH225879   1.371   3.536   2.307
 8641TIP3    H125880   1.402   3.449   2.283
 8641TIP3    H225881   1.345   3.576   2.224
 8642TIP3   OH225882   7.216   0.245   0.905
 8642TIP3    H125883   7.183   0.334   0.897
 8642TIP3    H225884   7.216   0.227   0.999
 8643TIP3   OH225885   6.301   6.667   4.088
 8643TIP3    H125886   6.262   6.653   4.002
 8643TIP3    H225887   6.374   6.606   4.092
 8644TIP3   OH225888   7.727   0.093   4.266
 8644TIP3    H125889   7.716   0.095   4.171
 8644TIP3    H225890   7.644   0.058   4.299
 8645TIP3   OH225891   0.518   5.017   5.736
 8645TIP3    H125892   0.478   4.933   5.757
 8645TIP3    H225893   0.457   5.057   5.674
 8646TIP3   OH225894   8.289   5.215   1.713
 8646TIP3    H125895   8.205   5.171   1.719
 8646TIP3    H225896   8.319   5.223   1.803
 8647TIP3   OH225897   7.276   0.283   3.334
 8647TIP3    H125898   7.304   0.255   3.247
 8647TIP3    H225899   7.253   0.375   3.324
 8648TIP3   OH225900   7.408   6.056   5.703
 8648TIP3    H125901   7.328   6.047   5.651
 8648TIP3    H225902   7.380   6.101   5.782
 8649TIP3   OH225903   2.251   2.227   1.357
 8649TIP3    H125904   2.346   2.231   1.352
 8649TIP3    H225905   2.231   2.133   1.352
 8650TIP3   OH225906   7.957   4.901   2.136
 8650TIP3    H125907   7.882   4.893   2.077
 8650TIP3    H225908   7.951   4.825   2.194
 8651TIP3   OH225909   0.995   6.054   1.887
 8651TIP3    H125910   0.942   6.109   1.830
 8651TIP3    H225911   0.978   6.087   1.975
 8652TIP3   OH225912   1.125   7.394   3.769
 8652TIP3    H125913   1.141   7.464   3.705
 8652TIP3    H225914   1.060   7.338   3.727
 8653TIP3   OH225915   4.374   6.660   5.931
 8653TIP3    H125916   4.376   6.566   5.945
 8653TIP3    H225917   4.466   6.685   5.921
 8654TIP3   OH225918   7.019   7.771   1.262
 8654TIP3    H125919   6.923   7.773   1.257
 8654TIP3    H225920   7.040   7.682   1.289
 8655TIP3   OH225921   2.994   6.433   1.529
 8655TIP3    H125922   3.015   6.475   1.613
 8655TIP3    H225923   2.971   6.343   1.553
 8656TIP3   OH225924   6.552   7.220   3.743
 8656TIP3    H125925   6.475   7.192   3.694
 8656TIP3    H225926   6.518   7.282   3.807
 8657TIP3   OH225927   0.233   4.391   4.587
 8657TIP3    H125928   0.179   4.402   4.665
 8657TIP3    H225929   0.218   4.300   4.560
 8658TIP3   OH225930   1.341   3.424   4.144
 8658TIP3    H125931   1.263   3.406   4.197
 8658TIP3    H225932   1.337   3.518   4.126
 8659TIP3   OH225933   2.406   2.706   3.820
 8659TIP3    H125934   2.350   2.717   3.743
 8659TIP3    H225935   2.434   2.795   3.842
 8660TIP3   OH225936   3.733   5.957   1.850
 8660TIP3    H125937   3.673   5.893   1.887
 8660TIP3    H225938   3.696   5.978   1.764
 8661TIP3   OH225939   5.710   0.658   3.580
 8661TIP3    H125940   5.714   0.572   3.538
 8661TIP3    H225941   5.801   0.679   3.602
 8662TIP3   OH225942   7.521   3.424   0.953
 8662TIP3    H125943   7.437   3.465   0.931
 8662TIP3    H225944   7.585   3.473   0.902
 8663TIP3   OH225945   7.935   0.134   5.584
 8663TIP3    H125946   8.006   0.195   5.603
 8663TIP3    H225947   7.882   0.179   5.517
 8664TIP3   OH225948   1.780   1.523   5.150
 8664TIP3    H125949   1.758   1.432   5.128
 8664TIP3    H225950   1.817   1.518   5.239
 8665TIP3   OH225951   1.079   6.192   4.633
 8665TIP3    H125952   1.097   6.235   4.717
 8665TIP3    H225953   1.082   6.263   4.569
 8666TIP3   OH225954   6.337   6.571   2.695
 8666TIP3    H125955   6.318   6.633   2.625
 8666TIP3    H225956   6.414   6.523   2.664
 8667TIP3   OH225957   7.795   4.648   4.048
 8667TIP3    H125958   7.838   4.604   3.974
 8667TIP3    H225959   7.837   4.613   4.126
 8668TIP3   OH225960   7.994   5.421   5.368
 8668TIP3    H125961   8.008   5.456   5.456
 8668TIP3    H225962   7.943   5.340   5.382
 8669TIP3   OH225963   3.682   7.099   1.619
 8669TIP3    H125964   3.686   7.084   1.525
 8669TIP3    H225965   3.639   7.185   1.627
 8670TIP3   OH225966   7.737   7.151   5.439
 8670TIP3    H125967   7.699   7.064   5.448
 8670TIP3    H225968   7.724   7.174   5.347
 8671TIP3   OH225969   7.945   5.263   0.289
 8671TIP3    H125970   7.921   5.287   0.199
 8671TIP3    H225971   7.863   5.269   0.337
 8672TIP3   OH225972   4.593   6.654   2.637
 8672TIP3    H125973   4.624   6.744   2.647
 8672TIP3    H225974   4.627   6.626   2.553
 8673TIP3   OH225975   7.719   7.255   0.006
 8673TIP3    H125976   7.768   7.331  -0.026
 8673TIP3    H225977   7.722   7.263   0.101
 8674TIP3   OH225978   0.189   2.727   4.315
 8674TIP3    H125979   0.277   2.718   4.279
 8674TIP3    H225980   0.158   2.637   4.326
 8675TIP3   OH225981   6.466   0.633   4.036
 8675TIP3    H125982   6.553   0.665   4.063
 8675TIP3    H225983   6.483   0.581   3.958
 8676TIP3   OH225984   3.847   2.526   6.386
 8676TIP3    H125985   3.815   2.556   6.471
 8676TIP3    H225986   3.935   2.491   6.404
 8677TIP3   OH225987   1.458   3.943   3.615
 8677TIP3    H125988   1.423   3.854   3.622
 8677TIP3    H225989   1.381   3.997   3.596
 8678TIP3   OH225990   4.705   4.153   1.720
 8678TIP3    H125991   4.775   4.120   1.664
 8678TIP3    H225992   4.749   4.176   1.802
 8679TIP3   OH225993   2.213   2.562   4.122
 8679TIP3    H125994   2.212   2.557   4.218
 8679TIP3    H225995   2.301   2.594   4.101
 8680TIP3   OH225996   3.601   7.101   1.076
 8680TIP3    H125997   3.580   7.045   1.002
 8680TIP3    H225998   3.548   7.067   1.148
 8681TIP3   OH225999   2.193   5.457   3.653
 8681TIP3    H126000   2.155   5.400   3.586
 8681TIP3    H226001   2.217   5.536   3.605
 8682TIP3   OH226002   1.491   7.593   1.313
 8682TIP3    H126003   1.513   7.502   1.330
 8682TIP3    H226004   1.506   7.637   1.397
 8683TIP3   OH226005   7.649   3.050   0.461
 8683TIP3    H126006   7.595   3.073   0.537
 8683TIP3    H226007   7.587   3.045   0.388
 8684TIP3   OH226008   2.183   0.741   0.401
 8684TIP3    H126009   2.090   0.743   0.377
 8684TIP3    H226010   2.186   0.771   0.492
 8685TIP3   OH226011   6.807   2.446   0.555
 8685TIP3    H126012   6.744   2.516   0.573
 8685TIP3    H226013   6.893   2.486   0.566
 8686TIP3   OH226014   5.897   2.731   0.116
 8686TIP3    H126015   5.819   2.735   0.060
 8686TIP3    H226016   5.969   2.758   0.059
 8687TIP3   OH226017   3.309   2.522   5.692
 8687TIP3    H126018   3.358   2.460   5.746
 8687TIP3    H226019   3.332   2.608   5.727
 8688TIP3   OH226020   6.525   5.221   0.993
 8688TIP3    H126021   6.456   5.287   1.004
 8688TIP3    H226022   6.536   5.184   1.081
 8689TIP3   OH226023   1.784   1.598   1.979
 8689TIP3    H126024   1.811   1.684   1.947
 8689TIP3    H226025   1.866   1.554   2.001
 8690TIP3   OH226026   5.877   0.936   4.247
 8690TIP3    H126027   5.846   0.932   4.157
 8690TIP3    H226028   5.913   0.849   4.264
 8691TIP3   OH226029   7.565   2.296   4.454
 8691TIP3    H126030   7.494   2.235   4.434
 8691TIP3    H226031   7.555   2.314   4.547
 8692TIP3   OH226032   2.364   7.630   1.311
 8692TIP3    H126033   2.282   7.677   1.324
 8692TIP3    H226034   2.417   7.688   1.257
 8693TIP3   OH226035   7.321   7.537   4.179
 8693TIP3    H126036   7.381   7.462   4.187
 8693TIP3    H226037   7.243   7.500   4.138
 8694TIP3   OH226038   4.040   6.878   0.411
 8694TIP3    H126039   4.019   6.949   0.351
 8694TIP3    H226040   4.134   6.884   0.424
 8695TIP3   OH226041   7.137   0.585   1.904
 8695TIP3    H126042   7.100   0.623   1.984
 8695TIP3    H226043   7.182   0.658   1.862
 8696TIP3   OH226044   1.240   5.143   0.719
 8696TIP3    H126045   1.322   5.099   0.744
 8696TIP3    H226046   1.237   5.134   0.624
 8697TIP3   OH226047   0.762   0.484   5.160
 8697TIP3    H126048   0.708   0.559   5.185
 8697TIP3    H226049   0.850   0.506   5.191
 8698TIP3   OH226050   7.509   3.221   3.512
 8698TIP3    H126051   7.460   3.195   3.433
 8698TIP3    H226052   7.585   3.163   3.512
 8699TIP3   OH226053   4.929   5.693   4.126
 8699TIP3    H126054   4.977   5.613   4.145
 8699TIP3    H226055   4.846   5.664   4.088
 8700TIP3   OH226056   3.721   7.195   5.355
 8700TIP3    H126057   3.636   7.177   5.316
 8700TIP3    H226058   3.721   7.290   5.371
 8701TIP3   OH226059   4.371   3.832   4.286
 8701TIP3    H126060   4.278   3.830   4.262
 8701TIP3    H226061   4.415   3.861   4.206
 8702TIP3   OH226062   5.673   4.945   2.208
 8702TIP3    H126063   5.618   4.904   2.275
 8702TIP3    H226064   5.751   4.973   2.256
 8703TIP3   OH226065   1.301   1.480   5.843
 8703TIP3    H126066   1.270   1.486   5.753
 8703TIP3    H226067   1.368   1.411   5.841
 8704TIP3   OH226068   5.406   6.688   1.185
 8704TIP3    H126069   5.475   6.699   1.251
 8704TIP3    H226070   5.453   6.657   1.108
 8705TIP3   OH226071   5.658   2.761  -0.008
 8705TIP3    H126072   5.609   2.788   0.070
 8705TIP3    H226073   5.595   2.713  -0.061
 8706TIP3   OH226074   6.328   3.147   4.127
 8706TIP3    H126075   6.415   3.119   4.099
 8706TIP3    H226076   6.272   3.133   4.050
 8707TIP3   OH226077   4.142   7.226   2.409
 8707TIP3    H126078   4.102   7.141   2.389
 8707TIP3    H226079   4.158   7.223   2.503
 8708TIP3   OH226080   3.327   5.672   6.053
 8708TIP3    H126081   3.354   5.603   6.114
 8708TIP3    H226082   3.265   5.629   5.995
 8709TIP3   OH226083   4.414   6.526   4.787
 8709TIP3    H126084   4.449   6.478   4.862
 8709TIP3    H226085   4.329   6.558   4.817
 8710TIP3   OH226086   6.126   0.284   2.857
 8710TIP3    H126087   6.047   0.288   2.911
 8710TIP3    H226088   6.094   0.274   2.768
 8711TIP3   OH226089   8.160   1.130   3.613
 8711TIP3    H126090   8.244   1.097   3.646
 8711TIP3    H226091   8.183   1.175   3.531
 8712TIP3   OH226092   8.154   0.288   5.658
 8712TIP3    H126093   8.186   0.288   5.748
 8712TIP3    H226094   8.183   0.372   5.622
 8713TIP3   OH226095   5.226   6.582   3.475
 8713TIP3    H126096   5.171   6.650   3.436
 8713TIP3    H226097   5.165   6.525   3.522
 8714TIP3   OH226098   2.212   5.575   4.694
 8714TIP3    H126099   2.250   5.649   4.648
 8714TIP3    H226100   2.236   5.588   4.786
 8715TIP3   OH226101   4.455   6.517   0.584
 8715TIP3    H126102   4.388   6.584   0.599
 8715TIP3    H226103   4.485   6.492   0.672
 8716TIP3   OH226104   3.855   2.801   6.023
 8716TIP3    H126105   3.886   2.850   6.099
 8716TIP3    H226106   3.891   2.714   6.034
 8717TIP3   OH226107   2.646   5.174   2.655
 8717TIP3    H126108   2.704   5.099   2.644
 8717TIP3    H226109   2.558   5.139   2.641
 8718TIP3   OH226110   4.726   2.714   1.036
 8718TIP3    H126111   4.747   2.802   1.006
 8718TIP3    H226112   4.725   2.660   0.957
 8719TIP3   OH226113   1.062   3.169   2.624
 8719TIP3    H126114   1.078   3.243   2.565
 8719TIP3    H226115   1.107   3.193   2.705
 8720TIP3   OH226116   2.277   1.300   3.444
 8720TIP3    H126117   2.322   1.383   3.463
 8720TIP3    H226118   2.345   1.233   3.452
 8721TIP3   OH226119   1.415   3.441   5.185
 8721TIP3    H126120   1.367   3.368   5.146
 8721TIP3    H226121   1.502   3.405   5.205
 8722TIP3   OH226122   0.204   0.939   2.761
 8722TIP3    H126123   0.250   0.914   2.681
 8722TIP3    H226124   0.238   0.879   2.828
 8723TIP3   OH226125   6.434   6.341   6.386
 8723TIP3    H126126   6.361   6.397   6.361
 8723TIP3    H226127   6.437   6.274   6.318
 8724TIP3   OH226128   6.554   6.249   4.547
 8724TIP3    H126129   6.528   6.338   4.570
 8724TIP3    H226130   6.584   6.211   4.630
 8725TIP3   OH226131   7.967   4.169   4.834
 8725TIP3    H126132   8.056   4.152   4.866
 8725TIP3    H226133   7.980   4.227   4.759
 8726TIP3   OH226134   5.627   6.215   6.579
 8726TIP3    H126135   5.694   6.153   6.606
 8726TIP3    H226136   5.623   6.207   6.484
 8727TIP3   OH226137   3.729   2.273   2.400
 8727TIP3    H126138   3.815   2.260   2.441
 8727TIP3    H226139   3.693   2.349   2.444
 8728TIP3   OH226140   0.238   0.940   3.436
 8728TIP3    H126141   0.261   0.887   3.360
 8728TIP3    H226142   0.306   1.008   3.438
 8729TIP3   OH226143   2.655   5.245   0.662
 8729TIP3    H126144   2.709   5.194   0.722
 8729TIP3    H226145   2.621   5.317   0.715
 8730TIP3   OH226146   4.455   2.774   5.784
 8730TIP3    H126147   4.421   2.699   5.832
 8730TIP3    H226148   4.545   2.750   5.762
 8731TIP3   OH226149   2.648   2.492   5.344
 8731TIP3    H126150   2.616   2.503   5.434
 8731TIP3    H226151   2.736   2.532   5.346
 8732TIP3   OH226152   3.980   7.062   5.302
 8732TIP3    H126153   3.974   7.157   5.302
 8732TIP3    H226154   3.889   7.032   5.297
 8733TIP3   OH226155   7.852   3.019   2.838
 8733TIP3    H126156   7.805   3.101   2.823
 8733TIP3    H226157   7.816   2.959   2.773
 8734TIP3   OH226158   0.777   1.308   3.565
 8734TIP3    H126159   0.816   1.373   3.624
 8734TIP3    H226160   0.802   1.224   3.602
 8735TIP3   OH226161   4.653   2.572   6.757
 8735TIP3    H126162   4.596   2.518   6.813
 8735TIP3    H226163   4.658   2.525   6.675
 8736TIP3   OH226164   0.866   3.958   5.560
 8736TIP3    H126165   0.918   3.900   5.505
 8736TIP3    H226166   0.915   4.040   5.562
 8737TIP3   OH226167   0.564   5.955   6.517
 8737TIP3    H126168   0.619   5.978   6.441
 8737TIP3    H226169   0.579   5.861   6.529
 8738TIP3   OH226170   0.252   5.090   4.442
 8738TIP3    H126171   0.215   5.003   4.430
 8738TIP3    H226172   0.212   5.144   4.373
 8739TIP3   OH226173   1.988   5.488   0.887
 8739TIP3    H126174   1.983   5.452   0.976
 8739TIP3    H226175   1.909   5.456   0.844
 8740TIP3   OH226176   7.359   2.036   4.045
 8740TIP3    H126177   7.320   2.021   3.959
 8740TIP3    H226178   7.332   2.124   4.069
 8741TIP3   OH226179   1.163   2.782   1.579
 8741TIP3    H126180   1.104   2.783   1.504
 8741TIP3    H226181   1.145   2.864   1.626
 8742TIP3   OH226182   5.574   5.356   5.061
 8742TIP3    H126183   5.588   5.428   4.999
 8742TIP3    H226184   5.620   5.282   5.022
 8743TIP3   OH226185   6.211   3.884   0.203
 8743TIP3    H126186   6.274   3.899   0.133
 8743TIP3    H226187   6.163   3.967   0.210
 8744TIP3   OH226188   6.934   2.009   5.835
 8744TIP3    H126189   6.936   2.092   5.883
 8744TIP3    H226190   6.994   2.023   5.761
 8745TIP3   OH226191   6.740   2.040   2.477
 8745TIP3    H126192   6.822   2.041   2.528
 8745TIP3    H226193   6.767   2.016   2.389
 8746TIP3   OH226194   1.251   3.231   5.408
 8746TIP3    H126195   1.168   3.202   5.445
 8746TIP3    H226196   1.269   3.316   5.450
 8747TIP3   OH226197   4.096   5.944   2.075
 8747TIP3    H126198   4.040   6.020   2.092
 8747TIP3    H226199   4.037   5.869   2.085
 8748TIP3   OH226200   7.834   7.697   6.426
 8748TIP3    H126201   7.813   7.789   6.440
 8748TIP3    H226202   7.779   7.670   6.353
 8749TIP3   OH226203   8.221   1.383   4.435
 8749TIP3    H126204   8.139   1.430   4.446
 8749TIP3    H226205   8.232   1.374   4.341
 8750TIP3   OH226206   7.543   0.357   0.267
 8750TIP3    H126207   7.486   0.366   0.343
 8750TIP3    H226208   7.565   0.447   0.243
 8751TIP3   OH226209   5.722   4.308   4.542
 8751TIP3    H126210   5.685   4.220   4.548
 8751TIP3    H226211   5.696   4.339   4.455
 8752TIP3   OH226212   5.761   1.848   3.606
 8752TIP3    H126213   5.814   1.928   3.615
 8752TIP3    H226214   5.684   1.864   3.661
 8753TIP3   OH226215   3.033   4.843   4.913
 8753TIP3    H126216   3.097   4.863   4.981
 8753TIP3    H226217   2.996   4.759   4.938
 8754TIP3   OH226218   2.656   6.624   2.912
 8754TIP3    H126219   2.671   6.533   2.887
 8754TIP3    H226220   2.624   6.619   3.002
 8755TIP3   OH226221   5.418   7.277   6.260
 8755TIP3    H126222   5.421   7.297   6.353
 8755TIP3    H226223   5.369   7.195   6.254
 8756TIP3   OH226224   7.714   2.739   0.096
 8756TIP3    H126225   7.625   2.751   0.127
 8756TIP3    H226226   7.748   2.828   0.085
 8757TIP3   OH226227   5.762   6.324   1.434
 8757TIP3    H126228   5.763   6.230   1.416
 8757TIP3    H226229   5.671   6.350   1.424
 8758TIP3   OH226230   0.549   3.216   2.118
 8758TIP3    H126231   0.507   3.180   2.040
 8758TIP3    H226232   0.590   3.140   2.160
 8759TIP3   OH226233   4.049  -0.010   2.219
 8759TIP3    H126234   4.040  -0.060   2.300
 8759TIP3    H226235   4.067   0.079   2.248
 8760TIP3   OH226236   2.619   2.455   2.025
 8760TIP3    H126237   2.542   2.456   1.968
 8760TIP3    H226238   2.660   2.370   2.009
 8761TIP3   OH226239   3.336   0.989   6.126
 8761TIP3    H126240   3.423   0.950   6.135
 8761TIP3    H226241   3.285   0.922   6.080
 8762TIP3   OH226242   1.015   5.706   6.273
 8762TIP3    H126243   0.970   5.652   6.209
 8762TIP3    H226244   1.044   5.783   6.223
 8763TIP3   OH226245   5.454   2.177   4.644
 8763TIP3    H126246   5.388   2.247   4.640
 8763TIP3    H226247   5.537   2.222   4.626
 8764TIP3   OH226248   4.251   0.280   1.195
 8764TIP3    H126249   4.343   0.289   1.220
 8764TIP3    H226250   4.214   0.368   1.204
 8765TIP3   OH226251   2.371   1.413   0.177
 8765TIP3    H126252   2.453   1.398   0.224
 8765TIP3    H226253   2.391   1.485   0.117
 8766TIP3   OH226254   7.651   1.434   1.805
 8766TIP3    H126255   7.711   1.373   1.763
 8766TIP3    H226256   7.618   1.488   1.733
 8767TIP3   OH226257   7.089   5.982   0.753
 8767TIP3    H126258   7.176   5.983   0.711
 8767TIP3    H226259   7.079   5.891   0.783
 8768TIP3   OH226260   3.179   3.247   3.691
 8768TIP3    H126261   3.262   3.295   3.688
 8768TIP3    H226262   3.178   3.196   3.610
 8769TIP3   OH226263   7.997   3.518   5.365
 8769TIP3    H126264   7.961   3.513   5.453
 8769TIP3    H226265   7.928   3.485   5.308
 8770TIP3   OH226266   3.221   7.155   6.651
 8770TIP3    H126267   3.233   7.061   6.667
 8770TIP3    H226268   3.187   7.189   6.734
 8771TIP3   OH226269   6.112   0.863   5.120
 8771TIP3    H126270   6.121   0.847   5.026
 8771TIP3    H226271   6.197   0.897   5.147
 8772TIP3   OH226272   6.505   5.858   1.259
 8772TIP3    H126273   6.456   5.940   1.256
 8772TIP3    H226274   6.461   5.806   1.326
 8773TIP3   OH226275   1.143   3.979   1.050
 8773TIP3    H126276   1.161   3.982   1.144
 8773TIP3    H226277   1.221   4.017   1.009
 8774TIP3   OH226278   0.777   3.319   2.906
 8774TIP3    H126279   0.701   3.265   2.885
 8774TIP3    H226280   0.748   3.409   2.890
 8775TIP3   OH226281   1.472   5.787   2.571
 8775TIP3    H126282   1.537   5.797   2.640
 8775TIP3    H226283   1.511   5.830   2.495
 8776TIP3   OH226284   3.749   1.424   1.022
 8776TIP3    H126285   3.819   1.386   0.970
 8776TIP3    H226286   3.779   1.417   1.112
 8777TIP3   OH226287   7.923   0.970   5.962
 8777TIP3    H126288   7.916   0.999   6.054
 8777TIP3    H226289   7.928   1.052   5.912
 8778TIP3   OH226290   6.501   3.555   6.633
 8778TIP3    H126291   6.540   3.471   6.611
 8778TIP3    H226292   6.430   3.534   6.692
 8779TIP3   OH226293   3.161   1.387   4.917
 8779TIP3    H126294   3.069   1.384   4.942
 8779TIP3    H226295   3.164   1.341   4.833
 8780TIP3   OH226296   1.507   6.456   0.276
 8780TIP3    H126297   1.502   6.483   0.184
 8780TIP3    H226298   1.464   6.371   0.278
 8781TIP3   OH226299   7.453   5.690   5.606
 8781TIP3    H126300   7.407   5.657   5.682
 8781TIP3    H226301   7.391   5.750   5.564
 8782TIP3   OH226302   1.338   0.712   2.079
 8782TIP3    H126303   1.425   0.677   2.097
 8782TIP3    H226304   1.313   0.671   1.996
 8783TIP3   OH226305   0.265   1.164   4.615
 8783TIP3    H126306   0.341   1.139   4.562
 8783TIP3    H226307   0.214   1.083   4.623
 8784TIP3   OH226308   8.083   6.036   3.691
 8784TIP3    H126309   7.999   6.055   3.650
 8784TIP3    H226310   8.069   6.054   3.784
 8785TIP3   OH226311   5.052   3.737   4.829
 8785TIP3    H126312   4.978   3.782   4.787
 8785TIP3    H226313   5.129   3.787   4.801
 8786TIP3   OH226314   6.617   5.939   0.414
 8786TIP3    H126315   6.673   6.011   0.442
 8786TIP3    H226316   6.550   5.980   0.361
 8787TIP3   OH226317   1.192   1.338   6.057
 8787TIP3    H126318   1.192   1.386   5.974
 8787TIP3    H226319   1.216   1.249   6.034
 8788TIP3   OH226320   7.896   3.394   5.654
 8788TIP3    H126321   7.844   3.455   5.706
 8788TIP3    H226322   7.845   3.313   5.654
 8789TIP3   OH226323   5.765   3.907   5.577
 8789TIP3    H126324   5.737   3.816   5.562
 8789TIP3    H226325   5.755   3.920   5.671
 8790TIP3   OH226326   6.158   1.639   3.118
 8790TIP3    H126327   6.172   1.566   3.178
 8790TIP3    H226328   6.223   1.626   3.049
 8791TIP3   OH226329   8.224   3.620   5.466
 8791TIP3    H126330   8.138   3.599   5.430
 8791TIP3    H226331   8.286   3.591   5.399
 8792TIP3   OH226332   2.460   4.321   4.614
 8792TIP3    H126333   2.394   4.345   4.680
 8792TIP3    H226334   2.485   4.405   4.575
 8793TIP3   OH226335   5.305   5.156   3.189
 8793TIP3    H126336   5.322   5.063   3.179
 8793TIP3    H226337   5.380   5.199   3.148
 8794TIP3   OH226338   1.129   6.132   3.965
 8794TIP3    H126339   1.155   6.211   3.917
 8794TIP3    H226340   1.208   6.078   3.965
 8795TIP3   OH226341   3.654   6.816   0.841
 8795TIP3    H126342   3.604   6.766   0.776
 8795TIP3    H226343   3.744   6.785   0.832
 8796TIP3   OH226344   8.145   1.746   3.447
 8796TIP3    H126345   8.236   1.774   3.437
 8796TIP3    H226346   8.117   1.785   3.530
 8797TIP3   OH226347   7.093   6.225   2.965
 8797TIP3    H126348   7.163   6.159   2.968
 8797TIP3    H226349   7.112   6.282   3.039
 8798TIP3   OH226350   7.775   3.147   5.264
 8798TIP3    H126351   7.869   3.137   5.251
 8798TIP3    H226352   7.758   3.239   5.242
 8799TIP3   OH226353   0.723   0.421   1.955
 8799TIP3    H126354   0.705   0.432   1.862
 8799TIP3    H226355   0.655   0.472   1.999
 8800TIP3   OH226356   4.701   1.592   3.666
 8800TIP3    H126357   4.658   1.634   3.740
 8800TIP3    H226358   4.713   1.501   3.693
 8801TIP3   OH226359   5.915   0.922   2.710
 8801TIP3    H126360   5.853   0.850   2.699
 8801TIP3    H226361   5.982   0.906   2.644
 8802TIP3   OH226362   4.574   0.875   6.314
 8802TIP3    H126363   4.623   0.808   6.362
 8802TIP3    H226364   4.595   0.859   6.222
 8803TIP3   OH226365   7.691   6.525   1.375
 8803TIP3    H126366   7.747   6.465   1.423
 8803TIP3    H226367   7.611   6.531   1.426
 8804TIP3   OH226368   6.036   0.637   0.398
 8804TIP3    H126369   6.060   0.667   0.311
 8804TIP3    H226370   6.065   0.707   0.456
 8805TIP3   OH226371   4.219   7.416   0.150
 8805TIP3    H126372   4.196   7.412   0.058
 8805TIP3    H226373   4.162   7.484   0.187
 8806TIP3   OH226374   0.222   7.471   2.500
 8806TIP3    H126375   0.195   7.562   2.489
 8806TIP3    H226376   0.317   7.475   2.508
 8807TIP3   OH226377   4.339   2.579   6.290
 8807TIP3    H126378   4.375   2.643   6.351
 8807TIP3    H226379   4.248   2.604   6.279
 8808TIP3   OH226380   1.028   3.548   5.477
 8808TIP3    H126381   1.112   3.512   5.504
 8808TIP3    H226382   1.043   3.642   5.472
 8809TIP3   OH226383   2.373   6.536   3.573
 8809TIP3    H126384   2.290   6.504   3.608
 8809TIP3    H226385   2.364   6.631   3.571
 8810TIP3   OH226386   5.278   0.054   6.001
 8810TIP3    H126387   5.279   0.148   6.018
 8810TIP3    H226388   5.307   0.047   5.910
 8811TIP3   OH226389   7.518   0.507   3.842
 8811TIP3    H126390   7.453   0.450   3.885
 8811TIP3    H226391   7.602   0.463   3.859
 8812TIP3   OH226392   6.035   5.558   5.255
 8812TIP3    H126393   6.100   5.567   5.186
 8812TIP3    H226394   6.003   5.468   5.246
 8813TIP3   OH226395   8.119   3.181   1.465
 8813TIP3    H126396   8.164   3.116   1.520
 8813TIP3    H226397   8.105   3.256   1.524
 8814TIP3   OH226398   6.964   5.515   3.404
 8814TIP3    H126399   7.038   5.559   3.363
 8814TIP3    H226400   6.990   5.505   3.496
 8815TIP3   OH226401   1.503   4.965   0.320
 8815TIP3    H126402   1.457   4.900   0.267
 8815TIP3    H226403   1.579   4.989   0.268
 8816TIP3   OH226404   2.951   4.986   2.453
 8816TIP3    H126405   2.924   5.054   2.391
 8816TIP3    H226406   3.034   4.954   2.419
 8817TIP3   OH226407   5.068   3.965   6.185
 8817TIP3    H126408   5.128   4.027   6.145
 8817TIP3    H226409   5.123   3.891   6.210
 8818TIP3   OH226410   0.548   2.775   1.753
 8818TIP3    H126411   0.570   2.848   1.812
 8818TIP3    H226412   0.551   2.697   1.808
 8819TIP3   OH226413   4.417   6.972   6.249
 8819TIP3    H126414   4.504   6.951   6.282
 8819TIP3    H226415   4.357   6.927   6.308
 8820TIP3   OH226416   6.386   3.804   5.111
 8820TIP3    H126417   6.365   3.713   5.092
 8820TIP3    H226418   6.355   3.818   5.201
 8821TIP3   OH226419   4.175   7.358   6.446
 8821TIP3    H126420   4.177   7.354   6.541
 8821TIP3    H226421   4.170   7.451   6.426
 8822TIP3   OH226422   2.294   3.950   5.371
 8822TIP3    H126423   2.337   4.033   5.350
 8822TIP3    H226424   2.263   3.917   5.287
 8823TIP3   OH226425   7.538   4.728   1.689
 8823TIP3    H126426   7.519   4.779   1.768
 8823TIP3    H226427   7.480   4.765   1.622
 8824TIP3   OH226428   3.619   3.176   2.173
 8824TIP3    H126429   3.587   3.089   2.200
 8824TIP3    H226430   3.669   3.207   2.248
 8825TIP3   OH226431   6.038   0.505   2.476
 8825TIP3    H126432   6.124   0.470   2.453
 8825TIP3    H226433   6.041   0.518   2.570
 8826TIP3   OH226434   0.039   6.419   4.398
 8826TIP3    H126435  -0.028   6.386   4.337
 8826TIP3    H226436   0.120   6.417   4.347
 8827TIP3   OH226437   2.059   6.615   3.391
 8827TIP3    H126438   2.120   6.675   3.349
 8827TIP3    H226439   1.986   6.671   3.419
 8828TIP3   OH226440   1.206   4.891   3.444
 8828TIP3    H126441   1.170   4.972   3.408
 8828TIP3    H226442   1.207   4.905   3.539
 8829TIP3   OH226443   5.545   0.207   0.328
 8829TIP3    H126444   5.516   0.125   0.368
 8829TIP3    H226445   5.467   0.242   0.286
 8830TIP3   OH226446   4.017   2.350   5.206
 8830TIP3    H126447   3.945   2.307   5.159
 8830TIP3    H226448   4.079   2.280   5.224
 8831TIP3   OH226449   7.491   3.962   4.451
 8831TIP3    H126450   7.464   3.880   4.410
 8831TIP3    H226451   7.570   3.988   4.403
 8832TIP3   OH226452   0.197   6.828   0.982
 8832TIP3    H126453   0.281   6.824   0.936
 8832TIP3    H226454   0.137   6.866   0.918
 8833TIP3   OH226455   0.039   1.895   3.136
 8833TIP3    H126456  -0.033   1.851   3.179
 8833TIP3    H226457   0.117   1.848   3.165
 8834TIP3   OH226458   0.506   1.737   3.987
 8834TIP3    H126459   0.552   1.708   4.066
 8834TIP3    H226460   0.541   1.825   3.970
 8835TIP3   OH226461   5.095   7.288   2.985
 8835TIP3    H126462   5.189   7.285   2.973
 8835TIP3    H226463   5.067   7.196   2.984
 8836TIP3   OH226464   5.407   4.158   0.289
 8836TIP3    H126465   5.350   4.195   0.221
 8836TIP3    H226466   5.475   4.111   0.241
 8837TIP3   OH226467   5.911   5.649   1.507
 8837TIP3    H126468   5.898   5.727   1.561
 8837TIP3    H226469   5.859   5.665   1.429
 8838TIP3   OH226470   6.912   5.532   3.056
 8838TIP3    H126471   6.946   5.452   3.016
 8838TIP3    H226472   6.817   5.529   3.039
 8839TIP3   OH226473   5.880   2.071   3.210
 8839TIP3    H126474   5.951   2.022   3.251
 8839TIP3    H226475   5.803   2.052   3.264
 8840TIP3   OH226476   5.984   6.579   5.793
 8840TIP3    H126477   6.028   6.495   5.791
 8840TIP3    H226478   6.026   6.630   5.723
 8841TIP3   OH226479   3.955   3.536   1.865
 8841TIP3    H126480   3.861   3.521   1.865
 8841TIP3    H226481   3.994   3.449   1.853
 8842TIP3   OH226482   3.936   7.659   3.593
 8842TIP3    H126483   3.885   7.694   3.665
 8842TIP3    H226484   3.929   7.564   3.602
 8843TIP3   OH226485   8.146   2.820   6.108
 8843TIP3    H126486   8.190   2.853   6.186
 8843TIP3    H226487   8.065   2.871   6.103
 8844TIP3   OH226488   6.348   6.061   6.697
 8844TIP3    H126489   6.304   6.141   6.725
 8844TIP3    H226490   6.440   6.075   6.719
 8845TIP3   OH226491   3.147   3.834   0.468
 8845TIP3    H126492   3.141   3.927   0.490
 8845TIP3    H226493   3.218   3.801   0.523
 8846TIP3   OH226494   4.144   6.446   2.247
 8846TIP3    H126495   4.189   6.364   2.264
 8846TIP3    H226496   4.132   6.448   2.152
 8847TIP3   OH226497   3.411   3.564   4.846
 8847TIP3    H126498   3.387   3.571   4.938
 8847TIP3    H226499   3.342   3.511   4.807
 8848TIP3   OH226500   6.413   6.567   5.206
 8848TIP3    H126501   6.389   6.476   5.221
 8848TIP3    H226502   6.489   6.563   5.149
 8849TIP3   OH226503   1.041   0.930   0.903
 8849TIP3    H126504   0.960   0.927   0.852
 8849TIP3    H226505   1.033   0.858   0.965
 8850TIP3   OH226506   8.102   4.395   3.511
 8850TIP3    H126507   8.155   4.396   3.431
 8850TIP3    H226508   8.164   4.411   3.581
 8851TIP3   OH226509   2.760   0.825   6.669
 8851TIP3    H126510   2.673   0.814   6.630
 8851TIP3    H226511   2.750   0.900   6.728
 8852TIP3   OH226512   4.929   3.273   2.246
 8852TIP3    H126513   4.922   3.179   2.229
 8852TIP3    H226514   5.009   3.283   2.298
 8853TIP3   OH226515   7.861   1.201   5.316
 8853TIP3    H126516   7.835   1.266   5.251
 8853TIP3    H226517   7.784   1.192   5.372
 8854TIP3   OH226518   0.980   4.844   4.563
 8854TIP3    H126519   0.977   4.831   4.468
 8854TIP3    H226520   1.036   4.920   4.575
 8855TIP3   OH226521   4.202   4.531   1.645
 8855TIP3    H126522   4.132   4.572   1.696
 8855TIP3    H226523   4.266   4.502   1.710
 8856TIP3   OH226524   3.371   3.258   6.444
 8856TIP3    H126525   3.449   3.215   6.479
 8856TIP3    H226526   3.325   3.292   6.520
 8857TIP3   OH226527   4.637   7.195   6.442
 8857TIP3    H126528   4.587   7.274   6.422
 8857TIP3    H226529   4.667   7.164   6.357
 8858TIP3   OH226530   4.765   5.621   3.490
 8858TIP3    H126531   4.749   5.528   3.503
 8858TIP3    H226532   4.856   5.633   3.518
 8859TIP3   OH226533   6.737   6.503   3.284
 8859TIP3    H126534   6.748   6.591   3.247
 8859TIP3    H226535   6.643   6.491   3.289
 8860TIP3   OH226536   4.232   2.197   5.262
 8860TIP3    H126537   4.311   2.182   5.314
 8860TIP3    H226538   4.264   2.224   5.176
 8861TIP3   OH226539   1.279   0.294   2.952
 8861TIP3    H126540   1.359   0.304   3.004
 8861TIP3    H226541   1.219   0.359   2.988
 8862TIP3   OH226542   7.838   7.306   5.809
 8862TIP3    H126543   7.928   7.275   5.812
 8862TIP3    H226544   7.818   7.313   5.716
 8863TIP3   OH226545   0.412   6.855   0.825
 8863TIP3    H126546   0.399   6.950   0.828
 8863TIP3    H226547   0.389   6.829   0.736
 8864TIP3   OH226548   4.383   3.089   2.585
 8864TIP3    H126549   4.394   3.180   2.610
 8864TIP3    H226550   4.465   3.047   2.610
 8865TIP3   OH226551   3.770   6.135   3.498
 8865TIP3    H126552   3.815   6.054   3.523
 8865TIP3    H226553   3.837   6.187   3.454
 8866TIP3   OH226554   5.510   5.482   0.381
 8866TIP3    H126555   5.512   5.451   0.291
 8866TIP3    H226556   5.602   5.505   0.400
 8867TIP3   OH226557   3.031   1.018   4.698
 8867TIP3    H126558   3.005   0.978   4.615
 8867TIP3    H226559   3.126   1.032   4.688
 8868TIP3   OH226560   0.315   0.862   4.325
 8868TIP3    H126561   0.263   0.942   4.329
 8868TIP3    H226562   0.271   0.802   4.386
 8869TIP3   OH226563   5.251   3.954   3.355
 8869TIP3    H126564   5.169   3.996   3.331
 8869TIP3    H226565   5.319   4.005   3.311
 8870TIP3   OH226566   5.518   4.884   4.592
 8870TIP3    H126567   5.575   4.854   4.522
 8870TIP3    H226568   5.452   4.937   4.548
 8871TIP3   OH226569   4.902   0.512   3.327
 8871TIP3    H126570   4.823   0.491   3.377
 8871TIP3    H226571   4.953   0.568   3.386
 8872TIP3   OH226572   1.972   2.815   0.111
 8872TIP3    H126573   1.908   2.886   0.102
 8872TIP3    H226574   2.057   2.857   0.098
 8873TIP3   OH226575   7.227   7.101   3.835
 8873TIP3    H126576   7.169   7.177   3.844
 8873TIP3    H226577   7.183   7.044   3.772
 8874TIP3   OH226578   4.798   0.988   3.250
 8874TIP3    H126579   4.837   1.068   3.285
 8874TIP3    H226580   4.869   0.945   3.203
 8875TIP3   OH226581   6.617   4.490   0.642
 8875TIP3    H126582   6.678   4.430   0.684
 8875TIP3    H226583   6.652   4.577   0.661
 8876TIP3   OH226584   0.313   6.174   5.693
 8876TIP3    H126585   0.300   6.243   5.628
 8876TIP3    H226586   0.247   6.191   5.760
 8877TIP3   OH226587   0.921   6.322   0.308
 8877TIP3    H126588   1.016   6.319   0.315
 8877TIP3    H226589   0.899   6.415   0.306
 8878TIP3   OH226590   1.559   5.695   3.261
 8878TIP3    H126591   1.528   5.606   3.277
 8878TIP3    H226592   1.516   5.721   3.179
 8879TIP3   OH226593   6.316   1.754   6.720
 8879TIP3    H126594   6.354   1.749   6.633
 8879TIP3    H226595   6.350   1.676   6.766
 8880TIP3   OH226596   0.684   4.715   3.084
 8880TIP3    H126597   0.620   4.780   3.054
 8880TIP3    H226598   0.655   4.691   3.172
 8881TIP3   OH226599   2.404   2.403   1.541
 8881TIP3    H126600   2.318   2.361   1.545
 8881TIP3    H226601   2.385   2.496   1.554
 8882TIP3   OH226602   6.197   6.961   0.917
 8882TIP3    H126603   6.164   7.047   0.942
 8882TIP3    H226604   6.122   6.903   0.927
 8883TIP3   OH226605   5.653   7.142   0.491
 8883TIP3    H126606   5.660   7.047   0.486
 8883TIP3    H226607   5.713   7.174   0.423
 8884TIP3   OH226608   7.041   3.131   2.566
 8884TIP3    H126609   7.019   3.190   2.495
 8884TIP3    H226610   7.046   3.186   2.643
 8885TIP3   OH226611   1.290   6.802   4.430
 8885TIP3    H126612   1.329   6.800   4.342
 8885TIP3    H226613   1.196   6.793   4.414
 8886TIP3   OH226614   2.570   2.075   2.103
 8886TIP3    H126615   2.504   2.097   2.037
 8886TIP3    H226616   2.629   2.151   2.103
 8887TIP3   OH226617   8.059   6.885   4.898
 8887TIP3    H126618   8.068   6.795   4.930
 8887TIP3    H226619   8.150   6.915   4.888
 8888TIP3   OH226620   3.603   5.505   4.745
 8888TIP3    H126621   3.583   5.412   4.734
 8888TIP3    H226622   3.529   5.540   4.794
 8889TIP3   OH226623   1.674   3.297   5.739
 8889TIP3    H126624   1.625   3.331   5.813
 8889TIP3    H226625   1.608   3.260   5.681
 8890TIP3   OH226626   3.004   4.052   4.657
 8890TIP3    H126627   2.924   4.076   4.608
 8890TIP3    H226628   2.971   4.016   4.739
 8891TIP3   OH226629   4.102   5.734   3.355
 8891TIP3    H126630   4.089   5.713   3.448
 8891TIP3    H226631   4.032   5.686   3.310
 8892TIP3   OH226632   0.982   0.309   2.636
 8892TIP3    H126633   0.946   0.389   2.598
 8892TIP3    H226634   0.941   0.238   2.587
 8893TIP3   OH226635   2.375   2.075   2.803
 8893TIP3    H126636   2.376   2.155   2.855
 8893TIP3    H226637   2.467   2.061   2.779
 8894TIP3   OH226638   7.256   5.112   4.255
 8894TIP3    H126639   7.191   5.173   4.222
 8894TIP3    H226640   7.224   5.026   4.227
 8895TIP3   OH226641   3.188   1.926   6.350
 8895TIP3    H126642   3.139   2.006   6.333
 8895TIP3    H226643   3.269   1.955   6.391
 8896TIP3   OH226644   2.475   2.835   5.526
 8896TIP3    H126645   2.390   2.799   5.501
 8896TIP3    H226646   2.486   2.912   5.470
 8897TIP3   OH226647   4.291   3.764   3.182
 8897TIP3    H126648   4.380   3.742   3.154
 8897TIP3    H226649   4.249   3.679   3.198
 8898TIP3   OH226650   7.483   0.328   5.243
 8898TIP3    H126651   7.529   0.387   5.302
 8898TIP3    H226652   7.427   0.386   5.191
 8899TIP3   OH226653   0.582   3.317   4.927
 8899TIP3    H126654   0.649   3.374   4.889
 8899TIP3    H226655   0.510   3.376   4.947
 8900TIP3   OH226656   7.576   4.747   2.373
 8900TIP3    H126657   7.639   4.804   2.417
 8900TIP3    H226658   7.501   4.743   2.432
 8901TIP3   OH226659   0.827   2.222   2.659
 8901TIP3    H126660   0.740   2.183   2.663
 8901TIP3    H226661   0.887   2.147   2.659
 8902TIP3   OH226662   7.336   7.480   1.439
 8902TIP3    H126663   7.243   7.496   1.454
 8902TIP3    H226664   7.343   7.463   1.345
 8903TIP3   OH226665   5.164   5.410   5.356
 8903TIP3    H126666   5.127   5.474   5.295
 8903TIP3    H226667   5.231   5.364   5.304
 8904TIP3   OH226668   5.182   6.489   2.584
 8904TIP3    H126669   5.180   6.475   2.489
 8904TIP3    H226670   5.241   6.422   2.617
 8905TIP3   OH226671   0.329   5.815   3.531
 8905TIP3    H126672   0.286   5.886   3.484
 8905TIP3    H226673   0.331   5.743   3.469
 8906TIP3   OH226674   4.268   5.223   2.174
 8906TIP3    H126675   4.288   5.314   2.194
 8906TIP3    H226676   4.317   5.173   2.239
 8907TIP3   OH226677   0.832   7.042   4.715
 8907TIP3    H126678   0.740   7.068   4.706
 8907TIP3    H226679   0.881   7.124   4.706
 8908TIP3   OH226680   3.612   7.767   6.353
 8908TIP3    H126681   3.658   7.847   6.376
 8908TIP3    H226682   3.550   7.793   6.285
 8909TIP3   OH226683   2.755   6.890   1.553
 8909TIP3    H126684   2.714   6.970   1.520
 8909TIP3    H226685   2.703   6.819   1.515
 8910TIP3   OH226686   2.059   5.588   0.644
 8910TIP3    H126687   2.110   5.510   0.620
 8910TIP3    H226688   2.033   5.572   0.735
 8911TIP3   OH226689   1.398   7.699   3.461
 8911TIP3    H126690   1.382   7.767   3.527
 8911TIP3    H226691   1.365   7.737   3.379
 8912TIP3   OH226692   1.891   7.355   4.678
 8912TIP3    H126693   1.892   7.267   4.713
 8912TIP3    H226694   1.852   7.409   4.747
 8913TIP3   OH226695   0.428   4.276   3.830
 8913TIP3    H126696   0.443   4.204   3.768
 8913TIP3    H226697   0.456   4.354   3.783
 8914TIP3   OH226698   0.986   5.241   2.389
 8914TIP3    H126699   0.997   5.149   2.367
 8914TIP3    H226700   0.993   5.286   2.305
 8915TIP3   OH226701   3.347  -0.046   0.578
 8915TIP3    H126702   3.294   0.034   0.570
 8915TIP3    H226703   3.437  -0.016   0.565
 8916TIP3   OH226704   3.238   5.217   2.069
 8916TIP3    H126705   3.278   5.301   2.092
 8916TIP3    H226706   3.225   5.173   2.153
 8917TIP3   OH226707   1.345   4.388   5.193
 8917TIP3    H126708   1.433   4.424   5.186
 8917TIP3    H226709   1.290   4.463   5.212
 8918TIP3   OH226710   7.212   3.591   2.601
 8918TIP3    H126711   7.243   3.679   2.578
 8918TIP3    H226712   7.291   3.545   2.631
 8919TIP3   OH226713   5.106   4.041   3.737
 8919TIP3    H126714   5.045   4.067   3.668
 8919TIP3    H226715   5.185   4.014   3.689
 8920TIP3   OH226716   5.540   7.312   2.420
 8920TIP3    H126717   5.572   7.225   2.399
 8920TIP3    H226718   5.600   7.371   2.375
 8921TIP3   OH226719   2.187   5.172   5.429
 8921TIP3    H126720   2.249   5.197   5.361
 8921TIP3    H226721   2.101   5.188   5.390
 8922TIP3   OH226722   6.438   6.147   6.181
 8922TIP3    H126723   6.427   6.112   6.093
 8922TIP3    H226724   6.434   6.071   6.238
 8923TIP3   OH226725   0.613   2.835   0.985
 8923TIP3    H126726   0.650   2.901   0.926
 8923TIP3    H226727   0.585   2.884   1.062
 8924TIP3   OH226728   6.624   5.661   6.719
 8924TIP3    H126729   6.672   5.579   6.705
 8924TIP3    H226730   6.661   5.722   6.655
 8925TIP3   OH226731   8.224   6.591   1.511
 8925TIP3    H126732   8.218   6.676   1.468
 8925TIP3    H226733   8.275   6.607   1.590
 8926TIP3   OH226734   2.946   7.252   0.327
 8926TIP3    H126735   2.996   7.220   0.252
 8926TIP3    H226736   2.963   7.188   0.396
 8927TIP3   OH226737   1.230   3.125   4.767
 8927TIP3    H126738   1.222   3.216   4.795
 8927TIP3    H226739   1.150   3.083   4.798
 8928TIP3   OH226740   8.132   5.800   0.975
 8928TIP3    H126741   8.044   5.798   0.938
 8928TIP3    H226742   8.155   5.893   0.977
 8929TIP3   OH226743   3.199   2.478   4.945
 8929TIP3    H126744   3.209   2.541   5.017
 8929TIP3    H226745   3.233   2.524   4.868
 8930TIP3   OH226746   7.254   3.628   2.068
 8930TIP3    H126747   7.179   3.684   2.089
 8930TIP3    H226748   7.224   3.539   2.087
 8931TIP3   OH226749   6.774   0.004   0.674
 8931TIP3    H126750   6.759   0.027   0.766
 8931TIP3    H226751   6.769   0.087   0.627
 8932TIP3   OH226752   0.253   5.181   6.758
 8932TIP3    H126753   0.186   5.142   6.814
 8932TIP3    H226754   0.224   5.271   6.745
 8933TIP3   OH226755   8.051   3.189   5.211
 8933TIP3    H126756   8.064   3.263   5.151
 8933TIP3    H226757   8.065   3.112   5.157
 8934TIP3   OH226758   7.342   7.461   3.773
 8934TIP3    H126759   7.383   7.396   3.830
 8934TIP3    H226760   7.383   7.544   3.798
 8935TIP3   OH226761   6.659   5.297   4.076
 8935TIP3    H126762   6.635   5.389   4.087
 8935TIP3    H226763   6.576   5.252   4.061
 8936TIP3   OH226764   1.797   0.897   0.015
 8936TIP3    H126765   1.740   0.949   0.071
 8936TIP3    H226766   1.784   0.806   0.044
 8937TIP3   OH226767   6.237   2.647   2.083
 8937TIP3    H126768   6.183   2.659   2.162
 8937TIP3    H226769   6.323   2.621   2.116
 8938TIP3   OH226770   4.686   3.474   4.162
 8938TIP3    H126771   4.694   3.379   4.153
 8938TIP3    H226772   4.646   3.503   4.080
 8939TIP3   OH226773   7.387   4.441   2.412
 8939TIP3    H126774   7.324   4.369   2.414
 8939TIP3    H226775   7.335   4.519   2.433
 8940TIP3   OH226776   8.137   0.729   5.629
 8940TIP3    H126777   8.130   0.811   5.678
 8940TIP3    H226778   8.184   0.670   5.688
 8941TIP3   OH226779   6.792   3.229   5.815
 8941TIP3    H126780   6.811   3.278   5.894
 8941TIP3    H226781   6.696   3.220   5.816
 8942TIP3   OH226782   1.289   2.788   2.741
 8942TIP3    H126783   1.377   2.787   2.777
 8942TIP3    H226784   1.231   2.786   2.817
 8943TIP3   OH226785   7.773   4.532   4.438
 8943TIP3    H126786   7.758   4.499   4.349
 8943TIP3    H226787   7.822   4.613   4.425
 8944TIP3   OH226788   0.684   6.297   2.604
 8944TIP3    H126789   0.650   6.228   2.548
 8944TIP3    H226790   0.613   6.314   2.666
 8945TIP3   OH226791   7.065   4.450   6.511
 8945TIP3    H126792   7.161   4.451   6.506
 8945TIP3    H226793   7.038   4.533   6.472
 8946TIP3   OH226794   7.174   5.910   3.170
 8946TIP3    H126795   7.235   5.839   3.191
 8946TIP3    H226796   7.089   5.878   3.199
 8947TIP3   OH226797   3.892   7.609   0.046
 8947TIP3    H126798   3.826   7.543   0.068
 8947TIP3    H226799   3.948   7.613   0.123
 8948TIP3   OH226800   7.110   1.915   4.135
 8948TIP3    H126801   7.142   1.852   4.071
 8948TIP3    H226802   7.151   1.888   4.217
 8949TIP3   OH226803   3.261   1.254   4.424
 8949TIP3    H126804   3.188   1.309   4.396
 8949TIP3    H226805   3.338   1.311   4.418
 8950TIP3   OH226806   7.419   6.461   3.827
 8950TIP3    H126807   7.421   6.557   3.823
 8950TIP3    H226808   7.326   6.439   3.832
 8951TIP3   OH226809   0.749   2.189   3.861
 8951TIP3    H126810   0.825   2.176   3.804
 8951TIP3    H226811   0.778   2.254   3.925
 8952TIP3   OH226812   5.792   7.459   4.978
 8952TIP3    H126813   5.884   7.446   4.953
 8952TIP3    H226814   5.788   7.435   5.070
 8953TIP3   OH226815   6.623   6.266   1.742
 8953TIP3    H126816   6.718   6.276   1.735
 8953TIP3    H226817   6.596   6.237   1.655
 8954TIP3   OH226818   7.133   1.597   0.686
 8954TIP3    H126819   7.192   1.601   0.611
 8954TIP3    H226820   7.050   1.566   0.650
 8955TIP3   OH226821   0.174   5.605   5.417
 8955TIP3    H126822   0.136   5.641   5.497
 8955TIP3    H226823   0.178   5.511   5.433
 8956TIP3   OH226824   2.161   3.995   3.676
 8956TIP3    H126825   2.066   4.004   3.687
 8956TIP3    H226826   2.174   3.903   3.651
 8957TIP3   OH226827   2.911   6.132   1.531
 8957TIP3    H126828   2.926   6.096   1.618
 8957TIP3    H226829   2.850   6.071   1.489
 8958TIP3   OH226830   7.649   4.585   0.894
 8958TIP3    H126831   7.667   4.667   0.940
 8958TIP3    H226832   7.556   4.569   0.910
 8959TIP3   OH226833   7.676   1.923   3.455
 8959TIP3    H126834   7.701   1.955   3.542
 8959TIP3    H226835   7.581   1.911   3.461
 8960TIP3   OH226836   8.140   0.684   1.753
 8960TIP3    H126837   8.053   0.655   1.728
 8960TIP3    H226838   8.132   0.702   1.847
 8961TIP3   OH226839   6.242   7.391   3.645
 8961TIP3    H126840   6.201   7.441   3.574
 8961TIP3    H226841   6.326   7.434   3.659
 8962TIP3   OH226842   5.400   1.499   3.451
 8962TIP3    H126843   5.385   1.592   3.432
 8962TIP3    H226844   5.441   1.498   3.537
 8963TIP3   OH226845   5.429   2.201   5.420
 8963TIP3    H126846   5.355   2.208   5.480
 8963TIP3    H226847   5.440   2.289   5.384
 8964TIP3   OH226848   0.239   4.401   6.590
 8964TIP3    H126849   0.295   4.473   6.561
 8964TIP3    H226850   0.245   4.336   6.520
 8965TIP3   OH226851   2.013   5.924   2.521
 8965TIP3    H126852   1.988   5.918   2.429
 8965TIP3    H226853   1.957   5.993   2.556
 8966TIP3   OH226854   7.615   6.374   1.011
 8966TIP3    H126855   7.603   6.467   1.032
 8966TIP3    H226856   7.535   6.348   0.966
 8967TIP3   OH226857   3.149   5.036   4.221
 8967TIP3    H126858   3.150   5.132   4.218
 8967TIP3    H226859   3.207   5.009   4.149
 8968TIP3   OH226860   7.476   7.157   5.989
 8968TIP3    H126861   7.479   7.142   5.894
 8968TIP3    H226862   7.477   7.069   6.027
 8969TIP3   OH226863   7.948   2.482   4.508
 8969TIP3    H126864   7.925   2.390   4.495
 8969TIP3    H226865   8.026   2.479   4.563
 8970TIP3   OH226866   6.370   1.714   5.466
 8970TIP3    H126867   6.437   1.646   5.470
 8970TIP3    H226868   6.420   1.796   5.462
 8971TIP3   OH226869   1.487   6.391   3.798
 8971TIP3    H126870   1.519   6.436   3.876
 8971TIP3    H226871   1.564   6.346   3.764
 8972TIP3   OH226872   5.902   4.079   5.946
 8972TIP3    H126873   5.911   4.145   5.877
 8972TIP3    H226874   5.968   4.013   5.925
 8973TIP3   OH226875   7.718   5.659   5.534
 8973TIP3    H126876   7.739   5.596   5.602
 8973TIP3    H226877   7.623   5.670   5.539
 8974TIP3   OH226878   7.324   7.099   1.186
 8974TIP3    H126879   7.413   7.094   1.152
 8974TIP3    H226880   7.306   7.193   1.191
 8975TIP3   OH226881   2.771   1.372   2.617
 8975TIP3    H126882   2.686   1.331   2.604
 8975TIP3    H226883   2.833   1.299   2.620
 8976TIP3   OH226884   1.490   1.692   4.316
 8976TIP3    H126885   1.569   1.646   4.287
 8976TIP3    H226886   1.423   1.624   4.320
 8977TIP3   OH226887   4.037   3.647   5.770
 8977TIP3    H126888   4.064   3.611   5.686
 8977TIP3    H226889   3.942   3.630   5.773
 8978TIP3   OH226890   2.744   2.566   4.309
 8978TIP3    H126891   2.741   2.491   4.368
 8978TIP3    H226892   2.656   2.572   4.273
 8979TIP3   OH226893   4.670   0.669   1.775
 8979TIP3    H126894   4.763   0.649   1.761
 8979TIP3    H226895   4.658   0.664   1.870
 8980TIP3   OH226896   1.687   5.339   3.001
 8980TIP3    H126897   1.697   5.265   2.941
 8980TIP3    H226898   1.739   5.315   3.077
 8981TIP3   OH226899   3.787   5.766   0.306
 8981TIP3    H126900   3.697   5.744   0.284
 8981TIP3    H226901   3.815   5.696   0.365
 8982TIP3   OH226902   4.003   6.805   3.964
 8982TIP3    H126903   4.005   6.882   3.908
 8982TIP3    H226904   4.040   6.735   3.910
 8983TIP3   OH226905   3.910   1.620   1.277
 8983TIP3    H126906   3.854   1.566   1.221
 8983TIP3    H226907   3.875   1.708   1.267
 8984TIP3   OH226908   6.011   0.394   3.381
 8984TIP3    H126909   6.008   0.442   3.298
 8984TIP3    H226910   5.995   0.461   3.448
 8985TIP3   OH226911   5.976   0.704   1.423
 8985TIP3    H126912   6.025   0.783   1.402
 8985TIP3    H226913   5.915   0.731   1.491
 8986TIP3   OH226914   7.684   7.395   1.389
 8986TIP3    H126915   7.664   7.451   1.314
 8986TIP3    H226916   7.693   7.455   1.463
 8987TIP3   OH226917   0.729   6.019   3.009
 8987TIP3    H126918   0.649   5.968   3.012
 8987TIP3    H226919   0.739   6.054   3.098
 8988TIP3   OH226920   3.820   0.280   4.696
 8988TIP3    H126921   3.905   0.275   4.738
 8988TIP3    H226922   3.800   0.190   4.671
 8989TIP3   OH226923   1.861   5.997   3.479
 8989TIP3    H126924   1.955   6.014   3.475
 8989TIP3    H226925   1.844   5.937   3.406
 8990TIP3   OH226926   7.952   5.654   4.210
 8990TIP3    H126927   7.965   5.739   4.169
 8990TIP3    H226928   7.877   5.666   4.268
 8991TIP3   OH226929   4.756   1.533   0.092
 8991TIP3    H126930   4.706   1.473   0.037
 8991TIP3    H226931   4.715   1.618   0.078
 8992TIP3   OH226932   4.540   2.438   2.421
 8992TIP3    H126933   4.446   2.451   2.430
 8992TIP3    H226934   4.554   2.347   2.446
 8993TIP3   OH226935   5.892   1.444   0.590
 8993TIP3    H126936   5.883   1.393   0.670
 8993TIP3    H226937   5.973   1.494   0.603
 8994TIP3   OH226938   5.662   7.514   4.603
 8994TIP3    H126939   5.667   7.418   4.606
 8994TIP3    H226940   5.691   7.543   4.689
 8995TIP3   OH226941   1.383   6.582   6.435
 8995TIP3    H126942   1.408   6.569   6.344
 8995TIP3    H226943   1.297   6.623   6.430
 8996TIP3   OH226944   0.387   6.295   1.690
 8996TIP3    H126945   0.318   6.345   1.645
 8996TIP3    H226946   0.463   6.303   1.633
 8997TIP3   OH226947   0.494   5.387   6.406
 8997TIP3    H126948   0.420   5.448   6.407
 8997TIP3    H226949   0.479   5.333   6.328
 8998TIP3   OH226950   3.438   7.163   2.123
 8998TIP3    H126951   3.494   7.160   2.201
 8998TIP3    H226952   3.494   7.196   2.054
 8999TIP3   OH226953   6.656   0.517   5.110
 8999TIP3    H126954   6.679   0.460   5.037
 8999TIP3    H226955   6.622   0.596   5.069
 9000TIP3   OH226956   1.296   2.986   5.911
 9000TIP3    H126957   1.268   3.070   5.947
 9000TIP3    H226958   1.362   2.954   5.972
 9001TIP3   OH226959   3.072   3.434   1.458
 9001TIP3    H126960   2.998   3.377   1.478
 9001TIP3    H226961   3.135   3.378   1.414
 9002TIP3   OH226962   8.022   1.178   3.853
 9002TIP3    H126963   8.100   1.201   3.904
 9002TIP3    H226964   8.058   1.140   3.772
 9003TIP3   OH226965   5.429   2.710   5.906
 9003TIP3    H126966   5.471   2.648   5.966
 9003TIP3    H226967   5.414   2.788   5.958
 9004TIP3   OH226968   5.706   0.061   4.564
 9004TIP3    H126969   5.694   0.146   4.521
 9004TIP3    H226970   5.794   0.064   4.600
 9005TIP3   OH226971   2.282   3.475   5.017
 9005TIP3    H126972   2.256   3.529   4.943
 9005TIP3    H226973   2.372   3.449   4.997
 9006TIP3   OH226974   3.690   7.247   2.586
 9006TIP3    H126975   3.684   7.214   2.676
 9006TIP3    H226976   3.783   7.269   2.576
 9007TIP3   OH226977   6.594   1.624   5.109
 9007TIP3    H126978   6.532   1.557   5.080
 9007TIP3    H226979   6.555   1.707   5.084
 9008TIP3   OH226980   4.737   4.941   1.514
 9008TIP3    H126981   4.695   5.003   1.455
 9008TIP3    H226982   4.822   4.924   1.474
 9009TIP3   OH226983   1.512   0.397   0.346
 9009TIP3    H126984   1.445   0.332   0.366
 9009TIP3    H226985   1.515   0.399   0.250
 9010TIP3   OH226986   1.058   7.543   3.973
 9010TIP3    H126987   1.094   7.481   3.910
 9010TIP3    H226988   1.085   7.629   3.941
 9011TIP3   OH226989   0.843   2.783   5.973
 9011TIP3    H126990   0.833   2.815   5.883
 9011TIP3    H226991   0.880   2.696   5.963
 9012TIP3   OH226992   6.768   0.764   1.514
 9012TIP3    H126993   6.827   0.715   1.571
 9012TIP3    H226994   6.780   0.855   1.541
 9013TIP3   OH226995   2.353   4.034   1.065
 9013TIP3    H126996   2.372   3.963   1.127
 9013TIP3    H226997   2.422   4.098   1.079
 9014TIP3   OH226998   2.306   0.142   3.777
 9014TIP3    H126999   2.240   0.131   3.846
 9014TIP3    H227000   2.330   0.053   3.752
 9015TIP3   OH227001   3.113   4.991   3.530
 9015TIP3    H127002   3.185   4.981   3.592
 9015TIP3    H227003   3.149   4.959   3.447
 9016TIP3   OH227004   2.331   4.396   1.870
 9016TIP3    H127005   2.255   4.359   1.825
 9016TIP3    H227006   2.340   4.343   1.949
 9017TIP3   OH227007   8.118   0.456   6.664
 9017TIP3    H127008   8.084   0.494   6.583
 9017TIP3    H227009   8.211   0.479   6.664
 9018TIP3   OH227010   6.222   7.090   1.684
 9018TIP3    H127011   6.211   7.010   1.735
 9018TIP3    H227012   6.247   7.060   1.597
 9019TIP3   OH227013   6.630   1.690   0.728
 9019TIP3    H127014   6.696   1.732   0.672
 9019TIP3    H227015   6.674   1.679   0.812
 9020TIP3   OH227016   0.966   3.465   0.173
 9020TIP3    H127017   0.987   3.540   0.229
 9020TIP3    H227018   1.050   3.439   0.135
 9021TIP3   OH227019   7.096   2.417   6.447
 9021TIP3    H127020   7.102   2.389   6.538
 9021TIP3    H227021   7.127   2.342   6.397
 9022TIP3   OH227022   2.857   2.091   3.618
 9022TIP3    H127023   2.765   2.081   3.644
 9022TIP3    H227024   2.867   2.032   3.543
 9023TIP3   OH227025   3.725   4.294   0.880
 9023TIP3    H127026   3.679   4.288   0.964
 9023TIP3    H227027   3.656   4.313   0.817
 9024TIP3   OH227028   0.674   2.044   1.945
 9024TIP3    H127029   0.749   1.987   1.964
 9024TIP3    H227030   0.666   2.100   2.022
 9025TIP3   OH227031   6.750   7.105   3.868
 9025TIP3    H127032   6.670   7.128   3.821
 9025TIP3    H227033   6.813   7.084   3.799
 9026TIP3   OH227034   4.192   2.232   4.669
 9026TIP3    H127035   4.154   2.299   4.614
 9026TIP3    H227036   4.264   2.276   4.715
 9027TIP3   OH227037   7.234   2.043   0.676
 9027TIP3    H127038   7.256   1.995   0.597
 9027TIP3    H227039   7.144   2.074   0.661
 9028TIP3   OH227040   0.918   7.598   1.315
 9028TIP3    H127041   0.870   7.609   1.397
 9028TIP3    H227042   0.980   7.672   1.313
 9029TIP3   OH227043   3.154   5.551   3.449
 9029TIP3    H127044   3.175   5.643   3.432
 9029TIP3    H227045   3.064   5.541   3.418
 9030TIP3   OH227046   0.846   7.630   1.578
 9030TIP3    H127047   0.848   7.535   1.581
 9030TIP3    H227048   0.768   7.653   1.629
 9031TIP3   OH227049   5.156   6.570   4.148
 9031TIP3    H127050   5.095   6.497   4.155
 9031TIP3    H227051   5.162   6.604   4.238
 9032TIP3   OH227052   7.857   7.153   6.658
 9032TIP3    H127053   7.763   7.159   6.645
 9032TIP3    H227054   7.894   7.225   6.608
 9033TIP3   OH227055   4.483   7.362   6.733
 9033TIP3    H127056   4.397   7.322   6.744
 9033TIP3    H227057   4.474   7.418   6.655
 9034TIP3   OH227058   6.159   0.280   6.743
 9034TIP3    H127059   6.084   0.222   6.757
 9034TIP3    H227060   6.201   0.247   6.664
 9035TIP3   OH227061   4.564   7.642   0.888
 9035TIP3    H127062   4.556   7.571   0.952
 9035TIP3    H227063   4.619   7.707   0.931
 9036TIP3   OH227064   7.903   1.974   2.108
 9036TIP3    H127065   7.852   1.986   2.028
 9036TIP3    H227066   7.876   2.046   2.165
 9037TIP3   OH227067   2.110   0.155   6.475
 9037TIP3    H127068   2.169   0.230   6.485
 9037TIP3    H227069   2.079   0.160   6.385
 9038TIP3   OH227070   2.017   0.487   1.790
 9038TIP3    H127071   2.055   0.484   1.703
 9038TIP3    H227072   2.081   0.534   1.843
 9039TIP3   OH227073   0.350   7.538   0.240
 9039TIP3    H127074   0.308   7.557   0.324
 9039TIP3    H227075   0.280   7.506   0.184
 9040TIP3   OH227076   3.499   1.309   6.311
 9040TIP3    H127077   3.523   1.373   6.378
 9040TIP3    H227078   3.472   1.231   6.361
 9041TIP3   OH227079   1.048   1.933   3.590
 9041TIP3    H127080   0.992   1.881   3.534
 9041TIP3    H227081   1.073   1.874   3.661
 9042TIP3   OH227082   0.422   3.811   2.451
 9042TIP3    H127083   0.424   3.738   2.390
 9042TIP3    H227084   0.514   3.832   2.468
 9043TIP3   OH227085   5.585   6.101   0.399
 9043TIP3    H127086   5.654   6.107   0.332
 9043TIP3    H227087   5.511   6.063   0.352
 9044TIP3   OH227088   3.565   3.489   5.207
 9044TIP3    H127089   3.490   3.524   5.159
 9044TIP3    H227090   3.527   3.418   5.261
 9045TIP3   OH227091   7.450   0.876   6.505
 9045TIP3    H127092   7.356   0.878   6.521
 9045TIP3    H227093   7.461   0.925   6.423
 9046TIP3   OH227094   0.252   6.436   1.276
 9046TIP3    H127095   0.264   6.367   1.211
 9046TIP3    H227096   0.192   6.499   1.235
 9047TIP3   OH227097   7.695   3.028   4.054
 9047TIP3    H127098   7.783   3.003   4.025
 9047TIP3    H227099   7.708   3.111   4.100
 9048TIP3   OH227100   2.135   0.404   3.651
 9048TIP3    H127101   2.166   0.364   3.732
 9048TIP3    H227102   2.107   0.329   3.597
 9049TIP3   OH227103   1.598   3.135   6.517
 9049TIP3    H127104   1.589   3.163   6.608
 9049TIP3    H227105   1.628   3.044   6.523
 9050TIP3   OH227106   5.707   7.693   2.802
 9050TIP3    H127107   5.735   7.617   2.852
 9050TIP3    H227108   5.710   7.766   2.864
 9051TIP3   OH227109   0.647   6.509   2.433
 9051TIP3    H127110   0.675   6.437   2.489
 9051TIP3    H227111   0.572   6.547   2.479
 9052TIP3   OH227112   5.606   2.148   4.178
 9052TIP3    H127113   5.698   2.125   4.193
 9052TIP3    H227114   5.607   2.242   4.161
 9053TIP3   OH227115   0.075   7.456   5.379
 9053TIP3    H127116   0.091   7.528   5.317
 9053TIP3    H227117   0.024   7.496   5.450
 9054TIP3   OH227118   3.690   4.214   0.566
 9054TIP3    H127119   3.783   4.233   0.553
 9054TIP3    H227120   3.656   4.290   0.613
 9055TIP3   OH227121   1.191   1.340   3.847
 9055TIP3    H127122   1.211   1.268   3.787
 9055TIP3    H227123   1.253   1.409   3.824
 9056TIP3   OH227124   1.539   4.034   2.972
 9056TIP3    H127125   1.597   4.102   3.006
 9056TIP3    H227126   1.516   4.063   2.884
 9057TIP3   OH227127   6.876   4.366   1.518
 9057TIP3    H127128   6.923   4.450   1.516
 9057TIP3    H227129   6.897   4.329   1.604
 9058TIP3   OH227130   6.941   3.121   6.368
 9058TIP3    H127131   6.901   3.201   6.334
 9058TIP3    H227132   6.883   3.095   6.440
 9059TIP3   OH227133   7.415   4.355   2.122
 9059TIP3    H127134   7.439   4.447   2.127
 9059TIP3    H227135   7.395   4.331   2.213
 9060TIP3   OH227136   1.485   3.152   5.540
 9060TIP3    H127137   1.396   3.182   5.523
 9060TIP3    H227138   1.475   3.082   5.605
 9061TIP3   OH227139   1.538   7.111   2.446
 9061TIP3    H127140   1.520   7.091   2.354
 9061TIP3    H227141   1.609   7.175   2.444
 9062TIP3   OH227142   5.086   4.982   0.308
 9062TIP3    H127143   5.060   4.998   0.217
 9062TIP3    H227144   5.042   5.051   0.358
 9063TIP3   OH227145   2.982   5.235   5.584
 9063TIP3    H127146   2.958   5.328   5.585
 9063TIP3    H227147   2.956   5.205   5.497
 9064TIP3   OH227148   2.485   4.456   3.381
 9064TIP3    H127149   2.444   4.540   3.404
 9064TIP3    H227150   2.414   4.406   3.340
 9065TIP3   OH227151   0.714   3.431   4.707
 9065TIP3    H127152   0.806   3.429   4.680
 9065TIP3    H227153   0.668   3.381   4.639
 9066TIP3   OH227154   6.324   4.350   2.336
 9066TIP3    H127155   6.300   4.399   2.258
 9066TIP3    H227156   6.353   4.418   2.398
 9067TIP3   OH227157   4.043   3.797   3.854
 9067TIP3    H127158   4.017   3.821   3.764
 9067TIP3    H227159   4.008   3.709   3.866
 9068TIP3   OH227160   7.603   4.869   4.876
 9068TIP3    H127161   7.639   4.798   4.929
 9068TIP3    H227162   7.584   4.829   4.792
 9069TIP3   OH227163   5.748   7.571   1.586
 9069TIP3    H127164   5.665   7.586   1.630
 9069TIP3    H227165   5.738   7.614   1.501
 9070TIP3   OH227166   4.779   5.206   4.130
 9070TIP3    H127167   4.822   5.151   4.065
 9070TIP3    H227168   4.741   5.145   4.193
 9071TIP3   OH227169   1.536   7.815   0.279
 9071TIP3    H127170   1.627   7.821   0.309
 9071TIP3    H227171   1.483   7.826   0.358
 9072TIP3   OH227172   0.738   7.514   6.768
 9072TIP3    H127173   0.828   7.511   6.798
 9072TIP3    H227174   0.734   7.590   6.710
 9073TIP3   OH227175   2.551   0.456   3.424
 9073TIP3    H127176   2.593   0.407   3.354
 9073TIP3    H227177   2.516   0.390   3.484
 9074TIP3   OH227178   7.186   7.198   1.478
 9074TIP3    H127179   7.167   7.105   1.465
 9074TIP3    H227180   7.101   7.238   1.496
 9075TIP3   OH227181   0.569   5.566   5.123
 9075TIP3    H127182   0.503   5.545   5.188
 9075TIP3    H227183   0.522   5.567   5.039
 9076TIP3   OH227184   2.630   6.174   3.429
 9076TIP3    H127185   2.717   6.147   3.455
 9076TIP3    H227186   2.640   6.267   3.405
 9077TIP3   OH227187   2.851   1.426   0.620
 9077TIP3    H127188   2.852   1.355   0.556
 9077TIP3    H227189   2.944   1.445   0.635
 9078TIP3   OH227190   6.570   1.863   3.788
 9078TIP3    H127191   6.643   1.818   3.746
 9078TIP3    H227192   6.567   1.826   3.876
 9079TIP3   OH227193   8.132   6.847   6.179
 9079TIP3    H127194   8.178   6.763   6.186
 9079TIP3    H227195   8.199   6.912   6.200
 9080TIP3   OH227196   5.990   0.461   0.686
 9080TIP3    H127197   5.997   0.464   0.782
 9080TIP3    H227198   6.020   0.373   0.663
 9081TIP3   OH227199   8.100   7.727   4.062
 9081TIP3    H127200   8.007   7.710   4.076
 9081TIP3    H227201   8.131   7.650   4.014
 9082TIP3   OH227202   1.801   3.977   1.554
 9082TIP3    H127203   1.866   3.955   1.486
 9082TIP3    H227204   1.854   3.998   1.631
 9083TIP3   OH227205   3.948   0.252   0.444
 9083TIP3    H127206   3.970   0.260   0.351
 9083TIP3    H227207   3.990   0.171   0.472
 9084TIP3   OH227208   0.814   5.253   0.959
 9084TIP3    H127209   0.752   5.187   0.928
 9084TIP3    H227210   0.898   5.207   0.964
 9085TIP3   OH227211   3.015   0.877   4.446
 9085TIP3    H127212   2.969   0.799   4.477
 9085TIP3    H227213   3.086   0.843   4.391
 9086TIP3   OH227214   5.026   1.510   0.209
 9086TIP3    H127215   5.060   1.593   0.175
 9086TIP3    H227216   4.932   1.514   0.193
 9087TIP3   OH227217   6.068   0.741   0.147
 9087TIP3    H127218   6.141   0.735   0.086
 9087TIP3    H227219   6.013   0.810   0.110
 9088TIP3   OH227220   5.981   4.328   2.454
 9088TIP3    H127221   5.981   4.423   2.442
 9088TIP3    H227222   6.008   4.292   2.370
 9089TIP3   OH227223   2.454   2.179   5.727
 9089TIP3    H127224   2.444   2.110   5.662
 9089TIP3    H227225   2.366   2.215   5.738
 9090TIP3   OH227226   8.097   5.451   4.096
 9090TIP3    H127227   8.094   5.401   4.178
 9090TIP3    H227228   8.047   5.530   4.113
 9091TIP3   OH227229   1.372   5.948   6.512
 9091TIP3    H127230   1.277   5.944   6.522
 9091TIP3    H227231   1.404   5.874   6.564
 9092TIP3   OH227232   2.206   3.203   5.011
 9092TIP3    H127233   2.209   3.298   5.018
 9092TIP3    H227234   2.147   3.186   4.938
 9093TIP3   OH227235   2.618   6.224   0.583
 9093TIP3    H127236   2.553   6.209   0.651
 9093TIP3    H227237   2.572   6.274   0.516
 9094TIP3   OH227238   6.548   0.151   2.288
 9094TIP3    H127239   6.479   0.095   2.253
 9094TIP3    H227240   6.626   0.095   2.290
 9095TIP3   OH227241   3.134   7.328   2.366
 9095TIP3    H127242   3.118   7.335   2.272
 9095TIP3    H227243   3.067   7.267   2.397
 9096TIP3   OH227244   7.011   5.445   5.348
 9096TIP3    H127245   6.989   5.510   5.282
 9096TIP3    H227246   7.106   5.443   5.349
 9097TIP3   OH227247   0.242   5.343   3.019
 9097TIP3    H127248   0.319   5.356   3.075
 9097TIP3    H227249   0.222   5.430   2.985
 9098TIP3   OH227250   7.439   0.364   4.719
 9098TIP3    H127251   7.451   0.314   4.800
 9098TIP3    H227252   7.465   0.453   4.742
 9099TIP3   OH227253   2.231   5.979   1.216
 9099TIP3    H127254   2.192   6.050   1.269
 9099TIP3    H227255   2.180   5.902   1.239
 9100TIP3   OH227256   6.840   0.411   4.420
 9100TIP3    H127257   6.848   0.445   4.509
 9100TIP3    H227258   6.896   0.468   4.367
 9101TIP3   OH227259   2.236   7.457   2.299
 9101TIP3    H127260   2.224   7.538   2.349
 9101TIP3    H227261   2.282   7.399   2.360
 9102TIP3   OH227262   3.992   1.552   0.605
 9102TIP3    H127263   4.050   1.623   0.631
 9102TIP3    H227264   3.958   1.580   0.520
 9103TIP3   OH227265   1.495   3.493   1.831
 9103TIP3    H127266   1.421   3.532   1.879
 9103TIP3    H227267   1.536   3.434   1.893
 9104TIP3   OH227268   4.712   3.365   2.421
 9104TIP3    H127269   4.775   3.340   2.352
 9104TIP3    H227270   4.766   3.391   2.495
 9105TIP3   OH227271   6.631   2.057   0.498
 9105TIP3    H127272   6.683   2.085   0.573
 9105TIP3    H227273   6.662   2.112   0.426
 9106TIP3   OH227274   4.711   5.849   4.921
 9106TIP3    H127275   4.621   5.834   4.895
 9106TIP3    H227276   4.705   5.904   4.999
 9107TIP3   OH227277   4.070   2.686   3.678
 9107TIP3    H127278   3.978   2.712   3.683
 9107TIP3    H227279   4.091   2.655   3.766
 9108TIP3   OH227280   0.532   1.962   4.267
 9108TIP3    H127281   0.545   1.987   4.176
 9108TIP3    H227282   0.522   2.045   4.314
 9109TIP3   OH227283   4.486   2.277   6.671
 9109TIP3    H127284   4.522   2.337   6.606
 9109TIP3    H227285   4.412   2.323   6.710
 9110TIP3   OH227286   7.805   6.238   4.984
 9110TIP3    H127287   7.885   6.211   5.027
 9110TIP3    H227288   7.744   6.258   5.055
 9111TIP3   OH227289   4.110   5.880   4.703
 9111TIP3    H127290   4.034   5.932   4.679
 9111TIP3    H227291   4.183   5.920   4.655
 9112TIP3   OH227292   2.608   2.441   0.885
 9112TIP3    H127293   2.680   2.402   0.935
 9112TIP3    H227294   2.533   2.384   0.903
 9113TIP3   OH227295   4.969   7.709   3.102
 9113TIP3    H127296   5.046   7.697   3.158
 9113TIP3    H227297   4.925   7.787   3.138
 9114TIP3   OH227298   3.718   1.255   5.714
 9114TIP3    H127299   3.740   1.295   5.630
 9114TIP3    H227300   3.668   1.322   5.761
 9115TIP3   OH227301   0.627   1.331   5.361
 9115TIP3    H127302   0.618   1.349   5.268
 9115TIP3    H227303   0.578   1.402   5.404
 9116TIP3   OH227304   2.308   0.893   0.086
 9116TIP3    H127305   2.278   0.982   0.069
 9116TIP3    H227306   2.229   0.839   0.080
 9117TIP3   OH227307   6.858   1.281   3.367
 9117TIP3    H127308   6.807   1.326   3.434
 9117TIP3    H227309   6.944   1.267   3.407
 9118TIP3   OH227310   3.297   7.584   2.395
 9118TIP3    H127311   3.246   7.503   2.403
 9118TIP3    H227312   3.382   7.555   2.361
 9119TIP3   OH227313   0.716   7.573   4.186
 9119TIP3    H127314   0.623   7.595   4.198
 9119TIP3    H227315   0.716   7.479   4.171
 9120TIP3   OH227316   6.458   1.522  -0.023
 9120TIP3    H127317   6.469   1.612   0.008
 9120TIP3    H227318   6.365   1.516  -0.046
 9121TIP3   OH227319   5.497   1.608   0.815
 9121TIP3    H127320   5.474   1.674   0.880
 9121TIP3    H227321   5.551   1.545   0.863
 9122TIP3   OH227322   3.731   7.367   1.178
 9122TIP3    H127323   3.679   7.447   1.173
 9122TIP3    H227324   3.667   7.297   1.163
 9123TIP3   OH227325   5.474   4.857   4.298
 9123TIP3    H127326   5.390   4.822   4.328
 9123TIP3    H227327   5.457   4.951   4.284
 9124TIP3   OH227328   3.023   5.440   0.679
 9124TIP3    H127329   2.976   5.524   0.681
 9124TIP3    H227330   2.978   5.390   0.610
 9125TIP3   OH227331   1.544   5.486   1.005
 9125TIP3    H127332   1.579   5.519   0.923
 9125TIP3    H227333   1.616   5.437   1.045
 9126TIP3   OH227334   3.326   0.371   2.739
 9126TIP3    H127335   3.366   0.297   2.693
 9126TIP3    H227336   3.262   0.331   2.798
 9127TIP3   OH227337   6.021   2.481   4.545
 9127TIP3    H127338   6.065   2.563   4.569
 9127TIP3    H227339   5.943   2.478   4.600
 9128TIP3   OH227340   6.315   7.608   2.880
 9128TIP3    H127341   6.363   7.576   2.804
 9128TIP3    H227342   6.368   7.583   2.955
 9129TIP3   OH227343   2.836   1.831   4.992
 9129TIP3    H127344   2.785   1.783   4.926
 9129TIP3    H227345   2.885   1.763   5.039
 9130TIP3   OH227346   3.309   4.054   4.664
 9130TIP3    H127347   3.216   4.034   4.653
 9130TIP3    H227348   3.344   3.980   4.713
 9131TIP3   OH227349   6.226   2.797   4.927
 9131TIP3    H127350   6.188   2.882   4.950
 9131TIP3    H227351   6.267   2.811   4.841
 9132TIP3   OH227352   3.383   7.411   3.593
 9132TIP3    H127353   3.389   7.421   3.498
 9132TIP3    H227354   3.379   7.316   3.607
 9133TIP3   OH227355   0.886   1.839   1.986
 9133TIP3    H127356   0.962   1.845   1.928
 9133TIP3    H227357   0.920   1.861   2.072
 9134TIP3   OH227358   4.737   6.991   5.927
 9134TIP3    H127359   4.645   6.970   5.944
 9134TIP3    H227360   4.783   6.907   5.935
 9135TIP3   OH227361   4.958   7.651   5.345
 9135TIP3    H127362   4.912   7.726   5.307
 9135TIP3    H227363   5.037   7.688   5.384
 9136TIP3   OH227364   7.121   6.684   4.386
 9136TIP3    H127365   7.080   6.598   4.378
 9136TIP3    H227366   7.170   6.695   4.305
 9137TIP3   OH227367   0.169   1.099   4.350
 9137TIP3    H127368   0.165   1.157   4.427
 9137TIP3    H227369   0.166   1.159   4.275
 9138TIP3   OH227370   6.134   3.030   2.975
 9138TIP3    H127371   6.070   3.002   3.041
 9138TIP3    H227372   6.218   3.029   3.022
 9139TIP3   OH227373   0.396   1.385   4.473
 9139TIP3    H127374   0.479   1.346   4.499
 9139TIP3    H227375   0.331   1.342   4.528
 9140TIP3   OH227376   2.473   6.075   4.754
 9140TIP3    H127377   2.454   6.087   4.661
 9140TIP3    H227378   2.540   6.141   4.773
 9141TIP3   OH227379   4.488   0.633   1.354
 9141TIP3    H127380   4.571   0.667   1.320
 9141TIP3    H227381   4.425   0.654   1.286
 9142TIP3   OH227382   6.013   2.897   0.541
 9142TIP3    H127383   5.943   2.884   0.477
 9142TIP3    H227384   6.088   2.927   0.490
 9143TIP3   OH227385   1.565   1.150   0.308
 9143TIP3    H127386   1.510   1.130   0.384
 9143TIP3    H227387   1.608   1.232   0.330
 9144TIP3   OH227388   8.209   0.759   3.443
 9144TIP3    H127389   8.283   0.720   3.490
 9144TIP3    H227390   8.141   0.768   3.510
 9145TIP3   OH227391   1.780   6.119   5.764
 9145TIP3    H127392   1.814   6.093   5.679
 9145TIP3    H227393   1.691   6.082   5.766
 9146TIP3   OH227394   4.348   3.800   2.878
 9146TIP3    H127395   4.338   3.720   2.828
 9146TIP3    H227396   4.403   3.775   2.953
 9147TIP3   OH227397   3.914   4.370   6.063
 9147TIP3    H127398   3.863   4.308   6.010
 9147TIP3    H227399   3.868   4.371   6.147
 9148TIP3   OH227400   3.398   2.096   1.798
 9148TIP3    H127401   3.410   2.152   1.721
 9148TIP3    H227402   3.451   2.137   1.866
 9149TIP3   OH227403   5.492   6.897   4.422
 9149TIP3    H127404   5.493   6.812   4.378
 9149TIP3    H227405   5.577   6.901   4.467
 9150TIP3   OH227406   7.863   4.216   0.952
 9150TIP3    H127407   7.814   4.276   0.896
 9150TIP3    H227408   7.820   4.222   1.037
 9151TIP3   OH227409   4.189   5.243   0.275
 9151TIP3    H127410   4.122   5.175   0.264
 9151TIP3    H227411   4.223   5.229   0.363
 9152TIP3   OH227412   3.289   7.625   2.069
 9152TIP3    H127413   3.357   7.630   2.136
 9152TIP3    H227414   3.334   7.587   1.993
 9153TIP3   OH227415   5.956   1.098   1.326
 9153TIP3    H127416   5.865   1.126   1.336
 9153TIP3    H227417   5.964   1.076   1.233
 9154TIP3   OH227418   0.193   3.996   3.774
 9154TIP3    H127419   0.178   4.090   3.770
 9154TIP3    H227420   0.113   3.957   3.739
 9155TIP3   OH227421   4.716   6.429   4.768
 9155TIP3    H127422   4.733   6.436   4.674
 9155TIP3    H227423   4.622   6.411   4.775
 9156TIP3   OH227424   1.862   2.256   0.385
 9156TIP3    H127425   1.831   2.240   0.296
 9156TIP3    H227426   1.939   2.311   0.374
 9157TIP3   OH227427   5.757   2.673   2.267
 9157TIP3    H127428   5.663   2.660   2.254
 9157TIP3    H227429   5.785   2.593   2.312
 9158TIP3   OH227430   0.606   1.050   5.379
 9158TIP3    H127431   0.631   1.141   5.398
 9158TIP3    H227432   0.665   1.024   5.308
 9159TIP3   OH227433   1.326   6.945   6.743
 9159TIP3    H127434   1.377   7.021   6.771
 9159TIP3    H227435   1.338   6.942   6.648
 9160TIP3   OH227436   2.113   3.542   0.869
 9160TIP3    H127437   2.169   3.468   0.846
 9160TIP3    H227438   2.041   3.502   0.919
 9161TIP3   OH227439   5.090   3.361   0.620
 9161TIP3    H127440   5.067   3.443   0.576
 9161TIP3    H227441   5.114   3.387   0.709
 9162TIP3   OH227442   5.668   4.726   1.002
 9162TIP3    H127443   5.732   4.709   1.071
 9162TIP3    H227444   5.583   4.711   1.044
 9163TIP3   OH227445   3.998   1.321   5.975
 9163TIP3    H127446   3.926   1.358   5.924
 9163TIP3    H227447   3.970   1.329   6.066
 9164TIP3   OH227448   7.544   3.555   6.754
 9164TIP3    H127449   7.516   3.570   6.663
 9164TIP3    H227450   7.639   3.556   6.751
 9165TIP3   OH227451   0.982   3.253   5.851
 9165TIP3    H127452   0.993   3.273   5.944
 9165TIP3    H227453   1.046   3.308   5.806
 9166TIP3   OH227454   6.379   3.029   5.194
 9166TIP3    H127455   6.365   3.055   5.103
 9166TIP3    H227456   6.291   3.023   5.231
 9167TIP3   OH227457   1.442   2.939   5.689
 9167TIP3    H127458   1.387   2.954   5.766
 9167TIP3    H227459   1.528   2.918   5.725
 9168TIP3   OH227460   2.516   4.519   5.845
 9168TIP3    H127461   2.447   4.550   5.786
 9168TIP3    H227462   2.577   4.472   5.787
 9169TIP3   OH227463   0.358   2.106   4.573
 9169TIP3    H127464   0.305   2.027   4.564
 9169TIP3    H227465   0.421   2.085   4.642
 9170TIP3   OH227466   2.144   6.873   1.980
 9170TIP3    H127467   2.238   6.886   1.996
 9170TIP3    H227468   2.127   6.783   2.007
 9171TIP3   OH227469   5.994   2.644   4.950
 9171TIP3    H127470   5.936   2.711   4.914
 9171TIP3    H227471   6.078   2.689   4.960
 9172TIP3   OH227472   7.105   7.379   4.230
 9172TIP3    H127473   7.024   7.430   4.235
 9172TIP3    H227474   7.075   7.290   4.209
 9173TIP3   OH227475   5.073   1.864   3.197
 9173TIP3    H127476   5.032   1.923   3.133
 9173TIP3    H227477   5.007   1.797   3.212
 9174TIP3   OH227478   0.085   2.842   1.093
 9174TIP3    H127479   0.055   2.933   1.100
 9174TIP3    H227480   0.180   2.847   1.104
 9175TIP3   OH227481   1.484   7.106   2.181
 9175TIP3    H127482   1.486   7.031   2.122
 9175TIP3    H227483   1.472   7.182   2.124
 9176TIP3   OH227484   0.673   2.963   3.749
 9176TIP3    H127485   0.735   3.020   3.705
 9176TIP3    H227486   0.720   2.933   3.828
 9177TIP3   OH227487   7.388   6.835   3.587
 9177TIP3    H127488   7.339   6.917   3.580
 9177TIP3    H227489   7.400   6.807   3.496
 9178TIP3   OH227490   0.469   7.538   1.354
 9178TIP3    H127491   0.505   7.615   1.398
 9178TIP3    H227492   0.380   7.530   1.388
 9179TIP3   OH227493   8.229   5.514   0.969
 9179TIP3    H127494   8.212   5.608   0.973
 9179TIP3    H227495   8.312   5.502   1.015
 9180TIP3   OH227496   1.703   3.400   2.658
 9180TIP3    H127497   1.697   3.486   2.616
 9180TIP3    H227498   1.633   3.348   2.619
 9181TIP3   OH227499   0.383   6.707   6.285
 9181TIP3    H127500   0.358   6.680   6.373
 9181TIP3    H227501   0.337   6.790   6.271
 9182TIP3   OH227502   8.241   0.031   4.189
 9182TIP3    H127503   8.274   0.121   4.198
 9182TIP3    H227504   8.290  -0.005   4.115
 9183TIP3   OH227505   8.292   6.818   0.237
 9183TIP3    H127506   8.368   6.804   0.181
 9183TIP3    H227507   8.328   6.846   0.321
 9184TIP3   OH227508   6.491   0.475   6.799
 9184TIP3    H127509   6.554   0.484   6.728
 9184TIP3    H227510   6.529   0.525   6.872
 9185TIP3   OH227511   3.126   4.832   5.493
 9185TIP3    H127512   3.102   4.818   5.584
 9185TIP3    H227513   3.176   4.753   5.469
 9186TIP3   OH227514   3.815   7.549   2.919
 9186TIP3    H127515   3.818   7.470   2.865
 9186TIP3    H227516   3.883   7.605   2.884
 9187TIP3   OH227517   6.436   4.193   0.404
 9187TIP3    H127518   6.368   4.147   0.453
 9187TIP3    H227519   6.430   4.283   0.434
 9188TIP3   OH227520   5.561   0.889   1.145
 9188TIP3    H127521   5.579   0.852   1.059
 9188TIP3    H227522   5.614   0.968   1.149
 9189TIP3   OH227523   1.103   5.748   4.063
 9189TIP3    H127524   1.144   5.792   4.138
 9189TIP3    H227525   1.146   5.663   4.059
 9190TIP3   OH227526   1.270   3.106   3.529
 9190TIP3    H127527   1.299   3.085   3.618
 9190TIP3    H227528   1.175   3.120   3.538
 9191TIP3   OH227529   6.826   3.960   5.128
 9191TIP3    H127530   6.759   4.000   5.184
 9191TIP3    H227531   6.787   3.961   5.041
 9192TIP3   OH227532   0.285   6.900   1.507
 9192TIP3    H127533   0.265   6.907   1.414
 9192TIP3    H227534   0.365   6.847   1.511
 9193TIP3   OH227535   2.624   3.112   1.584
 9193TIP3    H127536   2.680   3.041   1.555
 9193TIP3    H227537   2.596   3.087   1.672
 9194TIP3   OH227538   6.862   3.573   4.083
 9194TIP3    H127539   6.943   3.571   4.032
 9194TIP3    H227540   6.811   3.643   4.044
 9195TIP3   OH227541   6.581   1.397   6.513
 9195TIP3    H127542   6.504   1.359   6.554
 9195TIP3    H227543   6.567   1.383   6.419
 9196TIP3   OH227544   3.376   0.428   2.249
 9196TIP3    H127545   3.467   0.413   2.273
 9196TIP3    H227546   3.350   0.349   2.202
 9197TIP3   OH227547   6.713   7.437   0.422
 9197TIP3    H127548   6.718   7.407   0.331
 9197TIP3    H227549   6.723   7.357   0.474
 9198TIP3   OH227550   1.897   2.018   6.314
 9198TIP3    H127551   1.823   2.069   6.345
 9198TIP3    H227552   1.860   1.961   6.246
 9199TIP3   OH227553   7.580   6.222   1.263
 9199TIP3    H127554   7.617   6.262   1.341
 9199TIP3    H227555   7.619   6.270   1.190
 9200TIP3   OH227556   0.427   0.530   5.819
 9200TIP3    H127557   0.480   0.597   5.774
 9200TIP3    H227558   0.446   0.544   5.911
 9201TIP3   OH227559   0.711   7.610   5.304
 9201TIP3    H127560   0.739   7.678   5.365
 9201TIP3    H227561   0.616   7.609   5.310
 9202TIP3   OH227562   3.422   5.306   0.070
 9202TIP3    H127563   3.483   5.379   0.081
 9202TIP3    H227564   3.458   5.255  -0.003
 9203TIP3   OH227565   5.035   5.015   2.794
 9203TIP3    H127566   5.021   4.937   2.847
 9203TIP3    H227567   5.043   4.982   2.704
 9204TIP3   OH227568   5.254   4.109   6.029
 9204TIP3    H127569   5.288   4.191   6.063
 9204TIP3    H227570   5.330   4.051   6.024
 9205TIP3   OH227571   2.041   2.191   0.577
 9205TIP3    H127572   1.965   2.241   0.547
 9205TIP3    H227573   2.071   2.144   0.499
 9206TIP3   OH227574   7.594   4.001   0.964
 9206TIP3    H127575   7.551   3.919   0.986
 9206TIP3    H227576   7.568   4.061   1.034
 9207TIP3   OH227577   3.453   4.366   1.040
 9207TIP3    H127578   3.396   4.347   0.966
 9207TIP3    H227579   3.415   4.443   1.081
 9208TIP3   OH227580   6.159   4.804   1.776
 9208TIP3    H127581   6.237   4.799   1.722
 9208TIP3    H227582   6.094   4.751   1.728
 9209TIP3   OH227583   3.570   3.779   5.886
 9209TIP3    H127584   3.602   3.865   5.913
 9209TIP3    H227585   3.623   3.757   5.809
 9210TIP3   OH227586   0.730   2.805   6.739
 9210TIP3    H127587   0.799   2.814   6.674
 9210TIP3    H227588   0.729   2.711   6.760
 9211TIP3   OH227589   5.132   1.321   2.852
 9211TIP3    H127590   5.166   1.391   2.796
 9211TIP3    H227591   5.049   1.355   2.886
 9212TIP3   OH227592   7.047   2.502   5.812
 9212TIP3    H127593   7.035   2.469   5.902
 9212TIP3    H227594   7.037   2.597   5.820
 9213TIP3   OH227595   3.712   4.441   1.640
 9213TIP3    H127596   3.648   4.492   1.591
 9213TIP3    H227597   3.662   4.368   1.676
 9214TIP3   OH227598   0.093   0.584   2.321
 9214TIP3    H127599   0.128   0.669   2.349
 9214TIP3    H227600   0.003   0.584   2.352
 9215TIP3   OH227601   5.974   7.427   1.581
 9215TIP3    H127602   5.902   7.484   1.557
 9215TIP3    H227603   5.999   7.384   1.500
 9216TIP3   OH227604   4.442   4.338   2.256
 9216TIP3    H127605   4.506   4.346   2.186
 9216TIP3    H227606   4.362   4.310   2.212
 9217TIP3   OH227607   4.002   7.445   0.512
 9217TIP3    H127608   3.987   7.351   0.511
 9217TIP3    H227609   4.094   7.455   0.533
 9218TIP3   OH227610   3.920   0.364   5.921
 9218TIP3    H127611   3.826   0.379   5.924
 9218TIP3    H227612   3.945   0.348   6.012
 9219TIP3   OH227613   8.025   2.997   0.194
 9219TIP3    H127614   8.094   2.941   0.160
 9219TIP3    H227615   7.975   2.940   0.253
 9220TIP3   OH227616   3.123   3.004   6.338
 9220TIP3    H127617   3.174   3.052   6.403
 9220TIP3    H227618   3.050   3.062   6.316
 9221TIP3   OH227619   5.593   6.777   0.983
 9221TIP3    H127620   5.553   6.843   0.926
 9221TIP3    H227621   5.601   6.820   1.068
 9222TIP3   OH227622   4.202   2.195   6.172
 9222TIP3    H127623   4.134   2.130   6.153
 9222TIP3    H227624   4.227   2.229   6.087
 9223TIP3   OH227625   6.455   7.496   6.220
 9223TIP3    H127626   6.403   7.434   6.170
 9223TIP3    H227627   6.472   7.568   6.160
 9224TIP3   OH227628   7.706   6.625   2.711
 9224TIP3    H127629   7.694   6.531   2.724
 9224TIP3    H227630   7.750   6.632   2.626
 9225TIP3   OH227631   3.269   4.772   4.030
 9225TIP3    H127632   3.317   4.792   4.110
 9225TIP3    H227633   3.283   4.678   4.016
 9226TIP3   OH227634   6.527   7.623   0.197
 9226TIP3    H127635   6.614   7.662   0.209
 9226TIP3    H227636   6.544   7.529   0.188
 9227TIP3   OH227637   5.659   6.933   6.410
 9227TIP3    H127638   5.662   7.026   6.432
 9227TIP3    H227639   5.723   6.892   6.469
 9228TIP3   OH227640   8.200   4.787   5.181
 9228TIP3    H127641   8.291   4.800   5.154
 9228TIP3    H227642   8.171   4.874   5.209
 9229TIP3   OH227643   3.727   3.163   3.605
 9229TIP3    H127644   3.740   3.182   3.698
 9229TIP3    H227645   3.798   3.210   3.561
 9230TIP3   OH227646   5.517   2.144   6.471
 9230TIP3    H127647   5.451   2.130   6.538
 9230TIP3    H227648   5.532   2.058   6.432
 9231TIP3   OH227649   1.032   5.096   1.014
 9231TIP3    H127650   1.077   5.076   0.932
 9231TIP3    H227651   1.053   5.022   1.071
 9232TIP3   OH227652   6.076   6.653   0.061
 9232TIP3    H127653   6.121   6.662   0.145
 9232TIP3    H227654   5.994   6.703   0.072
 9233TIP3   OH227655   2.924   5.953   0.155
 9233TIP3    H127656   2.855   6.019   0.151
 9233TIP3    H227657   2.882   5.873   0.123
 9234TIP3   OH227658   4.047   6.103   6.702
 9234TIP3    H127659   3.982   6.167   6.732
 9234TIP3    H227660   4.122   6.156   6.677
 9235TIP3   OH227661   1.834   1.189   4.757
 9235TIP3    H127662   1.781   1.135   4.816
 9235TIP3    H227663   1.913   1.137   4.741
 9236TIP3   OH227664   7.553   6.326   5.271
 9236TIP3    H127665   7.550   6.241   5.227
 9236TIP3    H227666   7.579   6.387   5.203
 9237TIP3   OH227667   4.860   6.729   2.963
 9237TIP3    H127668   4.833   6.727   3.054
 9237TIP3    H227669   4.954   6.751   2.966
 9238TIP3   OH227670   6.859   5.236   3.654
 9238TIP3    H127671   6.773   5.260   3.620
 9238TIP3    H227672   6.916   5.310   3.633
 9239TIP3   OH227673   2.059   5.070   4.747
 9239TIP3    H127674   2.091   4.990   4.790
 9239TIP3    H227675   1.964   5.064   4.754
 9240TIP3   OH227676   5.478   0.823   1.662
 9240TIP3    H127677   5.508   0.813   1.572
 9240TIP3    H227678   5.548   0.872   1.705
 9241TIP3   OH227679   3.051   3.018   3.806
 9241TIP3    H127680   3.134   2.979   3.833
 9241TIP3    H227681   3.074   3.077   3.735
 9242TIP3   OH227682   5.693   6.386   5.364
 9242TIP3    H127683   5.624   6.343   5.414
 9242TIP3    H227684   5.651   6.462   5.325
 9243TIP3   OH227685   5.037   4.654   1.169
 9243TIP3    H127686   5.041   4.748   1.186
 9243TIP3    H227687   4.969   4.622   1.229
 9244TIP3   OH227688   1.266   0.195   5.415
 9244TIP3    H127689   1.255   0.101   5.403
 9244TIP3    H227690   1.253   0.210   5.508
 9245TIP3   OH227691   1.692   1.429   0.313
 9245TIP3    H127692   1.767   1.406   0.259
 9245TIP3    H227693   1.722   1.501   0.368
 9246TIP3   OH227694   3.677   3.722   3.397
 9246TIP3    H127695   3.695   3.790   3.463
 9246TIP3    H227696   3.764   3.693   3.369
 9247TIP3   OH227697   5.514   0.609   4.465
 9247TIP3    H127698   5.424   0.580   4.473
 9247TIP3    H227699   5.508   0.705   4.463
 9248TIP3   OH227700   2.367   4.993   4.809
 9248TIP3    H127701   2.444   4.942   4.833
 9248TIP3    H227702   2.293   4.934   4.826
 9249TIP3   OH227703   1.883   5.262   0.407
 9249TIP3    H127704   1.915   5.175   0.381
 9249TIP3    H227705   1.865   5.307   0.325
 9250TIP3   OH227706   0.125   7.349   3.338
 9250TIP3    H127707   0.060   7.369   3.406
 9250TIP3    H227708   0.104   7.409   3.266
 9251TIP3   OH227709   4.476   0.669   3.858
 9251TIP3    H127710   4.505   0.742   3.912
 9251TIP3    H227711   4.487   0.592   3.913
 9252TIP3   OH227712   5.628   1.968   0.543
 9252TIP3    H127713   5.618   2.054   0.502
 9252TIP3    H227714   5.540   1.945   0.573
 9253TIP3   OH227715   7.575   0.844   1.669
 9253TIP3    H127716   7.558   0.798   1.587
 9253TIP3    H227717   7.491   0.881   1.694
 9254TIP3   OH227718   5.516   2.519   5.512
 9254TIP3    H127719   5.602   2.515   5.556
 9254TIP3    H227720   5.534   2.493   5.422
 9255TIP3   OH227721   4.388   2.854   1.460
 9255TIP3    H127722   4.407   2.903   1.380
 9255TIP3    H227723   4.454   2.785   1.462
 9256TIP3   OH227724   7.796   0.590   5.765
 9256TIP3    H127725   7.734   0.655   5.732
 9256TIP3    H227726   7.846   0.636   5.833
 9257TIP3   OH227727   3.602   3.647   6.529
 9257TIP3    H127728   3.602   3.733   6.487
 9257TIP3    H227729   3.545   3.657   6.604
 9258TIP3   OH227730   2.494   6.402   4.375
 9258TIP3    H127731   2.460   6.430   4.290
 9258TIP3    H227732   2.516   6.483   4.421
 9259TIP3   OH227733   1.671   1.966   4.823
 9259TIP3    H127734   1.700   1.883   4.859
 9259TIP3    H227735   1.576   1.966   4.836
 9260TIP3   OH227736   4.386   2.898   6.489
 9260TIP3    H127737   4.348   2.833   6.548
 9260TIP3    H227738   4.311   2.946   6.455
 9261TIP3   OH227739   7.338   6.366   5.461
 9261TIP3    H127740   7.400   6.380   5.390
 9261TIP3    H227741   7.301   6.452   5.478
 9262TIP3   OH227742   0.230   5.038   6.519
 9262TIP3    H127743   0.169   4.969   6.546
 9262TIP3    H227744   0.241   5.092   6.597
 9263TIP3   OH227745   5.658   6.016   4.676
 9263TIP3    H127746   5.673   6.002   4.582
 9263TIP3    H227747   5.571   6.056   4.680
 9264TIP3   OH227748   7.172   0.225   1.758
 9264TIP3    H127749   7.129   0.166   1.696
 9264TIP3    H227750   7.160   0.184   1.843
 9265TIP3   OH227751   7.876   3.228   2.444
 9265TIP3    H127752   7.868   3.275   2.361
 9265TIP3    H227753   7.964   3.190   2.442
 9266TIP3   OH227754   6.424   3.765   0.998
 9266TIP3    H127755   6.403   3.822   0.924
 9266TIP3    H227756   6.493   3.707   0.965
 9267TIP3   OH227757   5.048   7.152   1.301
 9267TIP3    H127758   5.001   7.228   1.337
 9267TIP3    H227759   5.009   7.077   1.345
 9268TIP3   OH227760   4.416   4.408   3.804
 9268TIP3    H127761   4.480   4.471   3.769
 9268TIP3    H227762   4.333   4.432   3.762
 9269TIP3   OH227763   0.605   4.878   1.789
 9269TIP3    H127764   0.512   4.880   1.764
 9269TIP3    H227765   0.631   4.970   1.795
 9270TIP3   OH227766   3.367   6.007   1.397
 9270TIP3    H127767   3.459   6.030   1.383
 9270TIP3    H227768   3.324   6.030   1.315
 9271TIP3   OH227769   5.264   5.617   3.277
 9271TIP3    H127770   5.289   5.550   3.340
 9271TIP3    H227771   5.258   5.571   3.193
 9272TIP3   OH227772   2.860   4.817   1.809
 9272TIP3    H127773   2.805   4.895   1.813
 9272TIP3    H227774   2.905   4.823   1.725
 9273TIP3   OH227775   7.418   7.712   4.369
 9273TIP3    H127776   7.344   7.762   4.403
 9273TIP3    H227777   7.385   7.668   4.291
 9274TIP3   OH227778   0.275   2.294   4.405
 9274TIP3    H127779   0.299   2.244   4.327
 9274TIP3    H227780   0.304   2.240   4.478
 9275TIP3   OH227781   2.679   1.705   6.000
 9275TIP3    H127782   2.766   1.677   5.972
 9275TIP3    H227783   2.659   1.781   5.946
 9276TIP3   OH227784   1.954   1.785   4.688
 9276TIP3    H127785   1.942   1.692   4.707
 9276TIP3    H227786   2.010   1.787   4.611
 9277TIP3   OH227787   4.610   5.489   6.323
 9277TIP3    H127788   4.597   5.496   6.229
 9277TIP3    H227789   4.525   5.514   6.361
 9278TIP3   OH227790   4.702   0.653   6.574
 9278TIP3    H127791   4.676   0.582   6.514
 9278TIP3    H227792   4.775   0.616   6.624
 9279TIP3   OH227793   4.270   6.765   6.369
 9279TIP3    H127794   4.324   6.761   6.447
 9279TIP3    H227795   4.283   6.681   6.325
 9280TIP3   OH227796   0.262   7.060   6.592
 9280TIP3    H127797   0.335   7.113   6.624
 9280TIP3    H227798   0.249   6.994   6.660
 9281TIP3   OH227799   5.159   2.004   1.360
 9281TIP3    H127800   5.248   2.006   1.394
 9281TIP3    H227801   5.122   1.922   1.393
 9282TIP3   OH227802   3.076   6.159   0.539
 9282TIP3    H127803   3.068   6.180   0.632
 9282TIP3    H227804   2.993   6.118   0.516
 9283TIP3   OH227805   7.350   7.627   2.447
 9283TIP3    H127806   7.355   7.549   2.392
 9283TIP3    H227807   7.257   7.635   2.469
 9284TIP3   OH227808   6.525   4.736   3.854
 9284TIP3    H127809   6.524   4.770   3.944
 9284TIP3    H227810   6.433   4.725   3.831
 9285TIP3   OH227811   6.263   0.975   5.388
 9285TIP3    H127812   6.169   0.989   5.400
 9285TIP3    H227813   6.301   0.996   5.474
 9286TIP3   OH227814   5.320   2.998   6.575
 9286TIP3    H127815   5.253   2.935   6.601
 9286TIP3    H227816   5.309   3.072   6.635
 9287TIP3   OH227817   4.962   0.559   0.511
 9287TIP3    H127818   4.967   0.507   0.431
 9287TIP3    H227819   4.885   0.614   0.499
 9288TIP3   OH227820   6.900   1.184   2.856
 9288TIP3    H127821   6.913   1.175   2.950
 9288TIP3    H227822   6.866   1.098   2.828
 9289TIP3   OH227823   6.023   3.258   5.924
 9289TIP3    H127824   5.947   3.203   5.907
 9289TIP3    H227825   5.987   3.341   5.955
 9290TIP3   OH227826   6.339   2.854   3.081
 9290TIP3    H127827   6.309   2.767   3.053
 9290TIP3    H227828   6.325   2.855   3.175
 9291TIP3   OH227829   0.932   2.957   0.437
 9291TIP3    H127830   0.856   3.009   0.412
 9291TIP3    H227831   1.007   3.006   0.404
 9292TIP3   OH227832   4.544   0.042   0.392
 9292TIP3    H127833   4.607   0.107   0.424
 9292TIP3    H227834   4.519  -0.008   0.470
 9293TIP3   OH227835   4.201   6.178   3.560
 9293TIP3    H127836   4.269   6.204   3.498
 9293TIP3    H227837   4.119   6.196   3.515
 9294TIP3   OH227838   1.768   0.615   0.064
 9294TIP3    H127839   1.708   0.588   0.133
 9294TIP3    H227840   1.733   0.575  -0.016
 9295TIP3   OH227841   4.150   4.027   6.159
 9295TIP3    H127842   4.078   3.975   6.123
 9295TIP3    H227843   4.216   4.026   6.090
 9296TIP3   OH227844   0.075   1.591   2.929
 9296TIP3    H127845   0.006   1.528   2.949
 9296TIP3    H227846   0.123   1.601   3.011
 9297TIP3   OH227847   0.413   3.260   3.809
 9297TIP3    H127848   0.485   3.289   3.752
 9297TIP3    H227849   0.357   3.337   3.818
 9298TIP3   OH227850   7.309   6.175   5.935
 9298TIP3    H127851   7.216   6.199   5.937
 9298TIP3    H227852   7.324   6.127   6.016
 9299TIP3   OH227853   0.134   1.807   3.736
 9299TIP3    H127854   0.203   1.786   3.672
 9299TIP3    H227855   0.084   1.877   3.694
 9300TIP3   OH227856   7.599   1.363   1.277
 9300TIP3    H127857   7.655   1.287   1.291
 9300TIP3    H227858   7.515   1.325   1.248
 9301TIP3   OH227859   3.458   4.911   3.264
 9301TIP3    H127860   3.487   4.828   3.300
 9301TIP3    H227861   3.364   4.913   3.281
 9302TIP3   OH227862   7.275   6.425   5.187
 9302TIP3    H127863   7.184   6.404   5.209
 9302TIP3    H227864   7.282   6.406   5.094
 9303TIP3   OH227865   3.799   3.052   3.307
 9303TIP3    H127866   3.763   3.135   3.337
 9303TIP3    H227867   3.755   2.986   3.360
 9304TIP3   OH227868   5.688   3.260   2.165
 9304TIP3    H127869   5.779   3.257   2.194
 9304TIP3    H227870   5.670   3.171   2.132
 9305TIP3   OH227871   6.185   2.137   0.866
 9305TIP3    H127872   6.130   2.140   0.787
 9305TIP3    H227873   6.274   2.138   0.833
 9306TIP3   OH227874   0.989   1.132   0.177
 9306TIP3    H127875   1.055   1.098   0.238
 9306TIP3    H227876   0.959   1.214   0.218
 9307TIP3   OH227877   0.629   6.772   2.028
 9307TIP3    H127878   0.594   6.854   1.993
 9307TIP3    H227879   0.698   6.800   2.088
 9308TIP3   OH227880   4.039   2.505   4.969
 9308TIP3    H127881   4.027   2.429   4.912
 9308TIP3    H227882   4.058   2.467   5.055
 9309TIP3   OH227883   7.139   6.020   6.650
 9309TIP3    H127884   7.065   5.963   6.626
 9309TIP3    H227885   7.100   6.087   6.706
 9310TIP3   OH227886   7.277   6.720   4.154
 9310TIP3    H127887   7.242   6.744   4.068
 9310TIP3    H227888   7.310   6.631   4.143
 9311TIP3   OH227889   8.131   7.725   0.745
 9311TIP3    H127890   8.179   7.784   0.687
 9311TIP3    H227891   8.039   7.738   0.722
 9312TIP3   OH227892   4.661   7.055   6.667
 9312TIP3    H127893   4.658   7.097   6.581
 9312TIP3    H227894   4.726   6.985   6.656
 9313TIP3   OH227895   0.104   3.835   0.377
 9313TIP3    H127896   0.168   3.897   0.411
 9313TIP3    H227897   0.085   3.776   0.450
 9314TIP3   OH227898   5.147   6.244   6.583
 9314TIP3    H127899   5.085   6.269   6.652
 9314TIP3    H227900   5.216   6.197   6.629
 9315TIP3   OH227901   7.601   1.599   6.002
 9315TIP3    H127902   7.683   1.643   5.977
 9315TIP3    H227903   7.533   1.650   5.960
 9316TIP3   OH227904   3.820   6.504   1.100
 9316TIP3    H127905   3.855   6.583   1.142
 9316TIP3    H227906   3.749   6.476   1.157
 9317TIP3   OH227907   2.067   1.244   1.209
 9317TIP3    H127908   2.024   1.308   1.152
 9317TIP3    H227909   2.158   1.274   1.214
 9318TIP3   OH227910   1.760   1.385   5.650
 9318TIP3    H127911   1.832   1.434   5.690
 9318TIP3    H227912   1.687   1.446   5.650
 9319TIP3   OH227913   1.623   4.157   0.624
 9319TIP3    H127914   1.593   4.248   0.617
 9319TIP3    H227915   1.699   4.161   0.682
 9320TIP3   OH227916   5.257   6.297   0.452
 9320TIP3    H127917   5.311   6.375   0.441
 9320TIP3    H227918   5.260   6.278   0.546
 9321TIP3   OH227919   6.148   5.814   6.195
 9321TIP3    H127920   6.232   5.851   6.223
 9321TIP3    H227921   6.143   5.834   6.101
 9322TIP3   OH227922   3.085   6.491   6.033
 9322TIP3    H127923   3.047   6.417   5.987
 9322TIP3    H227924   3.013   6.554   6.041
 9323TIP3   OH227925   6.893   6.678   0.254
 9323TIP3    H127926   6.882   6.753   0.196
 9323TIP3    H227927   6.806   6.663   0.291
 9324TIP3   OH227928   3.881   1.075   3.772
 9324TIP3    H127929   3.853   0.984   3.783
 9324TIP3    H227930   3.827   1.125   3.834
 9325TIP3   OH227931   7.053   1.742   3.144
 9325TIP3    H127932   7.050   1.646   3.150
 9325TIP3    H227933   6.984   1.764   3.081
 9326TIP3   OH227934   2.100   4.954   5.207
 9326TIP3    H127935   2.127   5.046   5.201
 9326TIP3    H227936   2.179   4.905   5.185
 9327TIP3   OH227937   2.202   2.608   4.390
 9327TIP3    H127938   2.178   2.539   4.453
 9327TIP3    H227939   2.268   2.659   4.436
 9328TIP3   OH227940   0.050   5.323   1.308
 9328TIP3    H127941  -0.001   5.242   1.305
 9328TIP3    H227942  -0.002   5.382   1.362
 9329TIP3   OH227943   7.976   4.414   2.622
 9329TIP3    H127944   7.926   4.496   2.621
 9329TIP3    H227945   7.938   4.363   2.693
 9330TIP3   OH227946   3.619   3.117   0.761
 9330TIP3    H127947   3.686   3.093   0.825
 9330TIP3    H227948   3.537   3.084   0.799
 9331TIP3   OH227949   1.147   7.551   0.419
 9331TIP3    H127950   1.119   7.591   0.501
 9331TIP3    H227951   1.136   7.620   0.354
 9332TIP3   OH227952   0.530   7.491   5.801
 9332TIP3    H127953   0.623   7.505   5.779
 9332TIP3    H227954   0.486   7.570   5.769
 9333TIP3   OH227955   4.644   4.899   5.579
 9333TIP3    H127956   4.681   4.813   5.561
 9333TIP3    H227957   4.552   4.891   5.555
 9334TIP3   OH227958   5.532   3.288   1.454
 9334TIP3    H127959   5.484   3.212   1.487
 9334TIP3    H227960   5.516   3.288   1.360
 9335TIP3   OH227961   1.696   7.710   5.877
 9335TIP3    H127962   1.678   7.674   5.790
 9335TIP3    H227963   1.780   7.754   5.868
 9336TIP3   OH227964   2.923   0.617   2.228
 9336TIP3    H127965   2.886   0.644   2.144
 9336TIP3    H227966   2.992   0.554   2.204
 9337TIP3   OH227967   6.914   7.265   1.494
 9337TIP3    H127968   6.854   7.257   1.419
 9337TIP3    H227969   6.857   7.276   1.569
 9338TIP3   OH227970   0.050   1.160   1.178
 9338TIP3    H127971  -0.029   1.138   1.227
 9338TIP3    H227972   0.118   1.105   1.218
 9339TIP3   OH227973   4.772   0.100   0.131
 9339TIP3    H127974   4.795   0.021   0.179
 9339TIP3    H227975   4.736   0.159   0.198
 9340TIP3   OH227976   0.228   0.666   3.355
 9340TIP3    H127977   0.174   0.693   3.429
 9340TIP3    H227978   0.227   0.570   3.358
 9341TIP3   OH227979   6.308   2.584   2.994
 9341TIP3    H127980   6.303   2.504   3.046
 9341TIP3    H227981   6.259   2.564   2.914
 9342TIP3   OH227982   0.489   5.796   3.002
 9342TIP3    H127983   0.533   5.748   3.071
 9342TIP3    H227984   0.465   5.729   2.938
 9343TIP3   OH227985   2.972   5.301   3.431
 9343TIP3    H127986   2.912   5.250   3.377
 9343TIP3    H227987   2.917   5.342   3.497
 9344TIP3   OH227988   3.138   7.154   6.281
 9344TIP3    H127989   3.204   7.084   6.280
 9344TIP3    H227990   3.181   7.227   6.237
 9345TIP3   OH227991   4.317   5.304   5.852
 9345TIP3    H127992   4.379   5.232   5.841
 9345TIP3    H227993   4.271   5.309   5.768
 9346TIP3   OH227994   6.613   4.435   2.448
 9346TIP3    H127995   6.602   4.401   2.359
 9346TIP3    H227996   6.595   4.528   2.441
 9347TIP3   OH227997   0.889   7.190   6.604
 9347TIP3    H127998   0.816   7.249   6.582
 9347TIP3    H227999   0.932   7.232   6.679
 9348TIP3   OH228000   8.151   3.520   0.946
 9348TIP3    H128001   8.089   3.593   0.953
 9348TIP3    H228002   8.097   3.444   0.928
 9349TIP3   OH228003   3.104   7.003   4.611
 9349TIP3    H128004   3.022   6.955   4.606
 9349TIP3    H228005   3.161   6.949   4.665
 9350TIP3   OH228006   5.193   7.767   3.495
 9350TIP3    H128007   5.199   7.836   3.561
 9350TIP3    H228008   5.229   7.689   3.537
 9351TIP3   OH228009   6.966   5.192   4.485
 9351TIP3    H128010   6.934   5.199   4.395
 9351TIP3    H228011   6.928   5.268   4.529
 9352TIP3   OH228012   5.205   0.335   2.234
 9352TIP3    H128013   5.214   0.368   2.323
 9352TIP3    H228014   5.150   0.257   2.243
 9353TIP3   OH228015   7.426   6.760   0.026
 9353TIP3    H128016   7.484   6.787   0.098
 9353TIP3    H228017   7.403   6.670   0.046
 9354TIP3   OH228018   0.849   3.370   4.349
 9354TIP3    H128019   0.768   3.421   4.348
 9354TIP3    H228020   0.819   3.279   4.340
 9355TIP3   OH228021   3.772   3.343   5.675
 9355TIP3    H128022   3.687   3.308   5.702
 9355TIP3    H228023   3.823   3.348   5.756
 9356TIP3   OH228024   5.907   4.761   3.555
 9356TIP3    H128025   5.844   4.764   3.627
 9356TIP3    H228026   5.905   4.670   3.526
 9357TIP3   OH228027   0.153   0.328   1.288
 9357TIP3    H128028   0.083   0.328   1.354
 9357TIP3    H228029   0.125   0.262   1.224
 9358TIP3   OH228030   1.817   5.715   0.594
 9358TIP3    H128031   1.899   5.675   0.624
 9358TIP3    H228032   1.826   5.808   0.614
 9359TIP3   OH228033   5.953   7.756   2.596
 9359TIP3    H128034   6.007   7.796   2.528
 9359TIP3    H228035   5.927   7.829   2.652
 9360TIP3   OH228036   1.269   3.861   5.551
 9360TIP3    H128037   1.323   3.787   5.521
 9360TIP3    H228038   1.280   3.862   5.646
 9361TIP3   OH228039   2.910   4.849   2.082
 9361TIP3    H128040   2.853   4.838   2.158
 9361TIP3    H228041   2.853   4.837   2.006
 9362TIP3   OH228042   1.434   5.943   0.988
 9362TIP3    H128043   1.418   5.855   0.954
 9362TIP3    H228044   1.442   5.998   0.909
 9363TIP3   OH228045   2.745   7.818   1.666
 9363TIP3    H128046   2.673   7.811   1.602
 9363TIP3    H228047   2.822   7.836   1.613
 9364TIP3   OH228048   6.262   3.547   5.086
 9364TIP3    H128049   6.175   3.570   5.056
 9364TIP3    H228050   6.296   3.487   5.019
 9365TIP3   OH228051   6.057   7.526   5.737
 9365TIP3    H128052   6.020   7.614   5.731
 9365TIP3    H228053   5.988   7.473   5.776
 9366TIP3   OH228054   7.434   3.162   6.578
 9366TIP3    H128055   7.352   3.211   6.565
 9366TIP3    H228056   7.440   3.152   6.673
 9367TIP3   OH228057   3.948   4.715   1.049
 9367TIP3    H128058   3.946   4.625   1.081
 9367TIP3    H228059   3.866   4.725   1.001
 9368TIP3   OH228060   4.935   3.577   1.948
 9368TIP3    H128061   4.885   3.496   1.960
 9368TIP3    H228062   4.877   3.645   1.981
 9369TIP3   OH228063   1.763   1.826   6.171
 9369TIP3    H128064   1.744   1.736   6.144
 9369TIP3    H228065   1.690   1.877   6.135
 9370TIP3   OH228066   6.660   4.184   5.223
 9370TIP3    H128067   6.684   4.251   5.158
 9370TIP3    H228068   6.565   4.176   5.215
 9371TIP3   OH228069   3.149   5.254   0.415
 9371TIP3    H128070   3.074   5.198   0.438
 9371TIP3    H228071   3.136   5.274   0.322
 9372TIP3   OH228072   3.956   2.929   4.061
 9372TIP3    H128073   4.011   2.916   3.984
 9372TIP3    H228074   3.985   3.013   4.097
 9373TIP3   OH228075   1.131   1.728   0.414
 9373TIP3    H128076   1.216   1.732   0.458
 9373TIP3    H228077   1.085   1.655   0.457
 9374TIP3   OH228078   5.966   7.090   3.273
 9374TIP3    H128079   5.995   7.044   3.195
 9374TIP3    H228080   5.918   7.024   3.323
 9375TIP3   OH228081   1.569   3.562   0.428
 9375TIP3    H128082   1.598   3.640   0.475
 9375TIP3    H228083   1.591   3.579   0.336
 9376TIP3   OH228084   2.040   5.949   2.035
 9376TIP3    H128085   2.046   5.861   1.997
 9376TIP3    H228086   2.128   5.985   2.025
 9377TIP3   OH228087   6.338   2.974   5.526
 9377TIP3    H128088   6.381   3.050   5.485
 9377TIP3    H228089   6.274   2.945   5.461
 9378TIP3   OH228090   2.378   0.242   5.099
 9378TIP3    H128091   2.363   0.222   5.006
 9378TIP3    H228092   2.292   0.268   5.132
 9379TIP3   OH228093   1.986   6.819   5.352
 9379TIP3    H128094   1.948   6.759   5.288
 9379TIP3    H228095   1.910   6.864   5.391
 9380TIP3   OH228096   2.824   0.742   5.232
 9380TIP3    H128097   2.896   0.766   5.174
 9380TIP3    H228098   2.834   0.800   5.308
 9381TIP3   OH228099   6.527   6.842   3.853
 9381TIP3    H128100   6.465   6.870   3.920
 9381TIP3    H228101   6.584   6.917   3.840
 9382TIP3   OH228102   4.621   6.143  -0.002
 9382TIP3    H128103   4.529   6.129  -0.026
 9382TIP3    H228104   4.665   6.062  -0.026
 9383TIP3   OH228105   0.989   2.397   4.783
 9383TIP3    H128106   0.906   2.373   4.824
 9383TIP3    H228107   1.013   2.481   4.823
 9384TIP3   OH228108   7.093   6.336   1.196
 9384TIP3    H128109   7.160   6.278   1.232
 9384TIP3    H228110   7.128   6.424   1.211
 9385TIP3   OH228111   6.789   1.696   0.946
 9385TIP3    H128112   6.872   1.743   0.940
 9385TIP3    H228113   6.797   1.643   1.025
 9386TIP3   OH228114   6.635   0.986   3.265
 9386TIP3    H128115   6.640   0.954   3.175
 9386TIP3    H228116   6.549   0.957   3.296
 9387TIP3   OH228117   5.987   4.108   2.640
 9387TIP3    H128118   5.981   4.163   2.561
 9387TIP3    H228119   5.999   4.171   2.712
 9388TIP3   OH228120   6.131   0.749   3.332
 9388TIP3    H128121   6.069   0.678   3.347
 9388TIP3    H228122   6.076   0.821   3.299
 9389TIP3   OH228123   3.959   3.420   2.645
 9389TIP3    H128124   4.004   3.346   2.686
 9389TIP3    H228125   3.908   3.460   2.716
 9390TIP3   OH228126   4.965   3.086   5.302
 9390TIP3    H128127   4.930   3.162   5.348
 9390TIP3    H228128   4.976   3.020   5.370
 9391TIP3   OH228129   0.660   0.715   1.376
 9391TIP3    H128130   0.577   0.697   1.420
 9391TIP3    H228131   0.686   0.631   1.338
 9392TIP3   OH228132   0.339   6.878   3.128
 9392TIP3    H128133   0.343   6.967   3.162
 9392TIP3    H228134   0.426   6.862   3.092
 9393TIP3   OH228135   3.494   2.481   0.634
 9393TIP3    H128136   3.495   2.429   0.715
 9393TIP3    H228137   3.417   2.537   0.643
 9394TIP3   OH228138   4.556   1.759   2.074
 9394TIP3    H128139   4.649   1.784   2.067
 9394TIP3    H228140   4.544   1.693   2.006
 9395TIP3   OH228141   6.466   6.937   0.851
 9395TIP3    H128142   6.464   6.863   0.790
 9395TIP3    H228143   6.375   6.947   0.879
 9396TIP3   OH228144   7.960   6.145   3.930
 9396TIP3    H128145   7.938   6.053   3.915
 9396TIP3    H228146   7.935   6.162   4.020
 9397TIP3   OH228147   7.384   5.001   2.249
 9397TIP3    H128148   7.460   5.038   2.203
 9397TIP3    H228149   7.321   5.072   2.251
 9398TIP3   OH228150   6.457   3.894   5.685
 9398TIP3    H128151   6.550   3.915   5.677
 9398TIP3    H228152   6.426   3.947   5.759
 9399TIP3   OH228153   4.406   7.224   0.012
 9399TIP3    H128154   4.485   7.200   0.060
 9399TIP3    H228155   4.381   7.309   0.049
 9400TIP3   OH228156   3.165   3.724   2.127
 9400TIP3    H128157   3.171   3.710   2.033
 9400TIP3    H228158   3.246   3.769   2.151
 9401TIP3   OH228159   6.153   7.719   1.958
 9401TIP3    H128160   6.226   7.709   1.897
 9401TIP3    H228161   6.075   7.716   1.902
 9402TIP3   OH228162   2.937   1.971   1.510
 9402TIP3    H128163   3.006   2.021   1.554
 9402TIP3    H228164   2.975   1.947   1.425
 9403TIP3   OH228165   7.663   1.611   2.807
 9403TIP3    H128166   7.723   1.671   2.762
 9403TIP3    H228167   7.640   1.657   2.888
 9404TIP3   OH228168   0.309   7.251   5.434
 9404TIP3    H128169   0.363   7.227   5.509
 9404TIP3    H228170   0.274   7.338   5.456
 9405TIP3   OH228171   8.063   1.749   1.215
 9405TIP3    H128172   8.158   1.745   1.205
 9405TIP3    H228173   8.037   1.661   1.239
 9406TIP3   OH228174   2.695   6.895   3.489
 9406TIP3    H128175   2.678   6.986   3.464
 9406TIP3    H228176   2.717   6.852   3.406
 9407TIP3   OH228177   4.440   7.031   5.925
 9407TIP3    H128178   4.430   6.958   5.863
 9407TIP3    H228179   4.350   7.058   5.945
 9408TIP3   OH228180   6.190   0.305   5.553
 9408TIP3    H128181   6.208   0.368   5.623
 9408TIP3    H228182   6.277   0.277   5.524
 9409TIP3   OH228183   7.554   3.021   0.736
 9409TIP3    H128184   7.570   2.927   0.740
 9409TIP3    H228185   7.586   3.054   0.820
 9410TIP3   OH228186   3.738   0.155   2.672
 9410TIP3    H128187   3.643   0.143   2.668
 9410TIP3    H228188   3.756   0.171   2.765
 9411TIP3   OH228189   4.489   2.782   1.888
 9411TIP3    H128190   4.550   2.802   1.960
 9411TIP3    H228191   4.487   2.686   1.886
 9412TIP3   OH228192   0.768   6.238   1.531
 9412TIP3    H128193   0.850   6.286   1.527
 9412TIP3    H228194   0.788   6.153   1.491
 9413TIP3   OH228195   6.960   5.331   0.262
 9413TIP3    H128196   7.039   5.372   0.226
 9413TIP3    H228197   6.957   5.360   0.353
 9414TIP3   OH228198   1.473   1.633   5.027
 9414TIP3    H128199   1.394   1.596   4.988
 9414TIP3    H228200   1.456   1.727   5.033
 9415TIP3   OH228201   2.757   6.897   4.749
 9415TIP3    H128202   2.684   6.938   4.703
 9415TIP3    H228203   2.800   6.969   4.796
 9416TIP3   OH228204   2.912   5.911   6.058
 9416TIP3    H128205   2.893   5.888   6.149
 9416TIP3    H228206   3.007   5.922   6.055
 9417TIP3   OH228207   4.990   7.178   4.821
 9417TIP3    H128208   4.993   7.087   4.849
 9417TIP3    H228209   4.903   7.189   4.783
 9418TIP3   OH228210   4.588   5.186   3.057
 9418TIP3    H128211   4.584   5.109   3.114
 9418TIP3    H228212   4.682   5.203   3.047
 9419TIP3   OH228213   5.499   1.850   5.841
 9419TIP3    H128214   5.447   1.803   5.776
 9419TIP3    H228215   5.539   1.922   5.793
 9420TIP3   OH228216   2.221   7.695   0.752
 9420TIP3    H128217   2.296   7.747   0.783
 9420TIP3    H228218   2.166   7.683   0.829
 9421TIP3   OH228219   5.741   1.827   6.129
 9421TIP3    H128220   5.698   1.759   6.078
 9421TIP3    H228221   5.768   1.892   6.064
 9422TIP3   OH228222   2.029   3.473   4.623
 9422TIP3    H128223   2.013   3.406   4.690
 9422TIP3    H228224   1.950   3.472   4.569
 9423TIP3   OH228225   0.865   2.585   0.751
 9423TIP3    H128226   0.806   2.531   0.803
 9423TIP3    H228227   0.892   2.656   0.810
 9424TIP3   OH228228   7.815   7.647   4.086
 9424TIP3    H128229   7.766   7.637   4.168
 9424TIP3    H228230   7.748   7.654   4.019
 9425TIP3   OH228231   4.806   5.236   3.738
 9425TIP3    H128232   4.859   5.251   3.659
 9425TIP3    H228233   4.858   5.274   3.809
 9426TIP3   OH228234   0.303   0.290   0.719
 9426TIP3    H128235   0.340   0.366   0.676
 9426TIP3    H228236   0.271   0.323   0.803
 9427TIP3   OH228237   3.109   7.342   0.016
 9427TIP3    H128238   3.122   7.248   0.004
 9427TIP3    H228239   3.184   7.370   0.069
 9428TIP3   OH228240   6.255   7.536   6.045
 9428TIP3    H128241   6.263   7.512   5.952
 9428TIP3    H228242   6.161   7.529   6.063
 9429TIP3   OH228243   7.657   3.894   0.110
 9429TIP3    H128244   7.576   3.901   0.160
 9429TIP3    H228245   7.638   3.938   0.027
 9430TIP3   OH228246   4.476   1.686   3.768
 9430TIP3    H128247   4.416   1.646   3.705
 9430TIP3    H228248   4.454   1.779   3.767
 9431TIP3   OH228249   7.961   5.664   3.486
 9431TIP3    H128250   8.005   5.727   3.429
 9431TIP3    H228251   7.934   5.593   3.427
 9432TIP3   OH228252   7.434   0.164   1.692
 9432TIP3    H128253   7.450   0.075   1.723
 9432TIP3    H228254   7.343   0.182   1.717
 9433TIP3   OH228255   7.692   6.228   6.550
 9433TIP3    H128256   7.619   6.289   6.560
 9433TIP3    H228257   7.680   6.190   6.463
 9434TIP3   OH228258   1.886   5.574   3.380
 9434TIP3    H128259   1.838   5.651   3.351
 9434TIP3    H228260   1.975   5.605   3.394
 9435TIP3   OH228261   2.180   1.646   0.306
 9435TIP3    H128262   2.272   1.655   0.278
 9435TIP3    H228263   2.164   1.724   0.360
 9436TIP3   OH228264   6.704   2.231   0.720
 9436TIP3    H128265   6.720   2.304   0.660
 9436TIP3    H228266   6.790   2.191   0.733
 9437TIP3   OH228267   3.224   5.209   0.683
 9437TIP3    H128268   3.242   5.251   0.599
 9437TIP3    H228269   3.142   5.248   0.712
 9438TIP3   OH228270   1.565   2.167   5.548
 9438TIP3    H128271   1.643   2.215   5.575
 9438TIP3    H228272   1.494   2.206   5.600
 9439TIP3   OH228273   0.344   7.097   2.797
 9439TIP3    H128274   0.335   7.013   2.843
 9439TIP3    H228275   0.336   7.075   2.704
 9440TIP3   OH228276   1.802   2.607   3.248
 9440TIP3    H128277   1.831   2.539   3.308
 9440TIP3    H228278   1.815   2.689   3.297
 9441TIP3   OH228279   7.063   7.324   2.262
 9441TIP3    H128280   7.139   7.319   2.205
 9441TIP3    H228281   7.042   7.417   2.266
 9442TIP3   OH228282   3.925   5.913   3.586
 9442TIP3    H128283   3.961   5.829   3.557
 9442TIP3    H228284   3.932   5.910   3.681
 9443TIP3   OH228285   2.251   4.402   3.718
 9443TIP3    H128286   2.176   4.435   3.668
 9443TIP3    H228287   2.244   4.445   3.803
 9444TIP3   OH228288   4.288   1.360   2.543
 9444TIP3    H128289   4.221   1.425   2.522
 9444TIP3    H228290   4.350   1.406   2.600
 9445TIP3   OH228291   0.034   5.683   5.675
 9445TIP3    H128292  -0.053   5.719   5.660
 9445TIP3    H228293   0.049   5.696   5.769
 9446TIP3   OH228294   6.910   1.692   6.348
 9446TIP3    H128295   7.005   1.702   6.345
 9446TIP3    H228296   6.891   1.617   6.292
 9447TIP3   OH228297   7.126   4.035   1.174
 9447TIP3    H128298   7.074   4.115   1.165
 9447TIP3    H228299   7.152   4.033   1.266
 9448TIP3   OH228300   1.667   5.581   2.412
 9448TIP3    H128301   1.703   5.553   2.496
 9448TIP3    H228302   1.573   5.590   2.429
 9449TIP3   OH228303   3.083   4.488   4.493
 9449TIP3    H128304   3.081   4.416   4.430
 9449TIP3    H228305   3.073   4.445   4.578
 9450TIP3   OH228306   7.979   3.199   4.872
 9450TIP3    H128307   8.025   3.222   4.791
 9450TIP3    H228308   7.901   3.254   4.872
 9451TIP3   OH228309   7.291   6.782   1.357
 9451TIP3    H128310   7.223   6.843   1.384
 9451TIP3    H228311   7.244   6.711   1.313
 9452TIP3   OH228312   4.368   4.302   2.703
 9452TIP3    H128313   4.299   4.340   2.759
 9452TIP3    H228314   4.382   4.367   2.635
 9453TIP3   OH228315   6.556   7.334   2.869
 9453TIP3    H128316   6.622   7.273   2.902
 9453TIP3    H228317   6.475   7.283   2.865
 9454TIP3   OH228318   3.532   0.813   6.279
 9454TIP3    H128319   3.577   0.787   6.199
 9454TIP3    H228320   3.463   0.748   6.289
 9455TIP3   OH228321   1.565   4.822   1.184
 9455TIP3    H128322   1.533   4.912   1.192
 9455TIP3    H228323   1.621   4.825   1.106
 9456TIP3   OH228324   6.299   2.324   6.032
 9456TIP3    H128325   6.252   2.247   6.000
 9456TIP3    H228326   6.231   2.382   6.066
 9457TIP3   OH228327   0.562   0.156   1.158
 9457TIP3    H128328   0.566   0.110   1.074
 9457TIP3    H228329   0.632   0.221   1.153
 9458TIP3   OH228330   6.975   0.604   6.116
 9458TIP3    H128331   6.937   0.691   6.102
 9458TIP3    H228332   7.049   0.619   6.175
 9459TIP3   OH228333   6.721   3.417   3.304
 9459TIP3    H128334   6.674   3.480   3.249
 9459TIP3    H228335   6.656   3.386   3.367
 9460TIP3   OH228336   4.208   4.325   3.393
 9460TIP3    H128337   4.142   4.345   3.460
 9460TIP3    H228338   4.221   4.408   3.347
 9461TIP3   OH228339   1.342   3.744   2.528
 9461TIP3    H128340   1.340   3.673   2.464
 9461TIP3    H228341   1.338   3.824   2.476
 9462TIP3   OH228342   2.810   7.515   1.682
 9462TIP3    H128343   2.786   7.577   1.751
 9462TIP3    H228344   2.879   7.461   1.721
 9463TIP3   OH228345   8.270   2.044   2.067
 9463TIP3    H128346   8.283   2.056   1.973
 9463TIP3    H228347   8.191   2.094   2.087
 9464TIP3   OH228348   1.433   2.772   5.101
 9464TIP3    H128349   1.464   2.842   5.160
 9464TIP3    H228350   1.387   2.818   5.031
 9465TIP3   OH228351   7.675   5.256   3.901
 9465TIP3    H128352   7.658   5.329   3.960
 9465TIP3    H228353   7.721   5.192   3.956
 9466TIP3   OH228354   0.133   0.718   6.695
 9466TIP3    H128355   0.201   0.668   6.740
 9466TIP3    H228356   0.160   0.717   6.603
 9467TIP3   OH228357   4.535   6.596   5.042
 9467TIP3    H128358   4.602   6.602   5.110
 9467TIP3    H228359   4.479   6.523   5.071
 9468TIP3   OH228360   2.928   5.147   1.391
 9468TIP3    H128361   2.953   5.107   1.308
 9468TIP3    H228362   2.838   5.176   1.377
 9469TIP3   OH228363   2.798   5.876   3.320
 9469TIP3    H128364   2.837   5.828   3.394
 9469TIP3    H228365   2.723   5.823   3.295
 9470TIP3   OH228366   7.933   4.477   1.683
 9470TIP3    H128367   7.862   4.498   1.623
 9470TIP3    H228368   7.986   4.412   1.637
 9471TIP3   OH228369   7.655   7.021   4.213
 9471TIP3    H128370   7.636   6.938   4.169
 9471TIP3    H228371   7.569   7.059   4.230
 9472TIP3   OH228372   6.349   5.011   6.621
 9472TIP3    H128373   6.258   5.029   6.597
 9472TIP3    H228374   6.385   5.097   6.642
 9473TIP3   OH228375   5.431   6.457   4.036
 9473TIP3    H128376   5.364   6.517   4.066
 9473TIP3    H228377   5.384   6.394   3.982
 9474TIP3   OH228378   7.941   4.920   1.152
 9474TIP3    H128379   7.912   5.002   1.193
 9474TIP3    H228380   8.019   4.944   1.103
 9475TIP3   OH228381   6.105   0.913   0.543
 9475TIP3    H128382   6.190   0.871   0.558
 9475TIP3    H228383   6.105   0.988   0.602
 9476TIP3   OH228384   5.928   3.507   5.413
 9476TIP3    H128385   5.901   3.455   5.337
 9476TIP3    H228386   5.920   3.598   5.383
 9477TIP3   OH228387   6.839   1.274   1.433
 9477TIP3    H128388   6.847   1.367   1.411
 9477TIP3    H228389   6.758   1.268   1.484
 9478TIP3   OH228390   8.037   1.492   3.698
 9478TIP3    H128391   8.053   1.399   3.716
 9478TIP3    H228392   8.108   1.538   3.743
 9479TIP3   OH228393   0.409   1.648   4.502
 9479TIP3    H128394   0.367   1.566   4.478
 9479TIP3    H228395   0.448   1.632   4.587
 9480TIP3   OH228396   0.037   3.966   5.825
 9480TIP3    H128397  -0.009   3.930   5.749
 9480TIP3    H228398   0.025   4.061   5.817
 9481TIP3   OH228399   5.970   6.608   1.724
 9481TIP3    H128400   5.999   6.673   1.787
 9481TIP3    H228401   5.959   6.656   1.642
 9482TIP3   OH228402   1.084   0.429   1.443
 9482TIP3    H128403   1.132   0.377   1.379
 9482TIP3    H228404   1.036   0.365   1.495
 9483TIP3   OH228405   2.661   6.813   2.245
 9483TIP3    H128406   2.714   6.740   2.215
 9483TIP3    H228407   2.682   6.885   2.186
 9484TIP3   OH228408   1.840   6.897   5.947
 9484TIP3    H128409   1.767   6.835   5.942
 9484TIP3    H228410   1.824   6.944   6.029
 9485TIP3   OH228411   2.964   5.843   5.097
 9485TIP3    H128412   2.916   5.877   5.173
 9485TIP3    H228413   3.056   5.857   5.118
 9486TIP3   OH228414   1.178   4.390   2.132
 9486TIP3    H128415   1.111   4.456   2.146
 9486TIP3    H228416   1.261   4.436   2.145
 9487TIP3   OH228417   4.562   4.161   1.049
 9487TIP3    H128418   4.567   4.072   1.013
 9487TIP3    H228419   4.622   4.158   1.124
 9488TIP3   OH228420   7.755   5.739   5.990
 9488TIP3    H128421   7.750   5.796   5.913
 9488TIP3    H228422   7.703   5.663   5.967
 9489TIP3   OH228423   0.315   2.281   5.730
 9489TIP3    H128424   0.316   2.330   5.812
 9489TIP3    H228425   0.226   2.247   5.723
 9490TIP3   OH228426   3.953   4.328   0.532
 9490TIP3    H128427   3.957   4.402   0.592
 9490TIP3    H228428   4.019   4.267   0.564
 9491TIP3   OH228429   5.542   0.280   1.362
 9491TIP3    H128430   5.579   0.194   1.341
 9491TIP3    H228431   5.514   0.315   1.277
 9492TIP3   OH228432   8.248   7.706   0.453
 9492TIP3    H128433   8.257   7.800   0.437
 9492TIP3    H228434   8.155   7.688   0.441
 9493TIP3   OH228435   5.250   0.589   1.086
 9493TIP3    H128436   5.250   0.524   1.015
 9493TIP3    H228437   5.284   0.668   1.045
 9494TIP3   OH228438   4.517   4.626   5.992
 9494TIP3    H128439   4.452   4.687   5.958
 9494TIP3    H228440   4.531   4.564   5.920
 9495TIP3   OH228441   2.268   1.175   2.142
 9495TIP3    H128442   2.198   1.224   2.099
 9495TIP3    H228443   2.328   1.152   2.071
 9496TIP3   OH228444   6.559   0.579   5.845
 9496TIP3    H128445   6.508   0.656   5.867
 9496TIP3    H228446   6.644   0.614   5.817
 9497TIP3   OH228447   5.743   7.216   2.149
 9497TIP3    H128448   5.795   7.136   2.155
 9497TIP3    H228449   5.653   7.185   2.137
 9498TIP3   OH228450   2.488   3.719   2.988
 9498TIP3    H128451   2.468   3.772   2.911
 9498TIP3    H228452   2.424   3.747   3.053
 9499TIP3   OH228453   4.707   6.967   0.874
 9499TIP3    H128454   4.642   6.897   0.863
 9499TIP3    H228455   4.773   6.950   0.808
 9500TIP3   OH228456   4.308   6.893   0.737
 9500TIP3    H128457   4.322   6.846   0.819
 9500TIP3    H228458   4.315   6.986   0.761
 9501TIP3   OH228459   2.296   1.797   6.626
 9501TIP3    H128460   2.312   1.863   6.558
 9501TIP3    H228461   2.203   1.776   6.617
 9502TIP3   OH228462   7.380   4.242   4.519
 9502TIP3    H128463   7.435   4.318   4.504
 9502TIP3    H228464   7.364   4.205   4.432
 9503TIP3   OH228465   0.006   5.867   5.953
 9503TIP3    H128466  -0.085   5.841   5.970
 9503TIP3    H228467   0.047   5.866   6.040
 9504TIP3   OH228468   2.115   2.813   2.119
 9504TIP3    H128469   2.081   2.838   2.205
 9504TIP3    H228470   2.039   2.816   2.061
 9505TIP3   OH228471   2.758   3.605   6.359
 9505TIP3    H128472   2.736   3.611   6.266
 9505TIP3    H228473   2.697   3.665   6.402
 9506TIP3   OH228474   1.389   3.764   2.808
 9506TIP3    H128475   1.299   3.761   2.841
 9506TIP3    H228476   1.380   3.754   2.713
 9507TIP3   OH228477   5.879   2.388   0.372
 9507TIP3    H128478   5.806   2.429   0.327
 9507TIP3    H228479   5.838   2.334   0.440
 9508TIP3   OH228480   0.704   7.285   4.874
 9508TIP3    H128481   0.698   7.195   4.908
 9508TIP3    H228482   0.798   7.300   4.862
 9509TIP3   OH228483   2.968   1.802   3.835
 9509TIP3    H128484   3.013   1.783   3.752
 9509TIP3    H228485   3.021   1.871   3.875
 9510TIP3   OH228486   5.303  -0.006   5.730
 9510TIP3    H128487   5.317   0.078   5.688
 9510TIP3    H228488   5.220  -0.037   5.694
 9511TIP3   OH228489   3.965   6.429   1.368
 9511TIP3    H128490   3.895   6.443   1.432
 9511TIP3    H228491   3.966   6.510   1.316
 9512TIP3   OH228492   5.742   5.209   6.459
 9512TIP3    H128493   5.783   5.174   6.380
 9512TIP3    H228494   5.670   5.264   6.427
 9513TIP3   OH228495   5.789   6.657   6.453
 9513TIP3    H128496   5.806   6.563   6.458
 9513TIP3    H228497   5.756   6.670   6.364
 9514TIP3   OH228498   3.128   7.335   0.675
 9514TIP3    H128499   3.087   7.256   0.642
 9514TIP3    H228500   3.173   7.308   0.755
 9515TIP3   OH228501   2.006   0.540   3.968
 9515TIP3    H128502   2.092   0.501   3.955
 9515TIP3    H228503   1.975   0.559   3.879
 9516TIP3   OH228504   6.800   6.032   3.162
 9516TIP3    H128505   6.836   6.017   3.074
 9516TIP3    H228506   6.826   5.954   3.212
 9517TIP3   OH228507   0.741   4.901   4.975
 9517TIP3    H128508   0.646   4.906   4.963
 9517TIP3    H228509   0.776   4.958   4.906
 9518TIP3   OH228510   7.203   4.454   1.383
 9518TIP3    H128511   7.131   4.445   1.445
 9518TIP3    H228512   7.246   4.536   1.407
 9519TIP3   OH228513   7.086   2.864   0.110
 9519TIP3    H128514   7.144   2.898   0.042
 9519TIP3    H228515   7.000   2.862   0.069
 9520TIP3   OH228516   1.105   5.643   0.263
 9520TIP3    H128517   1.150   5.684   0.189
 9520TIP3    H228518   1.081   5.717   0.320
 9521TIP3   OH228519   5.086   7.583   6.638
 9521TIP3    H128520   5.070   7.673   6.669
 9521TIP3    H228521   5.003   7.538   6.652
 9522TIP3   OH228522   4.505   7.572   2.383
 9522TIP3    H128523   4.481   7.479   2.381
 9522TIP3    H228524   4.532   7.591   2.293
 9523TIP3   OH228525   1.078   2.263   1.122
 9523TIP3    H128526   1.074   2.169   1.105
 9523TIP3    H228527   1.165   2.289   1.091
 9524TIP3   OH228528   7.392   0.132   6.038
 9524TIP3    H128529   7.388   0.072   5.963
 9524TIP3    H228530   7.446   0.205   6.007
 9525TIP3   OH228531   6.087   6.640   6.070
 9525TIP3    H128532   6.050   6.605   5.989
 9525TIP3    H228533   6.071   6.735   6.065
 9526TIP3   OH228534   3.864   4.897   6.122
 9526TIP3    H128535   3.874   4.954   6.198
 9526TIP3    H228536   3.867   4.955   6.047
 9527TIP3   OH228537   0.246   2.971   6.743
 9527TIP3    H128538   0.272   3.025   6.668
 9527TIP3    H228539   0.204   2.895   6.704
 9528TIP3   OH228540   0.228   3.286   5.625
 9528TIP3    H128541   0.313   3.268   5.584
 9528TIP3    H228542   0.169   3.221   5.586
 9529TIP3   OH228543   2.440   3.223   5.599
 9529TIP3    H128544   2.481   3.174   5.528
 9529TIP3    H228545   2.368   3.270   5.558
 9530TIP3   OH228546   4.370   2.221   2.378
 9530TIP3    H128547   4.377   2.207   2.283
 9530TIP3    H228548   4.290   2.273   2.389
 9531TIP3   OH228549   6.972   3.506   3.389
 9531TIP3    H128550   6.995   3.414   3.402
 9531TIP3    H228551   6.882   3.504   3.359
 9532TIP3   OH228552   5.696   2.148   2.102
 9532TIP3    H128553   5.774   2.203   2.099
 9532TIP3    H228554   5.717   2.079   2.165
 9533TIP3   OH228555   3.685   4.528   1.305
 9533TIP3    H128556   3.735   4.501   1.228
 9533TIP3    H228557   3.752   4.543   1.372
 9534TIP3   OH228558   6.056   3.762   5.653
 9534TIP3    H128559   6.143   3.724   5.654
 9534TIP3    H228560   6.068   3.850   5.619
 9535TIP3   OH228561   2.559   5.501   4.419
 9535TIP3    H128562   2.635   5.444   4.427
 9535TIP3    H228563   2.595   5.589   4.415
 9536TIP3   OH228564   4.703   5.834   6.542
 9536TIP3    H128565   4.631   5.776   6.515
 9536TIP3    H228566   4.748   5.855   6.461
 9537TIP3   OH228567   6.298   6.940   4.005
 9537TIP3    H128568   6.270   6.858   4.045
 9537TIP3    H228569   6.269   6.934   3.914
 9538TIP3   OH228570   5.913   4.600   0.858
 9538TIP3    H128571   5.909   4.550   0.776
 9538TIP3    H228572   5.872   4.684   0.836
 9539TIP3   OH228573   6.185   6.625   3.847
 9539TIP3    H128574   6.100   6.660   3.820
 9539TIP3    H228575   6.221   6.586   3.768
 9540TIP3   OH228576   3.236   1.416   1.703
 9540TIP3    H128577   3.305   1.455   1.648
 9540TIP3    H228578   3.161   1.475   1.692
 9541TIP3   OH228579   7.231   5.003   0.970
 9541TIP3    H128580   7.162   4.949   1.009
 9541TIP3    H228581   7.271   4.947   0.904
 9542TIP3   OH228582   6.141   7.767   5.592
 9542TIP3    H128583   6.143   7.809   5.678
 9542TIP3    H228584   6.057   7.722   5.589
 9543TIP3   OH228585   1.248   5.509   5.774
 9543TIP3    H128586   1.262   5.529   5.681
 9543TIP3    H228587   1.211   5.421   5.774
 9544TIP3   OH228588   7.619   0.579   1.325
 9544TIP3    H128589   7.696   0.607   1.276
 9544TIP3    H228590   7.559   0.654   1.323
 9545TIP3   OH228591   0.929   4.552   4.759
 9545TIP3    H128592   0.853   4.587   4.806
 9545TIP3    H228593   0.947   4.618   4.691
 9546TIP3   OH228594   3.759   4.974   0.088
 9546TIP3    H128595   3.757   4.893   0.037
 9546TIP3    H228596   3.710   4.952   0.168
 9547TIP3   OH228597   1.116   3.103   6.494
 9547TIP3    H128598   1.179   3.174   6.480
 9547TIP3    H228599   1.032   3.148   6.507
 9548TIP3   OH228600   4.766   1.194   5.317
 9548TIP3    H128601   4.830   1.211   5.247
 9548TIP3    H228602   4.681   1.199   5.274
 9549TIP3   OH228603   0.172   5.271   3.379
 9549TIP3    H128604   0.159   5.365   3.370
 9549TIP3    H228605   0.265   5.258   3.360
 9550TIP3   OH228606   0.372   4.823   6.095
 9550TIP3    H128607   0.326   4.742   6.117
 9550TIP3    H228608   0.434   4.835   6.167
 9551TIP3   OH228609   2.582   6.669   1.485
 9551TIP3    H128610   2.571   6.618   1.566
 9551TIP3    H228611   2.525   6.626   1.422
 9552TIP3   OH228612   6.264   3.141   5.999
 9552TIP3    H128613   6.184   3.187   5.975
 9552TIP3    H228614   6.278   3.078   5.928
 9553TIP3   OH228615   0.671   5.064   6.720
 9553TIP3    H128616   0.617   5.099   6.650
 9553TIP3    H228617   0.675   5.135   6.785
 9554TIP3   OH228618   0.930   5.725   4.924
 9554TIP3    H128619   0.998   5.716   4.857
 9554TIP3    H228620   0.851   5.688   4.884
 9555TIP3   OH228621   2.558   4.011   1.980
 9555TIP3    H128622   2.596   3.954   2.047
 9555TIP3    H228623   2.622   4.011   1.909
 9556TIP3   OH228624   5.827   2.215   3.916
 9556TIP3    H128625   5.904   2.268   3.895
 9556TIP3    H228626   5.771   2.273   3.968
 9557TIP3   OH228627   1.406   5.197   5.557
 9557TIP3    H128628   1.376   5.168   5.644
 9557TIP3    H228629   1.401   5.119   5.503
 9558TIP3   OH228630   3.539   7.361   6.678
 9558TIP3    H128631   3.557   7.421   6.606
 9558TIP3    H228632   3.501   7.284   6.636
 9559TIP3   OH228633   2.461   4.772   0.864
 9559TIP3    H128634   2.488   4.851   0.911
 9559TIP3    H228635   2.367   4.766   0.881
 9560TIP3   OH228636   1.686   0.573   2.110
 9560TIP3    H128637   1.754   0.628   2.149
 9560TIP3    H228638   1.636   0.540   2.184
 9561TIP3   OH228639   7.526   4.434   1.740
 9561TIP3    H128640   7.569   4.519   1.730
 9561TIP3    H228641   7.453   4.437   1.677
 9562TIP3   OH228642   1.391   1.206   6.556
 9562TIP3    H128643   1.361   1.132   6.609
 9562TIP3    H228644   1.437   1.166   6.482
 9563TIP3   OH228645   4.605   6.572   1.011
 9563TIP3    H128646   4.657   6.648   1.038
 9563TIP3    H228647   4.572   6.536   1.094
 9564TIP3   OH228648   6.290   0.201   0.931
 9564TIP3    H128649   6.321   0.292   0.929
 9564TIP3    H228650   6.215   0.200   0.872
 9565TIP3   OH228651   2.211   5.728   3.058
 9565TIP3    H128652   2.134   5.768   3.018
 9565TIP3    H228653   2.267   5.703   2.984
 9566TIP3   OH228654   3.911   4.997   2.770
 9566TIP3    H128655   4.003   5.023   2.773
 9566TIP3    H228656   3.877   5.039   2.691
 9567TIP3   OH228657   0.151   0.029   3.026
 9567TIP3    H128658   0.147   0.123   3.046
 9567TIP3    H228659   0.185  -0.011   3.106
 9568TIP3   OH228660   0.972   2.177   3.674
 9568TIP3    H128661   1.056   2.201   3.714
 9568TIP3    H228662   0.988   2.092   3.633
 9569TIP3   OH228663   0.507   2.556   5.924
 9569TIP3    H128664   0.545   2.574   5.838
 9569TIP3    H228665   0.582   2.552   5.983
 9570TIP3   OH228666   4.991   5.694   1.901
 9570TIP3    H128667   5.006   5.691   1.807
 9570TIP3    H228668   4.941   5.774   1.915
 9571TIP3   OH228669   2.547   3.791   5.429
 9571TIP3    H128670   2.534   3.724   5.362
 9571TIP3    H228671   2.467   3.843   5.428
 9572TIP3   OH228672   2.728   4.128   2.210
 9572TIP3    H128673   2.802   4.090   2.162
 9572TIP3    H228674   2.715   4.071   2.285
 9573TIP3   OH228675   0.713   2.129   0.785
 9573TIP3    H128676   0.735   2.084   0.704
 9573TIP3    H228677   0.796   2.159   0.820
 9574TIP3   OH228678   6.228   2.728   0.662
 9574TIP3    H128679   6.144   2.742   0.618
 9574TIP3    H228680   6.292   2.769   0.605
 9575TIP3   OH228681   4.417   2.528   1.877
 9575TIP3    H128682   4.350   2.490   1.933
 9575TIP3    H228683   4.369   2.562   1.801
 9576TIP3   OH228684   8.082   2.890   6.629
 9576TIP3    H128685   8.030   2.814   6.605
 9576TIP3    H228686   8.048   2.917   6.714
 9577TIP3   OH228687   6.802   2.491   1.459
 9577TIP3    H128688   6.721   2.463   1.416
 9577TIP3    H228689   6.858   2.413   1.459
 9578TIP3   OH228690   2.830   5.924   4.770
 9578TIP3    H128691   2.884   5.845   4.759
 9578TIP3    H228692   2.835   5.969   4.686
 9579TIP3   OH228693   5.796   3.710   0.342
 9579TIP3    H128694   5.794   3.650   0.417
 9579TIP3    H228695   5.888   3.710   0.314
 9580TIP3   OH228696   4.247   5.950   2.726
 9580TIP3    H128697   4.227   5.938   2.819
 9580TIP3    H228698   4.331   5.906   2.713
 9581TIP3   OH228699   2.260   4.935   2.892
 9581TIP3    H128700   2.175   4.963   2.923
 9581TIP3    H228701   2.266   4.843   2.918
 9582TIP3   OH228702   3.880   4.948   2.114
 9582TIP3    H128703   3.829   5.029   2.115
 9582TIP3    H228704   3.832   4.889   2.172
 9583TIP3   OH228705   2.898   2.849   2.463
 9583TIP3    H128706   2.853   2.771   2.495
 9583TIP3    H228707   2.920   2.829   2.372
 9584TIP3   OH228708   4.809   1.860   6.301
 9584TIP3    H128709   4.835   1.790   6.241
 9584TIP3    H228710   4.811   1.939   6.247
 9585TIP3   OH228711   2.822   7.000   1.821
 9585TIP3    H128712   2.763   6.979   1.748
 9585TIP3    H228713   2.896   6.940   1.809
 9586TIP3   OH228714   5.932   7.385   2.019
 9586TIP3    H128715   5.853   7.332   2.030
 9586TIP3    H228716   5.980   7.343   1.948
 9587TIP3   OH228717   1.429   7.068   1.345
 9587TIP3    H128718   1.430   7.118   1.263
 9587TIP3    H228719   1.340   7.032   1.350
 9588TIP3   OH228720   6.640   6.176   1.460
 9588TIP3    H128721   6.618   6.181   1.367
 9588TIP3    H228722   6.734   6.155   1.461
 9589TIP3   OH228723   2.028   1.383   2.037
 9589TIP3    H128724   2.021   1.390   1.942
 9589TIP3    H228725   1.977   1.306   2.059
 9590TIP3   OH228726   3.564   4.841   4.595
 9590TIP3    H128727   3.539   4.866   4.506
 9590TIP3    H228728   3.494   4.782   4.624
 9591TIP3   OH228729   4.306   6.152   0.987
 9591TIP3    H128730   4.370   6.213   0.951
 9591TIP3    H228731   4.266   6.111   0.911
 9592TIP3   OH228732   4.706   6.383   4.477
 9592TIP3    H128733   4.748   6.411   4.396
 9592TIP3    H228734   4.612   6.395   4.462
 9593TIP3   OH228735   7.460   5.686   4.461
 9593TIP3    H128736   7.373   5.647   4.462
 9593TIP3    H228737   7.513   5.625   4.410
 9594TIP3   OH228738   2.512   2.685   4.243
 9594TIP3    H128739   2.455   2.691   4.319
 9594TIP3    H228740   2.537   2.775   4.224
 9595TIP3   OH228741   3.239   5.396   3.667
 9595TIP3    H128742   3.214   5.441   3.586
 9595TIP3    H228743   3.184   5.317   3.668
 9596TIP3   OH228744   4.458   1.756   4.237
 9596TIP3    H128745   4.477   1.750   4.331
 9596TIP3    H228746   4.544   1.751   4.195
 9597TIP3   OH228747   7.495   6.136   3.839
 9597TIP3    H128748   7.560   6.187   3.887
 9597TIP3    H228749   7.412   6.160   3.880
 9598TIP3   OH228750   7.537   1.801   0.428
 9598TIP3    H128751   7.475   1.785   0.500
 9598TIP3    H228752   7.498   1.874   0.380
 9599TIP3   OH228753   3.812   4.275   5.157
 9599TIP3    H128754   3.885   4.277   5.096
 9599TIP3    H228755   3.831   4.201   5.215
 9600TIP3   OH228756   1.449   6.085   3.870
 9600TIP3    H128757   1.441   5.994   3.840
 9600TIP3    H228758   1.413   6.137   3.799
 9601TIP3   OH228759   3.393   3.840   4.824
 9601TIP3    H128760   3.416   3.748   4.808
 9601TIP3    H228761   3.458   3.869   4.888
 9602TIP3   OH228762   2.225   1.983   1.159
 9602TIP3    H128763   2.200   1.932   1.082
 9602TIP3    H228764   2.193   2.071   1.141
 9603TIP3   OH228765   0.260   4.872   3.665
 9603TIP3    H128766   0.335   4.904   3.716
 9603TIP3    H228767   0.199   4.839   3.731
 9604TIP3   OH228768   6.233   3.844   4.594
 9604TIP3    H128769   6.245   3.836   4.688
 9604TIP3    H228770   6.201   3.758   4.566
 9605TIP3   OH228771   5.641   0.146   2.677
 9605TIP3    H128772   5.615   0.100   2.597
 9605TIP3    H228773   5.728   0.111   2.697
 9606TIP3   OH228774   6.762   7.638   6.066
 9606TIP3    H128775   6.825   7.693   6.020
 9606TIP3    H228776   6.814   7.565   6.099
 9607TIP3   OH228777   7.602   3.565   3.931
 9607TIP3    H128778   7.665   3.499   3.960
 9607TIP3    H228779   7.635   3.594   3.846
 9608TIP3   OH228780   6.412   1.112   6.217
 9608TIP3    H128781   6.427   1.170   6.142
 9608TIP3    H228782   6.451   1.159   6.291
 9609TIP3   OH228783   6.205   5.609   3.494
 9609TIP3    H128784   6.297   5.624   3.471
 9609TIP3    H228785   6.156   5.673   3.443
 9610TIP3   OH228786   0.551   1.205   2.607
 9610TIP3    H128787   0.472   1.197   2.554
 9610TIP3    H228788   0.615   1.246   2.549
 9611TIP3   OH228789   8.091   1.878   0.132
 9611TIP3    H128790   8.185   1.896   0.136
 9611TIP3    H228791   8.071   1.830   0.212
 9612TIP3   OH228792   6.298   0.400   2.153
 9612TIP3    H128793   6.246   0.326   2.123
 9612TIP3    H228794   6.386   0.383   2.119
 9613TIP3   OH228795   8.173   5.570   0.443
 9613TIP3    H128796   8.187   5.664   0.435
 9613TIP3    H228797   8.137   5.558   0.531
 9614TIP3   OH228798   3.921   1.900   0.187
 9614TIP3    H128799   3.930   1.829   0.124
 9614TIP3    H228800   3.868   1.966   0.142
 9615TIP3   OH228801   3.674   1.087   0.440
 9615TIP3    H128802   3.704   1.160   0.495
 9615TIP3    H228803   3.698   1.113   0.351
 9616TIP3   OH228804   7.542   4.218   3.414
 9616TIP3    H128805   7.585   4.168   3.483
 9616TIP3    H228806   7.541   4.159   3.338
 9617TIP3   OH228807   7.759   5.882   3.212
 9617TIP3    H128808   7.788   5.961   3.167
 9617TIP3    H228809   7.839   5.841   3.244
 9618TIP3   OH228810   0.668   5.066   0.587
 9618TIP3    H128811   0.631   5.154   0.576
 9618TIP3    H228812   0.706   5.044   0.502
 9619TIP3   OH228813   6.978   1.157   4.476
 9619TIP3    H128814   6.909   1.140   4.540
 9619TIP3    H228815   6.987   1.074   4.428
 9620TIP3   OH228816   0.359   5.293   4.892
 9620TIP3    H128817   0.439   5.325   4.850
 9620TIP3    H228818   0.329   5.222   4.835
 9621TIP3   OH228819   7.099   0.361   0.164
 9621TIP3    H128820   7.024   0.304   0.176
 9621TIP3    H228821   7.173   0.312   0.201
 9622TIP3   OH228822   1.648   1.748   2.490
 9622TIP3    H128823   1.710   1.759   2.418
 9622TIP3    H228824   1.664   1.823   2.547
 9623TIP3   OH228825   2.907   7.269   4.427
 9623TIP3    H128826   2.814   7.285   4.411
 9623TIP3    H228827   2.951   7.311   4.354
 9624TIP3   OH228828   3.149   0.213   2.482
 9624TIP3    H128829   3.127   0.305   2.467
 9624TIP3    H228830   3.110   0.167   2.408
 9625TIP3   OH228831   3.029   3.095   1.503
 9625TIP3    H128832   2.945   3.051   1.486
 9625TIP3    H228833   3.071   3.099   1.417
 9626TIP3   OH228834   4.347   2.711   5.332
 9626TIP3    H128835   4.279   2.650   5.303
 9626TIP3    H228836   4.340   2.785   5.272
 9627TIP3   OH228837   1.533   4.463   3.499
 9627TIP3    H128838   1.492   4.400   3.558
 9627TIP3    H228839   1.534   4.418   3.414
 9628TIP3   OH228840   6.665   5.594   1.255
 9628TIP3    H128841   6.625   5.538   1.321
 9628TIP3    H228842   6.688   5.675   1.302
 9629TIP3   OH228843   6.426   2.147   0.750
 9629TIP3    H128844   6.517   2.176   0.737
 9629TIP3    H228845   6.427   2.054   0.725
 9630TIP3   OH228846   7.165   1.762   3.897
 9630TIP3    H128847   7.090   1.720   3.939
 9630TIP3    H228848   7.240   1.711   3.927
 9631TIP3   OH228849   3.797   0.854   1.397
 9631TIP3    H128850   3.821   0.923   1.459
 9631TIP3    H228851   3.740   0.898   1.334
 9632TIP3   OH228852   1.417   1.899   3.682
 9632TIP3    H128853   1.368   1.874   3.604
 9632TIP3    H228854   1.502   1.858   3.671
 9633TIP3   OH228855   1.397   6.516   6.149
 9633TIP3    H128856   1.435   6.451   6.091
 9633TIP3    H228857   1.304   6.518   6.125
 9634TIP3   OH228858   1.316   1.151   3.036
 9634TIP3    H128859   1.405   1.124   3.060
 9634TIP3    H228860   1.327   1.238   2.998
 9635TIP3   OH228861   5.431   0.626   0.675
 9635TIP3    H128862   5.358   0.580   0.633
 9635TIP3    H228863   5.451   0.573   0.752
 9636TIP3   OH228864   4.150   5.197   2.459
 9636TIP3    H128865   4.123   5.205   2.367
 9636TIP3    H228866   4.147   5.103   2.477
 9637TIP3   OH228867   2.619   3.562   5.957
 9637TIP3    H128868   2.701   3.555   6.005
 9637TIP3    H228869   2.632   3.508   5.879
 9638TIP3   OH228870   3.138   6.444   2.564
 9638TIP3    H128871   3.108   6.461   2.653
 9638TIP3    H228872   3.144   6.530   2.524
 9639TIP3   OH228873   7.723   3.651   2.309
 9639TIP3    H128874   7.808   3.659   2.268
 9639TIP3    H228875   7.741   3.648   2.403
 9640TIP3   OH228876   6.749   7.188   0.510
 9640TIP3    H128877   6.739   7.126   0.438
 9640TIP3    H228878   6.727   7.138   0.588
 9641TIP3   OH228879   6.751   3.485   1.976
 9641TIP3    H128880   6.762   3.390   1.963
 9641TIP3    H228881   6.839   3.521   1.960
 9642TIP3   OH228882   5.818   3.229   1.661
 9642TIP3    H128883   5.774   3.256   1.580
 9642TIP3    H228884   5.750   3.234   1.728
 9643TIP3   OH228885   2.194   6.417   6.016
 9643TIP3    H128886   2.100   6.414   5.998
 9643TIP3    H228887   2.209   6.506   6.048
 9644TIP3   OH228888   4.308   0.257   0.158
 9644TIP3    H128889   4.221   0.296   0.157
 9644TIP3    H228890   4.293   0.166   0.184
 9645TIP3   OH228891   7.924   2.619   2.281
 9645TIP3    H128892   7.872   2.586   2.354
 9645TIP3    H228893   7.876   2.589   2.203
 9646TIP3   OH228894   0.849   7.625   0.420
 9646TIP3    H128895   0.930   7.619   0.471
 9646TIP3    H228896   0.820   7.715   0.432
 9647TIP3   OH228897   3.018   0.587   4.095
 9647TIP3    H128898   3.081   0.658   4.084
 9647TIP3    H228899   2.966   0.612   4.171
 9648TIP3   OH228900   7.125   5.165   2.571
 9648TIP3    H128901   7.061   5.132   2.507
 9648TIP3    H228902   7.158   5.086   2.615
 9649TIP3   OH228903   2.381   2.635   5.787
 9649TIP3    H128904   2.428   2.588   5.856
 9649TIP3    H228905   2.390   2.727   5.810
 9650TIP3   OH228906   5.399   0.901   0.734
 9650TIP3    H128907   5.480   0.911   0.784
 9650TIP3    H228908   5.406   0.815   0.693
 9651TIP3   OH228909   6.729   0.452   2.584
 9651TIP3    H128910   6.669   0.396   2.634
 9651TIP3    H228911   6.732   0.411   2.497
 9652TIP3   OH228912   4.553   7.225   5.160
 9652TIP3    H128913   4.483   7.264   5.107
 9652TIP3    H228914   4.609   7.180   5.097
 9653TIP3   OH228915   6.043   5.085   2.612
 9653TIP3    H128916   6.053   5.084   2.707
 9653TIP3    H228917   6.076   4.999   2.584
 9654TIP3   OH228918   2.608   3.352   5.046
 9654TIP3    H128919   2.611   3.395   4.960
 9654TIP3    H228920   2.661   3.408   5.103
 9655TIP3   OH228921   7.747   1.040   2.973
 9655TIP3    H128922   7.791   1.031   3.058
 9655TIP3    H228923   7.818   1.046   2.909
 9656TIP3   OH228924   5.582   4.495   3.974
 9656TIP3    H128925   5.513   4.500   4.040
 9656TIP3    H228926   5.664   4.502   4.023
 9657TIP3   OH228927   5.237   5.590   3.691
 9657TIP3    H128928   5.230   5.546   3.606
 9657TIP3    H228929   5.146   5.613   3.714
 9658TIP3   OH228930   1.466   2.504   4.754
 9658TIP3    H128931   1.401   2.435   4.768
 9658TIP3    H228932   1.543   2.458   4.722
 9659TIP3   OH228933   3.335   0.638   5.941
 9659TIP3    H128934   3.302   0.550   5.962
 9659TIP3    H228935   3.279   0.697   5.993
 9660TIP3   OH228936   7.813   3.686   3.333
 9660TIP3    H128937   7.847   3.665   3.420
 9660TIP3    H228938   7.884   3.735   3.291
 9661TIP3   OH228939   1.388   0.252   6.003
 9661TIP3    H128940   1.292   0.250   6.013
 9661TIP3    H228941   1.419   0.302   6.079
 9662TIP3   OH228942   5.299   0.394   0.867
 9662TIP3    H128943   5.341   0.321   0.820
 9662TIP3    H228944   5.268   0.452   0.797
 9663TIP3   OH228945   8.004   3.926   5.267
 9663TIP3    H128946   7.935   3.913   5.332
 9663TIP3    H228947   8.013   4.021   5.260
 9664TIP3   OH228948   0.744   1.336   5.732
 9664TIP3    H128949   0.774   1.258   5.686
 9664TIP3    H228950   0.789   1.333   5.817
 9665TIP3   OH228951   0.573   3.022   0.102
 9665TIP3    H128952   0.537   2.983   0.022
 9665TIP3    H228953   0.535   2.968   0.172
 9666TIP3   OH228954   2.555   4.398   6.566
 9666TIP3    H128955   2.462   4.377   6.558
 9666TIP3    H228956   2.564   4.481   6.521
 9667TIP3   OH228957   2.710   2.951   4.538
 9667TIP3    H128958   2.617   2.957   4.557
 9667TIP3    H228959   2.753   2.968   4.622
 9668TIP3   OH228960   7.334   2.672   5.327
 9668TIP3    H128961   7.325   2.688   5.421
 9668TIP3    H228962   7.249   2.698   5.290
 9669TIP3   OH228963   0.741   6.358   3.114
 9669TIP3    H128964   0.830   6.329   3.135
 9669TIP3    H228965   0.689   6.329   3.189
 9670TIP3   OH228966   1.797   0.501   5.704
 9670TIP3    H128967   1.891   0.505   5.684
 9670TIP3    H228968   1.771   0.412   5.680
 9671TIP3   OH228969   0.026   1.284   5.948
 9671TIP3    H128970   0.107   1.232   5.944
 9671TIP3    H228971   0.042   1.349   6.016
 9672TIP3   OH228972   5.117   5.478   0.981
 9672TIP3    H128973   5.085   5.511   1.064
 9672TIP3    H228974   5.168   5.550   0.944
 9673TIP3   OH228975   3.740   2.249   5.093
 9673TIP3    H128976   3.644   2.248   5.094
 9673TIP3    H228977   3.766   2.175   5.149
 9674TIP3   OH228978   0.636   0.398   4.957
 9674TIP3    H128979   0.670   0.447   5.031
 9674TIP3    H228980   0.612   0.313   4.993
 9675TIP3   OH228981   6.219   2.712   4.280
 9675TIP3    H128982   6.141   2.689   4.230
 9675TIP3    H228983   6.201   2.799   4.315
 9676TIP3   OH228984  -0.003   5.881   2.774
 9676TIP3    H128985   0.001   5.974   2.751
 9676TIP3    H228986   0.023   5.835   2.694
 9677TIP3   OH228987   7.779   7.022   2.715
 9677TIP3    H128988   7.748   7.094   2.661
 9677TIP3    H228989   7.852   6.984   2.666
 9678TIP3   OH228990   6.302   4.396   3.285
 9678TIP3    H128991   6.228   4.448   3.253
 9678TIP3    H228992   6.377   4.456   3.279
 9679TIP3   OH228993   6.250   5.062   5.134
 9679TIP3    H128994   6.240   5.135   5.074
 9679TIP3    H228995   6.168   5.058   5.182
 9680TIP3   OH228996   4.580   3.422   1.854
 9680TIP3    H128997   4.661   3.443   1.901
 9680TIP3    H228998   4.513   3.421   1.923
 9681TIP3   OH228999   4.620   3.006   6.577
 9681TIP3    H129000   4.631   2.943   6.649
 9681TIP3    H229001   4.538   2.980   6.535
 9682TIP3   OH229002   7.823   0.941   1.247
 9682TIP3    H129003   7.905   0.958   1.202
 9682TIP3    H229004   7.791   0.859   1.208
 9683TIP3   OH229005   5.831   5.735   5.243
 9683TIP3    H129006   5.765   5.685   5.195
 9683TIP3    H229007   5.909   5.679   5.243
 9684TIP3   OH229008   3.695   3.951   3.563
 9684TIP3    H129009   3.738   4.008   3.627
 9684TIP3    H229010   3.638   4.010   3.514
 9685TIP3   OH229011   0.280   2.996   5.154
 9685TIP3    H129012   0.223   2.964   5.223
 9685TIP3    H229013   0.369   2.978   5.185
 9686TIP3   OH229014   4.791   7.800   0.627
 9686TIP3    H129015   4.864   7.780   0.568
 9686TIP3    H229016   4.721   7.740   0.600
 9687TIP3   OH229017   3.854   1.048   2.487
 9687TIP3    H129018   3.865   1.121   2.547
 9687TIP3    H229019   3.767   1.013   2.508
 9688TIP3   OH229020   2.756   0.445   1.113
 9688TIP3    H129021   2.797   0.516   1.063
 9688TIP3    H229022   2.669   0.478   1.135
 9689TIP3   OH229023   4.752   7.458   1.917
 9689TIP3    H129024   4.793   7.412   1.990
 9689TIP3    H229025   4.709   7.389   1.866
 9690TIP3   OH229026   1.750   1.970   1.167
 9690TIP3    H129027   1.677   1.940   1.221
 9690TIP3    H229028   1.792   2.039   1.219
 9691TIP3   OH229029   6.382   5.522   1.280
 9691TIP3    H129030   6.319   5.594   1.285
 9691TIP3    H229031   6.385   5.498   1.187
 9692TIP3   OH229032   0.780   7.541   2.967
 9692TIP3    H129033   0.823   7.531   3.052
 9692TIP3    H229034   0.844   7.586   2.912
 9693TIP3   OH229035   6.418   1.657   1.787
 9693TIP3    H129036   6.363   1.636   1.712
 9693TIP3    H229037   6.435   1.572   1.829
 9694TIP3   OH229038   4.505   3.312   0.349
 9694TIP3    H129039   4.459   3.279   0.426
 9694TIP3    H229040   4.594   3.276   0.357
 9695TIP3   OH229041   2.659   2.829   2.887
 9695TIP3    H129042   2.649   2.734   2.892
 9695TIP3    H229043   2.608   2.854   2.810
 9696TIP3   OH229044   2.058   4.303   6.039
 9696TIP3    H129045   2.109   4.264   5.969
 9696TIP3    H229046   2.112   4.375   6.072
 9697TIP3   OH229047   0.029   0.501   2.654
 9697TIP3    H129048   0.035   0.409   2.676
 9697TIP3    H229049   0.021   0.502   2.558
 9698TIP3   OH229050   5.081   0.792   2.284
 9698TIP3    H129051   5.047   0.714   2.327
 9698TIP3    H229052   5.005   0.829   2.239
 9699TIP3   OH229053   2.382   1.687   4.665
 9699TIP3    H129054   2.410   1.772   4.699
 9699TIP3    H229055   2.359   1.636   4.743
 9700TIP3   OH229056   0.801   0.859   0.824
 9700TIP3    H129057   0.718   0.899   0.797
 9700TIP3    H229058   0.777   0.798   0.894
 9701TIP3   OH229059   3.109   1.489   2.057
 9701TIP3    H129060   3.116   1.488   2.152
 9701TIP3    H229061   3.198   1.509   2.027
 9702TIP3   OH229062   7.629   3.975   1.856
 9702TIP3    H129063   7.587   4.060   1.844
 9702TIP3    H229064   7.575   3.932   1.923
 9703TIP3   OH229065   2.960   4.776   1.335
 9703TIP3    H129066   2.991   4.710   1.273
 9703TIP3    H229067   2.960   4.731   1.420
 9704TIP3   OH229068   7.746   2.855   1.238
 9704TIP3    H129069   7.808   2.806   1.184
 9704TIP3    H229070   7.787   2.940   1.251
 9705TIP3   OH229071   5.525   7.779   5.682
 9705TIP3    H129072   5.533   7.705   5.743
 9705TIP3    H229073   5.612   7.819   5.682
 9706TIP3   OH229074   4.200   3.200   0.557
 9706TIP3    H129075   4.196   3.200   0.461
 9706TIP3    H229076   4.277   3.147   0.577
 9707TIP3   OH229077   0.728   2.771   0.223
 9707TIP3    H129078   0.732   2.692   0.277
 9707TIP3    H229079   0.660   2.824   0.264
 9708TIP3   OH229080   0.382   7.122   0.774
 9708TIP3    H129081   0.379   7.173   0.855
 9708TIP3    H229082   0.365   7.186   0.705
 9709TIP3   OH229083   7.890   0.076   0.019
 9709TIP3    H129084   7.807   0.119   0.040
 9709TIP3    H229085   7.955   0.146   0.027
 9710TIP3   OH229086   2.057   5.958   0.575
 9710TIP3    H129087   2.124   5.937   0.509
 9710TIP3    H229088   2.081   6.045   0.608
 9711TIP3   OH229089   3.139   2.109   5.758
 9711TIP3    H129090   3.150   2.149   5.671
 9711TIP3    H229091   3.226   2.076   5.780
 9712TIP3   OH229092   4.599   6.017   2.871
 9712TIP3    H129093   4.558   6.027   2.958
 9712TIP3    H229094   4.692   6.006   2.890
 9713TIP3   OH229095   6.922   2.109   0.887
 9713TIP3    H129096   6.925   2.050   0.811
 9713TIP3    H229097   7.011   2.108   0.922
 9714TIP3   OH229098   7.111   6.909   6.693
 9714TIP3    H129099   7.140   6.979   6.635
 9714TIP3    H229100   7.017   6.900   6.676
 9715TIP3   OH229101   3.144   1.123   1.477
 9715TIP3    H129102   3.052   1.117   1.451
 9715TIP3    H229103   3.173   1.206   1.441
 9716TIP3   OH229104   2.694   2.028   3.027
 9716TIP3    H129105   2.685   2.105   2.972
 9716TIP3    H229106   2.686   1.954   2.966
 9717TIP3   OH229107   5.761   7.717   3.594
 9717TIP3    H129108   5.850   7.724   3.629
 9717TIP3    H229109   5.716   7.658   3.655
 9718TIP3   OH229110   2.288   7.556   4.904
 9718TIP3    H129111   2.334   7.552   4.988
 9718TIP3    H229112   2.204   7.513   4.920
 9719TIP3   OH229113   5.479   0.281   1.977
 9719TIP3    H129114   5.522   0.352   1.929
 9719TIP3    H229115   5.514   0.287   2.066
 9720TIP3   OH229116   3.604   5.368   2.294
 9720TIP3    H129117   3.676   5.365   2.357
 9720TIP3    H229118   3.526   5.383   2.348
 9721TIP3   OH229119   6.577   4.776   2.096
 9721TIP3    H129120   6.597   4.864   2.064
 9721TIP3    H229121   6.650   4.723   2.064
 9722TIP3   OH229122   2.528   1.419   1.075
 9722TIP3    H129123   2.541   1.326   1.057
 9722TIP3    H229124   2.536   1.426   1.170
 9723TIP3   OH229125   8.019   7.464   3.952
 9723TIP3    H129126   7.936   7.496   3.988
 9723TIP3    H229127   8.043   7.391   4.009
 9724TIP3   OH229128   0.392   4.805   5.808
 9724TIP3    H129129   0.408   4.811   5.902
 9724TIP3    H229130   0.317   4.862   5.793
 9725TIP3   OH229131   0.540   5.882   5.926
 9725TIP3    H129132   0.548   5.916   5.837
 9725TIP3    H229133   0.627   5.893   5.964
 9726TIP3   OH229134   4.492   3.139   0.573
 9726TIP3    H129135   4.494   3.187   0.656
 9726TIP3    H229136   4.563   3.075   0.580
 9727TIP3   OH229137   2.796   4.176   4.159
 9727TIP3    H129138   2.789   4.217   4.073
 9727TIP3    H229139   2.785   4.082   4.142
 9728TIP3   OH229140   3.273   7.638   1.607
 9728TIP3    H129141   3.191   7.601   1.638
 9728TIP3    H229142   3.332   7.631   1.682
 9729TIP3   OH229143   1.579   1.841   5.357
 9729TIP3    H129144   1.665   1.883   5.358
 9729TIP3    H229145   1.532   1.884   5.285
 9730TIP3   OH229146   2.168   4.982   0.079
 9730TIP3    H129147   2.152   4.891   0.052
 9730TIP3    H229148   2.165   5.033  -0.001
 9731TIP3   OH229149   4.641   4.700   2.478
 9731TIP3    H129150   4.720   4.684   2.531
 9731TIP3    H229151   4.601   4.614   2.468
 9732TIP3   OH229152   1.447   3.351   3.856
 9732TIP3    H129153   1.434   3.257   3.861
 9732TIP3    H229154   1.386   3.387   3.921
 9733TIP3   OH229155   4.989   7.383   1.562
 9733TIP3    H129156   4.925   7.367   1.492
 9733TIP3    H229157   4.947   7.447   1.619
 9734TIP3   OH229158   7.927   3.146   4.187
 9734TIP3    H129159   7.996   3.174   4.126
 9734TIP3    H229160   7.974   3.106   4.260
 9735TIP3   OH229161   8.063   2.870   4.655
 9735TIP3    H129162   8.056   2.956   4.614
 9735TIP3    H229163   8.133   2.826   4.607
 9736TIP3   OH229164   8.254   3.301   3.473
 9736TIP3    H129165   8.273   3.303   3.379
 9736TIP3    H229166   8.176   3.246   3.480
 9737TIP3   OH229167   1.577   7.070   0.226
 9737TIP3    H129168   1.559   6.983   0.262
 9737TIP3    H229169   1.666   7.090   0.254
 9738TIP3   OH229170   7.726   4.228   2.527
 9738TIP3    H129171   7.677   4.148   2.546
 9738TIP3    H229172   7.685   4.295   2.581
 9739TIP3   OH229173   2.442   6.440   5.860
 9739TIP3    H129174   2.491   6.414   5.938
 9739TIP3    H229175   2.353   6.411   5.877
 9740TIP3   OH229176   1.772   5.236   5.610
 9740TIP3    H129177   1.711   5.238   5.684
 9740TIP3    H229178   1.820   5.154   5.620
 9741TIP3   OH229179   8.208   1.681   6.430
 9741TIP3    H129180   8.194   1.720   6.344
 9741TIP3    H229181   8.295   1.642   6.426
 9742TIP3   OH229182   7.426   5.613   5.190
 9742TIP3    H129183   7.396   5.553   5.259
 9742TIP3    H229184   7.349   5.624   5.133
 9743TIP3   OH229185   0.754   6.816   4.562
 9743TIP3    H129186   0.766   6.905   4.596
 9743TIP3    H229187   0.688   6.826   4.493
 9744TIP3   OH229188   4.766   5.982   3.257
 9744TIP3    H129189   4.853   5.950   3.279
 9744TIP3    H229190   4.719   5.904   3.226
 9745TIP3   OH229191   2.889   1.310   4.953
 9745TIP3    H129192   2.837   1.353   5.021
 9745TIP3    H229193   2.864   1.355   4.872
 9746TIP3   OH229194   2.954   0.960   3.183
 9746TIP3    H129195   2.958   1.048   3.145
 9746TIP3    H229196   2.879   0.962   3.241
 9747TIP3   OH229197   2.207   0.471   0.319
 9747TIP3    H129198   2.299   0.468   0.345
 9747TIP3    H229199   2.171   0.548   0.365
 9748TIP3   OH229200   0.305   2.225   2.853
 9748TIP3    H129201   0.334   2.268   2.934
 9748TIP3    H229202   0.227   2.177   2.878
 9749TIP3   OH229203   3.032   7.548   1.485
 9749TIP3    H129204   3.088   7.615   1.447
 9749TIP3    H229205   2.966   7.596   1.534
 9750TIP3   OH229206   3.023   2.730   4.500
 9750TIP3    H129207   2.937   2.688   4.504
 9750TIP3    H229208   3.038   2.761   4.589
 9751TIP3   OH229209   0.195   6.618   4.884
 9751TIP3    H129210   0.220   6.685   4.820
 9751TIP3    H229211   0.129   6.661   4.939
 9752TIP3   OH229212   3.540   1.829   1.093
 9752TIP3    H129213   3.497   1.744   1.081
 9752TIP3    H229214   3.541   1.867   1.005
 9753TIP3   OH229215   7.928   2.335   6.102
 9753TIP3    H129216   7.895   2.301   6.019
 9753TIP3    H229217   7.975   2.415   6.078
 9754TIP3   OH229218   3.196   6.395   1.867
 9754TIP3    H129219   3.256   6.323   1.847
 9754TIP3    H229220   3.153   6.368   1.948
 9755TIP3   OH229221   7.350   0.141   2.206
 9755TIP3    H129222   7.321   0.228   2.178
 9755TIP3    H229223   7.355   0.148   2.301
 9756TIP3   OH229224   3.706   6.963   5.600
 9756TIP3    H129225   3.705   6.868   5.595
 9756TIP3    H229226   3.634   6.991   5.544
 9757TIP3   OH229227   4.581   1.611   5.860
 9757TIP3    H129228   4.636   1.660   5.922
 9757TIP3    H229229   4.535   1.547   5.914
 9758TIP3   OH229230   2.800   2.260   5.601
 9758TIP3    H129231   2.808   2.222   5.688
 9758TIP3    H229232   2.816   2.354   5.614
 9759TIP3   OH229233   6.065   4.879   6.760
 9759TIP3    H129234   5.972   4.893   6.779
 9759TIP3    H229235   6.074   4.903   6.668
 9760TIP3   OH229236   2.707   1.265   6.619
 9760TIP3    H129237   2.803   1.261   6.621
 9760TIP3    H229238   2.686   1.273   6.526
 9761TIP3   OH229239   7.398   7.714   3.338
 9761TIP3    H129240   7.477   7.669   3.307
 9761TIP3    H229241   7.407   7.803   3.304
 9762TIP3   OH229242   1.801   6.641   3.650
 9762TIP3    H129243   1.789   6.554   3.613
 9762TIP3    H229244   1.719   6.658   3.697
 9763TIP3   OH229245   0.629   3.155   4.267
 9763TIP3    H129246   0.569   3.157   4.192
 9763TIP3    H229247   0.640   3.062   4.287
 9764TIP3   OH229248   0.836   4.396   1.536
 9764TIP3    H129249   0.842   4.443   1.453
 9764TIP3    H229250   0.751   4.353   1.532
 9765TIP3   OH229251   6.563   6.433   1.220
 9765TIP3    H129252   6.546   6.383   1.140
 9765TIP3    H229253   6.653   6.413   1.242
 9766TIP3   OH229254   4.602   6.097   3.816
 9766TIP3    H129255   4.605   6.079   3.910
 9766TIP3    H229256   4.548   6.027   3.780
 9767TIP3   OH229257   3.209   6.296   0.355
 9767TIP3    H129258   3.148   6.244   0.408
 9767TIP3    H229259   3.177   6.386   0.364
 9768TIP3   OH229260   6.568   3.993   0.303
 9768TIP3    H129261   6.518   3.977   0.223
 9768TIP3    H229262   6.524   4.066   0.346
 9769TIP3   OH229263   5.876   6.518   0.433
 9769TIP3    H129264   5.971   6.504   0.430
 9769TIP3    H229265   5.849   6.480   0.516
 9770TIP3   OH229266   7.777   4.613   6.107
 9770TIP3    H129267   7.853   4.556   6.095
 9770TIP3    H229268   7.703   4.553   6.116
 9771TIP3   OH229269   3.253   1.083   5.883
 9771TIP3    H129270   3.168   1.114   5.913
 9771TIP3    H229271   3.301   1.063   5.964
 9772TIP3   OH229272   0.517   4.181   3.542
 9772TIP3    H129273   0.483   4.182   3.453
 9772TIP3    H229274   0.521   4.274   3.566
 9773TIP3   OH229275   2.897   4.419   3.557
 9773TIP3    H129276   2.830   4.418   3.489
 9773TIP3    H229277   2.918   4.511   3.569
 9774TIP3   OH229278   0.210   1.429   6.349
 9774TIP3    H129279   0.287   1.391   6.307
 9774TIP3    H229280   0.178   1.360   6.408
 9775TIP3   OH229281   0.238   6.172   0.500
 9775TIP3    H129282   0.265   6.163   0.592
 9775TIP3    H229283   0.315   6.147   0.450
 9776TIP3   OH229284   3.828   0.538   4.933
 9776TIP3    H129285   3.779   0.620   4.933
 9776TIP3    H229286   3.762   0.470   4.922
 9777TIP3   OH229287   5.889   6.808   6.210
 9777TIP3    H129288   5.919   6.719   6.228
 9777TIP3    H229289   5.833   6.799   6.133
 9778TIP3   OH229290   3.143   5.326   2.468
 9778TIP3    H129291   3.054   5.305   2.496
 9778TIP3    H229292   3.139   5.420   2.446
 9779TIP3   OH229293   7.946   7.633   2.774
 9779TIP3    H129294   7.995   7.714   2.784
 9779TIP3    H229295   7.991   7.586   2.704
 9780TIP3   OH229296   3.551   0.431   4.942
 9780TIP3    H129297   3.466   0.427   4.984
 9780TIP3    H229298   3.588   0.343   4.954
 9781TIP3   OH229299   3.239   2.237   2.007
 9781TIP3    H129300   3.237   2.177   2.082
 9781TIP3    H229301   3.156   2.284   2.012
 9782TIP3   OH229302   2.075   6.922   3.098
 9782TIP3    H129303   2.116   6.964   3.022
 9782TIP3    H229304   2.145   6.921   3.164
 9783TIP3   OH229305   2.397   2.754   4.556
 9783TIP3    H129306   2.392   2.850   4.553
 9783TIP3    H229307   2.487   2.735   4.582
 9784TIP3   OH229308   6.760   3.807   3.443
 9784TIP3    H129309   6.828   3.807   3.375
 9784TIP3    H229310   6.683   3.770   3.400
 9785TIP3   OH229311   6.628   4.428   1.228
 9785TIP3    H129312   6.665   4.431   1.140
 9785TIP3    H229313   6.551   4.371   1.220
 9786TIP3   OH229314   7.028   6.974   3.335
 9786TIP3    H129315   7.070   7.007   3.256
 9786TIP3    H229316   6.956   7.034   3.352
 9787TIP3   OH229317   5.484   0.689   2.286
 9787TIP3    H129318   5.483   0.657   2.196
 9787TIP3    H229319   5.426   0.766   2.285
 9788TIP3   OH229320   0.797   0.685  -0.007
 9788TIP3    H129321   0.707   0.660   0.014
 9788TIP3    H229322   0.815   0.759   0.051
 9789TIP3   OH229323   5.694   0.940   5.532
 9789TIP3    H129324   5.656   0.956   5.446
 9789TIP3    H229325   5.774   0.891   5.515
 9790TIP3   OH229326   4.127   2.878   0.760
 9790TIP3    H129327   4.105   2.870   0.668
 9790TIP3    H229328   4.221   2.896   0.761
 9791TIP3   OH229329   0.390   1.933   1.734
 9791TIP3    H129330   0.424   1.850   1.699
 9791TIP3    H229331   0.467   1.978   1.768
 9792TIP3   OH229332   1.249   4.318   2.848
 9792TIP3    H129333   1.228   4.393   2.905
 9792TIP3    H229334   1.329   4.345   2.802
 9793TIP3   OH229335   7.218   3.317   2.086
 9793TIP3    H129336   7.128   3.350   2.089
 9793TIP3    H229337   7.208   3.222   2.097
 9794TIP3   OH229338  -0.001   4.037   6.083
 9794TIP3    H129339   0.014   4.131   6.073
 9794TIP3    H229340  -0.010   4.005   5.993
 9795TIP3   OH229341   5.999   3.116   4.744
 9795TIP3    H129342   6.082   3.150   4.711
 9795TIP3    H229343   5.932   3.158   4.690
 9796TIP3   OH229344   1.902   5.741   5.981
 9796TIP3    H129345   1.948   5.660   6.002
 9796TIP3    H229346   1.963   5.789   5.924
 9797TIP3   OH229347   7.504   2.768   1.101
 9797TIP3    H129348   7.586   2.803   1.136
 9797TIP3    H229349   7.438   2.833   1.126
 9798TIP3   OH229350   1.621   6.203   1.814
 9798TIP3    H129351   1.574   6.217   1.732
 9798TIP3    H229352   1.584   6.269   1.874
 9799TIP3   OH229353   1.527   1.437   6.621
 9799TIP3    H129354   1.571   1.465   6.541
 9799TIP3    H229355   1.483   1.355   6.597
 9800TIP3   OH229356   1.692   4.242   1.132
 9800TIP3    H129357   1.628   4.282   1.191
 9800TIP3    H229358   1.690   4.149   1.154
 9801TIP3   OH229359   4.570   6.909   0.156
 9801TIP3    H129360   4.618   6.916   0.239
 9801TIP3    H229361   4.491   6.861   0.177
 9802TIP3   OH229362   7.713   5.497   4.033
 9802TIP3    H129363   7.802   5.529   4.044
 9802TIP3    H229364   7.669   5.566   3.983
 9803TIP3   OH229365   6.868   1.111   0.536
 9803TIP3    H129366   6.892   1.059   0.459
 9803TIP3    H229367   6.778   1.139   0.519
 9804TIP3   OH229368   8.027   7.388   1.207
 9804TIP3    H129369   8.076   7.410   1.127
 9804TIP3    H229370   7.974   7.465   1.225
 9805TIP3   OH229371   5.020   2.947   3.308
 9805TIP3    H129372   4.995   2.936   3.216
 9805TIP3    H229373   5.010   2.859   3.346
 9806TIP3   OH229374   2.814   3.006   4.244
 9806TIP3    H129375   2.832   2.999   4.338
 9806TIP3    H229376   2.827   2.918   4.210
 9807TIP3   OH229377   1.683   6.023   2.931
 9807TIP3    H129378   1.642   5.937   2.930
 9807TIP3    H229379   1.719   6.031   3.019
 9808TIP3   OH229380   5.812   4.709   5.524
 9808TIP3    H129381   5.823   4.635   5.464
 9808TIP3    H229382   5.731   4.751   5.496
 9809TIP3   OH229383   8.027   1.002   2.071
 9809TIP3    H129384   8.089   1.023   2.141
 9809TIP3    H229385   7.994   1.086   2.042
 9810TIP3   OH229386   5.872   1.871   5.465
 9810TIP3    H129387   5.932   1.918   5.406
 9810TIP3    H229388   5.786   1.881   5.425
 9811TIP3   OH229389   2.840   2.800   1.967
 9811TIP3    H129390   2.795   2.757   1.895
 9811TIP3    H229391   2.771   2.840   2.019
 9812TIP3   OH229392   0.737   6.643   0.156
 9812TIP3    H129393   0.742   6.679   0.245
 9812TIP3    H229394   0.757   6.718   0.100
 9813TIP3   OH229395   2.000   0.244   6.212
 9813TIP3    H129396   2.045   0.291   6.142
 9813TIP3    H229397   1.945   0.310   6.254
 9814TIP3   OH229398   0.786   2.049   1.201
 9814TIP3    H129399   0.741   1.968   1.228
 9814TIP3    H229400   0.867   2.018   1.160
 9815TIP3   OH229401   7.191   4.497   3.536
 9815TIP3    H129402   7.202   4.555   3.461
 9815TIP3    H229403   7.228   4.414   3.508
 9816TIP3   OH229404   3.155   6.983   1.062
 9816TIP3    H129405   3.215   6.909   1.065
 9816TIP3    H229406   3.195   7.049   1.119
 9817TIP3   OH229407   6.523   3.164   6.184
 9817TIP3    H129408   6.429   3.174   6.169
 9817TIP3    H229409   6.540   3.071   6.167
 9818TIP3   OH229410   4.843   6.278   0.579
 9818TIP3    H129411   4.773   6.213   0.572
 9818TIP3    H229412   4.896   6.248   0.653
 9819TIP3   OH229413   3.182   3.329   5.248
 9819TIP3    H129414   3.264   3.288   5.221
 9819TIP3    H229415   3.170   3.302   5.339
 9820TIP3   OH229416   6.381   7.727   0.882
 9820TIP3    H129417   6.300   7.778   0.892
 9820TIP3    H229418   6.439   7.762   0.950
 9821TIP3   OH229419   3.367   3.650   0.413
 9821TIP3    H129420   3.359   3.642   0.318
 9821TIP3    H229421   3.305   3.586   0.448
 9822TIP3   OH229422   3.100   2.145   1.080
 9822TIP3    H129423   3.155   2.115   1.008
 9822TIP3    H229424   3.102   2.074   1.144
 9823TIP3   OH229425   3.194   2.984   2.342
 9823TIP3    H129426   3.237   2.938   2.270
 9823TIP3    H229427   3.210   2.930   2.419
 9824TIP3   OH229428   3.364   6.238   3.831
 9824TIP3    H129429   3.440   6.236   3.773
 9824TIP3    H229430   3.297   6.189   3.783
 9825TIP3   OH229431   3.367   2.538   4.717
 9825TIP3    H129432   3.293   2.515   4.661
 9825TIP3    H229433   3.375   2.633   4.707
 9826TIP3   OH229434   1.764   4.206   0.872
 9826TIP3    H129435   1.720   4.233   0.953
 9826TIP3    H229436   1.821   4.134   0.899
 9827TIP3   OH229437   2.603   2.659   5.047
 9827TIP3    H129438   2.535   2.657   4.980
 9827TIP3    H229439   2.556   2.642   5.129
 9828TIP3   OH229440   0.568   7.097   4.619
 9828TIP3    H129441   0.581   7.105   4.524
 9828TIP3    H229442   0.506   7.024   4.628
 9829TIP3   OH229443   4.116   6.556   2.707
 9829TIP3    H129444   4.128   6.623   2.639
 9829TIP3    H229445   4.169   6.587   2.780
 9830TIP3   OH229446   0.731   0.942   1.241
 9830TIP3    H129447   0.821   0.927   1.213
 9830TIP3    H229448   0.717   0.880   1.312
 9831TIP3   OH229449   4.048   3.512   6.728
 9831TIP3    H129450   3.995   3.504   6.649
 9831TIP3    H229451   4.131   3.470   6.707
 9832TIP3   OH229452   5.183   1.829   4.675
 9832TIP3    H129453   5.169   1.839   4.769
 9832TIP3    H229454   5.206   1.917   4.644
 9833TIP3   OH229455   5.076   0.886   3.213
 9833TIP3    H129456   5.051   0.859   3.124
 9833TIP3    H229457   5.096   0.804   3.257
 9834TIP3   OH229458   0.073   2.749   6.705
 9834TIP3    H129459   0.027   2.811   6.762
 9834TIP3    H229460   0.108   2.683   6.765
 9835TIP3   OH229461   1.582   4.657   6.563
 9835TIP3    H129462   1.591   4.563   6.550
 9835TIP3    H229463   1.497   4.679   6.526
 9836TIP3   OH229464   0.893   3.493   1.272
 9836TIP3    H129465   0.960   3.543   1.319
 9836TIP3    H229466   0.923   3.495   1.181
 9837TIP3   OH229467   8.096   5.609   1.665
 9837TIP3    H129468   8.069   5.609   1.757
 9837TIP3    H229469   8.018   5.582   1.616
 9838TIP3   OH229470   6.236   3.905   3.314
 9838TIP3    H129471   6.227   3.842   3.242
 9838TIP3    H229472   6.232   3.991   3.271
 9839TIP3   OH229473   3.876   0.213   3.739
 9839TIP3    H129474   3.838   0.232   3.825
 9839TIP3    H229475   3.904   0.298   3.706
 9840TIP3   OH229476   0.123   4.243   6.394
 9840TIP3    H129477   0.119   4.250   6.299
 9840TIP3    H229478   0.053   4.300   6.426
 9841TIP3   OH229479   3.573   7.574   4.994
 9841TIP3    H129480   3.625   7.611   4.923
 9841TIP3    H229481   3.609   7.486   5.007
 9842TIP3   OH229482   5.054   4.013   0.132
 9842TIP3    H129483   5.105   4.063   0.069
 9842TIP3    H229484   4.985   3.970   0.080
 9843TIP3   OH229485   6.905   1.751   4.453
 9843TIP3    H129486   6.928   1.720   4.541
 9843TIP3    H229487   6.917   1.846   4.458
 9844TIP3   OH229488   2.826   6.126   1.147
 9844TIP3    H129489   2.888   6.195   1.169
 9844TIP3    H229490   2.844   6.104   1.056
 9845TIP3   OH229491   3.095   6.448   3.763
 9845TIP3    H129492   3.085   6.360   3.726
 9845TIP3    H229493   3.006   6.485   3.762
 9846TIP3   OH229494   7.939   3.693   6.024
 9846TIP3    H129495   7.969   3.780   6.050
 9846TIP3    H229496   7.845   3.692   6.047
 9847TIP3   OH229497   2.379   1.414   6.258
 9847TIP3    H129498   2.330   1.332   6.256
 9847TIP3    H229499   2.357   1.457   6.175
 9848TIP3   OH229500   3.102   1.419   5.691
 9848TIP3    H129501   3.184   1.417   5.642
 9848TIP3    H229502   3.079   1.327   5.703
 9849TIP3   OH229503   2.442   2.088   4.333
 9849TIP3    H129504   2.505   2.159   4.321
 9849TIP3    H229505   2.366   2.114   4.281
 9850TIP3   OH229506   7.434   3.305   1.934
 9850TIP3    H129507   7.344   3.333   1.950
 9850TIP3    H229508   7.478   3.383   1.899
 9851TIP3   OH229509   8.262   1.907   5.679
 9851TIP3    H129510   8.341   1.863   5.647
 9851TIP3    H229511   8.193   1.882   5.617
 9852TIP3   OH229512   5.383   7.264   3.221
 9852TIP3    H129513   5.389   7.265   3.317
 9852TIP3    H229514   5.313   7.202   3.202
 9853TIP3   OH229515   3.341   2.082   4.109
 9853TIP3    H129516   3.284   2.040   4.045
 9853TIP3    H229517   3.291   2.157   4.142
 9854TIP3   OH229518   3.024   6.501   4.661
 9854TIP3    H129519   3.086   6.479   4.591
 9854TIP3    H229520   2.973   6.573   4.626
 9855TIP3   OH229521   1.393   4.977   4.151
 9855TIP3    H129522   1.396   4.894   4.102
 9855TIP3    H229523   1.482   5.010   4.148
 9856TIP3   OH229524   4.633   6.748   4.606
 9856TIP3    H129525   4.727   6.746   4.623
 9856TIP3    H229526   4.594   6.704   4.682
 9857TIP3   OH229527   5.099   0.619   2.513
 9857TIP3    H129528   5.010   0.656   2.505
 9857TIP3    H229529   5.121   0.633   2.605
 9858TIP3   OH229530   4.469   1.466   2.258
 9858TIP3    H129531   4.392   1.492   2.207
 9858TIP3    H229532   4.542   1.511   2.214
 9859TIP3   OH229533   5.758   5.418   5.669
 9859TIP3    H129534   5.670   5.385   5.653
 9859TIP3    H229535   5.747   5.485   5.736
 9860TIP3   OH229536   1.536   6.130   6.634
 9860TIP3    H129537   1.479   6.086   6.570
 9860TIP3    H229538   1.491   6.213   6.653
 9861TIP3   OH229539   3.829   4.044   5.288
 9861TIP3    H129540   3.865   3.975   5.232
 9861TIP3    H229541   3.805   3.999   5.369
 9862TIP3   OH229542   4.005   5.835   0.140
 9862TIP3    H129543   3.940   5.793   0.196
 9862TIP3    H229544   4.061   5.883   0.201
 9863TIP3   OH229545   7.986   7.444   3.683
 9863TIP3    H129546   7.970   7.351   3.669
 9863TIP3    H229547   7.985   7.455   3.779
 9864TIP3   OH229548   2.191   1.210   0.159
 9864TIP3    H129549   2.186   1.156   0.238
 9864TIP3    H229550   2.248   1.283   0.183
 9865TIP3   OH229551   5.923   2.932   3.488
 9865TIP3    H129552   5.887   3.010   3.446
 9865TIP3    H229553   6.010   2.921   3.449
 9866TIP3   OH229554   2.246   2.038   3.080
 9866TIP3    H129555   2.287   2.023   2.995
 9866TIP3    H229556   2.204   1.954   3.102
 9867TIP3   OH229557   5.975   5.767   4.446
 9867TIP3    H129558   6.036   5.736   4.379
 9867TIP3    H229559   6.014   5.848   4.478
 9868TIP3   OH229560   6.675   2.195   2.812
 9868TIP3    H129561   6.769   2.177   2.809
 9868TIP3    H229562   6.636   2.117   2.852
 9869TIP3   OH229563   7.248   1.017   0.203
 9869TIP3    H129564   7.224   0.942   0.148
 9869TIP3    H229565   7.164   1.058   0.224
 9870TIP3   OH229566   3.386   7.281   5.334
 9870TIP3    H129567   3.415   7.338   5.405
 9870TIP3    H229568   3.338   7.339   5.275
 9871TIP3   OH229569   0.250   6.521   4.061
 9871TIP3    H129570   0.325   6.487   4.012
 9871TIP3    H229571   0.226   6.601   4.014
 9872TIP3   OH229572   5.448   7.279   3.506
 9872TIP3    H129573   5.383   7.259   3.574
 9872TIP3    H229574   5.532   7.263   3.549
 9873TIP3   OH229575   2.494   7.403   5.552
 9873TIP3    H129576   2.563   7.351   5.593
 9873TIP3    H229577   2.426   7.410   5.619
 9874TIP3   OH229578   3.331   4.824   4.293
 9874TIP3    H129579   3.267   4.891   4.312
 9874TIP3    H229580   3.336   4.771   4.372
 9875TIP3   OH229581   0.006   1.544   6.170
 9875TIP3    H129582  -0.035   1.602   6.106
 9875TIP3    H229583   0.098   1.541   6.144
 9876TIP3   OH229584   6.925   4.374   3.242
 9876TIP3    H129585   7.012   4.333   3.233
 9876TIP3    H229586   6.864   4.305   3.215
 9877TIP3   OH229587   4.113   6.706   2.480
 9877TIP3    H129588   4.145   6.676   2.395
 9877TIP3    H229589   4.019   6.715   2.469
 9878TIP3   OH229590   1.542   7.370   5.337
 9878TIP3    H129591   1.465   7.423   5.356
 9878TIP3    H229592   1.587   7.418   5.267
 9879TIP3   OH229593   7.573   1.287   0.207
 9879TIP3    H129594   7.526   1.220   0.157
 9879TIP3    H229595   7.506   1.351   0.229
 9880TIP3   OH229596   1.622   4.215   1.558
 9880TIP3    H129597   1.667   4.132   1.540
 9880TIP3    H229598   1.672   4.281   1.510
 9881TIP3   OH229599   3.934   3.862   6.035
 9881TIP3    H129600   3.969   3.790   5.982
 9881TIP3    H229601   3.883   3.819   6.104
 9882TIP3   OH229602   1.127   4.735   5.913
 9882TIP3    H129603   1.126   4.639   5.917
 9882TIP3    H229604   1.094   4.755   5.825
 9883TIP3   OH229605   0.826   1.493   2.275
 9883TIP3    H129606   0.901   1.552   2.281
 9883TIP3    H229607   0.751   1.547   2.297
 9884TIP3   OH229608   5.914   1.962   1.353
 9884TIP3    H129609   5.966   1.893   1.393
 9884TIP3    H229610   5.855   1.993   1.422
 9885TIP3   OH229611   8.270   1.589   3.811
 9885TIP3    H129612   8.350   1.537   3.800
 9885TIP3    H229613   8.296   1.678   3.787
 9886TIP3   OH229614   0.592   7.183   2.829
 9886TIP3    H129615   0.516   7.127   2.812
 9886TIP3    H229616   0.565   7.240   2.901
 9887TIP3   OH229617   5.245   2.058   4.466
 9887TIP3    H129618   5.310   2.084   4.531
 9887TIP3    H229619   5.296   2.036   4.388
 9888TIP3   OH229620   0.234   7.433   6.199
 9888TIP3    H129621   0.165   7.410   6.261
 9888TIP3    H229622   0.245   7.355   6.144
 9889TIP3   OH229623   2.409   1.425   2.374
 9889TIP3    H129624   2.349   1.432   2.300
 9889TIP3    H229625   2.369   1.478   2.442
 9890TIP3   OH229626   2.027   5.261   4.928
 9890TIP3    H129627   2.025   5.350   4.892
 9890TIP3    H229628   2.072   5.209   4.861
 9891TIP3   OH229629   2.859   3.748   0.864
 9891TIP3    H129630   2.863   3.843   0.876
 9891TIP3    H229631   2.926   3.730   0.799
 9892TIP3   OH229632   8.112   2.603   3.303
 9892TIP3    H129633   8.084   2.511   3.303
 9892TIP3    H229634   8.039   2.650   3.342
 9893TIP3   OH229635   6.290   1.241   4.476
 9893TIP3    H129636   6.200   1.271   4.472
 9893TIP3    H229637   6.335   1.293   4.409
 9894TIP3   OH229638   6.483   7.148   1.042
 9894TIP3    H129639   6.541   7.106   1.106
 9894TIP3    H229640   6.475   7.084   0.972
 9895TIP3   OH229641   6.302   1.303   6.603
 9895TIP3    H129642   6.292   1.371   6.537
 9895TIP3    H229643   6.314   1.222   6.553
 9896TIP3   OH229644   6.415   3.835   3.000
 9896TIP3    H129645   6.346   3.900   2.985
 9896TIP3    H229646   6.447   3.854   3.088
 9897TIP3   OH229647   0.503   1.355   2.371
 9897TIP3    H129648   0.462   1.418   2.430
 9897TIP3    H229649   0.483   1.388   2.283
 9898TIP3   OH229650   6.711   6.392   5.450
 9898TIP3    H129651   6.686   6.434   5.532
 9898TIP3    H229652   6.728   6.466   5.391
 9899TIP3   OH229653   1.834   0.178   0.660
 9899TIP3    H129654   1.769   0.119   0.697
 9899TIP3    H229655   1.918   0.138   0.681
 9900TIP3   OH229656   5.326   1.356   4.958
 9900TIP3    H129657   5.359   1.405   4.883
 9900TIP3    H229658   5.402   1.307   4.990
 9901TIP3   OH229659   3.170   4.890   3.297
 9901TIP3    H129660   3.146   4.812   3.347
 9901TIP3    H229661   3.155   4.866   3.206
 9902TIP3   OH229662   7.670   1.049   3.342
 9902TIP3    H129663   7.627   0.986   3.284
 9902TIP3    H229664   7.756   1.063   3.302
 9903TIP3   OH229665   6.748   4.740   5.347
 9903TIP3    H129666   6.766   4.830   5.322
 9903TIP3    H229667   6.778   4.688   5.272
 9904TIP3   OH229668   4.970   4.948   1.362
 9904TIP3    H129669   4.924   4.939   1.279
 9904TIP3    H229670   5.038   5.014   1.345
 9905TIP3   OH229671   6.089   7.552   2.709
 9905TIP3    H129672   6.022   7.611   2.675
 9905TIP3    H229673   6.147   7.609   2.761
 9906TIP3   OH229674   0.994   3.924   6.696
 9906TIP3    H129675   1.042   3.865   6.754
 9906TIP3    H229676   1.017   4.012   6.726
 9907TIP3   OH229677   3.213   4.130   0.329
 9907TIP3    H129678   3.279   4.064   0.307
 9907TIP3    H229679   3.220   4.195   0.259
 9908TIP3   OH229680   0.379   6.708   0.264
 9908TIP3    H129681   0.410   6.751   0.344
 9908TIP3    H229682   0.389   6.614   0.282
 9909TIP3   OH229683   7.209   5.030   6.026
 9909TIP3    H129684   7.303   5.043   6.014
 9909TIP3    H229685   7.201   4.937   6.048
 9910TIP3   OH229686   8.229   4.384   0.518
 9910TIP3    H129687   8.264   4.306   0.561
 9910TIP3    H229688   8.203   4.442   0.590
 9911TIP3   OH229689   4.940   0.330   6.296
 9911TIP3    H129690   5.035   0.321   6.299
 9911TIP3    H229691   4.907   0.242   6.313
 9912TIP3   OH229692   0.594   4.154   4.486
 9912TIP3    H129693   0.529   4.146   4.416
 9912TIP3    H229694   0.610   4.248   4.494
 9913TIP3   OH229695   6.233   3.214   4.605
 9913TIP3    H129696   6.193   3.264   4.533
 9913TIP3    H229697   6.288   3.149   4.562
 9914TIP3   OH229698   2.567   3.045   3.639
 9914TIP3    H129699   2.488   3.088   3.669
 9914TIP3    H229700   2.635   3.074   3.699
 9915TIP3   OH229701   2.743   4.021   5.280
 9915TIP3    H129702   2.740   4.116   5.269
 9915TIP3    H229703   2.720   4.007   5.372
 9916TIP3   OH229704   0.980   6.754   3.722
 9916TIP3    H129705   0.932   6.766   3.640
 9916TIP3    H229706   1.026   6.837   3.735
 9917TIP3   OH229707   3.419   1.677   6.190
 9917TIP3    H129708   3.389   1.596   6.231
 9917TIP3    H229709   3.382   1.746   6.245
 9918TIP3   OH229710   6.238   4.061   0.555
 9918TIP3    H129711   6.198   4.110   0.626
 9918TIP3    H229712   6.170   3.999   0.528
 9919TIP3   OH229713   6.286   4.700   0.245
 9919TIP3    H129714   6.310   4.700   0.338
 9919TIP3    H229715   6.288   4.608   0.220
 9920TIP3   OH229716   6.916   2.132   6.767
 9920TIP3    H129717   6.910   2.177   6.851
 9920TIP3    H229718   6.825   2.111   6.745
 9921TIP3   OH229719   0.129   2.290   2.228
 9921TIP3    H129720   0.146   2.325   2.316
 9921TIP3    H229721   0.045   2.245   2.235
 9922TIP3   OH229722   7.035   2.470   0.205
 9922TIP3    H129723   7.016   2.408   0.135
 9922TIP3    H229724   6.953   2.477   0.254
 9923TIP3   OH229725   3.551   4.617   4.816
 9923TIP3    H129726   3.623   4.594   4.757
 9923TIP3    H229727   3.584   4.593   4.903
 9924TIP3   OH229728   3.299   4.616   1.153
 9924TIP3    H129729   3.210   4.607   1.119
 9924TIP3    H229730   3.289   4.663   1.236
 9925TIP3   OH229731   6.529   3.490   5.813
 9925TIP3    H129732   6.556   3.404   5.846
 9925TIP3    H229733   6.535   3.482   5.718
 9926TIP3   OH229734   3.431   3.356   3.101
 9926TIP3    H129735   3.394   3.275   3.136
 9926TIP3    H229736   3.375   3.377   3.026
 9927TIP3   OH229737   3.198   1.862   5.532
 9927TIP3    H129738   3.231   1.952   5.531
 9927TIP3    H229739   3.264   1.811   5.484
 9928TIP3   OH229740   7.150   0.613   2.548
 9928TIP3    H129741   7.169   0.648   2.461
 9928TIP3    H229742   7.235   0.585   2.582
 9929TIP3   OH229743   8.028   3.445   1.510
 9929TIP3    H129744   8.036   3.515   1.576
 9929TIP3    H229745   7.962   3.478   1.449
 9930TIP3   OH229746   1.445   5.271   0.389
 9930TIP3    H129747   1.474   5.180   0.387
 9930TIP3    H229748   1.353   5.268   0.364
 9931TIP3   OH229749   2.736   4.568   1.868
 9931TIP3    H129750   2.685   4.612   1.936
 9931TIP3    H229751   2.793   4.637   1.834
 9932TIP3   OH229752   0.701   6.073   3.286
 9932TIP3    H129753   0.683   6.155   3.333
 9932TIP3    H229754   0.731   6.013   3.354
 9933TIP3   OH229755   7.166   7.650   5.352
 9933TIP3    H129756   7.205   7.726   5.309
 9933TIP3    H229757   7.240   7.603   5.390
 9934TIP3   OH229758   5.680   3.796   1.870
 9934TIP3    H129759   5.591   3.816   1.839
 9934TIP3    H229760   5.675   3.703   1.895
 9935TIP3   OH229761   2.193   1.930   2.688
 9935TIP3    H129762   2.189   1.852   2.744
 9935TIP3    H229763   2.261   1.984   2.728
 9936TIP3   OH229764   2.354   5.865   6.337
 9936TIP3    H129765   2.430   5.924   6.336
 9936TIP3    H229766   2.302   5.895   6.412
 9937TIP3   OH229767   4.384   1.778   1.432
 9937TIP3    H129768   4.413   1.730   1.510
 9937TIP3    H229769   4.315   1.723   1.395
 9938TIP3   OH229770   0.148   6.276   5.120
 9938TIP3    H129771   0.205   6.248   5.048
 9938TIP3    H229772   0.203   6.269   5.198
 9939TIP3   OH229773   0.175   4.941   0.999
 9939TIP3    H129774   0.080   4.950   1.008
 9939TIP3    H229775   0.192   4.848   1.016
 9940TIP3   OH229776   0.870   2.853   1.850
 9940TIP3    H129777   0.916   2.784   1.802
 9940TIP3    H229778   0.835   2.810   1.928
 9941TIP3   OH229779   0.454   0.732   0.888
 9941TIP3    H129780   0.380   0.781   0.854
 9941TIP3    H229781   0.514   0.798   0.922
 9942TIP3   OH229782   3.799   0.687   5.660
 9942TIP3    H129783   3.729   0.650   5.713
 9942TIP3    H229784   3.829   0.615   5.605
 9943TIP3   OH229785   6.049   0.349   4.657
 9943TIP3    H129786   6.016   0.374   4.571
 9943TIP3    H229787   5.991   0.279   4.685
 9944TIP3   OH229788   3.195   5.111   2.345
 9944TIP3    H129789   3.187   5.190   2.398
 9944TIP3    H229790   3.276   5.070   2.375
 9945TIP3   OH229791   1.643   4.281   3.093
 9945TIP3    H129792   1.582   4.351   3.066
 9945TIP3    H229793   1.607   4.250   3.176
 9946TIP3   OH229794   1.863   4.684   3.416
 9946TIP3    H129795   1.794   4.659   3.354
 9946TIP3    H229796   1.877   4.777   3.401
 9947TIP3   OH229797   8.257   6.615   2.417
 9947TIP3    H129798   8.314   6.683   2.381
 9947TIP3    H229799   8.184   6.610   2.356
 9948TIP3   OH229800   8.103   5.050   4.173
 9948TIP3    H129801   8.030   5.098   4.134
 9948TIP3    H229802   8.151   5.014   4.098
 9949TIP3   OH229803   4.845   4.902   0.096
 9949TIP3    H129804   4.791   4.834   0.137
 9949TIP3    H229805   4.891   4.857   0.026
 9950TIP3   OH229806   7.167   6.381   3.338
 9950TIP3    H129807   7.076   6.361   3.318
 9950TIP3    H229808   7.192   6.448   3.275
 9951TIP3   OH229809   0.351   5.536   6.072
 9951TIP3    H129810   0.412   5.575   6.135
 9951TIP3    H229811   0.389   5.556   5.986
 9952TIP3   OH229812   2.295   6.507   5.560
 9952TIP3    H129813   2.380   6.523   5.602
 9952TIP3    H229814   2.243   6.584   5.581
 9953TIP3   OH229815   1.928   1.215   3.467
 9953TIP3    H129816   1.962   1.140   3.516
 9953TIP3    H229817   1.833   1.208   3.476
 9954TIP3   OH229818   6.191   6.882   4.550
 9954TIP3    H129819   6.218   6.843   4.467
 9954TIP3    H229820   6.130   6.952   4.524
 9955TIP3   OH229821   0.332   4.151   2.349
 9955TIP3    H129822   0.314   4.093   2.424
 9955TIP3    H229823   0.377   4.226   2.388
 9956TIP3   OH229824   2.489   3.103   4.953
 9956TIP3    H129825   2.404   3.123   4.993
 9956TIP3    H229826   2.531   3.188   4.942
 9957TIP3   OH229827   4.758   3.660   2.277
 9957TIP3    H129828   4.840   3.633   2.317
 9957TIP3    H229829   4.690   3.621   2.334
 9958TIP3   OH229830   4.324   4.708   2.042
 9958TIP3    H129831   4.253   4.771   2.050
 9958TIP3    H229832   4.394   4.742   2.098
 9959TIP3   OH229833   7.242   3.543   1.545
 9959TIP3    H129834   7.305   3.478   1.578
 9959TIP3    H229835   7.248   3.615   1.607
 9960TIP3   OH229836   1.269   5.506   0.988
 9960TIP3    H129837   1.354   5.463   0.983
 9960TIP3    H229838   1.207   5.435   1.003
 9961TIP3   OH229839   7.561   6.941   6.153
 9961TIP3    H129840   7.522   6.888   6.223
 9961TIP3    H229841   7.633   6.888   6.121
 9962TIP3   OH229842   2.769   5.326   4.345
 9962TIP3    H129843   2.827   5.338   4.269
 9962TIP3    H229844   2.779   5.234   4.368
 9963TIP3   OH229845   8.179   2.232   4.455
 9963TIP3    H129846   8.187   2.194   4.367
 9963TIP3    H229847   8.092   2.207   4.484
 9964TIP3   OH229848   1.359   3.067   1.285
 9964TIP3    H129849   1.327   3.132   1.347
 9964TIP3    H229850   1.306   3.082   1.206
 9965TIP3   OH229851   1.005   0.718   1.450
 9965TIP3    H129852   1.026   0.626   1.434
 9965TIP3    H229853   0.918   0.716   1.490
 9966TIP3   OH229854   6.404   4.605   1.804
 9966TIP3    H129855   6.497   4.583   1.791
 9966TIP3    H229856   6.392   4.687   1.758
 9967TIP3   OH229857   2.301   5.918   5.662
 9967TIP3    H129858   2.347   5.947   5.583
 9967TIP3    H229859   2.370   5.897   5.724
 9968TIP3   OH229860   4.125   1.763   6.122
 9968TIP3    H129861   4.067   1.787   6.050
 9968TIP3    H229862   4.118   1.667   6.127
 9969TIP3   OH229863   3.628   0.836   1.028
 9969TIP3    H129864   3.718   0.864   1.048
 9969TIP3    H229865   3.582   0.918   1.008
 9970TIP3   OH229866   3.284   3.397   5.972
 9970TIP3    H129867   3.295   3.492   5.980
 9970TIP3    H229868   3.236   3.372   6.051
 9971TIP3   OH229869   6.609   4.589   4.708
 9971TIP3    H129870   6.585   4.627   4.792
 9971TIP3    H229871   6.554   4.511   4.700
 9972TIP3   OH229872   6.905   4.342   6.323
 9972TIP3    H129873   6.922   4.389   6.405
 9972TIP3    H229874   6.914   4.408   6.255
 9973TIP3   OH229875   7.469   0.556   6.680
 9973TIP3    H129876   7.490   0.523   6.767
 9973TIP3    H229877   7.486   0.650   6.686
 9974TIP3   OH229878   5.278   2.958   0.142
 9974TIP3    H129879   5.215   2.896   0.106
 9974TIP3    H229880   5.239   3.044   0.128
 9975TIP3   OH229881   4.996   5.239   0.418
 9975TIP3    H129882   5.010   5.227   0.512
 9975TIP3    H229883   4.953   5.325   0.411
 9976TIP3   OH229884   5.764   2.123   2.480
 9976TIP3    H129885   5.738   2.090   2.394
 9976TIP3    H229886   5.808   2.206   2.461
 9977TIP3   OH229887   3.389   5.044   4.598
 9977TIP3    H129888   3.483   5.026   4.600
 9977TIP3    H229889   3.381   5.118   4.537
 9978TIP3   OH229890   2.094   6.971   0.353
 9978TIP3    H129891   2.125   6.916   0.281
 9978TIP3    H229892   2.102   7.061   0.319
 9979TIP3   OH229893   1.047   2.966   3.850
 9979TIP3    H129894   1.072   2.875   3.861
 9979TIP3    H229895   1.043   2.979   3.755
 9980TIP3   OH229896   1.997   4.446   5.551
 9980TIP3    H129897   1.987   4.496   5.631
 9980TIP3    H229898   2.048   4.369   5.577
 9981TIP3   OH229899   4.016   4.294   5.718
 9981TIP3    H129900   3.971   4.378   5.720
 9981TIP3    H229901   4.041   4.281   5.627
 9982TIP3   OH229902   7.985   4.424   1.234
 9982TIP3    H129903   7.984   4.369   1.311
 9982TIP3    H229904   7.897   4.418   1.198
 9983TIP3   OH229905   1.282   0.568   4.013
 9983TIP3    H129906   1.245   0.489   3.975
 9983TIP3    H229907   1.306   0.622   3.938
 9984TIP3   OH229908   4.852   3.438   3.548
 9984TIP3    H129909   4.876   3.400   3.464
 9984TIP3    H229910   4.775   3.387   3.576
 9985TIP3   OH229911   4.148   0.416   0.579
 9985TIP3    H129912   4.134   0.408   0.673
 9985TIP3    H229913   4.076   0.367   0.540
 9986TIP3   OH229914   6.429   6.341   1.943
 9986TIP3    H129915   6.427   6.266   2.003
 9986TIP3    H229916   6.479   6.310   1.867
 9987TIP3   OH229917   6.299   3.799   4.858
 9987TIP3    H129918   6.342   3.829   4.938
 9987TIP3    H229919   6.337   3.714   4.840
 9988TIP3   OH229920   6.032   1.642   2.840
 9988TIP3    H129921   5.989   1.680   2.917
 9988TIP3    H229922   6.095   1.710   2.813
 9989TIP3   OH229923   6.210   7.322   4.372
 9989TIP3    H129924   6.162   7.240   4.360
 9989TIP3    H229925   6.297   7.305   4.335
 9990TIP3   OH229926   0.874   4.715   0.109
 9990TIP3    H129927   0.965   4.728   0.083
 9990TIP3    H229928   0.878   4.687   0.200
 9991TIP3   OH229929   1.618   3.919   4.259
 9991TIP3    H129930   1.643   4.004   4.223
 9991TIP3    H229931   1.665   3.855   4.206
 9992TIP3   OH229932   3.914   3.027   3.039
 9992TIP3    H129933   3.893   3.051   3.129
 9992TIP3    H229934   3.997   3.071   3.021
 9993TIP3   OH229935   3.259   0.525   3.262
 9993TIP3    H129936   3.335   0.488   3.218
 9993TIP3    H229937   3.260   0.618   3.238
 9994TIP3   OH229938   2.228   2.023   3.500
 9994TIP3    H129939   2.183   2.035   3.584
 9994TIP3    H229940   2.224   1.929   3.484
 9995TIP3   OH229941   4.403   2.502   3.171
 9995TIP3    H129942   4.318   2.476   3.136
 9995TIP3    H229943   4.439   2.421   3.208
 9996TIP3   OH229944   7.242   2.634   3.684
 9996TIP3    H129945   7.154   2.652   3.716
 9996TIP3    H229946   7.295   2.628   3.764
 9997TIP3   OH229947   7.005   1.296   3.699
 9997TIP3    H129948   6.998   1.201   3.704
 9997TIP3    H229949   7.048   1.321   3.781
 9998TIP3   OH229950   2.670   6.320   2.509
 9998TIP3    H129951   2.623   6.241   2.538
 9998TIP3    H229952   2.762   6.292   2.505
 9999TIP3   OH229953  -0.044   4.085   4.765
 9999TIP3    H129954  -0.078   4.120   4.682
 9999TIP3    H229955   0.009   4.156   4.801
10000TIP3   OH229956   1.610   2.634   0.796
10000TIP3    H129957   1.610   2.728   0.815
10000TIP3    H229958   1.521   2.606   0.817
10001TIP3   OH229959   0.215   0.246   2.584
10001TIP3    H129960   0.297   0.217   2.624
10001TIP3    H229961   0.237   0.262   2.492
10002TIP3   OH229962   1.832   1.137   5.581
10002TIP3    H129963   1.771   1.101   5.516
10002TIP3    H229964   1.786   1.213   5.616
10003TIP3   OH229965   6.893   2.969   4.201
10003TIP3    H129966   6.925   2.925   4.280
10003TIP3    H229967   6.848   3.047   4.232
10004TIP3   OH229968   0.130   2.560   3.789
10004TIP3    H129969   0.108   2.645   3.753
10004TIP3    H229970   0.094   2.560   3.878
10005TIP3   OH229971   7.905   4.646   5.215
10005TIP3    H129972   7.989   4.687   5.234
10005TIP3    H229973   7.925   4.553   5.205
10006TIP3   OH229974   7.613   5.473   6.208
10006TIP3    H129975   7.529   5.426   6.208
10006TIP3    H229976   7.597   5.552   6.259
10007TIP3   OH229977   4.012   1.541   5.524
10007TIP3    H129978   4.033   1.614   5.466
10007TIP3    H229979   4.039   1.571   5.611
10008TIP3   OH229980   1.542   1.638   2.133
10008TIP3    H129981   1.593   1.627   2.053
10008TIP3    H229982   1.595   1.599   2.202
10009TIP3   OH229983   3.856   4.092   2.668
10009TIP3    H129984   3.830   4.093   2.576
10009TIP3    H229985   3.929   4.030   2.672
10010TIP3   OH229986   6.793   0.339   1.626
10010TIP3    H129987   6.868   0.396   1.610
10010TIP3    H229988   6.735   0.390   1.682
10011TIP3   OH229989   6.660   5.320   3.511
10011TIP3    H129990   6.643   5.324   3.417
10011TIP3    H229991   6.644   5.409   3.542
10012TIP3   OH229992   5.953   7.647   3.187
10012TIP3    H129993   5.969   7.702   3.263
10012TIP3    H229994   6.018   7.675   3.122
10013TIP3   OH229995   2.610   3.982   6.298
10013TIP3    H129996   2.682   3.954   6.242
10013TIP3    H229997   2.531   3.948   6.255
10014TIP3   OH229998   3.516   2.962   3.052
10014TIP3    H129999   3.578   3.021   3.009
10014TIP3    H230000   3.483   3.011   3.127
10015TIP3   OH230001   7.352   4.650   0.163
10015TIP3    H130002   7.257   4.649   0.148
10015TIP3    H230003   7.387   4.705   0.093
10016TIP3   OH230004   6.565   2.191   4.284
10016TIP3    H130005   6.559   2.171   4.190
10016TIP3    H230006   6.558   2.286   4.289
10017TIP3   OH230007   2.308   4.610   5.688
10017TIP3    H130008   2.307   4.681   5.623
10017TIP3    H230009   2.220   4.611   5.726
10018TIP3   OH230010   3.187   4.353   3.568
10018TIP3    H130011   3.234   4.410   3.507
10018TIP3    H230012   3.096   4.357   3.539
10019TIP3   OH230013   6.776   4.612   5.932
10019TIP3    H130014   6.796   4.646   5.845
10019TIP3    H230015   6.689   4.648   5.952
10020TIP3   OH230016   0.061   5.213   5.781
10020TIP3    H130017   0.001   5.251   5.718
10020TIP3    H230018   0.012   5.212   5.863
10021TIP3   OH230019   6.686   4.126   1.990
10021TIP3    H130020   6.777   4.098   2.001
10021TIP3    H230021   6.657   4.086   1.908
10022TIP3   OH230022   3.464   5.719   1.371
10022TIP3    H130023   3.391   5.756   1.421
10022TIP3    H230024   3.521   5.795   1.353
10023TIP3   OH230025   3.904   6.123   3.866
10023TIP3    H130026   3.848   6.188   3.910
10023TIP3    H230027   3.982   6.173   3.840
10024TIP3   OH230028   6.774   6.912   2.560
10024TIP3    H130029   6.752   6.979   2.495
10024TIP3    H230030   6.817   6.843   2.510
10025TIP3   OH230031   5.590   7.717   6.608
10025TIP3    H130032   5.588   7.673   6.693
10025TIP3    H230033   5.511   7.770   6.605
10026TIP3   OH230034   1.565   2.735   2.775
10026TIP3    H130035   1.624   2.808   2.760
10026TIP3    H230036   1.565   2.686   2.693
10027TIP3   OH230037   1.817   7.428   1.221
10027TIP3    H130038   1.740   7.404   1.272
10027TIP3    H230039   1.887   7.371   1.254
10028TIP3   OH230040   6.266   7.837   2.687
10028TIP3    H130041   6.350   7.791   2.696
10028TIP3    H230042   6.228   7.803   2.607
10029TIP3   OH230043   0.326   1.010   3.112
10029TIP3    H130044   0.299   1.056   3.032
10029TIP3    H230045   0.362   0.927   3.082
10030TIP3   OH230046   3.954   6.690   1.271
10030TIP3    H130047   3.928   6.743   1.346
10030TIP3    H230048   4.040   6.724   1.245
10031TIP3   OH230049   1.664   1.456   2.312
10031TIP3    H130050   1.751   1.486   2.339
10031TIP3    H230051   1.621   1.430   2.393
10032TIP3   OH230052   7.941   0.820   1.480
10032TIP3    H130053   7.904   0.871   1.408
10032TIP3    H230054   7.952   0.732   1.444
10033TIP3   OH230055   0.965   0.075   2.011
10033TIP3    H130056   0.933   0.016   2.079
10033TIP3    H230057   0.957   0.025   1.930
10034TIP3   OH230058   2.357   6.522   6.512
10034TIP3    H130059   2.428   6.478   6.558
10034TIP3    H230060   2.400   6.577   6.447
10035TIP3   OH230061   8.078   7.607   2.521
10035TIP3    H130062   8.029   7.689   2.511
10035TIP3    H230063   8.044   7.551   2.451
10036TIP3   OH230064   8.258   3.104   0.335
10036TIP3    H130065   8.280   3.025   0.385
10036TIP3    H230066   8.164   3.097   0.319
10037TIP3   OH230067   2.831   4.896   3.131
10037TIP3    H130068   2.799   4.853   3.210
10037TIP3    H230069   2.917   4.856   3.114
10038TIP3   OH230070   5.340   5.410   3.467
10038TIP3    H130071   5.317   5.319   3.487
10038TIP3    H230072   5.434   5.407   3.447
10039TIP3   OH230073   5.852   2.480   1.869
10039TIP3    H130074   5.893   2.535   1.803
10039TIP3    H230075   5.799   2.417   1.820
10040TIP3   OH230076   3.059   2.701   1.320
10040TIP3    H130077   3.123   2.771   1.306
10040TIP3    H230078   3.012   2.694   1.237
10041TIP3   OH230079   6.904   2.603   6.113
10041TIP3    H130080   6.834   2.656   6.149
10041TIP3    H230081   6.945   2.562   6.189
10042TIP3   OH230082   6.322   4.648   2.353
10042TIP3    H130083   6.327   4.738   2.322
10042TIP3    H230084   6.234   4.619   2.329
10043TIP3   OH230085   7.044   7.076   0.317
10043TIP3    H130086   7.096   7.092   0.238
10043TIP3    H230087   7.098   7.018   0.370
10044TIP3   OH230088   5.928   1.241   3.301
10044TIP3    H130089   5.953   1.295   3.376
10044TIP3    H230090   5.897   1.304   3.236
10045TIP3   OH230091   3.680   0.772   4.945
10045TIP3    H130092   3.725   0.813   5.019
10045TIP3    H230093   3.592   0.752   4.979
10046TIP3   OH230094   5.527   6.989   0.835
10046TIP3    H130095   5.501   6.968   0.745
10046TIP3    H230096   5.622   6.994   0.832
10047TIP3   OH230097   1.095   4.127   5.560
10047TIP3    H130098   1.150   4.064   5.606
10047TIP3    H230099   1.150   4.158   5.488
10048TIP3   OH230100   5.478   0.966   5.844
10048TIP3    H130101   5.532   1.028   5.796
10048TIP3    H230102   5.524   0.883   5.837
10049TIP3   OH230103   1.238   5.201   4.396
10049TIP3    H130104   1.244   5.296   4.388
10049TIP3    H230105   1.328   5.170   4.392
10050TIP3   OH230106   4.119   3.742   1.312
10050TIP3    H130107   4.205   3.782   1.325
10050TIP3    H230108   4.137   3.663   1.260
10051TIP3   OH230109   0.591   7.423   0.587
10051TIP3    H130110   0.674   7.402   0.629
10051TIP3    H230111   0.606   7.508   0.545
10052TIP3   OH230112   0.053   2.765   1.995
10052TIP3    H130113   0.065   2.672   2.011
10052TIP3    H230114   0.081   2.807   2.076
10053TIP3   OH230115   1.159   2.991   1.784
10053TIP3    H130116   1.101   2.933   1.834
10053TIP3    H230117   1.243   2.984   1.828
10054TIP3   OH230118   0.112   3.018   4.813
10054TIP3    H130119   0.067   2.934   4.806
10054TIP3    H230120   0.126   3.045   4.722
10055TIP3   OH230121   6.293   4.259   2.809
10055TIP3    H130122   6.338   4.268   2.893
10055TIP3    H230123   6.333   4.325   2.753
10056TIP3   OH230124   6.622   7.593   3.813
10056TIP3    H130125   6.553   7.544   3.859
10056TIP3    H230126   6.608   7.684   3.839
10057TIP3   OH230127   0.408   6.378   5.906
10057TIP3    H130128   0.455   6.459   5.886
10057TIP3    H230129   0.316   6.401   5.898
10058TIP3   OH230130   5.348   7.654   3.706
10058TIP3    H130131   5.349   7.569   3.749
10058TIP3    H230132   5.321   7.715   3.775
10059TIP3   OH230133   4.104   5.157   1.047
10059TIP3    H130134   4.193   5.170   1.015
10059TIP3    H230135   4.059   5.240   1.029
10060TIP3   OH230136   4.981   3.542   0.258
10060TIP3    H130137   5.027   3.595   0.193
10060TIP3    H230138   5.000   3.584   0.342
10061TIP3   OH230139   0.098   4.738   6.255
10061TIP3    H130140   0.093   4.776   6.343
10061TIP3    H230141   0.153   4.661   6.266
10062TIP3   OH230142   5.351   5.295   1.854
10062TIP3    H130143   5.255   5.298   1.845
10062TIP3    H230144   5.383   5.350   1.783
10063TIP3   OH230145   6.624   3.074   0.087
10063TIP3    H130146   6.663   3.102   0.169
10063TIP3    H230147   6.695   3.080   0.023
10064TIP3   OH230148   2.188   1.879   0.444
10064TIP3    H130149   2.273   1.888   0.486
10064TIP3    H230150   2.125   1.887   0.515
10065TIP3   OH230151   0.508   3.200   6.757
10065TIP3    H130152   0.539   3.183   6.668
10065TIP3    H230153   0.575   3.161   6.813
10066TIP3   OH230154   2.134   6.224   1.352
10066TIP3    H130155   2.162   6.221   1.444
10066TIP3    H230156   2.066   6.291   1.349
10067TIP3   OH230157   2.126   5.589   5.841
10067TIP3    H130158   2.084   5.556   5.762
10067TIP3    H230159   2.116   5.684   5.835
10068TIP3   OH230160   3.903   4.786   0.648
10068TIP3    H130161   3.949   4.865   0.619
10068TIP3    H230162   3.861   4.811   0.730
10069TIP3   OH230163   3.514   2.025   0.549
10069TIP3    H130164   3.542   1.953   0.492
10069TIP3    H230165   3.466   2.084   0.491
10070TIP3   OH230166   5.794   1.940   1.881
10070TIP3    H130167   5.736   1.866   1.897
10070TIP3    H230168   5.823   1.967   1.968
10071TIP3   OH230169   1.819   6.865   4.417
10071TIP3    H130170   1.782   6.953   4.430
10071TIP3    H230171   1.882   6.855   4.488
10072TIP3   OH230172   2.260   6.874   3.315
10072TIP3    H130173   2.355   6.871   3.310
10072TIP3    H230174   2.242   6.926   3.394
10073TIP3   OH230175   4.802   7.768   3.843
10073TIP3    H130176   4.737   7.781   3.774
10073TIP3    H230177   4.820   7.856   3.875
10074TIP3   OH230178   8.271   2.756   3.092
10074TIP3    H130179   8.281   2.713   3.007
10074TIP3    H230180   8.236   2.687   3.150
10075TIP3   OH230181   6.482   1.802   4.803
10075TIP3    H130182   6.484   1.876   4.743
10075TIP3    H230183   6.547   1.823   4.870
10076TIP3   OH230184   0.322   3.553  -0.001
10076TIP3    H130185   0.367   3.609   0.062
10076TIP3    H230186   0.230   3.553   0.028
10077TIP3   OH230187   5.044   0.289   2.684
10077TIP3    H130188   5.127   0.309   2.727
10077TIP3    H230189   4.977   0.324   2.744
10078TIP3   OH230190   6.625   6.586   2.288
10078TIP3    H130191   6.711   6.628   2.292
10078TIP3    H230192   6.615   6.562   2.195
10079TIP3   OH230193   0.142   0.937   4.822
10079TIP3    H130194   0.083   0.881   4.771
10079TIP3    H230195   0.089   1.014   4.844
10080TIP3   OH230196   2.563   5.387   5.570
10080TIP3    H130197   2.625   5.362   5.501
10080TIP3    H230198   2.505   5.312   5.580
10081TIP3   OH230199   6.252   1.809   2.725
10081TIP3    H130200   6.270   1.750   2.798
10081TIP3    H230201   6.336   1.819   2.681
10082TIP3   OH230202   2.619   5.520   5.805
10082TIP3    H130203   2.606   5.487   5.716
10082TIP3    H230204   2.531   5.533   5.839
10083TIP3   OH230205   6.013   1.391   3.495
10083TIP3    H130206   6.057   1.367   3.577
10083TIP3    H230207   5.969   1.474   3.515
10084TIP3   OH230208   7.321   1.423   5.651
10084TIP3    H130209   7.379   1.461   5.584
10084TIP3    H230210   7.368   1.346   5.683
10085TIP3   OH230211   4.722   2.405   6.120
10085TIP3    H130212   4.787   2.468   6.150
10085TIP3    H230213   4.773   2.335   6.079
10086TIP3   OH230214   5.538   6.154   2.352
10086TIP3    H130215   5.630   6.154   2.326
10086TIP3    H230216   5.524   6.069   2.395
10087TIP3   OH230217   8.011   1.238   2.451
10087TIP3    H130218   7.944   1.192   2.501
10087TIP3    H230219   8.056   1.293   2.515
10088TIP3   OH230220   3.736   1.410   3.104
10088TIP3    H130221   3.659   1.358   3.084
10088TIP3    H230222   3.784   1.359   3.169
10089TIP3   OH230223   1.878   6.285   1.876
10089TIP3    H130224   1.788   6.254   1.883
10089TIP3    H230225   1.917   6.232   1.806
10090TIP3   OH230226   7.997   1.739   4.972
10090TIP3    H130227   8.066   1.785   5.019
10090TIP3    H230228   7.916   1.782   4.999
10091TIP3   OH230229   2.268   5.613   6.766
10091TIP3    H130230   2.363   5.603   6.765
10091TIP3    H230231   2.235   5.523   6.772
10092TIP3   OH230232   1.436   5.019   2.357
10092TIP3    H130233   1.358   5.031   2.411
10092TIP3    H230234   1.478   5.105   2.355
10093TIP3   OH230235   5.687   1.115   4.028
10093TIP3    H130236   5.768   1.162   4.007
10093TIP3    H230237   5.625   1.141   3.960
10094TIP3   OH230238   2.202   3.353   2.144
10094TIP3    H130239   2.250   3.309   2.214
10094TIP3    H230240   2.258   3.427   2.121
10095TIP3   OH230241   1.828   4.676   2.277
10095TIP3    H130242   1.821   4.604   2.340
10095TIP3    H230243   1.845   4.633   2.193
10096TIP3   OH230244   3.003   4.627   2.239
10096TIP3    H130245   2.961   4.554   2.193
10096TIP3    H230246   3.001   4.699   2.176
10097TIP3   OH230247   5.297   0.759   3.634
10097TIP3    H130248   5.371   0.814   3.660
10097TIP3    H230249   5.226   0.786   3.694
10098TIP3   OH230250   3.893   2.314   4.843
10098TIP3    H130251   3.827   2.271   4.898
10098TIP3    H230252   3.846   2.387   4.803
10099TIP3   OH230253   2.405   2.447   4.565
10099TIP3    H130254   2.311   2.439   4.581
10099TIP3    H230255   2.440   2.484   4.645
10100TIP3   OH230256   6.490   7.263   1.391
10100TIP3    H130257   6.441   7.182   1.405
10100TIP3    H230258   6.566   7.237   1.339
10101TIP3   OH230259   1.667   5.500   3.509
10101TIP3    H130260   1.682   5.501   3.604
10101TIP3    H230261   1.747   5.538   3.472
10102TIP3   OH230262   3.882   5.731   5.959
10102TIP3    H130263   3.960   5.706   5.910
10102TIP3    H230264   3.849   5.649   5.995
10103TIP3   OH230265   4.396   2.960   5.993
10103TIP3    H130266   4.444   3.012   5.929
10103TIP3    H230267   4.396   2.871   5.957
10104TIP3   OH230268   2.553   7.631   3.124
10104TIP3    H130269   2.484   7.650   3.061
10104TIP3    H230270   2.550   7.703   3.187
10105TIP3   OH230271   7.163   7.504   0.992
10105TIP3    H130272   7.105   7.580   0.990
10105TIP3    H230273   7.219   7.513   0.915
10106TIP3   OH230274   0.880   1.697   5.877
10106TIP3    H130275   0.924   1.619   5.842
10106TIP3    H230276   0.839   1.737   5.801
10107TIP3   OH230277   7.270   5.720   6.278
10107TIP3    H130278   7.183   5.753   6.257
10107TIP3    H230279   7.256   5.627   6.296
10108TIP3   OH230280   7.448   2.659   2.575
10108TIP3    H130281   7.442   2.726   2.643
10108TIP3    H230282   7.524   2.684   2.523
10109TIP3   OH230283   7.508   6.815   4.719
10109TIP3    H130284   7.566   6.777   4.653
10109TIP3    H230285   7.549   6.899   4.741
10110TIP3   OH230286   4.301   4.063   5.933
10110TIP3    H130287   4.246   4.140   5.924
10110TIP3    H230288   4.383   4.087   5.891
10111TIP3   OH230289   4.285   4.194   1.117
10111TIP3    H130290   4.371   4.163   1.089
10111TIP3    H230291   4.303   4.276   1.164
10112TIP3   OH230292   6.976   2.174   0.220
10112TIP3    H130293   6.907   2.110   0.202
10112TIP3    H230294   6.929   2.254   0.243
10113TIP3   OH230295   7.598   0.200   2.882
10113TIP3    H130296   7.548   0.122   2.856
10113TIP3    H230297   7.675   0.164   2.926
10114TIP3   OH230298   7.424   6.942   6.545
10114TIP3    H130299   7.389   7.030   6.560
10114TIP3    H230300   7.491   6.931   6.612
10115TIP3   OH230301   7.296   7.651   2.097
10115TIP3    H130302   7.207   7.671   2.066
10115TIP3    H230303   7.310   7.559   2.075
10116TIP3   OH230304   7.126   0.816   0.048
10116TIP3    H130305   7.030   0.821   0.053
10116TIP3    H230306   7.143   0.774  -0.036
10117TIP3   OH230307   0.535   4.223   6.002
10117TIP3    H130308   0.530   4.200   6.095
10117TIP3    H230309   0.582   4.307   6.000
10118TIP3   OH230310   2.049   4.517   4.937
10118TIP3    H130311   1.976   4.482   4.988
10118TIP3    H230312   2.014   4.524   4.848
10119TIP3   OH230313   5.521   7.526   0.548
10119TIP3    H130314   5.519   7.600   0.608
10119TIP3    H230315   5.458   7.463   0.586
10120TIP3   OH230316   5.205   4.308   2.495
10120TIP3    H130317   5.194   4.255   2.416
10120TIP3    H230318   5.298   4.331   2.496
10121TIP3   OH230319   5.857   1.765   5.060
10121TIP3    H130320   5.835   1.847   5.015
10121TIP3    H230321   5.847   1.697   4.994
10122TIP3   OH230322   2.249   7.608   3.271
10122TIP3    H130323   2.204   7.692   3.263
10122TIP3    H230324   2.227   7.577   3.359
10123TIP3   OH230325   3.717   7.462   5.374
10123TIP3    H130326   3.731   7.547   5.333
10123TIP3    H230327   3.634   7.472   5.421
10124TIP3   OH230328   4.270   1.661   0.189
10124TIP3    H130329   4.359   1.662   0.226
10124TIP3    H230330   4.283   1.645   0.095
10125TIP3   OH230331   1.692   1.817   5.809
10125TIP3    H130332   1.604   1.851   5.822
10125TIP3    H230333   1.747   1.894   5.799
10126TIP3   OH230334   5.572   1.479   2.717
10126TIP3    H130335   5.527   1.505   2.798
10126TIP3    H230336   5.549   1.387   2.705
10127TIP3   OH230337   3.852   1.922   2.279
10127TIP3    H130338   3.834   2.001   2.228
10127TIP3    H230339   3.822   1.850   2.223
10128TIP3   OH230340   2.031   5.438   4.025
10128TIP3    H130341   2.066   5.483   4.102
10128TIP3    H230342   2.108   5.411   3.975
10129TIP3   OH230343   6.277   6.422   2.269
10129TIP3    H130344   6.287   6.377   2.353
10129TIP3    H230345   6.304   6.358   2.203
10130TIP3   OH230346   2.295   1.653   1.997
10130TIP3    H130347   2.339   1.702   2.066
10130TIP3    H230348   2.205   1.685   1.998
10131TIP3   OH230349   8.039   5.597   5.600
10131TIP3    H130350   8.044   5.679   5.551
10131TIP3    H230351   7.979   5.616   5.672
10132TIP3   OH230352   8.009   6.508   6.305
10132TIP3    H130353   8.004   6.481   6.213
10132TIP3    H230354   7.991   6.428   6.354
10133TIP3   OH230355   8.088   3.119   2.136
10133TIP3    H130356   8.107   3.168   2.216
10133TIP3    H230357   8.076   3.029   2.166
10134TIP3   OH230358   1.357   1.827   1.627
10134TIP3    H130359   1.394   1.907   1.590
10134TIP3    H230360   1.263   1.843   1.629
10135TIP3   OH230361   5.737   3.538   3.816
10135TIP3    H130362   5.812   3.493   3.776
10135TIP3    H230363   5.661   3.491   3.784
10136TIP3   OH230364   6.451   2.126   0.069
10136TIP3    H130365   6.447   2.073   0.149
10136TIP3    H230366   6.545   2.135   0.052
10137TIP3   OH230367   6.360   4.914   4.732
10137TIP3    H130368   6.337   4.896   4.824
10137TIP3    H230369   6.453   4.891   4.726
10138TIP3   OH230370   4.532   1.994   3.006
10138TIP3    H130371   4.578   1.994   2.922
10138TIP3    H230372   4.595   2.033   3.068
10139TIP3   OH230373   1.222   2.373   1.426
10139TIP3    H130374   1.128   2.379   1.442
10139TIP3    H230375   1.248   2.462   1.401
10140TIP3   OH230376   3.252   1.804   4.717
10140TIP3    H130377   3.215   1.770   4.798
10140TIP3    H230378   3.298   1.884   4.743
10141TIP3   OH230379   3.521   1.408   4.406
10141TIP3    H130380   3.616   1.413   4.394
10141TIP3    H230381   3.485   1.445   4.325
10142TIP3   OH230382   0.055   0.155   5.377
10142TIP3    H130383  -0.001   0.182   5.449
10142TIP3    H230384  -0.005   0.123   5.310
10143TIP3   OH230385   4.413   6.211   0.671
10143TIP3    H130386   4.425   6.299   0.704
10143TIP3    H230387   4.357   6.221   0.594
10144TIP3   OH230388   6.491   6.379   3.790
10144TIP3    H130389   6.535   6.464   3.802
10144TIP3    H230390   6.419   6.398   3.730
10145TIP3   OH230391   4.141   3.925   2.544
10145TIP3    H130392   4.216   3.982   2.527
10145TIP3    H230393   4.163   3.843   2.501
10146TIP3   OH230394   5.989   4.816   4.413
10146TIP3    H130395   6.022   4.744   4.359
10146TIP3    H230396   6.043   4.812   4.492
10147TIP3   OH230397   2.378   3.524   1.993
10147TIP3    H130398   2.412   3.560   1.911
10147TIP3    H230399   2.451   3.472   2.028
10148TIP3   OH230400   6.783   1.235   5.632
10148TIP3    H130401   6.765   1.329   5.632
10148TIP3    H230402   6.865   1.226   5.584
10149TIP3   OH230403   2.763   4.521   1.041
10149TIP3    H130404   2.685   4.516   0.986
10149TIP3    H230405   2.735   4.572   1.117
10150TIP3   OH230406   7.012   3.041   5.799
10150TIP3    H130407   6.926   3.082   5.793
10150TIP3    H230408   7.043   3.037   5.709
10151TIP3   OH230409   2.357   4.187   2.021
10151TIP3    H130410   2.286   4.140   1.978
10151TIP3    H230411   2.428   4.123   2.026
10152TIP3   OH230412   1.510   6.557   1.399
10152TIP3    H130413   1.549   6.471   1.383
10152TIP3    H230414   1.582   6.619   1.384
10153TIP3   OH230415   2.173   5.905   6.094
10153TIP3    H130416   2.212   5.987   6.064
10153TIP3    H230417   2.213   5.890   6.180
10154TIP3   OH230418   5.417   6.707   2.571
10154TIP3    H130419   5.380   6.633   2.620
10154TIP3    H230420   5.504   6.719   2.610
10155TIP3   OH230421   3.121   0.748   0.914
10155TIP3    H130422   3.187   0.814   0.893
10155TIP3    H230423   3.129   0.734   1.008
10156TIP3   OH230424   7.518  -0.018   4.390
10156TIP3    H130425   7.497   0.068   4.427
10156TIP3    H230426   7.440  -0.043   4.341
10157TIP3   OH230427   4.438   1.387   5.656
10157TIP3    H130428   4.395   1.308   5.625
10157TIP3    H230429   4.406   1.398   5.746
10158TIP3   OH230430   3.061   3.629   1.674
10158TIP3    H130431   3.037   3.564   1.609
10158TIP3    H230432   3.092   3.578   1.749
10159TIP3   OH230433   6.505   6.925   2.953
10159TIP3    H130434   6.447   6.996   2.926
10159TIP3    H230435   6.504   6.929   3.049
10160TIP3   OH230436   4.063   1.282   5.611
10160TIP3    H130437   4.006   1.231   5.553
10160TIP3    H230438   4.046   1.373   5.586
10161TIP3   OH230439   6.341   5.395   3.850
10161TIP3    H130440   6.295   5.474   3.878
10161TIP3    H230441   6.417   5.427   3.801
10162TIP3   OH230442   5.427   0.346   1.596
10162TIP3    H130443   5.444   0.323   1.505
10162TIP3    H230444   5.380   0.270   1.632
10163TIP3   OH230445   6.076   1.586   6.693
10163TIP3    H130446   6.131   1.649   6.741
10163TIP3    H230447   6.032   1.536   6.761
10164TIP3   OH230448   3.575   2.181   2.658
10164TIP3    H130449   3.520   2.210   2.586
10164TIP3    H230450   3.626   2.258   2.683
10165TIP3   OH230451   1.990   3.487   2.074
10165TIP3    H130452   1.989   3.553   2.144
10165TIP3    H230453   2.074   3.442   2.085
10166TIP3   OH230454   1.115   3.015   4.321
10166TIP3    H130455   1.182   3.040   4.385
10166TIP3    H230456   1.165   2.996   4.242
10167TIP3   OH230457   6.548   5.555   3.747
10167TIP3    H130458   6.617   5.578   3.684
10167TIP3    H230459   6.593   5.550   3.831
10168TIP3   OH230460   4.542   2.615   4.338
10168TIP3    H130461   4.623   2.573   4.310
10168TIP3    H230462   4.570   2.696   4.380
10169TIP3   OH230463   5.682   4.736   3.188
10169TIP3    H130464   5.668   4.675   3.260
10169TIP3    H230465   5.738   4.689   3.127
10170TIP3   OH230466   8.150   2.033   4.239
10170TIP3    H130467   8.139   2.093   4.165
10170TIP3    H230468   8.198   1.959   4.202
10171TIP3   OH230469   3.197   1.668   2.873
10171TIP3    H130470   3.207   1.579   2.839
10171TIP3    H230471   3.194   1.657   2.968
10172TIP3   OH230472   6.629   5.760   3.045
10172TIP3    H130473   6.619   5.793   2.956
10172TIP3    H230474   6.709   5.802   3.078
10173TIP3   OH230475   2.504   5.981   4.431
10173TIP3    H130476   2.561   6.056   4.443
10173TIP3    H230477   2.500   5.969   4.336
10174TIP3   OH230478   6.193   2.848   1.567
10174TIP3    H130479   6.198   2.940   1.542
10174TIP3    H230480   6.103   2.835   1.596
10175TIP3   OH230481   7.721   3.336   6.326
10175TIP3    H130482   7.813   3.332   6.301
10175TIP3    H230483   7.706   3.253   6.372
10176TIP3   OH230484   5.042   4.130   1.863
10176TIP3    H130485   5.060   4.218   1.830
10176TIP3    H230486   5.029   4.077   1.785
10177TIP3   OH230487   5.510   1.201   6.221
10177TIP3    H130488   5.485   1.122   6.174
10177TIP3    H230489   5.427   1.244   6.242
10178TIP3   OH230490  -0.005   0.063   2.679
10178TIP3    H130491   0.037  -0.009   2.727
10178TIP3    H230492   0.068   0.118   2.651
10179TIP3   OH230493   5.420   0.233   0.690
10179TIP3    H130494   5.372   0.226   0.607
10179TIP3    H230495   5.458   0.146   0.703
10180TIP3   OH230496   2.745   3.897   1.814
10180TIP3    H130497   2.716   3.824   1.868
10180TIP3    H230498   2.838   3.906   1.833
10181TIP3   OH230499   3.622   3.387   6.372
10181TIP3    H130500   3.537   3.347   6.352
10181TIP3    H230501   3.599   3.475   6.403
10182TIP3   OH230502   3.143   3.526   2.299
10182TIP3    H130503   3.056   3.504   2.332
10182TIP3    H230504   3.129   3.601   2.242
10183TIP3   OH230505   1.569   2.537   2.981
10183TIP3    H130506   1.577   2.600   2.910
10183TIP3    H230507   1.658   2.502   2.991
10184TIP3   OH230508   5.639   4.048   0.142
10184TIP3    H130509   5.654   4.106   0.067
10184TIP3    H230510   5.678   4.095   0.216
10185TIP3   OH230511   5.504   1.754   1.713
10185TIP3    H130512   5.513   1.849   1.713
10185TIP3    H230513   5.511   1.730   1.620
10186TIP3   OH230514   5.680   0.141   5.669
10186TIP3    H130515   5.679   0.047   5.651
10186TIP3    H230516   5.621   0.179   5.604
10187TIP3   OH230517   4.303   6.914   5.702
10187TIP3    H130518   4.229   6.931   5.760
10187TIP3    H230519   4.264   6.909   5.615
10188TIP3   OH230520   4.149   2.416   3.122
10188TIP3    H130521   4.123   2.410   3.214
10188TIP3    H230522   4.095   2.486   3.086
10189TIP3   OH230523   6.453   2.653   0.388
10189TIP3    H130524   6.390   2.588   0.419
10189TIP3    H230525   6.510   2.605   0.328
10190TIP3   OH230526   2.018   7.247   2.469
10190TIP3    H130527   1.990   7.155   2.467
10190TIP3    H230528   2.078   7.256   2.395
10191TIP3   OH230529   2.195   2.188   4.235
10191TIP3    H130530   2.137   2.141   4.294
10191TIP3    H230531   2.157   2.176   4.148
10192TIP3   OH230532   8.084   0.464   3.883
10192TIP3    H130533   8.170   0.451   3.924
10192TIP3    H230534   8.084   0.556   3.857
10193TIP3   OH230535   5.315   5.056   6.014
10193TIP3    H130536   5.231   5.015   5.996
10193TIP3    H230537   5.324   5.051   6.109
10194TIP3   OH230538   1.825   4.370   3.673
10194TIP3    H130539   1.913   4.405   3.659
10194TIP3    H230540   1.813   4.307   3.602
10195TIP3   OH230541   2.475   4.636   6.384
10195TIP3    H130542   2.521   4.716   6.360
10195TIP3    H230543   2.484   4.579   6.308
10196TIP3   OH230544   7.327   4.448   3.786
10196TIP3    H130545   7.267   4.495   3.844
10196TIP3    H230546   7.290   4.459   3.699
10197TIP3   OH230547   5.107   4.989   6.470
10197TIP3    H130548   5.085   4.990   6.377
10197TIP3    H230549   5.023   5.003   6.515
10198TIP3   OH230550   0.308   7.671   1.071
10198TIP3    H130551   0.291   7.719   1.152
10198TIP3    H230552   0.371   7.726   1.024
10199TIP3   OH230553   1.860   5.187   2.680
10199TIP3    H130554   1.853   5.154   2.770
10199TIP3    H230555   1.941   5.149   2.647
10200TIP3   OH230556   0.259   5.332   6.227
10200TIP3    H130557   0.281   5.258   6.171
10200TIP3    H230558   0.286   5.409   6.177
10201TIP3   OH230559   3.524   6.394   2.188
10201TIP3    H130560   3.467   6.365   2.259
10201TIP3    H230561   3.601   6.337   2.195
10202TIP3   OH230562   3.126   5.391   1.859
10202TIP3    H130563   3.195   5.343   1.906
10202TIP3    H230564   3.173   5.437   1.789
10203TIP3   OH230565   5.283   6.068   5.635
10203TIP3    H130566   5.344   5.996   5.621
10203TIP3    H230567   5.231   6.072   5.554
10204TIP3   OH230568   2.118   1.157   3.262
10204TIP3    H130569   2.171   1.148   3.183
10204TIP3    H230570   2.037   1.110   3.242
10205TIP3   OH230571   1.497   2.503   1.282
10205TIP3    H130572   1.514   2.440   1.352
10205TIP3    H230573   1.566   2.488   1.218
10206TIP3   OH230574   7.623   1.084   3.641
10206TIP3    H130575   7.644   1.065   3.550
10206TIP3    H230576   7.644   1.003   3.688
10207TIP3   OH230577   3.919   1.495   4.221
10207TIP3    H130578   3.983   1.542   4.276
10207TIP3    H230579   3.971   1.458   4.150
10208TIP3   OH230580   6.157   3.819   1.414
10208TIP3    H130581   6.152   3.741   1.360
10208TIP3    H230582   6.246   3.852   1.402
10209TIP3   OH230583   7.318   7.076   2.191
10209TIP3    H130584   7.331   7.037   2.105
10209TIP3    H230585   7.298   7.002   2.249
10210TIP3   OH230586   1.035   1.938   5.989
10210TIP3    H130587   0.968   1.886   5.945
10210TIP3    H230588   1.117   1.892   5.970
10211TIP3   OH230589   4.508   3.075   2.044
10211TIP3    H130590   4.500   3.078   2.140
10211TIP3    H230591   4.602   3.065   2.029
10212TIP3   OH230592   2.952   1.812   5.659
10212TIP3    H130593   3.010   1.880   5.625
10212TIP3    H230594   2.868   1.829   5.616
10213TIP3   OH230595   7.712   2.436   0.102
10213TIP3    H130596   7.802   2.461   0.079
10213TIP3    H230597   7.701   2.467   0.192
10214TIP3   OH230598   2.821   3.945   6.114
10214TIP3    H130599   2.875   3.884   6.165
10214TIP3    H230600   2.857   3.942   6.026
10215TIP3   OH230601   8.127   6.017   1.922
10215TIP3    H130602   8.111   6.111   1.932
10215TIP3    H230603   8.187   6.010   1.848
10216TIP3   OH230604   1.092   7.764   0.232
10216TIP3    H130605   1.180   7.779   0.198
10216TIP3    H230606   1.039   7.833   0.191
10217TIP3   OH230607   7.261   3.583   6.407
10217TIP3    H130608   7.259   3.487   6.402
10217TIP3    H230609   7.176   3.606   6.446
10218TIP3   OH230610   7.545   5.214   2.477
10218TIP3    H130611   7.569   5.220   2.385
10218TIP3    H230612   7.608   5.271   2.522
10219TIP3   OH230613   2.345   7.678   0.122
10219TIP3    H130614   2.378   7.664   0.033
10219TIP3    H230615   2.375   7.601   0.171
10220TIP3   OH230616   5.902   5.070   2.330
10220TIP3    H130617   5.924   5.075   2.423
10220TIP3    H230618   5.972   5.118   2.286
10221TIP3   OH230619   7.533   5.734   3.247
10221TIP3    H130620   7.475   5.725   3.172
10221TIP3    H230621   7.611   5.777   3.212
10222TIP3   OH230622   0.183   7.303   5.174
10222TIP3    H130623   0.221   7.256   5.248
10222TIP3    H230624   0.115   7.358   5.212
10223TIP3   OH230625   1.924   1.498   2.401
10223TIP3    H130626   2.006   1.513   2.354
10223TIP3    H230627   1.947   1.440   2.473
10224TIP3   OH230628   4.211   6.769   1.291
10224TIP3    H130629   4.285   6.711   1.274
10224TIP3    H230630   4.250   6.856   1.301
10225TIP3   OH230631   7.980   2.747   1.016
10225TIP3    H130632   7.927   2.699   0.953
10225TIP3    H230633   8.063   2.700   1.019
10226TIP3   OH230634   1.767   5.421   5.404
10226TIP3    H130635   1.762   5.342   5.458
10226TIP3    H230636   1.686   5.468   5.423
10227TIP3   OH230637   2.916   7.751   3.664
10227TIP3    H130638   2.913   7.807   3.586
10227TIP3    H230639   2.863   7.798   3.728
10228TIP3   OH230640   6.481   4.243   1.045
10228TIP3    H130641   6.486   4.335   1.020
10228TIP3    H230642   6.443   4.199   0.969
10229TIP3   OH230643   5.405   4.310   1.073
10229TIP3    H130644   5.344   4.236   1.068
10229TIP3    H230645   5.464   4.297   0.999
10230TIP3   OH230646   5.993   0.249   0.222
10230TIP3    H130647   5.947   0.309   0.281
10230TIP3    H230648   5.925   0.188   0.193
10231TIP3   OH230649   5.067   6.528   0.895
10231TIP3    H130650   4.990   6.556   0.845
10231TIP3    H230651   5.033   6.512   0.984
10232TIP3   OH230652   7.012   0.239   5.101
10232TIP3    H130653   6.982   0.171   5.161
10232TIP3    H230654   6.976   0.320   5.137
10233TIP3   OH230655   1.908   3.486   3.139
10233TIP3    H130656   1.883   3.497   3.047
10233TIP3    H230657   1.993   3.442   3.136
10234TIP3   OH230658   1.485   6.901   1.536
10234TIP3    H130659   1.498   6.982   1.488
10234TIP3    H230660   1.417   6.854   1.487
10235TIP3   OH230661   5.484   6.507   0.495
10235TIP3    H130662   5.421   6.556   0.549
10235TIP3    H230663   5.526   6.573   0.440
10236TIP3   OH230664   7.534   0.862   4.054
10236TIP3    H130665   7.590   0.863   3.977
10236TIP3    H230666   7.502   0.952   4.063
10237TIP3   OH230667   6.956   4.851   5.865
10237TIP3    H130668   6.899   4.799   5.807
10237TIP3    H230669   7.043   4.843   5.825
10238TIP3   OH230670   1.088   0.542   3.018
10238TIP3    H130671   1.042   0.565   2.937
10238TIP3    H230672   1.020   0.500   3.072
10239TIP3   OH230673   7.687   0.599   0.538
10239TIP3    H130674   7.599   0.626   0.563
10239TIP3    H230675   7.703   0.519   0.589
10240TIP3   OH230676   3.458   2.331   1.644
10240TIP3    H130677   3.479   2.354   1.553
10240TIP3    H230678   3.432   2.415   1.684
10241TIP3   OH230679   7.986   2.619   6.354
10241TIP3    H130680   8.039   2.539   6.362
10241TIP3    H230681   8.047   2.684   6.319
10242TIP3   OH230682   4.256   6.703   0.270
10242TIP3    H130683   4.253   6.688   0.365
10242TIP3    H230684   4.187   6.767   0.254
10243TIP3   OH230685   4.300   6.042   4.542
10243TIP3    H130686   4.337   6.074   4.460
10243TIP3    H230687   4.371   6.050   4.606
10244TIP3   OH230688   5.740   4.874   1.543
10244TIP3    H130689   5.676   4.807   1.520
10244TIP3    H230690   5.810   4.865   1.479
10245TIP3   OH230691   6.403   2.772   4.494
10245TIP3    H130692   6.321   2.732   4.463
10245TIP3    H230693   6.457   2.779   4.416
10246TIP3   OH230694   2.011   5.324   1.122
10246TIP3    H130695   2.020   5.233   1.150
10246TIP3    H230696   2.030   5.375   1.201
10247TIP3   OH230697   2.923   5.186   6.184
10247TIP3    H130698   2.951   5.107   6.138
10247TIP3    H230699   2.946   5.171   6.275
10248TIP3   OH230700   7.567   6.224   0.403
10248TIP3    H130701   7.565   6.133   0.432
10248TIP3    H230702   7.551   6.220   0.309
10249TIP3   OH230703   5.054   4.917   3.855
10249TIP3    H130704   5.133   4.875   3.821
10249TIP3    H230705   5.048   4.999   3.805
10250TIP3   OH230706   1.834   5.461   1.928
10250TIP3    H130707   1.789   5.541   1.900
10250TIP3    H230708   1.765   5.404   1.959
10251TIP3   OH230709   5.947   1.703   4.138
10251TIP3    H130710   6.000   1.627   4.163
10251TIP3    H230711   6.003   1.779   4.157
10252TIP3   OH230712   3.371   1.349   3.245
10252TIP3    H130713   3.432   1.280   3.270
10252TIP3    H230714   3.290   1.327   3.291
10253TIP3   OH230715   3.168   6.466   4.443
10253TIP3    H130716   3.116   6.505   4.372
10253TIP3    H230717   3.258   6.470   4.411
10254TIP3   OH230718   2.292   6.961   5.437
10254TIP3    H130719   2.376   6.936   5.476
10254TIP3    H230720   2.290   7.056   5.443
10255TIP3   OH230721   5.864   0.189   4.792
10255TIP3    H130722   5.912   0.160   4.870
10255TIP3    H230723   5.798   0.249   4.826
10256TIP3   OH230724   5.728   6.361   5.742
10256TIP3    H130725   5.689   6.278   5.715
10256TIP3    H230726   5.789   6.383   5.671
10257TIP3   OH230727   5.382   4.255   6.235
10257TIP3    H130728   5.325   4.309   6.290
10257TIP3    H230729   5.362   4.165   6.260
10258TIP3   OH230730   1.538   5.179   6.172
10258TIP3    H130731   1.605   5.246   6.185
10258TIP3    H230732   1.468   5.223   6.126
10259TIP3   OH230733   7.552   6.478   3.561
10259TIP3    H130734   7.497   6.513   3.631
10259TIP3    H230735   7.502   6.495   3.481
10260TIP3   OH230736   1.519   3.823   6.362
10260TIP3    H130737   1.481   3.908   6.342
10260TIP3    H230738   1.457   3.783   6.424
10261TIP3   OH230739   3.745   5.141   4.561
10261TIP3    H130740   3.779   5.103   4.480
10261TIP3    H230741   3.813   5.125   4.626
10262TIP3   OH230742   2.136   7.791   1.412
10262TIP3    H130743   2.051   7.756   1.384
10262TIP3    H230744   2.129   7.886   1.398
10263TIP3   OH230745   4.231   0.452   4.367
10263TIP3    H130746   4.149   0.473   4.411
10263TIP3    H230747   4.293   0.517   4.400
10264TIP3   OH230748   6.677   4.225   2.740
10264TIP3    H130749   6.629   4.152   2.778
10264TIP3    H230750   6.676   4.292   2.808
10265TIP3   OH230751   5.929   1.288   4.238
10265TIP3    H130752   6.002   1.312   4.182
10265TIP3    H230753   5.967   1.278   4.325
10266TIP3   OH230754   5.074   7.100   3.828
10266TIP3    H130755   5.054   7.006   3.831
10266TIP3    H230756   4.988   7.143   3.838
10267TIP3   OH230757   1.385   2.300   2.602
10267TIP3    H130758   1.418   2.212   2.583
10267TIP3    H230759   1.346   2.293   2.689
10268TIP3   OH230760   4.234   1.060   1.136
10268TIP3    H130761   4.197   0.985   1.183
10268TIP3    H230762   4.176   1.073   1.061
10269TIP3   OH230763   4.406   1.981   0.132
10269TIP3    H130764   4.379   1.986   0.040
10269TIP3    H230765   4.383   2.067   0.168
10270TIP3   OH230766   0.219   1.358   1.677
10270TIP3    H130767   0.245   1.339   1.767
10270TIP3    H230768   0.292   1.409   1.642
10271TIP3   OH230769   5.419   5.128   4.275
10271TIP3    H130770   5.427   5.121   4.370
10271TIP3    H230771   5.493   5.184   4.249
10272TIP3   OH230772   0.850   5.788   5.374
10272TIP3    H130773   0.761   5.798   5.343
10272TIP3    H230774   0.898   5.750   5.300
10273TIP3   OH230775   0.921   5.093   2.009
10273TIP3    H130776   0.940   4.999   2.004
10273TIP3    H230777   0.884   5.115   1.924
10274TIP3   OH230778   4.890   4.973   5.488
10274TIP3    H130779   4.854   4.960   5.400
10274TIP3    H230780   4.816   4.954   5.546
10275TIP3   OH230781   6.460   1.076   6.574
10275TIP3    H130782   6.499   1.122   6.648
10275TIP3    H230783   6.529   1.016   6.544
10276TIP3   OH230784   6.051   4.684   2.324
10276TIP3    H130785   5.983   4.644   2.379
10276TIP3    H230786   6.017   4.675   2.235
10277TIP3   OH230787   6.545   7.694   1.386
10277TIP3    H130788   6.533   7.625   1.451
10277TIP3    H230789   6.469   7.752   1.399
10278TIP3   OH230790   1.148   6.530   6.020
10278TIP3    H130791   1.054   6.538   6.038
10278TIP3    H230792   1.157   6.561   5.930
10279TIP3   OH230793   2.919   6.673   5.698
10279TIP3    H130794   2.870   6.748   5.666
10279TIP3    H230795   3.005   6.681   5.658
10280TIP3   OH230796   4.057   0.464   5.275
10280TIP3    H130797   4.057   0.447   5.180
10280TIP3    H230798   4.144   0.500   5.292
10281TIP3   OH230799   3.107   2.075   1.749
10281TIP3    H130800   3.194   2.109   1.766
10281TIP3    H230801   3.048   2.137   1.792
10282TIP3   OH230802   2.720   0.145   4.005
10282TIP3    H130803   2.672   0.071   4.041
10282TIP3    H230804   2.733   0.204   4.079
10283TIP3   OH230805   5.505   2.390   5.764
10283TIP3    H130806   5.451   2.467   5.746
10283TIP3    H230807   5.594   2.424   5.771
10284TIP3   OH230808   1.242   1.067   5.990
10284TIP3    H130809   1.227   0.991   6.046
10284TIP3    H230810   1.326   1.051   5.949
10285TIP3   OH230811   7.931   5.579   2.503
10285TIP3    H130812   7.943   5.520   2.578
10285TIP3    H230813   8.009   5.635   2.503
10286TIP3   OH230814   3.263   0.663   2.235
10286TIP3    H130815   3.286   0.574   2.262
10286TIP3    H230816   3.208   0.696   2.306
10287TIP3   OH230817   5.323   6.643   2.329
10287TIP3    H130818   5.355   6.673   2.415
10287TIP3    H230819   5.245   6.591   2.350
10288TIP3   OH230820   5.703   4.563   4.647
10288TIP3    H130821   5.705   4.478   4.603
10288TIP3    H230822   5.711   4.627   4.575
10289TIP3   OH230823   7.165   7.179   6.307
10289TIP3    H130824   7.114   7.254   6.336
10289TIP3    H230825   7.215   7.211   6.232
10290TIP3   OH230826   4.273   6.700   2.273
10290TIP3    H130827   4.262   6.663   2.185
10290TIP3    H230828   4.322   6.633   2.321
10291TIP3   OH230829   4.437   5.887   3.751
10291TIP3    H130830   4.352   5.889   3.795
10291TIP3    H230831   4.458   5.794   3.743
10292TIP3   OH230832   3.079   5.053   5.773
10292TIP3    H130833   3.040   5.103   5.702
10292TIP3    H230834   3.116   5.118   5.831
10293TIP3   OH230835   1.571   4.521   5.151
10293TIP3    H130836   1.648   4.469   5.174
10293TIP3    H230837   1.607   4.601   5.113
10294TIP3   OH230838   7.512   3.298   0.682
10294TIP3    H130839   7.507   3.359   0.608
10294TIP3    H230840   7.571   3.341   0.745
10295TIP3   OH230841   0.165   2.864   4.089
10295TIP3    H130842   0.213   2.816   4.022
10295TIP3    H230843   0.157   2.803   4.162
10296TIP3   OH230844   7.964   7.393   1.717
10296TIP3    H130845   8.024   7.391   1.791
10296TIP3    H230846   8.019   7.415   1.642
10297TIP3   OH230847   4.784   1.533   2.432
10297TIP3    H130848   4.818   1.571   2.351
10297TIP3    H230849   4.795   1.438   2.420
10298TIP3   OH230850   1.613   3.405   4.249
10298TIP3    H130851   1.586   3.380   4.338
10298TIP3    H230852   1.535   3.390   4.196
10299TIP3   OH230853   4.680   7.020   3.343
10299TIP3    H130854   4.588   7.022   3.367
10299TIP3    H230855   4.696   6.931   3.312
10300TIP3   OH230856   7.114   7.530   4.715
10300TIP3    H130857   7.166   7.542   4.635
10300TIP3    H230858   7.058   7.455   4.696
10301TIP3   OH230859   3.669   1.682   3.542
10301TIP3    H130860   3.658   1.763   3.592
10301TIP3    H230861   3.647   1.707   3.452
10302TIP3   OH230862   0.920   4.488   2.282
10302TIP3    H130863   0.891   4.480   2.373
10302TIP3    H230864   0.984   4.559   2.284
10303TIP3   OH230865   2.585   2.314   2.336
10303TIP3    H130866   2.501   2.325   2.293
10303TIP3    H230867   2.584   2.225   2.370
10304TIP3   OH230868   2.300   5.119   3.963
10304TIP3    H130869   2.391   5.087   3.955
10304TIP3    H230870   2.250   5.063   3.904
10305TIP3   OH230871   1.281   0.441   6.177
10305TIP3    H130872   1.207   0.399   6.133
10305TIP3    H230873   1.251   0.453   6.268
10306TIP3   OH230874   5.713   0.485   2.017
10306TIP3    H130875   5.776   0.539   2.064
10306TIP3    H230876   5.628   0.518   2.044
10307TIP3   OH230877   2.610   1.861   4.373
10307TIP3    H130878   2.573   1.942   4.338
10307TIP3    H230879   2.603   1.871   4.468
10308TIP3   OH230880   4.756   3.813   3.087
10308TIP3    H130881   4.759   3.872   3.011
10308TIP3    H230882   4.834   3.759   3.077
10309TIP3   OH230883   3.583   6.993   6.079
10309TIP3    H130884   3.626   6.915   6.115
10309TIP3    H230885   3.647   7.030   6.019
10310TIP3   OH230886   2.313   3.069   6.551
10310TIP3    H130887   2.405   3.081   6.529
10310TIP3    H230888   2.306   3.098   6.643
10311TIP3   OH230889   2.493   5.530   4.055
10311TIP3    H130890   2.468   5.543   3.964
10311TIP3    H230891   2.420   5.481   4.093
10312TIP3   OH230892   6.993   0.592   4.123
10312TIP3    H130893   7.017   0.601   4.031
10312TIP3    H230894   6.994   0.682   4.157
10313TIP3   OH230895   1.945   6.498   5.992
10313TIP3    H130896   1.949   6.579   5.941
10313TIP3    H230897   1.863   6.503   6.040
10314TIP3   OH230898   3.602   0.759   5.420
10314TIP3    H130899   3.509   0.746   5.405
10314TIP3    H230900   3.616   0.732   5.511
10315TIP3   OH230901   4.991   0.325   5.064
10315TIP3    H130902   4.948   0.240   5.066
10315TIP3    H230903   5.085   0.304   5.066
10316TIP3   OH230904   4.752   4.641   3.487
10316TIP3    H130905   4.747   4.722   3.537
10316TIP3    H230906   4.745   4.669   3.395
10317TIP3   OH230907   0.819   5.550   3.043
10317TIP3    H130908   0.836   5.644   3.035
10317TIP3    H230909   0.890   5.517   3.098
10318TIP3   OH230910   2.151   4.370   0.405
10318TIP3    H130911   2.119   4.308   0.471
10318TIP3    H230912   2.221   4.418   0.450
10319TIP3   OH230913   5.422   6.132   5.198
10319TIP3    H130914   5.512   6.099   5.199
10319TIP3    H230915   5.381   6.087   5.124
10320TIP3   OH230916   4.160   7.330   3.543
10320TIP3    H130917   4.067   7.334   3.565
10320TIP3    H230918   4.164   7.271   3.468
10321TIP3   OH230919   6.059   6.278   3.931
10321TIP3    H130920   6.155   6.277   3.931
10321TIP3    H230921   6.035   6.305   4.020
10322TIP3   OH230922   0.145   3.019   3.335
10322TIP3    H130923   0.204   2.947   3.314
10322TIP3    H230924   0.070   2.977   3.376
10323TIP3   OH230925   2.903   6.188   3.311
10323TIP3    H130926   2.996   6.178   3.334
10323TIP3    H230927   2.889   6.124   3.241
10324TIP3   OH230928   7.344   3.574   4.038
10324TIP3    H130929   7.423   3.572   3.984
10324TIP3    H230930   7.351   3.496   4.094
10325TIP3   OH230931   4.349   5.070   1.931
10325TIP3    H130932   4.282   5.008   1.959
10325TIP3    H230933   4.340   5.145   1.990
10326TIP3   OH230934   7.463   2.582   0.569
10326TIP3    H130935   7.495   2.495   0.593
10326TIP3    H230936   7.372   2.568   0.544
10327TIP3   OH230937   6.977   0.752   4.554
10327TIP3    H130938   6.985   0.781   4.463
10327TIP3    H230939   7.005   0.827   4.606
10328TIP3   OH230940   2.490   6.494   5.304
10328TIP3    H130941   2.473   6.429   5.235
10328TIP3    H230942   2.524   6.443   5.377
10329TIP3   OH230943   2.445   7.383   5.935
10329TIP3    H130944   2.405   7.316   5.990
10329TIP3    H230945   2.446   7.462   5.989
10330TIP3   OH230946   4.965   6.379   6.725
10330TIP3    H130947   4.931   6.327   6.797
10330TIP3    H230948   4.891   6.434   6.698
10331TIP3   OH230949   6.764   5.428   6.723
10331TIP3    H130950   6.856   5.439   6.746
10331TIP3    H230951   6.762   5.351   6.666
10332TIP3   OH230952   3.770   4.556   3.953
10332TIP3    H130953   3.723   4.624   4.002
10332TIP3    H230954   3.726   4.553   3.868
10333TIP3   OH230955   3.735   0.298   1.686
10333TIP3    H130956   3.718   0.338   1.601
10333TIP3    H230957   3.727   0.204   1.670
10334TIP3   OH230958   5.279   7.278   4.780
10334TIP3    H130959   5.311   7.197   4.820
10334TIP3    H230960   5.183   7.273   4.789
10335TIP3   OH230961   1.839   1.751   2.840
10335TIP3    H130962   1.931   1.728   2.826
10335TIP3    H230963   1.794   1.666   2.842
10336TIP3   OH230964   4.734   5.837   6.211
10336TIP3    H130965   4.812   5.872   6.168
10336TIP3    H230966   4.752   5.744   6.223
10337TIP3   OH230967   2.840   7.685   4.715
10337TIP3    H130968   2.852   7.748   4.643
10337TIP3    H230969   2.929   7.664   4.743
10338TIP3   OH230970   0.592   0.945   0.656
10338TIP3    H130971   0.570   1.015   0.595
10338TIP3    H230972   0.509   0.899   0.671
10339TIP3   OH230973   1.412   0.998   1.968
10339TIP3    H130974   1.371   0.921   2.008
10339TIP3    H230975   1.339   1.049   1.933
10340TIP3   OH230976   5.662   7.047   5.059
10340TIP3    H130977   5.668   6.973   5.120
10340TIP3    H230978   5.705   7.016   4.979
10341TIP3   OH230979   3.043   2.787   4.765
10341TIP3    H130980   3.136   2.801   4.781
10341TIP3    H230981   3.009   2.752   4.848
10342TIP3   OH230982   3.702   3.517   4.022
10342TIP3    H130983   3.772   3.506   3.958
10342TIP3    H230984   3.639   3.575   3.979
10343TIP3   OH230985   4.252   5.927   1.766
10343TIP3    H130986   4.339   5.919   1.804
10343TIP3    H230987   4.232   5.840   1.733
10344TIP3   OH230988   0.746   6.268   0.524
10344TIP3    H130989   0.796   6.304   0.451
10344TIP3    H230990   0.737   6.341   0.585
10345TIP3   OH230991   5.103   5.663   4.411
10345TIP3    H130992   5.127   5.633   4.499
10345TIP3    H230993   5.184   5.656   4.361
10346TIP3   OH230994   0.272   0.414   4.556
10346TIP3    H130995   0.325   0.434   4.633
10346TIP3    H230996   0.275   0.318   4.550
10347TIP3   OH230997   5.465   4.248   2.407
10347TIP3    H130998   5.541   4.292   2.368
10347TIP3    H230999   5.423   4.203   2.334
10348TIP3   OH231000   2.098   7.561   3.498
10348TIP3    H131001   2.025   7.509   3.464
10348TIP3    H231002   2.057   7.626   3.554
10349TIP3   OH231003   2.609   3.147   4.355
10349TIP3    H131004   2.687   3.113   4.312
10349TIP3    H231005   2.642   3.187   4.436
10350TIP3   OH231006   3.493   5.032   1.887
10350TIP3    H131007   3.398   5.023   1.880
10350TIP3    H231008   3.508   5.126   1.897
10351TIP3   OH231009   6.475   2.337   1.752
10351TIP3    H131010   6.558   2.365   1.792
10351TIP3    H231011   6.411   2.401   1.781
10352TIP3   OH231012   0.460   0.150   0.265
10352TIP3    H131013   0.373   0.136   0.228
10352TIP3    H231014   0.508   0.069   0.247
10353TIP3   OH231015   7.295   4.575   4.746
10353TIP3    H131016   7.278   4.659   4.789
10353TIP3    H231017   7.358   4.531   4.803
10354TIP3   OH231018   3.939   1.870   5.928
10354TIP3    H131019   3.930   1.871   5.832
10354TIP3    H231020   3.851   1.883   5.961
10355TIP3   OH231021   3.583   7.106   3.553
10355TIP3    H131022   3.519   7.035   3.551
10355TIP3    H231023   3.573   7.146   3.639
10356TIP3   OH231024   1.510   0.338   3.383
10356TIP3    H131025   1.457   0.312   3.308
10356TIP3    H231026   1.531   0.430   3.367
10357TIP3   OH231027   6.243   1.030   0.287
10357TIP3    H131028   6.178   1.015   0.356
10357TIP3    H231029   6.302   0.956   0.293
10358TIP3   OH231030   3.297   1.690   2.515
10358TIP3    H131031   3.374   1.656   2.561
10358TIP3    H231032   3.320   1.780   2.493
10359TIP3   OH231033   5.379   6.537   4.573
10359TIP3    H131034   5.349   6.468   4.515
10359TIP3    H231035   5.348   6.618   4.532
10360TIP3   OH231036   2.660   0.366   2.949
10360TIP3    H131037   2.574   0.405   2.935
10360TIP3    H231038   2.665   0.352   3.043
10361TIP3   OH231039   6.597   3.040   1.018
10361TIP3    H131040   6.574   2.987   1.094
10361TIP3    H231041   6.534   3.012   0.951
10362TIP3   OH231042   0.513   7.771   3.593
10362TIP3    H131043   0.506   7.856   3.636
10362TIP3    H231044   0.440   7.720   3.626
10363TIP3   OH231045   1.703   6.234   0.622
10363TIP3    H131046   1.641   6.306   0.625
10363TIP3    H231047   1.789   6.276   0.625
10364TIP3   OH231048   0.823   5.913   6.056
10364TIP3    H131049   0.860   6.001   6.047
10364TIP3    H231050   0.889   5.855   6.018
10365TIP3   OH231051   0.304   4.776   0.055
10365TIP3    H131052   0.368   4.790  -0.015
10365TIP3    H231053   0.254   4.700   0.027
10366TIP3   OH231054   1.796   6.942   1.472
10366TIP3    H131055   1.851   7.000   1.524
10366TIP3    H231056   1.720   6.923   1.528
10367TIP3   OH231057   3.597   5.828   6.207
10367TIP3    H131058   3.568   5.737   6.200
10367TIP3    H231059   3.572   5.868   6.124
10368TIP3   OH231060   3.036   3.853   1.864
10368TIP3    H131061   3.048   3.936   1.818
10368TIP3    H231062   3.075   3.787   1.806
10369TIP3   OH231063   4.563   2.441   2.943
10369TIP3    H131064   4.618   2.518   2.939
10369TIP3    H231065   4.513   2.450   3.024
10370TIP3   OH231066   5.175   1.646   4.034
10370TIP3    H131067   5.221   1.564   4.055
10370TIP3    H231068   5.101   1.648   4.094
10371TIP3   OH231069   0.884   0.845   2.738
10371TIP3    H131070   0.803   0.859   2.690
10371TIP3    H231071   0.935   0.925   2.723
10372TIP3   OH231072   1.654   7.716   6.408
10372TIP3    H131073   1.725   7.667   6.449
10372TIP3    H231074   1.581   7.709   6.469
10373TIP3   OH231075   7.601   7.693   5.988
10373TIP3    H131076   7.525   7.688   6.045
10373TIP3    H231077   7.581   7.634   5.915
10374TIP3   OH231078   4.190   1.220   3.416
10374TIP3    H131079   4.257   1.219   3.485
10374TIP3    H231080   4.114   1.177   3.457
10375TIP3   OH231081   6.820   3.055   4.982
10375TIP3    H131082   6.899   3.095   4.945
10375TIP3    H231083   6.754   3.124   4.980
10376TIP3   OH231084   5.789   1.087   4.466
10376TIP3    H131085   5.811   1.032   4.391
10376TIP3    H231086   5.749   1.027   4.529
10377TIP3   OH231087   3.493   2.800   3.696
10377TIP3    H131088   3.414   2.753   3.668
10377TIP3    H231089   3.463   2.856   3.767
10378TIP3   OH231090   2.413   1.236   4.638
10378TIP3    H131091   2.410   1.232   4.733
10378TIP3    H231092   2.343   1.176   4.610
10379TIP3   OH231093   0.730   1.943   0.149
10379TIP3    H131094   0.701   2.023   0.192
10379TIP3    H231095   0.787   1.973   0.079
10380TIP3   OH231096   4.975   2.437   1.186
10380TIP3    H131097   4.950   2.387   1.263
10380TIP3    H231098   5.060   2.401   1.160
10381TIP3   OH231099   2.161   0.789   4.123
10381TIP3    H131100   2.067   0.773   4.112
10381TIP3    H231101   2.203   0.726   4.064
10382TIP3   OH231102   6.725   4.366   4.994
10382TIP3    H131103   6.800   4.344   4.939
10382TIP3    H231104   6.649   4.339   4.943
10383TIP3   OH231105   2.717   6.874   3.764
10383TIP3    H131106   2.736   6.880   3.671
10383TIP3    H231107   2.665   6.794   3.773
10384TIP3   OH231108   6.146   1.569   0.626
10384TIP3    H131109   6.134   1.664   0.633
10384TIP3    H231110   6.162   1.540   0.715
10385TIP3   OH231111   6.943   5.228   1.709
10385TIP3    H131112   6.981   5.313   1.735
10385TIP3    H231113   6.908   5.192   1.791
10386TIP3   OH231114   5.359   2.143   4.003
10386TIP3    H131115   5.351   2.142   4.098
10386TIP3    H231116   5.443   2.100   3.985
10387TIP3   OH231117   3.188   6.325   2.189
10387TIP3    H131118   3.228   6.292   2.269
10387TIP3    H231119   3.101   6.354   2.217
10388TIP3   OH231120   1.702   3.116   0.586
10388TIP3    H131121   1.795   3.093   0.579
10388TIP3    H231122   1.686   3.171   0.508
10389TIP3   OH231123   0.080   2.632   2.513
10389TIP3    H131124   0.062   2.627   2.607
10389TIP3    H231125  -0.002   2.605   2.472
10390TIP3   OH231126   1.988   2.685   1.415
10390TIP3    H131127   1.906   2.661   1.458
10390TIP3    H231128   2.021   2.604   1.377
10391TIP3   OH231129   4.406   4.837   1.656
10391TIP3    H131130   4.471   4.837   1.726
10391TIP3    H231131   4.326   4.805   1.697
10392TIP3   OH231132   2.963   0.236   3.388
10392TIP3    H131133   2.954   0.242   3.293
10392TIP3    H231134   2.959   0.142   3.408
10393TIP3   OH231135   4.023   4.831   3.527
10393TIP3    H131136   4.104   4.863   3.487
10393TIP3    H231137   4.052   4.773   3.597
10394TIP3   OH231138   7.374   2.386   2.604
10394TIP3    H131139   7.397   2.373   2.512
10394TIP3    H231140   7.355   2.480   2.611
10395TIP3   OH231141   1.312   0.187   3.236
10395TIP3    H131142   1.224   0.170   3.204
10395TIP3    H231143   1.362   0.109   3.213
10396TIP3   OH231144   0.473   0.824   6.481
10396TIP3    H131145   0.499   0.732   6.473
10396TIP3    H231146   0.415   0.839   6.406
10397TIP3   OH231147   2.380   4.311   4.055
10397TIP3    H131148   2.328   4.375   4.007
10397TIP3    H231149   2.316   4.247   4.087
10398TIP3   OH231150   4.678   6.883   6.295
10398TIP3    H131151   4.750   6.917   6.241
10398TIP3    H231152   4.682   6.788   6.283
10399TIP3   OH231153   2.696   0.452   1.889
10399TIP3    H131154   2.770   0.416   1.839
10399TIP3    H231155   2.728   0.536   1.922
10400TIP3   OH231156   7.597   1.770   1.930
10400TIP3    H131157   7.685   1.734   1.937
10400TIP3    H231158   7.605   1.861   1.958
10401TIP3   OH231159   2.099   2.205   1.046
10401TIP3    H131160   2.085   2.174   0.957
10401TIP3    H231161   2.059   2.292   1.048
10402TIP3   OH231162   4.852   1.222   1.231
10402TIP3    H131163   4.899   1.142   1.253
10402TIP3    H231164   4.857   1.227   1.136
10403TIP3   OH231165   7.338   4.497   5.246
10403TIP3    H131166   7.390   4.572   5.272
10403TIP3    H231167   7.357   4.430   5.312
10404TIP3   OH231168   6.272   3.346   5.358
10404TIP3    H131169   6.225   3.299   5.427
10404TIP3    H231170   6.206   3.365   5.292
10405TIP3   OH231171   8.223   6.063   1.657
10405TIP3    H131172   8.317   6.066   1.674
10405TIP3    H231173   8.216   6.033   1.566
10406TIP3   OH231174   5.336   3.188   5.732
10406TIP3    H131175   5.339   3.095   5.756
10406TIP3    H231176   5.423   3.221   5.755
10407TIP3   OH231177   7.470   1.029   5.000
10407TIP3    H131178   7.426   0.949   4.972
10407TIP3    H231179   7.544   1.038   4.940
10408TIP3   OH231180   8.213   6.857   3.306
10408TIP3    H131181   8.268   6.779   3.307
10408TIP3    H231182   8.270   6.927   3.340
10409TIP3   OH231183   0.027   3.823   4.105
10409TIP3    H131184   0.067   3.899   4.146
10409TIP3    H231185  -0.051   3.805   4.157
10410TIP3   OH231186   1.429   0.888   1.481
10410TIP3    H131187   1.412   0.855   1.569
10410TIP3    H231188   1.345   0.880   1.436
10411TIP3   OH231189   1.672   4.738   4.956
10411TIP3    H131190   1.713   4.803   5.013
10411TIP3    H231191   1.730   4.733   4.880
10412TIP3   OH231192   8.129   2.121   4.874
10412TIP3    H131193   8.183   2.119   4.954
10412TIP3    H231194   8.191   2.105   4.803
10413TIP3   OH231195   7.982   3.149   6.600
10413TIP3    H131196   7.965   3.070   6.549
10413TIP3    H231197   7.971   3.122   6.691
10414TIP3   OH231198   1.304   3.973   0.100
10414TIP3    H131199   1.356   4.014   0.031
10414TIP3    H231200   1.367   3.920   0.149
10415TIP3   OH231201   8.131   6.842   1.414
10415TIP3    H131202   8.161   6.908   1.352
10415TIP3    H231203   8.040   6.865   1.433
10416TIP3   OH231204   6.716   5.607   3.522
10416TIP3    H131205   6.797   5.571   3.484
10416TIP3    H231206   6.720   5.701   3.501
10417TIP3   OH231207   4.773   5.726   1.123
10417TIP3    H131208   4.767   5.651   1.064
10417TIP3    H231209   4.696   5.718   1.180
10418TIP3   OH231210   1.077   3.864   4.237
10418TIP3    H131211   1.023   3.926   4.287
10418TIP3    H231212   1.163   3.906   4.232
10419TIP3   OH231213   3.914   2.836   1.133
10419TIP3    H131214   3.822   2.836   1.160
10419TIP3    H231215   3.938   2.744   1.132
10420TIP3   OH231216   4.867   5.500   0.382
10420TIP3    H131217   4.773   5.516   0.374
10420TIP3    H231218   4.901   5.578   0.425
10421TIP3   OH231219   3.603   3.816   0.412
10421TIP3    H131220   3.604   3.849   0.502
10421TIP3    H231221   3.534   3.750   0.411
10422TIP3   OH231222   1.974   0.385   4.795
10422TIP3    H131223   2.038   0.454   4.777
10422TIP3    H231224   1.917   0.423   4.862
10423TIP3   OH231225   5.755   4.645   0.100
10423TIP3    H131226   5.842   4.673   0.130
10423TIP3    H231227   5.711   4.726   0.076
10424TIP3   OH231228   6.296   5.095   4.496
10424TIP3    H131229   6.232   5.138   4.552
10424TIP3    H231230   6.336   5.028   4.552
10425TIP3   OH231231   0.638   6.150   2.237
10425TIP3    H131232   0.613   6.077   2.181
10425TIP3    H231233   0.641   6.226   2.178
10426TIP3   OH231234   0.090   7.143   0.116
10426TIP3    H131235   0.060   7.139   0.207
10426TIP3    H231236   0.156   7.075   0.109
10427TIP3   OH231237   3.884   0.738   0.522
10427TIP3    H131238   3.893   0.644   0.510
10427TIP3    H231239   3.790   0.752   0.529
10428TIP3   OH231240   7.337   4.679   5.475
10428TIP3    H131241   7.338   4.630   5.557
10428TIP3    H231242   7.246   4.705   5.463
10429TIP3   OH231243   2.867   6.507   4.211
10429TIP3    H131244   2.804   6.483   4.143
10429TIP3    H231245   2.924   6.570   4.168
10430TIP3   OH231246   3.884   6.512   2.268
10430TIP3    H131247   3.855   6.466   2.346
10430TIP3    H231248   3.979   6.502   2.268
10431TIP3   OH231249   6.976   4.792   2.001
10431TIP3    H131250   7.031   4.720   1.972
10431TIP3    H231251   6.889   4.752   2.013
10432TIP3   OH231252   2.516   3.654   1.787
10432TIP3    H131253   2.476   3.618   1.708
10432TIP3    H231254   2.599   3.606   1.796
10433TIP3   OH231255   4.474   3.378   4.859
10433TIP3    H131256   4.463   3.472   4.865
10433TIP3    H231257   4.385   3.343   4.859
10434TIP3   OH231258   1.741   3.158   5.401
10434TIP3    H131259   1.668   3.152   5.462
10434TIP3    H231260   1.708   3.212   5.329
10435TIP3   OH231261   7.113   0.973   3.986
10435TIP3    H131262   7.074   0.946   4.069
10435TIP3    H231263   7.176   1.041   4.010
10436TIP3   OH231264   3.369   3.004   5.407
10436TIP3    H131265   3.427   3.008   5.483
10436TIP3    H231266   3.399   2.927   5.359
10437TIP3   OH231267   0.610   2.568   3.259
10437TIP3    H131268   0.522   2.559   3.297
10437TIP3    H231269   0.597   2.561   3.165
10438TIP3   OH231270   7.054   5.427   6.718
10438TIP3    H131271   7.099   5.494   6.666
10438TIP3    H231272   7.111   5.350   6.712
10439TIP3   OH231273   1.001   4.760   3.843
10439TIP3    H131274   0.968   4.713   3.920
10439TIP3    H231275   0.925   4.770   3.786
10440TIP3   OH231276   6.135   5.070   4.729
10440TIP3    H131277   6.216   5.018   4.737
10440TIP3    H231278   6.150   5.146   4.785
10441TIP3   OH231279   6.416   5.390   4.805
10441TIP3    H131280   6.486   5.328   4.780
10441TIP3    H231281   6.411   5.451   4.731
10442TIP3   OH231282   1.545   7.087   4.221
10442TIP3    H131283   1.514   7.125   4.304
10442TIP3    H231284   1.465   7.059   4.176
10443TIP3   OH231285   0.302   4.451   5.795
10443TIP3    H131286   0.393   4.476   5.776
10443TIP3    H231287   0.254   4.534   5.795
10444TIP3   OH231288   2.805   0.880   5.492
10444TIP3    H131289   2.781   0.973   5.495
10444TIP3    H231290   2.809   0.853   5.584
10445TIP3   OH231291   1.941   5.227   4.394
10445TIP3    H131292   2.017   5.184   4.354
10445TIP3    H231293   1.976   5.306   4.434
10446TIP3   OH231294   6.559   3.208   5.330
10446TIP3    H131295   6.561   3.296   5.294
10446TIP3    H231296   6.473   3.173   5.304
10447TIP3   OH231297   1.679   2.174   4.402
10447TIP3    H131298   1.701   2.166   4.494
10447TIP3    H231299   1.590   2.141   4.395
10448TIP3   OH231300   0.617   6.930   6.641
10448TIP3    H131301   0.710   6.937   6.662
10448TIP3    H231302   0.609   6.847   6.593
10449TIP3   OH231303   5.695   0.517   5.223
10449TIP3    H131304   5.770   0.532   5.166
10449TIP3    H231305   5.623   0.565   5.181
10450TIP3   OH231306   4.391   2.717   4.109
10450TIP3    H131307   4.437   2.648   4.157
10450TIP3    H231308   4.383   2.789   4.172
10451TIP3   OH231309   2.278   5.377   3.904
10451TIP3    H131310   2.268   5.283   3.923
10451TIP3    H231311   2.287   5.381   3.809
10452TIP3   OH231312   5.091   4.038   0.601
10452TIP3    H131313   5.179   4.053   0.637
10452TIP3    H231314   5.075   4.115   0.547
10453TIP3   OH231315   4.308   7.599   3.772
10453TIP3    H131316   4.275   7.629   3.856
10453TIP3    H231317   4.272   7.511   3.761
10454TIP3   OH231318   1.264   0.580   1.825
10454TIP3    H131319   1.180   0.551   1.791
10454TIP3    H231320   1.297   0.505   1.874
10455TIP3   OH231321   6.588   0.961   2.667
10455TIP3    H131322   6.668   0.931   2.710
10455TIP3    H231323   6.605   0.948   2.574
10456TIP3   OH231324   8.221   7.194   6.557
10456TIP3    H131325   8.196   7.110   6.518
10456TIP3    H231326   8.309   7.178   6.593
10457TIP3   OH231327   8.187   1.581   1.411
10457TIP3    H131328   8.233   1.511   1.457
10457TIP3    H231329   8.099   1.580   1.448
10458TIP3   OH231330   1.625   3.315   3.420
10458TIP3    H131331   1.663   3.402   3.410
10458TIP3    H231332   1.670   3.277   3.495
10459TIP3   OH231333   5.501   3.023   5.523
10459TIP3    H131334   5.545   2.993   5.602
10459TIP3    H231335   5.408   3.021   5.546
10460TIP3   OH231336   7.099   2.170   2.290
10460TIP3    H131337   7.102   2.107   2.362
10460TIP3    H231338   7.006   2.176   2.268
10461TIP3   OH231339   5.309   1.113   0.219
10461TIP3    H131340   5.263   1.033   0.194
10461TIP3    H231341   5.239   1.175   0.240
10462TIP3   OH231342   5.366   1.150   3.041
10462TIP3    H131343   5.394   1.152   2.949
10462TIP3    H231344   5.293   1.211   3.046
10463TIP3   OH231345   5.126   6.150   6.015
10463TIP3    H131346   5.213   6.112   6.008
10463TIP3    H231347   5.134   6.216   6.083
10464TIP3   OH231348   7.668   6.720   6.000
10464TIP3    H131349   7.753   6.764   6.011
10464TIP3    H231350   7.671   6.684   5.912
10465TIP3   OH231351   3.666   1.707   4.607
10465TIP3    H131352   3.575   1.697   4.636
10465TIP3    H231353   3.669   1.665   4.522
10466TIP3   OH231354   7.712   1.164   6.584
10466TIP3    H131355   7.617   1.157   6.585
10466TIP3    H231356   7.729   1.248   6.541
10467TIP3   OH231357   2.577   1.161   3.565
10467TIP3    H131358   2.555   1.238   3.617
10467TIP3    H231359   2.643   1.115   3.617
10468TIP3   OH231360   4.502   6.357   0.363
10468TIP3    H131361   4.472   6.426   0.304
10468TIP3    H231362   4.517   6.401   0.447
10469TIP3   OH231363   7.801   2.195   6.514
10469TIP3    H131364   7.875   2.134   6.512
10469TIP3    H231365   7.755   2.179   6.432
10470TIP3   OH231366   0.664   3.717   1.212
10470TIP3    H131367   0.683   3.625   1.229
10470TIP3    H231368   0.742   3.751   1.169
10471TIP3   OH231369   1.335   4.848   4.518
10471TIP3    H131370   1.380   4.778   4.567
10471TIP3    H231371   1.293   4.802   4.445
10472TIP3   OH231372   2.979   7.420   3.105
10472TIP3    H131373   2.893   7.448   3.137
10472TIP3    H231374   2.981   7.326   3.124
10473TIP3   OH231375   8.163   0.067   4.777
10473TIP3    H131376   8.239   0.117   4.748
10473TIP3    H231377   8.140   0.012   4.702
10474TIP3   OH231378   4.740   2.756   3.504
10474TIP3    H131379   4.722   2.667   3.536
10474TIP3    H231380   4.825   2.778   3.542
10475TIP3   OH231381   7.136   1.922   0.106
10475TIP3    H131382   7.109   2.007   0.138
10475TIP3    H231383   7.061   1.889   0.058
10476TIP3   OH231384   4.617   5.738   3.260
10476TIP3    H131385   4.567   5.786   3.327
10476TIP3    H231386   4.675   5.681   3.311
10477TIP3   OH231387   0.587   5.709   2.446
10477TIP3    H131388   0.666   5.703   2.392
10477TIP3    H231389   0.618   5.699   2.536
10478TIP3   OH231390   5.007   6.856   4.310
10478TIP3    H131391   5.027   6.836   4.218
10478TIP3    H231392   4.954   6.783   4.340
10479TIP3   OH231393   1.762   7.294   2.452
10479TIP3    H131394   1.849   7.257   2.442
10479TIP3    H231395   1.746   7.342   2.370
10480TIP3   OH231396   5.097   6.980   5.137
10480TIP3    H131397   5.050   7.064   5.137
10480TIP3    H231398   5.052   6.928   5.071
10481TIP3   OH231399   0.241   5.109   6.061
10481TIP3    H131400   0.304   5.048   6.100
10481TIP3    H231401   0.212   5.066   5.981
10482TIP3   OH231402   4.040   7.282   6.194
10482TIP3    H131403   4.008   7.367   6.163
10482TIP3    H231404   4.097   7.303   6.268
10483TIP3   OH231405   6.057   0.856   6.661
10483TIP3    H131406   6.111   0.906   6.721
10483TIP3    H231407   6.100   0.865   6.576
10484TIP3   OH231408   4.072   0.223   1.599
10484TIP3    H131409   4.022   0.269   1.666
10484TIP3    H231410   4.118   0.292   1.551
10485TIP3   OH231411   7.505   4.495   3.320
10485TIP3    H131412   7.491   4.407   3.356
10485TIP3    H231413   7.566   4.482   3.247
10486TIP3   OH231414   5.858   6.622   4.329
10486TIP3    H131415   5.787   6.583   4.279
10486TIP3    H231416   5.938   6.583   4.292
10487TIP3   OH231417   6.147   4.779   3.217
10487TIP3    H131418   6.157   4.805   3.308
10487TIP3    H231419   6.237   4.767   3.186
10488TIP3   OH231420   1.431   0.746   2.771
10488TIP3    H131421   1.353   0.768   2.721
10488TIP3    H231422   1.443   0.652   2.758
10489TIP3   OH231423   2.639   6.615   0.409
10489TIP3    H131424   2.730   6.592   0.388
10489TIP3    H231425   2.642   6.644   0.500
10490TIP3   OH231426   1.734   5.310   1.117
10490TIP3    H131427   1.727   5.283   1.209
10490TIP3    H231428   1.820   5.280   1.089
10491TIP3   OH231429   5.599   3.508   1.584
10491TIP3    H131430   5.569   3.430   1.537
10491TIP3    H231431   5.519   3.555   1.607
10492TIP3   OH231432   4.077   0.432   4.979
10492TIP3    H131433   3.993   0.477   4.971
10492TIP3    H231434   4.084   0.378   4.900
10493TIP3   OH231435   4.441   7.488   5.338
10493TIP3    H131436   4.514   7.438   5.302
10493TIP3    H231437   4.434   7.564   5.279
10494TIP3   OH231438   4.081   4.268   0.132
10494TIP3    H131439   4.050   4.348   0.174
10494TIP3    H231440   4.011   4.204   0.149
10495TIP3   OH231441   1.554   2.426   6.273
10495TIP3    H131442   1.525   2.472   6.352
10495TIP3    H231443   1.526   2.336   6.287
10496TIP3   OH231444   0.437   5.592   0.750
10496TIP3    H131445   0.439   5.497   0.761
10496TIP3    H231446   0.463   5.627   0.835
10497TIP3   OH231447   8.189   3.561   4.890
10497TIP3    H131448   8.203   3.622   4.962
10497TIP3    H231449   8.206   3.475   4.928
10498TIP3   OH231450   5.481   7.409   2.109
10498TIP3    H131451   5.447   7.331   2.152
10498TIP3    H231452   5.439   7.482   2.155
10499TIP3   OH231453   3.470   4.711   2.128
10499TIP3    H131454   3.413   4.762   2.186
10499TIP3    H231455   3.517   4.776   2.077
10500TIP3   OH231456   4.553   1.443   6.252
10500TIP3    H131457   4.585   1.370   6.305
10500TIP3    H231458   4.604   1.437   6.171
10501TIP3   OH231459   7.052   3.219   6.724
10501TIP3    H131460   6.970   3.259   6.695
10501TIP3    H231461   7.042   3.210   6.819
10502TIP3   OH231462   2.403   3.566   0.227
10502TIP3    H131463   2.418   3.538   0.137
10502TIP3    H231464   2.490   3.565   0.267
10503TIP3   OH231465   5.854   7.048   6.629
10503TIP3    H131466   5.896   7.125   6.668
10503TIP3    H231467   5.865   6.980   6.695
10504TIP3   OH231468   6.150   7.752   0.256
10504TIP3    H131469   6.154   7.660   0.230
10504TIP3    H231470   6.171   7.751   0.350
10505TIP3   OH231471   8.257   5.970   5.203
10505TIP3    H131472   8.250   5.990   5.296
10505TIP3    H231473   8.332   5.910   5.197
10506TIP3   OH231474   4.108   6.972   2.280
10506TIP3    H131475   4.138   6.883   2.298
10506TIP3    H231476   4.070   6.967   2.193
10507TIP3   OH231477   0.299   3.342   4.337
10507TIP3    H131478   0.355   3.371   4.264
10507TIP3    H231479   0.281   3.250   4.318
10508TIP3   OH231480   5.493   2.787   0.226
10508TIP3    H131481   5.501   2.738   0.308
10508TIP3    H231482   5.399   2.807   0.220
10509TIP3   OH231483   7.750   1.420   0.730
10509TIP3    H131484   7.831   1.466   0.751
10509TIP3    H231485   7.767   1.329   0.754
10510TIP3   OH231486   3.401   4.019   5.207
10510TIP3    H131487   3.475   4.014   5.147
10510TIP3    H231488   3.398   4.111   5.234
10511TIP3   OH231489   6.183   1.350   2.115
10511TIP3    H131490   6.219   1.290   2.179
10511TIP3    H231491   6.107   1.305   2.079
10512TIP3   OH231492   4.464   7.689   0.262
10512TIP3    H131493   4.547   7.734   0.277
10512TIP3    H231494   4.479   7.599   0.291
10513TIP3   OH231495   3.354   1.005   0.433
10513TIP3    H131496   3.429   0.946   0.434
10513TIP3    H231497   3.362   1.054   0.351
10514TIP3   OH231498   1.421   5.714   6.680
10514TIP3    H131499   1.462   5.632   6.653
10514TIP3    H231500   1.362   5.690   6.751
10515TIP3   OH231501   5.276   4.813   0.939
10515TIP3    H131502   5.304   4.785   0.852
10515TIP3    H231503   5.214   4.883   0.923
10516TIP3   OH231504   7.283   5.066   1.632
10516TIP3    H131505   7.317   5.148   1.669
10516TIP3    H231506   7.237   5.024   1.705
10517TIP3   OH231507   1.028   4.816   0.499
10517TIP3    H131508   1.008   4.891   0.555
10517TIP3    H231509   0.966   4.822   0.426
10518TIP3   OH231510   0.196   7.599   0.512
10518TIP3    H131511   0.101   7.604   0.517
10518TIP3    H231512   0.226   7.687   0.534
10519TIP3   OH231513   8.094   0.493   3.594
10519TIP3    H131514   8.165   0.557   3.596
10519TIP3    H231515   8.103   0.445   3.676
10520TIP3   OH231516   2.118   3.236   0.502
10520TIP3    H131517   2.157   3.319   0.473
10520TIP3    H231518   2.192   3.180   0.522
10521TIP3   OH231519   8.065   0.364   4.181
10521TIP3    H131520   8.156   0.342   4.198
10521TIP3    H231521   8.016   0.324   4.253
10522TIP3   OH231522   0.158   2.978   0.766
10522TIP3    H131523   0.123   3.029   0.840
10522TIP3    H231524   0.178   3.043   0.699
10523TIP3   OH231525   1.769   4.981   0.224
10523TIP3    H131526   1.853   5.013   0.257
10523TIP3    H231527   1.787   4.954   0.135
10524TIP3   OH231528   5.127   0.670   1.998
10524TIP3    H131529   5.166   0.749   1.960
10524TIP3    H231530   5.042   0.700   2.030
10525TIP3   OH231531   7.117   6.875   0.517
10525TIP3    H131532   7.022   6.888   0.511
10525TIP3    H231533   7.147   6.944   0.576
10526TIP3   OH231534   3.271   4.680   1.696
10526TIP3    H131535   3.240   4.711   1.781
10526TIP3    H231536   3.366   4.675   1.706
10527TIP3   OH231537   4.538   6.102   3.126
10527TIP3    H131538   4.551   6.059   3.211
10527TIP3    H231539   4.594   6.180   3.131
10528TIP3   OH231540   7.092   0.306   2.491
10528TIP3    H131541   7.072   0.400   2.489
10528TIP3    H231542   7.060   0.272   2.408
10529TIP3   OH231543   6.639   5.047   3.485
10529TIP3    H131544   6.649   5.010   3.573
10529TIP3    H231545   6.663   5.139   3.494
10530TIP3   OH231546   3.148   6.696   0.581
10530TIP3    H131547   3.086   6.697   0.653
10530TIP3    H231548   3.173   6.787   0.569
10531TIP3   OH231549   3.636   0.691   0.221
10531TIP3    H131550   3.697   0.631   0.177
10531TIP3    H231551   3.606   0.749   0.151
10532TIP3   OH231552   1.257   5.084   3.147
10532TIP3    H131553   1.339   5.099   3.102
10532TIP3    H231554   1.243   5.164   3.199
10533TIP3   OH231555   7.457   6.298   6.178
10533TIP3    H131556   7.440   6.335   6.264
10533TIP3    H231557   7.380   6.323   6.126
10534TIP3   OH231558   2.108   0.026   6.717
10534TIP3    H131559   2.091   0.056   6.628
10534TIP3    H231560   2.047  -0.046   6.730
10535TIP3   OH231561   4.176   2.930   3.867
10535TIP3    H131562   4.214   2.843   3.878
10535TIP3    H231563   4.230   2.987   3.922
10536TIP3   OH231564   8.233   6.670   4.428
10536TIP3    H131565   8.290   6.593   4.431
10536TIP3    H231566   8.163   6.651   4.491
10537TIP3   OH231567   3.121   0.896   5.452
10537TIP3    H131568   3.091   0.834   5.518
10537TIP3    H231569   3.102   0.982   5.489
10538TIP3   OH231570   3.831   7.197   0.304
10538TIP3    H131571   3.842   7.170   0.395
10538TIP3    H231572   3.736   7.201   0.291
10539TIP3   OH231573   0.421   1.356   5.928
10539TIP3    H131574   0.489   1.422   5.915
10539TIP3    H231575   0.400   1.326   5.839
10540TIP3   OH231576   4.021   7.718   6.317
10540TIP3    H131577   3.965   7.786   6.280
10540TIP3    H231578   3.987   7.704   6.405
10541TIP3   OH231579   1.218   2.478   2.308
10541TIP3    H131580   1.206   2.566   2.344
10541TIP3    H231581   1.164   2.421   2.364
10542TIP3   OH231582   0.715   5.243   1.214
10542TIP3    H131583   0.763   5.261   1.133
10542TIP3    H231584   0.626   5.275   1.197
10543TIP3   OH231585   2.559   1.848   0.907
10543TIP3    H131586   2.586   1.938   0.924
10543TIP3    H231587   2.641   1.799   0.902
10544TIP3   OH231588   2.372   0.948   1.307
10544TIP3    H131589   2.355   1.020   1.247
10544TIP3    H231590   2.299   0.887   1.293
10545TIP3   OH231591   6.735   5.216   6.569
10545TIP3    H131592   6.806   5.175   6.520
10545TIP3    H231593   6.685   5.143   6.606
10546TIP3   OH231594   6.536   4.787   6.199
10546TIP3    H131595   6.551   4.822   6.111
10546TIP3    H231596   6.452   4.824   6.225
10547TIP3   OH231597   4.405   7.403   3.491
10547TIP3    H131598   4.310   7.391   3.496
10547TIP3    H231599   4.419   7.496   3.510
10548TIP3   OH231600   2.527   5.080   4.582
10548TIP3    H131601   2.522   5.085   4.678
10548TIP3    H231602   2.613   5.117   4.561
10549TIP3   OH231603   6.735   0.071   3.895
10549TIP3    H131604   6.815   0.093   3.942
10549TIP3    H231605   6.665   0.082   3.959
10550TIP3   OH231606   5.793   7.701   4.830
10550TIP3    H131607   5.886   7.714   4.813
10550TIP3    H231608   5.787   7.613   4.866
10551TIP3   OH231609   3.344   3.641   3.930
10551TIP3    H131610   3.326   3.696   3.854
10551TIP3    H231611   3.368   3.556   3.894
10552TIP3   OH231612   6.814   3.661   2.370
10552TIP3    H131613   6.758   3.624   2.303
10552TIP3    H231614   6.757   3.720   2.420
10553TIP3   OH231615   6.255   4.848   4.965
10553TIP3    H131616   6.249   4.929   5.015
10553TIP3    H231617   6.245   4.779   5.031
10554TIP3   OH231618   5.613   4.753   6.043
10554TIP3    H131619   5.576   4.757   5.955
10554TIP3    H231620   5.624   4.845   6.068
10555TIP3   OH231621   2.555   1.732   2.419
10555TIP3    H131622   2.484   1.792   2.443
10555TIP3    H231623   2.582   1.692   2.501
10556TIP3   OH231624   4.688   0.141   3.803
10556TIP3    H131625   4.709   0.234   3.791
10556TIP3    H231626   4.595   0.135   3.783
10557TIP3   OH231627   4.518   7.232   2.614
10557TIP3    H131628   4.439   7.228   2.667
10557TIP3    H231629   4.490   7.204   2.526
10558TIP3   OH231630   7.935   3.867   3.629
10558TIP3    H131631   8.024   3.869   3.596
10558TIP3    H231632   7.915   3.958   3.653
10559TIP3   OH231633   5.652   6.296   0.573
10559TIP3    H131634   5.616   6.230   0.514
10559TIP3    H231635   5.599   6.374   0.558
10560TIP3   OH231636   6.765   3.883   6.300
10560TIP3    H131637   6.773   3.978   6.313
10560TIP3    H231638   6.705   3.875   6.225
10561TIP3   OH231639   4.614   7.218   5.576
10561TIP3    H131640   4.692   7.198   5.627
10561TIP3    H231641   4.578   7.297   5.617
10562TIP3   OH231642   1.266   4.833   5.205
10562TIP3    H131643   1.271   4.808   5.113
10562TIP3    H231644   1.229   4.756   5.249
10563TIP3   OH231645   4.284   1.729   5.029
10563TIP3    H131646   4.242   1.789   5.091
10563TIP3    H231647   4.259   1.642   5.060
10564TIP3   OH231648   4.780   1.079   1.675
10564TIP3    H131649   4.814   1.164   1.648
10564TIP3    H231650   4.744   1.041   1.595
10565TIP3   OH231651   2.677   6.626   6.334
10565TIP3    H131652   2.594   6.650   6.375
10565TIP3    H231653   2.673   6.665   6.247
10566TIP3   OH231654   1.289   0.544   6.436
10566TIP3    H131655   1.272   0.473   6.497
10566TIP3    H231656   1.374   0.523   6.397
10567TIP3   OH231657   0.392   2.514   5.070
10567TIP3    H131658   0.472   2.548   5.031
10567TIP3    H231659   0.326   2.582   5.056
10568TIP3   OH231660   5.877   0.315   2.983
10568TIP3    H131661   5.878   0.239   3.042
10568TIP3    H231662   5.788   0.316   2.947
10569TIP3   OH231663   1.235   0.780   3.016
10569TIP3    H131664   1.209   0.690   3.034
10569TIP3    H231665   1.177   0.808   2.945
10570TIP3   OH231666   1.657   4.525   1.715
10570TIP3    H131667   1.713   4.453   1.741
10570TIP3    H231668   1.686   4.549   1.627
10571TIP3   OH231669   4.166   0.336   0.875
10571TIP3    H131670   4.190   0.260   0.928
10571TIP3    H231671   4.071   0.341   0.884
10572TIP3   OH231672   7.688   6.698   3.386
10572TIP3    H131673   7.649   6.717   3.301
10572TIP3    H231674   7.626   6.638   3.429
10573TIP3   OH231675   0.579   7.676   1.659
10573TIP3    H131676   0.491   7.701   1.632
10573TIP3    H231677   0.566   7.599   1.714
10574TIP3   OH231678   4.457   4.443   5.761
10574TIP3    H131679   4.389   4.486   5.709
10574TIP3    H231680   4.415   4.363   5.794
10575TIP3   OH231681   3.268   7.506   4.046
10575TIP3    H131682   3.210   7.560   4.101
10575TIP3    H231683   3.283   7.560   3.968
10576TIP3   OH231684   5.191   5.746   4.904
10576TIP3    H131685   5.213   5.661   4.941
10576TIP3    H231686   5.100   5.736   4.874
10577TIP3   OH231687   5.111   1.229   2.589
10577TIP3    H131688   5.126   1.238   2.683
10577TIP3    H231689   5.017   1.219   2.580
10578TIP3   OH231690   7.575   2.516   5.046
10578TIP3    H131691   7.539   2.565   4.973
10578TIP3    H231692   7.509   2.450   5.066
10579TIP3   OH231693   6.836   6.170   4.406
10579TIP3    H131694   6.842   6.127   4.491
10579TIP3    H231695   6.755   6.221   4.410
10580TIP3   OH231696   6.700   6.509   4.789
10580TIP3    H131697   6.730   6.419   4.805
10580TIP3    H231698   6.774   6.552   4.746
10581TIP3   OH231699   6.711   2.572   5.814
10581TIP3    H131700   6.690   2.563   5.907
10581TIP3    H231701   6.774   2.644   5.811
10582TIP3   OH231702   0.330   4.698   4.980
10582TIP3    H131703   0.412   4.743   4.958
10582TIP3    H231704   0.274   4.767   5.017
10583TIP3   OH231705   2.628   3.509   1.350
10583TIP3    H131706   2.684   3.550   1.284
10583TIP3    H231707   2.689   3.471   1.413
10584TIP3   OH231708   6.888   5.035   4.988
10584TIP3    H131709   6.948   5.037   5.062
10584TIP3    H231710   6.885   4.943   4.962
10585TIP3   OH231711   5.680   5.887   4.380
10585TIP3    H131712   5.709   5.815   4.324
10585TIP3    H231713   5.753   5.949   4.378
10586TIP3   OH231714   1.974   0.822   5.022
10586TIP3    H131715   1.923   0.854   5.097
10586TIP3    H231716   2.005   0.736   5.050
10587TIP3   OH231717   6.360   1.560   2.144
10587TIP3    H131718   6.302   1.622   2.101
10587TIP3    H231719   6.311   1.478   2.148
10588TIP3   OH231720   2.416   2.991   3.994
10588TIP3    H131721   2.454   3.068   4.037
10588TIP3    H231722   2.479   2.921   4.010
10589TIP3   OH231723   4.346   2.763   3.663
10589TIP3    H131724   4.296   2.700   3.715
10589TIP3    H231725   4.279   2.813   3.615
10590TIP3   OH231726   0.996   0.832   6.734
10590TIP3    H131727   0.950   0.753   6.764
10590TIP3    H231728   1.086   0.804   6.720
10591TIP3   OH231729   0.390   4.137   3.245
10591TIP3    H131730   0.344   4.053   3.254
10591TIP3    H231731   0.478   4.113   3.216
10592TIP3   OH231732   3.977   7.706   5.286
10592TIP3    H131733   3.895   7.694   5.239
10592TIP3    H231734   3.991   7.623   5.332
10593TIP3   OH231735   1.650   5.729   3.906
10593TIP3    H131736   1.702   5.648   3.907
10593TIP3    H231737   1.682   5.777   3.830
10594TIP3   OH231738   7.352   0.889   2.114
10594TIP3    H131739   7.373   0.970   2.160
10594TIP3    H231740   7.304   0.916   2.037
10595TIP3   OH231741   4.933   5.795   4.785
10595TIP3    H131742   4.896   5.716   4.747
10595TIP3    H231743   4.864   5.830   4.840
10596TIP3   OH231744   1.768   7.323   4.990
10596TIP3    H131745   1.785   7.241   5.037
10596TIP3    H231746   1.816   7.389   5.039
10597TIP3   OH231747   2.905   0.183   4.652
10597TIP3    H131748   2.842   0.184   4.580
10597TIP3    H231749   2.990   0.173   4.610
10598TIP3   OH231750   2.908   1.317   2.212
10598TIP3    H131751   2.929   1.355   2.127
10598TIP3    H231752   2.853   1.382   2.255
10599TIP3   OH231753   3.146   5.427   6.365
10599TIP3    H131754   3.216   5.477   6.324
10599TIP3    H231755   3.069   5.483   6.359
10600TIP3   OH231756   2.257   3.837   5.119
10600TIP3    H131757   2.340   3.792   5.105
10600TIP3    H231758   2.242   3.886   5.038
10601TIP3   OH231759   4.116   2.369   2.345
10601TIP3    H131760   4.090   2.416   2.266
10601TIP3    H231761   4.058   2.402   2.413
10602TIP3   OH231762   0.083   5.134   1.966
10602TIP3    H131763   0.020   5.066   1.990
10602TIP3    H231764   0.049   5.214   2.006
10603TIP3   OH231765   5.127   2.415   4.393
10603TIP3    H131766   5.174   2.423   4.476
10603TIP3    H231767   5.063   2.346   4.409
10604TIP3   OH231768   5.877   6.971   2.176
10604TIP3    H131769   5.892   6.947   2.267
10604TIP3    H231770   5.956   6.941   2.130
10605TIP3   OH231771   0.598   2.355   6.396
10605TIP3    H131772   0.667   2.401   6.443
10605TIP3    H231773   0.524   2.353   6.457
10606TIP3   OH231774   1.526   5.045   3.087
10606TIP3    H131775   1.614   5.008   3.085
10606TIP3    H231776   1.493   5.034   2.998
10607TIP3   OH231777   2.940   3.523   4.954
10607TIP3    H131778   2.873   3.592   4.951
10607TIP3    H231779   2.976   3.521   4.865
10608TIP3   OH231780   5.190   1.767   0.841
10608TIP3    H131781   5.108   1.735   0.803
10608TIP3    H231782   5.258   1.740   0.779
10609TIP3   OH231783   3.918   3.443   1.244
10609TIP3    H131784   4.002   3.443   1.197
10609TIP3    H231785   3.871   3.368   1.207
10610TIP3   OH231786   6.618   3.096   3.446
10610TIP3    H131787   6.657   3.107   3.359
10610TIP3    H231788   6.653   3.169   3.496
10611TIP3   OH231789   5.203   5.761   6.091
10611TIP3    H131790   5.272   5.728   6.034
10611TIP3    H231791   5.183   5.688   6.149
10612TIP3   OH231792   4.118   3.201   3.312
10612TIP3    H131793   4.061   3.242   3.246
10612TIP3    H231794   4.060   3.183   3.386
10613TIP3   OH231795   5.456   5.891   1.291
10613TIP3    H131796   5.408   5.886   1.208
10613TIP3    H231797   5.517   5.964   1.279
10614TIP3   OH231798   0.911   3.623   6.500
10614TIP3    H131799   0.941   3.689   6.562
10614TIP3    H231800   0.831   3.588   6.540
10615TIP3   OH231801   7.158   1.431   2.213
10615TIP3    H131802   7.233   1.490   2.217
10615TIP3    H231803   7.132   1.418   2.304
10616TIP3   OH231804   5.779   2.743   2.931
10616TIP3    H131805   5.740   2.820   2.973
10616TIP3    H231806   5.768   2.760   2.837
10617TIP3   OH231807   4.497   3.588   4.349
10617TIP3    H131808   4.571   3.609   4.293
10617TIP3    H231809   4.459   3.673   4.372
10618TIP3   OH231810   3.468   3.926   3.383
10618TIP3    H131811   3.384   3.901   3.343
10618TIP3    H231812   3.531   3.863   3.347
10619TIP3   OH231813   0.401   1.471   5.458
10619TIP3    H131814   0.335   1.428   5.402
10619TIP3    H231815   0.386   1.565   5.445
10620TIP3   OH231816   6.525   7.486   1.552
10620TIP3    H131817   6.519   7.407   1.498
10620TIP3    H231818   6.435   7.516   1.562
10621TIP3   OH231819   0.332   6.630   4.308
10621TIP3    H131820   0.407   6.689   4.302
10621TIP3    H231821   0.304   6.618   4.217
10622TIP3   OH231822   5.246   4.779   4.431
10622TIP3    H131823   5.169   4.817   4.474
10622TIP3    H231824   5.230   4.685   4.433
10623TIP3   OH231825   5.242   1.001   4.276
10623TIP3    H131826   5.289   0.942   4.336
10623TIP3    H231827   5.150   0.995   4.303
10624TIP3   OH231828   4.145   0.143   4.538
10624TIP3    H131829   4.156   0.053   4.568
10624TIP3    H231830   4.219   0.159   4.480
10625TIP3   OH231831   1.331   3.779   6.553
10625TIP3    H131832   1.304   3.703   6.604
10625TIP3    H231833   1.250   3.810   6.512
10626TIP3   OH231834   2.652   6.855   1.220
10626TIP3    H131835   2.742   6.882   1.238
10626TIP3    H231836   2.599   6.904   1.282
10627TIP3   OH231837   3.630   6.333   6.273
10627TIP3    H131838   3.603   6.275   6.344
10627TIP3    H231839   3.564   6.402   6.272
10628TIP3   OH231840   0.300   2.839   6.161
10628TIP3    H131841   0.345   2.810   6.082
10628TIP3    H231842   0.366   2.835   6.230
10629TIP3   OH231843   3.930   5.796   6.230
10629TIP3    H131844   3.924   5.890   6.241
10629TIP3    H231845   3.917   5.781   6.136
10630TIP3   OH231846   6.889   1.517   0.640
10630TIP3    H131847   6.797   1.542   0.644
10630TIP3    H231848   6.897   1.444   0.702
10631TIP3   OH231849   6.535   1.563   6.028
10631TIP3    H131850   6.566   1.649   6.000
10631TIP3    H231851   6.508   1.520   5.948
10632TIP3   OH231852   4.169   4.227   2.955
10632TIP3    H131853   4.186   4.138   2.927
10632TIP3    H231854   4.218   4.236   3.037
10633TIP3   OH231855   2.410   6.894   4.754
10633TIP3    H131856   2.455   6.956   4.697
10633TIP3    H231857   2.420   6.930   4.842
10634TIP3   OH231858   7.054   3.712   4.963
10634TIP3    H131859   7.102   3.732   5.044
10634TIP3    H231860   6.985   3.652   4.991
10635TIP3   OH231861   2.395   6.155   2.559
10635TIP3    H131862   2.365   6.150   2.649
10635TIP3    H231863   2.316   6.175   2.508
10636TIP3   OH231864   6.611   6.311   4.286
10636TIP3    H131865   6.615   6.229   4.237
10636TIP3    H231866   6.580   6.286   4.373
10637TIP3   OH231867   5.326   0.833   3.033
10637TIP3    H131868   5.358   0.923   3.036
10637TIP3    H231869   5.344   0.798   3.120
10638TIP3   OH231870   5.547   3.918   6.557
10638TIP3    H131871   5.514   3.914   6.647
10638TIP3    H231872   5.484   3.974   6.511
10639TIP3   OH231873   2.142   0.193   0.496
10639TIP3    H131874   2.101   0.144   0.568
10639TIP3    H231875   2.184   0.268   0.539
10640TIP3   OH231876   0.017   2.125   0.626
10640TIP3    H131877  -0.022   2.208   0.599
10640TIP3    H231878   0.043   2.140   0.717
10641TIP3   OH231879   2.926   6.572   2.422
10641TIP3    H131880   2.893   6.619   2.498
10641TIP3    H231881   2.965   6.640   2.367
10642TIP3   OH231882   4.999   6.871   4.898
10642TIP3    H131883   5.070   6.816   4.864
10642TIP3    H231884   4.920   6.836   4.855
10643TIP3   OH231885   6.632   6.722   1.260
10643TIP3    H131886   6.653   6.700   1.351
10643TIP3    H231887   6.556   6.666   1.239
10644TIP3   OH231888   3.929   0.987   5.741
10644TIP3    H131889   3.904   1.066   5.788
10644TIP3    H231890   4.024   0.995   5.730
10645TIP3   OH231891   7.975   4.658   0.094
10645TIP3    H131892   8.011   4.696   0.173
10645TIP3    H231893   8.031   4.691   0.023
10646TIP3   OH231894   0.565   2.024   4.000
10646TIP3    H131895   0.633   2.075   3.956
10646TIP3    H231896   0.484   2.072   3.984
10647TIP3   OH231897   6.611   1.530   2.703
10647TIP3    H131898   6.630   1.600   2.641
10647TIP3    H231899   6.534   1.486   2.666
10648TIP3   OH231900   7.932   2.573   0.071
10648TIP3    H131901   7.874   2.642   0.105
10648TIP3    H231902   7.951   2.600  -0.019
10649TIP3   OH231903   4.777   7.703   6.258
10649TIP3    H131904   4.741   7.791   6.259
10649TIP3    H231905   4.717   7.653   6.203
10650TIP3   OH231906   2.830   7.353   0.800
10650TIP3    H131907   2.912   7.375   0.844
10650TIP3    H231908   2.761   7.390   0.855
10651TIP3   OH231909   5.754   4.546   6.478
10651TIP3    H131910   5.675   4.589   6.510
10651TIP3    H231911   5.795   4.510   6.557
10652TIP3   OH231912   8.047   5.823   6.059
10652TIP3    H131913   8.100   5.879   6.115
10652TIP3    H231914   7.962   5.819   6.102
10653TIP3   OH231915   5.347   4.748   0.700
10653TIP3    H131916   5.424   4.696   0.678
10653TIP3    H231917   5.284   4.727   0.630
10654TIP3   OH231918   5.330   5.102   4.545
10654TIP3    H131919   5.358   5.147   4.624
10654TIP3    H231920   5.236   5.120   4.539
10655TIP3   OH231921   3.501   5.315   4.054
10655TIP3    H131922   3.528   5.230   4.089
10655TIP3    H231923   3.411   5.300   4.023
10656TIP3   OH231924   5.076   3.783   4.103
10656TIP3    H131925   4.985   3.812   4.115
10656TIP3    H231926   5.068   3.695   4.066
10657TIP3   OH231927   5.576   5.797   2.707
10657TIP3    H131928   5.580   5.702   2.721
10657TIP3    H231929   5.587   5.834   2.795
10658TIP3   OH231930   4.206   5.914   6.538
10658TIP3    H131931   4.286   5.911   6.592
10658TIP3    H231932   4.160   5.993   6.568
10659TIP3   OH231933   5.676   0.781   1.873
10659TIP3    H131934   5.591   0.755   1.908
10659TIP3    H231935   5.680   0.876   1.889
10660TIP3   OH231936   4.927   3.899   5.920
10660TIP3    H131937   4.881   3.983   5.923
10660TIP3    H231938   4.993   3.906   5.989
10661TIP3   OH231939   0.110   6.351   6.424
10661TIP3    H131940   0.069   6.330   6.508
10661TIP3    H231941   0.181   6.287   6.416
10662TIP3   OH231942   2.924   2.224   2.968
10662TIP3    H131943   2.976   2.284   2.915
10662TIP3    H231944   2.873   2.281   3.026
10663TIP3   OH231945   7.087   1.817   5.615
10663TIP3    H131946   7.138   1.849   5.540
10663TIP3    H231947   6.996   1.823   5.586
10664TIP3   OH231948   1.225   1.867   3.245
10664TIP3    H131949   1.200   1.810   3.318
10664TIP3    H231950   1.212   1.812   3.168
10665TIP3   OH231951   2.897   2.543   3.433
10665TIP3    H131952   2.942   2.461   3.449
10665TIP3    H231953   2.809   2.530   3.468
10666TIP3   OH231954   5.799   5.491   2.707
10666TIP3    H131955   5.789   5.572   2.657
10666TIP3    H231956   5.783   5.421   2.643
10667TIP3   OH231957   1.137   0.633   5.785
10667TIP3    H131958   1.083   0.696   5.737
10667TIP3    H231959   1.074   0.578   5.830
10668TIP3   OH231960   1.456   2.466   5.395
10668TIP3    H131961   1.380   2.426   5.437
10668TIP3    H231962   1.473   2.545   5.447
10669TIP3   OH231963   3.321   4.391   6.020
10669TIP3    H131964   3.288   4.479   6.002
10669TIP3    H231965   3.268   4.334   5.963
10670TIP3   OH231966   2.585   1.343   2.107
10670TIP3    H131967   2.553   1.395   2.033
10670TIP3    H231968   2.595   1.406   2.178
10671TIP3   OH231969   7.934   3.948   6.208
10671TIP3    H131970   7.977   4.028   6.240
10671TIP3    H231971   7.841   3.962   6.226
10672TIP3   OH231972   0.988   6.504   6.532
10672TIP3    H131973   0.913   6.449   6.508
10672TIP3    H231974   0.956   6.557   6.606
10673TIP3   OH231975   1.909   2.555   0.111
10673TIP3    H131976   1.933   2.647   0.104
10673TIP3    H231977   1.976   2.517   0.168
10674TIP3   OH231978   4.986   6.130   0.799
10674TIP3    H131979   4.904   6.139   0.847
10674TIP3    H231980   4.999   6.035   0.792
10675TIP3   OH231981   7.827   7.493   0.777
10675TIP3    H131982   7.848   7.508   0.684
10675TIP3    H231983   7.860   7.405   0.795
10676TIP3   OH231984   6.462   2.486   6.425
10676TIP3    H131985   6.441   2.504   6.517
10676TIP3    H231986   6.405   2.545   6.376
10677TIP3   OH231987   1.062   3.726   1.735
10677TIP3    H131988   0.993   3.788   1.712
10677TIP3    H231989   1.039   3.646   1.688
10678TIP3   OH231990   6.605   1.121   4.859
10678TIP3    H131991   6.665   1.186   4.821
10678TIP3    H231992   6.545   1.099   4.788
10679TIP3   OH231993   3.674   2.017   6.750
10679TIP3    H131994   3.648   1.925   6.738
10679TIP3    H231995   3.766   2.013   6.774
10680TIP3   OH231996   5.779   3.326   6.172
10680TIP3    H131997   5.793   3.373   6.090
10680TIP3    H231998   5.776   3.234   6.148
10681TIP3   OH231999   3.298   6.513   5.268
10681TIP3    H132000   3.279   6.441   5.208
10681TIP3    H232001   3.394   6.512   5.276
10682TIP3   OH232002   1.589   5.445   6.627
10682TIP3    H132003   1.556   5.393   6.554
10682TIP3    H232004   1.662   5.394   6.662
10683TIP3   OH232005   0.977   7.002   5.070
10683TIP3    H132006   1.042   7.062   5.032
10683TIP3    H232007   1.019   6.917   5.069
10684TIP3   OH232008   0.401   6.983   3.473
10684TIP3    H132009   0.410   7.051   3.406
10684TIP3    H232010   0.433   7.024   3.553
10685TIP3   OH232011   1.889   4.407   5.145
10685TIP3    H132012   1.940   4.329   5.166
10685TIP3    H232013   1.917   4.472   5.208
10686TIP3   OH232014   8.120   1.881   2.480
10686TIP3    H132015   8.073   1.957   2.513
10686TIP3    H232016   8.209   1.891   2.514
10687TIP3   OH232017   5.505   4.595   3.553
10687TIP3    H132018   5.449   4.533   3.599
10687TIP3    H232019   5.559   4.541   3.495
10688TIP3   OH232020   8.093   5.332   4.357
10688TIP3    H132021   8.095   5.243   4.394
10688TIP3    H232022   8.007   5.365   4.380
10689TIP3   OH232023   6.019   3.133   2.749
10689TIP3    H132024   6.075   3.095   2.817
10689TIP3    H232025   6.015   3.226   2.771
10690TIP3   OH232026   3.036   4.010   2.752
10690TIP3    H132027   3.018   4.053   2.835
10690TIP3    H232028   3.130   4.018   2.740
10691TIP3   OH232029   1.981   1.433   1.031
10691TIP3    H132030   1.947   1.522   1.043
10691TIP3    H232031   1.990   1.424   0.936
10692TIP3   OH232032   5.227   0.883   0.940
10692TIP3    H132033   5.148   0.915   0.896
10692TIP3    H232034   5.296   0.890   0.875
10693TIP3   OH232035   5.746   4.986   4.212
10693TIP3    H132036   5.839   4.981   4.232
10693TIP3    H232037   5.709   5.040   4.282
10694TIP3   OH232038   1.334   7.662   6.134
10694TIP3    H132039   1.301   7.653   6.224
10694TIP3    H232040   1.303   7.747   6.105
10695TIP3   OH232041   4.730   1.084   2.310
10695TIP3    H132042   4.689   1.098   2.225
10695TIP3    H232043   4.820   1.056   2.289
10696TIP3   OH232044   3.379   0.217   5.487
10696TIP3    H132045   3.306   0.196   5.428
10696TIP3    H232046   3.339   0.259   5.562
10697TIP3   OH232047   5.995   6.843   4.047
10697TIP3    H132048   5.917   6.866   3.997
10697TIP3    H232049   6.021   6.757   4.013
10698TIP3   OH232050   3.881   4.077   3.786
10698TIP3    H132051   3.880   4.152   3.726
10698TIP3    H232052   3.966   4.085   3.831
10699TIP3   OH232053   4.507   5.234   5.161
10699TIP3    H132054   4.558   5.257   5.083
10699TIP3    H232055   4.560   5.265   5.235
10700TIP3   OH232056   7.342   3.853  -0.005
10700TIP3    H132057   7.280   3.871   0.066
10700TIP3    H232058   7.339   3.932  -0.059
10701TIP3   OH232059   3.238   5.080   4.899
10701TIP3    H132060   3.305   5.057   4.835
10701TIP3    H232061   3.256   5.023   4.974
10702TIP3   OH232062   2.435   2.210   6.723
10702TIP3    H132063   2.504   2.275   6.719
10702TIP3    H232064   2.479   2.127   6.704
10703TIP3   OH232065   6.435   7.133   0.383
10703TIP3    H132066   6.444   7.215   0.431
10703TIP3    H232067   6.515   7.127   0.331
10704TIP3   OH232068   3.393   4.284   5.273
10704TIP3    H132069   3.416   4.306   5.363
10704TIP3    H232070   3.368   4.367   5.233
10705TIP3   OH232071   5.107   2.749   5.714
10705TIP3    H132072   5.040   2.684   5.693
10705TIP3    H232073   5.109   2.752   5.810
10706TIP3   OH232074   0.669   1.424   1.571
10706TIP3    H132075   0.737   1.358   1.587
10706TIP3    H232076   0.717   1.507   1.573
10707TIP3   OH232077   6.384   0.835   0.627
10707TIP3    H132078   6.417   0.919   0.660
10707TIP3    H232079   6.459   0.776   0.631
10708TIP3   OH232080   4.318   5.923   1.136
10708TIP3    H132081   4.317   6.008   1.092
10708TIP3    H232082   4.277   5.939   1.221
10709TIP3   OH232083   2.219   0.929   1.041
10709TIP3    H132084   2.201   0.875   0.964
10709TIP3    H232085   2.247   0.867   1.108
10710TIP3   OH232086   3.756   0.308   6.357
10710TIP3    H132087   3.815   0.349   6.294
10710TIP3    H232088   3.724   0.380   6.411
10711TIP3   OH232089   4.767   3.559   5.149
10711TIP3    H132090   4.823   3.502   5.096
10711TIP3    H232091   4.712   3.499   5.199
10712TIP3   OH232092   5.500   1.284   3.881
10712TIP3    H132093   5.440   1.251   3.815
10712TIP3    H232094   5.451   1.353   3.926
10713TIP3   OH232095   6.499   4.286   3.050
10713TIP3    H132096   6.555   4.325   2.983
10713TIP3    H232097   6.471   4.359   3.104
10714TIP3   OH232098   0.721   4.511  -0.003
10714TIP3    H132099   0.789   4.446   0.015
10714TIP3    H232100   0.736   4.581   0.060
10715TIP3   OH232101   6.629   5.583   4.039
10715TIP3    H132102   6.574   5.608   4.113
10715TIP3    H232103   6.705   5.640   4.045
10716TIP3   OH232104   3.987   1.513   2.143
10716TIP3    H132105   3.950   1.436   2.100
10716TIP3    H232106   3.942   1.518   2.228
10717TIP3   OH232107   2.762   2.746   6.576
10717TIP3    H132108   2.767   2.840   6.593
10717TIP3    H232109   2.737   2.739   6.484
10718TIP3   OH232110   7.821   6.830   5.094
10718TIP3    H132111   7.882   6.894   5.059
10718TIP3    H232112   7.735   6.871   5.085
10719TIP3   OH232113   1.123   2.495   4.155
10719TIP3    H132114   1.178   2.437   4.208
10719TIP3    H232115   1.107   2.571   4.211
10720TIP3   OH232116   0.819   5.566   4.570
10720TIP3    H132117   0.909   5.598   4.566
10720TIP3    H232118   0.825   5.482   4.615
10721TIP3   OH232119   6.629   5.854   2.760
10721TIP3    H132120   6.706   5.911   2.759
10721TIP3    H232121   6.650   5.785   2.698
10722TIP3   OH232122   2.152   7.239   5.284
10722TIP3    H132123   2.170   7.149   5.258
10722TIP3    H232124   2.090   7.271   5.218
10723TIP3   OH232125   1.597   2.328   1.466
10723TIP3    H132126   1.541   2.259   1.431
10723TIP3    H232127   1.621   2.297   1.554
10724TIP3   OH232128   7.608   7.420   2.242
10724TIP3    H132129   7.673   7.359   2.279
10724TIP3    H232130   7.651   7.458   2.166
10725TIP3   OH232131   3.065   3.254   0.235
10725TIP3    H132132   3.004   3.264   0.163
10725TIP3    H232133   3.152   3.261   0.195
10726TIP3   OH232134   5.058   4.789   2.943
10726TIP3    H132135   5.107   4.711   2.918
10726TIP3    H232136   4.966   4.764   2.934
10727TIP3   OH232137   6.447   7.629   3.621
10727TIP3    H132138   6.472   7.700   3.562
10727TIP3    H232139   6.529   7.604   3.664
10728TIP3   OH232140   4.617   6.056   5.067
10728TIP3    H132141   4.579   6.072   5.153
10728TIP3    H232142   4.587   6.129   5.013
10729TIP3   OH232143   7.161   2.035   1.023
10729TIP3    H132144   7.202   1.955   0.991
10729TIP3    H232145   7.215   2.105   0.986
10730TIP3   OH232146   1.842   2.591   2.973
10730TIP3    H132147   1.839   2.594   3.069
10730TIP3    H232148   1.813   2.678   2.946
10731TIP3   OH232149   7.343   5.297   5.604
10731TIP3    H132150   7.419   5.277   5.658
10731TIP3    H232151   7.268   5.289   5.664
10732TIP3   OH232152   1.810   0.798   5.878
10732TIP3    H132153   1.905   0.786   5.879
10732TIP3    H232154   1.777   0.735   5.943
10733TIP3   OH232155   1.934   0.608   3.680
10733TIP3    H132156   1.989   0.531   3.666
10733TIP3    H232157   1.961   0.669   3.612
10734TIP3   OH232158   3.289   2.007   3.571
10734TIP3    H132159   3.384   2.017   3.572
10734TIP3    H232160   3.257   2.079   3.625
10735TIP3   OH232161   2.553   5.667   5.534
10735TIP3    H132162   2.542   5.572   5.540
10735TIP3    H232163   2.481   5.696   5.478
10736TIP3   OH232164   7.266   2.179   0.192
10736TIP3    H132165   7.175   2.205   0.209
10736TIP3    H232166   7.273   2.179   0.096
10737TIP3   OH232167   3.142   4.676   3.469
10737TIP3    H132168   3.227   4.635   3.487
10737TIP3    H232169   3.101   4.686   3.555
10738TIP3   OH232170   3.423   2.368   3.811
10738TIP3    H132171   3.455   2.373   3.720
10738TIP3    H232172   3.331   2.344   3.802
10739TIP3   OH232173   3.792   5.721   4.807
10739TIP3    H132174   3.765   5.742   4.718
10739TIP3    H232175   3.741   5.642   4.829
10740TIP3   OH232176   5.482   6.662   4.285
10740TIP3    H132177   5.489   6.571   4.314
10740TIP3    H232178   5.497   6.659   4.191
10741TIP3   OH232179   7.473   3.935   6.639
10741TIP3    H132180   7.559   3.894   6.629
10741TIP3    H232181   7.482   3.992   6.715
10742TIP3   OH232182   6.517   6.296   0.293
10742TIP3    H132183   6.468   6.214   0.288
10742TIP3    H232184   6.608   6.271   0.279
10743TIP3   OH232185   7.163   7.095   0.663
10743TIP3    H132186   7.217   7.140   0.598
10743TIP3    H232187   7.145   7.162   0.729
10744TIP3   OH232188   4.889   6.447   1.100
10744TIP3    H132189   4.836   6.524   1.084
10744TIP3    H232190   4.852   6.379   1.043
10745TIP3   OH232191   1.799   1.763   6.508
10745TIP3    H132192   1.834   1.790   6.423
10745TIP3    H232193   1.876   1.739   6.559
10746TIP3   OH232194   2.783   7.648   0.097
10746TIP3    H132195   2.861   7.655   0.041
10746TIP3    H232196   2.719   7.706   0.057
10747TIP3   OH232197   1.219   4.579   2.540
10747TIP3    H132198   1.203   4.607   2.450
10747TIP3    H232199   1.134   4.587   2.583
10748TIP3   OH232200   1.293   2.613   5.962
10748TIP3    H132201   1.236   2.649   5.894
10748TIP3    H232202   1.306   2.685   6.023
10749TIP3   OH232203   1.321   6.849   2.656
10749TIP3    H132204   1.389   6.868   2.721
10749TIP3    H232205   1.327   6.754   2.643
10750TIP3   OH232206   2.154   4.992   2.162
10750TIP3    H132207   2.105   5.056   2.109
10750TIP3    H232208   2.098   4.975   2.237
10751TIP3   OH232209   4.268   2.953   3.021
10751TIP3    H132210   4.210   3.021   2.985
10751TIP3    H232211   4.346   2.958   2.966
10752TIP3   OH232212   3.483   6.278   1.708
10752TIP3    H132213   3.462   6.255   1.799
10752TIP3    H232214   3.416   6.234   1.656
10753TIP3   OH232215   5.324   0.386   2.716
10753TIP3    H132216   5.281   0.459   2.760
10753TIP3    H232217   5.356   0.422   2.634
10754TIP3   OH232218   7.140   5.894   2.413
10754TIP3    H132219   7.048   5.884   2.388
10754TIP3    H232220   7.138   5.910   2.507
10755TIP3   OH232221   6.355   4.132   5.202
10755TIP3    H132222   6.340   4.039   5.188
10755TIP3    H232223   6.336   4.146   5.295
10756TIP3   OH232224   5.571   3.285   4.387
10756TIP3    H132225   5.555   3.194   4.412
10756TIP3    H232226   5.527   3.294   4.302
10757TIP3   OH232227   6.137   7.312   0.420
10757TIP3    H132228   6.056   7.358   0.443
10757TIP3    H232229   6.207   7.370   0.452
10758TIP3   OH232230   6.432   5.273   0.116
10758TIP3    H132231   6.398   5.231   0.195
10758TIP3    H232232   6.526   5.257   0.118
10759TIP3   OH232233   4.154   1.056   2.079
10759TIP3    H132234   4.218   1.058   2.008
10759TIP3    H232235   4.076   1.015   2.040
10760TIP3   OH232236   4.431   2.285   0.527
10760TIP3    H132237   4.520   2.254   0.544
10760TIP3    H232238   4.443   2.368   0.481
10761TIP3   OH232239   0.880   6.929   6.697
10761TIP3    H132240   0.952   6.946   6.757
10761TIP3    H232241   0.902   6.981   6.619
10762TIP3   OH232242   1.991   3.570   3.606
10762TIP3    H132243   1.908   3.561   3.653
10762TIP3    H232244   2.002   3.664   3.595
10763TIP3   OH232245   7.435   1.186   6.519
10763TIP3    H132246   7.482   1.174   6.436
10763TIP3    H232247   7.408   1.278   6.517
10764TIP3   OH232248   2.101   3.988   1.620
10764TIP3    H132249   2.195   3.979   1.633
10764TIP3    H232250   2.069   3.899   1.612
10765TIP3   OH232251   3.527   3.340   1.449
10765TIP3    H132252   3.473   3.355   1.527
10765TIP3    H232253   3.614   3.320   1.485
10766TIP3   OH232254   1.237   3.070   1.054
10766TIP3    H132255   1.251   2.977   1.036
10766TIP3    H232256   1.157   3.092   1.007
10767TIP3   OH232257   0.199   3.075   6.372
10767TIP3    H132258   0.196   3.014   6.299
10767TIP3    H232259   0.110   3.075   6.407
10768TIP3   OH232260   3.748   5.532   1.918
10768TIP3    H132261   3.839   5.560   1.918
10768TIP3    H232262   3.719   5.541   1.827
10769TIP3   OH232263   3.119   2.408   0.176
10769TIP3    H132264   3.111   2.485   0.120
10769TIP3    H232265   3.174   2.437   0.249
10770TIP3   OH232266   0.808   6.401   4.617
10770TIP3    H132267   0.880   6.423   4.558
10770TIP3    H232268   0.843   6.332   4.672
10771TIP3   OH232269   7.239   7.465   4.468
10771TIP3    H132270   7.203   7.390   4.516
10771TIP3    H232271   7.259   7.429   4.381
10772TIP3   OH232272   7.832   3.902   4.488
10772TIP3    H132273   7.907   3.841   4.488
10772TIP3    H232274   7.824   3.928   4.580
10773TIP3   OH232275   1.968   7.163   6.157
10773TIP3    H132276   2.020   7.240   6.181
10773TIP3    H232277   1.924   7.188   6.076
10774TIP3   OH232278   5.842   4.563   2.489
10774TIP3    H132279   5.851   4.494   2.554
10774TIP3    H232280   5.747   4.569   2.474
10775TIP3   OH232281   4.059   1.374   5.039
10775TIP3    H132282   4.132   1.337   4.991
10775TIP3    H232283   4.024   1.443   4.982
10776TIP3   OH232284   7.836   7.493   3.412
10776TIP3    H132285   7.881   7.412   3.387
10776TIP3    H232286   7.744   7.468   3.422
10777TIP3   OH232287   1.131   4.502   4.963
10777TIP3    H132288   1.069   4.430   4.964
10777TIP3    H232289   1.103   4.558   4.891
10778TIP3   OH232290   2.296   7.472   6.704
10778TIP3    H132291   2.212   7.518   6.706
10778TIP3    H232292   2.328   7.484   6.615
10779TIP3   OH232293   4.013   0.348   6.568
10779TIP3    H132294   4.094   0.397   6.582
10779TIP3    H232295   4.038   0.273   6.516
10780TIP3   OH232296   4.194   4.543   3.227
10780TIP3    H132297   4.264   4.549   3.162
10780TIP3    H232298   4.179   4.633   3.255
10781TIP3   OH232299   7.161   2.967   6.658
10781TIP3    H132300   7.256   2.970   6.644
10781TIP3    H232301   7.142   3.048   6.705
10782TIP3   OH232302   0.329   3.401   5.316
10782TIP3    H132303   0.317   3.313   5.280
10782TIP3    H232304   0.419   3.402   5.347
10783TIP3   OH232305   6.116   6.310   3.329
10783TIP3    H132306   6.048   6.244   3.344
10783TIP3    H232307   6.118   6.322   3.234
10784TIP3   OH232308   4.777   4.624   6.187
10784TIP3    H132309   4.701   4.624   6.129
10784TIP3    H232310   4.800   4.531   6.196
10785TIP3   OH232311   5.004   3.679   4.430
10785TIP3    H132312   5.060   3.641   4.497
10785TIP3    H232313   5.038   3.644   4.348
10786TIP3   OH232314   4.379   7.666  -0.008
10786TIP3    H132315   4.289   7.645   0.016
10786TIP3    H232316   4.424   7.678   0.075
10787TIP3   OH232317   4.432   1.197   2.325
10787TIP3    H132318   4.469   1.171   2.241
10787TIP3    H232319   4.432   1.293   2.323
10788TIP3   OH232320   3.817   4.540   2.429
10788TIP3    H132321   3.779   4.573   2.348
10788TIP3    H232322   3.744   4.498   2.474
10789TIP3   OH232323   7.175   5.764   1.481
10789TIP3    H132324   7.090   5.774   1.524
10789TIP3    H232325   7.174   5.826   1.408
10790TIP3   OH232326   5.282   3.639   2.021
10790TIP3    H132327   5.246   3.721   2.056
10790TIP3    H232328   5.332   3.666   1.944
10791TIP3   OH232329   0.772   3.405   3.402
10791TIP3    H132330   0.831   3.461   3.451
10791TIP3    H232331   0.830   3.348   3.350
10792TIP3   OH232332   1.011   0.044   6.234
10792TIP3    H132333   0.972  -0.016   6.170
10792TIP3    H232334   0.936   0.088   6.274
10793TIP3   OH232335   8.112   6.447   5.117
10793TIP3    H132336   8.192   6.448   5.170
10793TIP3    H232337   8.096   6.354   5.101
10794TIP3   OH232338   5.335   3.019   4.389
10794TIP3    H132339   5.253   3.023   4.439
10794TIP3    H232340   5.308   3.033   4.298
10795TIP3   OH232341   5.337   0.500   2.466
10795TIP3    H132342   5.255   0.547   2.483
10795TIP3    H232343   5.389   0.561   2.414
10796TIP3   OH232344   6.491   6.078   5.911
10796TIP3    H132345   6.437   6.017   5.861
10796TIP3    H232346   6.579   6.041   5.906
10797TIP3   OH232347   0.113   7.027   4.791
10797TIP3    H132348   0.060   6.979   4.727
10797TIP3    H232349   0.052   7.086   4.834
10798TIP3   OH232350   0.822   2.126   4.351
10798TIP3    H132351   0.727   2.121   4.353
10798TIP3    H232352   0.843   2.214   4.383
10799TIP3   OH232353   4.533   3.342   4.482
10799TIP3    H132354   4.551   3.419   4.428
10799TIP3    H232355   4.438   3.342   4.493
10800TIP3   OH232356   3.033   2.905  -0.023
10800TIP3    H132357   2.948   2.917   0.019
10800TIP3    H232358   3.066   2.822   0.011
10801TIP3   OH232359   1.236   0.863   6.163
10801TIP3    H132360   1.152   0.821   6.143
10801TIP3    H232361   1.300   0.792   6.157
10802TIP3   OH232362   3.250   6.868   6.635
10802TIP3    H132363   3.214   6.787   6.670
10802TIP3    H232364   3.306   6.840   6.562
10803TIP3   OH232365   4.704   6.433   3.439
10803TIP3    H132366   4.699   6.349   3.486
10803TIP3    H232367   4.793   6.435   3.404
10804TIP3   OH232368   2.503   2.090   3.391
10804TIP3    H132369   2.421   2.117   3.431
10804TIP3    H232370   2.481   2.079   3.298
10805TIP3   OH232371   3.858   4.088   4.398
10805TIP3    H132372   3.832   4.027   4.467
10805TIP3    H232373   3.812   4.169   4.419
10806TIP3   OH232374   0.359   4.587   3.149
10806TIP3    H132375   0.354   4.652   3.219
10806TIP3    H232376   0.304   4.514   3.179
10807TIP3   OH232377   4.629   3.028   2.718
10807TIP3    H132378   4.711   3.076   2.720
10807TIP3    H232379   4.608   3.012   2.810
10808TIP3   OH232380   5.066   5.240   5.551
10808TIP3    H132381   4.993   5.193   5.510
10808TIP3    H232382   5.103   5.293   5.480
10809TIP3   OH232383   0.547   4.491   2.448
10809TIP3    H132384   0.573   4.580   2.423
10809TIP3    H232385   0.468   4.503   2.500
10810TIP3   OH232386   4.485   0.341   0.630
10810TIP3    H132387   4.417   0.275   0.641
10810TIP3    H232388   4.443   0.423   0.656
10811TIP3   OH232389   1.069   5.636   1.846
10811TIP3    H132390   1.084   5.542   1.841
10811TIP3    H232391   1.007   5.646   1.918
10812TIP3   OH232392   8.274   4.456   2.676
10812TIP3    H132393   8.288   4.473   2.583
10812TIP3    H232394   8.178   4.453   2.686
10813TIP3   OH232395   8.278   1.130   0.876
10813TIP3    H132396   8.304   1.140   0.967
10813TIP3    H232397   8.309   1.209   0.833
10814TIP3   OH232398   2.406   6.867   0.580
10814TIP3    H132399   2.490   6.907   0.559
10814TIP3    H232400   2.349   6.941   0.601
10815TIP3   OH232401   7.341   5.968   6.160
10815TIP3    H132402   7.398   6.009   6.225
10815TIP3    H232403   7.322   5.881   6.196
10816TIP3   OH232404   6.558   1.821   4.469
10816TIP3    H132405   6.549   1.915   4.485
10816TIP3    H232406   6.642   1.812   4.425
10817TIP3   OH232407   4.546   0.876   2.211
10817TIP3    H132408   4.599   0.803   2.243
10817TIP3    H232409   4.553   0.943   2.279
10818TIP3   OH232410   2.783   7.146   0.031
10818TIP3    H132411   2.773   7.107  -0.056
10818TIP3    H232412   2.877   7.138   0.050
10819TIP3   OH232413   6.779   0.808   6.213
10819TIP3    H132414   6.740   0.855   6.139
10819TIP3    H232415   6.815   0.876   6.269
10820TIP3   OH232416   5.734   2.069   4.433
10820TIP3    H132417   5.699   2.157   4.422
10820TIP3    H232418   5.743   2.059   4.528
10821TIP3   OH232419   6.719   0.969   4.591
10821TIP3    H132420   6.672   1.046   4.558
10821TIP3    H232421   6.754   0.927   4.512
10822TIP3   OH232422   0.914   6.562   1.338
10822TIP3    H132423   0.991   6.582   1.393
10822TIP3    H232424   0.867   6.645   1.332
10823TIP3   OH232425   6.939   7.431   2.760
10823TIP3    H132426   6.913   7.441   2.852
10823TIP3    H232427   7.031   7.459   2.758
10824TIP3   OH232428   3.981   5.588   3.893
10824TIP3    H132429   3.899   5.568   3.938
10824TIP3    H232430   3.976   5.682   3.874
10825TIP3   OH232431   3.616   5.999   6.695
10825TIP3    H132432   3.629   6.093   6.713
10825TIP3    H232433   3.656   5.985   6.610
10826TIP3   OH232434   3.158   6.929   3.735
10826TIP3    H132435   3.239   6.895   3.772
10826TIP3    H232436   3.104   6.851   3.720
10827TIP3   OH232437   5.692   6.423   0.237
10827TIP3    H132438   5.755   6.405   0.167
10827TIP3    H232439   5.743   6.418   0.317
10828TIP3   OH232440   1.552   6.974   1.011
10828TIP3    H132441   1.492   7.048   1.021
10828TIP3    H232442   1.616   6.986   1.082
10829TIP3   OH232443   4.508   5.556   5.181
10829TIP3    H132444   4.603   5.547   5.182
10829TIP3    H232445   4.483   5.537   5.091
10830TIP3   OH232446   6.797   0.737   5.855
10830TIP3    H132447   6.791   0.815   5.911
10830TIP3    H232448   6.795   0.772   5.765
10831TIP3   OH232449   2.895   6.479   0.462
10831TIP3    H132450   2.905   6.394   0.504
10831TIP3    H232451   2.880   6.540   0.535
10832TIP3   OH232452   6.758   0.607   2.809
10832TIP3    H132453   6.759   0.540   2.740
10832TIP3    H232454   6.698   0.674   2.776
10833TIP3   OH232455   6.758   7.175   2.940
10833TIP3    H132456   6.739   7.104   3.002
10833TIP3    H232457   6.853   7.172   2.928
10834TIP3   OH232458   6.882   7.230   4.053
10834TIP3    H132459   6.944   7.278   3.999
10834TIP3    H232460   6.821   7.191   3.990
10835TIP3   OH232461   5.257   4.808   6.283
10835TIP3    H132462   5.219   4.736   6.232
10835TIP3    H232463   5.234   4.787   6.374
10836TIP3   OH232464   4.261   4.917   0.809
10836TIP3    H132465   4.303   4.838   0.774
10836TIP3    H232466   4.308   4.934   0.891
10837TIP3   OH232467   6.149   2.534   2.796
10837TIP3    H132468   6.103   2.614   2.769
10837TIP3    H232469   6.213   2.518   2.726
10838TIP3   OH232470   7.191   1.500   2.766
10838TIP3    H132471   7.116   1.551   2.795
10838TIP3    H232472   7.230   1.552   2.696
10839TIP3   OH232473   1.911   3.255   4.239
10839TIP3    H132474   1.988   3.308   4.261
10839TIP3    H232475   1.866   3.243   4.323
10840TIP3   OH232476   2.952   6.552   0.152
10840TIP3    H132477   2.901   6.482   0.192
10840TIP3    H232478   3.031   6.559   0.206
10841TIP3   OH232479   3.947   1.938   5.052
10841TIP3    H132480   3.880   1.919   4.986
10841TIP3    H232481   4.011   1.991   5.005
10842TIP3   OH232482   6.547   3.440   5.164
10842TIP3    H132483   6.459   3.476   5.180
10842TIP3    H232484   6.605   3.516   5.171
10843TIP3   OH232485   7.669   1.773   3.886
10843TIP3    H132486   7.595   1.733   3.933
10843TIP3    H232487   7.709   1.700   3.838
10844TIP3   OH232488   3.252   4.150   4.005
10844TIP3    H132489   3.260   4.225   3.947
10844TIP3    H232490   3.339   4.141   4.045
10845TIP3   OH232491   5.297   3.174   2.717
10845TIP3    H132492   5.373   3.202   2.768
10845TIP3    H232493   5.319   3.086   2.687
10846TIP3   OH232494   4.738   2.760   2.061
10846TIP3    H132495   4.682   2.745   2.138
10846TIP3    H232496   4.803   2.823   2.092
10847TIP3   OH232497   0.718   4.862   0.342
10847TIP3    H132498   0.704   4.787   0.399
10847TIP3    H232499   0.637   4.869   0.291
10848TIP3   OH232500   2.668   5.210   3.085
10848TIP3    H132501   2.621   5.129   3.065
10848TIP3    H232502   2.708   5.194   3.171
10849TIP3   OH232503   0.336   5.458   5.190
10849TIP3    H132504   0.248   5.440   5.223
10849TIP3    H232505   0.382   5.374   5.197
10850TIP3   OH232506   2.743   4.729   3.659
10850TIP3    H132507   2.687   4.660   3.696
10850TIP3    H232508   2.701   4.811   3.684
10851TIP3   OH232509   0.346   3.467   3.401
10851TIP3    H132510   0.266   3.444   3.354
10851TIP3    H232511   0.411   3.482   3.332
10852TIP3   OH232512   4.177   3.286   5.274
10852TIP3    H132513   4.164   3.193   5.257
10852TIP3    H232514   4.108   3.308   5.337
10853TIP3   OH232515   6.881   5.226   5.282
10853TIP3    H132516   6.932   5.293   5.328
10853TIP3    H232517   6.943   5.156   5.263
10854TIP3   OH232518   1.846   7.162   5.529
10854TIP3    H132519   1.884   7.117   5.604
10854TIP3    H232520   1.845   7.095   5.460
10855TIP3   OH232521   6.105   5.613   2.470
10855TIP3    H132522   6.048   5.667   2.525
10855TIP3    H232523   6.051   5.540   2.444
10856TIP3   OH232524   7.629   7.577   1.173
10856TIP3    H132525   7.689   7.620   1.113
10856TIP3    H232526   7.608   7.644   1.239
10857TIP3   OH232527   0.246   2.735   5.013
10857TIP3    H132528   0.194   2.731   4.933
10857TIP3    H232529   0.230   2.823   5.048
10858TIP3   OH232530   5.298   1.534   1.666
10858TIP3    H132531   5.385   1.532   1.628
10858TIP3    H232532   5.279   1.444   1.689
10859TIP3   OH232533   5.703   5.097   4.482
10859TIP3    H132534   5.788   5.101   4.525
10859TIP3    H232535   5.640   5.092   4.554
10860TIP3   OH232536   1.649   3.362   6.384
10860TIP3    H132537   1.640   3.443   6.435
10860TIP3    H232538   1.643   3.292   6.448
10861TIP3   OH232539   0.515   5.692   3.265
10861TIP3    H132540   0.423   5.714   3.278
10861TIP3    H232541   0.560   5.726   3.342
10862TIP3   OH232542   3.724   6.759   0.140
10862TIP3    H132543   3.787   6.831   0.147
10862TIP3    H232544   3.689   6.767   0.052
10863TIP3   OH232545   5.087   5.346   1.992
10863TIP3    H132546   5.071   5.253   2.007
10863TIP3    H232547   5.031   5.391   2.055
10864TIP3   OH232548   3.851   0.489   5.479
10864TIP3    H132549   3.803   0.409   5.459
10864TIP3    H232550   3.925   0.488   5.418
10865TIP3   OH232551   3.482   5.494   5.472
10865TIP3    H132552   3.431   5.562   5.516
10865TIP3    H232553   3.441   5.486   5.386
10866TIP3   OH232554   2.822   1.435   5.403
10866TIP3    H132555   2.893   1.374   5.423
10866TIP3    H232556   2.853   1.519   5.437
10867TIP3   OH232557   1.487   4.969   5.167
10867TIP3    H132558   1.399   4.938   5.189
10867TIP3    H232559   1.490   4.971   5.072
10868TIP3   OH232560   5.383   3.908   0.103
10868TIP3    H132561   5.472   3.928   0.131
10868TIP3    H232562   5.335   3.891   0.184
10869TIP3   OH232563   2.738   0.274   1.440
10869TIP3    H132564   2.683   0.345   1.408
10869TIP3    H232565   2.774   0.233   1.361
10870TIP3   OH232566   1.637   1.209   2.781
10870TIP3    H132567   1.712   1.176   2.831
10870TIP3    H232568   1.587   1.132   2.758
10871TIP3   OH232569   5.677   1.403   2.159
10871TIP3    H132570   5.730   1.359   2.225
10871TIP3    H232571   5.603   1.440   2.207
10872TIP3   OH232572   6.577   0.049   3.387
10872TIP3    H132573   6.605   0.109   3.317
10872TIP3    H232574   6.517   0.102   3.440
10873TIP3   OH232575   2.353   4.747   2.367
10873TIP3    H132576   2.366   4.842   2.362
10873TIP3    H232577   2.317   4.733   2.455
10874TIP3   OH232578   4.800   5.508   6.542
10874TIP3    H132579   4.755   5.522   6.459
10874TIP3    H232580   4.892   5.526   6.523
10875TIP3   OH232581   2.981   0.098   3.866
10875TIP3    H132582   2.892   0.129   3.885
10875TIP3    H232583   3.009   0.149   3.790
10876TIP3   OH232584   1.487   5.583   2.819
10876TIP3    H132585   1.543   5.568   2.742
10876TIP3    H232586   1.487   5.499   2.864
10877TIP3   OH232587   5.151   2.661   5.966
10877TIP3    H132588   5.231   2.621   5.933
10877TIP3    H232589   5.173   2.688   6.056
10878TIP3   OH232590   6.126   4.671   4.225
10878TIP3    H132591   6.188   4.740   4.245
10878TIP3    H232592   6.159   4.632   4.144
10879TIP3   OH232593   7.519   4.945   3.615
10879TIP3    H132594   7.602   4.991   3.627
10879TIP3    H232595   7.453   5.014   3.608
10880TIP3   OH232596   1.760   6.024   3.917
10880TIP3    H132597   1.755   6.078   3.996
10880TIP3    H232598   1.673   5.986   3.909
10881TIP3   OH232599   2.281   7.039   2.928
10881TIP3    H132600   2.354   6.982   2.905
10881TIP3    H232601   2.297   7.120   2.880
10882TIP3   OH232602   7.484   7.719   2.946
10882TIP3    H132603   7.498   7.655   2.876
10882TIP3    H232604   7.570   7.757   2.962
10883TIP3   OH232605   6.668   2.147   1.062
10883TIP3    H132606   6.734   2.144   0.993
10883TIP3    H232607   6.637   2.057   1.070
10884TIP3   OH232608   7.660   7.510   6.592
10884TIP3    H132609   7.634   7.419   6.609
10884TIP3    H232610   7.709   7.506   6.510
10885TIP3   OH232611   3.249   4.004   1.620
10885TIP3    H132612   3.301   4.081   1.595
10885TIP3    H232613   3.260   3.997   1.715
10886TIP3   OH232614   6.887   2.450   4.601
10886TIP3    H132615   6.892   2.397   4.521
10886TIP3    H232616   6.942   2.526   4.582
10887TIP3   OH232617   7.817   4.210   3.103
10887TIP3    H132618   7.905   4.173   3.098
10887TIP3    H232619   7.831   4.305   3.104
10888TIP3   OH232620   7.683   4.123   2.845
10888TIP3    H132621   7.735   4.109   2.924
10888TIP3    H232622   7.715   4.205   2.809
10889TIP3   OH232623   2.457   4.067   5.620
10889TIP3    H132624   2.424   4.157   5.624
10889TIP3    H232625   2.450   4.042   5.528
10890TIP3   OH232626   6.835   3.976   0.267
10890TIP3    H132627   6.856   3.980   0.361
10890TIP3    H232628   6.740   3.977   0.264
10891TIP3   OH232629   5.788   1.312   2.397
10891TIP3    H132630   5.882   1.290   2.400
10891TIP3    H232631   5.777   1.380   2.463
10892TIP3   OH232632   2.705   1.691   3.657
10892TIP3    H132633   2.772   1.690   3.725
10892TIP3    H232634   2.718   1.774   3.611
10893TIP3   OH232635   0.746   1.113   3.292
10893TIP3    H132636   0.773   1.116   3.200
10893TIP3    H232637   0.828   1.120   3.341
10894TIP3   OH232638   6.805   1.392   4.014
10894TIP3    H132639   6.842   1.340   4.085
10894TIP3    H232640   6.796   1.331   3.941
10895TIP3   OH232641   6.695   5.228   0.158
10895TIP3    H132642   6.774   5.282   0.169
10895TIP3    H232643   6.713   5.174   0.081
10896TIP3   OH232644   0.737   3.720   1.565
10896TIP3    H132645   0.693   3.744   1.484
10896TIP3    H232646   0.794   3.795   1.585
10897TIP3   OH232647   6.007   5.423   4.610
10897TIP3    H132648   6.094   5.442   4.574
10897TIP3    H232649   5.946   5.463   4.548
10898TIP3   OH232650   1.759   6.828   6.704
10898TIP3    H132651   1.855   6.834   6.703
10898TIP3    H232652   1.740   6.739   6.674
10899TIP3   OH232653   2.431   3.484   2.401
10899TIP3    H132654   2.462   3.454   2.486
10899TIP3    H232655   2.409   3.576   2.414
10900TIP3   OH232656   6.319   0.218   3.559
10900TIP3    H132657   6.351   0.192   3.645
10900TIP3    H232658   6.339   0.312   3.554
10901TIP3   OH232659   8.252   1.495   2.168
10901TIP3    H132660   8.202   1.486   2.087
10901TIP3    H232661   8.320   1.559   2.147
10902TIP3   OH232662   3.011   3.527   5.391
10902TIP3    H132663   3.055   3.464   5.334
10902TIP3    H232664   2.922   3.493   5.400
10903TIP3   OH232665   1.261   0.345   2.700
10903TIP3    H132666   1.258   0.322   2.793
10903TIP3    H232667   1.186   0.300   2.662
10904TIP3   OH232668   3.862   1.306   2.047
10904TIP3    H132669   3.767   1.305   2.040
10904TIP3    H232670   3.888   1.215   2.027
10905TIP3   OH232671   7.746   1.919   1.244
10905TIP3    H132672   7.821   1.966   1.279
10905TIP3    H232673   7.751   1.831   1.283
10906TIP3   OH232674   4.981   5.372   3.578
10906TIP3    H132675   5.000   5.465   3.573
10906TIP3    H232676   4.955   5.348   3.489
10907TIP3   OH232677   5.279   2.299   2.943
10907TIP3    H132678   5.254   2.341   3.025
10907TIP3    H232679   5.375   2.297   2.945
10908TIP3   OH232680   0.944   1.486   3.727
10908TIP3    H132681   0.995   1.410   3.754
10908TIP3    H232682   0.969   1.555   3.787
10909TIP3   OH232683   2.416   1.807   2.985
10909TIP3    H132684   2.488   1.755   2.950
10909TIP3    H232685   2.338   1.756   2.965
10910TIP3   OH232686   2.184   2.901   6.774
10910TIP3    H132687   2.120   2.903   6.702
10910TIP3    H232688   2.269   2.907   6.730
10911TIP3   OH232689   2.792   1.320   0.142
10911TIP3    H132690   2.758   1.377   0.074
10911TIP3    H232691   2.845   1.255   0.095
10912TIP3   OH232692   1.039   4.887   6.545
10912TIP3    H132693   1.097   4.824   6.588
10912TIP3    H232694   1.072   4.973   6.573
10913TIP3   OH232695   1.905   2.860   6.720
10913TIP3    H132696   1.880   2.910   6.798
10913TIP3    H232697   1.957   2.788   6.753
10914TIP3   OH232698   1.032   2.525   5.104
10914TIP3    H132699   1.099   2.474   5.058
10914TIP3    H232700   1.080   2.570   5.173
10915TIP3   OH232701   6.007   5.043   5.259
10915TIP3    H132702   5.914   5.059   5.244
10915TIP3    H232703   6.017   5.045   5.354
10916TIP3   OH232704   3.536   6.227   1.224
10916TIP3    H132705   3.586   6.236   1.143
10916TIP3    H232706   3.446   6.215   1.195
10917TIP3   OH232707   7.968   0.912   0.115
10917TIP3    H132708   7.974   0.912   0.019
10917TIP3    H232709   7.877   0.935   0.133
10918TIP3   OH232710   7.601   1.502   4.375
10918TIP3    H132711   7.587   1.545   4.291
10918TIP3    H232712   7.664   1.432   4.356
10919TIP3   OH232713   0.874   1.979   2.862
10919TIP3    H132714   0.912   1.951   2.779
10919TIP3    H232715   0.899   1.911   2.924
10920TIP3   OH232716   1.062   0.613   2.365
10920TIP3    H132717   0.980   0.647   2.402
10920TIP3    H232718   1.059   0.638   2.273
10921TIP3   OH232719   2.518   7.513   1.814
10921TIP3    H132720   2.456   7.447   1.783
10921TIP3    H232721   2.498   7.591   1.762
10922TIP3   OH232722   7.998   0.435   1.621
10922TIP3    H132723   7.913   0.467   1.652
10922TIP3    H232724   8.001   0.344   1.650
10923TIP3   OH232725   6.954   4.521   6.129
10923TIP3    H132726   6.894   4.549   6.060
10923TIP3    H232727   7.023   4.473   6.082
10924TIP3   OH232728   3.586   2.200   1.958
10924TIP3    H132729   3.573   2.268   2.024
10924TIP3    H232730   3.676   2.213   1.927
10925TIP3   OH232731   4.330   3.522   5.256
10925TIP3    H132732   4.281   3.440   5.258
10925TIP3    H232733   4.299   3.571   5.332
10926TIP3   OH232734   3.467   1.683   0.821
10926TIP3    H132735   3.480   1.659   0.913
10926TIP3    H232736   3.548   1.659   0.777
10927TIP3   OH232737   7.683   6.870   0.100
10927TIP3    H132738   7.694   6.792   0.155
10927TIP3    H232739   7.637   6.933   0.156
10928TIP3   OH232740   7.903   2.940   5.563
10928TIP3    H132741   7.959   2.887   5.506
10928TIP3    H232742   7.964   2.987   5.619
10929TIP3   OH232743   4.634   7.171   1.019
10929TIP3    H132744   4.655   7.132   1.103
10929TIP3    H232745   4.643   7.099   0.956
10930TIP3   OH232746   3.163   0.131   2.727
10930TIP3    H132747   3.220   0.057   2.706
10930TIP3    H232748   3.149   0.174   2.643
10931TIP3   OH232749   1.405   2.173   4.250
10931TIP3    H132750   1.375   2.082   4.248
10931TIP3    H232751   1.366   2.209   4.330
10932TIP3   OH232752   6.143   5.828   3.336
10932TIP3    H132753   6.168   5.846   3.245
10932TIP3    H232754   6.167   5.907   3.384
10933TIP3   OH232755   3.416   0.702   4.078
10933TIP3    H132756   3.511   0.706   4.075
10933TIP3    H232757   3.388   0.711   3.987
10934TIP3   OH232758   6.072   2.491   1.656
10934TIP3    H132759   6.088   2.526   1.568
10934TIP3    H232760   6.074   2.396   1.644
10935TIP3   OH232761   0.237   5.212   2.406
10935TIP3    H132762   0.220   5.142   2.343
10935TIP3    H232763   0.333   5.221   2.407
10936TIP3   OH232764   8.229   1.936   2.900
10936TIP3    H132765   8.269   1.898   2.979
10936TIP3    H232766   8.135   1.935   2.918
10937TIP3   OH232767   5.090   7.599   5.907
10937TIP3    H132768   5.090   7.665   5.837
10937TIP3    H232769   5.180   7.597   5.938
10938TIP3   OH232770   3.865   2.499   4.408
10938TIP3    H132771   3.856   2.544   4.492
10938TIP3    H232772   3.788   2.527   4.357
10939TIP3   OH232773   0.790   2.371   3.541
10939TIP3    H132774   0.860   2.316   3.575
10939TIP3    H232775   0.818   2.396   3.453
10940TIP3   OH232776   2.314   7.687   1.661
10940TIP3    H132777   2.273   7.694   1.747
10940TIP3    H232778   2.286   7.765   1.614
10941TIP3   OH232779   0.878   5.927   0.271
10941TIP3    H132780   0.793   5.892   0.298
10941TIP3    H232781   0.876   5.925   0.175
10942TIP3   OH232782   4.897   2.409   0.184
10942TIP3    H132783   4.865   2.499   0.188
10942TIP3    H232784   4.993   2.417   0.182
10943TIP3   OH232785   1.217   1.301   3.254
10943TIP3    H132786   1.269   1.254   3.189
10943TIP3    H232787   1.282   1.335   3.316
10944TIP3   OH232788   5.186   0.434   5.423
10944TIP3    H132789   5.127   0.425   5.497
10944TIP3    H232790   5.227   0.520   5.435
10945TIP3   OH232791   4.794   3.366   2.035
10945TIP3    H132792   4.778   3.281   1.996
10945TIP3    H232793   4.827   3.347   2.123
10946TIP3   OH232794   3.096   7.703   4.773
10946TIP3    H132795   3.179   7.663   4.797
10946TIP3    H232796   3.116   7.796   4.764
10947TIP3   OH232797   7.622   7.173   2.492
10947TIP3    H132798   7.686   7.244   2.497
10947TIP3    H232799   7.595   7.171   2.400
10948TIP3   OH232800   0.947   7.020   2.593
10948TIP3    H132801   1.017   7.074   2.557
10948TIP3    H232802   0.904   7.076   2.658
10949TIP3   OH232803   1.502   2.511   5.119
10949TIP3    H132804   1.481   2.491   5.211
10949TIP3    H232805   1.493   2.606   5.112
10950TIP3   OH232806   7.307   4.835   0.773
10950TIP3    H132807   7.367   4.811   0.702
10950TIP3    H232808   7.220   4.817   0.738
10951TIP3   OH232809   7.139   7.220   4.577
10951TIP3    H132810   7.154   7.129   4.551
10951TIP3    H232811   7.053   7.219   4.619
10952TIP3   OH232812   0.259   6.162   0.003
10952TIP3    H132813   0.286   6.228   0.067
10952TIP3    H232814   0.334   6.103  -0.003
10953TIP3   OH232815   3.998   0.375   6.194
10953TIP3    H132816   4.049   0.315   6.249
10953TIP3    H232817   4.019   0.462   6.228
10954TIP3   OH232818   6.203   7.484   2.099
10954TIP3    H132819   6.119   7.438   2.100
10954TIP3    H232820   6.192   7.554   2.035
10955TIP3   OH232821   3.989   3.406   3.143
10955TIP3    H132822   3.920   3.369   3.088
10955TIP3    H232823   4.058   3.430   3.081
10956TIP3   OH232824   0.654   3.930   4.239
10956TIP3    H132825   0.653   4.020   4.205
10956TIP3    H232826   0.596   3.882   4.180
10957TIP3   OH232827   4.381   2.022   1.248
10957TIP3    H132828   4.287   2.009   1.245
10957TIP3    H232829   4.407   2.032   1.156
10958TIP3   OH232830   4.223   5.970   1.396
10958TIP3    H132831   4.156   6.039   1.391
10958TIP3    H232832   4.174   5.891   1.417
10959TIP3   OH232833   0.227   1.843   5.637
10959TIP3    H132834   0.233   1.811   5.727
10959TIP3    H232835   0.317   1.863   5.612
10960TIP3   OH232836   7.048   1.356   2.435
10960TIP3    H132837   7.098   1.311   2.503
10960TIP3    H232838   6.958   1.354   2.467
10961TIP3   OH232839   7.742   1.258   3.803
10961TIP3    H132840   7.821   1.220   3.842
10961TIP3    H232841   7.711   1.191   3.742
10962TIP3   OH232842   1.853   2.391   4.298
10962TIP3    H132843   1.902   2.361   4.221
10962TIP3    H232844   1.807   2.314   4.329
10963TIP3   OH232845   2.933   2.842   0.586
10963TIP3    H132846   2.940   2.754   0.623
10963TIP3    H232847   2.844   2.870   0.609
10964TIP3   OH232848   7.287   0.824   4.930
10964TIP3    H132849   7.289   0.743   4.878
10964TIP3    H232850   7.270   0.795   5.019
10965TIP3   OH232851   5.108   3.543   4.640
10965TIP3    H132852   5.196   3.564   4.611
10965TIP3    H232853   5.093   3.601   4.715
10966TIP3   OH232854   2.527   4.556   2.238
10966TIP3    H132855   2.493   4.607   2.312
10966TIP3    H232856   2.462   4.487   2.225
10967TIP3   OH232857   7.409   4.634   3.042
10967TIP3    H132858   7.474   4.564   3.043
10967TIP3    H232859   7.388   4.646   2.950
10968TIP3   OH232860   2.453   5.830   1.362
10968TIP3    H132861   2.500   5.901   1.318
10968TIP3    H232862   2.382   5.874   1.408
10969TIP3   OH232863   7.126   6.045   1.321
10969TIP3    H132864   7.192   6.075   1.258
10969TIP3    H232865   7.075   5.980   1.273
10970TIP3   OH232866   0.457   1.302   5.668
10970TIP3    H132867   0.552   1.303   5.670
10970TIP3    H232868   0.435   1.325   5.577
10971TIP3   OH232869   2.218   7.148   4.743
10971TIP3    H132870   2.236   7.115   4.831
10971TIP3    H232871   2.297   7.196   4.718
10972TIP3   OH232872   0.207   1.336   6.614
10972TIP3    H132873   0.246   1.277   6.679
10972TIP3    H232874   0.154   1.397   6.665
10973TIP3   OH232875   6.106   2.801   2.812
10973TIP3    H132876   6.100   2.872   2.876
10973TIP3    H232877   6.194   2.811   2.773
10974TIP3   OH232878   0.189   2.716   0.846
10974TIP3    H132879   0.187   2.794   0.791
10974TIP3    H232880   0.130   2.736   0.918
10975TIP3   OH232881   3.903   5.014   3.721
10975TIP3    H132882   3.936   5.016   3.631
10975TIP3    H232883   3.976   5.046   3.774
10976TIP3   OH232884   1.260   5.406   0.175
10976TIP3    H132885   1.232   5.465   0.245
10976TIP3    H232886   1.255   5.459   0.095
10977TIP3   OH232887   8.075   5.005   3.654
10977TIP3    H132888   8.143   4.942   3.629
10977TIP3    H232889   8.102   5.087   3.613
10978TIP3   OH232890   0.894   7.210   6.314
10978TIP3    H132891   0.814   7.187   6.266
10978TIP3    H232892   0.928   7.126   6.345
10979TIP3   OH232893   6.443   0.527   3.441
10979TIP3    H132894   6.409   0.541   3.529
10979TIP3    H232895   6.372   0.483   3.394
10980TIP3   OH232896   5.612   0.900   4.177
10980TIP3    H132897   5.657   0.983   4.161
10980TIP3    H232898   5.585   0.869   4.091
10981TIP3   OH232899   5.476   2.741   6.657
10981TIP3    H132900   5.489   2.830   6.624
10981TIP3    H232901   5.552   2.726   6.714
10982TIP3   OH232902   5.876   2.808   4.434
10982TIP3    H132903   5.848   2.752   4.361
10982TIP3    H232904   5.874   2.897   4.398
10983TIP3   OH232905   7.996   0.635   4.108
10983TIP3    H132906   7.901   0.641   4.121
10983TIP3    H232907   8.019   0.549   4.144
10984TIP3   OH232908   2.819   2.178   5.878
10984TIP3    H132909   2.882   2.114   5.909
10984TIP3    H232910   2.753   2.184   5.947
10985TIP3   OH232911   5.902   3.711   6.169
10985TIP3    H132912   5.855   3.708   6.085
10985TIP3    H232913   5.906   3.804   6.191
10986TIP3   OH232914   4.115   7.085   6.442
10986TIP3    H132915   4.201   7.053   6.471
10986TIP3    H232916   4.120   7.180   6.452
10987TIP3   OH232917   2.589   5.649   6.670
10987TIP3    H132918   2.590   5.559   6.703
10987TIP3    H232919   2.570   5.702   6.748
10988TIP3   OH232920   6.172   0.940   2.594
10988TIP3    H132921   6.181   0.951   2.499
10988TIP3    H232922   6.230   0.867   2.615
10989TIP3   OH232923   6.563   4.008   4.488
10989TIP3    H132924   6.561   3.947   4.562
10989TIP3    H232925   6.654   4.034   4.480
10990TIP3   OH232926   3.252   7.371   5.883
10990TIP3    H132927   3.253   7.466   5.868
10990TIP3    H232928   3.266   7.363   5.978
10991TIP3   OH232929   6.201   3.995   6.267
10991TIP3    H132930   6.128   4.056   6.264
10991TIP3    H232931   6.278   4.050   6.280
10992TIP3   OH232932   4.439   2.756   1.155
10992TIP3    H132933   4.387   2.679   1.133
10992TIP3    H232934   4.526   2.737   1.121
10993TIP3   OH232935   1.535   4.095   6.425
10993TIP3    H132936   1.589   4.092   6.504
10993TIP3    H232937   1.597   4.100   6.353
10994TIP3   OH232938   5.835   3.934   5.062
10994TIP3    H132939   5.777   3.866   5.027
10994TIP3    H232940   5.799   4.016   5.028
10995TIP3   OH232941   6.438   7.040   3.229
10995TIP3    H132942   6.374   7.111   3.230
10995TIP3    H232943   6.388   6.961   3.249
10996TIP3   OH232944   7.503   2.985   4.248
10996TIP3    H132945   7.539   2.901   4.278
10996TIP3    H232946   7.571   3.022   4.192
10997TIP3   OH232947   3.801   3.958   5.542
10997TIP3    H132948   3.886   3.956   5.586
10997TIP3    H232949   3.747   4.014   5.598
10998TIP3   OH232950   0.848   5.241   5.220
10998TIP3    H132951   0.858   5.239   5.315
10998TIP3    H232952   0.900   5.167   5.188
10999TIP3   OH232953   8.072   1.884   5.477
10999TIP3    H132954   8.057   1.970   5.439
10999TIP3    H232955   7.992   1.864   5.524
11000TIP3   OH232956   1.815   3.008   0.201
11000TIP3    H132957   1.729   3.040   0.229
11000TIP3    H232958   1.868   3.012   0.280
11001TIP3   OH232959   1.862   4.254   4.831
11001TIP3    H132960   1.801   4.312   4.786
11001TIP3    H232961   1.933   4.240   4.769
11002TIP3   OH232962   5.314   6.211   1.370
11002TIP3    H132963   5.383   6.185   1.309
11002TIP3    H232964   5.314   6.307   1.367
11003TIP3   OH232965   6.522   0.540   0.255
11003TIP3    H132966   6.587   0.598   0.295
11003TIP3    H232967   6.572   0.464   0.227
11004TIP3   OH232968   6.398   5.490   2.859
11004TIP3    H132969   6.336   5.549   2.902
11004TIP3    H232970   6.394   5.514   2.767
11005TIP3   OH232971   1.459   7.232   4.429
11005TIP3    H132972   1.375   7.278   4.436
11005TIP3    H232973   1.525   7.301   4.440
11006TIP3   OH232974   0.318   2.311   3.143
11006TIP3    H132975   0.314   2.351   3.230
11006TIP3    H232976   0.240   2.255   3.140
11007TIP3   OH232977   5.716   4.863   0.420
11007TIP3    H132978   5.637   4.828   0.462
11007TIP3    H232979   5.687   4.892   0.334
11008TIP3   OH232980   4.963   5.399   5.983
11008TIP3    H132981   5.000   5.428   5.900
11008TIP3    H232982   4.933   5.309   5.966
11009TIP3   OH232983   2.174   2.601   3.577
11009TIP3    H132984   2.262   2.631   3.554
11009TIP3    H232985   2.148   2.544   3.505
11010TIP3   OH232986   2.376   1.147   6.760
11010TIP3    H132987   2.306   1.207   6.737
11010TIP3    H232988   2.353   1.066   6.715
11011TIP3   OH232989   6.930   4.756   4.936
11011TIP3    H132990   6.983   4.697   4.883
11011TIP3    H232991   6.906   4.705   5.013
11012TIP3   OH232992   3.703   7.738   4.822
11012TIP3    H132993   3.797   7.750   4.838
11012TIP3    H232994   3.689   7.773   4.734
11013TIP3   OH232995   5.644   1.262   5.006
11013TIP3    H132996   5.687   1.185   4.968
11013TIP3    H232997   5.686   1.336   4.964
11014TIP3   OH232998   4.419   7.723   1.206
11014TIP3    H132999   4.398   7.711   1.113
11014TIP3    H233000   4.403   7.816   1.222
11015TIP3   OH233001   0.680   5.408   3.786
11015TIP3    H133002   0.592   5.437   3.765
11015TIP3    H233003   0.714   5.474   3.847
11016TIP3   OH233004   6.219   1.287   5.926
11016TIP3    H133005   6.137   1.252   5.893
11016TIP3    H233006   6.286   1.246   5.872
11017TIP3   OH233007   3.975   3.027   2.428
11017TIP3    H133008   4.026   3.012   2.348
11017TIP3    H233009   3.979   2.943   2.474
11018TIP3   OH233010   0.340   6.906   5.393
11018TIP3    H133011   0.261   6.890   5.340
11018TIP3    H233012   0.306   6.925   5.481
11019TIP3   OH233013   2.648   3.437   0.286
11019TIP3    H133014   2.740   3.418   0.302
11019TIP3    H233015   2.609   3.351   0.267
11020TIP3   OH233016   0.886   3.576   2.243
11020TIP3    H133017   0.888   3.546   2.152
11020TIP3    H233018   0.952   3.645   2.246
11021TIP3   OH233019   6.924   7.007   6.213
11021TIP3    H133020   6.954   7.047   6.132
11021TIP3    H233021   6.980   7.044   6.282
11022TIP3   OH233022   6.907   1.287   0.786
11022TIP3    H133023   6.914   1.220   0.718
11022TIP3    H233024   6.891   1.238   0.867
11023TIP3   OH233025   5.785   6.104   6.182
11023TIP3    H133026   5.786   6.148   6.097
11023TIP3    H233027   5.877   6.097   6.207
11024TIP3   OH233028   0.595   5.403   2.380
11024TIP3    H133029   0.564   5.322   2.419
11024TIP3    H233030   0.680   5.419   2.423
11025TIP3   OH233031   1.470   4.375   1.233
11025TIP3    H133032   1.447   4.345   1.321
11025TIP3    H233033   1.483   4.469   1.243
11026TIP3   OH233034   4.006   5.779   1.031
11026TIP3    H133035   4.060   5.753   1.106
11026TIP3    H233036   3.972   5.865   1.055
11027TIP3   OH233037   1.541   6.480   5.103
11027TIP3    H133038   1.544   6.574   5.083
11027TIP3    H233039   1.553   6.476   5.198
11028TIP3   OH233040   7.289   7.097   0.174
11028TIP3    H133041   7.336   7.138   0.101
11028TIP3    H233042   7.343   7.022   0.197
11029TIP3   OH233043   5.034   2.098   1.107
11029TIP3    H133044   5.090   2.100   1.185
11029TIP3    H233045   5.094   2.113   1.034
11030TIP3   OH233046   5.847   2.786   1.992
11030TIP3    H133047   5.847   2.700   2.034
11030TIP3    H233048   5.927   2.828   2.023
11031TIP3   OH233049   6.952   6.125   6.104
11031TIP3    H133050   6.943   6.166   6.190
11031TIP3    H233051   6.993   6.191   6.049
11032TIP3   OH233052   6.504   5.199   2.857
11032TIP3    H133053   6.570   5.212   2.926
11032TIP3    H233054   6.494   5.285   2.817
11033TIP3   OH233055   1.709   1.190   6.745
11033TIP3    H133056   1.709   1.140   6.663
11033TIP3    H233057   1.727   1.280   6.719
11034TIP3   OH233058   5.141   2.152   0.879
11034TIP3    H133059   5.094   2.114   0.805
11034TIP3    H233060   5.168   2.239   0.849
11035TIP3   OH233061   0.905   0.819   5.366
11035TIP3    H133062   0.941   0.874   5.297
11035TIP3    H233063   0.817   0.798   5.336
11036TIP3   OH233064   3.941   6.322   5.521
11036TIP3    H133065   3.961   6.353   5.432
11036TIP3    H233066   3.998   6.246   5.533
11037TIP3   OH233067   3.932   1.066   3.467
11037TIP3    H133068   3.925   0.970   3.458
11037TIP3    H233069   3.894   1.084   3.553
11038TIP3   OH233070   6.569   2.623   1.841
11038TIP3    H133071   6.618   2.705   1.839
11038TIP3    H233072   6.513   2.627   1.763
11039TIP3   OH233073   7.667   0.870   3.812
11039TIP3    H133074   7.619   0.817   3.749
11039TIP3    H233075   7.749   0.824   3.825
11040TIP3   OH233076   6.986   0.226   6.693
11040TIP3    H133077   7.009   0.162   6.625
11040TIP3    H233078   6.909   0.271   6.658
11041TIP3   OH233079   0.183   7.482   1.387
11041TIP3    H133080   0.104   7.532   1.408
11041TIP3    H233081   0.172   7.458   1.295
11042TIP3   OH233082   7.145   2.220   5.019
11042TIP3    H133083   7.060   2.197   5.056
11042TIP3    H233084   7.130   2.224   4.925
11043TIP3   OH233085   7.962   7.126   1.211
11043TIP3    H133086   7.977   7.220   1.204
11043TIP3    H233087   7.910   7.116   1.291
11044TIP3   OH233088   5.486   2.555   3.160
11044TIP3    H133089   5.530   2.472   3.181
11044TIP3    H233090   5.555   2.612   3.128
11045TIP3   OH233091   7.471   3.143   3.796
11045TIP3    H133092   7.521   3.079   3.746
11045TIP3    H233093   7.502   3.228   3.765
11046TIP3   OH233094   2.860   2.515   4.644
11046TIP3    H133095   2.934   2.461   4.614
11046TIP3    H233096   2.851   2.494   4.736
11047TIP3   OH233097   5.095   5.117   3.674
11047TIP3    H133098   5.162   5.123   3.606
11047TIP3    H233099   5.067   5.208   3.689
11048TIP3   OH233100   6.852   6.154   5.471
11048TIP3    H133101   6.867   6.127   5.562
11048TIP3    H233102   6.803   6.236   5.477
11049TIP3   OH233103   5.957   5.738   4.956
11049TIP3    H133104   5.870   5.777   4.959
11049TIP3    H233105   5.985   5.736   5.047
11050TIP3   OH233106   0.790   4.822   5.844
11050TIP3    H133107   0.817   4.745   5.794
11050TIP3    H233108   0.695   4.816   5.848
11051TIP3   OH233109   7.284   0.785   1.773
11051TIP3    H133110   7.240   0.774   1.688
11051TIP3    H233111   7.284   0.880   1.787
11052TIP3   OH233112   1.525   4.157   1.799
11052TIP3    H133113   1.430   4.146   1.791
11052TIP3    H233114   1.553   4.179   1.710
11053TIP3   OH233115   4.503   3.194   3.557
11053TIP3    H133116   4.505   3.102   3.530
11053TIP3    H233117   4.414   3.223   3.538
11054TIP3   OH233118   1.637   0.356   6.180
11054TIP3    H133119   1.679   0.416   6.241
11054TIP3    H233120   1.649   0.396   6.094
11055TIP3   OH233121   2.968   4.305   0.897
11055TIP3    H133122   2.921   4.381   0.930
11055TIP3    H233123   2.930   4.231   0.944
11056TIP3   OH233124   3.538   5.309   6.669
11056TIP3    H133125   3.495   5.233   6.707
11056TIP3    H233126   3.626   5.280   6.648
11057TIP3   OH233127   6.355   1.733   1.414
11057TIP3    H133128   6.320   1.789   1.345
11057TIP3    H233129   6.416   1.788   1.462
11058TIP3   OH233130   0.487   7.063   4.057
11058TIP3    H133131   0.551   6.998   4.089
11058TIP3    H233132   0.422   7.069   4.127
11059TIP3   OH233133   1.140   2.628   6.553
11059TIP3    H133134   1.101   2.561   6.609
11059TIP3    H233135   1.174   2.579   6.478
11060TIP3   OH233136   5.963   0.793   6.233
11060TIP3    H133137   5.927   0.809   6.146
11060TIP3    H233138   6.039   0.850   6.238
11061TIP3   OH233139   1.573   1.057   1.329
11061TIP3    H133140   1.620   1.061   1.413
11061TIP3    H233141   1.500   0.997   1.346
11062TIP3   OH233142   7.940   5.163   0.889
11062TIP3    H133143   7.985   5.083   0.863
11062TIP3    H233144   7.847   5.140   0.884
11063TIP3   OH233145   5.647   6.037   5.880
11063TIP3    H133146   5.661   5.984   5.958
11063TIP3    H233147   5.628   6.125   5.914
11064TIP3   OH233148   4.190   4.377   2.085
11064TIP3    H133149   4.127   4.447   2.072
11064TIP3    H233150   4.215   4.350   1.996
11065TIP3   OH233151   7.284   4.393   1.118
11065TIP3    H133152   7.339   4.466   1.091
11065TIP3    H233153   7.250   4.419   1.204
11066TIP3   OH233154   2.445   2.644   0.748
11066TIP3    H133155   2.355   2.662   0.723
11066TIP3    H233156   2.439   2.571   0.810
11067TIP3   OH233157   5.624   3.092   3.372
11067TIP3    H133158   5.530   3.108   3.361
11067TIP3    H233159   5.629   3.009   3.419
11068TIP3   OH233160   7.360   4.804   4.529
11068TIP3    H133161   7.411   4.883   4.513
11068TIP3    H233162   7.416   4.750   4.585
11069TIP3   OH233163   5.423   3.594   4.881
11069TIP3    H133164   5.479   3.620   4.807
11069TIP3    H233165   5.362   3.531   4.843
11070TIP3   OH233166   7.568   4.561   0.353
11070TIP3    H133167   7.594   4.648   0.325
11070TIP3    H233168   7.482   4.547   0.313
11071TIP3   OH233169   1.058   2.781   2.211
11071TIP3    H133170   1.002   2.859   2.205
11071TIP3    H233171   1.141   2.810   2.174
11072TIP3   OH233172   7.147   0.836   6.090
11072TIP3    H133173   7.150   0.907   6.026
11072TIP3    H233174   7.217   0.776   6.062
11073TIP3   OH233175   1.617   0.630   3.490
11073TIP3    H133176   1.676   0.635   3.416
11073TIP3    H233177   1.635   0.545   3.530
11074TIP3   OH233178   5.744   1.068   5.980
11074TIP3    H133179   5.802   1.129   6.024
11074TIP3    H233180   5.722   1.110   5.897
11075TIP3   OH233181   1.812   1.084   2.409
11075TIP3    H133182   1.778   0.996   2.394
11075TIP3    H233183   1.861   1.078   2.490
11076TIP3   OH233184   2.299   5.238   3.231
11076TIP3    H133185   2.367   5.269   3.291
11076TIP3    H233186   2.301   5.143   3.239
11077TIP3   OH233187   5.571   4.996   2.594
11077TIP3    H133188   5.619   5.039   2.665
11077TIP3    H233189   5.480   4.997   2.624
11078TIP3   OH233190   4.425   4.071   1.461
11078TIP3    H133191   4.330   4.079   1.464
11078TIP3    H233192   4.458   4.151   1.502
11079TIP3   OH233193   1.660   5.056   4.086
11079TIP3    H133194   1.655   5.009   4.003
11079TIP3    H233195   1.713   5.133   4.066
11080TIP3   OH233196   2.990   3.474   3.458
11080TIP3    H133197   2.936   3.400   3.431
11080TIP3    H233198   2.973   3.483   3.552
11081TIP3   OH233199   7.379   5.319   1.693
11081TIP3    H133200   7.394   5.388   1.758
11081TIP3    H233201   7.334   5.363   1.621
11082TIP3   OH233202   6.904   1.184   4.163
11082TIP3    H133203   6.927   1.167   4.255
11082TIP3    H233204   6.851   1.108   4.138
11083TIP3   OH233205   4.268   4.869   6.579
11083TIP3    H133206   4.277   4.960   6.610
11083TIP3    H233207   4.173   4.855   6.578
11084TIP3   OH233208   1.630   2.919   0.753
11084TIP3    H133209   1.658   2.996   0.704
11084TIP3    H233210   1.634   2.947   0.844
11085TIP3   OH233211   5.905   6.386   2.828
11085TIP3    H133212   5.998   6.365   2.841
11085TIP3    H233213   5.900   6.420   2.739
11086TIP3   OH233214   0.597   2.813   2.459
11086TIP3    H133215   0.617   2.849   2.373
11086TIP3    H233216   0.633   2.877   2.521
11087TIP3   OH233217   2.028   1.576   0.603
11087TIP3    H133218   1.994   1.659   0.638
11087TIP3    H233219   2.093   1.603   0.538
11088TIP3   OH233220   1.623   3.838   3.417
11088TIP3    H133221   1.584   3.873   3.498
11088TIP3    H233222   1.553   3.843   3.353
11089TIP3   OH233223   8.077   0.224   2.507
11089TIP3    H133224   8.136   0.182   2.570
11089TIP3    H233225   7.993   0.180   2.521
11090TIP3   OH233226   5.160   1.659   1.478
11090TIP3    H133227   5.209   1.609   1.543
11090TIP3    H233228   5.155   1.601   1.402
11091TIP3   OH233229   6.835   2.934   3.942
11091TIP3    H133230   6.906   2.903   3.886
11091TIP3    H233231   6.874   2.939   4.029
11092TIP3   OH233232   1.654   2.695   5.555
11092TIP3    H133233   1.677   2.624   5.496
11092TIP3    H233234   1.677   2.663   5.642
11093TIP3   OH233235   6.889   1.340   0.032
11093TIP3    H133236   6.961   1.322  -0.028
11093TIP3    H233237   6.847   1.418  -0.005
11094TIP3   OH233238   5.060   4.669   5.142
11094TIP3    H133239   5.153   4.657   5.160
11094TIP3    H233240   5.057   4.739   5.077
11095TIP3   OH233241   1.539   5.437   5.798
11095TIP3    H133242   1.479   5.418   5.870
11095TIP3    H233243   1.603   5.366   5.801
11096TIP3   OH233244   0.288   0.590   2.748
11096TIP3    H133245   0.367   0.579   2.696
11096TIP3    H233246   0.217   0.559   2.692
11097TIP3   OH233247   1.508   2.029   1.543
11097TIP3    H133248   1.467   2.074   1.468
11097TIP3    H233249   1.564   1.963   1.502
11098TIP3   OH233250   7.285   3.962   5.551
11098TIP3    H133251   7.236   4.037   5.585
11098TIP3    H233252   7.218   3.897   5.531
11099TIP3   OH233253   0.998   1.870   0.200
11099TIP3    H133254   1.023   1.823   0.279
11099TIP3    H233255   0.904   1.857   0.192
11100TIP3   OH233256   4.245   0.777   2.332
11100TIP3    H133257   4.166   0.817   2.370
11100TIP3    H233258   4.300   0.852   2.310
11101TIP3   OH233259   0.537   0.562   4.354
11101TIP3    H133260   0.594   0.506   4.406
11101TIP3    H233261   0.554   0.651   4.386
11102TIP3   OH233262   0.021   1.291   5.569
11102TIP3    H133263   0.075   1.336   5.503
11102TIP3    H233264  -0.047   1.248   5.518
11103TIP3   OH233265   4.696   1.288   3.959
11103TIP3    H133266   4.685   1.321   3.870
11103TIP3    H233267   4.643   1.348   4.013
11104TIP3   OH233268   3.672   7.686   5.245
11104TIP3    H133269   3.611   7.756   5.267
11104TIP3    H233270   3.629   7.640   5.172
11105TIP3   OH233271   0.582   1.157   3.742
11105TIP3    H133272   0.628   1.196   3.816
11105TIP3    H233273   0.618   1.069   3.734
11106TIP3   OH233274   7.685   3.099   6.469
11106TIP3    H133275   7.593   3.117   6.490
11106TIP3    H233276   7.703   3.015   6.510
11107TIP3   OH233277   5.144   3.408   4.347
11107TIP3    H133278   5.218   3.401   4.287
11107TIP3    H233279   5.182   3.440   4.429
11108TIP3   OH233280   7.019   2.207   4.149
11108TIP3    H133281   6.940   2.158   4.126
11108TIP3    H233282   7.089   2.143   4.145
11109TIP3   OH233283   4.955   3.093   0.251
11109TIP3    H133284   4.984   3.017   0.300
11109TIP3    H233285   5.034   3.130   0.212
11110TIP3   OH233286   6.048   4.540   3.296
11110TIP3    H133287   5.967   4.522   3.248
11110TIP3    H233288   6.077   4.625   3.262
11111TIP3   OH233289   1.562   1.905   4.542
11111TIP3    H133290   1.524   1.835   4.488
11111TIP3    H233291   1.495   1.922   4.609
11112TIP3   OH233292   2.053   2.905   2.399
11112TIP3    H133293   2.101   2.986   2.416
11112TIP3    H233294   1.964   2.923   2.430
11113TIP3   OH233295   4.136   4.569   6.053
11113TIP3    H133296   4.118   4.660   6.078
11113TIP3    H233297   4.051   4.526   6.056
11114TIP3   OH233298   3.137   7.281   1.499
11114TIP3    H133299   3.091   7.365   1.502
11114TIP3    H233300   3.197   7.284   1.574
11115TIP3   OH233301   1.206   2.798   0.287
11115TIP3    H133302   1.120   2.791   0.247
11115TIP3    H233303   1.262   2.740   0.234
11116TIP3   OH233304   4.884   6.700   2.356
11116TIP3    H133305   4.960   6.753   2.329
11116TIP3    H233306   4.901   6.680   2.448
11117TIP3   OH233307   2.073   5.904   0.961
11117TIP3    H133308   2.109   5.853   1.034
11117TIP3    H233309   1.986   5.868   0.947
11118TIP3   OH233310   1.286   1.540   4.850
11118TIP3    H133311   1.328   1.532   4.765
11118TIP3    H233312   1.196   1.509   4.836
11119TIP3   OH233313   7.800   2.515   2.046
11119TIP3    H133314   7.739   2.586   2.067
11119TIP3    H233315   7.750   2.435   2.063
11120TIP3   OH233316   1.991   2.816   4.650
11120TIP3    H133317   1.904   2.841   4.682
11120TIP3    H233318   1.987   2.830   4.555
11121TIP3   OH233319   4.614   1.660   6.542
11121TIP3    H133320   4.576   1.594   6.601
11121TIP3    H233321   4.708   1.643   6.545
11122TIP3   OH233322   3.118   5.810   4.876
11122TIP3    H133323   3.055   5.854   4.933
11122TIP3    H233324   3.065   5.750   4.824
11123TIP3   OH233325   5.450   2.274   2.049
11123TIP3    H133326   5.437   2.330   2.126
11123TIP3    H233327   5.536   2.233   2.064
11124TIP3   OH233328   6.409   0.481   6.318
11124TIP3    H133329   6.428   0.535   6.241
11124TIP3    H233330   6.322   0.510   6.345
11125TIP3   OH233331   8.204   0.831   6.265
11125TIP3    H133332   8.116   0.867   6.263
11125TIP3    H233333   8.210   0.776   6.187
11126TIP3   OH233334   2.480   2.614   2.271
11126TIP3    H133335   2.561   2.568   2.249
11126TIP3    H233336   2.418   2.586   2.204
11127TIP3   OH233337   7.861   5.217   6.625
11127TIP3    H133338   7.849   5.122   6.621
11127TIP3    H233339   7.953   5.230   6.603
11128TIP3   OH233340   0.312   4.541   6.300
11128TIP3    H133341   0.289   4.455   6.264
11128TIP3    H233342   0.406   4.548   6.285
11129TIP3   OH233343   3.481   7.087   4.714
11129TIP3    H133344   3.532   7.076   4.634
11129TIP3    H233345   3.546   7.087   4.784
11130TIP3   OH233346   2.205   0.438   1.291
11130TIP3    H133347   2.249   0.396   1.218
11130TIP3    H233348   2.118   0.397   1.294
11131TIP3   OH233349   5.431   2.239   0.675
11131TIP3    H133350   5.393   2.320   0.641
11131TIP3    H233351   5.362   2.174   0.665
11132TIP3   OH233352   6.548   4.872   0.921
11132TIP3    H133353   6.617   4.930   0.956
11132TIP3    H233354   6.493   4.852   0.997
11133TIP3   OH233355   3.393   4.968   0.849
11133TIP3    H133356   3.350   4.965   0.934
11133TIP3    H233357   3.439   5.052   0.848
11134TIP3   OH233358   1.091   2.093   2.661
11134TIP3    H133359   1.129   2.095   2.748
11134TIP3    H233360   1.066   2.001   2.647
11135TIP3   OH233361   1.313   5.298   6.055
11135TIP3    H133362   1.348   5.374   6.102
11135TIP3    H233363   1.219   5.317   6.047
11136TIP3   OH233364   3.160   2.129   2.292
11136TIP3    H133365   3.125   2.128   2.381
11136TIP3    H233366   3.085   2.108   2.237
11137TIP3   OH233367   1.019   5.476   1.407
11137TIP3    H133368   1.099   5.450   1.453
11137TIP3    H233369   1.037   5.457   1.315
11138TIP3   OH233370   1.299   1.191   3.609
11138TIP3    H133371   1.381   1.240   3.617
11138TIP3    H233372   1.242   1.248   3.557
11139TIP3   OH233373   7.532   2.990   2.767
11139TIP3    H133374   7.582   3.036   2.699
11139TIP3    H233375   7.468   3.054   2.796
11140TIP3   OH233376   2.049   3.183   4.793
11140TIP3    H133377   1.968   3.175   4.742
11140TIP3    H233378   2.114   3.133   4.743
11141TIP3   OH233379   3.735   6.043   0.342
11141TIP3    H133380   3.777   5.959   0.323
11141TIP3    H233381   3.746   6.055   0.436
11142TIP3   OH233382   5.671   1.668   2.334
11142TIP3    H133383   5.596   1.657   2.392
11142TIP3    H233384   5.747   1.657   2.392
11143TIP3   OH233385   2.551   7.135   0.159
11143TIP3    H133386   2.561   7.220   0.202
11143TIP3    H233387   2.635   7.121   0.114
11144TIP3   OH233388   1.170   5.819   1.455
11144TIP3    H133389   1.200   5.774   1.376
11144TIP3    H233390   1.250   5.855   1.494
11145TIP3   OH233391   4.021   4.995   6.354
11145TIP3    H133392   4.110   4.980   6.321
11145TIP3    H233393   4.031   5.066   6.418
11146TIP3   OH233394   6.702   1.221   3.834
11146TIP3    H133395   6.611   1.251   3.844
11146TIP3    H233396   6.696   1.126   3.836
11147TIP3   OH233397   3.609   7.017   3.970
11147TIP3    H133398   3.691   6.973   3.990
11147TIP3    H233399   3.616   7.103   4.011
11148TIP3   OH233400   8.031   0.351   3.170
11148TIP3    H133401   7.948   0.399   3.180
11148TIP3    H233402   8.085   0.406   3.114
11149TIP3   OH233403   3.494   1.356   4.075
11149TIP3    H133404   3.459   1.362   3.986
11149TIP3    H233405   3.422   1.386   4.131
11150TIP3   OH233406   2.829   6.296   5.399
11150TIP3    H133407   2.895   6.284   5.331
11150TIP3    H233408   2.817   6.390   5.405
11151TIP3   OH233409   4.901   3.959   3.880
11151TIP3    H133410   4.988   3.982   3.849
11151TIP3    H233411   4.906   3.865   3.899
11152TIP3   OH233412   4.577   3.366   6.356
11152TIP3    H133413   4.508   3.351   6.291
11152TIP3    H233414   4.619   3.447   6.327
11153TIP3   OH233415   1.743   1.758   4.980
11153TIP3    H133416   1.813   1.702   5.015
11153TIP3    H233417   1.663   1.707   4.993
11154TIP3   OH233418   4.296   4.197   6.329
11154TIP3    H133419   4.229   4.154   6.275
11154TIP3    H233420   4.314   4.279   6.283
11155TIP3   OH233421   6.073   6.048   4.513
11155TIP3    H133422   6.134   6.119   4.494
11155TIP3    H233423   6.113   6.002   4.587
11156TIP3   OH233424   6.734   0.586   2.133
11156TIP3    H133425   6.647   0.612   2.161
11156TIP3    H233426   6.763   0.523   2.199
11157TIP3   OH233427   1.528   6.516   1.689
11157TIP3    H133428   1.457   6.561   1.643
11157TIP3    H233429   1.608   6.548   1.647
11158TIP3   OH233430   3.607   4.309   2.311
11158TIP3    H133431   3.657   4.297   2.230
11158TIP3    H233432   3.633   4.236   2.367
11159TIP3   OH233433   7.788   0.268   6.171
11159TIP3    H133434   7.733   0.292   6.097
11159TIP3    H233435   7.729   0.224   6.232
11160TIP3   OH233436   0.137   4.311   0.909
11160TIP3    H133437   0.200   4.251   0.949
11160TIP3    H233438   0.053   4.288   0.950
11161TIP3   OH233439   0.824   6.872   2.227
11161TIP3    H133440   0.800   6.947   2.281
11161TIP3    H233441   0.908   6.896   2.188
11162TIP3   OH233442   7.751   1.970   6.066
11162TIP3    H133443   7.659   1.973   6.041
11162TIP3    H233444   7.752   2.000   6.157
11163TIP3   OH233445   2.382   2.684   3.099
11163TIP3    H133446   2.360   2.762   3.151
11163TIP3    H233447   2.457   2.645   3.145
11164TIP3   OH233448   2.928   3.963   2.111
11164TIP3    H133449   2.948   3.903   2.182
11164TIP3    H233450   2.953   3.916   2.032
11165TIP3   OH233451   7.438   6.984   2.985
11165TIP3    H133452   7.386   6.903   2.985
11165TIP3    H233453   7.378   7.051   3.018
11166TIP3   OH233454   1.877   4.712   6.246
11166TIP3    H133455   1.839   4.796   6.220
11166TIP3    H233456   1.862   4.655   6.170
11167TIP3   OH233457   6.463   2.444   2.266
11167TIP3    H133458   6.409   2.498   2.325
11167TIP3    H233459   6.534   2.502   2.238
11168TIP3   OH233460   4.221   7.260   6.703
11168TIP3    H133461   4.168   7.208   6.763
11168TIP3    H233462   4.284   7.197   6.666
11169TIP3   OH233463   3.604   7.148   2.346
11169TIP3    H133464   3.678   7.103   2.303
11169TIP3    H233465   3.634   7.162   2.436
11170TIP3   OH233466   4.776   5.657   2.928
11170TIP3    H133467   4.830   5.662   3.007
11170TIP3    H233468   4.723   5.578   2.940
11171TIP3   OH233469   4.018   6.938   2.030
11171TIP3    H133470   3.985   6.994   1.960
11171TIP3    H233471   4.038   6.855   1.988
11172TIP3   OH233472   8.234   3.718   5.803
11172TIP3    H133473   8.324   3.749   5.799
11172TIP3    H233474   8.230   3.667   5.884
11173TIP3   OH233475   5.910   6.077   4.781
11173TIP3    H133476   5.962   6.013   4.733
11173TIP3    H233477   5.820   6.058   4.756
11174TIP3   OH233478   1.727   7.318   3.064
11174TIP3    H133479   1.716   7.263   3.141
11174TIP3    H233480   1.791   7.385   3.091
11175TIP3   OH233481   1.071   6.951   2.902
11175TIP3    H133482   1.157   6.991   2.888
11175TIP3    H233483   1.011   7.025   2.908
11176TIP3   OH233484   4.129   3.173   2.619
11176TIP3    H133485   4.214   3.142   2.588
11176TIP3    H233486   4.067   3.145   2.552
11177TIP3   OH233487   2.903   2.556   0.688
11177TIP3    H133488   2.958   2.546   0.766
11177TIP3    H233489   2.940   2.495   0.625
11178TIP3   OH233490   3.301   3.717   0.145
11178TIP3    H133491   3.391   3.687   0.148
11178TIP3    H233492   3.263   3.675   0.068
11179TIP3   OH233493   1.098   0.212   4.087
11179TIP3    H133494   1.076   0.203   4.180
11179TIP3    H233495   1.046   0.287   4.058
11180TIP3   OH233496   0.764   5.296   6.361
11180TIP3    H133497   0.729   5.236   6.295
11180TIP3    H233498   0.687   5.325   6.411
11181TIP3   OH233499   3.596   2.078   2.241
11181TIP3    H133500   3.621   2.105   2.153
11181TIP3    H233501   3.649   2.132   2.299
11182TIP3   OH233502   1.547   4.705   3.694
11182TIP3    H133503   1.547   4.656   3.612
11182TIP3    H233504   1.455   4.706   3.721
11183TIP3   OH233505   5.229   4.075   5.282
11183TIP3    H133506   5.249   4.169   5.277
11183TIP3    H233507   5.145   4.066   5.236
11184TIP3   OH233508   0.242   1.798   4.008
11184TIP3    H133509   0.205   1.793   3.920
11184TIP3    H233510   0.334   1.776   3.996
11185TIP3   OH233511   3.671   5.680   2.565
11185TIP3    H133512   3.673   5.656   2.657
11185TIP3    H233513   3.735   5.622   2.524
11186TIP3   OH233514   1.538   7.160   4.722
11186TIP3    H133515   1.467   7.100   4.700
11186TIP3    H233516   1.587   7.115   4.791
11187TIP3   OH233517   7.093  -0.004   4.932
11187TIP3    H133518   7.188  -0.020   4.936
11187TIP3    H233519   7.083   0.088   4.957
11188TIP3   OH233520   0.223   0.366   5.743
11188TIP3    H133521   0.268   0.443   5.776
11188TIP3    H233522   0.200   0.389   5.653
11189TIP3   OH233523   0.067   5.588   6.164
11189TIP3    H133524   0.158   5.589   6.137
11189TIP3    H233525   0.065   5.534   6.243
11190TIP3   OH233526   1.265   7.662   5.797
11190TIP3    H133527   1.179   7.624   5.813
11190TIP3    H233528   1.324   7.612   5.853
11191TIP3   OH233529   6.881   3.904   1.156
11191TIP3    H133530   6.942   3.948   1.215
11191TIP3    H233531   6.887   3.954   1.075
11192TIP3   OH233532   3.380   3.858   2.220
11192TIP3    H133533   3.327   3.937   2.224
11192TIP3    H233534   3.467   3.889   2.193
11193TIP3   OH233535   4.783   3.673   6.062
11193TIP3    H133536   4.811   3.632   6.144
11193TIP3    H233537   4.697   3.635   6.045
11194TIP3   OH233538   3.398   2.078   4.540
11194TIP3    H133539   3.323   2.019   4.529
11194TIP3    H233540   3.404   2.091   4.634
11195TIP3   OH233541   0.049   1.793   0.718
11195TIP3    H133542   0.086   1.740   0.648
11195TIP3    H233543   0.058   1.884   0.688
11196TIP3   OH233544   1.266   2.233   6.502
11196TIP3    H133545   1.187   2.181   6.490
11196TIP3    H233546   1.328   2.198   6.438
11197TIP3   OH233547   3.356   1.254   2.631
11197TIP3    H133548   3.396   1.205   2.559
11197TIP3    H233549   3.315   1.187   2.686
11198TIP3   OH233550   0.818   3.058   3.039
11198TIP3    H133551   0.897   3.089   3.084
11198TIP3    H233552   0.840   3.064   2.946
11199TIP3   OH233553   6.196   0.022   4.709
11199TIP3    H133554   6.219   0.072   4.787
11199TIP3    H233555   6.279  -0.001   4.669
11200TIP3   OH233556   6.310   3.146   3.236
11200TIP3    H133557   6.353   3.064   3.262
11200TIP3    H233558   6.372   3.188   3.177
11201TIP3   OH233559   6.344   6.738   5.752
11201TIP3    H133560   6.362   6.819   5.704
11201TIP3    H233561   6.394   6.746   5.833
11202TIP3   OH233562   0.427   3.854   5.299
11202TIP3    H133563   0.359   3.813   5.353
11202TIP3    H233564   0.499   3.871   5.360
11203TIP3   OH233565   7.131   2.935   4.673
11203TIP3    H133566   7.163   2.957   4.761
11203TIP3    H233567   7.204   2.956   4.615
11204TIP3   OH233568   6.355   0.435   5.081
11204TIP3    H133569   6.322   0.437   4.991
11204TIP3    H233570   6.445   0.403   5.073
11205TIP3   OH233571   3.706   1.334   2.788
11205TIP3    H133572   3.642   1.378   2.732
11205TIP3    H233573   3.783   1.323   2.732
11206TIP3   OH233574   1.640   2.483   2.000
11206TIP3    H133575   1.610   2.394   1.983
11206TIP3    H233576   1.578   2.519   2.063
11207TIP3   OH233577   2.686   3.907   1.089
11207TIP3    H133578   2.599   3.869   1.081
11207TIP3    H233579   2.698   3.921   1.183
11208TIP3   OH233580   4.447   2.909   0.319
11208TIP3    H133581   4.495   2.903   0.236
11208TIP3    H233582   4.489   2.980   0.367
11209TIP3   OH233583   6.453   2.051   5.730
11209TIP3    H133584   6.378   2.111   5.738
11209TIP3    H233585   6.529   2.105   5.748
11210TIP3   OH233586   6.731   0.850   4.296
11210TIP3    H133587   6.696   0.768   4.262
11210TIP3    H233588   6.825   0.848   4.275
11211TIP3   OH233589   5.135   5.957   5.145
11211TIP3    H133590   5.123   5.876   5.095
11211TIP3    H233591   5.065   6.015   5.115
11212TIP3   OH233592   0.928   0.105   2.454
11212TIP3    H133593   0.958   0.167   2.389
11212TIP3    H233594   1.006   0.086   2.507
11213TIP3   OH233595   5.439   1.974   1.411
11213TIP3    H133596   5.420   1.979   1.505
11213TIP3    H233597   5.526   1.934   1.406
11214TIP3   OH233598   2.849   1.691   1.639
11214TIP3    H133599   2.914   1.718   1.703
11214TIP3    H233600   2.822   1.772   1.596
11215TIP3   OH233601   4.412   6.385   4.565
11215TIP3    H133602   4.421   6.449   4.635
11215TIP3    H233603   4.440   6.302   4.605
11216TIP3   OH233604   3.971   6.459   0.095
11216TIP3    H133605   4.001   6.548   0.080
11216TIP3    H233606   3.904   6.444   0.028
11217TIP3   OH233607   2.153   2.797   0.471
11217TIP3    H133608   2.077   2.800   0.528
11217TIP3    H233609   2.130   2.853   0.397
11218TIP3   OH233610   5.063   5.458   2.320
11218TIP3    H133611   5.003   5.486   2.251
11218TIP3    H233612   5.133   5.523   2.319
11219TIP3   OH233613   1.089   0.125   3.118
11219TIP3    H133614   1.125   0.109   3.030
11219TIP3    H233615   1.001   0.090   3.115
11220TIP3   OH233616   4.175   6.666   0.651
11220TIP3    H133617   4.201   6.756   0.670
11220TIP3    H233618   4.180   6.622   0.736
11221TIP3   OH233619   2.858   3.255   5.950
11221TIP3    H133620   2.859   3.346   5.981
11221TIP3    H233621   2.931   3.251   5.888
11222TIP3   OH233622   7.547   3.101   2.089
11222TIP3    H133623   7.517   3.177   2.041
11222TIP3    H233624   7.501   3.105   2.173
11223TIP3   OH233625   6.301   3.594   2.938
11223TIP3    H133626   6.242   3.591   2.862
11223TIP3    H233627   6.348   3.677   2.929
11224TIP3   OH233628   5.970   3.343   4.911
11224TIP3    H133629   5.914   3.403   4.961
11224TIP3    H233630   5.915   3.314   4.839
11225TIP3   OH233631   2.701   1.883   3.442
11225TIP3    H133632   2.756   1.910   3.368
11225TIP3    H233633   2.615   1.919   3.423
11226TIP3   OH233634   5.539   4.733   5.761
11226TIP3    H133635   5.555   4.665   5.696
11226TIP3    H233636   5.601   4.802   5.740
11227TIP3   OH233637   1.954   3.453   0.629
11227TIP3    H133638   2.022   3.394   0.598
11227TIP3    H233639   1.892   3.460   0.556
11228TIP3   OH233640   8.202   4.067   2.396
11228TIP3    H133641   8.255   4.112   2.461
11228TIP3    H233642   8.251   4.074   2.315
11229TIP3   OH233643   0.297   1.080   5.336
11229TIP3    H133644   0.348   1.099   5.257
11229TIP3    H233645   0.363   1.056   5.401
11230TIP3   OH233646   7.991   5.768   1.285
11230TIP3    H133647   7.917   5.709   1.269
11230TIP3    H233648   8.056   5.743   1.219
11231TIP3   OH233649   3.808   6.491   3.330
11231TIP3    H133650   3.790   6.542   3.408
11231TIP3    H233651   3.879   6.432   3.355
11232TIP3   OH233652   5.559   3.936   1.500
11232TIP3    H133653   5.596   3.855   1.533
11232TIP3    H233654   5.497   3.964   1.567
11233TIP3   OH233655   4.003   6.801   3.601
11233TIP3    H133656   3.993   6.865   3.671
11233TIP3    H233657   4.082   6.829   3.554
11234TIP3   OH233658   5.481   4.260   1.552
11234TIP3    H133659   5.491   4.218   1.638
11234TIP3    H233660   5.388   4.280   1.546
11235TIP3   OH233661   2.208   1.804   3.741
11235TIP3    H133662   2.143   1.869   3.768
11235TIP3    H233663   2.157   1.728   3.714
11236TIP3   OH233664   4.731   7.579   5.515
11236TIP3    H133665   4.822   7.596   5.491
11236TIP3    H233666   4.680   7.626   5.448
11237TIP3   OH233667   8.211   5.015   4.654
11237TIP3    H133668   8.287   5.072   4.664
11237TIP3    H233669   8.181   5.031   4.564
11238TIP3   OH233670   2.098   5.318   3.425
11238TIP3    H133671   2.150   5.273   3.358
11238TIP3    H233672   2.083   5.405   3.388
11239TIP3   OH233673   7.459   2.274   0.587
11239TIP3    H133674   7.364   2.281   0.590
11239TIP3    H233675   7.477   2.221   0.509
11240TIP3   OH233676   7.734   7.685   0.399
11240TIP3    H133677   7.682   7.616   0.440
11240TIP3    H233678   7.670   7.744   0.359
11241TIP3   OH233679   4.024   1.070   4.144
11241TIP3    H133680   4.013   1.027   4.059
11241TIP3    H233681   4.038   1.162   4.121
11242TIP3   OH233682   0.137   1.026   3.689
11242TIP3    H133683   0.183   0.970   3.751
11242TIP3    H233684   0.162   0.993   3.603
11243TIP3   OH233685   5.100   1.109   3.767
11243TIP3    H133686   5.093   1.106   3.862
11243TIP3    H233687   5.193   1.089   3.750
11244TIP3   OH233688   2.415   6.266   0.729
11244TIP3    H133689   2.365   6.346   0.717
11244TIP3    H233690   2.425   6.257   0.823
11245TIP3   OH233691   6.587   2.713   3.170
11245TIP3    H133692   6.645   2.639   3.187
11245TIP3    H233693   6.607   2.739   3.080
11246TIP3   OH233694   5.311   3.277   6.607
11246TIP3    H133695   5.353   3.313   6.685
11246TIP3    H233696   5.368   3.305   6.535
11247TIP3   OH233697   5.754   2.032   0.798
11247TIP3    H133698   5.716   1.996   0.718
11247TIP3    H233699   5.789   1.955   0.845
11248TIP3   OH233700   5.291   2.617   0.629
11248TIP3    H133701   5.256   2.538   0.669
11248TIP3    H233702   5.252   2.689   0.679
11249TIP3   OH233703   4.223   5.993   3.289
11249TIP3    H133704   4.305   6.004   3.337
11249TIP3    H233705   4.181   5.917   3.329
11250TIP3   OH233706   2.640   1.587   0.551
11250TIP3    H133707   2.574   1.558   0.614
11250TIP3    H233708   2.713   1.526   0.564
11251TIP3   OH233709   2.299   4.266   3.247
11251TIP3    H133710   2.287   4.230   3.335
11251TIP3    H233711   2.331   4.192   3.196
11252TIP3   OH233712   4.637   7.043   4.566
11252TIP3    H133713   4.553   7.052   4.609
11252TIP3    H233714   4.649   6.948   4.556
11253TIP3   OH233715   6.310   2.351   3.137
11253TIP3    H133716   6.373   2.339   3.208
11253TIP3    H233717   6.313   2.269   3.089
11254TIP3   OH233718   6.194   2.791   0.260
11254TIP3    H133719   6.278   2.758   0.293
11254TIP3    H233720   6.195   2.884   0.282
11255TIP3   OH233721   6.624   1.445   4.419
11255TIP3    H133722   6.588   1.507   4.482
11255TIP3    H233723   6.687   1.393   4.470
11256TIP3   OH233724   2.683   2.283   4.503
11256TIP3    H133725   2.693   2.272   4.598
11256TIP3    H233726   2.607   2.341   4.494
11257TIP3   OH233727   0.918   4.290   6.202
11257TIP3    H133728   0.867   4.369   6.217
11257TIP3    H233729   0.964   4.275   6.285
11258TIP3   OH233730   3.759   3.394   2.962
11258TIP3    H133731   3.711   3.371   2.883
11258TIP3    H233732   3.698   3.448   3.012
11259TIP3   OH233733   1.787   2.608   2.251
11259TIP3    H133734   1.876   2.597   2.286
11259TIP3    H233735   1.745   2.523   2.265
11260TIP3   OH233736   7.297   5.571   5.826
11260TIP3    H133737   7.218   5.619   5.802
11260TIP3    H233738   7.264   5.493   5.872
11261TIP3   OH233739   1.667   5.531   0.758
11261TIP3    H133740   1.706   5.604   0.709
11261TIP3    H233741   1.638   5.470   0.690
11262TIP3   OH233742   1.492   1.779   6.362
11262TIP3    H133743   1.579   1.741   6.377
11262TIP3    H233744   1.499   1.869   6.395
11263TIP3   OH233745   1.368   0.971   6.717
11263TIP3    H133746   1.309   0.904   6.683
11263TIP3    H233747   1.398   0.937   6.800
11264TIP3   OH233748   4.935   6.967   1.080
11264TIP3    H133749   4.972   7.028   1.016
11264TIP3    H233750   4.843   6.989   1.084
11265TIP3   OH233751   6.979   0.704   2.931
11265TIP3    H133752   7.042   0.642   2.892
11265TIP3    H233753   6.894   0.675   2.898
11266TIP3   OH233754   3.331   0.483   1.343
11266TIP3    H133755   3.365   0.562   1.301
11266TIP3    H233756   3.360   0.412   1.286
11267TIP3   OH233757   0.747   0.743   2.066
11267TIP3    H133758   0.752   0.748   1.971
11267TIP3    H233759   0.669   0.795   2.089
11268TIP3   OH233760   4.537   2.947   6.253
11268TIP3    H133761   4.468   2.981   6.196
11268TIP3    H233762   4.491   2.917   6.331
11269TIP3   OH233763   1.693   1.256   0.568
11269TIP3    H133764   1.774   1.218   0.534
11269TIP3    H233765   1.651   1.186   0.616
11270TIP3   OH233766   3.020   4.003   5.586
11270TIP3    H133767   2.928   4.015   5.611
11270TIP3    H233768   3.060   4.088   5.603
11271TIP3   OH233769   3.559   2.470   5.190
11271TIP3    H133770   3.643   2.447   5.229
11271TIP3    H233771   3.582   2.524   5.114
11272TIP3   OH233772   2.961   2.677   2.214
11272TIP3    H133773   2.949   2.730   2.136
11272TIP3    H233774   2.891   2.612   2.209
11273TIP3   OH233775   7.649   3.114   2.529
11273TIP3    H133776   7.722   3.171   2.508
11273TIP3    H233777   7.689   3.030   2.549
11274TIP3   OH233778   7.977   5.049   4.844
11274TIP3    H133779   8.062   5.092   4.845
11274TIP3    H233780   7.997   4.955   4.841
11275TIP3   OH233781   0.162   4.947   5.796
11275TIP3    H133782   0.151   5.042   5.784
11275TIP3    H233783   0.074   4.912   5.798
11276TIP3   OH233784   3.526   3.731   1.720
11276TIP3    H133785   3.521   3.825   1.739
11276TIP3    H233786   3.525   3.725   1.625
11277TIP3   OH233787   6.846   7.012   1.663
11277TIP3    H133788   6.755   6.983   1.660
11277TIP3    H233789   6.858   7.061   1.582
11278TIP3   OH233790   6.114   5.139   1.054
11278TIP3    H133791   6.172   5.185   1.115
11278TIP3    H233792   6.045   5.103   1.109
11279TIP3   OH233793   6.729   1.826   5.840
11279TIP3    H133794   6.653   1.849   5.892
11279TIP3    H233795   6.789   1.901   5.850
11280TIP3   OH233796   4.152   4.990   5.941
11280TIP3    H133797   4.089   5.036   5.997
11280TIP3    H233798   4.137   5.026   5.854
11281TIP3   OH233799   0.724   4.514   3.809
11281TIP3    H133800   0.701   4.580   3.874
11281TIP3    H233801   0.641   4.488   3.770
11282TIP3   OH233802   2.391   4.330   5.599
11282TIP3    H133803   2.391   4.322   5.503
11282TIP3    H233804   2.356   4.418   5.615
11283TIP3   OH233805   6.214   6.996   3.721
11283TIP3    H133806   6.280   7.038   3.667
11283TIP3    H233807   6.173   6.932   3.664
11284TIP3   OH233808   5.659   3.313   3.213
11284TIP3    H133809   5.687   3.243   3.271
11284TIP3    H233810   5.563   3.307   3.213
11285TIP3   OH233811   6.295   0.182   0.459
11285TIP3    H133812   6.316   0.181   0.366
11285TIP3    H233813   6.289   0.089   0.483
11286TIP3   OH233814   3.336   5.215   1.507
11286TIP3    H133815   3.423   5.241   1.536
11286TIP3    H233816   3.328   5.123   1.535
11287TIP3   OH233817   1.109   3.051   3.220
11287TIP3    H133818   1.170   3.080   3.288
11287TIP3    H233819   1.076   3.132   3.180
11288TIP3   OH233820   4.635   1.672   4.777
11288TIP3    H133821   4.637   1.762   4.745
11288TIP3    H233822   4.724   1.656   4.809
11289TIP3   OH233823   5.306   1.569   6.411
11289TIP3    H133824   5.294   1.476   6.391
11289TIP3    H233825   5.247   1.586   6.484
11290TIP3   OH233826   7.907   6.927   1.521
11290TIP3    H133827   7.837   6.863   1.535
11290TIP3    H233828   7.861   7.008   1.497
11291TIP3   OH233829   3.464   6.470   3.612
11291TIP3    H133830   3.535   6.515   3.566
11291TIP3    H233831   3.506   6.394   3.652
11292TIP3   OH233832   4.298   2.092   4.069
11292TIP3    H133833   4.279   1.999   4.081
11292TIP3    H233834   4.384   2.094   4.026
11293TIP3   OH233835   8.108   2.113   6.056
11293TIP3    H133836   8.056   2.186   6.090
11293TIP3    H233837   8.199   2.138   6.074
11294TIP3   OH233838   3.108   6.600   3.306
11294TIP3    H133839   3.036   6.549   3.267
11294TIP3    H233840   3.160   6.537   3.355
11295TIP3   OH233841   7.926   5.861   0.477
11295TIP3    H133842   7.911   5.773   0.442
11295TIP3    H233843   7.849   5.880   0.529
11296TIP3   OH233844   8.092   7.290   0.314
11296TIP3    H133845   8.154   7.347   0.269
11296TIP3    H233846   8.147   7.226   0.360
11297TIP3   OH233847   6.301   3.371   2.576
11297TIP3    H133848   6.247   3.435   2.530
11297TIP3    H233849   6.377   3.422   2.605
11298TIP3   OH233850   4.034   1.938   1.414
11298TIP3    H133851   3.965   1.949   1.349
11298TIP3    H233852   4.096   1.878   1.374
11299TIP3   OH233853   4.441   0.964   2.860
11299TIP3    H133854   4.527   0.992   2.829
11299TIP3    H233855   4.457   0.880   2.903
11300TIP3   OH233856   7.653   5.192   1.037
11300TIP3    H133857   7.603   5.187   1.119
11300TIP3    H233858   7.587   5.203   0.969
11301TIP3   OH233859   1.527   6.861   6.313
11301TIP3    H133860   1.588   6.796   6.348
11301TIP3    H233861   1.559   6.879   6.225
11302TIP3   OH233862   8.009   0.485   0.951
11302TIP3    H133863   7.957   0.529   1.018
11302TIP3    H233864   8.097   0.521   0.963
11303TIP3   OH233865   0.907   4.257   0.472
11303TIP3    H133866   0.947   4.342   0.492
11303TIP3    H233867   0.849   4.275   0.398
11304TIP3   OH233868   1.030   3.458   1.650
11304TIP3    H133869   0.941   3.450   1.684
11304TIP3    H233870   1.056   3.369   1.628
11305TIP3   OH233871   1.562   7.115   6.459
11305TIP3    H133872   1.467   7.108   6.457
11305TIP3    H233873   1.591   7.071   6.379
11306TIP3   OH233874   0.555   2.279   3.695
11306TIP3    H133875   0.470   2.237   3.677
11306TIP3    H233876   0.609   2.210   3.732
11307TIP3   OH233877   8.181   1.522   3.288
11307TIP3    H133878   8.152   1.595   3.342
11307TIP3    H233879   8.138   1.537   3.203
11308TIP3   OH233880   4.603   0.753   0.261
11308TIP3    H133881   4.562   0.711   0.185
11308TIP3    H233882   4.529   0.785   0.313
11309TIP3   OH233883   6.051   1.935   5.194
11309TIP3    H133884   5.994   1.865   5.164
11309TIP3    H233885   6.128   1.930   5.137
11310TIP3   OH233886   2.716   6.176   5.992
11310TIP3    H133887   2.667   6.253   6.021
11310TIP3    H233888   2.662   6.139   5.922
11311TIP3   OH233889   6.422   4.140   6.258
11311TIP3    H133890   6.464   4.065   6.215
11311TIP3    H233891   6.427   4.210   6.192
11312TIP3   OH233892   6.500   7.578   0.640
11312TIP3    H133893   6.579   7.624   0.612
11312TIP3    H233894   6.464   7.633   0.710
11313TIP3   OH233895   0.648   3.019   3.242
11313TIP3    H133896   0.691   3.034   3.158
11313TIP3    H233897   0.716   2.983   3.299
11314TIP3   OH233898   0.950   5.252   2.650
11314TIP3    H133899   0.948   5.253   2.554
11314TIP3    H233900   1.043   5.242   2.672
11315TIP3   OH233901   1.727   6.530   6.155
11315TIP3    H133902   1.663   6.459   6.156
11315TIP3    H233903   1.708   6.582   6.233
11316TIP3   OH233904   7.769   7.317   4.018
11316TIP3    H133905   7.732   7.238   3.978
11316TIP3    H233906   7.857   7.291   4.045
11317TIP3   OH233907   4.833   3.279   5.025
11317TIP3    H133908   4.890   3.316   4.957
11317TIP3    H233909   4.893   3.256   5.096
11318TIP3   OH233910   6.932   2.229   6.025
11318TIP3    H133911   6.928   2.184   6.110
11318TIP3    H233912   7.015   2.278   6.027
11319TIP3   OH233913   2.401   0.024   5.586
11319TIP3    H133914   2.366  -0.042   5.527
11319TIP3    H233915   2.369   0.107   5.551
11320TIP3   OH233916   2.870   7.178   1.523
11320TIP3    H133917   2.953   7.226   1.519
11320TIP3    H233918   2.804   7.246   1.534
11321TIP3   OH233919   1.503   3.282   1.028
11321TIP3    H133920   1.567   3.298   0.959
11321TIP3    H233921   1.419   3.308   0.991
11322TIP3   OH233922   3.755   1.436   5.496
11322TIP3    H133923   3.708   1.499   5.551
11322TIP3    H233924   3.844   1.469   5.492
11323TIP3   OH233925   0.354   1.147   6.760
11323TIP3    H133926   0.351   1.066   6.810
11323TIP3    H233927   0.418   1.131   6.692
11324TIP3   OH233928   4.728   2.081   6.453
11324TIP3    H133929   4.710   2.128   6.371
11324TIP3    H233930   4.815   2.043   6.441
11325TIP3   OH233931   0.441   4.179   4.860
11325TIP3    H133932   0.525   4.203   4.821
11325TIP3    H233933   0.463   4.133   4.941
11326TIP3   OH233934   6.682   7.405   0.984
11326TIP3    H133935   6.591   7.397   1.014
11326TIP3    H233936   6.722   7.321   1.007
11327TIP3   OH233937   4.680   4.517   6.528
11327TIP3    H133938   4.694   4.611   6.528
11327TIP3    H233939   4.590   4.506   6.561
11328TIP3   OH233940   5.472   1.664   0.033
11328TIP3    H133941   5.426   1.675  -0.050
11328TIP3    H233942   5.458   1.746   0.079
11329TIP3   OH233943   5.801   3.926   2.284
11329TIP3    H133944   5.806   3.862   2.355
11329TIP3    H233945   5.891   3.938   2.256
11330TIP3   OH233946   0.694   1.615   3.590
11330TIP3    H133947   0.620   1.578   3.638
11330TIP3    H233948   0.770   1.600   3.647
11331TIP3   OH233949   6.277   2.981   1.202
11331TIP3    H133950   6.324   3.041   1.260
11331TIP3    H233951   6.332   2.903   1.198
11332TIP3   OH233952   4.143   7.560   0.947
11332TIP3    H133953   4.053   7.527   0.947
11332TIP3    H233954   4.144   7.625   0.877
11333TIP3   OH233955   5.416   7.728   2.979
11333TIP3    H133956   5.452   7.649   3.019
11333TIP3    H233957   5.487   7.792   2.984
11334TIP3   OH233958   3.741   0.858   3.784
11334TIP3    H133959   3.649   0.883   3.794
11334TIP3    H233960   3.757   0.796   3.855
11335TIP3   OH233961   3.947   3.347   5.390
11335TIP3    H133962   3.904   3.415   5.338
11335TIP3    H233963   3.881   3.280   5.402
11336TIP3   OH233964   2.871   4.279   0.035
11336TIP3    H133965   2.821   4.250   0.112
11336TIP3    H233966   2.825   4.241  -0.039
11337TIP3   OH233967   4.558   4.888   0.458
11337TIP3    H133968   4.540   4.803   0.416
11337TIP3    H233969   4.587   4.944   0.386
11338TIP3   OH233970   4.696   5.836   5.370
11338TIP3    H133971   4.692   5.915   5.424
11338TIP3    H233972   4.711   5.765   5.432
11339TIP3   OH233973   7.937   0.694   5.961
11339TIP3    H133974   7.991   0.660   6.032
11339TIP3    H233975   7.930   0.788   5.979
11340TIP3   OH233976   0.054   2.333   1.275
11340TIP3    H133977   0.099   2.249   1.263
11340TIP3    H233978  -0.020   2.329   1.215
11341TIP3   OH233979   4.135   3.950   2.839
11341TIP3    H133980   4.207   3.891   2.860
11341TIP3    H233981   4.113   3.929   2.748
11342TIP3   OH233982   1.059   3.472   5.085
11342TIP3    H133983   1.111   3.538   5.131
11342TIP3    H233984   1.028   3.516   5.006
11343TIP3   OH233985   6.889   7.238   3.276
11343TIP3    H133986   6.877   7.263   3.368
11343TIP3    H233987   6.983   7.236   3.264
11344TIP3   OH233988   6.316   3.064   6.444
11344TIP3    H133989   6.373   2.987   6.446
11344TIP3    H233990   6.232   3.031   6.411
11345TIP3   OH233991   5.990   7.822   3.740
11345TIP3    H133992   6.079   7.811   3.707
11345TIP3    H233993   5.998   7.811   3.835
11346TIP3   OH233994   7.159   4.193   6.342
11346TIP3    H133995   7.163   4.137   6.420
11346TIP3    H233996   7.093   4.259   6.363
11347TIP3   OH233997   3.966   5.567   1.775
11347TIP3    H133998   3.998   5.654   1.752
11347TIP3    H233999   4.043   5.520   1.809
11348TIP3   OH234000   7.001   6.737   1.504
11348TIP3    H134001   7.053   6.743   1.584
11348TIP3    H234002   6.936   6.806   1.512
11349TIP3   OH234003   4.114   1.196   0.424
11349TIP3    H134004   4.070   1.113   0.440
11349TIP3    H234005   4.069   1.233   0.349
11350TIP3   OH234006   7.205   4.748   1.731
11350TIP3    H134007   7.194   4.840   1.757
11350TIP3    H234008   7.243   4.706   1.808
11351TIP3   OH234009   4.790   1.804   3.908
11351TIP3    H134010   4.880   1.814   3.878
11351TIP3    H234011   4.742   1.875   3.865
11352TIP3   OH234012   5.902   7.679   1.810
11352TIP3    H134013   5.843   7.643   1.876
11352TIP3    H234014   5.868   7.646   1.727
11353TIP3   OH234015   4.151   3.473   2.924
11353TIP3    H134016   4.060   3.493   2.903
11353TIP3    H234017   4.201   3.509   2.851
11354TIP3   OH234018   4.313   4.757   3.091
11354TIP3    H134019   4.232   4.751   3.039
11354TIP3    H234020   4.383   4.767   3.027
11355TIP3   OH234021   6.296   0.119   1.190
11355TIP3    H134022   6.273   0.146   1.101
11355TIP3    H234023   6.391   0.127   1.194
11356TIP3   OH234024   7.860   1.700   1.994
11356TIP3    H134025   7.887   1.775   2.046
11356TIP3    H234026   7.940   1.650   1.978
11357TIP3   OH234027   6.085   3.857   1.015
11357TIP3    H134028   6.144   3.788   1.045
11357TIP3    H234029   6.009   3.851   1.073
11358TIP3   OH234030   2.892   3.151   6.270
11358TIP3    H134031   2.803   3.119   6.282
11358TIP3    H234032   2.910   3.140   6.176
11359TIP3   OH234033   7.588   1.597   4.716
11359TIP3    H134034   7.574   1.556   4.631
11359TIP3    H234035   7.503   1.592   4.759
11360TIP3   OH234036   2.417   7.296   1.649
11360TIP3    H134037   2.506   7.327   1.632
11360TIP3    H234038   2.395   7.241   1.574
11361TIP3   OH234039   4.080   6.547   3.884
11361TIP3    H134040   4.145   6.580   3.822
11361TIP3    H234041   4.131   6.499   3.949
11362TIP3   OH234042   1.426   2.723   4.566
11362TIP3    H134043   1.521   2.731   4.560
11362TIP3    H234044   1.412   2.663   4.640
11363TIP3   OH234045   0.351   4.506   0.834
11363TIP3    H134046   0.290   4.438   0.861
11363TIP3    H234047   0.388   4.539   0.916
11364TIP3   OH234048   0.608   6.651   6.486
11364TIP3    H134049   0.516   6.670   6.469
11364TIP3    H234050   0.607   6.602   6.568
11365TIP3   OH234051   0.790   0.600   2.858
11365TIP3    H134052   0.775   0.694   2.850
11365TIP3    H234053   0.825   0.574   2.773
11366TIP3   OH234054   1.485   4.292   3.896
11366TIP3    H134055   1.432   4.338   3.830
11366TIP3    H234056   1.450   4.203   3.897
11367TIP3   OH234057   6.629   5.883   3.694
11367TIP3    H134058   6.561   5.931   3.647
11367TIP3    H234059   6.584   5.845   3.769
11368TIP3   OH234060   2.786   0.027   5.372
11368TIP3    H134061   2.786   0.065   5.284
11368TIP3    H234062   2.870  -0.019   5.378
11369TIP3   OH234063   4.002   2.104   0.380
11369TIP3    H134064   3.967   2.038   0.320
11369TIP3    H234065   3.925   2.153   0.409
11370TIP3   OH234066   8.038   5.156   2.560
11370TIP3    H134067   8.094   5.150   2.483
11370TIP3    H234068   8.075   5.094   2.623
11371TIP3   OH234069   4.861   4.386   0.219
11371TIP3    H134070   4.931   4.445   0.192
11371TIP3    H234071   4.844   4.332   0.142
11372TIP3   OH234072   5.589   3.777   2.638
11372TIP3    H134073   5.563   3.853   2.586
11372TIP3    H234074   5.508   3.728   2.651
11373TIP3   OH234075   7.869   1.453   2.918
11373TIP3    H134076   7.826   1.491   2.841
11373TIP3    H234077   7.826   1.495   2.993
11374TIP3   OH234078   8.185   6.707   1.123
11374TIP3    H134079   8.218   6.796   1.111
11374TIP3    H234080   8.115   6.716   1.187
11375TIP3   OH234081   7.679   2.986   1.605
11375TIP3    H134082   7.741   2.916   1.625
11375TIP3    H234083   7.633   2.956   1.527
11376TIP3   OH234084   3.057   2.354   5.880
11376TIP3    H134085   3.085   2.267   5.852
11376TIP3    H234086   3.135   2.409   5.871
11377TIP3   OH234087   2.042   6.319   2.879
11377TIP3    H134088   2.076   6.230   2.885
11377TIP3    H234089   2.010   6.338   2.968
11378TIP3   OH234090   3.743   0.119   0.027
11378TIP3    H134091   3.663   0.073   0.051
11378TIP3    H234092   3.729   0.147  -0.064
11379TIP3   OH234093   6.748   0.714   0.280
11379TIP3    H134094   6.824   0.710   0.222
11379TIP3    H234095   6.732   0.807   0.292
11380TIP3   OH234096   6.231   6.068   1.840
11380TIP3    H134097   6.224   6.089   1.747
11380TIP3    H234098   6.158   6.115   1.880
11381TIP3   OH234099   7.578   3.571   5.586
11381TIP3    H134100   7.525   3.502   5.626
11381TIP3    H234101   7.649   3.586   5.648
11382TIP3   OH234102   1.573   3.263   1.301
11382TIP3    H134103   1.557   3.169   1.311
11382TIP3    H234104   1.535   3.285   1.216
11383TIP3   OH234105   8.071   7.346   4.587
11383TIP3    H134106   8.112   7.432   4.592
11383TIP3    H234107   7.982   7.363   4.558
11384TIP3   OH234108   2.131   5.044   3.752
11384TIP3    H134109   2.161   4.969   3.701
11384TIP3    H234110   2.051   5.072   3.708
11385TIP3   OH234111   4.002   6.995   3.772
11385TIP3    H134112   4.095   7.020   3.776
11385TIP3    H234113   3.956   7.077   3.755
11386TIP3   OH234114   3.902   1.253   3.261
11386TIP3    H134115   3.925   1.212   3.344
11386TIP3    H234116   3.909   1.183   3.196
11387TIP3   OH234117   6.556   1.642   5.674
11387TIP3    H134118   6.624   1.657   5.739
11387TIP3    H234119   6.514   1.727   5.662
11388TIP3   OH234120   7.880   6.793   4.276
11388TIP3    H134121   7.895   6.888   4.279
11388TIP3    H234122   7.957   6.758   4.231
11389TIP3   OH234123   0.353   3.125   1.078
11389TIP3    H134124   0.365   3.058   1.145
11389TIP3    H234125   0.278   3.094   1.027
11390TIP3   OH234126   1.055   7.113   0.235
11390TIP3    H134127   1.014   7.100   0.320
11390TIP3    H234128   1.139   7.153   0.255
11391TIP3   OH234129   2.073   1.984   4.387
11391TIP3    H134130   1.986   1.945   4.382
11391TIP3    H234131   2.132   1.910   4.394
11392TIP3   OH234132   5.708   1.496   1.001
11392TIP3    H134133   5.670   1.408   1.002
11392TIP3    H234134   5.716   1.520   1.093
11393TIP3   OH234135   1.197   5.082   5.365
11393TIP3    H134136   1.162   5.159   5.319
11393TIP3    H234137   1.223   5.022   5.295
11394TIP3   OH234138   1.265   4.647   3.725
11394TIP3    H134139   1.187   4.689   3.761
11394TIP3    H234140   1.233   4.596   3.650
11395TIP3   OH234141   5.727   0.108   0.148
11395TIP3    H134142   5.725   0.169   0.075
11395TIP3    H234143   5.677   0.151   0.218
11396TIP3   OH234144   6.269   3.958   0.826
11396TIP3    H134145   6.234   3.930   0.742
11396TIP3    H234146   6.198   3.941   0.889
11397TIP3   OH234147   2.497   4.994   1.051
11397TIP3    H134148   2.511   5.089   1.042
11397TIP3    H234149   2.485   4.980   1.144
11398TIP3   OH234150   7.617   2.024   4.593
11398TIP3    H134151   7.604   1.969   4.516
11398TIP3    H234152   7.604   2.113   4.561
11399TIP3   OH234153   2.155   2.971   0.779
11399TIP3    H134154   2.236   3.008   0.742
11399TIP3    H234155   2.180   2.944   0.867
11400TIP3   OH234156   2.576   6.048   3.186
11400TIP3    H134157   2.616   6.053   3.272
11400TIP3    H234158   2.575   6.138   3.154
11401TIP3   OH234159   2.576   3.445   6.528
11401TIP3    H134160   2.562   3.525   6.478
11401TIP3    H234161   2.564   3.374   6.465
11402TIP3   OH234162   3.908   3.648   3.294
11402TIP3    H134163   3.897   3.565   3.248
11402TIP3    H234164   3.921   3.712   3.224
11403TIP3   OH234165   2.679   2.312   6.665
11403TIP3    H134166   2.729   2.231   6.679
11403TIP3    H234167   2.704   2.368   6.739
11404TIP3   OH234168   2.171   2.271   5.756
11404TIP3    H134169   2.107   2.212   5.796
11404TIP3    H234170   2.162   2.353   5.804
11405TIP3   OH234171   2.846   0.681   0.986
11405TIP3    H134172   2.815   0.724   1.066
11405TIP3    H234173   2.924   0.731   0.961
11406TIP3   OH234174   3.936   5.734   2.110
11406TIP3    H134175   3.847   5.711   2.138
11406TIP3    H234176   3.969   5.653   2.070
11407TIP3   OH234177   7.196   2.572   2.944
11407TIP3    H134178   7.209   2.484   2.980
11407TIP3    H234179   7.211   2.630   3.018
11408TIP3   OH234180   7.610   2.774   2.380
11408TIP3    H134181   7.559   2.841   2.335
11408TIP3    H234182   7.651   2.723   2.310
11409TIP3   OH234183   0.801   1.599   0.081
11409TIP3    H134184   0.802   1.682   0.033
11409TIP3    H234185   0.822   1.533   0.015
11410TIP3   OH234186   8.215   6.233   4.576
11410TIP3    H134187   8.266   6.301   4.530
11410TIP3    H234188   8.270   6.155   4.572
11411TIP3   OH234189   4.628   5.302   1.147
11411TIP3    H134190   4.645   5.286   1.240
11411TIP3    H234191   4.536   5.276   1.135
11412TIP3   OH234192   6.162   4.781   5.404
11412TIP3    H134193   6.252   4.795   5.374
11412TIP3    H234194   6.156   4.687   5.421
11413TIP3   OH234195   3.807   0.202   2.987
11413TIP3    H134196   3.838   0.272   3.043
11413TIP3    H234197   3.758   0.144   3.045
11414TIP3   OH234198   1.601   7.427   4.807
11414TIP3    H134199   1.550   7.350   4.782
11414TIP3    H234200   1.663   7.394   4.872
11415TIP3   OH234201   3.633   0.127   6.542
11415TIP3    H134202   3.695   0.180   6.492
11415TIP3    H234203   3.570   0.190   6.577
11416TIP3   OH234204   0.167   1.500   3.486
11416TIP3    H134205   0.249   1.549   3.481
11416TIP3    H234206   0.100   1.566   3.499
11417TIP3   OH234207   3.028   6.204   1.996
11417TIP3    H134208   3.090   6.203   2.069
11417TIP3    H234209   2.960   6.266   2.023
11418TIP3   OH234210   6.703   1.013   0.322
11418TIP3    H134211   6.761   1.011   0.247
11418TIP3    H234212   6.690   1.106   0.341
11419TIP3   OH234213   1.955   0.473   3.210
11419TIP3    H134214   2.028   0.462   3.271
11419TIP3    H234215   1.928   0.384   3.188
11420TIP3   OH234216   7.529   0.709   2.015
11420TIP3    H134217   7.594   0.764   1.971
11420TIP3    H234218   7.458   0.769   2.036
11421TIP3   OH234219   2.924   5.156   4.812
11421TIP3    H134220   2.986   5.142   4.740
11421TIP3    H234221   2.976   5.138   4.891
11422TIP3   OH234222   2.318   6.728   5.259
11422TIP3    H134223   2.361   6.697   5.338
11422TIP3    H234224   2.292   6.818   5.280
11423TIP3   OH234225   1.461   5.490   6.189
11423TIP3    H134226   1.550   5.489   6.223
11423TIP3    H234227   1.415   5.556   6.242
11424TIP3   OH234228   1.729   6.234   1.147
11424TIP3    H134229   1.757   6.240   1.055
11424TIP3    H234230   1.783   6.163   1.183
11425TIP3   OH234231   2.106   5.264   5.817
11425TIP3    H134232   2.147   5.325   5.878
11425TIP3    H234233   2.075   5.320   5.746
11426TIP3   OH234234   6.703   5.428   2.326
11426TIP3    H134235   6.770   5.495   2.334
11426TIP3    H234236   6.626   5.475   2.294
11427TIP3   OH234237   2.329   3.847   1.844
11427TIP3    H134238   2.390   3.779   1.816
11427TIP3    H234239   2.357   3.868   1.933
11428TIP3   OH234240   5.196   0.709   2.781
11428TIP3    H134241   5.216   0.799   2.755
11428TIP3    H234242   5.271   0.682   2.834
11429TIP3   OH234243   1.310   5.245   3.908
11429TIP3    H134244   1.257   5.291   3.843
11429TIP3    H234245   1.322   5.309   3.978
11430TIP3   OH234246   4.687   1.294   0.351
11430TIP3    H134247   4.735   1.227   0.304
11430TIP3    H234248   4.595   1.266   0.347
11431TIP3   OH234249   1.199   5.109   0.416
11431TIP3    H134250   1.193   5.015   0.396
11431TIP3    H234251   1.134   5.149   0.358
11432TIP3   OH234252   2.391   6.026   1.527
11432TIP3    H134253   2.312   6.047   1.576
11432TIP3    H234254   2.425   6.111   1.499
11433TIP3   OH234255   5.098   2.668   6.465
11433TIP3    H134256   5.092   2.578   6.498
11433TIP3    H234257   5.109   2.722   6.543
11434TIP3   OH234258   5.004   3.939   4.531
11434TIP3    H134259   5.017   3.856   4.486
11434TIP3    H234260   4.950   3.917   4.607
11435TIP3   OH234261   7.184   1.067   6.309
11435TIP3    H134262   7.237   1.143   6.285
11435TIP3    H234263   7.210   0.999   6.247
11436TIP3   OH234264   4.634   6.389   1.540
11436TIP3    H134265   4.628   6.475   1.582
11436TIP3    H234266   4.563   6.338   1.578
11437TIP3   OH234267   2.215   3.652   4.823
11437TIP3    H134268   2.253   3.739   4.838
11437TIP3    H234269   2.158   3.663   4.747
11438TIP3   OH234270   7.165   3.962   3.683
11438TIP3    H134271   7.096   3.931   3.625
11438TIP3    H234272   7.176   4.055   3.661
11439TIP3   OH234273   0.164   2.532   1.986
11439TIP3    H134274   0.257   2.554   1.992
11439TIP3    H234275   0.152   2.461   2.049
11440TIP3   OH234276   4.463   7.132   1.945
11440TIP3    H134277   4.417   7.135   1.862
11440TIP3    H234278   4.416   7.066   1.996
11441TIP3   OH234279   1.831   4.478   1.094
11441TIP3    H134280   1.792   4.391   1.101
11441TIP3    H234281   1.917   4.468   1.135
11442TIP3   OH234282   7.846   1.666   5.908
11442TIP3    H134283   7.905   1.725   5.860
11442TIP3    H234284   7.901   1.627   5.976
11443TIP3   OH234285   4.862   6.992   2.044
11443TIP3    H134286   4.856   7.008   1.949
11443TIP3    H234287   4.933   6.928   2.053
11444TIP3   OH234288   7.416   5.085   0.087
11444TIP3    H134289   7.355   5.100   0.159
11444TIP3    H234290   7.368   5.030   0.026
11445TIP3   OH234291   6.202   5.856   2.115
11445TIP3    H134292   6.249   5.898   2.043
11445TIP3    H234293   6.124   5.819   2.075
11446TIP3   OH234294   4.581   3.324   5.611
11446TIP3    H134295   4.557   3.408   5.572
11446TIP3    H234296   4.648   3.345   5.676
11447TIP3   OH234297   5.723   4.301   1.422
11447TIP3    H134298   5.742   4.210   1.400
11447TIP3    H234299   5.637   4.298   1.463
11448TIP3   OH234300   7.638   5.061   1.419
11448TIP3    H134301   7.576   5.052   1.348
11448TIP3    H234302   7.610   4.996   1.484
11449TIP3   OH234303   3.778   1.537   6.095
11449TIP3    H134304   3.813   1.516   6.182
11449TIP3    H234305   3.697   1.584   6.114
11450TIP3   OH234306   4.819   6.219   1.356
11450TIP3    H134307   4.773   6.186   1.279
11450TIP3    H234308   4.754   6.274   1.400
11451TIP3   OH234309   6.135   2.982   5.350
11451TIP3    H134310   6.068   3.004   5.286
11451TIP3    H234311   6.117   2.891   5.373
11452TIP3   OH234312   1.784   7.172   4.092
11452TIP3    H134313   1.702   7.163   4.141
11452TIP3    H234314   1.852   7.170   4.159
11453TIP3   OH234315   6.121   5.954   5.933
11453TIP3    H134316   6.211   5.924   5.916
11453TIP3    H234317   6.100   6.009   5.858
11454TIP3   OH234318   7.182   1.305   0.917
11454TIP3    H134319   7.196   1.222   0.871
11454TIP3    H234320   7.103   1.342   0.878
11455TIP3   OH234321   2.231   2.806   5.063
11455TIP3    H134322   2.142   2.811   5.098
11455TIP3    H234323   2.221   2.766   4.977
11456TIP3   OH234324   6.813   5.748   3.948
11456TIP3    H134325   6.826   5.758   3.854
11456TIP3    H234326   6.869   5.814   3.988
11457TIP3   OH234327   7.332   2.485   4.724
11457TIP3    H134328   7.293   2.524   4.802
11457TIP3    H234329   7.421   2.520   4.721
11458TIP3   OH234330   3.702   3.080   3.990
11458TIP3    H134331   3.698   2.988   4.017
11458TIP3    H234332   3.780   3.086   3.935
11459TIP3   OH234333   7.219   5.682   4.996
11459TIP3    H134334   7.221   5.778   4.994
11459TIP3    H234335   7.272   5.655   4.921
11460TIP3   OH234336   1.688   3.010   1.974
11460TIP3    H134337   1.732   2.983   1.893
11460TIP3    H234338   1.723   2.950   2.041
11461TIP3   OH234339   3.731   5.096   6.308
11461TIP3    H134340   3.671   5.050   6.249
11461TIP3    H234341   3.732   5.041   6.387
11462TIP3   OH234342   1.342   1.679   2.763
11462TIP3    H134343   1.386   1.597   2.739
11462TIP3    H234344   1.258   1.676   2.716
11463TIP3   OH234345   4.488   0.392   0.010
11463TIP3    H134346   4.547   0.423   0.080
11463TIP3    H234347   4.412   0.357   0.056
11464TIP3   OH234348   0.535   5.493   1.222
11464TIP3    H134349   0.484   5.414   1.236
11464TIP3    H234350   0.597   5.496   1.295
11465TIP3   OH234351   6.736   0.092   3.148
11465TIP3    H134352   6.811   0.151   3.141
11465TIP3    H234353   6.750   0.027   3.079
11466TIP3   OH234354   4.276   4.667   2.519
11466TIP3    H134355   4.294   4.587   2.469
11466TIP3    H234356   4.236   4.636   2.600
11467TIP3   OH234357   5.278   1.657   0.612
11467TIP3    H134358   5.267   1.615   0.527
11467TIP3    H234359   5.328   1.594   0.663
11468TIP3   OH234360   0.178   2.607   5.686
11468TIP3    H134361   0.154   2.553   5.611
11468TIP3    H234362   0.226   2.548   5.744
11469TIP3   OH234363   4.178   3.912   0.846
11469TIP3    H134364   4.140   3.826   0.827
11469TIP3    H234365   4.242   3.896   0.914
11470TIP3   OH234366   0.580   4.257   1.456
11470TIP3    H134367   0.593   4.300   1.372
11470TIP3    H234368   0.492   4.285   1.484
11471TIP3   OH234369   7.474   1.957   2.804
11471TIP3    H134370   7.565   1.941   2.830
11471TIP3    H234371   7.422   1.911   2.870
11472TIP3   OH234372   0.258   0.084   1.533
11472TIP3    H134373   0.316   0.122   1.466
11472TIP3    H234374   0.207   0.159   1.565
11473TIP3   OH234375   6.955   2.880   2.326
11473TIP3    H134376   6.900   2.810   2.359
11473TIP3    H234377   7.044   2.853   2.348
11474TIP3   OH234378   4.192   0.804   5.971
11474TIP3    H134379   4.185   0.899   5.964
11474TIP3    H234380   4.283   0.785   5.950
11475TIP3   OH234381   2.571   5.601   6.164
11475TIP3    H134382   2.624   5.521   6.163
11475TIP3    H234383   2.586   5.639   6.250
11476TIP3   OH234384   1.916   2.305   1.556
11476TIP3    H134385   1.840   2.254   1.584
11476TIP3    H234386   1.879   2.389   1.528
11477TIP3   OH234387   2.089   7.684   2.442
11477TIP3    H134388   2.162   7.702   2.502
11477TIP3    H234389   2.091   7.757   2.380
11478TIP3   OH234390   6.332   1.514   4.272
11478TIP3    H134391   6.360   1.544   4.359
11478TIP3    H234392   6.411   1.516   4.218
11479TIP3   OH234393   0.167   0.452   5.461
11479TIP3    H134394   0.114   0.530   5.445
11479TIP3    H234395   0.137   0.389   5.395
11480TIP3   OH234396   7.358   0.453   1.705
11480TIP3    H134397   7.329   0.536   1.742
11480TIP3    H234398   7.282   0.396   1.713
11481TIP3   OH234399   2.467   4.136   2.300
11481TIP3    H134400   2.537   4.137   2.234
11481TIP3    H234401   2.441   4.228   2.308
11482TIP3   OH234402   3.870   6.639   1.999
11482TIP3    H134403   3.857   6.569   2.063
11482TIP3    H234404   3.785   6.683   1.995
11483TIP3   OH234405   1.897   1.153   0.384
11483TIP3    H134406   1.977   1.118   0.423
11483TIP3    H234407   1.927   1.199   0.306
11484TIP3   OH234408   1.455   6.889   3.407
11484TIP3    H134409   1.392   6.908   3.337
11484TIP3    H234410   1.532   6.855   3.361
11485TIP3   OH234411   7.019   5.873   6.200
11485TIP3    H134412   6.945   5.833   6.247
11485TIP3    H234413   6.989   5.962   6.180
11486TIP3   OH234414   5.622   4.408   2.607
11486TIP3    H134415   5.593   4.493   2.640
11486TIP3    H234416   5.549   4.376   2.555
11487TIP3   OH234417   6.763   6.144   1.981
11487TIP3    H134418   6.802   6.056   1.976
11487TIP3    H234419   6.758   6.173   1.890
11488TIP3   OH234420   6.464   4.801   4.421
11488TIP3    H134421   6.529   4.842   4.479
11488TIP3    H234422   6.501   4.715   4.402
11489TIP3   OH234423   1.333   6.983   4.688
11489TIP3    H134424   1.359   6.914   4.628
11489TIP3    H234425   1.237   6.980   4.689
11490TIP3   OH234426   2.462   1.640   5.240
11490TIP3    H134427   2.493   1.605   5.323
11490TIP3    H234428   2.368   1.656   5.253
11491TIP3   OH234429   0.824   1.993   6.555
11491TIP3    H134430   0.839   1.910   6.599
11491TIP3    H234431   0.772   2.044   6.616
11492TIP3   OH234432   4.237   3.254   3.874
11492TIP3    H134433   4.265   3.257   3.782
11492TIP3    H234434   4.175   3.327   3.883
11493TIP3   OH234435   6.177   3.644   1.191
11493TIP3    H134436   6.154   3.576   1.128
11493TIP3    H234437   6.268   3.624   1.216
11494TIP3   OH234438   5.883   0.969   2.981
11494TIP3    H134439   5.824   1.044   2.985
11494TIP3    H234440   5.920   0.971   2.893
11495TIP3   OH234441   1.477   1.739   3.448
11495TIP3    H134442   1.556   1.735   3.502
11495TIP3    H234443   1.452   1.648   3.435
11496TIP3   OH234444   3.559   4.622   4.214
11496TIP3    H134445   3.528   4.712   4.221
11496TIP3    H234446   3.525   4.592   4.130
11497TIP3   OH234447   3.609   6.309   3.277
11497TIP3    H134448   3.554   6.347   3.209
11497TIP3    H234449   3.660   6.382   3.311
11498TIP3   OH234450   6.290   7.564   2.385
11498TIP3    H134451   6.254   7.519   2.309
11498TIP3    H234452   6.220   7.623   2.414
11499TIP3   OH234453   5.329   5.683   4.256
11499TIP3    H134454   5.399   5.642   4.306
11499TIP3    H234455   5.370   5.711   4.174
11500TIP3   OH234456   3.756   6.035   1.127
11500TIP3    H134457   3.848   6.011   1.123
11500TIP3    H234458   3.754   6.127   1.102
11501TIP3   OH234459   8.170   5.358   5.162
11501TIP3    H134460   8.098   5.389   5.216
11501TIP3    H234461   8.238   5.333   5.224
11502TIP3   OH234462   5.681   3.044   4.975
11502TIP3    H134463   5.690   3.041   4.880
11502TIP3    H234464   5.609   3.105   4.991
11503TIP3   OH234465   5.919   3.949   0.730
11503TIP3    H134466   5.831   3.911   0.732
11503TIP3    H234467   5.964   3.902   0.660
11504TIP3   OH234468   2.662   3.927   3.463
11504TIP3    H134469   2.716   3.991   3.417
11504TIP3    H234470   2.572   3.956   3.449
11505TIP3   OH234471   3.865   2.098   2.838
11505TIP3    H134472   3.836   2.007   2.848
11505TIP3    H234473   3.784   2.148   2.829
11506TIP3   OH234474   5.888   2.861   5.487
11506TIP3    H134475   5.823   2.837   5.552
11506TIP3    H234476   5.910   2.952   5.507
11507TIP3   OH234477   1.638   3.010   1.036
11507TIP3    H134478   1.595   3.095   1.049
11507TIP3    H234479   1.721   3.017   1.085
11508TIP3   OH234480   7.708   1.620   1.316
11508TIP3    H134481   7.636   1.675   1.287
11508TIP3    H234482   7.675   1.531   1.309
11509TIP3   OH234483   5.358   5.013   4.922
11509TIP3    H134484   5.371   4.947   4.853
11509TIP3    H234485   5.324   5.090   4.875
11510TIP3   OH234486   5.667   6.867   2.961
11510TIP3    H134487   5.614   6.903   3.032
11510TIP3    H234488   5.635   6.913   2.883
11511TIP3   OH234489   2.436   5.238   3.489
11511TIP3    H134490   2.465   5.327   3.474
11511TIP3    H234491   2.351   5.247   3.533
11512TIP3   OH234492   3.100   4.303   5.099
11512TIP3    H134493   3.125   4.242   5.169
11512TIP3    H234494   3.024   4.262   5.058
11513TIP3   OH234495   4.563   0.428   5.528
11513TIP3    H134496   4.477   0.388   5.521
11513TIP3    H234497   4.551   0.500   5.589
11514TIP3   OH234498   4.380   3.632   4.677
11514TIP3    H134499   4.359   3.690   4.750
11514TIP3    H234500   4.295   3.608   4.640
11515TIP3   OH234501   3.147   3.047   3.510
11515TIP3    H134502   3.106   3.073   3.427
11515TIP3    H234503   3.133   2.953   3.515
11516TIP3   OH234504   5.963   3.448   1.287
11516TIP3    H134505   6.013   3.406   1.217
11516TIP3    H234506   5.955   3.539   1.259
11517TIP3   OH234507   4.086   5.105   5.698
11517TIP3    H134508   3.998   5.141   5.710
11517TIP3    H234509   4.120   5.149   5.621
11518TIP3   OH234510   0.451   3.999   3.754
11518TIP3    H134511   0.461   4.038   3.667
11518TIP3    H234512   0.363   3.961   3.754
11519TIP3   OH234513   6.053   2.424   3.071
11519TIP3    H134514   6.095   2.473   3.000
11519TIP3    H234515   6.126   2.401   3.129
11520TIP3   OH234516   4.717   1.288   1.473
11520TIP3    H134517   4.772   1.327   1.404
11520TIP3    H234518   4.693   1.202   1.438
11521TIP3   OH234519   1.347   5.772   5.586
11521TIP3    H134520   1.299   5.733   5.513
11521TIP3    H234521   1.289   5.839   5.620
11522TIP3   OH234522   1.833   5.651   0.300
11522TIP3    H134523   1.823   5.688   0.388
11522TIP3    H234524   1.818   5.557   0.312
11523TIP3   OH234525   7.803   4.579   2.948
11523TIP3    H134526   7.872   4.635   2.912
11523TIP3    H234527   7.737   4.640   2.980
11524TIP3   OH234528   7.400   6.065   4.767
11524TIP3    H134529   7.449   6.006   4.710
11524TIP3    H234530   7.452   6.146   4.767
11525TIP3   OH234531   5.292   4.896   3.028
11525TIP3    H134532   5.197   4.897   3.016
11525TIP3    H234533   5.317   4.805   3.012
11526TIP3   OH234534   6.243   1.583   3.584
11526TIP3    H134535   6.215   1.666   3.546
11526TIP3    H234536   6.326   1.562   3.541
11527TIP3   OH234537   3.493   0.573   1.988
11527TIP3    H134538   3.517   0.513   2.058
11527TIP3    H234539   3.509   0.524   1.907
11528TIP3   OH234540   1.090   6.741   1.139
11528TIP3    H134541   1.110   6.788   1.220
11528TIP3    H234542   1.143   6.662   1.143
11529TIP3   OH234543   5.006   2.439   3.433
11529TIP3    H134544   4.974   2.474   3.350
11529TIP3    H234545   5.068   2.371   3.408
11530TIP3   OH234546   6.958   4.083   5.512
11530TIP3    H134547   6.949   4.119   5.600
11530TIP3    H234548   6.942   4.157   5.453
11531TIP3   OH234549   7.470   0.930   0.658
11531TIP3    H134550   7.475   0.964   0.568
11531TIP3    H234551   7.559   0.941   0.693
11532TIP3   OH234552   1.586   7.100   3.725
11532TIP3    H134553   1.502   7.066   3.693
11532TIP3    H234554   1.564   7.181   3.769
11533TIP3   OH234555   3.801   6.640   4.549
11533TIP3    H134556   3.784   6.585   4.625
11533TIP3    H234557   3.843   6.718   4.584
11534TIP3   OH234558   3.551   3.502   3.508
11534TIP3    H134559   3.455   3.499   3.515
11534TIP3    H234560   3.570   3.591   3.478
11535TIP3   OH234561   0.174   0.144   6.063
11535TIP3    H134562   0.227   0.089   6.121
11535TIP3    H234563   0.195   0.234   6.089
11536TIP3   OH234564   1.389   7.776   0.877
11536TIP3    H134565   1.371   7.805   0.967
11536TIP3    H234566   1.474   7.733   0.882
11537TIP3   OH234567   7.592   2.539   3.418
11537TIP3    H134568   7.564   2.522   3.328
11537TIP3    H234569   7.514   2.574   3.461
11538TIP3   OH234570   2.039   7.254   2.928
11538TIP3    H134571   2.059   7.320   2.862
11538TIP3    H234572   2.081   7.287   3.008
11539TIP3   OH234573   4.113   3.208   0.939
11539TIP3    H134574   4.147   3.272   0.877
11539TIP3    H234575   4.163   3.128   0.922
11540TIP3   OH234576   8.005   3.107   4.473
11540TIP3    H134577   8.031   3.199   4.484
11540TIP3    H234578   7.911   3.110   4.458
11541TIP3   OH234579   0.498   4.069   1.737
11541TIP3    H134580   0.588   4.096   1.716
11541TIP3    H234581   0.507   4.015   1.815
11542TIP3   OH234582   2.083   2.669   2.731
11542TIP3    H134583   2.079   2.576   2.755
11542TIP3    H234584   2.175   2.693   2.744
11543TIP3   OH234585   1.052   4.766   6.265
11543TIP3    H134586   1.064   4.842   6.208
11543TIP3    H234587   1.057   4.802   6.354
11544TIP3   OH234588   6.432   7.364   2.212
11544TIP3    H134589   6.343   7.390   2.186
11544TIP3    H234590   6.451   7.288   2.156
11545TIP3   OH234591   6.716   2.475   2.817
11545TIP3    H134592   6.704   2.381   2.805
11545TIP3    H234593   6.641   2.515   2.772
11546TIP3   OH234594   0.715   7.798   5.553
11546TIP3    H134595   0.683   7.804   5.643
11546TIP3    H234596   0.694   7.883   5.515
11547TIP3   OH234597   7.821   5.625   0.383
11547TIP3    H134598   7.839   5.550   0.440
11547TIP3    H234599   7.780   5.586   0.305
11548TIP3   OH234600   2.813   6.345   0.248
11548TIP3    H134601   2.845   6.372   0.334
11548TIP3    H234602   2.752   6.273   0.267
11549TIP3   OH234603   2.105   7.355   4.889
11549TIP3    H134604   2.025   7.383   4.844
11549TIP3    H234605   2.135   7.279   4.839
11550TIP3   OH234606   2.223   1.605   5.338
11550TIP3    H134607   2.144   1.636   5.293
11550TIP3    H234608   2.192   1.575   5.423
11551TIP3   OH234609   3.154   4.356   4.742
11551TIP3    H134610   3.216   4.283   4.742
11551TIP3    H234611   3.208   4.433   4.761
11552TIP3   OH234612   7.689   5.418   2.610
11552TIP3    H134613   7.714   5.469   2.687
11552TIP3    H234614   7.695   5.479   2.537
11553TIP3   OH234615   5.061   1.699   2.463
11553TIP3    H134616   4.990   1.648   2.503
11553TIP3    H234617   5.052   1.786   2.500
11554TIP3   OH234618   5.509   1.689   2.117
11554TIP3    H134619   5.583   1.671   2.175
11554TIP3    H234620   5.438   1.634   2.150
11555TIP3   OH234621   6.557   1.819   6.523
11555TIP3    H134622   6.626   1.755   6.537
11555TIP3    H234623   6.493   1.775   6.468
11556TIP3   OH234624   5.834   6.535   3.096
11556TIP3    H134625   5.787   6.452   3.091
11556TIP3    H234626   5.865   6.550   3.006
11557TIP3   OH234627   4.044   0.947   0.594
11557TIP3    H134628   4.012   0.862   0.565
11557TIP3    H234629   4.134   0.929   0.624
11558TIP3   OH234630   8.189   0.828   0.249
11558TIP3    H134631   8.217   0.919   0.243
11558TIP3    H234632   8.101   0.827   0.212
11559TIP3   OH234633   0.313   0.973   0.797
11559TIP3    H134634   0.235   0.947   0.846
11559TIP3    H234635   0.355   1.039   0.852
11560TIP3   OH234636   3.222   2.565   2.759
11560TIP3    H134637   3.255   2.654   2.770
11560TIP3    H234638   3.245   2.519   2.840
11561TIP3   OH234639   6.070   3.293   1.753
11561TIP3    H134640   5.987   3.285   1.707
11561TIP3    H234641   6.064   3.377   1.799
11562TIP3   OH234642   1.064   7.538   2.034
11562TIP3    H134643   0.990   7.530   2.094
11562TIP3    H234644   1.141   7.521   2.088
11563TIP3   OH234645   5.425   1.295   0.729
11563TIP3    H134646   5.449   1.214   0.684
11563TIP3    H234647   5.475   1.364   0.684
11564TIP3   OH234648   1.742   6.908   3.998
11564TIP3    H134649   1.816   6.916   3.938
11564TIP3    H234650   1.733   6.996   4.035
11565TIP3   OH234651   5.020   3.712   0.023
11565TIP3    H134652   4.996   3.803   0.008
11565TIP3    H234653   4.993   3.666  -0.057
11566TIP3   OH234654   3.471   4.770   0.491
11566TIP3    H134655   3.397   4.760   0.431
11566TIP3    H234656   3.541   4.807   0.438
11567TIP3   OH234657   5.245   3.810   5.978
11567TIP3    H134658   5.307   3.879   5.955
11567TIP3    H234659   5.262   3.791   6.070
11568TIP3   OH234660   1.820   1.990   5.080
11568TIP3    H134661   1.794   1.916   5.025
11568TIP3    H234662   1.752   2.056   5.064
11569TIP3   OH234663   5.885   6.605   4.631
11569TIP3    H134664   5.885   6.608   4.535
11569TIP3    H234665   5.965   6.651   4.657
11570TIP3   OH234666   3.499   1.728   2.967
11570TIP3    H134667   3.436   1.672   3.013
11570TIP3    H234668   3.445   1.794   2.923
11571TIP3   OH234669   0.500   2.565   2.547
11571TIP3    H134670   0.572   2.515   2.585
11571TIP3    H234671   0.540   2.648   2.521
11572TIP3   OH234672   6.648   3.363   3.957
11572TIP3    H134673   6.714   3.352   4.025
11572TIP3    H234674   6.627   3.456   3.959
11573TIP3   OH234675   7.654   4.224   4.429
11573TIP3    H134676   7.713   4.286   4.385
11573TIP3    H234677   7.609   4.179   4.357
11574TIP3   OH234678   0.304   6.381   6.680
11574TIP3    H134679   0.226   6.373   6.736
11574TIP3    H234680   0.377   6.359   6.738
11575TIP3   OH234681   4.853   4.399   4.620
11575TIP3    H134682   4.772   4.369   4.578
11575TIP3    H234683   4.899   4.319   4.644
11576TIP3   OH234684   6.801   5.668   1.843
11576TIP3    H134685   6.874   5.628   1.795
11576TIP3    H234686   6.728   5.666   1.782
11577TIP3   OH234687   0.700   3.923   4.862
11577TIP3    H134688   0.699   3.888   4.951
11577TIP3    H234689   0.635   3.870   4.814
11578TIP3   OH234690   1.092   5.141   1.446
11578TIP3    H134691   1.113   5.048   1.453
11578TIP3    H234692   1.091   5.172   1.537
11579TIP3   OH234693   6.894   6.458   1.551
11579TIP3    H134694   6.945   6.539   1.548
11579TIP3    H234695   6.911   6.415   1.468
11580TIP3   OH234696   3.317   2.794   5.596
11580TIP3    H134697   3.289   2.871   5.645
11580TIP3    H234698   3.314   2.821   5.504
11581TIP3   OH234699   5.138   6.747   6.233
11581TIP3    H134700   5.199   6.741   6.307
11581TIP3    H234701   5.105   6.658   6.223
11582TIP3   OH234702   6.943   5.818   0.285
11582TIP3    H134703   6.853   5.835   0.310
11582TIP3    H234704   6.992   5.893   0.320
11583TIP3   OH234705   7.927   0.381   2.748
11583TIP3    H134706   7.975   0.463   2.737
11583TIP3    H234707   7.996   0.315   2.759
11584TIP3   OH234708   0.437   2.874   3.394
11584TIP3    H134709   0.406   2.785   3.381
11584TIP3    H234710   0.439   2.885   3.489
11585TIP3   OH234711   5.209   2.484   0.171
11585TIP3    H134712   5.219   2.486   0.076
11585TIP3    H234713   5.282   2.431   0.202
11586TIP3   OH234714   8.221   6.359   1.694
11586TIP3    H134715   8.266   6.293   1.642
11586TIP3    H234716   8.196   6.426   1.631
11587TIP3   OH234717   1.151   7.117   1.291
11587TIP3    H134718   1.186   7.112   1.201
11587TIP3    H234719   1.120   7.207   1.299
11588TIP3   OH234720   7.181   5.552   2.744
11588TIP3    H134721   7.268   5.582   2.719
11588TIP3    H234722   7.155   5.610   2.815
11589TIP3   OH234723   6.775   6.645   1.840
11589TIP3    H134724   6.731   6.607   1.916
11589TIP3    H234725   6.708   6.645   1.772
11590TIP3   OH234726   3.207   5.002   6.653
11590TIP3    H134727   3.189   4.935   6.719
11590TIP3    H234728   3.152   4.977   6.578
11591TIP3   OH234729   3.781   0.836   5.195
11591TIP3    H134730   3.750   0.778   5.265
11591TIP3    H234731   3.747   0.922   5.218
11592TIP3   OH234732   3.064   4.514   1.764
11592TIP3    H134733   3.097   4.534   1.852
11592TIP3    H234734   3.141   4.488   1.715
11593TIP3   OH234735   3.621   1.805   2.472
11593TIP3    H134736   3.675   1.747   2.526
11593TIP3    H234737   3.678   1.880   2.452
11594TIP3   OH234738   1.421   6.962   4.958
11594TIP3    H134739   1.452   7.046   4.990
11594TIP3    H234740   1.371   6.982   4.878
11595TIP3   OH234741   1.852   4.729   4.035
11595TIP3    H134742   1.873   4.822   4.021
11595TIP3    H234743   1.864   4.689   3.948
11596TIP3   OH234744   5.575   2.031   3.191
11596TIP3    H134745   5.502   2.011   3.132
11596TIP3    H234746   5.598   1.946   3.230
11597TIP3   OH234747   2.930   1.434   6.269
11597TIP3    H134748   2.914   1.430   6.175
11597TIP3    H234749   2.998   1.501   6.279
11598TIP3   OH234750   2.717   2.724   6.041
11598TIP3    H134751   2.674   2.735   5.956
11598TIP3    H234752   2.737   2.630   6.046
11599TIP3   OH234753   4.591   6.618   6.551
11599TIP3    H134754   4.626   6.532   6.575
11599TIP3    H234755   4.669   6.674   6.545
11600TIP3   OH234756   7.523   4.996   6.175
11600TIP3    H134757   7.592   5.037   6.227
11600TIP3    H234758   7.511   4.910   6.215
11601TIP3   OH234759   2.123   6.710   5.586
11601TIP3    H134760   2.143   6.801   5.606
11601TIP3    H234761   2.090   6.711   5.496
11602TIP3   OH234762   6.293   0.800   3.027
11602TIP3    H134763   6.348   0.806   3.106
11602TIP3    H234764   6.356   0.804   2.954
11603TIP3   OH234765   4.893   6.194   5.857
11603TIP3    H134766   4.966   6.183   5.918
11603TIP3    H234767   4.934   6.197   5.771
11604TIP3   OH234768   0.049   5.973   3.770
11604TIP3    H134769   0.071   5.882   3.754
11604TIP3    H234770  -0.047   5.976   3.768
11605TIP3   OH234771   7.724   5.113   4.771
11605TIP3    H134772   7.811   5.072   4.772
11605TIP3    H234773   7.670   5.055   4.824
11606TIP3   OH234774   5.547   4.570   0.621
11606TIP3    H134775   5.642   4.559   0.630
11606TIP3    H234776   5.515   4.482   0.599
11607TIP3   OH234777   4.804   1.250   2.525
11607TIP3    H134778   4.744   1.286   2.590
11607TIP3    H234779   4.749   1.197   2.467
11608TIP3   OH234780   5.072   7.280   6.393
11608TIP3    H134781   4.990   7.330   6.392
11608TIP3    H234782   5.053   7.202   6.341
11609TIP3   OH234783   2.956   1.329   6.771
11609TIP3    H134784   2.981   1.275   6.696
11609TIP3    H234785   2.999   1.288   6.846
11610TIP3   OH234786   0.839   3.140   5.360
11610TIP3    H134787   0.794   3.199   5.299
11610TIP3    H234788   0.849   3.192   5.440
11611TIP3   OH234789   3.275   1.843   0.165
11611TIP3    H134790   3.347   1.904   0.149
11611TIP3    H234791   3.209   1.896   0.210
11612TIP3   OH234792   0.585   6.835   2.615
11612TIP3    H134793   0.656   6.810   2.674
11612TIP3    H234794   0.532   6.756   2.607
11613TIP3   OH234795   7.041   2.658   6.526
11613TIP3    H134796   7.079   2.573   6.505
11613TIP3    H234797   7.055   2.711   6.447
11614TIP3   OH234798   1.716   6.865   1.786
11614TIP3    H134799   1.773   6.867   1.862
11614TIP3    H234800   1.741   6.785   1.739
11615TIP3   OH234801   1.462   2.888   6.777
11615TIP3    H134802   1.410   2.897   6.697
11615TIP3    H234803   1.507   2.804   6.767
11616TIP3   OH234804   4.093   3.831   2.012
11616TIP3    H134805   4.002   3.858   2.007
11616TIP3    H234806   4.137   3.881   1.943
11617TIP3   OH234807   3.935   4.812   5.601
11617TIP3    H134808   3.855   4.866   5.602
11617TIP3    H234809   4.002   4.870   5.565
11618TIP3   OH234810   7.577   4.386   3.019
11618TIP3    H134811   7.664   4.350   3.001
11618TIP3    H234812   7.519   4.310   3.015
11619TIP3   OH234813   5.021   0.597   6.258
11619TIP3    H134814   4.990   0.630   6.342
11619TIP3    H234815   4.968   0.520   6.240
11620TIP3   OH234816   5.105   0.063   0.320
11620TIP3    H134817   5.154   0.020   0.391
11620TIP3    H234818   5.073  -0.009   0.266
11621TIP3   OH234819   5.650   2.384   4.393
11621TIP3    H134820   5.635   2.463   4.444
11621TIP3    H234821   5.569   2.373   4.342
11622TIP3   OH234822   5.755   7.474   2.273
11622TIP3    H134823   5.791   7.531   2.205
11622TIP3    H234824   5.779   7.386   2.246
11623TIP3   OH234825   3.106   6.901   6.111
11623TIP3    H134826   3.196   6.903   6.144
11623TIP3    H234827   3.094   6.986   6.069
11624TIP3   OH234828   4.911   3.531   1.066
11624TIP3    H134829   4.990   3.482   1.042
11624TIP3    H234830   4.917   3.612   1.016
11625TIP3   OH234831   1.427   2.160   0.933
11625TIP3    H134832   1.522   2.166   0.917
11625TIP3    H234833   1.404   2.247   0.967
11626TIP3   OH234834   0.316   0.894   0.530
11626TIP3    H134835   0.297   0.921   0.620
11626TIP3    H234836   0.279   0.963   0.476
11627TIP3   OH234837   4.203   4.591   0.412
11627TIP3    H134838   4.160   4.603   0.497
11627TIP3    H234839   4.199   4.496   0.396
11628TIP3   OH234840   7.794   4.739   1.942
11628TIP3    H134841   7.771   4.653   1.980
11628TIP3    H234842   7.710   4.775   1.915
11629TIP3   OH234843   5.076   0.245   4.229
11629TIP3    H134844   4.991   0.232   4.271
11629TIP3    H234845   5.056   0.251   4.136
11630TIP3   OH234846   1.242   7.032   5.809
11630TIP3    H134847   1.185   7.055   5.735
11630TIP3    H234848   1.270   6.942   5.791
11631TIP3   OH234849   2.343   3.249   1.824
11631TIP3    H134850   2.401   3.184   1.862
11631TIP3    H234851   2.354   3.327   1.878
11632TIP3   OH234852   0.429   4.988   1.078
11632TIP3    H134853   0.458   4.906   1.117
11632TIP3    H234854   0.334   4.982   1.075
11633TIP3   OH234855   3.341   2.874   6.163
11633TIP3    H134856   3.276   2.907   6.225
11633TIP3    H234857   3.367   2.950   6.112
11634TIP3   OH234858   7.953   6.094   0.180
11634TIP3    H134859   8.015   6.094   0.253
11634TIP3    H234860   7.941   6.186   0.158
11635TIP3   OH234861   6.372   0.839   5.132
11635TIP3    H134862   6.448   0.804   5.085
11635TIP3    H234863   6.353   0.773   5.199
11636TIP3   OH234864   3.929   0.042   3.345
11636TIP3    H134865   3.956   0.132   3.360
11636TIP3    H234866   3.887   0.016   3.427
11637TIP3   OH234867   1.671   1.291   2.107
11637TIP3    H134868   1.671   1.356   2.178
11637TIP3    H234869   1.685   1.343   2.027
11638TIP3   OH234870   3.320   0.731   4.358
11638TIP3    H134871   3.332   0.710   4.266
11638TIP3    H234872   3.405   0.713   4.399
11639TIP3   OH234873   5.119   6.968   1.638
11639TIP3    H134874   5.072   6.888   1.663
11639TIP3    H234875   5.179   6.940   1.569
11640TIP3   OH234876   5.529   5.916   1.856
11640TIP3    H134877   5.489   5.829   1.864
11640TIP3    H234878   5.455   5.977   1.860
11641TIP3   OH234879   6.249   3.007   6.723
11641TIP3    H134880   6.277   3.035   6.636
11641TIP3    H234881   6.330   2.988   6.770
11642TIP3   OH234882   0.797   3.573   4.947
11642TIP3    H134883   0.742   3.544   4.874
11642TIP3    H234884   0.735   3.608   5.011
11643TIP3   OH234885   6.918   2.505   3.658
11643TIP3    H134886   6.931   2.538   3.747
11643TIP3    H234887   6.823   2.497   3.649
11644TIP3   OH234888   7.000   2.408   4.317
11644TIP3    H134889   7.005   2.336   4.254
11644TIP3    H234890   7.088   2.415   4.353
11645TIP3   OH234891   4.810   6.548   0.544
11645TIP3    H134892   4.806   6.452   0.540
11645TIP3    H234893   4.824   6.567   0.636
11646TIP3   OH234894   5.058   0.656   5.984
11646TIP3    H134895   4.991   0.724   5.975
11646TIP3    H234896   5.048   0.626   6.074
11647TIP3   OH234897   5.760   5.090   3.007
11647TIP3    H134898   5.791   5.180   3.011
11647TIP3    H234899   5.751   5.072   2.914
11648TIP3   OH234900   6.970   5.246   2.921
11648TIP3    H134901   6.953   5.291   2.838
11648TIP3    H234902   7.044   5.189   2.903
11649TIP3   OH234903   0.433   3.385   3.053
11649TIP3    H134904   0.364   3.429   3.003
11649TIP3    H234905   0.481   3.456   3.095
11650TIP3   OH234906   7.979   1.524   6.471
11650TIP3    H134907   8.038   1.449   6.456
11650TIP3    H234908   8.030   1.600   6.443
11651TIP3   OH234909   7.473   2.650   5.957
11651TIP3    H134910   7.433   2.671   6.042
11651TIP3    H234911   7.567   2.662   5.972
11652TIP3   OH234912   7.337   0.389   1.399
11652TIP3    H134913   7.312   0.480   1.411
11652TIP3    H234914   7.396   0.370   1.473
11653TIP3   OH234915   3.755   5.128   2.568
11653TIP3    H134916   3.662   5.145   2.580
11653TIP3    H234917   3.782   5.187   2.498
11654TIP3   OH234918   1.252   0.041   5.736
11654TIP3    H134919   1.222   0.065   5.823
11654TIP3    H234920   1.184  -0.017   5.702
11655TIP3   OH234921   7.786   4.009   3.345
11655TIP3    H134922   7.775   4.094   3.302
11655TIP3    H234923   7.768   4.026   3.437
11656TIP3   OH234924   5.752   0.499   2.306
11656TIP3    H134925   5.692   0.506   2.380
11656TIP3    H234926   5.708   0.443   2.243
11657TIP3   OH234927   5.184   3.391   2.605
11657TIP3    H134928   5.197   3.307   2.649
11657TIP3    H234929   5.266   3.438   2.620
11658TIP3   OH234930   4.483   7.631   3.263
11658TIP3    H134931   4.557   7.584   3.301
11658TIP3    H234932   4.522   7.710   3.225
11659TIP3   OH234933   1.278   5.627   2.250
11659TIP3    H134934   1.319   5.602   2.333
11659TIP3    H234935   1.350   5.657   2.195
11660TIP3   OH234936   3.577   6.773   0.385
11660TIP3    H134937   3.505   6.717   0.356
11660TIP3    H234938   3.649   6.751   0.325
11661TIP3   OH234939   5.120   4.097   2.660
11661TIP3    H134940   5.074   4.137   2.734
11661TIP3    H234941   5.148   4.171   2.606
11662TIP3   OH234942   8.285   1.163   4.865
11662TIP3    H134943   8.236   1.184   4.785
11662TIP3    H234944   8.241   1.211   4.934
11663TIP3   OH234945   8.248   0.332   5.059
11663TIP3    H134946   8.329   0.381   5.047
11663TIP3    H234947   8.243   0.275   4.983
11664TIP3   OH234948   1.977   7.514   4.311
11664TIP3    H134949   1.931   7.488   4.391
11664TIP3    H234950   2.056   7.460   4.310
11665TIP3   OH234951   4.918   2.998   5.823
11665TIP3    H134952   4.898   2.912   5.861
11665TIP3    H234953   4.843   3.017   5.766
11666TIP3   OH234954   1.185   0.763   0.276
11666TIP3    H134955   1.204   0.855   0.294
11666TIP3    H234956   1.254   0.715   0.321
11667TIP3   OH234957   5.231   1.970   3.398
11667TIP3    H134958   5.297   1.902   3.395
11667TIP3    H234959   5.165   1.943   3.333
11668TIP3   OH234960   7.961   4.630   0.840
11668TIP3    H134961   7.878   4.674   0.859
11668TIP3    H234962   8.023   4.668   0.902
11669TIP3   OH234963   0.769   1.456   2.765
11669TIP3    H134964   0.676   1.440   2.781
11669TIP3    H234965   0.807   1.368   2.760
11670TIP3   OH234966   3.233   0.211   4.103
11670TIP3    H134967   3.226   0.263   4.182
11670TIP3    H234968   3.172   0.252   4.041
11671TIP3   OH234969   8.288   5.951   1.409
11671TIP3    H134970   8.276   5.883   1.344
11671TIP3    H234971   8.355   6.009   1.372
11672TIP3   OH234972   3.155   1.307   3.669
11672TIP3    H134973   3.078   1.250   3.666
11672TIP3    H234974   3.199   1.293   3.585
11673TIP3   OH234975   6.773   0.236   6.064
11673TIP3    H134976   6.818   0.298   6.006
11673TIP3    H234977   6.809   0.151   6.040
11674TIP3   OH234978   2.901   3.362   6.461
11674TIP3    H134979   2.905   3.298   6.390
11674TIP3    H234980   2.854   3.437   6.423
11675TIP3   OH234981   0.248   5.486   3.613
11675TIP3    H134982   0.324   5.428   3.613
11675TIP3    H234983   0.172   5.428   3.605
11676TIP3   OH234984   4.516   1.460   4.932
11676TIP3    H134985   4.570   1.389   4.897
11676TIP3    H234986   4.542   1.537   4.881
11677TIP3   OH234987   8.103   3.976   3.422
11677TIP3    H134988   8.155   3.956   3.345
11677TIP3    H234989   8.012   3.974   3.391
11678TIP3   OH234990   2.140   1.473   1.547
11678TIP3    H134991   2.144   1.566   1.570
11678TIP3    H234992   2.232   1.446   1.540
11679TIP3   OH234993   0.150   5.924   6.185
11679TIP3    H134994   0.114   5.979   6.254
11679TIP3    H234995   0.182   5.986   6.120
11680TIP3   OH234996   7.314   5.208   5.144
11680TIP3    H134997   7.394   5.209   5.091
11680TIP3    H234998   7.250   5.256   5.091
11681TIP3   OH234999   0.203   4.797   4.380
11681TIP3    H135000   0.213   4.829   4.290
11681TIP3    H235001   0.109   4.779   4.388
11682TIP3   OH235002   0.561   3.950   1.041
11682TIP3    H135003   0.622   3.960   0.968
11682TIP3    H235004   0.571   3.859   1.069
11683TIP3   OH235005   6.210   0.824   1.089
11683TIP3    H135006   6.234   0.749   1.144
11683TIP3    H235007   6.192   0.787   1.003
11684TIP3   OH235008   7.086   5.444   1.799
11684TIP3    H135009   7.174   5.476   1.779
11684TIP3    H235010   7.060   5.492   1.878
11685TIP3   OH235011   4.518   6.144   4.717
11685TIP3    H135012   4.588   6.083   4.695
11685TIP3    H235013   4.516   6.144   4.813
11686TIP3   OH235014   1.064   2.775   4.640
11686TIP3    H135015   1.071   2.747   4.549
11686TIP3    H235016   1.082   2.869   4.637
11687TIP3   OH235017   3.399   2.550   6.440
11687TIP3    H135018   3.457   2.598   6.498
11687TIP3    H235019   3.436   2.563   6.352
11688TIP3   OH235020   0.939   2.824   2.567
11688TIP3    H135021   0.934   2.747   2.624
11688TIP3    H235022   1.030   2.828   2.540
11689TIP3   OH235023   2.064   2.615   6.469
11689TIP3    H135024   2.007   2.538   6.466
11689TIP3    H235025   2.091   2.622   6.561
11690TIP3   OH235026   6.917   1.238   4.847
11690TIP3    H135027   7.002   1.273   4.875
11690TIP3    H235028   6.902   1.163   4.903
11691TIP3   OH235029   7.842   7.214   4.778
11691TIP3    H135030   7.835   7.282   4.845
11691TIP3    H235031   7.931   7.179   4.789
11692TIP3   OH235032   1.454   0.507   4.482
11692TIP3    H135033   1.451   0.515   4.387
11692TIP3    H235034   1.427   0.593   4.514
11693TIP3   OH235035   7.115   3.249   1.432
11693TIP3    H135036   7.103   3.288   1.519
11693TIP3    H235037   7.172   3.174   1.447
11694TIP3   OH235038   3.165   3.363   6.585
11694TIP3    H135039   3.168   3.458   6.575
11694TIP3    H235040   3.090   3.336   6.531
11695TIP3   OH235041   0.074   7.170   2.676
11695TIP3    H135042   0.071   7.163   2.581
11695TIP3    H235043   0.117   7.089   2.704
11696TIP3   OH235044   3.926   7.103   5.675
11696TIP3    H135045   3.975   7.043   5.731
11696TIP3    H235046   3.864   7.048   5.628
11697TIP3   OH235047   5.954   7.521   6.080
11697TIP3    H135048   5.949   7.515   5.984
11697TIP3    H235049   5.878   7.471   6.111
11698TIP3   OH235050   4.601   0.454   4.253
11698TIP3    H135051   4.520   0.476   4.300
11698TIP3    H235052   4.650   0.537   4.251
11699TIP3   OH235053   1.432   0.663   6.115
11699TIP3    H135054   1.518   0.641   6.151
11699TIP3    H235055   1.378   0.587   6.135
11700TIP3   OH235056   4.357   2.204   2.105
11700TIP3    H135057   4.424   2.204   2.038
11700TIP3    H235058   4.281   2.245   2.064
11701TIP3   OH235059   8.241   1.884   6.189
11701TIP3    H135060   8.153   1.919   6.182
11701TIP3    H235061   8.284   1.911   6.107
11702TIP3   OH235062   5.859   4.472   3.541
11702TIP3    H135063   5.874   4.381   3.567
11702TIP3    H235064   5.771   4.471   3.502
11703TIP3   OH235065  -0.013   0.553   0.944
11703TIP3    H135066   0.061   0.584   0.891
11703TIP3    H235067  -0.013   0.608   1.022
11704TIP3   OH235068   3.451   3.363   0.999
11704TIP3    H135069   3.459   3.270   1.017
11704TIP3    H235070   3.469   3.405   1.083
11705TIP3   OH235071   6.753   0.226   0.914
11705TIP3    H135072   6.683   0.225   0.980
11705TIP3    H235073   6.765   0.319   0.894
11706TIP3   OH235074   3.905   3.221   3.859
11706TIP3    H135075   3.937   3.210   3.770
11706TIP3    H235076   3.918   3.314   3.878
11707TIP3   OH235077   5.514   4.637   2.711
11707TIP3    H135078   5.455   4.653   2.785
11707TIP3    H235079   5.500   4.712   2.653
11708TIP3   OH235080   7.400   7.498   5.105
11708TIP3    H135081   7.443   7.583   5.095
11708TIP3    H235082   7.314   7.509   5.065
11709TIP3   OH235083   4.835   1.383   6.118
11709TIP3    H135084   4.899   1.393   6.047
11709TIP3    H235085   4.877   1.420   6.195
11710TIP3   OH235086   0.945   1.408   6.197
11710TIP3    H135087   1.040   1.403   6.206
11710TIP3    H235088   0.927   1.501   6.183
11711TIP3   OH235089   8.199   6.989   1.183
11711TIP3    H135090   8.239   7.024   1.103
11711TIP3    H235091   8.120   7.042   1.195
11712TIP3   OH235092   1.820   4.964   6.199
11712TIP3    H135093   1.799   4.963   6.105
11712TIP3    H235094   1.764   5.033   6.234
11713TIP3   OH235095   0.616   0.074   0.913
11713TIP3    H135096   0.590   0.010   0.847
11713TIP3    H235097   0.639   0.152   0.863
11714TIP3   OH235098   6.059   3.278   4.391
11714TIP3    H135099   5.988   3.214   4.390
11714TIP3    H235100   6.023   3.355   4.348
11715TIP3   OH235101   1.852   0.766   4.252
11715TIP3    H135102   1.772   0.814   4.232
11715TIP3    H235103   1.890   0.812   4.326
11716TIP3   OH235104   2.806   0.678   1.994
11716TIP3    H135105   2.884   0.636   1.958
11716TIP3    H235106   2.816   0.770   1.972
11717TIP3   OH235107   5.101   0.318   5.990
11717TIP3    H135108   5.123   0.404   5.954
11717TIP3    H235109   5.137   0.320   6.079
11718TIP3   OH235110   8.118   5.769   2.557
11718TIP3    H135111   8.210   5.749   2.545
11718TIP3    H235112   8.111   5.796   2.649
11719TIP3   OH235113   6.268   6.581   6.571
11719TIP3    H135114   6.208   6.649   6.600
11719TIP3    H235115   6.355   6.612   6.598
11720TIP3   OH235116   0.455   1.580   3.761
11720TIP3    H135117   0.369   1.546   3.787
11720TIP3    H235118   0.496   1.608   3.843
11721TIP3   OH235119   6.443   7.252   4.830
11721TIP3    H135120   6.412   7.233   4.741
11721TIP3    H235121   6.373   7.220   4.887
11722TIP3   OH235122   3.849   5.505   1.331
11722TIP3    H135123   3.762   5.487   1.295
11722TIP3    H235124   3.909   5.466   1.267
11723TIP3   OH235125   4.843   0.125   4.934
11723TIP3    H135126   4.856   0.043   4.886
11723TIP3    H235127   4.864   0.194   4.871
11724TIP3   OH235128   5.575   3.292   2.498
11724TIP3    H135129   5.624   3.211   2.510
11724TIP3    H235130   5.518   3.275   2.423
11725TIP3   OH235131   2.402   6.985   6.265
11725TIP3    H135132   2.355   6.980   6.182
11725TIP3    H235133   2.376   7.070   6.302
11726TIP3   OH235134   0.114   4.295   6.113
11726TIP3    H135135   0.171   4.273   6.040
11726TIP3    H235136   0.101   4.390   6.107
11727TIP3   OH235137   1.917   6.993   2.413
11727TIP3    H135138   1.873   6.953   2.487
11727TIP3    H235139   1.987   6.931   2.390
11728TIP3   OH235140   1.305   2.751   3.503
11728TIP3    H135141   1.300   2.702   3.421
11728TIP3    H235142   1.273   2.839   3.481
11729TIP3   OH235143   0.664   3.024   2.292
11729TIP3    H135144   0.632   3.065   2.372
11729TIP3    H235145   0.760   3.027   2.300
11730TIP3   OH235146   4.152   0.541   5.846
11730TIP3    H135147   4.076   0.503   5.890
11730TIP3    H235148   4.148   0.634   5.866
11731TIP3   OH235149   6.266   4.906   5.955
11731TIP3    H135150   6.179   4.946   5.953
11731TIP3    H235151   6.259   4.837   6.021
11732TIP3   OH235152   7.752   4.212   3.884
11732TIP3    H135153   7.808   4.175   3.953
11732TIP3    H235154   7.668   4.169   3.897
11733TIP3   OH235155   5.927   3.754   1.958
11733TIP3    H135156   5.965   3.796   1.880
11733TIP3    H235157   5.833   3.760   1.945
11734TIP3   OH235158   7.630   0.096   5.495
11734TIP3    H135159   7.671   0.181   5.512
11734TIP3    H235160   7.653   0.076   5.404
11735TIP3   OH235161   7.943   0.561   0.521
11735TIP3    H135162   7.961   0.549   0.428
11735TIP3    H235163   7.868   0.621   0.523
11736TIP3   OH235164   2.666   5.541   4.803
11736TIP3    H135165   2.739   5.547   4.741
11736TIP3    H235166   2.593   5.509   4.750
11737TIP3   OH235167   2.545   2.519   6.496
11737TIP3    H135168   2.541   2.495   6.403
11737TIP3    H235169   2.567   2.436   6.540
11738TIP3   OH235170   0.960   5.410   4.040
11738TIP3    H135171   1.040   5.445   4.001
11738TIP3    H235172   0.991   5.339   4.097
11739TIP3   OH235173   3.405   6.993   0.754
11739TIP3    H135174   3.397   7.031   0.841
11739TIP3    H235175   3.487   6.944   0.757
11740TIP3   OH235176   3.506   5.575   1.698
11740TIP3    H135177   3.510   5.666   1.669
11740TIP3    H235178   3.582   5.534   1.657
11741TIP3   OH235179   0.287   7.750   5.370
11741TIP3    H135180   0.277   7.822   5.308
11741TIP3    H235181   0.344   7.687   5.326
11742TIP3   OH235182   4.200   7.102   6.050
11742TIP3    H135183   4.234   7.054   6.125
11742TIP3    H235184   4.146   7.171   6.087
11743TIP3   OH235185   3.669   2.612   1.561
11743TIP3    H135186   3.655   2.588   1.469
11743TIP3    H235187   3.752   2.660   1.560
11744TIP3   OH235188   7.396   5.808   1.657
11744TIP3    H135189   7.320   5.784   1.603
11744TIP3    H235190   7.444   5.871   1.604
11745TIP3   OH235191   1.162   6.724   2.325
11745TIP3    H135192   1.083   6.674   2.348
11745TIP3    H235193   1.201   6.746   2.409
11746TIP3   OH235194   2.754   7.778   0.434
11746TIP3    H135195   2.666   7.744   0.451
11746TIP3    H235196   2.807   7.700   0.419
11747TIP3   OH235197   3.288   2.731   1.964
11747TIP3    H135198   3.318   2.758   1.877
11747TIP3    H235199   3.314   2.639   1.971
11748TIP3   OH235200   2.874   5.655   0.577
11748TIP3    H135201   2.802   5.599   0.548
11748TIP3    H235202   2.897   5.706   0.499
11749TIP3   OH235203   0.779   0.927   0.445
11749TIP3    H135204   0.737   0.925   0.531
11749TIP3    H235205   0.752   0.845   0.403
11750TIP3   OH235206   2.576   2.071   2.458
11750TIP3    H135207   2.598   2.047   2.548
11750TIP3    H235208   2.493   2.027   2.441
11751TIP3   OH235209   5.646   6.041   1.641
11751TIP3    H135210   5.611   5.994   1.716
11751TIP3    H235211   5.590   6.118   1.632
11752TIP3   OH235212   4.790   1.714   0.526
11752TIP3    H135213   4.712   1.763   0.500
11752TIP3    H235214   4.757   1.626   0.546
11753TIP3   OH235215   1.969   5.732   3.800
11753TIP3    H135216   1.954   5.783   3.879
11753TIP3    H235217   1.921   5.650   3.814
11754TIP3   OH235218   5.604   1.002   4.667
11754TIP3    H135219   5.534   0.975   4.726
11754TIP3    H235220   5.664   1.052   4.723
11755TIP3   OH235221   2.160   7.041   4.147
11755TIP3    H135222   2.079   7.091   4.164
11755TIP3    H235223   2.129   6.954   4.123
11756TIP3   OH235224   7.212   6.616   6.550
11756TIP3    H135225   7.229   6.709   6.563
11756TIP3    H235226   7.133   6.599   6.603
11757TIP3   OH235227   2.462   1.471   2.820
11757TIP3    H135228   2.474   1.500   2.911
11757TIP3    H235229   2.476   1.550   2.768
11758TIP3   OH235230   2.112   2.187   5.047
11758TIP3    H135231   2.028   2.218   5.081
11758TIP3    H235232   2.088   2.117   4.986
11759TIP3   OH235233   1.618   6.121   2.134
11759TIP3    H135234   1.527   6.142   2.113
11759TIP3    H235235   1.641   6.049   2.076
11760TIP3   OH235236   6.723   4.375   3.596
11760TIP3    H135237   6.730   4.419   3.511
11760TIP3    H235238   6.708   4.283   3.574
11761TIP3   OH235239   1.205   7.630   2.481
11761TIP3    H135240   1.227   7.680   2.559
11761TIP3    H235241   1.210   7.538   2.509
11762TIP3   OH235242   3.795   6.644   3.547
11762TIP3    H135243   3.867   6.706   3.561
11762TIP3    H235244   3.766   6.620   3.635
11763TIP3   OH235245   4.318   4.431   6.197
11763TIP3    H135246   4.273   4.486   6.132
11763TIP3    H235247   4.397   4.480   6.219
11764TIP3   OH235248   8.141   6.343   3.159
11764TIP3    H135249   8.143   6.421   3.103
11764TIP3    H235250   8.220   6.350   3.212
11765TIP3   OH235251   3.132   3.447   1.873
11765TIP3    H135252   3.081   3.380   1.826
11765TIP3    H235253   3.149   3.408   1.959
11766TIP3   OH235254   5.631   5.878   6.676
11766TIP3    H135255   5.613   5.863   6.768
11766TIP3    H235256   5.618   5.792   6.635
11767TIP3   OH235257   1.434   5.759   2.060
11767TIP3    H135258   1.357   5.794   2.016
11767TIP3    H235259   1.450   5.675   2.017
11768TIP3   OH235260   8.019   3.404   0.328
11768TIP3    H135261   7.995   3.370   0.414
11768TIP3    H235262   7.948   3.464   0.305
11769TIP3   OH235263   5.238   4.516   4.500
11769TIP3    H135264   5.294   4.454   4.548
11769TIP3    H235265   5.210   4.467   4.423
11770TIP3   OH235266   2.078   6.134   0.272
11770TIP3    H135267   2.062   6.130   0.178
11770TIP3    H235268   2.064   6.045   0.303
11771TIP3   OH235269   3.143   6.257   6.233
11771TIP3    H135270   3.220   6.202   6.225
11771TIP3    H235271   3.140   6.307   6.152
11772TIP3   OH235272   4.591   0.069   2.389
11772TIP3    H135273   4.539   0.024   2.456
11772TIP3    H235274   4.570   0.162   2.401
11773TIP3   OH235275   6.618   4.906   2.855
11773TIP3    H135276   6.565   4.926   2.778
11773TIP3    H235277   6.702   4.949   2.839
11774TIP3   OH235278   6.075   1.811   3.547
11774TIP3    H135279   6.028   1.883   3.588
11774TIP3    H235280   6.036   1.732   3.584
11775TIP3   OH235281   6.537   0.698   5.554
11775TIP3    H135282   6.496   0.671   5.637
11775TIP3    H235283   6.537   0.793   5.557
11776TIP3   OH235284   7.894   0.406   6.397
11776TIP3    H135285   7.899   0.413   6.302
11776TIP3    H235286   7.801   0.412   6.417
11777TIP3   OH235287   6.583   0.147   1.247
11777TIP3    H135288   6.652   0.137   1.312
11777TIP3    H235289   6.587   0.239   1.221
11778TIP3   OH235290   6.487   0.898   3.696
11778TIP3    H135291   6.520   0.937   3.615
11778TIP3    H235292   6.558   0.909   3.759
11779TIP3   OH235293   2.750   2.265   3.238
11779TIP3    H135294   2.784   2.176   3.244
11779TIP3    H235295   2.659   2.258   3.267
11780TIP3   OH235296   4.425   5.743   2.354
11780TIP3    H135297   4.454   5.653   2.366
11780TIP3    H235298   4.374   5.742   2.273
11781TIP3   OH235299   7.825   7.268   0.271
11781TIP3    H135300   7.777   7.345   0.304
11781TIP3    H235301   7.917   7.287   0.289
11782TIP3   OH235302   1.623   0.317   1.017
11782TIP3    H135303   1.538   0.345   1.050
11782TIP3    H235304   1.684   0.337   1.088
11783TIP3   OH235305   1.158   7.748   1.279
11783TIP3    H135306   1.124   7.813   1.341
11783TIP3    H235307   1.222   7.796   1.226
11784TIP3   OH235308   2.758   6.482   0.951
11784TIP3    H135309   2.760   6.564   0.999
11784TIP3    H235310   2.668   6.449   0.962
11785TIP3   OH235311   6.644   7.028   2.342
11785TIP3    H135312   6.571   6.988   2.294
11785TIP3    H235313   6.694   7.075   2.275
11786TIP3   OH235314   4.199   2.367   1.966
11786TIP3    H135315   4.147   2.420   2.027
11786TIP3    H235316   4.153   2.374   1.882
11787TIP3   OH235317   2.848   4.988   3.518
11787TIP3    H135318   2.820   4.905   3.480
11787TIP3    H235319   2.943   4.991   3.503
11788TIP3   OH235320   3.099   1.816   2.140
11788TIP3    H135321   3.192   1.833   2.127
11788TIP3    H235322   3.057   1.900   2.122
11789TIP3   OH235323   4.419   1.953   3.785
11789TIP3    H135324   4.424   2.040   3.745
11789TIP3    H235325   4.464   1.962   3.869
11790TIP3   OH235326   4.237   5.707   0.861
11790TIP3    H135327   4.295   5.772   0.901
11790TIP3    H235328   4.150   5.730   0.895
11791TIP3   OH235329   5.072   2.117   6.723
11791TIP3    H135330   5.122   2.155   6.651
11791TIP3    H235331   5.128   2.129   6.800
11792TIP3   OH235332   3.390   1.805   1.308
11792TIP3    H135333   3.430   1.821   1.223
11792TIP3    H235334   3.462   1.809   1.370
11793TIP3   OH235335   6.552   1.898   1.499
11793TIP3    H135336   6.599   1.867   1.577
11793TIP3    H235337   6.542   1.992   1.513
11794TIP3   OH235338   8.123   5.694   6.590
11794TIP3    H135339   8.037   5.723   6.558
11794TIP3    H235340   8.158   5.639   6.520
11795TIP3   OH235341   7.149   4.611   3.924
11795TIP3    H135342   7.083   4.659   3.874
11795TIP3    H235343   7.104   4.586   4.005
11796TIP3   OH235344   5.102   4.896   0.584
11796TIP3    H135345   5.143   4.910   0.498
11796TIP3    H235346   5.009   4.905   0.567
11797TIP3   OH235347   2.850   1.379   3.640
11797TIP3    H135348   2.775   1.383   3.580
11797TIP3    H235349   2.816   1.412   3.723
11798TIP3   OH235350   1.143   3.339   2.100
11798TIP3    H135351   1.079   3.318   2.168
11798TIP3    H235352   1.100   3.406   2.047
11799TIP3   OH235353   6.946   1.852   5.013
11799TIP3    H135354   6.908   1.796   5.081
11799TIP3    H235355   7.031   1.879   5.050
11800TIP3   OH235356   1.637   1.001   0.622
11800TIP3    H135357   1.587   0.998   0.703
11800TIP3    H235358   1.584   0.951   0.560
11801TIP3   OH235359   0.106   3.568   1.702
11801TIP3    H135360   0.117   3.478   1.732
11801TIP3    H235361   0.195   3.600   1.687
11802TIP3   OH235362   0.208   6.718   4.544
11802TIP3    H135363   0.184   6.630   4.572
11802TIP3    H235364   0.238   6.708   4.454
11803TIP3   OH235365   5.680   2.286   6.187
11803TIP3    H135366   5.711   2.263   6.100
11803TIP3    H235367   5.758   2.282   6.242
11804TIP3   OH235368   7.957   2.570   5.509
11804TIP3    H135369   7.862   2.560   5.510
11804TIP3    H235370   7.972   2.663   5.495
11805TIP3   OH235371   6.916   2.712   1.643
11805TIP3    H135372   6.880   2.636   1.597
11805TIP3    H235373   6.840   2.767   1.662
11806TIP3   OH235374   0.363   2.423   1.627
11806TIP3    H135375   0.411   2.386   1.701
11806TIP3    H235376   0.280   2.375   1.627
11807TIP3   OH235377   6.112   3.530   2.445
11807TIP3    H135378   6.035   3.543   2.500
11807TIP3    H235379   6.083   3.550   2.356
11808TIP3   OH235380   0.847   0.385   3.626
11808TIP3    H135381   0.873   0.394   3.534
11808TIP3    H235382   0.785   0.457   3.641
11809TIP3   OH235383   3.940   4.565   5.748
11809TIP3    H135384   3.941   4.626   5.674
11809TIP3    H235385   3.865   4.593   5.801
11810TIP3   OH235386   7.418   5.297   1.352
11810TIP3    H135387   7.476   5.350   1.296
11810TIP3    H235388   7.358   5.361   1.391
11811TIP3   OH235389   1.611   0.854   0.221
11811TIP3    H135390   1.586   0.817   0.305
11811TIP3    H235391   1.574   0.943   0.222
11812TIP3   OH235392   5.422   6.349   6.185
11812TIP3    H135393   5.344   6.356   6.240
11812TIP3    H235394   5.482   6.294   6.236
11813TIP3   OH235395   6.211   0.235   1.429
11813TIP3    H135396   6.153   0.307   1.405
11813TIP3    H235397   6.248   0.204   1.346
11814TIP3   OH235398   7.213   0.450   4.183
11814TIP3    H135399   7.275   0.521   4.198
11814TIP3    H235400   7.130   0.494   4.167
11815TIP3   OH235401   8.054   4.447   2.356
11815TIP3    H135402   8.017   4.447   2.444
11815TIP3    H235403   8.048   4.356   2.327
11816TIP3   OH235404   3.045   7.724   2.347
11816TIP3    H135405   3.071   7.809   2.311
11816TIP3    H235406   3.124   7.692   2.392
11817TIP3   OH235407   3.772  -0.009   3.584
11817TIP3    H135408   3.773   0.076   3.627
11817TIP3    H235409   3.683  -0.041   3.596
11818TIP3   OH235410   5.330   4.368   5.776
11818TIP3    H135411   5.390   4.299   5.805
11818TIP3    H235412   5.253   4.358   5.833
11819TIP3   OH235413   8.026   0.651   5.290
11819TIP3    H135414   7.987   0.592   5.353
11819TIP3    H235415   7.982   0.735   5.304
11820TIP3   OH235416   3.907   1.747   2.023
11820TIP3    H135417   3.812   1.745   2.032
11820TIP3    H235418   3.938   1.676   2.079
11821TIP3   OH235419   7.317   1.541   3.832
11821TIP3    H135420   7.286   1.557   3.744
11821TIP3    H235421   7.247   1.491   3.874
11822TIP3   OH235422   6.483   5.763   2.001
11822TIP3    H135423   6.498   5.691   1.939
11822TIP3    H235424   6.493   5.842   1.949
11823TIP3   OH235425   1.142   7.200   1.021
11823TIP3    H135426   1.125   7.255   0.945
11823TIP3    H235427   1.055   7.173   1.051
11824TIP3   OH235428   3.423   1.507   3.589
11824TIP3    H135429   3.501   1.541   3.545
11824TIP3    H235430   3.352   1.564   3.560
11825TIP3   OH235431   7.441   1.412   3.050
11825TIP3    H135432   7.520   1.466   3.056
11825TIP3    H235433   7.464   1.343   2.987
11826TIP3   OH235434   6.959   2.757   0.695
11826TIP3    H135435   6.873   2.714   0.689
11826TIP3    H235436   6.938   2.846   0.723
11827TIP3   OH235437   5.744   7.025   1.588
11827TIP3    H135438   5.781   6.952   1.537
11827TIP3    H235439   5.763   7.003   1.679
11828TIP3   OH235440   7.922   2.702   3.740
11828TIP3    H135441   8.000   2.651   3.718
11828TIP3    H235442   7.901   2.750   3.660
11829TIP3   OH235443   8.244   6.835   5.718
11829TIP3    H135444   8.238   6.875   5.805
11829TIP3    H235445   8.162   6.858   5.675
11830TIP3   OH235446   6.131   6.285   6.497
11830TIP3    H135447   6.153   6.241   6.579
11830TIP3    H235448   6.188   6.362   6.496
11831TIP3   OH235449   4.274   2.441   1.337
11831TIP3    H135450   4.335   2.421   1.266
11831TIP3    H235451   4.210   2.370   1.336
11832TIP3   OH235452   5.164   3.365   3.729
11832TIP3    H135453   5.074   3.337   3.709
11832TIP3    H235454   5.200   3.390   3.643
11833TIP3   OH235455   7.812   5.760   6.240
11833TIP3    H135456   7.731   5.758   6.290
11833TIP3    H235457   7.788   5.729   6.153
11834TIP3   OH235458   0.046   1.540   6.718
11834TIP3    H135459  -0.017   1.575   6.781
11834TIP3    H235460   0.034   1.594   6.640
11835TIP3   OH235461   7.125   6.170   2.395
11835TIP3    H135462   7.109   6.082   2.429
11835TIP3    H235463   7.163   6.217   2.470
11836TIP3   OH235464   8.192   1.484   0.851
11836TIP3    H135465   8.108   1.441   0.866
11836TIP3    H235466   8.224   1.506   0.938
11837TIP3   OH235467   4.054   2.417   1.741
11837TIP3    H135468   4.049   2.377   1.654
11837TIP3    H235469   4.037   2.509   1.726
11838TIP3   OH235470   7.360   6.414   6.399
11838TIP3    H135471   7.309   6.335   6.411
11838TIP3    H235472   7.305   6.484   6.435
11839TIP3   OH235473   6.518   2.645   2.758
11839TIP3    H135474   6.460   2.642   2.834
11839TIP3    H235475   6.498   2.729   2.715
11840TIP3   OH235476   3.325   4.279   6.652
11840TIP3    H135477   3.380   4.200   6.647
11840TIP3    H235478   3.238   4.249   6.624
11841TIP3   OH235479   3.923   5.140   3.376
11841TIP3    H135480   3.837   5.108   3.349
11841TIP3    H235481   3.969   5.157   3.294
11842TIP3   OH235482   4.551   6.084   6.264
11842TIP3    H135483   4.564   6.000   6.220
11842TIP3    H235484   4.624   6.138   6.235
11843TIP3   OH235485   1.623   6.739   6.009
11843TIP3    H135486   1.646   6.675   6.077
11843TIP3    H235487   1.631   6.690   5.927
11844TIP3   OH235488   3.789   2.555   1.883
11844TIP3    H135489   3.722   2.528   1.946
11844TIP3    H235490   3.793   2.483   1.820
11845TIP3   OH235491   4.254   2.724   4.445
11845TIP3    H135492   4.187   2.704   4.380
11845TIP3    H235493   4.328   2.757   4.394
11846TIP3   OH235494   5.848   3.430   0.010
11846TIP3    H135495   5.811   3.375   0.079
11846TIP3    H235496   5.942   3.433   0.030
11847TIP3   OH235497   0.929   3.568   3.562
11847TIP3    H135498   1.006   3.519   3.588
11847TIP3    H235499   0.871   3.564   3.638
11848TIP3   OH235500   3.165   0.534   0.760
11848TIP3    H135501   3.182   0.616   0.806
11848TIP3    H235502   3.231   0.473   0.794
11849TIP3   OH235503   7.414   3.916   3.822
11849TIP3    H135504   7.335   3.922   3.768
11849TIP3    H235505   7.479   3.874   3.765
11850TIP3   OH235506   5.184   1.562   6.662
11850TIP3    H135507   5.117   1.618   6.701
11850TIP3    H235508   5.259   1.571   6.720
11851TIP3   OH235509   5.827   5.197   2.078
11851TIP3    H135510   5.763   5.169   2.013
11851TIP3    H235511   5.821   5.132   2.148
11852TIP3   OH235512   2.844   0.669   4.518
11852TIP3    H135513   2.826   0.651   4.610
11852TIP3    H235514   2.758   0.693   4.482
11853TIP3   OH235515   7.981   2.022   1.326
11853TIP3    H135516   8.021   2.088   1.269
11853TIP3    H235517   8.025   1.940   1.304
11854TIP3   OH235518   4.284   7.416   1.126
11854TIP3    H135519   4.376   7.399   1.107
11854TIP3    H235520   4.247   7.451   1.045
11855TIP3   OH235521   4.690   5.768   0.628
11855TIP3    H135522   4.609   5.793   0.583
11855TIP3    H235523   4.672   5.680   0.661
11856TIP3   OH235524   3.645   4.272   0.302
11856TIP3    H135525   3.639   4.367   0.289
11856TIP3    H235526   3.638   4.260   0.397
11857TIP3   OH235527   5.482   2.062   0.954
11857TIP3    H135528   5.419   2.057   0.882
11857TIP3    H235529   5.563   2.028   0.917
11858TIP3   OH235530   1.992   4.398   0.182
11858TIP3    H135531   1.906   4.375   0.217
11858TIP3    H235532   2.052   4.391   0.256
11859TIP3   OH235533   8.158   1.325   6.446
11859TIP3    H135534   8.182   1.270   6.520
11859TIP3    H235535   8.231   1.385   6.435
11860TIP3   OH235536   4.282   0.222   2.495
11860TIP3    H135537   4.277   0.196   2.403
11860TIP3    H235538   4.214   0.288   2.504
11861TIP3   OH235539   1.115   2.728   5.763
11861TIP3    H135540   1.078   2.812   5.791
11861TIP3    H235541   1.087   2.719   5.672
11862TIP3   OH235542   2.226   5.842   4.435
11862TIP3    H135543   2.238   5.760   4.387
11862TIP3    H235544   2.311   5.887   4.427
11863TIP3   OH235545   2.230   0.719   1.231
11863TIP3    H135546   2.134   0.713   1.236
11863TIP3    H235547   2.261   0.633   1.260
11864TIP3   OH235548   4.059   4.420   6.607
11864TIP3    H135549   4.065   4.449   6.516
11864TIP3    H235550   4.124   4.473   6.654
11865TIP3   OH235551   6.357   1.655   2.927
11865TIP3    H135552   6.429   1.615   2.877
11865TIP3    H235553   6.398   1.727   2.974
11866TIP3   OH235554   6.409   7.014   0.076
11866TIP3    H135555   6.409   6.919   0.066
11866TIP3    H235556   6.389   7.029   0.169
11867TIP3   OH235557   4.716   0.479   5.187
11867TIP3    H135558   4.623   0.461   5.196
11867TIP3    H235559   4.758   0.423   5.252
11868TIP3   OH235560   1.327   6.869   5.323
11868TIP3    H135561   1.344   6.821   5.404
11868TIP3    H235562   1.336   6.961   5.346
11869TIP3   OH235563   6.375   1.451   5.705
11869TIP3    H135564   6.406   1.361   5.712
11869TIP3    H235565   6.453   1.504   5.720
11870TIP3   OH235566   0.578   1.690   6.635
11870TIP3    H135567   0.561   1.607   6.591
11870TIP3    H235568   0.513   1.751   6.599
11871TIP3   OH235569   6.457   5.618   0.474
11871TIP3    H135570   6.428   5.534   0.509
11871TIP3    H235571   6.471   5.603   0.381
11872TIP3   OH235572   5.180   3.280   2.356
11872TIP3    H135573   5.195   3.339   2.430
11872TIP3    H235574   5.262   3.231   2.349
11873TIP3   OH235575   2.102   0.785   5.855
11873TIP3    H135576   2.073   0.827   5.773
11873TIP3    H235577   2.186   0.827   5.875
11874TIP3   OH235578   1.375   4.368   5.767
11874TIP3    H135579   1.435   4.299   5.795
11874TIP3    H235580   1.425   4.449   5.779
11875TIP3   OH235581  -0.002   3.556   6.064
11875TIP3    H135582   0.076   3.608   6.043
11875TIP3    H235583   0.018   3.469   6.029
11876TIP3   OH235584   4.322   0.777   6.258
11876TIP3    H135585   4.390   0.841   6.275
11876TIP3    H235586   4.274   0.810   6.183
11877TIP3   OH235587   5.423   3.395   4.611
11877TIP3    H135588   5.450   3.360   4.527
11877TIP3    H235589   5.494   3.455   4.635
11878TIP3   OH235590   4.839   4.777   5.850
11878TIP3    H135591   4.850   4.684   5.869
11878TIP3    H235592   4.753   4.799   5.886
11879TIP3   OH235593   0.418   6.757   3.889
11879TIP3    H135594   0.494   6.762   3.832
11879TIP3    H235595   0.454   6.749   3.977
11880TIP3   OH235596   2.699   0.138   0.375
11880TIP3    H135597   2.618   0.163   0.419
11880TIP3    H235598   2.767   0.186   0.422
11881TIP3   OH235599   6.833   3.945   2.760
11881TIP3    H135600   6.852   3.997   2.681
11881TIP3    H235601   6.743   3.968   2.782
11882TIP3   OH235602   7.857   2.176   2.304
11882TIP3    H135603   7.851   2.180   2.400
11882TIP3    H235604   7.768   2.190   2.274
11883TIP3   OH235605   0.885   6.631   1.810
11883TIP3    H135606   0.850   6.699   1.867
11883TIP3    H235607   0.945   6.676   1.751
11884TIP3   OH235608   1.688   4.187   4.195
11884TIP3    H135609   1.704   4.199   4.102
11884TIP3    H235610   1.774   4.198   4.236
11885TIP3   OH235611   7.134   3.747   5.535
11885TIP3    H135612   7.159   3.656   5.523
11885TIP3    H235613   7.060   3.760   5.475
11886TIP3   OH235614   2.340   5.586   1.812
11886TIP3    H135615   2.253   5.574   1.850
11886TIP3    H235616   2.381   5.653   1.866
11887TIP3   OH235617   6.273   1.626   4.811
11887TIP3    H135618   6.350   1.683   4.812
11887TIP3    H235619   6.308   1.537   4.811
11888TIP3   OH235620   4.376   0.677   5.606
11888TIP3    H135621   4.334   0.596   5.635
11888TIP3    H235622   4.456   0.683   5.659
11889TIP3   OH235623   7.110   0.697   0.640
11889TIP3    H135624   7.051   0.770   0.660
11889TIP3    H235625   7.144   0.717   0.553
11890TIP3   OH235626   5.176   3.872   2.511
11890TIP3    H135627   5.149   3.954   2.552
11890TIP3    H235628   5.109   3.856   2.444
11891TIP3   OH235629   3.218   5.509   4.577
11891TIP3    H135630   3.287   5.515   4.643
11891TIP3    H235631   3.264   5.521   4.493
11892TIP3   OH235632   7.004   1.497   1.135
11892TIP3    H135633   7.035   1.586   1.117
11892TIP3    H235634   6.967   1.502   1.223
11893TIP3   OH235635   4.821   6.966   0.487
11893TIP3    H135636   4.772   7.048   0.486
11893TIP3    H235637   4.756   6.900   0.461
11894TIP3   OH235638   0.847   2.018   4.858
11894TIP3    H135639   0.870   1.928   4.836
11894TIP3    H235640   0.928   2.068   4.843
11895TIP3   OH235641   6.852   4.718   0.945
11895TIP3    H135642   6.800   4.772   0.885
11895TIP3    H235643   6.919   4.678   0.888
11896TIP3   OH235644   1.287   3.288   1.854
11896TIP3    H135645   1.263   3.335   1.934
11896TIP3    H235646   1.239   3.334   1.785
11897TIP3   OH235647   1.630   3.849   2.628
11897TIP3    H135648   1.669   3.805   2.704
11897TIP3    H235649   1.601   3.777   2.572
11898TIP3   OH235650   3.713   3.886   0.134
11898TIP3    H135651   3.769   3.862   0.060
11898TIP3    H235652   3.665   3.805   0.154
11899TIP3   OH235653   1.869   3.108   5.809
11899TIP3    H135654   1.837   3.068   5.728
11899TIP3    H235655   1.817   3.187   5.820
11900TIP3   OH235656   0.483   1.697   0.983
11900TIP3    H135657   0.455   1.775   0.935
11900TIP3    H235658   0.417   1.631   0.961
11901TIP3   OH235659   6.670   7.076   0.756
11901TIP3    H135660   6.599   7.140   0.760
11901TIP3    H235661   6.631   6.995   0.788
11902TIP3   OH235662   5.771   6.855   4.453
11902TIP3    H135663   5.812   6.776   4.417
11902TIP3    H235664   5.786   6.922   4.387
11903TIP3   OH235665   6.140   4.755   2.877
11903TIP3    H135666   6.094   4.783   2.957
11903TIP3    H235667   6.217   4.811   2.873
11904TIP3   OH235668   4.880   4.738   6.474
11904TIP3    H135669   4.809   4.797   6.500
11904TIP3    H235670   4.846   4.691   6.397
11905TIP3   OH235671   4.288   7.511   2.142
11905TIP3    H135672   4.292   7.468   2.057
11905TIP3    H235673   4.307   7.603   2.124
11906TIP3   OH235674   2.717   1.623   6.422
11906TIP3    H135675   2.770   1.672   6.359
11906TIP3    H235676   2.704   1.537   6.381
11907TIP3   OH235677   3.045   5.564   0.090
11907TIP3    H135678   3.078   5.484   0.131
11907TIP3    H235679   2.965   5.537   0.045
11908TIP3   OH235680   7.151   2.986   3.195
11908TIP3    H135681   7.071   2.999   3.145
11908TIP3    H235682   7.200   3.067   3.183
11909TIP3   OH235683   6.609   5.121   6.122
11909TIP3    H135684   6.541   5.137   6.057
11909TIP3    H235685   6.691   5.121   6.072
11910TIP3   OH235686   0.256   4.120   1.451
11910TIP3    H135687   0.249   4.215   1.438
11910TIP3    H235688   0.321   4.093   1.386
11911TIP3   OH235689   6.235   4.432   4.929
11911TIP3    H135690   6.320   4.390   4.915
11911TIP3    H235691   6.214   4.474   4.846
11912TIP3   OH235692   0.356   7.306   5.844
11912TIP3    H135693   0.380   7.255   5.767
11912TIP3    H235694   0.407   7.387   5.835
11913TIP3   OH235695   4.219   4.307   0.417
11913TIP3    H135696   4.159   4.234   0.403
11913TIP3    H235697   4.271   4.311   0.337
11914TIP3   OH235698   4.924   3.219   6.210
11914TIP3    H135699   4.880   3.304   6.222
11914TIP3    H235700   4.983   3.233   6.137
11915TIP3   OH235701   5.289   7.446   6.082
11915TIP3    H135702   5.320   7.382   6.146
11915TIP3    H235703   5.208   7.480   6.120
11916TIP3   OH235704   1.598   3.374   4.802
11916TIP3    H135705   1.639   3.453   4.767
11916TIP3    H235706   1.668   3.330   4.850
11917TIP3   OH235707   0.094   1.464   0.676
11917TIP3    H135708   0.094   1.552   0.639
11917TIP3    H235709   0.034   1.471   0.751
11918TIP3   OH235710   4.996   4.159   2.122
11918TIP3    H135711   4.915   4.109   2.109
11918TIP3    H235712   5.036   4.161   2.035
11919TIP3   OH235713   3.373   1.184   0.132
11919TIP3    H135714   3.354   1.108   0.078
11919TIP3    H235715   3.380   1.256   0.070
11920TIP3   OH235716   7.617   3.837   3.187
11920TIP3    H135717   7.681   3.775   3.222
11920TIP3    H235718   7.660   3.922   3.194
11921TIP3   OH235719   4.115   0.019   1.971
11921TIP3    H135720   4.083  -0.001   2.059
11921TIP3    H235721   4.183   0.085   1.985
11922TIP3   OH235722   1.410   7.436   0.183
11922TIP3    H135723   1.326   7.481   0.175
11922TIP3    H235724   1.472   7.492   0.136
11923TIP3   OH235725   5.128   1.774   5.011
11923TIP3    H135726   5.207   1.802   5.057
11923TIP3    H235727   5.101   1.849   4.960
11924TIP3   OH235728   7.398   1.231   6.226
11924TIP3    H135729   7.375   1.208   6.136
11924TIP3    H235730   7.453   1.309   6.218
11925TIP3   OH235731   2.825   7.725   2.061
11925TIP3    H135732   2.892   7.673   2.017
11925TIP3    H235733   2.747   7.670   2.060
11926TIP3   OH235734   1.740   6.786   2.300
11926TIP3    H135735   1.721   6.868   2.347
11926TIP3    H235736   1.836   6.785   2.293
11927TIP3   OH235737   5.224   5.846   3.836
11927TIP3    H135738   5.242   5.754   3.855
11927TIP3    H235739   5.193   5.845   3.745
11928TIP3   OH235740   3.312   7.292   4.789
11928TIP3    H135741   3.370   7.218   4.773
11928TIP3    H235742   3.243   7.283   4.724
11929TIP3   OH235743   2.030   6.872   4.932
11929TIP3    H135744   2.098   6.816   4.893
11929TIP3    H235745   1.962   6.810   4.958
11930TIP3   OH235746   6.666   5.845   2.180
11930TIP3    H135747   6.618   5.901   2.240
11930TIP3    H235748   6.600   5.817   2.116
11931TIP3   OH235749   7.108   5.598   2.016
11931TIP3    H135750   7.101   5.565   2.105
11931TIP3    H235751   7.193   5.640   2.012
11932TIP3   OH235752   5.781   2.779   3.976
11932TIP3    H135753   5.693   2.814   3.988
11932TIP3    H235754   5.802   2.798   3.885
11933TIP3   OH235755   2.403   4.202   0.679
11933TIP3    H135756   2.337   4.152   0.727
11933TIP3    H235757   2.485   4.178   0.722
11934TIP3   OH235758   6.866   5.170   4.240
11934TIP3    H135759   6.946   5.191   4.191
11934TIP3    H235760   6.798   5.161   4.173
11935TIP3   OH235761   5.790   0.685   1.632
11935TIP3    H135762   5.755   0.753   1.689
11935TIP3    H235763   5.783   0.604   1.684
11936TIP3   OH235764   0.055   4.175   0.666
11936TIP3    H135765   0.102   4.200   0.745
11936TIP3    H235766   0.026   4.085   0.682
11937TIP3   OH235767   2.570   5.979   2.470
11937TIP3    H135768   2.603   5.959   2.557
11937TIP3    H235769   2.515   6.056   2.483
11938TIP3   OH235770   5.631   0.904   2.170
11938TIP3    H135771   5.547   0.949   2.182
11938TIP3    H235772   5.635   0.842   2.242
11939TIP3   OH235773   3.630   6.309   6.725
11939TIP3    H135774   3.594   6.330   6.812
11939TIP3    H235775   3.584   6.368   6.665
11940TIP3   OH235776   4.920   1.108   4.782
11940TIP3    H135777   4.920   1.012   4.782
11940TIP3    H235778   4.975   1.132   4.856
11941TIP3   OH235779   3.513   2.783   0.941
11941TIP3    H135780   3.554   2.736   0.868
11941TIP3    H235781   3.449   2.721   0.976
11942TIP3   OH235782   6.635   2.547   5.536
11942TIP3    H135783   6.606   2.636   5.515
11942TIP3    H235784   6.659   2.551   5.628
11943TIP3   OH235785   8.203   0.574   1.331
11943TIP3    H135786   8.124   0.561   1.279
11943TIP3    H235787   8.224   0.486   1.364
11944TIP3   OH235788   1.836   6.240   4.466
11944TIP3    H135789   1.791   6.308   4.517
11944TIP3    H235790   1.830   6.162   4.521
11945TIP3   OH235791   3.085   4.631   6.534
11945TIP3    H135792   3.134   4.644   6.616
11945TIP3    H235793   3.078   4.719   6.496
11946TIP3   OH235794   1.474   7.783   5.418
11946TIP3    H135795   1.544   7.720   5.437
11946TIP3    H235796   1.397   7.748   5.465
11947TIP3   OH235797   8.221   4.423   0.081
11947TIP3    H135798   8.135   4.461   0.100
11947TIP3    H235799   8.240   4.369   0.158
11948TIP3   OH235800   5.417   2.460   4.284
11948TIP3    H135801   5.420   2.542   4.234
11948TIP3    H235802   5.324   2.439   4.290
11949TIP3   OH235803   2.738   2.223   1.943
11949TIP3    H135804   2.717   2.140   1.899
11949TIP3    H235805   2.793   2.270   1.881
11950TIP3   OH235806   1.791   4.981   1.047
11950TIP3    H135807   1.730   5.043   1.007
11950TIP3    H235808   1.818   4.924   0.975
11951TIP3   OH235809   8.118   1.210   5.370
11951TIP3    H135810   8.127   1.115   5.362
11951TIP3    H235811   8.024   1.225   5.375
11952TIP3   OH235812   4.407   7.200   3.074
11952TIP3    H135813   4.458   7.162   3.002
11952TIP3    H235814   4.470   7.213   3.145
11953TIP3   OH235815   6.749   4.824   1.605
11953TIP3    H135816   6.777   4.851   1.692
11953TIP3    H235817   6.743   4.729   1.609
11954TIP3   OH235818   5.274   7.820   3.951
11954TIP3    H135819   5.189   7.792   3.985
11954TIP3    H235820   5.322   7.850   4.029
11955TIP3   OH235821   0.475   4.487   3.671
11955TIP3    H135822   0.525   4.553   3.624
11955TIP3    H235823   0.390   4.485   3.627
11956TIP3   OH235824   8.044   3.188   3.092
11956TIP3    H135825   7.960   3.142   3.099
11956TIP3    H235826   8.072   3.172   3.002
11957TIP3   OH235827   5.785   1.889   0.000
11957TIP3    H135828   5.768   1.795   0.007
11957TIP3    H235829   5.769   1.923   0.087
11958TIP3   OH235830   1.668   2.236   5.911
11958TIP3    H135831   1.663   2.330   5.925
11958TIP3    H235832   1.708   2.226   5.824
11959TIP3   OH235833   4.129   6.905   1.541
11959TIP3    H135834   4.046   6.864   1.567
11959TIP3    H235835   4.154   6.857   1.461
11960TIP3   OH235836   3.459   0.089   2.691
11960TIP3    H135837   3.451   0.121   2.781
11960TIP3    H235838   3.426  -0.001   2.695
11961TIP3   OH235839   0.214   0.154   0.162
11961TIP3    H135840   0.172   0.080   0.117
11961TIP3    H235841   0.156   0.173   0.235
11962TIP3   OH235842   0.755   2.531   3.810
11962TIP3    H135843   0.792   2.606   3.763
11962TIP3    H235844   0.779   2.546   3.902
11963TIP3   OH235845   7.200   2.772   2.438
11963TIP3    H135846   7.262   2.842   2.459
11963TIP3    H235847   7.227   2.698   2.492
11964TIP3   OH235848   7.573   2.535   5.322
11964TIP3    H135849   7.612   2.590   5.253
11964TIP3    H235850   7.482   2.564   5.328
11965TIP3   OH235851   5.663   6.775   4.728
11965TIP3    H135852   5.619   6.691   4.719
11965TIP3    H235853   5.696   6.794   4.640
11966TIP3   OH235854   6.454   1.346   0.513
11966TIP3    H135855   6.403   1.267   0.532
11966TIP3    H235856   6.391   1.406   0.473
11967TIP3   OH235857   7.829   4.260   6.179
11967TIP3    H135858   7.779   4.245   6.098
11967TIP3    H235859   7.794   4.195   6.241
11968TIP3   OH235860   1.676   0.709   3.767
11968TIP3    H135861   1.767   0.682   3.753
11968TIP3    H235862   1.632   0.692   3.684
11969TIP3   OH235863   7.627   6.589   2.057
11969TIP3    H135864   7.599   6.619   2.143
11969TIP3    H235865   7.719   6.564   2.069
11970TIP3   OH235866   2.515   3.222   0.212
11970TIP3    H135867   2.555   3.135   0.217
11970TIP3    H235868   2.474   3.226   0.126
11971TIP3   OH235869   1.736   2.962   1.654
11971TIP3    H135870   1.701   2.872   1.652
11971TIP3    H235871   1.658   3.017   1.659
11972TIP3   OH235872   3.439   4.925   6.482
11972TIP3    H135873   3.350   4.954   6.502
11972TIP3    H235874   3.489   4.948   6.560
11973TIP3   OH235875   2.562   1.181   0.959
11973TIP3    H135876   2.523   1.143   0.880
11973TIP3    H235877   2.655   1.163   0.951
11974TIP3   OH235878   2.460   0.841   4.609
11974TIP3    H135879   2.444   0.822   4.702
11974TIP3    H235880   2.555   0.846   4.602
11975TIP3   OH235881   0.455   6.672   3.275
11975TIP3    H135882   0.530   6.729   3.294
11975TIP3    H235883   0.389   6.730   3.238
11976TIP3   OH235884   4.883   0.119   0.916
11976TIP3    H135885   4.973   0.123   0.947
11976TIP3    H235886   4.830   0.117   0.996
11977TIP3   OH235887   5.071   0.884   6.312
11977TIP3    H135888   5.111   0.805   6.275
11977TIP3    H235889   5.019   0.921   6.240
11978TIP3   OH235890   3.808   2.132   0.812
11978TIP3    H135891   3.897   2.115   0.841
11978TIP3    H235892   3.765   2.046   0.812
11979TIP3   OH235893   2.559   4.989   6.440
11979TIP3    H135894   2.587   5.071   6.480
11979TIP3    H235895   2.534   5.012   6.351
11980TIP3   OH235896   7.588   6.178   3.595
11980TIP3    H135897   7.573   6.154   3.686
11980TIP3    H235898   7.562   6.270   3.589
11981TIP3   OH235899   1.252   2.940   4.119
11981TIP3    H135900   1.329   2.896   4.156
11981TIP3    H235901   1.284   2.978   4.037
11982TIP3   OH235902   0.036   0.635   3.156
11982TIP3    H135903  -0.039   0.670   3.202
11982TIP3    H235904   0.111   0.657   3.211
11983TIP3   OH235905   0.130   4.276   3.752
11983TIP3    H135906   0.152   4.308   3.839
11983TIP3    H235907   0.067   4.340   3.718
11984TIP3   OH235908   6.098   6.533   4.220
11984TIP3    H135909   6.158   6.589   4.169
11984TIP3    H235910   6.149   6.511   4.298
11985TIP3   OH235911   5.728   0.270   4.384
11985TIP3    H135912   5.752   0.228   4.301
11985TIP3    H235913   5.653   0.326   4.363
11986TIP3   OH235914   4.118   1.673   2.753
11986TIP3    H135915   4.099   1.756   2.798
11986TIP3    H235916   4.038   1.622   2.762
11987TIP3   OH235917   2.022   4.816   6.660
11987TIP3    H135918   2.110   4.837   6.690
11987TIP3    H235919   2.031   4.799   6.566
11988TIP3   OH235920   6.144   0.158   2.095
11988TIP3    H135921   6.058   0.170   2.133
11988TIP3    H235922   6.128   0.114   2.011
11989TIP3   OH235923   1.646   5.813   2.248
11989TIP3    H135924   1.665   5.743   2.310
11989TIP3    H235925   1.605   5.769   2.174
11990TIP3   OH235926   6.675   3.178   1.891
11990TIP3    H135927   6.686   3.089   1.859
11990TIP3    H235928   6.682   3.171   1.986
11991TIP3   OH235929   3.653   3.370   6.022
11991TIP3    H135930   3.739   3.390   6.058
11991TIP3    H235931   3.662   3.281   5.988
11992TIP3   OH235932   4.841   5.238   3.327
11992TIP3    H135933   4.829   5.177   3.399
11992TIP3    H235934   4.884   5.187   3.258
11993TIP3   OH235935   4.954   0.579   4.936
11993TIP3    H135936   4.984   0.587   5.027
11993TIP3    H235937   4.929   0.487   4.927
11994TIP3   OH235938   5.789   5.120   2.750
11994TIP3    H135939   5.833   5.040   2.721
11994TIP3    H235940   5.804   5.183   2.680
11995TIP3   OH235941   6.685   3.731   5.469
11995TIP3    H135942   6.735   3.656   5.497
11995TIP3    H235943   6.707   3.800   5.532
11996TIP3   OH235944   0.201   3.446   4.077
11996TIP3    H135945   0.238   3.470   3.992
11996TIP3    H235946   0.158   3.362   4.062
11997TIP3   OH235947   3.388   2.049   6.136
11997TIP3    H135948   3.435   2.128   6.160
11997TIP3    H235949   3.411   1.986   6.204
11998TIP3   OH235950   1.692   3.644   4.382
11998TIP3    H135951   1.606   3.671   4.415
11998TIP3    H235952   1.671   3.586   4.309
11999TIP3   OH235953   3.881   3.805   0.937
11999TIP3    H135954   3.957   3.749   0.944
11999TIP3    H235955   3.813   3.750   0.897
12000TIP3   OH235956   6.122   2.710   6.028
12000TIP3    H135957   6.063   2.784   6.041
12000TIP3    H235958   6.171   2.732   5.949
12001TIP3   OH235959   4.617   7.589   1.567
12001TIP3    H135960   4.609   7.561   1.475
12001TIP3    H235961   4.617   7.507   1.616
12002TIP3   OH235962   4.497   3.382   0.068
12002TIP3    H135963   4.429   3.447   0.089
12002TIP3    H235964   4.532   3.355   0.153
12003TIP3   OH235965   1.674   4.312   4.631
12003TIP3    H135966   1.648   4.230   4.588
12003TIP3    H235967   1.595   4.343   4.674
12004TIP3   OH235968   3.125   3.052   4.233
12004TIP3    H135969   3.032   3.075   4.224
12004TIP3    H235970   3.164   3.075   4.148
12005TIP3   OH235971   0.870   0.205   0.255
12005TIP3    H135972   0.851   0.139   0.189
12005TIP3    H235973   0.887   0.285   0.205
12006TIP3   OH235974   2.445   4.952   1.322
12006TIP3    H135975   2.414   5.041   1.336
12006TIP3    H235976   2.484   4.927   1.406
12007TIP3   OH235977   4.399   6.629   1.564
12007TIP3    H135978   4.385   6.683   1.642
12007TIP3    H235979   4.327   6.566   1.566
12008TIP3   OH235980   6.776   6.551   2.629
12008TIP3    H135981   6.769   6.627   2.687
12008TIP3    H235982   6.853   6.568   2.576
12009TIP3   OH235983   2.275   7.215   5.551
12009TIP3    H135984   2.211   7.261   5.495
12009TIP3    H235985   2.288   7.274   5.625
12010TIP3   OH235986   4.369   6.060   2.085
12010TIP3    H135987   4.276   6.044   2.101
12010TIP3    H235988   4.403   5.977   2.052
12011TIP3   OH235989   7.991   3.397   5.968
12011TIP3    H135990   8.059   3.395   5.901
12011TIP3    H235991   7.970   3.490   5.978
12012TIP3   OH235992   8.151   5.458   0.088
12012TIP3    H135993   8.164   5.377   0.038
12012TIP3    H235994   8.238   5.481   0.121
12013TIP3   OH235995   4.183   6.334   0.217
12013TIP3    H135996   4.106   6.373   0.176
12013TIP3    H235997   4.232   6.408   0.251
12014TIP3   OH235998   0.300   6.685   5.866
12014TIP3    H135999   0.391   6.663   5.886
12014TIP3    H236000   0.293   6.778   5.889
12015TIP3   OH236001   1.604   1.018   2.156
12015TIP3    H136002   1.642   1.103   2.135
12015TIP3    H236003   1.531   1.009   2.095
12016TIP3   OH236004   6.392   0.250   6.580
12016TIP3    H136005   6.366   0.279   6.493
12016TIP3    H236006   6.432   0.328   6.620
12017TIP3   OH236007   3.985   0.068   0.708
12017TIP3    H136008   4.035   0.032   0.780
12017TIP3    H236009   3.915   0.118   0.750
12018TIP3   OH236010   3.005   0.491   2.482
12018TIP3    H136011   2.973   0.499   2.572
12018TIP3    H236012   2.935   0.526   2.428
12019TIP3   OH236013   8.254   4.417   3.285
12019TIP3    H136014   8.292   4.329   3.276
12019TIP3    H236015   8.200   4.427   3.206
12020TIP3   OH236016   1.583   2.742   3.869
12020TIP3    H136017   1.646   2.814   3.857
12020TIP3    H236018   1.635   2.663   3.860
12021TIP3   OH236019   3.687   3.838   3.839
12021TIP3    H136020   3.711   3.755   3.799
12021TIP3    H236021   3.756   3.899   3.813
12022TIP3   OH236022   0.981   6.088   4.326
12022TIP3    H136023   1.012   5.997   4.323
12022TIP3    H236024   1.060   6.139   4.344
12023TIP3   OH236025   2.943   4.050   1.525
12023TIP3    H136026   3.001   4.038   1.601
12023TIP3    H236027   2.999   4.086   1.457
12024TIP3   OH236028   7.382   0.400   2.099
12024TIP3    H136029   7.411   0.470   2.040
12024TIP3    H236030   7.408   0.430   2.186
12025TIP3   OH236031   2.629   2.747   1.754
12025TIP3    H136032   2.616   2.670   1.698
12025TIP3    H236033   2.552   2.747   1.811
12026TIP3   OH236034   2.900   5.679   3.554
12026TIP3    H136035   2.879   5.590   3.584
12026TIP3    H236036   2.983   5.700   3.597
12027TIP3   OH236037   0.034   2.153   0.941
12027TIP3    H136038   0.018   2.246   0.961
12027TIP3    H236039  -0.051   2.120   0.911
12028TIP3   OH236040   3.044   5.826   0.380
12028TIP3    H136041   3.135   5.858   0.381
12028TIP3    H236042   3.009   5.857   0.296
12029TIP3   OH236043   2.918   5.392   2.090
12029TIP3    H136044   2.975   5.434   2.025
12029TIP3    H236045   2.912   5.456   2.161
12030TIP3   OH236046   3.385   6.083   6.125
12030TIP3    H136047   3.448   6.098   6.195
12030TIP3    H236048   3.410   6.145   6.056
12031TIP3   OH236049   7.629   3.828   1.542
12031TIP3    H136050   7.606   3.750   1.592
12031TIP3    H236051   7.725   3.834   1.548
12032TIP3   OH236052   7.726   0.881   0.718
12032TIP3    H136053   7.754   0.821   0.787
12032TIP3    H236054   7.799   0.883   0.656
12033TIP3   OH236055   4.938   6.962   6.181
12033TIP3    H136056   5.000   6.893   6.207
12033TIP3    H236057   4.957   6.979   6.089
12034TIP3   OH236058   6.649   7.699   1.013
12034TIP3    H136059   6.650   7.608   0.984
12034TIP3    H236060   6.680   7.749   0.937
12035TIP3   OH236061   6.366   0.236   6.219
12035TIP3    H136062   6.282   0.253   6.177
12035TIP3    H236063   6.388   0.319   6.262
12036TIP3   OH236064   3.729   5.237   3.057
12036TIP3    H136065   3.733   5.333   3.051
12036TIP3    H236066   3.691   5.220   3.143
12037TIP3   OH236067   6.135   0.323   5.206
12037TIP3    H136068   6.089   0.403   5.180
12037TIP3    H236069   6.224   0.334   5.172
12038TIP3   OH236070   1.303   2.601   3.281
12038TIP3    H136071   1.340   2.649   3.207
12038TIP3    H236072   1.375   2.549   3.315
12039TIP3   OH236073   2.139   1.146   6.031
12039TIP3    H136074   2.171   1.150   6.121
12039TIP3    H236075   2.213   1.112   5.981
12040TIP3   OH236076   4.819   7.239   6.165
12040TIP3    H136077   4.792   7.274   6.080
12040TIP3    H236078   4.868   7.160   6.144
12041TIP3   OH236079   5.214   7.286   1.646
12041TIP3    H136080   5.136   7.337   1.625
12041TIP3    H236081   5.190   7.196   1.625
12042TIP3   OH236082   4.716   5.962   4.572
12042TIP3    H136083   4.684   5.874   4.590
12042TIP3    H236084   4.797   5.948   4.522
12043TIP3   OH236085   5.296   4.957   1.501
12043TIP3    H136086   5.366   4.974   1.438
12043TIP3    H236087   5.263   5.044   1.524
12044TIP3   OH236088   5.981   4.907   3.038
12044TIP3    H136089   6.006   4.864   3.120
12044TIP3    H236090   5.889   4.932   3.052
12045TIP3   OH236091   3.617   7.673   1.587
12045TIP3    H136092   3.664   7.754   1.608
12045TIP3    H236093   3.574   7.649   1.669
12046TIP3   OH236094   7.318   7.195   0.449
12046TIP3    H136095   7.316   7.168   0.357
12046TIP3    H236096   7.335   7.289   0.446
12047TIP3   OH236097   1.343   5.745   6.313
12047TIP3    H136098   1.370   5.816   6.371
12047TIP3    H236099   1.360   5.778   6.225
12048TIP3   OH236100   2.511   1.889   5.066
12048TIP3    H136101   2.539   1.808   5.109
12048TIP3    H236102   2.554   1.959   5.115
12049TIP3   OH236103   1.377   0.347   4.778
12049TIP3    H136104   1.412   0.425   4.822
12049TIP3    H236105   1.435   0.335   4.702
12050TIP3   OH236106   1.527   5.448   5.528
12050TIP3    H136107   1.508   5.467   5.620
12050TIP3    H236108   1.489   5.362   5.513
12051TIP3   OH236109   6.582   0.420   6.094
12051TIP3    H136110   6.585   0.479   6.019
12051TIP3    H236111   6.646   0.352   6.073
12052TIP3   OH236112   1.752   6.023   4.648
12052TIP3    H136113   1.697   6.005   4.725
12052TIP3    H236114   1.727   5.956   4.585
12053TIP3   OH236115   5.792   1.739   0.892
12053TIP3    H136116   5.840   1.784   0.961
12053TIP3    H236117   5.802   1.646   0.911
12054TIP3   OH236118   6.949   6.906   1.111
12054TIP3    H136119   6.865   6.904   1.064
12054TIP3    H236120   7.014   6.895   1.042
12055TIP3   OH236121   5.066   6.778   6.570
12055TIP3    H136122   5.121   6.703   6.594
12055TIP3    H236123   5.110   6.854   6.608
12056TIP3   OH236124   1.920   0.291   5.356
12056TIP3    H136125   2.012   0.298   5.379
12056TIP3    H236126   1.874   0.294   5.439
12057TIP3   OH236127   4.845   4.427   2.775
12057TIP3    H136128   4.760   4.443   2.818
12057TIP3    H236129   4.839   4.475   2.692
12058TIP3   OH236130   6.114   2.372   5.426
12058TIP3    H136131   6.176   2.398   5.358
12058TIP3    H236132   6.045   2.324   5.379
12059TIP3   OH236133   0.915   5.193   5.480
12059TIP3    H136134   1.007   5.199   5.508
12059TIP3    H236135   0.871   5.146   5.550
12060TIP3   OH236136   7.584   7.500   3.525
12060TIP3    H136137   7.561   7.592   3.537
12060TIP3    H236138   7.569   7.460   3.611
12061TIP3   OH236139   0.248   4.403   3.305
12061TIP3    H136140   0.285   4.315   3.293
12061TIP3    H236141   0.213   4.402   3.395
12062TIP3   OH236142   4.325   0.188   3.359
12062TIP3    H136143   4.356   0.103   3.390
12062TIP3    H236144   4.402   0.229   3.320
12063TIP3   OH236145   1.850   6.080   2.710
12063TIP3    H136146   1.809   6.054   2.792
12063TIP3    H236147   1.820   6.170   2.696
12064TIP3   OH236148   0.811   1.454   3.131
12064TIP3    H136149   0.779   1.540   3.105
12064TIP3    H236150   0.736   1.396   3.119
12065TIP3   OH236151   6.629   6.083   4.103
12065TIP3    H136152   6.724   6.094   4.110
12065TIP3    H236153   6.612   6.084   4.009
12066TIP3   OH236154   7.391   2.117   5.279
12066TIP3    H136155   7.438   2.034   5.267
12066TIP3    H236156   7.370   2.119   5.372
12067TIP3   OH236157   6.557   4.029   6.526
12067TIP3    H136158   6.518   3.967   6.464
12067TIP3    H236159   6.616   4.082   6.472
12068TIP3   OH236160   5.191   0.962   1.567
12068TIP3    H136161   5.242   1.017   1.627
12068TIP3    H236162   5.240   0.880   1.562
12069TIP3   OH236163   1.663   7.627   5.625
12069TIP3    H136164   1.582   7.577   5.614
12069TIP3    H236165   1.731   7.561   5.631
12070TIP3   OH236166   6.973   4.445   2.156
12070TIP3    H136167   6.976   4.491   2.240
12070TIP3    H236168   6.975   4.352   2.180
12071TIP3   OH236169   1.782   0.117   2.017
12071TIP3    H136170   1.815   0.178   1.951
12071TIP3    H236171   1.860   0.080   2.057
12072TIP3   OH236172   4.934   1.236   3.347
12072TIP3    H136173   4.889   1.305   3.299
12072TIP3    H236174   4.904   1.245   3.438
12073TIP3   OH236175   2.917   6.177   3.988
12073TIP3    H136176   3.007   6.180   4.021
12073TIP3    H236177   2.909   6.090   3.949
12074TIP3   OH236178   0.024   4.507   3.649
12074TIP3    H136179   0.100   4.533   3.597
12074TIP3    H236180   0.031   4.560   3.728
12075TIP3   OH236181   0.357   2.625   0.286
12075TIP3    H136182   0.364   2.685   0.360
12075TIP3    H236183   0.364   2.538   0.325
12076TIP3   OH236184   3.480   0.878   6.603
12076TIP3    H136185   3.432   0.934   6.541
12076TIP3    H236186   3.571   0.908   6.597
12077TIP3   OH236187   5.882   3.378   1.973
12077TIP3    H136188   5.830   3.310   1.931
12077TIP3    H236189   5.828   3.457   1.966
12078TIP3   OH236190   0.431   6.455   0.749
12078TIP3    H136191   0.343   6.482   0.776
12078TIP3    H236192   0.476   6.434   0.831
12079TIP3   OH236193   1.068   4.129   2.118
12079TIP3    H136194   1.022   4.106   2.037
12079TIP3    H236195   1.100   4.218   2.104
12080TIP3   OH236196   1.861   5.239   4.121
12080TIP3    H136197   1.920   5.307   4.087
12080TIP3    H236198   1.868   5.246   4.216
12081TIP3   OH236199   2.135   3.222   0.207
12081TIP3    H136200   2.042   3.245   0.204
12081TIP3    H236201   2.168   3.266   0.285
12082TIP3   OH236202   4.271   5.661   4.819
12082TIP3    H136203   4.225   5.726   4.765
12082TIP3    H236204   4.215   5.584   4.816
12083TIP3   OH236205   0.484  -0.003   3.365
12083TIP3    H136206   0.553   0.063   3.372
12083TIP3    H236207   0.520  -0.080   3.408
12084TIP3   OH236208   4.917   0.315   2.426
12084TIP3    H136209   4.826   0.307   2.456
12084TIP3    H236210   4.967   0.334   2.506
12085TIP3   OH236211   2.138   3.610   5.241
12085TIP3    H136212   2.139   3.702   5.213
12085TIP3    H236213   2.195   3.566   5.180
12086TIP3   OH236214   2.265   7.318   1.887
12086TIP3    H136215   2.183   7.271   1.871
12086TIP3    H236216   2.309   7.320   1.802
12087TIP3   OH236217   7.900   1.160   3.531
12087TIP3    H136218   7.919   1.222   3.461
12087TIP3    H236219   7.986   1.135   3.565
12088TIP3   OH236220   3.847   4.276   6.566
12088TIP3    H136221   3.810   4.278   6.655
12088TIP3    H236222   3.936   4.309   6.577
12089TIP3   OH236223   0.146   3.312   3.253
12089TIP3    H136224   0.212   3.243   3.248
12089TIP3    H236225   0.112   3.319   3.164
12090TIP3   OH236226   0.391   3.720   1.175
12090TIP3    H136227   0.481   3.717   1.208
12090TIP3    H236228   0.395   3.671   1.093
12091TIP3   OH236229   0.202   7.499   3.715
12091TIP3    H136230   0.189   7.415   3.759
12091TIP3    H236231   0.119   7.515   3.669
12092TIP3   OH236232   4.845   2.679   4.420
12092TIP3    H136233   4.829   2.744   4.351
12092TIP3    H236234   4.940   2.674   4.427
12093TIP3   OH236235   4.413   7.103   5.409
12093TIP3    H136236   4.463   7.153   5.474
12093TIP3    H236237   4.458   7.120   5.326
12094TIP3   OH236238   6.834   0.407   2.315
12094TIP3    H136239   6.921   0.408   2.274
12094TIP3    H236240   6.794   0.326   2.283
12095TIP3   OH236241   2.622   5.524   1.260
12095TIP3    H136242   2.659   5.492   1.178
12095TIP3    H236243   2.678   5.598   1.284
12096TIP3   OH236244   0.874   2.265   2.929
12096TIP3    H136245   0.852   2.188   2.981
12096TIP3    H236246   0.887   2.231   2.840
12097TIP3   OH236247   3.347   3.078   1.118
12097TIP3    H136248   3.272   3.100   1.173
12097TIP3    H236249   3.310   3.020   1.051
12098TIP3   OH236250   1.437   1.980   5.144
12098TIP3    H136251   1.464   2.063   5.184
12098TIP3    H236252   1.389   2.005   5.066
12099TIP3   OH236253   0.439   7.146   3.219
12099TIP3    H136254   0.503   7.211   3.190
12099TIP3    H236255   0.355   7.179   3.188
12100TIP3   OH236256   0.618   4.222   5.637
12100TIP3    H136257   0.671   4.171   5.698
12100TIP3    H236258   0.675   4.238   5.562
12101TIP3   OH236259   3.001   7.424   4.856
12101TIP3    H136260   3.045   7.375   4.786
12101TIP3    H236261   3.055   7.502   4.868
12102TIP3   OH236262   0.878   3.015   6.156
12102TIP3    H136263   0.799   3.031   6.103
12102TIP3    H236264   0.848   2.959   6.227
12103TIP3   OH236265   1.925   3.142   4.006
12103TIP3    H136266   1.985   3.072   4.031
12103TIP3    H236267   1.907   3.189   4.087
12104TIP3   OH236268   5.515   2.978   3.697
12104TIP3    H136269   5.443   2.916   3.708
12104TIP3    H236270   5.591   2.933   3.732
12105TIP3   OH236271   5.663   5.676   2.120
12105TIP3    H136272   5.735   5.617   2.099
12105TIP3    H236273   5.584   5.628   2.094
12106TIP3   OH236274   5.220   7.495   5.360
12106TIP3    H136275   5.176   7.449   5.432
12106TIP3    H236276   5.248   7.578   5.398
12107TIP3   OH236277   8.197   6.050   3.245
12107TIP3    H136278   8.229   6.141   3.247
12107TIP3    H236279   8.235   6.010   3.323
12108TIP3   OH236280   7.646   2.002   3.161
12108TIP3    H136281   7.645   2.098   3.171
12108TIP3    H236282   7.693   1.970   3.238
12109TIP3   OH236283   1.397   1.933   4.858
12109TIP3    H136284   1.368   2.024   4.854
12109TIP3    H236285   1.317   1.882   4.842
12110TIP3   OH236286   5.328   4.582   5.105
12110TIP3    H136287   5.406   4.632   5.081
12110TIP3    H236288   5.289   4.558   5.021
12111TIP3   OH236289   7.971   5.954   4.480
12111TIP3    H136290   8.014   5.925   4.561
12111TIP3    H236291   8.042   5.973   4.420
12112TIP3   OH236292   6.096   5.673   6.598
12112TIP3    H136293   6.094   5.754   6.547
12112TIP3    H236294   6.171   5.683   6.657
12113TIP3   OH236295   7.016   5.467   3.680
12113TIP3    H136296   6.990   5.461   3.772
12113TIP3    H236297   7.077   5.541   3.677
12114TIP3   OH236298   4.678   2.442   3.683
12114TIP3    H136299   4.612   2.503   3.647
12114TIP3    H236300   4.695   2.475   3.771
12115TIP3   OH236301   7.010   0.949   0.703
12115TIP3    H136302   7.091   1.000   0.710
12115TIP3    H236303   6.970   0.979   0.621
12116TIP3   OH236304   4.541   2.876   0.740
12116TIP3    H136305   4.601   2.808   0.709
12116TIP3    H236306   4.591   2.924   0.806
12117TIP3   OH236307   0.474   1.729   0.362
12117TIP3    H136308   0.422   1.751   0.284
12117TIP3    H236309   0.565   1.735   0.333
12118TIP3   OH236310   6.284   6.132   0.760
12118TIP3    H136311   6.316   6.210   0.804
12118TIP3    H236312   6.303   6.148   0.667
12119TIP3   OH236313   0.170   4.138   4.490
12119TIP3    H136314   0.087   4.155   4.446
12119TIP3    H236315   0.196   4.051   4.459
12120TIP3   OH236316   2.444   1.710   0.241
12120TIP3    H136317   2.494   1.792   0.242
12120TIP3    H236318   2.511   1.641   0.244
12121TIP3   OH236319   7.185   1.679   6.347
12121TIP3    H136320   7.229   1.760   6.319
12121TIP3    H236321   7.224   1.611   6.293
12122TIP3   OH236322   4.080   2.251   0.108
12122TIP3    H136323   4.136   2.320   0.072
12122TIP3    H236324   4.118   2.230   0.193
12123TIP3   OH236325   7.552   3.349   6.081
12123TIP3    H136326   7.462   3.331   6.108
12123TIP3    H236327   7.605   3.325   6.157
12124TIP3   OH236328   3.686   0.996   5.591
12124TIP3    H136329   3.695   1.089   5.611
12124TIP3    H236330   3.610   0.992   5.533
12125TIP3   OH236331   3.842   6.347   0.304
12125TIP3    H136332   3.890   6.395   0.238
12125TIP3    H236333   3.794   6.280   0.255
12126TIP3   OH236334   7.051   1.437   4.534
12126TIP3    H136335   6.989   1.495   4.577
12126TIP3    H236336   7.007   1.352   4.530
12127TIP3   OH236337   7.043   6.537   1.813
12127TIP3    H136338   7.040   6.486   1.894
12127TIP3    H236339   6.968   6.597   1.820
12128TIP3   OH236340   3.332   5.690   5.590
12128TIP3    H136341   3.346   5.762   5.529
12128TIP3    H236342   3.241   5.698   5.616
12129TIP3   OH236343   5.401   3.043   1.476
12129TIP3    H136344   5.320   3.009   1.437
12129TIP3    H236345   5.469   2.985   1.444
12130TIP3   OH236346   0.291   6.966   6.345
12130TIP3    H136347   0.277   6.989   6.437
12130TIP3    H236348   0.358   7.027   6.315
12131TIP3   OH236349   2.526   0.929   2.457
12131TIP3    H136350   2.466   0.999   2.434
12131TIP3    H236351   2.473   0.849   2.454
12132TIP3   OH236352   0.797   4.936   6.442
12132TIP3    H136353   0.871   4.896   6.488
12132TIP3    H236354   0.768   5.007   6.499
12133TIP3   OH236355   6.845   0.905   5.606
12133TIP3    H136356   6.889   0.990   5.613
12133TIP3    H236357   6.916   0.844   5.584
12134TIP3   OH236358   3.871   3.626   2.821
12134TIP3    H136359   3.795   3.589   2.866
12134TIP3    H236360   3.927   3.658   2.891
12135TIP3   OH236361   5.583   6.855   5.254
12135TIP3    H136362   5.597   6.763   5.231
12135TIP3    H236363   5.489   6.863   5.268
12136TIP3   OH236364   0.490   4.260   6.711
12136TIP3    H136365   0.460   4.351   6.708
12136TIP3    H236366   0.513   4.246   6.803
12137TIP3   OH236367   2.930   2.177   3.920
12137TIP3    H136368   2.847   2.223   3.931
12137TIP3    H236369   2.950   2.184   3.827
12138TIP3   OH236370   6.054   1.697   0.322
12138TIP3    H136371   6.056   1.768   0.257
12138TIP3    H236372   5.978   1.717   0.376
12139TIP3   OH236373   2.122   0.390   5.972
12139TIP3    H136374   2.072   0.316   5.937
12139TIP3    H236375   2.129   0.451   5.899
12140TIP3   OH236376   5.889   2.315   2.082
12140TIP3    H136377   5.862   2.363   2.004
12140TIP3    H236378   5.979   2.288   2.064
12141TIP3   OH236379   3.029   1.653   3.622
12141TIP3    H136380   3.021   1.557   3.617
12141TIP3    H236381   3.119   1.671   3.596
12142TIP3   OH236382   6.455   1.891   0.633
12142TIP3    H136383   6.504   1.952   0.578
12142TIP3    H236384   6.513   1.816   0.643
12143TIP3   OH236385   7.542   2.459   4.218
12143TIP3    H136386   7.554   2.413   4.302
12143TIP3    H236387   7.630   2.487   4.193
12144TIP3   OH236388   0.686   2.553   5.722
12144TIP3    H136389   0.626   2.577   5.651
12144TIP3    H236390   0.765   2.605   5.706
12145TIP3   OH236391   7.242   6.008   5.248
12145TIP3    H136392   7.195   6.092   5.252
12145TIP3    H236393   7.274   6.003   5.158
12146TIP3   OH236394   5.681   6.059   2.761
12146TIP3    H136395   5.711   6.007   2.686
12146TIP3    H236396   5.737   6.137   2.760
12147TIP3   OH236397   3.400   5.691   3.599
12147TIP3    H136398   3.431   5.604   3.624
12147TIP3    H236399   3.449   5.751   3.656
12148TIP3   OH236400   5.556   5.000   3.199
12148TIP3    H136401   5.630   5.018   3.141
12148TIP3    H236402   5.561   4.905   3.214
12149TIP3   OH236403   5.005   1.623   1.236
12149TIP3    H136404   5.051   1.691   1.186
12149TIP3    H236405   4.915   1.655   1.243
12150TIP3   OH236406   3.104   2.228   4.876
12150TIP3    H136407   3.023   2.202   4.921
12150TIP3    H236408   3.130   2.309   4.919
12151TIP3   OH236409   7.985   6.434   4.807
12151TIP3    H136410   7.947   6.452   4.893
12151TIP3    H236411   7.989   6.339   4.801
12152TIP3   OH236412   5.500   1.939   3.783
12152TIP3    H136413   5.474   1.876   3.851
12152TIP3    H236414   5.417   1.971   3.748
12153TIP3   OH236415   3.732   0.641   1.567
12153TIP3    H136416   3.769   0.699   1.500
12153TIP3    H236417   3.781   0.662   1.647
12154TIP3   OH236418   0.821   5.703   5.655
12154TIP3    H136419   0.877   5.628   5.671
12154TIP3    H236420   0.842   5.730   5.566
12155TIP3   OH236421   5.504   7.795   6.069
12155TIP3    H136422   5.579   7.856   6.075
12155TIP3    H236423   5.486   7.772   6.160
12156TIP3   OH236424   3.550   2.859   6.334
12156TIP3    H136425   3.487   2.860   6.261
12156TIP3    H236426   3.522   2.785   6.388
12157TIP3   OH236427   3.915   6.973   0.155
12157TIP3    H136428   3.991   6.999   0.104
12157TIP3    H236429   3.866   7.055   0.169
12158TIP3   OH236430   8.248   5.181   6.027
12158TIP3    H136431   8.208   5.215   6.107
12158TIP3    H236432   8.324   5.131   6.058
12159TIP3   OH236433   4.601   7.458   3.953
12159TIP3    H136434   4.616   7.456   3.858
12159TIP3    H236435   4.683   7.428   3.991
12160TIP3   OH236436   0.772   3.492   1.720
12160TIP3    H136437   0.692   3.448   1.691
12160TIP3    H236438   0.773   3.575   1.672
12161TIP3   OH236439   7.406   5.436   4.029
12161TIP3    H136440   7.401   5.341   4.045
12161TIP3    H236441   7.480   5.464   4.082
12162TIP3   OH236442   6.099   5.858   5.579
12162TIP3    H136443   6.179   5.807   5.565
12162TIP3    H236444   6.030   5.792   5.589
12163TIP3   OH236445   4.180   2.151   6.657
12163TIP3    H136446   4.214   2.144   6.568
12163TIP3    H236447   4.185   2.244   6.678
12164TIP3   OH236448   7.864   1.769   3.339
12164TIP3    H136449   7.919   1.759   3.416
12164TIP3    H236450   7.791   1.824   3.368
12165TIP3   OH236451   6.646   6.041   6.365
12165TIP3    H136452   6.695   6.114   6.404
12165TIP3    H236453   6.710   5.997   6.308
12166TIP3   OH236454   0.227   6.182   4.235
12166TIP3    H136455   0.280   6.105   4.256
12166TIP3    H236456   0.148   6.147   4.196
12167TIP3   OH236457   7.062   0.704   3.532
12167TIP3    H136458   6.967   0.709   3.520
12167TIP3    H236459   7.080   0.767   3.602
12168TIP3   OH236460   4.726   4.072   2.066
12168TIP3    H136461   4.702   4.162   2.089
12168TIP3    H236462   4.643   4.029   2.045
12169TIP3   OH236463   2.556   4.548   3.829
12169TIP3    H136464   2.537   4.551   3.923
12169TIP3    H236465   2.519   4.465   3.800
12170TIP3   OH236466   4.663   0.731   5.249
12170TIP3    H136467   4.680   0.637   5.253
12170TIP3    H236468   4.694   0.757   5.162
12171TIP3   OH236469   6.525   1.877   5.142
12171TIP3    H136470   6.532   1.935   5.066
12171TIP3    H236471   6.530   1.935   5.218
12172TIP3   OH236472   1.074   6.674   1.586
12172TIP3    H136473   1.050   6.764   1.566
12172TIP3    H236474   1.169   6.677   1.602
12173TIP3   OH236475   5.580   2.217   0.433
12173TIP3    H136476   5.536   2.237   0.516
12173TIP3    H236477   5.590   2.302   0.390
12174TIP3   OH236478   2.777   3.253   4.063
12174TIP3    H136479   2.731   3.320   4.113
12174TIP3    H236480   2.814   3.195   4.129
12175TIP3   OH236481   5.197   6.154   3.212
12175TIP3    H136482   5.203   6.059   3.201
12175TIP3    H236483   5.105   6.174   3.193
12176TIP3   OH236484   0.951   3.823   2.535
12176TIP3    H136485   1.019   3.816   2.602
12176TIP3    H236486   0.969   3.906   2.491
12177TIP3   OH236487   8.245   2.406   0.908
12177TIP3    H136488   8.229   2.483   0.962
12177TIP3    H236489   8.162   2.390   0.864
12178TIP3   OH236490   4.980   4.801   4.886
12178TIP3    H136491   4.962   4.707   4.893
12178TIP3    H236492   4.928   4.829   4.810
12179TIP3   OH236493   5.651   1.801   3.338
12179TIP3    H136494   5.696   1.823   3.420
12179TIP3    H236495   5.677   1.710   3.320
12180TIP3   OH236496   7.358   2.669   3.454
12180TIP3    H136497   7.314   2.674   3.539
12180TIP3    H236498   7.390   2.757   3.438
12181TIP3   OH236499   1.730   0.655   4.030
12181TIP3    H136500   1.687   0.665   3.945
12181TIP3    H236501   1.821   0.637   4.009
12182TIP3   OH236502   7.563   7.308   0.986
12182TIP3    H136503   7.619   7.235   1.011
12182TIP3    H236504   7.616   7.386   1.003
12183TIP3   OH236505   6.207   7.187   3.316
12183TIP3    H136506   6.132   7.134   3.288
12183TIP3    H236507   6.205   7.264   3.259
12184TIP3   OH236508   2.193   4.482   6.409
12184TIP3    H136509   2.224   4.426   6.339
12184TIP3    H236510   2.270   4.532   6.436
12185TIP3   OH236511   5.046   3.348   5.969
12185TIP3    H136512   5.141   3.339   5.974
12185TIP3    H236513   5.030   3.441   5.979
12186TIP3   OH236514   0.541   6.370   6.484
12186TIP3    H136515   0.491   6.299   6.444
12186TIP3    H236516   0.488   6.400   6.557
12187TIP3   OH236517   3.819   7.202   3.769
12187TIP3    H136518   3.731   7.202   3.806
12187TIP3    H236519   3.874   7.241   3.838
12188TIP3   OH236520   2.790   3.118   3.808
12188TIP3    H136521   2.790   3.177   3.883
12188TIP3    H236522   2.875   3.075   3.811
12189TIP3   OH236523   1.641   7.703   0.987
12189TIP3    H136524   1.723   7.711   0.937
12189TIP3    H236525   1.656   7.755   1.066
12190TIP3   OH236526   5.744   0.916   0.663
12190TIP3    H136527   5.746   0.842   0.602
12190TIP3    H236528   5.713   0.990   0.611
12191TIP3   OH236529   4.320   0.388   6.043
12191TIP3    H136530   4.260   0.416   5.974
12191TIP3    H236531   4.356   0.305   6.011
12192TIP3   OH236532   4.819   4.815   2.288
12192TIP3    H136533   4.847   4.727   2.263
12192TIP3    H236534   4.771   4.803   2.370
12193TIP3   OH236535   7.022   2.076   1.258
12193TIP3    H136536   7.044   1.992   1.297
12193TIP3    H236537   7.069   2.076   1.174
12194TIP3   OH236538   4.091   2.257   3.388
12194TIP3    H136539   4.037   2.237   3.464
12194TIP3    H236540   4.178   2.274   3.424
12195TIP3   OH236541   5.063   2.813   5.154
12195TIP3    H136542   5.026   2.899   5.172
12195TIP3    H236543   5.003   2.752   5.196
12196TIP3   OH236544   6.079   2.337   3.942
12196TIP3    H136545   6.087   2.286   4.023
12196TIP3    H236546   6.145   2.300   3.884
12197TIP3   OH236547   1.208   5.862   1.912
12197TIP3    H136548   1.156   5.937   1.883
12197TIP3    H236549   1.170   5.787   1.866
12198TIP3   OH236550   3.869   0.693   6.525
12198TIP3    H136551   3.830   0.607   6.514
12198TIP3    H236552   3.901   0.694   6.615
12199TIP3   OH236553   3.290   6.027   3.314
12199TIP3    H136554   3.366   6.079   3.341
12199TIP3    H236555   3.327   5.942   3.289
12200TIP3   OH236556   2.955   2.758   1.083
12200TIP3    H136557   2.884   2.694   1.076
12200TIP3    H236558   2.911   2.843   1.084
12201TIP3   OH236559   2.521   6.110   5.792
12201TIP3    H136560   2.530   6.026   5.746
12201TIP3    H236561   2.494   6.172   5.724
12202TIP3   OH236562   6.930   7.115   5.529
12202TIP3    H136563   6.911   7.083   5.440
12202TIP3    H236564   6.859   7.080   5.583
12203TIP3   OH236565   4.894   0.317   1.603
12203TIP3    H136566   4.832   0.344   1.671
12203TIP3    H236567   4.970   0.283   1.651
12204TIP3   OH236568   0.402   4.445   0.265
12204TIP3    H136569   0.485   4.397   0.267
12204TIP3    H236570   0.341   4.384   0.223
12205TIP3   OH236571   7.796   5.940   5.558
12205TIP3    H136572   7.766   5.850   5.549
12205TIP3    H236573   7.750   5.973   5.635
12206TIP3   OH236574   6.547   3.901   3.238
12206TIP3    H136575   6.598   3.821   3.251
12206TIP3    H236576   6.509   3.919   3.324
12207TIP3   OH236577   3.652   3.367   2.720
12207TIP3    H136578   3.684   3.277   2.715
12207TIP3    H236579   3.592   3.375   2.646
12208TIP3   OH236580   5.306   7.170   6.531
12208TIP3    H136581   5.244   7.138   6.466
12208TIP3    H236582   5.264   7.247   6.569
12209TIP3   OH236583   0.818   7.489   2.645
12209TIP3    H136584   0.837   7.524   2.732
12209TIP3    H236585   0.854   7.400   2.646
12210TIP3   OH236586   1.844   0.504   2.535
12210TIP3    H136587   1.896   0.574   2.576
12210TIP3    H236588   1.821   0.446   2.607
12211TIP3   OH236589   2.433   3.749   1.164
12211TIP3    H136590   2.354   3.695   1.166
12211TIP3    H236591   2.467   3.745   1.254
12212TIP3   OH236592   2.427   1.952   6.437
12212TIP3    H136593   2.452   1.895   6.364
12212TIP3    H236594   2.352   2.002   6.404
12213TIP3   OH236595   1.878   7.715   2.798
12213TIP3    H136596   1.801   7.750   2.753
12213TIP3    H236597   1.886   7.625   2.767
12214TIP3   OH236598   6.453   3.493   2.376
12214TIP3    H136599   6.526   3.520   2.319
12214TIP3    H236600   6.439   3.401   2.355
12215TIP3   OH236601   3.281   5.465   5.784
12215TIP3    H136602   3.223   5.539   5.765
12215TIP3    H236603   3.228   5.404   5.834
12216TIP3   OH236604   3.921   5.370   1.100
12216TIP3    H136605   3.868   5.292   1.081
12216TIP3    H236606   3.917   5.421   1.019
12217TIP3   OH236607   8.012   0.299   4.656
12217TIP3    H136608   8.012   0.281   4.562
12217TIP3    H236609   8.059   0.225   4.695
12218TIP3   OH236610   2.804   0.302   4.237
12218TIP3    H136611   2.874   0.343   4.287
12218TIP3    H236612   2.733   0.367   4.237
12219TIP3   OH236613   3.800   2.960   5.085
12219TIP3    H136614   3.766   2.927   5.169
12219TIP3    H236615   3.743   3.034   5.064
12220TIP3   OH236616   3.023   4.681   2.817
12220TIP3    H136617   3.085   4.646   2.753
12220TIP3    H236618   2.989   4.761   2.776
12221TIP3   OH236619   5.786   4.971   0.948
12221TIP3    H136620   5.737   5.015   1.017
12221TIP3    H236621   5.755   4.880   0.950
12222TIP3   OH236622   8.100   7.221   5.737
12222TIP3    H136623   8.081   7.217   5.643
12222TIP3    H236624   8.124   7.312   5.753
12223TIP3   OH236625   3.688   6.834   2.850
12223TIP3    H136626   3.767   6.810   2.899
12223TIP3    H236627   3.686   6.773   2.776
12224TIP3   OH236628   7.093   0.994   1.441
12224TIP3    H136629   7.001   0.994   1.468
12224TIP3    H236630   7.121   0.903   1.448
12225TIP3   OH236631   5.318   2.323   3.787
12225TIP3    H136632   5.234   2.346   3.827
12225TIP3    H236633   5.351   2.251   3.842
12226TIP3   OH236634   3.610   0.600   0.910
12226TIP3    H136635   3.614   0.689   0.876
12226TIP3    H236636   3.652   0.605   0.996
12227TIP3   OH236637   2.949   5.942   3.830
12227TIP3    H136638   3.036   5.907   3.849
12227TIP3    H236639   2.889   5.870   3.851
12228TIP3   OH236640   2.841   1.066   1.386
12228TIP3    H136641   2.756   1.027   1.366
12228TIP3    H236642   2.842   1.070   1.482
12229TIP3   OH236643   6.530   5.016   3.948
12229TIP3    H136644   6.612   5.021   3.899
12229TIP3    H236645   6.553   4.967   4.028
12230TIP3   OH236646   2.390   2.974   2.163
12230TIP3    H136647   2.298   2.949   2.158
12230TIP3    H236648   2.393   3.042   2.230
12231TIP3   OH236649   2.556   4.717   2.766
12231TIP3    H136650   2.515   4.676   2.843
12231TIP3    H236651   2.524   4.664   2.692
12232TIP3   OH236652   8.054   2.811   5.390
12232TIP3    H136653   8.116   2.883   5.397
12232TIP3    H236654   8.097   2.747   5.333
12233TIP3   OH236655   4.933   7.337   0.523
12233TIP3    H136656   4.957   7.290   0.603
12233TIP3    H236657   4.981   7.292   0.453
12234TIP3   OH236658   2.459   1.447   1.888
12234TIP3    H136659   2.405   1.519   1.923
12234TIP3    H236660   2.533   1.491   1.846
12235TIP3   OH236661   6.996   4.894   1.104
12235TIP3    H136662   6.937   4.819   1.101
12235TIP3    H236663   6.952   4.961   1.052
12236TIP3   OH236664   6.462   0.304   1.565
12236TIP3    H136665   6.368   0.311   1.550
12236TIP3    H236666   6.499   0.386   1.532
12237TIP3   OH236667   1.787   0.211   1.652
12237TIP3    H136668   1.820   0.286   1.701
12237TIP3    H236669   1.692   0.224   1.650
12238TIP3   OH236670   6.201   7.286   2.689
12238TIP3    H136671   6.248   7.301   2.607
12238TIP3    H236672   6.152   7.367   2.704
12239TIP3   OH236673   5.856   6.020   6.634
12239TIP3    H136674   5.909   5.987   6.562
12239TIP3    H236675   5.770   5.981   6.620
12240TIP3   OH236676   0.408   3.514   4.556
12240TIP3    H136677   0.462   3.435   4.552
12240TIP3    H236678   0.362   3.515   4.472
12241TIP3   OH236679   1.410   3.640   4.423
12241TIP3    H136680   1.337   3.686   4.465
12241TIP3    H236681   1.407   3.552   4.462
12242TIP3   OH236682   6.676   7.334   0.166
12242TIP3    H136683   6.647   7.252   0.125
12242TIP3    H236684   6.729   7.377   0.099
12243TIP3   OH236685   0.159   7.544   4.824
12243TIP3    H136686   0.237   7.511   4.869
12243TIP3    H236687   0.173   7.639   4.820
12244TIP3   OH236688   3.860   4.534   2.900
12244TIP3    H136689   3.859   4.512   2.993
12244TIP3    H236690   3.900   4.459   2.857
12245TIP3   OH236691   6.279   0.673   4.228
12245TIP3    H136692   6.315   0.627   4.303
12245TIP3    H236693   6.344   0.660   4.158
12246TIP3   OH236694   1.457   5.351   3.134
12246TIP3    H136695   1.470   5.301   3.214
12246TIP3    H236696   1.543   5.354   3.093
12247TIP3   OH236697   5.532   0.288   6.700
12247TIP3    H136698   5.505   0.355   6.763
12247TIP3    H236699   5.491   0.207   6.733
12248TIP3   OH236700   1.373   4.525   4.338
12248TIP3    H136701   1.324   4.513   4.257
12248TIP3    H236702   1.445   4.584   4.315
12249TIP3   OH236703   0.751   2.337   4.926
12249TIP3    H136704   0.777   2.301   5.011
12249TIP3    H236705   0.703   2.417   4.948
12250TIP3   OH236706   5.789   4.514   5.302
12250TIP3    H136707   5.747   4.483   5.222
12250TIP3    H236708   5.807   4.607   5.285
12251TIP3   OH236709   8.224   5.485   2.986
12251TIP3    H136710   8.253   5.459   2.898
12251TIP3    H236711   8.270   5.427   3.045
12252TIP3   OH236712   1.941   2.677   0.913
12252TIP3    H136713   1.868   2.709   0.966
12252TIP3    H236714   1.905   2.604   0.863
12253TIP3   OH236715   5.819   2.501   3.769
12253TIP3    H136716   5.910   2.516   3.796
12253TIP3    H236717   5.825   2.469   3.679
12254TIP3   OH236718   3.835   5.059   0.842
12254TIP3    H136719   3.817   5.102   0.925
12254TIP3    H236720   3.803   5.120   0.776
12255TIP3   OH236721   7.662   2.381   6.161
12255TIP3    H136722   7.667   2.439   6.085
12255TIP3    H236723   7.754   2.362   6.182
12256TIP3   OH236724   2.393   2.700   0.116
12256TIP3    H136725   2.313   2.752   0.116
12256TIP3    H236726   2.419   2.694   0.024
12257TIP3   OH236727   2.445   7.220   4.343
12257TIP3    H136728   2.480   7.138   4.309
12257TIP3    H236729   2.511   7.286   4.322
12258TIP3   OH236730   1.752   5.690   5.487
12258TIP3    H136731   1.743   5.692   5.582
12258TIP3    H236732   1.783   5.601   5.468
12259TIP3   OH236733   0.135   0.404   3.714
12259TIP3    H136734   0.187   0.403   3.794
12259TIP3    H236735   0.157   0.322   3.670
12260TIP3   OH236736   2.060   6.550   2.490
12260TIP3    H136737   2.115   6.505   2.554
12260TIP3    H236738   2.031   6.481   2.430
12261TIP3   OH236739   4.587   1.686   3.112
12261TIP3    H136740   4.580   1.671   3.018
12261TIP3    H236741   4.572   1.780   3.122
12262TIP3   OH236742   4.360   5.353   0.118
12262TIP3    H136743   4.292   5.307   0.166
12262TIP3    H236744   4.327   5.359   0.029
12263TIP3   OH236745   4.071   7.712   2.979
12263TIP3    H136746   4.138   7.644   2.987
12263TIP3    H236747   4.109   7.777   2.919
12264TIP3   OH236748   2.500   6.395   0.985
12264TIP3    H136749   2.428   6.339   1.014
12264TIP3    H236750   2.472   6.484   1.009
12265TIP3   OH236751   7.045   3.529   1.067
12265TIP3    H136752   7.052   3.550   1.160
12265TIP3    H236753   7.048   3.614   1.023
12266TIP3   OH236754   5.238   2.380   4.684
12266TIP3    H136755   5.143   2.366   4.676
12266TIP3    H236756   5.256   2.367   4.777
12267TIP3   OH236757   3.092   2.994   5.050
12267TIP3    H136758   3.070   2.901   5.046
12267TIP3    H236759   3.023   3.034   5.103
12268TIP3   OH236760   7.674   0.672   4.201
12268TIP3    H136761   7.745   0.711   4.253
12268TIP3    H236762   7.623   0.747   4.170
12269TIP3   OH236763   7.787   5.260   5.456
12269TIP3    H136764   7.776   5.304   5.540
12269TIP3    H236765   7.706   5.279   5.408
12270TIP3   OH236766   0.531   4.001   2.021
12270TIP3    H136767   0.473   3.925   2.019
12270TIP3    H236768   0.472   4.076   2.023
12271TIP3   OH236769   0.978   4.958   5.133
12271TIP3    H136770   0.903   4.934   5.079
12271TIP3    H236771   1.007   4.875   5.173
12272TIP3   OH236772   4.356   0.664   2.026
12272TIP3    H136773   4.451   0.667   2.027
12272TIP3    H236774   4.330   0.668   2.118
12273TIP3   OH236775   0.439   2.770   6.735
12273TIP3    H136776   0.383   2.812   6.800
12273TIP3    H236777   0.499   2.839   6.707
12274TIP3   OH236778   2.399   2.248   4.974
12274TIP3    H136779   2.312   2.207   4.974
12274TIP3    H236780   2.398   2.306   4.897
12275TIP3   OH236781   6.081   1.624   1.266
12275TIP3    H136782   6.108   1.707   1.225
12275TIP3    H236783   6.132   1.558   1.220
12276TIP3   OH236784   0.273   2.378   6.364
12276TIP3    H136785   0.198   2.418   6.320
12276TIP3    H236786   0.336   2.449   6.373
12277TIP3   OH236787   5.604   0.557   3.049
12277TIP3    H136788   5.642   0.504   3.119
12277TIP3    H236789   5.615   0.648   3.078
12278TIP3   OH236790   5.430   5.974   2.572
12278TIP3    H136791   5.478   5.933   2.644
12278TIP3    H236792   5.411   6.063   2.604
12279TIP3   OH236793   4.485   2.544   0.457
12279TIP3    H136794   4.564   2.589   0.488
12279TIP3    H236795   4.466   2.586   0.373
12280TIP3   OH236796   6.393   7.824   0.071
12280TIP3    H136797   6.306   7.796   0.042
12280TIP3    H236798   6.425   7.751   0.125
12281TIP3   OH236799   3.840   3.704   1.278
12281TIP3    H136800   3.842   3.610   1.256
12281TIP3    H236801   3.931   3.728   1.287
12282TIP3   OH236802   4.589   1.986   6.691
12282TIP3    H136803   4.548   2.065   6.727
12282TIP3    H236804   4.629   2.015   6.609
12283TIP3   OH236805   7.827   5.618   5.270
12283TIP3    H136806   7.905   5.578   5.310
12283TIP3    H236807   7.771   5.640   5.344
12284TIP3   OH236808   6.405   5.029   6.267
12284TIP3    H136809   6.337   5.096   6.278
12284TIP3    H236810   6.475   5.073   6.219
12285TIP3   OH236811   4.712   7.398   0.709
12285TIP3    H136812   4.750   7.463   0.768
12285TIP3    H236813   4.780   7.332   0.697
12286TIP3   OH236814   4.117   4.178   3.910
12286TIP3    H136815   4.166   4.214   3.984
12286TIP3    H236816   4.098   4.253   3.854
12287TIP3   OH236817   4.221   3.994   5.544
12287TIP3    H136818   4.248   3.907   5.515
12287TIP3    H236819   4.302   4.037   5.571
12288TIP3   OH236820   1.348   1.901   2.039
12288TIP3    H136821   1.383   1.815   2.015
12288TIP3    H236822   1.418   1.943   2.089
12289TIP3   OH236823   2.296   0.330   2.327
12289TIP3    H136824   2.210   0.360   2.356
12289TIP3    H236825   2.357   0.396   2.361
12290TIP3   OH236826   2.079   0.828   6.371
12290TIP3    H136827   2.134   0.787   6.437
12290TIP3    H236828   2.040   0.903   6.416
12291TIP3   OH236829   1.323   2.378   1.071
12291TIP3    H136830   1.372   2.424   1.139
12291TIP3    H236831   1.296   2.448   1.011
12292TIP3   OH236832   2.067   4.203   1.359
12292TIP3    H136833   2.109   4.165   1.437
12292TIP3    H236834   2.014   4.131   1.324
12293TIP3   OH236835   2.598   6.363   2.260
12293TIP3    H136836   2.649   6.364   2.341
12293TIP3    H236837   2.614   6.449   2.221
12294TIP3   OH236838   2.958   7.169   2.124
12294TIP3    H136839   2.915   7.209   2.049
12294TIP3    H236840   2.927   7.219   2.200
12295TIP3   OH236841   7.751   7.620   5.640
12295TIP3    H136842   7.692   7.673   5.586
12295TIP3    H236843   7.713   7.532   5.639
12296TIP3   OH236844   8.139   6.114   6.121
12296TIP3    H136845   8.045   6.108   6.108
12296TIP3    H236846   8.169   6.173   6.052
12297TIP3   OH236847   4.687   7.054   4.970
12297TIP3    H136848   4.695   7.114   4.896
12297TIP3    H236849   4.651   6.974   4.932
12298TIP3   OH236850   4.999   1.634   5.575
12298TIP3    H136851   4.996   1.610   5.668
12298TIP3    H236852   4.914   1.607   5.540
12299TIP3   OH236853   7.017   7.364   6.408
12299TIP3    H136854   7.018   7.455   6.439
12299TIP3    H236855   6.932   7.331   6.436
12300TIP3   OH236856   7.638   5.686   3.872
12300TIP3    H136857   7.669   5.768   3.834
12300TIP3    H236858   7.549   5.705   3.901
12301TIP3   OH236859   1.508   7.566   0.563
12301TIP3    H136860   1.508   7.526   0.476
12301TIP3    H236861   1.596   7.601   0.574
12302TIP3   OH236862   8.264   3.080   6.137
12302TIP3    H136863   8.211   3.057   6.061
12302TIP3    H236864   8.201   3.106   6.204
12303TIP3   OH236865   4.035   2.647   6.658
12303TIP3    H136866   4.107   2.708   6.643
12303TIP3    H236867   4.072   2.578   6.713
12304TIP3   OH236868   3.648   0.483   5.817
12304TIP3    H136869   3.590   0.480   5.741
12304TIP3    H236870   3.590   0.496   5.892
12305TIP3   OH236871   1.469   1.004   5.099
12305TIP3    H136872   1.409   0.999   5.025
12305TIP3    H236873   1.412   0.998   5.176
12306TIP3   OH236874   7.531   6.820   4.011
12306TIP3    H136875   7.441   6.816   4.043
12306TIP3    H236876   7.529   6.775   3.927
12307TIP3   OH236877   0.653   3.486   0.235
12307TIP3    H136878   0.608   3.564   0.267
12307TIP3    H236879   0.588   3.417   0.240
12308TIP3   OH236880   4.578   1.729   2.838
12308TIP3    H136881   4.494   1.736   2.883
12308TIP3    H236882   4.559   1.676   2.760
12309TIP3   OH236883   4.854   2.276   0.972
12309TIP3    H136884   4.863   2.365   1.006
12309TIP3    H236885   4.894   2.220   1.039
12310TIP3   OH236886   5.813   1.917   1.109
12310TIP3    H136887   5.813   1.944   1.200
12310TIP3    H236888   5.905   1.919   1.083
12311TIP3   OH236889   4.758   4.119   5.552
12311TIP3    H136890   4.830   4.090   5.608
12311TIP3    H236891   4.793   4.114   5.463
12312TIP3   OH236892   6.801   6.351   5.925
12312TIP3    H136893   6.854   6.431   5.929
12312TIP3    H236894   6.750   6.352   6.006
12313TIP3   OH236895   3.908   3.692   5.409
12313TIP3    H136896   3.876   3.752   5.341
12313TIP3    H236897   3.829   3.647   5.439
12314TIP3   OH236898   4.235   3.233   0.152
12314TIP3    H136899   4.280   3.176   0.090
12314TIP3    H236900   4.305   3.278   0.199
12315TIP3   OH236901   7.952   6.297   6.465
12315TIP3    H136902   8.013   6.223   6.474
12315TIP3    H236903   7.866   6.260   6.487
12316TIP3   OH236904   2.731   1.440   5.162
12316TIP3    H136905   2.657   1.382   5.183
12316TIP3    H236906   2.782   1.445   5.243
12317TIP3   OH236907   8.057   5.621   1.935
12317TIP3    H136908   7.998   5.681   1.980
12317TIP3    H236909   8.041   5.536   1.975
12318TIP3   OH236910   3.635   4.530   0.263
12318TIP3    H136911   3.685   4.586   0.323
12318TIP3    H236912   3.598   4.590   0.199
12319TIP3   OH236913   0.643   2.302   3.075
12319TIP3    H136914   0.579   2.373   3.070
12319TIP3    H236915   0.706   2.321   3.005
12320TIP3   OH236916   1.060   1.950   1.223
12320TIP3    H136917   1.042   1.856   1.227
12320TIP3    H236918   1.146   1.956   1.180
12321TIP3   OH236919   6.762   5.986   5.968
12321TIP3    H136920   6.802   5.949   5.890
12321TIP3    H236921   6.834   6.030   6.013
12322TIP3   OH236922   5.570   3.211   2.814
12322TIP3    H136923   5.596   3.228   2.723
12322TIP3    H236924   5.646   3.167   2.853
12323TIP3   OH236925   6.249   6.526   4.729
12323TIP3    H136926   6.209   6.508   4.644
12323TIP3    H236927   6.206   6.606   4.759
12324TIP3   OH236928   0.508   0.219   6.695
12324TIP3    H136929   0.601   0.224   6.717
12324TIP3    H236930   0.463   0.260   6.769
12325TIP3   OH236931   4.710   6.401   2.369
12325TIP3    H136932   4.779   6.459   2.335
12325TIP3    H236933   4.755   6.347   2.435
12326TIP3   OH236934   5.857   6.214   1.046
12326TIP3    H136935   5.850   6.270   0.968
12326TIP3    H236936   5.949   6.186   1.047
12327TIP3   OH236937   3.926   4.021   2.148
12327TIP3    H136938   3.922   3.966   2.226
12327TIP3    H236939   3.949   4.108   2.180
12328TIP3   OH236940   0.755   1.249   0.466
12328TIP3    H136941   0.826   1.212   0.518
12328TIP3    H236942   0.762   1.344   0.479
12329TIP3   OH236943   5.946   6.090   3.242
12329TIP3    H136944   5.888   6.024   3.280
12329TIP3    H236945   6.022   6.040   3.211
12330TIP3   OH236946   7.183   3.260   3.902
12330TIP3    H136947   7.198   3.290   3.812
12330TIP3    H236948   7.104   3.206   3.896
12331TIP3   OH236949   4.112   0.956   1.545
12331TIP3    H136950   4.021   0.967   1.517
12331TIP3    H236951   4.126   0.861   1.545
12332TIP3   OH236952   2.203   6.656   3.798
12332TIP3    H136953   2.164   6.726   3.746
12332TIP3    H236954   2.283   6.696   3.834
12333TIP3   OH236955   3.146   2.361   6.154
12333TIP3    H136956   3.110   2.343   6.067
12333TIP3    H236957   3.240   2.366   6.140
12334TIP3   OH236958   7.833   3.378   3.256
12334TIP3    H136959   7.874   3.451   3.301
12334TIP3    H236960   7.744   3.408   3.238
12335TIP3   OH236961   7.489   6.137   0.134
12335TIP3    H136962   7.527   6.050   0.148
12335TIP3    H236963   7.512   6.159   0.044
12336TIP3   OH236964   0.646   1.982   5.960
12336TIP3    H136965   0.674   2.041   6.030
12336TIP3    H236966   0.587   2.036   5.906
12337TIP3   OH236967   5.139   1.182   5.570
12337TIP3    H136968   5.205   1.245   5.598
12337TIP3    H236969   5.166   1.156   5.482
12338TIP3   OH236970   6.340   2.290   1.160
12338TIP3    H136971   6.378   2.372   1.128
12338TIP3    H236972   6.247   2.309   1.170
12339TIP3   OH236973   5.207   2.731   3.987
12339TIP3    H136974   5.179   2.648   4.025
12339TIP3    H236975   5.132   2.789   3.997
12340TIP3   OH236976   6.691   4.142   1.447
12340TIP3    H136977   6.648   4.135   1.361
12340TIP3    H236978   6.722   4.233   1.450
12341TIP3   OH236979   0.654   6.718   0.771
12341TIP3    H136980   0.724   6.733   0.835
12341TIP3    H236981   0.587   6.783   0.793
12342TIP3   OH236982   4.551   0.249   0.904
12342TIP3    H136983   4.562   0.167   0.953
12342TIP3    H236984   4.500   0.224   0.827
12343TIP3   OH236985   2.243   7.673   3.959
12343TIP3    H136986   2.255   7.674   4.054
12343TIP3    H236987   2.171   7.611   3.945
12344TIP3   OH236988   0.303   4.160   2.078
12344TIP3    H136989   0.331   4.243   2.039
12344TIP3    H236990   0.327   4.166   2.170
12345TIP3   OH236991   1.866   1.030   1.053
12345TIP3    H136992   1.934   1.088   1.086
12345TIP3    H236993   1.784   1.076   1.072
12346TIP3   OH236994   0.667   7.292   5.449
12346TIP3    H136995   0.656   7.387   5.439
12346TIP3    H236996   0.643   7.256   5.364
12347TIP3   OH236997   7.385   1.941   1.727
12347TIP3    H136998   7.415   1.854   1.701
12347TIP3    H236999   7.320   1.924   1.795
12348TIP3   OH237000   3.484   1.460   1.343
12348TIP3    H137001   3.467   1.480   1.435
12348TIP3    H237002   3.484   1.365   1.339
12349TIP3   OH237003   6.134   4.477   4.646
12349TIP3    H137004   6.140   4.570   4.623
12349TIP3    H237005   6.142   4.431   4.563
12350TIP3   OH237006   0.168   6.921   5.615
12350TIP3    H137007   0.216   6.910   5.697
12350TIP3    H237008   0.078   6.894   5.637
12351TIP3   OH237009   2.353   3.774   2.396
12351TIP3    H137010   2.373   3.859   2.434
12351TIP3    H237011   2.358   3.789   2.301
12352TIP3   OH237012   5.260   7.436   2.657
12352TIP3    H137013   5.255   7.530   2.674
12352TIP3    H237014   5.353   7.415   2.668
12353TIP3   OH237015   2.967   1.506   4.184
12353TIP3    H137016   2.955   1.590   4.229
12353TIP3    H237017   2.975   1.529   4.092
12354TIP3   OH237018   7.859   6.986   1.005
12354TIP3    H137019   7.884   7.033   1.085
12354TIP3    H237020   7.943   6.963   0.964
12355TIP3   OH237021   6.335   1.856   1.975
12355TIP3    H137022   6.344   1.941   1.931
12355TIP3    H237023   6.375   1.793   1.915
12356TIP3   OH237024   7.866   2.049   5.748
12356TIP3    H137025   7.884   2.006   5.832
12356TIP3    H237026   7.940   2.109   5.736
12357TIP3   OH237027   4.614   1.358   2.742
12357TIP3    H137028   4.544   1.363   2.807
12357TIP3    H237029   4.620   1.447   2.707
12358TIP3   OH237030   6.036   3.992   5.490
12358TIP3    H137031   6.023   4.017   5.398
12358TIP3    H237032   5.953   4.015   5.533
12359TIP3   OH237033   2.012   7.451   5.136
12359TIP3    H137034   2.056   7.407   5.062
12359TIP3    H237035   2.031   7.544   5.123
12360TIP3   OH237036   1.829   3.865   3.021
12360TIP3    H137037   1.768   3.939   3.018
12360TIP3    H237038   1.780   3.793   2.981
12361TIP3   OH237039   7.006   2.480   1.758
12361TIP3    H137040   6.981   2.567   1.729
12361TIP3    H237041   7.079   2.455   1.700
12362TIP3   OH237042   2.142   0.071   2.324
12362TIP3    H137043   2.061   0.089   2.371
12362TIP3    H237044   2.192   0.153   2.331
12363TIP3   OH237045   8.209   3.041   1.108
12363TIP3    H137046   8.120   3.027   1.077
12363TIP3    H237047   8.211   3.003   1.196
12364TIP3   OH237048   3.385   7.563   5.423
12364TIP3    H137049   3.400   7.653   5.396
12364TIP3    H237050   3.386   7.565   5.518
12365TIP3   OH237051   7.076   0.211   2.758
12365TIP3    H137052   6.986   0.204   2.789
12365TIP3    H237053   7.067   0.222   2.663
12366TIP3   OH237054   2.470   5.456   0.696
12366TIP3    H137055   2.411   5.507   0.752
12366TIP3    H237056   2.412   5.411   0.634
12367TIP3   OH237057   6.984   6.781   6.085
12367TIP3    H137058   6.933   6.835   6.146
12367TIP3    H237059   7.056   6.747   6.137
12368TIP3   OH237060   2.838   3.002   1.117
12368TIP3    H137061   2.813   3.024   1.207
12368TIP3    H237062   2.849   3.087   1.074
12369TIP3   OH237063   5.064   4.245   0.430
12369TIP3    H137064   5.133   4.308   0.409
12369TIP3    H237065   5.005   4.248   0.354
12370TIP3   OH237066   7.652   2.110   4.968
12370TIP3    H137067   7.597   2.085   4.893
12370TIP3    H237068   7.597   2.169   5.019
12371TIP3   OH237069   8.179   7.069   3.733
12371TIP3    H137070   8.263   7.043   3.695
12371TIP3    H237071   8.160   7.003   3.800
12372TIP3   OH237072   1.529   4.711   1.946
12372TIP3    H137073   1.557   4.645   1.883
12372TIP3    H237074   1.611   4.747   1.980
12373TIP3   OH237075   2.603   1.107   1.732
12373TIP3    H137076   2.676   1.156   1.696
12373TIP3    H237077   2.628   1.015   1.723
12374TIP3   OH237078   0.735   5.975   2.736
12374TIP3    H137079   0.814   6.021   2.707
12374TIP3    H237080   0.729   5.994   2.830
12375TIP3   OH237081   0.521   1.239   0.854
12375TIP3    H137082   0.608   1.233   0.894
12375TIP3    H237083   0.538   1.266   0.763
12376TIP3   OH237084   0.115   6.870   1.972
12376TIP3    H137085   0.055   6.821   1.916
12376TIP3    H237086   0.190   6.812   1.983
12377TIP3   OH237087   3.115   0.227   1.061
12377TIP3    H137088   3.137   0.271   0.978
12377TIP3    H237089   3.173   0.151   1.064
12378TIP3   OH237090   1.335   2.536   0.551
12378TIP3    H137091   1.418   2.535   0.503
12378TIP3    H237092   1.334   2.453   0.599
12379TIP3   OH237093   0.877   5.520   3.492
12379TIP3    H137094   0.957   5.572   3.501
12379TIP3    H237095   0.806   5.583   3.498
12380TIP3   OH237096   4.535   7.082   4.182
12380TIP3    H137097   4.479   7.085   4.105
12380TIP3    H237098   4.624   7.068   4.148
12381TIP3   OH237099   3.143   2.114   3.360
12381TIP3    H137100   3.186   2.083   3.439
12381TIP3    H237101   3.209   2.106   3.291
12382TIP3   OH237102   6.956   0.961   6.408
12382TIP3    H137103   7.036   0.996   6.369
12382TIP3    H237104   6.915   1.036   6.450
12383TIP3   OH237105   6.059   5.004   6.501
12383TIP3    H137106   6.093   4.963   6.421
12383TIP3    H237107   5.978   5.047   6.472
12384TIP3   OH237108   6.441   5.815   4.501
12384TIP3    H137109   6.518   5.767   4.471
12384TIP3    H237110   6.450   5.902   4.462
12385TIP3   OH237111   4.289   6.284   6.646
12385TIP3    H137112   4.327   6.324   6.724
12385TIP3    H237113   4.360   6.234   6.607
12386TIP3   OH237114   2.305   1.820   6.124
12386TIP3    H137115   2.246   1.866   6.184
12386TIP3    H237116   2.375   1.787   6.180
12387TIP3   OH237117   7.210   2.476   3.951
12387TIP3    H137118   7.255   2.557   3.972
12387TIP3    H237119   7.134   2.475   4.010
12388TIP3   OH237120   2.863   3.009   4.767
12388TIP3    H137121   2.946   2.973   4.799
12388TIP3    H237122   2.799   2.985   4.834
12389TIP3   OH237123   1.816   6.203   0.858
12389TIP3    H137124   1.821   6.297   0.844
12389TIP3    H237125   1.774   6.169   0.778
12390TIP3   OH237126   4.175   7.008   5.109
12390TIP3    H137127   4.240   7.079   5.109
12390TIP3    H237128   4.110   7.035   5.174
12391TIP3   OH237129   3.420   6.024   2.405
12391TIP3    H137130   3.496   6.010   2.461
12391TIP3    H237131   3.394   6.114   2.423
12392TIP3   OH237132   0.069   3.516   6.667
12392TIP3    H137133   0.048   3.599   6.710
12392TIP3    H237134   0.112   3.465   6.736
12393TIP3   OH237135   6.964   6.381   4.088
12393TIP3    H137136   6.924   6.295   4.097
12393TIP3    H237137   7.058   6.365   4.096
12394TIP3   OH237138   1.566   4.927   3.403
12394TIP3    H137139   1.558   4.863   3.333
12394TIP3    H237140   1.547   4.878   3.483
12395TIP3   OH237141   3.123   4.568   5.029
12395TIP3    H137142   3.027   4.563   5.033
12395TIP3    H237143   3.153   4.481   5.057
12396TIP3   OH237144   2.052   4.127   5.426
12396TIP3    H137145   2.057   4.171   5.511
12396TIP3    H237146   2.138   4.088   5.414
12397TIP3   OH237147   4.555   4.353   4.563
12397TIP3    H137148   4.510   4.403   4.495
12397TIP3    H237149   4.586   4.274   4.518
12398TIP3   OH237150   6.338   1.108   5.051
12398TIP3    H137151   6.419   1.138   5.010
12398TIP3    H237152   6.354   1.015   5.070
12399TIP3   OH237153   7.596   6.860   2.526
12399TIP3    H137154   7.573   6.937   2.579
12399TIP3    H237155   7.585   6.786   2.586
12400TIP3   OH237156   8.033   7.010   6.379
12400TIP3    H137157   7.962   7.060   6.339
12400TIP3    H237158   8.059   6.946   6.313
12401TIP3   OH237159   4.634   1.793   0.115
12401TIP3    H137160   4.570   1.863   0.129
12401TIP3    H237161   4.711   1.838   0.080
12402TIP3   OH237162   4.201   2.099   0.604
12402TIP3    H137163   4.128   2.088   0.543
12402TIP3    H237164   4.272   2.135   0.552
12403TIP3   OH237165   5.788   7.333   5.218
12403TIP3    H137166   5.841   7.401   5.260
12403TIP3    H237167   5.845   7.257   5.215
12404TIP3   OH237168   4.225   3.381   0.761
12404TIP3    H137169   4.317   3.369   0.740
12404TIP3    H237170   4.179   3.359   0.679
12405TIP3   OH237171   5.400   4.038   3.634
12405TIP3    H137172   5.377   4.001   3.548
12405TIP3    H237173   5.487   4.077   3.620
12406TIP3   OH237174   4.733   0.102   1.141
12406TIP3    H137175   4.704   0.020   1.182
12406TIP3    H237176   4.672   0.168   1.173
12407TIP3   OH237177   2.592   7.713   4.846
12407TIP3    H137178   2.670   7.684   4.799
12407TIP3    H237179   2.562   7.634   4.892
12408TIP3   OH237180   0.851   0.206   2.868
12408TIP3    H137181   0.823   0.118   2.841
12408TIP3    H237182   0.876   0.248   2.786
12409TIP3   OH237183   3.401   1.011   5.661
12409TIP3    H137184   3.374   1.034   5.750
12409TIP3    H237185   3.437   0.923   5.669
12410TIP3   OH237186   6.963   5.378   2.693
12410TIP3    H137187   7.028   5.322   2.650
12410TIP3    H237188   7.009   5.460   2.710
12411TIP3   OH237189   1.659   7.390   6.537
12411TIP3    H137190   1.633   7.302   6.508
12411TIP3    H237191   1.583   7.445   6.517
12412TIP3   OH237192   4.445   6.334   1.947
12412TIP3    H137193   4.538   6.311   1.940
12412TIP3    H237194   4.414   6.283   2.022
12413TIP3   OH237195   4.529   2.873   0.059
12413TIP3    H137196   4.456   2.919   0.018
12413TIP3    H237197   4.606   2.927   0.038
12414TIP3   OH237198   3.268   4.265   1.846
12414TIP3    H137199   3.355   4.268   1.884
12414TIP3    H237200   3.218   4.332   1.893
12415TIP3   OH237201   5.199   1.056   0.612
12415TIP3    H137202   5.245   0.985   0.656
12415TIP3    H237203   5.262   1.090   0.548
12416TIP3   OH237204   7.861   1.593   4.112
12416TIP3    H137205   7.783   1.551   4.148
12416TIP3    H237206   7.847   1.592   4.017
12417TIP3   OH237207   4.323   6.636   5.397
12417TIP3    H137208   4.293   6.609   5.484
12417TIP3    H237209   4.296   6.727   5.389
12418TIP3   OH237210   3.584   6.495   1.263
12418TIP3    H137211   3.555   6.408   1.287
12418TIP3    H237212   3.504   6.546   1.254
12419TIP3   OH237213   5.894   0.982   5.253
12419TIP3    H137214   5.822   0.920   5.246
12419TIP3    H237215   5.973   0.930   5.237
12420TIP3   OH237216   5.487   7.254   5.046
12420TIP3    H137217   5.408   7.201   5.036
12420TIP3    H237218   5.558   7.190   5.055
12421TIP3   OH237219   2.701   5.045   4.168
12421TIP3    H137220   2.737   4.957   4.170
12421TIP3    H237221   2.655   5.050   4.084
12422TIP3   OH237222   1.142   0.165   2.196
12422TIP3    H137223   1.104   0.154   2.109
12422TIP3    H237224   1.106   0.249   2.226
12423TIP3   OH237225   1.823   2.464   0.773
12423TIP3    H137226   1.739   2.509   0.761
12423TIP3    H237227   1.801   2.371   0.764
12424TIP3   OH237228   2.561   4.149   5.913
12424TIP3    H137229   2.545   4.054   5.919
12424TIP3    H237230   2.613   4.169   5.991
12425TIP3   OH237231   2.041   5.930   4.620
12425TIP3    H137232   2.099   5.877   4.566
12425TIP3    H237233   1.956   5.926   4.577
12426TIP3   OH237234   1.868   4.566   6.709
12426TIP3    H137235   1.910   4.487   6.675
12426TIP3    H237236   1.923   4.638   6.675
12427TIP3   OH237237   1.710   6.654   6.402
12427TIP3    H137238   1.710   6.592   6.475
12427TIP3    H237239   1.798   6.691   6.401
12428TIP3   OH237240   4.542   0.998   3.225
12428TIP3    H137241   4.522   0.920   3.174
12428TIP3    H237242   4.637   1.004   3.225
12429TIP3   OH237243   2.170   6.130   1.618
12429TIP3    H137244   2.078   6.113   1.636
12429TIP3    H237245   2.202   6.176   1.695
12430TIP3   OH237246   6.854   5.399   4.672
12430TIP3    H137247   6.823   5.480   4.712
12430TIP3    H237248   6.948   5.400   4.686
12431TIP3   OH237249   0.783   0.045   0.623
12431TIP3    H137250   0.760  -0.033   0.573
12431TIP3    H237251   0.721   0.112   0.595
12432TIP3   OH237252   1.592   2.655   6.687
12432TIP3    H137253   1.660   2.593   6.712
12432TIP3    H237254   1.537   2.607   6.624
12433TIP3   OH237255   7.818   2.837   0.381
12433TIP3    H137256   7.765   2.902   0.426
12433TIP3    H237257   7.762   2.759   0.376
12434TIP3   OH237258   4.488   4.144   0.252
12434TIP3    H137259   4.555   4.088   0.292
12434TIP3    H237260   4.516   4.233   0.273
12435TIP3   OH237261   0.911   1.147   5.583
12435TIP3    H137262   0.985   1.132   5.642
12435TIP3    H237263   0.944   1.208   5.518
12436TIP3   OH237264   1.813   5.327   3.276
12436TIP3    H137265   1.774   5.286   3.354
12436TIP3    H237266   1.847   5.410   3.307
12437TIP3   OH237267   6.003   7.111   5.025
12437TIP3    H137268   6.009   7.057   5.103
12437TIP3    H237269   5.966   7.053   4.958
12438TIP3   OH237270   2.205   1.187   6.285
12438TIP3    H137271   2.159   1.243   6.347
12438TIP3    H237272   2.262   1.133   6.339
12439TIP3   OH237273   7.824   3.444   0.527
12439TIP3    H137274   7.756   3.501   0.562
12439TIP3    H237275   7.842   3.383   0.599
12440TIP3   OH237276   7.338   7.410   1.160
12440TIP3    H137277   7.425   7.429   1.125
12440TIP3    H237278   7.278   7.433   1.089
12441TIP3   OH237279   7.019   6.591   2.502
12441TIP3    H137280   7.064   6.675   2.511
12441TIP3    H237281   7.075   6.539   2.445
12442TIP3   OH237282   0.084   6.661   3.256
12442TIP3    H137283   0.061   6.570   3.278
12442TIP3    H237284   0.154   6.653   3.191
12443TIP3   OH237285   6.386   2.613   6.651
12443TIP3    H137286   6.385   2.610   6.747
12443TIP3    H237287   6.463   2.666   6.630
12444TIP3   OH237288   0.778   4.273   3.635
12444TIP3    H137289   0.765   4.250   3.727
12444TIP3    H237290   0.710   4.225   3.589
12445TIP3   OH237291   0.014   4.508   2.062
12445TIP3    H137292  -0.067   4.547   2.028
12445TIP3    H237293   0.082   4.572   2.042
12446TIP3   OH237294   6.934   5.878   3.759
12446TIP3    H137295   6.974   5.955   3.799
12446TIP3    H237296   6.853   5.910   3.721
12447TIP3   OH237297   6.700   5.358   2.686
12447TIP3    H137298   6.678   5.277   2.640
12447TIP3    H237299   6.795   5.364   2.678
12448TIP3   OH237300   0.930   2.532   5.956
12448TIP3    H137301   1.000   2.531   5.891
12448TIP3    H237302   0.879   2.453   5.938
12449TIP3   OH237303   5.428   2.918   6.344
12449TIP3    H137304   5.393   2.941   6.430
12449TIP3    H237305   5.456   2.827   6.352
12450TIP3   OH237306   3.431   5.658   4.425
12450TIP3    H137307   3.496   5.642   4.493
12450TIP3    H237308   3.456   5.743   4.388
12451TIP3   OH237309   1.587   0.089   6.365
12451TIP3    H137310   1.658   0.080   6.429
12451TIP3    H237311   1.631   0.087   6.280
12452TIP3   OH237312   3.395   7.737   2.679
12452TIP3    H137313   3.446   7.756   2.757
12452TIP3    H237314   3.445   7.671   2.632
12453TIP3   OH237315   5.323   5.327   2.308
12453TIP3    H137316   5.241   5.278   2.302
12453TIP3    H237317   5.301   5.416   2.281
12454TIP3   OH237318   6.261   4.047   4.358
12454TIP3    H137319   6.308   3.996   4.292
12454TIP3    H237320   6.262   3.992   4.436
12455TIP3   OH237321   4.587   4.092   2.469
12455TIP3    H137322   4.679   4.091   2.444
12455TIP3    H237323   4.554   4.005   2.446
12456TIP3   OH237324   7.182   2.302   1.349
12456TIP3    H137325   7.257   2.265   1.304
12456TIP3    H237326   7.109   2.244   1.326
12457TIP3   OH237327   1.972   2.923   6.005
12457TIP3    H137328   2.052   2.873   6.025
12457TIP3    H237329   1.901   2.867   6.035
12458TIP3   OH237330   7.594   2.449   2.905
12458TIP3    H137331   7.547   2.372   2.871
12458TIP3    H237332   7.549   2.524   2.865
12459TIP3   OH237333   0.156   6.545   0.053
12459TIP3    H137334   0.238   6.561   0.006
12459TIP3    H237335   0.183   6.503   0.134
12460TIP3   OH237336   0.544   3.401   3.588
12460TIP3    H137337   0.474   3.447   3.543
12460TIP3    H237338   0.619   3.461   3.584
12461TIP3   OH237339   0.142   3.712   3.881
12461TIP3    H137340   0.078   3.750   3.941
12461TIP3    H237341   0.192   3.788   3.849
12462TIP3   OH237342   0.011   4.828   6.539
12462TIP3    H137343   0.042   4.739   6.556
12462TIP3    H237344  -0.069   4.835   6.591
12463TIP3   OH237345   0.443   6.646   1.138
12463TIP3    H137346   0.384   6.580   1.174
12463TIP3    H237347   0.513   6.595   1.096
12464TIP3   OH237348   1.151   6.352   2.582
12464TIP3    H137349   1.062   6.361   2.617
12464TIP3    H237350   1.178   6.442   2.564
12465TIP3   OH237351   1.645   0.756   5.112
12465TIP3    H137352   1.598   0.838   5.097
12465TIP3    H237353   1.709   0.777   5.180
12466TIP3   OH237354   1.790   2.317   5.623
12466TIP3    H137355   1.795   2.315   5.527
12466TIP3    H237356   1.855   2.383   5.648
12467TIP3   OH237357   2.705   4.163   4.531
12467TIP3    H137358   2.619   4.205   4.534
12467TIP3    H237359   2.691   4.075   4.566
12468TIP3   OH237360   2.563   0.231   4.671
12468TIP3    H137361   2.549   0.325   4.687
12468TIP3    H237362   2.612   0.228   4.589
12469TIP3   OH237363   7.682   0.391   1.039
12469TIP3    H137364   7.630   0.466   1.065
12469TIP3    H237365   7.716   0.355   1.121
12470TIP3   OH237366   0.959   4.487   1.293
12470TIP3    H137367   0.931   4.577   1.278
12470TIP3    H237368   1.055   4.490   1.289
12471TIP3   OH237369   0.616   5.524   0.317
12471TIP3    H137370   0.606   5.608   0.362
12471TIP3    H237371   0.710   5.515   0.303
12472TIP3   OH237372   6.869   5.422   6.243
12472TIP3    H137373   6.894   5.336   6.276
12472TIP3    H237374   6.774   5.426   6.256
12473TIP3   OH237375   7.925   2.283   4.954
12473TIP3    H137376   7.838   2.244   4.961
12473TIP3    H237377   7.982   2.211   4.928
12474TIP3   OH237378   8.263   5.241   4.921
12474TIP3    H137379   8.336   5.193   4.960
12474TIP3    H237380   8.206   5.263   4.995
12475TIP3   OH237381   7.832   0.307   5.024
12475TIP3    H137382   7.816   0.328   4.932
12475TIP3    H237383   7.893   0.234   5.022
12476TIP3   OH237384   1.677   6.953   4.829
12476TIP3    H137385   1.649   6.903   4.752
12476TIP3    H237386   1.637   6.907   4.903
12477TIP3   OH237387   1.911   3.993   6.107
12477TIP3    H137388   1.998   4.031   6.119
12477TIP3    H237389   1.897   3.994   6.013
12478TIP3   OH237390   1.186   0.773   4.493
12478TIP3    H137391   1.096   0.785   4.521
12478TIP3    H237392   1.181   0.714   4.417
12479TIP3   OH237393   5.353   4.009   4.510
12479TIP3    H137394   5.347   3.945   4.440
12479TIP3    H237395   5.282   3.985   4.570
12480TIP3   OH237396   2.997   7.379   2.828
12480TIP3    H137397   3.054   7.305   2.807
12480TIP3    H237398   2.997   7.383   2.924
12481TIP3   OH237399   6.193   5.241   4.944
12481TIP3    H137400   6.134   5.298   4.993
12481TIP3    H237401   6.257   5.301   4.905
12482TIP3   OH237402   4.875   3.722   5.506
12482TIP3    H137403   4.951   3.761   5.549
12482TIP3    H237404   4.806   3.725   5.573
12483TIP3   OH237405   6.705   5.908   5.474
12483TIP3    H137406   6.759   5.829   5.467
12483TIP3    H237407   6.762   5.978   5.442
12484TIP3   OH237408   1.140   0.607   3.519
12484TIP3    H137409   1.191   0.670   3.469
12484TIP3    H237410   1.147   0.525   3.469
12485TIP3   OH237411   7.341   6.316   0.926
12485TIP3    H137412   7.362   6.299   0.835
12485TIP3    H237413   7.263   6.372   0.923
12486TIP3   OH237414   0.580   0.218   2.974
12486TIP3    H137415   0.668   0.227   2.938
12486TIP3    H237416   0.570   0.294   3.032
12487TIP3   OH237417   3.226   1.710   0.690
12487TIP3    H137418   3.300   1.723   0.748
12487TIP3    H237419   3.156   1.677   0.746
12488TIP3   OH237420   1.101   4.136   0.266
12488TIP3    H137421   1.098   4.196   0.340
12488TIP3    H237422   1.195   4.128   0.246
12489TIP3   OH237423   1.189   6.576   3.680
12489TIP3    H137424   1.132   6.651   3.696
12489TIP3    H237425   1.277   6.608   3.699
12490TIP3   OH237426   5.720   3.420   5.032
12490TIP3    H137427   5.767   3.360   5.089
12490TIP3    H237428   5.628   3.403   5.050
12491TIP3   OH237429   4.227   5.655   1.687
12491TIP3    H137430   4.239   5.660   1.592
12491TIP3    H237431   4.282   5.582   1.715
12492TIP3   OH237432   3.291   1.436   2.356
12492TIP3    H137433   3.352   1.510   2.362
12492TIP3    H237434   3.243   1.438   2.439
12493TIP3   OH237435   5.747   4.166   6.541
12493TIP3    H137436   5.725   4.073   6.553
12493TIP3    H237437   5.694   4.211   6.606
12494TIP3   OH237438   0.582   6.435   5.405
12494TIP3    H137439   0.562   6.356   5.356
12494TIP3    H237440   0.505   6.491   5.395
12495TIP3   OH237441   3.132   7.523   5.485
12495TIP3    H137442   3.202   7.535   5.420
12495TIP3    H237443   3.076   7.455   5.447
12496TIP3   OH237444   1.305   7.399   3.360
12496TIP3    H137445   1.356   7.470   3.322
12496TIP3    H237446   1.312   7.411   3.454
12497TIP3   OH237447   3.010   1.621   4.705
12497TIP3    H137448   2.917   1.620   4.725
12497TIP3    H237449   3.032   1.714   4.699
12498TIP3   OH237450   4.037   2.814   5.441
12498TIP3    H137451   4.091   2.740   5.412
12498TIP3    H237452   4.086   2.852   5.514
12499TIP3   OH237453   0.595   4.659   0.873
12499TIP3    H137454   0.593   4.734   0.814
12499TIP3    H237455   0.520   4.672   0.932
12500TIP3   OH237456   3.560   1.398   0.815
12500TIP3    H137457   3.612   1.360   0.885
12500TIP3    H237458   3.625   1.423   0.748
12501TIP3   OH237459   0.506   5.488   4.458
12501TIP3    H137460   0.511   5.509   4.365
12501TIP3    H237461   0.415   5.462   4.472
12502TIP3   OH237462   3.646   1.633   5.658
12502TIP3    H137463   3.618   1.588   5.738
12502TIP3    H237464   3.601   1.718   5.662
12503TIP3   OH237465   7.885   4.257   0.228
12503TIP3    H137466   7.843   4.316   0.165
12503TIP3    H237467   7.965   4.228   0.184
12504TIP3   OH237468   7.612   4.837   0.282
12504TIP3    H137469   7.638   4.929   0.289
12504TIP3    H237470   7.566   4.830   0.199
12505TIP3   OH237471   7.384   7.225   5.451
12505TIP3    H137472   7.302   7.175   5.460
12505TIP3    H237473   7.357   7.316   5.454
12506TIP3   OH237474   7.811   6.397   3.597
12506TIP3    H137475   7.731   6.442   3.569
12506TIP3    H237476   7.817   6.321   3.539
12507TIP3   OH237477   5.841   3.612   5.720
12507TIP3    H137478   5.896   3.684   5.688
12507TIP3    H237479   5.767   3.608   5.659
12508TIP3   OH237480   3.976   3.550   2.383
12508TIP3    H137481   3.912   3.508   2.325
12508TIP3    H237482   3.949   3.525   2.471
12509TIP3   OH237483   5.618   2.996   6.652
12509TIP3    H137484   5.625   3.090   6.632
12509TIP3    H237485   5.657   2.987   6.738
12510TIP3   OH237486   4.574   2.062   4.006
12510TIP3    H137487   4.618   2.147   4.006
12510TIP3    H237488   4.618   2.013   4.075
12511TIP3   OH237489   5.177   5.832   0.621
12511TIP3    H137490   5.091   5.826   0.662
12511TIP3    H237491   5.160   5.820   0.528
12512TIP3   OH237492   5.449   4.960   0.021
12512TIP3    H137493   5.366   4.961   0.069
12512TIP3    H237494   5.445   5.039  -0.033
12513TIP3   OH237495   0.148   0.770   6.441
12513TIP3    H137496   0.157   0.860   6.472
12513TIP3    H237497   0.059   0.766   6.406
12514TIP3   OH237498   3.536   3.911   2.583
12514TIP3    H137499   3.606   3.849   2.564
12514TIP3    H237500   3.555   3.943   2.671
12515TIP3   OH237501   6.495   3.231   4.430
12515TIP3    H137502   6.480   3.320   4.462
12515TIP3    H237503   6.421   3.214   4.372
12516TIP3   OH237504   2.700   0.191   1.953
12516TIP3    H137505   2.710   0.133   1.878
12516TIP3    H237506   2.703   0.279   1.917
12517TIP3   OH237507   0.804   7.388   3.642
12517TIP3    H137508   0.853   7.307   3.656
12517TIP3    H237509   0.720   7.359   3.607
12518TIP3   OH237510   1.115   1.245   6.513
12518TIP3    H137511   1.195   1.208   6.477
12518TIP3    H237512   1.055   1.171   6.521
12519TIP3   OH237513   5.285   1.397   4.086
12519TIP3    H137514   5.339   1.347   4.147
12519TIP3    H237515   5.205   1.346   4.077
12520TIP3   OH237516   0.540   3.599   5.093
12520TIP3    H137517   0.554   3.570   5.183
12520TIP3    H237518   0.455   3.561   5.069
12521TIP3   OH237519   0.155   3.558   6.367
12521TIP3    H137520   0.211   3.589   6.438
12521TIP3    H237521   0.178   3.466   6.357
12522TIP3   OH237522   1.217   4.280   0.811
12522TIP3    H137523   1.197   4.357   0.758
12522TIP3    H237524   1.159   4.288   0.887
12523TIP3   OH237525   5.218   0.228   6.270
12523TIP3    H137526   5.298   0.226   6.218
12523TIP3    H237527   5.220   0.147   6.321
12524TIP3   OH237528   3.256   5.334   2.732
12524TIP3    H137529   3.224   5.252   2.767
12524TIP3    H237530   3.216   5.341   2.646
12525TIP3   OH237531   6.154   7.053   2.110
12525TIP3    H137532   6.248   7.065   2.123
12525TIP3    H237533   6.115   7.076   2.194
12526TIP3   OH237534   3.594   5.982   0.912
12526TIP3    H137535   3.653   5.997   0.986
12526TIP3    H237536   3.571   6.070   0.882
12527TIP3   OH237537   4.398   1.616   2.649
12527TIP3    H137538   4.442   1.670   2.583
12527TIP3    H237539   4.312   1.657   2.661
12528TIP3   OH237540   5.621   0.842   1.414
12528TIP3    H137541   5.591   0.838   1.324
12528TIP3    H237542   5.687   0.773   1.421
12529TIP3   OH237543   7.477   2.859   1.959
12529TIP3    H137544   7.477   2.899   1.872
12529TIP3    H237545   7.467   2.933   2.019
12530TIP3   OH237546   4.129   6.420   4.427
12530TIP3    H137547   4.196   6.386   4.486
12530TIP3    H237548   4.060   6.453   4.485
12531TIP3   OH237549   7.854   6.366   5.708
12531TIP3    H137550   7.862   6.445   5.762
12531TIP3    H237551   7.761   6.343   5.713
12532TIP3   OH237552   0.084   1.972   2.316
12532TIP3    H137553   0.171   1.933   2.317
12532TIP3    H237554   0.066   1.987   2.223
12533TIP3   OH237555   0.622   0.001   2.419
12533TIP3    H137556   0.598  -0.009   2.327
12533TIP3    H237557   0.675   0.081   2.421
12534TIP3   OH237558   0.175   2.680   6.467
12534TIP3    H137559   0.147   2.681   6.558
12534TIP3    H237560   0.262   2.719   6.468
12535TIP3   OH237561   1.368   1.513   3.703
12535TIP3    H137562   1.445   1.518   3.759
12535TIP3    H237563   1.403   1.500   3.615
12536TIP3   OH237564   2.734   7.794   0.739
12536TIP3    H137565   2.828   7.795   0.757
12536TIP3    H237566   2.725   7.739   0.662
12537TIP3   OH237567   4.235   7.376   5.857
12537TIP3    H137568   4.214   7.285   5.835
12537TIP3    H237569   4.155   7.425   5.838
12538TIP3   OH237570   7.315   7.780   3.761
12538TIP3    H137571   7.308   7.870   3.792
12538TIP3    H237572   7.394   7.779   3.707
12539TIP3   OH237573   4.934   7.609   0.497
12539TIP3    H137574   5.005   7.638   0.553
12539TIP3    H237575   4.926   7.515   0.516
12540TIP3   OH237576   1.053   3.642   0.350
12540TIP3    H137577   1.036   3.719   0.297
12540TIP3    H237578   1.127   3.666   0.406
12541TIP3   OH237579   0.084   3.714   3.028
12541TIP3    H137580   0.176   3.698   3.009
12541TIP3    H237581   0.044   3.732   2.942
12542TIP3   OH237582   1.347   3.017   0.660
12542TIP3    H137583   1.312   2.928   0.653
12542TIP3    H237584   1.430   3.014   0.612
12543TIP3   OH237585   3.698   0.023   1.705
12543TIP3    H137586   3.667  -0.053   1.655
12543TIP3    H237587   3.710  -0.009   1.794
12544TIP3   OH237588   1.799   6.916   3.071
12544TIP3    H137589   1.780   6.914   2.977
12544TIP3    H237590   1.885   6.956   3.077
12545TIP3   OH237591   4.450   1.174   6.414
12545TIP3    H137592   4.440   1.157   6.321
12545TIP3    H237593   4.503   1.101   6.446
12546TIP3   OH237594   8.207   2.961   4.349
12546TIP3    H137595   8.230   3.033   4.289
12546TIP3    H237596   8.147   3.002   4.412
12547TIP3   OH237597   5.743   1.200   3.020
12547TIP3    H137598   5.686   1.246   3.080
12547TIP3    H237599   5.694   1.197   2.938
12548TIP3   OH237600   3.940   1.779   5.356
12548TIP3    H137601   4.005   1.796   5.287
12548TIP3    H237602   3.878   1.718   5.316
12549TIP3   OH237603   5.981   2.014   2.236
12549TIP3    H137604   6.023   2.052   2.159
12549TIP3    H237605   6.053   1.999   2.297
12550TIP3   OH237606   4.216   1.813   4.557
12550TIP3    H137607   4.156   1.850   4.621
12550TIP3    H237608   4.251   1.889   4.509
12551TIP3   OH237609   2.213   0.971   1.791
12551TIP3    H137610   2.164   0.943   1.868
12551TIP3    H237611   2.268   1.043   1.822
12552TIP3   OH237612   4.331   3.779   5.402
12552TIP3    H137613   4.372   3.702   5.442
12552TIP3    H237614   4.404   3.829   5.366
12553TIP3   OH237615   0.459   2.652   4.235
12553TIP3    H137616   0.471   2.600   4.155
12553TIP3    H237617   0.513   2.607   4.300
12554TIP3   OH237618   7.209   7.022   5.549
12554TIP3    H137619   7.260   6.947   5.581
12554TIP3    H237620   7.122   7.010   5.587
12555TIP3   OH237621   5.909   4.119  -0.012
12555TIP3    H137622   5.905   4.112   0.083
12555TIP3    H237623   5.843   4.185  -0.034
12556TIP3   OH237624   0.476   2.037   3.563
12556TIP3    H137625   0.508   2.111   3.512
12556TIP3    H237626   0.544   1.970   3.553
12557TIP3   OH237627   3.123   1.320   3.050
12557TIP3    H137628   3.198   1.320   3.109
12557TIP3    H237629   3.054   1.273   3.098
12558TIP3   OH237630   7.093   4.851   4.499
12558TIP3    H137631   7.187   4.837   4.487
12558TIP3    H237632   7.056   4.764   4.501
12559TIP3   OH237633   0.584   3.772   1.816
12559TIP3    H137634   0.575   3.713   1.742
12559TIP3    H237635   0.667   3.746   1.857
12560TIP3   OH237636   6.902   0.488   5.225
12560TIP3    H137637   6.821   0.508   5.178
12560TIP3    H237638   6.917   0.565   5.279
12561TIP3   OH237639   5.902   3.518   1.570
12561TIP3    H137640   5.939   3.482   1.489
12561TIP3    H237641   5.808   3.504   1.561
12562TIP3   OH237642   7.019   3.448   4.766
12562TIP3    H137643   7.016   3.543   4.781
12562TIP3    H237644   7.093   3.436   4.706
12563TIP3   OH237645   4.766   4.027   2.866
12563TIP3    H137646   4.781   3.983   2.782
12563TIP3    H237647   4.677   4.062   2.859
12564TIP3   OH237648   0.000   5.006   0.645
12564TIP3    H137649   0.066   4.944   0.614
12564TIP3    H237650   0.003   5.077   0.580
12565TIP3   OH237651   6.621   3.074   2.731
12565TIP3    H137652   6.670   3.051   2.652
12565TIP3    H237653   6.602   3.167   2.721
12566TIP3   OH237654   0.599   7.440   4.684
12566TIP3    H137655   0.639   7.376   4.743
12566TIP3    H237656   0.517   7.399   4.657
12567TIP3   OH237657   7.957   1.835   6.241
12567TIP3    H137658   7.916   1.871   6.162
12567TIP3    H237659   7.981   1.745   6.216
12568TIP3   OH237660   1.683   5.536   4.217
12568TIP3    H137661   1.659   5.480   4.143
12568TIP3    H237662   1.601   5.576   4.245
12569TIP3   OH237663   5.775   2.461   5.771
12569TIP3    H137664   5.858   2.456   5.723
12569TIP3    H237665   5.790   2.410   5.850
12570TIP3   OH237666   2.733   3.050   0.724
12570TIP3    H137667   2.725   2.955   0.731
12570TIP3    H237668   2.793   3.074   0.795
12571TIP3   OH237669   7.967   3.754   5.611
12571TIP3    H137670   8.060   3.769   5.597
12571TIP3    H237671   7.925   3.795   5.535
12572TIP3   OH237672   3.312   2.131   3.152
12572TIP3    H137673   3.399   2.101   3.178
12572TIP3    H237674   3.328   2.185   3.075
12573TIP3   OH237675   6.544   7.800   3.424
12573TIP3    H137676   6.620   7.751   3.391
12573TIP3    H237677   6.506   7.840   3.345
12574TIP3   OH237678   8.131   6.291   5.393
12574TIP3    H137679   8.087   6.228   5.336
12574TIP3    H237680   8.155   6.240   5.471
12575TIP3   OH237681   6.692   3.290   3.661
12575TIP3    H137682   6.683   3.276   3.755
12575TIP3    H237683   6.713   3.383   3.653
12576TIP3   OH237684   1.990   6.444   1.295
12576TIP3    H137685   2.015   6.522   1.345
12576TIP3    H237686   1.977   6.476   1.205
12577TIP3   OH237687   0.323   2.052   1.014
12577TIP3    H137688   0.379   2.041   0.938
12577TIP3    H237689   0.364   2.122   1.065
12578TIP3   OH237690   3.760   3.333   1.605
12578TIP3    H137691   3.745   3.393   1.678
12578TIP3    H237692   3.774   3.248   1.645
12579TIP3   OH237693   6.331   6.753   1.956
12579TIP3    H137694   6.291   6.672   1.924
12579TIP3    H237695   6.368   6.795   1.878
12580TIP3   OH237696   2.975   1.975   4.745
12580TIP3    H137697   3.015   2.042   4.800
12580TIP3    H237698   2.900   1.944   4.795
12581TIP3   OH237699   5.935   7.288   3.088
12581TIP3    H137700   5.951   7.213   3.145
12581TIP3    H237701   5.862   7.334   3.129
12582TIP3   OH237702   7.246   7.281   6.049
12582TIP3    H137703   7.307   7.208   6.042
12582TIP3    H237704   7.221   7.300   5.959
12583TIP3   OH237705   3.821   3.816   2.311
12583TIP3    H137706   3.734   3.779   2.297
12583TIP3    H237707   3.875   3.741   2.337
12584TIP3   OH237708   6.931   6.883   4.439
12584TIP3    H137709   6.993   6.815   4.414
12584TIP3    H237710   6.979   6.965   4.427
12585TIP3   OH237711   5.340   2.055   4.869
12585TIP3    H137712   5.364   2.084   4.781
12585TIP3    H237713   5.396   2.107   4.927
12586TIP3   OH237714   2.678   2.930   2.134
12586TIP3    H137715   2.587   2.959   2.126
12586TIP3    H237716   2.707   2.966   2.218
12587TIP3   OH237717   4.621   1.596   1.859
12587TIP3    H137718   4.710   1.619   1.883
12587TIP3    H237719   4.626   1.503   1.836
12588TIP3   OH237720   7.774   5.863   1.677
12588TIP3    H137721   7.724   5.911   1.611
12588TIP3    H237722   7.863   5.860   1.643
12589TIP3   OH237723   2.838   6.016   3.583
12589TIP3    H137724   2.876   5.971   3.658
12589TIP3    H237725   2.885   5.980   3.507
12590TIP3   OH237726   1.123   2.225   2.434
12590TIP3    H137727   1.145   2.165   2.363
12590TIP3    H237728   1.103   2.167   2.508
12591TIP3   OH237729   8.150   3.511   0.651
12591TIP3    H137730   8.164   3.522   0.745
12591TIP3    H237731   8.160   3.417   0.636
12592TIP3   OH237732   2.067   0.029   0.725
12592TIP3    H137733   2.024  -0.052   0.752
12592TIP3    H237734   2.053   0.089   0.798
12593TIP3   OH237735   5.912   7.322   3.417
12593TIP3    H137736   5.846   7.293   3.480
12593TIP3    H237737   5.937   7.243   3.370
12594TIP3   OH237738   1.796   7.117   2.161
12594TIP3    H137739   1.722   7.174   2.176
12594TIP3    H237740   1.805   7.067   2.242
12595TIP3   OH237741   2.947   0.244   3.087
12595TIP3    H137742   2.969   0.328   3.048
12595TIP3    H237743   3.022   0.187   3.068
12596TIP3   OH237744   2.911   5.777   3.026
12596TIP3    H137745   2.817   5.766   3.043
12596TIP3    H237746   2.953   5.708   3.076
12597TIP3   OH237747   6.658   5.868   5.042
12597TIP3    H137748   6.664   5.774   5.059
12597TIP3    H237749   6.736   5.906   5.083
12598TIP3   OH237750   1.373   1.076   6.301
12598TIP3    H137751   1.303   1.027   6.258
12598TIP3    H237752   1.438   1.089   6.232
12599TIP3   OH237753   7.007   0.691   2.120
12599TIP3    H137754   6.961   0.755   2.066
12599TIP3    H237755   6.937   0.645   2.167
12600TIP3   OH237756   3.985   7.772   2.625
12600TIP3    H137757   3.894   7.790   2.649
12600TIP3    H237758   4.037   7.820   2.690
12601TIP3   OH237759   8.137   0.922   4.555
12601TIP3    H137760   8.174   0.887   4.474
12601TIP3    H237761   8.043   0.926   4.539
12602TIP3   OH237762   3.198   5.884   5.207
12602TIP3    H137763   3.289   5.909   5.189
12602TIP3    H237764   3.194   5.878   5.303
12603TIP3   OH237765   5.397   0.906   6.341
12603TIP3    H137766   5.355   0.954   6.269
12603TIP3    H237767   5.383   0.960   6.418
12604TIP3   OH237768   1.793   1.913   6.783
12604TIP3    H137769   1.874   1.928   6.734
12604TIP3    H237770   1.740   1.858   6.725
12605TIP3   OH237771   7.238   3.333   0.705
12605TIP3    H137772   7.199   3.419   0.688
12605TIP3    H237773   7.326   3.352   0.736
12606TIP3   OH237774   7.749   1.916   2.873
12606TIP3    H137775   7.812   1.939   2.941
12606TIP3    H237776   7.803   1.882   2.801
12607TIP3   OH237777   3.097   7.386   3.504
12607TIP3    H137778   3.092   7.465   3.450
12607TIP3    H237779   3.189   7.380   3.530
12608TIP3   OH237780   0.637   3.683   5.542
12608TIP3    H137781   0.625   3.763   5.492
12608TIP3    H237782   0.583   3.696   5.620
12609TIP3   OH237783   1.319   4.607   0.581
12609TIP3    H137784   1.413   4.597   0.595
12609TIP3    H237785   1.290   4.663   0.653
12610TIP3   OH237786   4.978   7.237   1.036
12610TIP3    H137787   5.066   7.273   1.029
12610TIP3    H237788   4.974   7.199   1.123
12611TIP3   OH237789   1.552   0.580   3.041
12611TIP3    H137790   1.531   0.495   3.080
12611TIP3    H237791   1.541   0.566   2.947
12612TIP3   OH237792   2.130   4.156   1.874
12612TIP3    H137793   2.064   4.100   1.913
12612TIP3    H237794   2.129   4.133   1.781
12613TIP3   OH237795   0.539   3.735   3.671
12613TIP3    H137796   0.511   3.812   3.720
12613TIP3    H237797   0.622   3.709   3.711
12614TIP3   OH237798   5.981   3.458   6.293
12614TIP3    H137799   5.951   3.542   6.258
12614TIP3    H237800   5.917   3.394   6.262
12615TIP3   OH237801   2.395   0.412   2.980
12615TIP3    H137802   2.386   0.438   3.072
12615TIP3    H237803   2.387   0.316   2.982
12616TIP3   OH237804   3.636   6.661   1.507
12616TIP3    H137805   3.544   6.656   1.534
12616TIP3    H237806   3.633   6.649   1.412
12617TIP3   OH237807   7.794   0.380   3.611
12617TIP3    H137808   7.767   0.470   3.631
12617TIP3    H237809   7.800   0.378   3.515
12618TIP3   OH237810   3.848   4.413   4.859
12618TIP3    H137811   3.854   4.476   4.787
12618TIP3    H237812   3.772   4.359   4.838
12619TIP3   OH237813   6.527   4.130   2.328
12619TIP3    H137814   6.477   4.054   2.298
12619TIP3    H237815   6.477   4.205   2.295
12620TIP3   OH237816   5.614   1.416   1.685
12620TIP3    H137817   5.697   1.426   1.639
12620TIP3    H237818   5.548   1.418   1.616
12621TIP3   OH237819   6.233   6.766   2.551
12621TIP3    H137820   6.256   6.859   2.549
12621TIP3    H237821   6.272   6.730   2.471
12622TIP3   OH237822   7.754   4.375   2.766
12622TIP3    H137823   7.796   4.440   2.823
12622TIP3    H237824   7.675   4.418   2.735
12623TIP3   OH237825   7.150   0.265   5.846
12623TIP3    H137826   7.240   0.291   5.827
12623TIP3    H237827   7.153   0.233   5.937
12624TIP3   OH237828   8.092   6.837   2.682
12624TIP3    H137829   8.174   6.885   2.682
12624TIP3    H237830   8.041   6.876   2.611
12625TIP3   OH237831   5.426   5.927   4.844
12625TIP3    H137832   5.337   5.900   4.865
12625TIP3    H237833   5.452   5.871   4.771
12626TIP3   OH237834   4.607   2.125   5.208
12626TIP3    H137835   4.567   2.051   5.163
12626TIP3    H237836   4.553   2.138   5.287
12627TIP3   OH237837   7.932   1.293   1.524
12627TIP3    H137838   8.025   1.269   1.518
12627TIP3    H237839   7.932   1.388   1.510
12628TIP3   OH237840   0.854   0.435   3.108
12628TIP3    H137841   0.809   0.503   3.059
12628TIP3    H237842   0.864   0.363   3.045
12629TIP3   OH237843   4.387   0.376   4.734
12629TIP3    H137844   4.305   0.354   4.690
12629TIP3    H237845   4.366   0.453   4.786
12630TIP3   OH237846   7.879   4.838   3.787
12630TIP3    H137847   7.852   4.780   3.716
12630TIP3    H237848   7.957   4.883   3.754
12631TIP3   OH237849   6.093   2.662   5.307
12631TIP3    H137850   6.160   2.610   5.263
12631TIP3    H237851   6.060   2.604   5.376
12632TIP3   OH237852   3.085   7.694   4.158
12632TIP3    H137853   3.061   7.783   4.133
12632TIP3    H237854   3.084   7.695   4.254
12633TIP3   OH237855   1.984   7.110   3.368
12633TIP3    H137856   2.006   7.026   3.328
12633TIP3    H237857   2.058   7.167   3.349
12634TIP3   OH237858   3.857   5.235   0.031
12634TIP3    H137859   3.859   5.247  -0.064
12634TIP3    H237860   3.838   5.142   0.044
12635TIP3   OH237861   8.016   6.414   3.858
12635TIP3    H137862   7.938   6.465   3.880
12635TIP3    H237863   7.989   6.323   3.868
12636TIP3   OH237864   3.507   3.944   4.365
12636TIP3    H137865   3.537   3.962   4.454
12636TIP3    H237866   3.420   3.906   4.375
12637TIP3   OH237867   1.952   1.270   5.880
12637TIP3    H137868   2.007   1.221   5.942
12637TIP3    H237869   1.919   1.203   5.820
12638TIP3   OH237870   2.990   5.448   1.040
12638TIP3    H137871   2.969   5.409   1.125
12638TIP3    H237872   3.015   5.374   0.985
12639TIP3   OH237873   0.502   6.143   4.867
12639TIP3    H137874   0.425   6.123   4.921
12639TIP3    H237875   0.467   6.153   4.778
12640TIP3   OH237876   4.253   1.347   5.910
12640TIP3    H137877   4.252   1.260   5.870
12640TIP3    H237878   4.171   1.353   5.958
12641TIP3   OH237879   4.913   4.656   0.392
12641TIP3    H137880   4.988   4.698   0.433
12641TIP3    H237881   4.895   4.579   0.447
12642TIP3   OH237882   0.502   1.875   0.582
12642TIP3    H137883   0.492   1.853   0.490
12642TIP3    H237884   0.561   1.807   0.616
12643TIP3   OH237885   0.434   3.172   3.448
12643TIP3    H137886   0.346   3.187   3.480
12643TIP3    H237887   0.486   3.244   3.485
12644TIP3   OH237888   0.811   0.548   5.643
12644TIP3    H137889   0.803   0.508   5.557
12644TIP3    H237890   0.879   0.496   5.688
12645TIP3   OH237891   8.222   6.210   3.495
12645TIP3    H137892   8.135   6.201   3.457
12645TIP3    H237893   8.207   6.214   3.590
12646TIP3   OH237894   2.928   0.178   6.040
12646TIP3    H137895   2.938   0.227   6.122
12646TIP3    H237896   3.013   0.135   6.029
12647TIP3   OH237897   4.505   6.122   6.540
12647TIP3    H137898   4.515   6.107   6.446
12647TIP3    H237899   4.495   6.035   6.578
12648TIP3   OH237900   2.369   7.797   4.244
12648TIP3    H137901   2.378   7.880   4.198
12648TIP3    H237902   2.430   7.738   4.200
12649TIP3   OH237903   6.187   6.714   5.223
12649TIP3    H137904   6.273   6.696   5.185
12649TIP3    H237905   6.146   6.627   5.230
12650TIP3   OH237906   3.344   0.776   5.383
12650TIP3    H137907   3.292   0.709   5.340
12650TIP3    H237908   3.280   0.838   5.419
12651TIP3   OH237909   0.190   0.540   5.001
12651TIP3    H137910   0.214   0.605   5.068
12651TIP3    H237911   0.273   0.520   4.957
12652TIP3   OH237912   4.249   4.619   4.839
12652TIP3    H137913   4.233   4.616   4.744
12652TIP3    H237914   4.162   4.622   4.878
12653TIP3   OH237915   8.001   7.231   3.338
12653TIP3    H137916   7.953   7.151   3.319
12653TIP3    H237917   7.991   7.244   3.432
12654TIP3   OH237918   1.975   2.964   4.397
12654TIP3    H137919   2.062   2.983   4.363
12654TIP3    H237920   1.927   2.928   4.322
12655TIP3   OH237921   3.068   6.836   1.834
12655TIP3    H137922   3.048   6.847   1.927
12655TIP3    H237923   3.150   6.883   1.822
12656TIP3   OH237924   4.777   3.095   1.981
12656TIP3    H137925   4.835   3.042   2.037
12656TIP3    H237926   4.834   3.124   1.909
12657TIP3   OH237927   5.304   5.081   2.564
12657TIP3    H137928   5.293   5.096   2.470
12657TIP3    H237929   5.250   5.148   2.606
12658TIP3   OH237930   0.295   7.336   0.588
12658TIP3    H137931   0.269   7.420   0.551
12658TIP3    H237932   0.383   7.352   0.624
12659TIP3   OH237933   5.738   3.094   2.584
12659TIP3    H137934   5.831   3.089   2.607
12659TIP3    H237935   5.712   3.004   2.566
12660TIP3   OH237936   3.699   5.940   0.658
12660TIP3    H137937   3.628   5.891   0.618
12660TIP3    H237938   3.671   5.953   0.748
12661TIP3   OH237939   7.208   6.482   4.851
12661TIP3    H137940   7.281   6.529   4.892
12661TIP3    H237941   7.175   6.543   4.785
12662TIP3   OH237942   7.197   6.816   1.682
12662TIP3    H137943   7.278   6.864   1.699
12662TIP3    H237944   7.226   6.726   1.663
12663TIP3   OH237945   4.394   1.206   3.587
12663TIP3    H137946   4.406   1.169   3.674
12663TIP3    H237947   4.479   1.197   3.545
12664TIP3   OH237948   4.785   4.718   2.992
12664TIP3    H137949   4.784   4.623   2.988
12664TIP3    H237950   4.693   4.744   2.986
12665TIP3   OH237951   4.314   6.578   3.746
12665TIP3    H137952   4.360   6.495   3.757
12665TIP3    H237953   4.301   6.587   3.652
12666TIP3   OH237954   6.813   7.746   5.368
12666TIP3    H137955   6.730   7.707   5.341
12666TIP3    H237956   6.878   7.704   5.312
12667TIP3   OH237957   7.457   0.597   3.350
12667TIP3    H137958   7.434   0.557   3.434
12667TIP3    H237959   7.373   0.617   3.309
12668TIP3   OH237960   6.365   7.136   2.845
12668TIP3    H137961   6.284   7.151   2.796
12668TIP3    H237962   6.430   7.116   2.778
12669TIP3   OH237963   6.414   3.920   1.383
12669TIP3    H137964   6.420   3.825   1.372
12669TIP3    H237965   6.481   3.955   1.325
12670TIP3   OH237966   2.445   5.209   0.062
12670TIP3    H137967   2.396   5.126   0.060
12670TIP3    H237968   2.532   5.186   0.028
12671TIP3   OH237969   6.811   4.723   4.320
12671TIP3    H137970   6.868   4.668   4.267
12671TIP3    H237971   6.849   4.720   4.408
12672TIP3   OH237972   1.288   4.454   0.200
12672TIP3    H137973   1.202   4.486   0.227
12672TIP3    H237974   1.293   4.475   0.107
12673TIP3   OH237975   0.918   1.756   3.403
12673TIP3    H137976   0.877   1.670   3.413
12673TIP3    H237977   1.008   1.737   3.376
12674TIP3   OH237978   2.886   1.496   2.944
12674TIP3    H137979   2.914   1.416   2.989
12674TIP3    H237980   2.878   1.470   2.852
12675TIP3   OH237981   1.265   0.719   1.085
12675TIP3    H137982   1.349   0.716   1.039
12675TIP3    H237983   1.203   0.679   1.025
12676TIP3   OH237984   4.673   4.603   1.111
12676TIP3    H137985   4.660   4.517   1.153
12676TIP3    H237986   4.586   4.644   1.113
12677TIP3   OH237987   5.454   2.346   3.484
12677TIP3    H137988   5.478   2.315   3.572
12677TIP3    H237989   5.479   2.438   3.485
12678TIP3   OH237990   0.565   7.733   3.125
12678TIP3    H137991   0.612   7.688   3.054
12678TIP3    H237992   0.613   7.711   3.204
12679TIP3   OH237993   5.712   0.138   2.158
12679TIP3    H137994   5.641   0.179   2.207
12679TIP3    H237995   5.672   0.060   2.119
12680TIP3   OH237996   6.702   1.055   3.522
12680TIP3    H137997   6.791   1.046   3.556
12680TIP3    H237998   6.715   1.078   3.429
12681TIP3   OH237999   2.833   1.103   0.924
12681TIP3    H138000   2.856   1.145   1.006
12681TIP3    H238001   2.900   1.133   0.862
12682TIP3   OH238002   0.521   5.308   3.537
12682TIP3    H138003   0.521   5.367   3.462
12682TIP3    H238004   0.604   5.324   3.581
12683TIP3   OH238005   5.768   3.588   3.187
12683TIP3    H138006   5.710   3.634   3.126
12683TIP3    H238007   5.731   3.500   3.193
12684TIP3   OH238008   3.787   7.654   1.369
12684TIP3    H138009   3.724   7.667   1.440
12684TIP3    H238010   3.865   7.618   1.412
12685TIP3   OH238011   5.271   1.440   5.893
12685TIP3    H138012   5.348   1.405   5.937
12685TIP3    H238013   5.275   1.402   5.805
12686TIP3   OH238014   6.977   5.753   0.591
12686TIP3    H138015   6.890   5.715   0.586
12686TIP3    H238016   6.961   5.846   0.608
12687TIP3   OH238017   2.983   4.356   5.970
12687TIP3    H138018   3.044   4.285   5.952
12687TIP3    H238019   2.937   4.329   6.049
12688TIP3   OH238020   4.636   1.248   4.788
12688TIP3    H138021   4.601   1.239   4.699
12688TIP3    H238022   4.703   1.180   4.794
12689TIP3   OH238023   1.836   7.227   0.322
12689TIP3    H138024   1.841   7.301   0.261
12689TIP3    H238025   1.921   7.226   0.366
12690TIP3   OH238026   3.408   7.752   0.976
12690TIP3    H138027   3.490   7.801   0.968
12690TIP3    H238028   3.422   7.695   1.052
12691TIP3   OH238029   6.034   0.725   2.979
12691TIP3    H138030   6.129   0.735   2.981
12691TIP3    H238031   6.000   0.814   2.982
12692TIP3   OH238032   8.025   2.311   5.599
12692TIP3    H138033   8.095   2.338   5.657
12692TIP3    H238034   8.007   2.388   5.545
12693TIP3   OH238035   1.647   6.581   4.412
12693TIP3    H138036   1.667   6.535   4.494
12693TIP3    H238037   1.572   6.534   4.376
12694TIP3   OH238038   3.241   0.363   5.960
12694TIP3    H138039   3.253   0.276   5.997
12694TIP3    H238040   3.197   0.412   6.030
12695TIP3   OH238041   3.209   1.185   1.087
12695TIP3    H138042   3.228   1.268   1.042
12695TIP3    H238043   3.128   1.201   1.135
12696TIP3   OH238044   2.425   4.010   3.122
12696TIP3    H138045   2.351   3.949   3.130
12696TIP3    H238046   2.466   4.008   3.208
12697TIP3   OH238047   7.513   1.181   2.935
12697TIP3    H138048   7.600   1.142   2.949
12697TIP3    H238049   7.452   1.115   2.966
12698TIP3   OH238050   1.193   5.342   5.228
12698TIP3    H138051   1.162   5.299   5.149
12698TIP3    H238052   1.285   5.359   5.212
12699TIP3   OH238053   3.236   1.044   2.368
12699TIP3    H138054   3.151   1.075   2.399
12699TIP3    H238055   3.246   1.083   2.281
12700TIP3   OH238056   2.972   3.104   2.160
12700TIP3    H138057   3.030   3.058   2.220
12700TIP3    H238058   3.007   3.083   2.073
12701TIP3   OH238059   4.550   3.597   5.525
12701TIP3    H138060   4.615   3.642   5.579
12701TIP3    H238061   4.480   3.574   5.586
12702TIP3   OH238062   2.437   1.722   2.705
12702TIP3    H138063   2.362   1.662   2.698
12702TIP3    H238064   2.409   1.789   2.767
12703TIP3   OH238065   5.702   4.147   1.000
12703TIP3    H138066   5.699   4.151   0.904
12703TIP3    H238067   5.780   4.198   1.024
12704TIP3   OH238068   2.261   5.432   1.565
12704TIP3    H138069   2.327   5.467   1.505
12704TIP3    H238070   2.288   5.461   1.652
12705TIP3   OH238071   3.876   5.629   5.249
12705TIP3    H138072   3.795   5.677   5.232
12705TIP3    H238073   3.946   5.692   5.233
12706TIP3   OH238074   4.017   2.632   4.612
12706TIP3    H138075   4.072   2.639   4.535
12706TIP3    H238076   4.072   2.663   4.684
12707TIP3   OH238077   5.713   0.170   1.809
12707TIP3    H138078   5.771   0.144   1.881
12707TIP3    H238079   5.625   0.168   1.847
12708TIP3   OH238080   7.391   5.610   4.765
12708TIP3    H138081   7.385   5.602   4.670
12708TIP3    H238082   7.479   5.645   4.780
12709TIP3   OH238083   7.170   6.651   0.217
12709TIP3    H138084   7.250   6.675   0.263
12709TIP3    H238085   7.100   6.695   0.265
12710TIP3   OH238086   6.226   6.504   1.883
12710TIP3    H138087   6.290   6.433   1.871
12710TIP3    H238088   6.148   6.461   1.918
12711TIP3   OH238089   2.608   0.487   4.212
12711TIP3    H138090   2.614   0.582   4.218
12711TIP3    H238091   2.587   0.471   4.120
12712TIP3   OH238092   4.602   5.143   2.193
12712TIP3    H138093   4.545   5.139   2.271
12712TIP3    H238094   4.560   5.083   2.131
12713TIP3   OH238095   8.027   6.461   1.403
12713TIP3    H138096   8.089   6.516   1.451
12713TIP3    H238097   7.975   6.418   1.470
12714TIP3   OH238098   2.620   7.843   5.116
12714TIP3    H138099   2.682   7.811   5.051
12714TIP3    H238100   2.553   7.775   5.122
12715TIP3   OH238101   0.403   6.766   0.566
12715TIP3    H138102   0.497   6.776   0.553
12715TIP3    H238103   0.384   6.676   0.539
12716TIP3   OH238104   7.950   5.814   2.806
12716TIP3    H138105   7.873   5.868   2.826
12716TIP3    H238106   7.979   5.783   2.891
12717TIP3   OH238107   4.677   3.025   0.922
12717TIP3    H138108   4.693   3.080   0.998
12717TIP3    H238109   4.750   3.045   0.862
12718TIP3   OH238110   8.280   2.793   3.738
12718TIP3    H138111   8.308   2.860   3.676
12718TIP3    H238112   8.232   2.841   3.805
12719TIP3   OH238113   0.084   4.519   4.121
12719TIP3    H138114   0.047   4.571   4.193
12719TIP3    H238115   0.054   4.562   4.042
12720TIP3   OH238116   5.260   2.541   5.580
12720TIP3    H138117   5.270   2.634   5.598
12720TIP3    H238118   5.340   2.516   5.534
12721TIP3   OH238119   0.921   6.640   6.760
12721TIP3    H138120   0.905   6.734   6.756
12721TIP3    H238121   0.834   6.601   6.771
12722TIP3   OH238122   5.011   5.223   4.789
12722TIP3    H138123   4.984   5.231   4.697
12722TIP3    H238124   4.949   5.161   4.826
12723TIP3   OH238125   3.132   2.723   6.401
12723TIP3    H138126   3.219   2.687   6.417
12723TIP3    H238127   3.145   2.818   6.396
12724TIP3   OH238128   5.140   2.731   1.621
12724TIP3    H138129   5.137   2.710   1.528
12724TIP3    H238130   5.060   2.691   1.657
12725TIP3   OH238131   5.382   6.966   5.559
12725TIP3    H138132   5.359   6.981   5.468
12725TIP3    H238133   5.433   6.885   5.558
12726TIP3   OH238134   2.529   0.217   1.637
12726TIP3    H138135   2.465   0.242   1.704
12726TIP3    H238136   2.535   0.294   1.580
12727TIP3   OH238137   1.378   4.910   5.998
12727TIP3    H138138   1.289   4.892   6.027
12727TIP3    H238139   1.430   4.911   6.078
12728TIP3   OH238140   3.900   2.744   1.518
12728TIP3    H138141   3.893   2.840   1.516
12728TIP3    H238142   3.976   2.725   1.464
12729TIP3   OH238143   1.515   0.232   1.658
12729TIP3    H138144   1.455   0.289   1.609
12729TIP3    H238145   1.474   0.146   1.655
12730TIP3   OH238146   3.050   3.631   5.827
12730TIP3    H138147   3.133   3.661   5.864
12730TIP3    H238148   3.047   3.669   5.739
12731TIP3   OH238149   3.560   6.681   6.068
12731TIP3    H138150   3.524   6.624   6.137
12731TIP3    H238151   3.644   6.710   6.103
12732TIP3   OH238152   1.966   7.204   1.301
12732TIP3    H138153   2.040   7.180   1.357
12732TIP3    H238154   2.005   7.227   1.217
12733TIP3   OH238155   3.124   0.435   2.081
12733TIP3    H138156   3.164   0.406   1.999
12733TIP3    H238157   3.195   0.480   2.127
12734TIP3   OH238158   5.462   3.715   3.519
12734TIP3    H138159   5.408   3.673   3.586
12734TIP3    H238160   5.414   3.704   3.438
12735TIP3   OH238161   6.182   6.356   2.809
12735TIP3    H138162   6.208   6.440   2.772
12735TIP3    H238163   6.261   6.302   2.806
12736TIP3   OH238164   5.203   5.243   0.833
12736TIP3    H138165   5.284   5.279   0.797
12736TIP3    H238166   5.165   5.315   0.883
12737TIP3   OH238167   6.110   3.272   0.535
12737TIP3    H138168   6.156   3.321   0.467
12737TIP3    H238169   6.104   3.183   0.501
12738TIP3   OH238170   1.925   7.458   3.189
12738TIP3    H138171   1.996   7.411   3.231
12738TIP3    H238172   1.966   7.534   3.150
12739TIP3   OH238173   6.943   5.885   1.211
12739TIP3    H138174   6.867   5.937   1.186
12739TIP3    H238175   6.915   5.837   1.289
12740TIP3   OH238176   5.092   6.838   3.377
12740TIP3    H138177   5.028   6.775   3.408
12740TIP3    H238178   5.042   6.899   3.323
12741TIP3   OH238179   0.338   5.085   2.884
12741TIP3    H138180   0.295   5.152   2.831
12741TIP3    H238181   0.269   5.051   2.941
12742TIP3   OH238182   6.121   3.573   3.371
12742TIP3    H138183   6.196   3.547   3.317
12742TIP3    H238184   6.160   3.620   3.445
12743TIP3   OH238185   2.436   0.288   6.763
12743TIP3    H138186   2.467   0.376   6.784
12743TIP3    H238187   2.460   0.276   6.671
12744TIP3   OH238188   0.105   4.767   1.645
12744TIP3    H138189   0.022   4.799   1.609
12744TIP3    H238190   0.162   4.757   1.569
12745TIP3   OH238191   1.549   0.036   5.821
12745TIP3    H138192   1.536  -0.046   5.868
12745TIP3    H238193   1.462   0.056   5.785
12746TIP3   OH238194   7.220   4.800   4.874
12746TIP3    H138195   7.263   4.886   4.877
12746TIP3    H238196   7.185   4.787   4.962
12747TIP3   OH238197   0.359   7.698   3.858
12747TIP3    H138198   0.302   7.775   3.860
12747TIP3    H238199   0.306   7.630   3.815
12748TIP3   OH238200   4.670   5.209   0.597
12748TIP3    H138201   4.760   5.243   0.597
12748TIP3    H238202   4.638   5.227   0.508
12749TIP3   OH238203   2.289   6.334   3.831
12749TIP3    H138204   2.242   6.381   3.762
12749TIP3    H238205   2.381   6.338   3.805
12750TIP3   OH238206   5.610   5.980   3.459
12750TIP3    H138207   5.645   5.979   3.370
12750TIP3    H238208   5.674   6.029   3.510
12751TIP3   OH238209   7.670   5.439   1.966
12751TIP3    H138210   7.671   5.503   1.895
12751TIP3    H238211   7.708   5.486   2.041
12752TIP3   OH238212   7.897   2.291   1.410
12752TIP3    H138213   7.916   2.205   1.371
12752TIP3    H238214   7.982   2.324   1.437
12753TIP3   OH238215   3.178   5.899   2.629
12753TIP3    H138216   3.108   5.837   2.650
12753TIP3    H238217   3.254   5.844   2.611
12754TIP3   OH238218   3.474   6.790   6.456
12754TIP3    H138219   3.532   6.864   6.476
12754TIP3    H238220   3.526   6.712   6.477
12755TIP3   OH238221   8.141   4.452   0.758
12755TIP3    H138222   8.079   4.518   0.790
12755TIP3    H238223   8.149   4.389   0.829
12756TIP3   OH238224   5.391   3.201   3.292
12756TIP3    H138225   5.332   3.273   3.272
12756TIP3    H238226   5.359   3.129   3.237
12757TIP3   OH238227   2.652   1.541   0.262
12757TIP3    H138228   2.671   1.447   0.257
12757TIP3    H238229   2.646   1.559   0.356
12758TIP3   OH238230   0.258   7.100   2.213
12758TIP3    H138231   0.286   7.033   2.150
12758TIP3    H238232   0.327   7.166   2.211
12759TIP3   OH238233   7.700   4.699   5.840
12759TIP3    H138234   7.719   4.791   5.862
12759TIP3    H238235   7.709   4.653   5.923
12760TIP3   OH238236   2.283   4.298   2.601
12760TIP3    H138237   2.302   4.211   2.567
12760TIP3    H238238   2.191   4.313   2.580
12761TIP3   OH238239   2.127   2.691   6.080
12761TIP3    H138240   2.220   2.683   6.098
12761TIP3    H238241   2.093   2.748   6.149
12762TIP3   OH238242   3.325   3.770   2.504
12762TIP3    H138243   3.310   3.757   2.411
12762TIP3    H238244   3.413   3.808   2.509
12763TIP3   OH238245   1.027   2.077   4.159
12763TIP3    H138246   0.936   2.080   4.188
12763TIP3    H238247   1.038   2.157   4.106
12764TIP3   OH238248   4.172   2.727   2.005
12764TIP3    H138249   4.126   2.736   1.922
12764TIP3    H238250   4.256   2.770   1.991
12765TIP3   OH238251   6.993   0.359   3.689
12765TIP3    H138252   6.969   0.339   3.598
12765TIP3    H238253   7.015   0.275   3.728
12766TIP3   OH238254   2.595   6.536   5.660
12766TIP3    H138255   2.545   6.519   5.740
12766TIP3    H238256   2.578   6.628   5.641
12767TIP3   OH238257   5.749   3.705   2.870
12767TIP3    H138258   5.798   3.786   2.857
12767TIP3    H238259   5.693   3.698   2.793
12768TIP3   OH238260   7.975   6.628   5.831
12768TIP3    H138261   8.013   6.605   5.746
12768TIP3    H238262   7.927   6.709   5.815
12769TIP3   OH238263   7.146   5.598   2.349
12769TIP3    H138264   7.185   5.517   2.383
12769TIP3    H238265   7.195   5.667   2.392
12770TIP3   OH238266   3.497   6.774   4.366
12770TIP3    H138267   3.435   6.783   4.293
12770TIP3    H238268   3.444   6.739   4.438
12771TIP3   OH238269   7.518   5.961   1.458
12771TIP3    H138270   7.537   6.055   1.457
12771TIP3    H238271   7.582   5.922   1.398
12772TIP3   OH238272   4.097   6.682   5.130
12772TIP3    H138273   4.079   6.693   5.223
12772TIP3    H238274   4.098   6.771   5.095
12773TIP3   OH238275   4.762   7.715   6.728
12773TIP3    H138276   4.791   7.636   6.682
12773TIP3    H238277   4.843   7.755   6.760
12774TIP3   OH238278   0.664   6.714   6.215
12774TIP3    H138279   0.655   6.694   6.308
12774TIP3    H238280   0.575   6.729   6.185
12775TIP3   OH238281   4.256   1.069   3.034
12775TIP3    H138282   4.286   1.148   3.079
12775TIP3    H238283   4.330   1.044   2.978
12776TIP3   OH238284   3.110   3.949   0.795
12776TIP3    H138285   3.129   3.952   0.889
12776TIP3    H238286   3.185   3.904   0.757
12777TIP3   OH238287   2.854   6.177   6.523
12777TIP3    H138288   2.902   6.133   6.593
12777TIP3    H238289   2.911   6.248   6.495
12778TIP3   OH238290   3.071   4.118   6.337
12778TIP3    H138291   3.142   4.171   6.303
12778TIP3    H238292   3.059   4.148   6.427
12779TIP3   OH238293   4.509   1.430   3.256
12779TIP3    H138294   4.523   1.522   3.234
12779TIP3    H238295   4.483   1.432   3.348
12780TIP3   OH238296   0.584   7.408   1.731
12780TIP3    H138297   0.606   7.364   1.813
12780TIP3    H238298   0.490   7.395   1.721
12781TIP3   OH238299   0.805   7.819   0.757
12781TIP3    H138300   0.733   7.756   0.754
12781TIP3    H238301   0.819   7.836   0.850
12782TIP3   OH238302   6.038   3.804   4.167
12782TIP3    H138303   6.005   3.863   4.100
12782TIP3    H238304   6.004   3.839   4.249
12783TIP3   OH238305   1.312   1.402   4.279
12783TIP3    H138306   1.407   1.410   4.288
12783TIP3    H238307   1.296   1.308   4.277
12784TIP3   OH238308   3.808   3.185   4.215
12784TIP3    H138309   3.887   3.220   4.173
12784TIP3    H238310   3.759   3.144   4.144
12785TIP3   OH238311   3.361   0.109   1.803
12785TIP3    H138312   3.323   0.031   1.844
12785TIP3    H238313   3.439   0.077   1.759
12786TIP3   OH238314   6.912   0.453   5.527
12786TIP3    H138315   6.955   0.534   5.501
12786TIP3    H238316   6.893   0.408   5.444
12787TIP3   OH238317   3.927   5.868   3.903
12787TIP3    H138318   3.919   5.963   3.897
12787TIP3    H238319   3.878   5.845   3.981
12788TIP3   OH238320   4.274   1.389   3.957
12788TIP3    H138321   4.233   1.324   4.015
12788TIP3    H238322   4.203   1.418   3.900
12789TIP3   OH238323   4.169   6.005   3.008
12789TIP3    H138324   4.074   6.011   3.020
12789TIP3    H238325   4.203   5.984   3.095
12790TIP3   OH238326   6.378   4.725   6.518
12790TIP3    H138327   6.455   4.696   6.469
12790TIP3    H238328   6.387   4.820   6.524
12791TIP3   OH238329   4.405   3.823   1.354
12791TIP3    H138330   4.472   3.826   1.286
12791TIP3    H238331   4.408   3.909   1.394
12792TIP3   OH238332   8.237   5.803   0.120
12792TIP3    H138333   8.144   5.824   0.112
12792TIP3    H238334   8.256   5.748   0.044
12793TIP3   OH238335   8.144   2.756   0.726
12793TIP3    H138336   8.140   2.671   0.681
12793TIP3    H238337   8.068   2.755   0.784
12794TIP3   OH238338   5.440   3.680   1.363
12794TIP3    H138339   5.523   3.725   1.347
12794TIP3    H238340   5.428   3.685   1.457
12795TIP3   OH238341   6.505   7.660   5.997
12795TIP3    H138342   6.476   7.588   5.942
12795TIP3    H238343   6.597   7.640   6.018
12796TIP3   OH238344   6.673   2.627   2.100
12796TIP3    H138345   6.627   2.607   2.018
12796TIP3    H238346   6.764   2.603   2.083
12797TIP3   OH238347   5.764   0.803   6.032
12797TIP3    H138348   5.740   0.764   5.948
12797TIP3    H238349   5.738   0.895   6.024
12798TIP3   OH238350   5.236   3.120   2.051
12798TIP3    H138351   5.182   3.047   2.081
12798TIP3    H238352   5.174   3.190   2.034
12799TIP3   OH238353   7.410   7.646   6.592
12799TIP3    H138354   7.444   7.568   6.636
12799TIP3    H238355   7.436   7.635   6.501
12800TIP3   OH238356   5.975   4.840   0.464
12800TIP3    H138357   5.999   4.889   0.385
12800TIP3    H238358   5.880   4.847   0.469
12801TIP3   OH238359   4.224   1.460   1.043
12801TIP3    H138360   4.207   1.409   1.123
12801TIP3    H238361   4.268   1.539   1.074
12802TIP3   OH238362   2.217   6.714   2.773
12802TIP3    H138363   2.263   6.795   2.794
12802TIP3    H238364   2.217   6.710   2.677
12803TIP3   OH238365   7.225   5.892   3.896
12803TIP3    H138366   7.296   5.856   3.842
12803TIP3    H238367   7.224   5.985   3.873
12804TIP3   OH238368   7.265   0.903   1.069
12804TIP3    H138369   7.203   0.926   1.138
12804TIP3    H238370   7.251   0.809   1.054
12805TIP3   OH238371   6.745   1.706   0.458
12805TIP3    H138372   6.807   1.651   0.409
12805TIP3    H238373   6.660   1.688   0.418
12806TIP3   OH238374   2.773   0.169   1.182
12806TIP3    H138375   2.770   0.249   1.130
12806TIP3    H238376   2.683   0.137   1.183
12807TIP3   OH238377   2.610   7.095   1.422
12807TIP3    H138378   2.514   7.102   1.428
12807TIP3    H238379   2.639   7.184   1.400
12808TIP3   OH238380   6.703   5.158   3.039
12808TIP3    H138381   6.696   5.081   2.983
12808TIP3    H238382   6.791   5.192   3.021
12809TIP3   OH238383   5.530   4.946   0.796
12809TIP3    H138384   5.545   4.905   0.881
12809TIP3    H238385   5.456   4.898   0.759
12810TIP3   OH238386   8.159   4.882   5.811
12810TIP3    H138387   8.093   4.949   5.832
12810TIP3    H238388   8.109   4.811   5.771
12811TIP3   OH238389   5.534   7.524   5.366
12811TIP3    H138390   5.530   7.507   5.272
12811TIP3    H238391   5.446   7.502   5.398
12812TIP3   OH238392   3.651   0.429   3.629
12812TIP3    H138393   3.608   0.368   3.569
12812TIP3    H238394   3.599   0.425   3.709
12813TIP3   OH238395   6.058   2.646   5.695
12813TIP3    H138396   6.069   2.710   5.766
12813TIP3    H238397   6.035   2.699   5.619
12814TIP3   OH238398   7.719   4.098   3.581
12814TIP3    H138399   7.765   4.172   3.543
12814TIP3    H238400   7.701   4.125   3.671
12815TIP3   OH238401   2.901   7.224   1.078
12815TIP3    H138402   2.859   7.161   1.018
12815TIP3    H238403   2.876   7.310   1.043
12816TIP3   OH238404   1.426   7.573   6.532
12816TIP3    H138405   1.417   7.666   6.556
12816TIP3    H238406   1.355   7.557   6.470
12817TIP3   OH238407   7.420   5.597   3.654
12817TIP3    H138408   7.358   5.555   3.714
12817TIP3    H238409   7.443   5.679   3.697
12818TIP3   OH238410   0.574   5.666   6.214
12818TIP3    H138411   0.663   5.630   6.207
12818TIP3    H238412   0.563   5.718   6.134
12819TIP3   OH238413   5.129   6.659   3.118
12819TIP3    H138414   5.223   6.641   3.108
12819TIP3    H238415   5.121   6.753   3.102
12820TIP3   OH238416   6.665   1.841   2.066
12820TIP3    H138417   6.760   1.839   2.080
12820TIP3    H238418   6.638   1.928   2.094
12821TIP3   OH238419   6.500   7.579   5.495
12821TIP3    H138420   6.460   7.561   5.580
12821TIP3    H238421   6.465   7.665   5.470
12822TIP3   OH238422   7.786   4.485   0.051
12822TIP3    H138423   7.846   4.556   0.072
12822TIP3    H238424   7.708   4.503   0.104
12823TIP3   OH238425   2.659   2.746   3.275
12823TIP3    H138426   2.652   2.653   3.257
12823TIP3    H238427   2.694   2.751   3.364
12824TIP3   OH238428   4.774   4.144   5.895
12824TIP3    H138429   4.851   4.201   5.895
12824TIP3    H238430   4.701   4.201   5.918
12825TIP3   OH238431   2.802   6.812   3.209
12825TIP3    H138432   2.767   6.722   3.212
12825TIP3    H238433   2.879   6.806   3.152
12826TIP3   OH238434   1.384   0.425   1.096
12826TIP3    H138435   1.386   0.509   1.143
12826TIP3    H238436   1.317   0.374   1.140
12827TIP3   OH238437   7.894   1.090   6.230
12827TIP3    H138438   7.984   1.122   6.221
12827TIP3    H238439   7.852   1.153   6.289
12828TIP3   OH238440   0.475   6.743   1.621
12828TIP3    H138441   0.456   6.731   1.714
12828TIP3    H238442   0.482   6.654   1.586
12829TIP3   OH238443   2.961   4.005   4.916
12829TIP3    H138444   2.908   3.957   4.979
12829TIP3    H238445   2.958   4.096   4.946
12830TIP3   OH238446   2.942   3.866   2.455
12830TIP3    H138447   2.917   3.957   2.444
12830TIP3    H238448   2.869   3.816   2.419
12831TIP3   OH238449   1.618   1.513   3.845
12831TIP3    H138450   1.628   1.424   3.879
12831TIP3    H238451   1.700   1.556   3.869
12832TIP3   OH238452   5.960   5.948   3.685
12832TIP3    H138453   5.943   5.856   3.702
12832TIP3    H238454   5.916   5.966   3.602
12833TIP3   OH238455   4.995   3.048   3.830
12833TIP3    H138456   4.969   3.005   3.911
12833TIP3    H238457   4.913   3.076   3.790
12834TIP3   OH238458   3.069   2.381   0.543
12834TIP3    H138459   3.131   2.451   0.523
12834TIP3    H238460   3.111   2.331   0.613
12835TIP3   OH238461   0.002   1.232   3.155
12835TIP3    H138462   0.075   1.293   3.153
12835TIP3    H238463  -0.050   1.259   3.232
12836TIP3   OH238464   4.538   4.225   6.004
12836TIP3    H138465   4.550   4.144   6.053
12836TIP3    H238466   4.475   4.275   6.055
12837TIP3   OH238467   4.296   7.717   6.228
12837TIP3    H138468   4.300   7.636   6.179
12837TIP3    H238469   4.202   7.730   6.245
12838TIP3   OH238470   1.524   4.361   6.679
12838TIP3    H138471   1.557   4.372   6.768
12838TIP3    H238472   1.572   4.285   6.645
12839TIP3   OH238473   2.264   5.909   6.589
12839TIP3    H138474   2.321   5.949   6.655
12839TIP3    H238475   2.206   5.852   6.639
12840TIP3   OH238476   4.807   7.102   2.657
12840TIP3    H138477   4.787   7.009   2.666
12840TIP3    H238478   4.863   7.107   2.580
12841TIP3   OH238479   2.840   5.950   4.488
12841TIP3    H138480   2.801   5.863   4.484
12841TIP3    H238481   2.806   5.995   4.410
12842TIP3   OH238482   3.029   0.953   0.002
12842TIP3    H138483   2.983   1.026  -0.040
12842TIP3    H238484   2.994   0.952   0.091
12843TIP3   OH238485   4.854   6.203   4.604
12843TIP3    H138486   4.795   6.128   4.611
12843TIP3    H238487   4.809   6.263   4.544
12844TIP3   OH238488   2.875   6.615   3.774
12844TIP3    H138489   2.881   6.674   3.698
12844TIP3    H238490   2.780   6.604   3.787
12845TIP3   OH238491   5.177   1.310   2.121
12845TIP3    H138492   5.096   1.301   2.070
12845TIP3    H238493   5.217   1.391   2.087
12846TIP3   OH238494   4.274   1.950   5.581
12846TIP3    H138495   4.300   1.900   5.503
12846TIP3    H238496   4.294   1.892   5.654
12847TIP3   OH238497   5.925   4.748   5.823
12847TIP3    H138498   5.944   4.727   5.732
12847TIP3    H238499   5.993   4.702   5.873
12848TIP3   OH238500   4.188   1.825   4.138
12848TIP3    H138501   4.266   1.789   4.181
12848TIP3    H238502   4.115   1.781   4.180
12849TIP3   OH238503   2.158   5.858   5.206
12849TIP3    H138504   2.192   5.947   5.206
12849TIP3    H238505   2.065   5.868   5.224
12850TIP3   OH238506   3.032   5.129   3.175
12850TIP3    H138507   3.095   5.075   3.223
12850TIP3    H238508   2.966   5.067   3.144
12851TIP3   OH238509   4.750   3.096   3.351
12851TIP3    H138510   4.661   3.060   3.350
12851TIP3    H238511   4.806   3.020   3.369
12852TIP3   OH238512   2.477   0.476   4.747
12852TIP3    H138513   2.389   0.495   4.781
12852TIP3    H238514   2.525   0.558   4.758
12853TIP3   OH238515   4.193   0.705   1.618
12853TIP3    H138516   4.163   0.737   1.703
12853TIP3    H238517   4.288   0.699   1.627
12854TIP3   OH238518   0.160   7.729   2.400
12854TIP3    H138519   0.237   7.769   2.358
12854TIP3    H238520   0.087   7.754   2.343
12855TIP3   OH238521   4.966   7.469   4.843
12855TIP3    H138522   4.895   7.447   4.903
12855TIP3    H238523   5.015   7.388   4.832
12856TIP3   OH238524   6.080   7.149   2.366
12856TIP3    H138525   6.002   7.181   2.411
12856TIP3    H238526   6.153   7.191   2.412
12857TIP3   OH238527   5.152   5.933   4.600
12857TIP3    H138528   5.128   5.842   4.583
12857TIP3    H238529   5.151   5.941   4.696
12858TIP3   OH238530   4.886   3.654   1.315
12858TIP3    H138531   4.979   3.678   1.320
12858TIP3    H238532   4.877   3.615   1.228
12859TIP3   OH238533   7.841   3.610   4.172
12859TIP3    H138534   7.783   3.592   4.098
12859TIP3    H238535   7.784   3.651   4.238
12860TIP3   OH238536   0.591   2.809   1.475
12860TIP3    H138537   0.566   2.725   1.435
12860TIP3    H238538   0.568   2.799   1.567
12861TIP3   OH238539   1.300   7.109   2.931
12861TIP3    H138540   1.364   7.117   2.860
12861TIP3    H238541   1.285   7.200   2.959
12862TIP3   OH238542   4.422   5.670   6.433
12862TIP3    H138543   4.395   5.726   6.360
12862TIP3    H238544   4.364   5.696   6.505
12863TIP3   OH238545   3.018   2.371   2.087
12863TIP3    H138546   2.975   2.286   2.093
12863TIP3    H238547   2.956   2.433   2.125
12864TIP3   OH238548   1.616   2.702   4.919
12864TIP3    H138549   1.569   2.705   5.002
12864TIP3    H238550   1.566   2.641   4.865
12865TIP3   OH238551   5.094   5.663   5.265
12865TIP3    H138552   5.041   5.698   5.336
12865TIP3    H238553   5.034   5.661   5.190
12866TIP3   OH238554   5.495   1.333   1.081
12866TIP3    H138555   5.449   1.309   1.001
12866TIP3    H238556   5.435   1.309   1.152
12867TIP3   OH238557   2.948   5.372   2.945
12867TIP3    H138558   2.894   5.415   3.011
12867TIP3    H238559   2.976   5.290   2.986
12868TIP3   OH238560   1.682   2.878   3.111
12868TIP3    H138561   1.688   2.953   3.052
12868TIP3    H238562   1.764   2.878   3.160
12869TIP3   OH238563   6.128   1.783   2.435
12869TIP3    H138564   6.189   1.760   2.505
12869TIP3    H238565   6.184   1.802   2.359
12870TIP3   OH238566   4.077   1.477   3.081
12870TIP3    H138567   4.103   1.536   3.151
12870TIP3    H238568   4.117   1.393   3.104
12871TIP3   OH238569   5.239   1.535   1.027
12871TIP3    H138570   5.187   1.560   1.104
12871TIP3    H238571   5.299   1.609   1.014
12872TIP3   OH238572   3.447   1.731   3.873
12872TIP3    H138573   3.427   1.740   3.966
12872TIP3    H238574   3.507   1.656   3.869
12873TIP3   OH238575   4.148   1.160   6.444
12873TIP3    H138576   4.151   1.245   6.489
12873TIP3    H238577   4.240   1.135   6.436
12874TIP3   OH238578   6.744   6.491   0.932
12874TIP3    H138579   6.754   6.517   0.841
12874TIP3    H238580   6.666   6.436   0.933
12875TIP3   OH238581   2.281   2.994   6.163
12875TIP3    H138582   2.309   3.080   6.197
12875TIP3    H238583   2.210   2.968   6.222
12876TIP3   OH238584   0.731   7.317   5.968
12876TIP3    H138585   0.681   7.372   6.029
12876TIP3    H238586   0.739   7.370   5.889
12877TIP3   OH238587   6.293   0.741   5.766
12877TIP3    H138588   6.203   0.712   5.780
12877TIP3    H238589   6.303   0.745   5.671
12878TIP3   OH238590   0.073   2.150   6.091
12878TIP3    H138591   0.086   2.076   6.032
12878TIP3    H238592   0.154   2.202   6.083
12879TIP3   OH238593   0.379   6.229   1.112
12879TIP3    H138594   0.447   6.213   1.177
12879TIP3    H238595   0.360   6.142   1.076
12880TIP3   OH238596   5.104   2.964   4.580
12880TIP3    H138597   5.064   3.040   4.537
12880TIP3    H238598   5.091   2.892   4.518
12881TIP3   OH238599   5.224   2.909   3.619
12881TIP3    H138600   5.276   2.871   3.689
12881TIP3    H238601   5.236   3.004   3.629
12882TIP3   OH238602   3.481   0.199   4.552
12882TIP3    H138603   3.548   0.257   4.513
12882TIP3    H238604   3.531   0.126   4.588
12883TIP3   OH238605   6.985   0.613   0.188
12883TIP3    H138606   7.051   0.670   0.149
12883TIP3    H238607   7.028   0.528   0.197
12884TIP3   OH238608   2.799   2.591   0.285
12884TIP3    H138609   2.848   2.512   0.307
12884TIP3    H238610   2.728   2.560   0.228
12885TIP3   OH238611   4.439   2.327   4.340
12885TIP3    H138612   4.356   2.306   4.298
12885TIP3    H238613   4.435   2.422   4.354
12886TIP3   OH238614   0.595   6.235   5.202
12886TIP3    H138615   0.590   6.149   5.160
12886TIP3    H238616   0.540   6.292   5.148
12887TIP3   OH238617   7.088   0.119   1.413
12887TIP3    H138618   7.109   0.083   1.499
12887TIP3    H238619   7.169   0.162   1.385
12888TIP3   OH238620   1.703   6.532   3.268
12888TIP3    H138621   1.658   6.615   3.282
12888TIP3    H238622   1.710   6.494   3.355
12889TIP3   OH238623   0.920   4.068   4.333
12889TIP3    H138624   0.943   4.069   4.426
12889TIP3    H238625   0.830   4.034   4.331
12890TIP3   OH238626   3.429   0.859   2.069
12890TIP3    H138627   3.346   0.855   2.021
12890TIP3    H238628   3.457   0.768   2.076
12891TIP3   OH238629   0.507   0.699   3.876
12891TIP3    H138630   0.496   0.788   3.910
12891TIP3    H238631   0.530   0.647   3.953
12892TIP3   OH238632   4.524   3.688   3.067
12892TIP3    H138633   4.615   3.716   3.065
12892TIP3    H238634   4.526   3.599   3.101
12893TIP3   OH238635   6.867   3.278   4.179
12893TIP3    H138636   6.946   3.241   4.220
12893TIP3    H238637   6.872   3.371   4.200
12894TIP3   OH238638   3.129   3.738   5.589
12894TIP3    H138639   3.091   3.702   5.508
12894TIP3    H238640   3.119   3.833   5.580
12895TIP3   OH238641   7.279   5.491   5.429
12895TIP3    H138642   7.294   5.425   5.497
12895TIP3    H238643   7.298   5.574   5.473
12896TIP3   OH238644   7.957   4.727   6.661
12896TIP3    H138645   7.966   4.815   6.624
12896TIP3    H238646   7.923   4.742   6.749
12897TIP3   OH238647   1.965   4.912   1.505
12897TIP3    H138648   2.050   4.948   1.531
12897TIP3    H238649   1.969   4.907   1.410
12898TIP3   OH238650   6.024   2.682   6.322
12898TIP3    H138651   5.946   2.653   6.276
12898TIP3    H238652   5.998   2.761   6.368
12899TIP3   OH238653   8.271   7.719   1.377
12899TIP3    H138654   8.204   7.755   1.435
12899TIP3    H238655   8.240   7.739   1.289
12900TIP3   OH238656   5.064   5.044   1.994
12900TIP3    H138657   5.039   5.007   1.910
12900TIP3    H238658   5.159   5.035   1.997
12901TIP3   OH238659   5.168   3.707   2.898
12901TIP3    H138660   5.169   3.614   2.920
12901TIP3    H238661   5.238   3.718   2.834
12902TIP3   OH238662   2.903   4.779   0.374
12902TIP3    H138663   2.952   4.714   0.425
12902TIP3    H238664   2.860   4.727   0.306
12903TIP3   OH238665   6.245   3.111   1.634
12903TIP3    H138666   6.254   3.046   1.704
12903TIP3    H238667   6.185   3.177   1.669
12904TIP3   OH238668   0.576   7.301   3.486
12904TIP3    H138669   0.641   7.297   3.416
12904TIP3    H238670   0.511   7.364   3.456
12905TIP3   OH238671   4.011   6.158   1.399
12905TIP3    H138672   3.982   6.127   1.484
12905TIP3    H238673   3.996   6.252   1.401
12906TIP3   OH238674   6.340   4.292   0.150
12906TIP3    H138675   6.361   4.226   0.216
12906TIP3    H238676   6.418   4.298   0.096
12907TIP3   OH238677   2.175   6.321   5.388
12907TIP3    H138678   2.117   6.390   5.355
12907TIP3    H238679   2.236   6.367   5.446
12908TIP3   OH238680   0.640   2.044   5.387
12908TIP3    H138681   0.569   2.106   5.406
12908TIP3    H238682   0.715   2.100   5.365
12909TIP3   OH238683   4.345   7.452   6.133
12909TIP3    H138684   4.304   7.440   6.047
12909TIP3    H238685   4.402   7.375   6.142
12910TIP3   OH238686   2.135   1.024   3.605
12910TIP3    H138687   2.197   1.034   3.533
12910TIP3    H238688   2.188   1.029   3.684
12911TIP3   OH238689   3.441   3.378   3.807
12911TIP3    H138690   3.453   3.319   3.881
12911TIP3    H238691   3.526   3.380   3.763
12912TIP3   OH238692   5.009   1.037   1.848
12912TIP3    H138693   4.954   1.006   1.776
12912TIP3    H238694   5.076   0.969   1.857
12913TIP3   OH238695   7.571   5.206   2.155
12913TIP3    H138696   7.558   5.294   2.120
12913TIP3    H238697   7.662   5.185   2.136
12914TIP3   OH238698   8.043   6.553   2.973
12914TIP3    H138699   8.085   6.531   2.889
12914TIP3    H238700   7.987   6.628   2.952
12915TIP3   OH238701   5.305   4.262   5.517
12915TIP3    H138702   5.279   4.281   5.607
12915TIP3    H238703   5.391   4.220   5.525
12916TIP3   OH238704   2.329   0.741   3.876
12916TIP3    H138705   2.329   0.686   3.797
12916TIP3    H238706   2.407   0.795   3.868
12917TIP3   OH238707   4.955   4.536   1.674
12917TIP3    H138708   4.904   4.609   1.709
12917TIP3    H238709   4.991   4.568   1.592
12918TIP3   OH238710   5.935   3.289   3.082
12918TIP3    H138711   5.929   3.243   3.166
12918TIP3    H238712   6.027   3.314   3.074
12919TIP3   OH238713   7.087   7.678   4.265
12919TIP3    H138714   7.161   7.618   4.257
12919TIP3    H238715   7.120   7.748   4.322
12920TIP3   OH238716   5.370   4.779   3.996
12920TIP3    H138717   5.324   4.811   3.918
12920TIP3    H238718   5.319   4.814   4.069
12921TIP3   OH238719   2.535   0.284   5.401
12921TIP3    H138720   2.441   0.273   5.382
12921TIP3    H238721   2.579   0.240   5.329
12922TIP3   OH238722   4.773   3.212   6.452
12922TIP3    H138723   4.720   3.177   6.524
12922TIP3    H238724   4.715   3.273   6.407
12923TIP3   OH238725   4.302   3.240   2.039
12923TIP3    H138726   4.338   3.328   2.053
12923TIP3    H238727   4.378   3.185   2.025
12924TIP3   OH238728   0.524   6.441   2.975
12924TIP3    H138729   0.458   6.440   3.044
12924TIP3    H238730   0.603   6.408   3.017
12925TIP3   OH238731   5.794   5.525   6.292
12925TIP3    H138732   5.835   5.523   6.206
12925TIP3    H238733   5.867   5.516   6.353
12926TIP3   OH238734   1.175   2.983   2.448
12926TIP3    H138735   1.168   3.057   2.509
12926TIP3    H238736   1.259   2.997   2.403
12927TIP3   OH238737   7.492   3.227   1.123
12927TIP3    H138738   7.399   3.203   1.129
12927TIP3    H238739   7.492   3.309   1.073
12928TIP3   OH238740   6.946   4.063   0.962
12928TIP3    H138741   6.963   4.144   1.009
12928TIP3    H238742   7.007   4.064   0.888
12929TIP3   OH238743   2.426   0.793   5.678
12929TIP3    H138744   2.423   0.704   5.714
12929TIP3    H238745   2.438   0.781   5.584
12930TIP3   OH238746   1.691   5.217   6.780
12930TIP3    H138747   1.626   5.182   6.720
12930TIP3    H238748   1.769   5.163   6.766
12931TIP3   OH238749   2.201   3.727   0.539
12931TIP3    H138750   2.211   3.821   0.525
12931TIP3    H238751   2.110   3.709   0.515
12932TIP3   OH238752   7.255   4.805   6.328
12932TIP3    H138753   7.177   4.765   6.369
12932TIP3    H238754   7.237   4.801   6.234
12933TIP3   OH238755   5.070   6.862   2.253
12933TIP3    H138756   5.145   6.919   2.269
12933TIP3    H238757   5.092   6.814   2.173
12934TIP3   OH238758   6.282   5.226   1.890
12934TIP3    H138759   6.188   5.220   1.909
12934TIP3    H238760   6.287   5.267   1.804
12935TIP3   OH238761   0.403   1.858   2.828
12935TIP3    H138762   0.467   1.802   2.783
12935TIP3    H238763   0.455   1.910   2.889
12936TIP3   OH238764   4.010   0.008   2.871
12936TIP3    H138765   4.001  -0.050   2.947
12936TIP3    H238766   3.947   0.078   2.887
12937TIP3   OH238767   2.770   1.887   1.161
12937TIP3    H138768   2.742   1.799   1.139
12937TIP3    H238769   2.689   1.935   1.179
12938TIP3   OH238770   0.076   3.067   5.681
12938TIP3    H138771   0.137   2.997   5.661
12938TIP3    H238772   0.111   3.107   5.761
12939TIP3   OH238773   0.560   2.252   2.115
12939TIP3    H138774   0.473   2.285   2.093
12939TIP3    H238775   0.589   2.307   2.188
12940TIP3   OH238776   3.629   0.713   4.674
12940TIP3    H138777   3.539   0.743   4.663
12940TIP3    H238778   3.649   0.729   4.767
12941TIP3   OH238779   0.485   1.101   4.465
12941TIP3    H138780   0.561   1.159   4.465
12941TIP3    H238781   0.514   1.023   4.419
12942TIP3   OH238782   5.829   2.224   5.954
12942TIP3    H138783   5.924   2.230   5.941
12942TIP3    H238784   5.802   2.151   5.898
12943TIP3   OH238785   5.247   0.715   0.354
12943TIP3    H138786   5.320   0.766   0.390
12943TIP3    H238787   5.172   0.742   0.406
12944TIP3   OH238788   2.403   6.663   1.057
12944TIP3    H138789   2.427   6.728   1.123
12944TIP3    H238790   2.391   6.714   0.977
12945TIP3   OH238791   1.320   3.210   6.123
12945TIP3    H138792   1.337   3.185   6.214
12945TIP3    H238793   1.226   3.229   6.120
12946TIP3   OH238794   2.788   1.347   1.702
12946TIP3    H138795   2.875   1.318   1.729
12946TIP3    H238796   2.761   1.409   1.770
12947TIP3   OH238797   3.439   0.476   4.676
12947TIP3    H138798   3.490   0.494   4.755
12947TIP3    H238799   3.478   0.396   4.640
12948TIP3   OH238800   1.103   2.051   4.764
12948TIP3    H138801   1.091   2.065   4.670
12948TIP3    H238802   1.115   1.957   4.773
12949TIP3   OH238803   1.217   5.256   3.381
12949TIP3    H138804   1.259   5.342   3.389
12949TIP3    H238805   1.190   5.234   3.470
12950TIP3   OH238806   2.876   0.912   0.722
12950TIP3    H138807   2.865   0.961   0.803
12950TIP3    H238808   2.971   0.903   0.712
12951TIP3   OH238809   0.892   4.508   3.562
12951TIP3    H138810   0.839   4.433   3.591
12951TIP3    H238811   0.865   4.580   3.618
12952TIP3   OH238812   1.433   6.831   0.762
12952TIP3    H138813   1.361   6.878   0.803
12952TIP3    H238814   1.503   6.832   0.827
12953TIP3   OH238815   0.499   5.026   2.674
12953TIP3    H138816   0.444   5.061   2.743
12953TIP3    H238817   0.438   4.978   2.617
12954TIP3   OH238818   5.064   1.790   3.811
12954TIP3    H138819   5.089   1.875   3.775
12954TIP3    H238820   5.129   1.773   3.879
12955TIP3   OH238821   1.492   3.043   4.945
12955TIP3    H138822   1.523   3.093   4.870
12955TIP3    H238823   1.452   3.108   5.003
12956TIP3   OH238824   1.462   6.321   4.469
12956TIP3    H138825   1.431   6.403   4.509
12956TIP3    H238826   1.395   6.298   4.406
12957TIP3   OH238827   1.148   4.990   5.616
12957TIP3    H138828   1.154   5.040   5.534
12957TIP3    H238829   1.179   4.903   5.593
12958TIP3   OH238830   2.213   2.949   0.137
12958TIP3    H138831   2.203   3.032   0.183
12958TIP3    H238832   2.288   2.962   0.079
12959TIP3   OH238833   7.337   6.468   2.555
12959TIP3    H138834   7.310   6.534   2.618
12959TIP3    H238835   7.258   6.450   2.503
12960TIP3   OH238836   7.465   1.741   5.802
12960TIP3    H138837   7.372   1.739   5.779
12960TIP3    H238838   7.495   1.828   5.773
12961TIP3   OH238839   3.598   7.752   6.002
12961TIP3    H138840   3.529   7.797   5.954
12961TIP3    H238841   3.674   7.811   5.996
12962TIP3   OH238842   3.033   4.342   0.392
12962TIP3    H138843   3.060   4.349   0.300
12962TIP3    H238844   3.087   4.272   0.428
12963TIP3   OH238845   2.785   0.821   5.777
12963TIP3    H138846   2.690   0.824   5.786
12963TIP3    H238847   2.815   0.769   5.852
12964TIP3   OH238848   1.581   5.713   0.465
12964TIP3    H138849   1.664   5.716   0.513
12964TIP3    H238850   1.597   5.764   0.386
12965TIP3   OH238851   1.799   0.796   1.846
12965TIP3    H138852   1.859   0.804   1.772
12965TIP3    H238853   1.770   0.705   1.844
12966TIP3   OH238854   2.217   5.050   1.552
12966TIP3    H138855   2.299   5.002   1.543
12966TIP3    H238856   2.242   5.142   1.542
12967TIP3   OH238857   2.119   1.543   4.141
12967TIP3    H138858   2.101   1.480   4.070
12967TIP3    H238859   2.213   1.557   4.138
12968TIP3   OH238860   5.711   5.100   5.328
12968TIP3    H138861   5.683   5.056   5.248
12968TIP3    H238862   5.631   5.116   5.377
12969TIP3   OH238863   6.949   1.566   2.870
12969TIP3    H138864   6.867   1.521   2.850
12969TIP3    H238865   6.936   1.655   2.840
12970TIP3   OH238866   1.095   2.393   5.754
12970TIP3    H138867   1.037   2.340   5.700
12970TIP3    H238868   1.098   2.478   5.710
12971TIP3   OH238869   3.987   4.373   3.109
12971TIP3    H138870   4.035   4.439   3.159
12971TIP3    H238871   4.055   4.315   3.075
12972TIP3   OH238872   6.074   5.856   4.732
12972TIP3    H138873   6.140   5.789   4.716
12972TIP3    H238874   6.011   5.814   4.790
12973TIP3   OH238875   7.564   7.409   0.254
12973TIP3    H138876   7.563   7.468   0.178
12973TIP3    H238877   7.489   7.436   0.306
12974TIP3   OH238878   4.040   2.992   5.739
12974TIP3    H138879   4.119   2.940   5.721
12974TIP3    H238880   4.052   3.023   5.829
12975TIP3   OH238881   6.188   2.593   3.883
12975TIP3    H138882   6.251   2.648   3.931
12975TIP3    H238883   6.196   2.507   3.924
12976TIP3   OH238884   1.734   1.492   3.552
12976TIP3    H138885   1.689   1.441   3.484
12976TIP3    H238886   1.696   1.461   3.634
12977TIP3   OH238887   0.264   0.649   0.087
12977TIP3    H138888   0.187   0.639   0.032
12977TIP3    H238889   0.231   0.641   0.176
12978TIP3   OH238890   2.469   5.759   4.588
12978TIP3    H138891   2.472   5.840   4.537
12978TIP3    H238892   2.472   5.787   4.679
12979TIP3   OH238893   1.046   1.420   4.102
12979TIP3    H138894   1.125   1.445   4.150
12979TIP3    H238895   1.076   1.402   4.013
12980TIP3   OH238896   4.339   4.874   5.606
12980TIP3    H138897   4.349   4.779   5.612
12980TIP3    H238898   4.294   4.888   5.523
12981TIP3   OH238899   2.954   1.598   5.104
12981TIP3    H138900   2.868   1.555   5.107
12981TIP3    H238901   2.981   1.603   5.196
12982TIP3   OH238902   7.277   1.005   2.890
12982TIP3    H138903   7.262   1.087   2.842
12982TIP3    H238904   7.304   0.943   2.823
12983TIP3   OH238905   7.933   3.144   1.759
12983TIP3    H138906   7.976   3.176   1.838
12983TIP3    H238907   7.863   3.087   1.791
12984TIP3   OH238908   4.666   4.666   5.448
12984TIP3    H138909   4.710   4.702   5.371
12984TIP3    H238910   4.585   4.629   5.415
12985TIP3   OH238911   8.188   4.980   2.018
12985TIP3    H138912   8.115   4.938   2.065
12985TIP3    H238913   8.171   4.959   1.926
12986TIP3   OH238914   6.018   1.392   6.243
12986TIP3    H138915   5.947   1.444   6.281
12986TIP3    H238916   5.992   1.301   6.258
12987TIP3   OH238917   4.756   1.256  -0.009
12987TIP3    H138918   4.719   1.187   0.045
12987TIP3    H238919   4.843   1.271   0.026
12988TIP3   OH238920   1.216   2.308   3.543
12988TIP3    H138921   1.211   2.226   3.493
12988TIP3    H238922   1.161   2.369   3.495
12989TIP3   OH238923   0.254   6.931   5.035
12989TIP3    H138924   0.188   6.909   5.101
12989TIP3    H238925   0.204   6.968   4.963
12990TIP3   OH238926   6.608   2.068   3.386
12990TIP3    H138927   6.646   2.053   3.473
12990TIP3    H238928   6.581   1.981   3.357
12991TIP3   OH238929   3.674   2.483   4.765
12991TIP3    H138930   3.600   2.506   4.709
12991TIP3    H238931   3.703   2.566   4.803
12992TIP3   OH238932   4.325   1.872   3.135
12992TIP3    H138933   4.260   1.940   3.155
12992TIP3    H238934   4.396   1.919   3.090
12993TIP3   OH238935   2.029   0.509   6.567
12993TIP3    H138936   2.027   0.439   6.632
12993TIP3    H238937   1.977   0.579   6.605
12994TIP3   OH238938   5.744   0.463   4.033
12994TIP3    H138939   5.747   0.368   4.033
12994TIP3    H238940   5.667   0.485   4.085
12995TIP3   OH238941   2.831   2.484   6.009
12995TIP3    H138942   2.889   2.421   5.965
12995TIP3    H238943   2.883   2.516   6.083
12996TIP3   OH238944   0.747   0.303   5.493
12996TIP3    H138945   0.654   0.324   5.484
12996TIP3    H238946   0.776   0.281   5.404
12997TIP3   OH238947   6.630   2.752   3.607
12997TIP3    H138948   6.554   2.701   3.580
12997TIP3    H238949   6.681   2.763   3.527
12998TIP3   OH238950   5.585   2.657   0.958
12998TIP3    H138951   5.671   2.700   0.959
12998TIP3    H238952   5.573   2.630   0.867
12999TIP3   OH238953   4.409   7.764   1.646
12999TIP3    H138954   4.325   7.721   1.666
12999TIP3    H238955   4.472   7.692   1.642
13000TIP3   OH238956   1.466   5.303   6.434
13000TIP3    H138957   1.523   5.305   6.357
13000TIP3    H238958   1.416   5.222   6.424
13001TIP3   OH238959   0.927   3.026   2.307
13001TIP3    H138960   0.958   3.117   2.302
13001TIP3    H238961   0.986   2.984   2.370
13002TIP3   OH238962   0.305   0.401   4.275
13002TIP3    H138963   0.309   0.422   4.368
13002TIP3    H238964   0.391   0.426   4.241
13003TIP3   OH238965   5.966   0.409   4.401
13003TIP3    H138966   5.908   0.333   4.391
13003TIP3    H238967   5.923   0.478   4.351
13004TIP3   OH238968   6.766   0.682   0.999
13004TIP3    H138969   6.761   0.773   0.969
13004TIP3    H238970   6.765   0.689   1.095
13005TIP3   OH238971   4.148   0.771   1.886
13005TIP3    H138972   4.205   0.763   1.963
13005TIP3    H238973   4.139   0.866   1.873
13006TIP3   OH238974   5.643   1.046   1.836
13006TIP3    H138975   5.720   1.089   1.874
13006TIP3    H238976   5.568   1.095   1.870
13007TIP3   OH238977   6.028   1.866   0.102
13007TIP3    H138978   5.944   1.888   0.062
13007TIP3    H238979   6.089   1.861   0.028
13008TIP3   OH238980   2.100   5.519   1.947
13008TIP3    H138981   2.141   5.485   2.027
13008TIP3    H238982   2.009   5.491   1.953
13009TIP3   OH238983   1.317   2.773   5.493
13009TIP3    H138984   1.234   2.813   5.520
13009TIP3    H238985   1.380   2.800   5.561
13010TIP3   OH238986   0.046   7.612   6.429
13010TIP3    H138987   0.043   7.521   6.398
13010TIP3    H238988  -0.043   7.631   6.458
13011TIP3   OH238989  -0.031   1.799   4.124
13011TIP3    H138990   0.012   1.727   4.170
13011TIP3    H238991   0.011   1.801   4.038
13012TIP3   OH238992   7.927   7.582   1.985
13012TIP3    H138993   7.839   7.544   1.977
13012TIP3    H238994   7.919   7.668   1.942
13013TIP3   OH238995   5.645   4.748   1.290
13013TIP3    H138996   5.583   4.691   1.336
13013TIP3    H238997   5.590   4.802   1.233
13014TIP3   OH238998   0.308   5.525   1.782
13014TIP3    H138999   0.301   5.621   1.790
13014TIP3    H239000   0.224   5.493   1.815
13015TIP3   OH239001   0.759   0.896   3.738
13015TIP3    H139002   0.782   0.893   3.831
13015TIP3    H239003   0.839   0.869   3.693
13016TIP3   OH239004   7.930   3.819   1.558
13016TIP3    H139005   7.914   3.907   1.593
13016TIP3    H239006   7.985   3.776   1.623
13017TIP3   OH239007   3.354   2.481   2.066
13017TIP3    H139008   3.306   2.408   2.028
13017TIP3    H239009   3.442   2.448   2.082
13018TIP3   OH239010   2.024   1.676   5.546
13018TIP3    H139011   2.012   1.751   5.606
13018TIP3    H239012   2.004   1.600   5.600
13019TIP3   OH239013   5.839   5.164   0.447
13019TIP3    H139014   5.888   5.180   0.528
13019TIP3    H239015   5.756   5.127   0.476
13020TIP3   OH239016   7.964   5.794   5.743
13020TIP3    H139017   7.981   5.832   5.829
13020TIP3    H239018   7.989   5.862   5.681
13021TIP3   OH239019   6.589   6.856   1.827
13021TIP3    H139020   6.666   6.823   1.874
13021TIP3    H239021   6.592   6.951   1.840
13022TIP3   OH239022   4.696   2.606   5.786
13022TIP3    H139023   4.767   2.548   5.758
13022TIP3    H239024   4.733   2.656   5.859
13023TIP3   OH239025   3.002   4.909   5.248
13023TIP3    H139026   2.968   4.989   5.287
13023TIP3    H239027   3.044   4.862   5.321
13024TIP3   OH239028   7.965   2.795   1.444
13024TIP3    H139029   7.914   2.866   1.404
13024TIP3    H239030   7.922   2.779   1.528
13025TIP3   OH239031   7.054   3.758   4.450
13025TIP3    H139032   7.019   3.748   4.538
13025TIP3    H239033   7.034   3.848   4.426
13026TIP3   OH239034   4.831   5.470   2.495
13026TIP3    H139035   4.877   5.506   2.570
13026TIP3    H239036   4.900   5.433   2.440
13027TIP3   OH239037   6.405   5.136   5.959
13027TIP3    H139038   6.381   5.202   5.894
13027TIP3    H239039   6.339   5.068   5.950
13028TIP3   OH239040   3.456   7.159   6.482
13028TIP3    H139041   3.489   7.206   6.405
13028TIP3    H239042   3.362   7.175   6.481
13029TIP3   OH239043   4.123   2.364   4.431
13029TIP3    H139044   4.032   2.394   4.433
13029TIP3    H239045   4.155   2.389   4.344
13030TIP3   OH239046   2.318   4.365   4.921
13030TIP3    H139047   2.356   4.450   4.899
13030TIP3    H239048   2.224   4.383   4.933
13031TIP3   OH239049   6.182   1.840   1.152
13031TIP3    H139050   6.252   1.904   1.165
13031TIP3    H239051   6.125   1.879   1.085
13032TIP3   OH239052   0.331   6.433   6.195
13032TIP3    H139053   0.344   6.381   6.274
13032TIP3    H239054   0.337   6.524   6.224
13033TIP3   OH239055   3.355   4.343   2.538
13033TIP3    H139056   3.362   4.257   2.498
13033TIP3    H239057   3.374   4.404   2.467
13034TIP3   OH239058   8.293   1.866   1.422
13034TIP3    H139059   8.226   1.879   1.490
13034TIP3    H239060   8.354   1.803   1.461
13035TIP3   OH239061   4.996   7.137   2.464
13035TIP3    H139062   5.000   7.073   2.392
13035TIP3    H239063   5.054   7.208   2.436
13036TIP3   OH239064   0.498   5.427   3.149
13036TIP3    H139065   0.491   5.519   3.173
13036TIP3    H239066   0.571   5.394   3.202
13037TIP3   OH239067   1.567   6.806   0.304
13037TIP3    H139068   1.544   6.766   0.387
13037TIP3    H239069   1.661   6.823   0.311
13038TIP3   OH239070   5.917   2.073   5.669
13038TIP3    H139071   5.902   2.001   5.607
13038TIP3    H239072   6.009   2.096   5.658
13039TIP3   OH239073   7.699   0.475   2.915
13039TIP3    H139074   7.637   0.402   2.913
13039TIP3    H239075   7.779   0.440   2.876
13040TIP3   OH239076   1.942   7.511   2.123
13040TIP3    H139077   1.987   7.560   2.192
13040TIP3    H239078   1.992   7.430   2.114
13041TIP3   OH239079   3.864   6.768   2.379
13041TIP3    H139080   3.855   6.691   2.323
13041TIP3    H239081   3.831   6.841   2.326
13042TIP3   OH239082   7.569   7.288   3.693
13042TIP3    H139083   7.531   7.221   3.750
13042TIP3    H239084   7.583   7.243   3.609
13043TIP3   OH239085   0.454   6.244   2.775
13043TIP3    H139086   0.416   6.175   2.830
13043TIP3    H239087   0.454   6.322   2.831
13044TIP3   OH239088   7.788   0.686   0.944
13044TIP3    H139089   7.817   0.661   1.032
13044TIP3    H239090   7.695   0.706   0.955
13045TIP3   OH239091   5.148   5.434   1.749
13045TIP3    H139092   5.091   5.436   1.825
13045TIP3    H239093   5.103   5.377   1.686
13046TIP3   OH239094   3.987   4.326   2.767
13046TIP3    H139095   4.056   4.287   2.821
13046TIP3    H239096   3.946   4.251   2.723
13047TIP3   OH239097   4.814   7.465   6.656
13047TIP3    H139098   4.800   7.450   6.563
13047TIP3    H239099   4.781   7.385   6.698
13048TIP3   OH239100   0.973   2.847   6.606
13048TIP3    H139101   1.020   2.929   6.589
13048TIP3    H239102   1.036   2.778   6.582
13049TIP3   OH239103   7.078   6.988   4.788
13049TIP3    H139104   6.987   6.973   4.764
13049TIP3    H239105   7.126   6.918   4.744
13050TIP3   OH239106   4.565   6.431   1.247
13050TIP3    H139107   4.582   6.408   1.338
13050TIP3    H239108   4.564   6.347   1.201
13051TIP3   OH239109   1.283   3.690   4.178
13051TIP3    H139110   1.210   3.733   4.223
13051TIP3    H239111   1.340   3.660   4.249
13052TIP3   OH239112   6.545   4.650   4.962
13052TIP3    H139113   6.613   4.607   5.013
13052TIP3    H239114   6.473   4.662   5.023
13053TIP3   OH239115   0.988   0.445   0.123
13053TIP3    H139116   1.002   0.498   0.201
13053TIP3    H239117   0.928   0.497   0.069
13054TIP3   OH239118   1.145   2.903   6.260
13054TIP3    H139119   1.145   2.987   6.306
13054TIP3    H239120   1.062   2.903   6.211
13055TIP3   OH239121   2.032   7.257   2.087
13055TIP3    H139122   2.041   7.210   2.004
13055TIP3    H239123   1.950   7.225   2.125
13056TIP3   OH239124   3.400   1.198   1.344
13056TIP3    H139125   3.366   1.123   1.393
13056TIP3    H239126   3.329   1.222   1.284
13057TIP3   OH239127   5.684   1.160   0.544
13057TIP3    H139128   5.595   1.164   0.510
13057TIP3    H239129   5.707   1.250   0.564
13058TIP3   OH239130   7.874   2.743   5.146
13058TIP3    H139131   7.882   2.654   5.178
13058TIP3    H239132   7.962   2.768   5.119
13059TIP3   OH239133   4.486   3.922   5.160
13059TIP3    H139134   4.516   4.003   5.119
13059TIP3    H239135   4.523   3.853   5.104
13060TIP3   OH239136   2.087   5.048   2.606
13060TIP3    H139137   2.099   5.045   2.511
13060TIP3    H239138   2.165   5.094   2.638
13061TIP3   OH239139   5.505   5.310   6.368
13061TIP3    H139140   5.431   5.253   6.386
13061TIP3    H239141   5.492   5.340   6.278
13062TIP3   OH239142   4.132   0.459   3.096
13062TIP3    H139143   4.046   0.445   3.135
13062TIP3    H239144   4.171   0.372   3.091
13063TIP3   OH239145   0.540   0.561   2.603
13063TIP3    H139146   0.597   0.487   2.625
13063TIP3    H239147   0.540   0.564   2.508
13064TIP3   OH239148   0.322   1.300   2.938
13064TIP3    H139149   0.329   1.318   3.032
13064TIP3    H239150   0.393   1.350   2.899
13065TIP3   OH239151   2.820   3.504   6.685
13065TIP3    H139152   2.867   3.444   6.627
13065TIP3    H239153   2.731   3.509   6.648
13066TIP3   OH239154   1.277   5.544   4.958
13066TIP3    H139155   1.281   5.599   5.036
13066TIP3    H239156   1.329   5.467   4.980
13067TIP3   OH239157   2.163   4.790   4.925
13067TIP3    H139158   2.212   4.767   5.005
13067TIP3    H239159   2.095   4.723   4.920
13068TIP3   OH239160   3.082   4.339   5.443
13068TIP3    H139161   3.083   4.248   5.413
13068TIP3    H239162   3.052   4.334   5.534
13069TIP3   OH239163   7.311   2.570   1.297
13069TIP3    H139164   7.239   2.619   1.259
13069TIP3    H239165   7.279   2.480   1.302
13070TIP3   OH239166   4.973   4.376   5.109
13070TIP3    H139167   5.024   4.456   5.095
13070TIP3    H239168   5.023   4.307   5.067
13071TIP3   OH239169   4.608   1.240   5.937
13071TIP3    H139170   4.690   1.270   5.976
13071TIP3    H239171   4.615   1.266   5.845
13072TIP3   OH239172   0.175   0.651   4.168
13072TIP3    H139173   0.212   0.567   4.194
13072TIP3    H239174   0.215   0.715   4.227
13073TIP3   OH239175   6.654   7.080   6.070
13073TIP3    H139176   6.687   7.065   5.982
13073TIP3    H239177   6.687   7.005   6.121
13074TIP3   OH239178   8.010   3.814   6.647
13074TIP3    H139179   7.982   3.787   6.559
13074TIP3    H239180   8.096   3.854   6.634
13075TIP3   OH239181   0.869   7.239   2.756
13075TIP3    H139182   0.776   7.258   2.770
13075TIP3    H239183   0.903   7.217   2.842
13076TIP3   OH239184   6.648   5.346   3.245
13076TIP3    H139185   6.631   5.410   3.176
13076TIP3    H239186   6.674   5.267   3.198
13077TIP3   OH239187   0.268   7.356   1.623
13077TIP3    H139188   0.207   7.380   1.553
13077TIP3    H239189   0.220   7.294   1.677
13078TIP3   OH239190   5.509   3.373   3.691
13078TIP3    H139191   5.575   3.342   3.630
13078TIP3    H239192   5.429   3.326   3.667
13079TIP3   OH239193   1.337   4.692   1.266
13079TIP3    H139194   1.423   4.734   1.274
13079TIP3    H239195   1.334   4.660   1.176
13080TIP3   OH239196   1.297   6.544   4.538
13080TIP3    H139197   1.302   6.616   4.476
13080TIP3    H239198   1.330   6.582   4.620
13081TIP3   OH239199   6.519   1.086   2.116
13081TIP3    H139200   6.571   1.096   2.036
13081TIP3    H239201   6.581   1.105   2.187
13082TIP3   OH239202   1.133   1.757   3.798
13082TIP3    H139203   1.145   1.777   3.891
13082TIP3    H239204   1.214   1.712   3.773
13083TIP3   OH239205   6.186   6.809   0.534
13083TIP3    H139206   6.209   6.900   0.546
13083TIP3    H239207   6.107   6.796   0.586
13084TIP3   OH239208   2.876   0.846   6.296
13084TIP3    H139209   2.878   0.922   6.238
13084TIP3    H239210   2.938   0.868   6.366
13085TIP3   OH239211   0.171   7.793   3.430
13085TIP3    H139212   0.150   7.720   3.488
13085TIP3    H239213   0.220   7.753   3.359
13086TIP3   OH239214   7.032   6.965   1.866
13086TIP3    H139215   7.087   6.903   1.817
13086TIP3    H239216   6.969   6.998   1.801
13087TIP3   OH239217   7.473   6.036   2.630
13087TIP3    H139218   7.502   6.127   2.641
13087TIP3    H239219   7.506   6.011   2.544
13088TIP3   OH239220   4.048   3.236   1.477
13088TIP3    H139221   3.975   3.177   1.459
13088TIP3    H239222   4.007   3.319   1.500
13089TIP3   OH239223   5.312   5.515   5.598
13089TIP3    H139224   5.258   5.484   5.526
13089TIP3    H239225   5.380   5.448   5.608
13090TIP3   OH239226   3.889   3.421   0.021
13090TIP3    H139227   3.919   3.472   0.096
13090TIP3    H239228   3.888   3.330   0.052
13091TIP3   OH239229   2.617   3.370   5.765
13091TIP3    H139230   2.547   3.328   5.715
13091TIP3    H239231   2.694   3.364   5.709
13092TIP3   OH239232   5.220   3.123   0.652
13092TIP3    H139233   5.301   3.143   0.606
13092TIP3    H239234   5.165   3.200   0.639
13093TIP3   OH239235   5.804   2.345   5.440
13093TIP3    H139236   5.799   2.335   5.535
13093TIP3    H239237   5.817   2.256   5.408
13094TIP3   OH239238   5.534   0.255   5.054
13094TIP3    H139239   5.572   0.177   5.015
13094TIP3    H239240   5.458   0.223   5.102
13095TIP3   OH239241   4.302   1.269   4.906
13095TIP3    H139242   4.383   1.318   4.912
13095TIP3    H239243   4.264   1.293   4.822
13096TIP3   OH239244   3.594   0.819   0.719
13096TIP3    H139245   3.510   0.855   0.748
13096TIP3    H239246   3.595   0.834   0.624
13097TIP3   OH239247   4.999   6.094   5.609
13097TIP3    H139248   4.999   6.014   5.662
13097TIP3    H239249   5.015   6.064   5.520
13098TIP3   OH239250   3.285   6.078   2.817
13098TIP3    H139251   3.236   6.033   2.748
13098TIP3    H239252   3.345   6.011   2.850
13099TIP3   OH239253   6.030   4.361   6.161
13099TIP3    H139254   5.952   4.417   6.161
13099TIP3    H239255   6.008   4.290   6.222
13100TIP3   OH239256   6.676   1.279   0.357
13100TIP3    H139257   6.636   1.293   0.271
13100TIP3    H239258   6.611   1.311   0.419
13101TIP3   OH239259   3.880   0.002   6.306
13101TIP3    H139260   3.891   0.097   6.317
13101TIP3    H239261   3.819  -0.007   6.233
13102TIP3   OH239262   1.851   1.100   6.249
13102TIP3    H139263   1.889   1.184   6.277
13102TIP3    H239264   1.926   1.049   6.219
13103TIP3   OH239265   2.003   7.706   5.081
13103TIP3    H139266   2.055   7.778   5.045
13103TIP3    H239267   1.939   7.749   5.138
13104TIP3   OH239268   3.280   6.464   0.668
13104TIP3    H139269   3.205   6.406   0.684
13104TIP3    H239270   3.241   6.541   0.626
13105TIP3   OH239271   7.457   6.945   4.406
13105TIP3    H139272   7.499   6.987   4.480
13105TIP3    H239273   7.524   6.884   4.373
13106TIP3   OH239274   4.300   0.520   5.374
13106TIP3    H139275   4.352   0.600   5.367
13106TIP3    H239276   4.302   0.500   5.468
13107TIP3   OH239277   1.929   1.038   3.897
13107TIP3    H139278   1.883   1.017   3.816
13107TIP3    H239279   2.021   1.015   3.879
13108TIP3   OH239280   3.152   1.349   0.417
13108TIP3    H139281   3.191   1.402   0.487
13108TIP3    H239282   3.077   1.401   0.387
13109TIP3   OH239283   0.472   5.117   2.041
13109TIP3    H139284   0.555   5.122   2.089
13109TIP3    H239285   0.472   5.195   1.986
13110TIP3   OH239286   2.952   3.038   2.651
13110TIP3    H139287   2.879   3.097   2.632
13110TIP3    H239288   2.952   2.974   2.580
13111TIP3   OH239289   6.087   7.190   5.812
13111TIP3    H139290   6.004   7.189   5.859
13111TIP3    H239291   6.073   7.250   5.739
13112TIP3   OH239292   6.394   2.494   5.775
13112TIP3    H139293   6.384   2.585   5.748
13112TIP3    H239294   6.452   2.499   5.852
13113TIP3   OH239295   7.303   3.734   6.164
13113TIP3    H139296   7.391   3.746   6.199
13113TIP3    H239297   7.251   3.705   6.239
13114TIP3   OH239298   2.751   7.519   5.364
13114TIP3    H139299   2.812   7.445   5.357
13114TIP3    H239300   2.667   7.479   5.389
13115TIP3   OH239301   0.649   6.451   1.275
13115TIP3    H139302   0.738   6.482   1.291
13115TIP3    H239303   0.638   6.456   1.180
13116TIP3   OH239304   6.160   4.266   0.741
13116TIP3    H139305   6.140   4.254   0.834
13116TIP3    H239306   6.204   4.351   0.736
13117TIP3   OH239307   7.447   3.081   2.368
13117TIP3    H139308   7.391   3.040   2.433
13117TIP3    H239309   7.528   3.101   2.415
13118TIP3   OH239310   7.558   1.540   4.103
13118TIP3    H139311   7.504   1.614   4.073
13118TIP3    H239312   7.506   1.463   4.081
13119TIP3   OH239313   1.492   1.496   1.023
13119TIP3    H139314   1.480   1.458   0.936
13119TIP3    H239315   1.546   1.432   1.070
13120TIP3   OH239316   2.822   7.282   2.334
13120TIP3    H139317   2.828   7.340   2.411
13120TIP3    H239318   2.753   7.320   2.280
13121TIP3   OH239319   1.933   7.474   2.703
13121TIP3    H139320   1.938   7.404   2.638
13121TIP3    H239321   2.022   7.481   2.738
13122TIP3   OH239322   0.467   1.451   2.739
13122TIP3    H139323   0.393   1.495   2.696
13122TIP3    H239324   0.486   1.376   2.683
13123TIP3   OH239325   2.037   2.812   6.297
13123TIP3    H139326   2.072   2.745   6.356
13123TIP3    H239327   2.026   2.889   6.352
13124TIP3   OH239328   2.196   0.525   6.204
13124TIP3    H139329   2.164   0.491   6.120
13124TIP3    H239330   2.250   0.600   6.181
13125TIP3   OH239331   7.397   5.051   1.207
13125TIP3    H139332   7.386   5.123   1.270
13125TIP3    H239333   7.318   5.055   1.152
13126TIP3   OH239334   7.467   4.206   1.907
13126TIP3    H139335   7.482   4.254   1.988
13126TIP3    H239336   7.468   4.273   1.839
13127TIP3   OH239337   6.940   3.554   2.995
13127TIP3    H139338   6.994   3.611   2.939
13127TIP3    H239339   7.004   3.507   3.049
13128TIP3   OH239340   0.803   4.479   4.310
13128TIP3    H139341   0.869   4.524   4.257
13128TIP3    H239342   0.730   4.463   4.250
13129TIP3   OH239343   5.285   7.052   1.229
13129TIP3    H139344   5.271   6.964   1.192
13129TIP3    H239345   5.197   7.083   1.251
13130TIP3   OH239346   5.372   2.994   6.044
13130TIP3    H139347   5.281   3.015   6.023
13130TIP3    H239348   5.377   3.004   6.140
13131TIP3   OH239349   5.457   3.485   5.935
13131TIP3    H139350   5.513   3.411   5.913
13131TIP3    H239351   5.405   3.454   6.010
13132TIP3   OH239352   6.121   0.093   4.202
13132TIP3    H139353   6.035   0.105   4.161
13132TIP3    H239354   6.183   0.095   4.129
13133TIP3   OH239355   8.226   1.437   0.284
13133TIP3    H139356   8.244   1.507   0.347
13133TIP3    H239357   8.189   1.366   0.337
13134TIP3   OH239358   2.284   1.032   5.615
13134TIP3    H139359   2.192   1.012   5.633
13134TIP3    H239360   2.332   0.957   5.651
13135TIP3   OH239361   3.390   2.423   1.365
13135TIP3    H139362   3.343   2.494   1.409
13135TIP3    H239363   3.467   2.466   1.327
13136TIP3   OH239364   6.812   3.336   6.750
13136TIP3    H139365   6.795   3.327   6.844
13136TIP3    H239366   6.754   3.272   6.709
13137TIP3   OH239367   1.004   3.972   0.465
13137TIP3    H139368   0.990   4.067   0.462
13137TIP3    H239369   1.064   3.959   0.538
13138TIP3   OH239370   0.630   5.687   6.501
13138TIP3    H139371   0.596   5.649   6.419
13138TIP3    H239372   0.647   5.611   6.557
13139TIP3   OH239373   6.738   7.826   2.889
13139TIP3    H139374   6.816   7.870   2.922
13139TIP3    H239375   6.746   7.831   2.794
13140TIP3   OH239376   8.136   3.200   2.414
13140TIP3    H139377   8.112   3.283   2.374
13140TIP3    H239378   8.230   3.208   2.433
13141TIP3   OH239379   7.363   0.724   5.475
13141TIP3    H139380   7.364   0.679   5.560
13141TIP3    H239381   7.441   0.692   5.431
13142TIP3   OH239382   3.288   7.127   0.322
13142TIP3    H139383   3.227   7.196   0.346
13142TIP3    H239384   3.245   7.081   0.250
13143TIP3   OH239385   1.729   1.659   0.508
13143TIP3    H139386   1.757   1.664   0.600
13143TIP3    H239387   1.790   1.716   0.462
13144TIP3   OH239388   6.443   1.255   1.275
13144TIP3    H139389   6.388   1.273   1.351
13144TIP3    H239390   6.501   1.331   1.269
13145TIP3   OH239391   5.789   1.158   2.732
13145TIP3    H139392   5.832   1.073   2.727
13145TIP3    H239393   5.860   1.221   2.743
13146TIP3   OH239394   3.795   2.960   0.128
13146TIP3    H139395   3.729   2.993   0.068
13146TIP3    H239396   3.852   3.035   0.145
13147TIP3   OH239397   0.311   3.371   2.117
13147TIP3    H139398   0.277   3.400   2.033
13147TIP3    H239399   0.401   3.343   2.099
13148TIP3   OH239400   0.702   7.023   2.434
13148TIP3    H139401   0.773   7.030   2.498
13148TIP3    H239402   0.647   6.952   2.466
13149TIP3   OH239403   3.639   5.746   5.154
13149TIP3    H139404   3.585   5.669   5.139
13149TIP3    H239405   3.582   5.820   5.131
13150TIP3   OH239406   5.717   6.449   4.117
13150TIP3    H139407   5.676   6.428   4.201
13150TIP3    H239408   5.651   6.424   4.052
13151TIP3   OH239409   2.290   4.228   5.869
13151TIP3    H139410   2.376   4.189   5.859
13151TIP3    H239411   2.302   4.321   5.847
13152TIP3   OH239412   7.106   2.115   5.358
13152TIP3    H139413   7.148   2.195   5.326
13152TIP3    H239414   7.018   2.144   5.385
13153TIP3   OH239415   3.577   3.108   4.533
13153TIP3    H139416   3.670   3.105   4.511
13153TIP3    H239417   3.541   3.027   4.496
13154TIP3   OH239418   0.387   3.838   1.512
13154TIP3    H139419   0.301   3.809   1.482
13154TIP3    H239420   0.367   3.908   1.575
13155TIP3   OH239421   0.840   3.491   5.266
13155TIP3    H139422   0.907   3.528   5.323
13155TIP3    H239423   0.871   3.508   5.177
13156TIP3   OH239424   6.952   4.999   3.313
13156TIP3    H139425   6.958   5.094   3.303
13156TIP3    H239426   6.912   4.969   3.231
13157TIP3   OH239427   5.112   1.131   6.765
13157TIP3    H139428   5.081   1.046   6.733
13157TIP3    H239429   5.161   1.110   6.845
13158TIP3   OH239430   5.796   4.442   3.143
13158TIP3    H139431   5.756   4.450   3.056
13158TIP3    H239432   5.832   4.353   3.145
13159TIP3   OH239433   1.414   5.173   3.633
13159TIP3    H139434   1.429   5.121   3.712
13159TIP3    H239435   1.331   5.216   3.647
13160TIP3   OH239436   7.012   3.190   4.620
13160TIP3    H139437   6.993   3.137   4.698
13160TIP3    H239438   6.955   3.266   4.629
13161TIP3   OH239439   7.170   4.405   1.950
13161TIP3    H139440   7.117   4.427   2.026
13161TIP3    H239441   7.241   4.351   1.985
13162TIP3   OH239442   0.603   5.247   4.107
13162TIP3    H139443   0.583   5.329   4.063
13162TIP3    H239444   0.641   5.273   4.191
13163TIP3   OH239445   0.056   6.849   0.743
13163TIP3    H139446   0.086   6.885   0.660
13163TIP3    H239447  -0.037   6.829   0.728
13164TIP3   OH239448   2.381   6.435   2.897
13164TIP3    H139449   2.325   6.498   2.943
13164TIP3    H239450   2.385   6.467   2.807
13165TIP3   OH239451   3.729   4.791   0.910
13165TIP3    H139452   3.738   4.886   0.919
13165TIP3    H239453   3.659   4.768   0.972
13166TIP3   OH239454   3.501   6.637   4.104
13166TIP3    H139455   3.418   6.608   4.067
13166TIP3    H239456   3.558   6.560   4.102
13167TIP3   OH239457   0.402   6.138   3.985
13167TIP3    H139458   0.351   6.186   4.049
13167TIP3    H239459   0.491   6.135   4.022
13168TIP3   OH239460   4.516   0.764   3.053
13168TIP3    H139461   4.583   0.699   3.032
13168TIP3    H239462   4.439   0.712   3.076
13169TIP3   OH239463   5.862   4.768   4.795
13169TIP3    H139464   5.900   4.699   4.849
13169TIP3    H239465   5.816   4.720   4.725
13170TIP3   OH239466   3.676   7.821   2.612
13170TIP3    H139467   3.602   7.842   2.556
13170TIP3    H239468   3.687   7.726   2.603
13171TIP3   OH239469   0.410   6.171   0.739
13171TIP3    H139470   0.445   6.162   0.827
13171TIP3    H239471   0.422   6.263   0.718
13172TIP3   OH239472   7.776   0.130   5.901
13172TIP3    H139473   7.730   0.055   5.937
13172TIP3    H239474   7.868   0.114   5.921
13173TIP3   OH239475   2.449   6.820   1.783
13173TIP3    H139476   2.438   6.853   1.872
13173TIP3    H239477   2.505   6.742   1.794
13174TIP3   OH239478   2.145   1.323   6.679
13174TIP3    H139479   2.140   1.351   6.770
13174TIP3    H239480   2.160   1.403   6.629
13175TIP3   OH239481   2.378   7.071   3.988
13175TIP3    H139482   2.313   7.115   3.933
13175TIP3    H239483   2.343   7.077   4.077
13176TIP3   OH239484   5.818  -0.013   0.537
13176TIP3    H139485   5.906   0.013   0.563
13176TIP3    H239486   5.765   0.067   0.548
13177TIP3   OH239487   0.930   0.245   0.745
13177TIP3    H139488   0.938   0.290   0.661
13177TIP3    H239489   0.861   0.180   0.732
13178TIP3   OH239490   1.446   3.845   3.182
13178TIP3    H139491   1.501   3.775   3.147
13178TIP3    H239492   1.455   3.917   3.120
13179TIP3   OH239493   2.290   5.592   0.914
13179TIP3    H139494   2.195   5.598   0.922
13179TIP3    H239495   2.323   5.670   0.958
13180TIP3   OH239496   4.049   5.865   4.969
13180TIP3    H139497   4.085   5.868   4.880
13180TIP3    H239498   3.954   5.860   4.956
13181TIP3   OH239499   0.915   5.313   0.624
13181TIP3    H139500   0.831   5.360   0.625
13181TIP3    H239501   0.981   5.382   0.631
13182TIP3   OH239502   0.084   7.096   5.418
13182TIP3    H139503   0.117   7.032   5.482
13182TIP3    H239504   0.129   7.177   5.440
13183TIP3   OH239505   8.179   5.055   5.277
13183TIP3    H139506   8.118   5.117   5.235
13183TIP3    H239507   8.249   5.110   5.312
13184TIP3   OH239508   0.950   1.224   1.583
13184TIP3    H139509   0.909   1.138   1.595
13184TIP3    H239510   0.930   1.271   1.664
13185TIP3   OH239511   5.546   7.498   1.121
13185TIP3    H139512   5.637   7.526   1.116
13185TIP3    H239513   5.522   7.476   1.031
13186TIP3   OH239514   6.284   4.614   5.118
13186TIP3    H139515   6.275   4.540   5.059
13186TIP3    H239516   6.258   4.580   5.204
13187TIP3   OH239517   3.206   1.191   5.130
13187TIP3    H139518   3.136   1.181   5.194
13187TIP3    H239519   3.217   1.104   5.092
13188TIP3   OH239520   3.648   5.942   1.348
13188TIP3    H139521   3.680   5.971   1.262
13188TIP3    H239522   3.726   5.909   1.393
13189TIP3   OH239523   6.324   5.356   1.661
13189TIP3    H139524   6.346   5.294   1.591
13189TIP3    H239525   6.315   5.440   1.617
13190TIP3   OH239526   6.244   4.050   6.790
13190TIP3    H139527   6.237   3.996   6.712
13190TIP3    H239528   6.186   4.125   6.773
13191TIP3   OH239529   8.197   3.354   1.261
13191TIP3    H139530   8.181   3.282   1.322
13191TIP3    H239531   8.158   3.431   1.304
13192TIP3   OH239532   0.738   0.305   1.547
13192TIP3    H139533   0.757   0.324   1.455
13192TIP3    H239534   0.751   0.210   1.555
13193TIP3   OH239535   2.367   2.819   1.242
13193TIP3    H139536   2.402   2.909   1.243
13193TIP3    H239537   2.301   2.819   1.312
13194TIP3   OH239538  -0.019   5.713   1.265
13194TIP3    H139539  -0.038   5.667   1.347
13194TIP3    H239540   0.071   5.689   1.246
13195TIP3   OH239541   3.024   0.883   6.534
13195TIP3    H139542   2.938   0.895   6.574
13195TIP3    H239543   3.084   0.931   6.591
13196TIP3   OH239544   2.903   7.688   5.571
13196TIP3    H139545   2.871   7.711   5.484
13196TIP3    H239546   2.964   7.616   5.556
13197TIP3   OH239547   1.343   3.696   5.184
13197TIP3    H139548   1.418   3.724   5.132
13197TIP3    H239549   1.349   3.601   5.186
13198TIP3   OH239550   5.741   2.710   6.256
13198TIP3    H139551   5.678   2.653   6.300
13198TIP3    H239552   5.731   2.794   6.300
13199TIP3   OH239553   7.553   3.305   4.230
13199TIP3    H139554   7.464   3.297   4.194
13199TIP3    H239555   7.547   3.264   4.316
13200TIP3   OH239556   4.806   5.870   1.997
13200TIP3    H139557   4.729   5.860   1.941
13200TIP3    H239558   4.772   5.869   2.086
13201TIP3   OH239559   4.099   3.686   4.437
13201TIP3    H139560   4.097   3.721   4.348
13201TIP3    H239561   4.100   3.591   4.425
13202TIP3   OH239562   4.118   3.555   5.515
13202TIP3    H139563   4.059   3.613   5.467
13202TIP3    H239564   4.085   3.467   5.498
13203TIP3   OH239565   8.206   6.633   4.918
13203TIP3    H139566   8.175   6.590   4.998
13203TIP3    H239567   8.209   6.563   4.852
13204TIP3   OH239568   0.959   6.947   1.849
13204TIP3    H139569   0.984   6.968   1.759
13204TIP3    H239570   0.949   7.032   1.891
13205TIP3   OH239571   4.198   2.115   3.159
13205TIP3    H139572   4.204   2.170   3.081
13205TIP3    H239573   4.114   2.139   3.199
13206TIP3   OH239574   6.407   2.072   6.530
13206TIP3    H139575   6.412   2.123   6.450
13206TIP3    H239576   6.471   2.002   6.519
13207TIP3   OH239577   0.949   0.861   0.164
13207TIP3    H139578   1.031   0.842   0.210
13207TIP3    H239579   0.931   0.953   0.183
13208TIP3   OH239580   1.737   5.963   0.181
13208TIP3    H139581   1.750   5.966   0.276
13208TIP3    H239582   1.662   5.905   0.169
13209TIP3   OH239583   1.460   5.635   5.330
13209TIP3    H139584   1.365   5.621   5.328
13209TIP3    H239585   1.491   5.577   5.399
13210TIP3   OH239586   4.976   1.878   1.598
13210TIP3    H139587   5.037   1.809   1.572
13210TIP3    H239588   5.004   1.903   1.686
13211TIP3   OH239589   6.747   0.652   3.828
13211TIP3    H139590   6.722   0.607   3.748
13211TIP3    H239591   6.834   0.617   3.850
13212TIP3   OH239592   6.881   2.564   5.436
13212TIP3    H139593   6.798   2.540   5.478
13212TIP3    H239594   6.856   2.618   5.362
13213TIP3   OH239595   8.101   3.881   4.852
13213TIP3    H139596   8.166   3.944   4.821
13213TIP3    H239597   8.136   3.847   4.934
13214TIP3   OH239598   8.073   2.432   1.972
13214TIP3    H139599   7.989   2.458   2.009
13214TIP3    H239600   8.057   2.346   1.933
13215TIP3   OH239601   7.148   2.594   0.609
13215TIP3    H139602   7.077   2.608   0.672
13215TIP3    H239603   7.170   2.682   0.577
13216TIP3   OH239604   7.117   3.999   2.926
13216TIP3    H139605   7.051   4.046   2.976
13216TIP3    H239606   7.143   4.060   2.857
13217TIP3   OH239607   2.709   3.882   0.291
13217TIP3    H139608   2.720   3.955   0.353
13217TIP3    H239609   2.757   3.810   0.331
13218TIP3   OH239610   5.818   2.053   6.322
13218TIP3    H139611   5.791   2.115   6.389
13218TIP3    H239612   5.745   1.991   6.315
13219TIP3   OH239613   8.211   0.730   2.472
13219TIP3    H139614   8.202   0.754   2.564
13219TIP3    H239615   8.240   0.810   2.429
13220TIP3   OH239616   6.308   1.419   6.349
13220TIP3    H139617   6.369   1.404   6.277
13220TIP3    H239618   6.224   1.384   6.318
13221TIP3   OH239619   6.036   6.187   1.981
13221TIP3    H139620   6.036   6.277   2.012
13221TIP3    H239621   5.946   6.171   1.953
13222TIP3   OH239622   2.840   4.553   5.473
13222TIP3    H139623   2.913   4.531   5.531
13222TIP3    H239624   2.861   4.509   5.391
13223TIP3   OH239625   4.675   1.323   0.978
13223TIP3    H139626   4.628   1.280   1.049
13223TIP3    H239627   4.642   1.282   0.898
13224TIP3   OH239628   6.169   4.143   5.715
13224TIP3    H139629   6.097   4.121   5.656
13224TIP3    H239630   6.133   4.211   5.773
13225TIP3   OH239631   0.259   4.594   3.545
13225TIP3    H139632   0.252   4.660   3.614
13225TIP3    H239633   0.269   4.645   3.464
13226TIP3   OH239634   3.236   7.489   0.963
13226TIP3    H139635   3.163   7.459   0.910
13226TIP3    H239636   3.236   7.584   0.952
13227TIP3   OH239637   2.157   2.526   5.847
13227TIP3    H139638   2.158   2.580   5.925
13227TIP3    H239639   2.230   2.559   5.794
13228TIP3   OH239640   7.782   4.341   4.207
13228TIP3    H139641   7.715   4.349   4.139
13228TIP3    H239642   7.841   4.274   4.174
13229TIP3   OH239643   6.565   0.163   5.098
13229TIP3    H139644   6.626   0.101   5.057
13229TIP3    H239645   6.620   0.238   5.122
13230TIP3   OH239646   0.575   3.547   3.232
13230TIP3    H139647   0.642   3.481   3.247
13230TIP3    H239648   0.590   3.613   3.299
13231TIP3   OH239649   1.159   3.592   1.432
13231TIP3    H139650   1.136   3.529   1.500
13231TIP3    H239651   1.215   3.656   1.476
13232TIP3   OH239652   0.754   2.759   0.533
13232TIP3    H139653   0.831   2.797   0.490
13232TIP3    H239654   0.792   2.700   0.599
13233TIP3   OH239655   6.395   4.234   1.950
13233TIP3    H139656   6.347   4.286   1.887
13233TIP3    H239657   6.474   4.205   1.904
13234TIP3   OH239658   2.876   2.110   4.976
13234TIP3    H139659   2.869   2.017   4.998
13234TIP3    H239660   2.820   2.154   5.040
13235TIP3   OH239661   6.927   5.708   0.044
13235TIP3    H139662   6.962   5.735   0.129
13235TIP3    H239663   7.003   5.706  -0.014
13236TIP3   OH239664   2.394   5.060   0.757
13236TIP3    H139665   2.458   5.130   0.744
13236TIP3    H239666   2.360   5.074   0.845
13237TIP3   OH239667   1.734   3.873   6.548
13237TIP3    H139668   1.708   3.827   6.628
13237TIP3    H239669   1.658   3.866   6.490
13238TIP3   OH239670   1.989   1.106   5.008
13238TIP3    H139671   1.898   1.122   5.034
13238TIP3    H239672   1.999   1.012   5.014
13239TIP3   OH239673   0.897   3.846   4.654
13239TIP3    H139674   0.856   3.806   4.577
13239TIP3    H239675   0.824   3.885   4.702
13240TIP3   OH239676   5.234   6.767   4.477
13240TIP3    H139677   5.169   6.745   4.409
13240TIP3    H239678   5.273   6.849   4.446
13241TIP3   OH239679   4.279   5.882   6.250
13241TIP3    H139680   4.230   5.930   6.317
13241TIP3    H239681   4.289   5.945   6.178
13242TIP3   OH239682   3.511   5.612   4.139
13242TIP3    H139683   3.503   5.521   4.112
13242TIP3    H239684   3.516   5.608   4.235
13243TIP3   OH239685   2.620   4.820   4.800
13243TIP3    H139686   2.698   4.844   4.849
13243TIP3    H239687   2.653   4.789   4.715
13244TIP3   OH239688   2.263   0.443   3.990
13244TIP3    H139689   2.279   0.382   4.062
13244TIP3    H239690   2.343   0.495   3.983
13245TIP3   OH239691   2.439   5.793   1.034
13245TIP3    H139692   2.418   5.886   1.031
13245TIP3    H239693   2.443   5.773   1.128
13246TIP3   OH239694   5.109   6.215   4.495
13246TIP3    H139695   5.142   6.133   4.532
13246TIP3    H239696   5.024   6.227   4.538
13247TIP3   OH239697   2.173   6.519   5.123
13247TIP3    H139698   2.241   6.574   5.162
13247TIP3    H239699   2.210   6.431   5.123
13248TIP3   OH239700   7.609   5.187   1.820
13248TIP3    H139701   7.582   5.217   1.734
13248TIP3    H239702   7.621   5.267   1.871
13249TIP3   OH239703   2.923   5.702   5.469
13249TIP3    H139704   2.892   5.672   5.383
13249TIP3    H239705   2.980   5.776   5.448
13250TIP3   OH239706   1.865   3.139   4.580
13250TIP3    H139707   1.914   3.083   4.520
13250TIP3    H239708   1.792   3.084   4.609
13251TIP3   OH239709   3.059   5.160   4.492
13251TIP3    H139710   3.108   5.078   4.483
13251TIP3    H239711   3.104   5.221   4.434
13252TIP3   OH239712   7.236   1.838   3.633
13252TIP3    H139713   7.271   1.769   3.576
13252TIP3    H239714   7.215   1.793   3.715
13253TIP3   OH239715   1.247   1.227   4.881
13253TIP3    H139716   1.180   1.291   4.855
13253TIP3    H239717   1.228   1.150   4.828
13254TIP3   OH239718   3.047   1.648   2.585
13254TIP3    H139719   3.045   1.567   2.636
13254TIP3    H239720   3.140   1.663   2.569
13255TIP3   OH239721   1.954   1.765   5.830
13255TIP3    H139722   1.859   1.775   5.825
13255TIP3    H239723   1.987   1.854   5.845
13256TIP3   OH239724   7.142   5.456   0.089
13256TIP3    H139725   7.134   5.521   0.020
13256TIP3    H239726   7.232   5.466   0.122
13257TIP3   OH239727   7.950   3.073   0.498
13257TIP3    H139728   7.858   3.053   0.479
13257TIP3    H239729   7.949   3.112   0.585
13258TIP3   OH239730   3.693   6.276   1.015
13258TIP3    H139731   3.666   6.305   0.928
13258TIP3    H239732   3.731   6.354   1.056
13259TIP3   OH239733   7.073   3.774   3.464
13259TIP3    H139734   7.048   3.682   3.464
13259TIP3    H239735   7.044   3.807   3.379
13260TIP3   OH239736   7.987   2.006   6.454
13260TIP3    H139737   8.081   2.018   6.441
13260TIP3    H239738   7.965   1.931   6.400
13261TIP3   OH239739   6.042   0.669   5.862
13261TIP3    H139740   6.078   0.637   5.944
13261TIP3    H239741   5.987   0.597   5.829
13262TIP3   OH239742   7.767   4.949   6.597
13262TIP3    H139743   7.682   4.928   6.635
13262TIP3    H239744   7.786   4.874   6.540
13263TIP3   OH239745   2.325   2.307   3.454
13263TIP3    H139746   2.271   2.228   3.463
13263TIP3    H239747   2.264   2.375   3.424
13264TIP3   OH239748   3.906   7.064   6.741
13264TIP3    H139749   3.832   7.006   6.759
13264TIP3    H239750   3.866   7.149   6.722
13265TIP3   OH239751   0.332   3.366   1.831
13265TIP3    H139752   0.355   3.282   1.872
13265TIP3    H239753   0.274   3.342   1.759
13266TIP3   OH239754   4.414   5.437   0.545
13266TIP3    H139755   4.382   5.489   0.471
13266TIP3    H239756   4.353   5.363   0.550
13267TIP3   OH239757   4.852   4.810   4.353
13267TIP3    H139758   4.922   4.871   4.330
13267TIP3    H239759   4.896   4.742   4.404
13268TIP3   OH239760   2.841   5.885   6.370
13268TIP3    H139761   2.884   5.955   6.419
13268TIP3    H239762   2.766   5.928   6.328
13269TIP3   OH239763   3.506   5.936   2.951
13269TIP3    H139764   3.532   5.985   3.030
13269TIP3    H239765   3.581   5.943   2.892
13270TIP3   OH239766   4.800   4.724   5.234
13270TIP3    H139767   4.740   4.697   5.165
13270TIP3    H239768   4.884   4.686   5.209
13271TIP3   OH239769   3.170   4.075   2.209
13271TIP3    H139770   3.105   4.070   2.139
13271TIP3    H239771   3.126   4.122   2.280
13272TIP3   OH239772   8.189   0.450   2.980
13272TIP3    H139773   8.268   0.490   3.017
13272TIP3    H239774   8.155   0.516   2.919
13273TIP3   OH239775   6.842   0.931   2.029
13273TIP3    H139776   6.784   0.921   2.104
13273TIP3    H239777   6.891   1.011   2.047
13274TIP3   OH239778   5.599   2.439   0.278
13274TIP3    H139779   5.533   2.506   0.296
13274TIP3    H239780   5.633   2.461   0.192
13275TIP3   OH239781   3.609   5.491   3.687
13275TIP3    H139782   3.638   5.554   3.753
13275TIP3    H239783   3.681   5.486   3.624
13276TIP3   OH239784   2.121   2.059   3.974
13276TIP3    H139785   2.142   2.117   3.900
13276TIP3    H239786   2.181   1.985   3.964
13277TIP3   OH239787   5.151   1.754   0.124
13277TIP3    H139788   5.109   1.829   0.083
13277TIP3    H239789   5.240   1.784   0.144
13278TIP3   OH239790   0.689   0.603   3.689
13278TIP3    H139791   0.734   0.676   3.646
13278TIP3    H239792   0.616   0.644   3.735
13279TIP3   OH239793   1.147   1.394   0.528
13279TIP3    H139794   1.073   1.405   0.469
13279TIP3    H239795   1.108   1.392   0.615
13280TIP3   OH239796   1.671   0.568   1.731
13280TIP3    H139797   1.678   0.488   1.783
13280TIP3    H239798   1.727   0.553   1.655
13281TIP3   OH239799   7.196   4.759   6.059
13281TIP3    H139800   7.240   4.751   5.975
13281TIP3    H239801   7.129   4.691   6.059
13282TIP3   OH239802   3.844   2.253   1.835
13282TIP3    H139803   3.805   2.255   1.748
13282TIP3    H239804   3.927   2.299   1.826
13283TIP3   OH239805   6.450   4.345   4.751
13283TIP3    H139806   6.447   4.355   4.656
13283TIP3    H239807   6.484   4.257   4.764
13284TIP3   OH239808   1.413   6.277   2.453
13284TIP3    H139809   1.363   6.290   2.373
13284TIP3    H239810   1.347   6.282   2.523
13285TIP3   OH239811   7.203   6.916   6.378
13285TIP3    H139812   7.180   7.008   6.362
13285TIP3    H239813   7.298   6.917   6.393
13286TIP3   OH239814   8.199   1.109   0.251
13286TIP3    H139815   8.290   1.116   0.281
13286TIP3    H239816   8.148   1.149   0.322
13287TIP3   OH239817   5.514   2.591   2.717
13287TIP3    H139818   5.496   2.513   2.770
13287TIP3    H239819   5.477   2.663   2.767
13288TIP3   OH239820   3.880   7.350   3.533
13288TIP3    H139821   3.816   7.316   3.471
13288TIP3    H239822   3.856   7.310   3.616
13289TIP3   OH239823   6.131   5.553   4.839
13289TIP3    H139824   6.084   5.489   4.786
13289TIP3    H239825   6.063   5.607   4.879
13290TIP3   OH239826   4.779   3.811   4.123
13290TIP3    H139827   4.793   3.851   4.209
13290TIP3    H239828   4.702   3.856   4.088
13291TIP3   OH239829   5.762   2.498   3.046
13291TIP3    H139830   5.851   2.462   3.040
13291TIP3    H239831   5.768   2.584   3.004
13292TIP3   OH239832   1.168   1.602   3.341
13292TIP3    H139833   1.096   1.542   3.362
13292TIP3    H239834   1.247   1.556   3.369
13293TIP3   OH239835   5.884   5.835   2.315
13293TIP3    H139836   5.804   5.831   2.263
13293TIP3    H239837   5.881   5.757   2.370
13294TIP3   OH239838   4.080   5.564   5.835
13294TIP3    H139839   4.169   5.564   5.870
13294TIP3    H239840   4.086   5.516   5.753
13295TIP3   OH239841   4.228   2.835   2.598
13295TIP3    H139842   4.231   2.804   2.688
13295TIP3    H239843   4.292   2.906   2.594
13296TIP3   OH239844   1.863   0.138   3.225
13296TIP3    H139845   1.808   0.123   3.148
13296TIP3    H239846   1.948   0.163   3.190
13297TIP3   OH239847   7.188   6.392   0.122
13297TIP3    H139848   7.179   6.475   0.169
13297TIP3    H239849   7.243   6.339   0.179
13298TIP3   OH239850   2.099   4.513   2.114
13298TIP3    H139851   2.020   4.548   2.075
13298TIP3    H239852   2.169   4.569   2.081
13299TIP3   OH239853   4.478   1.350   5.299
13299TIP3    H139854   4.513   1.395   5.222
13299TIP3    H239855   4.442   1.420   5.353
13300TIP3   OH239856   5.197   7.312   2.401
13300TIP3    H139857   5.266   7.324   2.466
13300TIP3    H239858   5.199   7.393   2.349
13301TIP3   OH239859   4.260   3.221   5.861
13301TIP3    H139860   4.350   3.192   5.842
13301TIP3    H239861   4.217   3.220   5.775
13302TIP3   OH239862   1.228   0.267   3.696
13302TIP3    H139863   1.140   0.271   3.733
13302TIP3    H239864   1.222   0.315   3.614
13303TIP3   OH239865   6.018   1.019   5.508
13303TIP3    H139866   5.977   0.933   5.501
13303TIP3    H239867   6.050   1.023   5.598
13304TIP3   OH239868   1.147   2.645   3.689
13304TIP3    H139869   1.214   2.681   3.631
13304TIP3    H239870   1.075   2.621   3.631
13305TIP3   OH239871   6.543   6.937   5.389
13305TIP3    H139872   6.632   6.935   5.355
13305TIP3    H239873   6.551   6.975   5.476
13306TIP3   OH239874   1.228   2.634   5.280
13306TIP3    H139875   1.264   2.670   5.199
13306TIP3    H239876   1.261   2.692   5.349
13307TIP3   OH239877   6.510   1.806   2.614
13307TIP3    H139878   6.597   1.845   2.628
13307TIP3    H239879   6.525   1.740   2.547
13308TIP3   OH239880   3.644   1.205   0.174
13308TIP3    H139881   3.664   1.280   0.118
13308TIP3    H239882   3.548   1.205   0.181
13309TIP3   OH239883   4.099   2.100   4.897
13309TIP3    H139884   4.077   2.168   4.833
13309TIP3    H239885   4.184   2.128   4.933
13310TIP3   OH239886   5.170   6.645   2.098
13310TIP3    H139887   5.211   6.577   2.044
13310TIP3    H239888   5.209   6.633   2.185
13311TIP3   OH239889   7.804   0.661   4.631
13311TIP3    H139890   7.894   0.644   4.660
13311TIP3    H239891   7.778   0.739   4.679
13312TIP3   OH239892   2.355   3.603   6.159
13312TIP3    H139893   2.289   3.669   6.137
13312TIP3    H239894   2.359   3.547   6.082
13313TIP3   OH239895   2.479   1.020   0.350
13313TIP3    H139896   2.529   0.964   0.409
13313TIP3    H239897   2.438   0.959   0.289
13314TIP3   OH239898   4.573   0.585   5.812
13314TIP3    H139899   4.665   0.565   5.798
13314TIP3    H239900   4.551   0.542   5.895
13315TIP3   OH239901   7.624   4.747   4.635
13315TIP3    H139902   7.662   4.664   4.666
13315TIP3    H239903   7.681   4.774   4.563
13316TIP3   OH239904   4.864   5.291   0.167
13316TIP3    H139905   4.837   5.214   0.216
13316TIP3    H239906   4.847   5.364   0.226
13317TIP3   OH239907   8.107   3.111   5.702
13317TIP3    H139908   8.197   3.081   5.688
13317TIP3    H239909   8.098   3.186   5.643
13318TIP3   OH239910   2.807   5.080   4.504
13318TIP3    H139911   2.900   5.098   4.521
13318TIP3    H239912   2.799   4.985   4.516
13319TIP3   OH239913   4.799   5.406   5.490
13319TIP3    H139914   4.877   5.439   5.534
13319TIP3    H239915   4.727   5.459   5.524
13320TIP3   OH239916   5.024   2.468   5.669
13320TIP3    H139917   5.003   2.392   5.614
13320TIP3    H239918   5.118   2.480   5.656
13321TIP3   OH239919   5.551   6.356   2.090
13321TIP3    H139920   5.569   6.440   2.132
13321TIP3    H239921   5.487   6.314   2.147
13322TIP3   OH239922   0.347   1.811   5.203
13322TIP3    H139923   0.322   1.872   5.133
13322TIP3    H239924   0.274   1.814   5.264
13323TIP3   OH239925   5.481   0.534   1.780
13323TIP3    H139926   5.534   0.600   1.736
13323TIP3    H239927   5.466   0.466   1.714
13324TIP3   OH239928   7.336   6.529   3.092
13324TIP3    H139929   7.377   6.586   3.027
13324TIP3    H239930   7.363   6.441   3.066
13325TIP3   OH239931   8.270   6.035   6.347
13325TIP3    H139932   8.211   6.075   6.284
13325TIP3    H239933   8.238   6.066   6.432
13326TIP3   OH239934   3.166   1.661   1.600
13326TIP3    H139935   3.220   1.735   1.572
13326TIP3    H239936   3.128   1.688   1.683
13327TIP3   OH239937   4.364   5.689   3.436
13327TIP3    H139938   4.270   5.704   3.426
13327TIP3    H239939   4.372   5.594   3.447
13328TIP3   OH239940   4.649   5.410   4.544
13328TIP3    H139941   4.670   5.450   4.460
13328TIP3    H239942   4.563   5.446   4.566
13329TIP3   OH239943   1.569   2.222   4.032
13329TIP3    H139944   1.518   2.209   4.112
13329TIP3    H239945   1.534   2.303   3.995
13330TIP3   OH239946   4.567   1.140   2.107
13330TIP3    H139947   4.516   1.192   2.044
13330TIP3    H239948   4.558   1.050   2.076
13331TIP3   OH239949   5.792   5.489   0.447
13331TIP3    H139950   5.820   5.516   0.535
13331TIP3    H239951   5.830   5.402   0.436
13332TIP3   OH239952   0.332   4.781   3.337
13332TIP3    H139953   0.419   4.818   3.320
13332TIP3    H239954   0.276   4.858   3.344
13333TIP3   OH239955   0.545   5.670   4.734
13333TIP3    H139956   0.463   5.664   4.782
13333TIP3    H239957   0.575   5.760   4.748
13334TIP3   OH239958   6.954   3.504   1.624
13334TIP3    H139959   6.950   3.423   1.574
13334TIP3    H239960   6.897   3.565   1.576
13335TIP3   OH239961   6.284   3.551   3.804
13335TIP3    H139962   6.288   3.609   3.880
13335TIP3    H239963   6.312   3.466   3.838
13336TIP3   OH239964   2.565   1.527   5.788
13336TIP3    H139965   2.653   1.546   5.755
13336TIP3    H239966   2.543   1.602   5.843
13337TIP3   OH239967   4.788   6.939   4.024
13337TIP3    H139968   4.860   7.000   4.039
13337TIP3    H239969   4.777   6.937   3.929
13338TIP3   OH239970   3.527   4.355   3.575
13338TIP3    H139971   3.482   4.284   3.621
13338TIP3    H239972   3.597   4.312   3.526
13339TIP3   OH239973   6.741   6.746   3.152
13339TIP3    H139974   6.735   6.760   3.057
13339TIP3    H239975   6.736   6.834   3.189
13340TIP3   OH239976   8.081   6.139   4.801
13340TIP3    H139977   8.146   6.082   4.841
13340TIP3    H239978   8.129   6.189   4.736
13341TIP3   OH239979   6.443   5.816   3.918
13341TIP3    H139980   6.480   5.736   3.956
13341TIP3    H239981   6.392   5.786   3.843
13342TIP3   OH239982   2.005   5.884   1.449
13342TIP3    H139983   2.043   5.937   1.519
13342TIP3    H239984   1.968   5.808   1.495
13343TIP3   OH239985   6.605   6.804   3.412
13343TIP3    H139986   6.537   6.737   3.420
13343TIP3    H239987   6.576   6.860   3.341
13344TIP3   OH239988   0.381   4.560   5.198
13344TIP3    H139989   0.355   4.607   5.119
13344TIP3    H239990   0.324   4.595   5.267
13345TIP3   OH239991   6.758   2.492   4.075
13345TIP3    H139992   6.770   2.547   3.998
13345TIP3    H239993   6.756   2.402   4.041
13346TIP3   OH239994   5.989   5.182   6.083
13346TIP3    H139995   5.986   5.271   6.049
13346TIP3    H239996   5.970   5.127   6.007
13347TIP3   OH239997   5.664   2.827   5.280
13347TIP3    H139998   5.654   2.799   5.371
13347TIP3    H239999   5.729   2.766   5.244
13348TIP3   OH240000   5.263   0.772   4.077
13348TIP3    H140001   5.287   0.864   4.085
13348TIP3    H240002   5.195   0.759   4.143
13349TIP3   OH240003   3.122   2.966   3.120
13349TIP3    H140004   3.099   3.059   3.112
13349TIP3    H240005   3.039   2.920   3.108
13350TIP3   OH240006   3.456   3.627   3.153
13350TIP3    H140007   3.519   3.578   3.205
13350TIP3    H240008   3.387   3.563   3.133
13351TIP3   OH240009   5.865   5.347   1.700
13351TIP3    H140010   5.799   5.294   1.744
13351TIP3    H240011   5.831   5.437   1.704
13352TIP3   OH240012   5.363   1.197   4.701
13352TIP3    H140013   5.321   1.129   4.753
13352TIP3    H240014   5.297   1.266   4.693
13353TIP3   OH240015   2.906   4.691   0.787
13353TIP3    H140016   3.001   4.681   0.777
13353TIP3    H240017   2.894   4.715   0.878
13354TIP3   OH240018   5.563   6.510   1.488
13354TIP3    H140019   5.596   6.599   1.476
13354TIP3    H240020   5.468   6.520   1.489
13355TIP3   OH240021   1.811   1.780   1.784
13355TIP3    H140022   1.861   1.852   1.746
13355TIP3    H240023   1.793   1.721   1.711
13356TIP3   OH240024   3.114   1.425   3.918
13356TIP3    H140025   3.119   1.377   3.836
13356TIP3    H240026   3.148   1.364   3.984
13357TIP3   OH240027   4.506   2.938   3.805
13357TIP3    H140028   4.448   2.881   3.754
13357TIP3    H240029   4.461   2.950   3.888
13358TIP3   OH240030   2.854   4.800   4.588
13358TIP3    H140031   2.919   4.870   4.584
13358TIP3    H240032   2.900   4.726   4.625
13359TIP3   OH240033   4.687   7.348   2.346
13359TIP3    H140034   4.702   7.295   2.268
13359TIP3    H240035   4.595   7.332   2.368
13360TIP3   OH240036   6.144   5.592   0.906
13360TIP3    H140037   6.179   5.671   0.864
13360TIP3    H240038   6.080   5.557   0.842
13361TIP3   OH240039   0.505   1.866   5.569
13361TIP3    H140040   0.544   1.899   5.488
13361TIP3    H240041   0.562   1.795   5.597
13362TIP3   OH240042   0.053   4.437   1.266
13362TIP3    H140043  -0.022   4.458   1.210
13362TIP3    H240044   0.083   4.352   1.235
13363TIP3   OH240045   7.942   7.072   0.094
13363TIP3    H140046   7.957   7.162   0.126
13363TIP3    H240047   7.850   7.070   0.069
13364TIP3   OH240048   5.930   1.388   2.782
13364TIP3    H140049   5.996   1.458   2.779
13364TIP3    H240050   5.863   1.415   2.720
13365TIP3   OH240051   0.124   0.116   4.761
13365TIP3    H140052   0.176   0.159   4.829
13365TIP3    H240053   0.156   0.026   4.760
13366TIP3   OH240054   7.672   4.748   3.181
13366TIP3    H140055   7.649   4.833   3.144
13366TIP3    H240056   7.588   4.711   3.210
13367TIP3   OH240057   6.025   1.310   5.570
13367TIP3    H140058   6.088   1.341   5.505
13367TIP3    H240059   6.030   1.215   5.565
13368TIP3   OH240060   2.062   5.243   2.355
13368TIP3    H140061   2.146   5.274   2.389
13368TIP3    H240062   2.047   5.295   2.276
13369TIP3   OH240063   7.817   3.521   4.602
13369TIP3    H140064   7.786   3.521   4.692
13369TIP3    H240065   7.873   3.599   4.596
13370TIP3   OH240066   4.902   1.030   0.561
13370TIP3    H140067   4.894   1.025   0.466
13370TIP3    H240068   4.996   1.028   0.578
13371TIP3   OH240069   5.955   2.422   5.148
13371TIP3    H140070   5.998   2.499   5.111
13371TIP3    H240071   5.893   2.458   5.211
13372TIP3   OH240072   0.037   2.704   4.844
13372TIP3    H140073   0.034   2.609   4.852
13372TIP3    H240074   0.024   2.721   4.751
13373TIP3   OH240075   2.388   1.881   1.535
13373TIP3    H140076   2.337   1.960   1.551
13373TIP3    H240077   2.409   1.848   1.623
13374TIP3   OH240078   3.074   1.931   0.690
13374TIP3    H140079   2.997   1.874   0.698
13374TIP3    H240080   3.147   1.871   0.682
13375TIP3   OH240081   2.142   3.336   6.531
13375TIP3    H140082   2.191   3.254   6.534
13375TIP3    H240083   2.191   3.396   6.587
13376TIP3   OH240084   0.525   4.831   6.627
13376TIP3    H140085   0.519   4.897   6.558
13376TIP3    H240086   0.577   4.873   6.695
13377TIP3   OH240087   2.405   1.950   0.631
13377TIP3    H140088   2.491   1.907   0.627
13377TIP3    H240089   2.423   2.038   0.662
13378TIP3   OH240090   0.176   1.827   4.707
13378TIP3    H140091   0.140   1.792   4.625
13378TIP3    H240092   0.124   1.906   4.723
13379TIP3   OH240093   8.143   7.083   4.436
13379TIP3    H140094   8.113   7.161   4.483
13379TIP3    H240095   8.088   7.080   4.358
13380TIP3   OH240096   2.745   2.900   4.990
13380TIP3    H140097   2.724   2.956   5.064
13380TIP3    H240098   2.699   2.818   5.009
13381TIP3   OH240099   5.745   1.327   1.443
13381TIP3    H140100   5.665   1.359   1.401
13381TIP3    H240101   5.726   1.236   1.464
13382TIP3   OH240102   2.938   5.817   4.136
13382TIP3    H140103   2.951   5.782   4.224
13382TIP3    H240104   2.868   5.764   4.098
13383TIP3   OH240105   6.986   3.420   0.362
13383TIP3    H140106   6.973   3.510   0.391
13383TIP3    H240107   7.056   3.426   0.297
13384TIP3   OH240108   3.355   1.980   2.178
13384TIP3    H140109   3.439   2.019   2.202
13384TIP3    H240110   3.290   2.035   2.221
13385TIP3   OH240111   0.740   4.498   0.268
13385TIP3    H140112   0.695   4.414   0.272
13385TIP3    H240113   0.704   4.549   0.340
13386TIP3   OH240114   3.879   5.570   4.176
13386TIP3    H140115   3.960   5.550   4.224
13386TIP3    H240116   3.872   5.665   4.182
13387TIP3   OH240117   1.516   6.846   3.009
13387TIP3    H140118   1.479   6.786   3.074
13387TIP3    H240119   1.496   6.933   3.043
13388TIP3   OH240120   1.369   3.732   4.834
13388TIP3    H140121   1.279   3.703   4.844
13388TIP3    H240122   1.422   3.659   4.867
13389TIP3   OH240123   4.480   1.219   1.160
13389TIP3    H140124   4.395   1.180   1.142
13389TIP3    H240125   4.542   1.146   1.150
13390TIP3   OH240126   7.524   2.959   5.460
13390TIP3    H140127   7.501   2.868   5.481
13390TIP3    H240128   7.589   2.951   5.390
13391TIP3   OH240129   1.472   0.348   3.828
13391TIP3    H140130   1.398   0.299   3.794
13391TIP3    H240131   1.469   0.335   3.923
13392TIP3   OH240132   1.655   3.994   3.812
13392TIP3    H140133   1.607   4.020   3.891
13392TIP3    H240134   1.588   3.989   3.744
13393TIP3   OH240135   1.011   4.330   0.985
13393TIP3    H140136   1.084   4.322   1.046
13393TIP3    H240137   0.971   4.415   1.007
13394TIP3   OH240138   6.997   0.597   3.852
13394TIP3    H140139   6.991   0.525   3.790
13394TIP3    H240140   7.054   0.661   3.810
13395TIP3   OH240141   6.928   3.033   5.506
13395TIP3    H140142   6.870   3.055   5.434
13395TIP3    H240143   7.006   3.086   5.491
13396TIP3   OH240144   6.101   0.503   6.062
13396TIP3    H140145   6.093   0.525   6.155
13396TIP3    H240146   6.150   0.421   6.060
13397TIP3   OH240147   7.193   5.123   0.271
13397TIP3    H140148   7.203   5.118   0.366
13397TIP3    H240149   7.103   5.151   0.258
13398TIP3   OH240150   4.241   4.312   5.918
13398TIP3    H140151   4.178   4.309   5.990
13398TIP3    H240152   4.192   4.346   5.843
13399TIP3   OH240153   7.483   2.502   1.679
13399TIP3    H140154   7.425   2.561   1.727
13399TIP3    H240155   7.567   2.510   1.723
13400TIP3   OH240156   2.328   0.592   3.652
13400TIP3    H140157   2.266   0.518   3.650
13400TIP3    H240158   2.384   0.578   3.576
13401TIP3   OH240159   3.051   0.779   3.579
13401TIP3    H140160   3.089   0.699   3.616
13401TIP3    H240161   3.009   0.751   3.498
13402TIP3   OH240162   1.657   1.212   3.191
13402TIP3    H140163   1.640   1.131   3.142
13402TIP3    H240164   1.572   1.255   3.197
13403TIP3   OH240165   4.848   0.661   5.756
13403TIP3    H140166   4.799   0.705   5.687
13403TIP3    H240167   4.890   0.732   5.805
13404TIP3   OH240168   4.094   5.834   5.273
13404TIP3    H140169   4.145   5.832   5.192
13404TIP3    H240170   4.128   5.762   5.326
13405TIP3   OH240171   7.568   1.976   5.689
13405TIP3    H140172   7.536   1.958   5.600
13405TIP3    H240173   7.618   2.057   5.680
13406TIP3   OH240174   5.721   7.577   0.348
13406TIP3    H140175   5.713   7.665   0.387
13406TIP3    H240176   5.658   7.524   0.395
13407TIP3   OH240177   4.825   7.478   5.149
13407TIP3    H140178   4.874   7.538   5.206
13407TIP3    H240179   4.808   7.401   5.204
13408TIP3   OH240180   3.540   1.835   0.340
13408TIP3    H140181   3.483   1.758   0.333
13408TIP3    H240182   3.522   1.885   0.261
13409TIP3   OH240183   5.818   2.733   5.994
13409TIP3    H140184   5.811   2.709   6.086
13409TIP3    H240185   5.784   2.822   5.989
13410TIP3   OH240186   5.363   0.188   4.305
13410TIP3    H140187   5.284   0.152   4.346
13410TIP3    H240188   5.388   0.259   4.364
13411TIP3   OH240189   3.659   6.053   4.522
13411TIP3    H140190   3.634   6.115   4.591
13411TIP3    H240191   3.623   6.091   4.442
13412TIP3   OH240192   4.576   5.318   0.350
13412TIP3    H140193   4.528   5.367   0.417
13412TIP3    H240194   4.547   5.357   0.267
13413TIP3   OH240195   1.695   0.823   2.891
13413TIP3    H140196   1.615   0.779   2.863
13413TIP3    H240197   1.751   0.753   2.923
13414TIP3   OH240198   0.177   6.026   3.433
13414TIP3    H140199   0.154   6.093   3.498
13414TIP3    H240200   0.222   6.073   3.364
13415TIP3   OH240201   2.459   5.687   2.632
13415TIP3    H140202   2.399   5.746   2.585
13415TIP3    H240203   2.535   5.742   2.652
13416TIP3   OH240204   6.451   5.912   5.414
13416TIP3    H140205   6.511   5.850   5.456
13416TIP3    H240206   6.478   5.997   5.447
13417TIP3   OH240207   5.430   6.416   2.792
13417TIP3    H140208   5.498   6.473   2.827
13417TIP3    H240209   5.377   6.392   2.868
13418TIP3   OH240210   4.410   5.964   0.777
13418TIP3    H140211   4.417   6.053   0.744
13418TIP3    H240212   4.335   5.927   0.731
13419TIP3   OH240213   2.570   0.902   0.028
13419TIP3    H140214   2.619   0.884   0.108
13419TIP3    H240215   2.480   0.879   0.048
13420TIP3   OH240216   7.168   2.370   6.037
13420TIP3    H140217   7.236   2.351   6.103
13420TIP3    H240218   7.182   2.462   6.015
13421TIP3   OH240219   0.112   5.769   6.467
13421TIP3    H140220   0.017   5.764   6.472
13421TIP3    H240221   0.129   5.823   6.390
13422TIP3   OH240222   5.041   1.574   5.822
13422TIP3    H140223   5.027   1.651   5.877
13422TIP3    H240224   5.122   1.535   5.855
13423TIP3   OH240225   0.272   2.449   2.438
13423TIP3    H140226   0.212   2.520   2.460
13423TIP3    H240227   0.356   2.477   2.475
13424TIP3   OH240228   2.623   2.379   0.620
13424TIP3    H140229   2.592   2.456   0.573
13424TIP3    H240230   2.665   2.414   0.698
13425TIP3   OH240231   1.244   4.808   4.934
13425TIP3    H140232   1.299   4.741   4.895
13425TIP3    H240233   1.266   4.888   4.886
13426TIP3   OH240234   5.790   5.387   2.949
13426TIP3    H140235   5.801   5.430   2.864
13426TIP3    H240236   5.836   5.445   3.011
13427TIP3   OH240237   7.224   3.154   3.616
13427TIP3    H140238   7.250   3.074   3.570
13427TIP3    H240239   7.293   3.169   3.681
13428TIP3   OH240240   2.685   4.996   5.482
13428TIP3    H140241   2.657   4.906   5.499
13428TIP3    H240242   2.659   5.044   5.561
13429TIP3   OH240243   2.226   5.485   0.333
13429TIP3    H140244   2.168   5.509   0.260
13429TIP3    H240245   2.175   5.423   0.384
13430TIP3   OH240246   3.541   4.647   6.492
13430TIP3    H140247   3.520   4.638   6.585
13430TIP3    H240248   3.502   4.730   6.466
13431TIP3   OH240249   1.601   1.514   0.041
13431TIP3    H140250   1.639   1.594   0.004
13431TIP3    H240251   1.602   1.451  -0.031
13432TIP3   OH240252   5.354   4.939   0.298
13432TIP3    H140253   5.263   4.969   0.294
13432TIP3    H240254   5.349   4.847   0.322
13433TIP3   OH240255   2.317   6.992   6.663
13433TIP3    H140256   2.382   6.927   6.639
13433TIP3    H240257   2.363   7.054   6.719
13434TIP3   OH240258   0.419   5.511   3.832
13434TIP3    H140259   0.339   5.511   3.780
13434TIP3    H240260   0.396   5.559   3.911
13435TIP3   OH240261   4.466   4.647   0.335
13435TIP3    H140262   4.372   4.641   0.352
13435TIP3    H240263   4.499   4.558   0.351
13436TIP3   OH240264   7.190   3.975   0.206
13436TIP3    H140265   7.132   4.048   0.185
13436TIP3    H240266   7.134   3.898   0.202
13437TIP3   OH240267   8.199   5.182   2.317
13437TIP3    H140268   8.234   5.096   2.298
13437TIP3    H240269   8.273   5.233   2.350
13438TIP3   OH240270   7.085   3.504   4.341
13438TIP3    H140271   7.058   3.595   4.354
13438TIP3    H240272   7.104   3.471   4.429
13439TIP3   OH240273   5.413   4.398   3.220
13439TIP3    H140274   5.328   4.443   3.222
13439TIP3    H240275   5.404   4.332   3.152
13440TIP3   OH240276   6.474   1.830   3.442
13440TIP3    H140277   6.411   1.873   3.499
13440TIP3    H240278   6.481   1.741   3.477
13441TIP3   OH240279   6.562   0.546   3.198
13441TIP3    H140280   6.512   0.554   3.279
13441TIP3    H240281   6.517   0.477   3.149
13442TIP3   OH240282   6.706   5.630   5.483
13442TIP3    H140283   6.781   5.616   5.542
13442TIP3    H240284   6.724   5.573   5.408
13443TIP3   OH240285   5.279   3.979   0.932
13443TIP3    H140286   5.235   4.039   0.992
13443TIP3    H240287   5.278   4.025   0.848
13444TIP3   OH240288   2.376   6.039   0.159
13444TIP3    H140289   2.318   6.041   0.235
13444TIP3    H240290   2.361   6.123   0.115
13445TIP3   OH240291   0.031   5.158   2.901
13445TIP3    H140292   0.031   5.200   2.987
13445TIP3    H240293   0.021   5.230   2.839
13446TIP3   OH240294   6.026   4.298   5.058
13446TIP3    H140295   6.098   4.359   5.043
13446TIP3    H240296   5.980   4.295   4.975
13447TIP3   OH240297   3.043   6.897   2.096
13447TIP3    H140298   3.070   6.859   2.179
13447TIP3    H240299   3.013   6.985   2.119
13448TIP3   OH240300   4.415   1.074   5.610
13448TIP3    H140301   4.493   1.071   5.665
13448TIP3    H240302   4.429   1.005   5.545
13449TIP3   OH240303   1.933   5.443   5.656
13449TIP3    H140304   1.880   5.517   5.687
13449TIP3    H240305   1.868   5.377   5.631
13450TIP3   OH240306   7.572   7.761   3.682
13450TIP3    H140307   7.609   7.799   3.602
13450TIP3    H240308   7.612   7.812   3.753
13451TIP3   OH240309   7.151   2.155   1.657
13451TIP3    H140310   7.086   2.138   1.588
13451TIP3    H240311   7.235   2.138   1.614
13452TIP3   OH240312   2.470   3.341   2.915
13452TIP3    H140313   2.374   3.344   2.926
13452TIP3    H240314   2.499   3.280   2.983
13453TIP3   OH240315   6.689   3.101   6.561
13453TIP3    H140316   6.633   3.062   6.494
13453TIP3    H240317   6.682   3.041   6.636
13454TIP3   OH240318   3.635   5.427   5.701
13454TIP3    H140319   3.620   5.500   5.761
13454TIP3    H240320   3.609   5.461   5.615
13455TIP3   OH240321   2.083   4.983   1.848
13455TIP3    H140322   2.148   5.019   1.786
13455TIP3    H240323   2.057   5.059   1.900
13456TIP3   OH240324   2.904   3.388   1.191
13456TIP3    H140325   2.989   3.416   1.225
13456TIP3    H240326   2.870   3.465   1.145
13457TIP3   OH240327   4.125   3.733   4.115
13457TIP3    H140328   4.102   3.775   4.033
13457TIP3    H240329   4.139   3.641   4.092
13458TIP3   OH240330   5.128   6.554   5.837
13458TIP3    H140331   5.171   6.477   5.800
13458TIP3    H240332   5.200   6.607   5.870
13459TIP3   OH240333   5.787   5.575   2.407
13459TIP3    H140334   5.707   5.549   2.455
13459TIP3    H240335   5.802   5.503   2.346
13460TIP3   OH240336   7.032   3.796   6.321
13460TIP3    H140337   6.942   3.828   6.320
13460TIP3    H240338   7.081   3.864   6.369
13461TIP3   OH240339   8.185   5.992   4.276
13461TIP3    H140340   8.213   6.040   4.197
13461TIP3    H240341   8.259   6.001   4.336
13462TIP3   OH240342   7.727   4.820   5.350
13462TIP3    H140343   7.765   4.765   5.283
13462TIP3    H240344   7.746   4.775   5.432
13463TIP3   OH240345   3.855   3.025   4.477
13463TIP3    H140346   3.851   3.029   4.381
13463TIP3    H240347   3.946   3.001   4.496
13464TIP3   OH240348   0.553   3.402   1.578
13464TIP3    H140349   0.553   3.400   1.482
13464TIP3    H240350   0.582   3.315   1.603
13465TIP3   OH240351   1.705   7.435   2.213
13465TIP3    H140352   1.791   7.454   2.173
13465TIP3    H240353   1.643   7.484   2.159
13466TIP3   OH240354   7.034   7.245   0.080
13466TIP3    H140355   7.108   7.290   0.039
13466TIP3    H240356   7.003   7.184   0.013
13467TIP3   OH240357   6.918   5.389   0.592
13467TIP3    H140358   6.857   5.444   0.641
13467TIP3    H240359   6.980   5.357   0.658
13468TIP3   OH240360   1.876   5.099   0.678
13468TIP3    H140361   1.955   5.120   0.728
13468TIP3    H240362   1.895   5.132   0.590
13469TIP3   OH240363   3.063   5.813   0.711
13469TIP3    H140364   2.995   5.748   0.689
13469TIP3    H240365   3.088   5.851   0.627
13470TIP3   OH240366   7.341   2.217   5.875
13470TIP3    H140367   7.415   2.277   5.868
13470TIP3    H240368   7.279   2.262   5.933
13471TIP3   OH240369   6.461   1.239   0.853
13471TIP3    H140370   6.553   1.214   0.846
13471TIP3    H240371   6.419   1.163   0.894
13472TIP3   OH240372   1.682   4.629   1.332
13472TIP3    H140373   1.698   4.627   1.237
13472TIP3    H240374   1.674   4.722   1.352
13473TIP3   OH240375   8.276   0.732   4.715
13473TIP3    H140376   8.247   0.642   4.730
13473TIP3    H240377   8.203   0.774   4.669
13474TIP3   OH240378   3.739   3.824   1.522
13474TIP3    H140379   3.768   3.798   1.434
13474TIP3    H240380   3.650   3.857   1.508
13475TIP3   OH240381   3.013   0.854   1.372
13475TIP3    H140382   3.024   0.943   1.337
13475TIP3    H240383   3.066   0.853   1.452
13476TIP3   OH240384   3.682   1.086   5.230
13476TIP3    H140385   3.716   1.152   5.170
13476TIP3    H240386   3.716   1.112   5.316
13477TIP3   OH240387   4.807   2.325   0.710
13477TIP3    H140388   4.826   2.293   0.798
13477TIP3    H240389   4.766   2.251   0.665
13478TIP3   OH240390   7.096   7.338   5.517
13478TIP3    H140391   7.031   7.268   5.506
13478TIP3    H240392   7.094   7.385   5.434
13479TIP3   OH240393   5.856   3.952   3.655
13479TIP3    H140394   5.854   4.044   3.679
13479TIP3    H240395   5.947   3.936   3.629
13480TIP3   OH240396   0.748   0.060   1.745
13480TIP3    H140397   0.819   0.123   1.750
13480TIP3    H240398   0.790  -0.021   1.716
13481TIP3   OH240399   3.736   5.168   1.079
13481TIP3    H140400   3.781   5.110   1.140
13481TIP3    H240401   3.645   5.137   1.080
13482TIP3   OH240402   3.552   4.702   1.094
13482TIP3    H140403   3.462   4.671   1.095
13482TIP3    H240404   3.597   4.647   1.158
13483TIP3   OH240405   5.701   0.371   0.041
13483TIP3    H140406   5.617   0.330   0.023
13483TIP3    H240407   5.722   0.419  -0.039
13484TIP3   OH240408   6.237   3.112   2.603
13484TIP3    H140409   6.142   3.124   2.603
13484TIP3    H240410   6.273   3.200   2.602
13485TIP3   OH240411   5.830   3.713   2.492
13485TIP3    H140412   5.749   3.753   2.524
13485TIP3    H240413   5.808   3.621   2.478
13486TIP3   OH240414   7.590   1.111   4.759
13486TIP3    H140415   7.564   1.074   4.674
13486TIP3    H240416   7.670   1.161   4.740
13487TIP3   OH240417   0.498   7.436   2.619
13487TIP3    H140418   0.570   7.373   2.626
13487TIP3    H240419   0.429   7.402   2.675
13488TIP3   OH240420   4.078   4.432   5.434
13488TIP3    H140421   4.049   4.343   5.412
13488TIP3    H240422   4.114   4.466   5.352
13489TIP3   OH240423   6.707   4.719   0.365
13489TIP3    H140424   6.633   4.756   0.415
13489TIP3    H240425   6.683   4.627   0.351
13490TIP3   OH240426   4.613   2.119   0.827
13490TIP3    H140427   4.660   2.197   0.858
13490TIP3    H240428   4.646   2.105   0.739
13491TIP3   OH240429   6.598   4.249  -0.003
13491TIP3    H140430   6.663   4.234  -0.071
13491TIP3    H240431   6.643   4.300   0.064
13492TIP3   OH240432   0.856   2.438   1.586
13492TIP3    H140433   0.850   2.354   1.541
13492TIP3    H240434   0.853   2.416   1.679
13493TIP3   OH240435   5.186   3.403   3.270
13493TIP3    H140436   5.211   3.489   3.305
13493TIP3    H240437   5.118   3.372   3.330
13494TIP3   OH240438   0.897   6.146   5.749
13494TIP3    H140439   0.955   6.215   5.781
13494TIP3    H240440   0.832   6.134   5.819
13495TIP3   OH240441   3.155   6.685   6.363
13495TIP3    H140442   3.221   6.749   6.338
13495TIP3    H240443   3.092   6.685   6.291
13496TIP3   OH240444   3.365   7.782   0.658
13496TIP3    H140445   3.447   7.819   0.689
13496TIP3    H240446   3.351   7.705   0.712
13497TIP3   OH240447   3.801   5.988   5.905
13497TIP3    H140448   3.853   5.910   5.922
13497TIP3    H240449   3.711   5.962   5.925
13498TIP3   OH240450   4.755   5.090   4.840
13498TIP3    H140451   4.740   5.093   4.746
13498TIP3    H240452   4.673   5.058   4.877
13499TIP3   OH240453   0.766   5.314   4.353
13499TIP3    H140454   0.739   5.405   4.340
13499TIP3    H240455   0.732   5.290   4.439
13500TIP3   OH240456   0.215   3.210   4.989
13500TIP3    H140457   0.179   3.146   4.928
13500TIP3    H240458   0.255   3.158   5.058
13501TIP3   OH240459   3.409   4.696   0.738
13501TIP3    H140460   3.426   4.727   0.649
13501TIP3    H240461   3.426   4.771   0.794
13502TIP3   OH240462   1.504   6.255   1.333
13502TIP3    H140463   1.573   6.238   1.269
13502TIP3    H240464   1.425   6.219   1.293
13503TIP3   OH240465   4.467   4.779   6.218
13503TIP3    H140466   4.511   4.732   6.146
13503TIP3    H240467   4.462   4.714   6.289
13504TIP3   OH240468   7.933   2.918   4.901
13504TIP3    H140469   7.984   2.885   4.827
13504TIP3    H240470   7.935   3.013   4.890
13505TIP3   OH240471   6.218   1.606   3.878
13505TIP3    H140472   6.243   1.601   3.785
13505TIP3    H240473   6.125   1.630   3.876
13506TIP3   OH240474   4.651   1.056   2.708
13506TIP3    H140475   4.662   1.147   2.733
13506TIP3    H240476   4.734   1.032   2.668
13507TIP3   OH240477   3.153   2.269   2.786
13507TIP3    H140478   3.238   2.274   2.828
13507TIP3    H240479   3.142   2.355   2.744
13508TIP3   OH240480   3.250   0.579   2.555
13508TIP3    H140481   3.304   0.526   2.614
13508TIP3    H240482   3.198   0.515   2.506
13509TIP3   OH240483   2.533   3.741   5.110
13509TIP3    H140484   2.574   3.822   5.080
13509TIP3    H240485   2.607   3.685   5.136
13510TIP3   OH240486   7.700   0.193   0.433
13510TIP3    H140487   7.612   0.229   0.422
13510TIP3    H240488   7.758   0.262   0.401
13511TIP3   OH240489   7.299   1.032   6.725
13511TIP3    H140490   7.235   0.975   6.682
13511TIP3    H240491   7.329   1.091   6.656
13512TIP3   OH240492   7.089   7.671   3.823
13512TIP3    H140493   7.180   7.697   3.808
13512TIP3    H240494   7.073   7.694   3.914
13513TIP3   OH240495   2.961   7.325   3.920
13513TIP3    H140496   2.927   7.392   3.860
13513TIP3    H240497   3.024   7.277   3.867
13514TIP3   OH240498   5.983   0.516   3.147
13514TIP3    H140499   5.972   0.593   3.090
13514TIP3    H240500   5.929   0.448   3.107
13515TIP3   OH240501   1.291   2.915   2.121
13515TIP3    H140502   1.372   2.928   2.171
13515TIP3    H240503   1.304   2.968   2.042
13516TIP3   OH240504   0.527   0.869   5.085
13516TIP3    H140505   0.613   0.873   5.044
13516TIP3    H240506   0.499   0.960   5.091
13517TIP3   OH240507   3.067   0.031   0.834
13517TIP3    H140508   3.094  -0.060   0.819
13517TIP3    H240509   3.148   0.080   0.839
13518TIP3   OH240510   5.655   4.841   3.977
13518TIP3    H140511   5.571   4.800   3.993
13518TIP3    H240512   5.676   4.888   4.057
13519TIP3   OH240513   2.051   1.338   4.865
13519TIP3    H140514   2.058   1.322   4.960
13519TIP3    H240515   1.974   1.288   4.839
13520TIP3   OH240516   6.741   2.333   1.826
13520TIP3    H140517   6.825   2.372   1.801
13520TIP3    H240518   6.741   2.247   1.784
13521TIP3   OH240519   4.260   3.837   4.876
13521TIP3    H140520   4.191   3.845   4.811
13521TIP3    H240521   4.287   3.927   4.895
13522TIP3   OH240522   0.610   5.149   0.039
13522TIP3    H140523   0.664   5.183  -0.033
13522TIP3    H240524   0.634   5.057   0.045
13523TIP3   OH240525   0.511   2.529   1.925
13523TIP3    H140526   0.472   2.532   2.013
13523TIP3    H240527   0.508   2.437   1.900
13524TIP3   OH240528   7.899   7.104   4.305
13524TIP3    H140529   7.827   7.067   4.254
13524TIP3    H240530   7.858   7.164   4.367
13525TIP3   OH240531   5.952   6.354   4.951
13525TIP3    H140532   5.935   6.426   5.012
13525TIP3    H240533   5.883   6.362   4.885
13526TIP3   OH240534   3.525   6.582   2.410
13526TIP3    H140535   3.530   6.677   2.392
13526TIP3    H240536   3.561   6.542   2.331
13527TIP3   OH240537   4.548   5.116   3.780
13527TIP3    H140538   4.627   5.169   3.792
13527TIP3    H240539   4.515   5.102   3.869
13528TIP3   OH240540   7.763   2.000   1.864
13528TIP3    H140541   7.706   2.076   1.879
13528TIP3    H240542   7.809   2.021   1.783
13529TIP3   OH240543   7.229   2.736   3.192
13529TIP3    H140544   7.198   2.826   3.201
13529TIP3    H240545   7.274   2.717   3.275
13530TIP3   OH240546   5.241   3.103   3.850
13530TIP3    H140547   5.269   3.166   3.783
13530TIP3    H240548   5.149   3.086   3.831
13531TIP3   OH240549   4.075   6.939   5.849
13531TIP3    H140550   4.032   6.857   5.873
13531TIP3    H240551   4.086   6.986   5.931
13532TIP3   OH240552   0.170   2.400   5.232
13532TIP3    H140553   0.252   2.369   5.194
13532TIP3    H240554   0.103   2.344   5.193
13533TIP3   OH240555   1.133   0.733   2.642
13533TIP3    H140556   1.089   0.775   2.716
13533TIP3    H240557   1.145   0.803   2.578
13534TIP3   OH240558   2.573   6.998   0.799
13534TIP3    H140559   2.639   7.028   0.737
13534TIP3    H240560   2.583   7.057   0.874
13535TIP3   OH240561   2.996   3.836   6.326
13535TIP3    H140562   3.005   3.931   6.322
13535TIP3    H240563   2.996   3.816   6.420
13536TIP3   OH240564   6.124   4.569   3.564
13536TIP3    H140565   6.034   4.560   3.595
13536TIP3    H240566   6.119   4.550   3.470
13537TIP3   OH240567   1.096   6.009   3.665
13537TIP3    H140568   1.135   5.922   3.658
13537TIP3    H240569   1.171   6.069   3.669
13538TIP3   OH240570   6.021   3.527   4.235
13538TIP3    H140571   6.039   3.621   4.232
13538TIP3    H240572   6.091   3.486   4.185
13539TIP3   OH240573   6.076   2.742   4.605
13539TIP3    H140574   5.997   2.753   4.552
13539TIP3    H240575   6.095   2.830   4.637
13540TIP3   OH240576   7.045   6.143   1.931
13540TIP3    H140577   7.014   6.152   1.840
13540TIP3    H240578   7.016   6.056   1.958
13541TIP3   OH240579   6.403   7.766   2.216
13541TIP3    H140580   6.437   7.797   2.300
13541TIP3    H240581   6.392   7.672   2.228
13542TIP3   OH240582   3.795   0.652   3.990
13542TIP3    H140583   3.821   0.605   3.911
13542TIP3    H240584   3.856   0.620   4.057
13543TIP3   OH240585   5.160   2.321   6.567
13543TIP3    H140586   5.233   2.372   6.601
13543TIP3    H240587   5.082   2.363   6.603
13544TIP3   OH240588   1.988   2.526   4.775
13544TIP3    H140589   2.068   2.539   4.827
13544TIP3    H240590   1.957   2.615   4.758
13545TIP3   OH240591   5.480   4.534   6.187
13545TIP3    H140592   5.399   4.548   6.236
13545TIP3    H240593   5.491   4.614   6.135
13546TIP3   OH240594   2.947   2.832   0.244
13546TIP3    H140595   2.997   2.829   0.325
13546TIP3    H240596   2.899   2.750   0.242
13547TIP3   OH240597   3.905   7.054   1.118
13547TIP3    H140598   3.990   7.097   1.126
13547TIP3    H240599   3.848   7.120   1.080
13548TIP3   OH240600   6.561   4.345   4.508
13548TIP3    H140601   6.596   4.426   4.472
13548TIP3    H240602   6.617   4.276   4.472
13549TIP3   OH240603   1.275   2.749   4.360
13549TIP3    H140604   1.350   2.746   4.301
13549TIP3    H240605   1.313   2.740   4.447
13550TIP3   OH240606   4.289   3.572   0.122
13550TIP3    H140607   4.333   3.629   0.059
13550TIP3    H240608   4.201   3.607   0.128
13551TIP3   OH240609   3.189   0.361   3.454
13551TIP3    H140610   3.212   0.412   3.377
13551TIP3    H240611   3.103   0.324   3.433
13552TIP3   OH240612   7.599   3.946   0.682
13552TIP3    H140613   7.571   3.971   0.770
13552TIP3    H240614   7.559   4.011   0.625
13553TIP3   OH240615   7.163   1.187   4.992
13553TIP3    H140616   7.198   1.272   5.018
13553TIP3    H240617   7.240   1.131   4.983
13554TIP3   OH240618   7.902   5.928   6.777
13554TIP3    H140619   7.890   5.910   6.684
13554TIP3    H240620   7.842   6.000   6.796
13555TIP3   OH240621   5.247   7.547   6.424
13555TIP3    H140622   5.184   7.570   6.492
13555TIP3    H240623   5.201   7.482   6.370
13556TIP3   OH240624   6.379   0.793   1.465
13556TIP3    H140625   6.298   0.829   1.430
13556TIP3    H240626   6.404   0.852   1.536
13557TIP3   OH240627   6.052   6.962   3.023
13557TIP3    H140628   6.114   6.901   2.985
13557TIP3    H240629   6.015   7.009   2.948
13558TIP3   OH240630   7.886   0.288   4.393
13558TIP3    H140631   7.837   0.371   4.398
13558TIP3    H240632   7.819   0.223   4.372
13559TIP3   OH240633   6.651   1.780   1.779
13559TIP3    H140634   6.660   1.792   1.874
13559TIP3    H240635   6.566   1.739   1.767
13560TIP3   OH240636   8.207   6.676   5.380
13560TIP3    H140637   8.208   6.644   5.471
13560TIP3    H240638   8.246   6.604   5.330
13561TIP3   OH240639   5.814   1.504   5.288
13561TIP3    H140640   5.790   1.412   5.296
13561TIP3    H240641   5.733   1.548   5.265
13562TIP3   OH240642   2.825   6.572   1.351
13562TIP3    H140643   2.840   6.532   1.437
13562TIP3    H240644   2.733   6.598   1.352
13563TIP3   OH240645   3.568   2.287   3.096
13563TIP3    H140646   3.550   2.234   3.018
13563TIP3    H240647   3.626   2.233   3.149
13564TIP3   OH240648   1.304   1.665   6.214
13564TIP3    H140649   1.300   1.574   6.243
13564TIP3    H240650   1.380   1.701   6.260
13565TIP3   OH240651   1.996   0.548   4.245
13565TIP3    H140652   2.019   0.521   4.156
13565TIP3    H240653   1.920   0.605   4.233
13566TIP3   OH240654   5.749   2.546   5.281
13566TIP3    H140655   5.773   2.478   5.345
13566TIP3    H240656   5.662   2.520   5.251
13567TIP3   OH240657   4.344   0.677   4.095
13567TIP3    H140658   4.406   0.749   4.088
13567TIP3    H240659   4.296   0.694   4.176
13568TIP3   OH240660   3.991   2.003   1.973
13568TIP3    H140661   4.010   2.012   1.880
13568TIP3    H240662   3.953   1.916   1.981
13569TIP3   OH240663   0.174   3.063   5.943
13569TIP3    H140664   0.240   3.022   5.999
13569TIP3    H240665   0.097   3.070   5.999
13570TIP3   OH240666   8.187   3.625   6.306
13570TIP3    H140667   8.213   3.608   6.215
13570TIP3    H240668   8.267   3.611   6.357
13571TIP3   OH240669   0.403   1.479   0.445
13571TIP3    H140670   0.339   1.469   0.374
13571TIP3    H240671   0.457   1.554   0.418
13572TIP3   OH240672   3.059   0.574   5.597
13572TIP3    H140673   3.105   0.638   5.652
13572TIP3    H240674   2.977   0.557   5.644
13573TIP3   OH240675   3.220   0.090   1.377
13573TIP3    H140676   3.141   0.079   1.325
13573TIP3    H240677   3.189   0.126   1.461
13574TIP3   OH240678   5.496   0.021   4.121
13574TIP3    H140679   5.477   0.093   4.181
13574TIP3    H240680   5.589   0.031   4.100
13575TIP3   OH240681   8.097   0.523   6.146
13575TIP3    H140682   8.115   0.436   6.111
13575TIP3    H240683   8.174   0.575   6.123
13576TIP3   OH240684   6.153   3.619   5.966
13576TIP3    H140685   6.198   3.653   6.044
13576TIP3    H240686   6.221   3.573   5.917
13577TIP3   OH240687   6.470   3.365   3.417
13577TIP3    H140688   6.435   3.339   3.502
13577TIP3    H240689   6.393   3.383   3.363
13578TIP3   OH240690   0.831   2.111   1.624
13578TIP3    H140691   0.797   2.093   1.712
13578TIP3    H240692   0.754   2.132   1.572
13579TIP3   OH240693   6.686   2.865   4.821
13579TIP3    H140694   6.732   2.893   4.742
13579TIP3    H240695   6.713   2.928   4.888
13580TIP3   OH240696   8.217   0.247   5.944
13580TIP3    H140697   8.306   0.213   5.957
13580TIP3    H240698   8.167   0.212   6.017
13581TIP3   OH240699   4.977   1.193   4.528
13581TIP3    H140700   5.041   1.260   4.552
13581TIP3    H240701   4.951   1.152   4.610
13582TIP3   OH240702   2.149   7.334   6.283
13582TIP3    H140703   2.067   7.339   6.332
13582TIP3    H240704   2.196   7.261   6.322
13583TIP3   OH240705   4.462   2.183   5.443
13583TIP3    H140706   4.417   2.118   5.497
13583TIP3    H240707   4.453   2.265   5.491
13584TIP3   OH240708   5.171   5.298   6.484
13584TIP3    H140709   5.162   5.208   6.515
13584TIP3    H240710   5.167   5.351   6.563
13585TIP3   OH240711   1.850   1.475   5.403
13585TIP3    H140712   1.823   1.494   5.493
13585TIP3    H240713   1.918   1.408   5.411
13586TIP3   OH240714   4.878   4.142   6.562
13586TIP3    H140715   4.967   4.177   6.550
13586TIP3    H240716   4.864   4.147   6.657
13587TIP3   OH240717   5.550   5.285   3.125
13587TIP3    H140718   5.573   5.208   3.177
13587TIP3    H240719   5.567   5.260   3.035
13588TIP3   OH240720   7.934   4.035   2.485
13588TIP3    H140721   8.010   4.067   2.435
13588TIP3    H240722   7.875   4.110   2.489
13589TIP3   OH240723   3.500   3.237   4.931
13589TIP3    H140724   3.591   3.250   4.954
13589TIP3    H240725   3.460   3.202   5.011
13590TIP3   OH240726   7.911   0.751   3.858
13590TIP3    H140727   7.841   0.693   3.829
13590TIP3    H240728   7.939   0.714   3.942
13591TIP3   OH240729   3.759   1.852   2.904
13591TIP3    H140730   3.787   1.829   2.816
13591TIP3    H240731   3.698   1.783   2.929
13592TIP3   OH240732   0.500   1.967   0.825
13592TIP3    H140733   0.580   2.020   0.823
13592TIP3    H240734   0.497   1.927   0.738
13593TIP3   OH240735   2.908   0.294   0.465
13593TIP3    H140736   3.002   0.276   0.460
13593TIP3    H240737   2.893   0.320   0.556
13594TIP3   OH240738   6.756   6.169   0.463
13594TIP3    H140739   6.688   6.236   0.475
13594TIP3    H240740   6.829   6.199   0.517
13595TIP3   OH240741   1.944   0.749   1.241
13595TIP3    H140742   1.881   0.759   1.312
13595TIP3    H240743   1.913   0.809   1.173
13596TIP3   OH240744   4.956   1.859   0.316
13596TIP3    H140745   5.010   1.797   0.267
13596TIP3    H240746   4.900   1.804   0.371
13597TIP3   OH240747   5.363   2.965   4.974
13597TIP3    H140748   5.406   2.990   5.056
13597TIP3    H240749   5.295   3.031   4.961
13598TIP3   OH240750   7.980   7.408   0.557
13598TIP3    H140751   8.063   7.408   0.606
13598TIP3    H240752   7.948   7.319   0.566
13599TIP3   OH240753   2.233   5.787   4.093
13599TIP3    H140754   2.260   5.750   4.009
13599TIP3    H240755   2.138   5.801   4.083
13600TIP3   OH240756   5.585   5.578   3.121
13600TIP3    H140757   5.674   5.545   3.134
13600TIP3    H240758   5.529   5.500   3.126
13601TIP3   OH240759   0.553   5.417   5.695
13601TIP3    H140760   0.536   5.493   5.751
13601TIP3    H240761   0.475   5.363   5.703
13602TIP3   OH240762   7.746   6.558   4.078
13602TIP3    H140763   7.721   6.477   4.034
13602TIP3    H240764   7.802   6.529   4.151
13603TIP3   OH240765   3.872   1.906   4.408
13603TIP3    H140766   3.906   1.824   4.445
13603TIP3    H240767   3.852   1.960   4.484
13604TIP3   OH240768   6.052   1.983   6.113
13604TIP3    H140769   6.009   1.918   6.059
13604TIP3    H240770   6.109   2.032   6.053
13605TIP3   OH240771   1.960   6.286   4.984
13605TIP3    H140772   1.943   6.196   5.013
13605TIP3    H240773   2.046   6.283   4.943
13606TIP3   OH240774   5.787   3.550   0.554
13606TIP3    H140775   5.872   3.526   0.589
13606TIP3    H240776   5.760   3.473   0.503
13607TIP3   OH240777   0.174   5.146   5.060
13607TIP3    H140778   0.241   5.197   5.015
13607TIP3    H240779   0.170   5.184   5.148
13608TIP3   OH240780   2.066   1.320   2.612
13608TIP3    H140781   2.012   1.296   2.687
13608TIP3    H240782   2.112   1.239   2.589
13609TIP3   OH240783   8.183   1.625   5.912
13609TIP3    H140784   8.201   1.581   5.828
13609TIP3    H240785   8.170   1.717   5.888
13610TIP3   OH240786   5.075   5.686   3.488
13610TIP3    H140787   5.147   5.675   3.425
13610TIP3    H240788   5.057   5.780   3.487
13611TIP3   OH240789   1.741   6.221   0.227
13611TIP3    H140790   1.669   6.215   0.290
13611TIP3    H240791   1.751   6.132   0.193
13612TIP3   OH240792   3.401   3.637   6.728
13612TIP3    H140793   3.331   3.613   6.668
13612TIP3    H240794   3.395   3.572   6.799
13613TIP3   OH240795   2.239   2.751   4.795
13613TIP3    H140796   2.320   2.794   4.766
13613TIP3    H240797   2.171   2.787   4.738
13614TIP3   OH240798   5.236   6.700   5.265
13614TIP3    H140799   5.224   6.795   5.269
13614TIP3    H240800   5.151   6.665   5.241
13615TIP3   OH240801   6.396   3.875   5.405
13615TIP3    H140802   6.351   3.791   5.399
13615TIP3    H240803   6.454   3.866   5.481
13616TIP3   OH240804   7.130   4.030   0.773
13616TIP3    H140805   7.139   3.984   0.690
13616TIP3    H240806   7.163   4.118   0.756
13617TIP3   OH240807   8.009   7.747   5.832
13617TIP3    H140808   7.979   7.774   5.745
13617TIP3    H240809   8.101   7.725   5.821
13618TIP3   OH240810   2.843   7.707   4.348
13618TIP3    H140811   2.816   7.723   4.257
13618TIP3    H240812   2.836   7.792   4.390
13619TIP3   OH240813   7.684   6.757   1.609
13619TIP3    H140814   7.721   6.688   1.663
13619TIP3    H240815   7.623   6.712   1.550
13620TIP3   OH240816   4.460   4.034   2.018
13620TIP3    H140817   4.402   4.104   2.047
13620TIP3    H240818   4.429   3.957   2.065
13621TIP3   OH240819   6.570   0.731   4.975
13621TIP3    H140820   6.529   0.671   4.912
13621TIP3    H240821   6.653   0.755   4.934
13622TIP3   OH240822   7.620   1.178   2.410
13622TIP3    H140823   7.680   1.210   2.478
13622TIP3    H240824   7.537   1.167   2.456
13623TIP3   OH240825   0.843   3.799   6.253
13623TIP3    H140826   0.759   3.793   6.208
13623TIP3    H240827   0.831   3.746   6.333
13624TIP3   OH240828   2.390   0.879   4.242
13624TIP3    H140829   2.301   0.857   4.216
13624TIP3    H240830   2.407   0.964   4.201
13625TIP3   OH240831   4.297   4.020   4.466
13625TIP3    H140832   4.319   3.943   4.413
13625TIP3    H240833   4.380   4.043   4.509
13626TIP3   OH240834   3.176   1.234   4.131
13626TIP3    H140835   3.138   1.156   4.091
13626TIP3    H240836   3.112   1.262   4.196
13627TIP3   OH240837   3.848   5.055   0.414
13627TIP3    H140838   3.761   5.044   0.453
13627TIP3    H240839   3.908   5.050   0.489
13628TIP3   OH240840   8.021   4.946   6.318
13628TIP3    H140841   7.945   4.889   6.334
13628TIP3    H240842   8.082   4.891   6.270
13629TIP3   OH240843   3.618   6.987   0.584
13629TIP3    H140844   3.687   6.947   0.637
13629TIP3    H240845   3.596   6.920   0.519
13630TIP3   OH240846   7.762   4.424   5.605
13630TIP3    H140847   7.777   4.331   5.589
13630TIP3    H240848   7.788   4.438   5.696
13631TIP3   OH240849   1.216   0.939   1.778
13631TIP3    H140850   1.280   0.874   1.750
13631TIP3    H240851   1.168   0.962   1.699
13632TIP3   OH240852   7.625   6.730   4.301
13632TIP3    H140853   7.720   6.733   4.288
13632TIP3    H240854   7.588   6.730   4.213
13633TIP3   OH240855   4.526   1.626   5.163
13633TIP3    H140856   4.548   1.571   5.088
13633TIP3    H240857   4.443   1.667   5.140
13634TIP3   OH240858   8.310   0.280   0.873
13634TIP3    H140859   8.285   0.368   0.901
13634TIP3    H240860   8.232   0.227   0.887
13635TIP3   OH240861   2.925   3.031   5.755
13635TIP3    H140862   3.016   3.060   5.756
13635TIP3    H240863   2.931   2.937   5.738
13636TIP3   OH240864   4.373   5.090   2.895
13636TIP3    H140865   4.433   5.118   2.965
13636TIP3    H240866   4.305   5.157   2.894
13637TIP3   OH240867   7.451   5.958   3.498
13637TIP3    H140868   7.504   6.034   3.521
13637TIP3    H240869   7.498   5.917   3.425
13638TIP3   OH240870   1.783   1.555   1.494
13638TIP3    H140871   1.854   1.536   1.555
13638TIP3    H240872   1.809   1.637   1.452
13639TIP3   OH240873   5.687   4.358   6.317
13639TIP3    H140874   5.729   4.438   6.348
13639TIP3    H240875   5.700   4.295   6.388
13640TIP3   OH240876   6.618   3.849   2.094
13640TIP3    H140877   6.685   3.916   2.108
13640TIP3    H240878   6.540   3.886   2.136
13641TIP3   OH240879   4.027   1.747   1.769
13641TIP3    H140880   4.010   1.718   1.859
13641TIP3    H240881   4.018   1.669   1.716
13642TIP3   OH240882   4.951   0.625   1.709
13642TIP3    H140883   4.939   0.684   1.634
13642TIP3    H240884   5.044   0.602   1.707
13643TIP3   OH240885   0.645   5.830   0.386
13643TIP3    H140886   0.640   5.873   0.471
13643TIP3    H240887   0.554   5.825   0.356
13644TIP3   OH240888   2.841   4.718   2.443
13644TIP3    H140889   2.873   4.807   2.461
13644TIP3    H240890   2.902   4.684   2.377
13645TIP3   OH240891   1.287   4.436   6.571
13645TIP3    H140892   1.362   4.394   6.613
13645TIP3    H240893   1.319   4.460   6.484
13646TIP3   OH240894   3.283   0.188   0.842
13646TIP3    H140895   3.321   0.216   0.759
13646TIP3    H240896   3.355   0.147   0.890
13647TIP3   OH240897   0.062   2.155   2.535
13647TIP3    H140898   0.051   2.083   2.598
13647TIP3    H240899   0.109   2.115   2.462
13648TIP3   OH240900   3.839   1.540   6.382
13648TIP3    H140901   3.919   1.503   6.344
13648TIP3    H240902   3.831   1.498   6.468
13649TIP3   OH240903   2.643   0.597   5.573
13649TIP3    H140904   2.594   0.526   5.615
13649TIP3    H240905   2.676   0.649   5.645
13650TIP3   OH240906   4.628   3.622   1.362
13650TIP3    H140907   4.721   3.642   1.356
13650TIP3    H240908   4.611   3.563   1.289
13651TIP3   OH240909   1.993   2.454   1.063
13651TIP3    H140910   2.009   2.469   1.157
13651TIP3    H240911   1.974   2.541   1.028
13652TIP3   OH240912   4.412   0.280   2.936
13652TIP3    H140913   4.330   0.239   2.963
13652TIP3    H240914   4.430   0.346   3.003
13653TIP3   OH240915   7.003   5.579   5.117
13653TIP3    H140916   7.055   5.624   5.051
13653TIP3    H240917   6.942   5.645   5.150
13654TIP3   OH240918   0.936   2.809   5.108
13654TIP3    H140919   0.936   2.724   5.065
13654TIP3    H240920   0.962   2.870   5.039
13655TIP3   OH240921   1.536   1.935   0.451
13655TIP3    H140922   1.567   1.844   0.443
13655TIP3    H240923   1.456   1.937   0.399
13656TIP3   OH240924   6.001   0.553   6.668
13656TIP3    H140925   5.979   0.645   6.654
13656TIP3    H240926   6.092   0.554   6.699
13657TIP3   OH240927   1.127   4.023   1.333
13657TIP3    H140928   1.120   4.099   1.390
13657TIP3    H240929   1.044   3.978   1.341
13658TIP3   OH240930   7.674   7.192   1.722
13658TIP3    H140931   7.661   7.178   1.628
13658TIP3    H240932   7.728   7.271   1.727
13659TIP3   OH240933   3.082   4.882   6.422
13659TIP3    H140934   3.071   4.826   6.345
13659TIP3    H240935   3.007   4.941   6.420
13660TIP3   OH240936   3.340   5.717   6.345
13660TIP3    H140937   3.319   5.769   6.422
13660TIP3    H240938   3.330   5.777   6.271
13661TIP3   OH240939   2.290   4.194   3.521
13661TIP3    H140940   2.276   4.284   3.550
13661TIP3    H240941   2.240   4.141   3.583
13662TIP3   OH240942   0.575   0.540   3.019
13662TIP3    H140943   0.483   0.565   3.015
13662TIP3    H240944   0.618   0.599   2.957
13663TIP3   OH240945   3.757   4.799   2.314
13663TIP3    H140946   3.686   4.780   2.376
13663TIP3    H240947   3.823   4.732   2.332
13664TIP3   OH240948   0.873   4.183   4.589
13664TIP3    H140949   0.786   4.143   4.587
13664TIP3    H240950   0.860   4.268   4.631
13665TIP3   OH240951   7.231   0.081   2.938
13665TIP3    H140952   7.180   0.000   2.939
13665TIP3    H240953   7.192   0.133   2.867
13666TIP3   OH240954   5.786   7.677   4.433
13666TIP3    H140955   5.773   7.637   4.347
13666TIP3    H240956   5.731   7.625   4.491
13667TIP3   OH240957   0.993   5.856   5.842
13667TIP3    H140958   1.049   5.902   5.778
13667TIP3    H240959   0.928   5.812   5.788
13668TIP3   OH240960   5.286   7.542   2.267
13668TIP3    H140961   5.221   7.596   2.222
13668TIP3    H240962   5.328   7.601   2.330
13669TIP3   OH240963   4.666   3.886   6.498
13669TIP3    H140964   4.662   3.981   6.488
13669TIP3    H240965   4.579   3.861   6.530
13670TIP3   OH240966   2.055   2.151   4.588
13670TIP3    H140967   2.031   2.085   4.524
13670TIP3    H240968   2.141   2.124   4.620
13671TIP3   OH240969   4.529   1.617   0.305
13671TIP3    H140970   4.587   1.541   0.308
13671TIP3    H240971   4.580   1.685   0.260
13672TIP3   OH240972   7.655   0.361   1.891
13672TIP3    H140973   7.743   0.392   1.912
13672TIP3    H240974   7.633   0.299   1.960
13673TIP3   OH240975   5.623   5.439   3.422
13673TIP3    H140976   5.659   5.398   3.343
13673TIP3    H240977   5.663   5.391   3.494
13674TIP3   OH240978   1.072   2.890   5.541
13674TIP3    H140979   1.045   2.948   5.612
13674TIP3    H240980   0.995   2.884   5.484
13675TIP3   OH240981   5.948   4.258   3.675
13675TIP3    H140982   6.007   4.282   3.747
13675TIP3    H240983   6.004   4.260   3.597
13676TIP3   OH240984   6.503   7.437   4.469
13676TIP3    H140985   6.431   7.398   4.518
13676TIP3    H240986   6.539   7.504   4.527
13677TIP3   OH240987   3.996   0.055   6.007
13677TIP3    H140988   3.916   0.103   6.027
13677TIP3    H240989   3.971  -0.005   5.937
13678TIP3   OH240990   0.848   4.151   0.163
13678TIP3    H140991   0.943   4.150   0.176
13678TIP3    H240992   0.835   4.199   0.082
13679TIP3   OH240993   3.406   6.522   0.899
13679TIP3    H140994   3.374   6.494   0.813
13679TIP3    H240995   3.326   6.546   0.947
13680TIP3   OH240996   8.167   0.415   0.283
13680TIP3    H140997   8.154   0.370   0.200
13680TIP3    H240998   8.233   0.482   0.264
13681TIP3   OH240999   5.857   1.788   2.507
13681TIP3    H141000   5.950   1.798   2.485
13681TIP3    H241001   5.829   1.876   2.532
13682TIP3   OH241002   7.977   3.035   0.962
13682TIP3    H141003   7.962   2.941   0.967
13682TIP3    H241004   7.891   3.074   0.979
13683TIP3   OH241005   6.442   4.684   1.416
13683TIP3    H141006   6.504   4.616   1.444
13683TIP3    H241007   6.383   4.638   1.356
13684TIP3   OH241008   6.483   0.640   0.006
13684TIP3    H141009   6.420   0.594  -0.048
13684TIP3    H241010   6.479   0.597   0.091
13685TIP3   OH241011   4.803   0.723   2.610
13685TIP3    H141012   4.836   0.801   2.655
13685TIP3    H241013   4.787   0.659   2.680
13686TIP3   OH241014   4.464   1.079   0.712
13686TIP3    H141015   4.550   1.102   0.677
13686TIP3    H241016   4.437   1.156   0.761
13687TIP3   OH241017   1.218   0.276   1.252
13687TIP3    H141018   1.135   0.307   1.216
13687TIP3    H241019   1.226   0.186   1.220
13688TIP3   OH241020   0.255   3.599   4.789
13688TIP3    H141021   0.292   3.573   4.705
13688TIP3    H241022   0.186   3.662   4.766
13689TIP3   OH241023   3.443   4.348   5.569
13689TIP3    H141024   3.525   4.370   5.524
13689TIP3    H241025   3.416   4.430   5.611
13690TIP3   OH241026   6.343   4.272   3.541
13690TIP3    H141027   6.304   4.287   3.455
13690TIP3    H241028   6.393   4.191   3.531
13691TIP3   OH241029   4.283   1.856   6.325
13691TIP3    H141030   4.363   1.826   6.282
13691TIP3    H241031   4.215   1.846   6.259
13692TIP3   OH241032   6.195   1.091   3.446
13692TIP3    H141033   6.120   1.048   3.486
13692TIP3    H241034   6.241   1.133   3.520
13693TIP3   OH241035   0.193   6.759   3.514
13693TIP3    H141036   0.203   6.737   3.421
13693TIP3    H241037   0.239   6.842   3.525
13694TIP3   OH241038   7.539   3.899   5.877
13694TIP3    H141039   7.459   3.856   5.846
13694TIP3    H241040   7.508   3.969   5.934
13695TIP3   OH241041   0.530   4.411   3.329
13695TIP3    H141042   0.578   4.493   3.338
13695TIP3    H241043   0.438   4.437   3.331
13696TIP3   OH241044   2.323   6.344   2.205
13696TIP3    H141045   2.412   6.317   2.225
13696TIP3    H241046   2.290   6.381   2.287
13697TIP3   OH241047   1.175   0.620   4.268
13697TIP3    H141048   1.256   0.648   4.226
13697TIP3    H241049   1.110   0.619   4.197
13698TIP3   OH241050   1.598   1.140   6.146
13698TIP3    H141051   1.604   1.121   6.053
13698TIP3    H241052   1.673   1.095   6.185
13699TIP3   OH241053   6.547   4.308   5.598
13699TIP3    H141054   6.520   4.393   5.564
13699TIP3    H241055   6.490   4.246   5.552
13700TIP3   OH241056   4.120   0.265   2.257
13700TIP3    H141057   4.161   0.251   2.172
13700TIP3    H241058   4.072   0.348   2.248
13701TIP3   OH241059   3.441   5.895   4.273
13701TIP3    H141060   3.513   5.952   4.300
13701TIP3    H241061   3.415   5.928   4.187
13702TIP3   OH241062   1.698   4.596   4.274
13702TIP3    H141063   1.654   4.579   4.191
13702TIP3    H241064   1.705   4.692   4.278
13703TIP3   OH241065   3.001   6.923   6.428
13703TIP3    H141066   3.078   6.950   6.479
13703TIP3    H241067   3.012   6.965   6.343
13704TIP3   OH241068   5.679   2.782   1.782
13704TIP3    H141069   5.743   2.777   1.854
13704TIP3    H241070   5.597   2.805   1.825
13705TIP3   OH241071   0.417   5.259   1.169
13705TIP3    H141072   0.431   5.185   1.111
13705TIP3    H241073   0.412   5.220   1.257
13706TIP3   OH241074   4.518   4.594   4.841
13706TIP3    H141075   4.429   4.616   4.866
13706TIP3    H241076   4.572   4.620   4.916
13707TIP3   OH241077   0.541   5.380   2.680
13707TIP3    H141078   0.599   5.353   2.751
13707TIP3    H241079   0.591   5.448   2.633
13708TIP3   OH241080   4.088   3.637   0.760
13708TIP3    H141081   4.127   3.550   0.770
13708TIP3    H241082   3.999   3.620   0.729
13709TIP3   OH241083   4.224   0.432   4.055
13709TIP3    H141084   4.220   0.428   4.150
13709TIP3    H241085   4.253   0.522   4.036
13710TIP3   OH241086   7.428   1.173   3.238
13710TIP3    H141087   7.500   1.159   3.299
13710TIP3    H241088   7.466   1.228   3.169
13711TIP3   OH241089   7.155   3.016   1.936
13711TIP3    H141090   7.072   3.058   1.916
13711TIP3    H241091   7.150   2.997   2.030
13712TIP3   OH241092   3.832   5.113   5.191
13712TIP3    H141093   3.741   5.101   5.217
13712TIP3    H241094   3.837   5.203   5.159
13713TIP3   OH241095   3.708   6.240   1.434
13713TIP3    H141096   3.733   6.150   1.413
13713TIP3    H241097   3.631   6.257   1.381
13714TIP3   OH241098   6.037   3.851   5.897
13714TIP3    H141099   6.090   3.780   5.934
13714TIP3    H241100   5.991   3.811   5.823
13715TIP3   OH241101   1.826   7.086   5.094
13715TIP3    H141102   1.900   7.033   5.064
13715TIP3    H241103   1.764   7.022   5.130
13716TIP3   OH241104   4.038   5.401   6.513
13716TIP3    H141105   4.114   5.413   6.455
13716TIP3    H241106   4.036   5.307   6.529
13717TIP3   OH241107   1.374   7.291   5.898
13717TIP3    H141108   1.410   7.378   5.917
13717TIP3    H241109   1.300   7.308   5.840
13718TIP3   OH241110   0.814   5.061   2.805
13718TIP3    H141111   0.744   5.121   2.830
13718TIP3    H241112   0.876   5.116   2.756
13719TIP3   OH241113   6.741   2.088   1.660
13719TIP3    H141114   6.785   2.005   1.642
13719TIP3    H241115   6.758   2.141   1.582
13720TIP3   OH241116   0.882   7.270   3.990
13720TIP3    H141117   0.895   7.336   3.922
13720TIP3    H241118   0.954   7.284   4.052
13721TIP3   OH241119   7.225   4.117   5.787
13721TIP3    H141120   7.152   4.177   5.769
13721TIP3    H241121   7.193   4.032   5.757
13722TIP3   OH241122   6.378   4.301   6.004
13722TIP3    H141123   6.462   4.256   5.992
13722TIP3    H241124   6.401   4.388   6.035
13723TIP3   OH241125   5.945   3.126   6.425
13723TIP3    H141126   5.885   3.052   6.411
13723TIP3    H241127   6.003   3.123   6.349
13724TIP3   OH241128   6.395   2.225   3.669
13724TIP3    H141129   6.411   2.257   3.758
13724TIP3    H241130   6.379   2.131   3.680
13725TIP3   OH241131   0.501   0.524   4.080
13725TIP3    H141132   0.519   0.560   4.166
13725TIP3    H241133   0.530   0.433   4.085
13726TIP3   OH241134   4.679   4.646   4.182
13726TIP3    H141135   4.687   4.709   4.254
13726TIP3    H241136   4.739   4.575   4.206
13727TIP3   OH241137   2.845   3.278   5.616
13727TIP3    H141138   2.933   3.314   5.627
13727TIP3    H241139   2.847   3.196   5.666
13728TIP3   OH241140   2.410   5.082   2.113
13728TIP3    H141141   2.400   5.162   2.062
13728TIP3    H241142   2.321   5.058   2.138
13729TIP3   OH241143   5.436   0.542   3.924
13729TIP3    H141144   5.429   0.457   3.968
13729TIP3    H241145   5.401   0.605   3.988
13730TIP3   OH241146   1.757   7.176   2.812
13730TIP3    H141147   1.716   7.223   2.884
13730TIP3    H241148   1.844   7.215   2.803
13731TIP3   OH241149   2.562   2.504   3.496
13731TIP3    H141150   2.539   2.546   3.413
13731TIP3    H241151   2.494   2.438   3.509
13732TIP3   OH241152   4.271   7.614   4.400
13732TIP3    H141153   4.242   7.641   4.313
13732TIP3    H241154   4.291   7.697   4.445
13733TIP3   OH241155   6.876   6.957   0.149
13733TIP3    H141156   6.939   6.990   0.213
13733TIP3    H241157   6.884   7.017   0.075
13734TIP3   OH241158   4.062   4.487   3.571
13734TIP3    H141159   4.071   4.542   3.648
13734TIP3    H241160   3.975   4.507   3.536
13735TIP3   OH241161   5.198   5.269   4.197
13735TIP3    H141162   5.284   5.229   4.206
13735TIP3    H241163   5.151   5.242   4.276
13736TIP3   OH241164   7.209   5.667   0.709
13736TIP3    H141165   7.177   5.678   0.798
13736TIP3    H241166   7.133   5.688   0.654
13737TIP3   OH241167   7.578   6.087   5.098
13737TIP3    H141168   7.598   6.000   5.133
13737TIP3    H241169   7.538   6.070   5.013
13738TIP3   OH241170   2.638   6.736   5.273
13738TIP3    H141171   2.574   6.665   5.268
13738TIP3    H241172   2.723   6.693   5.261
13739TIP3   OH241173   3.580   1.165   4.521
13739TIP3    H141174   3.564   1.255   4.493
13739TIP3    H241175   3.660   1.140   4.475
13740TIP3   OH241176   0.862   3.517   5.707
13740TIP3    H141177   0.954   3.528   5.731
13740TIP3    H241178   0.863   3.511   5.611
13741TIP3   OH241179   6.184   7.214   1.014
13741TIP3    H141180   6.198   7.280   0.947
13741TIP3    H241181   6.272   7.193   1.047
13742TIP3   OH241182   7.391   1.653   2.118
13742TIP3    H141183   7.437   1.655   2.035
13742TIP3    H241184   7.391   1.744   2.148
13743TIP3   OH241185   1.979   6.315   6.627
13743TIP3    H141186   2.036   6.392   6.629
13743TIP3    H241187   1.954   6.306   6.536
13744TIP3   OH241188   8.085  -0.005   0.433
13744TIP3    H141189   8.028   0.072   0.435
13744TIP3    H241190   8.064  -0.053   0.512
13745TIP3   OH241191   8.165   5.766   3.012
13745TIP3    H141192   8.204   5.799   2.931
13745TIP3    H241193   8.196   5.675   3.017
13746TIP3   OH241194   1.750   0.655   3.202
13746TIP3    H141195   1.707   0.608   3.130
13746TIP3    H241196   1.830   0.606   3.219
13747TIP3   OH241197   6.729   6.775   2.820
13747TIP3    H141198   6.745   6.819   2.736
13747TIP3    H241199   6.637   6.793   2.839
13748TIP3   OH241200   1.234   4.182   1.780
13748TIP3    H141201   1.226   4.272   1.813
13748TIP3    H241202   1.172   4.177   1.707
13749TIP3   OH241203   8.249   3.813   2.464
13749TIP3    H141204   8.168   3.761   2.459
13749TIP3    H241205   8.223   3.901   2.436
13750TIP3   OH241206   7.515   6.057   6.374
13750TIP3    H141207   7.445   6.122   6.379
13750TIP3    H241208   7.490   5.989   6.437
13751TIP3   OH241209   4.366   2.466   1.062
13751TIP3    H141210   4.325   2.397   1.009
13751TIP3    H241211   4.450   2.482   1.019
13752TIP3   OH241212   5.841   5.115   0.195
13752TIP3    H141213   5.847   5.147   0.285
13752TIP3    H241214   5.928   5.133   0.158
13753TIP3   OH241215   4.177   4.045   1.382
13753TIP3    H141216   4.100   3.993   1.359
13753TIP3    H241217   4.183   4.111   1.313
13754TIP3   OH241218   3.243   4.366   3.858
13754TIP3    H141219   3.241   4.347   3.764
13754TIP3    H241220   3.159   4.409   3.876
13755TIP3   OH241221   3.765   4.378   6.324
13755TIP3    H141222   3.793   4.335   6.404
13755TIP3    H241223   3.671   4.391   6.335
13756TIP3   OH241224   6.493   2.318   3.336
13756TIP3    H141225   6.517   2.234   3.374
13756TIP3    H241226   6.558   2.334   3.268
13757TIP3   OH241227   7.097   6.651   5.453
13757TIP3    H141228   7.159   6.703   5.402
13757TIP3    H241229   7.141   6.638   5.537
13758TIP3   OH241230   2.771   3.356   2.488
13758TIP3    H141231   2.698   3.399   2.532
13758TIP3    H241232   2.849   3.404   2.516
13759TIP3   OH241233   5.844   3.088   4.029
13759TIP3    H141234   5.866   3.038   3.950
13759TIP3    H241235   5.811   3.171   3.995
13760TIP3   OH241236   3.396   6.294   2.426
13760TIP3    H141237   3.480   6.298   2.473
13760TIP3    H241238   3.342   6.360   2.468
13761TIP3   OH241239   0.694   1.712   3.102
13761TIP3    H141240   0.759   1.722   3.032
13761TIP3    H241241   0.709   1.787   3.159
13762TIP3   OH241242   3.451   4.525   3.980
13762TIP3    H141243   3.366   4.490   3.954
13762TIP3    H241244   3.513   4.485   3.918
13763TIP3   OH241245   3.543   6.486   4.547
13763TIP3    H141246   3.488   6.517   4.619
13763TIP3    H241247   3.605   6.557   4.533
13764TIP3   OH241248   6.033   6.784   6.589
13764TIP3    H141249   5.980   6.830   6.654
13764TIP3    H241250   5.969   6.737   6.535
13765TIP3   OH241251   7.856   5.176   2.164
13765TIP3    H141252   7.897   5.093   2.190
13765TIP3    H241253   7.860   5.230   2.243
13766TIP3   OH241254   0.513   4.739   0.214
13766TIP3    H141255   0.425   4.748   0.178
13766TIP3    H241256   0.524   4.645   0.228
13767TIP3   OH241257   7.696   6.544   5.523
13767TIP3    H141258   7.667   6.599   5.450
13767TIP3    H241259   7.744   6.473   5.481
13768TIP3   OH241260   7.738   1.848   4.742
13768TIP3    H141261   7.692   1.770   4.773
13768TIP3    H241262   7.668   1.908   4.718
13769TIP3   OH241263   1.502   5.569   1.571
13769TIP3    H141264   1.546   5.654   1.574
13769TIP3    H241265   1.568   5.507   1.601
13770TIP3   OH241266   5.190   3.214   0.144
13770TIP3    H141267   5.163   3.249   0.059
13770TIP3    H241268   5.233   3.287   0.188
13771TIP3   OH241269   8.170   1.181   4.182
13771TIP3    H141270   8.234   1.143   4.243
13771TIP3    H241271   8.210   1.169   4.096
13772TIP3   OH241272   4.961   4.473   5.954
13772TIP3    H141273   5.002   4.391   5.926
13772TIP3    H241274   4.881   4.479   5.902
13773TIP3   OH241275   3.777   4.307   2.106
13773TIP3    H141276   3.839   4.327   2.176
13773TIP3    H241277   3.822   4.336   2.026
13774TIP3   OH241278   4.159   1.644   1.398
13774TIP3    H141279   4.193   1.555   1.390
13774TIP3    H241280   4.071   1.640   1.360
13775TIP3   OH241281   2.220   0.459   2.570
13775TIP3    H141282   2.141   0.415   2.538
13775TIP3    H241283   2.200   0.482   2.660
13776TIP3   OH241284   6.242   6.959   1.187
13776TIP3    H141285   6.155   6.979   1.220
13776TIP3    H241286   6.228   6.938   1.094
13777TIP3   OH241287   1.127   5.166   5.008
13777TIP3    H141288   1.089   5.104   5.070
13777TIP3    H241289   1.071   5.160   4.931
13778TIP3   OH241290   2.727   1.846   0.554
13778TIP3    H141291   2.772   1.816   0.633
13778TIP3    H241292   2.677   1.770   0.524
13779TIP3   OH241293   8.047   2.390   3.095
13779TIP3    H141294   8.008   2.458   3.040
13779TIP3    H241295   7.973   2.349   3.140
13780TIP3   OH241296   8.258   1.580   5.365
13780TIP3    H141297   8.313   1.658   5.355
13780TIP3    H241298   8.295   1.518   5.303
13781TIP3   OH241299   8.036   2.100   0.847
13781TIP3    H141300   7.942   2.115   0.842
13781TIP3    H241301   8.052   2.029   0.785
13782TIP3   OH241302   3.276   6.972   4.361
13782TIP3    H141303   3.238   6.960   4.448
13782TIP3    H241304   3.355   7.023   4.377
13783TIP3   OH241305   8.178   3.770   0.603
13783TIP3    H141306   8.092   3.808   0.624
13783TIP3    H241307   8.165   3.676   0.611
13784TIP3   OH241308   2.021   5.237   1.961
13784TIP3    H141309   2.030   5.317   1.910
13784TIP3    H241310   1.927   5.226   1.972
13785TIP3   OH241311   5.909   2.151   4.242
13785TIP3    H141312   5.885   2.144   4.334
13785TIP3    H241313   5.903   2.245   4.224
13786TIP3   OH241314   3.845   2.174   2.129
13786TIP3    H141315   3.859   2.262   2.093
13786TIP3    H241316   3.881   2.116   2.063
13787TIP3   OH241317   3.588   3.139   0.264
13787TIP3    H141318   3.631   3.054   0.274
13787TIP3    H241319   3.625   3.192   0.334
13788TIP3   OH241320   0.427   1.633   2.481
13788TIP3    H141321   0.340   1.662   2.509
13788TIP3    H241322   0.481   1.644   2.559
13789TIP3   OH241323   7.702   4.304   1.193
13789TIP3    H141324   7.704   4.249   1.271
13789TIP3    H241325   7.609   4.311   1.172
13790TIP3   OH241326   7.782   7.562   1.582
13790TIP3    H141327   7.850   7.508   1.622
13790TIP3    H241328   7.745   7.612   1.655
13791TIP3   OH241329   7.861   5.467   4.444
13791TIP3    H141330   7.886   5.430   4.528
13791TIP3    H241331   7.825   5.553   4.465
13792TIP3   OH241332   4.951   2.336   1.697
13792TIP3    H141333   4.978   2.279   1.625
13792TIP3    H241334   5.027   2.337   1.756
13793TIP3   OH241335   0.275   2.319   4.892
13793TIP3    H141336   0.271   2.359   4.805
13793TIP3    H241337   0.321   2.383   4.946
13794TIP3   OH241338   1.988   5.125   3.217
13794TIP3    H141339   1.930   5.200   3.230
13794TIP3    H241340   1.958   5.084   3.136
13795TIP3   OH241341   1.104   0.982   3.824
13795TIP3    H141342   1.069   1.001   3.737
13795TIP3    H241343   1.183   0.930   3.806
13796TIP3   OH241344   1.952   6.761   6.412
13796TIP3    H141345   1.989   6.739   6.326
13796TIP3    H241346   1.995   6.700   6.472
13797TIP3   OH241347   6.993   1.031   1.178
13797TIP3    H141348   6.964   0.942   1.159
13797TIP3    H241349   7.041   1.024   1.260
13798TIP3   OH241350   2.706   7.370   5.738
13798TIP3    H141351   2.767   7.335   5.803
13798TIP3    H241352   2.723   7.464   5.737
13799TIP3   OH241353   5.349   6.525   3.227
13799TIP3    H141354   5.291   6.536   3.302
13799TIP3    H241355   5.433   6.560   3.257
13800TIP3   OH241356   7.579   2.179   6.729
13800TIP3    H141357   7.637   2.213   6.661
13800TIP3    H241358   7.491   2.187   6.693
13801TIP3   OH241359   0.793   0.985   5.165
13801TIP3    H141360   0.847   1.056   5.130
13801TIP3    H241361   0.803   0.913   5.102
13802TIP3   OH241362   1.115   0.638   5.398
13802TIP3    H141363   1.067   0.556   5.408
13802TIP3    H241364   1.049   0.700   5.366
13803TIP3   OH241365   3.325   6.228   3.147
13803TIP3    H141366   3.242   6.243   3.102
13803TIP3    H241367   3.310   6.151   3.201
13804TIP3   OH241368   2.919   0.970   0.345
13804TIP3    H141369   2.983   0.966   0.416
13804TIP3    H241370   2.847   1.021   0.381
13805TIP3   OH241371   1.965   6.184   5.283
13805TIP3    H141372   1.950   6.160   5.192
13805TIP3    H241373   2.049   6.230   5.282
13806TIP3   OH241374   4.877   0.321   0.006
13806TIP3    H141375   4.847   0.241   0.049
13806TIP3    H241376   4.798   0.375  -0.001
13807TIP3   OH241377   6.437   3.677   1.249
13807TIP3    H141378   6.428   3.713   1.161
13807TIP3    H241379   6.529   3.652   1.255
13808TIP3   OH241380   7.547   5.837   2.812
13808TIP3    H141381   7.501   5.903   2.760
13808TIP3    H241382   7.628   5.881   2.839
13809TIP3   OH241383   5.028   5.565   0.128
13809TIP3    H141384   4.937   5.586   0.149
13809TIP3    H241385   5.056   5.506   0.198
13810TIP3   OH241386   7.407   4.133   5.064
13810TIP3    H141387   7.428   4.048   5.025
13810TIP3    H241388   7.478   4.191   5.035
13811TIP3   OH241389   6.992   5.641   4.329
13811TIP3    H141390   6.974   5.703   4.399
13811TIP3    H241391   6.925   5.574   4.338
13812TIP3   OH241392   7.082   4.683   0.070
13812TIP3    H141393   7.043   4.747   0.010
13812TIP3    H241394   7.114   4.613   0.014
13813TIP3   OH241395   7.281   4.717   6.705
13813TIP3    H141396   7.188   4.730   6.722
13813TIP3    H241397   7.284   4.661   6.628
13814TIP3   OH241398   7.713   1.862   6.563
13814TIP3    H141399   7.732   1.879   6.655
13814TIP3    H241400   7.768   1.925   6.516
13815TIP3   OH241401   1.814   5.002   5.365
13815TIP3    H141402   1.848   5.011   5.454
13815TIP3    H241403   1.738   5.059   5.363
13816TIP3   OH241404   6.179   7.773   3.023
13816TIP3    H141405   6.150   7.863   3.009
13816TIP3    H241406   6.227   7.751   2.943
13817TIP3   OH241407   2.259   1.517   4.839
13817TIP3    H141408   2.245   1.609   4.862
13817TIP3    H241409   2.178   1.473   4.864
13818TIP3   OH241410   2.237   0.374   6.428
13818TIP3    H141411   2.180   0.440   6.468
13818TIP3    H241412   2.240   0.397   6.336
13819TIP3   OH241413   8.127   3.718   5.147
13819TIP3    H141414   8.097   3.800   5.185
13819TIP3    H241415   8.114   3.653   5.217
13820TIP3   OH241416   3.927   0.048   4.986
13820TIP3    H141417   3.880   0.095   5.055
13820TIP3    H241418   4.009   0.022   5.027
13821TIP3   OH241419   3.201   1.403   6.109
13821TIP3    H141420   3.273   1.352   6.072
13821TIP3    H241421   3.176   1.356   6.188
13822TIP3   OH241422   0.547   4.421   6.277
13822TIP3    H141423   0.604   4.369   6.333
13822TIP3    H241424   0.587   4.413   6.190
13823TIP3   OH241425   5.365   1.304   5.651
13823TIP3    H141426   5.443   1.248   5.658
13823TIP3    H241427   5.392   1.375   5.593
13824TIP3   OH241428   2.225   0.801   2.722
13824TIP3    H141429   2.294   0.735   2.735
13824TIP3    H241430   2.248   0.870   2.784
13825TIP3   OH241431   1.105   6.994   2.180
13825TIP3    H141432   1.091   6.929   2.249
13825TIP3    H241433   1.200   7.006   2.177
13826TIP3   OH241434   2.465   5.441   0.227
13826TIP3    H141435   2.455   5.349   0.203
13826TIP3    H241436   2.379   5.467   0.258
13827TIP3   OH241437   1.407   3.534   5.778
13827TIP3    H141438   1.467   3.609   5.779
13827TIP3    H241439   1.432   3.482   5.855
13828TIP3   OH241440   5.415   1.209   4.237
13828TIP3    H141441   5.353   1.138   4.253
13828TIP3    H241442   5.455   1.225   4.323
13829TIP3   OH241443   1.930   5.992   1.747
13829TIP3    H141444   1.980   5.929   1.799
13829TIP3    H241445   1.839   5.965   1.758
13830TIP3   OH241446   7.256   3.743   5.143
13830TIP3    H141447   7.211   3.734   5.227
13830TIP3    H241448   7.326   3.806   5.160
13831TIP3   OH241449   1.496   5.987   5.187
13831TIP3    H141450   1.540   6.019   5.265
13831TIP3    H241451   1.527   5.897   5.176
13832TIP3   OH241452   3.428   4.072   6.245
13832TIP3    H141453   3.508   4.080   6.194
13832TIP3    H241454   3.413   4.159   6.281
13833TIP3   OH241455   7.261   6.240   3.948
13833TIP3    H141456   7.190   6.182   3.919
13833TIP3    H241457   7.238   6.264   4.038
13834TIP3   OH241458   2.361   3.485   3.178
13834TIP3    H141459   2.386   3.527   3.096
13834TIP3    H241460   2.443   3.473   3.225
13835TIP3   OH241461   7.890   7.205   2.140
13835TIP3    H141462   7.945   7.130   2.161
13835TIP3    H241463   7.946   7.281   2.158
13836TIP3   OH241464   4.725   6.265   1.940
13836TIP3    H141465   4.714   6.191   1.881
13836TIP3    H241466   4.710   6.228   2.028
13837TIP3   OH241467   7.040   2.690   4.571
13837TIP3    H141468   7.069   2.750   4.501
13837TIP3    H241469   7.100   2.708   4.643
13838TIP3   OH241470   1.055   3.842   5.900
13838TIP3    H141471   0.968   3.852   5.861
13838TIP3    H241472   1.051   3.759   5.946
13839TIP3   OH241473   0.575   1.037   2.815
13839TIP3    H141474   0.614   0.962   2.770
13839TIP3    H241475   0.560   1.101   2.746
13840TIP3   OH241476   3.028   4.445   6.336
13840TIP3    H141477   3.117   4.416   6.313
13840TIP3    H241478   3.040   4.500   6.413
13841TIP3   OH241479   5.333   7.502   1.331
13841TIP3    H141480   5.368   7.438   1.392
13841TIP3    H241481   5.399   7.508   1.262
13842TIP3   OH241482   4.915   4.067   4.309
13842TIP3    H141483   4.926   4.045   4.402
13842TIP3    H241484   4.841   4.127   4.308
13843TIP3   OH241485   7.930   2.104   0.060
13843TIP3    H141486   7.989   2.040   0.100
13843TIP3    H241487   7.981   2.185   0.058
13844TIP3   OH241488   1.048   5.297   5.906
13844TIP3    H141489   1.046   5.205   5.879
13844TIP3    H241490   0.985   5.302   5.978
13845TIP3   OH241491   2.456   1.414   5.026
13845TIP3    H141492   2.382   1.414   4.966
13845TIP3    H241493   2.443   1.491   5.081
13846TIP3   OH241494   0.362   4.365   1.724
13846TIP3    H141495   0.453   4.348   1.747
13846TIP3    H241496   0.320   4.386   1.807
13847TIP3   OH241497   7.510   6.023   0.898
13847TIP3    H141498   7.456   6.067   0.963
13847TIP3    H241499   7.600   6.038   0.927
13848TIP3   OH241500   3.555   5.538   0.048
13848TIP3    H141501   3.639   5.573   0.019
13848TIP3    H241502   3.492   5.570  -0.017
13849TIP3   OH241503   1.046   5.255   6.440
13849TIP3    H141504   0.951   5.268   6.445
13849TIP3    H241505   1.079   5.336   6.401
13850TIP3   OH241506   2.105   3.216   5.980
13850TIP3    H141507   2.074   3.307   5.984
13850TIP3    H241508   2.168   3.210   6.052
13851TIP3   OH241509   0.481   3.387   4.063
13851TIP3    H141510   0.486   3.313   4.002
13851TIP3    H241511   0.490   3.465   4.007
13852TIP3   OH241512   0.292   0.786   3.737
13852TIP3    H141513   0.341   0.735   3.802
13852TIP3    H241514   0.354   0.799   3.666
13853TIP3   OH241515   1.456   5.911   4.790
13853TIP3    H141516   1.451   5.817   4.807
13853TIP3    H241517   1.536   5.939   4.834
13854TIP3   OH241518   7.701   4.418   2.313
13854TIP3    H141519   7.722   4.345   2.372
13854TIP3    H241520   7.636   4.469   2.362
13855TIP3   OH241521   7.760   3.770   0.324
13855TIP3    H141522   7.837   3.724   0.291
13855TIP3    H241523   7.722   3.813   0.248
13856TIP3   OH241524   5.873   5.870   2.926
13856TIP3    H141525   5.795   5.909   2.965
13856TIP3    H241526   5.895   5.797   2.984
13857TIP3   OH241527   5.300   3.202   3.552
13857TIP3    H141528   5.211   3.171   3.539
13857TIP3    H241529   5.336   3.209   3.463
13858TIP3   OH241530   0.946   4.679   1.016
13858TIP3    H141531   0.860   4.720   1.026
13858TIP3    H241532   1.003   4.728   1.074
13859TIP3   OH241533   7.279   4.224   3.552
13859TIP3    H141534   7.268   4.167   3.476
13859TIP3    H241535   7.372   4.217   3.574
13860TIP3   OH241536   2.163   1.805   2.221
13860TIP3    H141537   2.166   1.900   2.207
13860TIP3    H241538   2.142   1.796   2.314
13861TIP3   OH241539   6.015   0.257   2.594
13861TIP3    H141540   5.984   0.338   2.553
13861TIP3    H241541   6.004   0.191   2.526
13862TIP3   OH241542   2.990   2.586   6.216
13862TIP3    H141543   3.021   2.638   6.291
13862TIP3    H241544   3.052   2.514   6.210
13863TIP3   OH241545   7.934   3.911   2.090
13863TIP3    H141546   7.881   3.988   2.068
13863TIP3    H241547   8.022   3.934   2.061
13864TIP3   OH241548   1.060   5.846   0.445
13864TIP3    H141549   0.990   5.900   0.405
13864TIP3    H241550   1.014   5.789   0.506
13865TIP3   OH241551   4.050   3.382   4.434
13865TIP3    H141552   3.987   3.434   4.483
13865TIP3    H241553   4.039   3.410   4.343
13866TIP3   OH241554   0.970   5.669   2.467
13866TIP3    H141555   0.904   5.702   2.406
13866TIP3    H241556   1.032   5.741   2.476
13867TIP3   OH241557   1.284   3.734   0.509
13867TIP3    H141558   1.307   3.818   0.470
13867TIP3    H241559   1.312   3.740   0.600
13868TIP3   OH241560   3.086   5.178   3.748
13868TIP3    H141561   2.992   5.197   3.750
13868TIP3    H241562   3.094   5.102   3.691
13869TIP3   OH241563   0.553   1.367   5.091
13869TIP3    H141564   0.572   1.376   4.997
13869TIP3    H241565   0.488   1.435   5.108
13870TIP3   OH241566   7.004   3.766   2.124
13870TIP3    H141567   7.057   3.805   2.193
13870TIP3    H241568   6.926   3.732   2.169
13871TIP3   OH241569   4.110   5.411   5.303
13871TIP3    H141570   4.016   5.402   5.287
13871TIP3    H241571   4.144   5.322   5.297
13872TIP3   OH241572   7.626   6.013   1.937
13872TIP3    H141573   7.532   6.003   1.919
13872TIP3    H241574   7.658   5.923   1.950
13873TIP3   OH241575   0.194   5.332   0.842
13873TIP3    H141576   0.189   5.374   0.927
13873TIP3    H241577   0.112   5.282   0.834
13874TIP3   OH241578   1.137   1.599   1.525
13874TIP3    H141579   1.123   1.577   1.617
13874TIP3    H241580   1.145   1.514   1.481
13875TIP3   OH241581   7.821   6.505   3.171
13875TIP3    H141582   7.910   6.522   3.141
13875TIP3    H241583   7.804   6.571   3.238
13876TIP3   OH241584   5.020   6.426   3.589
13876TIP3    H141585   5.083   6.361   3.619
13876TIP3    H241586   4.984   6.389   3.509
13877TIP3   OH241587   2.565   6.384   6.105
13877TIP3    H141588   2.574   6.479   6.112
13877TIP3    H241589   2.555   6.354   6.195
13878TIP3   OH241590   5.581   2.643   1.571
13878TIP3    H141591   5.603   2.693   1.650
13878TIP3    H241592   5.647   2.574   1.566
13879TIP3   OH241593   4.787   0.087   3.088
13879TIP3    H141594   4.789  -0.007   3.070
13879TIP3    H241595   4.756   0.126   3.006
13880TIP3   OH241596   2.211   0.569   4.765
13880TIP3    H141597   2.200   0.663   4.781
13880TIP3    H241598   2.195   0.558   4.671
13881TIP3   OH241599   0.203   3.483   1.362
13881TIP3    H141600   0.180   3.575   1.378
13881TIP3    H241601   0.232   3.481   1.271
13882TIP3   OH241602   4.897   6.787   5.601
13882TIP3    H141603   4.964   6.839   5.644
13882TIP3    H241604   4.888   6.826   5.514
13883TIP3   OH241605   1.144   7.316   3.130
13883TIP3    H141606   1.206   7.361   3.187
13883TIP3    H241607   1.066   7.372   3.132
13884TIP3   OH241608   3.041   6.150   4.542
13884TIP3    H141609   3.024   6.185   4.455
13884TIP3    H241610   2.995   6.066   4.543
13885TIP3   OH241611   5.807   5.161   5.602
13885TIP3    H141612   5.822   5.142   5.509
13885TIP3    H241613   5.788   5.255   5.604
13886TIP3   OH241614   3.374   2.269   2.476
13886TIP3    H141615   3.329   2.207   2.418
13886TIP3    H241616   3.303   2.316   2.520
13887TIP3   OH241617   6.474   0.768   2.829
13887TIP3    H141618   6.419   0.707   2.779
13887TIP3    H241619   6.501   0.834   2.766
13888TIP3   OH241620   5.387   6.584   5.030
13888TIP3    H141621   5.325   6.520   4.995
13888TIP3    H241622   5.335   6.636   5.091
13889TIP3   OH241623   7.086   4.750   2.990
13889TIP3    H141624   7.154   4.804   3.030
13889TIP3    H241625   7.091   4.771   2.897
13890TIP3   OH241626   5.923   4.321   4.762
13890TIP3    H141627   5.850   4.320   4.701
13890TIP3    H241628   5.976   4.397   4.736
13891TIP3   OH241629   2.353   0.695   2.438
13891TIP3    H141630   2.275   0.643   2.459
13891TIP3    H241631   2.426   0.644   2.472
13892TIP3   OH241632   0.059   5.992   4.516
13892TIP3    H141633   0.138   5.947   4.488
13892TIP3    H241634   0.009   5.925   4.563
13893TIP3   OH241635   2.144   5.636   3.347
13893TIP3    H141636   2.198   5.707   3.382
13893TIP3    H241637   2.148   5.648   3.252
13894TIP3   OH241638   5.736   1.683   1.217
13894TIP3    H141639   5.804   1.666   1.282
13894TIP3    H241640   5.773   1.751   1.161
13895TIP3   OH241641   5.985   5.374   5.049
13895TIP3    H141642   5.934   5.336   5.120
13895TIP3    H241643   5.920   5.400   4.984
13896TIP3   OH241644   4.023   1.371   0.240
13896TIP3    H141645   4.070   1.442   0.283
13896TIP3    H241646   4.002   1.406   0.153
13897TIP3   OH241647   2.152   7.319   3.271
13897TIP3    H141648   2.208   7.320   3.193
13897TIP3    H241649   2.213   7.335   3.343
13898TIP3   OH241650   4.685   5.567   4.092
13898TIP3    H141651   4.592   5.563   4.116
13898TIP3    H241652   4.730   5.522   4.163
13899TIP3   OH241653   6.768   5.667   4.775
13899TIP3    H141654   6.753   5.739   4.713
13899TIP3    H241655   6.693   5.671   4.835
13900TIP3   OH241656   7.647   3.640   2.571
13900TIP3    H141657   7.566   3.666   2.527
13900TIP3    H241658   7.676   3.720   2.616
13901TIP3   OH241659   3.377   2.670   5.970
13901TIP3    H141660   3.381   2.728   6.046
13901TIP3    H241661   3.284   2.665   5.949
13902TIP3   OH241662   3.904   0.041   6.674
13902TIP3    H141663   3.997   0.052   6.657
13902TIP3    H241664   3.863   0.049   6.588
13903TIP3   OH241665   0.342   5.052   4.734
13903TIP3    H141666   0.305   4.964   4.731
13903TIP3    H241667   0.343   5.081   4.642
13904TIP3   OH241668   4.103   2.219   2.906
13904TIP3    H141669   4.092   2.307   2.940
13904TIP3    H241670   4.017   2.195   2.872
13905TIP3   OH241671   3.155   1.419   2.726
13905TIP3    H141672   3.093   1.364   2.773
13905TIP3    H241673   3.226   1.359   2.701
13906TIP3   OH241674   4.291   5.003   6.294
13906TIP3    H141675   4.299   4.939   6.223
13906TIP3    H241676   4.375   4.999   6.338
13907TIP3   OH241677   5.839   4.816   0.709
13907TIP3    H141678   5.890   4.819   0.629
13907TIP3    H241679   5.763   4.871   0.691
13908TIP3   OH241680   1.794   2.012   5.641
13908TIP3    H141681   1.812   2.101   5.608
13908TIP3    H241682   1.809   1.956   5.565
13909TIP3   OH241683   3.275   4.091   1.147
13909TIP3    H141684   3.288   3.999   1.173
13909TIP3    H241685   3.363   4.127   1.140
13910TIP3   OH241686   8.219   4.529   1.501
13910TIP3    H141687   8.275   4.475   1.557
13910TIP3    H241688   8.243   4.504   1.412
13911TIP3   OH241689   1.329   3.446   0.873
13911TIP3    H141690   1.327   3.534   0.911
13911TIP3    H241691   1.389   3.452   0.799
13912TIP3   OH241692   0.763   6.441   3.816
13912TIP3    H141693   0.711   6.370   3.855
13912TIP3    H241694   0.820   6.396   3.754
13913TIP3   OH241695   7.399   3.619   1.307
13913TIP3    H141696   7.345   3.561   1.361
13913TIP3    H241697   7.337   3.680   1.267
13914TIP3   OH241698   1.861   1.417   0.744
13914TIP3    H141699   1.921   1.449   0.677
13914TIP3    H241700   1.802   1.358   0.697
13915TIP3   OH241701   4.475   0.052   0.017
13915TIP3    H141702   4.476   0.126   0.078
13915TIP3    H241703   4.551   0.065  -0.039
13916TIP3   OH241704   4.666   0.372   2.071
13916TIP3    H141705   4.711   0.403   1.992
13916TIP3    H241706   4.733   0.323   2.119
13917TIP3   OH241707   2.327   7.524   2.580
13917TIP3    H141708   2.390   7.463   2.542
13917TIP3    H241709   2.371   7.559   2.657
13918TIP3   OH241710   0.617   7.458   6.207
13918TIP3    H141711   0.535   7.507   6.213
13918TIP3    H241712   0.685   7.523   6.221
13919TIP3   OH241713   2.040   7.762   4.424
13919TIP3    H141714   2.032   7.690   4.362
13919TIP3    H241715   2.080   7.833   4.375
13920TIP3   OH241716   7.780   5.015   0.469
13920TIP3    H141717   7.726   5.044   0.395
13920TIP3    H241718   7.807   4.927   0.446
13921TIP3   OH241719   5.441   2.698   4.146
13921TIP3    H141720   5.467   2.657   4.064
13921TIP3    H241721   5.358   2.740   4.127
13922TIP3   OH241722   0.859   3.015   4.444
13922TIP3    H141723   0.818   2.928   4.445
13922TIP3    H241724   0.940   3.003   4.395
13923TIP3   OH241725   1.159   6.960   3.730
13923TIP3    H141726   1.192   7.002   3.809
13923TIP3    H241727   1.237   6.947   3.676
13924TIP3   OH241728   2.731   2.772   3.549
13924TIP3    H141729   2.745   2.691   3.597
13924TIP3    H241730   2.716   2.838   3.616
13925TIP3   OH241731   3.358   7.607   6.095
13925TIP3    H141732   3.294   7.669   6.060
13925TIP3    H241733   3.442   7.639   6.061
13926TIP3   OH241734   2.456   4.586   4.894
13926TIP3    H141735   2.395   4.641   4.942
13926TIP3    H241736   2.531   4.643   4.877
13927TIP3   OH241737   4.667   3.673   4.653
13927TIP3    H141738   4.690   3.582   4.669
13927TIP3    H241739   4.572   3.676   4.666
13928TIP3   OH241740   5.263   3.576   1.143
13928TIP3    H141741   5.281   3.483   1.160
13928TIP3    H241742   5.327   3.623   1.196
13929TIP3   OH241743   1.167   6.274   5.251
13929TIP3    H141744   1.188   6.359   5.213
13929TIP3    H241745   1.071   6.268   5.245
13930TIP3   OH241746   2.148   7.060   4.483
13930TIP3    H141747   2.072   7.014   4.518
13930TIP3    H241748   2.210   7.063   4.557
13931TIP3   OH241749   5.899   0.255   5.821
13931TIP3    H141750   5.984   0.242   5.780
13931TIP3    H241751   5.854   0.171   5.810
13932TIP3   OH241752   7.598   3.871   4.029
13932TIP3    H141753   7.663   3.842   3.966
13932TIP3    H241754   7.514   3.861   3.984
13933TIP3   OH241755   1.221   5.206   2.760
13933TIP3    H141756   1.275   5.260   2.702
13933TIP3    H241757   1.284   5.154   2.810
13934TIP3   OH241758   2.130   7.147   1.531
13934TIP3    H141759   2.133   7.054   1.555
13934TIP3    H241760   2.042   7.175   1.555
13935TIP3   OH241761   1.232   1.845   2.455
13935TIP3    H141762   1.148   1.863   2.498
13935TIP3    H241763   1.225   1.888   2.370
13936TIP3   OH241764   1.816   6.579   2.085
13936TIP3    H141765   1.807   6.673   2.070
13936TIP3    H241766   1.734   6.541   2.055
13937TIP3   OH241767   7.871   2.911   6.107
13937TIP3    H141768   7.862   2.959   6.190
13937TIP3    H241769   7.900   2.976   6.044
13938TIP3   OH241770   2.483   3.945   4.170
13938TIP3    H141771   2.426   3.990   4.108
13938TIP3    H241772   2.551   4.009   4.191
13939TIP3   OH241773   1.571   7.467   4.526
13939TIP3    H141774   1.634   7.537   4.509
13939TIP3    H241775   1.573   7.456   4.621
13940TIP3   OH241776   2.088   0.400   5.679
13940TIP3    H141777   2.082   0.314   5.721
13940TIP3    H241778   2.110   0.380   5.588
13941TIP3   OH241779   2.449   7.797   6.380
13941TIP3    H141780   2.437   7.764   6.469
13941TIP3    H241781   2.450   7.718   6.326
13942TIP3   OH241782   4.131   2.533   5.372
13942TIP3    H141783   4.077   2.528   5.451
13942TIP3    H241784   4.088   2.475   5.310
13943TIP3   OH241785   0.143   6.924   0.441
13943TIP3    H141786   0.190   7.007   0.434
13943TIP3    H241787   0.211   6.862   0.469
13944TIP3   OH241788   7.952   3.247   0.091
13944TIP3    H141789   7.992   3.167   0.127
13944TIP3    H241790   7.989   3.318   0.145
13945TIP3   OH241791   2.011   3.380   2.428
13945TIP3    H141792   2.037   3.449   2.367
13945TIP3    H241793   1.934   3.340   2.386
13946TIP3   OH241794   6.077   1.248   2.395
13946TIP3    H141795   6.046   1.165   2.357
13946TIP3    H241796   6.171   1.249   2.377
13947TIP3   OH241797   4.119   2.388   0.685
13947TIP3    H141798   4.197   2.439   0.664
13947TIP3    H241799   4.132   2.304   0.641
13948TIP3   OH241800   2.205   0.500   1.566
13948TIP3    H141801   2.248   0.584   1.551
13948TIP3    H241802   2.205   0.458   1.480
13949TIP3   OH241803   3.157   1.685   4.048
13949TIP3    H141804   3.181   1.610   3.993
13949TIP3    H241805   3.106   1.741   3.990
13950TIP3   OH241806   7.478   3.916   3.439
13950TIP3    H141807   7.509   3.875   3.520
13950TIP3    H241808   7.527   3.871   3.370
13951TIP3   OH241809   3.818   1.027   4.317
13951TIP3    H141810   3.908   1.036   4.287
13951TIP3    H241811   3.792   0.939   4.291
13952TIP3   OH241812   3.101   5.688   5.783
13952TIP3    H141813   3.042   5.691   5.859
13952TIP3    H241814   3.091   5.774   5.742
13953TIP3   OH241815   2.394   0.202   3.343
13953TIP3    H141816   2.465   0.152   3.302
13953TIP3    H241817   2.423   0.218   3.432
13954TIP3   OH241818   3.660   3.422   4.301
13954TIP3    H141819   3.728   3.356   4.313
13954TIP3    H241820   3.682   3.465   4.218
13955TIP3   OH241821   3.134   2.991   6.010
13955TIP3    H141822   3.041   2.984   6.030
13955TIP3    H241823   3.173   2.912   6.047
13956TIP3   OH241824   4.956   4.302   6.255
13956TIP3    H141825   5.048   4.308   6.228
13956TIP3    H241826   4.955   4.344   6.341
13957TIP3   OH241827   7.515   2.732   6.468
13957TIP3    H141828   7.494   2.800   6.532
13957TIP3    H241829   7.609   2.741   6.453
13958TIP3   OH241830   7.807   5.846   4.941
13958TIP3    H141831   7.824   5.934   4.907
13958TIP3    H241832   7.731   5.857   4.999
13959TIP3   OH241833   0.683   1.969   2.442
13959TIP3    H141834   0.646   2.016   2.517
13959TIP3    H241835   0.767   1.936   2.473
13960TIP3   OH241836   0.019   7.573   1.699
13960TIP3    H141837   0.024   7.514   1.775
13960TIP3    H241838  -0.027   7.522   1.632
13961TIP3   OH241839   4.381   7.650   2.995
13961TIP3    H141840   4.344   7.567   2.967
13961TIP3    H241841   4.432   7.629   3.074
13962TIP3   OH241842   7.978   3.771   6.395
13962TIP3    H141843   8.045   3.718   6.351
13962TIP3    H241844   7.951   3.834   6.329
13963TIP3   OH241845   1.083   2.157   0.303
13963TIP3    H141846   1.088   2.101   0.225
13963TIP3    H241847   1.129   2.238   0.278
13964TIP3   OH241848   0.756   5.987   5.042
13964TIP3    H141849   0.758   5.929   4.967
13964TIP3    H241850   0.728   5.932   5.115
13965TIP3   OH241851   5.919   4.572   5.008
13965TIP3    H141852   5.937   4.619   5.089
13965TIP3    H241853   5.903   4.482   5.036
13966TIP3   OH241854   7.512   4.854   6.629
13966TIP3    H141855   7.437   4.828   6.682
13966TIP3    H241856   7.478   4.924   6.573
13967TIP3   OH241857   6.759   7.776   1.254
13967TIP3    H141858   6.727   7.774   1.164
13967TIP3    H241859   6.692   7.731   1.305
13968TIP3   OH241860   5.616   6.381   4.355
13968TIP3    H141861   5.539   6.360   4.407
13968TIP3    H241862   5.690   6.369   4.415
13969TIP3   OH241863   0.464   4.013   6.597
13969TIP3    H141864   0.555   3.987   6.608
13969TIP3    H241865   0.460   4.101   6.634
13970TIP3   OH241866   6.338   3.431   2.068
13970TIP3    H141867   6.399   3.371   2.110
13970TIP3    H241868   6.252   3.396   2.089
13971TIP3   OH241869   0.752   1.768   0.703
13971TIP3    H141870   0.783   1.791   0.790
13971TIP3    H241871   0.787   1.838   0.647
13972TIP3   OH241872   6.593   0.047   6.658
13972TIP3    H141873   6.586   0.043   6.753
13972TIP3    H241874   6.512   0.089   6.630
13973TIP3   OH241875   3.783   0.532   2.137
13973TIP3    H141876   3.864   0.503   2.179
13973TIP3    H241877   3.731   0.452   2.127
13974TIP3   OH241878   1.308   2.622   0.910
13974TIP3    H141879   1.223   2.629   0.868
13974TIP3    H241880   1.339   2.712   0.918
13975TIP3   OH241881   2.226   5.972   2.265
13975TIP3    H141882   2.157   5.923   2.220
13975TIP3    H241883   2.213   6.062   2.237
13976TIP3   OH241884   3.839   0.225   5.177
13976TIP3    H141885   3.884   0.192   5.254
13976TIP3    H241886   3.844   0.320   5.185
13977TIP3   OH241887   6.635   1.581   2.111
13977TIP3    H141888   6.627   1.675   2.096
13977TIP3    H241889   6.545   1.550   2.120
13978TIP3   OH241890   4.462   4.342   6.614
13978TIP3    H141891   4.512   4.263   6.636
13978TIP3    H241892   4.396   4.311   6.552
13979TIP3   OH241893   7.040   7.654   5.988
13979TIP3    H141894   7.089   7.653   6.070
13979TIP3    H241895   7.019   7.562   5.972
13980TIP3   OH241896   7.456   7.149   1.520
13980TIP3    H141897   7.367   7.164   1.487
13980TIP3    H241898   7.478   7.229   1.568
13981TIP3   OH241899   6.222   2.246   3.457
13981TIP3    H141900   6.267   2.241   3.541
13981TIP3    H241901   6.281   2.203   3.396
13982TIP3   OH241902   3.529   5.783   1.961
13982TIP3    H141903   3.540   5.693   1.991
13982TIP3    H241904   3.496   5.830   2.037
13983TIP3   OH241905   1.811   1.438   6.083
13983TIP3    H141906   1.744   1.490   6.039
13983TIP3    H241907   1.835   1.371   6.019
13984TIP3   OH241908   6.724   5.715   0.540
13984TIP3    H141909   6.650   5.654   0.542
13984TIP3    H241910   6.688   5.795   0.501
13985TIP3   OH241911   4.723   4.525   5.813
13985TIP3    H141912   4.645   4.470   5.813
13985TIP3    H241913   4.737   4.547   5.720
13986TIP3   OH241914   7.699   4.471   4.693
13986TIP3    H141915   7.726   4.492   4.604
13986TIP3    H241916   7.674   4.379   4.689
13987TIP3   OH241917   7.863   2.766   0.736
13987TIP3    H141918   7.770   2.750   0.753
13987TIP3    H241919   7.865   2.853   0.694
13988TIP3   OH241920   0.077   0.594   1.694
13988TIP3    H141921   0.113   0.649   1.625
13988TIP3    H241922  -0.009   0.632   1.714
13989TIP3   OH241923   0.343   2.241   0.076
13989TIP3    H141924   0.262   2.250   0.126
13989TIP3    H241925   0.409   2.288   0.127
13990TIP3   OH241926   1.769   3.148   3.609
13990TIP3    H141927   1.839   3.181   3.553
13990TIP3    H241928   1.793   3.177   3.697
13991TIP3   OH241929   7.937   1.035   3.217
13991TIP3    H141930   7.929   1.128   3.194
13991TIP3    H241931   8.010   1.032   3.278
13992TIP3   OH241932   1.697   2.668   5.827
13992TIP3    H141933   1.688   2.752   5.872
13992TIP3    H241934   1.690   2.603   5.897
13993TIP3   OH241935   6.419   6.516   0.404
13993TIP3    H141936   6.425   6.498   0.498
13993TIP3    H241937   6.439   6.432   0.362
13994TIP3   OH241938   2.911   7.034   1.277
13994TIP3    H141939   2.893   7.068   1.364
13994TIP3    H241940   2.926   7.112   1.223
13995TIP3   OH241941   8.205   5.361   5.570
13995TIP3    H141942   8.216   5.456   5.574
13995TIP3    H241943   8.282   5.329   5.522
13996TIP3   OH241944   1.654   6.310   2.339
13996TIP3    H141945   1.666   6.247   2.268
13996TIP3    H241946   1.584   6.273   2.393
13997TIP3   OH241947   5.262   5.573   2.587
13997TIP3    H141948   5.255   5.617   2.502
13997TIP3    H241949   5.226   5.486   2.572
13998TIP3   OH241950   2.571   2.779   2.461
13998TIP3    H141951   2.540   2.737   2.381
13998TIP3    H241952   2.649   2.729   2.486
13999TIP3   OH241953   7.362   5.886   6.545
13999TIP3    H141954   7.354   5.806   6.596
13999TIP3    H241955   7.304   5.949   6.589
14000TIP3   OH241956   2.789   0.802   1.232
14000TIP3    H141957   2.863   0.825   1.287
14000TIP3    H241958   2.719   0.779   1.293
14001TIP3   OH241959   2.833   6.443   3.449
14001TIP3    H141960   2.896   6.432   3.520
14001TIP3    H241961   2.863   6.383   3.381
14002TIP3   OH241962   3.268   2.732   2.499
14002TIP3    H141963   3.213   2.717   2.576
14002TIP3    H241964   3.237   2.669   2.435
14003TIP3   OH241965   1.205   0.312   0.524
14003TIP3    H141966   1.137   0.247   0.504
14003TIP3    H241967   1.178   0.390   0.475
14004TIP3   OH241968   8.089   5.104   5.574
14004TIP3    H141969   8.113   5.195   5.592
14004TIP3    H241970   8.021   5.109   5.508
14005TIP3   OH241971   4.634   4.386   3.340
14005TIP3    H141972   4.698   4.322   3.372
14005TIP3    H241973   4.618   4.444   3.414
14006TIP3   OH241974   2.100   5.858   5.843
14006TIP3    H141975   2.160   5.890   5.775
14006TIP3    H241976   2.149   5.868   5.924
14007TIP3   OH241977   5.677   5.044   5.047
14007TIP3    H141978   5.750   5.039   4.985
14007TIP3    H241979   5.614   4.980   5.014
14008TIP3   OH241980   1.503   4.394   0.538
14008TIP3    H141981   1.419   4.439   0.534
14008TIP3    H241982   1.506   4.342   0.457
14009TIP3   OH241983   5.401   2.916   2.318
14009TIP3    H141984   5.452   2.997   2.313
14009TIP3    H241985   5.452   2.852   2.269
14010TIP3   OH241986   2.739   5.075   1.686
14010TIP3    H141987   2.777   5.116   1.764
14010TIP3    H241988   2.758   5.136   1.616
14011TIP3   OH241989   1.656   7.524   4.053
14011TIP3    H141990   1.686   7.512   4.143
14011TIP3    H241991   1.592   7.595   4.058
14012TIP3   OH241992   5.122   4.249   4.874
14012TIP3    H141993   5.125   4.209   4.787
14012TIP3    H241994   5.135   4.342   4.858
14013TIP3   OH241995   2.463   4.548   2.583
14013TIP3    H141996   2.552   4.528   2.552
14013TIP3    H241997   2.418   4.464   2.582
14014TIP3   OH241998   2.239   5.698   0.502
14014TIP3    H141999   2.182   5.674   0.575
14014TIP3    H242000   2.237   5.621   0.445
14015TIP3   OH242001   6.268   5.898   4.104
14015TIP3    H142002   6.334   5.890   4.034
14015TIP3    H242003   6.185   5.909   4.057
14016TIP3   OH242004   1.812   6.999   6.363
14016TIP3    H142005   1.859   6.916   6.375
14016TIP3    H242006   1.881   7.063   6.349
14017TIP3   OH242007   1.254   7.509   2.238
14017TIP3    H142008   1.213   7.550   2.314
14017TIP3    H242009   1.333   7.468   2.273
14018TIP3   OH242010   2.910   6.424   2.173
14018TIP3    H142011   2.847   6.495   2.159
14018TIP3    H242012   2.925   6.423   2.268
14019TIP3   OH242013   1.409   3.958   0.371
14019TIP3    H142014   1.479   3.997   0.423
14019TIP3    H242015   1.454   3.899   0.310
14020TIP3   OH242016   7.237   2.641   0.184
14020TIP3    H142017   7.181   2.718   0.178
14020TIP3    H242018   7.182   2.575   0.227
14021TIP3   OH242019   6.153   4.088   2.061
14021TIP3    H142020   6.172   3.998   2.035
14021TIP3    H242021   6.235   4.135   2.046
14022TIP3   OH242022   2.816   1.878   1.986
14022TIP3    H142023   2.731   1.919   1.999
14022TIP3    H242024   2.804   1.787   2.016
14023TIP3   OH242025   5.638   0.452   6.287
14023TIP3    H142026   5.649   0.382   6.351
14023TIP3    H242027   5.714   0.445   6.229
14024TIP3   OH242028   5.187   4.234   0.826
14024TIP3    H142029   5.260   4.276   0.782
14024TIP3    H242030   5.147   4.304   0.878
14025TIP3   OH242031   5.648   3.925   0.487
14025TIP3    H142032   5.701   3.874   0.425
14025TIP3    H242033   5.658   4.016   0.457
14026TIP3   OH242034   4.335   6.930   2.097
14026TIP3    H142035   4.253   6.977   2.106
14026TIP3    H242036   4.348   6.889   2.182
14027TIP3   OH242037   4.837   7.369   1.331
14027TIP3    H142038   4.857   7.422   1.254
14027TIP3    H242039   4.760   7.411   1.370
14028TIP3   OH242040   2.166   1.029   5.360
14028TIP3    H142041   2.200   0.953   5.313
14028TIP3    H242042   2.213   1.028   5.443
14029TIP3   OH242043   3.176   3.811   3.662
14029TIP3    H142044   3.270   3.813   3.645
14029TIP3    H242045   3.138   3.862   3.590
14030TIP3   OH242046   1.893   1.169   2.151
14030TIP3    H142047   1.901   1.119   2.233
14030TIP3    H242048   1.802   1.200   2.152
14031TIP3   OH242049   5.207   2.724   2.896
14031TIP3    H142050   5.290   2.770   2.909
14031TIP3    H242051   5.150   2.788   2.853
14032TIP3   OH242052   1.316   3.937   2.329
14032TIP3    H142053   1.393   3.977   2.288
14032TIP3    H242054   1.274   4.008   2.377
14033TIP3   OH242055   7.626   2.266   5.312
14033TIP3    H142056   7.600   2.357   5.298
14033TIP3    H242057   7.546   2.222   5.341
14034TIP3   OH242058   5.386   1.889   0.196
14034TIP3    H142059   5.417   1.845   0.275
14034TIP3    H242060   5.444   1.965   0.186
14035TIP3   OH242061   3.786   1.306   4.363
14035TIP3    H142062   3.847   1.369   4.325
14035TIP3    H242063   3.801   1.225   4.314
14036TIP3   OH242064   7.674   7.112   2.954
14036TIP3    H142065   7.589   7.078   2.980
14036TIP3    H242066   7.699   7.058   2.879
14037TIP3   OH242067   5.991   2.370   3.579
14037TIP3    H142068   6.086   2.365   3.594
14037TIP3    H242069   5.981   2.354   3.485
14038TIP3   OH242070   1.782   0.383   1.902
14038TIP3    H142071   1.871   0.417   1.888
14038TIP3    H242072   1.744   0.441   1.968
14039TIP3   OH242073   2.253   4.459   6.797
14039TIP3    H142074   2.308   4.389   6.762
14039TIP3    H242075   2.274   4.535   6.743
14040TIP3   OH242076   0.270   3.594   6.080
14040TIP3    H142077   0.268   3.689   6.070
14040TIP3    H242078   0.259   3.579   6.174
14041TIP3   OH242079   1.297   3.473   5.529
14041TIP3    H142080   1.366   3.536   5.508
14041TIP3    H242081   1.304   3.460   5.623
14042TIP3   OH242082   0.439   3.743   5.745
14042TIP3    H142083   0.456   3.833   5.719
14042TIP3    H242084   0.398   3.749   5.831
14043TIP3   OH242085   7.943   6.886   4.650
14043TIP3    H142086   8.000   6.946   4.601
14043TIP3    H242087   7.988   6.875   4.734
14044TIP3   OH242088   5.493   1.919   6.301
14044TIP3    H142089   5.401   1.898   6.289
14044TIP3    H242090   5.538   1.874   6.229
14045TIP3   OH242091   6.661   6.156   0.978
14045TIP3    H142092   6.596   6.221   0.952
14045TIP3    H242093   6.744   6.190   0.946
14046TIP3   OH242094   0.678   7.761   6.486
14046TIP3    H142095   0.594   7.785   6.525
14046TIP3    H242096   0.739   7.828   6.517
14047TIP3   OH242097   6.436   6.873   4.714
14047TIP3    H142098   6.381   6.873   4.636
14047TIP3    H242099   6.375   6.883   4.787
14048TIP3   OH242100   6.164   7.314   1.338
14048TIP3    H142101   6.198   7.252   1.402
14048TIP3    H242102   6.101   7.265   1.287
14049TIP3   OH242103   4.943   0.910   3.607
14049TIP3    H142104   4.849   0.923   3.614
14049TIP3    H242105   4.977   0.935   3.692
14050TIP3   OH242106   1.262   4.202   3.272
14050TIP3    H142107   1.268   4.159   3.187
14050TIP3    H242108   1.206   4.278   3.256
14051TIP3   OH242109   6.499   3.602   2.597
14051TIP3    H142110   6.416   3.642   2.620
14051TIP3    H242111   6.491   3.582   2.503
14052TIP3   OH242112   0.655   5.800   4.477
14052TIP3    H142113   0.650   5.895   4.490
14052TIP3    H242114   0.694   5.790   4.390
14053TIP3   OH242115   1.040   7.693   0.633
14053TIP3    H142116   0.963   7.713   0.686
14053TIP3    H242117   1.106   7.758   0.660
14054TIP3   OH242118   3.433   7.605   3.787
14054TIP3    H142119   3.405   7.549   3.715
14054TIP3    H242120   3.357   7.661   3.805
14055TIP3   OH242121   3.865   3.800   1.766
14055TIP3    H142122   3.885   3.707   1.776
14055TIP3    H242123   3.828   3.807   1.678
14056TIP3   OH242124   3.218   0.138   4.587
14056TIP3    H142125   3.208   0.045   4.567
14056TIP3    H242126   3.311   0.156   4.572
14057TIP3   OH242127   6.626   4.852   3.278
14057TIP3    H142128   6.617   4.937   3.322
14057TIP3    H242129   6.716   4.853   3.244
14058TIP3   OH242130   4.717   5.725   3.847
14058TIP3    H142131   4.694   5.662   3.916
14058TIP3    H242132   4.732   5.807   3.893
14059TIP3   OH242133   0.914   6.240   5.194
14059TIP3    H142134   0.857   6.310   5.226
14059TIP3    H242135   0.875   6.159   5.226
14060TIP3   OH242136   6.291   2.484   5.233
14060TIP3    H142137   6.369   2.436   5.262
14060TIP3    H242138   6.321   2.535   5.158
14061TIP3   OH242139   2.211   4.028   6.097
14061TIP3    H142140   2.247   3.987   6.176
14061TIP3    H242141   2.177   3.955   6.046
14062TIP3   OH242142   8.179   4.936   3.331
14062TIP3    H142143   8.240   4.909   3.400
14062TIP3    H242144   8.163   5.029   3.348
14063TIP3   OH242145   7.696   5.073   3.370
14063TIP3    H142146   7.696   5.035   3.458
14063TIP3    H242147   7.774   5.037   3.328
14064TIP3   OH242148   6.513   2.361   0.274
14064TIP3    H142149   6.457   2.362   0.351
14064TIP3    H242150   6.461   2.319   0.206
14065TIP3   OH242151   0.741   7.166   0.262
14065TIP3    H142152   0.691   7.120   0.329
14065TIP3    H242153   0.833   7.147   0.283
14066TIP3   OH242154   3.073   3.146   1.231
14066TIP3    H142155   3.064   3.234   1.195
14066TIP3    H242156   3.002   3.096   1.191
14067TIP3   OH242157   5.859   0.623   0.959
14067TIP3    H142158   5.897   0.547   1.003
14067TIP3    H242159   5.833   0.590   0.873
14068TIP3   OH242160   0.005   3.976   0.124
14068TIP3    H142161  -0.045   3.934   0.194
14068TIP3    H242162   0.077   4.020   0.169
14069TIP3   OH242163   3.339   4.091   2.436
14069TIP3    H142164   3.272   4.091   2.368
14069TIP3    H242165   3.360   3.998   2.449
14070TIP3   OH242166   1.794   1.777   4.206
14070TIP3    H142167   1.756   1.819   4.283
14070TIP3    H242168   1.777   1.838   4.135
14071TIP3   OH242169   3.142   4.892   3.834
14071TIP3    H142170   3.071   4.828   3.840
14071TIP3    H242171   3.204   4.864   3.901
14072TIP3   OH242172   4.340   6.440   5.185
14072TIP3    H142173   4.330   6.369   5.248
14072TIP3    H242174   4.306   6.517   5.231
14073TIP3   OH242175   1.073   1.685   1.254
14073TIP3    H142176   1.115   1.625   1.191
14073TIP3    H242177   1.090   1.645   1.340
14074TIP3   OH242178   7.617   6.551   5.794
14074TIP3    H142179   7.523   6.531   5.803
14074TIP3    H242180   7.633   6.546   5.700
14075TIP3   OH242181  -0.031   1.343   1.530
14075TIP3    H142182  -0.030   1.263   1.477
14075TIP3    H242183   0.053   1.343   1.575
14076TIP3   OH242184   3.199   7.744   3.857
14076TIP3    H142185   3.131   7.764   3.793
14076TIP3    H242186   3.184   7.806   3.928
14077TIP3   OH242187   4.226   6.633   0.920
14077TIP3    H142188   4.179   6.557   0.953
14077TIP3    H242189   4.207   6.702   0.984
14078TIP3   OH242190   5.806   1.933   4.681
14078TIP3    H142191   5.899   1.936   4.659
14078TIP3    H242192   5.800   1.972   4.768
14079TIP3   OH242193   4.933   2.052   3.043
14079TIP3    H142194   4.895   2.126   3.091
14079TIP3    H242195   4.861   2.015   2.993
14080TIP3   OH242196   7.562   4.018   2.459
14080TIP3    H142197   7.544   3.924   2.452
14080TIP3    H242198   7.564   4.050   2.369
14081TIP3   OH242199   5.430   1.313   6.714
14081TIP3    H142200   5.440   1.244   6.780
14081TIP3    H242201   5.435   1.267   6.630
14082TIP3   OH242202   0.482   2.947   0.643
14082TIP3    H142203   0.450   3.015   0.703
14082TIP3    H242204   0.571   2.930   0.672
14083TIP3   OH242205   3.065   5.923   3.419
14083TIP3    H142206   3.140   5.966   3.377
14083TIP3    H242207   3.007   5.901   3.346
14084TIP3   OH242208   5.491   1.797   6.620
14084TIP3    H142209   5.442   1.814   6.540
14084TIP3    H242210   5.509   1.703   6.618
14085TIP3   OH242211   3.641   6.102   4.196
14085TIP3    H142212   3.734   6.109   4.219
14085TIP3    H242213   3.614   6.192   4.179
14086TIP3   OH242214   6.511   3.411   6.371
14086TIP3    H142215   6.419   3.436   6.376
14086TIP3    H242216   6.512   3.332   6.318
14087TIP3   OH242217   0.339   1.549   5.089
14087TIP3    H142218   0.302   1.629   5.128
14087TIP3    H242219   0.266   1.511   5.040
14088TIP3   OH242220   5.512   1.255   4.485
14088TIP3    H142221   5.598   1.214   4.479
14088TIP3    H242222   5.472   1.217   4.563
14089TIP3   OH242223   7.589   0.158   6.351
14089TIP3    H142224   7.612   0.065   6.343
14089TIP3    H242225   7.521   0.161   6.418
14090TIP3   OH242226   5.869   6.656   0.837
14090TIP3    H142227   5.784   6.619   0.862
14090TIP3    H242228   5.889   6.720   0.906
14091TIP3   OH242229   3.688   3.566   5.462
14091TIP3    H142230   3.671   3.496   5.524
14091TIP3    H242231   3.639   3.541   5.383
14092TIP3   OH242232   1.862   4.076   1.915
14092TIP3    H142233   1.781   4.122   1.896
14092TIP3    H242234   1.844   3.985   1.891
14093TIP3   OH242235   7.587   2.752   0.757
14093TIP3    H142236   7.528   2.708   0.696
14093TIP3    H242237   7.575   2.705   0.840
14094TIP3   OH242238   2.754   7.529   0.556
14094TIP3    H142239   2.831   7.522   0.499
14094TIP3    H242240   2.779   7.481   0.635
14095TIP3   OH242241   2.186   0.635   1.953
14095TIP3    H142242   2.234   0.715   1.930
14095TIP3    H242243   2.143   0.657   2.036
14096TIP3   OH242244   5.834   5.541   4.427
14096TIP3    H142245   5.793   5.531   4.341
14096TIP3    H242246   5.863   5.632   4.428
14097TIP3   OH242247   7.031   3.229   4.918
14097TIP3    H142248   7.095   3.254   4.984
14097TIP3    H242249   7.009   3.311   4.873
14098TIP3   OH242250   1.552   6.799   4.606
14098TIP3    H142251   1.593   6.720   4.643
14098TIP3    H242252   1.549   6.782   4.512
14099TIP3   OH242253   4.505   4.450   2.500
14099TIP3    H142254   4.497   4.397   2.420
14099TIP3    H242255   4.586   4.420   2.540
14100TIP3   OH242256   1.030   4.406   3.837
14100TIP3    H142257   1.121   4.375   3.837
14100TIP3    H242258   0.987   4.353   3.771
14101TIP3   OH242259   2.795   0.227   2.561
14101TIP3    H142260   2.814   0.280   2.638
14101TIP3    H242261   2.845   0.147   2.573
14102TIP3   OH242262   5.444   5.660   1.868
14102TIP3    H142263   5.353   5.684   1.887
14102TIP3    H242264   5.459   5.581   1.921
14103TIP3   OH242265   1.841   4.896   5.113
14103TIP3    H142266   1.935   4.896   5.127
14103TIP3    H242267   1.807   4.958   5.178
14104TIP3   OH242268   5.997   4.476   2.762
14104TIP3    H142269   6.024   4.428   2.683
14104TIP3    H242270   6.065   4.541   2.775
14105TIP3   OH242271   1.090   7.350   0.786
14105TIP3    H142272   1.089   7.440   0.820
14105TIP3    H242273   1.162   7.348   0.723
14106TIP3   OH242274   2.789   2.477   2.222
14106TIP3    H142275   2.754   2.405   2.274
14106TIP3    H242276   2.729   2.486   2.149
14107TIP3   OH242277   5.874   7.244   4.634
14107TIP3    H142278   5.929   7.309   4.678
14107TIP3    H242279   5.796   7.237   4.689
14108TIP3   OH242280   7.888   6.890   5.826
14108TIP3    H142281   7.942   6.937   5.763
14108TIP3    H242282   7.910   6.929   5.911
14109TIP3   OH242283   1.485   7.600   2.088
14109TIP3    H142284   1.405   7.561   2.053
14109TIP3    H242285   1.455   7.678   2.135
14110TIP3   OH242286   4.138   3.502   6.263
14110TIP3    H142287   4.143   3.532   6.172
14110TIP3    H242288   4.193   3.425   6.267
14111TIP3   OH242289   1.144   7.580   3.536
14111TIP3    H142290   1.077   7.648   3.540
14111TIP3    H242291   1.221   7.625   3.500
14112TIP3   OH242292   2.848   5.534   2.316
14112TIP3    H142293   2.787   5.602   2.346
14112TIP3    H242294   2.934   5.565   2.344
14113TIP3   OH242295   7.134   2.796   4.320
14113TIP3    H142296   7.228   2.791   4.337
14113TIP3    H242297   7.123   2.879   4.273
14114TIP3   OH242298   4.561   7.657   0.631
14114TIP3    H142299   4.578   7.617   0.716
14114TIP3    H242300   4.482   7.709   0.644
14115TIP3   OH242301   5.329   5.006   1.971
14115TIP3    H142302   5.357   5.082   2.022
14115TIP3    H242303   5.366   5.021   1.884
14116TIP3   OH242304   5.172   7.015   0.008
14116TIP3    H142305   5.239   7.082   0.024
14116TIP3    H242306   5.151   6.981   0.094
14117TIP3   OH242307   5.628   3.709   6.785
14117TIP3    H142308   5.665   3.671   6.705
14117TIP3    H242309   5.658   3.800   6.785
14118TIP3   OH242310   7.405   3.402   2.629
14118TIP3    H142311   7.370   3.366   2.547
14118TIP3    H242312   7.498   3.414   2.612
14119TIP3   OH242313   4.635   2.033   5.731
14119TIP3    H142314   4.689   1.993   5.662
14119TIP3    H242315   4.665   2.124   5.736
14120TIP3   OH242316   8.097   3.618   1.967
14120TIP3    H142317   8.101   3.687   2.033
14120TIP3    H242318   8.120   3.538   2.015
14121TIP3   OH242319   2.655   7.375   1.509
14121TIP3    H142320   2.651   7.423   1.426
14121TIP3    H242321   2.710   7.429   1.566
14122TIP3   OH242322   0.324   2.718   3.926
14122TIP3    H142323   0.354   2.637   3.967
14122TIP3    H242324   0.293   2.691   3.839
14123TIP3   OH242325   0.124   1.483   4.912
14123TIP3    H142326   0.069   1.470   4.834
14123TIP3    H242327   0.178   1.405   4.916
14124TIP3   OH242328   0.893   3.375   4.061
14124TIP3    H142329   0.845   3.456   4.044
14124TIP3    H242330   0.901   3.371   4.156
14125TIP3   OH242331   1.679   5.492   4.734
14125TIP3    H142332   1.633   5.519   4.654
14125TIP3    H242333   1.745   5.560   4.748
14126TIP3   OH242334   4.187   1.772   0.663
14126TIP3    H142335   4.279   1.774   0.688
14126TIP3    H242336   4.182   1.828   0.585
14127TIP3   OH242337   6.602   2.846   2.523
14127TIP3    H142338   6.633   2.936   2.512
14127TIP3    H242339   6.681   2.793   2.526
14128TIP3   OH242340   0.481   2.074   5.780
14128TIP3    H142341   0.495   2.021   5.701
14128TIP3    H242342   0.408   2.131   5.758
14129TIP3   OH242343   3.923   6.083   6.256
14129TIP3    H142344   3.900   6.110   6.345
14129TIP3    H242345   3.877   6.145   6.199
14130TIP3   OH242346   7.605   1.422   5.345
14130TIP3    H142347   7.602   1.477   5.423
14130TIP3    H242348   7.630   1.481   5.274
14131TIP3   OH242349   6.466   7.250   0.735
14131TIP3    H142350   6.441   7.315   0.669
14131TIP3    H242351   6.464   7.298   0.818
14132TIP3   OH242352   1.824   0.545   5.274
14132TIP3    H142353   1.730   0.557   5.289
14132TIP3    H242354   1.839   0.451   5.289
14133TIP3   OH242355   3.761   5.343   4.059
14133TIP3    H142356   3.669   5.366   4.047
14133TIP3    H242357   3.793   5.408   4.121
14134TIP3   OH242358   4.452   6.467   2.329
14134TIP3    H142359   4.409   6.394   2.373
14134TIP3    H242360   4.545   6.456   2.350
14135TIP3   OH242361   5.252   1.102   1.138
14135TIP3    H142362   5.167   1.066   1.164
14135TIP3    H242363   5.307   1.025   1.121
14136TIP3   OH242364   5.919   1.148   6.279
14136TIP3    H142365   5.831   1.184   6.267
14136TIP3    H242366   5.937   1.160   6.373
14137TIP3   OH242367   1.982   4.073   2.650
14137TIP3    H142368   1.919   4.026   2.704
14137TIP3    H242369   1.929   4.126   2.591
14138TIP3   OH242370   1.528   5.948   3.475
14138TIP3    H142371   1.580   6.002   3.415
14138TIP3    H242372   1.459   5.911   3.421
14139TIP3   OH242373   2.329   0.805   1.595
14139TIP3    H142374   2.359   0.875   1.536
14139TIP3    H242375   2.310   0.850   1.677
14140TIP3   OH242376   4.957   5.156   5.143
14140TIP3    H142377   4.996   5.070   5.124
14140TIP3    H242378   4.864   5.138   5.156
14141TIP3   OH242379   2.072   4.572   3.170
14141TIP3    H142380   2.016   4.503   3.135
14141TIP3    H242381   2.042   4.652   3.126
14142TIP3   OH242382   3.218   4.849   2.225
14142TIP3    H142383   3.211   4.811   2.313
14142TIP3    H242384   3.169   4.930   2.230
14143TIP3   OH242385   6.978   2.985   3.477
14143TIP3    H142386   6.913   2.925   3.440
14143TIP3    H242387   7.008   2.941   3.556
14144TIP3   OH242388   0.322   7.629   1.632
14144TIP3    H142389   0.305   7.535   1.623
14144TIP3    H242390   0.241   7.665   1.666
14145TIP3   OH242391   8.167   1.237   1.797
14145TIP3    H142392   8.204   1.148   1.805
14145TIP3    H242393   8.193   1.266   1.710
14146TIP3   OH242394   7.798   6.604   1.821
14146TIP3    H142395   7.744   6.626   1.898
14146TIP3    H242396   7.884   6.640   1.842
14147TIP3   OH242397   4.582   4.533   2.816
14147TIP3    H142398   4.527   4.611   2.820
14147TIP3    H242399   4.524   4.461   2.841
14148TIP3   OH242400   6.286   2.454   0.490
14148TIP3    H142401   6.298   2.421   0.579
14148TIP3    H242402   6.198   2.492   0.491
14149TIP3   OH242403   0.207   1.253   0.584
14149TIP3    H142404   0.303   1.254   0.586
14149TIP3    H242405   0.182   1.344   0.602
14150TIP3   OH242406   6.827   1.932   0.289
14150TIP3    H142407   6.769   1.904   0.360
14150TIP3    H242408   6.837   1.855   0.234
14151TIP3   OH242409   1.241   3.978   1.944
14151TIP3    H142410   1.237   4.043   1.873
14151TIP3    H242411   1.180   4.011   2.010
14152TIP3   OH242412   1.798   3.349   0.413
14152TIP3    H142413   1.715   3.394   0.395
14152TIP3    H242414   1.829   3.319   0.327
14153TIP3   OH242415   5.053   5.816   2.948
14153TIP3    H142416   5.122   5.756   2.922
14153TIP3    H242417   4.983   5.801   2.883
14154TIP3   OH242418   3.054   4.604   0.497
14154TIP3    H142419   3.097   4.598   0.582
14154TIP3    H242420   3.085   4.527   0.449
14155TIP3   OH242421   6.843   4.851   3.108
14155TIP3    H142422   6.817   4.870   3.017
14155TIP3    H242423   6.913   4.786   3.100
14156TIP3   OH242424   1.591   0.058   0.718
14156TIP3    H142425   1.518   0.106   0.678
14156TIP3    H242426   1.549  -0.008   0.773
14157TIP3   OH242427   6.137   6.622   1.434
14157TIP3    H142428   6.074   6.689   1.462
14157TIP3    H242429   6.084   6.556   1.390
14158TIP3   OH242430   7.193   3.529   3.137
14158TIP3    H142431   7.274   3.580   3.137
14158TIP3    H242432   7.148   3.555   3.217
14159TIP3   OH242433   0.086   2.386   0.198
14159TIP3    H142434   0.136   2.388   0.280
14159TIP3    H242435   0.023   2.457   0.207
14160TIP3   OH242436   0.810   5.563   6.128
14160TIP3    H142437   0.792   5.471   6.110
14160TIP3    H242438   0.878   5.587   6.065
14161TIP3   OH242439   5.209   6.258   6.315
14161TIP3    H142440   5.230   6.166   6.300
14161TIP3    H242441   5.183   6.261   6.407
14162TIP3   OH242442   3.283   6.648   3.720
14162TIP3    H142443   3.200   6.612   3.749
14162TIP3    H242444   3.337   6.571   3.700
14163TIP3   OH242445   0.420   4.021   5.093
14163TIP3    H142446   0.377   4.093   5.140
14163TIP3    H242447   0.426   3.951   5.158
14164TIP3   OH242448   5.482   2.797   2.905
14164TIP3    H142449   5.504   2.882   2.868
14164TIP3    H242450   5.510   2.803   2.997
14165TIP3   OH242451   2.025   6.917   3.928
14165TIP3    H142452   2.012   7.011   3.915
14165TIP3    H242453   2.044   6.883   3.840
14166TIP3   OH242454   1.111   2.210   2.013
14166TIP3    H142455   1.134   2.185   1.923
14166TIP3    H242456   1.170   2.282   2.034
14167TIP3   OH242457   6.057   2.884   5.805
14167TIP3    H142458   6.041   2.937   5.727
14167TIP3    H242459   5.977   2.891   5.856
14168TIP3   OH242460   4.078   2.978   5.198
14168TIP3    H142461   3.994   2.989   5.154
14168TIP3    H242462   4.059   2.926   5.276
14169TIP3   OH242463   7.738   7.119   3.220
14169TIP3    H142464   7.816   7.065   3.209
14169TIP3    H242465   7.711   7.140   3.130
14170TIP3   OH242466   5.428   0.151   1.055
14170TIP3    H142467   5.492   0.079   1.054
14170TIP3    H242468   5.482   0.230   1.056
14171TIP3   OH242469   7.409   1.542   2.380
14171TIP3    H142470   7.394   1.579   2.292
14171TIP3    H242471   7.493   1.496   2.372
14172TIP3   OH242472   1.915   1.894   3.084
14172TIP3    H142473   1.878   1.850   3.008
14172TIP3    H242474   1.879   1.983   3.081
14173TIP3   OH242475   0.083   0.945   2.397
14173TIP3    H142476   0.134   0.911   2.324
14173TIP3    H242477   0.133   1.021   2.428
14174TIP3   OH242478   1.486   4.918   6.267
14174TIP3    H142479   1.475   5.006   6.232
14174TIP3    H242480   1.564   4.923   6.322
14175TIP3   OH242481   5.184   1.367   0.826
14175TIP3    H142482   5.213   1.415   0.903
14175TIP3    H242483   5.262   1.321   0.796
14176TIP3   OH242484   3.748   3.940   2.904
14176TIP3    H142485   3.783   3.964   2.818
14176TIP3    H242486   3.700   4.018   2.933
14177TIP3   OH242487   1.329   6.735   1.676
14177TIP3    H142488   1.275   6.775   1.743
14177TIP3    H242489   1.393   6.803   1.653
14178TIP3   OH242490   3.791   2.223   0.562
14178TIP3    H142491   3.752   2.311   0.562
14178TIP3    H242492   3.774   2.190   0.650
14179TIP3   OH242493   3.447   0.557   0.582
14179TIP3    H142494   3.440   0.595   0.494
14179TIP3    H242495   3.510   0.613   0.626
14180TIP3   OH242496   3.340   2.415   2.960
14180TIP3    H142497   3.432   2.425   2.984
14180TIP3    H242498   3.293   2.467   3.026
14181TIP3   OH242499   3.328   5.969   3.644
14181TIP3    H142500   3.399   5.989   3.583
14181TIP3    H242501   3.290   5.887   3.613
14182TIP3   OH242502   7.795   2.026   4.322
14182TIP3    H142503   7.798   1.997   4.231
14182TIP3    H242504   7.770   1.948   4.372
14183TIP3   OH242505   0.826   7.525   2.187
14183TIP3    H142506   0.776   7.449   2.215
14183TIP3    H242507   0.875   7.552   2.264
14184TIP3   OH242508   4.344   3.770   5.901
14184TIP3    H142509   4.317   3.860   5.884
14184TIP3    H242510   4.436   3.776   5.926
14185TIP3   OH242511   0.108   2.748   1.463
14185TIP3    H142512   0.090   2.730   1.556
14185TIP3    H242513   0.184   2.693   1.443
14186TIP3   OH242514   6.279   0.727   6.479
14186TIP3    H142515   6.280   0.658   6.545
14186TIP3    H242516   6.369   0.760   6.478
14187TIP3   OH242517   0.752   7.091   1.429
14187TIP3    H142518   0.677   7.125   1.380
14187TIP3    H242519   0.713   7.045   1.504
14188TIP3   OH242520   3.966   4.500   1.485
14188TIP3    H142521   3.916   4.447   1.547
14188TIP3    H242522   4.042   4.530   1.536
14189TIP3   OH242523   2.888   1.231   3.148
14189TIP3    H142524   2.794   1.238   3.127
14189TIP3    H242525   2.891   1.241   3.243
14190TIP3   OH242526   2.912   0.642   5.978
14190TIP3    H142527   2.883   0.617   6.066
14190TIP3    H242528   2.885   0.570   5.922
14191TIP3   OH242529   4.002   1.355   0.897
14191TIP3    H142530   4.065   1.406   0.949
14191TIP3    H242531   4.044   1.346   0.811
14192TIP3   OH242532   4.889   5.537   2.103
14192TIP3    H142533   4.838   5.467   2.062
14192TIP3    H242534   4.910   5.597   2.032
14193TIP3   OH242535   3.067   5.481   6.036
14193TIP3    H142536   3.045   5.483   6.129
14193TIP3    H242537   2.993   5.524   5.993
14194TIP3   OH242538   0.750   1.261   2.430
14194TIP3    H142539   0.832   1.307   2.415
14194TIP3    H242540   0.685   1.310   2.381
14195TIP3   OH242541   3.550   7.222   6.231
14195TIP3    H142542   3.604   7.292   6.193
14195TIP3    H242543   3.581   7.142   6.189
14196TIP3   OH242544   8.098   2.215   2.494
14196TIP3    H142545   8.191   2.223   2.514
14196TIP3    H242546   8.094   2.214   2.399
14197TIP3   OH242547   6.737   7.692   0.534
14197TIP3    H142548   6.751   7.607   0.493
14197TIP3    H242549   6.816   7.742   0.513
14198TIP3   OH242550   7.445   5.874   3.747
14198TIP3    H142551   7.454   5.879   3.652
14198TIP3    H242552   7.477   5.959   3.778
14199TIP3   OH242553   5.356   0.449   3.131
14199TIP3    H142554   5.417   0.494   3.073
14199TIP3    H242555   5.395   0.456   3.218
14200TIP3   OH242556   0.243   3.835   6.712
14200TIP3    H142557   0.244   3.888   6.792
14200TIP3    H242558   0.332   3.839   6.679
14201TIP3   OH242559   4.607   5.462   0.047
14201TIP3    H142560   4.531   5.410   0.071
14201TIP3    H242561   4.632   5.431  -0.040
14202TIP3   OH242562   1.869   1.922   2.079
14202TIP3    H142563   1.861   1.912   2.174
14202TIP3    H242564   1.817   1.999   2.058
14203TIP3   OH242565   6.640   5.085   2.626
14203TIP3    H142566   6.594   5.001   2.620
14203TIP3    H242567   6.588   5.137   2.687
14204TIP3   OH242568   1.036   3.758   0.891
14204TIP3    H142569   0.964   3.728   0.946
14204TIP3    H242570   1.083   3.820   0.946
14205TIP3   OH242571   6.181   1.789   5.900
14205TIP3    H142572   6.152   1.726   5.834
14205TIP3    H242573   6.163   1.746   5.984
14206TIP3   OH242574   5.550   6.179   4.933
14206TIP3    H142575   5.601   6.154   5.009
14206TIP3    H242576   5.498   6.101   4.912
14207TIP3   OH242577   0.133   4.543   4.863
14207TIP3    H142578   0.199   4.608   4.888
14207TIP3    H242579   0.066   4.549   4.932
14208TIP3   OH242580   6.635   4.913   3.720
14208TIP3    H142581   6.585   4.833   3.733
14208TIP3    H242582   6.725   4.884   3.709
14209TIP3   OH242583   7.612   6.181   5.964
14209TIP3    H142584   7.619   6.255   5.904
14209TIP3    H242585   7.574   6.218   6.044
14210TIP3   OH242586   6.412   1.074   4.693
14210TIP3    H142587   6.357   1.114   4.625
14210TIP3    H242588   6.401   0.979   4.679
14211TIP3   OH242589   1.900   2.890   3.329
14211TIP3    H142590   1.867   2.874   3.418
14211TIP3    H242591   1.994   2.901   3.341
14212TIP3   OH242592   8.234   5.962   4.940
14212TIP3    H142593   8.205   5.874   4.914
14212TIP3    H242594   8.240   5.957   5.036
14213TIP3   OH242595   0.750   0.877   4.025
14213TIP3    H142596   0.767   0.970   4.041
14213TIP3    H242597   0.661   0.863   4.059
14214TIP3   OH242598   3.235   6.698   2.485
14214TIP3    H142599   3.288   6.675   2.562
14214TIP3    H242600   3.289   6.762   2.438
14215TIP3   OH242601   6.906   4.183   2.979
14215TIP3    H142602   6.853   4.171   3.058
14215TIP3    H242603   6.872   4.119   2.917
14216TIP3   OH242604   5.114   7.256   0.315
14216TIP3    H142605   5.125   7.319   0.244
14216TIP3    H242606   5.203   7.230   0.339
14217TIP3   OH242607   3.339   1.026   1.679
14217TIP3    H142608   3.375   0.959   1.621
14217TIP3    H242609   3.272   1.070   1.626
14218TIP3   OH242610   6.135   1.452   0.865
14218TIP3    H142611   6.230   1.447   0.853
14218TIP3    H242612   6.123   1.448   0.960
14219TIP3   OH242613   5.641   4.490   2.274
14219TIP3    H142614   5.710   4.428   2.251
14219TIP3    H242615   5.678   4.576   2.254
14220TIP3   OH242616   4.056   5.723   1.357
14220TIP3    H142617   4.003   5.648   1.329
14220TIP3    H242618   4.144   5.687   1.367
14221TIP3   OH242619   1.715   2.425   4.706
14221TIP3    H142620   1.733   2.334   4.684
14221TIP3    H242621   1.801   2.461   4.729
14222TIP3   OH242622   5.424   5.340   1.293
14222TIP3    H142623   5.421   5.432   1.320
14222TIP3    H242624   5.377   5.294   1.362
14223TIP3   OH242625   7.036   5.670   5.850
14223TIP3    H142626   7.011   5.612   5.922
14223TIP3    H242627   7.038   5.757   5.889
14224TIP3   OH242628   0.834   2.011   5.772
14224TIP3    H142629   0.797   1.993   5.858
14224TIP3    H242630   0.819   2.104   5.758
14225TIP3   OH242631   7.941   0.978   0.393
14225TIP3    H142632   7.863   1.027   0.416
14225TIP3    H242633   7.945   0.984   0.297
14226TIP3   OH242634   7.852   6.817   2.029
14226TIP3    H142635   7.845   6.882   1.959
14226TIP3    H242636   7.811   6.858   2.105
14227TIP3   OH242637   5.099   2.666   0.995
14227TIP3    H142638   5.068   2.647   1.084
14227TIP3    H242639   5.055   2.748   0.972
14228TIP3   OH242640   0.299   5.188   3.667
14228TIP3    H142641   0.318   5.198   3.760
14228TIP3    H242642   0.382   5.209   3.623
14229TIP3   OH242643   0.746   6.195   0.101
14229TIP3    H142644   0.802   6.208   0.178
14229TIP3    H242645   0.758   6.103   0.078
14230TIP3   OH242646   3.159   0.536   5.355
14230TIP3    H142647   3.130   0.534   5.446
14230TIP3    H242648   3.093   0.486   5.308
14231TIP3   OH242649   3.167   7.177   5.066
14231TIP3    H142650   3.174   7.267   5.097
14231TIP3    H242651   3.184   7.182   4.972
14232TIP3   OH242652   3.931   3.279   0.401
14232TIP3    H142653   3.846   3.321   0.410
14232TIP3    H242654   3.946   3.237   0.486
14233TIP3   OH242655   3.649   5.978   4.831
14233TIP3    H142656   3.701   6.029   4.893
14233TIP3    H242657   3.691   5.893   4.827
14234TIP3   OH242658   2.581   3.999   2.737
14234TIP3    H142659   2.572   4.049   2.818
14234TIP3    H242660   2.621   3.917   2.763
14235TIP3   OH242661   7.846   0.188   2.975
14235TIP3    H142662   7.862   0.224   2.888
14235TIP3    H242663   7.934   0.180   3.013
14236TIP3   OH242664   0.899   3.752   3.364
14236TIP3    H142665   0.928   3.835   3.402
14236TIP3    H242666   0.912   3.687   3.433
14237TIP3   OH242667   6.192   5.633   0.196
14237TIP3    H142668   6.174   5.539   0.209
14237TIP3    H242669   6.287   5.639   0.197
14238TIP3   OH242670   6.253   4.705   6.203
14238TIP3    H142671   6.192   4.672   6.269
14238TIP3    H242672   6.228   4.659   6.123
14239TIP3   OH242673   4.947   5.931   1.034
14239TIP3    H142674   4.957   6.003   1.096
14239TIP3    H242675   4.894   5.866   1.080
14240TIP3   OH242676   7.786   1.541   3.827
14240TIP3    H142677   7.866   1.558   3.777
14240TIP3    H242678   7.778   1.446   3.827
14241TIP3   OH242679   6.268   0.988   6.771
14241TIP3    H142680   6.298   0.923   6.833
14241TIP3    H242681   6.338   0.994   6.706
14242TIP3   OH242682   0.034   3.994   1.396
14242TIP3    H142683   0.119   4.038   1.398
14242TIP3    H242684   0.023   3.959   1.485
14243TIP3   OH242685   0.043   6.616   5.861
14243TIP3    H142686   0.131   6.654   5.859
14243TIP3    H242687  -0.011   6.677   5.812
14244TIP3   OH242688   3.794   6.693   3.092
14244TIP3    H142689   3.818   6.775   3.136
14244TIP3    H242690   3.789   6.629   3.163
14245TIP3   OH242691   4.121   3.968   3.272
14245TIP3    H142692   4.162   4.052   3.252
14245TIP3    H242693   4.179   3.903   3.232
14246TIP3   OH242694   6.412   7.033   6.242
14246TIP3    H142695   6.475   7.052   6.173
14246TIP3    H242696   6.439   6.948   6.276
14247TIP3   OH242697   3.076   6.296   0.807
14247TIP3    H142698   3.072   6.328   0.897
14247TIP3    H242699   2.991   6.318   0.769
14248TIP3   OH242700   6.336   4.711   3.670
14248TIP3    H142701   6.285   4.635   3.641
14248TIP3    H242702   6.413   4.711   3.613
14249TIP3   OH242703   6.358   2.772   3.999
14249TIP3    H142704   6.305   2.790   4.077
14249TIP3    H242705   6.439   2.821   4.015
14250TIP3   OH242706   2.169   5.708   2.239
14250TIP3    H142707   2.075   5.689   2.238
14250TIP3    H242708   2.210   5.622   2.244
14251TIP3   OH242709   8.269   2.441   4.579
14251TIP3    H142710   8.238   2.440   4.670
14251TIP3    H242711   8.272   2.349   4.554
14252TIP3   OH242712   0.428   7.775   1.957
14252TIP3    H142713   0.456   7.683   1.957
14252TIP3    H242714   0.334   7.771   1.936
14253TIP3   OH242715   4.464   5.499   4.908
14253TIP3    H142716   4.436   5.411   4.881
14253TIP3    H242717   4.388   5.554   4.888
14254TIP3   OH242718   2.053   3.196   3.777
14254TIP3    H142719   2.020   3.183   3.866
14254TIP3    H242720   2.053   3.291   3.765
14255TIP3   OH242721   3.231   4.778   0.385
14255TIP3    H142722   3.170   4.717   0.427
14255TIP3    H242723   3.227   4.857   0.438
14256TIP3   OH242724   7.578   0.150   2.051
14256TIP3    H142725   7.485   0.158   2.071
14256TIP3    H242726   7.598   0.057   2.059
14257TIP3   OH242727   4.901   1.458   0.907
14257TIP3    H142728   4.978   1.402   0.911
14257TIP3    H242729   4.831   1.406   0.947
14258TIP3   OH242730   0.592   0.250   6.369
14258TIP3    H142731   0.581   0.319   6.304
14258TIP3    H242732   0.503   0.234   6.402
14259TIP3   OH242733   4.452   2.377   6.130
14259TIP3    H142734   4.548   2.379   6.123
14259TIP3    H242735   4.433   2.427   6.209
14260TIP3   OH242736   2.738   3.675   0.486
14260TIP3    H142737   2.754   3.622   0.408
14260TIP3    H242738   2.654   3.644   0.519
14261TIP3   OH242739   5.301   7.562   4.902
14261TIP3    H142740   5.269   7.478   4.869
14261TIP3    H242741   5.395   7.547   4.915
14262TIP3   OH242742   5.693   3.609   1.361
14262TIP3    H142743   5.628   3.586   1.294
14262TIP3    H242744   5.660   3.568   1.441
14263TIP3   OH242745   2.701   3.511   4.167
14263TIP3    H142746   2.759   3.557   4.227
14263TIP3    H242747   2.691   3.571   4.093
14264TIP3   OH242748   1.292   2.899   6.561
14264TIP3    H142749   1.231   2.972   6.556
14264TIP3    H242750   1.261   2.837   6.495
14265TIP3   OH242751   0.730   4.632   4.553
14265TIP3    H142752   0.644   4.594   4.542
14265TIP3    H242753   0.786   4.584   4.492
14266TIP3   OH242754   5.751   7.453   3.214
14266TIP3    H142755   5.822   7.511   3.186
14266TIP3    H242756   5.753   7.456   3.309
14267TIP3   OH242757   4.982   2.876   0.414
14267TIP3    H142758   5.038   2.821   0.359
14267TIP3    H242759   4.915   2.817   0.447
14268TIP3   OH242760   6.255   7.519   4.791
14268TIP3    H142761   6.291   7.606   4.809
14268TIP3    H242762   6.319   7.458   4.829
14269TIP3   OH242763   0.445   3.115   4.655
14269TIP3    H142764   0.362   3.106   4.608
14269TIP3    H242765   0.423   3.103   4.747
14270TIP3   OH242766   3.918   5.386   3.527
14270TIP3    H142767   3.926   5.303   3.481
14270TIP3    H242768   3.929   5.363   3.620
14271TIP3   OH242769   6.379   0.932   3.340
14271TIP3    H142770   6.331   0.851   3.325
14271TIP3    H242771   6.311   0.995   3.364
14272TIP3   OH242772   6.331   7.045   1.430
14272TIP3    H142773   6.327   7.033   1.335
14272TIP3    H242774   6.382   6.970   1.461
14273TIP3   OH242775   2.889   4.292   4.382
14273TIP3    H142776   2.841   4.254   4.456
14273TIP3    H242777   2.848   4.255   4.304
14274TIP3   OH242778   2.182   1.475   4.449
14274TIP3    H142779   2.274   1.491   4.470
14274TIP3    H242780   2.184   1.410   4.379
14275TIP3   OH242781   3.370   1.990   5.869
14275TIP3    H142782   3.368   2.006   5.963
14275TIP3    H242783   3.395   1.898   5.861
14276TIP3   OH242784   0.648   6.975   1.661
14276TIP3    H142785   0.619   6.887   1.637
14276TIP3    H242786   0.610   6.990   1.747
14277TIP3   OH242787   6.909   0.156   0.176
14277TIP3    H142788   6.923   0.072   0.221
14277TIP3    H242789   6.930   0.137   0.085
14278TIP3   OH242790   7.769   5.067   4.250
14278TIP3    H142791   7.834   5.029   4.309
14278TIP3    H242792   7.797   5.042   4.163
14279TIP3   OH242793   5.927   4.157   6.341
14279TIP3    H142794   5.989   4.212   6.390
14279TIP3    H242795   5.848   4.157   6.394
14280TIP3   OH242796   6.612   5.786   1.632
14280TIP3    H142797   6.549   5.829   1.690
14280TIP3    H242798   6.566   5.708   1.601
14281TIP3   OH242799   4.399   4.520   1.827
14281TIP3    H142800   4.375   4.585   1.893
14281TIP3    H242801   4.494   4.511   1.835
14282TIP3   OH242802   0.757   6.487   0.658
14282TIP3    H142803   0.797   6.462   0.741
14282TIP3    H242804   0.701   6.561   0.680
14283TIP3   OH242805   7.716   4.779   1.263
14283TIP3    H142806   7.804   4.816   1.276
14283TIP3    H242807   7.705   4.774   1.168
14284TIP3   OH242808   5.438   7.593   1.784
14284TIP3    H142809   5.462   7.630   1.869
14284TIP3    H242810   5.430   7.499   1.801
14285TIP3   OH242811   2.763   0.045   1.668
14285TIP3    H142812   2.698   0.111   1.643
14285TIP3    H242813   2.711  -0.029   1.699
14286TIP3   OH242814   6.352   4.888   2.220
14286TIP3    H142815   6.269   4.903   2.176
14286TIP3    H242816   6.404   4.840   2.156
14287TIP3   OH242817   6.485   2.286   5.507
14287TIP3    H142818   6.502   2.380   5.505
14287TIP3    H242819   6.402   2.277   5.553
14288TIP3   OH242820   3.970   1.358   6.255
14288TIP3    H142821   4.053   1.311   6.258
14288TIP3    H242822   3.906   1.297   6.292
14289TIP3   OH242823   5.306   3.438   0.222
14289TIP3    H142824   5.331   3.450   0.313
14289TIP3    H242825   5.267   3.522   0.197
14290TIP3   OH242826   0.894   2.757   1.009
14290TIP3    H142827   0.799   2.760   1.020
14290TIP3    H242828   0.924   2.697   1.078
14291TIP3   OH242829   3.083   2.529   4.004
14291TIP3    H142830   3.094   2.439   4.036
14291TIP3    H242831   3.173   2.560   3.990
14292TIP3   OH242832   5.171   1.679   4.424
14292TIP3    H142833   5.153   1.711   4.513
14292TIP3    H242834   5.240   1.613   4.436
14293TIP3   OH242835   3.990   2.697   1.792
14293TIP3    H142836   3.907   2.664   1.826
14293TIP3    H242837   3.969   2.725   1.702
14294TIP3   OH242838   3.124   1.975   3.966
14294TIP3    H142839   3.061   2.045   3.954
14294TIP3    H242840   3.109   1.945   4.056
14295TIP3   OH242841   5.189   6.977   6.747
14295TIP3    H142842   5.277   6.974   6.709
14295TIP3    H242843   5.154   7.061   6.718
14296TIP3   OH242844   4.106   0.244   4.793
14296TIP3    H142845   4.140   0.192   4.866
14296TIP3    H242846   4.101   0.181   4.720
14297TIP3   OH242847   7.275   1.947   4.780
14297TIP3    H142848   7.369   1.943   4.800
14297TIP3    H242849   7.231   1.933   4.864
14298TIP3   OH242850   4.567   7.272   3.286
14298TIP3    H142851   4.595   7.187   3.320
14298TIP3    H242852   4.526   7.316   3.360
14299TIP3   OH242853   7.356   3.211   2.831
14299TIP3    H142854   7.275   3.249   2.866
14299TIP3    H242855   7.383   3.272   2.762
14300TIP3   OH242856   6.032   7.095   4.463
14300TIP3    H142857   5.991   7.164   4.516
14300TIP3    H242858   5.959   7.053   4.418
14301TIP3   OH242859   7.466   2.014   6.454
14301TIP3    H142860   7.529   1.976   6.516
14301TIP3    H242861   7.384   1.966   6.470
14302TIP3   OH242862   7.701   3.588   0.856
14302TIP3    H142863   7.678   3.643   0.781
14302TIP3    H242864   7.785   3.623   0.887
14303TIP3   OH242865   7.819   0.660   1.667
14303TIP3    H142866   7.858   0.742   1.637
14303TIP3    H242867   7.725   0.674   1.660
14304TIP3   OH242868   1.547  -0.030   2.887
14304TIP3    H142869   1.630  -0.005   2.928
14304TIP3    H242870   1.548   0.014   2.803
14305TIP3   OH242871   6.432   3.964   1.651
14305TIP3    H142872   6.416   3.978   1.558
14305TIP3    H242873   6.443   3.869   1.659
14306TIP3   OH242874   6.671   2.673   0.630
14306TIP3    H142875   6.610   2.726   0.681
14306TIP3    H242876   6.674   2.715   0.544
14307TIP3   OH242877   1.117   0.636   3.784
14307TIP3    H142878   1.091   0.601   3.699
14307TIP3    H242879   1.188   0.697   3.765
14308TIP3   OH242880   7.915   7.517   5.987
14308TIP3    H142881   7.936   7.594   5.935
14308TIP3    H242882   7.884   7.453   5.922
14309TIP3   OH242883   6.986   4.276   1.782
14309TIP3    H142884   7.032   4.318   1.854
14309TIP3    H242885   7.027   4.189   1.775
14310TIP3   OH242886   4.651   2.210   4.716
14310TIP3    H142887   4.699   2.279   4.670
14310TIP3    H242888   4.589   2.177   4.652
14311TIP3   OH242889   7.357   3.207   6.280
14311TIP3    H142890   7.283   3.216   6.219
14311TIP3    H242891   7.318   3.220   6.366
14312TIP3   OH242892   4.567   4.840   0.848
14312TIP3    H142893   4.501   4.770   0.853
14312TIP3    H242894   4.644   4.797   0.810
14313TIP3   OH242895   4.297   6.891   0.477
14313TIP3    H142896   4.308   6.983   0.450
14313TIP3    H242897   4.303   6.893   0.572
14314TIP3   OH242898   1.698   1.061   5.904
14314TIP3    H142899   1.626   1.037   5.845
14314TIP3    H242900   1.751   0.981   5.909
14315TIP3   OH242901   0.095   6.840   5.230
14315TIP3    H142902   0.024   6.885   5.276
14315TIP3    H242903   0.079   6.748   5.247
14316TIP3   OH242904   2.814   0.192   0.897
14316TIP3    H142905   2.863   0.118   0.861
14316TIP3    H242906   2.876   0.236   0.954
14317TIP3   OH242907   5.579   2.931   5.780
14317TIP3    H142908   5.490   2.956   5.801
14317TIP3    H242909   5.629   2.949   5.860
14318TIP3   OH242910   2.481   6.357   0.372
14318TIP3    H142911   2.399   6.339   0.325
14318TIP3    H242912   2.521   6.430   0.324
14319TIP3   OH242913   8.177   5.801   4.644
14319TIP3    H142914   8.143   5.756   4.722
14319TIP3    H242915   8.198   5.731   4.583
14320TIP3   OH242916   5.208   4.456   6.316
14320TIP3    H142917   5.143   4.477   6.384
14320TIP3    H242918   5.180   4.507   6.240
14321TIP3   OH242919   2.055   5.780   5.540
14321TIP3    H142920   2.119   5.806   5.606
14321TIP3    H242921   2.107   5.745   5.468
14322TIP3   OH242922   8.270   3.891   3.663
14322TIP3    H142923   8.296   3.801   3.644
14322TIP3    H242924   8.243   3.927   3.579
14323TIP3   OH242925   5.592   5.145   4.731
14323TIP3    H142926   5.684   5.142   4.758
14323TIP3    H242927   5.563   5.055   4.737
14324TIP3   OH242928   6.881   4.444   2.604
14324TIP3    H142929   6.814   4.461   2.538
14324TIP3    H242930   6.851   4.364   2.649
14325TIP3   OH242931   0.586   7.325   5.171
14325TIP3    H142932   0.619   7.358   5.087
14325TIP3    H242933   0.574   7.231   5.156
14326TIP3   OH242934   2.174   3.169   1.135
14326TIP3    H142935   2.252   3.125   1.102
14326TIP3    H242936   2.194   3.263   1.128
14327TIP3   OH242937   0.520   2.908   0.345
14327TIP3    H142938   0.436   2.907   0.390
14327TIP3    H242939   0.576   2.962   0.400
14328TIP3   OH242940   5.275   3.667   0.020
14328TIP3    H142941   5.182   3.690   0.015
14328TIP3    H242942   5.318   3.748   0.046
14329TIP3   OH242943   2.533   4.937   5.240
14329TIP3    H142944   2.606   4.922   5.179
14329TIP3    H242945   2.575   4.950   5.325
14330TIP3   OH242946   2.322   5.201   5.657
14330TIP3    H142947   2.242   5.186   5.708
14330TIP3    H242948   2.293   5.198   5.565
14331TIP3   OH242949   2.342   2.549   1.837
14331TIP3    H142950   2.367   2.609   1.767
14331TIP3    H242951   2.314   2.469   1.791
14332TIP3   OH242952   0.769   0.247   2.153
14332TIP3    H142953   0.745   0.304   2.080
14332TIP3    H242954   0.836   0.189   2.117
14333TIP3   OH242955   1.327   7.026   3.204
14333TIP3    H142956   1.285   7.053   3.122
14333TIP3    H242957   1.400   7.088   3.215
14334TIP3   OH242958   5.183   1.835   5.619
14334TIP3    H142959   5.275   1.811   5.627
14334TIP3    H242960   5.138   1.753   5.601
14335TIP3   OH242961   6.623   7.131   1.829
14335TIP3    H142962   6.719   7.131   1.825
14335TIP3    H242963   6.596   7.208   1.779
14336TIP3   OH242964   0.142   4.313   5.533
14336TIP3    H142965   0.219   4.349   5.489
14336TIP3    H242966   0.136   4.223   5.501
14337TIP3   OH242967   7.246   0.565   4.796
14337TIP3    H142968   7.215   0.564   4.706
14337TIP3    H242969   7.220   0.480   4.831
14338TIP3   OH242970   5.815   7.719   6.465
14338TIP3    H142971   5.822   7.815   6.471
14338TIP3    H242972   5.734   7.698   6.511
14339TIP3   OH242973   0.797   0.290   1.158
14339TIP3    H142974   0.860   0.218   1.157
14339TIP3    H242975   0.846   0.365   1.123
14340TIP3   OH242976   4.504   1.452   1.289
14340TIP3    H142977   4.510   1.364   1.254
14340TIP3    H242978   4.500   1.509   1.212
14341TIP3   OH242979   7.339   5.953   2.220
14341TIP3    H142980   7.274   5.952   2.290
14341TIP3    H242981   7.329   5.868   2.177
14342TIP3   OH242982   2.332   4.364   2.225
14342TIP3    H142983   2.243   4.398   2.215
14342TIP3    H242984   2.337   4.290   2.165
14343TIP3   OH242985   2.305   4.454   0.632
14343TIP3    H142986   2.350   4.377   0.666
14343TIP3    H242987   2.218   4.451   0.672
14344TIP3   OH242988   5.610   4.440   0.901
14344TIP3    H142989   5.527   4.471   0.938
14344TIP3    H242990   5.670   4.514   0.912
14345TIP3   OH242991   0.118   2.840   2.267
14345TIP3    H142992   0.171   2.920   2.272
14345TIP3    H242993   0.162   2.778   2.326
14346TIP3   OH242994   4.884   7.209   0.781
14346TIP3    H142995   4.808   7.158   0.810
14346TIP3    H242996   4.940   7.213   0.858
14347TIP3   OH242997   5.936   5.763   2.642
14347TIP3    H142998   5.893   5.838   2.601
14347TIP3    H242999   5.904   5.764   2.733
14348TIP3   OH243000   8.090   2.808   0.447
14348TIP3    H143001   8.000   2.840   0.439
14348TIP3    H243002   8.081   2.714   0.460
14349TIP3   OH243003   6.653   4.009   4.921
14349TIP3    H143004   6.567   4.044   4.945
14349TIP3    H243005   6.638   3.965   4.838
14350TIP3   OH243006   1.935   6.016   6.169
14350TIP3    H143007   1.891   6.054   6.093
14350TIP3    H243008   2.008   5.966   6.132
14351TIP3   OH243009   0.203   0.394   3.404
14351TIP3    H143010   0.233   0.305   3.422
14351TIP3    H243011   0.141   0.413   3.475
14352TIP3   OH243012   3.252   6.086   0.797
14352TIP3    H143013   3.203   6.015   0.840
14352TIP3    H243014   3.191   6.160   0.796
14353TIP3   OH243015   4.441   0.243   6.562
14353TIP3    H143016   4.372   0.308   6.545
14353TIP3    H243017   4.393   0.161   6.577
14354TIP3   OH243018   7.866   5.228   2.918
14354TIP3    H143019   7.798   5.231   2.985
14354TIP3    H243020   7.825   5.184   2.844
14355TIP3   OH243021   4.017   5.076   5.402
14355TIP3    H143022   3.973   5.039   5.325
14355TIP3    H243023   3.985   5.166   5.407
14356TIP3   OH243024   5.783   6.808   5.849
14356TIP3    H143025   5.801   6.714   5.855
14356TIP3    H243026   5.687   6.813   5.843
14357TIP3   OH243027   6.460   5.549   0.226
14357TIP3    H143028   6.422   5.469   0.190
14357TIP3    H243029   6.546   5.556   0.184
14358TIP3   OH243030   3.937   0.532   4.187
14358TIP3    H143031   4.006   0.589   4.222
14358TIP3    H243032   3.946   0.451   4.238
14359TIP3   OH243033   5.140   7.805   1.298
14359TIP3    H143034   5.172   7.738   1.237
14359TIP3    H243035   5.173   7.777   1.384
14360TIP3   OH243036   3.957   3.340   5.869
14360TIP3    H143037   4.043   3.306   5.846
14360TIP3    H243038   3.974   3.400   5.942
14361TIP3   OH243039   6.417   5.847   6.267
14361TIP3    H143040   6.486   5.786   6.243
14361TIP3    H243041   6.405   5.833   6.361
14362TIP3   OH243042   7.407   0.031   1.367
14362TIP3    H143043   7.399  -0.043   1.428
14362TIP3    H243044   7.495   0.065   1.382
14363TIP3   OH243045   3.800   2.857   5.752
14363TIP3    H143046   3.799   2.845   5.847
14363TIP3    H243047   3.894   2.860   5.730
14364TIP3   OH243048   6.714   5.272   4.985
14364TIP3    H143049   6.754   5.311   4.907
14364TIP3    H243050   6.770   5.198   5.006
14365TIP3   OH243051   2.774   3.672   3.456
14365TIP3    H143052   2.731   3.649   3.538
14365TIP3    H243053   2.740   3.760   3.436
14366TIP3   OH243054   7.710   5.069   5.224
14366TIP3    H143055   7.730   4.980   5.255
14366TIP3    H243056   7.634   5.095   5.275
14367TIP3   OH243057   3.222   3.314   2.588
14367TIP3    H143058   3.204   3.302   2.682
14367TIP3    H243059   3.141   3.352   2.553
14368TIP3   OH243060   2.335   5.589   1.318
14368TIP3    H143061   2.414   5.545   1.288
14368TIP3    H243062   2.359   5.682   1.320
14369TIP3   OH243063   1.611   3.269   1.992
14369TIP3    H143064   1.543   3.268   2.060
14369TIP3    H243065   1.652   3.183   1.997
14370TIP3   OH243066   5.263   3.739   0.334
14370TIP3    H143067   5.174   3.770   0.349
14370TIP3    H243068   5.281   3.679   0.406
14371TIP3   OH243069   7.628   0.192   4.001
14371TIP3    H143070   7.701   0.244   3.967
14371TIP3    H243071   7.589   0.247   4.069
14372TIP3   OH243072   6.839   6.808   3.774
14372TIP3    H143073   6.756   6.763   3.758
14372TIP3    H243074   6.847   6.870   3.702
14373TIP3   OH243075   1.400   3.316   0.390
14373TIP3    H143076   1.336   3.294   0.322
14373TIP3    H243077   1.430   3.404   0.367
14374TIP3   OH243078   2.534   6.052   3.779
14374TIP3    H143079   2.557   5.959   3.775
14374TIP3    H243080   2.462   6.056   3.841
14375TIP3   OH243081   1.940   5.637   4.312
14375TIP3    H143082   1.997   5.583   4.367
14375TIP3    H243083   1.868   5.579   4.288
14376TIP3   OH243084   0.350   0.023   1.256
14376TIP3    H143085   0.438   0.053   1.236
14376TIP3    H243086   0.293   0.073   1.198
14377TIP3   OH243087   1.277   7.069   6.107
14377TIP3    H143088   1.309   7.118   6.183
14377TIP3    H243089   1.213   7.007   6.144
14378TIP3   OH243090   4.987   1.282   3.610
14378TIP3    H143091   5.060   1.341   3.591
14378TIP3    H243092   5.029   1.205   3.648
14379TIP3   OH243093   6.951   2.652   2.009
14379TIP3    H143094   7.022   2.638   2.072
14379TIP3    H243095   6.984   2.612   1.928
14380TIP3   OH243096   3.681   0.361   4.477
14380TIP3    H143097   3.742   0.368   4.551
14380TIP3    H243098   3.733   0.324   4.406
14381TIP3   OH243099   5.255   0.881   1.876
14381TIP3    H143100   5.291   0.959   1.917
14381TIP3    H243101   5.320   0.856   1.811
14382TIP3   OH243102   4.199   6.871   3.101
14382TIP3    H143103   4.293   6.857   3.095
14382TIP3    H243104   4.180   6.939   3.036
14383TIP3   OH243105   4.907   3.701   2.841
14383TIP3    H143106   5.001   3.694   2.853
14383TIP3    H243107   4.894   3.785   2.797
14384TIP3   OH243108   1.506   3.904   2.011
14384TIP3    H143109   1.546   3.958   1.943
14384TIP3    H243110   1.412   3.916   1.999
14385TIP3   OH243111   2.032   5.229   6.459
14385TIP3    H143112   2.125   5.249   6.455
14385TIP3    H243113   1.995   5.296   6.516
14386TIP3   OH243114  -0.038   3.377   5.083
14386TIP3    H143115   0.018   3.300   5.077
14386TIP3    H243116   0.007   3.435   5.145
14387TIP3   OH243117   7.708   6.654   0.268
14387TIP3    H143118   7.722   6.568   0.308
14387TIP3    H243119   7.626   6.685   0.307
14388TIP3   OH243120   1.795   7.645   2.515
14388TIP3    H143121   1.792   7.561   2.559
14388TIP3    H243122   1.885   7.652   2.483
14389TIP3   OH243123   6.219   0.630   1.840
14389TIP3    H143124   6.170   0.712   1.839
14389TIP3    H243125   6.311   0.657   1.836
14390TIP3   OH243126   1.944   5.826   4.106
14390TIP3    H143127   1.937   5.788   4.193
14390TIP3    H243128   1.853   5.836   4.077
14391TIP3   OH243129   6.932   5.774   3.236
14391TIP3    H143130   6.928   5.686   3.197
14391TIP3    H243131   6.936   5.757   3.331
14392TIP3   OH243132   2.638   5.379   1.596
14392TIP3    H143133   2.728   5.409   1.607
14392TIP3    H243134   2.585   5.458   1.604
14393TIP3   OH243135   0.898   5.804   2.962
14393TIP3    H143136   0.855   5.887   2.938
14393TIP3    H243137   0.926   5.767   2.879
14394TIP3   OH243138   3.339   4.586   5.709
14394TIP3    H143139   3.363   4.678   5.696
14394TIP3    H243140   3.289   4.585   5.791
14395TIP3   OH243141   4.345   5.213   4.445
14395TIP3    H143142   4.403   5.149   4.404
14395TIP3    H243143   4.260   5.197   4.404
14396TIP3   OH243144   7.963   2.410   0.304
14396TIP3    H143145   7.932   2.461   0.230
14396TIP3    H243146   7.951   2.467   0.380
14397TIP3   OH243147   8.169   2.265   0.037
14397TIP3    H143148   8.243   2.298   0.087
14397TIP3    H243149   8.208   2.222  -0.039
14398TIP3   OH243150   3.956   4.485   1.201
14398TIP3    H143151   3.911   4.401   1.199
14398TIP3    H243152   3.980   4.497   1.293
14399TIP3   OH243153   7.765   4.666   1.544
14399TIP3    H143154   7.755   4.691   1.452
14399TIP3    H243155   7.680   4.682   1.583
14400TIP3   OH243156   3.553   7.719   0.434
14400TIP3    H143157   3.485   7.678   0.487
14400TIP3    H243158   3.630   7.719   0.491
14401TIP3   OH243159   3.627   7.209   3.019
14401TIP3    H143160   3.593   7.144   3.081
14401TIP3    H243161   3.641   7.288   3.072
14402TIP3   OH243162   7.094   0.507   1.222
14402TIP3    H143163   7.088   0.414   1.242
14402TIP3    H243164   7.151   0.543   1.289
14403TIP3   OH243165   1.774   1.481   3.040
14403TIP3    H143166   1.680   1.486   3.022
14403TIP3    H243167   1.790   1.552   3.101
14404TIP3   OH243168   7.238   7.289   5.768
14404TIP3    H143169   7.225   7.337   5.686
14404TIP3    H243170   7.274   7.204   5.741
14405TIP3   OH243171   0.206   4.713   2.677
14405TIP3    H143172   0.231   4.730   2.768
14405TIP3    H243173   0.115   4.743   2.671
14406TIP3   OH243174   8.250   7.126   0.457
14406TIP3    H143175   8.283   7.157   0.541
14406TIP3    H243176   8.306   7.051   0.436
14407TIP3   OH243177   4.808   5.119   6.094
14407TIP3    H143178   4.801   5.138   6.000
14407TIP3    H243179   4.739   5.055   6.110
14408TIP3   OH243180   3.037   2.349   6.580
14408TIP3    H143181   2.953   2.312   6.554
14408TIP3    H243182   3.016   2.437   6.610
14409TIP3   OH243183   6.709   3.643   3.114
14409TIP3    H143184   6.795   3.604   3.097
14409TIP3    H243185   6.662   3.633   3.031
14410TIP3   OH243186   3.350   4.433   4.315
14410TIP3    H143187   3.314   4.514   4.352
14410TIP3    H243188   3.389   4.461   4.231
14411TIP3   OH243189   1.706   1.338   1.824
14411TIP3    H143190   1.775   1.402   1.844
14411TIP3    H243191   1.751   1.253   1.829
14412TIP3   OH243192   4.401   1.114   0.350
14412TIP3    H143193   4.401   1.026   0.387
14412TIP3    H243194   4.309   1.142   0.354
14413TIP3   OH243195   6.627   5.434   1.537
14413TIP3    H143196   6.550   5.441   1.594
14413TIP3    H243197   6.650   5.341   1.540
14414TIP3   OH243198   2.651   7.010   2.042
14414TIP3    H143199   2.726   7.028   1.984
14414TIP3    H243200   2.637   7.093   2.087
14415TIP3   OH243201   4.851   4.001   0.854
14415TIP3    H143202   4.942   4.003   0.826
14415TIP3    H243203   4.802   3.974   0.777
14416TIP3   OH243204   7.417   7.214   5.052
14416TIP3    H143205   7.399   7.299   5.091
14416TIP3    H243206   7.512   7.206   5.055
14417TIP3   OH243207   1.474   5.052   1.322
14417TIP3    H143208   1.516   5.135   1.341
14417TIP3    H243209   1.501   4.994   1.393
14418TIP3   OH243210   4.408   7.310   2.299
14418TIP3    H143211   4.325   7.266   2.319
14418TIP3    H243212   4.384   7.378   2.236
14419TIP3   OH243213   4.033   0.529   2.295
14419TIP3    H143214   4.110   0.586   2.295
14419TIP3    H243215   4.025   0.500   2.386
14420TIP3   OH243216   0.401   0.785   6.203
14420TIP3    H143217   0.310   0.814   6.200
14420TIP3    H243218   0.445   0.836   6.135
14421TIP3   OH243219   5.411   5.970   6.232
14421TIP3    H143220   5.406   5.973   6.136
14421TIP3    H243221   5.405   5.877   6.253
14422TIP3   OH243222   4.397   1.372   2.900
14422TIP3    H143223   4.377   1.463   2.923
14422TIP3    H243224   4.352   1.320   2.967
14423TIP3   OH243225   0.799   4.778   4.308
14423TIP3    H143226   0.792   4.740   4.395
14423TIP3    H243227   0.732   4.847   4.307
14424TIP3   OH243228   5.068   3.672   5.087
14424TIP3    H143229   5.073   3.704   4.997
14424TIP3    H243230   5.007   3.732   5.131
14425TIP3   OH243231   1.427   1.382   1.882
14425TIP3    H143232   1.394   1.360   1.969
14425TIP3    H243233   1.398   1.472   1.868
14426TIP3   OH243234   4.429   2.462   5.834
14426TIP3    H143235   4.416   2.477   5.741
14426TIP3    H243236   4.524   2.467   5.846
14427TIP3   OH243237   7.697   3.028   3.599
14427TIP3    H143238   7.650   2.946   3.613
14427TIP3    H243239   7.785   3.001   3.573
14428TIP3   OH243240   0.059   6.479   5.269
14428TIP3    H143241   0.059   6.399   5.321
14428TIP3    H243242   0.118   6.460   5.196
14429TIP3   OH243243   1.313   6.622   2.897
14429TIP3    H143244   1.336   6.687   2.963
14429TIP3    H243245   1.395   6.602   2.853
14430TIP3   OH243246   2.507   0.285   3.621
14430TIP3    H143247   2.581   0.239   3.662
14430TIP3    H243248   2.430   0.250   3.665
14431TIP3   OH243249   8.219   4.413   6.468
14431TIP3    H143250   8.141   4.408   6.414
14431TIP3    H243251   8.189   4.453   6.550
14432TIP3   OH243252   2.687   7.390   0.259
14432TIP3    H143253   2.705   7.477   0.223
14432TIP3    H243254   2.773   7.347   0.259
14433TIP3   OH243255   5.841   0.622   4.256
14433TIP3    H143256   5.833   0.562   4.183
14433TIP3    H243257   5.754   0.662   4.264
14434TIP3   OH243258   3.922   7.227   3.171
14434TIP3    H143259   3.914   7.314   3.132
14434TIP3    H243260   3.853   7.224   3.237
14435TIP3   OH243261   3.958   2.094   6.406
14435TIP3    H143262   3.979   2.182   6.439
14435TIP3    H243263   4.014   2.036   6.457
14436TIP3   OH243264   1.777   2.165   4.647
14436TIP3    H143265   1.759   2.083   4.692
14436TIP3    H243266   1.872   2.172   4.647
14437TIP3   OH243267   7.725   7.501   4.752
14437TIP3    H143268   7.662   7.539   4.691
14437TIP3    H243269   7.777   7.576   4.782
14438TIP3   OH243270   6.468   0.807   5.958
14438TIP3    H143271   6.390   0.810   5.903
14438TIP3    H243272   6.434   0.801   6.047
14439TIP3   OH243273   7.182   7.544   2.805
14439TIP3    H143274   7.157   7.635   2.791
14439TIP3    H243275   7.277   7.547   2.815
14440TIP3   OH243276   7.487   1.018   5.282
14440TIP3    H143277   7.578   0.991   5.270
14440TIP3    H243278   7.450   1.019   5.193
14441TIP3   OH243279   7.910   7.461  -0.004
14441TIP3    H143280   7.988   7.413   0.022
14441TIP3    H243281   7.926   7.551   0.026
14442TIP3   OH243282   4.500   5.792   6.072
14442TIP3    H143283   4.426   5.830   6.118
14442TIP3    H243284   4.577   5.822   6.120
14443TIP3   OH243285   5.362   1.148   1.967
14443TIP3    H143286   5.301   1.192   2.027
14443TIP3    H243287   5.424   1.216   1.941
14444TIP3   OH243288   0.448   2.641   0.854
14444TIP3    H143289   0.357   2.668   0.865
14444TIP3    H243290   0.499   2.705   0.903
14445TIP3   OH243291   4.935   1.696   5.201
14445TIP3    H143292   4.901   1.669   5.116
14445TIP3    H243293   5.025   1.725   5.183
14446TIP3   OH243294   7.070   2.334   4.785
14446TIP3    H143295   7.136   2.403   4.780
14446TIP3    H243296   6.999   2.365   4.729
14447TIP3   OH243297   0.291   6.975   4.340
14447TIP3    H143298   0.255   7.063   4.350
14447TIP3    H243299   0.217   6.922   4.309
14448TIP3   OH243300   4.348   0.117   0.700
14448TIP3    H143301   4.263   0.123   0.745
14448TIP3    H243302   4.330   0.065   0.622
14449TIP3   OH243303   3.515   0.843   3.438
14449TIP3    H143304   3.480   0.755   3.456
14449TIP3    H243305   3.443   0.889   3.394
14450TIP3   OH243306   8.195   5.260   6.625
14450TIP3    H143307   8.231   5.219   6.703
14450TIP3    H243308   8.268   5.308   6.587
14451TIP3   OH243309   2.860   5.418   4.608
14451TIP3    H143310   2.802   5.369   4.550
14451TIP3    H243311   2.941   5.367   4.610
14452TIP3   OH243312   0.280   4.189   5.876
14452TIP3    H143313   0.354   4.187   5.937
14452TIP3    H243314   0.265   4.282   5.861
14453TIP3   OH243315   0.748   4.111   3.862
14453TIP3    H143316   0.690   4.038   3.884
14453TIP3    H243317   0.736   4.173   3.934
14454TIP3   OH243318   5.479   7.394   6.703
14454TIP3    H143319   5.389   7.373   6.728
14454TIP3    H243320   5.497   7.477   6.749
14455TIP3   OH243321   1.707   7.198   0.858
14455TIP3    H143322   1.749   7.184   0.773
14455TIP3    H243323   1.704   7.111   0.897
14456TIP3   OH243324   0.208   5.466   0.585
14456TIP3    H143325   0.260   5.536   0.624
14456TIP3    H243326   0.176   5.416   0.660
14457TIP3   OH243327   3.916   2.248   3.588
14457TIP3    H143328   3.916   2.232   3.682
14457TIP3    H243329   3.899   2.342   3.579
14458TIP3   OH243330   4.490   6.758   3.031
14458TIP3    H143331   4.442   6.686   3.072
14458TIP3    H243332   4.554   6.714   2.974
14459TIP3   OH243333   7.017   6.470   2.856
14459TIP3    H143334   6.992   6.498   2.768
14459TIP3    H243335   7.018   6.374   2.852
14460TIP3   OH243336   0.844   4.453   2.547
14460TIP3    H143337   0.798   4.369   2.545
14460TIP3    H243338   0.862   4.467   2.640
14461TIP3   OH243339   5.847   2.821   4.810
14461TIP3    H143340   5.767   2.862   4.776
14461TIP3    H243341   5.915   2.887   4.795
14462TIP3   OH243342   4.492   6.684   1.298
14462TIP3    H143343   4.497   6.594   1.265
14462TIP3    H243344   4.467   6.674   1.390
14463TIP3   OH243345   2.808   5.380   6.487
14463TIP3    H143346   2.837   5.464   6.450
14463TIP3    H243347   2.862   5.367   6.564
14464TIP3   OH243348   5.414   7.631   0.217
14464TIP3    H143349   5.367   7.676   0.287
14464TIP3    H243350   5.485   7.692   0.193
14465TIP3   OH243351   0.384   3.510   0.372
14465TIP3    H143352   0.342   3.501   0.458
14465TIP3    H243353   0.405   3.420   0.346
14466TIP3   OH243354   7.565   2.303   4.714
14466TIP3    H143355   7.520   2.345   4.788
14466TIP3    H243356   7.658   2.322   4.729
14467TIP3   OH243357   5.555   3.869   2.139
14467TIP3    H143358   5.642   3.883   2.177
14467TIP3    H243359   5.570   3.810   2.066
14468TIP3   OH243360   5.834   7.053   4.260
14468TIP3    H143361   5.793   7.138   4.238
14468TIP3    H243362   5.849   7.012   4.175
14469TIP3   OH243363   1.653   2.837   1.334
14469TIP3    H143364   1.567   2.870   1.361
14469TIP3    H243365   1.716   2.900   1.371
14470TIP3   OH243366   7.488   4.305   5.848
14470TIP3    H143367   7.515   4.249   5.776
14470TIP3    H243368   7.440   4.377   5.805
14471TIP3   OH243369   3.606   0.828   0.458
14471TIP3    H143370   3.648   0.911   0.433
14471TIP3    H243371   3.601   0.779   0.376
14472TIP3   OH243372   5.774   1.745   6.381
14472TIP3    H143373   5.703   1.683   6.393
14472TIP3    H243374   5.766   1.775   6.290
14473TIP3   OH243375   6.958   4.031   2.003
14473TIP3    H143376   6.978   3.938   2.014
14473TIP3    H243377   7.036   4.066   1.959
14474TIP3   OH243378   4.449   6.340   3.770
14474TIP3    H143379   4.530   6.295   3.792
14474TIP3    H243380   4.379   6.281   3.797
14475TIP3   OH243381   1.826   1.895   4.458
14475TIP3    H143382   1.846   1.855   4.543
14475TIP3    H243383   1.744   1.943   4.473
14476TIP3   OH243384   0.941   1.090   6.007
14476TIP3    H143385   1.016   1.078   5.949
14476TIP3    H243386   0.916   1.001   6.033
14477TIP3   OH243387   0.850   0.844   5.902
14477TIP3    H143388   0.769   0.869   5.858
14477TIP3    H243389   0.907   0.813   5.831
14478TIP3   OH243390   3.219   6.208   4.090
14478TIP3    H143391   3.218   6.113   4.102
14478TIP3    H243392   3.273   6.222   4.012
14479TIP3   OH243393   0.692   4.009   2.258
14479TIP3    H143394   0.657   3.987   2.172
14479TIP3    H243395   0.643   4.086   2.285
14480TIP3   OH243396   7.053   1.840   1.408
14480TIP3    H143397   6.990   1.859   1.477
14480TIP3    H243398   7.122   1.790   1.451
14481TIP3   OH243399   0.697   4.643   4.063
14481TIP3    H143400   0.760   4.710   4.088
14481TIP3    H243401   0.621   4.659   4.119
14482TIP3   OH243402   7.735   1.318   2.615
14482TIP3    H143403   7.663   1.358   2.664
14482TIP3    H243404   7.789   1.276   2.682
14483TIP3   OH243405   3.463   6.779   5.266
14483TIP3    H143406   3.433   6.835   5.194
14483TIP3    H243407   3.386   6.770   5.322
14484TIP3   OH243408   3.691   6.408   5.815
14484TIP3    H143409   3.653   6.363   5.740
14484TIP3    H243410   3.760   6.464   5.776
14485TIP3   OH243411   0.958   1.187   5.064
14485TIP3    H143412   0.965   1.251   4.992
14485TIP3    H243413   0.955   1.240   5.143
14486TIP3   OH243414   6.788   7.352   3.506
14486TIP3    H143415   6.839   7.400   3.572
14486TIP3    H243416   6.701   7.343   3.545
14487TIP3   OH243417   1.606   4.041   4.894
14487TIP3    H143418   1.661   4.119   4.902
14487TIP3    H243419   1.519   4.076   4.872
14488TIP3   OH243420   4.011   4.271   2.256
14488TIP3    H143421   4.084   4.303   2.204
14488TIP3    H243422   4.021   4.315   2.341
14489TIP3   OH243423   2.204   2.854   1.017
14489TIP3    H143424   2.156   2.773   0.997
14489TIP3    H243425   2.262   2.830   1.089
14490TIP3   OH243426   0.508   4.729   4.745
14490TIP3    H143427   0.525   4.749   4.653
14490TIP3    H243428   0.413   4.721   4.751
14491TIP3   OH243429   6.346   7.254   5.230
14491TIP3    H143430   6.312   7.249   5.141
14491TIP3    H243431   6.269   7.246   5.286
14492TIP3   OH243432   2.671   6.064   0.156
14492TIP3    H143433   2.681   5.993   0.219
14492TIP3    H243434   2.577   6.072   0.142
14493TIP3   OH243435   5.524   1.739   4.928
14493TIP3    H143436   5.595   1.736   4.864
14493TIP3    H243437   5.538   1.820   4.976
14494TIP3   OH243438   0.028   4.461   2.383
14494TIP3    H143439   0.087   4.476   2.309
14494TIP3    H243440  -0.049   4.514   2.362
14495TIP3   OH243441   5.956   3.088   5.597
14495TIP3    H143442   5.904   3.151   5.646
14495TIP3    H243443   6.036   3.135   5.574
14496TIP3   OH243444   0.903   5.997   4.685
14496TIP3    H143445   0.980   6.050   4.663
14496TIP3    H243446   0.837   6.023   4.620
14497TIP3   OH243447   0.320   3.989   4.108
14497TIP3    H143448   0.342   4.065   4.162
14497TIP3    H243449   0.297   4.026   4.023
14498TIP3   OH243450   6.505   1.172   2.528
14498TIP3    H143451   6.447   1.229   2.579
14498TIP3    H243452   6.507   1.090   2.577
14499TIP3   OH243453   2.882   2.503   3.164
14499TIP3    H143454   2.806   2.445   3.167
14499TIP3    H243455   2.887   2.541   3.252
14500TIP3   OH243456   1.125   3.807   6.355
14500TIP3    H143457   1.161   3.838   6.271
14500TIP3    H243458   1.038   3.773   6.332
14501TIP3   OH243459   5.087   2.197   6.329
14501TIP3    H143460   5.137   2.263   6.279
14501TIP3    H243461   5.089   2.230   6.419
14502TIP3   OH243462   1.551   6.487   1.950
14502TIP3    H143463   1.547   6.510   1.857
14502TIP3    H243464   1.463   6.504   1.983
14503TIP3   OH243465   1.215   2.379   3.796
14503TIP3    H143466   1.206   2.472   3.774
14503TIP3    H243467   1.224   2.336   3.711
14504TIP3   OH243468   6.281   4.749   0.843
14504TIP3    H143469   6.212   4.815   0.855
14504TIP3    H243470   6.361   4.794   0.870
14505TIP3   OH243471   4.408   1.516   6.032
14505TIP3    H143472   4.370   1.444   5.983
14505TIP3    H243473   4.400   1.490   6.124
14506TIP3   OH243474   0.569   6.426   0.200
14506TIP3    H143475   0.620   6.503   0.172
14506TIP3    H243476   0.630   6.353   0.191
14507TIP3   OH243477   3.801   4.416   0.000
14507TIP3    H143478   3.865   4.487  -0.001
14507TIP3    H243479   3.790   4.393   0.092
14508TIP3   OH243480   2.529   1.247   5.252
14508TIP3    H143481   2.449   1.269   5.204
14508TIP3    H243482   2.510   1.271   5.343
14509TIP3   OH243483   0.248   4.803   4.657
14509TIP3    H143484   0.156   4.776   4.654
14509TIP3    H243485   0.279   4.792   4.567
14510TIP3   OH243486   5.329   3.900   5.477
14510TIP3    H143487   5.305   3.971   5.417
14510TIP3    H243488   5.423   3.911   5.491
14511TIP3   OH243489   2.468   3.224   4.140
14511TIP3    H143490   2.459   3.317   4.122
14511TIP3    H243491   2.529   3.219   4.214
14512TIP3   OH243492   2.093   0.971   2.043
14512TIP3    H143493   2.010   0.948   2.085
14512TIP3    H243494   2.151   0.992   2.116
14513TIP3   OH243495   4.577   4.992   3.241
14513TIP3    H143496   4.642   4.922   3.239
14513TIP3    H243497   4.515   4.965   3.308
14514TIP3   OH243498   4.074   7.194   1.623
14514TIP3    H143499   4.116   7.116   1.587
14514TIP3    H243500   4.026   7.232   1.549
14515TIP3   OH243501   6.358   0.876   3.939
14515TIP3    H143502   6.390   0.876   3.849
14515TIP3    H243503   6.383   0.790   3.973
14516TIP3   OH243504   4.153   5.659   4.527
14516TIP3    H143505   4.089   5.715   4.571
14516TIP3    H243506   4.100   5.595   4.480
14517TIP3   OH243507   8.282   7.646   4.414
14517TIP3    H143508   8.228   7.712   4.371
14517TIP3    H243509   8.248   7.642   4.503
14518TIP3   OH243510   1.317   5.134   5.825
14518TIP3    H143511   1.307   5.204   5.890
14518TIP3    H243512   1.307   5.053   5.876
14519TIP3   OH243513   2.660   2.644   1.451
14519TIP3    H143514   2.741   2.594   1.464
14519TIP3    H243515   2.665   2.672   1.359
14520TIP3   OH243516   2.690   0.156   5.122
14520TIP3    H143517   2.598   0.128   5.125
14520TIP3    H243518   2.713   0.155   5.029
14521TIP3   OH243519   7.029   2.623   4.118
14521TIP3    H143520   7.051   2.694   4.178
14521TIP3    H243521   6.948   2.586   4.153
14522TIP3   OH243522   2.364   3.430   5.936
14522TIP3    H143523   2.338   3.477   5.857
14522TIP3    H243524   2.460   3.432   5.935
14523TIP3   OH243525   0.714   0.871   6.599
14523TIP3    H143526   0.629   0.870   6.557
14523TIP3    H243527   0.773   0.826   6.538
14524TIP3   OH243528   4.457   4.215  -0.006
14524TIP3    H143529   4.485   4.185   0.080
14524TIP3    H243530   4.459   4.311   0.000
14525TIP3   OH243531   1.327   5.982   1.617
14525TIP3    H143532   1.383   6.059   1.628
14525TIP3    H243533   1.302   5.957   1.706
14526TIP3   OH243534   4.584   3.442   5.304
14526TIP3    H143535   4.612   3.498   5.376
14526TIP3    H243536   4.493   3.467   5.289
14527TIP3   OH243537   3.345   5.486   2.096
14527TIP3    H143538   3.285   5.560   2.086
14527TIP3    H243539   3.388   5.501   2.181
14528TIP3   OH243540   8.044   4.706   2.896
14528TIP3    H143541   8.116   4.730   2.954
14528TIP3    H243542   8.080   4.715   2.808
14529TIP3   OH243543   6.144   7.625   0.488
14529TIP3    H143544   6.135   7.664   0.575
14529TIP3    H243545   6.063   7.576   0.474
14530TIP3   OH243546   6.574   5.005   4.905
14530TIP3    H143547   6.601   4.963   4.824
14530TIP3    H243548   6.597   5.098   4.893
14531TIP3   OH243549   0.823   3.598   2.531
14531TIP3    H143550   0.874   3.679   2.534
14531TIP3    H243551   0.833   3.566   2.442
14532TIP3   OH243552   0.795   3.584   0.937
14532TIP3    H143553   0.863   3.520   0.959
14532TIP3    H243554   0.800   3.593   0.842
14533TIP3   OH243555   0.476   2.480   6.661
14533TIP3    H143556   0.422   2.433   6.725
14533TIP3    H243557   0.454   2.572   6.675
14534TIP3   OH243558   4.681   2.502   4.828
14534TIP3    H143559   4.656   2.454   4.907
14534TIP3    H243560   4.675   2.594   4.854
14535TIP3   OH243561   2.596   7.289   0.485
14535TIP3    H143562   2.637   7.342   0.416
14535TIP3    H243563   2.669   7.241   0.524
14536TIP3   OH243564   1.742   2.978   2.764
14536TIP3    H143565   1.739   3.058   2.817
14536TIP3    H243566   1.832   2.947   2.772
14537TIP3   OH243567   6.500   0.281   2.525
14537TIP3    H143568   6.524   0.242   2.441
14537TIP3    H243569   6.463   0.209   2.575
14538TIP3   OH243570   0.035   1.665   1.207
14538TIP3    H143571  -0.028   1.640   1.276
14538TIP3    H243572   0.082   1.584   1.188
14539TIP3   OH243573   4.892   1.051   0.231
14539TIP3    H143574   4.956   1.106   0.186
14539TIP3    H243575   4.913   0.962   0.204
14540TIP3   OH243576   3.845   6.865   0.615
14540TIP3    H143577   3.894   6.843   0.695
14540TIP3    H243578   3.903   6.840   0.543
14541TIP3   OH243579   6.679   4.041   5.647
14541TIP3    H143580   6.668   4.133   5.672
14541TIP3    H243581   6.738   4.044   5.571
14542TIP3   OH243582   0.924   1.328   1.108
14542TIP3    H143583   0.940   1.401   1.048
14542TIP3    H243584   1.011   1.289   1.122
14543TIP3   OH243585   5.506   0.246   4.623
14543TIP3    H143586   5.425   0.205   4.651
14543TIP3    H243587   5.575   0.189   4.656
14544TIP3   OH243588   4.745   6.268   0.929
14544TIP3    H143589   4.699   6.311   0.857
14544TIP3    H243590   4.693   6.191   0.948
14545TIP3   OH243591   1.479   7.532   5.959
14545TIP3    H143592   1.431   7.577   6.029
14545TIP3    H243593   1.567   7.571   5.961
14546TIP3   OH243594   2.281   2.811   2.533
14546TIP3    H143595   2.200   2.861   2.521
14546TIP3    H243596   2.332   2.829   2.453
14547TIP3   OH243597   4.289   4.158   3.194
14547TIP3    H143598   4.384   4.153   3.202
14547TIP3    H243599   4.261   4.208   3.271
14548TIP3   OH243600   5.425   2.969   2.590
14548TIP3    H143601   5.382   2.942   2.509
14548TIP3    H243602   5.507   2.921   2.592
14549TIP3   OH243603   3.738   5.703   3.051
14549TIP3    H143604   3.787   5.745   2.980
14549TIP3    H243605   3.677   5.644   3.007
14550TIP3   OH243606   6.020   1.278   0.384
14550TIP3    H143607   5.955   1.293   0.453
14550TIP3    H243608   6.014   1.185   0.365
14551TIP3   OH243609   4.544   3.287   3.956
14551TIP3    H143610   4.569   3.319   3.869
14551TIP3    H243611   4.461   3.330   3.975
14552TIP3   OH243612   5.493   4.140   5.803
14552TIP3    H143613   5.473   4.049   5.778
14552TIP3    H243614   5.545   4.174   5.730
14553TIP3   OH243615   6.365   0.506   0.699
14553TIP3    H143616   6.393   0.415   0.694
14553TIP3    H243617   6.322   0.523   0.615
14554TIP3   OH243618   2.996   4.855   6.103
14554TIP3    H143619   2.986   4.847   6.008
14554TIP3    H243620   2.926   4.801   6.139
14555TIP3   OH243621   5.323   4.824   3.726
14555TIP3    H143622   5.369   4.861   3.650
14555TIP3    H243623   5.351   4.733   3.729
14556TIP3   OH243624   6.038   2.586   0.430
14556TIP3    H143625   5.959   2.532   0.421
14556TIP3    H243626   6.024   2.659   0.370
14557TIP3   OH243627   3.372   7.493   0.721
14557TIP3    H143628   3.399   7.404   0.701
14557TIP3    H243629   3.379   7.500   0.816
14558TIP3   OH243630   5.623   5.328   4.272
14558TIP3    H143631   5.662   5.296   4.354
14558TIP3    H243632   5.565   5.399   4.299
14559TIP3   OH243633   5.718   4.011   1.285
14559TIP3    H143634   5.808   4.008   1.318
14559TIP3    H243635   5.663   3.997   1.363
14560TIP3   OH243636   4.644   6.097   1.738
14560TIP3    H143637   4.610   6.027   1.794
14560TIP3    H243638   4.601   6.084   1.654
14561TIP3   OH243639   2.331   4.335   1.244
14561TIP3    H143640   2.292   4.250   1.220
14561TIP3    H243641   2.332   4.334   1.340
14562TIP3   OH243642   0.588   6.157   1.308
14562TIP3    H143643   0.621   6.247   1.299
14562TIP3    H243644   0.661   6.109   1.348
14563TIP3   OH243645   3.079   0.702   2.720
14563TIP3    H143646   3.101   0.644   2.793
14563TIP3    H243647   3.139   0.676   2.650
14564TIP3   OH243648   5.344   7.631   4.227
14564TIP3    H143649   5.369   7.603   4.316
14564TIP3    H243650   5.400   7.706   4.209
14565TIP3   OH243651   0.577   2.203   1.564
14565TIP3    H143652   0.521   2.125   1.563
14565TIP3    H243653   0.547   2.254   1.639
14566TIP3   OH243654   4.363   2.945   0.934
14566TIP3    H143655   4.386   2.916   1.022
14566TIP3    H243656   4.438   2.920   0.880
14567TIP3   OH243657   3.654   6.000   2.555
14567TIP3    H143658   3.730   6.028   2.505
14567TIP3    H243659   3.688   5.978   2.642
14568TIP3   OH243660   8.216   2.905   1.356
14568TIP3    H143661   8.133   2.879   1.397
14568TIP3    H243662   8.279   2.842   1.388
14569TIP3   OH243663  -0.004   7.568   6.022
14569TIP3    H143664   0.075   7.549   6.072
14569TIP3    H243665  -0.029   7.656   6.048
14570TIP3   OH243666   2.200   1.724   1.707
14570TIP3    H143667   2.250   1.669   1.767
14570TIP3    H243668   2.248   1.806   1.704
14571TIP3   OH243669   7.294   6.420   6.741
14571TIP3    H143670   7.293   6.495   6.681
14571TIP3    H243671   7.264   6.456   6.825
14572TIP3   OH243672   0.869   7.198   5.635
14572TIP3    H143673   0.823   7.255   5.573
14572TIP3    H243674   0.871   7.113   5.591
14573TIP3   OH243675   1.138   5.896   2.504
14573TIP3    H143676   1.200   5.934   2.442
14573TIP3    H243677   1.190   5.876   2.581
14574TIP3   OH243678   6.751   4.944   1.362
14574TIP3    H143679   6.736   4.872   1.301
14574TIP3    H243680   6.774   4.902   1.445
14575TIP3   OH243681   7.710   3.289   2.848
14575TIP3    H143682   7.673   3.261   2.932
14575TIP3    H243683   7.771   3.359   2.870
14576TIP3   OH243684   3.569   2.688   5.783
14576TIP3    H143685   3.521   2.689   5.866
14576TIP3    H243686   3.589   2.596   5.768
14577TIP3   OH243687   7.850   5.353   6.157
14577TIP3    H143688   7.769   5.398   6.182
14577TIP3    H243689   7.913   5.424   6.144
14578TIP3   OH243690   2.368   7.019   1.087
14578TIP3    H143691   2.316   6.938   1.083
14578TIP3    H243692   2.349   7.054   1.175
14579TIP3   OH243693   2.897   0.866   3.792
14579TIP3    H143694   2.859   0.783   3.823
14579TIP3    H243695   2.950   0.841   3.716
14580TIP3   OH243696   1.495   2.231   1.948
14580TIP3    H143697   1.446   2.219   1.867
14580TIP3    H243698   1.430   2.221   2.017
14581TIP3   OH243699   4.840   6.647   6.012
14581TIP3    H143700   4.777   6.654   5.940
14581TIP3    H243701   4.925   6.634   5.968
14582TIP3   OH243702   3.718   0.131   5.688
14582TIP3    H143703   3.704   0.072   5.762
14582TIP3    H243704   3.813   0.137   5.679
14583TIP3   OH243705   7.219   6.596   5.697
14583TIP3    H143706   7.219   6.513   5.745
14583TIP3    H243707   7.298   6.641   5.727
14584TIP3   OH243708   4.292   7.737   2.390
14584TIP3    H143709   4.373   7.687   2.398
14584TIP3    H243710   4.279   7.748   2.296
14585TIP3   OH243711   5.834   7.564   0.851
14585TIP3    H143712   5.809   7.557   0.944
14585TIP3    H243713   5.789   7.490   0.809
14586TIP3   OH243714   5.049   6.117   0.346
14586TIP3    H143715   4.965   6.149   0.315
14586TIP3    H243716   5.081   6.187   0.404
14587TIP3   OH243717   5.122   7.631   2.004
14587TIP3    H143718   5.184   7.700   1.984
14587TIP3    H243719   5.174   7.551   2.007
14588TIP3   OH243720   1.040   6.481   3.406
14588TIP3    H143721   1.057   6.392   3.376
14588TIP3    H243722   1.043   6.475   3.502
14589TIP3   OH243723   3.945   7.343   6.702
14589TIP3    H143724   3.995   7.422   6.684
14589TIP3    H243725   3.897   7.325   6.621
14590TIP3   OH243726   3.812   6.884   4.136
14590TIP3    H143727   3.885   6.868   4.076
14590TIP3    H243728   3.794   6.798   4.175
14591TIP3   OH243729   3.176   5.546   0.891
14591TIP3    H143730   3.106   5.529   0.954
14591TIP3    H243731   3.138   5.528   0.806
14592TIP3   OH243732   1.983   1.127   1.824
14592TIP3    H143733   2.011   1.108   1.914
14592TIP3    H243734   2.041   1.075   1.769
14593TIP3   OH243735   7.464   2.755   0.231
14593TIP3    H143736   7.452   2.850   0.225
14593TIP3    H243737   7.376   2.719   0.225
14594TIP3   OH243738   0.522   3.644   0.932
14594TIP3    H143739   0.528   3.638   0.837
14594TIP3    H243740   0.610   3.624   0.963
14595TIP3   OH243741   6.661   4.821   4.121
14595TIP3    H143742   6.724   4.823   4.193
14595TIP3    H243743   6.687   4.745   4.069
14596TIP3   OH243744   5.039   5.637   6.460
14596TIP3    H143745   5.135   5.645   6.461
14596TIP3    H243746   5.008   5.713   6.509
14597TIP3   OH243747   7.652   7.372   5.587
14597TIP3    H143748   7.689   7.294   5.544
14597TIP3    H243749   7.560   7.373   5.560
14598TIP3   OH243750   0.347   1.290   1.927
14598TIP3    H143751   0.394   1.244   1.997
14598TIP3    H243752   0.407   1.360   1.901
14599TIP3   OH243753   5.922   0.085   6.686
14599TIP3    H143754   5.915   0.173   6.649
14599TIP3    H243755   5.833   0.050   6.681
14600TIP3   OH243756   6.706   4.430   1.809
14600TIP3    H143757   6.775   4.365   1.826
14600TIP3    H243758   6.633   4.378   1.776
14601TIP3   OH243759   2.558   0.974   6.236
14601TIP3    H143760   2.553   0.890   6.281
14601TIP3    H243761   2.507   1.034   6.291
14602TIP3   OH243762   2.416   4.985   0.365
14602TIP3    H143763   2.347   4.924   0.338
14602TIP3    H243764   2.498   4.939   0.346
14603TIP3   OH243765   6.687   1.750   3.266
14603TIP3    H143766   6.667   1.663   3.233
14603TIP3    H243767   6.659   1.748   3.358
14604TIP3   OH243768   4.470   7.415   6.413
14604TIP3    H143769   4.493   7.504   6.384
14604TIP3    H243770   4.382   7.401   6.378
14605TIP3   OH243771   1.183   5.431   6.679
14605TIP3    H143772   1.201   5.438   6.585
14605TIP3    H243773   1.092   5.403   6.684
14606TIP3   OH243774   1.954   2.282   2.185
14606TIP3    H143775   1.872   2.237   2.164
14606TIP3    H243776   1.926   2.358   2.237
14607TIP3   OH243777   4.352   5.046   4.654
14607TIP3    H143778   4.308   4.970   4.617
14607TIP3    H243779   4.350   5.111   4.584
14608TIP3   OH243780   1.605   0.565   2.368
14608TIP3    H143781   1.666   0.549   2.440
14608TIP3    H243782   1.520   0.575   2.411
14609TIP3   OH243783   0.565   7.758   1.055
14609TIP3    H143784   0.598   7.676   1.018
14609TIP3    H243785   0.624   7.776   1.128
14610TIP3   OH243786   7.440   3.734   2.382
14610TIP3    H143787   7.505   3.738   2.313
14610TIP3    H243788   7.359   3.710   2.337
14611TIP3   OH243789   1.803   0.560   0.922
14611TIP3    H143790   1.811   0.655   0.917
14611TIP3    H243791   1.734   0.537   0.860
14612TIP3   OH243792   5.934   5.418   5.921
14612TIP3    H143793   5.960   5.488   5.981
14612TIP3    H243794   5.839   5.412   5.931
14613TIP3   OH243795   1.333   4.271   1.447
14613TIP3    H143796   1.392   4.310   1.511
14613TIP3    H243797   1.273   4.217   1.499
14614TIP3   OH243798   2.919   7.490   3.696
14614TIP3    H143799   2.916   7.582   3.670
14614TIP3    H243800   2.982   7.450   3.636
14615TIP3   OH243801   5.592   2.510   6.037
14615TIP3    H143802   5.661   2.570   6.064
14615TIP3    H243803   5.600   2.436   6.098
14616TIP3   OH243804   5.518   4.475   5.642
14616TIP3    H143805   5.442   4.434   5.683
14616TIP3    H243806   5.486   4.504   5.557
14617TIP3   OH243807   2.103   2.228   0.042
14617TIP3    H143808   2.036   2.159   0.042
14617TIP3    H243809   2.186   2.182   0.047
14618TIP3   OH243810   5.336   6.086   0.254
14618TIP3    H143811   5.303   6.072   0.165
14618TIP3    H243812   5.258   6.099   0.307
14619TIP3   OH243813   4.630   5.617   0.286
14619TIP3    H143814   4.610   5.587   0.198
14619TIP3    H243815   4.588   5.703   0.293
14620TIP3   OH243816   4.731   4.152   3.421
14620TIP3    H143817   4.803   4.099   3.455
14620TIP3    H243818   4.655   4.125   3.472
14621TIP3   OH243819   6.694   7.444   2.279
14621TIP3    H143820   6.603   7.435   2.309
14621TIP3    H243821   6.742   7.474   2.356
14622TIP3   OH243822   6.748   6.942   4.087
14622TIP3    H143823   6.680   6.880   4.061
14622TIP3    H243824   6.750   7.007   4.017
14623TIP3   OH243825   7.059   4.601   4.180
14623TIP3    H143826   7.142   4.616   4.225
14623TIP3    H243827   7.063   4.509   4.152
14624TIP3   OH243828   4.901   1.044   5.479
14624TIP3    H143829   4.864   1.065   5.393
14624TIP3    H243830   4.931   1.128   5.513
14625TIP3   OH243831   4.236   4.072   2.227
14625TIP3    H143832   4.145   4.090   2.252
14625TIP3    H243833   4.288   4.112   2.296
14626TIP3   OH243834   1.712   2.141   2.082
14626TIP3    H143835   1.660   2.085   2.139
14626TIP3    H243836   1.648   2.182   2.024
14627TIP3   OH243837   1.795   0.305   0.197
14627TIP3    H143838   1.812   0.244   0.126
14627TIP3    H243839   1.757   0.252   0.267
14628TIP3   OH243840   2.666   2.055   1.464
14628TIP3    H143841   2.683   2.144   1.497
14628TIP3    H243842   2.750   2.010   1.472
14629TIP3   OH243843   8.013   4.241   6.637
14629TIP3    H143844   8.035   4.333   6.646
14629TIP3    H243845   7.940   4.239   6.576
14630TIP3   OH243846   2.150   2.011   5.487
14630TIP3    H143847   2.071   1.996   5.435
14630TIP3    H243848   2.200   2.076   5.437
14631TIP3   OH243849   6.862   1.830   1.611
14631TIP3    H143850   6.944   1.808   1.656
14631TIP3    H243851   6.794   1.820   1.678
14632TIP3   OH243852   5.788   3.260   4.591
14632TIP3    H143853   5.703   3.279   4.551
14632TIP3    H243854   5.826   3.346   4.609
14633TIP3   OH243855   1.498   7.363   2.941
14633TIP3    H143856   1.571   7.325   2.989
14633TIP3    H243857   1.535   7.387   2.856
14634TIP3   OH243858   4.856   0.060   1.872
14634TIP3    H143859   4.810  -0.019   1.901
14634TIP3    H243860   4.949   0.039   1.882
14635TIP3   OH243861   1.427   5.229   2.113
14635TIP3    H143862   1.335   5.206   2.123
14635TIP3    H243863   1.462   5.164   2.052
14636TIP3   OH243864   4.711   1.935   2.602
14636TIP3    H143865   4.683   1.851   2.564
14636TIP3    H243866   4.682   2.000   2.539
14637TIP3   OH243867   0.629   3.913   1.405
14637TIP3    H143868   0.550   3.877   1.444
14637TIP3    H243869   0.646   3.857   1.329
14638TIP3   OH243870   5.217   1.007   4.927
14638TIP3    H143871   5.185   0.955   5.001
14638TIP3    H243872   5.167   1.088   4.931
14639TIP3   OH243873   5.015   7.664   6.152
14639TIP3    H143874   5.017   7.628   6.063
14639TIP3    H243875   4.921   7.671   6.172
14640TIP3   OH243876   1.049   4.935   3.083
14640TIP3    H143877   0.997   5.001   3.037
14640TIP3    H243878   1.132   4.979   3.104
14641TIP3   OH243879   2.341   7.575   4.624
14641TIP3    H143880   2.365   7.551   4.714
14641TIP3    H243881   2.267   7.518   4.603
14642TIP3   OH243882   2.754   6.572   4.449
14642TIP3    H143883   2.784   6.540   4.364
14642TIP3    H243884   2.813   6.644   4.470
14643TIP3   OH243885   3.308   1.017   4.312
14643TIP3    H143886   3.375   0.984   4.371
14643TIP3    H243887   3.278   1.099   4.353
14644TIP3   OH243888   5.318   2.197   0.123
14644TIP3    H143889   5.407   2.178   0.154
14644TIP3    H243890   5.298   2.127   0.062
14645TIP3   OH243891   5.600   4.301   6.009
14645TIP3    H143892   5.646   4.370   5.960
14645TIP3    H243893   5.603   4.225   5.951
14646TIP3   OH243894   3.643   2.645   2.996
14646TIP3    H143895   3.701   2.702   2.944
14646TIP3    H243896   3.621   2.697   3.073
14647TIP3   OH243897   4.942   2.213   5.897
14647TIP3    H143898   5.026   2.174   5.872
14647TIP3    H243899   4.965   2.299   5.933
14648TIP3   OH243900   2.644   6.145   1.757
14648TIP3    H143901   2.641   6.150   1.853
14648TIP3    H243902   2.649   6.236   1.729
14649TIP3   OH243903   0.666   1.409   4.791
14649TIP3    H143904   0.608   1.483   4.774
14649TIP3    H243905   0.714   1.397   4.709
14650TIP3   OH243906   6.866   2.882   4.598
14650TIP3    H143907   6.878   2.793   4.633
14650TIP3    H243908   6.952   2.923   4.608
14651TIP3   OH243909   2.438   7.219   2.138
14651TIP3    H143910   2.372   7.178   2.193
14651TIP3    H243911   2.390   7.245   2.059
14652TIP3   OH243912   3.059   3.202   2.858
14652TIP3    H143913   2.984   3.212   2.915
14652TIP3    H243914   3.030   3.141   2.790
14653TIP3   OH243915   3.809   3.517   5.113
14653TIP3    H143916   3.780   3.556   5.031
14653TIP3    H243917   3.731   3.517   5.169
14654TIP3   OH243918   0.063   1.841   0.985
14654TIP3    H143919   0.053   1.769   1.048
14654TIP3    H243920   0.048   1.799   0.900
14655TIP3   OH243921   6.082   6.337   1.339
14655TIP3    H143922   6.148   6.377   1.282
14655TIP3    H243923   6.000   6.347   1.291
14656TIP3   OH243924   6.021   4.075   4.604
14656TIP3    H143925   6.078   4.021   4.658
14656TIP3    H243926   5.974   4.131   4.666
14657TIP3   OH243927   4.761   2.753   4.864
14657TIP3    H143928   4.771   2.760   4.959
14657TIP3    H243929   4.851   2.758   4.830
14658TIP3   OH243930   3.035   4.105   1.793
14658TIP3    H143931   2.973   4.176   1.804
14658TIP3    H243932   3.121   4.147   1.791
14659TIP3   OH243933   1.516   5.273   2.547
14659TIP3    H143934   1.603   5.312   2.547
14659TIP3    H243935   1.456   5.346   2.558
14660TIP3   OH243936   6.748   5.439   5.754
14660TIP3    H143937   6.776   5.426   5.844
14660TIP3    H243938   6.795   5.372   5.704
14661TIP3   OH243939   3.704   1.627   1.583
14661TIP3    H143940   3.659   1.678   1.515
14661TIP3    H243941   3.772   1.686   1.617
14662TIP3   OH243942   6.262   7.569   1.646
14662TIP3    H143943   6.212   7.611   1.576
14662TIP3    H243944   6.202   7.505   1.683
14663TIP3   OH243945   4.596   4.168   5.083
14663TIP3    H143946   4.531   4.218   5.133
14663TIP3    H243947   4.609   4.218   5.003
14664TIP3   OH243948   0.652   2.880   4.228
14664TIP3    H143949   0.702   2.886   4.147
14664TIP3    H243950   0.574   2.829   4.204
14665TIP3   OH243951   6.119   4.990   0.285
14665TIP3    H143952   6.209   4.973   0.257
14665TIP3    H243953   6.121   5.077   0.324
14666TIP3   OH243954   0.587   6.528   1.854
14666TIP3    H143955   0.621   6.600   1.908
14666TIP3    H243956   0.664   6.477   1.830
14667TIP3   OH243957   1.927   1.662   0.200
14667TIP3    H143958   1.916   1.567   0.203
14667TIP3    H243959   2.010   1.678   0.244
14668TIP3   OH243960   1.759   4.357   0.310
14668TIP3    H143961   1.756   4.438   0.362
14668TIP3    H243962   1.667   4.335   0.296
14669TIP3   OH243963   5.733   2.441   4.048
14669TIP3    H143964   5.777   2.469   3.967
14669TIP3    H243965   5.800   2.450   4.115
14670TIP3   OH243966   0.259   6.895   0.093
14670TIP3    H143967   0.294   6.815   0.132
14670TIP3    H243968   0.332   6.930   0.041
14671TIP3   OH243969   2.861   5.144   5.338
14671TIP3    H143970   2.819   5.228   5.323
14671TIP3    H243971   2.791   5.087   5.369
14672TIP3   OH243972   5.035   5.314   1.551
14672TIP3    H143973   4.949   5.314   1.594
14672TIP3    H243974   5.014   5.317   1.457
14673TIP3   OH243975   2.933   2.606   2.861
14673TIP3    H143976   2.958   2.695   2.835
14673TIP3    H243977   3.003   2.578   2.920
14674TIP3   OH243978   1.752   6.886   0.619
14674TIP3    H143979   1.793   6.867   0.534
14674TIP3    H243980   1.669   6.839   0.617
14675TIP3   OH243981   1.414   1.201   1.606
14675TIP3    H143982   1.348   1.245   1.551
14675TIP3    H243983   1.425   1.115   1.565
14676TIP3   OH243984   2.811   4.494   4.583
14676TIP3    H143985   2.728   4.487   4.535
14676TIP3    H243986   2.878   4.489   4.516
14677TIP3   OH243987   0.386   7.294   1.945
14677TIP3    H143988   0.295   7.315   1.923
14677TIP3    H243989   0.398   7.331   2.032
14678TIP3   OH243990   2.228   3.768   3.508
14678TIP3    H143991   2.274   3.687   3.531
14678TIP3    H243992   2.171   3.743   3.435
14679TIP3   OH243993   2.830   4.646   6.199
14679TIP3    H143994   2.868   4.570   6.243
14679TIP3    H243995   2.760   4.610   6.145
14680TIP3   OH243996   2.904   0.362   6.769
14680TIP3    H143997   2.884   0.429   6.704
14680TIP3    H243998   2.895   0.406   6.854
14681TIP3   OH243999   3.259   2.809   4.296
14681TIP3    H144000   3.181   2.776   4.341
14681TIP3    H244001   3.239   2.901   4.279
14682TIP3   OH244002   7.553   0.864   3.182
14682TIP3    H144003   7.513   0.777   3.178
14682TIP3    H244004   7.613   0.866   3.107
14683TIP3   OH244005   0.841   0.234   6.483
14683TIP3    H144006   0.834   0.171   6.555
14683TIP3    H244007   0.753   0.236   6.445
14684TIP3   OH244008   5.846   5.850   1.693
14684TIP3    H144009   5.933   5.839   1.730
14684TIP3    H244010   5.823   5.942   1.710
14685TIP3   OH244011   2.864   5.283   2.511
14685TIP3    H144012   2.816   5.360   2.479
14685TIP3    H244013   2.798   5.214   2.515
14686TIP3   OH244014   2.095   2.409   0.761
14686TIP3    H144015   2.015   2.462   0.762
14686TIP3    H244016   2.079   2.343   0.694
14687TIP3   OH244017   0.629   0.442   1.325
14687TIP3    H144018   0.540   0.414   1.342
14687TIP3    H244019   0.645   0.419   1.233
14688TIP3   OH244020   3.461   5.982   5.121
14688TIP3    H144021   3.516   6.038   5.176
14688TIP3    H244022   3.477   6.013   5.032
14689TIP3   OH244023   2.925   0.401   4.823
14689TIP3    H144024   2.927   0.376   4.915
14689TIP3    H244025   2.936   0.318   4.775
14690TIP3   OH244026   4.051   1.982   2.428
14690TIP3    H144027   4.123   1.964   2.367
14690TIP3    H244028   3.974   1.947   2.384
14691TIP3   OH244029   1.774   3.313   1.495
14691TIP3    H144030   1.696   3.299   1.442
14691TIP3    H244031   1.843   3.264   1.451
14692TIP3   OH244032   3.729   5.905   2.811
14692TIP3    H144033   3.806   5.941   2.855
14692TIP3    H244034   3.766   5.851   2.740
14693TIP3   OH244035   4.702   1.696   5.352
14693TIP3    H144036   4.640   1.678   5.281
14693TIP3    H244037   4.784   1.716   5.308
14694TIP3   OH244038   4.657   2.060   1.956
14694TIP3    H144039   4.650   2.153   1.979
14694TIP3    H244040   4.693   2.019   2.035
14695TIP3   OH244041   3.811   1.188   6.391
14695TIP3    H144042   3.835   1.223   6.477
14695TIP3    H244043   3.763   1.108   6.410
14696TIP3   OH244044   7.727   0.284   2.245
14696TIP3    H144045   7.652   0.248   2.198
14696TIP3    H244046   7.729   0.376   2.220
14697TIP3   OH244047   7.607   7.240   6.569
14697TIP3    H144048   7.532   7.185   6.592
14697TIP3    H244049   7.608   7.239   6.473
14698TIP3   OH244050   2.915   5.099   6.455
14698TIP3    H144051   2.853   5.165   6.423
14698TIP3    H244052   2.909   5.105   6.550
14699TIP3   OH244053   8.080   1.462   1.961
14699TIP3    H144054   8.000   1.430   2.001
14699TIP3    H244055   8.110   1.390   1.906
14700TIP3   OH244056   0.715   0.959   5.607
14700TIP3    H144057   0.663   0.981   5.530
14700TIP3    H244058   0.799   1.003   5.592
14701TIP3   OH244059   4.715   0.225   6.111
14701TIP3    H144060   4.787   0.218   6.174
14701TIP3    H244061   4.642   0.180   6.153
14702TIP3   OH244062   0.101   6.566   2.911
14702TIP3    H144063   0.098   6.477   2.875
14702TIP3    H244064   0.018   6.605   2.882
14703TIP3   OH244065   4.364   1.571   5.480
14703TIP3    H144066   4.408   1.645   5.522
14703TIP3    H244067   4.369   1.500   5.544
14704TIP3   OH244068   1.619   3.025   4.108
14704TIP3    H144069   1.570   3.036   4.190
14704TIP3    H244070   1.700   2.982   4.134
14705TIP3   OH244071   7.451   3.572   3.377
14705TIP3    H144072   7.405   3.636   3.431
14705TIP3    H244073   7.405   3.490   3.391
14706TIP3   OH244074   6.262   3.499   6.318
14706TIP3    H144075   6.172   3.471   6.306
14706TIP3    H244076   6.271   3.576   6.262
14707TIP3   OH244077   0.859   0.242   5.741
14707TIP3    H144078   0.807   0.171   5.778
14707TIP3    H244079   0.818   0.260   5.656
14708TIP3   OH244080   8.250   0.352   1.482
14708TIP3    H144081   8.171   0.307   1.512
14708TIP3    H244082   8.272   0.413   1.553
14709TIP3   OH244083   1.379   5.532   2.522
14709TIP3    H144084   1.290   5.509   2.548
14709TIP3    H244085   1.387   5.625   2.545
14710TIP3   OH244086   0.831   0.002   5.455
14710TIP3    H144087   0.822   0.094   5.430
14710TIP3    H244088   0.768  -0.010   5.526
14711TIP3   OH244089   7.919   0.599   3.088
14711TIP3    H144090   7.987   0.665   3.079
14711TIP3    H244091   7.862   0.613   3.013
14712TIP3   OH244092   5.679   1.695   1.895
14712TIP3    H144093   5.613   1.707   1.827
14712TIP3    H244094   5.629   1.690   1.977
14713TIP3   OH244095   1.146   5.497   4.609
14713TIP3    H144096   1.240   5.514   4.602
14713TIP3    H244097   1.127   5.509   4.702
14714TIP3   OH244098   4.375   5.460   4.540
14714TIP3    H144099   4.364   5.370   4.509
14714TIP3    H244100   4.286   5.489   4.561
14715TIP3   OH244101   4.802   3.500   2.657
14715TIP3    H144102   4.881   3.530   2.613
14715TIP3    H244103   4.790   3.562   2.729
14716TIP3   OH244104   0.138   2.008   1.240
14716TIP3    H144105   0.086   1.948   1.294
14716TIP3    H244106   0.209   2.038   1.297
14717TIP3   OH244107   2.263   7.071   3.559
14717TIP3    H144108   2.336   7.072   3.621
14717TIP3    H244109   2.225   7.158   3.566
14718TIP3   OH244110   0.850   6.528   6.098
14718TIP3    H144111   0.780   6.578   6.139
14718TIP3    H244112   0.816   6.439   6.093
14719TIP3   OH244113   3.334   2.464   5.416
14719TIP3    H144114   3.319   2.463   5.511
14719TIP3    H244115   3.412   2.411   5.404
14720TIP3   OH244116   4.382   6.240   4.060
14720TIP3    H144117   4.347   6.329   4.053
14720TIP3    H244118   4.346   6.194   3.984
14721TIP3   OH244119   6.205   5.223   0.426
14721TIP3    H144120   6.278   5.280   0.451
14721TIP3    H244121   6.141   5.234   0.497
14722TIP3   OH244122   3.139   3.515   3.199
14722TIP3    H144123   3.057   3.543   3.241
14722TIP3    H244124   3.188   3.596   3.188
14723TIP3   OH244125   7.222   3.137   0.204
14723TIP3    H144126   7.168   3.136   0.283
14723TIP3    H244127   7.161   3.120   0.132
14724TIP3   OH244128   2.368   2.331   0.440
14724TIP3    H144129   2.327   2.248   0.416
14724TIP3    H244130   2.302   2.374   0.496
14725TIP3   OH244131   7.440   6.736   0.756
14725TIP3    H144132   7.535   6.731   0.751
14725TIP3    H244133   7.422   6.826   0.781
14726TIP3   OH244134   1.528   0.888   5.455
14726TIP3    H144135   1.436   0.914   5.464
14726TIP3    H244136   1.545   0.834   5.533
14727TIP3   OH244137   7.251   1.533   4.349
14727TIP3    H144138   7.319   1.486   4.397
14727TIP3    H244139   7.172   1.522   4.401
14728TIP3   OH244140   7.654   3.047   4.964
14728TIP3    H144141   7.665   2.957   4.993
14728TIP3    H244142   7.561   3.066   4.978
14729TIP3   OH244143   6.398   4.832   1.645
14729TIP3    H144144   6.394   4.772   1.571
14729TIP3    H244145   6.422   4.916   1.607
14730TIP3   OH244146   0.870   0.469   4.206
14730TIP3    H144147   0.899   0.543   4.153
14730TIP3    H244148   0.855   0.506   4.293
14731TIP3   OH244149   7.909   3.592   4.851
14731TIP3    H144150   7.901   3.687   4.853
14731TIP3    H244151   7.983   3.573   4.909
14732TIP3   OH244152   6.904   5.902   5.147
14732TIP3    H144153   6.962   5.890   5.222
14732TIP3    H244154   6.951   5.963   5.090
14733TIP3   OH244155   2.528   1.759   2.116
14733TIP3    H144156   2.555   1.737   2.205
14733TIP3    H244157   2.508   1.852   2.119
14734TIP3   OH244158   4.543   3.813   1.103
14734TIP3    H144159   4.520   3.862   1.024
14734TIP3    H244160   4.498   3.729   1.093
14735TIP3   OH244161   7.767   2.537   4.071
14735TIP3    H144162   7.825   2.468   4.101
14735TIP3    H244163   7.770   2.531   3.975
14736TIP3   OH244164   0.082   5.018   2.546
14736TIP3    H144165  -0.003   5.005   2.587
14736TIP3    H244166   0.118   5.096   2.588
14737TIP3   OH244167   5.144   4.162   1.123
14737TIP3    H144168   5.145   4.202   1.210
14737TIP3    H244169   5.075   4.208   1.075
14738TIP3   OH244170   8.184   4.613   0.335
14738TIP3    H144171   8.156   4.526   0.363
14738TIP3    H244172   8.275   4.601   0.307
14739TIP3   OH244173   1.125   1.176   4.543
14739TIP3    H144174   1.118   1.081   4.555
14739TIP3    H244175   1.202   1.188   4.489
14740TIP3   OH244176   8.102  -0.011   1.953
14740TIP3    H144177   8.192   0.022   1.949
14740TIP3    H244178   8.059   0.046   2.016
14741TIP3   OH244179   5.059   1.953   5.394
14741TIP3    H144180   5.122   1.913   5.455
14741TIP3    H244181   5.096   1.938   5.307
14742TIP3   OH244182   3.797   7.691   0.551
14742TIP3    H144183   3.859   7.755   0.586
14742TIP3    H244184   3.839   7.606   0.567
14743TIP3   OH244185   7.133   4.841   2.232
14743TIP3    H144186   7.222   4.872   2.218
14743TIP3    H244187   7.094   4.840   2.145
14744TIP3   OH244188   0.773   3.482   5.954
14744TIP3    H144189   0.740   3.568   5.981
14744TIP3    H244190   0.795   3.493   5.861
14745TIP3   OH244191   1.015   0.976   4.321
14745TIP3    H144192   1.109   0.961   4.336
14745TIP3    H244193   1.005   0.975   4.226
14746TIP3   OH244194   1.030   6.044   1.555
14746TIP3    H144195   1.094   5.980   1.525
14746TIP3    H244196   1.079   6.102   1.613
14747TIP3   OH244197   5.578   4.709   6.671
14747TIP3    H144198   5.528   4.784   6.704
14747TIP3    H244199   5.628   4.679   6.746
14748TIP3   OH244200   3.034   3.080   0.435
14748TIP3    H144201   3.039   3.121   0.349
14748TIP3    H244202   2.941   3.057   0.445
14749TIP3   OH244203   6.047   1.698   6.424
14749TIP3    H144204   6.036   1.673   6.516
14749TIP3    H244205   5.961   1.729   6.397
14750TIP3   OH244206   2.904   2.740   4.175
14750TIP3    H144207   2.986   2.695   4.152
14750TIP3    H244208   2.848   2.670   4.209
14751TIP3   OH244209   6.751   7.359   5.223
14751TIP3    H144210   6.761   7.324   5.134
14751TIP3    H244211   6.838   7.352   5.261
14752TIP3   OH244212   6.789   7.171   0.989
14752TIP3    H144213   6.883   7.185   0.977
14752TIP3    H244214   6.758   7.137   0.905
14753TIP3   OH244215   7.426   0.428   0.503
14753TIP3    H144216   7.405   0.357   0.563
14753TIP3    H244217   7.401   0.508   0.550
14754TIP3   OH244218   4.960   2.303   2.099
14754TIP3    H144219   4.895   2.344   2.156
14754TIP3    H244220   4.993   2.376   2.045
14755TIP3   OH244221   4.781   6.293   2.780
14755TIP3    H144222   4.782   6.244   2.698
14755TIP3    H244223   4.734   6.236   2.841
14756TIP3   OH244224   2.755   0.638   3.841
14756TIP3    H144225   2.735   0.566   3.901
14756TIP3    H244226   2.761   0.596   3.755
14757TIP3   OH244227   1.023   6.779   4.411
14757TIP3    H144228   0.934   6.812   4.397
14757TIP3    H244229   1.011   6.687   4.436
14758TIP3   OH244230   0.176   1.657   2.095
14758TIP3    H144231   0.178   1.687   2.004
14758TIP3    H244232   0.213   1.730   2.145
14759TIP3   OH244233   4.727   5.893   3.557
14759TIP3    H144234   4.754   5.876   3.647
14759TIP3    H244235   4.753   5.814   3.509
14760TIP3   OH244236   8.049   4.542   6.048
14760TIP3    H144237   8.086   4.616   6.096
14760TIP3    H244238   8.046   4.470   6.112
14761TIP3   OH244239   7.764   1.352   6.381
14761TIP3    H144240   7.696   1.391   6.326
14761TIP3    H244241   7.811   1.427   6.418
14762TIP3   OH244242   1.941   2.119   1.317
14762TIP3    H144243   2.008   2.155   1.258
14762TIP3    H244244   1.929   2.187   1.384
14763TIP3   OH244245   1.062   5.813   5.148
14763TIP3    H144246   1.115   5.890   5.129
14763TIP3    H244247   1.010   5.799   5.069
14764TIP3   OH244248   4.602   2.354   2.016
14764TIP3    H144249   4.644   2.400   2.089
14764TIP3    H244250   4.579   2.424   1.954
14765TIP3   OH244251   6.377   2.053   2.710
14765TIP3    H144252   6.468   2.032   2.727
14765TIP3    H244253   6.329   1.973   2.730
14766TIP3   OH244254   7.546   5.710   6.334
14766TIP3    H144255   7.509   5.707   6.422
14766TIP3    H244256   7.477   5.747   6.279
14767TIP3   OH244257   4.879   5.029   3.509
14767TIP3    H144258   4.788   5.011   3.533
14767TIP3    H244259   4.930   4.999   3.585
14768TIP3   OH244260   8.070   6.525   3.469
14768TIP3    H144261   8.020   6.571   3.402
14768TIP3    H244262   8.010   6.458   3.502
14769TIP3   OH244263   7.804   1.188   1.751
14769TIP3    H144264   7.714   1.167   1.729
14769TIP3    H244265   7.843   1.217   1.668
14770TIP3   OH244266   2.083   3.823   1.117
14770TIP3    H144267   2.129   3.875   1.183
14770TIP3    H244268   2.112   3.733   1.132
14771TIP3   OH244269   0.567   0.507   6.213
14771TIP3    H144270   0.554   0.601   6.227
14771TIP3    H244271   0.580   0.499   6.118
14772TIP3   OH244272   7.590   3.235   1.364
14772TIP3    H144273   7.550   3.217   1.280
14772TIP3    H244274   7.659   3.169   1.373
14773TIP3   OH244275   2.106   6.866   3.654
14773TIP3    H144276   2.160   6.935   3.615
14773TIP3    H244277   2.040   6.846   3.588
14774TIP3   OH244278   5.035   4.589   3.472
14774TIP3    H144279   4.946   4.561   3.453
14774TIP3    H244280   5.026   4.677   3.508
14775TIP3   OH244281   7.092   6.948   2.759
14775TIP3    H144282   7.107   6.889   2.685
14775TIP3    H244283   7.051   7.026   2.721
14776TIP3   OH244284   0.400   0.500   4.799
14776TIP3    H144285   0.482   0.455   4.820
14776TIP3    H244286   0.412   0.589   4.831
14777TIP3   OH244287   5.021   0.556   3.917
14777TIP3    H144288   5.085   0.626   3.925
14777TIP3    H244289   4.937   0.597   3.938
14778TIP3   OH244290   6.563   5.076   1.868
14778TIP3    H144291   6.566   5.107   1.778
14778TIP3    H244292   6.471   5.081   1.893
14779TIP3   OH244293   5.605   1.538   5.712
14779TIP3    H144294   5.673   1.563   5.774
14779TIP3    H244295   5.652   1.495   5.641
14780TIP3   OH244296   1.395   4.515   4.900
14780TIP3    H144297   1.446   4.528   4.980
14780TIP3    H244298   1.305   4.499   4.931
14781TIP3   OH244299   2.861   6.414   5.695
14781TIP3    H144300   2.914   6.494   5.700
14781TIP3    H244301   2.771   6.445   5.685
14782TIP3   OH244302   5.534   6.346   1.047
14782TIP3    H144303   5.449   6.373   1.011
14782TIP3    H244304   5.598   6.379   0.984
14783TIP3   OH244305   0.082   6.291   3.962
14783TIP3    H144306   0.055   6.329   3.878
14783TIP3    H244307   0.130   6.361   4.005
14784TIP3   OH244308   3.870   5.294   5.412
14784TIP3    H144309   3.775   5.291   5.397
14784TIP3    H244310   3.882   5.362   5.478
14785TIP3   OH244311   3.682   7.554   0.770
14785TIP3    H144312   3.686   7.627   0.707
14785TIP3    H244313   3.593   7.519   0.760
14786TIP3   OH244314   0.345   6.935   4.662
14786TIP3    H144315   0.313   6.877   4.593
14786TIP3    H244316   0.266   6.968   4.704
14787TIP3   OH244317   7.479   6.295   3.050
14787TIP3    H144318   7.502   6.231   2.983
14787TIP3    H244319   7.449   6.241   3.124
14788TIP3   OH244320   1.695   7.543   6.197
14788TIP3    H144321   1.680   7.599   6.273
14788TIP3    H244322   1.724   7.604   6.129
14789TIP3   OH244323   2.393   3.155   0.945
14789TIP3    H144324   2.474   3.203   0.964
14789TIP3    H244325   2.421   3.080   0.894
14790TIP3   OH244326   4.526   4.326   4.819
14790TIP3    H144327   4.529   4.346   4.725
14790TIP3    H244328   4.529   4.412   4.861
14791TIP3   OH244329   1.762   5.447   2.636
14791TIP3    H144330   1.787   5.359   2.665
14791TIP3    H244331   1.835   5.503   2.663
14792TIP3   OH244332   8.199   4.859   5.487
14792TIP3    H144333   8.170   4.912   5.562
14792TIP3    H244334   8.145   4.889   5.414
14793TIP3   OH244335   1.558   3.186   3.070
14793TIP3    H144336   1.507   3.183   3.150
14793TIP3    H244337   1.504   3.140   3.005
14794TIP3   OH244338   6.037   4.421   4.324
14794TIP3    H144339   6.089   4.501   4.312
14794TIP3    H244340   6.103   4.352   4.337
14795TIP3   OH244341   1.010   1.192   3.414
14795TIP3    H144342   1.071   1.236   3.355
14795TIP3    H244343   0.943   1.258   3.433
14796TIP3   OH244344   1.674   6.540   4.000
14796TIP3    H144345   1.767   6.520   3.993
14796TIP3    H244346   1.643   6.485   4.072
14797TIP3   OH244347   0.073   7.582   5.140
14797TIP3    H144348  -0.021   7.596   5.155
14797TIP3    H244349   0.077   7.529   5.061
14798TIP3   OH244350   1.376   1.429   0.359
14798TIP3    H144351   1.315   1.395   0.425
14798TIP3    H244352   1.451   1.460   0.410
14799TIP3   OH244353   5.682   3.344   0.361
14799TIP3    H144354   5.639   3.390   0.289
14799TIP3    H244355   5.689   3.253   0.330
14800TIP3   OH244356   0.808   5.157   1.771
14800TIP3    H144357   0.831   5.182   1.681
14800TIP3    H244358   0.773   5.238   1.809
14801TIP3   OH244359   0.418   1.455   1.490
14801TIP3    H144360   0.501   1.433   1.533
14801TIP3    H244361   0.436   1.445   1.397
14802TIP3   OH244362   8.151   3.925   1.807
14802TIP3    H144363   8.226   3.919   1.865
14802TIP3    H244364   8.183   3.891   1.723
14803TIP3   OH244365   3.150   6.944   4.122
14803TIP3    H144366   3.201   6.960   4.202
14803TIP3    H244367   3.215   6.950   4.052
14804TIP3   OH244368   5.219   0.615   1.629
14804TIP3    H144369   5.252   0.543   1.575
14804TIP3    H244370   5.264   0.605   1.713
14805TIP3   OH244371   5.473   2.375   6.335
14805TIP3    H144372   5.473   2.304   6.400
14805TIP3    H244373   5.541   2.351   6.273
14806TIP3   OH244374   3.823   4.805   3.320
14806TIP3    H144375   3.821   4.862   3.244
14806TIP3    H244376   3.894   4.839   3.374
14807TIP3   OH244377   1.675   0.730   5.646
14807TIP3    H144378   1.707   0.641   5.660
14807TIP3    H244379   1.705   0.779   5.722
14808TIP3   OH244380   3.549   3.368   0.097
14808TIP3    H144381   3.541   3.312   0.174
14808TIP3    H244382   3.545   3.307   0.023
14809TIP3   OH244383   1.111   6.079   0.216
14809TIP3    H144384   1.043   6.023   0.254
14809TIP3    H244385   1.140   6.031   0.138
14810TIP3   OH244386   7.616   3.572   4.838
14810TIP3    H144387   7.598   3.652   4.789
14810TIP3    H244388   7.706   3.583   4.870
14811TIP3   OH244389   4.794   0.710   3.970
14811TIP3    H144390   4.811   0.804   3.963
14811TIP3    H244391   4.718   0.703   4.028
14812TIP3   OH244392   1.312   3.880   5.808
14812TIP3    H144393   1.332   3.958   5.859
14812TIP3    H244394   1.219   3.865   5.822
14813TIP3   OH244395   7.607   4.823   4.056
14813TIP3    H144396   7.664   4.747   4.063
14813TIP3    H244397   7.666   4.897   4.047
14814TIP3   OH244398   7.604   3.470   3.180
14814TIP3    H144399   7.546   3.516   3.119
14814TIP3    H244400   7.579   3.502   3.266
14815TIP3   OH244401   5.354   1.317   5.232
14815TIP3    H144402   5.401   1.235   5.219
14815TIP3    H244403   5.306   1.330   5.150
14816TIP3   OH244404   2.427   7.415   3.375
14816TIP3    H144405   2.444   7.340   3.318
14816TIP3    H244406   2.436   7.491   3.317
14817TIP3   OH244407   2.652   2.202   0.417
14817TIP3    H144408   2.612   2.256   0.486
14817TIP3    H244409   2.705   2.262   0.366
14818TIP3   OH244410   5.763   0.933   6.376
14818TIP3    H144411   5.845   0.903   6.335
14818TIP3    H244412   5.695   0.880   6.335
14819TIP3   OH244413   4.508   3.598   0.358
14819TIP3    H144414   4.523   3.506   0.378
14819TIP3    H244415   4.425   3.600   0.311
14820TIP3   OH244416   2.325   2.551   1.184
14820TIP3    H144417   2.336   2.637   1.223
14820TIP3    H244418   2.391   2.496   1.227
14821TIP3   OH244419   5.667   4.027   3.039
14821TIP3    H144420   5.726   3.982   3.100
14821TIP3    H244421   5.704   4.009   2.952
14822TIP3   OH244422   1.483   7.465   3.592
14822TIP3    H144423   1.456   7.544   3.545
14822TIP3    H244424   1.464   7.485   3.684
14823TIP3   OH244425   0.993   7.170   3.665
14823TIP3    H144426   0.989   7.085   3.707
14823TIP3    H244427   1.038   7.154   3.581
14824TIP3   OH244428   0.909   1.442   4.624
14824TIP3    H144429   0.855   1.520   4.615
14824TIP3    H244430   0.988   1.462   4.573
14825TIP3   OH244431   5.481   6.894   6.627
14825TIP3    H144432   5.495   6.872   6.719
14825TIP3    H244433   5.564   6.931   6.598
14826TIP3   OH244434   4.879   5.077   6.602
14826TIP3    H144435   4.807   5.130   6.567
14826TIP3    H244436   4.903   5.120   6.684
14827TIP3   OH244437   6.519   3.427   0.370
14827TIP3    H144438   6.608   3.399   0.350
14827TIP3    H244439   6.529   3.500   0.432
14828TIP3   OH244440   6.755   1.344   4.653
14828TIP3    H144441   6.739   1.435   4.679
14828TIP3    H244442   6.814   1.311   4.721
14829TIP3   OH244443   7.911   4.935   3.262
14829TIP3    H144444   8.000   4.913   3.291
14829TIP3    H244445   7.868   4.851   3.249
14830TIP3   OH244446   5.472   1.257   2.537
14830TIP3    H144447   5.522   1.194   2.484
14830TIP3    H244448   5.389   1.212   2.554
14831TIP3   OH244449   7.038   4.150   5.147
14831TIP3    H144450   7.002   4.079   5.093
14831TIP3    H244451   7.072   4.213   5.084
14832TIP3   OH244452   6.027   2.743   2.252
14832TIP3    H144453   6.051   2.726   2.343
14832TIP3    H244454   5.933   2.729   2.249
14833TIP3   OH244455   4.861   5.108   2.373
14833TIP3    H144456   4.804   5.176   2.336
14833TIP3    H244457   4.850   5.033   2.314
14834TIP3   OH244458   0.210   4.267   3.021
14834TIP3    H144459   0.291   4.311   2.995
14834TIP3    H244460   0.141   4.331   3.004
14835TIP3   OH244461   6.554   6.584   1.996
14835TIP3    H144462   6.477   6.640   1.994
14835TIP3    H244463   6.523   6.499   1.964
14836TIP3   OH244464   1.155   5.050   4.609
14836TIP3    H144465   1.221   4.981   4.599
14836TIP3    H244466   1.170   5.108   4.534
14837TIP3   OH244467   5.487   2.211   2.547
14837TIP3    H144468   5.579   2.187   2.535
14837TIP3    H244469   5.441   2.163   2.478
   8.29710   7.82258   6.77456   0.00000   0.00000  -2.76570   0.00000  -2.76570  -3.91129
