Title
19942
    1ASP      N    1   1.280   1.588   3.641  0.5447 -0.0534 -0.8102
    1ASP    HT1    2   1.239   1.656   3.575  1.3144 -0.2310 -1.4878
    1ASP    HT2    3   1.381   1.585   3.614  0.1039  2.7499 -3.2322
    1ASP    HT3    4   1.268   1.634   3.734  2.8228 -2.3460  0.7919
    1ASP     CA    5   1.203   1.463   3.623  0.4133 -0.3510 -0.1468
    1ASP     HA    6   1.245   1.390   3.691 -0.3958  1.1102  2.0231
    1ASP     CB    7   1.065   1.503   3.674 -0.4155  0.0002  0.0084
    1ASP    HB1    8   1.007   1.570   3.606  1.0461 -0.0206 -1.2907
    1ASP    HB2    9   1.068   1.542   3.778  1.2664  0.1095 -0.0587
    1ASP     CG   10   0.976   1.380   3.685 -0.2747 -0.5529 -0.2436
    1ASP    OD1   11   1.030   1.271   3.694 -0.4500 -0.0487  0.1323
    1ASP    OD2   12   0.855   1.406   3.707  0.1114  0.1639  0.0041
    1ASP      C   13   1.215   1.408   3.471 -0.2196 -0.3797  0.5112
    1ASP      O   14   1.325   1.373   3.429  0.3310  0.0773  0.3299
    2ALA      N   15   1.099   1.387   3.397 -0.7846  0.0721 -0.2816
    2ALA     HN   16   1.004   1.393   3.425 -0.2871  1.9436  1.2962
    2ALA     CA   17   1.109   1.330   3.263 -0.1032 -0.1294 -0.4095
    2ALA     HA   18   1.174   1.244   3.257 -2.6707 -2.1540 -0.6506
    2ALA     CB   19   0.969   1.274   3.214 -0.2606  0.1394 -0.0372
    2ALA    HB1   20   0.926   1.210   3.295  0.0187  1.9168  1.5726
    2ALA    HB2   21   0.996   1.216   3.124  2.2875 -1.3108  1.5277
    2ALA    HB3   22   0.899   1.357   3.190  0.2034  0.1098 -1.5919
    2ALA      C   23   1.153   1.435   3.172  0.8037 -0.3107  0.3237
    2ALA      O   24   1.098   1.548   3.170 -1.0315 -0.1710  0.3018
    3ASP      N   25   1.245   1.398   3.082 -0.3582 -0.2944 -0.0276
    3ASP     HN   26   1.300   1.315   3.086  1.3930  0.7979 -0.2851
    3ASP     CA   27   1.264   1.477   2.962  0.2423  0.7531 -0.5684
    3ASP     HA   28   1.312   1.568   2.994 -0.0885  1.5713 -2.2606
    3ASP     CB   29   1.359   1.401   2.872  0.2605 -0.0576 -0.4371
    3ASP    HB1   30   1.372   1.456   2.776 -0.3992  0.4792 -0.2253
    3ASP    HB2   31   1.306   1.308   2.841 -1.9855  0.3006  1.9762
    3ASP     CG   32   1.489   1.389   2.944  0.1101 -0.4363  0.1412
    3ASP    OD1   33   1.572   1.301   2.903 -0.3627  0.0152 -0.6476
    3ASP    OD2   34   1.530   1.484   3.018  0.1335  0.2032 -0.2328
    3ASP      C   35   1.143   1.509   2.877 -0.1280 -0.6584  0.4676
    3ASP      O   36   1.042   1.443   2.868 -0.0848  0.0368  0.1399
    4GLY      N   37   1.145   1.629   2.816 -0.6495  0.1436  0.1259
    4GLY     HN   38   1.234   1.674   2.809 -0.6332  0.0833 -0.0767
    4GLY     CA   39   1.033   1.704   2.767 -0.4088 -0.0513  0.0407
    4GLY    HA1   40   1.051   1.809   2.751 -0.9372  0.2163  1.0835
    4GLY    HA2   41   0.955   1.686   2.840 -1.6342  0.1532 -1.1849
    4GLY      C   42   0.974   1.659   2.642 -0.8241  0.1907  0.6476
    4GLY      O   43   1.026   1.561   2.588 -0.3358  0.1318 -0.2767
    5PRO      N   44   0.875   1.722   2.585  0.0292 -0.0833 -0.5733
    5PRO     CD   45   0.797   1.826   2.652  0.5393  0.5156  0.2405
    5PRO    HD1   46   0.844   1.927   2.655  1.9910 -0.0396 -1.6711
    5PRO    HD2   47   0.773   1.788   2.753  1.9134  0.9981  0.7721
    5PRO     CA   48   0.824   1.702   2.454 -0.1555 -0.0526  0.7114
    5PRO     HA   49   0.768   1.610   2.463 -1.4959  0.9171  3.0531
    5PRO     CB   50   0.730   1.825   2.420  0.2681 -0.2470  0.2756
    5PRO    HB1   51   0.657   1.793   2.342 -0.0553 -0.1403  0.5330
    5PRO    HB2   52   0.790   1.912   2.387  0.1333 -0.7290 -1.3319
    5PRO     CG   53   0.673   1.845   2.558 -0.3848  0.5005  0.8701
    5PRO    HG1   54   0.625   1.945   2.562  0.6725  1.0399  0.2896
    5PRO    HG2   55   0.584   1.784   2.586 -0.1789  1.3582  3.7168
    5PRO      C   56   0.929   1.681   2.348  0.3524 -0.9147  0.2036
    5PRO      O   57   1.020   1.766   2.341  0.4149  0.5126  0.1998
    6GLY      N   58   0.922   1.577   2.268  0.0894  0.8797 -0.6150
    6GLY     HN   59   0.848   1.512   2.286 -0.6253  1.4612 -1.3847
    6GLY     CA   60   1.011   1.554   2.152 -0.4701 -0.0106  0.1650
    6GLY    HA1   61   0.984   1.452   2.130  0.2282 -0.5796  1.7983
    6GLY    HA2   62   1.112   1.574   2.183 -0.6680 -2.8334  3.2542
    6GLY      C   63   0.999   1.644   2.035  0.3131  0.1542  0.3628
    6GLY      O   64   0.979   1.768   2.041 -0.1443 -0.2167  0.3728
    7ASP      N   65   1.005   1.582   1.916 -0.6175 -0.3933  0.1772
    7ASP     HN   66   1.025   1.484   1.911  0.4034 -0.2144  0.5224
    7ASP     CA   67   0.989   1.646   1.789 -0.6677 -0.3260  0.3096
    7ASP     HA   68   1.068   1.720   1.784 -1.7375  0.7877 -1.6941
    7ASP     CB   69   1.001   1.533   1.675 -0.3854 -0.7517 -0.1952
    7ASP    HB1   70   0.910   1.470   1.687 -0.7357 -0.2362 -0.1197
    7ASP    HB2   71   1.090   1.468   1.687  0.7783  0.7085 -0.6343
    7ASP     CG   72   1.007   1.582   1.533 -0.3955 -0.0087 -0.5400
    7ASP    OD1   73   1.046   1.696   1.514 -0.2749 -0.0608 -0.0205
    7ASP    OD2   74   1.004   1.499   1.439  0.2462  0.9990  0.1553
    7ASP      C   75   0.857   1.723   1.764 -0.1092  0.2503 -0.1749
    7ASP      O   76   0.756   1.654   1.771 -0.2482 -0.2260 -0.2494
    8PRO      N   77   0.854   1.850   1.732 -0.2291 -0.5369 -0.3099
    8PRO     CD   78   0.975   1.948   1.748  0.2638 -0.4311 -0.0245
    8PRO    HD1   79   1.053   1.924   1.673  0.3729  1.9487 -0.7592
    8PRO    HD2   80   1.010   1.950   1.853  0.3970  0.7684 -0.0751
    8PRO     CA   81   0.724   1.922   1.702 -0.9115  0.1000  0.4017
    8PRO     HA   82   0.651   1.897   1.777 -1.4988  1.7951  0.4323
    8PRO     CB   83   0.767   2.068   1.740 -0.4908  0.1965 -0.0782
    8PRO    HB1   84   0.750   2.068   1.849 -2.1178 -2.0100 -0.2737
    8PRO    HB2   85   0.703   2.149   1.698 -0.1494 -0.2208 -1.4670
    8PRO     CG   86   0.912   2.079   1.708  0.0930  0.3078  0.4209
    8PRO    HG1   87   0.913   2.087   1.597  0.0112 -0.4411  0.3584
    8PRO    HG2   88   0.960   2.172   1.743  0.9458 -0.6182  1.8383
    8PRO      C   89   0.664   1.895   1.565 -0.1357  0.3425 -0.0450
    8PRO      O   90   0.566   1.958   1.538 -0.1104  0.0967  0.2092
    9ASP      N   91   0.713   1.794   1.494 -0.0664 -0.6422 -0.0907
    9ASP     HN   92   0.804   1.762   1.519  0.7717  1.6865  0.1083
    9ASP     CA   93   0.636   1.726   1.396 -0.6776 -0.2265 -0.1121
    9ASP     HA   94   0.571   1.795   1.343 -1.9365  0.3775  2.1056
    9ASP     CB   95   0.728   1.662   1.293  0.2276 -0.4159  0.3826
    9ASP    HB1   96   0.653   1.632   1.217 -2.1482  2.2122  1.4990
    9ASP    HB2   97   0.784   1.577   1.337 -0.4041 -0.8875  0.2914
    9ASP     CG   98   0.828   1.759   1.242 -0.3438  0.3401  0.7143
    9ASP    OD1   99   0.939   1.708   1.200 -0.2110  0.8435  0.0885
    9ASP    OD2  100   0.796   1.876   1.208  0.5277 -0.1163  0.1774
    9ASP      C  101   0.536   1.616   1.448 -0.7788 -0.1493  0.1827
    9ASP      O  102   0.431   1.584   1.382  0.4701  0.1151 -0.2463
   10ALA      N  103   0.565   1.561   1.565  0.5780 -0.2795 -0.2958
   10ALA     HN  104   0.638   1.596   1.624 -1.8035  0.3414  2.4677
   10ALA     CA  105   0.479   1.458   1.615 -0.1269 -0.0844  0.2141
   10ALA     HA  106   0.446   1.400   1.530 -0.2356  0.5367 -0.1675
   10ALA     CB  107   0.556   1.360   1.703 -0.0654  0.2651  0.8676
   10ALA    HB1  108   0.501   1.268   1.732 -0.1222  0.9941  3.3623
   10ALA    HB2  109   0.600   1.403   1.796  0.3119  1.9152 -0.0359
   10ALA    HB3  110   0.650   1.335   1.649 -0.4769 -1.5436  0.9001
   10ALA      C  111   0.363   1.518   1.706  0.9094 -0.2361  0.0864
   10ALA      O  112   0.379   1.605   1.791 -0.2093 -0.3562  0.1127
   11GLY      N  113   0.236   1.469   1.675 -0.2525 -0.2225  0.0885
   11GLY     HN  114   0.222   1.385   1.624 -0.2596  0.6326 -1.4075
   11GLY     CA  115   0.109   1.530   1.728 -0.0281  0.5683 -0.2968
   11GLY    HA1  116   0.036   1.526   1.650  0.4228  0.2908 -0.7108
   11GLY    HA2  117   0.115   1.634   1.756 -2.4724  0.6947 -0.0814
   11GLY      C  118   0.042   1.448   1.845 -1.4474  0.0501 -0.3436
   11GLY    OT1  119  -0.006   1.335   1.831  0.9340 -0.0665  0.6910
   11GLY    OT2  120   0.035   1.509   1.956 -0.3926  0.5843 -0.0119
   12LIT    LIT  121   4.597   3.595   2.651 -0.0585  1.3959 -0.2781
   13LIT    LIT  122   1.003   2.503   0.487 -0.7248  0.4935  0.4276
   14LIT    LIT  123   3.586   3.277   2.909  0.0649 -0.2199  0.2146
   15LIT    LIT  124   1.879   1.636   3.012 -0.4633  0.0008  0.3940
   16LIT    LIT  125   0.178   2.139   1.520 -0.1170 -0.5908  0.1001
   17LIT    LIT  126   4.490   3.994   0.683  0.1293 -1.3580  0.0408
   18LIT    LIT  127   3.367   5.692   4.030  0.3810  1.2815 -0.8126
   19LIT    LIT  128   1.057   1.585   1.291 -0.0809 -0.2784  0.6403
   20LIT    LIT  129   5.176   2.298   2.418 -1.5220  0.0373  0.5152
   21LIT    LIT  130   1.045   0.221   2.863  0.0739  1.1303  0.3660
   22LIT    LIT  131   3.017   4.976   3.009  0.5282  0.3359 -0.4903
   23LIT    LIT  132   4.431   3.245   2.856 -1.0130  0.3862 -0.2840
   24LIT    LIT  133   1.395   5.646   3.991 -0.5613 -0.1665 -0.4701
   25LIT    LIT  134   4.264   2.202   3.503 -0.0094  0.4448 -0.1235
   26LIT    LIT  135   0.302   2.010   0.799 -0.1456  0.7157 -0.6360
   27LIT    LIT  136   0.969   2.045   4.966 -0.0047 -0.1364  0.1978
   28LIT    LIT  137   0.813   1.220   3.731  0.5621  0.4433  0.5775
   29LIT    LIT  138   4.650   5.975   0.578  0.1580  0.2921 -0.7677
   30LIT    LIT  139   0.973   4.614   3.720 -0.5844  0.0390 -0.6493
   31LIT    LIT  140   0.901   2.333   3.113  0.2436 -0.1611 -1.0481
   32LIT    LIT  141   1.174   2.466   1.638  0.0008 -0.4039  0.0408
   33LIT    LIT  142   5.638   1.837   3.746  0.5240  0.2822  0.1378
   34CLA    CLA  143   2.206   1.370   4.959 -0.2518 -0.1609 -0.1877
   35CLA    CLA  144   1.460   4.936   4.399  0.1133  0.0951 -0.2669
   36CLA    CLA  145   5.580   0.084   4.750  0.2057 -0.0125  0.2464
   37CLA    CLA  146   2.646   5.726   1.219  0.1745 -0.3390  0.0527
   38CLA    CLA  147   1.327   3.121   1.914  0.3174  0.0167 -0.1874
   39CLA    CLA  148   0.765   1.947   4.990 -0.0358  0.2487  0.2683
   40CLA    CLA  149   0.479   2.403   1.383  0.2048  0.1728  0.1633
   41CLA    CLA  150   1.587   5.459   4.496  0.4413  0.1494  0.1527
   42CLA    CLA  151   3.478   3.937   3.852  0.4634  0.3958  0.0173
   43CLA    CLA  152   6.049   3.550   3.803 -0.1028 -0.1698 -0.1666
   44CLA    CLA  153   6.041   3.961   4.061  0.0759 -0.1817  0.2578
   45CLA    CLA  154   1.480   1.119   1.337  0.0368 -0.2252 -0.2700
   46CLA    CLA  155   1.717   5.890   2.764  0.2190 -0.0161  0.0611
   47CLA    CLA  156   2.947   1.019   2.431  0.4149 -0.3421  0.2426
   48CLA    CLA  157   1.494   4.841   2.389 -0.1577 -0.1293 -0.3040
   49CLA    CLA  158   4.150   2.881   1.549 -0.0238  0.3367  0.3319
   50CLA    CLA  159   6.143   3.248   2.041 -0.0431 -0.3273  0.0873
   51CLA    CLA  160   5.600   5.009   1.360 -0.1725  0.3203 -0.0552
   52TIP3   OH2  161   6.314   1.176   1.425 -0.0624 -0.0699 -0.3583
   52TIP3    H1  162   6.408   1.171   1.408 -0.3422  0.6175 -2.3184
   52TIP3    H2  163   6.280   1.091   1.399 -0.2479  0.3847 -1.6515
   53TIP3   OH2  164   1.264   0.179   1.007 -0.3902  0.0006 -0.5586
   53TIP3    H1  165   1.233   0.222   1.087  0.5963 -0.5071  0.1129
   53TIP3    H2  166   1.285   0.251   0.947  0.8102  0.4642  0.3906
   54TIP3   OH2  167   3.734   0.568   0.381  0.2662  0.4882  0.4848
   54TIP3    H1  168   3.712   0.533   0.467  0.8378  3.1180  1.8074
   54TIP3    H2  169   3.827   0.590   0.387  0.6977 -0.6471 -1.3526
   55TIP3   OH2  170   3.477   0.586   1.618 -0.6141 -0.0282 -0.1755
   55TIP3    H1  171   3.405   0.632   1.575  0.2568  2.6452  1.0034
   55TIP3    H2  172   3.547   0.587   1.553 -0.9262 -0.6335 -0.5262
   56TIP3   OH2  173   5.328   5.005   0.201 -0.1200  0.1981  0.2964
   56TIP3    H1  174   5.246   4.982   0.156  0.4777 -1.3307 -0.0760
   56TIP3    H2  175   5.328   5.100   0.202  1.0928  0.6322 -5.5381
   57TIP3   OH2  176   5.182   1.315   5.053 -0.3120 -0.1423 -0.3669
   57TIP3    H1  177   5.257   1.274   5.011 -0.4180  0.0837 -0.7875
   57TIP3    H2  178   5.107   1.265   5.021 -0.4663  0.5184 -1.0839
   58TIP3   OH2  179   5.283   0.359   4.846  0.3096  0.5465  0.0129
   58TIP3    H1  180   5.355   0.356   4.908 -0.9222 -0.7210  1.4741
   58TIP3    H2  181   5.223   0.425   4.880 -1.0684 -1.1497  1.0945
   59TIP3   OH2  182   6.006   5.387   1.826  0.1603 -0.6075 -0.7460
   59TIP3    H1  183   5.954   5.403   1.905  1.4108  1.8173 -0.3362
   59TIP3    H2  184   6.059   5.310   1.848 -0.0928 -0.4624  0.4834
   60TIP3   OH2  185   0.002   3.322   0.550  0.3716 -0.4557  0.1254
   60TIP3    H1  186  -0.009   3.246   0.607 -0.3457  0.1353  0.7861
   60TIP3    H2  187   0.057   3.290   0.478  0.7201 -1.3904  0.7898
   61TIP3   OH2  188   6.219   1.029   0.517  0.4481 -0.7556 -0.5819
   61TIP3    H1  189   6.168   1.029   0.598  1.8861 -1.5421  0.3630
   61TIP3    H2  190   6.220   0.938   0.489  0.7991 -0.6494 -0.9349
   62TIP3   OH2  191   2.948   5.963   2.341 -0.6991  0.3817 -0.4032
   62TIP3    H1  192   2.960   5.899   2.412 -1.0594 -0.3121 -0.9464
   62TIP3    H2  193   3.005   6.036   2.364 -1.5105  0.5881  1.0863
   63TIP3   OH2  194   6.013   4.849   4.552  0.1990  0.1764  0.3820
   63TIP3    H1  195   5.961   4.770   4.538 -0.0514  0.3895  0.1138
   63TIP3    H2  196   6.103   4.822   4.535  0.7466 -1.1739  4.2392
   64TIP3   OH2  197   0.513   3.326   3.714 -0.2964 -0.6216  0.5592
   64TIP3    H1  198   0.432   3.348   3.762 -0.5800  0.7685 -0.4995
   64TIP3    H2  199   0.573   3.295   3.782 -1.0530  0.2354  1.6650
   65TIP3   OH2  200   2.368   5.713   4.004  0.2644 -0.3696  0.2546
   65TIP3    H1  201   2.432   5.742   4.069 -1.4698  0.6496  1.5919
   65TIP3    H2  202   2.332   5.632   4.040 -0.7899  0.2636  0.6863
   66TIP3   OH2  203   3.985   1.999   3.361  0.7044 -0.1282  0.0892
   66TIP3    H1  204   3.949   2.070   3.308  1.5294  0.0427 -0.2606
   66TIP3    H2  205   3.986   1.923   3.303  3.3240  0.4902 -0.8179
   67TIP3   OH2  206   3.057   4.171   2.581 -0.4680  0.0830 -0.4837
   67TIP3    H1  207   3.045   4.265   2.596 -2.6103 -0.1729 -0.1940
   67TIP3    H2  208   2.984   4.131   2.629  0.6967 -1.7645 -0.1979
   68TIP3   OH2  209   4.903   1.293   4.383 -0.0716  0.5915  0.3969
   68TIP3    H1  210   4.823   1.343   4.367  1.3892  2.9874  0.2120
   68TIP3    H2  211   4.936   1.325   4.466  2.3433  2.0960 -1.0153
   69TIP3   OH2  212   3.982   2.601   1.814 -0.3292  0.0064  0.4630
   69TIP3    H1  213   3.991   2.509   1.838 -0.4751 -0.0507  0.2953
   69TIP3    H2  214   3.973   2.602   1.719 -2.5162  0.0037  0.6122
   70TIP3   OH2  215   0.071   0.933   4.147 -0.0185  0.3287 -0.1436
   70TIP3    H1  216   0.142   0.883   4.187  1.0379  0.2539 -1.9891
   70TIP3    H2  217  -0.005   0.914   4.201  0.5147 -2.5938 -0.2463
   71TIP3   OH2  218   5.689   5.204   0.378 -0.0210  0.5841 -0.0386
   71TIP3    H1  219   5.687   5.113   0.348  1.8763  0.8206 -1.0113
   71TIP3    H2  220   5.713   5.198   0.471 -1.0276  0.0724  0.2058
   72TIP3   OH2  221   1.799   4.701   4.781  0.1288  0.2646  0.8799
   72TIP3    H1  222   1.811   4.643   4.706  0.1277  0.8632  0.4112
   72TIP3    H2  223   1.738   4.768   4.750 -0.1431  0.3218  1.5271
   73TIP3   OH2  224   1.366   4.896   2.646 -0.5008 -0.2895 -0.2850
   73TIP3    H1  225   1.390   4.824   2.704  1.2476  0.4966  0.0308
   73TIP3    H2  226   1.406   4.874   2.562  0.7689  0.6889  0.0418
   74TIP3   OH2  227   1.997   4.050   1.335  0.7110  0.1767  0.0348
   74TIP3    H1  228   1.950   3.987   1.279 -1.3896  1.0010  0.7719
   74TIP3    H2  229   2.076   4.004   1.361 -0.3084 -1.8391 -0.2088
   75TIP3   OH2  230   0.073   5.716   3.936  0.2634 -0.3443  0.2158
   75TIP3    H1  231   0.135   5.761   3.994  4.2664 -2.8227 -1.6827
   75TIP3    H2  232   0.067   5.771   3.859 -1.1110  0.5633  0.9371
   76TIP3   OH2  233   1.748   3.265   0.258  0.1601 -0.1198  0.2761
   76TIP3    H1  234   1.676   3.222   0.211  0.4565  1.8425 -2.1857
   76TIP3    H2  235   1.748   3.224   0.345 -1.7922 -2.4808 -0.7202
   77TIP3   OH2  236   1.616   0.211   2.528  0.3520  0.1472 -0.0768
   77TIP3    H1  237   1.583   0.296   2.498 -0.5688  0.1152  0.7623
   77TIP3    H2  238   1.646   0.167   2.449 -0.6678  0.6266 -0.7514
   78TIP3   OH2  239   1.254   0.611   1.342  0.0830 -0.2758  0.1210
   78TIP3    H1  240   1.307   0.687   1.366  0.2760 -0.5252  0.4937
   78TIP3    H2  241   1.234   0.624   1.249  3.1054 -1.5328 -0.8207
   79TIP3   OH2  242   0.321   0.557   0.038 -0.1218 -0.0577 -0.0048
   79TIP3    H1  243   0.413   0.534   0.023 -0.4026 -0.5900 -0.9702
   79TIP3    H2  244   0.324   0.617   0.112  0.7967 -1.9061  1.5543
   80TIP3   OH2  245   5.412   0.903   1.318 -0.5138 -0.1321 -0.4556
   80TIP3    H1  246   5.379   0.882   1.405  2.7485 -2.7714  0.3983
   80TIP3    H2  247   5.446   0.992   1.325 -3.4295  1.0714 -0.2315
   81TIP3   OH2  248   2.439   1.951   4.374 -0.1568 -0.0403  0.8013
   81TIP3    H1  249   2.524   1.910   4.391  0.6190  1.2005  0.0432
   81TIP3    H2  250   2.437   2.028   4.430 -0.8969 -0.1671  0.9727
   82TIP3   OH2  251   3.743   5.246   1.159 -0.9763 -0.2482 -0.2101
   82TIP3    H1  252   3.682   5.242   1.232 -0.9766  0.1894 -0.1842
   82TIP3    H2  253   3.742   5.158   1.122 -0.6994 -0.5777  0.5415
   83TIP3   OH2  254   4.917   0.017   0.597  0.5432  0.0421 -0.1890
   83TIP3    H1  255   5.005  -0.011   0.573  0.0539 -0.4980 -1.4249
   83TIP3    H2  256   4.873   0.034   0.513 -0.7546 -0.4107  0.3789
   84TIP3   OH2  257   5.178   3.660   3.515  0.1537 -0.0074 -0.0391
   84TIP3    H1  258   5.190   3.641   3.422 -0.5072  0.0853 -0.1429
   84TIP3    H2  259   5.156   3.575   3.554 -0.3474  0.0968 -0.0959
   85TIP3   OH2  260   1.087   4.758   3.802  0.3775 -0.2833 -0.4328
   85TIP3    H1  261   1.024   4.806   3.856  0.4444 -1.3149  0.6150
   85TIP3    H2  262   1.148   4.824   3.771 -1.2666  0.7782 -1.5832
   86TIP3   OH2  263   4.826   3.424   3.937  0.4387  0.5254  0.8928
   86TIP3    H1  264   4.745   3.459   3.898 -0.3405 -0.6936  1.3408
   86TIP3    H2  265   4.858   3.362   3.871  1.2053  1.2364  0.5794
   87TIP3   OH2  266   2.442   5.429   1.469  0.2555  0.1888 -0.0705
   87TIP3    H1  267   2.402   5.492   1.529 -0.7201  0.4399 -0.9607
   87TIP3    H2  268   2.507   5.384   1.522  0.1468  1.1289  0.8970
   88TIP3   OH2  269   1.113   1.744   0.255 -0.1570 -0.0717 -0.0038
   88TIP3    H1  270   1.146   1.670   0.305  0.3109 -0.0676 -0.2992
   88TIP3    H2  271   1.179   1.813   0.267  0.4086 -0.3553 -1.3167
   89TIP3   OH2  272   5.283   2.805   0.770  0.1197 -0.3158 -0.0355
   89TIP3    H1  273   5.348   2.847   0.826 -2.1248  2.1752  0.8642
   89TIP3    H2  274   5.310   2.828   0.681  0.5747  0.5376  0.3079
   90TIP3   OH2  275   5.792   0.586   1.936  0.7485  0.3672 -0.2933
   90TIP3    H1  276   5.713   0.535   1.921  1.2061 -1.0225  1.6533
   90TIP3    H2  277   5.772   0.640   2.012  1.5222  0.2914 -0.0230
   91TIP3   OH2  278   0.708   0.959   2.299 -0.1072  0.5677  0.4149
   91TIP3    H1  279   0.683   1.051   2.311 -0.3183  0.4831  0.6164
   91TIP3    H2  280   0.782   0.963   2.238  0.8303  0.9924  1.5274
   92TIP3   OH2  281   5.352   5.466   3.842 -0.1483 -0.0573  0.9061
   92TIP3    H1  282   5.314   5.390   3.885  0.4545 -0.1540  1.2809
   92TIP3    H2  283   5.393   5.516   3.913 -1.2634  1.0697  0.7929
   93TIP3   OH2  284   4.232   0.671   4.767 -0.4927  0.1681 -0.1145
   93TIP3    H1  285   4.218   0.588   4.721 -0.9561  0.8806 -1.3090
   93TIP3    H2  286   4.149   0.688   4.812 -0.0808 -0.4686  0.9022
   94TIP3   OH2  287   1.546   0.042   4.325 -0.5843  0.5912  0.7016
   94TIP3    H1  288   1.578  -0.048   4.325  1.0613  1.0743  3.0505
   94TIP3    H2  289   1.454   0.034   4.350 -0.0386 -0.4145  2.6496
   95TIP3   OH2  290   4.452   0.962   1.984 -0.1078 -0.1429  0.4159
   95TIP3    H1  291   4.378   0.902   1.977 -0.9681  0.8042  1.0247
   95TIP3    H2  292   4.427   1.037   1.930  0.6918 -0.0726  0.1301
   96TIP3   OH2  293   3.057   5.544   0.675  0.1051  0.1984 -0.6585
   96TIP3    H1  294   3.067   5.560   0.581 -0.6952  1.6219 -0.5224
   96TIP3    H2  295   2.963   5.554   0.691 -0.1557 -2.4502 -0.1029
   97TIP3   OH2  296   2.960   0.061   1.568  0.2490 -0.5525 -0.2894
   97TIP3    H1  297   3.008   0.143   1.581 -0.8373  0.2475 -1.1413
   97TIP3    H2  298   2.958   0.021   1.655  0.4714  0.4980  0.2189
   98TIP3   OH2  299   0.169   4.459   4.729  0.4904  0.0762  0.1070
   98TIP3    H1  300   0.262   4.473   4.746  0.7891 -0.0347 -1.3036
   98TIP3    H2  301   0.167   4.393   4.660 -0.6452  0.0576  0.1413
   99TIP3   OH2  302   1.248   3.161   3.881 -0.4706 -0.6609  0.5570
   99TIP3    H1  303   1.167   3.137   3.926 -0.6269  2.4125  2.1499
   99TIP3    H2  304   1.220   3.224   3.815  0.4557 -0.8431 -0.0218
  100TIP3   OH2  305   0.818   0.069   3.944 -0.1445  0.0290 -0.2298
  100TIP3    H1  306   0.872   0.101   4.016  1.0626 -2.2592 -0.0191
  100TIP3    H2  307   0.821   0.140   3.879 -0.3961  1.7049  1.4902
  101TIP3   OH2  308   2.650   3.374   0.215 -0.2636  0.0859 -0.1640
  101TIP3    H1  309   2.703   3.309   0.261 -0.6796  0.4041  0.7949
  101TIP3    H2  310   2.590   3.407   0.282 -2.2286 -0.8460 -1.3798
  102TIP3   OH2  311   3.240   3.216   2.610  0.2444 -0.1549 -0.0143
  102TIP3    H1  312   3.313   3.218   2.671  0.2844 -1.5333  0.0226
  102TIP3    H2  313   3.212   3.124   2.609 -1.6768  0.3744  0.1964
  103TIP3   OH2  314   5.690   4.409   1.693 -0.6321  0.4155  0.2059
  103TIP3    H1  315   5.732   4.345   1.750 -1.1847  0.5264  0.7530
  103TIP3    H2  316   5.609   4.432   1.739 -1.8109 -0.5611 -1.2902
  104TIP3   OH2  317   0.011   5.445   1.079  0.4158 -0.0588  0.7087
  104TIP3    H1  318   0.048   5.395   1.007 -1.0655  0.6391 -0.5966
  104TIP3    H2  319  -0.025   5.378   1.138 -0.8779 -0.6175 -0.6408
  105TIP3   OH2  320   1.251   1.618   3.929  0.0284 -0.6564 -0.6045
  105TIP3    H1  321   1.230   1.554   3.997  0.6186 -0.2228 -0.0056
  105TIP3    H2  322   1.299   1.687   3.974 -2.4335  1.3238 -0.7804
  106TIP3   OH2  323   3.276   5.635   1.733 -0.7183  0.5987  0.5350
  106TIP3    H1  324   3.195   5.685   1.737 -0.4318  1.4375 -1.9151
  106TIP3    H2  325   3.341   5.699   1.702  0.0417 -0.8786 -1.0545
  107TIP3   OH2  326   6.199   2.134   1.981 -0.2814 -0.8850  0.4220
  107TIP3    H1  327   6.119   2.101   1.942 -0.2212  0.8936 -1.3604
  107TIP3    H2  328   6.268   2.079   1.944 -0.2903  0.3804 -1.6221
  108TIP3   OH2  329   5.113   4.351   3.914 -0.2934 -0.9343 -0.0356
  108TIP3    H1  330   5.075   4.434   3.885  1.3430 -0.1720 -0.1491
  108TIP3    H2  331   5.103   4.292   3.840 -1.6768 -0.9221  0.1246
  109TIP3   OH2  332   1.371   4.152   3.275 -0.1352 -0.1665  0.0753
  109TIP3    H1  333   1.451   4.204   3.269  0.6292 -1.0676  1.7843
  109TIP3    H2  334   1.303   4.215   3.298  0.3636  0.3980  0.0293
  110TIP3   OH2  335   3.267   0.916   1.307 -0.1564  0.0991 -0.1028
  110TIP3    H1  336   3.262   0.939   1.214 -1.1091 -2.1729 -0.6819
  110TIP3    H2  337   3.251   0.821   1.309 -1.5831  0.3023  2.4794
  111TIP3   OH2  338   4.753   0.392   1.796 -0.0487 -0.1552 -0.4452
  111TIP3    H1  339   4.765   0.479   1.758 -2.4027 -0.2761 -1.6354
  111TIP3    H2  340   4.672   0.399   1.846  0.3950 -1.3503  0.4806
  112TIP3   OH2  341   0.461   4.344   0.194 -0.0454 -0.1680 -0.1554
  112TIP3    H1  342   0.453   4.427   0.242  1.2864  0.6740 -1.3254
  112TIP3    H2  343   0.378   4.299   0.212 -1.3445  1.9302 -0.4411
  113TIP3   OH2  344   1.160   0.948   2.560  0.2961  0.4381  0.1049
  113TIP3    H1  345   1.070   0.918   2.568 -0.1413  1.8744  0.9133
  113TIP3    H2  346   1.186   0.969   2.650  2.2102 -1.9845  0.2372
  114TIP3   OH2  347   3.519   2.135   1.155  0.4966  0.2993  0.2036
  114TIP3    H1  348   3.604   2.175   1.138  0.2697  0.7235  0.0628
  114TIP3    H2  349   3.532   2.085   1.236  0.6965  0.9229  0.5632
  115TIP3   OH2  350   3.838   4.224   2.329 -0.6099 -0.0894 -0.2763
  115TIP3    H1  351   3.916   4.218   2.273  0.1789  1.2352  0.6196
  115TIP3    H2  352   3.865   4.280   2.402 -2.6145  0.9947 -0.2983
  116TIP3   OH2  353   4.468   5.961   4.892 -0.9474  0.7989 -0.1852
  116TIP3    H1  354   4.493   5.971   4.984 -0.1192 -1.1036 -0.1426
  116TIP3    H2  355   4.378   5.929   4.895 -0.9977  0.9503 -0.0493
  117TIP3   OH2  356   5.181   4.195   3.653  0.5057 -0.3404 -0.2450
  117TIP3    H1  357   5.105   4.137   3.643 -1.8010  2.3165  0.7832
  117TIP3    H2  358   5.256   4.136   3.644 -1.6195 -3.5979  1.1784
  118TIP3   OH2  359   4.938   5.149   3.818 -0.5418  0.1389  0.1437
  118TIP3    H1  360   4.955   5.069   3.767 -0.0962  0.3065  0.0229
  118TIP3    H2  361   4.952   5.220   3.756  0.7332  0.3772  0.6754
  119TIP3   OH2  362   4.018   3.700   1.095  0.7671  0.4435  1.2466
  119TIP3    H1  363   4.104   3.664   1.120  0.9445 -0.3813 -0.4271
  119TIP3    H2  364   3.989   3.644   1.023 -1.2346  0.6740  1.8330
  120TIP3   OH2  365   0.031   4.781   4.079 -0.2609 -0.2873  0.1865
  120TIP3    H1  366   0.061   4.869   4.058  1.6939 -0.9478  0.0255
  120TIP3    H2  367   0.074   4.760   4.161 -3.4474  0.1504  2.1168
  121TIP3   OH2  368   0.597   0.818   1.928 -1.0887  0.4304  0.4611
  121TIP3    H1  369   0.626   0.773   2.007  0.0918  0.7074  0.1984
  121TIP3    H2  370   0.646   0.778   1.857 -1.0120  1.2136  0.0610
  122TIP3   OH2  371   3.294   5.035   4.472 -0.4824 -0.1294  0.1749
  122TIP3    H1  372   3.378   4.991   4.481 -0.2821  0.5473  2.1197
  122TIP3    H2  373   3.234   4.984   4.527 -1.3188 -0.4924 -1.0355
  123TIP3   OH2  374   4.673   0.365   2.919  0.3089 -0.3022 -0.7704
  123TIP3    H1  375   4.764   0.395   2.917 -0.0066  0.6715 -0.8711
  123TIP3    H2  376   4.670   0.302   2.992  1.7511 -2.6951 -2.6409
  124TIP3   OH2  377   2.674   0.142   0.818  0.2578  0.6772  0.2090
  124TIP3    H1  378   2.663   0.050   0.792 -0.9227  0.7583  0.4037
  124TIP3    H2  379   2.658   0.192   0.738  1.9332  0.6974 -0.1600
  125TIP3   OH2  380   0.525   1.526   2.539 -0.0583  0.0478  0.5054
  125TIP3    H1  381   0.513   1.585   2.613  2.2473  0.9450  0.2317
  125TIP3    H2  382   0.449   1.543   2.483  0.0593  2.0915  0.8925
  126TIP3   OH2  383   5.070   3.636   1.015 -0.1543 -0.1103 -0.4199
  126TIP3    H1  384   5.079   3.702   0.947  0.7579 -0.7720 -0.9651
  126TIP3    H2  385   5.074   3.552   0.969 -1.3320 -0.5673  0.2539
  127TIP3   OH2  386   0.915   2.673   3.380 -0.0824  0.2664 -0.0431
  127TIP3    H1  387   0.989   2.716   3.424  0.5844 -1.6461  0.8015
  127TIP3    H2  388   0.845   2.674   3.446 -0.1398  0.2683 -0.1042
  128TIP3   OH2  389   0.367   2.572   3.291 -0.4733  0.3867  0.1398
  128TIP3    H1  390   0.384   2.657   3.251  0.1846  0.8278  1.2985
  128TIP3    H2  391   0.303   2.531   3.233 -0.1803  1.3212 -0.8923
  129TIP3   OH2  392   0.741   2.809   0.336 -0.1392  0.0484 -0.3958
  129TIP3    H1  393   0.789   2.823   0.255 -0.7801 -0.4700 -0.8769
  129TIP3    H2  394   0.727   2.715   0.340 -0.9116  0.1620 -0.1581
  130TIP3   OH2  395   3.537   4.443   1.022 -0.2443  0.1840  0.4047
  130TIP3    H1  396   3.447   4.441   1.056 -0.4586 -0.9253 -0.1562
  130TIP3    H2  397   3.562   4.350   1.019 -0.0238  0.2674 -1.8488
  131TIP3   OH2  398   3.200   0.638   1.927 -0.6355 -0.4604  0.2078
  131TIP3    H1  399   3.282   0.657   1.881  0.0235 -0.8890  1.1853
  131TIP3    H2  400   3.168   0.723   1.956  1.7896 -0.5246  3.7053
  132TIP3   OH2  401   0.256   4.381   0.818  0.3397  0.0734 -0.9022
  132TIP3    H1  402   0.252   4.300   0.767  0.2429  0.0295 -0.8273
  132TIP3    H2  403   0.174   4.426   0.796  0.6646  0.4286 -1.3964
  133TIP3   OH2  404   4.501   4.048   4.633 -0.2651 -0.5216  0.8425
  133TIP3    H1  405   4.495   3.954   4.651  0.7003 -1.0286 -1.1469
  133TIP3    H2  406   4.593   4.070   4.648 -0.5915  0.2323  1.7845
  134TIP3   OH2  407   1.024   2.928   4.873  0.2219 -0.0682 -0.2346
  134TIP3    H1  408   1.082   2.873   4.927 -0.0948 -0.4134 -0.2404
  134TIP3    H2  409   1.073   3.009   4.860 -0.1764  0.5195  1.6126
  135TIP3   OH2  410   1.511   1.333   2.055  0.1414 -0.0730  0.3283
  135TIP3    H1  411   1.426   1.292   2.038  0.4294  0.4943 -3.2583
  135TIP3    H2  412   1.569   1.260   2.079 -0.8320 -0.7534  0.6938
  136TIP3   OH2  413   3.375   0.664   0.778  0.1001 -0.1051  0.1357
  136TIP3    H1  414   3.357   0.608   0.854  0.6014 -0.8168 -0.2511
  136TIP3    H2  415   3.429   0.735   0.813  2.6527 -1.8318  0.0463
  137TIP3   OH2  416   5.951   3.646   4.339  0.4047  0.3532 -0.1187
  137TIP3    H1  417   6.036   3.604   4.331 -1.2487 -4.2437  2.5915
  137TIP3    H2  418   5.915   3.644   4.250  1.6062 -1.4633 -0.6282
  138TIP3   OH2  419   0.147   5.770   2.437  0.1593  0.2546  0.2730
  138TIP3    H1  420   0.227   5.799   2.392  0.8371 -0.7961  0.7683
  138TIP3    H2  421   0.093   5.732   2.368 -0.0307  1.1566 -0.1000
  139TIP3   OH2  422   4.285   1.954   1.293 -0.3898 -0.2174 -0.0115
  139TIP3    H1  423   4.286   2.012   1.217 -1.8600  1.9908  1.5332
  139TIP3    H2  424   4.217   1.890   1.273 -1.5119  0.9830 -0.1856
  140TIP3   OH2  425   3.264   1.786   0.029  0.3613 -0.1259 -0.3925
  140TIP3    H1  426   3.303   1.857  -0.022  1.2039 -0.0516  0.3259
  140TIP3    H2  427   3.332   1.762   0.093  0.5292 -2.3291 -1.3226
  141TIP3   OH2  428   0.343   4.228   2.298  0.0751 -0.0115  0.1610
  141TIP3    H1  429   0.267   4.260   2.345 -1.8453 -3.3093 -0.4041
  141TIP3    H2  430   0.369   4.148   2.345  1.1370 -0.7273 -1.5436
  142TIP3   OH2  431   5.726   4.283   4.275  0.4634 -0.0042 -0.6360
  142TIP3    H1  432   5.813   4.261   4.240  1.8144  1.4521  1.5798
  142TIP3    H2  433   5.694   4.352   4.217  2.5671  2.2207  0.6490
  143TIP3   OH2  434   4.492   1.817   1.613 -0.0786  0.3864  0.0280
  143TIP3    H1  435   4.492   1.913   1.618 -0.5826  0.5400 -1.9315
  143TIP3    H2  436   4.414   1.790   1.661  0.9686  0.7938  2.0710
  144TIP3   OH2  437   5.130   3.191   0.762  0.2501 -0.5407 -0.0177
  144TIP3    H1  438   5.070   3.125   0.797  0.6434 -1.3283 -0.7771
  144TIP3    H2  439   5.150   3.160   0.674  0.1982  0.7769 -0.5160
  145TIP3   OH2  440   5.180   1.930   2.486 -0.0101  0.1759 -0.5789
  145TIP3    H1  441   5.120   1.878   2.432 -0.8695  1.3070 -0.7497
  145TIP3    H2  442   5.215   1.995   2.426 -1.4501  1.8482  0.3108
  146TIP3   OH2  443   4.738   1.406   5.112  0.0551 -0.2091 -0.2003
  146TIP3    H1  444   4.727   1.499   5.132 -1.4152 -0.0047 -1.7250
  146TIP3    H2  445   4.729   1.362   5.196  1.5480  1.0446  0.6736
  147TIP3   OH2  446   2.943   5.197   2.084  0.1791  0.1224 -0.1625
  147TIP3    H1  447   2.927   5.288   2.106 -0.0294  0.4740 -1.6477
  147TIP3    H2  448   2.877   5.176   2.017  0.1883 -1.1319  0.1912
  148TIP3   OH2  449   4.041   3.014   2.541  0.1362 -0.2514  0.4186
  148TIP3    H1  450   3.987   2.942   2.575 -1.1428  0.5918  0.2619
  148TIP3    H2  451   4.130   2.992   2.569 -0.2685 -1.7061  0.6758
  149TIP3   OH2  452   0.848   2.809   3.161  0.3635 -0.8806 -0.2928
  149TIP3    H1  453   0.878   2.772   3.244  0.6536 -0.7852 -0.3554
  149TIP3    H2  454   0.770   2.758   3.139 -0.8474  0.3373  0.9944
  150TIP3   OH2  455   0.566   4.309   5.168  0.3136  0.1750 -0.0152
  150TIP3    H1  456   0.574   4.299   5.073  2.3102  0.2001  0.1044
  150TIP3    H2  457   0.622   4.240   5.204 -1.4713 -0.7308  1.2107
  151TIP3   OH2  458   3.050   0.061   0.009  0.0473 -0.7776 -0.8067
  151TIP3    H1  459   3.130   0.037  -0.037 -0.7128 -0.9273 -2.0998
  151TIP3    H2  460   3.068   0.040   0.101  1.3981 -1.0135 -1.1036
  152TIP3   OH2  461   4.069   2.867   3.382  0.0848 -0.0024 -0.5430
  152TIP3    H1  462   4.107   2.939   3.432 -1.8207  1.3509 -0.9267
  152TIP3    H2  463   4.036   2.908   3.302 -1.2598 -1.2311 -0.6712
  153TIP3   OH2  464   5.602   1.320   4.306  0.1605  0.3684 -0.1268
  153TIP3    H1  465   5.617   1.394   4.246  2.5457  0.7192  0.7870
  153TIP3    H2  466   5.507   1.313   4.313 -0.2604  4.6425  1.2203
  154TIP3   OH2  467   1.387   4.765   4.004  0.1145  0.0340 -0.6209
  154TIP3    H1  468   1.421   4.780   3.916  2.1390  1.1306  0.2658
  154TIP3    H2  469   1.444   4.817   4.061 -2.1069  0.6208  1.2174
  155TIP3   OH2  470   1.525   5.627   4.153 -0.1569  0.3523  0.4782
  155TIP3    H1  471   1.474   5.633   4.234 -1.2818  1.1824 -0.2532
  155TIP3    H2  472   1.559   5.537   4.152 -1.0761 -0.0182  1.3129
  156TIP3   OH2  473   3.265   2.201   4.410  0.2092 -0.4154 -0.2342
  156TIP3    H1  474   3.317   2.277   4.436  0.3837 -0.1319 -1.3809
  156TIP3    H2  475   3.219   2.229   4.331 -2.2848 -0.3990  1.0995
  157TIP3   OH2  476   2.718   4.501   2.371  0.3805  0.2389  0.2945
  157TIP3    H1  477   2.759   4.497   2.285 -0.4884 -1.4321 -0.0788
  157TIP3    H2  478   2.772   4.563   2.420  0.8015  1.3348 -1.4772
  158TIP3   OH2  479   5.698   0.831   0.958  0.0558  0.9647  0.0154
  158TIP3    H1  480   5.662   0.920   0.963 -0.6192  0.6668  0.8327
  158TIP3    H2  481   5.635   0.783   0.905  0.0734  0.8237  0.1211
  159TIP3   OH2  482   5.068   4.991   0.095 -0.0976  0.6058 -0.4986
  159TIP3    H1  483   5.030   4.905   0.077 -0.4344  0.5641  0.3471
  159TIP3    H2  484   4.992   5.048   0.110  0.1336  0.9145 -0.4907
  160TIP3   OH2  485   2.474   0.377   2.903  0.0008 -0.6683 -0.3638
  160TIP3    H1  486   2.415   0.420   2.964  2.4774 -1.3866  2.7550
  160TIP3    H2  487   2.484   0.288   2.937  1.6111 -1.0741 -1.7390
  161TIP3   OH2  488   6.205   1.941   5.079  0.3627 -0.0479 -0.1486
  161TIP3    H1  489   6.255   1.865   5.107  0.7807  0.1970 -0.2252
  161TIP3    H2  490   6.264   1.989   5.021  0.3159  0.6460  0.3629
  162TIP3   OH2  491   5.364   1.473   4.558  0.2104 -0.1587  0.2156
  162TIP3    H1  492   5.437   1.534   4.570  1.5799 -1.2932 -1.7853
  162TIP3    H2  493   5.332   1.491   4.470  0.3017 -1.9410 -0.2184
  163TIP3   OH2  494   1.646   2.471   2.620 -0.4929 -0.3690 -0.0525
  163TIP3    H1  495   1.586   2.441   2.689  0.5417 -2.1902  0.1052
  163TIP3    H2  496   1.699   2.395   2.599 -1.8189 -0.4578 -4.0643
  164TIP3   OH2  497   4.881   0.380   0.779  0.3258 -0.2882  0.2346
  164TIP3    H1  498   4.872   0.287   0.758  1.6908 -0.3358 -0.2697
  164TIP3    H2  499   4.916   0.419   0.698  1.0248  0.4133  0.8566
  165TIP3   OH2  500   6.251   5.468   0.300 -0.3824 -0.7881  0.4895
  165TIP3    H1  501   6.226   5.529   0.368 -0.5807 -0.7099  0.3463
  165TIP3    H2  502   6.337   5.499   0.270 -1.4563  0.7691 -1.1490
  166TIP3   OH2  503   4.725   4.855   0.627 -0.2931  0.4990  0.0074
  166TIP3    H1  504   4.691   4.931   0.675 -5.5733 -1.6024  0.2250
  166TIP3    H2  505   4.774   4.805   0.692 -1.0798  1.2621  1.2139
  167TIP3   OH2  506   2.865   1.315   2.351 -0.4156 -0.2682  0.1383
  167TIP3    H1  507   2.888   1.232   2.392  1.4025  0.6643  1.1627
  167TIP3    H2  508   2.923   1.320   2.275 -1.6507 -0.6319 -0.8489
  168TIP3   OH2  509   2.958   5.891   5.040 -0.3617  0.3652  0.2134
  168TIP3    H1  510   3.011   5.821   5.002 -0.7756  0.8378 -1.2985
  168TIP3    H2  511   2.967   5.964   4.979 -1.3431  1.0463  0.8500
  169TIP3   OH2  512   1.794   3.604   3.748 -0.3951 -0.5594 -0.0730
  169TIP3    H1  513   1.783   3.595   3.842  0.2248  0.8692  0.1702
  169TIP3    H2  514   1.838   3.689   3.737 -0.6822 -0.5792 -1.6557
  170TIP3   OH2  515   5.914   4.552   4.281 -0.2945  0.1029 -0.1509
  170TIP3    H1  516   5.928   4.459   4.297 -1.3848 -0.1723 -0.6791
  170TIP3    H2  517   5.973   4.573   4.208  0.8878  0.1423  0.8014
  171TIP3   OH2  518   0.039   1.472   4.585 -0.2468  0.1228  0.3277
  171TIP3    H1  519   0.055   1.391   4.633 -0.2004  0.5333  1.0172
  171TIP3    H2  520   0.110   1.476   4.521 -0.9226 -0.9701 -0.5307
  172TIP3   OH2  521   3.321   4.676   1.080 -0.6989 -0.3027 -0.6400
  172TIP3    H1  522   3.261   4.652   1.009 -0.8622 -0.4781 -0.4420
  172TIP3    H2  523   3.369   4.751   1.046  0.2290 -1.2446 -1.5077
  173TIP3   OH2  524   1.896   0.820   1.037 -0.0028 -0.7214  1.0887
  173TIP3    H1  525   1.817   0.871   1.055 -2.7015 -4.1722  0.1752
  173TIP3    H2  526   1.968   0.875   1.069 -2.7344  2.4933  2.3353
  174TIP3   OH2  527   1.928   4.750   0.215  0.2107 -0.0057  0.0330
  174TIP3    H1  528   1.945   4.815   0.283  1.9350 -0.6921  0.3018
  174TIP3    H2  529   1.833   4.738   0.217  0.1520  0.4633  1.8932
  175TIP3   OH2  530   5.364   4.006   3.679  0.7069 -0.0709 -0.4052
  175TIP3    H1  531   5.388   4.064   3.751  0.2318 -0.0278 -0.2800
  175TIP3    H2  532   5.323   3.931   3.722 -1.3966  0.8244 -0.7098
  176TIP3   OH2  533   1.694   1.625   0.829 -0.0031  0.0584 -0.2467
  176TIP3    H1  534   1.659   1.694   0.886 -0.8004 -0.8584  0.4109
  176TIP3    H2  535   1.784   1.652   0.811  0.0093  0.7809  0.8005
  177TIP3   OH2  536   2.071   4.566   1.291 -0.0375 -0.0960  0.5571
  177TIP3    H1  537   2.016   4.575   1.369 -1.9577 -2.3940 -0.3988
  177TIP3    H2  538   2.112   4.480   1.300  1.7880  0.6973  0.2256
  178TIP3   OH2  539   1.529   4.554   4.217  0.0424  0.4176  0.2684
  178TIP3    H1  540   1.471   4.609   4.164 -0.9128 -0.2843  0.5619
  178TIP3    H2  541   1.607   4.544   4.163 -1.7364 -2.1304 -2.1020
  179TIP3   OH2  542   6.061   4.815   2.789 -0.1375  0.0741 -0.0952
  179TIP3    H1  543   6.066   4.841   2.881  0.6538  0.9376 -0.3663
  179TIP3    H2  544   6.095   4.725   2.787  2.3247  0.9214  0.1375
  180TIP3   OH2  545   6.225   0.216   4.863  0.2116  0.7745  0.0285
  180TIP3    H1  546   6.166   0.263   4.804 -0.7781  0.2389  0.5600
  180TIP3    H2  547   6.248   0.136   4.815  0.7142  1.1041 -0.2828
  181TIP3   OH2  548   2.278   1.142   1.527  0.6206 -0.5679  0.3284
  181TIP3    H1  549   2.357   1.100   1.494  0.7495  1.7763 -2.7863
  181TIP3    H2  550   2.310   1.209   1.589  1.0107 -0.2865 -0.1706
  182TIP3   OH2  551   1.050   4.162   4.724  0.3143  0.4503 -0.2367
  182TIP3    H1  552   1.068   4.161   4.630  1.0275 -0.4636 -0.1076
  182TIP3    H2  553   1.128   4.122   4.764 -0.8457 -1.1531  0.5655
  183TIP3   OH2  554   5.576   4.941   0.320  0.2302  0.1922 -0.4765
  183TIP3    H1  555   5.583   4.850   0.346  0.9020  0.3841  0.0383
  183TIP3    H2  556   5.495   4.946   0.269 -0.6389 -0.3789  0.7972
  184TIP3   OH2  557   5.854   0.268   1.348  0.0723 -0.1765  0.0188
  184TIP3    H1  558   5.764   0.294   1.368  0.5245  0.2203  1.6239
  184TIP3    H2  559   5.851   0.243   1.255 -1.7431 -0.4303  0.1042
  185TIP3   OH2  560   0.446   2.660   1.804 -0.2691 -0.0394  0.1885
  185TIP3    H1  561   0.395   2.586   1.839 -2.3130  0.7062 -1.0311
  185TIP3    H2  562   0.395   2.737   1.828 -0.3434  0.6652 -2.0289
  186TIP3   OH2  563   3.623   2.893   3.644 -0.0334  0.7755  0.0318
  186TIP3    H1  564   3.660   2.900   3.732  1.2311  2.6602 -0.5859
  186TIP3    H2  565   3.528   2.894   3.657  0.1271  0.0734  1.4075
  187TIP3   OH2  566   1.326   3.951   4.528  1.1436  0.1067 -0.3962
  187TIP3    H1  567   1.270   4.026   4.512  0.9181 -0.1074 -0.6077
  187TIP3    H2  568   1.301   3.920   4.616 -0.3812 -1.1154 -1.2076
  188TIP3   OH2  569   5.750   0.571   2.616  0.1869  0.0547 -0.7075
  188TIP3    H1  570   5.817   0.503   2.625  1.0267  0.9532  0.2074
  188TIP3    H2  571   5.800   0.652   2.605 -0.7955  0.4867 -2.2656
  189TIP3   OH2  572   5.205   5.338   1.342 -0.0570  0.2752  0.3878
  189TIP3    H1  573   5.286   5.382   1.369  0.1447 -0.9236  1.8665
  189TIP3    H2  574   5.148   5.344   1.418 -0.4598 -0.9551  0.2090
  190TIP3   OH2  575   0.769   1.353   2.503  0.0526  0.5773  0.8562
  190TIP3    H1  576   0.693   1.410   2.515  0.5311  0.9732  2.2127
  190TIP3    H2  577   0.811   1.350   2.589  1.4717  0.2112  0.1903
  191TIP3   OH2  578   1.329   2.082   1.802 -0.4564 -0.0766 -0.2823
  191TIP3    H1  579   1.316   2.057   1.710  0.4336  1.6052 -0.9142
  191TIP3    H2  580   1.332   1.999   1.849  0.9294 -1.0880 -2.0287
  192TIP3   OH2  581   0.981   4.479   2.099  0.4323  0.1661 -0.3176
  192TIP3    H1  582   1.007   4.440   2.016  1.1318 -0.4355  0.1616
  192TIP3    H2  583   1.022   4.423   2.165  0.4607  1.0299  0.4215
  193TIP3   OH2  584   0.515   0.231   3.498  0.4043  0.3428 -0.6090
  193TIP3    H1  585   0.533   0.179   3.576 -3.1761 -0.7942 -0.3258
  193TIP3    H2  586   0.507   0.166   3.427 -1.0692  0.7642 -0.8753
  194TIP3   OH2  587   5.975   0.226   5.075 -0.5586  0.7011  0.0375
  194TIP3    H1  588   5.905   0.233   5.009 -1.1275  2.3079  0.7806
  194TIP3    H2  589   6.035   0.297   5.054  1.6410 -1.3836 -1.3681
  195TIP3   OH2  590   4.369   1.782   4.602  0.2764 -0.3919 -0.2582
  195TIP3    H1  591   4.298   1.753   4.660  1.2656  0.1788  1.3024
  195TIP3    H2  592   4.414   1.850   4.651  1.6018 -0.3764 -1.4265
  196TIP3   OH2  593   1.095   0.210   2.057 -0.5610  0.1833 -0.0370
  196TIP3    H1  594   1.066   0.287   2.008 -1.5494  0.2620  0.6494
  196TIP3    H2  595   1.178   0.237   2.096  0.4768 -0.0274 -1.9910
  197TIP3   OH2  596   4.148   3.461   3.568  0.2717  0.3042  0.6791
  197TIP3    H1  597   4.140   3.556   3.564 -2.6599  0.1212 -0.0903
  197TIP3    H2  598   4.195   3.437   3.488 -1.1174  1.0133 -0.4014
  198TIP3   OH2  599   4.630   0.855   0.309 -1.0004  0.3956  0.1181
  198TIP3    H1  600   4.555   0.861   0.250 -0.3961 -0.5822 -0.7733
  198TIP3    H2  601   4.600   0.896   0.390 -2.2534  0.6587 -0.4583
  199TIP3   OH2  602   0.739   3.357   3.186 -0.2456  0.0213  0.3364
  199TIP3    H1  603   0.661   3.410   3.168 -0.2745 -0.3371 -0.6245
  199TIP3    H2  604   0.806   3.421   3.212 -0.2911  0.5321 -0.7654
  200TIP3   OH2  605   1.126   3.621   1.515  0.3435 -0.5294  0.0426
  200TIP3    H1  606   1.217   3.638   1.490  0.1779  0.9920  0.3402
  200TIP3    H2  607   1.074   3.671   1.452 -0.2247 -0.1938  0.7580
  201TIP3   OH2  608   5.789   2.078   1.415  0.0843  0.1173 -0.1509
  201TIP3    H1  609   5.839   1.999   1.434 -1.1320 -0.7648 -0.4352
  201TIP3    H2  610   5.851   2.137   1.372  1.4023 -0.0762  1.3908
  202TIP3   OH2  611   4.756   2.679   2.813 -0.6934  0.3520  0.3146
  202TIP3    H1  612   4.679   2.714   2.857 -0.2703  1.6754  0.0401
  202TIP3    H2  613   4.776   2.743   2.745 -0.8985 -1.2662 -1.3596
  203TIP3   OH2  614   0.250   0.042   0.665  0.6042 -0.1067  0.0945
  203TIP3    H1  615   0.195   0.087   0.600  1.7921  0.1999 -0.7446
  203TIP3    H2  616   0.205   0.055   0.748 -0.5164  0.2417 -0.5428
  204TIP3   OH2  617   0.645   0.308   4.728  0.1299 -0.3524 -0.5911
  204TIP3    H1  618   0.643   0.217   4.698 -0.3469 -1.6329  2.9107
  204TIP3    H2  619   0.553   0.333   4.734  0.2589  0.4021 -1.4901
  205TIP3   OH2  620   2.775   3.108   0.161 -0.1895  0.1918  0.0411
  205TIP3    H1  621   2.687   3.072   0.156 -0.4936  1.0111 -0.8267
  205TIP3    H2  622   2.788   3.128   0.254 -1.1700  0.6645  0.0867
  206TIP3   OH2  623   1.321   2.289   4.051  0.3196  0.0647 -0.2160
  206TIP3    H1  624   1.298   2.308   3.960 -0.9258 -0.6834 -0.0870
  206TIP3    H2  625   1.378   2.213   4.046  0.9882  0.5667 -0.4100
  207TIP3   OH2  626   3.296   3.509   2.143 -0.3407  0.1475 -0.0566
  207TIP3    H1  627   3.338   3.441   2.090  0.8464 -2.0529  3.4050
  207TIP3    H2  628   3.302   3.477   2.233 -2.0790  3.6958  1.5156
  208TIP3   OH2  629   4.133   0.147   3.706  0.2324  0.0362 -0.1006
  208TIP3    H1  630   4.124   0.055   3.731 -1.3827  0.1002 -0.3514
  208TIP3    H2  631   4.091   0.153   3.621  3.4877  0.3202 -1.8526
  209TIP3   OH2  632   2.797   3.446   0.479  0.0665 -0.3107 -0.1716
  209TIP3    H1  633   2.837   3.530   0.500 -2.0660  0.7299 -0.0830
  209TIP3    H2  634   2.762   3.414   0.563  0.9994 -1.3948 -0.1654
  210TIP3   OH2  635   4.335   0.704   3.947  0.3528  0.7140 -0.0845
  210TIP3    H1  636   4.389   0.773   3.985 -0.2230  0.1924  1.7848
  210TIP3    H2  637   4.349   0.628   4.004 -0.6756 -0.0866 -0.8468
  211TIP3   OH2  638   5.862   1.474   1.639  0.6964  0.3342 -0.3400
  211TIP3    H1  639   5.828   1.517   1.717  0.2013 -0.7834  0.0914
  211TIP3    H2  640   5.911   1.399   1.672  3.9911  2.0855 -0.9284
  212TIP3   OH2  641   1.354   1.040   3.404  0.5137  0.5871  0.1916
  212TIP3    H1  642   1.373   1.089   3.324 -0.2356  0.2580 -0.2040
  212TIP3    H2  643   1.264   1.065   3.426  0.7388  0.7156  0.9642
  213TIP3   OH2  644   1.659   2.797   1.139  0.0323 -0.0898  0.2613
  213TIP3    H1  645   1.675   2.835   1.226 -0.3027 -1.9176  1.1623
  213TIP3    H2  646   1.744   2.763   1.112  0.1366  0.4806 -0.1473
  214TIP3   OH2  647   4.658   5.108   3.859  0.2856  0.3707  0.3045
  214TIP3    H1  648   4.687   5.096   3.949  0.9204  2.1685  0.3705
  214TIP3    H2  649   4.739   5.124   3.810 -0.1548  0.5636 -0.3810
  215TIP3   OH2  650   0.246   4.240   4.979 -0.4068  0.2862  0.2189
  215TIP3    H1  651   0.163   4.215   4.940  0.2945 -0.2020 -0.9930
  215TIP3    H2  652   0.304   4.166   4.962  0.5005  0.9512  0.3484
  216TIP3   OH2  653   2.968   4.960   2.563  0.0215  0.1250  0.4071
  216TIP3    H1  654   3.060   4.945   2.585  0.4140  0.8956 -0.6378
  216TIP3    H2  655   2.970   5.013   2.484 -1.3355 -0.1392  0.1652
  217TIP3   OH2  656   1.422   4.582   2.526 -0.2639  0.1735 -0.6358
  217TIP3    H1  657   1.429   4.517   2.456  1.8724 -0.5860  0.2041
  217TIP3    H2  658   1.454   4.663   2.487 -0.8100  0.2019 -1.0416
  218TIP3   OH2  659   5.798   0.221   2.909  0.1886  0.2516  0.0058
  218TIP3    H1  660   5.790   0.236   3.003 -1.5802 -1.2004  0.1403
  218TIP3    H2  661   5.737   0.283   2.869  0.7172  0.6611 -0.1743
  219TIP3   OH2  662   2.175   5.299   2.529 -0.3944  0.1190 -0.6657
  219TIP3    H1  663   2.184   5.383   2.574 -1.7505 -1.2976  2.5795
  219TIP3    H2  664   2.083   5.275   2.541 -0.1746 -1.6108 -1.9674
  220TIP3   OH2  665   0.971   2.731   4.282 -0.8510 -0.0257  0.3307
  220TIP3    H1  666   1.060   2.750   4.252 -1.0799  1.3730  0.4514
  220TIP3    H2  667   0.926   2.701   4.204 -0.3039 -0.6401  0.2439
  221TIP3   OH2  668   4.348   3.738   4.367 -0.3700 -0.4344  0.3627
  221TIP3    H1  669   4.350   3.829   4.397 -1.2150  0.5566 -2.2850
  221TIP3    H2  670   4.436   3.721   4.334 -0.9186  0.4611 -1.7261
  222TIP3   OH2  671   4.779   4.093   1.127 -0.2461  0.7557  0.0275
  222TIP3    H1  672   4.829   4.089   1.046 -1.3398  3.8457 -0.9371
  222TIP3    H2  673   4.761   4.186   1.140 -2.8340  0.1049  2.1224
  223TIP3   OH2  674   6.138   1.271   2.760 -0.0008  0.4731  0.2966
  223TIP3    H1  675   6.224   1.253   2.798 -0.3018  0.7537  1.1442
  223TIP3    H2  676   6.156   1.292   2.669  0.5919 -1.7205 -0.1483
  224TIP3   OH2  677   2.250   0.441   0.971 -0.1385  0.1306 -0.6885
  224TIP3    H1  678   2.241   0.413   1.062 -1.0349  3.8565  0.5532
  224TIP3    H2  679   2.342   0.424   0.949  0.0289 -1.0489  0.7803
  225TIP3   OH2  680   0.789   0.838   0.602  0.0074 -0.2760  0.5841
  225TIP3    H1  681   0.807   0.931   0.592 -0.0718 -0.0749  2.0964
  225TIP3    H2  682   0.873   0.796   0.585  0.6841  0.2793  2.3305
  226TIP3   OH2  683   2.246   1.611   1.726 -0.9610 -0.4790  0.4442
  226TIP3    H1  684   2.267   1.543   1.790  1.7610 -0.3277 -0.1440
  226TIP3    H2  685   2.246   1.692   1.778  0.5264 -0.4365  0.4185
  227TIP3   OH2  686   5.081   4.030   4.296  0.2242  0.1323  0.5372
  227TIP3    H1  687   5.092   4.114   4.252 -2.4280  0.3130  0.0449
  227TIP3    H2  688   5.066   4.052   4.388 -0.3550  0.2085  0.4280
  228TIP3   OH2  689   4.491   4.700   1.317 -0.4376 -0.1191 -0.3690
  228TIP3    H1  690   4.400   4.689   1.343 -0.5561 -2.4528 -1.4997
  228TIP3    H2  691   4.488   4.710   1.222  0.4680  0.5351 -0.3521
  229TIP3   OH2  692   6.093   2.504   0.470 -0.5919 -0.5804  0.1407
  229TIP3    H1  693   6.056   2.577   0.420 -1.1902 -0.7856  0.2668
  229TIP3    H2  694   6.185   2.501   0.446  0.0101  1.6484  1.7880
  230TIP3   OH2  695   5.509   0.942   4.167 -0.2751 -0.0123 -0.9491
  230TIP3    H1  696   5.582   1.000   4.143  0.1197  0.2855  0.8565
  230TIP3    H2  697   5.454   0.940   4.089  0.4468  1.6380 -1.5502
  231TIP3   OH2  698   2.969   2.768   3.825 -0.0554  0.0173  0.1942
  231TIP3    H1  699   2.963   2.749   3.919 -0.3861 -0.6156  0.0555
  231TIP3    H2  700   2.889   2.817   3.806 -1.0852 -1.7046 -0.1520
  232TIP3   OH2  701   5.752   2.358   1.647 -0.1874  0.4133 -0.4479
  232TIP3    H1  702   5.821   2.388   1.587 -1.5134  0.8487 -1.8227
  232TIP3    H2  703   5.684   2.323   1.589 -1.0797 -0.1265  0.8765
  233TIP3   OH2  704   3.759   3.141   3.627 -0.3646  0.1550  0.3479
  233TIP3    H1  705   3.702   3.064   3.625  0.3439 -0.3533 -1.7256
  233TIP3    H2  706   3.839   3.111   3.670 -0.5959  0.1223  0.7627
  234TIP3   OH2  707   0.195   1.268   3.377  0.0174  0.1019  0.2565
  234TIP3    H1  708   0.234   1.222   3.450 -0.6669 -1.1109 -0.1215
  234TIP3    H2  709   0.269   1.296   3.323  0.6269  2.2090  2.0533
  235TIP3   OH2  710   0.085   1.352   3.777  0.1422  0.0338 -0.4082
  235TIP3    H1  711   0.047   1.438   3.794 -0.4796 -0.6140  1.7794
  235TIP3    H2  712   0.023   1.310   3.717  0.0419  0.8106 -0.8588
  236TIP3   OH2  713   6.133   5.569   1.094  0.6609 -0.2334  0.5824
  236TIP3    H1  714   6.119   5.568   1.188  0.9415 -3.2855  0.7003
  236TIP3    H2  715   6.211   5.515   1.081  0.0085 -0.7945 -1.4375
  237TIP3   OH2  716   3.604   0.904   3.686  0.0447 -0.2767  0.4549
  237TIP3    H1  717   3.655   0.944   3.616  0.9731  0.0256  1.2795
  237TIP3    H2  718   3.666   0.844   3.728  0.3188  1.4036  2.6087
  238TIP3   OH2  719   2.723   0.766   1.864 -0.2404  0.2585  0.1820
  238TIP3    H1  720   2.668   0.845   1.865 -2.3995 -1.1391 -0.4608
  238TIP3    H2  721   2.749   0.756   1.772 -0.1980  0.0889  0.2121
  239TIP3   OH2  722   2.493   5.468   4.965  0.3308 -0.3503  0.2742
  239TIP3    H1  723   2.450   5.481   5.050  2.4215 -0.5124  1.4108
  239TIP3    H2  724   2.421   5.467   4.902 -1.3439 -0.8660  2.1040
  240TIP3   OH2  725   3.760   0.896   2.049  0.0096 -0.1084  0.1435
  240TIP3    H1  726   3.733   0.951   2.123  1.8534  1.8633 -0.5427
  240TIP3    H2  727   3.678   0.868   2.009 -1.0225  1.6138  0.9383
  241TIP3   OH2  728   4.528   2.856   3.344 -0.1217 -0.8105  0.2374
  241TIP3    H1  729   4.493   2.778   3.301 -1.1350 -0.1507 -0.1620
  241TIP3    H2  730   4.523   2.835   3.437 -2.6307 -0.3605  0.2815
  242TIP3   OH2  731   4.637   0.501   2.418  0.3502 -0.1877 -0.4389
  242TIP3    H1  732   4.544   0.518   2.408  0.3551  1.1449  1.2791
  242TIP3    H2  733   4.646   0.406   2.407 -1.1444 -0.2905 -0.9607
  243TIP3   OH2  734   0.588   5.223   4.764  0.4582 -0.6679 -0.2000
  243TIP3    H1  735   0.640   5.145   4.745  0.0293 -0.6109 -1.7753
  243TIP3    H2  736   0.509   5.189   4.806  0.2062 -1.1215 -1.0110
  244TIP3   OH2  737   5.009   3.056   3.950  0.6886 -0.2918  0.2502
  244TIP3    H1  738   5.099   3.052   3.917 -0.2585  0.7777 -2.7426
  244TIP3    H2  739   4.979   2.965   3.949  1.0310 -0.4133 -1.0431
  245TIP3   OH2  740   1.680   3.777   2.750 -0.1339 -0.6835  1.0049
  245TIP3    H1  741   1.754   3.835   2.732 -0.5597 -0.9265 -2.0402
  245TIP3    H2  742   1.714   3.689   2.739 -1.1343 -0.7772 -2.1408
  246TIP3   OH2  743   4.358   4.232   2.355 -0.0698 -0.1033 -0.4983
  246TIP3    H1  744   4.347   4.306   2.415 -3.1795 -3.5384  3.8645
  246TIP3    H2  745   4.440   4.192   2.381 -0.2334 -0.2408 -0.1847
  247TIP3   OH2  746   0.192   3.854   2.955 -0.0867 -0.1505  0.0829
  247TIP3    H1  747   0.152   3.925   2.905 -0.6811 -0.6680 -0.1970
  247TIP3    H2  748   0.217   3.894   3.038 -0.2673  0.4193 -0.1306
  248TIP3   OH2  749   6.062   1.322   3.384 -0.1095  0.5634  0.3021
  248TIP3    H1  750   6.157   1.316   3.391 -0.1600 -1.4907 -0.3106
  248TIP3    H2  751   6.047   1.405   3.338  1.2666  1.6686  1.7411
  249TIP3   OH2  752   5.053   5.199   4.958 -0.1236  0.6655 -0.2536
  249TIP3    H1  753   5.088   5.245   5.034 -0.4421  2.4892 -1.1526
  249TIP3    H2  754   5.044   5.108   4.986 -0.4808  1.3354  1.9575
  250TIP3   OH2  755   6.179   4.520   4.494 -0.3580  0.1801 -0.0093
  250TIP3    H1  756   6.119   4.528   4.420 -0.1121 -0.4111 -0.2810
  250TIP3    H2  757   6.259   4.562   4.465 -1.0925  2.4007  0.9241
  251TIP3   OH2  758   1.986   5.347   2.262  0.5252  0.4876  0.3464
  251TIP3    H1  759   1.990   5.270   2.205  2.7874  0.0479  1.0055
  251TIP3    H2  760   1.968   5.311   2.349  0.5402  0.8126  0.4851
  252TIP3   OH2  761   4.701   5.818   0.474  0.3467  0.2895  0.2357
  252TIP3    H1  762   4.623   5.771   0.444  1.6590 -0.7041 -1.7796
  252TIP3    H2  763   4.767   5.750   0.489  1.1620  1.2015  0.9308
  253TIP3   OH2  764   3.969   5.653   2.794  0.5614 -0.4918  0.5765
  253TIP3    H1  765   4.019   5.574   2.815 -1.0424 -1.8845 -0.5701
  253TIP3    H2  766   3.894   5.651   2.854  0.7297  0.4207  0.8337
  254TIP3   OH2  767   2.653   2.881   4.099 -0.2524 -0.1179 -0.2377
  254TIP3    H1  768   2.668   2.937   4.175  1.5863 -0.8174 -0.0336
  254TIP3    H2  769   2.737   2.881   4.052 -1.3115  0.2505 -2.2665
  255TIP3   OH2  770   1.932   1.966   1.961  0.5875 -0.1616  0.0159
  255TIP3    H1  771   1.885   2.042   1.994  0.8248 -0.3878  0.8962
  255TIP3    H2  772   1.863   1.903   1.938  0.4272 -0.3321  0.9096
  256TIP3   OH2  773   4.283   2.218   1.971 -0.0829  0.2121 -0.2029
  256TIP3    H1  774   4.287   2.175   1.886  0.1065 -0.3077  0.0635
  256TIP3    H2  775   4.293   2.147   2.034  0.2786  0.6552  0.2454
  257TIP3   OH2  776   6.249   1.594   2.745 -0.7244  0.7714  0.4803
  257TIP3    H1  777   6.191   1.616   2.818 -0.7498 -0.1651  0.7635
  257TIP3    H2  778   6.276   1.504   2.763 -1.8161  0.0073 -1.3328
  258TIP3   OH2  779   5.633   2.645   0.430  0.5957  0.5572 -0.3715
  258TIP3    H1  780   5.614   2.557   0.463  1.0605  0.7643  0.4786
  258TIP3    H2  781   5.728   2.650   0.430  0.7098  0.0682 -3.1399
  259TIP3   OH2  782   0.976   5.054   3.419 -0.1182 -0.5346 -0.0409
  259TIP3    H1  783   0.930   5.096   3.346 -0.9722 -2.7466 -0.8540
  259TIP3    H2  784   0.988   4.963   3.391  1.5646 -0.9043  1.6685
  260TIP3   OH2  785   4.603   0.210   1.313 -0.2784 -0.1896  0.0896
  260TIP3    H1  786   4.618   0.218   1.407  0.4261 -0.1060 -0.0211
  260TIP3    H2  787   4.511   0.234   1.301  0.3539  2.7667  0.3964
  261TIP3   OH2  788   0.539   4.311   1.309 -0.0610 -0.1486  0.0664
  261TIP3    H1  789   0.613   4.262   1.344  1.5827  1.8168 -0.4492
  261TIP3    H2  790   0.525   4.382   1.371 -0.0368  0.7920 -0.9806
  262TIP3   OH2  791   3.241   0.168   4.382 -0.1146 -0.4158  0.1947
  262TIP3    H1  792   3.237   0.131   4.471 -0.5959 -0.9243 -0.0322
  262TIP3    H2  793   3.311   0.234   4.387  0.2929 -0.8805  0.7817
  263TIP3   OH2  794   5.938   5.873   1.100 -0.3023  0.2838  0.2424
  263TIP3    H1  795   6.030   5.888   1.124 -0.0311 -0.7219 -0.1162
  263TIP3    H2  796   5.912   5.952   1.053  0.0883  0.9769  1.1589
  264TIP3   OH2  797   3.952   3.932   2.684  0.3992  0.0153 -0.0825
  264TIP3    H1  798   3.881   3.881   2.644  0.9674 -1.4646  0.6943
  264TIP3    H2  799   3.908   3.999   2.736 -0.5580 -2.0710  1.9788
  265TIP3   OH2  800   2.887   4.153   0.610 -0.4952 -0.1874 -0.0664
  265TIP3    H1  801   2.896   4.172   0.703  0.6694 -0.1399 -0.1830
  265TIP3    H2  802   2.794   4.132   0.599 -0.4384 -1.2869  1.3096
  266TIP3   OH2  803   3.309   2.824   2.223  0.4145  0.0153 -0.1827
  266TIP3    H1  804   3.267   2.885   2.163 -0.5525  0.4642  0.9028
  266TIP3    H2  805   3.334   2.749   2.169 -0.0142  0.6065 -1.2117
  267TIP3   OH2  806   1.978   3.316   4.612 -0.1606  0.2468 -0.0761
  267TIP3    H1  807   1.904   3.263   4.640  0.1982 -0.2672 -0.0768
  267TIP3    H2  808   1.992   3.379   4.684  0.3797 -0.6754  0.6546
  268TIP3   OH2  809   1.624   2.665   4.542 -0.1701 -0.1304 -1.0760
  268TIP3    H1  810   1.639   2.676   4.636  1.1134  0.4951 -1.3352
  268TIP3    H2  811   1.540   2.709   4.526 -0.0864  0.3159 -0.3291
  269TIP3   OH2  812   4.266   0.484   0.529 -0.3684  0.1522 -0.0705
  269TIP3    H1  813   4.343   0.484   0.587  0.4363 -0.7635 -1.0939
  269TIP3    H2  814   4.249   0.391   0.512 -0.7519  0.3970 -1.0820
  270TIP3   OH2  815   3.773   2.207   2.888  0.6749 -0.0053 -0.2717
  270TIP3    H1  816   3.712   2.183   2.818 -0.2318 -0.6499  0.7177
  270TIP3    H2  817   3.806   2.293   2.861  0.4197 -0.2743 -1.5359
  271TIP3   OH2  818   4.827   4.882   2.933  0.2619  0.1037  0.4979
  271TIP3    H1  819   4.805   4.848   3.019  0.0601 -0.7231  0.1287
  271TIP3    H2  820   4.743   4.906   2.894  0.4996  2.7614  1.4167
  272TIP3   OH2  821   3.281   4.358   1.087 -0.0663 -0.2117 -0.4749
  272TIP3    H1  822   3.187   4.375   1.075 -0.4730 -0.3759  1.9831
  272TIP3    H2  823   3.285   4.265   1.112  0.7199 -0.0968 -0.1610
  273TIP3   OH2  824   4.191   0.464   3.202  0.1643  0.3530  0.4118
  273TIP3    H1  825   4.252   0.517   3.150  0.9573  0.3494  1.3028
  273TIP3    H2  826   4.122   0.525   3.229  0.4517  0.6637  0.4542
  274TIP3   OH2  827   4.287   0.961   1.683 -0.4738 -0.5005  0.3831
  274TIP3    H1  828   4.217   0.981   1.620  0.9942 -0.5664 -1.3607
  274TIP3    H2  829   4.256   0.885   1.731 -1.1351 -1.2341 -1.1625
  275TIP3   OH2  830   0.549   1.350   4.322 -0.6342 -0.7912  0.1228
  275TIP3    H1  831   0.584   1.440   4.324  1.0992 -1.4364  1.5837
  275TIP3    H2  832   0.459   1.359   4.351 -0.4909  0.4773  0.2396
  276TIP3   OH2  833   5.191   3.211   0.086 -0.4239 -0.1668 -0.1317
  276TIP3    H1  834   5.244   3.207   0.007 -1.5080  1.3062 -0.9892
  276TIP3    H2  835   5.211   3.297   0.124 -1.6419  0.1338 -0.1066
  277TIP3   OH2  836   2.136   1.133   1.854  0.1272 -0.8508 -0.1007
  277TIP3    H1  837   2.215   1.089   1.822 -0.5583 -0.8270 -1.9385
  277TIP3    H2  838   2.068   1.106   1.793 -1.1105 -0.1727  0.9445
  278TIP3   OH2  839   1.575   5.767   3.540  0.0478  0.0954 -0.2769
  278TIP3    H1  840   1.571   5.721   3.456 -0.1754  0.2159 -0.3329
  278TIP3    H2  841   1.484   5.768   3.570 -0.1818  1.7271 -0.9349
  279TIP3   OH2  842   2.719   2.506   4.828 -0.2536  0.0911  0.5142
  279TIP3    H1  843   2.681   2.482   4.912  0.2519  1.0042  1.0254
  279TIP3    H2  844   2.693   2.597   4.815  0.6431  0.3298  0.2575
  280TIP3   OH2  845   5.948   0.906   3.937 -0.0896 -0.3115 -0.4451
  280TIP3    H1  846   5.973   0.828   3.986  1.0361  0.9814  1.1339
  280TIP3    H2  847   5.852   0.907   3.940 -0.2518 -2.5602 -2.0999
  281TIP3   OH2  848   2.070   2.614   0.890  0.3371  0.2161 -0.2039
  281TIP3    H1  849   2.162   2.637   0.880  0.6413 -1.1131 -0.6549
  281TIP3    H2  850   2.061   2.530   0.845 -0.6338 -0.6931  1.5770
  282TIP3   OH2  851   1.951   0.758   5.137 -0.5964  0.2775  0.1856
  282TIP3    H1  852   2.026   0.801   5.096  0.5818 -0.3629  1.5737
  282TIP3    H2  853   1.972   0.665   5.134 -1.4951  0.0658  0.3011
  283TIP3   OH2  854   4.569   0.395   4.842  0.1213  0.0147  0.4973
  283TIP3    H1  855   4.581   0.305   4.810 -1.3838  0.5594 -1.8053
  283TIP3    H2  856   4.649   0.441   4.815  0.7525 -0.4969  1.3998
  284TIP3   OH2  857   4.764   4.256   0.160  0.6150  0.0058 -0.7896
  284TIP3    H1  858   4.744   4.291   0.073  1.1520  0.4413 -0.7416
  284TIP3    H2  859   4.707   4.180   0.168  1.5134 -0.8439 -2.0637
  285TIP3   OH2  860   2.747   5.096   1.881  0.1522 -0.3769  0.4672
  285TIP3    H1  861   2.657   5.067   1.897 -0.5592  0.0403 -2.3017
  285TIP3    H2  862   2.761   5.080   1.788  2.1162  1.7781  0.3117
  286TIP3   OH2  863   5.549   2.931   3.077  0.2342 -0.2133 -0.0670
  286TIP3    H1  864   5.480   2.907   3.140  0.1034  1.0443  0.2973
  286TIP3    H2  865   5.622   2.960   3.131  0.3701  0.2168 -0.4705
  287TIP3   OH2  866   4.553   5.878   4.469 -0.5035 -0.1570  0.1206
  287TIP3    H1  867   4.521   5.966   4.490  0.1479 -0.2108  1.4222
  287TIP3    H2  868   4.505   5.853   4.390  1.0642  2.3746 -1.7845
  288TIP3   OH2  869   1.082   2.457   1.460  0.1041 -0.8294 -0.6389
  288TIP3    H1  870   1.049   2.532   1.410  0.1775 -0.1117  0.3605
  288TIP3    H2  871   1.036   2.382   1.424 -0.2604 -0.2533 -1.3977
  289TIP3   OH2  872   4.002   3.196   1.904 -0.5189 -0.3385 -0.3282
  289TIP3    H1  873   4.057   3.119   1.886  0.7696  0.7977 -1.4664
  289TIP3    H2  874   4.043   3.238   1.980  0.5114  0.7422 -1.4345
  290TIP3   OH2  875   4.771   1.600   4.451  0.4535 -0.5740  0.7939
  290TIP3    H1  876   4.693   1.639   4.412  0.8996 -1.0151 -0.5852
  290TIP3    H2  877   4.794   1.660   4.522 -0.8638 -0.1904  0.9234
  291TIP3   OH2  878   5.063   4.633   3.891  0.0716  0.0716  0.6012
  291TIP3    H1  879   5.154   4.641   3.860 -1.0424  1.4433 -2.7097
  291TIP3    H2  880   5.042   4.720   3.925 -0.2159 -0.0677  0.7796
  292TIP3   OH2  881   2.488   0.618   0.040 -0.5850 -0.0425 -0.2027
  292TIP3    H1  882   2.537   0.684   0.088 -0.5607  0.5185 -0.9781
  292TIP3    H2  883   2.461   0.555   0.106 -1.1133  1.0408  0.6371
  293TIP3   OH2  884   5.765   4.855   4.934  0.5554 -0.0660 -0.2335
  293TIP3    H1  885   5.845   4.851   4.882  0.3755 -1.7691 -0.4529
  293TIP3    H2  886   5.700   4.807   4.882 -0.3948  0.6074  0.2957
  294TIP3   OH2  887   2.774   5.747   3.546  0.0583  0.3281 -0.5952
  294TIP3    H1  888   2.813   5.663   3.574 -0.1231 -0.3423 -2.2309
  294TIP3    H2  889   2.792   5.751   3.452 -2.3891  0.7794 -1.0961
  295TIP3   OH2  890   5.031   1.360   4.609 -0.0555 -0.2314 -0.0657
  295TIP3    H1  891   4.971   1.379   4.682 -1.4443 -5.0278  0.3722
  295TIP3    H2  892   5.108   1.322   4.650  1.5498  1.8478 -0.9452
  296TIP3   OH2  893   2.382   2.036   2.118 -0.1915 -0.0051  0.1381
  296TIP3    H1  894   2.446   2.107   2.116 -0.1016 -0.0599  1.0597
  296TIP3    H2  895   2.415   1.974   2.183 -0.7629 -0.4260  0.0385
  297TIP3   OH2  896   2.349   3.928   4.420  0.5336  0.9341 -0.0946
  297TIP3    H1  897   2.433   3.973   4.431  1.7233 -1.1297 -0.1816
  297TIP3    H2  898   2.339   3.876   4.500  0.0080  0.1682 -0.6347
  298TIP3   OH2  899   4.150   0.730   1.519 -0.2955  0.3968  0.0962
  298TIP3    H1  900   4.240   0.700   1.507 -1.0287 -1.1391 -2.3455
  298TIP3    H2  901   4.141   0.804   1.460 -0.4129  1.1279  1.0118
  299TIP3   OH2  902   1.139   5.355   4.494  0.0885  0.0302  0.7846
  299TIP3    H1  903   1.200   5.289   4.525  0.9372  0.8567  0.8997
  299TIP3    H2  904   1.140   5.423   4.561  0.6362  1.0247 -0.2022
  300TIP3   OH2  905   1.383   2.631   4.776  0.4127  0.2076 -0.9011
  300TIP3    H1  906   1.361   2.540   4.754 -0.4441 -0.0504  0.8576
  300TIP3    H2  907   1.477   2.630   4.789  0.2066 -0.8724  0.8486
  301TIP3   OH2  908   6.049   3.388   5.057 -0.3905 -0.1937 -0.1045
  301TIP3    H1  909   6.031   3.416   4.968  0.5538 -1.3039 -0.6684
  301TIP3    H2  910   6.057   3.469   5.107 -1.3027  0.4276 -0.9288
  302TIP3   OH2  911   5.092   0.471   3.523  0.0364  0.4581 -0.2052
  302TIP3    H1  912   5.181   0.484   3.492 -0.3305  0.0971 -1.4527
  302TIP3    H2  913   5.051   0.415   3.457 -1.0880  0.5268  0.4026
  303TIP3   OH2  914   1.728   0.568   2.172  0.0841  0.0384 -0.3829
  303TIP3    H1  915   1.819   0.586   2.192 -0.1026 -0.4936  1.1379
  303TIP3    H2  916   1.681   0.646   2.202 -0.2386 -0.9121  1.7453
  304TIP3   OH2  917   0.747   3.460   5.040 -0.3616 -0.2532  0.8888
  304TIP3    H1  918   0.717   3.544   5.076 -1.5583 -0.5991  0.7318
  304TIP3    H2  919   0.807   3.426   5.107 -1.7355 -0.3892  2.1161
  305TIP3   OH2  920   3.597   0.100   4.925 -0.1597  0.0235  0.4183
  305TIP3    H1  921   3.542   0.024   4.909  0.0590 -0.1593  0.5382
  305TIP3    H2  922   3.650   0.108   4.845  0.3704 -0.4165  0.7238
  306TIP3   OH2  923   0.642   3.129   1.225 -0.1623 -0.4388 -0.3010
  306TIP3    H1  924   0.630   3.068   1.152  0.4164 -0.0393 -0.7341
  306TIP3    H2  925   0.716   3.183   1.199 -0.3173  0.0826  0.3318
  307TIP3   OH2  926   3.321   5.307   4.499  0.8287 -0.5062  0.2985
  307TIP3    H1  927   3.242   5.360   4.500  1.2005  0.1747 -1.5599
  307TIP3    H2  928   3.289   5.217   4.487  0.3197 -0.1643 -1.1590
  308TIP3   OH2  929   1.314   2.588   1.267  0.1155  0.1198  0.0962
  308TIP3    H1  930   1.320   2.492   1.268  0.5720  0.1298 -0.6683
  308TIP3    H2  931   1.222   2.606   1.288  0.3458 -0.4157  1.7017
  309TIP3   OH2  932   5.685   1.542   2.506  0.4672  0.4979 -0.4048
  309TIP3    H1  933   5.648   1.514   2.590  0.6727  2.6893  0.4723
  309TIP3    H2  934   5.777   1.560   2.525  1.4845 -2.3522 -1.9773
  310TIP3   OH2  935   4.126   1.145   5.134  0.5895 -0.4644  0.0326
  310TIP3    H1  936   4.111   1.064   5.184 -0.4424 -0.7960 -0.7742
  310TIP3    H2  937   4.045   1.158   5.085  0.1527  1.8760  1.2461
  311TIP3   OH2  938   5.228   2.473   2.358  0.4688 -0.3020 -0.5240
  311TIP3    H1  939   5.222   2.498   2.265 -1.3549 -0.2896 -0.4552
  311TIP3    H2  940   5.253   2.554   2.402 -1.0843  0.3525 -0.7737
  312TIP3   OH2  941   4.959   2.409   4.516  0.7182  0.2087 -0.2966
  312TIP3    H1  942   4.885   2.452   4.560 -1.1331 -1.8761 -1.2133
  312TIP3    H2  943   4.968   2.457   4.434 -0.0185  0.1462 -0.4282
  313TIP3   OH2  944   0.341   2.105   2.900  0.1495  0.1929 -0.0748
  313TIP3    H1  945   0.261   2.152   2.924 -0.6739 -0.6213 -1.1600
  313TIP3    H2  946   0.314   2.045   2.831  1.7067 -0.0918 -0.4674
  314TIP3   OH2  947   2.627   3.546   3.625 -0.5097  0.1062 -0.0962
  314TIP3    H1  948   2.537   3.532   3.654 -0.9061 -0.0138 -1.3319
  314TIP3    H2  949   2.626   3.634   3.587 -0.7462 -0.8007 -2.3463
  315TIP3   OH2  950   1.310   2.601   0.191  0.2430 -0.9805  0.5114
  315TIP3    H1  951   1.218   2.589   0.166  0.0634 -1.9435  1.5752
  315TIP3    H2  952   1.359   2.557   0.122 -0.1680 -1.8796  0.7754
  316TIP3   OH2  953   2.891   5.257   2.547 -0.4487 -0.7428 -0.0786
  316TIP3    H1  954   2.968   5.309   2.570 -0.5118 -1.4504  1.9657
  316TIP3    H2  955   2.911   5.221   2.462  1.1328 -0.2462  0.0510
  317TIP3   OH2  956   1.327   5.604   4.342 -0.4527 -0.2624 -0.5442
  317TIP3    H1  957   1.368   5.518   4.356 -2.4923 -1.2222 -0.0463
  317TIP3    H2  958   1.334   5.648   4.427  0.8953  0.2567 -0.8889
  318TIP3   OH2  959   0.792   1.377   2.780  0.4808  0.9018 -0.1405
  318TIP3    H1  960   0.730   1.386   2.852  0.8631 -1.3902  0.5452
  318TIP3    H2  961   0.873   1.414   2.813  0.1490  1.6734 -0.1576
  319TIP3   OH2  962   6.038   3.987   3.364  0.4356 -0.9013  0.1711
  319TIP3    H1  963   5.963   4.047   3.365  1.3547  0.2731 -0.2558
  319TIP3    H2  964   6.074   3.993   3.453  1.2958  0.2078 -0.2227
  320TIP3   OH2  965   5.752   0.965   1.464  0.2554  0.0995  0.1848
  320TIP3    H1  966   5.768   0.913   1.385  1.4553  0.3628  0.2362
  320TIP3    H2  967   5.675   1.017   1.444  1.2031  0.9943 -1.2472
  321TIP3   OH2  968   6.083   5.753   0.414  0.2658  0.3080 -0.2064
  321TIP3    H1  969   6.144   5.824   0.393 -0.4085  1.4757  1.5449
  321TIP3    H2  970   6.053   5.772   0.503 -0.1544 -2.0555  0.2349
  322TIP3   OH2  971   5.385   5.077   3.803 -0.4547  0.1751 -0.4006
  322TIP3    H1  972   5.350   5.088   3.715 -1.1856 -0.1591 -0.1598
  322TIP3    H2  973   5.432   4.994   3.800 -0.1128  0.3765 -0.5921
  323TIP3   OH2  974   4.012   0.714   4.080 -0.3466  0.3085 -0.5661
  323TIP3    H1  975   3.926   0.753   4.068 -0.2189  0.1702 -2.0406
  323TIP3    H2  976   4.032   0.671   3.997  0.9651 -0.0098 -0.1186
  324TIP3   OH2  977   5.750   0.873   1.917  0.1597  0.1234 -0.3360
  324TIP3    H1  978   5.805   0.873   1.839  0.7930  1.1778  0.0934
  324TIP3    H2  979   5.756   0.962   1.951 -3.7469  1.0752 -1.6159
  325TIP3   OH2  980   5.635   2.524   1.857 -0.2155  0.1670  0.3337
  325TIP3    H1  981   5.627   2.464   1.931 -0.6557  0.9602  0.9434
  325TIP3    H2  982   5.620   2.469   1.780 -0.5058 -0.5218  0.8708
  326TIP3   OH2  983   1.676   1.658   0.096  0.2740  0.5374 -0.6912
  326TIP3    H1  984   1.722   1.662   0.180  0.3697  3.7282 -0.7699
  326TIP3    H2  985   1.739   1.617   0.036  1.7742  1.7584 -0.0272
  327TIP3   OH2  986   0.301   4.968   3.069 -0.0283 -0.2742  0.2316
  327TIP3    H1  987   0.206   4.972   3.083 -0.3048 -1.2688 -1.1283
  327TIP3    H2  988   0.319   4.875   3.055  1.0187  0.0083 -0.4154
  328TIP3   OH2  989   4.888   5.951   3.583 -0.2467 -0.5643 -0.1597
  328TIP3    H1  990   4.849   5.976   3.667 -0.0159 -0.9179  0.0556
  328TIP3    H2  991   4.914   5.859   3.595  0.2382 -0.4689 -0.4505
  329TIP3   OH2  992   6.272   4.570   0.978  0.4520 -0.0252  0.2084
  329TIP3    H1  993   6.325   4.540   1.052  0.6557  0.9899  0.4995
  329TIP3    H2  994   6.186   4.531   0.992  0.3667  0.4882  1.2204
  330TIP3   OH2  995   4.617   1.074   5.011 -0.2926 -0.3735 -0.4070
  330TIP3    H1  996   4.533   1.118   5.024 -0.4576 -0.8215  0.0916
  330TIP3    H2  997   4.661   1.126   4.944 -1.1225 -0.3457 -0.9483
  331TIP3   OH2  998   4.544   2.760   2.422  0.3586  0.6078  0.0918
  331TIP3    H1  999   4.546   2.678   2.470  1.9302  0.0688 -0.8091
  331TIP3    H2 1000   4.540   2.735   2.330  0.9551  1.5245 -0.2026
  332TIP3   OH2 1001   6.363   4.153   4.117  0.1182 -0.0464  0.7577
  332TIP3    H1 1002   6.286   4.113   4.076  0.9244 -2.0227  1.0420
  332TIP3    H2 1003   6.386   4.225   4.059 -0.0396 -1.4444 -1.1342
  333TIP3   OH2 1004   3.773   1.787   4.241  0.0150  0.5911  0.3604
  333TIP3    H1 1005   3.722   1.835   4.176  0.1220  1.1448  0.6733
  333TIP3    H2 1006   3.790   1.702   4.201  1.1729  1.3671 -0.8762
  334TIP3   OH2 1007   3.666   4.490   2.618  0.0278 -0.5924  0.5373
  334TIP3    H1 1008   3.761   4.501   2.619 -0.2339  4.0649 -0.9948
  334TIP3    H2 1009   3.635   4.543   2.691 -1.4273  0.6731 -0.9343
  335TIP3   OH2 1010   5.706   2.627   5.176  0.0854  0.2741  0.0460
  335TIP3    H1 1011   5.699   2.582   5.091  0.4161 -0.2481  0.2913
  335TIP3    H2 1012   5.792   2.604   5.208 -0.6943 -0.9907  1.3387
  336TIP3   OH2 1013   2.625   4.284   4.347  0.0907  0.3494  0.2864
  336TIP3    H1 1014   2.605   4.366   4.303  0.2058  0.2607  0.0623
  336TIP3    H2 1015   2.540   4.242   4.361  0.1592 -0.9902 -2.5351
  337TIP3   OH2 1016   0.498   5.056   4.489 -0.2944 -0.5283 -0.2144
  337TIP3    H1 1017   0.523   4.979   4.539  0.3699 -0.2207 -0.0598
  337TIP3    H2 1018   0.580   5.103   4.474 -0.7430  0.3698  0.0619
  338TIP3   OH2 1019   3.690   1.675   4.468  0.8966 -0.7533  0.0456
  338TIP3    H1 1020   3.766   1.618   4.480  0.6923 -0.7378  1.6200
  338TIP3    H2 1021   3.703   1.714   4.382  3.2836  0.1263  0.7236
  339TIP3   OH2 1022   5.897   5.898   5.060 -0.3599  0.3451 -0.8507
  339TIP3    H1 1023   5.842   5.974   5.040 -0.3752  0.3213 -0.9009
  339TIP3    H2 1024   5.836   5.832   5.094 -0.0825  0.9952  0.9808
  340TIP3   OH2 1025   5.999   3.550   1.667  0.0641 -0.3651 -1.0533
  340TIP3    H1 1026   5.943   3.603   1.610  0.8227 -0.1560 -1.6213
  340TIP3    H2 1027   5.974   3.460   1.647 -0.6815 -0.2589 -0.6536
  341TIP3   OH2 1028   5.510   0.310   4.985 -0.0143  0.2257 -0.2045
  341TIP3    H1 1029   5.563   0.387   4.964  1.5217 -1.0490 -1.2628
  341TIP3    H2 1030   5.526   0.250   4.913 -1.6901 -0.8569  0.2747
  342TIP3   OH2 1031   6.072   5.241   4.712 -0.3260  0.1544  0.3745
  342TIP3    H1 1032   6.027   5.296   4.776 -2.0877 -1.7580  0.8691
  342TIP3    H2 1033   6.005   5.215   4.650  0.4195 -1.4497  0.1798
  343TIP3   OH2 1034   4.042   1.840   0.907 -0.1289  0.3188 -0.2885
  343TIP3    H1 1035   4.026   1.755   0.866 -1.6171  0.5041 -0.1446
  343TIP3    H2 1036   4.010   1.904   0.843 -0.6186  0.6873  0.3116
  344TIP3   OH2 1037   2.526   5.486   0.406 -0.5915 -0.4090 -0.6476
  344TIP3    H1 1038   2.534   5.447   0.493  0.1022 -0.2474 -0.6353
  344TIP3    H2 1039   2.451   5.545   0.413  0.6466  1.0931  0.4148
  345TIP3   OH2 1040   5.930   2.338   1.059  0.0362  0.0422 -0.6967
  345TIP3    H1 1041   5.972   2.293   0.985 -0.0192  0.5806 -1.0655
  345TIP3    H2 1042   5.923   2.429   1.030 -0.2521  0.2009 -0.1377
  346TIP3   OH2 1043   3.196   0.752   0.317  0.4384  0.6235 -0.5611
  346TIP3    H1 1044   3.276   0.712   0.351 -0.2774  0.3028  0.8497
  346TIP3    H2 1045   3.145   0.678   0.283  0.3403  0.6934 -0.5683
  347TIP3   OH2 1046   4.256   5.903   1.616 -0.7315  0.1321 -0.1057
  347TIP3    H1 1047   4.273   5.849   1.693 -0.6328  0.1686 -0.1020
  347TIP3    H2 1048   4.303   5.985   1.633  0.8756 -0.5619 -1.0580
  348TIP3   OH2 1049   1.054   4.615   1.792 -0.1776 -0.3545  0.4576
  348TIP3    H1 1050   0.969   4.657   1.807 -0.5452 -1.3319  1.2647
  348TIP3    H2 1051   1.032   4.522   1.781  0.7320 -0.5293  0.0696
  349TIP3   OH2 1052   0.604   4.104   0.129 -0.1024 -0.0979 -0.1118
  349TIP3    H1 1053   0.693   4.135   0.143 -0.3554 -0.1084  1.8818
  349TIP3    H2 1054   0.550   4.182   0.137 -0.4344 -0.4257  1.1358
  350TIP3   OH2 1055   0.214   4.719   0.577  0.4746  0.5943  0.1209
  350TIP3    H1 1056   0.179   4.721   0.488  0.5515 -0.8801  0.0406
  350TIP3    H2 1057   0.137   4.724   0.633  0.1337 -1.5322 -0.0607
  351TIP3   OH2 1058   0.508   2.324   1.678  0.2967  0.3600 -0.1337
  351TIP3    H1 1059   0.432   2.376   1.705  0.0677 -0.1920  0.2961
  351TIP3    H2 1060   0.501   2.320   1.582  0.6353  1.5920 -0.2265
  352TIP3   OH2 1061   5.255   1.532   4.802 -0.3213  0.0447  0.1860
  352TIP3    H1 1062   5.280   1.447   4.839  0.5699  0.5068  0.6542
  352TIP3    H2 1063   5.322   1.550   4.736 -0.4264  0.4569  0.1897
  353TIP3   OH2 1064   5.633   3.860   1.722  0.1675  0.3345 -0.2421
  353TIP3    H1 1065   5.641   3.825   1.811  0.6448  2.7385  0.7492
  353TIP3    H2 1066   5.541   3.882   1.712  0.0330 -0.3394 -0.5233
  354TIP3   OH2 1067   2.777   3.224   2.638  0.6018  0.1276 -0.2990
  354TIP3    H1 1068   2.832   3.300   2.660 -0.9135  1.0372  0.5058
  354TIP3    H2 1069   2.804   3.156   2.699  0.6929  0.6356  0.2377
  355TIP3   OH2 1070   1.542   3.662   4.275 -0.1059 -0.1171 -0.0662
  355TIP3    H1 1071   1.599   3.586   4.267 -1.2750 -0.8112 -2.7866
  355TIP3    H2 1072   1.595   3.726   4.324  1.8794 -1.7233  0.0306
  356TIP3   OH2 1073   5.843   0.657   4.983  0.4692  0.3154 -0.2656
  356TIP3    H1 1074   5.901   0.591   4.944  0.0672 -0.2893  0.1246
  356TIP3    H2 1075   5.776   0.605   5.028 -0.5118  0.9940 -0.9014
  357TIP3   OH2 1076   2.507   3.922   1.988 -0.3043 -0.0057  0.0499
  357TIP3    H1 1077   2.437   3.857   1.998 -0.8154  0.4897 -0.2822
  357TIP3    H2 1078   2.485   3.991   2.051  1.3009 -1.0381  1.8524
  358TIP3   OH2 1079   4.568   0.346   0.277 -0.3499  0.1283 -0.4583
  358TIP3    H1 1080   4.494   0.286   0.264 -1.2909  1.1035  0.2243
  358TIP3    H2 1081   4.634   0.316   0.214 -0.9617 -1.3321 -0.4416
  359TIP3   OH2 1082   2.632   4.981   5.074  0.5296  0.1526 -0.4496
  359TIP3    H1 1083   2.549   4.948   5.039  1.4933 -0.0852 -2.7049
  359TIP3    H2 1084   2.669   4.907   5.122 -0.1151 -0.0371 -0.2307
  360TIP3   OH2 1085   5.834   0.153   2.575  0.4774  0.0915  0.1606
  360TIP3    H1 1086   5.812   0.245   2.559 -0.3613 -0.2695 -0.9055
  360TIP3    H2 1087   5.925   0.144   2.548  0.0527  0.2411 -1.4209
  361TIP3   OH2 1088   0.992   5.714   1.864  0.4933 -0.3401  0.0023
  361TIP3    H1 1089   1.010   5.794   1.815 -0.2739 -0.2869 -0.2134
  361TIP3    H2 1090   0.898   5.717   1.880  0.2568 -1.7372 -0.9793
  362TIP3   OH2 1091   4.934   1.157   1.946  0.1523  0.2520  0.1581
  362TIP3    H1 1092   5.023   1.124   1.958  0.2123  0.3255 -0.0984
  362TIP3    H2 1093   4.893   1.093   1.887 -0.2723 -0.3375  1.0612
  363TIP3   OH2 1094   2.962   2.613   0.361  0.0872  0.2695  0.1166
  363TIP3    H1 1095   2.917   2.647   0.284  3.2352  0.8198 -1.6714
  363TIP3    H2 1096   2.986   2.691   0.411 -1.3192 -0.0445  1.3376
  364TIP3   OH2 1097   3.025   5.223   0.111 -0.1337  0.4288  0.3835
  364TIP3    H1 1098   2.959   5.227   0.180 -0.1312 -0.9486  0.5013
  364TIP3    H2 1099   3.013   5.136   0.071 -0.0392  1.1289 -1.2580
  365TIP3   OH2 1100   2.280   3.300   1.401  0.2896 -0.6928  0.2019
  365TIP3    H1 1101   2.249   3.364   1.465  0.6109 -0.8238  0.4890
  365TIP3    H2 1102   2.332   3.351   1.339  0.3274 -0.6324  0.2829
  366TIP3   OH2 1103   5.131   2.155   3.230  0.8600 -0.6565  0.4281
  366TIP3    H1 1104   5.147   2.178   3.322  1.2767  0.7476  0.0332
  366TIP3    H2 1105   5.054   2.100   3.232  1.7687 -1.9648  1.7721
  367TIP3   OH2 1106   2.304   5.624   1.614  0.0079 -0.7599 -0.3010
  367TIP3    H1 1107   2.232   5.687   1.604 -1.3055 -2.1502  0.0108
  367TIP3    H2 1108   2.379   5.678   1.637 -0.7412  0.8233 -1.3646
  368TIP3   OH2 1109   4.391   3.206   1.071 -0.0693  0.3603  0.3365
  368TIP3    H1 1110   4.327   3.135   1.073 -0.9296  1.1186  0.0724
  368TIP3    H2 1111   4.472   3.164   1.041 -0.6956 -0.4032 -0.3350
  369TIP3   OH2 1112   3.785   1.383   1.129 -0.0449 -0.3701  0.0145
  369TIP3    H1 1113   3.740   1.462   1.158  0.1437 -0.7286  1.3485
  369TIP3    H2 1114   3.876   1.394   1.157 -0.3039 -1.6372  1.4680
  370TIP3   OH2 1115   4.674   5.004   2.088  0.1260  0.6748  0.4477
  370TIP3    H1 1116   4.669   5.061   2.012  0.1643 -0.6188 -0.5542
  370TIP3    H2 1117   4.676   5.064   2.163 -0.8117  1.9493 -0.5115
  371TIP3   OH2 1118   4.462   5.293   3.124  0.5065 -0.4218 -0.5890
  371TIP3    H1 1119   4.387   5.234   3.119  1.1312 -1.3153  0.1631
  371TIP3    H2 1120   4.431   5.375   3.086 -0.8432 -0.7714 -0.2868
  372TIP3   OH2 1121   3.421   2.531   3.005  0.7178 -0.4420 -0.4819
  372TIP3    H1 1122   3.493   2.484   2.964  2.2374  0.0598  1.4893
  372TIP3    H2 1123   3.451   2.622   3.011  1.6285 -0.7984  3.5999
  373TIP3   OH2 1124   0.576   0.739   3.906 -0.2715  0.4204 -0.4681
  373TIP3    H1 1125   0.488   0.761   3.935 -0.6483  0.5387 -1.6616
  373TIP3    H2 1126   0.631   0.807   3.946 -0.8337  0.8492 -0.4030
  374TIP3   OH2 1127   6.307   5.452   4.884 -1.0719  0.6698  0.2542
  374TIP3    H1 1128   6.391   5.445   4.839 -0.2002  1.3733  1.6929
  374TIP3    H2 1129   6.244   5.410   4.825  0.3551 -0.2848 -0.6428
  375TIP3   OH2 1130   1.495   1.630   1.194 -0.2223 -0.0746  0.0932
  375TIP3    H1 1131   1.538   1.545   1.194  0.8122  0.4258  0.6207
  375TIP3    H2 1132   1.514   1.667   1.108 -1.0835 -0.5681 -0.3152
  376TIP3   OH2 1133   3.366   4.177   5.135  0.4678 -0.2402  0.8580
  376TIP3    H1 1134   3.403   4.249   5.084 -3.3828  1.4668  0.1400
  376TIP3    H2 1135   3.357   4.212   5.223 -1.5180  0.3105  0.4838
  377TIP3   OH2 1136   4.554   4.143   2.096  0.5113  0.2048  0.5990
  377TIP3    H1 1137   4.569   4.171   2.186 -1.4050 -0.6212  1.2351
  377TIP3    H2 1138   4.529   4.222   2.049  1.2441  0.5920  0.8499
  378TIP3   OH2 1139   3.315   4.024   0.888 -0.4430 -0.2598 -0.5307
  378TIP3    H1 1140   3.322   3.995   0.797  1.5525 -2.1866  0.1563
  378TIP3    H2 1141   3.223   4.010   0.911 -0.3040 -2.9219 -1.3228
  379TIP3   OH2 1142   6.263   5.041   4.186 -0.1043 -0.2232  0.0399
  379TIP3    H1 1143   6.348   5.059   4.148 -0.8794  1.5859 -0.9533
  379TIP3    H2 1144   6.274   5.059   4.280  1.3433 -3.0158  0.5256
  380TIP3   OH2 1145   0.068   2.666   0.764  0.0214  0.1602 -0.7519
  380TIP3    H1 1146   0.101   2.728   0.829  0.3794 -1.8313  1.0732
  380TIP3    H2 1147  -0.026   2.682   0.762 -0.1623 -0.4242  1.0971
  381TIP3   OH2 1148   1.866   1.077   1.761  0.1893  0.3648 -0.1737
  381TIP3    H1 1149   1.778   1.052   1.733  0.7102 -0.7663 -0.9001
  381TIP3    H2 1150   1.891   1.147   1.700 -0.8307  1.9341  1.1259
  382TIP3   OH2 1151   0.886   0.481   4.133 -0.0596  0.6667  0.0476
  382TIP3    H1 1152   0.812   0.467   4.074  0.7224  0.2879 -0.8753
  382TIP3    H2 1153   0.879   0.412   4.198 -0.6082  0.7276  0.0532
  383TIP3   OH2 1154   4.599   3.524   0.256  0.0595  0.2827 -0.1773
  383TIP3    H1 1155   4.538   3.542   0.185 -0.4924 -1.4504 -0.2046
  383TIP3    H2 1156   4.686   3.535   0.217 -0.2390 -0.3575 -1.0575
  384TIP3   OH2 1157   2.810   5.359   1.889  0.3153 -0.2489 -0.2378
  384TIP3    H1 1158   2.773   5.275   1.917  0.5007 -0.2863 -0.1009
  384TIP3    H2 1159   2.764   5.380   1.808 -1.4435  0.6770  0.9426
  385TIP3   OH2 1160   2.283   4.637   3.898 -0.1881 -0.2923 -0.0519
  385TIP3    H1 1161   2.305   4.716   3.946  1.8728 -0.6258 -0.3654
  385TIP3    H2 1162   2.193   4.617   3.925  0.7159 -0.3186  3.4657
  386TIP3   OH2 1163   5.767   5.369   4.207 -0.7450  0.1542  0.3032
  386TIP3    H1 1164   5.717   5.380   4.288 -1.0211 -0.3991  0.2153
  386TIP3    H2 1165   5.844   5.425   4.218 -1.5267  1.2693  0.3213
  387TIP3   OH2 1166   5.813   4.207   5.080 -0.3134 -0.3952 -0.3134
  387TIP3    H1 1167   5.826   4.207   5.175  0.1974  0.6649 -0.3755
  387TIP3    H2 1168   5.815   4.299   5.055 -2.2687 -0.5300 -1.1238
  388TIP3   OH2 1169   3.718   4.716   1.683  0.3550 -0.6702  0.3997
  388TIP3    H1 1170   3.683   4.627   1.671  0.5905 -0.8304  0.8457
  388TIP3    H2 1171   3.655   4.772   1.639  1.5565 -1.2285 -2.2390
  389TIP3   OH2 1172   2.323   4.258   4.362 -0.2156 -0.2481  0.4892
  389TIP3    H1 1173   2.298   4.288   4.449 -0.3704  1.3442 -0.0660
  389TIP3    H2 1174   2.250   4.202   4.334 -0.8332  0.3662  0.8320
  390TIP3   OH2 1175   4.740   1.146   0.327  0.8092 -0.0052  0.0676
  390TIP3    H1 1176   4.726   1.055   0.302  2.1743 -0.5238  1.0477
  390TIP3    H2 1177   4.659   1.191   0.302  0.8528 -1.0770 -2.2353
  391TIP3   OH2 1178   2.045   0.592   3.725  0.2173  0.0853  0.2701
  391TIP3    H1 1179   2.075   0.657   3.789 -0.1330  0.2874  0.2326
  391TIP3    H2 1180   2.084   0.619   3.642 -2.1752  1.9490 -0.3767
  392TIP3   OH2 1181   1.879   5.782   4.668  0.0893 -0.0487  0.2603
  392TIP3    H1 1182   1.830   5.701   4.683 -0.0149 -0.1503 -0.5775
  392TIP3    H2 1183   1.970   5.759   4.684 -0.1828  0.3674  2.7518
  393TIP3   OH2 1184   2.142   2.009   1.423 -0.0862 -0.1328  0.1895
  393TIP3    H1 1185   2.179   2.005   1.512 -0.6939  0.9127  0.5118
  393TIP3    H2 1186   2.218   2.019   1.366  0.2756 -0.2270  0.6472
  394TIP3   OH2 1187   3.793   1.743   4.744 -0.0248 -0.5011  0.4221
  394TIP3    H1 1188   3.748   1.813   4.697  1.7333  0.1304 -0.4498
  394TIP3    H2 1189   3.779   1.665   4.690  1.6135  0.1301 -1.0254
  395TIP3   OH2 1190   3.522   5.079   0.199  0.0355 -0.1993  0.4023
  395TIP3    H1 1191   3.614   5.053   0.208 -0.2688 -1.5529 -0.1506
  395TIP3    H2 1192   3.515   5.159   0.251  0.8831 -1.6342  2.8977
  396TIP3   OH2 1193   0.051   0.141   2.948  0.4668  0.0150  0.4062
  396TIP3    H1 1194   0.080   0.111   2.862  0.5475 -0.9743  0.7594
  396TIP3    H2 1195   0.119   0.202   2.976  1.2799 -0.8632  0.4227
  397TIP3   OH2 1196   4.328   1.458   1.504  0.1793 -0.0148 -0.1664
  397TIP3    H1 1197   4.271   1.466   1.581 -0.9838  1.1305 -1.1010
  397TIP3    H2 1198   4.282   1.395   1.448  0.0509  0.5887 -0.7404
  398TIP3   OH2 1199   4.206   2.474   5.102 -0.3067 -0.6150 -0.2667
  398TIP3    H1 1200   4.113   2.460   5.114 -0.1184 -0.1913  2.4346
  398TIP3    H2 1201   4.248   2.422   5.171  1.2764  0.8774 -0.0016
  399TIP3   OH2 1202   5.519   3.952   0.693  0.2245 -0.5786  0.4999
  399TIP3    H1 1203   5.588   3.951   0.625  0.2193  1.5678  0.3977
  399TIP3    H2 1204   5.441   3.983   0.647  0.5442  2.2112  1.7070
  400TIP3   OH2 1205   5.152   0.583   4.930  0.2720  0.2829  0.3106
  400TIP3    H1 1206   5.129   0.650   4.865 -0.2630 -0.3092 -0.1261
  400TIP3    H2 1207   5.116   0.615   5.012 -1.6033 -0.3048 -0.2364
  401TIP3   OH2 1208   4.181   2.060   4.755  0.9591  0.2609 -0.4640
  401TIP3    H1 1209   4.115   2.126   4.732  1.8160  0.2945 -3.0864
  401TIP3    H2 1210   4.142   1.977   4.729 -0.5856 -0.6219  3.8400
  402TIP3   OH2 1211   5.116   4.893   0.386  0.0012  0.0144 -0.3880
  402TIP3    H1 1212   5.118   4.898   0.482 -2.1929 -0.5492 -0.2763
  402TIP3    H2 1213   5.147   4.980   0.358 -0.3907  0.5786  0.8471
  403TIP3   OH2 1214   4.296   2.259   4.548 -0.2707 -0.3684  0.4999
  403TIP3    H1 1215   4.329   2.257   4.639 -0.1421 -1.3809  0.4387
  403TIP3    H2 1216   4.232   2.189   4.544 -0.5969 -0.0415 -0.0842
  404TIP3   OH2 1217   4.419  -0.005   3.313  0.1844 -0.0167 -0.3523
  404TIP3    H1 1218   4.406  -0.034   3.223  2.4015  2.2282 -1.5258
  404TIP3    H2 1219   4.395   0.088   3.312 -1.8928 -0.4464  1.9805
  405TIP3   OH2 1220   5.280   1.692   3.506  0.0879  0.6102 -0.4540
  405TIP3    H1 1221   5.298   1.660   3.418  0.0953 -0.4647 -0.0733
  405TIP3    H2 1222   5.220   1.766   3.492 -0.7226 -0.1762 -1.3094
  406TIP3   OH2 1223   3.296   5.719   0.321  0.7581 -0.4758 -0.5532
  406TIP3    H1 1224   3.375   5.748   0.367  0.2809 -0.0987  0.0308
  406TIP3    H2 1225   3.318   5.730   0.228  2.2865 -2.6978 -0.5262
  407TIP3   OH2 1226   6.233   4.998   3.299  0.2117 -0.2896 -0.0417
  407TIP3    H1 1227   6.306   5.030   3.352 -0.7809  0.2280  1.0472
  407TIP3    H2 1228   6.215   4.911   3.333  0.4558 -0.5088 -0.4642
  408TIP3   OH2 1229   4.345   2.247   2.957  0.5410  0.0814  0.4147
  408TIP3    H1 1230   4.379   2.306   2.890  0.2300  1.8379  1.7419
  408TIP3    H2 1231   4.251   2.268   2.961  0.5505 -0.0357  1.3579
  409TIP3   OH2 1232   2.709   4.696   0.270 -0.1311 -0.4248  0.0499
  409TIP3    H1 1233   2.698   4.786   0.239  0.9666  0.1451  1.1985
  409TIP3    H2 1234   2.650   4.644   0.216  1.5214  0.5094 -2.8317
  410TIP3   OH2 1235   3.311   5.595   1.000  0.5042 -0.1585  0.0835
  410TIP3    H1 1236   3.298   5.640   0.917 -0.8892 -1.3620 -0.3902
  410TIP3    H2 1237   3.372   5.524   0.980  1.3510  0.4556  0.4426
  411TIP3   OH2 1238   2.384   3.621   3.683 -0.1376  1.0093 -0.0427
  411TIP3    H1 1239   2.363   3.713   3.666  0.2953  1.3110  0.9620
  411TIP3    H2 1240   2.354   3.606   3.773 -0.2591  0.1458 -0.2190
  412TIP3   OH2 1241   6.038   1.644   3.457  0.5253  0.3793 -0.0054
  412TIP3    H1 1242   6.020   1.736   3.476 -0.0226  0.1594  0.5746
  412TIP3    H2 1243   6.035   1.638   3.362  1.0701  1.0600 -0.0748
  413TIP3   OH2 1244   1.745   4.201   4.193 -0.0618 -0.4269 -0.0483
  413TIP3    H1 1245   1.680   4.235   4.131  0.1467 -0.9748 -0.5686
  413TIP3    H2 1246   1.695   4.190   4.275 -0.3625  0.1861 -0.1401
  414TIP3   OH2 1247   6.017   1.033   2.773  0.2783 -0.4103 -0.2810
  414TIP3    H1 1248   6.054   0.995   2.693  0.7668 -1.1969  0.2989
  414TIP3    H2 1249   6.048   1.124   2.773 -0.4415 -0.1565 -1.4112
  415TIP3   OH2 1250   0.426   1.656   2.775 -0.1718 -0.1483 -0.5970
  415TIP3    H1 1251   0.342   1.701   2.776  0.5310  1.3204 -2.4774
  415TIP3    H2 1252   0.465   1.676   2.860 -2.5350 -2.7059  1.2798
  416TIP3   OH2 1253   6.080   5.130   3.129 -0.4270 -0.2898  0.2922
  416TIP3    H1 1254   6.141   5.128   3.056 -0.7722  1.1323 -0.0771
  416TIP3    H2 1255   6.125   5.083   3.200  1.1018  0.6916  0.0304
  417TIP3   OH2 1256   1.111   3.205   4.310 -0.2459  0.3537 -0.0726
  417TIP3    H1 1257   1.022   3.174   4.291 -0.4707 -0.0918  1.5599
  417TIP3    H2 1258   1.130   3.171   4.397  1.5427  0.4466 -0.4013
  418TIP3   OH2 1259   2.341   2.480   4.337 -0.2211  1.0837  0.0215
  418TIP3    H1 1260   2.388   2.448   4.261  0.3998  0.1816  0.7688
  418TIP3    H2 1261   2.265   2.527   4.301 -0.7235 -0.5545 -1.1206
  419TIP3   OH2 1262   2.025   1.763   1.357  0.1444 -0.3311  1.1268
  419TIP3    H1 1263   1.958   1.750   1.424  1.4677 -0.7041  2.4384
  419TIP3    H2 1264   2.072   1.841   1.384  1.1195 -0.8590  1.0132
  420TIP3   OH2 1265   4.147   1.222   4.011 -0.3362 -0.4274 -0.5312
  420TIP3    H1 1266   4.204   1.297   4.029  0.2191 -0.2998 -2.5489
  420TIP3    H2 1267   4.065   1.242   4.055  0.4731  0.3675  0.6904
  421TIP3   OH2 1268   2.931   2.403   1.367  0.0563 -0.5113 -0.2924
  421TIP3    H1 1269   2.971   2.337   1.423  0.4348  1.0233  1.3283
  421TIP3    H2 1270   2.841   2.373   1.355  0.4411 -1.7179 -0.2778
  422TIP3   OH2 1271   6.291   0.025   4.634 -0.5063  0.0045 -0.1226
  422TIP3    H1 1272   6.347  -0.046   4.665 -0.8957 -1.1868 -2.0092
  422TIP3    H2 1273   6.347   0.078   4.578 -0.5076  0.5659  0.3959
  423TIP3   OH2 1274   4.673   5.492   4.195  0.0634  0.0781 -0.6242
  423TIP3    H1 1275   4.734   5.528   4.259 -0.5531  2.3724 -1.2445
  423TIP3    H2 1276   4.643   5.567   4.144 -0.9857 -1.3928 -2.3250
  424TIP3   OH2 1277   1.636   3.356   3.073 -0.3383  0.2957  0.3505
  424TIP3    H1 1278   1.700   3.291   3.103 -0.8769 -0.2707  0.3077
  424TIP3    H2 1279   1.681   3.440   3.080  0.7506 -0.1865 -0.6155
  425TIP3   OH2 1280   4.013   1.599   0.793  0.7903  0.0357  0.2129
  425TIP3    H1 1281   3.961   1.520   0.811  1.7985 -0.1585  2.7155
  425TIP3    H2 1282   4.035   1.593   0.700 -1.5275 -1.1317 -0.3430
  426TIP3   OH2 1283   3.413   2.258   3.801 -0.4818  0.4538 -0.5181
  426TIP3    H1 1284   3.467   2.336   3.815 -0.6452  0.5446 -0.3953
  426TIP3    H2 1285   3.422   2.240   3.708 -1.6149  1.4823 -0.8495
  427TIP3   OH2 1286   2.574   0.958   4.319  0.0805 -0.0347 -0.2908
  427TIP3    H1 1287   2.536   0.974   4.405 -0.1976 -1.4073 -0.1243
  427TIP3    H2 1288   2.583   1.044   4.279 -0.7327  0.5299  0.7188
  428TIP3   OH2 1289   5.501   3.276   4.169 -0.2616 -0.1274  0.5583
  428TIP3    H1 1290   5.449   3.320   4.236 -0.0043  0.5069  0.3431
  428TIP3    H2 1291   5.567   3.340   4.143  0.9730 -1.0869  1.1929
  429TIP3   OH2 1292   4.721   0.632   0.525 -0.2673 -0.5850  0.1542
  429TIP3    H1 1293   4.665   0.692   0.475 -0.1313  0.2573  0.9935
  429TIP3    H2 1294   4.807   0.638   0.484  0.0668  0.7774  1.0038
  430TIP3   OH2 1295   3.373   2.209   3.220  0.3610  0.6456 -0.0384
  430TIP3    H1 1296   3.386   2.135   3.280 -0.5763  2.1722  2.1711
  430TIP3    H2 1297   3.371   2.169   3.133  0.7138 -1.8176  1.0094
  431TIP3   OH2 1298   2.460   5.824   1.478  0.3059 -0.6566  0.2519
  431TIP3    H1 1299   2.504   5.885   1.537  0.5717  0.3757 -0.9777
  431TIP3    H2 1300   2.530   5.789   1.423 -0.3123  0.8486 -1.5899
  432TIP3   OH2 1301   0.662   5.131   2.156  0.5263  0.1123  0.3660
  432TIP3    H1 1302   0.668   5.059   2.093 -0.3093  0.8124 -0.5445
  432TIP3    H2 1303   0.673   5.090   2.242 -1.5082 -1.3730 -0.0081
  433TIP3   OH2 1304   5.357   4.913   4.185  0.2432  0.1235  0.8047
  433TIP3    H1 1305   5.277   4.910   4.132  1.7409  1.7473 -1.7875
  433TIP3    H2 1306   5.386   5.004   4.178  2.3798 -0.4484  1.5199
  434TIP3   OH2 1307   3.897   0.962   2.315 -0.0793 -0.1778 -0.1897
  434TIP3    H1 1308   3.818   1.012   2.335  0.0350 -0.3297  0.6736
  434TIP3    H2 1309   3.866   0.887   2.264 -0.7950 -1.3229  1.8049
  435TIP3   OH2 1310   2.930   3.698   3.665 -0.6729 -0.5571 -0.3715
  435TIP3    H1 1311   2.955   3.606   3.664  4.0838  0.5199 -0.4812
  435TIP3    H2 1312   2.963   3.733   3.582  0.5675  1.8447  1.0353
  436TIP3   OH2 1313   4.824   3.047   0.361  0.1339 -0.1246  0.2843
  436TIP3    H1 1314   4.908   3.024   0.322 -0.2314 -0.7308 -0.1492
  436TIP3    H2 1315   4.765   3.059   0.287 -0.0118  0.9467  0.5547
  437TIP3   OH2 1316   0.429   2.396   4.083  0.5606 -0.1855  0.2676
  437TIP3    H1 1317   0.413   2.403   4.177  0.6945 -1.2746  0.3819
  437TIP3    H2 1318   0.507   2.449   4.068  2.1661 -2.1240  1.2501
  438TIP3   OH2 1319   5.130   1.379   0.546 -0.4604 -0.2025  0.4451
  438TIP3    H1 1320   5.059   1.442   0.535  0.0801  0.3754  0.2418
  438TIP3    H2 1321   5.142   1.372   0.641 -1.3936 -1.0000  0.5223
  439TIP3   OH2 1322   3.846   1.814   1.106 -0.3442  0.0314  0.4420
  439TIP3    H1 1323   3.802   1.786   1.026  0.5560 -1.0609  0.3113
  439TIP3    H2 1324   3.939   1.801   1.089 -0.0821  0.5652  1.3801
  440TIP3   OH2 1325   4.669   4.779   1.858 -0.3908  0.2363  0.5107
  440TIP3    H1 1326   4.712   4.761   1.774 -0.3029 -1.9221  0.9757
  440TIP3    H2 1327   4.589   4.827   1.834  0.0057  0.3149 -0.7209
  441TIP3   OH2 1328   4.064   0.180   1.765 -0.4174 -0.5384  0.3338
  441TIP3    H1 1329   4.151   0.185   1.725 -0.7389  0.7666 -0.2750
  441TIP3    H2 1330   4.005   0.213   1.697 -1.1159  0.5747  1.4338
  442TIP3   OH2 1331   5.896   1.886   0.758  0.0242 -0.2585  0.1235
  442TIP3    H1 1332   5.860   1.881   0.669  0.1112  1.2772 -0.0126
  442TIP3    H2 1333   5.924   1.977   0.768  0.4177 -0.5170  1.5784
  443TIP3   OH2 1334   5.759   0.903   2.580  0.6149  0.4334  0.3235
  443TIP3    H1 1335   5.724   0.945   2.501 -1.9036 -0.9953  0.5635
  443TIP3    H2 1336   5.682   0.873   2.628  2.1460 -1.8440  1.5900
  444TIP3   OH2 1337   4.457   0.909   5.179  0.1947 -0.1480  0.0559
  444TIP3    H1 1338   4.370   0.937   5.151 -0.2519 -1.3478  0.1547
  444TIP3    H2 1339   4.518   0.959   5.124 -0.6057 -0.6986 -1.3935
  445TIP3   OH2 1340   4.016   2.190   2.973  0.0545  0.3473 -0.0345
  445TIP3    H1 1341   3.922   2.172   2.960  0.2291 -0.4086 -0.3089
  445TIP3    H2 1342   4.059   2.147   2.899  0.7484 -0.6968  0.9484
  446TIP3   OH2 1343   6.101   1.348   2.489 -0.6565  0.5601  0.2263
  446TIP3    H1 1344   6.030   1.310   2.437  0.8319 -0.1460 -1.3626
  446TIP3    H2 1345   6.179   1.336   2.436  0.7949  0.7264  2.2230
  447TIP3   OH2 1346   0.146   4.292   4.524 -0.4336  0.3190  0.8468
  447TIP3    H1 1347   0.202   4.296   4.447 -0.4120  1.3404  0.9010
  447TIP3    H2 1348   0.085   4.221   4.507 -0.3389  0.4495 -0.0526
  448TIP3   OH2 1349   2.947   1.914   2.986  0.2193  0.1166 -0.4664
  448TIP3    H1 1350   2.995   1.845   2.941 -1.7103 -0.5825 -1.5588
  448TIP3    H2 1351   2.930   1.980   2.918 -0.1169  0.4830 -0.0341
  449TIP3   OH2 1352   5.987   3.443   0.880 -0.1390  0.2682 -0.0241
  449TIP3    H1 1353   6.081   3.425   0.875  0.1440  1.8566 -1.1583
  449TIP3    H2 1354   5.977   3.490   0.963 -0.1863 -1.1115  0.7815
  450TIP3   OH2 1355   1.291   3.725   1.870 -0.0282  0.3549  0.3128
  450TIP3    H1 1356   1.223   3.674   1.913 -1.0385  0.5777 -0.9460
  450TIP3    H2 1357   1.323   3.668   1.800  0.8796  0.3737  0.6968
  451TIP3   OH2 1358   3.037   2.916   1.162 -0.1410 -0.2093  0.0552
  451TIP3    H1 1359   3.016   2.831   1.124 -0.9148  0.3076 -0.6936
  451TIP3    H2 1360   2.976   2.926   1.235  0.5312 -0.6601  0.7029
  452TIP3   OH2 1361   2.876   3.669   0.952 -0.1565  0.1101  0.1327
  452TIP3    H1 1362   2.925   3.597   0.913  0.3439 -1.0696  2.7399
  452TIP3    H2 1363   2.791   3.667   0.908 -0.3628 -2.4680  0.4913
  453TIP3   OH2 1364   4.485   4.058   3.172 -0.5156  0.8692 -0.4179
  453TIP3    H1 1365   4.566   4.075   3.219 -1.5085  1.7368  1.0720
  453TIP3    H2 1366   4.450   4.145   3.153 -2.5271  0.5985  1.6097
  454TIP3   OH2 1367   1.587   4.058   2.532  0.4004 -0.8458  0.0532
  454TIP3    H1 1368   1.618   4.114   2.460 -0.8719  0.3093  0.3682
  454TIP3    H2 1369   1.621   3.971   2.511  0.5645 -0.4057 -1.6309
  455TIP3   OH2 1370   3.283   3.210   1.031 -0.0811  0.3934 -0.1614
  455TIP3    H1 1371   3.359   3.252   0.991  1.1828 -1.1778  0.4930
  455TIP3    H2 1372   3.264   3.264   1.108  2.7958 -1.1604  1.8430
  456TIP3   OH2 1373   5.614   2.155   2.679  0.2451 -0.1067  0.2849
  456TIP3    H1 1374   5.646   2.065   2.685 -1.7983 -0.8769  0.3054
  456TIP3    H2 1375   5.576   2.162   2.591 -0.5472  0.4044  0.6552
  457TIP3   OH2 1376   1.930   2.973   2.848 -0.2784  0.1733 -0.0920
  457TIP3    H1 1377   1.849   2.923   2.836  0.2637 -0.5530 -0.8576
  457TIP3    H2 1378   1.982   2.953   2.770  0.5510  0.8097  0.2833
  458TIP3   OH2 1379   2.652   2.446   1.022 -0.3901  0.1484 -0.5671
  458TIP3    H1 1380   2.719   2.508   1.052 -0.5558 -0.3616  0.9411
  458TIP3    H2 1381   2.666   2.439   0.928  2.4407 -0.8175 -0.1690
  459TIP3   OH2 1382   2.612   2.988   3.314  0.1131 -0.2754 -0.2338
  459TIP3    H1 1383   2.660   3.046   3.373 -1.3043  0.2938  0.4078
  459TIP3    H2 1384   2.635   2.900   3.342  0.8748 -0.0180 -0.0316
  460TIP3   OH2 1385   2.280   1.910   3.222 -0.0240 -0.2866 -0.3825
  460TIP3    H1 1386   2.205   1.863   3.186 -1.1385  0.3538  1.0441
  460TIP3    H2 1387   2.252   2.001   3.226  0.6616 -0.1062  0.5808
  461TIP3   OH2 1388   4.360   1.778   0.286 -0.2403  0.2207  0.5231
  461TIP3    H1 1389   4.371   1.856   0.230  2.6710  0.2737  1.0614
  461TIP3    H2 1390   4.387   1.807   0.373 -0.2796 -1.1130  0.9908
  462TIP3   OH2 1391   2.505   2.393   2.917 -0.3192  0.1284  0.4628
  462TIP3    H1 1392   2.456   2.431   2.990 -0.3937 -0.3434  0.6672
  462TIP3    H2 1393   2.438   2.356   2.859 -0.2692  0.6635  0.0584
  463TIP3   OH2 1394   2.252   0.243   4.038  0.2569 -0.0282  0.7036
  463TIP3    H1 1395   2.167   0.210   4.010 -1.0654  3.5608  0.0537
  463TIP3    H2 1396   2.310   0.224   3.964 -0.9139  0.8111 -0.4680
  464TIP3   OH2 1397   4.688   0.559   3.856 -0.2570 -0.0132  0.0947
  464TIP3    H1 1398   4.677   0.511   3.938 -0.0383  0.3994  0.3738
  464TIP3    H2 1399   4.620   0.525   3.798 -0.4325 -0.2857  0.4581
  465TIP3   OH2 1400   2.395   0.157   1.944 -0.1797  0.2290 -0.1845
  465TIP3    H1 1401   2.363   0.069   1.964  0.4945  0.1931  0.8460
  465TIP3    H2 1402   2.426   0.190   2.028  0.7799  0.9536 -0.8010
  466TIP3   OH2 1403   4.917   0.431   2.142 -0.6275  0.3959  0.5222
  466TIP3    H1 1404   4.828   0.462   2.128 -0.3547  1.3171  0.7900
  466TIP3    H2 1405   4.915   0.389   2.228 -0.8780  0.0811  0.3687
  467TIP3   OH2 1406   6.249   1.734   2.512 -0.3883 -0.0033 -0.0301
  467TIP3    H1 1407   6.184   1.797   2.545 -0.2871  0.0486  0.0719
  467TIP3    H2 1408   6.257   1.669   2.582  0.3937  0.5232  0.3857
  468TIP3   OH2 1409   1.522   5.478   2.427 -0.0039  0.1040  0.2281
  468TIP3    H1 1410   1.563   5.544   2.483 -0.2426  0.6790 -0.2484
  468TIP3    H2 1411   1.487   5.413   2.487 -0.7497  0.9989  0.7906
  469TIP3   OH2 1412   1.916   4.205   2.010 -0.3451  0.1819 -0.7633
  469TIP3    H1 1413   1.857   4.187   1.937  0.6112 -1.7363 -1.1554
  469TIP3    H2 1414   2.001   4.223   1.969 -0.2845  1.2770 -0.1779
  470TIP3   OH2 1415   3.216   2.748   1.775 -0.2005  0.0584 -0.4176
  470TIP3    H1 1416   3.143   2.784   1.825  0.2415 -0.4435  0.6227
  470TIP3    H2 1417   3.183   2.739   1.686 -1.5267 -0.4812  0.1095
  471TIP3   OH2 1418   1.241   4.859   0.737 -0.2429 -0.2075 -0.0764
  471TIP3    H1 1419   1.260   4.950   0.760  0.4386 -0.8006  1.9199
  471TIP3    H2 1420   1.277   4.808   0.809 -1.6838 -2.0047 -0.5481
  472TIP3   OH2 1421   2.075   4.082   4.356  0.0606 -0.3835  0.4719
  472TIP3    H1 1422   2.153   4.028   4.371  0.2190 -0.7463 -1.3931
  472TIP3    H2 1423   2.003   4.030   4.390  0.4124 -1.0167  0.2716
  473TIP3   OH2 1424   2.741   2.672   0.844 -0.0530 -0.1858 -1.2835
  473TIP3    H1 1425   2.669   2.728   0.872 -0.8068 -1.1042 -1.3601
  473TIP3    H2 1426   2.755   2.695   0.752  0.3044  0.5641 -1.0498
  474TIP3   OH2 1427   3.998   3.724   1.476 -0.1543 -0.0041  0.2606
  474TIP3    H1 1428   3.987   3.726   1.571  0.9986 -1.2047  0.4431
  474TIP3    H2 1429   4.048   3.645   1.459  0.1289  0.4725 -1.3097
  475TIP3   OH2 1430   2.475   1.196   2.382 -0.3321  0.4482 -0.2515
  475TIP3    H1 1431   2.532   1.153   2.445  0.3723  2.0678  0.2662
  475TIP3    H2 1432   2.458   1.129   2.316  2.3543 -0.0488 -0.5641
  476TIP3   OH2 1433   5.879   2.171   3.335 -0.5303 -0.3807  0.2981
  476TIP3    H1 1434   5.837   2.240   3.282  0.0379  1.6974  2.3833
  476TIP3    H2 1435   5.851   2.190   3.425  1.3189 -1.6147  1.1908
  477TIP3   OH2 1436   4.328   2.008   4.971 -0.5149  0.0122 -0.2507
  477TIP3    H1 1437   4.398   2.063   4.937 -2.0753  1.9916 -0.4478
  477TIP3    H2 1438   4.262   2.005   4.901 -1.6332  0.1258  0.7588
  478TIP3   OH2 1439   6.204   1.766   2.233  0.7710  0.3779 -0.3988
  478TIP3    H1 1440   6.199   1.861   2.225 -1.0101  0.6400  2.4578
  478TIP3    H2 1441   6.201   1.749   2.327  1.5425 -2.5188 -0.7912
  479TIP3   OH2 1442   3.203   5.309   0.726 -0.6046  0.0213  0.4909
  479TIP3    H1 1443   3.142   5.259   0.671 -0.3262 -0.2849  0.4577
  479TIP3    H2 1444   3.172   5.399   0.720 -0.6604 -0.0308 -0.0559
  480TIP3   OH2 1445   2.928   5.127   2.928 -0.3209  0.3174 -0.4873
  480TIP3    H1 1446   2.868   5.163   2.993 -0.4420  2.5580 -1.7638
  480TIP3    H2 1447   2.991   5.197   2.911  2.1157 -1.5860  0.0408
  481TIP3   OH2 1448   0.223   3.295   0.111  0.4642 -0.5289  0.2821
  481TIP3    H1 1449   0.306   3.338   0.091 -1.1540  2.5350 -0.4626
  481TIP3    H2 1450   0.212   3.231   0.040  1.2769  0.4038 -0.7289
  482TIP3   OH2 1451   2.571   5.483   2.759 -0.2310 -0.3272 -0.0451
  482TIP3    H1 1452   2.536   5.517   2.677  1.2017  0.2506 -0.4493
  482TIP3    H2 1453   2.582   5.389   2.743 -0.3268 -0.2836 -0.3816
  483TIP3   OH2 1454   0.054   1.171   4.621 -0.2800  0.1392  0.2257
  483TIP3    H1 1455   0.065   1.093   4.566  0.7341  0.6547 -0.3351
  483TIP3    H2 1456   0.003   1.141   4.696 -3.2508 -0.2485 -1.7843
  484TIP3   OH2 1457   1.154   2.878   0.268 -0.5971  0.3876  1.2059
  484TIP3    H1 1458   1.249   2.877   0.270 -0.1530 -2.5948 -3.9558
  484TIP3    H2 1459   1.128   2.806   0.327  0.2075  1.3130  2.7566
  485TIP3   OH2 1460   2.522   5.342   3.054  0.0548  0.1421  0.0375
  485TIP3    H1 1461   2.497   5.332   2.962 -0.9442  0.5077  0.2633
  485TIP3    H2 1462   2.486   5.265   3.097  0.7843 -0.1829  0.0777
  486TIP3   OH2 1463   2.669   3.674   4.133  0.2786 -0.1158  0.0732
  486TIP3    H1 1464   2.690   3.661   4.041 -0.4245 -0.7986  0.0005
  486TIP3    H2 1465   2.627   3.759   4.137  1.5301  0.5390 -0.0197
  487TIP3   OH2 1466   0.190   1.397   2.606 -0.2442 -0.1009  0.2260
  487TIP3    H1 1467   0.158   1.328   2.549  1.2412 -0.8921  0.2931
  487TIP3    H2 1468   0.211   1.470   2.548 -0.7325 -0.1289  0.0165
  488TIP3   OH2 1469   5.852   0.040   1.831 -0.5337  0.9017  0.6511
  488TIP3    H1 1470   5.889   0.117   1.788 -0.9677  0.2977 -0.8755
  488TIP3    H2 1471   5.830  -0.020   1.759  0.4775 -0.9714  1.8188
  489TIP3   OH2 1472   5.299   2.172   4.108 -0.1102  0.2901 -0.1044
  489TIP3    H1 1473   5.211   2.191   4.077 -0.4730  1.3973  1.4794
  489TIP3    H2 1474   5.309   2.078   4.094 -1.0468  0.3557 -1.4608
  490TIP3   OH2 1475   4.049   3.560   3.966 -0.0094 -0.3149 -0.1453
  490TIP3    H1 1476   3.987   3.597   3.903 -0.2090  0.8114  0.6853
  490TIP3    H2 1477   4.047   3.621   4.040  0.0307 -1.7555  1.0674
  491TIP3   OH2 1478   2.888   3.328   0.031 -0.1651 -0.1422  0.1392
  491TIP3    H1 1479   2.862   3.243   0.066  0.6116  0.1315  1.4654
  491TIP3    H2 1480   2.872   3.322  -0.063  0.0618 -1.8261  0.1825
  492TIP3   OH2 1481   1.060   5.688   5.219  0.0612  0.1667  0.3874
  492TIP3    H1 1482   0.991   5.671   5.155 -0.8596  1.0668  1.0877
  492TIP3    H2 1483   1.141   5.679   5.171 -0.6115  1.2699 -1.0287
  493TIP3   OH2 1484   0.092   4.950   1.122 -0.6182  0.7487  0.9224
  493TIP3    H1 1485   0.035   4.992   1.058  0.3000  0.0780 -0.3895
  493TIP3    H2 1486   0.034   4.894   1.173 -1.5905  2.3385  1.6281
  494TIP3   OH2 1487   2.674   2.273   0.363  0.2069  0.2726 -0.1878
  494TIP3    H1 1488   2.744   2.304   0.421  0.0325 -0.4812  0.4300
  494TIP3    H2 1489   2.684   2.178   0.360 -2.0287 -0.1079  1.5801
  495TIP3   OH2 1490   0.679   5.017   3.568  0.1391  0.4818  0.1105
  495TIP3    H1 1491   0.687   4.958   3.643  0.2070 -0.7845 -0.8519
  495TIP3    H2 1492   0.764   5.062   3.564  1.1214 -1.3199 -0.6820
  496TIP3   OH2 1493   3.719   1.149   0.866  0.3276  0.0427 -0.1918
  496TIP3    H1 1494   3.631   1.156   0.828  0.2687 -1.2515 -0.3587
  496TIP3    H2 1495   3.756   1.237   0.860  0.4343 -0.1276 -3.5129
  497TIP3   OH2 1496   3.808   5.030   4.344  0.3315  0.3022  0.2541
  497TIP3    H1 1497   3.809   5.126   4.353  1.9555  0.2948  0.4899
  497TIP3    H2 1498   3.803   4.998   4.434  1.0608  0.1782  0.2550
  498TIP3   OH2 1499   3.537   4.243   2.918  0.0871  0.1792  0.6484
  498TIP3    H1 1500   3.509   4.248   2.827  0.3387 -0.0267  0.5586
  498TIP3    H2 1501   3.571   4.330   2.937  1.5416 -0.2211  0.0427
  499TIP3   OH2 1502   6.079   0.553   1.393 -0.4619  0.3360 -0.0391
  499TIP3    H1 1503   6.149   0.522   1.451  1.1553  3.0757 -0.4056
  499TIP3    H2 1504   6.008   0.576   1.453  0.6190  1.6888  0.7809
  500TIP3   OH2 1505   4.937   0.051   4.085  0.1312  0.1109  0.2113
  500TIP3    H1 1506   4.969   0.122   4.140  0.2121  1.3651 -1.4039
  500TIP3    H2 1507   4.844   0.071   4.072  0.1311 -0.1187 -0.1694
  501TIP3   OH2 1508   0.640   1.846   4.283 -0.7250 -0.2873 -0.6691
  501TIP3    H1 1509   0.691   1.893   4.217 -0.7367  0.8535  0.1079
  501TIP3    H2 1510   0.549   1.870   4.265 -0.7174  0.1430 -0.1618
  502TIP3   OH2 1511   0.875   2.096   0.492  0.3537 -0.1421 -0.2317
  502TIP3    H1 1512   0.827   2.176   0.510 -0.1692 -0.7377  1.2033
  502TIP3    H2 1513   0.852   2.073   0.402  0.2571  1.1271 -0.5470
  503TIP3   OH2 1514   0.477   0.289   4.331  0.1003 -0.4110 -0.1147
  503TIP3    H1 1515   0.411   0.357   4.350  0.5230 -0.0365  0.0309
  503TIP3    H2 1516   0.494   0.249   4.416  1.5692  0.8796  0.2418
  504TIP3   OH2 1517   1.339   0.201   2.610 -0.3223  0.0049  0.1790
  504TIP3    H1 1518   1.425   0.183   2.571 -0.8866 -3.3250  0.2062
  504TIP3    H2 1519   1.306   0.115   2.637 -3.8405  1.1128 -0.0983
  505TIP3   OH2 1520   4.637   3.651   3.554  0.2660 -0.3821 -0.1438
  505TIP3    H1 1521   4.605   3.740   3.565 -0.5781 -0.6123 -0.6264
  505TIP3    H2 1522   4.604   3.624   3.468  0.8863 -1.0006 -0.1909
  506TIP3   OH2 1523   6.145   2.703   0.717 -0.3544  0.4748  0.2012
  506TIP3    H1 1524   6.087   2.675   0.647 -0.5520  1.7226 -0.1695
  506TIP3    H2 1525   6.143   2.631   0.780 -1.2004 -0.1041 -0.4583
  507TIP3   OH2 1526   4.109   1.601   4.271  0.1603  0.1190 -0.2665
  507TIP3    H1 1527   4.186   1.559   4.233  1.0601  0.5319  1.0417
  507TIP3    H2 1528   4.140   1.686   4.303 -0.6407 -0.0292  0.9943
  508TIP3   OH2 1529   4.775   0.109   0.820 -0.1552  0.3190 -0.5492
  508TIP3    H1 1530   4.811   0.053   0.751  0.3219  1.0042 -0.8674
  508TIP3    H2 1531   4.833   0.096   0.895 -0.0248  0.3973 -0.6341
  509TIP3   OH2 1532   2.541   2.107   3.701 -0.5870 -0.2445  0.0246
  509TIP3    H1 1533   2.553   2.195   3.736 -1.0880 -0.0364 -0.3243
  509TIP3    H2 1534   2.588   2.107   3.618 -0.2303 -0.4370  0.2251
  510TIP3   OH2 1535   1.555   5.977   4.324 -0.5135 -0.0657 -0.3765
  510TIP3    H1 1536   1.582   5.921   4.397 -0.7287 -0.2919 -0.4678
  510TIP3    H2 1537   1.546   5.918   4.250 -0.9783  0.0476 -0.4166
  511TIP3   OH2 1538   0.446   1.051   4.413  0.2125 -0.2858  0.0946
  511TIP3    H1 1539   0.497   1.091   4.343 -0.6698  0.2940 -0.2259
  511TIP3    H2 1540   0.381   1.117   4.438  0.3094 -0.5915  1.2507
  512TIP3   OH2 1541   2.959   5.093   3.511 -0.0196 -0.1406  0.1873
  512TIP3    H1 1542   3.026   5.135   3.564 -1.1046  0.8667  0.8161
  512TIP3    H2 1543   2.943   5.009   3.555  0.5939 -0.2542  0.2032
  513TIP3   OH2 1544   4.586   2.097   1.249 -0.0020 -0.0049 -0.1227
  513TIP3    H1 1545   4.640   2.051   1.314  0.6941 -0.0782 -0.7300
  513TIP3    H2 1546   4.613   2.188   1.256 -1.0130  0.2353  0.7265
  514TIP3   OH2 1547   3.455   1.211   1.177 -0.7228  0.7241 -0.4701
  514TIP3    H1 1548   3.472   1.304   1.168  0.5963  0.4618 -0.7967
  514TIP3    H2 1549   3.541   1.170   1.176 -1.1096 -0.3350  1.7425
  515TIP3   OH2 1550   0.068   2.782   3.271 -0.2323 -0.3604  0.0387
  515TIP3    H1 1551   0.079   2.847   3.341 -0.3117  0.0753 -0.3535
  515TIP3    H2 1552  -0.020   2.747   3.286  0.1723 -1.0993  0.8458
  516TIP3   OH2 1553   1.497   5.697   3.254 -0.3328  0.9119 -0.4906
  516TIP3    H1 1554   1.409   5.664   3.239  0.0746 -1.4739  1.5917
  516TIP3    H2 1555   1.543   5.685   3.171 -1.3035 -0.2569 -0.8820
  517TIP3   OH2 1556   0.832   1.316   1.970 -0.3414  0.9756  0.0676
  517TIP3    H1 1557   0.787   1.232   1.961 -0.9474  1.3090 -0.0761
  517TIP3    H2 1558   0.923   1.293   1.991 -0.6581  0.2924  0.7536
  518TIP3   OH2 1559   5.705   1.401   5.024 -0.2623 -0.5345 -0.1913
  518TIP3    H1 1560   5.726   1.444   5.107  0.8038 -2.2489  0.4846
  518TIP3    H2 1561   5.672   1.315   5.049 -1.0572 -0.6375 -1.5248
  519TIP3   OH2 1562   0.629   1.502   0.142  0.7924 -0.1782 -0.2956
  519TIP3    H1 1563   0.679   1.427   0.110  1.7979  0.0888  0.6122
  519TIP3    H2 1564   0.641   1.500   0.237  1.2785  1.4453 -0.2998
  520TIP3   OH2 1565   5.822   2.570   0.968  0.3942  0.0948  0.1124
  520TIP3    H1 1566   5.840   2.632   0.898 -0.3547  0.0583 -0.1161
  520TIP3    H2 1567   5.750   2.516   0.936  0.7882 -0.6647  0.4565
  521TIP3   OH2 1568   4.548   2.914   0.311 -0.0352 -0.3487 -0.0128
  521TIP3    H1 1569   4.471   2.953   0.352  0.5838  1.0652 -0.1349
  521TIP3    H2 1570   4.597   2.874   0.384  0.2138  0.6762  0.3887
  522TIP3   OH2 1571   2.084   2.559   4.278 -0.0973 -0.4792  0.2206
  522TIP3    H1 1572   2.031   2.585   4.202  0.5835 -1.0769 -0.4764
  522TIP3    H2 1573   2.072   2.465   4.284  0.6095 -0.5742  0.2598
  523TIP3   OH2 1574   1.226   5.426   0.283 -0.3366 -0.1323  0.1564
  523TIP3    H1 1575   1.258   5.500   0.232  0.2995 -0.3539  0.2152
  523TIP3    H2 1576   1.175   5.374   0.220  0.1510 -0.2231 -0.1709
  524TIP3   OH2 1577   1.124   3.019   2.494  0.0040 -0.1336 -0.5128
  524TIP3    H1 1578   1.196   2.969   2.532  0.3197  0.4252 -0.3629
  524TIP3    H2 1579   1.165   3.100   2.463 -0.3683 -0.2772 -1.4072
  525TIP3   OH2 1580   1.428   1.866   4.669 -0.1187  0.1120 -0.1020
  525TIP3    H1 1581   1.413   1.919   4.746  0.9664  0.3371 -0.0365
  525TIP3    H2 1582   1.368   1.792   4.679  2.0106 -1.4590  2.4876
  526TIP3   OH2 1583   5.741   1.769   0.959 -0.2015 -0.6214  0.0583
  526TIP3    H1 1584   5.765   1.825   0.886  2.7311 -0.4864  0.9963
  526TIP3    H2 1585   5.671   1.816   1.004  0.3520  0.9781 -0.6970
  527TIP3   OH2 1586   1.490   4.807   5.144 -0.5505 -0.2161 -0.3937
  527TIP3    H1 1587   1.532   4.890   5.167 -0.1401 -0.5093 -0.0726
  527TIP3    H2 1588   1.443   4.781   5.223 -0.2583 -0.5421 -0.3256
  528TIP3   OH2 1589   4.682   0.628   3.467  0.6424 -0.3447 -0.5522
  528TIP3    H1 1590   4.737   0.641   3.390  3.6088  0.1639  1.5105
  528TIP3    H2 1591   4.687   0.534   3.484  0.3453 -0.3887 -0.6930
  529TIP3   OH2 1592   4.444   3.167   2.222 -0.1876  0.6008  0.0288
  529TIP3    H1 1593   4.490   3.104   2.166  1.4796 -0.4294  2.3858
  529TIP3    H2 1594   4.351   3.143   2.213  0.3659 -2.3451  0.8875
  530TIP3   OH2 1595   1.073   3.196   0.325  0.0632 -0.4542 -0.0852
  530TIP3    H1 1596   1.021   3.175   0.403  0.2862 -0.1329  0.1532
  530TIP3    H2 1597   1.078   3.114   0.277 -0.0632 -0.6595  0.2464
  531TIP3   OH2 1598   0.355   1.208   2.212 -0.1572 -0.4144  0.0380
  531TIP3    H1 1599   0.327   1.293   2.179 -2.7609 -1.4772 -0.8272
  531TIP3    H2 1600   0.380   1.159   2.134  1.1165 -0.5358  0.5043
  532TIP3   OH2 1601   0.293   1.569   4.074  0.4136  0.5365  0.2373
  532TIP3    H1 1602   0.222   1.580   4.012  0.0544 -1.0936  0.3261
  532TIP3    H2 1603   0.342   1.652   4.070 -0.1999  0.8458 -1.4228
  533TIP3   OH2 1604   2.500   1.630   1.356 -0.9008  0.2064 -0.4075
  533TIP3    H1 1605   2.595   1.636   1.368 -0.7354  0.0482 -1.4822
  533TIP3    H2 1606   2.463   1.659   1.439  0.0750  1.7721 -0.4706
  534TIP3   OH2 1607   6.246   2.278   4.394  0.1541  0.2132  0.5878
  534TIP3    H1 1608   6.286   2.256   4.478  1.4567  1.5346  0.3703
  534TIP3    H2 1609   6.230   2.372   4.399  0.0519  0.2746 -0.5428
  535TIP3   OH2 1610   3.408   3.315   2.970  0.1579 -0.2424  0.2526
  535TIP3    H1 1611   3.357   3.235   2.954  0.0199 -0.0319 -0.3811
  535TIP3    H2 1612   3.352   3.367   3.028 -0.4259  0.0578 -0.5674
  536TIP3   OH2 1613   5.033   0.583   4.466  0.1558 -0.2314 -0.5180
  536TIP3    H1 1614   5.026   0.535   4.549 -1.0241  1.2067  0.2674
  536TIP3    H2 1615   5.113   0.634   4.475  0.7128 -1.0588 -0.8013
  537TIP3   OH2 1616   2.182   1.267   2.454 -0.0436  0.3196  0.2055
  537TIP3    H1 1617   2.091   1.288   2.438  0.4538  3.0440  0.4627
  537TIP3    H2 1618   2.222   1.266   2.367 -0.4450 -1.8802 -0.0021
  538TIP3   OH2 1619   2.418   4.583   0.629  0.2763  0.3764 -0.7878
  538TIP3    H1 1620   2.373   4.666   0.610 -2.2518 -0.4954  0.9480
  538TIP3    H2 1621   2.425   4.580   0.724  0.4572 -1.3356 -0.8203
  539TIP3   OH2 1622   0.157   5.309   3.780 -0.2014 -0.6551  0.3916
  539TIP3    H1 1623   0.194   5.345   3.861 -0.7419 -0.1909  0.4413
  539TIP3    H2 1624   0.095   5.243   3.809  0.7261 -1.6035  0.3014
  540TIP3   OH2 1625   1.771   2.527   1.281 -0.4506  0.1945  0.1890
  540TIP3    H1 1626   1.833   2.527   1.354 -0.2615 -0.6556  0.0460
  540TIP3    H2 1627   1.813   2.582   1.214  0.0353 -0.1549  0.1957
  541TIP3   OH2 1628   5.252   0.461   4.018  0.0025 -0.2356 -0.2533
  541TIP3    H1 1629   5.234   0.371   3.993  0.7684 -0.6220  0.5189
  541TIP3    H2 1630   5.166   0.498   4.039 -0.2262 -1.0774  0.3526
  542TIP3   OH2 1631   5.446   5.621   4.073 -0.6338 -0.3135  0.0832
  542TIP3    H1 1632   5.429   5.716   4.074  2.8767  0.5026  2.7390
  542TIP3    H2 1633   5.533   5.613   4.034 -0.5174 -2.3839  0.6662
  543TIP3   OH2 1634   0.980   0.586   4.907 -0.0903 -0.3664  0.4871
  543TIP3    H1 1635   0.921   0.511   4.908 -0.6883  0.1031  0.8526
  543TIP3    H2 1636   1.058   0.554   4.860  0.0587 -1.5018  1.4596
  544TIP3   OH2 1637   2.845   1.752   1.737 -0.6066  0.5239  0.0099
  544TIP3    H1 1638   2.835   1.683   1.803 -1.1399  0.5048 -0.0899
  544TIP3    H2 1639   2.931   1.790   1.755 -0.7997  0.6014  0.7890
  545TIP3   OH2 1640   4.582   5.191   2.829 -0.3523  0.0799  0.4253
  545TIP3    H1 1641   4.512   5.184   2.893 -0.8034 -0.3415 -0.0982
  545TIP3    H2 1642   4.651   5.241   2.873 -0.1272 -1.2792  1.6793
  546TIP3   OH2 1643   5.535   3.735   1.964 -0.1199  0.3843 -0.2074
  546TIP3    H1 1644   5.577   3.658   1.925  0.1030  1.4533 -2.2052
  546TIP3    H2 1645   5.442   3.725   1.943 -0.5903 -0.7761  2.1333
  547TIP3   OH2 1646   1.988   1.795   0.045 -0.1575 -0.0962 -0.1085
  547TIP3    H1 1647   2.035   1.746   0.112  0.0784  0.2715  0.0032
  547TIP3    H2 1648   1.963   1.877   0.089 -0.6876 -0.1876 -0.2410
  548TIP3   OH2 1649   1.808   5.815   0.991 -0.2855 -0.1922  0.3254
  548TIP3    H1 1650   1.842   5.787   0.906  0.8140  1.0306  0.3241
  548TIP3    H2 1651   1.797   5.910   0.982  0.7267  0.0974  1.8278
  549TIP3   OH2 1652   1.193   2.253   3.474  0.3415 -0.2978 -0.2556
  549TIP3    H1 1653   1.287   2.237   3.483  0.6028  0.6897 -1.0173
  549TIP3    H2 1654   1.182   2.345   3.498 -0.9466 -1.1800  3.0347
  550TIP3   OH2 1655   5.203   2.332   3.602  0.2465 -0.4768 -0.4796
  550TIP3    H1 1656   5.255   2.336   3.521  1.2255 -2.0590  0.0209
  550TIP3    H2 1657   5.117   2.301   3.574  0.4107 -0.4857 -0.9819
  551TIP3   OH2 1658   0.537   4.656   3.240 -0.2307 -0.2825  0.9244
  551TIP3    H1 1659   0.581   4.725   3.290  0.5052 -1.4637  1.9707
  551TIP3    H2 1660   0.534   4.690   3.151  1.2930  0.5577  1.1506
  552TIP3   OH2 1661   1.956   5.568   4.009  0.3054 -0.4144 -0.0217
  552TIP3    H1 1662   1.891   5.633   3.983  0.0764  0.5029  2.5950
  552TIP3    H2 1663   2.033   5.588   3.954  0.0937  1.8161  0.4026
  553TIP3   OH2 1664   0.120   0.131   0.905 -0.1395  0.2752 -0.1701
  553TIP3    H1 1665   0.066   0.077   0.964  0.6934 -0.0046  0.3499
  553TIP3    H2 1666   0.060   0.199   0.875 -1.5615 -1.5588 -1.7623
  554TIP3   OH2 1667   5.032   4.336   1.740  0.1043 -0.5824 -0.7568
  554TIP3    H1 1668   4.975   4.412   1.754  1.7285  0.3285  1.5544
  554TIP3    H2 1669   5.083   4.359   1.662 -1.1956 -0.4988 -1.6142
  555TIP3   OH2 1670   2.280   5.966   2.801 -0.2404 -0.0693 -0.1145
  555TIP3    H1 1671   2.207   5.957   2.740  0.5684 -2.7897 -0.7971
  555TIP3    H2 1672   2.341   6.025   2.756 -0.9374  0.2867 -0.6141
  556TIP3   OH2 1673   2.578   0.951   3.209  0.1904 -0.3920 -0.3587
  556TIP3    H1 1674   2.550   0.928   3.297  0.4483  0.4492 -0.0503
  556TIP3    H2 1675   2.645   0.885   3.188  0.0533 -0.6588  0.0307
  557TIP3   OH2 1676   1.341   3.386   0.504  0.7203 -0.1140 -0.3493
  557TIP3    H1 1677   1.411   3.349   0.558 -0.2961 -3.2153 -0.9792
  557TIP3    H2 1678   1.260   3.354   0.543 -0.3783  2.3107 -0.4316
  558TIP3   OH2 1679   5.768   4.773   0.616  0.6372  0.1129  0.1273
  558TIP3    H1 1680   5.739   4.751   0.705  0.0089 -1.4921 -0.4441
  558TIP3    H2 1681   5.749   4.695   0.564  1.6032  0.7783 -1.2974
  559TIP3   OH2 1682   3.661   4.991   1.076  0.0827  0.7674  0.7618
  559TIP3    H1 1683   3.680   4.922   1.012  0.7673  1.7424 -0.1081
  559TIP3    H2 1684   3.573   4.969   1.109  1.2985 -2.0758  2.5709
  560TIP3   OH2 1685   1.834   5.686   3.016 -0.1008  0.5131 -0.3002
  560TIP3    H1 1686   1.891   5.744   3.066  1.0098  0.4289 -1.4274
  560TIP3    H2 1687   1.780   5.744   2.964 -2.3418  0.6794  1.9884
  561TIP3   OH2 1688   4.511   3.253   1.528 -0.8954 -0.1766 -0.5709
  561TIP3    H1 1689   4.433   3.302   1.555  0.0067  1.7116 -1.2358
  561TIP3    H2 1690   4.486   3.161   1.537 -2.3025  0.3584  1.7965
  562TIP3   OH2 1691   5.357   3.895   4.056  0.1355  0.0211 -0.5907
  562TIP3    H1 1692   5.330   3.820   4.109 -0.3421 -1.0766 -2.2968
  562TIP3    H2 1693   5.280   3.915   4.002  0.6847  0.9025 -1.0646
  563TIP3   OH2 1694   3.593   5.093   1.812  0.5303  0.1239 -0.1221
  563TIP3    H1 1695   3.581   5.002   1.784  1.2838 -0.1050  0.2853
  563TIP3    H2 1696   3.564   5.145   1.736  2.7475 -0.4706 -1.4656
  564TIP3   OH2 1697   0.779   0.618   0.392 -0.3581  0.2957 -0.0724
  564TIP3    H1 1698   0.731   0.568   0.327 -0.0073  1.2146 -1.0658
  564TIP3    H2 1699   0.712   0.649   0.453 -0.7060 -0.4542 -0.0687
  565TIP3   OH2 1700   5.004   1.915   5.018  0.1142 -0.1058  0.3436
  565TIP3    H1 1701   5.000   1.919   5.113  2.0125 -0.5138  0.4738
  565TIP3    H2 1702   5.073   1.976   4.994 -0.6857  0.3890 -0.8394
  566TIP3   OH2 1703   3.552   2.998   4.948 -0.4209 -0.0177 -0.2845
  566TIP3    H1 1704   3.578   3.063   4.883 -0.8938 -1.9656 -2.5410
  566TIP3    H2 1705   3.456   3.002   4.949 -0.4064  0.7903  1.2209
  567TIP3   OH2 1706   2.412   3.065   0.921 -0.1582  0.0198 -0.6967
  567TIP3    H1 1707   2.343   3.081   0.985 -0.4470  0.3670 -1.0929
  567TIP3    H2 1708   2.368   3.021   0.848 -0.2534  1.4912 -1.5607
  568TIP3   OH2 1709   3.783   2.167   4.574 -0.0251 -0.2663 -0.6120
  568TIP3    H1 1710   3.839   2.212   4.638 -0.9797  0.3514 -0.1856
  568TIP3    H2 1711   3.721   2.118   4.628 -0.6524  0.0214 -1.0669
  569TIP3   OH2 1712   2.119   1.770   2.362 -0.2013  0.4079 -0.5024
  569TIP3    H1 1713   2.060   1.714   2.311 -1.0278  1.6144 -0.9214
  569TIP3    H2 1714   2.136   1.845   2.304  2.1570 -0.1340 -0.5892
  570TIP3   OH2 1715   2.895   1.894   0.913  0.1213  0.0812 -0.1543
  570TIP3    H1 1716   2.813   1.888   0.864  0.1440  0.4705 -0.2404
  570TIP3    H2 1717   2.871   1.940   0.994  0.1828 -0.1299 -0.0130
  571TIP3   OH2 1718   3.851   4.053   3.761 -0.1477  0.5245  0.0968
  571TIP3    H1 1719   3.790   3.995   3.806 -0.2348  1.0453  0.6573
  571TIP3    H2 1720   3.803   4.083   3.683  0.3209 -1.0734 -0.8561
  572TIP3   OH2 1721   5.396  -0.001   1.496  0.1837 -0.1844 -0.5909
  572TIP3    H1 1722   5.414   0.090   1.519  1.2008 -0.3381 -0.7119
  572TIP3    H2 1723   5.330   0.004   1.427  1.0921  0.5254 -1.4363
  573TIP3   OH2 1724   6.032   3.321   2.943  0.2573 -0.6354  0.0532
  573TIP3    H1 1725   5.952   3.314   2.891 -0.1994 -0.2130  0.6850
  573TIP3    H2 1726   6.005   3.363   3.024  1.0936 -0.6338  0.3473
  574TIP3   OH2 1727   3.288   2.725   0.355  0.0384  1.0244 -0.2710
  574TIP3    H1 1728   3.270   2.658   0.420 -0.0020  0.2288 -1.0761
  574TIP3    H2 1729   3.204   2.767   0.339 -0.0068  1.0257 -0.0325
  575TIP3   OH2 1730   4.339   3.357   2.741 -0.0873 -0.2652  0.0751
  575TIP3    H1 1731   4.368   3.442   2.708 -0.7958 -0.3221 -0.7563
  575TIP3    H2 1732   4.290   3.319   2.668  0.8421 -1.7112  0.1604
  576TIP3   OH2 1733   5.297   1.072   3.769  0.0988 -0.3738 -0.7641
  576TIP3    H1 1734   5.264   1.047   3.855  1.9605 -1.2568 -0.2443
  576TIP3    H2 1735   5.393   1.068   3.778  0.3478 -0.6651 -2.9204
  577TIP3   OH2 1736   2.422   5.043   1.942  0.5848  0.2530 -0.2446
  577TIP3    H1 1737   2.452   5.116   1.995  0.5298 -0.0202  0.1723
  577TIP3    H2 1738   2.338   5.072   1.906 -0.6462 -0.4381  1.8251
  578TIP3   OH2 1739   2.573   3.305   1.879  0.0411  0.0414 -0.2022
  578TIP3    H1 1740   2.634   3.333   1.948 -0.0442 -0.3692  0.0447
  578TIP3    H2 1741   2.626   3.305   1.799  0.5746 -1.0663  0.1380
  579TIP3   OH2 1742   2.167   1.569   2.692 -0.1085 -0.2989  0.4849
  579TIP3    H1 1743   2.141   1.481   2.720  0.7586 -0.5996  0.3633
  579TIP3    H2 1744   2.094   1.599   2.637 -0.5836 -0.7853  0.8440
  580TIP3   OH2 1745   6.012   5.176   4.257  0.4048  0.4920  0.2287
  580TIP3    H1 1746   6.029   5.270   4.260  0.8425  0.4295 -0.0964
  580TIP3    H2 1747   6.083   5.141   4.203 -0.1343  0.0637 -0.2129
  581TIP3   OH2 1748   3.824   5.465   0.917 -0.5173 -0.3361  0.4217
  581TIP3    H1 1749   3.920   5.461   0.911 -0.5373 -0.2835  0.0261
  581TIP3    H2 1750   3.806   5.453   1.010 -0.2103 -2.2924  0.2831
  582TIP3   OH2 1751   0.034   4.434   4.991 -0.2279  0.6050 -0.0255
  582TIP3    H1 1752   0.084   4.401   4.916  0.3178  0.0197  0.5759
  582TIP3    H2 1753   0.096   4.429   5.064 -1.4310 -0.9828  0.9377
  583TIP3   OH2 1754   4.339   4.244   3.595 -1.2430  0.1059  0.1280
  583TIP3    H1 1755   4.249   4.266   3.574 -0.2982  1.8466 -2.5362
  583TIP3    H2 1756   4.361   4.172   3.535 -0.6145  0.2640  0.1629
  584TIP3   OH2 1757   4.466   1.583   0.822  0.0041  0.3859  0.6423
  584TIP3    H1 1758   4.435   1.673   0.815 -2.8687 -0.5062  0.8435
  584TIP3    H2 1759   4.399   1.537   0.872  0.5759 -2.2072 -0.7404
  585TIP3   OH2 1760   4.634   2.297   2.098  0.1298 -0.0990  0.1189
  585TIP3    H1 1761   4.688   2.245   2.039 -0.2808  0.9094 -1.1984
  585TIP3    H2 1762   4.552   2.248   2.105 -0.8891  1.0593 -2.4315
  586TIP3   OH2 1763   6.158   5.771   3.833 -0.5330  0.0381  0.1988
  586TIP3    H1 1764   6.223   5.762   3.764  0.6001 -1.4632  1.3956
  586TIP3    H2 1765   6.079   5.801   3.788  0.6216  0.6907 -1.4776
  587TIP3   OH2 1766   3.442   5.500   1.909 -0.2084 -0.2750  0.0406
  587TIP3    H1 1767   3.390   5.534   1.836 -0.9358 -1.3184  0.0578
  587TIP3    H2 1768   3.530   5.534   1.893 -0.8685  1.5862  0.0447
  588TIP3   OH2 1769   4.176   4.715   2.771  0.1606  0.8080  0.0605
  588TIP3    H1 1770   4.219   4.799   2.786  0.5033  0.5996  0.2699
  588TIP3    H2 1771   4.204   4.660   2.845 -0.2504  0.5842  0.0532
  589TIP3   OH2 1772   1.467   2.323   2.238  0.0736 -0.2661 -0.0010
  589TIP3    H1 1773   1.414   2.324   2.318 -0.9549  1.7927 -0.6413
  589TIP3    H2 1774   1.556   2.338   2.268 -0.4135  1.3791  0.7459
  590TIP3   OH2 1775   2.800   2.551   4.221 -0.5725  0.2973 -0.4548
  590TIP3    H1 1776   2.797   2.475   4.279  0.5792  1.2846  0.9505
  590TIP3    H2 1777   2.736   2.611   4.257 -1.2269  0.1680 -1.3614
  591TIP3   OH2 1778   4.551   0.499   4.447  0.6658  0.1595  0.0766
  591TIP3    H1 1779   4.621   0.559   4.422  0.5502  0.0827 -0.4661
  591TIP3    H2 1780   4.590   0.412   4.439  0.4121  0.0966 -0.5996
  592TIP3   OH2 1781   2.040   4.110   3.104  0.2945 -0.1373 -0.0221
  592TIP3    H1 1782   1.964   4.116   3.045  0.6501 -0.1870 -0.4903
  592TIP3    H2 1783   2.112   4.082   3.048  0.5123 -0.7578  0.5550
  593TIP3   OH2 1784   1.280   2.236   5.146  0.5366 -0.4025 -0.2635
  593TIP3    H1 1785   1.288   2.167   5.212 -0.4051 -1.4882 -1.2502
  593TIP3    H2 1786   1.244   2.311   5.194 -0.3525 -1.2489  0.4167
  594TIP3   OH2 1787   2.046   0.244   3.460  0.2163 -0.6162  0.0881
  594TIP3    H1 1788   1.951   0.255   3.466  0.2714  0.3594 -0.7432
  594TIP3    H2 1789   2.079   0.272   3.546 -0.3736 -2.7925  1.1023
  595TIP3   OH2 1790   0.763   1.966   2.986  0.6136  0.0063  0.4727
  595TIP3    H1 1791   0.840   1.927   2.945  0.8916  0.6010  0.4123
  595TIP3    H2 1792   0.788   1.979   3.078 -0.0292 -1.3789  0.8604
  596TIP3   OH2 1793   4.258   4.703   4.256 -0.6673 -0.4273 -0.4580
  596TIP3    H1 1794   4.288   4.675   4.170 -0.0826 -0.5320 -0.2258
  596TIP3    H2 1795   4.174   4.746   4.240 -0.8208 -0.9241 -1.0099
  597TIP3   OH2 1796   3.757   1.687   5.009 -0.3236 -0.0594  0.4834
  597TIP3    H1 1797   3.775   1.729   4.925 -1.1840 -0.7413 -0.0668
  597TIP3    H2 1798   3.782   1.595   4.996 -1.2731 -0.3593  0.6720
  598TIP3   OH2 1799   1.344   0.402   1.546 -0.2500 -0.1374 -0.0856
  598TIP3    H1 1800   1.359   0.495   1.529  1.5976  0.0637  2.2543
  598TIP3    H2 1801   1.306   0.398   1.634  0.1843 -1.6317  0.0682
  599TIP3   OH2 1802   2.565   2.696   4.294 -0.4468  0.9462 -0.3351
  599TIP3    H1 1803   2.476   2.681   4.328 -0.2451  0.1056 -0.1603
  599TIP3    H2 1804   2.551   2.745   4.213 -1.1409  0.1231 -0.7453
  600TIP3   OH2 1805   2.628   4.415   3.153  0.3674 -0.6668 -0.1232
  600TIP3    H1 1806   2.568   4.355   3.108 -1.3680  0.2648  0.8258
  600TIP3    H2 1807   2.646   4.373   3.237 -0.4891 -0.0980  0.3576
  601TIP3   OH2 1808   0.266   2.434   1.977 -0.9612 -0.4143  0.0148
  601TIP3    H1 1809   0.178   2.470   1.988 -1.3221 -1.2756  0.0290
  601TIP3    H2 1810   0.252   2.343   1.949 -0.1127 -1.1500  1.8209
  602TIP3   OH2 1811   5.968   0.795   0.898  0.3410  0.4163  0.6541
  602TIP3    H1 1812   5.984   0.763   0.987  0.5730 -1.3115  0.0350
  602TIP3    H2 1813   5.874   0.810   0.894  0.4533  1.4573  1.4658
  603TIP3   OH2 1814   5.163   0.623   2.187 -0.0300 -0.2593 -0.0996
  603TIP3    H1 1815   5.156   0.713   2.219 -0.4491 -0.4080  0.2331
  603TIP3    H2 1816   5.073   0.593   2.180 -0.1227  0.3877 -3.2574
  604TIP3   OH2 1817   3.669   5.491   1.747 -0.4080  0.1499  0.2437
  604TIP3    H1 1818   3.616   5.434   1.692  0.0179  0.2980 -0.3316
  604TIP3    H2 1819   3.733   5.433   1.787 -0.4057  0.1157  0.1916
  605TIP3   OH2 1820   0.969   1.530   4.519 -0.3925  0.1837 -0.1825
  605TIP3    H1 1821   0.931   1.442   4.522 -0.9788  0.4445  0.4023
  605TIP3    H2 1822   0.907   1.584   4.569  0.9613  0.5479  1.1821
  606TIP3   OH2 1823   5.827   3.115   3.850  0.1763 -0.4388 -0.6524
  606TIP3    H1 1824   5.917   3.112   3.817  0.2132  0.0915 -0.6045
  606TIP3    H2 1825   5.834   3.086   3.940  0.0541 -2.0560 -1.1354
  607TIP3   OH2 1826   0.763   3.666   3.014  0.0428 -0.1939  0.2153
  607TIP3    H1 1827   0.789   3.605   2.945 -2.1372 -0.8922 -0.0570
  607TIP3    H2 1828   0.789   3.622   3.095  2.2374  0.4478 -0.0485
  608TIP3   OH2 1829   5.467   0.178   3.025  0.2710 -0.0157 -0.1631
  608TIP3    H1 1830   5.472   0.111   2.958 -2.1057 -0.9062  0.4842
  608TIP3    H2 1831   5.554   0.177   3.066  0.0199 -3.4042  0.4966
  609TIP3   OH2 1832   3.195   2.168   2.103 -0.2503  0.2778 -0.2012
  609TIP3    H1 1833   3.199   2.257   2.141 -1.9076 -0.6043  2.2981
  609TIP3    H2 1834   3.230   2.112   2.172 -1.3100 -1.2310 -0.8497
  610TIP3   OH2 1835   5.531   3.627   1.339 -0.0299  0.6475 -0.2718
  610TIP3    H1 1836   5.457   3.668   1.384  0.1348  0.1095  0.5341
  610TIP3    H2 1837   5.492   3.553   1.292 -0.1340  0.8927 -0.5636
  611TIP3   OH2 1838   3.178   3.852   0.524  0.2726  0.9479  0.0572
  611TIP3    H1 1839   3.273   3.854   0.509  0.1566 -0.1765 -0.9949
  611TIP3    H2 1840   3.155   3.943   0.539  1.6968  1.1108  1.6488
  612TIP3   OH2 1841   6.316   3.920   2.359  0.5021 -0.1170 -0.6381
  612TIP3    H1 1842   6.276   3.837   2.333  2.3884 -0.5757 -2.3167
  612TIP3    H2 1843   6.268   3.986   2.309  0.5001 -0.4516 -1.0896
  613TIP3   OH2 1844   0.275   1.925   3.779  0.5344  0.0638 -0.7341
  613TIP3    H1 1845   0.322   1.916   3.862  1.1866  1.0052 -0.9845
  613TIP3    H2 1846   0.344   1.929   3.713  0.2133  2.6093 -1.0145
  614TIP3   OH2 1847   5.878   2.819   4.063  0.0286 -0.5784 -0.4155
  614TIP3    H1 1848   5.882   2.912   4.082 -0.3604 -0.8953  1.3552
  614TIP3    H2 1849   5.850   2.778   4.145  0.6926 -2.3090 -0.9975
  615TIP3   OH2 1850   2.316   1.722   3.019 -0.2702  0.2769  0.7668
  615TIP3    H1 1851   2.378   1.653   2.996 -0.7078  0.3959 -0.9377
  615TIP3    H2 1852   2.358   1.770   3.090  1.7068  0.4946 -0.4843
  616TIP3   OH2 1853   1.463   5.066   4.009 -0.3345  0.9137 -0.1633
  616TIP3    H1 1854   1.531   5.094   4.069 -0.5054  3.1981 -0.9490
  616TIP3    H2 1855   1.502   5.074   3.922 -0.5395 -1.0171 -0.4814
  617TIP3   OH2 1856   2.707   5.913   3.852  0.2474 -0.0809 -0.0169
  617TIP3    H1 1857   2.641   5.976   3.825 -1.8685 -0.8224  2.9294
  617TIP3    H2 1858   2.756   5.958   3.922  2.2844  0.0745 -1.4407
  618TIP3   OH2 1859   5.614   1.897   2.537  0.1843  0.2339  0.3651
  618TIP3    H1 1860   5.575   1.959   2.475 -0.5215 -1.3321 -0.8119
  618TIP3    H2 1861   5.662   1.835   2.482 -0.4487 -1.1971  1.3613
  619TIP3   OH2 1862   3.144   4.796   0.102 -0.0054 -0.2495  0.5467
  619TIP3    H1 1863   3.228   4.788   0.148  1.0042 -0.4685 -1.2079
  619TIP3    H2 1864   3.100   4.713   0.117  1.1559 -1.0731 -0.4085
  620TIP3   OH2 1865   4.465   2.171   4.347 -0.9730  0.0352 -0.4109
  620TIP3    H1 1866   4.402   2.175   4.275 -2.0208 -0.6841  0.4352
  620TIP3    H2 1867   4.414   2.195   4.424 -0.5430 -1.8198  0.4826
  621TIP3   OH2 1868   3.609   1.391   3.171 -0.2903  0.0900  0.0923
  621TIP3    H1 1869   3.535   1.331   3.183 -0.1458  0.0631  0.8884
  621TIP3    H2 1870   3.672   1.341   3.120  0.3054 -0.8554  1.7076
  622TIP3   OH2 1871   1.040   3.737   4.792 -0.0116 -0.1634  0.1496
  622TIP3    H1 1872   0.950   3.761   4.813  0.1404  0.5632 -0.0177
  622TIP3    H2 1873   1.043   3.737   4.696  0.4811  1.0160  0.1563
  623TIP3   OH2 1874   3.081   2.755   4.839 -0.1601  0.2851 -0.1128
  623TIP3    H1 1875   3.072   2.681   4.899  0.1508 -1.4239 -2.0515
  623TIP3    H2 1876   3.087   2.715   4.752  0.2690  2.5935 -1.2330
  624TIP3   OH2 1877   1.286   3.007   4.763  0.4212  0.5433  0.2238
  624TIP3    H1 1878   1.330   3.052   4.835 -0.7449  0.5081  0.9765
  624TIP3    H2 1879   1.341   3.025   4.687  1.3670  1.0626  1.0064
  625TIP3   OH2 1880   6.267   0.465   0.280 -0.0258 -0.2852 -0.7422
  625TIP3    H1 1881   6.186   0.505   0.249 -0.2483 -0.6505 -0.6462
  625TIP3    H2 1882   6.337   0.514   0.238 -0.3093 -0.2881 -1.2176
  626TIP3   OH2 1883   2.525   2.254   3.190  0.1408 -0.3010  0.3247
  626TIP3    H1 1884   2.438   2.243   3.151  0.5965 -1.6350 -0.4003
  626TIP3    H2 1885   2.582   2.197   3.138  0.7164 -2.6179  3.1934
  627TIP3   OH2 1886   3.718   5.285   3.025 -0.5340 -0.4906  0.3678
  627TIP3    H1 1887   3.655   5.357   3.022  1.2698  1.1941  0.0396
  627TIP3    H2 1888   3.673   5.215   3.072 -1.5634  1.7464  3.0048
  628TIP3   OH2 1889   3.963   3.602   2.215 -0.1435 -0.7365  0.0073
  628TIP3    H1 1890   3.962   3.675   2.277 -1.3903  0.8408 -1.7743
  628TIP3    H2 1891   4.056   3.591   2.193 -0.0855  2.4152 -1.9339
  629TIP3   OH2 1892   2.546   1.353   1.936 -0.1127  0.0518  0.0495
  629TIP3    H1 1893   2.490   1.335   2.012  2.0186 -1.0419  1.4427
  629TIP3    H2 1894   2.634   1.362   1.972  0.8610  0.3581 -2.2214
  630TIP3   OH2 1895   0.480   3.325   0.074  0.4797  0.2655 -0.1525
  630TIP3    H1 1896   0.493   3.245   0.024  0.1244  0.0550  0.0887
  630TIP3    H2 1897   0.535   3.314   0.151 -0.8129 -0.4734  0.6958
  631TIP3   OH2 1898   4.381   0.106   0.702  0.3898  0.0453  0.0267
  631TIP3    H1 1899   4.359   0.133   0.791  2.4508 -0.2686  0.6827
  631TIP3    H2 1900   4.448   0.167   0.673  3.1231 -2.4761  0.5111
  632TIP3   OH2 1901   0.837   5.283   0.050 -0.1520  0.3497 -0.4296
  632TIP3    H1 1902   0.886   5.365   0.041  0.2877  0.0519 -0.8222
  632TIP3    H2 1903   0.852   5.257   0.140  0.3802  0.2928 -0.5271
  633TIP3   OH2 1904   4.547   5.504   3.617 -0.3382 -0.3749 -0.4022
  633TIP3    H1 1905   4.577   5.537   3.702 -2.3789 -0.8192  0.5356
  633TIP3    H2 1906   4.582   5.568   3.554 -0.4810  1.1125  0.9496
  634TIP3   OH2 1907   1.543   5.008   3.272  0.4350  0.2269  0.2792
  634TIP3    H1 1908   1.453   4.995   3.300  1.0646 -0.7911  1.9937
  634TIP3    H2 1909   1.551   4.955   3.193 -0.1686 -0.6645  0.7876
  635TIP3   OH2 1910   4.146   5.873   3.322 -0.2205  0.1018 -0.0957
  635TIP3    H1 1911   4.204   5.849   3.395  0.3009  0.8829 -0.2406
  635TIP3    H2 1912   4.169   5.964   3.302 -1.4404  0.3922 -0.2292
  636TIP3   OH2 1913   0.049   3.598   1.706  0.2888 -0.3417  0.4166
  636TIP3    H1 1914   0.113   3.661   1.674  0.8168 -1.6861 -1.3747
  636TIP3    H2 1915   0.059   3.600   1.801  1.3143  1.1754  0.3227
  637TIP3   OH2 1916   3.201   0.357   2.651 -0.0221  0.1390  0.0341
  637TIP3    H1 1917   3.255   0.422   2.696 -0.7982  0.9552 -0.1946
  637TIP3    H2 1918   3.192   0.391   2.562 -2.4691  1.0377  0.5374
  638TIP3   OH2 1919   1.722   3.157   0.499 -0.0658  0.1755 -0.9743
  638TIP3    H1 1920   1.669   3.204   0.563  0.0543 -0.6296 -0.2717
  638TIP3    H2 1921   1.683   3.070   0.494  0.3034  0.0388 -1.5357
  639TIP3   OH2 1922   5.148   4.072   1.199  0.2083 -0.6835  0.7361
  639TIP3    H1 1923   5.175   4.155   1.159  0.8966 -1.1615  0.1966
  639TIP3    H2 1924   5.154   4.088   1.293  2.5913 -0.8135  0.6656
  640TIP3   OH2 1925   1.555   3.992   1.700 -0.0889 -0.4519  0.0869
  640TIP3    H1 1926   1.525   3.901   1.697  1.0051 -0.8122 -0.8678
  640TIP3    H2 1927   1.590   4.008   1.612  1.2136  0.3655  0.7173
  641TIP3   OH2 1928   3.408   0.116   0.985  0.3041 -0.2853 -0.2592
  641TIP3    H1 1929   3.456   0.176   1.042 -0.0155  0.2061 -0.5033
  641TIP3    H2 1930   3.457   0.034   0.992 -0.1478 -0.4638  1.2949
  642TIP3   OH2 1931   5.894   3.917   4.341 -0.3851  0.3342  0.9161
  642TIP3    H1 1932   5.928   3.828   4.345  0.4699  0.5824 -0.2055
  642TIP3    H2 1933   5.918   3.947   4.253 -0.6733  1.6581  1.2738
  643TIP3   OH2 1934   2.910   5.467   3.568  0.1938  0.5143  0.4271
  643TIP3    H1 1935   2.835   5.413   3.594  2.1464 -1.6488  2.0442
  643TIP3    H2 1936   2.927   5.442   3.477 -1.8392  2.1250 -0.4697
  644TIP3   OH2 1937   5.846   3.787   4.741 -0.1847 -0.0508  0.0690
  644TIP3    H1 1938   5.903   3.737   4.683  0.4724  0.1315  0.5429
  644TIP3    H2 1939   5.859   3.878   4.715 -1.9808 -0.1407 -1.3314
  645TIP3   OH2 1940   6.368   2.931   3.510  0.3177  0.3442  0.0305
  645TIP3    H1 1941   6.273   2.915   3.517  0.3963  0.0661  0.5656
  645TIP3    H2 1942   6.402   2.909   3.597  0.7514  1.3266  0.1154
  646TIP3   OH2 1943   0.317   0.927   2.282  0.3094  0.3294 -0.7796
  646TIP3    H1 1944   0.371   1.005   2.282 -0.7376  1.1384  1.7141
  646TIP3    H2 1945   0.237   0.953   2.235  0.6819  0.1745 -1.5130
  647TIP3   OH2 1946   1.291   5.568   2.286  0.2152 -0.1628  0.0030
  647TIP3    H1 1947   1.285   5.638   2.352  0.4271 -0.1697  0.0279
  647TIP3    H2 1948   1.370   5.519   2.309  0.2305 -0.2315 -0.1930
  648TIP3   OH2 1949   4.094   1.025   1.459 -0.3397 -0.1136 -0.6641
  648TIP3    H1 1950   4.007   1.010   1.421 -1.2567  0.8515  0.9409
  648TIP3    H2 1951   4.115   1.115   1.437 -0.4956  0.1780  0.3309
  649TIP3   OH2 1952   0.705   4.941   1.599  0.5427  0.1919  0.2933
  649TIP3    H1 1953   0.706   5.027   1.556  0.2979  0.4298  0.7566
  649TIP3    H2 1954   0.683   4.960   1.690  0.9318 -0.3218  0.4996
  650TIP3   OH2 1955   3.672   0.064   3.215 -0.3327  0.1653 -0.1887
  650TIP3    H1 1956   3.666   0.003   3.142 -1.2647 -0.5692  0.4856
  650TIP3    H2 1957   3.594   0.047   3.268 -0.0139  1.1390  0.6355
  651TIP3   OH2 1958   5.725   5.278   4.985 -0.0473 -0.3393  0.2174
  651TIP3    H1 1959   5.640   5.264   4.943  1.8872 -3.1930 -3.2605
  651TIP3    H2 1960   5.736   5.202   5.042  0.9356 -1.0190 -0.8544
  652TIP3   OH2 1961   2.120   1.969   2.147 -0.0553  0.0672 -0.3486
  652TIP3    H1 1962   2.207   1.989   2.112 -0.2600 -0.0691 -0.9501
  652TIP3    H2 1963   2.063   1.966   2.070 -0.6830  0.5966  0.0816
  653TIP3   OH2 1964   3.631   0.489   3.079 -0.2861  0.1194 -0.0371
  653TIP3    H1 1965   3.685   0.566   3.060 -0.4718  0.3812  0.4850
  653TIP3    H2 1966   3.562   0.521   3.136  0.3984 -0.6863  1.2933
  654TIP3   OH2 1967   1.609   5.551   0.716 -1.1662 -0.2933 -0.1099
  654TIP3    H1 1968   1.551   5.583   0.647 -2.5338 -1.0975  0.6439
  654TIP3    H2 1969   1.575   5.589   0.796 -0.8166 -0.9978  0.3788
  655TIP3   OH2 1970   5.330   4.068   1.843 -0.3009  0.1783  0.5886
  655TIP3    H1 1971   5.355   3.988   1.798  1.3050  1.2281 -0.4829
  655TIP3    H2 1972   5.245   4.048   1.882 -0.1774 -1.8577 -0.0863
  656TIP3   OH2 1973   0.731   5.627   0.331  0.2475  0.1837  0.2587
  656TIP3    H1 1974   0.765   5.561   0.391  0.1048  0.5774  0.7828
  656TIP3    H2 1975   0.769   5.605   0.246 -0.2276 -0.8910  0.3082
  657TIP3   OH2 1976   5.035   2.542   4.249 -0.4332  0.1822 -0.1244
  657TIP3    H1 1977   5.046   2.615   4.309 -0.5359 -0.3444  0.5496
  657TIP3    H2 1978   5.117   2.539   4.199 -0.9951  1.6710 -1.2159
  658TIP3   OH2 1979   4.435   5.140   1.040  0.0317 -0.1755  0.6899
  658TIP3    H1 1980   4.487   5.175   1.112 -0.0107 -1.4227  1.3684
  658TIP3    H2 1981   4.378   5.075   1.081  1.8949 -2.9659 -0.7375
  659TIP3   OH2 1982   1.274   4.993   3.328 -0.2263  0.4590 -0.2596
  659TIP3    H1 1983   1.270   4.960   3.239  0.1342 -0.4285  0.0401
  659TIP3    H2 1984   1.223   5.074   3.326 -0.6819  0.1650 -1.1426
  660TIP3   OH2 1985   2.261   5.282   2.269  0.2342  0.0630  0.4119
  660TIP3    H1 1986   2.180   5.238   2.243 -0.3673  0.6582  1.2042
  660TIP3    H2 1987   2.244   5.312   2.358  0.5789  1.9141 -0.0907
  661TIP3   OH2 1988   0.150   0.758   0.255 -0.0348 -0.8987 -0.4907
  661TIP3    H1 1989   0.077   0.742   0.195 -1.1115 -0.5521  0.6695
  661TIP3    H2 1990   0.142   0.851   0.278  0.4388 -0.9891  0.0611
  662TIP3   OH2 1991   4.814   1.179   2.185  0.3113 -0.3072  0.2040
  662TIP3    H1 1992   4.882   1.181   2.117 -0.8427 -0.9739 -0.9969
  662TIP3    H2 1993   4.789   1.087   2.192  0.3989 -0.2542  1.5557
  663TIP3   OH2 1994   2.114   0.197   0.693  0.4496 -0.3668 -0.0367
  663TIP3    H1 1995   2.095   0.118   0.745  1.2432 -1.1285 -0.8641
  663TIP3    H2 1996   2.031   0.218   0.651 -0.4659  0.7959  2.1621
  664TIP3   OH2 1997   3.854   3.307   3.995  0.0222  0.1486 -0.3273
  664TIP3    H1 1998   3.909   3.374   3.955  0.3756 -0.1992 -0.4326
  664TIP3    H2 1999   3.774   3.307   3.942  0.1395  0.2842 -0.5056
  665TIP3   OH2 2000   6.041   3.454   4.771 -0.2468  0.4759  0.3701
  665TIP3    H1 2001   6.094   3.376   4.759 -1.4446 -0.5074  1.2188
  665TIP3    H2 2002   5.977   3.451   4.699  0.5322  1.4188 -0.3921
  666TIP3   OH2 2003   3.744   1.173   3.100 -0.0738  0.3303  0.0779
  666TIP3    H1 2004   3.751   1.138   3.188  0.4593  0.4845  0.1025
  666TIP3    H2 2005   3.723   1.097   3.045  1.3278 -0.0919  0.0922
  667TIP3   OH2 2006   1.911   1.751   4.281  0.2824  0.3451  0.5848
  667TIP3    H1 2007   1.887   1.661   4.305 -0.4127 -0.3135 -2.2083
  667TIP3    H2 2008   2.000   1.743   4.246 -0.1137  0.5589 -0.4904
  668TIP3   OH2 2009   3.019   1.428   1.781 -0.3447 -0.1128  0.0528
  668TIP3    H1 2010   3.019   1.392   1.692 -0.3444  0.8506 -0.3482
  668TIP3    H2 2011   3.029   1.523   1.769 -1.0571  0.1099  1.0391
  669TIP3   OH2 2012   1.470   2.796   1.700 -0.1406  0.4293 -0.4506
  669TIP3    H1 2013   1.521   2.783   1.619 -0.3405  0.8765 -0.6531
  669TIP3    H2 2014   1.536   2.792   1.770  0.1908  1.0545 -0.7150
  670TIP3   OH2 2015   3.538   5.719   2.540  0.7653  0.8050  0.3270
  670TIP3    H1 2016   3.517   5.811   2.524 -0.7137  0.7344  1.5864
  670TIP3    H2 2017   3.632   5.712   2.521  0.7532  2.3930 -0.4856
  671TIP3   OH2 2018   2.065   0.024   2.759  0.3091  0.0108  0.1848
  671TIP3    H1 2019   2.089   0.110   2.725 -0.3146 -0.2581 -0.9818
  671TIP3    H2 2020   2.130  -0.036   2.722  0.2832 -0.1227  0.3551
  672TIP3   OH2 2021   3.948   3.821   2.366 -0.6386 -0.0132  0.5053
  672TIP3    H1 2022   3.994   3.873   2.301 -0.5921 -2.1688 -1.3075
  672TIP3    H2 2023   3.861   3.862   2.372  0.0604  1.5009  0.7496
  673TIP3   OH2 2024   0.250   3.297   1.741  0.5148  0.0934 -0.5147
  673TIP3    H1 2025   0.220   3.252   1.662  0.2218 -0.2427 -0.2145
  673TIP3    H2 2026   0.195   3.262   1.811  1.3685 -0.2681 -0.0147
  674TIP3   OH2 2027   1.374   5.855   0.761 -0.5839 -0.3837 -0.0790
  674TIP3    H1 2028   1.424   5.810   0.828 -0.3010  1.7344  1.2167
  674TIP3    H2 2029   1.436   5.870   0.690 -0.4361 -1.1118 -0.1153
  675TIP3   OH2 2030   5.408   0.472   3.505 -0.2784  0.2344 -0.3366
  675TIP3    H1 2031   5.389   0.420   3.583 -1.0373  0.7788 -0.1451
  675TIP3    H2 2032   5.385   0.415   3.432  0.0170 -0.1225 -0.1523
  676TIP3   OH2 2033   3.842   2.418   5.035 -0.0535  0.4170 -0.6413
  676TIP3    H1 2034   3.858   2.394   5.126  0.7784  2.1156 -0.3098
  676TIP3    H2 2035   3.752   2.453   5.034 -0.5719 -0.8595 -0.7690
  677TIP3   OH2 2036   0.971   0.100   4.180  0.4981  0.0977 -0.4164
  677TIP3    H1 2037   1.032   0.151   4.233 -0.0852  0.4353 -0.0602
  677TIP3    H2 2038   1.024   0.028   4.145  1.2771  0.8212 -0.7534
  678TIP3   OH2 2039   2.741   2.576   2.945 -0.6980  0.1844  0.8926
  678TIP3    H1 2040   2.658   2.531   2.959 -0.3287 -0.3847  1.3225
  678TIP3    H2 2041   2.757   2.622   3.027  0.6591 -1.8152  1.8548
  679TIP3   OH2 2042   2.925   5.215   0.862 -0.1871  0.2363 -0.0660
  679TIP3    H1 2043   2.994   5.268   0.903 -0.0073  1.6188 -1.9593
  679TIP3    H2 2044   2.859   5.204   0.930  0.3803  1.8208  0.8024
  680TIP3   OH2 2045   3.317   3.935   2.171 -0.2399 -0.0294  0.4773
  680TIP3    H1 2046   3.314   3.884   2.090  1.4963  0.6924 -0.0977
  680TIP3    H2 2047   3.410   3.952   2.185 -0.6639  1.9773  1.2679
  681TIP3   OH2 2048   2.878   4.876   0.647 -0.2422  0.1518 -0.2439
  681TIP3    H1 2049   2.792   4.837   0.633  0.6073 -1.9621 -0.0047
  681TIP3    H2 2050   2.915   4.885   0.559  0.3585 -1.6572 -0.2239
  682TIP3   OH2 2051   3.220   5.656   4.408 -0.3465 -0.0472  0.0673
  682TIP3    H1 2052   3.283   5.725   4.389  0.8667 -1.1513 -0.0894
  682TIP3    H2 2053   3.170   5.646   4.326  0.9397 -0.8175 -0.6543
  683TIP3   OH2 2054   2.055   1.143   2.705  0.2875  0.2794 -0.0408
  683TIP3    H1 2055   2.129   1.181   2.658  0.4834 -1.6884 -1.4802
  683TIP3    H2 2056   1.999   1.108   2.635 -0.5632 -0.7724  1.1316
  684TIP3   OH2 2057   5.247   5.405   4.287  0.0627  0.1858  0.0283
  684TIP3    H1 2058   5.193   5.407   4.208  0.7659 -0.3074 -0.4790
  684TIP3    H2 2059   5.241   5.314   4.317  1.1114 -0.0442 -0.4040
  685TIP3   OH2 2060   0.658   0.663   1.321 -0.1113  0.3878 -0.0677
  685TIP3    H1 2061   0.616   0.694   1.401  0.5363  0.1029  0.3901
  685TIP3    H2 2062   0.588   0.664   1.255 -1.3080 -1.7612  1.0654
  686TIP3   OH2 2063   5.247   0.417   0.631  0.7300  0.6750  0.2712
  686TIP3    H1 2064   5.257   0.357   0.705  3.6279 -2.1361 -2.0858
  686TIP3    H2 2065   5.164   0.392   0.590  0.6763  0.0491  0.7565
  687TIP3   OH2 2066   3.577   2.553   4.242 -0.6882  0.0718 -0.1554
  687TIP3    H1 2067   3.634   2.488   4.283 -1.1792  0.4151  1.1282
  687TIP3    H2 2068   3.592   2.633   4.293 -1.5753  0.4232 -0.4266
  688TIP3   OH2 2069   5.257   3.103   0.490 -0.3947  0.0605 -0.0299
  688TIP3    H1 2070   5.259   3.158   0.412  1.2667  1.1764  0.7218
  688TIP3    H2 2071   5.210   3.024   0.463 -1.1766  1.0355 -1.7003
  689TIP3   OH2 2072   4.033   4.629   4.534  0.2053 -0.5397 -0.0265
  689TIP3    H1 2073   3.980   4.556   4.567  0.6089  0.0684  2.1420
  689TIP3    H2 2074   4.120   4.591   4.522  0.5591 -0.3495  1.6514
  690TIP3   OH2 2075   2.951   2.201   3.567 -0.5721 -0.8184 -0.4720
  690TIP3    H1 2076   3.023   2.239   3.518 -1.2539  0.5302 -0.4702
  690TIP3    H2 2077   2.887   2.176   3.500 -0.2496 -1.7282 -0.4530
  691TIP3   OH2 2078   1.017   3.804   4.498  0.3033  0.2133  0.5470
  691TIP3    H1 2079   1.098   3.791   4.449 -0.4244 -2.3720 -0.1125
  691TIP3    H2 2080   0.957   3.843   4.435  0.7427  1.3049  0.7847
  692TIP3   OH2 2081   1.096   4.473   4.393  0.2114  0.0885  0.5755
  692TIP3    H1 2082   1.124   4.440   4.478  1.4819 -1.3909 -0.3587
  692TIP3    H2 2083   1.154   4.431   4.330 -1.2364  0.4624 -1.1136
  693TIP3   OH2 2084   2.161   1.188   2.182  0.1027 -0.2939  0.2196
  693TIP3    H1 2085   2.254   1.176   2.160  0.1277  0.7119 -0.2880
  693TIP3    H2 2086   2.115   1.181   2.099 -0.2645 -0.5777  0.4405
  694TIP3   OH2 2087   0.847   3.571   2.217 -0.7523 -0.3779  0.5131
  694TIP3    H1 2088   0.828   3.514   2.292 -0.6076 -0.7442  0.2719
  694TIP3    H2 2089   0.859   3.511   2.144 -1.5352  0.0116  0.0507
  695TIP3   OH2 2090   4.084   5.394   2.862 -0.3250  0.0688 -0.1211
  695TIP3    H1 2091   4.121   5.400   2.775 -0.6276  0.1435 -0.2466
  695TIP3    H2 2092   4.055   5.303   2.870  0.3162 -0.1149  0.1565
  696TIP3   OH2 2093   6.158   5.430   3.171 -0.5733  0.0705  0.7786
  696TIP3    H1 2094   6.239   5.451   3.218 -0.0663 -0.1234  0.0127
  696TIP3    H2 2095   6.131   5.345   3.206  1.4636 -1.5943 -1.3285
  697TIP3   OH2 2096   3.816   5.657   3.561  0.0107 -0.1420 -0.0383
  697TIP3    H1 2097   3.732   5.667   3.516 -1.1967 -0.1359  2.0635
  697TIP3    H2 2098   3.871   5.726   3.525 -0.1079 -1.4611 -3.0009
  698TIP3   OH2 2099   0.327   4.656   2.030  0.1924 -0.9617 -0.0025
  698TIP3    H1 2100   0.414   4.636   1.997 -0.5404  0.3623 -3.1075
  698TIP3    H2 2101   0.268   4.602   1.978 -1.0252  0.6688 -0.4159
  699TIP3   OH2 2102   3.043   3.907   2.140  0.3415  0.1971 -0.6433
  699TIP3    H1 2103   3.037   3.841   2.071 -1.3790 -1.2076  0.7576
  699TIP3    H2 2104   3.128   3.948   2.125 -0.1737  0.3731 -3.9094
  700TIP3   OH2 2105   2.878   3.023   3.106  0.8430 -0.0048 -0.4548
  700TIP3    H1 2106   2.953   3.056   3.156  1.0090 -2.8888  1.4519
  700TIP3    H2 2107   2.802   3.059   3.151  1.0325  0.5552 -0.5745
  701TIP3   OH2 2108   2.228   3.303   4.462  0.0368 -0.1479 -0.5603
  701TIP3    H1 2109   2.233   3.312   4.557 -1.3600  2.0928 -0.6495
  701TIP3    H2 2110   2.149   3.250   4.447 -0.1648  0.1387 -0.5054
  702TIP3   OH2 2111   6.016   4.317   3.521 -0.3194  0.0279  0.1974
  702TIP3    H1 2112   5.995   4.326   3.614 -0.4546  0.4136  0.1324
  702TIP3    H2 2113   5.975   4.235   3.495 -0.8460  0.2431  0.3275
  703TIP3   OH2 2114   6.164   2.759   1.893  0.1078 -0.5806 -0.0897
  703TIP3    H1 2115   6.198   2.817   1.961  1.3796 -0.4494 -0.7946
  703TIP3    H2 2116   6.075   2.790   1.876  1.2093  2.1852 -1.4725
  704TIP3   OH2 2117   1.236   4.981   1.538  0.3262  0.0220  0.5057
  704TIP3    H1 2118   1.311   5.011   1.588 -0.4379 -0.1993  1.8305
  704TIP3    H2 2119   1.161   4.993   1.597 -1.1083  2.5690 -1.5655
  705TIP3   OH2 2120   4.182   1.633   2.990 -0.0483 -0.1699  0.3170
  705TIP3    H1 2121   4.120   1.581   3.042  1.4834 -1.7610  0.6711
  705TIP3    H2 2122   4.138   1.647   2.907 -1.5509  0.2301  1.1601
  706TIP3   OH2 2123   6.313   0.442   3.073  0.6917  0.4271  0.1921
  706TIP3    H1 2124   6.249   0.382   3.033  0.3197 -0.3382  1.8595
  706TIP3    H2 2125   6.374   0.462   3.002 -0.3174 -0.3264 -0.9401
  707TIP3   OH2 2126   2.400   1.979   0.596  0.0323 -0.9024  0.4187
  707TIP3    H1 2127   2.374   1.935   0.516 -0.6705 -0.7798  0.5702
  707TIP3    H2 2128   2.413   1.909   0.660 -0.1182 -0.9552  0.3914
  708TIP3   OH2 2129   6.020   2.951   3.073 -0.7682  0.2326  0.3186
  708TIP3    H1 2130   6.068   3.003   3.009  0.5214  0.6446  1.5660
  708TIP3    H2 2131   5.935   2.935   3.032  0.5566 -0.9488 -2.1968
  709TIP3   OH2 2132   3.755   0.623   4.238 -0.3217  0.4595 -0.0702
  709TIP3    H1 2133   3.778   0.589   4.151 -1.2388 -0.3383 -0.0230
  709TIP3    H2 2134   3.831   0.602   4.292  0.3529  1.1726 -0.7282
  710TIP3   OH2 2135   4.558   4.059   0.860 -0.1664 -0.0441 -0.1856
  710TIP3    H1 2136   4.570   4.154   0.863  1.6486 -0.2146 -0.9497
  710TIP3    H2 2137   4.630   4.023   0.911 -0.0223 -1.0391 -1.0473
  711TIP3   OH2 2138   5.809   2.500   4.032  0.3832  0.1677  0.0290
  711TIP3    H1 2139   5.896   2.479   4.000 -0.1179  0.5503 -1.7157
  711TIP3    H2 2140   5.814   2.592   4.056  0.2932  0.4034 -0.8039
  712TIP3   OH2 2141   4.645   1.821   2.497  0.2397  0.0495  0.2922
  712TIP3    H1 2142   4.649   1.729   2.470 -0.0582  0.3654 -0.8453
  712TIP3    H2 2143   4.620   1.817   2.590  1.3392 -1.0443  0.5674
  713TIP3   OH2 2144   3.711   0.078   3.546 -0.1550 -0.0749  0.0592
  713TIP3    H1 2145   3.628   0.116   3.516  0.5478  0.0932 -1.8217
  713TIP3    H2 2146   3.695  -0.016   3.548 -0.7617  0.0318  0.9994
  714TIP3   OH2 2147   1.390   4.026   5.018 -0.3543  0.1203 -0.0294
  714TIP3    H1 2148   1.344   4.074   5.088 -1.8650  0.6643 -1.3297
  714TIP3    H2 2149   1.380   3.934   5.042 -0.1453  0.3258  0.8825
  715TIP3   OH2 2150   4.709   4.099   3.555 -0.2311 -0.0185  0.4997
  715TIP3    H1 2151   4.705   4.191   3.530  1.6249 -0.2629 -0.9501
  715TIP3    H2 2152   4.725   4.100   3.649 -0.4236  1.1217  0.5350
  716TIP3   OH2 2153   4.005   1.347   2.257 -0.2007  0.0039  0.0980
  716TIP3    H1 2154   4.086   1.322   2.213 -0.4904 -0.7038 -0.0503
  716TIP3    H2 2155   4.023   1.434   2.293  0.8611 -0.4336  0.6705
  717TIP3   OH2 2156   0.994   5.728   0.059  0.1277  0.1058 -0.1531
  717TIP3    H1 2157   1.011   5.729   0.153  1.2384  2.0446 -0.3078
  717TIP3    H2 2158   1.035   5.808   0.026  0.9013 -1.1477 -2.5009
  718TIP3   OH2 2159   0.015   1.967   3.796 -0.3904  0.4303 -0.0262
  718TIP3    H1 2160  -0.020   1.992   3.710 -0.9876  1.4550  0.5099
  718TIP3    H2 2161   0.110   1.959   3.781 -0.6650 -1.2340 -1.2129
  719TIP3   OH2 2162   2.191   1.130   0.404  0.2329  0.0038  0.0213
  719TIP3    H1 2163   2.207   1.036   0.396 -0.1479 -0.1513  0.9070
  719TIP3    H2 2164   2.216   1.150   0.494 -2.0229  0.2461  0.6688
  720TIP3   OH2 2165   5.706   1.692   0.282  0.4658 -0.2589 -0.0304
  720TIP3    H1 2166   5.661   1.775   0.266  0.1920  0.0214  1.9243
  720TIP3    H2 2167   5.681   1.668   0.371  1.9274 -1.5666  0.0696
  721TIP3   OH2 2168   0.652   4.783   4.077 -0.2158 -0.4228 -0.0024
  721TIP3    H1 2169   0.698   4.825   4.150 -1.7704 -0.1921  0.8855
  721TIP3    H2 2170   0.563   4.771   4.109 -0.4895 -1.9397 -1.2383
  722TIP3   OH2 2171   4.082   3.068   4.711  0.1006  0.3400  0.1174
  722TIP3    H1 2172   4.139   2.998   4.679 -0.3831 -0.1885  0.4076
  722TIP3    H2 2173   4.039   3.101   4.632  3.2890  3.0994 -0.7088
  723TIP3   OH2 2174   5.073   3.483  -0.010  0.1993 -0.6173 -0.6100
  723TIP3    H1 2175   5.060   3.500   0.084 -0.4169 -1.6252 -0.5101
  723TIP3    H2 2176   5.146   3.541  -0.034  0.0712 -0.0201  0.3874
  724TIP3   OH2 2177   5.491   4.764   1.708  0.3390  0.7076  0.7412
  724TIP3    H1 2178   5.587   4.772   1.708  0.5006 -0.6582  2.2302
  724TIP3    H2 2179   5.460   4.841   1.660  2.2375  0.3973 -1.1362
  725TIP3   OH2 2180   1.293   3.268   2.440 -0.5165 -0.0835  0.3510
  725TIP3    H1 2181   1.299   3.270   2.344 -1.5312 -1.2933  0.2448
  725TIP3    H2 2182   1.225   3.331   2.461 -1.6647 -1.2038  0.1129
  726TIP3   OH2 2183   1.857   1.639   3.210 -0.3690 -0.3347 -0.6440
  726TIP3    H1 2184   1.783   1.592   3.249 -1.3197  1.4602 -0.1145
  726TIP3    H2 2185   1.927   1.630   3.274 -0.3801 -1.3611 -0.7580
  727TIP3   OH2 2186   1.906   4.248   2.588 -0.7682 -0.1775 -0.4324
  727TIP3    H1 2187   1.904   4.343   2.593  2.6843  0.0192 -0.6788
  727TIP3    H2 2188   1.885   4.228   2.496 -0.3201  0.4114 -0.6605
  728TIP3   OH2 2189   1.871   5.159   3.888 -0.8219  0.6331 -0.0983
  728TIP3    H1 2190   1.801   5.212   3.850 -1.1398 -0.7451 -1.5579
  728TIP3    H2 2191   1.855   5.071   3.855  0.7810 -0.0055  0.7056
  729TIP3   OH2 2192   5.750   0.781   3.597 -0.0245  0.5271  0.2044
  729TIP3    H1 2193   5.660   0.796   3.570  0.2663 -0.0701 -1.1649
  729TIP3    H2 2194   5.744   0.715   3.666 -0.5472 -0.6154 -0.9016
  730TIP3   OH2 2195   0.807   2.459   3.983  0.3650 -0.2273 -0.3444
  730TIP3    H1 2196   0.885   2.422   4.025 -0.3485 -2.1858 -0.6120
  730TIP3    H2 2197   0.779   2.530   4.041  0.7513 -1.3469  1.2709
  731TIP3   OH2 2198   0.728   3.527   1.408 -0.2319  0.2953 -0.2725
  731TIP3    H1 2199   0.744   3.446   1.455 -2.4243  0.0958  0.2454
  731TIP3    H2 2200   0.647   3.511   1.360  0.2356  1.6038 -1.5827
  732TIP3   OH2 2201   2.537   3.150   3.621  0.5816 -0.0122  0.4557
  732TIP3    H1 2202   2.498   3.183   3.702 -2.9034 -1.0678 -0.5894
  732TIP3    H2 2203   2.509   3.059   3.617  2.3108 -0.5331 -1.0407
  733TIP3   OH2 2204   5.331   1.794   2.948 -0.0752  0.0601 -0.0941
  733TIP3    H1 2205   5.314   1.708   2.988  2.9201  0.1263  1.6900
  733TIP3    H2 2206   5.256   1.809   2.891 -0.7423 -3.7429 -0.5273
  734TIP3   OH2 2207   3.565   1.199   0.418 -0.2733  0.0232 -0.1323
  734TIP3    H1 2208   3.555   1.112   0.379 -0.0550  0.5699 -1.4665
  734TIP3    H2 2209   3.493   1.250   0.381  0.9308  1.0245 -1.2457
  735TIP3   OH2 2210   3.832   5.064   1.603 -0.5223  0.0681 -0.0792
  735TIP3    H1 2211   3.749   5.021   1.583 -0.9435  1.3437 -1.2348
  735TIP3    H2 2212   3.809   5.134   1.665 -0.6461  1.4418 -1.5862
  736TIP3   OH2 2213   1.965   5.827   1.739  0.4239  0.1613 -0.0344
  736TIP3    H1 2214   1.884   5.862   1.778 -0.5984 -2.2513  0.2017
  736TIP3    H2 2215   2.018   5.802   1.814  1.9299  2.6294 -0.1588
  737TIP3   OH2 2216   4.633   4.269   4.338  0.0630  0.6227  0.2497
  737TIP3    H1 2217   4.594   4.340   4.286 -0.2738  1.5411  1.7109
  737TIP3    H2 2218   4.645   4.307   4.425  0.0701 -1.0642  1.0113
  738TIP3   OH2 2219   2.271   5.710   4.395 -0.0807  0.3443  0.4661
  738TIP3    H1 2220   2.335   5.781   4.390 -0.3664  0.7685  2.0944
  738TIP3    H2 2221   2.191   5.753   4.425 -0.2697 -0.6563  1.4650
  739TIP3   OH2 2222   0.427   0.832   3.272 -0.0392 -0.1177 -0.0044
  739TIP3    H1 2223   0.390   0.772   3.337 -0.0740 -0.7015 -0.5489
  739TIP3    H2 2224   0.521   0.832   3.290  0.0792 -1.0314 -0.5415
  740TIP3   OH2 2225   4.644   2.673   1.220  0.1915  0.0745  0.5007
  740TIP3    H1 2226   4.574   2.738   1.227  0.0094 -0.1047  0.3663
  740TIP3    H2 2227   4.604   2.601   1.171  0.5264  0.0447  0.2700
  741TIP3   OH2 2228   6.197   5.970   1.196 -0.1849 -0.2409 -0.4305
  741TIP3    H1 2229   6.257   5.903   1.228  1.6960  1.4667 -0.1517
  741TIP3    H2 2230   6.163   6.012   1.276  1.1524  1.1875 -0.5636
  742TIP3   OH2 2231   6.203   2.326   3.787 -0.2935  0.1511 -0.1655
  742TIP3    H1 2232   6.124   2.314   3.838 -0.0095 -0.4554  0.1412
  742TIP3    H2 2233   6.190   2.409   3.741 -1.8176 -0.7254 -1.4057
  743TIP3   OH2 2234   6.009   3.797   0.171 -0.1921 -0.1435  0.4518
  743TIP3    H1 2235   5.979   3.856   0.241  0.3914  0.3508  0.2927
  743TIP3    H2 2236   6.082   3.748   0.210 -1.5529 -1.8019  1.0459
  744TIP3   OH2 2237   5.668   3.877   0.336 -0.0876  0.0224 -0.1056
  744TIP3    H1 2238   5.737   3.812   0.351  1.0823  1.1300 -0.5843
  744TIP3    H2 2239   5.714   3.958   0.318 -1.5250  1.1278  0.9330
  745TIP3   OH2 2240   0.419   4.035   2.517  0.0187 -0.6657 -0.2129
  745TIP3    H1 2241   0.431   3.968   2.450  0.5300 -1.2506  0.4538
  745TIP3    H2 2242   0.500   4.034   2.567 -0.0431  0.3276 -0.0770
  746TIP3   OH2 2243   4.111   0.266   3.017 -0.1461  0.4084  0.6854
  746TIP3    H1 2244   4.029   0.222   3.036  0.2191 -0.0248  1.3045
  746TIP3    H2 2245   4.139   0.302   3.101  0.5675  0.0828  0.5913
  747TIP3   OH2 2246   1.885   4.225   2.310  0.3903 -0.3115 -0.1328
  747TIP3    H1 2247   1.885   4.195   2.219 -4.1679 -0.4778 -0.2967
  747TIP3    H2 2248   1.911   4.317   2.305  0.0529 -0.2663 -1.6580
  748TIP3   OH2 2249   5.616   2.515   2.883  0.4108  0.2460  0.2955
  748TIP3    H1 2250   5.568   2.435   2.903 -2.4135  1.4534 -1.0706
  748TIP3    H2 2251   5.688   2.487   2.826  0.7450 -1.5172  1.5059
  749TIP3   OH2 2252   2.312   0.835   4.057 -0.5839  0.2104 -0.0460
  749TIP3    H1 2253   2.329   0.923   4.092 -0.9016  0.9292 -1.6205
  749TIP3    H2 2254   2.237   0.803   4.107 -0.6645  0.9730  0.3301
  750TIP3   OH2 2255   2.679   1.460   1.196 -0.3257  0.4373  0.4766
  750TIP3    H1 2256   2.593   1.494   1.221  0.5166  1.8292  1.6495
  750TIP3    H2 2257   2.701   1.398   1.266  0.4010  1.4790  1.1931
  751TIP3   OH2 2258   2.434   2.858   3.697 -0.1800  0.0042  0.1864
  751TIP3    H1 2259   2.478   2.798   3.757 -0.4195 -1.2302 -0.8465
  751TIP3    H2 2260   2.348   2.873   3.736  0.3886  0.8312  1.1755
  752TIP3   OH2 2261   5.283   4.935   2.796  0.3559  0.3167  0.1808
  752TIP3    H1 2262   5.354   4.886   2.837 -1.1517 -0.9570  1.4026
  752TIP3    H2 2263   5.242   4.873   2.736  0.1524  0.9801 -0.3805
  753TIP3   OH2 2264   1.851   0.810   2.366 -0.4844  0.4428 -0.2041
  753TIP3    H1 2265   1.926   0.862   2.340 -0.0166 -0.1471 -0.0496
  753TIP3    H2 2266   1.880   0.763   2.445 -1.7725  1.9944  1.2801
  754TIP3   OH2 2267   1.371   0.485   2.705 -0.5088 -0.0141 -0.9433
  754TIP3    H1 2268   1.464   0.497   2.727 -0.7346  0.3464 -0.1690
  754TIP3    H2 2269   1.368   0.397   2.665 -0.1090 -0.7851  0.6381
  755TIP3   OH2 2270   4.175   4.978   4.524 -0.1601 -0.3950 -0.0921
  755TIP3    H1 2271   4.134   5.060   4.498 -0.5765 -0.3639  0.6237
  755TIP3    H2 2272   4.256   5.005   4.568  0.2004 -0.4171 -0.7368
  756TIP3   OH2 2273   5.687   2.736   0.760 -0.1752 -0.2324 -0.4155
  756TIP3    H1 2274   5.656   2.782   0.837 -0.3670  0.3738 -0.8434
  756TIP3    H2 2275   5.607   2.706   0.716 -0.0765 -0.3705 -0.5026
  757TIP3   OH2 2276   0.647   1.396   1.094 -0.0224  0.6595  0.7186
  757TIP3    H1 2277   0.719   1.416   1.036 -1.0246 -1.0343 -1.2236
  757TIP3    H2 2278   0.589   1.472   1.088 -0.5805  0.1147 -1.3210
  758TIP3   OH2 2279   3.971   1.439   1.973 -0.9461 -0.2154  0.2406
  758TIP3    H1 2280   3.917   1.419   1.896 -1.7783  1.4537  0.3406
  758TIP3    H2 2281   3.990   1.533   1.964  2.0856 -0.7472  0.1594
  759TIP3   OH2 2282   2.543   1.251   0.125 -0.2824  0.2395 -0.0102
  759TIP3    H1 2283   2.575   1.208   0.204 -1.0107 -1.4958 -0.6111
  759TIP3    H2 2284   2.460   1.207   0.105 -0.1872  0.7221 -1.6624
  760TIP3   OH2 2285   5.996   2.905   2.426  0.0210 -0.4519 -0.1605
  760TIP3    H1 2286   6.067   2.964   2.448  0.6605 -1.0425 -0.5931
  760TIP3    H2 2287   5.942   2.901   2.505 -0.2139  0.9407 -0.2275
  761TIP3   OH2 2288   1.310   5.223   3.665 -0.9171  0.0561 -0.2867
  761TIP3    H1 2289   1.343   5.182   3.585 -2.8823  0.2856 -1.2760
  761TIP3    H2 2290   1.270   5.151   3.715 -0.7873  0.1078 -0.1089
  762TIP3   OH2 2291   6.249   5.859   2.501 -0.2538 -0.9529  0.7679
  762TIP3    H1 2292   6.256   5.940   2.451 -1.1755  0.2889  2.5421
  762TIP3    H2 2293   6.332   5.813   2.485  0.8505  0.9588  0.7243
  763TIP3   OH2 2294   4.813   2.056   0.173  0.0119  0.1437 -0.0916
  763TIP3    H1 2295   4.857   2.120   0.117  0.0838 -0.2401 -0.4795
  763TIP3    H2 2296   4.856   1.973   0.153 -0.3920 -0.1080  0.0679
  764TIP3   OH2 2297   0.609   4.911   3.300  0.0487 -0.7293  0.0655
  764TIP3    H1 2298   0.637   4.959   3.378 -1.2121 -1.5661  1.0710
  764TIP3    H2 2299   0.601   4.979   3.232  1.4298 -0.0337  0.5597
  765TIP3   OH2 2300   2.828   3.642   2.881 -0.1719 -0.2796  0.5493
  765TIP3    H1 2301   2.805   3.706   2.949 -3.4951 -2.4630  1.7194
  765TIP3    H2 2302   2.819   3.557   2.923  1.5747 -1.6759 -1.6353
  766TIP3   OH2 2303   5.331   1.121   1.097  0.0765  0.1372  0.5352
  766TIP3    H1 2304   5.338   1.184   1.025  0.7984 -0.1237  0.3684
  766TIP3    H2 2305   5.260   1.155   1.152 -0.4797  0.3489 -0.2867
  767TIP3   OH2 2306   1.706   3.430   1.366  0.2682  0.5330  0.5219
  767TIP3    H1 2307   1.683   3.482   1.290 -1.6110 -1.9949 -0.7958
  767TIP3    H2 2308   1.623   3.415   1.411  0.8868 -0.5101  1.3836
  768TIP3   OH2 2309   3.311   3.045   1.245 -0.4751 -0.1799 -0.3074
  768TIP3    H1 2310   3.226   3.004   1.262  0.0419 -1.3628 -0.5142
  768TIP3    H2 2311   3.298   3.094   1.164 -1.5273  1.3869  0.7371
  769TIP3   OH2 2312   5.581   2.111   3.403 -0.2101  0.3870  0.4086
  769TIP3    H1 2313   5.613   2.077   3.319 -1.3718 -0.4065  0.2652
  769TIP3    H2 2314   5.562   2.204   3.386 -2.4477 -0.2153 -0.8668
  770TIP3   OH2 2315   4.309   5.313   4.357 -0.2298 -0.1977 -0.1990
  770TIP3    H1 2316   4.405   5.312   4.347  0.0908 -0.3404  2.1974
  770TIP3    H2 2317   4.276   5.338   4.271  1.9123 -1.1321 -1.3757
  771TIP3   OH2 2318   5.472   0.714   0.220  0.5988 -1.1446  0.6076
  771TIP3    H1 2319   5.504   0.645   0.163  1.1241 -0.9727  0.6894
  771TIP3    H2 2320   5.386   0.736   0.185  0.8697 -1.1124 -0.0548
  772TIP3   OH2 2321   3.691   2.627   0.995  0.0115  0.0877 -0.2689
  772TIP3    H1 2322   3.609   2.665   1.027  0.5961  1.5397 -0.4730
  772TIP3    H2 2323   3.675   2.612   0.902 -0.8034 -1.8120  0.1169
  773TIP3   OH2 2324   3.936   5.611   1.354 -0.1232  0.3831  0.1807
  773TIP3    H1 2325   3.958   5.695   1.396  0.6789 -0.2963  1.1852
  773TIP3    H2 2326   3.847   5.592   1.386 -0.1754  0.6838  0.2261
  774TIP3   OH2 2327   5.775   0.609   3.149  0.2689  0.7876 -0.1228
  774TIP3    H1 2328   5.847   0.549   3.130 -0.2641  0.2012 -0.3417
  774TIP3    H2 2329   5.732   0.571   3.225  0.3174  1.2508  0.1373
  775TIP3   OH2 2330   1.179   0.977   4.245  0.4825 -0.7771  0.5870
  775TIP3    H1 2331   1.177   0.964   4.340  0.3023 -0.9691  0.5576
  775TIP3    H2 2332   1.271   0.995   4.225  0.2317  1.3434  1.0688
  776TIP3   OH2 2333   2.929   1.214   2.799 -0.0930 -0.0203  0.7961
  776TIP3    H1 2334   2.953   1.281   2.735 -0.0450 -0.3129  0.5054
  776TIP3    H2 2335   2.978   1.137   2.772  0.1168 -0.0777  1.3345
  777TIP3   OH2 2336   1.628   3.634   3.100 -0.1465  0.4629  0.1392
  777TIP3    H1 2337   1.714   3.672   3.087  0.1498 -0.9144 -2.8019
  777TIP3    H2 2338   1.573   3.676   3.034 -1.5222  0.6082  1.3144
  778TIP3   OH2 2339   4.985   0.064   2.904 -0.4950  0.8071  0.0842
  778TIP3    H1 2340   4.975  -0.025   2.939 -0.3234  0.4631 -0.7347
  778TIP3    H2 2341   5.078   0.071   2.885 -0.3892  1.4154  0.7968
  779TIP3   OH2 2342   4.078   5.236   4.470 -0.6459 -0.8812 -0.2630
  779TIP3    H1 2343   4.165   5.259   4.436  0.0479  0.1642  2.0086
  779TIP3    H2 2344   4.019   5.300   4.430 -0.2048 -0.9815 -1.0838
  780TIP3   OH2 2345   4.346   4.867   2.368 -0.1723 -0.3462  0.2930
  780TIP3    H1 2346   4.289   4.942   2.380 -0.1348 -0.4411  1.0949
  780TIP3    H2 2347   4.306   4.798   2.422  0.4923 -0.5198  0.5666
  781TIP3   OH2 2348   2.864   0.284   3.886  0.5546 -0.0676  0.8135
  781TIP3    H1 2349   2.857   0.379   3.882  0.1518  0.0025  2.4880
  781TIP3    H2 2350   2.951   0.268   3.923  1.0632 -0.3940 -0.4894
  782TIP3   OH2 2351   0.571   1.747   5.139 -0.3354  0.4907  0.5306
  782TIP3    H1 2352   0.618   1.806   5.080 -0.4206 -1.3792 -1.5641
  782TIP3    H2 2353   0.525   1.805   5.199  2.4782  2.4479  0.9919
  783TIP3   OH2 2354   2.659   3.624   1.802  0.0396  0.4503 -0.1989
  783TIP3    H1 2355   2.702   3.573   1.734  0.6652 -1.2688  1.4150
  783TIP3    H2 2356   2.565   3.608   1.789  0.0971  0.7375 -1.0644
  784TIP3   OH2 2357   2.324   3.492   0.932 -0.0256 -0.9528  0.4733
  784TIP3    H1 2358   2.249   3.526   0.982 -0.3162  1.8355 -1.6476
  784TIP3    H2 2359   2.400   3.533   0.972 -0.2072  0.7896 -0.8505
  785TIP3   OH2 2360   3.424   2.406   4.444  0.5252 -0.7814  0.1986
  785TIP3    H1 2361   3.518   2.411   4.459  0.5838  1.3351 -0.5227
  785TIP3    H2 2362   3.401   2.489   4.403 -1.3831 -1.9150 -1.2781
  786TIP3   OH2 2363   3.455   0.862   2.964 -0.8485  0.4942  0.2040
  786TIP3    H1 2364   3.464   0.849   3.058 -2.2698  0.2152  0.3279
  786TIP3    H2 2365   3.361   0.876   2.950 -0.8145 -0.4699 -1.2918
  787TIP3   OH2 2366   2.905   0.490   4.331  0.1797  0.2863  0.6347
  787TIP3    H1 2367   2.979   0.498   4.391  1.2181  0.1751 -0.5708
  787TIP3    H2 2368   2.872   0.580   4.322 -0.4341  0.2072  1.8662
  788TIP3   OH2 2369   2.812   3.909   3.867 -0.1605  0.1787 -0.6423
  788TIP3    H1 2370   2.792   3.821   3.899 -1.0667  0.3717 -0.6759
  788TIP3    H2 2371   2.908   3.911   3.862 -0.0017 -0.0098  1.5605
  789TIP3   OH2 2372   5.792   1.598   1.385 -0.5683  0.2402  0.0160
  789TIP3    H1 2373   5.775   1.563   1.472  0.4917  1.3640  0.7079
  789TIP3    H2 2374   5.846   1.532   1.342  0.3633  0.4235  0.8561
  790TIP3   OH2 2375   4.076   4.806   3.229 -0.4285  0.1252 -0.2461
  790TIP3    H1 2376   4.111   4.895   3.227  0.0754 -0.0203  0.8768
  790TIP3    H2 2377   3.992   4.814   3.274  0.3931 -0.1615  1.4449
  791TIP3   OH2 2378   3.668   1.034   3.333 -0.2696 -0.8432  0.3935
  791TIP3    H1 2379   3.726   1.023   3.408 -0.3207 -0.8150  0.4379
  791TIP3    H2 2380   3.598   1.092   3.365  1.6406  2.3067 -0.6840
  792TIP3   OH2 2381   2.321   4.462   1.900 -0.0963  0.3943 -0.2816
  792TIP3    H1 2382   2.350   4.553   1.886  0.4077  0.2039 -0.4955
  792TIP3    H2 2383   2.332   4.421   1.814 -2.9670  0.8368 -0.9544
  793TIP3   OH2 2384   0.281   2.836   1.953  0.4289  0.2526  0.5124
  793TIP3    H1 2385   0.279   2.803   2.043 -0.4807  0.0956  0.4401
  793TIP3    H2 2386   0.191   2.862   1.935  0.5453  0.0081 -0.4664
  794TIP3   OH2 2387   3.128   1.904   5.016  0.1021  0.1859 -0.0393
  794TIP3    H1 2388   3.083   1.944   5.091  0.1248 -1.4172  0.8701
  794TIP3    H2 2389   3.057   1.882   4.955 -0.1378 -0.3812  0.4365
  795TIP3   OH2 2390   5.072   5.336   0.646  0.0976  0.3110  0.2698
  795TIP3    H1 2391   5.021   5.257   0.632  0.5048  0.3348 -1.5845
  795TIP3    H2 2392   5.035   5.375   0.725 -1.6236 -0.5481 -0.0771
  796TIP3   OH2 2393   4.939   3.843   0.125  0.2684 -0.5155  0.3120
  796TIP3    H1 2394   4.947   3.891   0.208  2.5096  0.7507 -0.5229
  796TIP3    H2 2395   4.868   3.886   0.079  0.5844  0.3666  0.6273
  797TIP3   OH2 2396   5.201   0.636   0.801 -0.2901  0.5899 -0.5923
  797TIP3    H1 2397   5.172   0.721   0.767 -0.1189  0.3760 -1.2877
  797TIP3    H2 2398   5.233   0.590   0.724 -1.1748 -0.4335 -0.3670
  798TIP3   OH2 2399   0.820   5.631   5.023 -0.4819  0.5285  0.0144
  798TIP3    H1 2400   0.882   5.661   4.956  0.5273  0.5492  0.9461
  798TIP3    H2 2401   0.794   5.544   4.994 -0.3564  0.6904 -0.6066
  799TIP3   OH2 2402   5.014   3.406   0.874  0.8486  0.3508  0.2937
  799TIP3    H1 2403   4.980   3.440   0.791  1.2958 -1.1153 -0.5415
  799TIP3    H2 2404   5.068   3.331   0.848  1.7028  0.3834  1.8596
  800TIP3   OH2 2405   3.832   2.570   4.657 -0.2100 -0.2515  0.2752
  800TIP3    H1 2406   3.884   2.507   4.707  0.3545 -0.2767 -0.3328
  800TIP3    H2 2407   3.866   2.655   4.683  0.2935 -0.2781 -0.2982
  801TIP3   OH2 2408   5.500   3.159   0.647 -0.4490  0.5226  0.0543
  801TIP3    H1 2409   5.492   3.249   0.681 -2.8551  0.0589  0.9474
  801TIP3    H2 2410   5.427   3.151   0.586  1.9279  0.2898 -2.9828
  802TIP3   OH2 2411   1.184   0.812   0.038  0.2627 -0.8161 -0.1230
  802TIP3    H1 2412   1.207   0.872   0.109  1.8952 -0.7102 -0.7123
  802TIP3    H2 2413   1.119   0.753   0.077 -0.1891  0.3396  0.9204
  803TIP3   OH2 2414   0.158   0.131   4.494 -0.0437 -0.7982 -0.8040
  803TIP3    H1 2415   0.152   0.210   4.547  0.5366 -1.1034 -0.2797
  803TIP3    H2 2416   0.170   0.164   4.404  0.8436 -0.2848 -0.5131
  804TIP3   OH2 2417   0.788   1.687   0.675 -0.5922 -0.6425  0.4297
  804TIP3    H1 2418   0.718   1.634   0.711 -1.8933  0.9788  0.4306
  804TIP3    H2 2419   0.776   1.773   0.716  0.5471  0.0431 -0.6079
  805TIP3   OH2 2420   1.896   3.578   2.407  0.3895  0.1880 -0.1455
  805TIP3    H1 2421   1.967   3.573   2.471  0.1214 -0.0800  0.1313
  805TIP3    H2 2422   1.867   3.669   2.411  1.2145  0.5013 -0.8072
  806TIP3   OH2 2423   5.109   1.857   1.970  0.0934  0.2798 -0.2801
  806TIP3    H1 2424   5.112   1.952   1.966  0.4545  0.2542 -0.7840
  806TIP3    H2 2425   5.089   1.830   1.880 -0.7645 -0.0954  0.0138
  807TIP3   OH2 2426   2.983   5.325   1.185 -0.1279  0.5859  0.1877
  807TIP3    H1 2427   3.060   5.344   1.131  0.1141 -1.7537 -0.3772
  807TIP3    H2 2428   2.916   5.385   1.152  1.0564  1.7825 -0.1604
  808TIP3   OH2 2429   2.048   3.294   0.822  0.1492 -0.1937 -0.2046
  808TIP3    H1 2430   2.143   3.292   0.809  0.0212 -1.3081 -1.2093
  808TIP3    H2 2431   2.023   3.203   0.835 -0.8137  0.0596 -0.1527
  809TIP3   OH2 2432   4.325   4.619   3.991  0.0928 -0.5266 -0.6337
  809TIP3    H1 2433   4.270   4.693   3.965  0.5258 -0.9422 -2.9933
  809TIP3    H2 2434   4.343   4.574   3.909  1.9706 -1.7739  0.4100
  810TIP3   OH2 2435   1.412   4.370   2.813 -0.2669  0.5428  0.8022
  810TIP3    H1 2436   1.403   4.298   2.751  0.2972 -1.0332  2.4573
  810TIP3    H2 2437   1.492   4.416   2.785  0.5914 -0.8055  0.9851
  811TIP3   OH2 2438   0.451   5.708   2.750  0.2023  0.0752 -0.1882
  811TIP3    H1 2439   0.392   5.778   2.720  0.6639  0.0407 -1.2097
  811TIP3    H2 2440   0.394   5.648   2.798 -0.6075  0.0669 -1.1136
  812TIP3   OH2 2441   3.174   2.972   2.466  0.1424  0.3342 -0.0904
  812TIP3    H1 2442   3.086   2.975   2.503  0.5233 -0.6919  0.9585
  812TIP3    H2 2443   3.162   2.991   2.373 -1.3007 -0.7466 -0.1584
  813TIP3   OH2 2444   4.971   4.447   2.083 -0.2493 -0.3651 -0.2676
  813TIP3    H1 2445   4.959   4.441   1.988 -1.2344  1.1847 -0.2762
  813TIP3    H2 2446   5.064   4.467   2.095  0.1317 -1.6931 -0.8237
  814TIP3   OH2 2447   0.028   2.330   2.649 -0.6450  1.0238  0.0887
  814TIP3    H1 2448  -0.040   2.395   2.632 -0.8311  0.6050 -0.8245
  814TIP3    H2 2449   0.082   2.330   2.570 -0.9113 -0.2272 -0.1303
  815TIP3   OH2 2450   5.744   5.043   2.375  0.1486 -0.7594  0.0426
  815TIP3    H1 2451   5.804   5.032   2.448 -0.7098  0.0804  0.8998
  815TIP3    H2 2452   5.712   4.955   2.357  2.2820 -1.3850 -1.0510
  816TIP3   OH2 2453   0.334   2.587   5.107  0.0895  0.6751  0.5901
  816TIP3    H1 2454   0.285   2.548   5.179  0.5551 -0.3120  0.3914
  816TIP3    H2 2455   0.368   2.512   5.057 -0.9817  1.3163 -1.2014
  817TIP3   OH2 2456   5.381   5.814   4.573  0.1341 -0.3476  0.3414
  817TIP3    H1 2457   5.429   5.756   4.631 -1.3352 -1.9097  0.0614
  817TIP3    H2 2458   5.296   5.826   4.615  0.3752  1.6307  0.3814
  818TIP3   OH2 2459   1.753   1.979   2.525  0.3591 -0.0213  0.2253
  818TIP3    H1 2460   1.673   2.011   2.483 -0.4727 -0.5077  1.3937
  818TIP3    H2 2461   1.824   2.009   2.467 -0.6926 -0.2092 -1.2265
  819TIP3   OH2 2462   2.744   1.968   4.134 -0.2839  0.0438  0.6072
  819TIP3    H1 2463   2.821   1.997   4.183 -0.5807 -0.7886  1.5763
  819TIP3    H2 2464   2.768   1.984   4.042  0.4573  1.1766  0.9651
  820TIP3   OH2 2465   5.330   0.723   2.555  0.0223 -0.6418 -0.2495
  820TIP3    H1 2466   5.393   0.772   2.608  0.7257 -0.9264 -0.8105
  820TIP3    H2 2467   5.310   0.645   2.607 -0.5341 -0.1444  0.3104
  821TIP3   OH2 2468   0.615   5.786   4.272 -0.2598 -0.3473  0.2315
  821TIP3    H1 2469   0.626   5.864   4.218 -1.0206 -0.2016  0.2670
  821TIP3    H2 2470   0.685   5.727   4.245 -0.4922 -0.1890 -0.7631
  822TIP3   OH2 2471   3.874   4.457   1.078  0.4822  0.2217  0.2951
  822TIP3    H1 2472   3.794   4.505   1.099  0.0266 -0.6105  0.4785
  822TIP3    H2 2473   3.944   4.512   1.113  0.1999  2.1042 -1.8186
  823TIP3   OH2 2474   1.233   4.253   3.709  0.8918  0.1715 -0.0087
  823TIP3    H1 2475   1.319   4.216   3.688  0.3836 -0.6564 -0.7134
  823TIP3    H2 2476   1.173   4.206   3.651 -0.0113  0.8731  0.3487
  824TIP3   OH2 2477   3.689   2.799   1.613 -0.0964 -0.8021  0.9260
  824TIP3    H1 2478   3.668   2.830   1.701  1.0125  1.0149  0.6133
  824TIP3    H2 2479   3.754   2.861   1.581 -0.9424 -1.0241 -1.4175
  825TIP3   OH2 2480   0.103   5.383   1.805  0.0031  0.3033  0.3289
  825TIP3    H1 2481   0.164   5.412   1.736 -0.2985  3.3539  1.2045
  825TIP3    H2 2482   0.158   5.377   1.883 -0.3109  0.4380  0.5586
  826TIP3   OH2 2483   0.003   2.683   0.268  0.1060 -0.6579  0.6940
  826TIP3    H1 2484   0.023   2.608   0.323  0.1749 -1.1751 -0.0206
  826TIP3    H2 2485  -0.021   2.645   0.184  0.9745  0.1408  0.0580
  827TIP3   OH2 2486   1.160   4.395   4.649 -0.0017 -0.9208  0.0914
  827TIP3    H1 2487   1.115   4.333   4.706 -0.2990 -0.2195  0.6352
  827TIP3    H2 2488   1.240   4.417   4.696 -0.0231 -0.6895  0.0193
  828TIP3   OH2 2489   5.945   5.512   2.367  0.6850  0.0939 -0.1414
  828TIP3    H1 2490   5.965   5.605   2.370  0.5814  0.1667 -1.2370
  828TIP3    H2 2491   5.849   5.507   2.371  0.7141 -0.0036  0.5155
  829TIP3   OH2 2492   3.951   4.950   2.329  0.1914 -0.3925  0.8357
  829TIP3    H1 2493   3.868   4.998   2.324  0.5711  0.1419 -1.5234
  829TIP3    H2 2494   4.014   5.015   2.360  0.1338 -0.1815  0.5164
  830TIP3   OH2 2495   4.357   0.045   3.966  0.0848 -0.5049  0.3581
  830TIP3    H1 2496   4.312  -0.018   3.909  1.9463 -0.6994 -1.0109
  830TIP3    H2 2497   4.374   0.120   3.909  3.1429 -1.2150  0.1792
  831TIP3   OH2 2498   2.718   0.854   4.905 -0.2129  0.0593 -0.2177
  831TIP3    H1 2499   2.783   0.924   4.894 -2.4885  2.3212 -0.2792
  831TIP3    H2 2500   2.703   0.850   4.999  1.0405 -1.5311 -0.0509
  832TIP3   OH2 2501   4.235   1.612   5.041 -0.1632 -0.2691  0.3315
  832TIP3    H1 2502   4.315   1.610   4.988 -0.7968 -1.2327 -0.6255
  832TIP3    H2 2503   4.265   1.641   5.128  1.0429  0.4153 -0.2780
  833TIP3   OH2 2504   4.968   1.052   4.615 -0.5457  0.3759  0.4245
  833TIP3    H1 2505   4.966   1.122   4.551 -2.2734 -0.5664 -0.6163
  833TIP3    H2 2506   5.029   0.988   4.578 -2.2321 -0.5853 -0.8046
  834TIP3   OH2 2507   3.297   5.677   1.285 -0.3168 -0.1478  0.1962
  834TIP3    H1 2508   3.210   5.644   1.304 -0.0208 -0.1450  1.6462
  834TIP3    H2 2509   3.330   5.620   1.216 -0.7355 -1.3763  0.9883
  835TIP3   OH2 2510   4.986   2.182   3.517 -0.2679 -0.1865  0.1238
  835TIP3    H1 2511   4.936   2.128   3.577  1.8919  2.0080  4.3373
  835TIP3    H2 2512   4.923   2.247   3.484 -1.0663  0.0924  2.1011
  836TIP3   OH2 2513   3.284   1.695   3.148  0.1394 -0.8265  0.2023
  836TIP3    H1 2514   3.378   1.675   3.146  0.1800 -0.7122  0.8862
  836TIP3    H2 2515   3.245   1.624   3.199 -0.0641 -0.5547  0.4265
  837TIP3   OH2 2516   5.967   1.209   4.634 -0.7167  0.0761  0.1391
  837TIP3    H1 2517   5.919   1.240   4.557  0.7058 -0.0306 -0.8215
  837TIP3    H2 2518   6.025   1.281   4.658  0.6666 -0.7966 -0.4569
  838TIP3   OH2 2519   0.707   3.809   2.167  0.0386  0.2211  0.4554
  838TIP3    H1 2520   0.752   3.753   2.230  1.5391 -0.1657 -0.9047
  838TIP3    H2 2521   0.657   3.749   2.112 -0.0038  0.4009  0.2956
  839TIP3   OH2 2522   2.695   5.772   3.286  0.2962 -0.2134 -0.0593
  839TIP3    H1 2523   2.637   5.699   3.264  0.8805 -0.4528 -0.8951
  839TIP3    H2 2524   2.783   5.737   3.272  0.5932  0.5813 -0.2652
  840TIP3   OH2 2525   1.607   0.920   3.148 -0.0011  0.3325  0.3159
  840TIP3    H1 2526   1.636   0.950   3.234  1.1041 -1.5961  0.6910
  840TIP3    H2 2527   1.512   0.927   3.150  0.0070  0.2052  1.7458
  841TIP3   OH2 2528   0.659   5.741   2.520 -0.3841  0.4129 -0.5706
  841TIP3    H1 2529   0.640   5.826   2.559 -1.1803 -0.2757  0.6351
  841TIP3    H2 2530   0.663   5.681   2.595  0.2286 -0.6044 -1.3811
  842TIP3   OH2 2531   5.594   3.649   4.757 -0.2209 -0.1838  0.1049
  842TIP3    H1 2532   5.673   3.702   4.743 -1.9723  2.1901 -1.6264
  842TIP3    H2 2533   5.615   3.564   4.717  1.9083 -0.1195  0.9670
  843TIP3   OH2 2534   5.952   4.399   2.706 -0.0181 -0.2412  0.0382
  843TIP3    H1 2535   6.039   4.407   2.746  0.9410 -1.4222 -1.6439
  843TIP3    H2 2536   5.915   4.319   2.742  0.6633 -1.0678 -1.0181
  844TIP3   OH2 2537   0.990   1.569   5.064 -0.5774 -0.1359  0.1131
  844TIP3    H1 2538   0.920   1.607   5.118 -0.7637 -0.6973  0.2732
  844TIP3    H2 2539   0.947   1.499   5.014 -0.4140  0.4167 -0.8124
  845TIP3   OH2 2540   0.742   3.003   4.041 -1.3367  0.3711  0.0867
  845TIP3    H1 2541   0.720   2.915   4.011 -0.7871  0.2998 -0.1228
  845TIP3    H2 2542   0.673   3.025   4.105 -3.3050  1.0326 -2.1151
  846TIP3   OH2 2543   1.749   2.295   2.307 -0.2679  0.5194  0.1084
  846TIP3    H1 2544   1.810   2.222   2.301 -0.5265  0.2118  0.9517
  846TIP3    H2 2545   1.792   2.357   2.366 -1.0916 -0.0622  1.3653
  847TIP3   OH2 2546   5.406   1.802   2.267  0.4346  0.0857  0.3172
  847TIP3    H1 2547   5.370   1.759   2.345  2.9289 -0.3762  1.2912
  847TIP3    H2 2548   5.425   1.892   2.296  1.2060 -0.0356  0.2095
  848TIP3   OH2 2549   4.732   2.642   0.689 -0.1599  0.0180  0.4168
  848TIP3    H1 2550   4.731   2.557   0.734 -1.4575  0.1393  0.6563
  848TIP3    H2 2551   4.713   2.705   0.758 -0.1913  0.3987  0.0583
  849TIP3   OH2 2552   0.157   3.526   2.370 -0.0648 -0.1363  0.1963
  849TIP3    H1 2553   0.101   3.463   2.416 -0.9356  0.3199 -0.2010
  849TIP3    H2 2554   0.245   3.491   2.379 -0.2905 -0.3758  1.6815
  850TIP3   OH2 2555   5.185   0.950   0.896  0.0849  0.0902  0.3521
  850TIP3    H1 2556   5.242   0.996   0.958 -0.0102  0.6294  0.0460
  850TIP3    H2 2557   5.109   0.924   0.949 -0.0316  0.6159  0.4550
  851TIP3   OH2 2558   0.752   3.350   2.410  0.2150 -0.3502 -0.6542
  851TIP3    H1 2559   0.697   3.372   2.485  0.8087  0.7139 -0.5052
  851TIP3    H2 2560   0.824   3.300   2.447  0.0831 -0.5293 -0.6387
  852TIP3   OH2 2561   5.194   4.404   2.667 -0.5977  0.9002  0.6399
  852TIP3    H1 2562   5.192   4.353   2.586 -0.3395  1.1310  0.4857
  852TIP3    H2 2563   5.260   4.361   2.721 -1.6772 -0.0288  1.2515
  853TIP3   OH2 2564   0.258   0.470   4.357  0.1387 -0.1084 -0.0039
  853TIP3    H1 2565   0.171   0.489   4.393  0.0132  1.0047 -0.8456
  853TIP3    H2 2566   0.298   0.556   4.343  0.9822 -0.5765 -0.5871
  854TIP3   OH2 2567   1.483   5.174   0.916  0.2691 -0.4147  0.1517
  854TIP3    H1 2568   1.513   5.098   0.966  0.8473  0.2094  0.7843
  854TIP3    H2 2569   1.551   5.240   0.930 -0.6041  0.4886  0.2679
  855TIP3   OH2 2570   0.012   3.161   0.804 -0.1489 -0.3811  0.3791
  855TIP3    H1 2571  -0.044   3.086   0.825  0.9003 -0.6148  2.6766
  855TIP3    H2 2572   0.086   3.123   0.757 -0.7538 -0.4122 -0.5705
  856TIP3   OH2 2573   4.415   3.591   5.056  0.3449 -0.6946 -0.1338
  856TIP3    H1 2574   4.504   3.601   5.091  0.4395 -1.9899  0.0617
  856TIP3    H2 2575   4.418   3.508   5.008 -1.4472 -2.2350  2.1839
  857TIP3   OH2 2576   6.188   1.408   0.806 -0.5317 -0.1876  0.4830
  857TIP3    H1 2577   6.280   1.424   0.786 -0.6732 -2.2011 -2.4191
  857TIP3    H2 2578   6.187   1.319   0.843 -1.2583 -0.0112  0.9062
  858TIP3   OH2 2579   3.506   3.777   1.317  0.1471  0.8178  0.6855
  858TIP3    H1 2580   3.598   3.769   1.293 -0.1540 -1.9926  0.1912
  858TIP3    H2 2581   3.465   3.820   1.242  0.7390  0.3154  0.0642
  859TIP3   OH2 2582   1.365   3.971   1.156  0.3738  0.0687  0.3193
  859TIP3    H1 2583   1.412   4.046   1.119 -0.2818 -0.0466 -0.7893
  859TIP3    H2 2584   1.387   3.898   1.098 -1.9068  0.2217 -0.8560
  860TIP3   OH2 2585   4.040   1.953   0.229  0.1582  0.2530 -0.4068
  860TIP3    H1 2586   4.017   1.936   0.138  1.1068 -0.7711 -0.4734
  860TIP3    H2 2587   4.114   2.014   0.224  1.6758 -1.5086 -0.4357
  861TIP3   OH2 2588   1.290   2.968   3.543  0.2536 -0.4832  0.4466
  861TIP3    H1 2589   1.346   2.925   3.608 -0.0745  0.9682  1.7391
  861TIP3    H2 2590   1.348   3.029   3.498  0.0273 -0.0097  0.7957
  862TIP3   OH2 2591   4.705   4.358   2.962  0.2622 -0.1204 -0.2498
  862TIP3    H1 2592   4.672   4.335   3.049 -0.0124  1.3450  0.0531
  862TIP3    H2 2593   4.798   4.334   2.964  0.7014  1.5183  1.0876
  863TIP3   OH2 2594   5.799   3.573   2.071  0.1546 -0.1066 -0.3244
  863TIP3    H1 2595   5.731   3.561   2.137  1.3485 -2.2840  0.6363
  863TIP3    H2 2596   5.766   3.528   1.993 -1.1741  2.3062 -1.2692
  864TIP3   OH2 2597   5.730   4.289   3.992  0.3657  0.3781  0.1305
  864TIP3    H1 2598   5.657   4.242   4.032 -0.2466  1.3724  0.2247
  864TIP3    H2 2599   5.714   4.381   4.014  1.4586  0.6505 -0.1516
  865TIP3   OH2 2600   5.398   3.061   4.812 -0.2134 -0.0810 -0.3073
  865TIP3    H1 2601   5.351   2.979   4.802  0.5088 -0.3444 -2.1284
  865TIP3    H2 2602   5.472   3.053   4.751  1.8511  0.5410  1.9827
  866TIP3   OH2 2603   5.151   5.086   4.281 -0.2893 -0.3130  0.0575
  866TIP3    H1 2604   5.082   5.112   4.221 -0.3691 -0.4500  0.0903
  866TIP3    H2 2605   5.133   4.994   4.300 -0.8961  0.0119  1.1489
  867TIP3   OH2 2606   1.953   1.722   0.810 -0.3442 -0.5541 -0.3516
  867TIP3    H1 2607   1.995   1.786   0.752  0.3922  0.2765  1.0660
  867TIP3    H2 2608   2.025   1.666   0.840 -1.0766 -2.6724 -2.2336
  868TIP3   OH2 2609   5.223   2.810   2.453  0.3127  0.0715  0.0141
  868TIP3    H1 2610   5.253   2.791   2.364 -0.2659 -1.1174  0.0590
  868TIP3    H2 2611   5.295   2.860   2.492  0.4646  0.8392 -1.1920
  869TIP3   OH2 2612   3.619   4.522   3.804 -0.1833 -0.1271  0.6947
  869TIP3    H1 2613   3.598   4.459   3.872  1.1387 -0.2931  0.9773
  869TIP3    H2 2614   3.713   4.537   3.813  0.6568 -2.2352 -2.8382
  870TIP3   OH2 2615   0.425   2.050   4.650 -0.2599 -0.3623 -0.3021
  870TIP3    H1 2616   0.496   2.024   4.592  1.1078  1.4555  0.4462
  870TIP3    H2 2617   0.348   2.005   4.616  1.1322 -2.0017 -1.4586
  871TIP3   OH2 2618   1.622   0.292   0.401 -0.1241 -0.6995  0.1102
  871TIP3    H1 2619   1.623   0.341   0.318  0.3282  1.2954  1.2334
  871TIP3    H2 2620   1.685   0.221   0.387  0.8100  0.2705 -0.9042
  872TIP3   OH2 2621   5.745   2.571   4.537  0.0427  0.1284  0.1237
  872TIP3    H1 2622   5.692   2.623   4.598  2.4316  0.5778  1.9718
  872TIP3    H2 2623   5.754   2.486   4.580  2.3597  0.6802  0.8632
  873TIP3   OH2 2624   4.275   2.204   4.167  0.5510 -0.1770 -0.7104
  873TIP3    H1 2625   4.183   2.176   4.167  0.7726 -0.9500 -1.0339
  873TIP3    H2 2626   4.273   2.293   4.133 -0.2408  0.4393  0.8644
  874TIP3   OH2 2627   3.389   2.734   4.460  0.1664  0.2818  0.0441
  874TIP3    H1 2628   3.425   2.757   4.546  1.3200  1.0757 -0.6312
  874TIP3    H2 2629   3.386   2.817   4.413 -2.1271  0.1877 -0.1240
  875TIP3   OH2 2630   5.481   0.196   0.453 -0.0064 -0.3843 -0.0245
  875TIP3    H1 2631   5.514   0.244   0.529 -2.7264  0.4435  0.7498
  875TIP3    H2 2632   5.441   0.117   0.489 -0.6074 -0.3864 -0.6610
  876TIP3   OH2 2633   6.101   4.053   2.179 -0.3313  0.3221  0.0737
  876TIP3    H1 2634   6.164   4.062   2.108  0.1888 -1.0243  0.3177
  876TIP3    H2 2635   6.023   4.016   2.137 -0.9004  1.7721 -0.1883
  877TIP3   OH2 2636   3.203   1.232   0.539 -0.0687  0.5639  0.1668
  877TIP3    H1 2637   3.133   1.234   0.604 -0.2794 -0.6347 -0.0117
  877TIP3    H2 2638   3.160   1.201   0.459  0.5937  0.1341 -0.0272
  878TIP3   OH2 2639   3.868   1.135   2.789  0.2359  0.0810  1.0073
  878TIP3    H1 2640   3.809   1.080   2.737  0.2438  0.4146  0.6438
  878TIP3    H2 2641   3.878   1.087   2.872  0.2106 -0.4467  0.7106
  879TIP3   OH2 2642   1.051   4.427   3.051 -0.1183 -0.0066  0.1111
  879TIP3    H1 2643   1.039   4.444   2.958 -0.4136  0.7364  0.2750
  879TIP3    H2 2644   1.135   4.381   3.056 -0.0403  0.0546 -0.5088
  880TIP3   OH2 2645   1.319   4.614   0.480  0.0342  0.3112  0.2324
  880TIP3    H1 2646   1.398   4.594   0.531  0.8485  0.9335 -0.7506
  880TIP3    H2 2647   1.312   4.709   0.483  1.2408  0.5849 -2.3641
  881TIP3   OH2 2648   4.992   4.317   4.162 -0.0039  0.9857 -0.4155
  881TIP3    H1 2649   4.950   4.404   4.161 -1.7754  0.1878  0.1454
  881TIP3    H2 2650   5.047   4.316   4.084  0.4808  2.7928 -0.1644
  882TIP3   OH2 2651   2.472   1.724   1.612  0.2863 -0.1855  0.4662
  882TIP3    H1 2652   2.544   1.668   1.641  0.3806  0.7052  2.0983
  882TIP3    H2 2653   2.393   1.680   1.646  0.3063  0.2595  1.1197
  883TIP3   OH2 2654   2.841   0.687   1.634 -0.3763 -0.1361  0.0042
  883TIP3    H1 2655   2.883   0.626   1.694  0.1437  0.2060 -0.0058
  883TIP3    H2 2656   2.907   0.703   1.566 -1.0609 -0.7636 -0.8387
  884TIP3   OH2 2657   3.469   0.877   2.678  0.3921 -0.1880  0.5170
  884TIP3    H1 2658   3.447   0.892   2.770 -1.0875 -1.2704  0.3636
  884TIP3    H2 2659   3.504   0.788   2.676 -2.1398 -1.2295 -0.3345
  885TIP3   OH2 2660   2.470   5.637   2.518  0.4269  0.5509  0.1627
  885TIP3    H1 2661   2.466   5.724   2.477 -1.6043  0.7281  0.6262
  885TIP3    H2 2662   2.523   5.585   2.459 -0.8172  1.3126 -1.7179
  886TIP3   OH2 2663   6.301   4.101   1.973  0.0465 -0.1873  0.2405
  886TIP3    H1 2664   6.374   4.041   1.958 -0.7663 -1.6012  1.6745
  886TIP3    H2 2665   6.335   4.187   1.947  1.0047 -1.3176 -2.6145
  887TIP3   OH2 2666   6.241   1.996   1.009  0.3016 -0.0916  0.3231
  887TIP3    H1 2667   6.190   2.010   1.089  3.3338 -1.8760  2.7748
  887TIP3    H2 2668   6.208   1.914   0.973 -0.9760  0.6436 -0.2479
  888TIP3   OH2 2669   0.782   1.450   3.466  0.1388 -0.1609  0.3349
  888TIP3    H1 2670   0.702   1.401   3.447 -2.0708  2.5857  1.8781
  888TIP3    H2 2671   0.794   1.440   3.561  1.3182 -0.0160  0.2159
  889TIP3   OH2 2672   3.677   0.058   0.755 -0.0090  0.1844 -0.1818
  889TIP3    H1 2673   3.619   0.010   0.815  2.2131 -2.7112 -0.1334
  889TIP3    H2 2674   3.759   0.068   0.804  1.8514 -2.1998 -2.5241
  890TIP3   OH2 2675   1.349   0.326   4.543  0.0146 -0.1256 -0.2239
  890TIP3    H1 2676   1.303   0.267   4.603 -1.1055  2.1126  1.2438
  890TIP3    H2 2677   1.442   0.309   4.559 -0.2836 -0.9692  0.6859
  891TIP3   OH2 2678   4.703   5.809   3.011  0.2574  0.0654  0.3769
  891TIP3    H1 2679   4.630   5.767   3.057  1.1968 -1.0142  0.9310
  891TIP3    H2 2680   4.665   5.889   2.974 -1.4356 -0.9372 -0.1524
  892TIP3   OH2 2681   1.076   2.798   3.571  0.2897 -0.2786  0.1604
  892TIP3    H1 2682   1.153   2.854   3.560 -0.4564  0.6363 -0.6512
  892TIP3    H2 2683   1.024   2.843   3.637 -1.2046  1.0876 -1.8149
  893TIP3   OH2 2684   5.278   3.271   4.936  0.0921  0.0789  0.5695
  893TIP3    H1 2685   5.318   3.220   4.866  0.7019 -0.7721  1.4999
  893TIP3    H2 2686   5.351   3.318   4.976  0.1287 -1.0844  1.9558
  894TIP3   OH2 2687   1.992   4.874   3.017 -0.1017  0.1670 -0.2784
  894TIP3    H1 2688   1.980   4.932   3.092 -1.2632 -0.8480  0.3615
  894TIP3    H2 2689   2.083   4.887   2.991 -0.3257  2.2539 -0.1722
  895TIP3   OH2 2690   0.669   5.497   2.719  0.1084 -0.2015  0.0319
  895TIP3    H1 2691   0.706   5.453   2.643  0.8613 -1.5869  1.1404
  895TIP3    H2 2692   0.745   5.536   2.763 -0.0206 -1.0884  1.0965
  896TIP3   OH2 2693   2.105   3.640   1.546 -0.1876  0.2434 -0.2106
  896TIP3    H1 2694   2.085   3.714   1.604  0.1610  1.1162 -1.1578
  896TIP3    H2 2695   2.032   3.580   1.557 -0.7133  0.9506  0.2488
  897TIP3   OH2 2696   5.199   2.745   4.607 -0.1133  0.7934 -0.2968
  897TIP3    H1 2697   5.271   2.795   4.569  0.5011  0.5623  0.5339
  897TIP3    H2 2698   5.171   2.797   4.683 -0.0450  0.3091  0.0643
  898TIP3   OH2 2699   4.331   0.789   1.060  0.1977 -0.4331  0.6105
  898TIP3    H1 2700   4.309   0.812   0.970  2.3183 -1.0716 -0.1222
  898TIP3    H2 2701   4.271   0.718   1.082 -0.9305  0.3095  0.0474
  899TIP3   OH2 2702   5.688   3.260   3.602 -0.4883 -0.0079  0.2097
  899TIP3    H1 2703   5.671   3.334   3.660 -1.0354  0.3213 -0.3597
  899TIP3    H2 2704   5.739   3.199   3.656 -0.5426  0.5144  0.8703
  900TIP3   OH2 2705   2.966   2.432   2.258  0.2835 -0.3618  0.0010
  900TIP3    H1 2706   2.910   2.354   2.262 -0.3518 -0.0288 -1.6429
  900TIP3    H2 2707   2.927   2.492   2.321 -0.6091 -0.5388 -0.3550
  901TIP3   OH2 2708   4.931   5.165   1.841 -0.3250  0.4104 -0.1475
  901TIP3    H1 2709   4.987   5.138   1.914 -0.2378  1.6015  0.2437
  901TIP3    H2 2710   4.843   5.135   1.866  0.0109 -0.9226 -0.4806
  902TIP3   OH2 2711   3.555   1.665   3.118  0.1152 -0.1203  0.0142
  902TIP3    H1 2712   3.564   1.682   3.024  0.2360 -0.3659 -0.0192
  902TIP3    H2 2713   3.564   1.570   3.126 -0.5467 -0.1749  0.1941
  903TIP3   OH2 2714   2.471   0.639   4.755  0.0018 -0.2135  0.8284
  903TIP3    H1 2715   2.383   0.607   4.774 -0.5091  0.0875 -0.9033
  903TIP3    H2 2716   2.469   0.663   4.663  1.5443  1.0084  1.0726
  904TIP3   OH2 2717   3.281   3.937   3.425  0.0931  0.8436 -0.2538
  904TIP3    H1 2718   3.204   3.916   3.478  0.5825 -0.0635  0.1185
  904TIP3    H2 2719   3.298   3.857   3.375  0.6102  1.1443 -0.5671
  905TIP3   OH2 2720   1.512   5.362   1.938 -0.0302  0.3148  0.0533
  905TIP3    H1 2721   1.466   5.284   1.968  0.2539  0.4220  0.7837
  905TIP3    H2 2722   1.567   5.388   2.012  0.3175  0.8690 -0.3890
  906TIP3   OH2 2723   3.112   4.322   3.093  0.1519 -0.1228 -0.4673
  906TIP3    H1 2724   3.126   4.403   3.044 -0.5768 -0.2492 -0.8934
  906TIP3    H2 2725   3.187   4.267   3.070  1.0783  0.7050  0.4350
  907TIP3   OH2 2726   1.219   2.068   1.130  0.1094  0.2636 -0.6297
  907TIP3    H1 2727   1.194   2.145   1.181  2.0746  0.1721  0.5797
  907TIP3    H2 2728   1.207   1.994   1.189 -1.2659 -0.3397 -1.6147
  908TIP3   OH2 2729   4.921   4.974   4.732  0.2907  0.2935  0.2995
  908TIP3    H1 2730   4.831   4.960   4.762 -0.0119  1.1659 -0.1864
  908TIP3    H2 2731   4.943   5.063   4.759  0.3449  0.7580 -1.1934
  909TIP3   OH2 2732   3.869   2.783   2.604 -0.5764 -0.2267  0.0353
  909TIP3    H1 2733   3.821   2.840   2.544 -0.9932 -0.5775  0.0316
  909TIP3    H2 2734   3.828   2.797   2.689 -0.0954  0.1430  0.2105
  910TIP3   OH2 2735   2.934   1.677   0.790 -0.3330  0.2171 -0.4557
  910TIP3    H1 2736   2.941   1.754   0.847  1.6462 -0.3787  0.1844
  910TIP3    H2 2737   2.848   1.640   0.810 -0.3450  0.9443  0.9600
  911TIP3   OH2 2738   1.154   1.045   0.899 -0.0585 -0.1554  0.1190
  911TIP3    H1 2739   1.174   0.965   0.948 -0.5362 -0.8025 -0.7103
  911TIP3    H2 2740   1.198   1.033   0.815 -0.6393  0.1750 -0.2406
  912TIP3   OH2 2741   0.459   0.949   3.700 -0.4687 -0.3041  0.3318
  912TIP3    H1 2742   0.469   0.996   3.782 -2.0180 -3.5145  2.5780
  912TIP3    H2 2743   0.527   0.882   3.703  0.9998  0.9193 -2.2493
  913TIP3   OH2 2744   3.200   1.713   0.345  0.0346 -0.9007 -0.1900
  913TIP3    H1 2745   3.271   1.651   0.361  0.3482 -0.6182 -0.4751
  913TIP3    H2 2746   3.205   1.734   0.252  1.7309  1.6834  0.3699
  914TIP3   OH2 2747   1.385   0.890   2.099  0.3567 -0.0574 -0.7884
  914TIP3    H1 2748   1.460   0.847   2.141  0.7315 -0.3021 -1.6702
  914TIP3    H2 2749   1.343   0.821   2.049 -0.7409 -0.0183  0.0617
  915TIP3   OH2 2750   1.339   2.951   4.000 -0.1946  0.4946  0.0785
  915TIP3    H1 2751   1.351   2.880   3.936 -2.6039 -0.8991  1.0488
  915TIP3    H2 2752   1.313   3.027   3.947  1.5400  0.4523 -0.8946
  916TIP3   OH2 2753   1.690   4.656   2.258  0.2022 -0.6968 -0.7474
  916TIP3    H1 2754   1.641   4.716   2.314  1.4747 -0.9646  0.7350
  916TIP3    H2 2755   1.637   4.577   2.253  0.4490 -0.9837  0.8281
  917TIP3   OH2 2756   3.545   3.079   4.003  0.0201 -0.4907  0.0178
  917TIP3    H1 2757   3.507   3.138   3.938  1.3610 -0.3622 -0.6889
  917TIP3    H2 2758   3.469   3.040   4.047 -0.9178 -0.1759 -1.2501
  918TIP3   OH2 2759   4.203   0.235   2.215  0.5593 -0.7738 -0.6622
  918TIP3    H1 2760   4.116   0.256   2.182  0.9131  1.3320 -0.3634
  918TIP3    H2 2761   4.187   0.181   2.293 -0.6202  1.4412  0.7334
  919TIP3   OH2 2762   0.832   0.371   4.937 -0.3105 -0.6683  0.4435
  919TIP3    H1 2763   0.767   0.373   4.867 -1.2014  2.3434  1.2011
  919TIP3    H2 2764   0.891   0.300   4.912 -1.8213 -1.1665 -2.1743
  920TIP3   OH2 2765   5.932   5.108   4.503 -0.0881  0.1420  0.4681
  920TIP3    H1 2766   5.956   5.141   4.417 -0.1390  0.1002  0.4384
  920TIP3    H2 2767   5.948   5.013   4.498 -0.2808  0.1117  0.4427
  921TIP3   OH2 2768   3.207   2.765   2.662  0.1118 -0.1863 -0.1066
  921TIP3    H1 2769   3.175   2.806   2.581  1.7801  1.7564  0.1440
  921TIP3    H2 2770   3.145   2.694   2.678 -0.4281 -0.4983 -2.9402
  922TIP3   OH2 2771   4.800   4.711   0.840 -0.3685  0.3779  0.2262
  922TIP3    H1 2772   4.738   4.649   0.801  1.4165 -1.2637 -0.1153
  922TIP3    H2 2773   4.750   4.753   0.911 -1.3465 -2.2917  1.2395
  923TIP3   OH2 2774   1.871   4.227   3.305 -0.0867  0.0224  0.0871
  923TIP3    H1 2775   1.929   4.258   3.235 -0.2869  0.1315 -0.0286
  923TIP3    H2 2776   1.873   4.132   3.298 -1.2577  0.0503 -1.0011
  924TIP3   OH2 2777   0.955   0.605   4.397 -0.3142  0.1881  0.5796
  924TIP3    H1 2778   0.921   0.547   4.327  1.1512 -2.5053  1.9320
  924TIP3    H2 2779   1.037   0.638   4.362  0.3404 -1.0286  0.9213
  925TIP3   OH2 2780   1.358   0.255   0.506  0.0338 -0.2950  0.2213
  925TIP3    H1 2781   1.305   0.176   0.511 -0.6560  0.1447  0.1092
  925TIP3    H2 2782   1.436   0.229   0.457 -0.7936 -0.5908 -0.9961
  926TIP3   OH2 2783   0.525   5.436   4.515 -0.5176 -0.0204 -0.1237
  926TIP3    H1 2784   0.602   5.492   4.509 -0.2246 -0.5266 -1.2715
  926TIP3    H2 2785   0.539   5.384   4.594  1.1187 -1.2306 -1.1410
  927TIP3   OH2 2786   0.770   1.964   0.732  0.7757  0.2156  0.3516
  927TIP3    H1 2787   0.819   2.047   0.725 -1.5407  1.8400  2.0082
  927TIP3    H2 2788   0.688   1.981   0.686 -0.0823 -0.8546  1.4289
  928TIP3   OH2 2789   5.369   3.346   3.530 -0.1942 -0.4952 -0.0396
  928TIP3    H1 2790   5.404   3.373   3.615  1.6078  1.1135 -1.1915
  928TIP3    H2 2791   5.390   3.419   3.471 -1.6795 -1.4073 -1.8094
  929TIP3   OH2 2792   4.745   4.744   4.730  0.7598  0.1126  0.1439
  929TIP3    H1 2793   4.664   4.735   4.679  0.9661  1.8017 -0.5381
  929TIP3    H2 2794   4.815   4.739   4.665  1.2713 -1.6202  0.7593
  930TIP3   OH2 2795   0.044   3.033   2.689  0.3412  0.6023  0.1920
  930TIP3    H1 2796   0.092   3.114   2.706 -0.0266  1.2714 -1.7052
  930TIP3    H2 2797  -0.029   3.060   2.633 -0.6735 -0.8109  0.7799
  931TIP3   OH2 2798   0.874   4.504   3.844 -0.1515  0.6650  0.5809
  931TIP3    H1 2799   0.820   4.525   3.920 -0.3026  0.9591  0.3937
  931TIP3    H2 2800   0.861   4.410   3.831  1.4171  0.1664  2.1293
  932TIP3   OH2 2801   0.667   5.491   0.671  0.1892  0.0044 -0.2425
  932TIP3    H1 2802   0.592   5.470   0.615 -0.8224  0.2546  0.9579
  932TIP3    H2 2803   0.717   5.410   0.676 -1.8132 -1.2554  1.5594
  933TIP3   OH2 2804   4.007   0.487   0.471 -0.3105  0.3989  0.2916
  933TIP3    H1 2805   4.099   0.496   0.499 -0.7054 -0.5781  2.0906
  933TIP3    H2 2806   3.958   0.539   0.534 -1.2017 -1.4306  1.2035
  934TIP3   OH2 2807   3.045   2.304   4.240 -0.4368  0.0321  0.5425
  934TIP3    H1 2808   3.044   2.360   4.163 -3.0923 -1.6855 -0.7945
  934TIP3    H2 2809   2.990   2.350   4.304 -0.9341 -0.0745  0.1963
  935TIP3   OH2 2810   1.427   0.631  -0.002 -0.3982 -0.0322  0.3665
  935TIP3    H1 2811   1.359   0.698   0.002 -0.9290 -0.4438 -1.0553
  935TIP3    H2 2812   1.509   0.680   0.002 -0.7514  0.9030 -2.1670
  936TIP3   OH2 2813   3.786   5.981   4.079 -0.4761 -0.1169 -0.0226
  936TIP3    H1 2814   3.823   5.939   4.002  1.3163  0.3499  0.5325
  936TIP3    H2 2815   3.846   6.052   4.099 -2.9769  2.2834 -0.4503
  937TIP3   OH2 2816   2.483   5.551   3.793 -0.0964 -0.3530 -0.8714
  937TIP3    H1 2817   2.408   5.598   3.827 -1.6074 -2.5173 -0.9786
  937TIP3    H2 2818   2.479   5.564   3.698 -0.2024 -0.2479 -0.8520
  938TIP3   OH2 2819   0.168   1.042   1.042 -0.3861  0.0268 -0.5198
  938TIP3    H1 2820   0.197   0.997   1.121  0.0323  0.1042 -0.6286
  938TIP3    H2 2821   0.169   0.974   0.974 -0.1028  0.1178 -0.6053
  939TIP3   OH2 2822   4.468   5.983   2.076  0.5330  0.3592 -0.2353
  939TIP3    H1 2823   4.495   5.923   2.146 -1.0095  0.6049  0.6029
  939TIP3    H2 2824   4.537   6.050   2.074 -0.4359  1.5929  2.6102
  940TIP3   OH2 2825   6.244   1.301   0.536 -0.2694 -0.1915 -0.1159
  940TIP3    H1 2826   6.237   1.211   0.503  0.1373 -0.0744 -0.5346
  940TIP3    H2 2827   6.262   1.290   0.629 -2.8737 -0.5212  0.4391
  941TIP3   OH2 2828   0.707   0.706   2.179  0.3498 -0.1928 -0.3031
  941TIP3    H1 2829   0.790   0.660   2.187 -0.7464 -1.9396  2.4376
  941TIP3    H2 2830   0.680   0.725   2.269 -1.3875  1.9719 -1.1641
  942TIP3   OH2 2831   1.625   0.201   4.537  0.0757  1.1195  0.8414
  942TIP3    H1 2832   1.715   0.231   4.522  0.6980 -0.3164  1.4525
  942TIP3    H2 2833   1.606   0.147   4.461  0.6372 -0.4731  1.7738
  943TIP3   OH2 2834   3.688   1.967   2.017  0.4478  0.1837  0.1362
  943TIP3    H1 2835   3.688   1.884   2.066 -1.4352 -0.4422 -0.7906
  943TIP3    H2 2836   3.634   2.026   2.070 -1.4620 -0.4468 -0.9883
  944TIP3   OH2 2837   4.931   1.272   1.130  0.2857 -0.0623 -0.1716
  944TIP3    H1 2838   4.854   1.220   1.152  0.9661 -0.6995  0.7750
  944TIP3    H2 2839   4.935   1.270   1.035  0.5648 -2.1816 -0.1603
  945TIP3   OH2 2840   6.291   5.185   0.207  0.1570  0.6596 -0.4636
  945TIP3    H1 2841   6.254   5.272   0.222  0.6808  0.8934 -0.4942
  945TIP3    H2 2842   6.283   5.172   0.113  3.2150  2.1852 -1.0958
  946TIP3   OH2 2843   3.740   1.642   3.334 -0.3811 -0.7367  0.5291
  946TIP3    H1 2844   3.667   1.662   3.392 -0.1841  0.4061  0.4251
  946TIP3    H2 2845   3.699   1.619   3.250 -0.6496  0.9055  0.1649
  947TIP3   OH2 2846   2.685   3.022   1.194  0.1766 -0.0436 -0.1638
  947TIP3    H1 2847   2.705   3.018   1.287 -0.7439 -0.1454  0.0423
  947TIP3    H2 2848   2.663   3.114   1.178 -0.7443 -0.2343 -0.0353
  948TIP3   OH2 2849   2.475   5.020   1.298  0.4849  0.5789  0.6735
  948TIP3    H1 2850   2.481   4.980   1.384 -1.0236  0.1291  0.5983
  948TIP3    H2 2851   2.405   5.085   1.306 -0.2129  0.0074 -0.3760
  949TIP3   OH2 2852   1.988   2.529   2.091  0.5449 -0.3688 -0.1617
  949TIP3    H1 2853   2.059   2.580   2.052  0.9853 -1.3612 -0.7004
  949TIP3    H2 2854   2.022   2.440   2.094 -0.5358 -0.7927 -0.0628
  950TIP3   OH2 2855   4.884   3.031   1.440 -0.7588  0.1632  0.4723
  950TIP3    H1 2856   4.953   3.097   1.449  1.8773 -2.0299 -1.7524
  950TIP3    H2 2857   4.809   3.080   1.406  0.6016  2.2254  0.2333
  951TIP3   OH2 2858   0.079   2.969   3.066  0.2604 -0.1961 -0.3814
  951TIP3    H1 2859   0.134   2.948   2.990 -0.0606  0.2720 -0.7485
  951TIP3    H2 2860   0.095   2.897   3.127  1.6778  0.1779 -0.2624
  952TIP3   OH2 2861   6.355   3.479   3.711  0.5718  0.2101  0.0524
  952TIP3    H1 2862   6.266   3.502   3.736  0.9073  1.7203 -0.0853
  952TIP3    H2 2863   6.367   3.519   3.625  0.6660 -1.8576 -0.9748
  953TIP3   OH2 2864   2.569   0.285   2.465  0.0887  0.1200 -0.0444
  953TIP3    H1 2865   2.647   0.341   2.473  0.4513 -0.3528 -0.2199
  953TIP3    H2 2866   2.503   0.329   2.519  0.4451  0.5762  0.0349
  954TIP3   OH2 2867   5.538   5.966   0.561  0.3203 -0.1501 -0.7410
  954TIP3    H1 2868   5.603   5.975   0.631  0.3305 -0.6033 -0.6895
  954TIP3    H2 2869   5.559   5.882   0.520 -0.7406 -0.7009 -0.1889
  955TIP3   OH2 2870   2.726   2.062   1.095  0.1703  0.2480  0.1700
  955TIP3    H1 2871   2.741   2.056   1.189  0.2924  2.4119  0.3427
  955TIP3    H2 2872   2.782   2.135   1.067 -2.2255  1.7643 -1.0011
  956TIP3   OH2 2873   3.469   0.908   0.933  0.1987  0.0462 -0.2515
  956TIP3    H1 2874   3.474   0.910   0.837  1.5658 -0.4619 -0.2126
  956TIP3    H2 2875   3.436   0.995   0.957  1.5534  0.8326 -1.1051
  957TIP3   OH2 2876   4.169   3.512   1.394  0.5022 -0.0832 -0.5392
  957TIP3    H1 2877   4.221   3.557   1.327  1.4042 -2.0781 -1.2519
  957TIP3    H2 2878   4.096   3.473   1.345 -0.5541  0.9644  0.1448
  958TIP3   OH2 2879   3.606   2.578   5.085 -0.5506 -0.4346  0.1846
  958TIP3    H1 2880   3.603   2.672   5.106 -0.7569 -0.1463 -1.0214
  958TIP3    H2 2881   3.555   2.571   5.004 -0.1721 -1.5237  0.0337
  959TIP3   OH2 2882   1.199   3.713   0.652 -0.2006 -0.4254  0.2866
  959TIP3    H1 2883   1.155   3.629   0.646 -0.0230 -0.4053 -1.9195
  959TIP3    H2 2884   1.131   3.778   0.636 -0.3776 -0.0868  2.1595
  960TIP3   OH2 2885   3.652   4.093   5.009  0.3099 -0.3751 -0.6478
  960TIP3    H1 2886   3.668   4.045   4.928  0.1413 -1.0448 -0.2921
  960TIP3    H2 2887   3.708   4.171   5.002 -1.0807  0.5507 -2.2193
  961TIP3   OH2 2888   1.670   2.663   4.806 -0.9592 -0.0323  0.3339
  961TIP3    H1 2889   1.700   2.585   4.853 -0.6054 -0.5607 -0.7373
  961TIP3    H2 2890   1.680   2.735   4.869  0.2365 -0.5904  0.8072
  962TIP3   OH2 2891   3.495   0.273   3.400  0.3225 -0.3177  0.3046
  962TIP3    H1 2892   3.437   0.259   3.325  2.4172 -2.2448 -1.0884
  962TIP3    H2 2893   3.570   0.319   3.364  0.6307  0.2477  1.6084
  963TIP3   OH2 2894   4.323   2.071   0.195 -0.6161 -0.0853 -0.3981
  963TIP3    H1 2895   4.270   2.148   0.174 -1.6957 -0.9817 -1.0827
  963TIP3    H2 2896   4.354   2.040   0.111  0.1008 -0.2072 -0.0919
  964TIP3   OH2 2897   4.652   4.573   1.061  0.0957 -0.4931 -0.1145
  964TIP3    H1 2898   4.718   4.593   1.127  0.6547 -0.9455 -0.5339
  964TIP3    H2 2899   4.616   4.659   1.037 -0.1351 -0.3240  0.7906
  965TIP3   OH2 2900   5.197   4.957   1.807  0.5103 -0.0137  0.4423
  965TIP3    H1 2901   5.114   4.946   1.761  1.1636 -0.9540 -0.5425
  965TIP3    H2 2902   5.261   4.977   1.738  1.0681  0.9599  1.2085
  966TIP3   OH2 2903   6.149   2.291   4.803  0.2569 -0.3654 -0.1259
  966TIP3    H1 2904   6.205   2.320   4.875  2.1970 -0.9592 -1.3149
  966TIP3    H2 2905   6.093   2.224   4.841  0.4102  0.1796  1.0901
  967TIP3   OH2 2906   3.726   5.447   3.296 -0.1515  0.4396  0.0231
  967TIP3    H1 2907   3.672   5.518   3.332  2.3473  1.9422  1.0494
  967TIP3    H2 2908   3.744   5.391   3.371 -1.2588 -0.7740 -0.5818
  968TIP3   OH2 2909   5.526   3.883   2.410  0.4660  0.2395  0.6016
  968TIP3    H1 2910   5.451   3.829   2.433  0.0930  0.0541 -0.9231
  968TIP3    H2 2911   5.585   3.877   2.485 -1.2568  0.8175  2.0651
  969TIP3   OH2 2912   3.880   0.924   0.882  0.3451  0.3970  0.0705
  969TIP3    H1 2913   3.824   1.000   0.867 -0.5215 -0.0625  0.9028
  969TIP3    H2 2914   3.874   0.874   0.800  1.5102  1.5744 -0.7562
  970TIP3   OH2 2915   4.848   5.432   1.253  0.4645 -0.1901  0.0358
  970TIP3    H1 2916   4.785   5.469   1.192 -1.0066 -1.8251  0.4613
  970TIP3    H2 2917   4.928   5.420   1.202 -0.4483 -0.6765 -1.3098
  971TIP3   OH2 2918   0.059   2.085   4.924 -0.7650  0.0791 -0.2966
  971TIP3    H1 2919   0.128   2.113   4.864  0.1272 -2.2262 -0.4731
  971TIP3    H2 2920   0.058   2.152   4.993  0.8020  0.8234 -0.9386
  972TIP3   OH2 2921   1.086   3.892   0.871 -0.3611 -0.1114 -0.1226
  972TIP3    H1 2922   1.012   3.951   0.885  0.6271  1.4638 -1.1742
  972TIP3    H2 2923   1.049   3.817   0.825 -1.1439  1.2099 -1.7785
  973TIP3   OH2 2924   5.246   1.569   2.649  0.3722 -0.0728  0.2148
  973TIP3    H1 2925   5.238   1.565   2.554  0.4456 -0.4885  0.2235
  973TIP3    H2 2926   5.210   1.655   2.672 -1.7023 -0.8092  0.0143
  974TIP3   OH2 2927   2.572   2.158   4.911  0.4090 -0.1145  0.0707
  974TIP3    H1 2928   2.492   2.190   4.953  0.6767  0.0254  0.4739
  974TIP3    H2 2929   2.642   2.212   4.948  0.7948 -0.7873  0.3286
  975TIP3   OH2 2930   4.051   2.204   0.945 -0.0957  0.0121  0.3758
  975TIP3    H1 2931   3.973   2.153   0.968 -0.4617  0.8523  1.0317
  975TIP3    H2 2932   4.017   2.292   0.926  0.5632  0.0975 -0.4351
  976TIP3   OH2 2933   1.468   2.321   3.533 -0.1643 -0.1359 -0.0498
  976TIP3    H1 2934   1.543   2.376   3.511 -0.2061  0.2516  0.7353
  976TIP3    H2 2935   1.505   2.235   3.552  0.0352 -0.0607 -0.1012
  977TIP3   OH2 2936   0.395   3.109   2.278 -0.3017  0.4155 -0.4523
  977TIP3    H1 2937   0.448   3.176   2.234  1.5733 -1.6734 -1.5570
  977TIP3    H2 2938   0.455   3.065   2.337 -2.0650  1.1204  2.0348
  978TIP3   OH2 2939   0.246   0.228   3.772 -0.3560 -0.1004  0.6160
  978TIP3    H1 2940   0.263   0.195   3.684  1.2316 -1.9696  1.5443
  978TIP3    H2 2941   0.153   0.252   3.771 -0.6011 -0.9511 -1.2972
  979TIP3   OH2 2942   4.575   1.306   1.368 -0.6244  0.2613  0.1693
  979TIP3    H1 2943   4.640   1.310   1.438 -1.2437  1.0669  0.7187
  979TIP3    H2 2944   4.491   1.302   1.414 -0.9782 -0.7924 -0.5273
  980TIP3   OH2 2945   2.369   2.913   4.423 -0.6687 -0.0500 -0.0031
  980TIP3    H1 2946   2.370   2.901   4.328  0.5000  1.6110 -0.2392
  980TIP3    H2 2947   2.372   2.824   4.458  1.7952 -0.6905 -1.5537
  981TIP3   OH2 2948   5.787   0.546   0.904  0.3168 -0.2257 -0.1905
  981TIP3    H1 2949   5.724   0.555   0.832  0.6992 -2.7179 -0.9332
  981TIP3    H2 2950   5.734   0.527   0.981  0.0759 -1.0283 -0.5489
  982TIP3   OH2 2951   1.396   0.621   3.126  0.6237 -0.3382 -0.3458
  982TIP3    H1 2952   1.375   0.530   3.106 -0.9650 -0.0144 -0.2600
  982TIP3    H2 2953   1.460   0.646   3.059 -0.7012 -0.8213 -1.8432
  983TIP3   OH2 2954   2.590   0.303   0.085 -0.4772 -0.0280 -0.0353
  983TIP3    H1 2955   2.564   0.211   0.083  2.3609 -0.9187 -0.1769
  983TIP3    H2 2956   2.524   0.345   0.139 -1.6200 -2.2211  0.4103
  984TIP3   OH2 2957   1.533   0.876   4.666  0.5859  0.4838 -0.3436
  984TIP3    H1 2958   1.508   0.861   4.758 -1.2861  0.0026 -0.8891
  984TIP3    H2 2959   1.558   0.789   4.634  0.4226  0.4921 -0.4981
  985TIP3   OH2 2960   2.229   3.167   3.529  0.6956 -0.2480  0.3152
  985TIP3    H1 2961   2.313   3.192   3.567 -0.2235  2.1629  0.9595
  985TIP3    H2 2962   2.219   3.225   3.453 -0.0076 -1.1310 -0.2923
  986TIP3   OH2 2963   0.702   1.108   1.867 -0.0410 -0.6248 -0.3681
  986TIP3    H1 2964   0.618   1.113   1.913  0.4656  0.6585  0.4636
  986TIP3    H2 2965   0.725   1.015   1.868 -0.6759 -0.7841  0.8070
  987TIP3   OH2 2966   2.541   1.213   3.214  0.3527 -0.0192  0.6793
  987TIP3    H1 2967   2.627   1.256   3.216 -0.1591  1.0190  1.8015
  987TIP3    H2 2968   2.561   1.121   3.201  1.4878  0.5414 -2.4262
  988TIP3   OH2 2969   4.502   5.583   2.730 -0.1824 -0.2865 -0.1515
  988TIP3    H1 2970   4.547   5.572   2.646  1.2395  0.7521  0.4341
  988TIP3    H2 2971   4.563   5.546   2.794  0.3482  2.0324  0.7683
  989TIP3   OH2 2972   4.795   3.900   0.918 -0.3332  0.0531  0.4220
  989TIP3    H1 2973   4.787   3.810   0.888 -0.6397 -0.0165  0.7185
  989TIP3    H2 2974   4.850   3.895   0.996  2.9506  0.5344 -1.6684
  990TIP3   OH2 2975   6.305   2.465   4.125  0.0221 -0.3413  0.0922
  990TIP3    H1 2976   6.353   2.511   4.194  0.0851  2.2305 -1.5258
  990TIP3    H2 2977   6.219   2.508   4.122  0.1413 -0.1397 -1.6053
  991TIP3   OH2 2978   0.433   0.296   2.371  0.1066 -0.9146 -0.2252
  991TIP3    H1 2979   0.424   0.347   2.452  0.2194 -0.1514 -0.6787
  991TIP3    H2 2980   0.363   0.330   2.315  2.2171  1.1868 -1.7885
  992TIP3   OH2 2981   3.589   1.849   4.043 -0.5750 -0.0879  0.3412
  992TIP3    H1 2982   3.494   1.859   4.040 -0.6237 -0.1139  1.3529
  992TIP3    H2 2983   3.621   1.894   3.965 -1.4733 -0.8612 -0.4929
  993TIP3   OH2 2984   0.366   1.072   3.111 -0.7271 -0.0601 -0.0528
  993TIP3    H1 2985   0.451   1.089   3.151 -1.0062  1.1153  0.0769
  993TIP3    H2 2986   0.348   0.980   3.130  0.5058 -0.3231 -0.0728
  994TIP3   OH2 2987   0.047   2.731   3.729  0.0544  0.0375  0.1190
  994TIP3    H1 2988   0.118   2.678   3.693  0.1072  0.5369 -0.5260
  994TIP3    H2 2989  -0.032   2.699   3.686 -0.0077  0.0131  0.2491
  995TIP3   OH2 2990   4.334   0.628   5.119  0.4448  0.9248  0.6841
  995TIP3    H1 2991   4.429   0.642   5.124  0.8644  0.2233 -2.8316
  995TIP3    H2 2992   4.322   0.575   5.040 -2.6637 -1.8758  2.7887
  996TIP3   OH2 2993   3.600   4.944   5.022  0.0101 -0.4011  0.0849
  996TIP3    H1 2994   3.547   4.913   4.949 -0.2801 -0.0841  0.1554
  996TIP3    H2 2995   3.680   4.892   5.018 -0.4485 -1.1213  0.1809
  997TIP3   OH2 2996   3.594   4.172   1.381  0.3513  0.4446  0.2448
  997TIP3    H1 2997   3.685   4.169   1.410 -0.0344  0.0860  1.4760
  997TIP3    H2 2998   3.598   4.200   1.290  1.7203  0.0162  0.1627
  998TIP3   OH2 2999   4.128   1.661   2.715  0.1966  0.3106  0.0457
  998TIP3    H1 3000   4.221   1.651   2.694  0.4008  1.0373  0.5732
  998TIP3    H2 3001   4.086   1.586   2.673  1.0136 -0.0009 -0.2366
  999TIP3   OH2 3002   5.719   5.021   5.147 -0.0108  0.5253 -0.1945
  999TIP3    H1 3003   5.744   4.970   5.070  0.9251  1.7000 -0.7051
  999TIP3    H2 3004   5.790   5.007   5.209 -0.9415 -0.7166  0.6437
 1000TIP3   OH2 3005   2.460   2.133   1.034 -0.3875 -0.2083  0.1744
 1000TIP3    H1 3006   2.413   2.209   1.001  0.2418  0.7560  1.4169
 1000TIP3    H2 3007   2.552   2.152   1.016 -0.1439 -0.2324  1.3218
 1001TIP3   OH2 3008   5.051   4.126   3.281  0.0038 -0.4418 -0.9110
 1001TIP3    H1 3009   5.135   4.122   3.236 -0.0662  0.5878 -1.1469
 1001TIP3    H2 3010   5.066   4.081   3.364  0.8913  0.0826 -0.7799
 1002TIP3   OH2 3011   2.087   1.203   0.863  0.7660  0.2830 -0.3649
 1002TIP3    H1 3012   2.030   1.173   0.792  0.1023 -0.7982  0.5775
 1002TIP3    H2 3013   2.095   1.127   0.921  0.6151  1.3579  1.1280
 1003TIP3   OH2 3014   5.180   5.216   2.011 -0.7847 -0.3229 -0.2265
 1003TIP3    H1 3015   5.198   5.178   1.925 -0.1704  0.5535 -0.4923
 1003TIP3    H2 3016   5.124   5.292   1.993 -0.8195 -0.2514  0.1686
 1004TIP3   OH2 3017   6.303   0.291   2.573  0.2198  0.0810  0.0756
 1004TIP3    H1 3018   6.225   0.239   2.555  0.3731  0.4112 -1.7520
 1004TIP3    H2 3019   6.273   0.381   2.575  0.7889  0.4655 -3.0440
 1005TIP3   OH2 3020   2.686   2.188   1.678 -0.3222  0.0630 -0.0214
 1005TIP3    H1 3021   2.686   2.282   1.659  0.7510 -0.4165 -2.7085
 1005TIP3    H2 3022   2.760   2.176   1.738  0.4913  0.7447 -0.8553
 1006TIP3   OH2 3023   3.450   5.527   0.734 -0.1089 -0.4042  0.5907
 1006TIP3    H1 3024   3.514   5.531   0.805  0.2517 -0.4475  0.2707
 1006TIP3    H2 3025   3.418   5.437   0.734  0.3405 -0.5666  0.3080
 1007TIP3   OH2 3026   2.932   1.418   2.609  0.6586  0.3380 -0.3062
 1007TIP3    H1 3027   2.842   1.433   2.636  0.6542 -0.9406  0.4430
 1007TIP3    H2 3028   2.926   1.398   2.515  0.2360  0.8186 -0.3837
 1008TIP3   OH2 3029   1.348   4.731   0.985  0.7062 -0.0924 -0.0991
 1008TIP3    H1 3030   1.437   4.709   1.014  0.8933  0.0266 -0.5717
 1008TIP3    H2 3031   1.319   4.655   0.935  0.2738 -0.4161  0.6301
 1009TIP3   OH2 3032   1.993   0.186   3.874 -0.0721  0.3336  0.0203
 1009TIP3    H1 3033   1.916   0.226   3.916  0.0581 -0.2794  0.8641
 1009TIP3    H2 3034   2.018   0.249   3.806 -0.2634  1.3728  0.8821
 1010TIP3   OH2 3035   4.994   5.315   3.619  0.4404  0.1803 -0.0926
 1010TIP3    H1 3036   5.055   5.385   3.642 -0.1263  0.9117 -0.7355
 1010TIP3    H2 3037   4.957   5.342   3.535  1.3508 -1.6704 -1.1548
 1011TIP3   OH2 3038   2.170   5.911   3.077 -0.7308 -0.3929 -0.1235
 1011TIP3    H1 3039   2.184   5.965   3.000  2.9144 -0.1750  0.5432
 1011TIP3    H2 3040   2.192   5.822   3.050  2.1854 -0.0839  0.9382
 1012TIP3   OH2 3041   6.389   4.938   3.073 -0.1464  0.2677  0.0280
 1012TIP3    H1 3042   6.336   4.965   2.998 -0.9722  1.6851  1.0568
 1012TIP3    H2 3043   6.324   4.919   3.142  0.6308  0.4248  0.8164
 1013TIP3   OH2 3044   4.918   0.367   2.402  0.8230  0.0529  0.4643
 1013TIP3    H1 3045   4.916   0.333   2.492 -0.1340 -2.2965 -0.3562
 1013TIP3    H2 3046   4.906   0.461   2.412  0.5161 -0.1676  2.7961
 1014TIP3   OH2 3047   5.064   4.564   4.425  0.0497 -0.0709  0.3130
 1014TIP3    H1 3048   5.060   4.649   4.469  3.0966  0.1017  0.4907
 1014TIP3    H2 3049   5.104   4.583   4.339 -0.2659 -1.1758 -0.1047
 1015TIP3   OH2 3050   1.086   0.546   3.980 -0.0443  0.4226  0.2536
 1015TIP3    H1 3051   1.109   0.636   4.004 -1.7259  0.5715  1.4990
 1015TIP3    H2 3052   1.016   0.522   4.041  1.4912 -2.3648  1.1047
 1016TIP3   OH2 3053   3.655   2.967   0.452 -0.4237  0.4409  0.1411
 1016TIP3    H1 3054   3.619   2.879   0.442  0.4294  0.0547  0.3991
 1016TIP3    H2 3055   3.666   2.999   0.363 -0.3285  0.1187  0.0374
 1017TIP3   OH2 3056   6.174   5.075   0.657  0.3281  0.2396 -0.1146
 1017TIP3    H1 3057   6.224   4.998   0.629  0.3781 -0.0859  0.8544
 1017TIP3    H2 3058   6.083   5.054   0.633  0.3760 -0.0159 -0.0761
 1018TIP3   OH2 3059   0.829   3.942   0.968  0.0548 -0.0834 -0.4295
 1018TIP3    H1 3060   0.797   3.984   1.048  2.5469  1.9718 -0.3694
 1018TIP3    H2 3061   0.769   3.971   0.900 -0.3070  0.7330  0.2173
 1019TIP3   OH2 3062   4.267   0.440   4.460 -0.1429  0.0578  0.2920
 1019TIP3    H1 3063   4.236   0.480   4.378 -0.8933  0.1055  0.5873
 1019TIP3    H2 3064   4.361   0.458   4.462 -0.3136  1.0470 -0.0116
 1020TIP3   OH2 3065   1.806   5.442   0.305 -0.9864  0.9922  0.5393
 1020TIP3    H1 3066   1.744   5.387   0.354 -0.5669  0.4889  0.5179
 1020TIP3    H2 3067   1.869   5.471   0.370 -0.4923  0.4139  0.3239
 1021TIP3   OH2 3068   2.601   1.868   1.864  0.4270 -0.9904  0.1417
 1021TIP3    H1 3069   2.688   1.848   1.831  0.9570  1.1002  0.1704
 1021TIP3    H2 3070   2.550   1.893   1.787  0.8138  0.9531  0.4668
 1022TIP3   OH2 3071   4.412   3.611   2.716 -0.2434 -0.0502  0.0022
 1022TIP3    H1 3072   4.343   3.668   2.682 -0.7972 -0.9431 -0.3966
 1022TIP3    H2 3073   4.396   3.608   2.810  0.3649  1.1853  0.1804
 1023TIP3   OH2 3074   2.220   5.579   2.613 -0.0917  0.2520 -0.9358
 1023TIP3    H1 3075   2.157   5.601   2.544  0.4274  0.0026 -1.4963
 1023TIP3    H2 3076   2.304   5.610   2.579  0.1367  0.3170 -0.3175
 1024TIP3   OH2 3077   3.283   3.210   4.755  0.5524 -0.2185  0.2996
 1024TIP3    H1 3078   3.215   3.166   4.806  1.1615 -0.4531  0.9252
 1024TIP3    H2 3079   3.269   3.303   4.773  2.2006 -0.3564  2.8700
 1025TIP3   OH2 3080   0.395   3.535   5.118 -0.6038  0.0871 -0.5084
 1025TIP3    H1 3081   0.350   3.526   5.202 -0.1064  1.9150 -0.0107
 1025TIP3    H2 3082   0.445   3.454   5.109  0.4675  0.4374  1.6747
 1026TIP3   OH2 3083   4.337   3.726   3.823  0.6589  0.0738 -0.3933
 1026TIP3    H1 3084   4.261   3.782   3.832 -0.4098 -1.3869  0.0227
 1026TIP3    H2 3085   4.369   3.713   3.913 -0.2715 -1.4907 -0.2488
 1027TIP3   OH2 3086   3.877   5.147   3.368 -0.5331 -0.0672 -0.2863
 1027TIP3    H1 3087   3.918   5.116   3.449 -0.1690 -1.2865 -0.9157
 1027TIP3    H2 3088   3.811   5.210   3.397 -0.5686 -0.6564  0.9709
 1028TIP3   OH2 3089   4.884   1.641   0.497  0.2280  0.2277  0.3466
 1028TIP3    H1 3090   4.875   1.634   0.592 -0.1259 -0.4014  0.2761
 1028TIP3    H2 3091   4.874   1.551   0.465 -1.7409  0.6642 -0.4529
 1029TIP3   OH2 3092   4.176   0.096   4.176  0.2035 -0.2053  0.2018
 1029TIP3    H1 3093   4.236   0.082   4.103  0.0445  1.7313 -0.3725
 1029TIP3    H2 3094   4.089   0.084   4.138  0.1357  0.3621  0.1622
 1030TIP3   OH2 3095   3.172   1.455   0.141 -0.3298  0.3197  0.3087
 1030TIP3    H1 3096   3.148   1.506   0.064  0.2058 -0.1583 -0.1804
 1030TIP3    H2 3097   3.108   1.481   0.208  0.2098  1.9949  0.2256
 1031TIP3   OH2 3098   4.461   1.618   3.758 -0.0994  0.3536  0.9469
 1031TIP3    H1 3099   4.404   1.694   3.769 -2.0756 -1.2102  2.0753
 1031TIP3    H2 3100   4.419   1.565   3.691  0.0737 -0.7754  1.7142
 1032TIP3   OH2 3101   2.659   1.871   0.796 -0.0505  0.5550 -0.0749
 1032TIP3    H1 3102   2.568   1.883   0.824 -0.0328  0.0309  0.2259
 1032TIP3    H2 3103   2.670   1.776   0.794  0.3405  0.6085 -0.6010
 1033TIP3   OH2 3104   1.531   5.614   0.961  0.5523 -0.1066  0.6732
 1033TIP3    H1 3105   1.461   5.654   1.012 -0.3872 -0.5483 -0.2254
 1033TIP3    H2 3106   1.601   5.598   1.024  0.9143  2.7365  1.1149
 1034TIP3   OH2 3107   4.490   5.344   4.056  0.9694 -0.6770  0.1408
 1034TIP3    H1 3108   4.551   5.396   4.109  0.3947 -1.6578  1.8553
 1034TIP3    H2 3109   4.531   5.258   4.051  1.1098 -0.5516 -1.2484
 1035TIP3   OH2 3110   3.639   0.749   4.465 -0.1727 -0.0933 -0.1494
 1035TIP3    H1 3111   3.562   0.795   4.433  0.1910 -0.0101 -0.9187
 1035TIP3    H2 3112   3.671   0.699   4.390  1.8191  1.6126 -0.5404
 1036TIP3   OH2 3113   2.125   3.415   0.289 -0.4094 -0.5941 -0.3225
 1036TIP3    H1 3114   2.059   3.485   0.297  0.4819  0.1613  0.6775
 1036TIP3    H2 3115   2.083   3.349   0.234 -1.4604  0.5140 -0.9016
 1037TIP3   OH2 3116  -0.011   3.488   4.784 -0.0600 -0.2098  0.4019
 1037TIP3    H1 3117  -0.050   3.510   4.868  1.6898  4.4504  0.2616
 1037TIP3    H2 3118   0.074   3.533   4.783 -0.1759  0.3913 -3.9885
 1038TIP3   OH2 3119   5.763   1.630   1.865  0.0544  0.0651  0.1284
 1038TIP3    H1 3120   5.760   1.682   1.945  0.8200  2.2646 -1.1613
 1038TIP3    H2 3121   5.678   1.645   1.823 -0.1130 -0.5739  0.2346
 1039TIP3   OH2 3122   2.509   5.208   2.181 -0.4006  0.3707 -0.3706
 1039TIP3    H1 3123   2.433   5.246   2.224  0.7612 -0.0754  2.3423
 1039TIP3    H2 3124   2.562   5.283   2.154  0.5002  0.8406  2.3340
 1040TIP3   OH2 3125   1.862   3.836   1.205  0.4427 -0.0887 -0.1780
 1040TIP3    H1 3126   1.800   3.805   1.139  0.6077 -0.0742 -0.3424
 1040TIP3    H2 3127   1.859   3.771   1.275  0.1654 -0.0325 -0.1399
 1041TIP3   OH2 3128   5.984   0.840   3.479 -0.2129 -0.5108  0.7824
 1041TIP3    H1 3129   5.904   0.842   3.531 -1.0764 -0.1655 -0.5112
 1041TIP3    H2 3130   5.954   0.839   3.388  1.2359 -1.7972  0.2739
 1042TIP3   OH2 3131   1.243   5.367   2.112 -0.1835  0.3731 -0.7514
 1042TIP3    H1 3132   1.166   5.405   2.070 -1.0290 -0.7613 -0.2950
 1042TIP3    H2 3133   1.269   5.431   2.178 -2.0348 -0.1142  0.5273
 1043TIP3   OH2 3134   5.766   2.045   4.098 -0.2436 -0.7129 -0.5922
 1043TIP3    H1 3135   5.724   2.087   4.173 -0.9655 -0.5347 -1.0818
 1043TIP3    H2 3136   5.850   2.013   4.131  1.0101  2.3163 -0.5099
 1044TIP3   OH2 3137   5.287   3.721   3.777 -0.7788  0.1949  0.2244
 1044TIP3    H1 3138   5.233   3.687   3.705 -0.0174  0.4482 -0.4863
 1044TIP3    H2 3139   5.229   3.723   3.853 -1.3400 -0.9896 -0.1534
 1045TIP3   OH2 3140   4.153   1.700   1.148 -0.2459  0.1190 -0.8925
 1045TIP3    H1 3141   4.136   1.773   1.089  2.6760  0.1914 -1.8108
 1045TIP3    H2 3142   4.217   1.645   1.101  0.2268 -1.1971  1.1474
 1046TIP3   OH2 3143   0.215   1.175   2.457 -0.4960  0.0282  0.2734
 1046TIP3    H1 3144   0.248   1.177   2.368 -0.5482 -1.6392  0.1828
 1046TIP3    H2 3145   0.293   1.166   2.512 -0.5917 -1.2204  0.2302
 1047TIP3   OH2 3146   0.629   4.210   3.550 -0.0785  0.7869 -0.4797
 1047TIP3    H1 3147   0.607   4.297   3.515 -0.0317  1.1009  0.2534
 1047TIP3    H2 3148   0.557   4.190   3.610 -0.5410 -0.0752 -1.3003
 1048TIP3   OH2 3149   1.109   5.811   0.673  0.6475  0.0730  0.2063
 1048TIP3    H1 3150   1.069   5.839   0.756  1.2744 -0.4486  0.6969
 1048TIP3    H2 3151   1.203   5.808   0.691  0.8947  0.9062 -0.8231
 1049TIP3   OH2 3152   1.577   2.771   1.427  0.1562 -0.1157 -0.4337
 1049TIP3    H1 3153   1.668   2.800   1.416  0.1516 -0.0198 -0.2209
 1049TIP3    H2 3154   1.568   2.698   1.365  0.1614  0.3455 -0.9844
 1050TIP3   OH2 3155   4.770   2.393   3.368  0.6589 -0.3066 -0.2353
 1050TIP3    H1 3156   4.858   2.431   3.361  1.0378 -0.7764  1.5270
 1050TIP3    H2 3157   4.715   2.452   3.317  1.5677  1.4771  0.7356
 1051TIP3   OH2 3158   0.541   3.692   2.751  0.2794  0.0607  0.2185
 1051TIP3    H1 3159   0.576   3.778   2.773  0.1947 -0.1068  1.0256
 1051TIP3    H2 3160   0.469   3.678   2.813  0.8401 -0.9491  0.6642
 1052TIP3   OH2 3161   4.536   5.857   2.315 -0.4785 -0.6020 -0.3033
 1052TIP3    H1 3162   4.607   5.859   2.379  0.1168  0.9037 -0.9876
 1052TIP3    H2 3163   4.476   5.925   2.344 -1.3973 -1.4863 -0.0522
 1053TIP3   OH2 3164   5.401   0.682   2.079 -0.1596  0.3237  0.1097
 1053TIP3    H1 3165   5.429   0.707   2.167 -0.8325 -1.9223  1.0289
 1053TIP3    H2 3166   5.313   0.646   2.091  0.4551 -1.7791 -1.1368
 1054TIP3   OH2 3167   0.477   4.659   0.011  0.0485 -0.1261 -0.4435
 1054TIP3    H1 3168   0.436   4.737  -0.027  0.3085  0.3505  0.2456
 1054TIP3    H2 3169   0.436   4.650   0.097  2.0819  0.9542  0.7044
 1055TIP3   OH2 3170   6.123   3.092   0.468  0.0873 -0.1389 -0.6863
 1055TIP3    H1 3171   6.190   3.039   0.424  0.9614  1.0925 -0.8913
 1055TIP3    H2 3172   6.091   3.151   0.400 -1.1547 -0.6328 -0.5567
 1056TIP3   OH2 3173   3.891   4.251   0.576 -0.1875  0.0236  0.0106
 1056TIP3    H1 3174   3.863   4.338   0.607 -1.1625  0.0250 -0.8363
 1056TIP3    H2 3175   3.945   4.269   0.499 -0.4753 -0.1247 -0.2265
 1057TIP3   OH2 3176   3.805   0.863   2.712 -0.3904 -0.0347  1.0482
 1057TIP3    H1 3177   3.894   0.857   2.678 -0.4969 -0.5871  0.8697
 1057TIP3    H2 3178   3.749   0.841   2.638 -0.7391  1.5060  0.8057
 1058TIP3   OH2 3179   3.202   2.915   3.579  0.0531  0.4010 -0.4522
 1058TIP3    H1 3180   3.257   2.968   3.638 -1.2607  1.2408  0.0620
 1058TIP3    H2 3181   3.216   2.952   3.493 -0.0268  0.8820 -0.2595
 1059TIP3   OH2 3182   0.313   1.647   0.601 -0.4119 -0.5530  0.1929
 1059TIP3    H1 3183   0.231   1.626   0.557 -0.0364 -0.0051 -0.8252
 1059TIP3    H2 3184   0.345   1.564   0.634 -1.0282 -0.8835 -0.0227
 1060TIP3   OH2 3185   1.446   3.889   3.212  0.5651 -0.2565  0.4335
 1060TIP3    H1 3186   1.438   3.979   3.243 -0.2621  0.4012 -1.5172
 1060TIP3    H2 3187   1.503   3.895   3.135  1.7532 -1.6574  1.1566
 1061TIP3   OH2 3188   5.485   2.965   0.837 -0.6585  0.5893 -0.2382
 1061TIP3    H1 3189   5.521   3.014   0.763 -0.3585  2.1337  0.8851
 1061TIP3    H2 3190   5.518   3.010   0.914  1.4517 -2.6720  0.9788
 1062TIP3   OH2 3191   2.095   1.880   3.627 -0.3008 -0.3739  0.0877
 1062TIP3    H1 3192   2.125   1.791   3.609  1.5889  0.4970 -1.4638
 1062TIP3    H2 3193   2.115   1.895   3.720  1.3424 -0.8769 -0.1622
 1063TIP3   OH2 3194   0.524   3.141   4.202  0.4734 -0.2415  0.1999
 1063TIP3    H1 3195   0.475   3.136   4.120 -0.9051  1.6930  0.8259
 1063TIP3    H2 3196   0.588   3.211   4.187  0.1293  0.2083  0.7947
 1064TIP3   OH2 3197   2.776   2.971   4.353  0.4912  0.0346  0.5144
 1064TIP3    H1 3198   2.750   2.934   4.437  0.7412  0.9306  0.9904
 1064TIP3    H2 3199   2.773   3.065   4.365  1.7174  0.1759 -0.1054
 1065TIP3   OH2 3200   6.374   1.474   1.434  0.6733 -0.6582  0.5397
 1065TIP3    H1 3201   6.291   1.473   1.385  0.0095 -1.3552  1.6183
 1065TIP3    H2 3202   6.396   1.382   1.444  0.3688 -0.5830  2.1988
 1066TIP3   OH2 3203   1.754   0.465   1.427 -0.6017  0.4760  0.4083
 1066TIP3    H1 3204   1.678   0.414   1.455 -0.3565 -1.1755 -1.7001
 1066TIP3    H2 3205   1.720   0.553   1.412 -1.7093  0.1858  1.1249
 1067TIP3   OH2 3206   0.946   3.632   0.368 -0.0605  0.1505  0.6566
 1067TIP3    H1 3207   0.912   3.694   0.303 -0.1203 -1.3754 -0.8463
 1067TIP3    H2 3208   0.970   3.686   0.443 -2.5407  1.6831  0.4412
 1068TIP3   OH2 3209   0.243   3.772   1.604 -0.3260  0.5708 -0.4402
 1068TIP3    H1 3210   0.269   3.688   1.566 -1.1932 -0.4233  1.0531
 1068TIP3    H2 3211   0.322   3.804   1.648 -0.3519 -0.1683  0.1647
 1069TIP3   OH2 3212   4.484   2.606   3.240 -0.1147 -0.7271  0.0553
 1069TIP3    H1 3213   4.447   2.582   3.325 -0.1989 -0.8615 -0.0186
 1069TIP3    H2 3214   4.506   2.522   3.199 -2.0822 -0.8009 -0.9643
 1070TIP3   OH2 3215   2.143   0.911   5.007 -0.0148  0.5345  0.3998
 1070TIP3    H1 3216   2.090   0.909   4.928 -1.0395  1.8281  1.0138
 1070TIP3    H2 3217   2.232   0.895   4.977 -0.5354 -0.1265 -0.8552
 1071TIP3   OH2 3218   0.961   4.969   2.278 -0.3709 -0.0824 -0.5003
 1071TIP3    H1 3219   1.032   4.971   2.342 -1.4224  1.1104  0.6821
 1071TIP3    H2 3220   0.907   4.895   2.305  0.0637 -0.6193 -1.0485
 1072TIP3   OH2 3221   5.947   3.324   3.210 -0.3855  0.1802  0.5148
 1072TIP3    H1 3222   5.983   3.249   3.258  0.9805  0.8112  0.5157
 1072TIP3    H2 3223   5.871   3.351   3.262 -1.1032 -1.3806  0.3470
 1073TIP3   OH2 3224   3.759   0.361   3.301  0.6291  1.2285 -0.9076
 1073TIP3    H1 3225   3.749   0.410   3.220 -1.1161  2.3207 -0.1002
 1073TIP3    H2 3226   3.763   0.270   3.274  0.4519  1.5951 -2.2431
 1074TIP3   OH2 3227   1.255   0.995   0.233  0.7957  0.4390 -0.6257
 1074TIP3    H1 3228   1.169   1.025   0.265  0.1886 -2.7738  1.1947
 1074TIP3    H2 3229   1.317   1.058   0.269 -0.5070  0.6587  1.4063
 1075TIP3   OH2 3230   2.846   4.788   3.977  0.5943  0.1422 -0.7610
 1075TIP3    H1 3231   2.822   4.803   4.068 -1.0936 -0.0862 -1.1334
 1075TIP3    H2 3232   2.941   4.776   3.978  0.4444 -1.2792  1.1636
 1076TIP3   OH2 3233   0.425   1.108   1.513 -0.6392 -0.0568 -0.3801
 1076TIP3    H1 3234   0.516   1.116   1.485 -0.7365  0.8075 -0.4700
 1076TIP3    H2 3235   0.430   1.063   1.598  0.1022  2.1440  0.8287
 1077TIP3   OH2 3236   1.969   5.784   0.438  0.2160  0.6767 -0.5501
 1077TIP3    H1 3237   2.003   5.844   0.504  0.3782 -1.5073  1.4851
 1077TIP3    H2 3238   2.025   5.798   0.361  1.8214  1.3881  0.6942
 1078TIP3   OH2 3239  -0.034   2.502   3.389  0.0198 -0.0940 -0.4982
 1078TIP3    H1 3240   0.009   2.429   3.344  1.3727 -0.3988  1.1713
 1078TIP3    H2 3241   0.028   2.527   3.457 -1.8874  0.3878  1.1477
 1079TIP3   OH2 3242   2.974   0.806   2.037 -0.3450  0.4394  0.1301
 1079TIP3    H1 3243   2.940   0.768   2.118  1.4960 -0.5426  0.5015
 1079TIP3    H2 3244   2.911   0.780   1.970 -1.7697  1.0638  1.1746
 1080TIP3   OH2 3245   0.227   0.138   3.511 -0.3752  0.0324 -0.5634
 1080TIP3    H1 3246   0.136   0.153   3.487 -0.2691  0.8813 -0.4741
 1080TIP3    H2 3247   0.276   0.153   3.430 -0.0861  2.1768 -0.0467
 1081TIP3   OH2 3248   0.534   0.325   1.116 -0.0206 -0.8444  0.1962
 1081TIP3    H1 3249   0.602   0.391   1.114 -2.3894  1.8113 -2.9017
 1081TIP3    H2 3250   0.571   0.250   1.069  0.9493  0.3819 -1.0530
 1082TIP3   OH2 3251   5.086   4.000   1.910  0.4496  0.3285 -0.0260
 1082TIP3    H1 3252   5.028   3.969   1.841  2.0915  0.0507 -1.3548
 1082TIP3    H2 3253   5.028   4.025   1.981 -1.4208  2.0814 -2.0434
 1083TIP3   OH2 3254   4.779   5.175   4.404  0.1448  0.1509  0.3003
 1083TIP3    H1 3255   4.732   5.214   4.478  0.1369 -1.3875  1.1347
 1083TIP3    H2 3256   4.866   5.216   4.407  0.8348 -1.2857  2.4155
 1084TIP3   OH2 3257   1.499   4.389   2.355 -0.3518  0.1486  0.0004
 1084TIP3    H1 3258   1.424   4.333   2.336 -0.7957  0.4353  0.8664
 1084TIP3    H2 3259   1.556   4.379   2.279 -1.2567 -0.0916 -0.6641
 1085TIP3   OH2 3260   3.978   2.905   4.989  0.1484 -0.8866  0.3410
 1085TIP3    H1 3261   4.055   2.875   4.942  1.2325  0.6967  1.0268
 1085TIP3    H2 3262   3.957   2.833   5.049  1.2850 -1.2263  0.3602
 1086TIP3   OH2 3263   5.074   5.783   2.951  0.1774  0.1764 -0.4986
 1086TIP3    H1 3264   5.096   5.709   3.008  1.3712  0.2004 -0.9103
 1086TIP3    H2 3265   5.139   5.780   2.881 -0.6911  0.7140 -1.3586
 1087TIP3   OH2 3266   4.170   1.264   1.350  0.1945 -0.4804 -0.6019
 1087TIP3    H1 3267   4.120   1.319   1.289  2.5138  0.5968 -1.6619
 1087TIP3    H2 3268   4.210   1.197   1.295  2.9474  0.9599 -0.5101
 1088TIP3   OH2 3269   1.443   1.532   0.741 -0.8117  0.0261 -0.4042
 1088TIP3    H1 3270   1.435   1.599   0.673  0.1393 -0.9458 -1.5325
 1088TIP3    H2 3271   1.532   1.544   0.776 -0.5232 -0.8092 -0.8258
 1089TIP3   OH2 3272   3.499   1.726   2.455  0.0312  0.7232 -0.1766
 1089TIP3    H1 3273   3.414   1.706   2.417 -0.5093  3.3938 -0.5655
 1089TIP3    H2 3274   3.499   1.681   2.540 -0.9660 -0.8027 -0.9340
 1090TIP3   OH2 3275   0.361   0.619   1.888 -0.1327  0.2107 -0.5274
 1090TIP3    H1 3276   0.386   0.647   1.976 -0.9549  0.3173 -0.3156
 1090TIP3    H2 3277   0.332   0.700   1.845  0.0407  0.1208 -0.8155
 1091TIP3   OH2 3278   2.790   3.220   4.473  0.1331  0.2207  0.0944
 1091TIP3    H1 3279   2.797   3.257   4.561  0.3414 -0.7892  0.5090
 1091TIP3    H2 3280   2.704   3.248   4.443  0.4428  1.3694  0.2409
 1092TIP3   OH2 3281   2.887   4.849   3.055 -0.2535  0.0762 -0.3930
 1092TIP3    H1 3282   2.796   4.852   3.028 -0.1120 -0.1459 -0.9069
 1092TIP3    H2 3283   2.892   4.776   3.117 -0.1962 -0.6846 -1.2724
 1093TIP3   OH2 3284   4.796   3.443   4.470 -0.0165 -0.4575 -0.1492
 1093TIP3    H1 3285   4.842   3.524   4.492 -0.5284 -0.3060  0.4116
 1093TIP3    H2 3286   4.818   3.426   4.379  0.5041  0.0387 -0.1215
 1094TIP3   OH2 3287   6.186   0.156   4.048  0.0683  0.2882  0.0314
 1094TIP3    H1 3288   6.277   0.170   4.074 -0.6479  1.7832  2.0122
 1094TIP3    H2 3289   6.140   0.136   4.130 -1.4039 -0.4487 -0.9223
 1095TIP3   OH2 3290   1.515   5.929   1.032 -0.4056 -0.0906  0.2481
 1095TIP3    H1 3291   1.580   5.964   1.093 -0.2664 -0.3229  0.2365
 1095TIP3    H2 3292   1.501   5.839   1.062 -1.4466  0.2558  0.8414
 1096TIP3   OH2 3293   3.287   5.192   4.095  0.4057  0.1330 -0.1371
 1096TIP3    H1 3294   3.195   5.200   4.119  0.2562  0.0544 -0.6631
 1096TIP3    H2 3295   3.292   5.229   4.007  1.1125  1.2967  0.3646
 1097TIP3   OH2 3296   1.368   4.107   0.278 -0.3988 -0.2869 -0.0294
 1097TIP3    H1 3297   1.323   4.153   0.349 -1.2024 -0.8648 -0.1499
 1097TIP3    H2 3298   1.372   4.016   0.308  2.8917  0.1116  1.0695
 1098TIP3   OH2 3299   2.970   5.885   4.630  0.4074 -0.0464  0.6254
 1098TIP3    H1 3300   3.047   5.938   4.609  0.0560  0.3550  0.3182
 1098TIP3    H2 3301   3.006   5.800   4.654  0.9180 -0.1178 -0.3082
 1099TIP3   OH2 3302   0.772   0.420   0.176 -0.2450  0.1572  0.1764
 1099TIP3    H1 3303   0.700   0.420   0.239 -1.4347 -0.0172 -1.1409
 1099TIP3    H2 3304   0.817   0.337   0.190 -0.8540 -0.1388  0.3874
 1100TIP3   OH2 3305   4.051   3.472   0.908 -0.0434 -0.0522 -0.0721
 1100TIP3    H1 3306   4.121   3.531   0.881 -0.1213  0.6748  1.2439
 1100TIP3    H2 3307   4.088   3.385   0.899  0.4212  0.2363 -1.0745
 1101TIP3   OH2 3308   0.286   5.645   1.744 -0.2701  0.4307 -0.6551
 1101TIP3    H1 3309   0.375   5.610   1.749 -1.4093 -2.6283  0.5653
 1101TIP3    H2 3310   0.250   5.632   1.832 -2.3064  0.4004 -1.4407
 1102TIP3   OH2 3311   1.482   4.694   0.701  0.2859 -0.0170  0.0268
 1102TIP3    H1 3312   1.516   4.778   0.670  1.3424 -0.4092  0.0857
 1102TIP3    H2 3313   1.532   4.676   0.781  0.2231 -0.8088 -0.1063
 1103TIP3   OH2 3314   5.769   4.682   0.890  0.0759 -0.1320  0.1186
 1103TIP3    H1 3315   5.808   4.645   0.970 -1.0058 -1.8976 -0.1179
 1103TIP3    H2 3316   5.675   4.665   0.900  0.0008 -1.0916 -1.8649
 1104TIP3   OH2 3317   5.294   4.348   4.554 -0.4145  0.3257 -0.0591
 1104TIP3    H1 3318   5.229   4.291   4.593  1.0307 -1.5850 -0.2857
 1104TIP3    H2 3319   5.293   4.325   4.461  1.6306 -0.9541  0.1647
 1105TIP3   OH2 3320   0.181   2.840   0.940 -1.0538  0.5687 -0.2718
 1105TIP3    H1 3321   0.199   2.932   0.920 -1.1521  0.3496 -1.3972
 1105TIP3    H2 3322   0.216   2.828   1.029  1.0902  1.0993 -0.9916
 1106TIP3   OH2 3323   1.223   4.226   0.065 -0.0380  0.2407 -0.5611
 1106TIP3    H1 3324   1.267   4.198  -0.015  1.7025 -0.1926  0.4840
 1106TIP3    H2 3325   1.277   4.189   0.135 -1.2589  0.9826  0.8133
 1107TIP3   OH2 3326   3.232   1.090   1.074 -0.0273  0.2903 -0.0363
 1107TIP3    H1 3327   3.186   1.166   1.037 -0.1341 -0.2707 -1.1183
 1107TIP3    H2 3328   3.305   1.128   1.123 -0.4782  1.1150  0.0180
 1108TIP3   OH2 3329   2.502   0.568   4.270  0.2288  0.4701 -0.6684
 1108TIP3    H1 3330   2.422   0.574   4.217 -1.1182 -0.8438  1.1031
 1108TIP3    H2 3331   2.573   0.573   4.206 -1.2711  0.6111 -2.4172
 1109TIP3   OH2 3332   3.353   2.133   0.835  0.1514 -0.4012 -0.0953
 1109TIP3    H1 3333   3.317   2.046   0.817  1.0804 -0.8236  0.0612
 1109TIP3    H2 3334   3.435   2.116   0.881 -0.1822  0.5874  0.8891
 1110TIP3   OH2 3335   3.820   5.431   0.611 -0.2947  0.5851  0.2859
 1110TIP3    H1 3336   3.785   5.426   0.700  0.7439 -0.5181  0.6645
 1110TIP3    H2 3337   3.913   5.410   0.621 -0.1781  0.3807 -1.0730
 1111TIP3   OH2 3338   5.161   1.158   2.108  0.3708 -0.2225  0.3721
 1111TIP3    H1 3339   5.242   1.156   2.057 -0.7553 -0.8742 -1.5475
 1111TIP3    H2 3340   5.148   1.067   2.135  0.7837  0.0639  1.5754
 1112TIP3   OH2 3341   2.052   5.055   4.764  0.1355 -0.1440 -0.2830
 1112TIP3    H1 3342   2.077   5.033   4.853 -0.5292  0.0319 -0.0453
 1112TIP3    H2 3343   1.957   5.046   4.763  0.1344 -0.1131 -0.9645
 1113TIP3   OH2 3344   5.928   3.674   4.059  0.6135 -0.3649 -0.3934
 1113TIP3    H1 3345   5.947   3.764   4.033 -0.6321  0.1009  0.2274
 1113TIP3    H2 3346   5.989   3.620   4.008  0.9888  0.7846 -1.1848
 1114TIP3   OH2 3347   6.144   1.042   0.783 -0.0300  0.2161 -0.1864
 1114TIP3    H1 3348   6.220   1.086   0.821  0.2178 -0.0839 -0.3325
 1114TIP3    H2 3349   6.070   1.070   0.838  0.2045  0.4058  0.0333
 1115TIP3   OH2 3350   1.124   0.422   0.683  0.9546 -0.1442  0.7369
 1115TIP3    H1 3351   1.213   0.396   0.709  1.4027  1.0252  0.4508
 1115TIP3    H2 3352   1.124   0.517   0.693  0.4973  0.1538 -1.5690
 1116TIP3   OH2 3353   6.107   2.705   2.289  0.4245 -0.1159  0.0172
 1116TIP3    H1 3354   6.064   2.786   2.315 -0.4644 -0.6329  0.2056
 1116TIP3    H2 3355   6.198   2.730   2.271 -0.4745  1.5546 -2.9767
 1117TIP3   OH2 3356   2.994   1.116   0.797 -0.4849 -0.2613 -0.4465
 1117TIP3    H1 3357   2.965   1.071   0.876  0.3510  0.3573  0.2301
 1117TIP3    H2 3358   2.942   1.077   0.727 -3.2474  1.0121  0.7301
 1118TIP3   OH2 3359   5.636   0.385   2.771  0.7731  0.1151  0.3552
 1118TIP3    H1 3360   5.679   0.452   2.717 -0.4048  0.3720 -0.2839
 1118TIP3    H2 3361   5.612   0.432   2.851 -1.6347  0.9954 -0.7860
 1119TIP3   OH2 3362   2.477   5.133   0.672  0.6494  0.4011 -0.4758
 1119TIP3    H1 3363   2.573   5.131   0.676  0.7290  0.3346 -1.7926
 1119TIP3    H2 3364   2.455   5.076   0.599 -0.4466 -0.1001  0.2272
 1120TIP3   OH2 3365   3.320   1.403   2.731  0.3161  0.1253 -0.0878
 1120TIP3    H1 3366   3.287   1.397   2.820 -2.3312 -0.6761 -1.0455
 1120TIP3    H2 3367   3.324   1.312   2.701 -0.3486  0.4780 -1.2849
 1121TIP3   OH2 3368   5.492   5.224   4.822 -0.4796  0.3352  0.0758
 1121TIP3    H1 3369   5.481   5.314   4.791 -0.0695  0.2436 -0.3377
 1121TIP3    H2 3370   5.532   5.177   4.748 -2.0994 -0.5585 -0.2789
 1122TIP3   OH2 3371   2.884   1.506   4.229  0.7030  0.2466 -0.1473
 1122TIP3    H1 3372   2.905   1.497   4.322  0.9389 -0.3158 -0.2488
 1122TIP3    H2 3373   2.825   1.582   4.225 -1.6653 -1.4059  0.8283
 1123TIP3   OH2 3374   4.521   1.132   3.955  0.1548  0.1260 -0.5255
 1123TIP3    H1 3375   4.523   1.049   4.002  0.1527 -0.1183 -0.9472
 1123TIP3    H2 3376   4.564   1.194   4.013  0.0601 -0.1472 -0.1624
 1124TIP3   OH2 3377   5.615   2.080   0.840 -0.3492 -0.5727  0.7625
 1124TIP3    H1 3378   5.551   2.063   0.771 -1.7664 -0.8513  2.0905
 1124TIP3    H2 3379   5.649   2.167   0.819 -0.9075 -0.5583 -0.1711
 1125TIP3   OH2 3380   6.065   1.239   5.163  0.6139 -0.1166  0.1608
 1125TIP3    H1 3381   6.003   1.199   5.224  0.5350 -1.7414 -0.9394
 1125TIP3    H2 3382   6.147   1.192   5.178  1.3082  1.1963  0.7444
 1126TIP3   OH2 3383   3.832   4.105   4.521  0.2660  0.1101 -0.6095
 1126TIP3    H1 3384   3.850   4.178   4.461  0.3850 -0.4033 -1.2084
 1126TIP3    H2 3385   3.918   4.068   4.540  0.2955  0.6289  0.3637
 1127TIP3   OH2 3386   1.667   1.560   3.876 -0.7786 -0.3256 -0.1695
 1127TIP3    H1 3387   1.709   1.486   3.920 -1.4130 -1.4517 -1.3734
 1127TIP3    H2 3388   1.659   1.532   3.785 -2.1837  0.7219 -0.3966
 1128TIP3   OH2 3389   3.857   2.945   2.141  0.4833  0.1876  0.1579
 1128TIP3    H1 3390   3.854   2.969   2.048  2.2027 -1.1172 -0.2984
 1128TIP3    H2 3391   3.908   2.863   2.142  0.5860  0.2361  2.2631
 1129TIP3   OH2 3392   2.453   0.935   2.893  0.0954 -0.4376  0.8655
 1129TIP3    H1 3393   2.444   1.023   2.857 -2.9771 -0.8650  0.2499
 1129TIP3    H2 3394   2.447   0.946   2.987  1.0237  0.1003  0.8681
 1130TIP3   OH2 3395   2.992   3.263   4.285  0.4834  0.1217  0.5175
 1130TIP3    H1 3396   2.937   3.247   4.361  1.0569 -0.5096  0.8128
 1130TIP3    H2 3397   2.941   3.232   4.211  1.4955 -3.1577  1.0418
 1131TIP3   OH2 3398   0.503   3.345   1.606  0.2617 -0.0585 -0.6456
 1131TIP3    H1 3399   0.561   3.293   1.552  0.1563 -0.3968 -0.4334
 1131TIP3    H2 3400   0.454   3.281   1.658  1.3238  0.2976  0.8534
 1132TIP3   OH2 3401   6.238   2.540   4.515 -0.1409 -0.7722  0.0731
 1132TIP3    H1 3402   6.148   2.572   4.509  0.1847  0.0469 -0.6398
 1132TIP3    H2 3403   6.269   2.570   4.600  0.0827  0.6702 -0.4796
 1133TIP3   OH2 3404   2.970   3.698   3.269  0.7001 -0.8005 -0.2358
 1133TIP3    H1 3405   2.920   3.778   3.254  1.8326  0.0286  0.3136
 1133TIP3    H2 3406   2.905   3.628   3.262 -0.5033  0.2254  0.2559
 1134TIP3   OH2 3407   6.287   5.447   1.413 -0.3075 -0.2520  0.1407
 1134TIP3    H1 3408   6.195   5.473   1.407 -0.3301  0.1335  1.6922
 1134TIP3    H2 3409   6.296   5.374   1.352 -1.1977  0.8621 -1.3645
 1135TIP3   OH2 3410   1.293   5.642   5.101 -0.2954  0.4239  0.1801
 1135TIP3    H1 3411   1.329   5.708   5.041  0.4043 -0.8600 -0.8621
 1135TIP3    H2 3412   1.349   5.647   5.178  0.8812 -0.1174 -0.6000
 1136TIP3   OH2 3413   5.111   5.218   4.681  0.0294  0.2734  0.3283
 1136TIP3    H1 3414   5.118   5.214   4.777  0.1581  1.2009  0.3678
 1136TIP3    H2 3415   5.059   5.296   4.664  1.1371  0.8672 -0.3956
 1137TIP3   OH2 3416   1.929   4.334   4.372  0.1062 -0.2728  0.2459
 1137TIP3    H1 3417   1.892   4.322   4.285 -0.1989 -0.6226  0.4177
 1137TIP3    H2 3418   1.975   4.252   4.390  1.4525  0.3619 -0.1828
 1138TIP3   OH2 3419   4.475   4.163   0.582  0.1991 -0.1831 -0.7304
 1138TIP3    H1 3420   4.535   4.236   0.598  0.2286 -0.3397 -0.1184
 1138TIP3    H2 3421   4.396   4.204   0.546 -0.7397  0.4491  1.8876
 1139TIP3   OH2 3422   2.557   3.916   1.737 -0.4095 -0.0385 -0.0048
 1139TIP3    H1 3423   2.649   3.930   1.716 -0.3431 -0.7446 -0.2131
 1139TIP3    H2 3424   2.556   3.909   1.833 -0.2687  0.1328  0.0097
 1140TIP3   OH2 3425   2.312   0.927   3.738 -0.3360  0.1386  0.6179
 1140TIP3    H1 3426   2.320   1.009   3.787 -2.0354 -0.0270  1.2455
 1140TIP3    H2 3427   2.360   0.864   3.791  0.1590  0.5223  0.6358
 1141TIP3   OH2 3428   4.295   4.639   3.003 -0.0224 -0.4800 -0.2623
 1141TIP3    H1 3429   4.366   4.596   2.955  1.1334 -1.2617  1.9766
 1141TIP3    H2 3430   4.337   4.715   3.045 -0.9265  0.0454 -0.2884
 1142TIP3   OH2 3431   1.843   4.914   2.406  0.6191  0.2733 -0.0673
 1142TIP3    H1 3432   1.769   4.957   2.363  1.1977  1.4669  0.0973
 1142TIP3    H2 3433   1.903   4.892   2.335  0.6630  0.4254 -0.0777
 1143TIP3   OH2 3434   2.815   2.854   4.938  0.2259  0.2918 -0.6845
 1143TIP3    H1 3435   2.878   2.814   4.877 -0.5792 -0.7559 -0.8594
 1143TIP3    H2 3436   2.733   2.857   4.889 -0.2671  0.0637  0.1129
 1144TIP3   OH2 3437   1.902   4.350   0.700  0.1579 -0.1450 -0.2317
 1144TIP3    H1 3438   1.980   4.399   0.726  0.6156 -1.9191  2.1782
 1144TIP3    H2 3439   1.844   4.355   0.776 -1.3897 -0.2616 -1.3524
 1145TIP3   OH2 3440   4.824   1.924   3.527  0.1119 -0.2665  0.0855
 1145TIP3    H1 3441   4.745   1.888   3.487 -0.0971  0.6799 -0.3739
 1145TIP3    H2 3442   4.809   1.916   3.621 -0.3368 -0.4965 -0.0018
 1146TIP3   OH2 3443   2.348   2.271   0.132  0.2843  0.0456  0.0893
 1146TIP3    H1 3444   2.330   2.177   0.129 -0.5773  0.2107 -0.0326
 1146TIP3    H2 3445   2.437   2.277   0.167 -0.7293 -0.7238  3.0934
 1147TIP3   OH2 3446   1.607   4.301   3.250  0.0273  0.0248  0.4666
 1147TIP3    H1 3447   1.691   4.255   3.240 -0.1042 -0.0067 -0.5701
 1147TIP3    H2 3448   1.631   4.393   3.259  0.1354  0.1537 -0.9801
 1148TIP3   OH2 3449   5.504   4.121   4.069 -0.6806 -0.2354  0.5130
 1148TIP3    H1 3450   5.453   4.040   4.070 -0.4949 -0.3478  0.8866
 1148TIP3    H2 3451   5.455   4.179   4.010 -0.1901 -1.0156 -0.6991
 1149TIP3   OH2 3452   1.721   5.600   0.101 -0.4019  0.1792  0.0984
 1149TIP3    H1 3453   1.722   5.686   0.144  2.0725  0.0336  0.5071
 1149TIP3    H2 3454   1.746   5.539   0.170 -0.9011 -0.7134 -0.4960
 1150TIP3   OH2 3455   1.980   0.725   2.859  0.6076 -0.1178 -0.1616
 1150TIP3    H1 3456   1.925   0.675   2.919  2.0632 -1.0397  0.4498
 1150TIP3    H2 3457   2.043   0.662   2.826  0.7234  0.7038 -1.5957
 1151TIP3   OH2 3458   5.674   1.280   3.219 -0.2748  0.2311 -0.7012
 1151TIP3    H1 3459   5.585   1.281   3.255  0.0836  1.3583  0.2402
 1151TIP3    H2 3460   5.684   1.367   3.181  0.8611  0.5742  0.3501
 1152TIP3   OH2 3461   0.347   1.915   0.648 -0.5866  0.2877  0.0728
 1152TIP3    H1 3462   0.431   1.921   0.602  1.7838 -4.1460  3.0221
 1152TIP3    H2 3463   0.308   1.834   0.614 -3.9815  2.2985 -1.3029
 1153TIP3   OH2 3464   2.623   2.011   4.680  0.0830 -0.0595  0.0618
 1153TIP3    H1 3465   2.532   1.997   4.652  0.1048 -1.4125  0.5576
 1153TIP3    H2 3466   2.615   2.062   4.761 -0.2418 -0.0357  0.0185
 1154TIP3   OH2 3467   2.666   5.496   4.360  0.5585 -0.7356 -0.3093
 1154TIP3    H1 3468   2.684   5.443   4.438  1.0622 -0.8409 -0.4919
 1154TIP3    H2 3469   2.745   5.550   4.349  0.9804 -1.5228 -1.3767
 1155TIP3   OH2 3470   2.474   4.104   0.825 -0.0657 -0.0712 -0.1856
 1155TIP3    H1 3471   2.434   4.167   0.765  1.4934 -1.3973 -2.8292
 1155TIP3    H2 3472   2.406   4.040   0.842 -0.3009 -0.1283 -1.2796
 1156TIP3   OH2 3473   5.957   3.062   1.691 -0.2115  0.1375  0.4405
 1156TIP3    H1 3474   5.930   3.002   1.761  1.3710 -1.4552 -0.2323
 1156TIP3    H2 3475   5.968   3.006   1.614  0.8120  1.3762 -0.3609
 1157TIP3   OH2 3476   3.718   2.632   3.250 -0.3639 -0.2306  0.4557
 1157TIP3    H1 3477   3.805   2.600   3.227  0.9312  2.7954  0.6208
 1157TIP3    H2 3478   3.726   2.660   3.341 -1.6004 -0.1023  0.5417
 1158TIP3   OH2 3479   3.943   1.868   4.507  0.0217 -0.1814 -0.0532
 1158TIP3    H1 3480   3.904   1.849   4.593 -1.7993  0.9168 -0.5909
 1158TIP3    H2 3481   3.887   1.822   4.445  1.2673 -0.8763 -0.7120
 1159TIP3   OH2 3482   3.434   4.754   1.927  0.2565 -0.0457 -0.1009
 1159TIP3    H1 3483   3.381   4.809   1.869  0.1131  0.2906  0.3403
 1159TIP3    H2 3484   3.398   4.769   2.014  1.0533  0.1627  0.2042
 1160TIP3   OH2 3485   2.936   1.391   3.843  0.1831 -0.4564  0.1168
 1160TIP3    H1 3486   3.010   1.333   3.823 -0.1423  0.2677 -3.9381
 1160TIP3    H2 3487   2.977   1.468   3.882  1.7936  0.1498 -2.4948
 1161TIP3   OH2 3488   1.792   5.584   1.744  0.0868  1.1699 -0.6326
 1161TIP3    H1 3489   1.855   5.651   1.715 -0.9524  2.2627 -0.4700
 1161TIP3    H2 3490   1.798   5.515   1.679  0.2538  2.0243 -1.5441
 1162TIP3   OH2 3491   4.467   1.397   1.981 -0.3202 -0.8940 -0.1788
 1162TIP3    H1 3492   4.419   1.325   1.941 -2.2882  0.7218 -0.8656
 1162TIP3    H2 3493   4.550   1.400   1.933 -0.2531 -2.5726 -0.2250
 1163TIP3   OH2 3494   4.852   3.276   1.083 -0.2874 -0.5677  0.1379
 1163TIP3    H1 3495   4.856   3.355   1.137 -1.0698  1.5525 -2.6138
 1163TIP3    H2 3496   4.912   3.295   1.010 -0.3755 -2.6139 -0.5230
 1164TIP3   OH2 3497   2.286   4.241   2.117  0.3674  0.0015 -0.5856
 1164TIP3    H1 3498   2.321   4.330   2.116  0.7952 -0.1620 -0.4058
 1164TIP3    H2 3499   2.215   4.242   2.052 -1.4087  1.1774  1.2580
 1165TIP3   OH2 3500   1.851   2.047   3.312  0.1382 -0.0379  0.1981
 1165TIP3    H1 3501   1.846   2.139   3.289  1.7934 -0.5603 -2.8634
 1165TIP3    H2 3502   1.775   2.008   3.269 -0.1571 -0.2144  0.8714
 1166TIP3   OH2 3503   5.978   0.004   4.504 -0.5934  0.2982  0.1433
 1166TIP3    H1 3504   5.985  -0.028   4.594 -1.0181  1.5466  0.6599
 1166TIP3    H2 3505   5.891   0.045   4.501 -1.3991 -1.4350 -1.4389
 1167TIP3   OH2 3506   3.815   4.017   0.680 -0.3882 -0.1407  0.4275
 1167TIP3    H1 3507   3.871   4.091   0.656 -0.2849 -0.0360  0.9768
 1167TIP3    H2 3508   3.866   3.970   0.746 -1.0391  0.0722  1.0845
 1168TIP3   OH2 3509   6.033   0.242   0.688  0.4666  0.0007  0.2392
 1168TIP3    H1 3510   6.039   0.301   0.764 -2.2713  0.2072  0.4127
 1168TIP3    H2 3511   5.985   0.293   0.623 -0.3092 -1.3834 -0.2999
 1169TIP3   OH2 3512   1.499   1.739   3.025  0.0308 -0.7011  0.1046
 1169TIP3    H1 3513   1.485   1.778   2.939  0.1490  0.8218  0.7592
 1169TIP3    H2 3514   1.519   1.647   3.006 -0.2698 -0.4717 -1.4660
 1170TIP3   OH2 3515   5.388   4.266   5.108 -0.1403  0.0110 -0.0776
 1170TIP3    H1 3516   5.378   4.361   5.105 -1.8482 -0.1383 -0.4812
 1170TIP3    H2 3517   5.405   4.241   5.017  2.4250  0.0672  0.3175
 1171TIP3   OH2 3518   2.125   0.801   1.251  0.3931  0.1581 -0.1662
 1171TIP3    H1 3519   2.088   0.743   1.317 -0.5316  0.3413 -0.5144
 1171TIP3    H2 3520   2.058   0.869   1.237  0.1575 -0.3808 -1.9413
 1172TIP3   OH2 3521   3.796   3.523   4.814 -0.3271  0.4202 -0.5757
 1172TIP3    H1 3522   3.891   3.515   4.814 -0.3765 -0.7733 -2.3190
 1172TIP3    H2 3523   3.779   3.614   4.841  1.2012  0.1590  1.4134
 1173TIP3   OH2 3524   5.636   4.673   0.310  0.1871  0.5465  0.0189
 1173TIP3    H1 3525   5.596   4.673   0.222  0.9863 -2.1234 -0.4076
 1173TIP3    H2 3526   5.729   4.690   0.294 -0.1613  3.9523  0.7839
 1174TIP3   OH2 3527   0.883   3.771   2.723 -0.3136  0.1033 -0.0680
 1174TIP3    H1 3528   0.881   3.681   2.757  0.9540 -0.5226 -1.5442
 1174TIP3    H2 3529   0.887   3.826   2.802  0.3165 -1.1915  0.8477
 1175TIP3   OH2 3530   3.544   5.201   3.706  0.4092  0.1682  0.1917
 1175TIP3    H1 3531   3.469   5.255   3.733  1.3065  1.6198 -0.0894
 1175TIP3    H2 3532   3.595   5.190   3.787  1.0931  1.2199 -0.0699
 1176TIP3   OH2 3533   5.161   3.220   2.937 -0.0252 -0.1799 -0.1389
 1176TIP3    H1 3534   5.230   3.157   2.919 -0.9282 -0.6217 -2.5120
 1176TIP3    H2 3535   5.120   3.236   2.851 -0.5748  2.7703  0.5464
 1177TIP3   OH2 3536   0.510   1.601   0.956 -0.0862  0.8752  0.7250
 1177TIP3    H1 3537   0.538   1.553   0.878 -0.4168 -0.6315  1.4748
 1177TIP3    H2 3538   0.555   1.684   0.952  1.4137  0.0542 -0.0973
 1178TIP3   OH2 3539   0.191   0.093   2.419 -0.2189  0.3730  0.5853
 1178TIP3    H1 3540   0.257   0.121   2.482 -0.5848 -1.8568  2.0739
 1178TIP3    H2 3541   0.109   0.131   2.452  0.0584  1.9972 -0.4948
 1179TIP3   OH2 3542   0.306   3.349   4.805 -0.0503  0.0499 -0.4679
 1179TIP3    H1 3543   0.384   3.378   4.758 -0.3448 -0.1056 -1.0593
 1179TIP3    H2 3544   0.265   3.429   4.836  1.4967  0.0918  1.7943
 1180TIP3   OH2 3545   6.018   5.224   3.629  0.8954 -0.1714 -0.1851
 1180TIP3    H1 3546   6.012   5.264   3.542  1.2938 -0.1650 -0.2089
 1180TIP3    H2 3547   6.071   5.286   3.680 -0.7004  0.6577  0.5334
 1181TIP3   OH2 3548   4.016   0.956   1.952  0.5102  0.2309 -0.2176
 1181TIP3    H1 3549   3.935   0.955   2.002  0.3171  3.3578 -0.2678
 1181TIP3    H2 3550   3.993   0.916   1.868 -1.3647  2.0296 -0.6428
 1182TIP3   OH2 3551   1.586   2.335   0.319 -0.0525 -0.1893 -0.2313
 1182TIP3    H1 3552   1.649   2.369   0.383  0.4973 -1.0833 -0.2826
 1182TIP3    H2 3553   1.623   2.360   0.234 -0.5924  0.6707 -0.2292
 1183TIP3   OH2 3554   6.148   2.851   0.095  0.5160  0.5283  0.0964
 1183TIP3    H1 3555   6.224   2.903   0.121  0.0079  1.5679 -0.4275
 1183TIP3    H2 3556   6.166   2.826   0.005 -0.7854  2.8353 -0.8910
 1184TIP3   OH2 3557   3.359   4.196   3.437 -0.1286  0.6707  0.0080
 1184TIP3    H1 3558   3.334   4.104   3.438 -0.3044  0.7178  0.1133
 1184TIP3    H2 3559   3.414   4.207   3.514 -1.0664  0.9067  0.6671
 1185TIP3   OH2 3560   1.884   2.257   4.468 -0.2226 -0.7868  0.0505
 1185TIP3    H1 3561   1.955   2.270   4.406  0.5894 -2.7957  0.4580
 1185TIP3    H2 3562   1.838   2.180   4.435 -0.6120 -1.0606  1.1772
 1186TIP3   OH2 3563   3.996   1.690   1.785 -0.1360  0.6483 -0.0796
 1186TIP3    H1 3564   3.999   1.647   1.699 -0.2875  1.1778 -0.3557
 1186TIP3    H2 3565   3.913   1.738   1.784 -0.5324 -0.0040  0.6853
 1187TIP3   OH2 3566   5.892   5.754   1.347  0.1984  0.0166 -0.3627
 1187TIP3    H1 3567   5.904   5.820   1.415 -1.1519  0.0408 -0.1223
 1187TIP3    H2 3568   5.893   5.802   1.265  0.1183  0.2125 -0.2479
 1188TIP3   OH2 3569   0.071   2.064   4.214  0.2455 -0.5174 -0.0549
 1188TIP3    H1 3570   0.053   2.127   4.145 -0.2628  1.1432  1.5244
 1188TIP3    H2 3571   0.028   2.100   4.291  1.2442 -2.0308  1.2701
 1189TIP3   OH2 3572   2.245   3.788   4.197  0.0841  0.0557 -0.0017
 1189TIP3    H1 3573   2.304   3.829   4.260 -0.7679 -0.0229  0.8672
 1189TIP3    H2 3574   2.246   3.695   4.221 -1.8057  0.2953  1.2620
 1190TIP3   OH2 3575   1.344   1.465   2.359 -1.0014  0.0224  0.0200
 1190TIP3    H1 3576   1.330   1.373   2.336  0.8064 -0.0959 -0.7417
 1190TIP3    H2 3577   1.410   1.462   2.429 -1.7160  0.7130  0.7430
 1191TIP3   OH2 3578   6.048   5.553   0.829 -0.3669  0.3602 -0.5166
 1191TIP3    H1 3579   6.080   5.574   0.917 -0.2192  2.3186 -0.9872
 1191TIP3    H2 3580   5.987   5.481   0.842  2.0463 -1.6153  0.7846
 1192TIP3   OH2 3581   4.435   2.517   1.127 -0.7362  0.0071 -0.8570
 1192TIP3    H1 3582   4.353   2.485   1.164  0.0080  0.3723  1.2396
 1192TIP3    H2 3583   4.408   2.567   1.049 -2.5037  0.2423 -0.1477
 1193TIP3   OH2 3584   5.768   4.636   5.121  0.0235  0.3552 -0.0844
 1193TIP3    H1 3585   5.837   4.577   5.092  0.3470  0.6319  0.1089
 1193TIP3    H2 3586   5.786   4.718   5.075 -2.0477 -0.4442 -2.5889
 1194TIP3   OH2 3587   2.810   1.591   1.961 -0.4253 -0.0486  0.5800
 1194TIP3    H1 3588   2.743   1.628   2.019  1.5114  0.4549  2.6160
 1194TIP3    H2 3589   2.823   1.501   1.992  0.1682  0.0033  0.4986
 1195TIP3   OH2 3590   5.002   5.200   2.578 -0.1667  0.0407 -0.6999
 1195TIP3    H1 3591   5.089   5.181   2.542 -0.3176 -0.6993 -0.6746
 1195TIP3    H2 3592   4.950   5.122   2.559 -0.5523  0.0732  0.1732
 1196TIP3   OH2 3593   4.530   2.210   5.089  0.0054 -0.3082 -0.3627
 1196TIP3    H1 3594   4.625   2.220   5.092 -0.0085 -0.3265  0.3814
 1196TIP3    H2 3595   4.512   2.134   5.143 -0.4840  0.1250  0.1008
 1197TIP3   OH2 3596   3.965   5.170   3.041  0.0692  0.3789  0.2931
 1197TIP3    H1 3597   3.927   5.090   3.004  0.9742 -0.2213  0.6251
 1197TIP3    H2 3598   3.890   5.218   3.076 -0.6124  0.2057 -0.8846
 1198TIP3   OH2 3599   1.630   0.558   0.286 -0.3961  0.0242 -0.1971
 1198TIP3    H1 3600   1.548   0.538   0.330  0.6256 -0.5694  1.5572
 1198TIP3    H2 3601   1.624   0.514   0.201 -1.0871 -1.7376  0.7315
 1199TIP3   OH2 3602   2.108   1.342   2.871 -0.2272 -0.1265  0.2670
 1199TIP3    H1 3603   2.088   1.266   2.817  0.8623  0.2814 -0.7480
 1199TIP3    H2 3604   2.067   1.323   2.955 -0.4626 -1.5694 -0.1526
 1200TIP3   OH2 3605   4.378   5.271   4.742  0.5876  0.4033  0.4717
 1200TIP3    H1 3606   4.357   5.341   4.681 -0.1789 -0.2532 -0.0291
 1200TIP3    H2 3607   4.306   5.272   4.805  0.4737 -0.0644  0.3470
 1201TIP3   OH2 3608   0.327   5.187   4.069 -0.3309 -0.5830 -0.4896
 1201TIP3    H1 3609   0.335   5.275   4.034  1.3148 -0.2482  0.5890
 1201TIP3    H2 3610   0.387   5.134   4.015 -1.2605 -1.0523 -1.0916
 1202TIP3   OH2 3611   3.871   4.453   4.657 -0.6071 -0.0743  0.4590
 1202TIP3    H1 3612   3.938   4.386   4.642 -0.4313  0.1443  0.2596
 1202TIP3    H2 3613   3.788   4.407   4.645 -0.4842 -0.1630 -0.0937
 1203TIP3   OH2 3614   1.802   2.441   1.721 -0.6225  0.0644 -0.2601
 1203TIP3    H1 3615   1.796   2.535   1.739  1.8977  0.4372 -0.9970
 1203TIP3    H2 3616   1.883   2.413   1.765 -0.3714 -1.3714 -1.5297
 1204TIP3   OH2 3617   3.245   5.763   0.699 -0.5610 -0.2081  0.1776
 1204TIP3    H1 3618   3.316   5.713   0.660  0.0366 -0.7823  1.9135
 1204TIP3    H2 3619   3.179   5.698   0.721 -0.8702  0.1011  0.1690
 1205TIP3   OH2 3620   5.283   0.218   2.061 -0.0841  0.0656 -0.2115
 1205TIP3    H1 3621   5.342   0.186   1.992 -0.8374 -0.9787 -0.4033
 1205TIP3    H2 3622   5.217   0.268   2.013 -1.3984 -1.8218 -0.4507
 1206TIP3   OH2 3623   4.171   0.942   4.471 -0.2517 -0.5959  0.3174
 1206TIP3    H1 3624   4.241   0.995   4.434 -1.4715  1.3592  0.6288
 1206TIP3    H2 3625   4.121   0.912   4.395 -0.3439 -0.1050  0.1761
 1207TIP3   OH2 3626   0.217   4.953   0.873  0.1778  0.2498  0.1999
 1207TIP3    H1 3627   0.306   4.946   0.908 -0.2049  0.0248  1.1657
 1207TIP3    H2 3628   0.160   4.928   0.946 -0.7242  1.3590 -0.0844
 1208TIP3   OH2 3629   5.789   5.574   0.306  0.1480 -0.1989 -0.4302
 1208TIP3    H1 3630   5.798   5.555   0.399  0.7662 -0.0216 -0.4501
 1208TIP3    H2 3631   5.826   5.661   0.295 -3.1296  1.3685 -0.2689
 1209TIP3   OH2 3632   0.589   5.451   3.647 -0.1994  0.1398 -0.6013
 1209TIP3    H1 3633   0.499   5.448   3.617 -0.1613  0.5091 -0.7515
 1209TIP3    H2 3634   0.620   5.360   3.639 -1.0471 -0.3374  0.9756
 1210TIP3   OH2 3635   2.173   4.089   3.384 -0.5034 -0.1046 -0.0978
 1210TIP3    H1 3636   2.206   4.032   3.314  1.0721 -0.2708  0.7391
 1210TIP3    H2 3637   2.115   4.151   3.339  1.3452  0.5123 -1.7909
 1211TIP3   OH2 3638   5.578   5.433   1.948 -0.0968 -0.0621  0.2096
 1211TIP3    H1 3639   5.521   5.409   2.022  0.2073 -0.7310  0.2334
 1211TIP3    H2 3640   5.571   5.359   1.887  0.5065 -0.0178  0.0784
 1212TIP3   OH2 3641   0.518   3.433   1.289 -0.3667 -0.1292  0.4622
 1212TIP3    H1 3642   0.497   3.463   1.200  1.6262  1.4630  0.4268
 1212TIP3    H2 3643   0.476   3.348   1.297 -0.8906 -0.1617 -1.8895
 1213TIP3   OH2 3644   3.280   5.863   4.090 -0.2485 -0.4593  0.0203
 1213TIP3    H1 3645   3.197   5.886   4.133 -0.6426 -0.1958 -0.8631
 1213TIP3    H2 3646   3.336   5.940   4.105 -0.6027 -0.0986 -0.4901
 1214TIP3   OH2 3647   1.033   3.736   1.093 -0.2243  0.1375  0.2069
 1214TIP3    H1 3648   0.940   3.761   1.101  0.0322  1.2011  0.0683
 1214TIP3    H2 3649   1.068   3.795   1.026  1.0964  1.4009  1.9133
 1215TIP3   OH2 3650   4.757   5.516   4.654 -0.0859 -0.4501 -0.2267
 1215TIP3    H1 3651   4.771   5.435   4.605 -0.9751  0.0953 -1.4160
 1215TIP3    H2 3652   4.815   5.508   4.730  0.4118 -1.8520 -0.7257
 1216TIP3   OH2 3653   4.141   2.118   5.141 -0.0101 -0.4255 -0.3532
 1216TIP3    H1 3654   4.196   2.074   5.076 -1.1064 -0.0727 -1.5662
 1216TIP3    H2 3655   4.053   2.116   5.103 -0.5127  0.6459  0.6934
 1217TIP3   OH2 3656   4.855   4.520   2.340 -0.6490  0.1454  0.1134
 1217TIP3    H1 3657   4.936   4.563   2.365 -0.2101 -0.1560 -0.7792
 1217TIP3    H2 3658   4.873   4.479   2.256 -0.8203 -2.3819  1.2121
 1218TIP3   OH2 3659   2.768   0.450   0.947 -0.0491  0.1967 -0.2958
 1218TIP3    H1 3660   2.832   0.412   1.007 -2.2872 -1.8934  0.9351
 1218TIP3    H2 3661   2.797   0.421   0.860  1.3642  0.4214  0.0691
 1219TIP3   OH2 3662   6.033   5.503   1.368  0.3488 -0.0194 -0.1468
 1219TIP3    H1 3663   5.994   5.466   1.447  1.4756  1.1048  0.9738
 1219TIP3    H2 3664   5.986   5.586   1.355 -0.0210 -0.3233 -0.8419
 1220TIP3   OH2 3665   0.809   3.370   0.449  0.2328  0.8195  0.4404
 1220TIP3    H1 3666   0.757   3.406   0.521 -2.0042 -0.3485 -0.4868
 1220TIP3    H2 3667   0.820   3.443   0.388  2.8597  2.0499  2.2313
 1221TIP3   OH2 3668   4.370   5.832   1.295  0.5309  0.1708 -0.2489
 1221TIP3    H1 3669   4.360   5.900   1.361 -3.2849  0.7314 -1.1634
 1221TIP3    H2 3670   4.316   5.759   1.326 -1.5829  0.5410 -2.6793
 1222TIP3   OH2 3671   4.416   3.797   4.660  0.4492  0.2125  0.3049
 1222TIP3    H1 3672   4.402   3.720   4.605  1.6512 -0.3820  0.8035
 1222TIP3    H2 3673   4.334   3.808   4.708 -0.1748  0.0023 -0.6726
 1223TIP3   OH2 3674   2.331   2.798   4.174  0.5337 -0.1377  1.1224
 1223TIP3    H1 3675   2.239   2.804   4.148  0.9459  1.4885 -0.2217
 1223TIP3    H2 3676   2.379   2.818   4.093  2.0659 -0.7405  1.8522
 1224TIP3   OH2 3677   6.241   3.364   0.932  0.8529  0.0229 -0.2173
 1224TIP3    H1 3678   6.251   3.327   1.019 -0.3057  1.7890  0.7286
 1224TIP3    H2 3679   6.270   3.295   0.872  2.8237 -0.7974  1.5844
 1225TIP3   OH2 3680   6.160   5.371   2.482  0.3185 -0.0059 -0.0448
 1225TIP3    H1 3681   6.090   5.419   2.439 -0.5752  0.7159  2.1050
 1225TIP3    H2 3682   6.116   5.296   2.523  1.1178 -0.5993 -0.2444
 1226TIP3   OH2 3683   0.960   1.235   4.389 -0.2310 -0.2525 -0.1614
 1226TIP3    H1 3684   1.046   1.249   4.428 -0.1056  1.0813 -0.8675
 1226TIP3    H2 3685   0.898   1.250   4.461 -0.0109  2.3589 -0.4058
 1227TIP3   OH2 3686   4.492   4.399   4.722  0.3599  0.0942 -0.3045
 1227TIP3    H1 3687   4.543   4.319   4.709 -0.9380 -0.8485  0.2123
 1227TIP3    H2 3688   4.548   4.454   4.777  0.7462 -1.0037  0.4332
 1228TIP3   OH2 3689   0.040   5.796   0.115  0.2538  0.3524 -0.0126
 1228TIP3    H1 3690   0.092   5.719   0.139  0.9163 -0.0475 -2.5245
 1228TIP3    H2 3691   0.073   5.823   0.030 -2.3889  1.2504 -0.8660
 1229TIP3   OH2 3692   1.308   5.683   0.188  0.8480  0.5673  0.4111
 1229TIP3    H1 3693   1.366   5.660   0.115  1.0145  0.8635  0.4506
 1229TIP3    H2 3694   1.313   5.778   0.193  0.2005  0.6160  0.2790
 1230TIP3   OH2 3695   4.249   4.886   4.963 -0.1568  0.3797 -0.0451
 1230TIP3    H1 3696   4.326   4.918   5.009  0.9355 -1.3038 -0.6367
 1230TIP3    H2 3697   4.206   4.828   5.026 -0.1965  0.2555 -0.1862
 1231TIP3   OH2 3698   4.837   1.445   2.650 -0.3875 -0.1253  0.6692
 1231TIP3    H1 3699   4.813   1.431   2.742  1.2185 -2.1537  0.8469
 1231TIP3    H2 3700   4.863   1.537   2.646  0.9164 -0.3318  2.6350
 1232TIP3   OH2 3701   0.887   0.305   3.773  0.0164  0.1559  0.0936
 1232TIP3    H1 3702   0.825   0.378   3.776 -0.6267 -0.3998  0.5441
 1232TIP3    H2 3703   0.973   0.347   3.766 -0.2466  1.0051  1.4662
 1233TIP3   OH2 3704   2.312   4.842   3.696  0.3299  0.0800  0.1456
 1233TIP3    H1 3705   2.217   4.856   3.687  0.4303 -0.0685 -1.4934
 1233TIP3    H2 3706   2.320   4.759   3.742 -0.3223  0.7110  1.4279
 1234TIP3   OH2 3707   5.634   0.121   0.243  0.3151 -0.6221  0.3655
 1234TIP3    H1 3708   5.567   0.137   0.177 -0.6637 -0.3291  1.4019
 1234TIP3    H2 3709   5.587   0.120   0.326  1.2567 -2.7278  0.9372
 1235TIP3   OH2 3710   3.026   3.676   5.064  0.5584 -0.3828 -0.8483
 1235TIP3    H1 3711   3.102   3.728   5.038  0.5263  1.1858  1.8107
 1235TIP3    H2 3712   3.063   3.594   5.096  1.0948  0.0721 -0.2714
 1236TIP3   OH2 3713   5.251   0.314   0.106 -0.1395 -0.2696  0.1449
 1236TIP3    H1 3714   5.306   0.242   0.073 -1.6374 -1.1039 -0.6634
 1236TIP3    H2 3715   5.178   0.270   0.150 -1.1528  0.7341 -0.4734
 1237TIP3   OH2 3716   1.895   5.389   5.037 -0.1187  0.3257  0.3523
 1237TIP3    H1 3717   1.919   5.363   4.949  0.4282  0.3327  0.4979
 1237TIP3    H2 3718   1.812   5.344   5.054 -0.2218  0.3234 -0.1608
 1238TIP3   OH2 3719   3.218   0.918   0.093 -0.2663  0.1305 -0.2611
 1238TIP3    H1 3720   3.185   1.002   0.123 -2.5013 -1.2997  1.6371
 1238TIP3    H2 3721   3.198   0.857   0.165  5.5309 -1.2866  0.7044
 1239TIP3   OH2 3722   4.392   1.569   3.381  0.1986  0.1668  0.2993
 1239TIP3    H1 3723   4.327   1.637   3.361 -0.2947 -0.9639 -2.3548
 1239TIP3    H2 3724   4.340   1.497   3.417  0.1427 -0.1836 -0.4518
 1240TIP3   OH2 3725   2.727   1.990   2.398  0.2062  0.1140 -0.2492
 1240TIP3    H1 3726   2.793   2.000   2.329 -1.0136  0.4249 -1.4091
 1240TIP3    H2 3727   2.777   1.963   2.475  1.6609  0.1636 -1.1371
 1241TIP3   OH2 3728   2.444   2.594   1.900  0.1380 -0.3566  0.3713
 1241TIP3    H1 3729   2.375   2.589   1.967 -0.2877 -0.2605 -0.0533
 1241TIP3    H2 3730   2.508   2.654   1.936 -0.5389  0.4289  0.3024
 1242TIP3   OH2 3731   6.290   1.146   4.886  0.2847 -0.3327 -0.1844
 1242TIP3    H1 3732   6.323   1.071   4.937 -1.2007 -0.6648  0.3469
 1242TIP3    H2 3733   6.359   1.211   4.892  1.0429 -1.1702  0.4854
 1243TIP3   OH2 3734   2.703   3.375   3.835  0.0429  0.4308 -0.2591
 1243TIP3    H1 3735   2.680   3.410   3.749 -2.1888  0.3574  0.2671
 1243TIP3    H2 3736   2.624   3.332   3.866  0.7117  0.6742  1.9584
 1244TIP3   OH2 3737   3.908   3.745   4.549  0.3036 -0.1220 -0.0090
 1244TIP3    H1 3738   3.894   3.794   4.469 -0.6354 -2.8662 -1.6614
 1244TIP3    H2 3739   3.820   3.726   4.582  0.6083 -1.0223  0.3268
 1245TIP3   OH2 3740   5.699   4.194   0.281 -0.5692  0.0112 -0.1088
 1245TIP3    H1 3741   5.736   4.256   0.219  2.0146 -1.2953 -0.0178
 1245TIP3    H2 3742   5.683   4.245   0.361  2.2113  0.5181  0.2301
 1246TIP3   OH2 3743   0.511   4.407   3.359 -0.2914  0.0711  0.3934
 1246TIP3    H1 3744   0.520   4.490   3.314  0.1933 -0.2197 -0.0690
 1246TIP3    H2 3745   0.433   4.366   3.321 -1.1114  0.7400  1.3327
 1247TIP3   OH2 3746   0.224   4.132   3.804 -0.1447 -0.0155  0.5110
 1247TIP3    H1 3747   0.191   4.048   3.836 -0.7041  0.5372  1.3973
 1247TIP3    H2 3748   0.182   4.198   3.858  2.0889  0.7533  1.4483
 1248TIP3   OH2 3749   0.672   0.607   2.928 -0.2848  0.4179  0.1196
 1248TIP3    H1 3750   0.615   0.665   2.878  0.9525 -0.0517 -1.9853
 1248TIP3    H2 3751   0.754   0.604   2.878  0.3374 -1.6758  1.1096
 1249TIP3   OH2 3752   5.502   1.594   1.803 -0.1362 -0.0537  0.5217
 1249TIP3    H1 3753   5.451   1.568   1.880  0.2594  0.2157  0.8761
 1249TIP3    H2 3754   5.446   1.656   1.757 -0.4128 -0.2868  0.5411
 1250TIP3   OH2 3755   4.550   0.316   0.632 -0.4269  0.1141 -0.1757
 1250TIP3    H1 3756   4.615   0.279   0.572 -1.6989  0.7195 -2.0060
 1250TIP3    H2 3757   4.577   0.407   0.642 -0.7480  0.2605 -0.6120
 1251TIP3   OH2 3758   5.743   0.189   3.870  0.1591 -0.4640 -0.5478
 1251TIP3    H1 3759   5.755   0.283   3.883 -0.1639 -0.3670 -0.9517
 1251TIP3    H2 3760   5.820   0.150   3.913  0.3388 -0.0158 -0.4500
 1252TIP3   OH2 3761   4.659   3.343   4.695 -0.0530  0.1408  0.0325
 1252TIP3    H1 3762   4.635   3.417   4.752 -1.2786 -1.3075  1.5047
 1252TIP3    H2 3763   4.683   3.384   4.612 -2.7237  2.1039  0.0833
 1253TIP3   OH2 3764   1.570   2.503   3.122 -0.3350  0.4595  0.0974
 1253TIP3    H1 3765   1.606   2.586   3.092  0.3466 -0.3606 -1.4934
 1253TIP3    H2 3766   1.501   2.527   3.183  0.2665  2.1700  0.1448
 1254TIP3   OH2 3767   3.646   4.370   1.641 -0.2392 -0.5490 -0.2118
 1254TIP3    H1 3768   3.590   4.426   1.587 -1.1160 -0.7273  0.4929
 1254TIP3    H2 3769   3.657   4.418   1.723  1.2786 -0.1718 -0.6134
 1255TIP3   OH2 3770   0.250   0.734   3.004  0.4869 -0.2259  0.0004
 1255TIP3    H1 3771   0.199   0.752   3.083  0.4235  0.6049 -0.2184
 1255TIP3    H2 3772   0.341   0.744   3.031  0.5946 -2.1035  0.4907
 1256TIP3   OH2 3773   3.204   3.156   2.024  0.4675 -0.1332 -0.3041
 1256TIP3    H1 3774   3.215   3.095   1.951  0.9852 -0.5408  0.1071
 1256TIP3    H2 3775   3.275   3.219   2.014 -0.2709  0.6283 -0.9287
 1257TIP3   OH2 3776   0.393   2.246   5.137 -0.5468  0.4241  0.2128
 1257TIP3    H1 3777   0.435   2.271   5.219  1.1229 -0.9538 -0.1670
 1257TIP3    H2 3778   0.455   2.186   5.095 -2.4513 -0.9049 -0.8815
 1258TIP3   OH2 3779   2.309   2.135   2.520  0.2670 -0.1629 -0.4506
 1258TIP3    H1 3780   2.340   2.163   2.606 -0.9782 -0.6683  0.1911
 1258TIP3    H2 3781   2.360   2.057   2.500  0.4386 -0.1456 -0.0811
 1259TIP3   OH2 3782   6.217   3.518   3.003  0.3139 -0.0086 -0.7430
 1259TIP3    H1 3783   6.178   3.447   2.951 -0.5414 -0.3924  0.3827
 1259TIP3    H2 3784   6.223   3.482   3.091  2.4936  0.3457 -0.7027
 1260TIP3   OH2 3785   3.741   0.561   3.962 -0.1929 -0.4043 -0.0893
 1260TIP3    H1 3786   3.753   0.629   3.895  1.5237  1.2286  1.7359
 1260TIP3    H2 3787   3.657   0.583   4.002 -0.5569 -0.5352 -0.7623
 1261TIP3   OH2 3788   2.435   0.704   2.372  0.1194  0.1090  0.4356
 1261TIP3    H1 3789   2.497   0.732   2.305 -1.5934  0.9824 -0.8839
 1261TIP3    H2 3790   2.462   0.748   2.452  1.9993 -0.6624  0.2679
 1262TIP3   OH2 3791   2.491   3.241   3.264 -0.0473  0.0774 -0.2027
 1262TIP3    H1 3792   2.488   3.255   3.358  0.7471  0.3894 -0.2163
 1262TIP3    H2 3793   2.539   3.158   3.254  0.1030  0.1794 -0.3395
 1263TIP3   OH2 3794   4.055   1.416   2.582 -0.4342 -0.1014  0.1114
 1263TIP3    H1 3795   4.049   1.379   2.670 -1.4788 -3.3163 -1.1370
 1263TIP3    H2 3796   4.095   1.347   2.530  0.0342  1.6412 -1.9893
 1264TIP3   OH2 3797   0.852   0.155   0.218  0.7991 -0.4370  0.2318
 1264TIP3    H1 3798   0.813   0.088   0.275  0.4897 -0.4994 -0.0498
 1264TIP3    H2 3799   0.940   0.167   0.252  1.3770 -2.0414 -0.5956
 1265TIP3   OH2 3800   1.535   2.590   0.687  0.1518  0.0958 -0.3196
 1265TIP3    H1 3801   1.491   2.564   0.606 -0.3450  1.4023 -0.5064
 1265TIP3    H2 3802   1.493   2.674   0.710  0.0075 -0.4304  1.4918
 1266TIP3   OH2 3803   0.190   4.591   1.743 -0.0944  0.3685 -0.7231
 1266TIP3    H1 3804   0.122   4.608   1.808 -0.9460 -0.2403 -1.4336
 1266TIP3    H2 3805   0.233   4.676   1.732  0.1843  0.4457  0.7433
 1267TIP3   OH2 3806   2.187   4.098   5.022 -0.2298  0.1068 -0.1512
 1267TIP3    H1 3807   2.255   4.088   5.089  0.7387  0.0250 -1.1053
 1267TIP3    H2 3808   2.117   4.146   5.065  1.8739  3.4147 -0.0339
 1268TIP3   OH2 3809   2.853   4.551   4.628 -0.3489  0.8014 -0.8886
 1268TIP3    H1 3810   2.852   4.610   4.553  0.2081 -0.0294 -1.5748
 1268TIP3    H2 3811   2.779   4.491   4.613 -1.0170  1.3957 -0.1121
 1269TIP3   OH2 3812   2.967   3.321   4.720 -0.1393 -0.0472  0.2046
 1269TIP3    H1 3813   3.039   3.384   4.728 -0.3070  0.4854 -1.9509
 1269TIP3    H2 3814   2.998   3.244   4.767  2.0208  0.0670 -0.8986
 1270TIP3   OH2 3815   4.224   1.961   0.538  0.5474  0.2904 -0.2608
 1270TIP3    H1 3816   4.265   1.992   0.619 -1.2911 -1.6475  1.5282
 1270TIP3    H2 3817   4.186   2.040   0.499 -0.4946  0.9780  1.9903
 1271TIP3   OH2 3818   4.949   3.480   1.267  0.6946  0.1566  0.5438
 1271TIP3    H1 3819   5.015   3.429   1.314  0.2356 -1.8028 -0.8271
 1271TIP3    H2 3820   4.999   3.533   1.206  1.1309  0.7127  1.3628
 1272TIP3   OH2 3821   5.806   2.963   2.611 -0.2390 -0.4310 -0.4301
 1272TIP3    H1 3822   5.728   2.997   2.568 -1.5862 -1.9954  0.6199
 1272TIP3    H2 3823   5.775   2.883   2.655  1.9513 -1.0532  0.0744
 1273TIP3   OH2 3824   3.753   3.336   3.427 -0.0734  0.0246  0.1652
 1273TIP3    H1 3825   3.783   3.256   3.471  0.2114  0.4280  0.7188
 1273TIP3    H2 3826   3.720   3.391   3.498 -1.9425 -0.3109 -0.3980
 1274TIP3   OH2 3827   1.950   2.682   4.039  0.1626 -0.1102  0.2585
 1274TIP3    H1 3828   1.927   2.772   4.020  0.6330 -0.0669 -0.1529
 1274TIP3    H2 3829   1.966   2.643   3.953  0.2661 -0.4969  0.4496
 1275TIP3   OH2 3830   3.686   0.170   4.665  0.1075  0.2233  0.3600
 1275TIP3    H1 3831   3.676   0.261   4.693 -1.8104  0.3544 -0.6080
 1275TIP3    H2 3832   3.762   0.171   4.606 -0.0211  1.2384  0.2000
 1276TIP3   OH2 3833   0.506   4.978   1.805  0.8578  0.0334  0.2337
 1276TIP3    H1 3834   0.478   5.053   1.752  0.7495  0.9950  1.5850
 1276TIP3    H2 3835   0.453   4.985   1.885  1.7256 -0.7784  0.8913
 1277TIP3   OH2 3836   5.014   1.657   4.875  0.0974  0.1242 -0.4082
 1277TIP3    H1 3837   5.104   1.643   4.846  0.1802  0.9269 -0.5501
 1277TIP3    H2 3838   5.020   1.728   4.939 -0.0112 -1.9610  2.0578
 1278TIP3   OH2 3839   3.055   5.423   1.639  0.1270 -0.2542 -0.6999
 1278TIP3    H1 3840   3.021   5.512   1.630 -1.8983 -0.6841  1.5952
 1278TIP3    H2 3841   3.128   5.431   1.700  0.3179 -0.0917 -0.9486
 1279TIP3   OH2 3842   1.911   2.070   2.319 -0.6217 -0.3921 -0.2795
 1279TIP3    H1 3843   1.946   2.028   2.240 -0.1847 -0.0851 -0.2520
 1279TIP3    H2 3844   1.989   2.099   2.367 -0.7419 -2.6744  1.4572
 1280TIP3   OH2 3845   5.256   4.652   2.982 -0.4315  0.0593 -0.0890
 1280TIP3    H1 3846   5.196   4.672   2.910  2.1529  0.6382 -2.2335
 1280TIP3    H2 3847   5.259   4.556   2.984 -0.4445  0.0369 -0.8423
 1281TIP3   OH2 3848   2.018   2.709   2.550  0.2606  0.0810  0.0699
 1281TIP3    H1 3849   2.035   2.800   2.575 -0.9677  0.0182  1.2369
 1281TIP3    H2 3850   1.958   2.677   2.617 -1.5045 -0.7600 -1.8154
 1282TIP3   OH2 3851   2.571   4.441   3.980  0.2923 -0.0363  0.7125
 1282TIP3    H1 3852   2.536   4.528   3.958 -1.1765 -0.2550  2.0060
 1282TIP3    H2 3853   2.559   4.434   4.075  1.3438 -1.2599  0.7766
 1283TIP3   OH2 3854   3.967   4.362   1.356 -0.0431 -0.2052  0.3226
 1283TIP3    H1 3855   3.962   4.380   1.262 -0.9765  1.3084  0.6137
 1283TIP3    H2 3856   3.932   4.274   1.366  1.4754 -0.9830 -0.8839
 1284TIP3   OH2 3857   5.565   0.485   4.117  0.6358  0.1429  0.0062
 1284TIP3    H1 3858   5.538   0.493   4.025 -0.9670  1.4899  0.5516
 1284TIP3    H2 3859   5.643   0.540   4.124  0.7354  0.0752 -0.5385
 1285TIP3   OH2 3860   0.332   0.422   1.285  0.0571 -0.3937 -0.5340
 1285TIP3    H1 3861   0.397   0.378   1.229  1.5394  0.4889  0.4171
 1285TIP3    H2 3862   0.365   0.512   1.293 -1.1230 -0.0112  0.2442
 1286TIP3   OH2 3863   1.333   2.673   2.393 -0.2341  0.0667 -0.2824
 1286TIP3    H1 3864   1.312   2.580   2.384 -0.3644 -0.1034  1.4438
 1286TIP3    H2 3865   1.425   2.680   2.368 -0.4963 -0.3323 -1.4180
 1287TIP3   OH2 3866   2.671   1.110   2.535 -0.3134 -0.0842 -0.2199
 1287TIP3    H1 3867   2.752   1.060   2.524 -0.9904 -1.3808  0.4946
 1287TIP3    H2 3868   2.701   1.197   2.562  0.8343 -0.9622  1.5475
 1288TIP3   OH2 3869   4.523   2.453   0.160  0.2354 -0.0087 -0.0783
 1288TIP3    H1 3870   4.439   2.444   0.205  0.8676 -0.3587  1.0672
 1288TIP3    H2 3871   4.560   2.365   0.161  0.4470  0.0587 -0.9546
 1289TIP3   OH2 3872   1.831   1.647   1.550  0.0004 -0.0371 -0.1777
 1289TIP3    H1 3873   1.826   1.582   1.480 -0.2589  0.2755 -0.4533
 1289TIP3    H2 3874   1.742   1.679   1.560 -0.6409 -2.2670  2.4316
 1290TIP3   OH2 3875   4.825   3.090   4.701  0.0237 -0.2901 -0.0449
 1290TIP3    H1 3876   4.775   3.172   4.698  0.2176  0.0118  2.6225
 1290TIP3    H2 3877   4.913   3.115   4.675 -0.2147  0.0596 -0.5410
 1291TIP3   OH2 3878   3.712   5.025   2.296 -0.0618  0.0121  0.0900
 1291TIP3    H1 3879   3.668   4.947   2.330 -0.5319 -0.2354 -1.0629
 1291TIP3    H2 3880   3.675   5.097   2.349  0.4329 -0.5282  1.2068
 1292TIP3   OH2 3881   4.087   0.712   2.079  0.3524  0.5559  0.4558
 1292TIP3    H1 3882   4.013   0.677   2.129 -0.3964  1.2749 -0.1301
 1292TIP3    H2 3883   4.097   0.802   2.111 -1.7486  1.9145 -2.3432
 1293TIP3   OH2 3884   3.752   5.163   2.027  0.2072 -0.0987 -0.4242
 1293TIP3    H1 3885   3.686   5.131   1.966 -0.4653 -0.7937  0.6222
 1293TIP3    H2 3886   3.730   5.121   2.110  0.9517  0.9872  0.3570
 1294TIP3   OH2 3887   1.014   0.416   4.572 -0.1453 -0.4345 -0.0313
 1294TIP3    H1 3888   1.000   0.492   4.517  0.9313  1.0684  1.6421
 1294TIP3    H2 3889   0.964   0.346   4.531 -0.6959  1.0152 -1.9490
 1295TIP3   OH2 3890   0.269   5.125   4.329  0.4422 -0.3546  0.6947
 1295TIP3    H1 3891   0.340   5.120   4.393 -0.5047  1.2385  1.9196
 1295TIP3    H2 3892   0.313   5.148   4.247  1.5775 -1.6298  0.9142
 1296TIP3   OH2 3893   0.647   4.207   2.058 -0.3041  0.4932  0.2771
 1296TIP3    H1 3894   0.685   4.219   2.145  0.8087 -0.1659 -0.0957
 1296TIP3    H2 3895   0.598   4.287   2.042  0.0129  0.8933  1.2451
 1297TIP3   OH2 3896   4.093   0.197   0.382 -0.0993 -0.2509 -0.4601
 1297TIP3    H1 3897   4.077   0.130   0.448  2.9617 -0.4082  0.2467
 1297TIP3    H2 3898   4.018   0.256   0.390 -1.8357 -2.4150  0.3082
 1298TIP3   OH2 3899   4.616   5.017   3.569 -0.3363  0.1980  0.4179
 1298TIP3    H1 3900   4.598   4.987   3.658  1.2526  1.9864  1.4069
 1298TIP3    H2 3901   4.576   5.104   3.564  1.6384  1.1444  0.2545
 1299TIP3   OH2 3902   6.337   2.948   0.383  0.3175  0.3722  0.1207
 1299TIP3    H1 3903   6.363   2.998   0.306  0.5588 -0.4820 -0.3625
 1299TIP3    H2 3904   6.328   2.858   0.352 -0.8074  0.2238  0.8213
 1300TIP3   OH2 3905   2.958   3.380   0.833  0.2735  0.0017  0.3027
 1300TIP3    H1 3906   2.907   3.321   0.778 -1.6103  0.0504  1.8873
 1300TIP3    H2 3907   2.994   3.325   0.902  0.9952  0.2498  0.1374
 1301TIP3   OH2 3908   5.765   3.620   0.200 -0.4220  0.5175  0.3055
 1301TIP3    H1 3909   5.815   3.568   0.263 -0.9062 -1.6203 -0.9538
 1301TIP3    H2 3910   5.828   3.685   0.167  1.0096 -0.8975  0.1076
 1302TIP3   OH2 3911   0.469   0.143   2.141 -0.0492  0.3801 -0.6963
 1302TIP3    H1 3912   0.516   0.066   2.174  1.4259  1.4451 -0.2074
 1302TIP3    H2 3913   0.460   0.200   2.218 -1.4310  0.5613 -0.9766
 1303TIP3   OH2 3914   0.337   3.175   1.247  0.1364  0.2507  0.3832
 1303TIP3    H1 3915   0.299   3.117   1.181 -0.1319 -0.0771  0.8219
 1303TIP3    H2 3916   0.432   3.158   1.242  0.2061  0.8176 -0.4689
 1304TIP3   OH2 3917   0.089   2.691   5.012  0.4716 -0.0758  0.6605
 1304TIP3    H1 3918   0.143   2.624   5.054  0.6984 -0.2672  0.0679
 1304TIP3    H2 3919   0.007   2.691   5.062  0.5588 -0.6344  0.8047
 1305TIP3   OH2 3920   5.970   2.026   1.873 -0.4909  0.4771  0.4026
 1305TIP3    H1 3921   5.925   1.966   1.932 -0.5496  0.4715  0.3513
 1305TIP3    H2 3922   6.017   1.969   1.812 -1.4194  0.4730 -0.3291
 1306TIP3   OH2 3923   1.943   1.260   0.344  0.1905 -0.4729  0.1346
 1306TIP3    H1 3924   2.007   1.191   0.363  0.7641 -0.0161 -0.0985
 1306TIP3    H2 3925   1.955   1.324   0.415  0.3884 -0.1158 -0.2157
 1307TIP3   OH2 3926   4.103   2.368   2.246  0.9326  0.5588  0.0267
 1307TIP3    H1 3927   4.060   2.284   2.230 -0.6213  1.2171  0.6322
 1307TIP3    H2 3928   4.196   2.350   2.230  0.6523 -1.2995  0.2545
 1308TIP3   OH2 3929   2.675   4.846   3.469  0.0214  0.6579 -0.2844
 1308TIP3    H1 3930   2.710   4.759   3.455 -0.7887  0.3462 -0.4076
 1308TIP3    H2 3931   2.691   4.864   3.562 -0.1991  0.2063 -0.1584
 1309TIP3   OH2 3932   0.281   3.571   0.378  0.7621  0.6777 -0.6382
 1309TIP3    H1 3933   0.319   3.488   0.348  0.2010  0.5298 -0.9746
 1309TIP3    H2 3934   0.295   3.632   0.306  1.2885  0.9154 -0.3389
 1310TIP3   OH2 3935   0.006   1.345   2.362 -0.4840  0.0070  0.8537
 1310TIP3    H1 3936   0.058   1.280   2.316 -0.5901  0.3097  0.2917
 1310TIP3    H2 3937   0.028   1.428   2.319  0.0404  0.4202  1.8984
 1311TIP3   OH2 3938   3.099   5.969   1.737  0.5715  0.3000 -0.7935
 1311TIP3    H1 3939   3.122   5.929   1.653 -1.1502  0.2075 -1.2576
 1311TIP3    H2 3940   3.079   6.060   1.715 -0.5611  0.1078 -0.6362
 1312TIP3   OH2 3941   5.284   0.272   4.222 -0.0876 -0.4726  0.0870
 1312TIP3    H1 3942   5.257   0.359   4.191 -3.0599 -0.7321  1.4996
 1312TIP3    H2 3943   5.358   0.248   4.167  0.8821  2.9483 -0.3444
 1313TIP3   OH2 3944   3.333   1.818   1.773  0.4050 -0.2396  0.3716
 1313TIP3    H1 3945   3.249   1.798   1.814 -0.2075  0.3282 -0.5808
 1313TIP3    H2 3946   3.367   1.892   1.824 -0.6200  0.8332 -0.4780
 1314TIP3   OH2 3947   6.309   4.216   3.398 -0.0209  0.4154  0.4504
 1314TIP3    H1 3948   6.216   4.236   3.383  0.2484  2.3133  1.0092
 1314TIP3    H2 3949   6.313   4.190   3.490 -0.0931 -0.4582  0.2166
 1315TIP3   OH2 3950   2.293   4.333   4.626 -0.0151  0.0170 -0.3052
 1315TIP3    H1 3951   2.198   4.333   4.635 -0.2851  1.8017 -2.3427
 1315TIP3    H2 3952   2.324   4.282   4.700 -2.6161 -1.8979 -0.3983
 1316TIP3   OH2 3953   0.875   3.972   3.784 -0.2638 -0.0469  0.0716
 1316TIP3    H1 3954   0.914   3.934   3.863 -0.1700  1.3999  0.7543
 1316TIP3    H2 3955   0.782   3.954   3.792 -0.3973  0.9964  1.0636
 1317TIP3   OH2 3956   3.372   1.193   3.145  0.4980 -0.0705  0.2928
 1317TIP3    H1 3957   3.319   1.114   3.137 -0.0024  0.2122  0.7908
 1317TIP3    H2 3958   3.383   1.205   3.239  3.7895 -1.6942  0.2835
 1318TIP3   OH2 3959   2.341   5.012   3.336 -0.2908  0.2658  0.3026
 1318TIP3    H1 3960   2.343   4.916   3.345 -0.9626  0.3311  1.2477
 1318TIP3    H2 3961   2.395   5.029   3.259 -1.8390 -1.0306 -1.1520
 1319TIP3   OH2 3962   1.262   2.880   1.178  0.2465 -0.2077  0.0284
 1319TIP3    H1 3963   1.189   2.824   1.204 -1.1608  1.6668  0.3375
 1319TIP3    H2 3964   1.291   2.921   1.260  0.1288  0.7715 -0.4043
 1320TIP3   OH2 3965   3.657   1.093   4.662 -0.0908 -0.2529 -0.4549
 1320TIP3    H1 3966   3.739   1.083   4.710 -0.5533 -1.9893  0.0248
 1320TIP3    H2 3967   3.682   1.143   4.584  1.2003  0.1762  0.1859
 1321TIP3   OH2 3968   2.276   5.998   0.034 -0.2291 -0.0926 -0.2300
 1321TIP3    H1 3969   2.367   5.969   0.037 -0.1635  0.0662 -0.5630
 1321TIP3    H2 3970   2.254   5.998  -0.060  0.4991  3.0650 -0.5415
 1322TIP3   OH2 3971   5.903   1.782   3.136 -0.2256 -0.0276 -0.8534
 1322TIP3    H1 3972   5.887   1.877   3.137 -0.3537 -0.0459 -1.0134
 1322TIP3    H2 3973   5.867   1.753   3.052  0.5026 -0.1007 -1.1471
 1323TIP3   OH2 3974   5.018   4.757   4.608 -0.3461 -0.4877 -0.6994
 1323TIP3    H1 3975   5.007   4.840   4.655 -0.3450 -1.3997  0.9546
 1323TIP3    H2 3976   5.110   4.735   4.619 -0.4618 -0.9716 -0.6842
 1324TIP3   OH2 3977   5.620   1.359   1.895  0.4945 -0.5444 -0.2913
 1324TIP3    H1 3978   5.545   1.398   1.939  1.8919  0.8768  0.9929
 1324TIP3    H2 3979   5.659   1.431   1.846  0.8336 -1.3368 -1.2120
 1325TIP3   OH2 3980   3.557   3.672   3.316 -0.6121 -0.7764 -0.0584
 1325TIP3    H1 3981   3.475   3.719   3.329 -1.5994 -2.4742  0.1921
 1325TIP3    H2 3982   3.611   3.731   3.264 -2.0082  0.3574 -0.2761
 1326TIP3   OH2 3983   3.428   1.454   4.500  0.1880  0.1068 -0.5306
 1326TIP3    H1 3984   3.456   1.544   4.518 -0.4327 -0.0001  1.1490
 1326TIP3    H2 3985   3.374   1.430   4.576 -1.4326 -0.9434 -1.9546
 1327TIP3   OH2 3986   1.564   1.195   2.418 -1.0037 -0.0321  0.4696
 1327TIP3    H1 3987   1.507   1.163   2.487 -0.4235  1.2396  1.5947
 1327TIP3    H2 3988   1.587   1.284   2.446 -0.2920  0.3023 -1.0815
 1328TIP3   OH2 3989   2.883   2.600   3.604  0.1191 -0.0631 -0.3293
 1328TIP3    H1 3990   2.945   2.641   3.664 -0.3086  1.5576 -0.9539
 1328TIP3    H2 3991   2.846   2.527   3.655  0.1282  0.9454  1.2094
 1329TIP3   OH2 3992   3.272   4.843   0.742 -0.5006  0.0143  0.1203
 1329TIP3    H1 3993   3.260   4.930   0.702 -1.8423 -0.1469  0.1347
 1329TIP3    H2 3994   3.214   4.786   0.692  1.5111 -1.2426 -0.9224
 1330TIP3   OH2 3995   5.248   2.247   0.669  0.1804 -0.5534 -0.1653
 1330TIP3    H1 3996   5.172   2.235   0.727  0.6614  2.2191  1.1771
 1330TIP3    H2 3997   5.212   2.237   0.581 -1.1564 -2.0158  0.4851
 1331TIP3   OH2 3998   0.887   3.272   2.901 -0.3363  0.0791 -0.2125
 1331TIP3    H1 3999   0.954   3.248   2.965  0.3339 -0.5066 -1.1009
 1331TIP3    H2 4000   0.804   3.252   2.944  0.1342 -1.8294 -0.0785
 1332TIP3   OH2 4001   0.760   4.494   2.461  0.3476  0.2930 -0.3165
 1332TIP3    H1 4002   0.830   4.559   2.457  0.7683  0.1018  2.0781
 1332TIP3    H2 4003   0.802   4.415   2.497 -0.9782  0.0747  0.8886
 1333TIP3   OH2 4004   0.482   1.896   3.599 -0.0862 -0.5087 -0.2110
 1333TIP3    H1 4005   0.537   1.971   3.620 -0.3702 -0.1027 -0.8902
 1333TIP3    H2 4006   0.510   1.870   3.511 -0.3068 -0.9127 -0.1627
 1334TIP3   OH2 4007   4.420   5.769   3.887  0.4781  0.4279  0.3660
 1334TIP3    H1 4008   4.496   5.741   3.836  0.6983  0.4052  0.6991
 1334TIP3    H2 4009   4.435   5.863   3.903  0.2234  0.5204  0.0701
 1335TIP3   OH2 4010   0.814   3.606   3.281  0.0783  0.1896  0.3714
 1335TIP3    H1 4011   0.745   3.661   3.317  0.0088  1.3694 -1.4517
 1335TIP3    H2 4012   0.893   3.632   3.329 -0.3616  0.2328  1.0868
 1336TIP3   OH2 4013   4.275   2.837   3.026  0.0805 -0.1906  0.3006
 1336TIP3    H1 4014   4.290   2.902   3.095  1.1512 -0.5399  0.4194
 1336TIP3    H2 4015   4.216   2.880   2.965  1.0633  1.0549  0.1837
 1337TIP3   OH2 4016   6.018   4.046   0.671  0.3506 -0.2381  0.0163
 1337TIP3    H1 4017   6.026   4.139   0.690 -0.6689  0.2535 -1.7882
 1337TIP3    H2 4018   6.104   4.010   0.695  0.6026  1.0542  1.1869
 1338TIP3   OH2 4019   0.109   3.552   0.932  1.1344 -0.2790 -0.4009
 1338TIP3    H1 4020   0.032   3.496   0.948 -1.8565  3.0062 -1.9897
 1338TIP3    H2 4021   0.118   3.603   1.012  0.5845  0.4876 -0.8234
 1339TIP3   OH2 4022   3.189   5.798   2.747  0.2863 -0.3725  0.1849
 1339TIP3    H1 4023   3.182   5.782   2.841  0.7614  0.6248  0.4046
 1339TIP3    H2 4024   3.099   5.799   2.716  0.1525 -1.6368  0.4460
 1340TIP3   OH2 4025   5.770   2.766   3.806 -0.4664  0.2661  0.9717
 1340TIP3    H1 4026   5.818   2.818   3.871 -1.7326 -0.4741  2.6000
 1340TIP3    H2 4027   5.685   2.749   3.848 -1.3042 -0.3409 -0.8721
 1341TIP3   OH2 4028   1.015   0.457   1.971  0.1500 -0.0473  0.0214
 1341TIP3    H1 4029   1.047   0.521   1.907  1.2825 -0.6682 -0.0605
 1341TIP3    H2 4030   0.994   0.508   2.048  0.1563  0.5385 -0.3578
 1342TIP3   OH2 4031   1.645   5.471   1.360 -0.3016  0.1949 -0.6859
 1342TIP3    H1 4032   1.568   5.510   1.319  0.1399  1.4286 -0.4078
 1342TIP3    H2 4033   1.624   5.468   1.453 -0.8801 -1.5949 -0.8404
 1343TIP3   OH2 4034   2.148   0.985   1.012  0.2355  0.6357 -0.1782
 1343TIP3    H1 4035   2.221   0.926   0.997 -0.1575 -0.1479  0.8613
 1343TIP3    H2 4036   2.166   1.025   1.098 -0.7404  0.1264  0.2791
 1344TIP3   OH2 4037   6.300   3.753   2.867  0.3302  0.6806  0.3693
 1344TIP3    H1 4038   6.388   3.786   2.885  0.8615  0.8683 -2.2160
 1344TIP3    H2 4039   6.287   3.683   2.932  1.7809  1.5664  1.7002
 1345TIP3   OH2 4040   3.956   4.644   4.849 -0.6758  0.2120  0.6883
 1345TIP3    H1 4041   3.904   4.587   4.792 -0.0792 -0.7212  1.0573
 1345TIP3    H2 4042   4.001   4.703   4.789  0.8086 -1.4631  0.0508
 1346TIP3   OH2 4043   1.981   3.376   1.399  0.0438 -0.0876  0.1366
 1346TIP3    H1 4044   2.005   3.360   1.490  0.8648 -1.7896 -0.3473
 1346TIP3    H2 4045   1.887   3.393   1.402  0.2549  1.0065  1.4070
 1347TIP3   OH2 4046   3.109   1.199   4.833  0.2198 -0.2253 -0.1110
 1347TIP3    H1 4047   3.030   1.168   4.876  0.4828 -0.1554  0.4280
 1347TIP3    H2 4048   3.169   1.124   4.838  1.8452  1.1346  3.6183
 1348TIP3   OH2 4049   5.389   2.726   4.319  0.0009 -0.4386 -0.7243
 1348TIP3    H1 4050   5.433   2.652   4.361 -0.7894 -0.1150  0.7487
 1348TIP3    H2 4051   5.414   2.802   4.372 -2.0767 -0.2042  0.0005
 1349TIP3   OH2 4052   5.227   0.251   1.737  0.0387  0.0125 -0.1382
 1349TIP3    H1 4053   5.251   0.341   1.716 -0.2026  0.0364 -0.3136
 1349TIP3    H2 4054   5.149   0.260   1.792  1.2198 -0.0006  1.6370
 1350TIP3   OH2 4055   3.024   3.066   3.730 -0.0252  0.1215 -0.1785
 1350TIP3    H1 4056   3.058   2.983   3.696  0.6140  0.6840 -0.9334
 1350TIP3    H2 4057   3.066   3.133   3.677 -2.3332  0.8723 -1.1968
 1351TIP3   OH2 4058   3.607   4.808   1.340 -0.2683 -0.2313 -0.3105
 1351TIP3    H1 4059   3.643   4.747   1.276 -0.2565 -0.3333 -0.2089
 1351TIP3    H2 4060   3.517   4.823   1.311  0.3893  1.4442 -1.5844
 1352TIP3   OH2 4061   1.264   0.992   1.662 -0.0856 -0.1080  0.2707
 1352TIP3    H1 4062   1.244   0.956   1.748 -0.4688 -0.8629 -0.1214
 1352TIP3    H2 4063   1.231   1.082   1.665  1.3322  0.4028  1.4376
 1353TIP3   OH2 4064   4.351   3.129   1.892  0.2983 -0.7909 -0.0640
 1353TIP3    H1 4065   4.299   3.186   1.835  0.5049 -0.7346 -0.1939
 1353TIP3    H2 4066   4.386   3.062   1.834  0.9945 -0.3950 -0.1031
 1354TIP3   OH2 4067   4.150   2.594   4.582  0.0849  0.2324  0.1636
 1354TIP3    H1 4068   4.146   2.617   4.675  0.8328 -0.0070  0.2615
 1354TIP3    H2 4069   4.121   2.674   4.537 -1.9649 -0.1910  0.6320
 1355TIP3   OH2 4070   0.743   5.372   2.040  0.1888 -0.0444  0.5644
 1355TIP3    H1 4071   0.708   5.293   2.080 -1.7021  0.2718 -0.3366
 1355TIP3    H2 4072   0.715   5.443   2.098 -2.2563  0.3788 -0.9766
 1356TIP3   OH2 4073   0.886   2.820   0.105 -0.2609 -0.0717 -0.0979
 1356TIP3    H1 4074   0.852   2.834   0.017  2.3296  0.2247 -1.1360
 1356TIP3    H2 4075   0.966   2.872   0.109  2.0937 -3.3998  0.8409
 1357TIP3   OH2 4076   4.240   4.393   5.167  0.0784  0.4855 -0.4990
 1357TIP3    H1 4077   4.206   4.335   5.234  2.0187  0.5283  0.5859
 1357TIP3    H2 4078   4.302   4.340   5.118 -0.1194  0.9133 -1.2339
 1358TIP3   OH2 4079   6.293   2.589   1.338  0.0076  0.5659  0.1439
 1358TIP3    H1 4080   6.271   2.652   1.408  0.7500  1.5823 -0.5118
 1358TIP3    H2 4081   6.379   2.617   1.307  0.3109 -0.7452 -0.2253
 1359TIP3   OH2 4082   0.081   5.133   3.453 -0.2836 -0.0249  0.6290
 1359TIP3    H1 4083   0.101   5.219   3.491 -0.5929  1.8673 -2.9983
 1359TIP3    H2 4084   0.161   5.107   3.409 -0.7015 -0.8116  0.3140
 1360TIP3   OH2 4085   3.900   5.942   2.970 -0.3384  0.0493 -0.1277
 1360TIP3    H1 4086   3.829   5.890   2.932 -1.2679  0.0905  1.4425
 1360TIP3    H2 4087   3.968   5.943   2.903 -1.9670  0.3304 -1.8447
 1361TIP3   OH2 4088   4.958   3.836   1.160 -0.1086  0.1989  0.0089
 1361TIP3    H1 4089   5.027   3.902   1.166  0.9931 -0.8725 -0.4198
 1361TIP3    H2 4090   4.990   3.774   1.095 -1.0734 -0.8031  0.4581
 1362TIP3   OH2 4091   5.368   0.352   3.246 -0.0597 -0.3641  0.7141
 1362TIP3    H1 4092   5.380   0.309   3.162 -0.5130  0.1531  0.3817
 1362TIP3    H2 4093   5.351   0.444   3.225 -3.6698 -0.8060  1.1341
 1363TIP3   OH2 4094   6.099   1.265   1.902  0.1546 -0.4525 -0.1320
 1363TIP3    H1 4095   6.183   1.299   1.870  0.9517 -1.4955  0.7540
 1363TIP3    H2 4096   6.069   1.207   1.833  1.1859 -1.6236  0.3496
 1364TIP3   OH2 4097   0.256   3.389   3.821  0.5227 -0.2071  0.2641
 1364TIP3    H1 4098   0.254   3.481   3.794 -0.5848 -0.1522  0.4823
 1364TIP3    H2 4099   0.175   3.352   3.786  0.7743 -1.0027  0.5138
 1365TIP3   OH2 4100   5.576   5.397   0.240  0.0234  0.1096 -0.3577
 1365TIP3    H1 4101   5.598   5.323   0.297  0.7873  0.6226  0.0333
 1365TIP3    H2 4102   5.651   5.456   0.248 -1.1277  1.5491  0.3800
 1366TIP3   OH2 4103   1.014   2.540   1.065 -0.7751 -0.6462 -0.4899
 1366TIP3    H1 4104   1.016   2.465   1.125 -0.1740 -0.1901  0.0726
 1366TIP3    H2 4105   1.062   2.510   0.988 -0.8845 -0.9701 -0.4369
 1367TIP3   OH2 4106   0.990   2.379   4.176  0.1071  0.0036 -0.6890
 1367TIP3    H1 4107   1.066   2.320   4.177  0.9424  1.0511 -0.1972
 1367TIP3    H2 4108   0.921   2.330   4.220  1.3818  0.1163  1.5877
 1368TIP3   OH2 4109   3.505   5.013   3.501 -0.3316 -0.0078 -0.0729
 1368TIP3    H1 4110   3.440   5.079   3.477 -0.6878 -0.1842  0.3975
 1368TIP3    H2 4111   3.530   5.036   3.590  0.2621  0.0642 -0.2537
 1369TIP3   OH2 4112   1.013   5.351   3.255  0.1675  0.0156  0.3407
 1369TIP3    H1 4113   1.066   5.410   3.202 -0.4027 -0.6612 -1.0297
 1369TIP3    H2 4114   1.052   5.265   3.243 -0.0001 -0.1604  0.9978
 1370TIP3   OH2 4115   5.715   4.684   4.423 -0.0200 -0.1803  1.0021
 1370TIP3    H1 4116   5.662   4.605   4.434  0.2102 -0.8550 -1.8732
 1370TIP3    H2 4117   5.797   4.653   4.384  0.3012  1.4284  0.3168
 1371TIP3   OH2 4118   2.394   3.810   0.321  0.6206 -0.0046 -0.5264
 1371TIP3    H1 4119   2.445   3.749   0.374  0.3327  0.9645  0.9374
 1371TIP3    H2 4120   2.383   3.887   0.377 -2.4314 -0.1597 -0.7679
 1372TIP3   OH2 4121   2.683   2.083   1.397  0.4605 -0.2247  0.5439
 1372TIP3    H1 4122   2.665   2.087   1.491  0.8075 -0.5032  0.6275
 1372TIP3    H2 4123   2.778   2.076   1.392  0.4975  0.5351  0.1423
 1373TIP3   OH2 4124   5.261   3.006   3.862 -0.2318  0.4507  0.3539
 1373TIP3    H1 4125   5.342   3.048   3.890 -0.6026  1.1874  0.3490
 1373TIP3    H2 4126   5.288   2.920   3.829  0.2452 -0.4402  2.8666
 1374TIP3   OH2 4127   2.195   0.943   3.495  0.1448 -0.0596 -0.4160
 1374TIP3    H1 4128   2.224   0.951   3.586 -0.8721 -0.0933 -0.0749
 1374TIP3    H2 4129   2.102   0.966   3.497 -0.3202 -1.7113 -1.1498
 1375TIP3   OH2 4130   0.712   3.285   3.936 -0.0976 -0.5724  0.0344
 1375TIP3    H1 4131   0.705   3.190   3.935  1.1332 -0.6939  0.6708
 1375TIP3    H2 4132   0.781   3.304   3.872  0.2155 -0.1796  0.4835
 1376TIP3   OH2 4133   1.069   3.266   1.703 -0.6512 -0.2116 -0.0503
 1376TIP3    H1 4134   1.146   3.210   1.713  0.1781  0.6804 -1.2170
 1376TIP3    H2 4135   1.099   3.353   1.731 -1.3581  0.0671 -0.1366
 1377TIP3   OH2 4136   5.521   3.267   3.230 -0.3970  0.1428  0.2056
 1377TIP3    H1 4137   5.454   3.213   3.271  0.1907 -0.6890  0.1106
 1377TIP3    H2 4138   5.476   3.313   3.160 -1.0539  0.2987  0.7231
 1378TIP3   OH2 4139   3.198   0.425   2.128 -1.1767  0.3371  0.4188
 1378TIP3    H1 4140   3.156   0.353   2.082  0.9706 -0.0070 -1.1202
 1378TIP3    H2 4141   3.167   0.504   2.082 -0.6965  0.1412 -0.2406
 1379TIP3   OH2 4142   1.552   5.733   0.461 -0.5258 -0.0050  0.2312
 1379TIP3    H1 4143   1.484   5.801   0.457  0.2357  0.7514 -0.2270
 1379TIP3    H2 4144   1.604   5.747   0.382  0.1644 -0.5779  0.5753
 1380TIP3   OH2 4145   2.942   3.863   4.513  0.0399 -0.1744 -0.5933
 1380TIP3    H1 4146   3.007   3.804   4.551  1.9448  0.4603 -2.6290
 1380TIP3    H2 4147   2.865   3.854   4.569  1.1414 -2.5894  0.6697
 1381TIP3   OH2 4148   5.254   4.548   2.092 -0.0829 -0.0482 -0.3644
 1381TIP3    H1 4149   5.264   4.484   2.021  1.2427 -0.9748  0.6026
 1381TIP3    H2 4150   5.341   4.551   2.133 -1.0823 -0.3905  1.9210
 1382TIP3   OH2 4151   0.306   0.526   2.628 -0.6181  0.0131 -0.2952
 1382TIP3    H1 4152   0.296   0.616   2.596  0.4237  1.1824  2.3219
 1382TIP3    H2 4153   0.400   0.516   2.643 -0.4977 -2.1296 -1.9575
 1383TIP3   OH2 4154   0.691   2.483   1.057 -0.2335  0.2921 -0.2902
 1383TIP3    H1 4155   0.679   2.392   1.030  0.5361  0.5686 -1.6630
 1383TIP3    H2 4156   0.769   2.481   1.113 -0.6991  0.0040  0.3678
 1384TIP3   OH2 4157   3.289   4.692   2.415  0.1755  0.1226 -0.7525
 1384TIP3    H1 4158   3.359   4.640   2.453 -0.3736 -0.6931 -0.8193
 1384TIP3    H2 4159   3.230   4.627   2.376 -0.7924  0.7499 -0.3841
 1385TIP3   OH2 4160   1.293   1.139   2.091  0.0839  0.4523  0.3619
 1385TIP3    H1 4161   1.271   1.152   2.183 -1.6436  0.3457 -0.0119
 1385TIP3    H2 4162   1.308   1.044   2.083 -1.7351  0.1508  0.1630
 1386TIP3   OH2 4163   4.360   3.893   0.166  0.0315 -0.0521 -0.8042
 1386TIP3    H1 4164   4.374   3.959   0.098  4.3413  0.6714  0.5013
 1386TIP3    H2 4165   4.391   3.811   0.127  0.8070  0.0072 -0.3251
 1387TIP3   OH2 4166   5.258   2.979   1.727  0.5040  0.2203 -0.4134
 1387TIP3    H1 4167   5.328   2.941   1.674 -0.0367 -0.4724 -0.6516
 1387TIP3    H2 4168   5.179   2.965   1.676 -0.1132 -0.9738  0.8096
 1388TIP3   OH2 4169   1.715   2.049   3.094 -0.2810  0.0195  0.3363
 1388TIP3    H1 4170   1.632   2.062   3.048  0.4391  0.2256 -0.9516
 1388TIP3    H2 4171   1.724   2.126   3.149 -0.2544  0.7325 -0.6328
 1389TIP3   OH2 4172   3.125   0.212   1.881  0.1623 -0.2453 -0.5074
 1389TIP3    H1 4173   3.098   0.121   1.891  1.8368 -0.9358 -1.8449
 1389TIP3    H2 4174   3.217   0.207   1.854  0.9692  1.9005  1.5291
 1390TIP3   OH2 4175   3.412   2.146   4.076 -0.2169  0.0085  0.2489
 1390TIP3    H1 4176   3.398   2.221   4.018 -1.0663  0.3339  0.8649
 1390TIP3    H2 4177   3.336   2.090   4.063 -1.2887  0.9043  2.2632
 1391TIP3   OH2 4178   3.236   4.992   3.609  0.0724  0.1628 -0.2541
 1391TIP3    H1 4179   3.293   4.952   3.675  0.8673 -1.5694 -1.8793
 1391TIP3    H2 4180   3.149   4.959   3.629  0.2073  0.1379  0.2939
 1392TIP3   OH2 4181   2.145   3.954   3.949 -0.0629 -0.4754  0.2325
 1392TIP3    H1 4182   2.179   3.883   4.003  0.3763 -0.8470 -0.5043
 1392TIP3    H2 4183   2.153   3.920   3.859  0.8460  0.7839 -0.1861
 1393TIP3   OH2 4184   4.846   0.915   5.116 -0.2585 -0.6273 -0.9494
 1393TIP3    H1 4185   4.767   0.969   5.128  0.7917  0.7240  0.1873
 1393TIP3    H2 4186   4.886   0.911   5.203  1.4222 -0.5039 -1.6812
 1394TIP3   OH2 4187   4.148   3.770   4.131 -0.1203 -0.2200  0.0145
 1394TIP3    H1 4188   4.175   3.849   4.084 -1.6662 -0.6277 -1.7007
 1394TIP3    H2 4189   4.224   3.745   4.184  0.1705  2.7904  1.1849
 1395TIP3   OH2 4190   1.317   4.081   4.161  0.0218  0.1714  0.3490
 1395TIP3    H1 4191   1.299   4.174   4.176 -0.5684 -0.0121  0.8478
 1395TIP3    H2 4192   1.232   4.044   4.137  0.8137  0.3603 -3.2647
 1396TIP3   OH2 4193   6.087   5.140   2.613  0.5830 -0.0073  0.0785
 1396TIP3    H1 4194   6.172   5.096   2.606  1.0062  0.7906 -0.0026
 1396TIP3    H2 4195   6.023   5.069   2.616  1.1845 -0.6064 -0.8305
 1397TIP3   OH2 4196   2.145   5.048   4.464 -0.2696  0.4873 -0.2324
 1397TIP3    H1 4197   2.097   5.092   4.534 -0.0657  0.2466  0.0619
 1397TIP3    H2 4198   2.210   5.112   4.435  0.7519  0.0304  0.9283
 1398TIP3   OH2 4199   2.156   0.483   2.787 -0.2822  0.2786 -0.0560
 1398TIP3    H1 4200   2.155   0.416   2.719 -1.9617  0.5831 -0.3720
 1398TIP3    H2 4201   2.232   0.538   2.765  1.1444 -1.5009  0.2448
 1399TIP3   OH2 4202   3.990   2.924   4.044 -0.6585  0.8564 -0.3475
 1399TIP3    H1 4203   4.023   3.012   4.027 -1.3177  0.8123 -1.9863
 1399TIP3    H2 4204   3.951   2.929   4.132  3.2437  0.9958  1.5687
 1400TIP3   OH2 4205   5.654   2.367   4.260 -0.5396 -0.0209  0.1875
 1400TIP3    H1 4206   5.706   2.348   4.338 -1.2137 -0.1829  0.6063
 1400TIP3    H2 4207   5.717   2.402   4.197  0.2881 -1.2875  0.2724
 1401TIP3   OH2 4208   5.100   3.059   2.450  0.8998 -0.0773  0.2486
 1401TIP3    H1 4209   5.184   3.085   2.413  1.2959  0.2198  1.2986
 1401TIP3    H2 4210   5.112   2.968   2.476  0.9918  0.0365  0.6203
 1402TIP3   OH2 4211   0.569   1.481   3.937  0.2009 -0.6128 -0.0847
 1402TIP3    H1 4212   0.516   1.497   4.014  0.3474 -0.2845 -0.0503
 1402TIP3    H2 4213   0.509   1.491   3.863  0.0561 -0.9492 -0.0158
 1403TIP3   OH2 4214   1.187   5.530   1.653 -0.0545 -0.0431  0.6671
 1403TIP3    H1 4215   1.245   5.564   1.721 -0.7460  1.2911  0.6291
 1403TIP3    H2 4216   1.141   5.607   1.620 -0.5394 -0.8245 -0.5484
 1404TIP3   OH2 4217   1.443   2.693   1.010 -0.2289 -0.5542 -0.5405
 1404TIP3    H1 4218   1.364   2.695   1.065 -0.2792  1.0817 -0.6239
 1404TIP3    H2 4219   1.511   2.732   1.065  0.1109 -0.3793 -1.0820
 1405TIP3   OH2 4220   0.271   2.281   3.887 -0.0499  0.9878  0.3568
 1405TIP3    H1 4221   0.314   2.330   3.958 -0.1251  0.8412  0.5031
 1405TIP3    H2 4222   0.186   2.257   3.923  0.2287  0.2066  0.5116
 1406TIP3   OH2 4223   4.947   0.390   2.877 -0.0859  0.2389 -0.1459
 1406TIP3    H1 4224   5.008   0.464   2.870  1.0877 -0.8027 -1.5332
 1406TIP3    H2 4225   5.000   0.320   2.914  0.9800 -2.0006 -5.1248
 1407TIP3   OH2 4226   4.993   0.349   5.042 -0.0513  0.3838  0.3535
 1407TIP3    H1 4227   5.084   0.374   5.028 -0.1806  0.5493 -0.2399
 1407TIP3    H2 4228   4.950   0.429   5.071  0.2603 -0.0094  2.0018
 1408TIP3   OH2 4229   5.124   3.938   3.481  0.0047 -0.0120 -0.2262
 1408TIP3    H1 4230   5.158   3.849   3.482 -0.5596 -0.2430 -0.8752
 1408TIP3    H2 4231   5.035   3.930   3.515  0.2021  0.4197  0.4061
 1409TIP3   OH2 4232   4.288   1.286   2.202  0.1693 -0.1605 -0.4285
 1409TIP3    H1 4233   4.305   1.375   2.234  0.0807 -0.4858  0.5412
 1409TIP3    H2 4234   4.312   1.289   2.109  0.7653  0.7126 -0.2549
 1410TIP3   OH2 4235   0.721   5.754   1.933 -0.2381  0.1633  0.0179
 1410TIP3    H1 4236   0.670   5.765   2.013 -1.7196  2.5507 -1.1267
 1410TIP3    H2 4237   0.668   5.697   1.878  0.3949 -0.8081  0.3845
 1411TIP3   OH2 4238   5.061   2.339   4.904  0.4538  0.1278  0.0624
 1411TIP3    H1 4239   5.111   2.344   4.822 -0.6145 -0.5228 -0.6682
 1411TIP3    H2 4240   4.984   2.394   4.888 -0.1973 -0.6956  0.2811
 1412TIP3   OH2 4241   5.497   3.388   0.799 -0.1491 -0.0914  0.3148
 1412TIP3    H1 4242   5.424   3.449   0.813 -1.5599 -1.3704 -1.0615
 1412TIP3    H2 4243   5.571   3.429   0.843 -1.4293  1.8082  0.8330
 1413TIP3   OH2 4244   2.497   4.991   2.374  0.6800  0.4444  0.0355
 1413TIP3    H1 4245   2.402   4.992   2.388  0.2653  0.8886 -2.3707
 1413TIP3    H2 4246   2.515   5.071   2.325  1.8379 -0.9095 -1.8916
 1414TIP3   OH2 4247   2.226   4.553   3.132  0.0303  0.3312 -1.0437
 1414TIP3    H1 4248   2.147   4.500   3.141 -1.5669  2.6167 -0.7148
 1414TIP3    H2 4249   2.265   4.553   3.220  1.1439 -1.7532 -1.4619
 1415TIP3   OH2 4250   0.636   5.595   1.141 -0.6673  0.6838  0.3757
 1415TIP3    H1 4251   0.731   5.591   1.150 -0.8539 -2.3620  2.8188
 1415TIP3    H2 4252   0.615   5.524   1.080 -1.4274 -1.4236  2.8665
 1416TIP3   OH2 4253   2.836   4.159   3.664 -0.0831 -0.6717 -0.6011
 1416TIP3    H1 4254   2.790   4.092   3.716 -1.6371 -0.0133 -1.0778
 1416TIP3    H2 4255   2.849   4.232   3.724 -1.6015 -0.0318 -1.0167
 1417TIP3   OH2 4256   5.245   4.403   1.537  0.5989 -0.1523  0.1869
 1417TIP3    H1 4257   5.285   4.485   1.507  0.6790  0.6055  2.1974
 1417TIP3    H2 4258   5.176   4.385   1.474  1.0527  1.0618 -0.6986
 1418TIP3   OH2 4259   4.608   3.608   3.035 -0.0443 -0.4022 -0.4586
 1418TIP3    H1 4260   4.675   3.547   3.004  1.1464  0.2653  0.7031
 1418TIP3    H2 4261   4.610   3.679   2.971 -0.0072 -0.6167 -0.7005
 1419TIP3   OH2 4262   0.103   4.973   4.575 -0.6740  0.0083 -0.3239
 1419TIP3    H1 4263   0.020   5.021   4.577 -1.0503 -0.5572 -1.4335
 1419TIP3    H2 4264   0.166   5.035   4.539 -0.9110  0.0406 -0.6915
 1420TIP3   OH2 4265   3.979   1.801   4.016 -0.0219 -0.0882  0.1644
 1420TIP3    H1 4266   3.935   1.780   4.099 -0.2498 -1.0679 -0.1965
 1420TIP3    H2 4267   4.065   1.832   4.042 -0.3055  0.1914  0.7984
 1421TIP3   OH2 4268   5.428   1.973   3.631  0.5190 -0.1162  0.0222
 1421TIP3    H1 4269   5.400   2.047   3.686 -0.4103 -0.8806  0.5983
 1421TIP3    H2 4270   5.455   2.014   3.549  1.8399  1.0437  0.9921
 1422TIP3   OH2 4271   5.428   3.946   1.174  0.1479  0.4890  0.1270
 1422TIP3    H1 4272   5.367   3.872   1.182 -0.0852  0.8376  2.2679
 1422TIP3    H2 4273   5.483   3.924   1.099 -1.2011 -0.8937 -0.5046
 1423TIP3   OH2 4274   0.917   0.396   0.487  0.1636  0.3407 -0.2591
 1423TIP3    H1 4275   0.880   0.423   0.403 -1.0676  0.7654  0.3961
 1423TIP3    H2 4276   1.006   0.432   0.486 -1.0611  3.7845  0.1619
 1424TIP3   OH2 4277   5.302   1.290   2.573 -0.2338 -0.0577 -0.4274
 1424TIP3    H1 4278   5.213   1.293   2.538 -1.2191 -0.6141  1.8857
 1424TIP3    H2 4279   5.354   1.340   2.510 -2.7071  2.8709 -0.3583
 1425TIP3   OH2 4280   4.145   3.987   0.586  0.0027 -0.6899  0.0209
 1425TIP3    H1 4281   4.137   3.948   0.672  5.3562  0.4910  1.4282
 1425TIP3    H2 4282   4.180   3.917   0.530  0.9918 -0.3056  0.1337
 1426TIP3   OH2 4283   6.068   3.232   0.235 -0.1898 -0.1093 -0.1789
 1426TIP3    H1 4284   5.986   3.280   0.244 -0.1763 -0.3817  1.5496
 1426TIP3    H2 4285   6.135   3.300   0.230 -0.2066  0.1121  1.9114
 1427TIP3   OH2 4286   5.205   1.653   2.383 -0.0563 -0.1173  0.1491
 1427TIP3    H1 4287   5.169   1.568   2.356  1.3437 -0.0221 -2.3430
 1427TIP3    H2 4288   5.144   1.717   2.348 -0.3990 -0.0362  0.8669
 1428TIP3   OH2 4289   0.591   3.153   4.698  0.6761 -0.2067 -0.4611
 1428TIP3    H1 4290   0.634   3.224   4.744  0.0821 -0.3895  0.4048
 1428TIP3    H2 4291   0.629   3.154   4.610 -0.4825  2.2394 -1.0268
 1429TIP3   OH2 4292   1.843   3.946   3.368 -0.2574 -0.3537  0.0969
 1429TIP3    H1 4293   1.927   3.901   3.377 -0.0581 -0.1269 -0.5710
 1429TIP3    H2 4294   1.778   3.884   3.401  0.3439  0.1712  2.4682
 1430TIP3   OH2 4295   3.481   1.228   3.474  0.4260  0.6382 -0.2480
 1430TIP3    H1 4296   3.479   1.285   3.551 -0.6035 -0.0502  0.2544
 1430TIP3    H2 4297   3.398   1.181   3.476  0.1797  0.9310 -2.0568
 1431TIP3   OH2 4298   2.710   5.669   0.908  0.1820 -0.1357 -0.1081
 1431TIP3    H1 4299   2.680   5.664   0.999  1.2603 -1.3306  0.2195
 1431TIP3    H2 4300   2.793   5.717   0.914 -0.7286  1.5876 -0.7590
 1432TIP3   OH2 4301   2.235   4.925   0.644  0.2880  0.2984  0.3012
 1432TIP3    H1 4302   2.146   4.948   0.618  0.4504  0.7082  0.1017
 1432TIP3    H2 4303   2.230   4.913   0.739  0.2455  1.3892  0.4423
 1433TIP3   OH2 4304   5.345   1.735   1.998 -0.0324 -0.0966  0.6089
 1433TIP3    H1 4305   5.258   1.773   2.009  1.3045  2.9326  1.8264
 1433TIP3    H2 4306   5.384   1.739   2.085  1.3685 -1.3569  0.0828
 1434TIP3   OH2 4307   4.002   5.298   1.277  0.3826 -0.4391 -0.6472
 1434TIP3    H1 4308   3.914   5.265   1.260  1.1474 -2.0162 -1.7984
 1434TIP3    H2 4309   3.992   5.393   1.277 -1.5182 -0.5930  0.5170
 1435TIP3   OH2 4310   4.592   5.753   4.116  0.6846 -0.3060  0.0082
 1435TIP3    H1 4311   4.681   5.758   4.081  1.6272 -1.5507  2.0309
 1435TIP3    H2 4312   4.561   5.843   4.114  0.2667 -0.3118 -4.6516
 1436TIP3   OH2 4313   3.589   1.342   3.957 -0.1421 -0.2467  0.2599
 1436TIP3    H1 4314   3.624   1.406   3.894  1.6697 -0.9719  0.4603
 1436TIP3    H2 4315   3.513   1.305   3.914 -0.4077  1.0598 -0.4436
 1437TIP3   OH2 4316   5.534   1.357   1.519 -0.5630  0.2884  0.2741
 1437TIP3    H1 4317   5.626   1.372   1.498 -1.0903  1.1306 -1.7674
 1437TIP3    H2 4318   5.535   1.303   1.598  1.6332  1.8099  1.3815
 1438TIP3   OH2 4319   4.304   2.686   4.191  0.1324 -0.1804 -0.9249
 1438TIP3    H1 4320   4.287   2.765   4.243  0.3995  0.4620 -1.7799
 1438TIP3    H2 4321   4.317   2.617   4.255 -2.6341 -0.0907 -0.1729
 1439TIP3   OH2 4322   0.879   1.090   0.622 -0.1439 -0.0287 -0.4883
 1439TIP3    H1 4323   0.961   1.132   0.594  0.6537  0.4032  2.2127
 1439TIP3    H2 4324   0.829   1.161   0.663  0.1216 -1.1152  1.8822
 1440TIP3   OH2 4325   2.270   5.269   3.425 -0.0344 -0.0452  0.1970
 1440TIP3    H1 4326   2.276   5.183   3.385  0.8596  0.6881 -1.3320
 1440TIP3    H2 4327   2.306   5.257   3.513 -1.6915 -1.6109  0.7208
 1441TIP3   OH2 4328   6.176   4.159   2.775 -0.3016  0.2846  1.0289
 1441TIP3    H1 4329   6.101   4.102   2.792  0.6204 -2.3434 -2.4576
 1441TIP3    H2 4330   6.247   4.098   2.753  1.1753  2.7335 -1.5499
 1442TIP3   OH2 4331   0.658   4.186   4.103  0.0786  0.3653 -0.8623
 1442TIP3    H1 4332   0.600   4.121   4.063  0.4810  1.2769 -3.1193
 1442TIP3    H2 4333   0.723   4.204   4.035  1.3312  1.4332  0.5614
 1443TIP3   OH2 4334   1.812   2.713   0.373 -0.7308 -0.0786 -0.3229
 1443TIP3    H1 4335   1.804   2.643   0.307 -1.3680  0.0155 -0.3440
 1443TIP3    H2 4336   1.837   2.667   0.453 -0.7175 -0.2780 -0.4384
 1444TIP3   OH2 4337   3.799   4.227   0.894  0.2145 -0.1194  0.0771
 1444TIP3    H1 4338   3.804   4.297   0.959  0.3733  1.8518 -1.9161
 1444TIP3    H2 4339   3.761   4.269   0.817  0.7731 -2.1206 -1.3765
 1445TIP3   OH2 4340   4.238   1.881   4.108  0.2184  0.0706  0.1184
 1445TIP3    H1 4341   4.292   1.959   4.103  0.5511 -0.2185 -0.8964
 1445TIP3    H2 4342   4.243   1.854   4.200  1.4742  0.2757  0.1164
 1446TIP3   OH2 4343   4.730   2.623   4.540  0.3985 -0.1702 -0.2997
 1446TIP3    H1 4344   4.742   2.686   4.611  2.6500  0.7099 -1.3567
 1446TIP3    H2 4345   4.699   2.676   4.466  3.3842  0.0323 -1.5330
 1447TIP3   OH2 4346   5.351   4.116   3.375 -0.4744 -0.6867 -0.0270
 1447TIP3    H1 4347   5.424   4.141   3.432  1.5783 -1.3885 -2.1736
 1447TIP3    H2 4348   5.289   4.073   3.433 -0.2396  1.8224  2.2825
 1448TIP3   OH2 4349   4.806   2.982   1.010 -0.3102  0.0890 -0.5655
 1448TIP3    H1 4350   4.882   2.980   0.952  0.8715 -0.5187  0.9568
 1448TIP3    H2 4351   4.816   3.063   1.060  0.4352 -0.9584  1.0310
 1449TIP3   OH2 4352   2.082   3.494   4.827  0.0373 -0.1689  0.6081
 1449TIP3    H1 4353   2.086   3.456   4.915 -1.7958 -0.9178  0.4239
 1449TIP3    H2 4354   2.061   3.586   4.841 -0.1312 -0.2579  0.9566
 1450TIP3   OH2 4355   5.641   3.280   1.221  0.2836  0.2930 -0.1217
 1450TIP3    H1 4356   5.714   3.337   1.198  0.0605  0.8137  0.4489
 1450TIP3    H2 4357   5.639   3.280   1.317 -0.2862  0.0513 -0.1285
 1451TIP3   OH2 4358   6.316   1.368   3.483  0.8017  0.1875  0.3211
 1451TIP3    H1 4359   6.405   1.356   3.450  1.3008  0.0360  1.6567
 1451TIP3    H2 4360   6.288   1.281   3.512 -0.7965 -0.3074 -2.3975
 1452TIP3   OH2 4361   5.252   3.815   0.214  0.2067 -0.1284 -0.9431
 1452TIP3    H1 4362   5.321   3.799   0.278  0.8133  0.9610 -1.2955
 1452TIP3    H2 4363   5.221   3.904   0.233  1.1245  0.6300 -2.7907
 1453TIP3   OH2 4364   0.309   5.313   3.221 -0.0533 -0.1485  0.1799
 1453TIP3    H1 4365   0.215   5.305   3.203  0.0955 -1.3782 -0.2012
 1453TIP3    H2 4366   0.346   5.351   3.141  0.0773 -1.9630 -0.6769
 1454TIP3   OH2 4367   4.290   3.395   3.245  0.1476  0.2881  0.5288
 1454TIP3    H1 4368   4.307   3.489   3.253 -0.7576  0.6563 -1.2515
 1454TIP3    H2 4369   4.367   3.353   3.283  0.9905  1.7597  0.5332
 1455TIP3   OH2 4370   0.304   5.282   4.574  0.1775 -0.5781  0.4005
 1455TIP3    H1 4371   0.298   5.249   4.484  0.8489 -0.8225  0.4381
 1455TIP3    H2 4372   0.328   5.374   4.565 -0.1475 -0.4969  0.3278
 1456TIP3   OH2 4373   3.358   5.779   2.122  0.2682  0.3605 -0.7721
 1456TIP3    H1 4374   3.412   5.817   2.053 -0.1449 -0.4317 -1.5472
 1456TIP3    H2 4375   3.268   5.789   2.090  0.1790 -2.0738 -1.4500
 1457TIP3   OH2 4376   1.672   1.522   4.613 -0.1232 -0.1719 -0.4688
 1457TIP3    H1 4377   1.598   1.527   4.553 -0.8963  0.9617  0.5326
 1457TIP3    H2 4378   1.680   1.610   4.650 -0.0018 -0.9200  1.4346
 1458TIP3   OH2 4379   0.565   3.944   3.227 -0.1982  0.3691  0.0286
 1458TIP3    H1 4380   0.489   4.002   3.228 -0.4429  0.0981  1.9183
 1458TIP3    H2 4381   0.639   4.001   3.246 -0.2874  0.2624  0.7328
 1459TIP3   OH2 4382   1.753   3.638   4.016  0.0363 -0.1702  0.1641
 1459TIP3    H1 4383   1.676   3.693   4.036 -0.1992 -0.4099 -0.0871
 1459TIP3    H2 4384   1.825   3.683   4.060 -0.1963  0.2159  0.1587
 1460TIP3   OH2 4385   3.300   0.421   4.218  0.3528 -0.0953 -0.3782
 1460TIP3    H1 4386   3.364   0.370   4.267 -0.1722 -2.5902 -2.0785
 1460TIP3    H2 4387   3.245   0.461   4.285  1.9839 -0.1250  1.0667
 1461TIP3   OH2 4388   4.989   5.243   4.133  0.1061 -0.1593  0.4465
 1461TIP3    H1 4389   5.023   5.318   4.084 -1.3735 -0.5389 -1.2367
 1461TIP3    H2 4390   4.954   5.281   4.213 -1.6668  1.1603 -0.8845
 1462TIP3   OH2 4391   3.059   5.277   0.446  0.2421 -0.1626  0.0528
 1462TIP3    H1 4392   3.101   5.194   0.470 -2.4137 -0.7801  3.3021
 1462TIP3    H2 4393   2.999   5.255   0.375  0.8593 -0.5622 -0.3579
 1463TIP3   OH2 4394   2.936   4.117   0.118  0.4662  0.3651 -0.2704
 1463TIP3    H1 4395   2.864   4.160   0.165  1.6027  0.4459  1.5064
 1463TIP3    H2 4396   3.007   4.181   0.121  0.4860  0.5028 -2.4686
 1464TIP3   OH2 4397   0.867   1.707   3.363 -0.1870 -0.5898 -0.1811
 1464TIP3    H1 4398   0.828   1.621   3.378  0.5443 -1.3082 -2.0742
 1464TIP3    H2 4399   0.853   1.754   3.445 -0.9308 -2.3748  0.7798
 1465TIP3   OH2 4400   1.343   5.717   1.457  0.1617 -0.4034 -0.1042
 1465TIP3    H1 4401   1.268   5.693   1.403  1.1108  0.7274 -2.0466
 1465TIP3    H2 4402   1.335   5.663   1.535 -1.9559 -1.2354 -0.8265
 1466TIP3   OH2 4403   5.683   1.870   3.571 -0.7164  0.2916 -0.1773
 1466TIP3    H1 4404   5.678   1.803   3.502  2.2192  1.5557 -1.7787
 1466TIP3    H2 4405   5.638   1.946   3.535  1.2571  1.1218 -1.0065
 1467TIP3   OH2 4406   5.833   0.400   2.307  0.1439 -0.0161  0.4337
 1467TIP3    H1 4407   5.755   0.455   2.319 -0.0820 -0.0231 -0.8048
 1467TIP3    H2 4408   5.818   0.357   2.223  0.0530 -2.4253  1.6122
 1468TIP3   OH2 4409   4.743   4.582   3.445 -0.1376 -0.1828 -0.5008
 1468TIP3    H1 4410   4.819   4.524   3.440  0.4697  0.6166 -0.7398
 1468TIP3    H2 4411   4.774   4.659   3.493 -1.2197 -0.4794  0.7274
 1469TIP3   OH2 4412   5.502   1.504   2.732  0.5888  0.0699  0.4945
 1469TIP3    H1 4413   5.408   1.498   2.712  0.2065  0.0601  2.2046
 1469TIP3    H2 4414   5.518   1.597   2.744  0.7091  0.0277  0.6529
 1470TIP3   OH2 4415   0.095   4.771   2.733  0.0326  0.3386  0.0876
 1470TIP3    H1 4416   0.190   4.784   2.728  0.0231  1.4451  1.9753
 1470TIP3    H2 4417   0.078   4.754   2.826 -1.6178 -0.0028 -0.2436
 1471TIP3   OH2 4418   1.800   4.741   1.340 -0.3880 -0.2746 -0.1677
 1471TIP3    H1 4419   1.759   4.745   1.426  0.1074 -1.5160  0.1506
 1471TIP3    H2 4420   1.864   4.812   1.340 -0.4740 -0.1946  0.4467
 1472TIP3   OH2 4421   0.580   2.849   2.000 -0.2973  0.1885 -0.1634
 1472TIP3    H1 4422   0.520   2.778   1.976  0.1842 -0.9512  1.7319
 1472TIP3    H2 4423   0.572   2.913   1.930  0.0376 -2.2155 -2.5723
 1473TIP3   OH2 4424   0.646   0.095   2.529  0.2157 -0.0647  0.1973
 1473TIP3    H1 4425   0.657   0.163   2.463  0.4205  0.2553  0.5566
 1473TIP3    H2 4426   0.676   0.136   2.610 -0.9281 -0.1291  0.6720
 1474TIP3   OH2 4427   5.430   5.271   2.117  0.1536 -0.0181  0.2737
 1474TIP3    H1 4428   5.448   5.237   2.205 -0.9602  0.8737  0.8737
 1474TIP3    H2 4429   5.354   5.220   2.087 -0.7965  1.0876  0.7110
 1475TIP3   OH2 4430   5.123   4.262   2.438  0.3825  0.3152 -0.4243
 1475TIP3    H1 4431   5.125   4.265   2.342 -0.8010  1.0586 -0.4491
 1475TIP3    H2 4432   5.117   4.169   2.458  0.2553  0.1709 -1.0891
 1476TIP3   OH2 4433   3.259   4.797   2.135  0.1455  0.2020 -0.0583
 1476TIP3    H1 4434   3.259   4.770   2.227  0.0442  1.0345  0.1894
 1476TIP3    H2 4435   3.179   4.758   2.099  1.2208 -1.9151 -0.3578
 1477TIP3   OH2 4436   4.022   0.679   3.256 -0.1033 -0.1061  0.0967
 1477TIP3    H1 4437   3.929   0.693   3.237 -0.0334  0.3667  0.1028
 1477TIP3    H2 4438   4.067   0.752   3.213  0.3071 -0.5458 -0.2476
 1478TIP3   OH2 4439   1.369   1.643   2.133  0.0715  0.5430 -0.4380
 1478TIP3    H1 4440   1.362   1.599   2.218 -0.6366  0.8644 -0.3202
 1478TIP3    H2 4441   1.418   1.582   2.078 -0.0948  0.0122 -0.0061
 1479TIP3   OH2 4442   4.380   1.837   0.825  0.3850  0.6008 -0.2188
 1479TIP3    H1 4443   4.319   1.895   0.779  1.5832  0.8627 -1.5170
 1479TIP3    H2 4444   4.408   1.888   0.901  0.6101  1.3303 -0.7768
 1480TIP3   OH2 4445   1.307   1.773   1.882 -0.0569 -0.5811 -0.5274
 1480TIP3    H1 4446   1.332   1.681   1.888  0.2487 -0.4697 -0.0817
 1480TIP3    H2 4447   1.327   1.810   1.968  0.2623  0.0110 -0.8472
 1481TIP3   OH2 4448   5.376   0.445   2.670  0.0028  0.3201 -0.2844
 1481TIP3    H1 4449   5.469   0.430   2.653  0.1741 -3.3281  2.6091
 1481TIP3    H2 4450   5.332   0.418   2.589  1.3662 -0.5821 -0.7595
 1482TIP3   OH2 4451   1.394   2.559   0.461 -0.9173 -0.0208  0.9316
 1482TIP3    H1 4452   1.303   2.543   0.486 -1.2238  0.1375 -0.0437
 1482TIP3    H2 4453   1.390   2.580   0.368  0.1870 -0.5594  0.7493
 1483TIP3   OH2 4454   3.437   0.875   3.221  0.1722 -0.6047 -0.4314
 1483TIP3    H1 4455   3.501   0.920   3.275 -0.0402 -1.0574  0.2123
 1483TIP3    H2 4456   3.353   0.912   3.247  0.2058  0.4772 -1.7561
 1484TIP3   OH2 4457   0.971   1.152   1.066 -0.1536  0.1044  0.1343
 1484TIP3    H1 4458   1.028   1.111   1.001 -0.1801  1.2403 -0.6322
 1484TIP3    H2 4459   0.885   1.155   1.023 -0.2218  0.6699  0.3085
 1485TIP3   OH2 4460   0.106   1.629   0.406 -0.1086  0.3463 -0.0222
 1485TIP3    H1 4461   0.038   1.628   0.339 -0.2063  0.5917  0.0721
 1485TIP3    H2 4462   0.065   1.672   0.481  0.4688  1.4439 -0.3064
 1486TIP3   OH2 4463   3.205   3.630   4.301  0.1082  0.2419  0.3762
 1486TIP3    H1 4464   3.129   3.578   4.329 -0.8994  1.5470  0.1785
 1486TIP3    H2 4465   3.201   3.630   4.205  0.9830 -0.5587  0.3327
 1487TIP3   OH2 4466   1.395   0.370   5.137 -0.0305  0.2223 -0.1842
 1487TIP3    H1 4467   1.470   0.429   5.134 -0.1408  0.5207  1.6861
 1487TIP3    H2 4468   1.328   0.419   5.184 -0.3328 -1.1241  0.8755
 1488TIP3   OH2 4469   3.831   5.779   2.593 -0.0743 -0.4233 -0.1738
 1488TIP3    H1 4470   3.878   5.729   2.660 -0.5835  0.2415  0.7046
 1488TIP3    H2 4471   3.797   5.856   2.640  0.2071  0.4583 -1.3633
 1489TIP3   OH2 4472   1.615   5.064   2.845 -0.0980  0.0558  0.3253
 1489TIP3    H1 4473   1.706   5.069   2.876  0.1427  0.3470 -0.3914
 1489TIP3    H2 4474   1.612   4.982   2.795  0.0150  0.4572 -0.3646
 1490TIP3   OH2 4475   2.494   3.148   4.213 -0.6436 -0.2384  0.4158
 1490TIP3    H1 4476   2.471   3.194   4.294 -1.4154 -1.2991  0.8342
 1490TIP3    H2 4477   2.411   3.114   4.181 -0.5183  1.0803 -1.4490
 1491TIP3   OH2 4478   5.393   3.033   3.548  0.0731  0.3888 -0.1924
 1491TIP3    H1 4479   5.404   2.984   3.629 -1.1235  1.3415  0.5826
 1491TIP3    H2 4480   5.403   3.125   3.574 -3.0220  0.9091 -0.5500
 1492TIP3   OH2 4481   0.336   5.683   0.842  0.3928  0.5704  0.0070
 1492TIP3    H1 4482   0.406   5.618   0.851 -0.2313 -0.2671 -0.9373
 1492TIP3    H2 4483   0.298   5.690   0.930  0.2258 -0.6495  0.0442
 1493TIP3   OH2 4484   6.228   1.938   1.400  0.1516  0.6570 -0.1962
 1493TIP3    H1 4485   6.141   1.975   1.390 -0.0389  0.5338  0.8467
 1493TIP3    H2 4486   6.231   1.866   1.337 -0.6402  0.4219  0.0277
 1494TIP3   OH2 4487   4.180   0.934   0.043 -0.1100  0.0671 -0.5504
 1494TIP3    H1 4488   4.147   1.022   0.063  0.2090 -0.2461  1.6172
 1494TIP3    H2 4489   4.116   0.875   0.081  0.5939 -0.5950 -0.3627
 1495TIP3   OH2 4490   2.162   3.946   2.596  0.7826  0.5227 -0.3092
 1495TIP3    H1 4491   2.232   3.882   2.614 -0.2901 -0.2057  1.5264
 1495TIP3    H2 4492   2.209   4.027   2.577  2.1721 -0.6251 -2.2068
 1496TIP3   OH2 4493   5.903   2.820   1.856 -0.3306 -0.6004  0.5921
 1496TIP3    H1 4494   5.864   2.759   1.793 -0.1847 -0.5949  0.4964
 1496TIP3    H2 4495   5.851   2.809   1.936 -0.1614 -1.0160  0.6471
 1497TIP3   OH2 4496   4.469   3.251   0.241  0.4603  0.8213 -0.0358
 1497TIP3    H1 4497   4.513   3.207   0.168 -1.2311  0.6763 -1.0230
 1497TIP3    H2 4498   4.533   3.315   0.273  0.5830  2.3995 -3.0375
 1498TIP3   OH2 4499   5.302   2.147   3.801 -0.7116 -0.2881  0.0355
 1498TIP3    H1 4500   5.231   2.204   3.772 -0.7302  1.0484  2.4291
 1498TIP3    H2 4501   5.353   2.201   3.862  2.7074 -1.0342 -1.8766
 1499TIP3   OH2 4502   2.563   0.569   1.971 -0.3600  0.2899  0.0955
 1499TIP3    H1 4503   2.618   0.643   1.944  0.8385 -0.2778  0.8716
 1499TIP3    H2 4504   2.590   0.497   1.914 -1.3024  0.3535 -0.4486
 1500TIP3   OH2 4505   3.243   0.056   1.189  0.2711 -0.2205  0.3302
 1500TIP3    H1 4506   3.299   0.095   1.122  1.2432 -0.3439  1.0398
 1500TIP3    H2 4507   3.305   0.023   1.255 -0.6626  0.9816  1.8867
 1501TIP3   OH2 4508   4.013   3.018   3.730  0.4313 -0.3327 -0.1687
 1501TIP3    H1 4509   4.042   3.060   3.811  0.4265  0.7413 -0.6953
 1501TIP3    H2 4510   3.980   2.932   3.757  2.4680 -0.8940  0.6702
 1502TIP3   OH2 4511   1.289   1.929   3.839 -0.2889  0.5002  0.0398
 1502TIP3    H1 4512   1.374   1.887   3.825 -0.9087 -0.8958  0.2722
 1502TIP3    H2 4513   1.307   2.023   3.833  1.6837  0.3584  2.2445
 1503TIP3   OH2 4514   4.296   4.142   0.998 -0.3893 -0.4916 -0.1360
 1503TIP3    H1 4515   4.289   4.175   1.087 -1.7116  0.2260 -0.4684
 1503TIP3    H2 4516   4.345   4.210   0.951  0.3927 -0.9163  0.0667
 1504TIP3   OH2 4517   2.774   2.958   3.799  0.2241  0.6279  0.6189
 1504TIP3    H1 4518   2.706   3.005   3.752  0.7001  0.8220  0.1110
 1504TIP3    H2 4519   2.855   3.002   3.774  0.4752  0.8500  1.7649
 1505TIP3   OH2 4520   5.327   1.502   0.396 -0.4286  0.0180 -0.7571
 1505TIP3    H1 4521   5.382   1.550   0.458 -0.7665 -0.1985 -0.2805
 1505TIP3    H2 4522   5.258   1.463   0.450 -1.9506  1.5091 -1.5171
 1506TIP3   OH2 4523   1.463   4.400   1.208  0.2981  0.5009  0.9364
 1506TIP3    H1 4524   1.504   4.348   1.139 -1.3226 -1.5274  1.3872
 1506TIP3    H2 4525   1.371   4.409   1.181 -0.1571  0.4587  2.3488
 1507TIP3   OH2 4526   2.342   3.240   0.727 -0.2738 -0.6134 -0.1900
 1507TIP3    H1 4527   2.341   3.315   0.786 -2.1005 -1.0810  0.4526
 1507TIP3    H2 4528   2.383   3.169   0.777  0.3202 -0.3857 -0.3488
 1508TIP3   OH2 4529   3.256   5.129   1.268  0.2723 -0.3662  0.2126
 1508TIP3    H1 4530   3.207   5.069   1.212  0.3799 -0.1455 -0.1204
 1508TIP3    H2 4531   3.189   5.181   1.312  0.2060 -0.0962 -0.2069
 1509TIP3   OH2 4532   5.978   2.241   3.962 -0.6298 -0.4014  0.1522
 1509TIP3    H1 4533   5.885   2.217   3.969 -0.3915 -1.1709  0.8204
 1509TIP3    H2 4534   6.023   2.180   4.021  0.1866  0.6767  0.6691
 1510TIP3   OH2 4535   5.512   2.111   2.089  0.0381  0.0913 -0.0064
 1510TIP3    H1 4536   5.491   2.073   2.004 -1.6501  1.2628 -0.1692
 1510TIP3    H2 4537   5.515   2.206   2.073 -0.7111  0.3627  1.2768
 1511TIP3   OH2 4538   5.874   0.199   1.083 -0.8676  0.0441 -0.9313
 1511TIP3    H1 4539   5.808   0.210   1.014  0.0709  1.7946 -1.6021
 1511TIP3    H2 4540   5.955   0.179   1.037 -0.3879  0.4708 -0.2903
 1512TIP3   OH2 4541   4.859   2.357   0.491 -0.1165  0.4031 -0.0256
 1512TIP3    H1 4542   4.842   2.335   0.399 -2.5710 -0.9421  0.6524
 1512TIP3    H2 4543   4.828   2.281   0.540 -0.7174  1.8754  2.0093
 1513TIP3   OH2 4544   2.420   4.531   0.912  0.0761  0.0115 -0.7532
 1513TIP3    H1 4545   2.433   4.615   0.955  0.9303 -0.6674  0.3834
 1513TIP3    H2 4546   2.507   4.490   0.913 -0.1946 -0.6234 -1.8465
 1514TIP3   OH2 4547   6.057   2.158   0.897  0.2415  0.0990  0.3850
 1514TIP3    H1 4548   6.073   2.220   0.826 -0.2164  0.8185  0.8897
 1514TIP3    H2 4549   6.143   2.121   0.916  0.4537  0.2845 -0.1918
 1515TIP3   OH2 4550   1.474   3.341   5.117  1.0332  0.4505  0.2588
 1515TIP3    H1 4551   1.480   3.246   5.108 -0.2019  0.3774 -0.0160
 1515TIP3    H2 4552   1.523   3.376   5.042 -1.3242 -0.0432 -1.6309
 1516TIP3   OH2 4553   5.064   5.274   1.598  0.1729 -0.3986  0.0162
 1516TIP3    H1 4554   5.158   5.280   1.610  0.2809  1.0771 -1.2970
 1516TIP3    H2 4555   5.028   5.283   1.687  1.2095  0.3034  0.3806
 1517TIP3   OH2 4556   0.315   0.779   2.547  0.7531  0.1779  0.2119
 1517TIP3    H1 4557   0.283   0.794   2.458  3.1132  1.7958 -0.4609
 1517TIP3    H2 4558   0.254   0.827   2.603 -0.3821 -0.3094 -0.5695
 1518TIP3   OH2 4559   1.380   0.821   0.851 -0.7637  0.4465 -0.2103
 1518TIP3    H1 4560   1.426   0.854   0.927 -0.4306  0.1264 -0.2712
 1518TIP3    H2 4561   1.406   0.880   0.780 -0.6559  0.4252 -0.1888
 1519TIP3   OH2 4562   0.776   5.201   5.152 -0.5637 -0.1001 -0.6683
 1519TIP3    H1 4563   0.851   5.242   5.111 -0.8062  1.8821  0.7350
 1519TIP3    H2 4564   0.700   5.250   5.121 -1.0153 -0.3988 -0.0769
 1520TIP3   OH2 4565   4.773   5.811   2.029 -0.0012 -0.5405  0.4260
 1520TIP3    H1 4566   4.710   5.827   1.958 -0.1670 -0.7963  0.5170
 1520TIP3    H2 4567   4.798   5.720   2.019  1.4085 -0.0896 -0.4614
 1521TIP3   OH2 4568   2.657   1.519   2.367  0.0336  0.0968  0.1970
 1521TIP3    H1 4569   2.651   1.577   2.291 -0.4335  1.1764  1.0389
 1521TIP3    H2 4570   2.724   1.455   2.342 -0.7766 -0.1560 -1.4991
 1522TIP3   OH2 4571   5.455   0.816   3.807  0.3581 -0.1401 -0.2401
 1522TIP3    H1 4572   5.360   0.823   3.820  0.7451 -0.2599  4.4944
 1522TIP3    H2 4573   5.472   0.722   3.799  0.2095 -0.7607  4.0294
 1523TIP3   OH2 4574   2.257   3.074   1.195  0.9168 -0.2360 -0.4974
 1523TIP3    H1 4575   2.308   3.085   1.275  0.3072 -2.0380  0.1867
 1523TIP3    H2 4576   2.183   3.134   1.205  0.6995 -0.6405  0.4443
 1524TIP3   OH2 4577   0.056   1.778   3.362 -1.0641  0.1403  0.2603
 1524TIP3    H1 4578   0.099   1.742   3.439  1.7586 -1.2246 -1.7856
 1524TIP3    H2 4579   0.026   1.702   3.313  2.8106  0.3138 -2.9344
 1525TIP3   OH2 4580   1.847   4.865   2.132  0.2919 -0.1876  0.0970
 1525TIP3    H1 4581   1.759   4.892   2.158  0.4540 -0.5907  1.1190
 1525TIP3    H2 4582   1.846   4.770   2.137  0.6581 -0.2180 -0.3257
 1526TIP3   OH2 4583   1.659   1.737   4.171  0.1300  0.2462  0.0430
 1526TIP3    H1 4584   1.672   1.795   4.096  0.0487 -0.2112 -0.3286
 1526TIP3    H2 4585   1.726   1.763   4.233  1.4763 -0.6331 -0.9669
 1527TIP3   OH2 4586   5.592   5.165   3.469  0.0466  0.0454  0.1321
 1527TIP3    H1 4587   5.510   5.208   3.448  0.2877 -0.1828 -1.3933
 1527TIP3    H2 4588   5.642   5.230   3.518 -0.5557  0.6082  0.0084
 1528TIP3   OH2 4589   3.678   3.939   4.388  0.7449 -0.5337 -0.3110
 1528TIP3    H1 4590   3.762   3.930   4.342  0.8576  1.4075 -0.5936
 1528TIP3    H2 4591   3.698   3.995   4.463 -0.4846  1.0607 -1.0982
 1529TIP3   OH2 4592   5.310   1.218   4.597 -0.1232  0.1271 -0.3666
 1529TIP3    H1 4593   5.310   1.160   4.520  0.0479 -0.9224  0.4083
 1529TIP3    H2 4594   5.345   1.301   4.564  0.5704 -0.5071 -1.2897
 1530TIP3   OH2 4595   3.990   1.814   5.165 -0.5090 -0.0942 -0.0333
 1530TIP3    H1 4596   3.948   1.886   5.116  1.4491  0.6022 -0.7869
 1530TIP3    H2 4597   3.925   1.744   5.164 -0.9701  0.2490 -2.8006
 1531TIP3   OH2 4598   5.679   5.545   5.042  0.1992 -0.4545  0.0546
 1531TIP3    H1 4599   5.711   5.456   5.022 -1.5204 -1.0117 -0.4066
 1531TIP3    H2 4600   5.634   5.536   5.126  0.4133  0.0840  0.2251
 1532TIP3   OH2 4601   2.283   1.011   4.403  0.0037 -0.2046 -0.0827
 1532TIP3    H1 4602   2.320   1.020   4.491 -2.2872  1.1712  0.8587
 1532TIP3    H2 4603   2.358   0.996   4.346  1.7660  0.6720  1.8706
 1533TIP3   OH2 4604   2.811   2.366   0.785  0.3495  0.1940  0.6246
 1533TIP3    H1 4605   2.809   2.411   0.701  1.5554 -0.2322  0.3439
 1533TIP3    H2 4606   2.790   2.275   0.763  1.0961 -0.0037  0.7088
 1534TIP3   OH2 4607   4.490   2.844   3.938 -0.4217 -0.7143 -0.6737
 1534TIP3    H1 4608   4.407   2.837   3.892 -1.1242  1.3808  0.1773
 1534TIP3    H2 4609   4.466   2.850   4.030  0.7881 -1.7957 -0.2614
 1535TIP3   OH2 4610   1.566   4.414   5.128 -0.5764 -0.2156 -0.0055
 1535TIP3    H1 4611   1.550   4.432   5.220  0.6364  0.5084  0.0834
 1535TIP3    H2 4612   1.557   4.499   5.084 -0.3128 -0.3948 -0.4189
 1536TIP3   OH2 4613   5.283   3.615   2.922  0.9092  0.1217 -0.7653
 1536TIP3    H1 4614   5.274   3.710   2.913 -0.2916  0.2484  1.1735
 1536TIP3    H2 4615   5.357   3.592   2.865  1.9447  2.3673 -0.4249
 1537TIP3   OH2 4616   4.212   5.112   3.181  0.0040 -0.1723 -0.2757
 1537TIP3    H1 4617   4.118   5.129   3.178  0.0004  0.3307  1.5490
 1537TIP3    H2 4618   4.231   5.099   3.274  1.6019 -1.1209 -0.6992
 1538TIP3   OH2 4619   5.619   3.611   4.131 -0.2654 -0.2468 -0.2774
 1538TIP3    H1 4620   5.632   3.548   4.060  0.3506  0.2672 -0.6299
 1538TIP3    H2 4621   5.669   3.688   4.105  1.8759 -0.8329  1.7618
 1539TIP3   OH2 4622   2.002   4.312   4.695 -0.0523 -0.2682  0.0245
 1539TIP3    H1 4623   1.949   4.268   4.762  0.2164  0.2781  0.6146
 1539TIP3    H2 4624   1.951   4.390   4.672  0.3500  0.0995  0.3718
 1540TIP3   OH2 4625   6.317   5.500   0.745 -0.0168  1.3982 -0.3271
 1540TIP3    H1 4626   6.226   5.523   0.762 -0.2874  0.9263 -1.0764
 1540TIP3    H2 4627   6.314   5.407   0.722  0.7462  1.1966  0.3324
 1541TIP3   OH2 4628   0.888   4.005   2.406 -0.8367 -0.2318 -0.0719
 1541TIP3    H1 4629   0.873   4.021   2.313 -0.6285 -0.2452 -0.1087
 1541TIP3    H2 4630   0.837   3.927   2.426  0.2569 -1.0760 -0.5091
 1542TIP3   OH2 4631   4.758   3.245   4.995  0.1455  0.2607  0.0100
 1542TIP3    H1 4632   4.844   3.229   5.033 -0.1334  0.1959  0.6329
 1542TIP3    H2 4633   4.776   3.277   4.906  0.8647  1.6441  0.6184
 1543TIP3   OH2 4634   3.492   4.241   1.825  0.1205  0.3303  0.0028
 1543TIP3    H1 4635   3.486   4.332   1.856 -1.0569  0.3552 -0.2725
 1543TIP3    H2 4636   3.559   4.244   1.757 -2.4581  1.8222 -2.7343
 1544TIP3   OH2 4637   2.821   2.010   3.871 -0.0648  0.3410  0.7712
 1544TIP3    H1 4638   2.791   2.101   3.863 -0.7385 -0.0296 -1.7860
 1544TIP3    H2 4639   2.910   2.011   3.836 -0.8270 -0.3010 -1.2890
 1545TIP3   OH2 4640   5.277   2.605   4.098 -0.0728 -0.3170  0.5395
 1545TIP3    H1 4641   5.331   2.528   4.082  1.5324  1.3404 -3.0044
 1545TIP3    H2 4642   5.329   2.658   4.159  1.0862  0.0446 -0.7276
 1546TIP3   OH2 4643   1.748   0.310   3.979 -0.1388 -0.0200  0.1525
 1546TIP3    H1 4644   1.741   0.389   3.925 -0.0259  0.0162  0.1898
 1546TIP3    H2 4645   1.664   0.303   4.023 -0.2205 -0.0308 -0.0046
 1547TIP3   OH2 4646   5.444   0.892   1.581 -0.0066  0.3842  0.0068
 1547TIP3    H1 4647   5.392   0.833   1.635  1.2048 -0.6636  0.0805
 1547TIP3    H2 4648   5.517   0.917   1.637  0.7871  0.0013 -0.8254
 1548TIP3   OH2 4649   0.522   0.139   0.206 -0.5921  0.0634  0.6186
 1548TIP3    H1 4650   0.433   0.141   0.171 -0.9970 -2.9513  1.2146
 1548TIP3    H2 4651   0.578   0.140   0.129 -1.2421 -0.3565  0.1307
 1549TIP3   OH2 4652   0.995   3.804   4.008 -0.0480 -0.7876  0.6213
 1549TIP3    H1 4653   0.992   3.724   4.061 -0.1707 -0.1214  1.6502
 1549TIP3    H2 4654   1.036   3.868   4.065  2.5241 -0.7717 -1.1034
 1550TIP3   OH2 4655   2.159   2.685   0.493 -0.2162 -0.0761 -0.5319
 1550TIP3    H1 4656   2.135   2.762   0.545  0.7757 -0.6981  0.9228
 1550TIP3    H2 4657   2.122   2.702   0.407 -2.8739  0.5401  0.6206
 1551TIP3   OH2 4658   2.742   3.466   3.292 -0.3987 -0.0248  0.4084
 1551TIP3    H1 4659   2.726   3.372   3.304 -0.1248 -0.1650 -0.2405
 1551TIP3    H2 4660   2.748   3.477   3.197 -0.0347  0.5868  0.4926
 1552TIP3   OH2 4661   1.048   2.150   2.386 -0.5563 -0.0636 -0.4166
 1552TIP3    H1 4662   1.064   2.093   2.311 -0.0805  1.2135 -1.3339
 1552TIP3    H2 4663   0.966   2.194   2.366 -0.0223  0.8849 -0.6149
 1553TIP3   OH2 4664   3.778   3.458   1.052 -0.6779  0.0965  0.4097
 1553TIP3    H1 4665   3.836   3.433   0.981 -0.7139  2.1994 -0.4446
 1553TIP3    H2 4666   3.755   3.549   1.033 -2.3906  0.0530  1.9817
 1554TIP3   OH2 4667   3.970   4.499   5.090  0.0190  0.3947  0.3788
 1554TIP3    H1 4668   4.057   4.467   5.112  0.2434  0.0233 -0.9606
 1554TIP3    H2 4669   3.982   4.552   5.012 -1.1580 -1.0558 -0.8588
 1555TIP3   OH2 4670   2.510   1.436   5.090  0.2537 -0.3748 -0.3732
 1555TIP3    H1 4671   2.491   1.524   5.123  0.1018 -0.8479  0.8587
 1555TIP3    H2 4672   2.426   1.403   5.059 -0.3149 -1.1532  1.8545
 1556TIP3   OH2 4673   6.005   3.105   1.348 -0.0976  0.4767 -0.2702
 1556TIP3    H1 4674   5.995   3.156   1.268  0.2780  1.8654  0.5226
 1556TIP3    H2 4675   6.032   3.170   1.414 -2.3374 -0.2387  1.4671
 1557TIP3   OH2 4676   2.718   2.109   1.952  0.0294 -0.0015  0.2000
 1557TIP3    H1 4677   2.665   2.034   1.925  0.8925 -0.7506  0.5372
 1557TIP3    H2 4678   2.655   2.172   1.984 -0.8210 -0.0952 -1.1793
 1558TIP3   OH2 4679   2.408   5.107   3.636 -0.2915 -0.1030  0.9280
 1558TIP3    H1 4680   2.470   5.082   3.569 -0.9327  0.4228  0.1214
 1558TIP3    H2 4681   2.369   5.025   3.665  0.5971 -0.4108  1.2774
 1559TIP3   OH2 4682   0.010   5.617   2.944  0.4500  0.2708  0.3004
 1559TIP3    H1 4683  -0.058   5.552   2.926  0.5578  0.0105  0.7839
 1559TIP3    H2 4684   0.081   5.594   2.885  0.7922 -0.5499  0.9914
 1560TIP3   OH2 4685   3.286   1.406   4.725  0.4833  0.4192  0.1045
 1560TIP3    H1 4686   3.366   1.360   4.749  1.1254  1.6228  0.3834
 1560TIP3    H2 4687   3.215   1.350   4.756  1.2364 -0.3502  0.4547
 1561TIP3   OH2 4688   1.062   6.003   4.838 -0.5699 -0.1884  0.3958
 1561TIP3    H1 4689   1.013   5.923   4.860  0.5218 -0.6345  1.3327
 1561TIP3    H2 4690   1.068   6.003   4.743  0.7803 -2.1064  0.4317
 1562TIP3   OH2 4691   5.040   4.962   3.634  0.9961 -0.3902  0.1362
 1562TIP3    H1 4692   5.131   4.931   3.628  0.9288 -0.5654  0.0140
 1562TIP3    H2 4693   5.041   5.046   3.588  1.1715 -0.2244  0.4362
 1563TIP3   OH2 4694   0.328   0.815   3.984  0.2895  0.4689 -0.0073
 1563TIP3    H1 4695   0.312   0.909   3.971  0.0395  0.3339 -0.7510
 1563TIP3    H2 4696   0.330   0.803   4.079  1.7912  1.4867  0.1275
 1564TIP3   OH2 4697   2.488   5.862   4.928  0.8010 -0.1971 -0.2358
 1564TIP3    H1 4698   2.545   5.839   5.001  0.1508 -0.6458  0.1377
 1564TIP3    H2 4699   2.482   5.782   4.875 -0.2071 -0.4374  0.2229
 1565TIP3   OH2 4700   2.899   3.928   2.398 -0.0034 -0.4401 -0.4928
 1565TIP3    H1 4701   2.843   4.005   2.392 -1.3187 -1.3391 -0.0473
 1565TIP3    H2 4702   2.917   3.903   2.307 -1.2813 -0.8171 -0.6539
 1566TIP3   OH2 4703   3.054   5.069   3.187  0.5193 -0.1110  0.2894
 1566TIP3    H1 4704   3.109   5.138   3.225  0.1083  1.3922 -1.6526
 1566TIP3    H2 4705   3.048   5.002   3.255  0.5803  1.9622  2.4616
 1567TIP3   OH2 4706   3.571   0.627   2.677  0.3054  0.5363  0.3723
 1567TIP3    H1 4707   3.529   0.546   2.646  0.9192 -0.2075  1.3872
 1567TIP3    H2 4708   3.649   0.636   2.622  1.4123 -0.7945  1.6235
 1568TIP3   OH2 4709   4.222   3.220   0.042 -0.2196  0.2021 -0.1786
 1568TIP3    H1 4710   4.172   3.138   0.037 -0.6044  0.5316 -2.5475
 1568TIP3    H2 4711   4.275   3.210   0.121 -0.9655 -1.9197  0.1234
 1569TIP3   OH2 4712   3.193   3.435   0.467  0.0170 -0.1003 -0.2703
 1569TIP3    H1 4713   3.134   3.505   0.495  0.5682  0.9099 -1.4983
 1569TIP3    H2 4714   3.159   3.407   0.383  1.2627  0.5167 -1.0085
 1570TIP3   OH2 4715   5.460   1.455   2.378  0.0493 -0.3100 -0.0142
 1570TIP3    H1 4716   5.529   1.491   2.433  2.9331 -1.5713 -2.4838
 1570TIP3    H2 4717   5.447   1.521   2.310  0.5856 -1.0176 -0.8395
 1571TIP3   OH2 4718   2.864   2.730   3.145  0.2364  0.3351 -0.1814
 1571TIP3    H1 4719   2.846   2.742   3.238 -0.4583 -0.1635 -0.2372
 1571TIP3    H2 4720   2.897   2.814   3.115  1.6173  0.1660  0.7641
 1572TIP3   OH2 4721   2.083   5.540   0.449  0.0353 -0.3862  0.6805
 1572TIP3    H1 4722   2.073   5.502   0.536 -0.5988  1.1713  1.3101
 1572TIP3    H2 4723   2.036   5.623   0.453  0.4570 -0.0310 -0.9900
 1573TIP3   OH2 4724   4.187   2.766   3.941 -0.6700  0.1721  0.2911
 1573TIP3    H1 4725   4.222   2.746   4.028  0.0327  0.7085  0.1368
 1573TIP3    H2 4726   4.092   2.770   3.954 -0.5483  0.5603  1.0977
 1574TIP3   OH2 4727   2.060   5.161   3.688  0.0619 -0.6239 -0.0278
 1574TIP3    H1 4728   2.073   5.251   3.657 -2.0047 -0.2628 -0.0247
 1574TIP3    H2 4729   1.993   5.169   3.757 -1.2156 -2.2890 -0.9863
 1575TIP3   OH2 4730   6.251   5.918   4.832 -0.2619 -0.0971  0.1357
 1575TIP3    H1 4731   6.341   5.885   4.833 -0.4663 -0.6684 -0.0942
 1575TIP3    H2 4732   6.258   6.004   4.789  0.1660 -0.1525  0.0847
 1576TIP3   OH2 4733   3.702   5.602   1.467  0.0642  0.5644  0.1762
 1576TIP3    H1 4734   3.642   5.677   1.469 -1.7464 -0.7882 -0.4142
 1576TIP3    H2 4735   3.702   5.568   1.556 -0.9585 -0.0654 -0.0416
 1577TIP3   OH2 4736   1.634   1.859   0.948  0.0545  0.0484 -0.0619
 1577TIP3    H1 4737   1.561   1.916   0.971 -0.0191  1.2549 -2.8672
 1577TIP3    H2 4738   1.710   1.900   0.988  0.2810  3.2890 -3.3020
 1578TIP3   OH2 4739   3.659   0.930   5.028  0.4069  0.0613 -0.2398
 1578TIP3    H1 4740   3.629   0.989   5.097  1.1354 -1.2044  1.2157
 1578TIP3    H2 4741   3.585   0.924   4.968  0.3514  2.5409 -0.5385
 1579TIP3   OH2 4742   1.724   3.459   4.949  0.4044 -0.1111  0.3164
 1579TIP3    H1 4743   1.736   3.492   4.860  2.7645  0.0520  0.6288
 1579TIP3    H2 4744   1.767   3.525   5.005 -1.1475 -0.1379  1.6050
 1580TIP3   OH2 4745   1.014   4.795   3.324  0.0762 -0.0364 -0.3651
 1580TIP3    H1 4746   1.042   4.764   3.410  0.3909  1.5105  0.1314
 1580TIP3    H2 4747   0.934   4.745   3.305 -1.3775  1.2155  1.9444
 1581TIP3   OH2 4748   4.795   1.541   1.667  0.1088 -0.6861  0.1627
 1581TIP3    H1 4749   4.797   1.612   1.731  1.9412  0.6611 -1.2686
 1581TIP3    H2 4750   4.726   1.567   1.606  2.0002  0.9986 -1.4252
 1582TIP3   OH2 4751   5.156   2.160   1.976 -0.1442 -0.1417  0.0095
 1582TIP3    H1 4752   5.100   2.234   2.001  0.4504  0.0041  0.9710
 1582TIP3    H2 4753   5.172   2.173   1.882  0.9444  1.6718  0.3952
 1583TIP3   OH2 4754   4.138   2.345   3.512 -0.2786  0.1890 -0.0423
 1583TIP3    H1 4755   4.135   2.424   3.458  1.0584  0.2639 -0.0382
 1583TIP3    H2 4756   4.116   2.376   3.601  2.1031  0.9766  0.3596
 1584TIP3   OH2 4757   2.645   3.515   1.474  0.2626  0.3908  0.9633
 1584TIP3    H1 4758   2.621   3.603   1.504 -2.0416  0.8074 -1.6347
 1584TIP3    H2 4759   2.572   3.460   1.504  0.8771 -0.3313  1.1535
 1585TIP3   OH2 4760   3.353   1.325   4.246  0.3273  0.5802  0.5216
 1585TIP3    H1 4761   3.372   1.381   4.322  1.5493  1.9652 -0.7282
 1585TIP3    H2 4762   3.292   1.376   4.193  1.3118  0.7023 -0.5496
 1586TIP3   OH2 4763   1.300   2.242   0.653  0.3193 -0.0569 -0.1293
 1586TIP3    H1 4764   1.366   2.262   0.719  1.8179 -1.6974 -1.0428
 1586TIP3    H2 4765   1.262   2.159   0.682  1.3835 -1.0872 -1.5446
 1587TIP3   OH2 4766   5.870   1.835   4.917 -0.2762  0.2706  0.1737
 1587TIP3    H1 4767   5.947   1.779   4.908  0.3880  1.2148 -0.2344
 1587TIP3    H2 4768   5.799   1.775   4.937  0.6272 -0.6026  0.8950
 1588TIP3   OH2 4769   4.175   5.091   2.407 -0.1695 -0.2005  0.0795
 1588TIP3    H1 4770   4.207   5.169   2.362 -0.0961 -0.0890  0.3265
 1588TIP3    H2 4771   4.174   5.115   2.499  2.3881 -1.3250  0.4937
 1589TIP3   OH2 4772   5.542   3.078   0.259  0.1245 -0.3569  0.4293
 1589TIP3    H1 4773   5.475   3.010   0.257  0.2836 -0.5522  1.2154
 1589TIP3    H2 4774   5.566   3.091   0.167 -1.4457  0.1831  0.0621
 1590TIP3   OH2 4775   1.795   0.097   0.343 -0.5268 -0.2916 -0.0002
 1590TIP3    H1 4776   1.783   0.099   0.248  0.2736  0.0699 -0.1089
 1590TIP3    H2 4777   1.884   0.062   0.354 -0.2069  0.6543  0.5650
 1591TIP3   OH2 4778   2.356   1.894   4.080  0.2183  0.8053 -0.0494
 1591TIP3    H1 4779   2.399   1.842   4.148  0.5295  1.5727  0.3426
 1591TIP3    H2 4780   2.264   1.867   4.084  0.6189 -0.8802 -0.9125
 1592TIP3   OH2 4781   3.062   3.917   0.973 -0.4140  0.1679  0.2496
 1592TIP3    H1 4782   3.057   3.986   1.039 -0.1133 -0.8669  1.3913
 1592TIP3    H2 4783   2.998   3.852   1.002  1.1507 -1.2365  0.6718
 1593TIP3   OH2 4784   1.772   2.237   4.739 -0.5345 -0.9020  1.1086
 1593TIP3    H1 4785   1.812   2.213   4.655  0.5883 -4.0358  2.4149
 1593TIP3    H2 4786   1.830   2.306   4.773 -0.0790 -0.7225  0.0379
 1594TIP3   OH2 4787   3.522   1.012   3.920  0.6135  0.8484 -0.0873
 1594TIP3    H1 4788   3.561   0.987   3.837 -0.1877 -1.2141  0.0933
 1594TIP3    H2 4789   3.457   1.078   3.897 -0.2593 -0.3653 -1.2630
 1595TIP3   OH2 4790   4.670   5.666   3.832  0.4229  0.1221  0.1340
 1595TIP3    H1 4791   4.720   5.651   3.912 -0.6596  0.3226  0.8761
 1595TIP3    H2 4792   4.729   5.716   3.776  0.7546  1.1080  1.3155
 1596TIP3   OH2 4793   5.524   4.800   2.804  0.1118  0.3900  0.0457
 1596TIP3    H1 4794   5.466   4.725   2.791 -0.4351  0.6323  1.0059
 1596TIP3    H2 4795   5.611   4.761   2.813  0.2629  0.0756 -2.2202
 1597TIP3   OH2 4796   5.186   2.921   2.825  0.3201  0.4194  0.2657
 1597TIP3    H1 4797   5.252   2.966   2.772 -0.6902  1.0611 -0.4898
 1597TIP3    H2 4798   5.221   2.921   2.913 -0.1817  3.8932  0.5904
 1598TIP3   OH2 4799   1.527   4.589   4.504 -0.6923  0.3050 -0.7347
 1598TIP3    H1 4800   1.451   4.648   4.503 -1.5239 -0.7307 -1.7106
 1598TIP3    H2 4801   1.539   4.565   4.412 -0.3941 -1.0438 -0.3636
 1599TIP3   OH2 4802   2.898   2.006   3.287  0.1413  0.3538  0.4164
 1599TIP3    H1 4803   2.861   2.094   3.297 -1.7845 -0.4061  0.2204
 1599TIP3    H2 4804   2.915   1.999   3.193  0.7393  0.6611  0.4927
 1600TIP3   OH2 4805   4.634   2.585   3.979  0.6263  0.2130  0.3010
 1600TIP3    H1 4806   4.631   2.677   4.005 -0.2035 -0.0190  1.0839
 1600TIP3    H2 4807   4.697   2.545   4.039 -1.2963 -0.3246  2.0735
 1601TIP3   OH2 4808   4.842   5.805   2.766  0.3884  0.1741 -0.1377
 1601TIP3    H1 4809   4.763   5.820   2.818  0.5474 -1.5180  0.6629
 1601TIP3    H2 4810   4.913   5.812   2.829  0.7182 -0.1348 -0.4715
 1602TIP3   OH2 4811   1.265   5.673   2.750  0.2599  0.2744  0.1740
 1602TIP3    H1 4812   1.264   5.579   2.767  0.9246  0.3691  0.7957
 1602TIP3    H2 4813   1.175   5.694   2.724  0.1672 -0.5700 -0.2188
 1603TIP3   OH2 4814   2.967   4.625   0.348 -0.0451  0.0303  0.1799
 1603TIP3    H1 4815   2.880   4.618   0.385 -0.9479  0.4179 -1.7350
 1603TIP3    H2 4816   2.964   4.573   0.268  0.9143  1.4769 -0.8592
 1604TIP3   OH2 4817   1.921   2.596   5.030  0.5243  0.2965 -0.4776
 1604TIP3    H1 4818   1.867   2.605   5.109 -0.2912  2.3592 -1.2216
 1604TIP3    H2 4819   2.007   2.570   5.063 -0.4660 -1.5450  0.8524
 1605TIP3   OH2 4820   3.141   4.194   4.966 -0.1888 -0.3504  0.1357
 1605TIP3    H1 4821   3.190   4.233   4.893 -0.0734 -2.3044 -0.8954
 1605TIP3    H2 4822   3.207   4.148   5.018 -0.6398 -1.3521 -0.1586
 1606TIP3   OH2 4823   3.969   0.811   4.699 -0.2689 -0.1179 -0.0214
 1606TIP3    H1 4824   4.011   0.812   4.613 -0.1868 -0.9110  0.0031
 1606TIP3    H2 4825   3.927   0.896   4.706 -0.0085  0.0744 -0.7144
 1607TIP3   OH2 4826   0.892   3.686   0.772 -0.0606 -0.0659  0.4916
 1607TIP3    H1 4827   0.810   3.662   0.815  0.3531 -0.8602  0.8659
 1607TIP3    H2 4828   0.934   3.602   0.753  0.0322  0.2817 -0.9570
 1608TIP3   OH2 4829   3.953   2.151   2.187 -0.6443 -0.1187 -0.2328
 1608TIP3    H1 4830   3.877   2.117   2.236 -1.8257  2.3387 -0.1951
 1608TIP3    H2 4831   3.915   2.184   2.105  0.7425 -0.7326 -1.1514
 1609TIP3   OH2 4832   5.252   0.665   4.628  0.4058 -0.2357  0.0585
 1609TIP3    H1 4833   5.307   0.685   4.705 -0.2799  0.3832  0.3959
 1609TIP3    H2 4834   5.226   0.751   4.595 -0.1177 -0.5239 -0.2788
 1610TIP3   OH2 4835   6.290   5.210   1.251 -0.2933 -0.1020  0.0667
 1610TIP3    H1 4836   6.322   5.147   1.316  0.6809  0.7968  0.4788
 1610TIP3    H2 4837   6.204   5.176   1.226  0.1752 -1.5576  0.3187
 1611TIP3   OH2 4838   1.893   4.078   1.576  0.3756  0.0676  0.1279
 1611TIP3    H1 4839   1.929   4.081   1.487 -1.2587  0.1568 -0.5691
 1611TIP3    H2 4840   1.850   4.162   1.588 -0.2477 -0.3084  0.6269
 1612TIP3   OH2 4841   1.224   3.130   1.116 -0.9341  0.1898  0.4549
 1612TIP3    H1 4842   1.129   3.141   1.112 -1.0243  0.0051  1.6875
 1612TIP3    H2 4843   1.237   3.036   1.127 -0.5845  0.1658 -0.1340
 1613TIP3   OH2 4844   1.527   5.253   2.663  0.0945 -0.7475 -0.3098
 1613TIP3    H1 4845   1.566   5.183   2.715  1.6734  0.0751 -0.3162
 1613TIP3    H2 4846   1.492   5.209   2.586 -0.6689 -1.7544  0.5836
 1614TIP3   OH2 4847   3.659   4.412   0.293 -0.3844 -0.4351  0.4225
 1614TIP3    H1 4848   3.642   4.457   0.375  0.2212  0.4594  0.0678
 1614TIP3    H2 4849   3.740   4.450   0.260 -2.5796  2.2331 -2.5820
 1615TIP3   OH2 4850   2.782   2.303   4.384  0.1845  0.2893  0.1155
 1615TIP3    H1 4851   2.764   2.213   4.411 -0.0420 -1.2026 -4.2511
 1615TIP3    H2 4852   2.707   2.353   4.417 -1.4879 -1.8311 -0.2182
 1616TIP3   OH2 4853   5.222   3.810   0.843 -0.1860  0.3231 -0.3266
 1616TIP3    H1 4854   5.247   3.901   0.859 -1.1389  0.6868 -0.8008
 1616TIP3    H2 4855   5.304   3.765   0.823  0.4125  0.8724  0.8065
 1617TIP3   OH2 4856   5.332   0.950   0.368 -0.5259  0.0815  0.1674
 1617TIP3    H1 4857   5.355   1.025   0.422  0.3126  0.5105 -0.7538
 1617TIP3    H2 4858   5.416   0.909   0.347 -0.9815 -1.2143  0.7698
 1618TIP3   OH2 4859   0.497   5.596   2.208  0.8589  0.2225  0.0012
 1618TIP3    H1 4860   0.590   5.579   2.227  0.5105 -1.6010  0.3457
 1618TIP3    H2 4861   0.452   5.569   2.288 -0.0043  0.5427 -0.3773
 1619TIP3   OH2 4862   2.180   3.322   1.857  0.1109 -0.2856 -0.1820
 1619TIP3    H1 4863   2.220   3.240   1.885  1.3854 -0.0821 -1.3498
 1619TIP3    H2 4864   2.239   3.390   1.889 -0.2707  0.1199 -0.3220
 1620TIP3   OH2 4865   2.258   4.032   2.906 -0.0756  0.0515 -0.3171
 1620TIP3    H1 4866   2.198   4.086   2.854 -0.7534 -2.2333 -2.1465
 1620TIP3    H2 4867   2.331   4.013   2.847 -0.9372 -2.7588 -0.6376
 1621TIP3   OH2 4868   2.362   5.871   0.618  0.1834  0.0008  0.6842
 1621TIP3    H1 4869   2.297   5.932   0.652 -0.3493  0.4420 -1.0698
 1621TIP3    H2 4870   2.414   5.847   0.695 -1.2973  0.5422  1.9021
 1622TIP3   OH2 4871   2.861   4.587   3.590  0.2693 -0.2469 -0.0520
 1622TIP3    H1 4872   2.891   4.500   3.617  2.4055  0.0378 -1.3051
 1622TIP3    H2 4873   2.766   4.585   3.603  0.1564 -3.0266 -0.7415
 1623TIP3   OH2 4874   5.122   0.762   3.292 -0.0782  0.0225  0.1525
 1623TIP3    H1 4875   5.152   0.849   3.318  1.6446 -0.5705  0.2430
 1623TIP3    H2 4876   5.099   0.771   3.199 -2.4674  1.1763  0.7738
 1624TIP3   OH2 4877   1.039   4.271   0.267 -0.4980  0.1942  0.4673
 1624TIP3    H1 4878   1.084   4.293   0.185  3.5160  0.8665  2.6117
 1624TIP3    H2 4879   0.999   4.353   0.296  0.7475  0.7617  0.6404
 1625TIP3   OH2 4880   4.792   2.448   4.155  0.8471  0.4230  0.6315
 1625TIP3    H1 4881   4.767   2.371   4.205 -1.3161  1.0815  0.6554
 1625TIP3    H2 4882   4.868   2.483   4.201  1.7244 -1.5314  0.7463
 1626TIP3   OH2 4883   0.189   5.543   2.717 -0.2690 -0.1738 -0.0622
 1626TIP3    H1 4884   0.133   5.469   2.739  0.4405 -0.5411  0.5307
 1626TIP3    H2 4885   0.171   5.560   2.624 -0.1147 -1.3585 -0.3181
 1627TIP3   OH2 4886   0.717   5.864   4.521  0.1600 -0.4112 -0.6002
 1627TIP3    H1 4887   0.697   5.956   4.536 -0.1308 -0.7180  1.2392
 1627TIP3    H2 4888   0.676   5.843   4.437  0.0651  1.0679 -0.9481
 1628TIP3   OH2 4889   1.806   2.265   2.624 -0.1657 -0.2704 -0.0695
 1628TIP3    H1 4890   1.814   2.227   2.712 -0.3400  2.0012  1.0089
 1628TIP3    H2 4891   1.880   2.230   2.576  1.2306  0.1440  1.6797
 1629TIP3   OH2 4892   5.746   2.289   4.513 -0.0484  0.2688  0.1138
 1629TIP3    H1 4893   5.706   2.231   4.578  0.0801  0.7501  0.6301
 1629TIP3    H2 4894   5.840   2.284   4.531 -0.0496  0.7545  0.2622
 1630TIP3   OH2 4895   0.206   4.647   3.420  0.0348 -0.1846 -0.1422
 1630TIP3    H1 4896   0.263   4.702   3.473 -0.6646  1.1538 -0.7281
 1630TIP3    H2 4897   0.248   4.643   3.334 -0.8780  1.1127 -0.6890
 1631TIP3   OH2 4898   1.570   1.171   5.173 -0.4925  0.7317  0.4546
 1631TIP3    H1 4899   1.600   1.128   5.254 -0.3142  1.9869  1.0904
 1631TIP3    H2 4900   1.646   1.168   5.115 -0.2488  0.8022  0.7620
 1632TIP3   OH2 4901   0.607   4.122   1.066  0.2694  0.1912 -0.1794
 1632TIP3    H1 4902   0.531   4.158   1.111  0.9816 -0.4677  1.6822
 1632TIP3    H2 4903   0.664   4.197   1.049  0.1842  0.4062  0.4691
 1633TIP3   OH2 4904   0.260   2.734   0.382  0.2374  0.1949  0.3707
 1633TIP3    H1 4905   0.306   2.700   0.304 -0.8567 -0.5233  0.0174
 1633TIP3    H2 4906   0.168   2.714   0.366 -0.2512  1.8969  0.9237
 1634TIP3   OH2 4907   3.564   4.529   2.364  0.0097  0.0892 -0.2599
 1634TIP3    H1 4908   3.615   4.514   2.444  1.2276 -1.5646 -1.2848
 1634TIP3    H2 4909   3.478   4.494   2.384 -0.3876  1.6334  1.0093
 1635TIP3   OH2 4910   4.227   3.946   1.903  0.1975  0.1685 -0.1005
 1635TIP3    H1 4911   4.180   3.999   1.838  1.0439  0.3570 -0.5718
 1635TIP3    H2 4912   4.243   3.863   1.859  0.6761  0.2556 -0.0909
 1636TIP3   OH2 4913   4.562   5.514   4.844 -0.3155 -0.0358  0.1300
 1636TIP3    H1 4914   4.588   5.432   4.803 -2.1146  0.2699 -1.7415
 1636TIP3    H2 4915   4.587   5.581   4.781 -2.5854  0.4997 -0.2803
 1637TIP3   OH2 4916   2.091   2.302   3.838 -0.0526 -0.0445  0.2194
 1637TIP3    H1 4917   2.171   2.249   3.844 -0.3334 -0.3560  1.5085
 1637TIP3    H2 4918   2.031   2.261   3.900 -2.3225 -1.6016 -2.7434
 1638TIP3   OH2 4919   4.096   3.928   1.260 -0.2153  0.0590  0.1057
 1638TIP3    H1 4920   4.091   3.884   1.345  0.8521  0.6371  0.4826
 1638TIP3    H2 4921   4.090   3.857   1.196  2.5391 -0.8516  0.7089
 1639TIP3   OH2 4922   3.528   2.609   1.325 -0.1744  0.2866 -0.1929
 1639TIP3    H1 4923   3.555   2.677   1.386  1.6707 -2.3726  2.2260
 1639TIP3    H2 4924   3.470   2.552   1.376  0.4835 -1.3990 -1.2353
 1640TIP3   OH2 4925   1.268   1.736   0.607  0.8327  0.4690  0.6456
 1640TIP3    H1 4926   1.315   1.817   0.628  0.7534  1.2318 -1.8370
 1640TIP3    H2 4927   1.179   1.764   0.586  0.5784 -0.3813  0.5432
 1641TIP3   OH2 4928   5.937   2.886   0.436  0.5068  0.0901  0.1804
 1641TIP3    H1 4929   5.859   2.936   0.413  1.0190  0.6579 -0.3761
 1641TIP3    H2 4930   6.006   2.952   0.443  0.9803 -0.4264  0.4547
 1642TIP3   OH2 4931   1.306   0.888   3.078  0.0459 -0.1559  0.9441
 1642TIP3    H1 4932   1.348   0.807   3.106  0.0374 -0.1304  1.0301
 1642TIP3    H2 4933   1.215   0.880   3.107 -0.1516 -0.4530  0.2761
 1643TIP3   OH2 4934   2.282   0.483   2.448 -0.2570  0.2021 -0.2223
 1643TIP3    H1 4935   2.305   0.563   2.401  1.2706 -0.3606 -0.5072
 1643TIP3    H2 4936   2.351   0.473   2.514 -0.8135 -0.5021  0.2724
 1644TIP3   OH2 4937   5.869   4.622   3.477 -0.5568 -0.7550 -0.3584
 1644TIP3    H1 4938   5.945   4.636   3.420 -1.4711 -1.0446 -1.7022
 1644TIP3    H2 4939   5.880   4.533   3.509 -0.2368 -0.7345 -0.4027
 1645TIP3   OH2 4940   4.366   0.664   3.115  0.2990  0.0458  0.1435
 1645TIP3    H1 4941   4.427   0.723   3.158  0.3162  0.1838 -0.0694
 1645TIP3    H2 4942   4.284   0.714   3.107  0.6763  0.4995 -1.1601
 1646TIP3   OH2 4943   6.064   4.835   3.074  0.5041 -0.1165  0.1188
 1646TIP3    H1 4944   5.996   4.782   3.115 -1.5246  1.6974 -0.6951
 1646TIP3    H2 4945   6.064   4.917   3.125  0.4617  0.7808 -1.2657
 1647TIP3   OH2 4946   3.344   0.948   2.422  0.0660  0.2525 -0.3567
 1647TIP3    H1 4947   3.334   1.038   2.454  0.4358  0.6386 -1.2958
 1647TIP3    H2 4948   3.420   0.914   2.468 -0.1723  0.3615  0.1231
 1648TIP3   OH2 4949   2.438   1.610   0.695  0.0130 -0.3520  0.1498
 1648TIP3    H1 4950   2.469   1.580   0.609  1.2525 -0.4139  0.5967
 1648TIP3    H2 4951   2.356   1.562   0.709 -0.4225 -0.0486 -1.1591
 1649TIP3   OH2 4952   0.980   0.036   2.457  0.0016  0.4656 -0.1080
 1649TIP3    H1 4953   1.069   0.017   2.486  0.2133  2.4339  0.7077
 1649TIP3    H2 4954   0.976   0.003   2.368  0.7725 -1.7598  0.6041
 1650TIP3   OH2 4955   1.239   0.271   2.870  0.5831 -0.2848  0.2626
 1650TIP3    H1 4956   1.302   0.290   2.940  1.7588 -2.6391 -0.0752
 1650TIP3    H2 4957   1.291   0.268   2.791 -0.3160 -0.3157 -0.3400
 1651TIP3   OH2 4958   5.900   0.666   0.639 -0.1761 -0.0172 -0.0192
 1651TIP3    H1 4959   5.922   0.656   0.731 -1.5196 -1.7141  0.1889
 1651TIP3    H2 4960   5.819   0.615   0.628 -1.4818  2.1802 -1.6074
 1652TIP3   OH2 4961   4.622   5.464   0.122 -0.0117  0.4503 -0.1667
 1652TIP3    H1 4962   4.674   5.467   0.202 -1.0450 -0.7926  0.5952
 1652TIP3    H2 4963   4.546   5.521   0.140 -0.1706  0.2877 -0.3163
 1653TIP3   OH2 4964   2.978   4.304   1.619  0.0497 -0.1842 -0.4821
 1653TIP3    H1 4965   2.965   4.390   1.578  0.0229  0.2225  0.3658
 1653TIP3    H2 4966   2.963   4.320   1.712 -1.7353 -1.4728 -0.5002
 1654TIP3   OH2 4967   4.283   0.354   4.887  0.0860 -0.0320  0.4259
 1654TIP3    H1 4968   4.299   0.281   4.827  1.2176  1.5144 -1.2575
 1654TIP3    H2 4969   4.361   0.409   4.880 -1.3694  2.1464  0.4481
 1655TIP3   OH2 4970   4.971   0.782   0.464 -0.3106  0.8498  0.1839
 1655TIP3    H1 4971   4.972   0.774   0.369 -0.5210  1.0802  0.1612
 1655TIP3    H2 4972   5.063   0.773   0.490 -0.3082  0.3107  0.0007
 1656TIP3   OH2 4973   3.957   4.429   3.608  0.0684  0.4935  0.0699
 1656TIP3    H1 4974   3.976   4.418   3.702 -1.0612  1.8159  0.4965
 1656TIP3    H2 4975   3.962   4.524   3.595 -0.7924  0.3975 -0.9902
 1657TIP3   OH2 4976   4.423   0.681   1.508 -0.2013  0.1649 -0.2536
 1657TIP3    H1 4977   4.470   0.719   1.582  0.0132 -0.3648 -0.1084
 1657TIP3    H2 4978   4.488   0.624   1.465  0.2078  1.8051 -1.9072
 1658TIP3   OH2 4979   3.587   3.514   4.130  0.0339 -0.4759  0.1439
 1658TIP3    H1 4980   3.563   3.568   4.055 -1.8768  0.2195  1.1800
 1658TIP3    H2 4981   3.679   3.493   4.116  0.2986  1.3998 -1.3092
 1659TIP3   OH2 4982   4.046   2.913   1.257 -0.0608 -0.1776  0.1790
 1659TIP3    H1 4983   4.083   2.872   1.335 -1.0873 -2.1723 -0.3048
 1659TIP3    H2 4984   3.968   2.861   1.237 -1.2829  1.8781 -0.7023
 1660TIP3   OH2 4985   2.621   4.418   1.617 -0.1600  0.4360  0.1570
 1660TIP3    H1 4986   2.705   4.401   1.660 -0.3359  2.2736  1.3145
 1660TIP3    H2 4987   2.558   4.364   1.665  0.2798 -0.9014 -0.6759
 1661TIP3   OH2 4988   3.267   1.920   4.762  0.3279 -1.0346 -0.1287
 1661TIP3    H1 4989   3.285   1.898   4.853  2.4822  0.8320 -0.0038
 1661TIP3    H2 4990   3.195   1.983   4.766  1.2739  0.0592  0.4716
 1662TIP3   OH2 4991   2.413   1.015   2.176 -0.3410  0.0344 -0.0494
 1662TIP3    H1 4992   2.367   0.933   2.191 -0.1624  0.0776  0.7614
 1662TIP3    H2 4993   2.453   1.005   2.089 -0.7505 -0.5245 -0.1768
 1663TIP3   OH2 4994   2.052   1.550   3.411 -0.3021 -0.2002 -0.2938
 1663TIP3    H1 4995   2.109   1.599   3.471 -0.3533 -0.7451  0.2126
 1663TIP3    H2 4996   1.989   1.507   3.469 -1.1159  0.2420 -0.8329
 1664TIP3   OH2 4997   2.754   3.194   3.421  0.2572 -0.4829 -0.3570
 1664TIP3    H1 4998   2.849   3.204   3.426  0.4045 -1.7800 -0.1061
 1664TIP3    H2 4999   2.723   3.215   3.509  0.1280  1.4388 -0.8307
 1665TIP3   OH2 5000   3.253   3.334   3.448  0.3447  0.0725  0.0747
 1665TIP3    H1 5001   3.287   3.336   3.538  1.0387 -1.3762 -0.1108
 1665TIP3    H2 5002   3.331   3.339   3.393  0.0547 -0.5801 -0.4105
 1666TIP3   OH2 5003   3.227   2.504   1.902  0.0184  0.7373 -0.0261
 1666TIP3    H1 5004   3.285   2.529   1.974 -0.1995  1.3485 -0.0564
 1666TIP3    H2 5005   3.217   2.584   1.850  0.1966  0.2969 -0.7576
 1667TIP3   OH2 5006   3.510   0.953   1.903  0.4876 -0.0060 -0.0213
 1667TIP3    H1 5007   3.449   0.911   1.843  0.3880  0.5213 -0.2977
 1667TIP3    H2 5008   3.458   0.967   1.983 -0.2369  1.7818 -0.7496
 1668TIP3   OH2 5009   5.804   1.726   3.809 -0.3266 -0.7328  0.7302
 1668TIP3    H1 5010   5.812   1.649   3.754 -0.2034 -1.1195  1.2811
 1668TIP3    H2 5011   5.891   1.765   3.809  0.0053 -1.4545  1.6872
 1669TIP3   OH2 5012   3.388   3.344   4.247 -0.0904 -0.0195 -0.4307
 1669TIP3    H1 5013   3.320   3.376   4.188 -0.2111 -0.8625 -0.7638
 1669TIP3    H2 5014   3.466   3.394   4.222 -0.5326  0.8330 -0.1577
 1670TIP3   OH2 5015   6.308   0.338   0.814  0.0037  0.3342 -0.1321
 1670TIP3    H1 5016   6.354   0.384   0.743  1.3845  1.2642  1.2981
 1670TIP3    H2 5017   6.236   0.396   0.838  0.4170  0.7141  0.1962
 1671TIP3   OH2 5018   3.195   3.123   0.546  0.6367  0.2769  0.6114
 1671TIP3    H1 5019   3.289   3.125   0.530  0.3522  0.2549 -1.2305
 1671TIP3    H2 5020   3.165   3.211   0.525  0.1144  0.0276  0.2904
 1672TIP3   OH2 5021   0.676   2.099   1.233 -0.0526 -0.6452 -0.0292
 1672TIP3    H1 5022   0.721   2.144   1.304 -0.4706 -1.1480  0.5627
 1672TIP3    H2 5023   0.719   2.014   1.227 -0.7816 -1.0455  0.3972
 1673TIP3   OH2 5024   1.026   4.701   1.362 -0.1314  0.5041  0.1589
 1673TIP3    H1 5025   1.006   4.615   1.325  0.9256  0.2827  0.0746
 1673TIP3    H2 5026   0.940   4.739   1.384 -0.6216 -0.4067 -0.1604
 1674TIP3   OH2 5027   3.373   3.636   2.435 -0.0848 -0.0453  0.0858
 1674TIP3    H1 5028   3.394   3.662   2.525 -1.4308 -1.0636  0.7401
 1674TIP3    H2 5029   3.457   3.634   2.390  0.6289  0.3984  1.3475
 1675TIP3   OH2 5030   0.610   5.426   3.949 -0.0701  0.0813 -0.5172
 1675TIP3    H1 5031   0.515   5.413   3.948 -0.0359 -0.2575  0.2863
 1675TIP3    H2 5032   0.639   5.398   3.862 -0.8468  1.3752 -1.2297
 1676TIP3   OH2 5033   2.348   0.560   3.062 -0.0975 -0.0447  0.0801
 1676TIP3    H1 5034   2.284   0.537   3.130 -0.3926  1.5449  0.3763
 1676TIP3    H2 5035   2.322   0.647   3.033 -0.4472 -0.9596 -2.6574
 1677TIP3   OH2 5036   2.765   2.767   1.147  0.8656  0.4727 -0.2731
 1677TIP3    H1 5037   2.676   2.761   1.180  1.3946  1.6256  1.5666
 1677TIP3    H2 5038   2.774   2.859   1.119  2.2407  1.2375  2.2914
 1678TIP3   OH2 5039   5.688   3.745   1.105 -0.5766 -0.2376  0.5533
 1678TIP3    H1 5040   5.761   3.792   1.145  0.4146 -0.9964 -0.3052
 1678TIP3    H2 5041   5.630   3.725   1.179 -1.1567  2.4666  0.9136
 1679TIP3   OH2 5042   1.883   2.650   2.769 -0.1483  0.3292  0.2156
 1679TIP3    H1 5043   1.931   2.579   2.813  0.3238 -0.7172 -1.8828
 1679TIP3    H2 5044   1.791   2.626   2.779 -0.1291  0.7506  1.6357
 1680TIP3   OH2 5045   1.548   5.398   3.114 -1.0444 -0.4992 -0.3644
 1680TIP3    H1 5046   1.601   5.336   3.164  0.0086 -0.0937 -0.9511
 1680TIP3    H2 5047   1.463   5.354   3.104 -0.5796 -1.4926 -0.0742
 1681TIP3   OH2 5048   5.624   5.813   4.957 -0.0604  0.3377 -0.0449
 1681TIP3    H1 5049   5.640   5.803   4.863 -2.9998  0.3908 -0.6630
 1681TIP3    H2 5050   5.670   5.740   4.997  1.6407  0.5722 -1.4332
 1682TIP3   OH2 5051   2.164   2.213   0.569 -0.7908 -0.1319  0.4162
 1682TIP3    H1 5052   2.192   2.164   0.647  0.7817 -1.1967 -0.7645
 1682TIP3    H2 5053   2.245   2.248   0.532 -1.6255  1.1697 -0.2396
 1683TIP3   OH2 5054   5.740   2.655   4.258 -0.1495  0.5068  0.6151
 1683TIP3    H1 5055   5.645   2.659   4.249 -0.0379  2.6638 -0.3476
 1683TIP3    H2 5056   5.754   2.620   4.346 -1.7533 -1.5964  0.1248
 1684TIP3   OH2 5057   2.342   4.073   1.699 -0.7348 -0.0521  0.2500
 1684TIP3    H1 5058   2.372   4.163   1.712 -1.3972 -0.0595  2.2256
 1684TIP3    H2 5059   2.418   4.019   1.723 -1.6074 -0.0352  3.5038
 1685TIP3   OH2 5060   5.876   3.964   0.898  0.1021 -0.4099  0.3349
 1685TIP3    H1 5061   5.921   3.980   0.815 -0.5061  0.4515  0.1585
 1685TIP3    H2 5062   5.895   3.872   0.919  1.1673 -0.3123 -0.1924
 1686TIP3   OH2 5063   0.264   0.024   2.795 -0.4831 -0.2663  0.2167
 1686TIP3    H1 5064   0.249   0.082   2.720  2.4357 -0.8235 -0.9271
 1686TIP3    H2 5065   0.231  -0.061   2.767  0.9325 -0.5601 -0.6447
 1687TIP3   OH2 5066   5.345   1.906   3.982 -0.1542 -0.1091  0.3959
 1687TIP3    H1 5067   5.266   1.889   3.930 -0.2504 -0.8640  0.7743
 1687TIP3    H2 5068   5.396   1.966   3.928  0.9456 -2.8271 -1.8358
 1688TIP3   OH2 5069   3.811   4.315   4.963  0.3410 -0.8014  0.1116
 1688TIP3    H1 5070   3.863   4.374   5.017 -0.2378 -0.0756 -0.1091
 1688TIP3    H2 5071   3.875   4.258   4.921  1.0831  0.9017 -1.1765
 1689TIP3   OH2 5072   4.620   2.821   0.856  0.6771  0.1535  0.5124
 1689TIP3    H1 5073   4.556   2.768   0.903  0.2653 -2.0380 -2.2580
 1689TIP3    H2 5074   4.665   2.870   0.924 -2.1958 -0.1228  2.7995
 1690TIP3   OH2 5075   1.928   0.952   4.806 -0.0988  0.6055 -0.7965
 1690TIP3    H1 5076   1.991   0.895   4.761 -0.6988 -1.3625  0.7208
 1690TIP3    H2 5077   1.858   0.966   4.741 -1.4643 -3.0325 -0.3371
 1691TIP3   OH2 5078   2.949   5.674   1.629  0.4286 -0.5627 -0.4086
 1691TIP3    H1 5079   2.922   5.658   1.538  0.6445 -0.9331 -0.4106
 1691TIP3    H2 5080   2.897   5.750   1.656  2.5075  1.4700 -1.7911
 1692TIP3   OH2 5081   1.246   4.373   1.030 -0.1007  0.0564 -0.1149
 1692TIP3    H1 5082   1.181   4.305   1.015  1.7824 -1.5263 -1.6553
 1692TIP3    H2 5083   1.245   4.426   0.951 -0.9853  1.3714  0.7456
 1693TIP3   OH2 5084   4.813   4.552   0.141 -0.1258  0.3500 -0.1139
 1693TIP3    H1 5085   4.842   4.463   0.120  1.5340  1.1383 -1.3899
 1693TIP3    H2 5086   4.838   4.564   0.233  1.7348  0.2517 -0.5705
 1694TIP3   OH2 5087   2.311   0.049   1.027  0.1597 -0.0549 -0.2100
 1694TIP3    H1 5088   2.271   0.127   0.989 -0.0195  0.5200  1.0994
 1694TIP3    H2 5089   2.262  -0.024   0.989  0.8271  0.3880 -2.0470
 1695TIP3   OH2 5090   0.348   4.695   4.992 -0.1670  0.4371 -0.0231
 1695TIP3    H1 5091   0.371   4.604   4.972  0.5961  0.7568 -0.6821
 1695TIP3    H2 5092   0.309   4.691   5.079 -0.6806 -0.5958 -0.2827
 1696TIP3   OH2 5093   5.923   1.089   1.274  0.4088 -0.0954 -0.0841
 1696TIP3    H1 5094   5.985   1.017   1.277 -0.5289 -0.9268  0.1909
 1696TIP3    H2 5095   5.858   1.066   1.341  0.9166  1.7918  1.1409
 1697TIP3   OH2 5096   0.864   1.711   0.140  0.7371  0.0329 -0.1318
 1697TIP3    H1 5097   0.956   1.718   0.165  0.2734  1.0775  1.4376
 1697TIP3    H2 5098   0.842   1.620   0.157  1.1044  0.1316  0.9860
 1698TIP3   OH2 5099   1.059   0.557   3.020  0.6169 -0.2024 -0.2875
 1698TIP3    H1 5100   1.094   0.634   2.975 -0.8810 -0.1220 -1.3904
 1698TIP3    H2 5101   1.037   0.588   3.107  0.6916  0.4484 -0.4971
 1699TIP3   OH2 5102   2.572   1.256   1.349 -0.2281 -0.2481 -0.1730
 1699TIP3    H1 5103   2.623   1.248   1.430  0.9465 -1.9585 -1.0226
 1699TIP3    H2 5104   2.517   1.179   1.347  0.5463 -0.8016 -1.5011
 1700TIP3   OH2 5105   4.570   3.934   2.848 -0.3815 -0.0086  0.1019
 1700TIP3    H1 5106   4.577   4.030   2.847 -0.9109  0.0504  1.2558
 1700TIP3    H2 5107   4.504   3.915   2.914  0.2665 -1.2068  0.4288
 1701TIP3   OH2 5108   6.089   2.575   3.691  0.5465  0.2366 -0.0034
 1701TIP3    H1 5109   6.107   2.553   3.599  1.1742 -0.1375  0.2013
 1701TIP3    H2 5110   5.998   2.605   3.691  0.5860  0.3911 -0.7726
 1702TIP3   OH2 5111   0.468   3.895   2.287  0.1777  0.0931 -0.8449
 1702TIP3    H1 5112   0.550   3.879   2.240  0.5533  0.4042 -0.3036
 1702TIP3    H2 5113   0.409   3.933   2.222  0.4084 -0.2777 -1.2757
 1703TIP3   OH2 5114   3.830   3.332   0.091  0.0312 -0.1365 -0.4067
 1703TIP3    H1 5115   3.888   3.291   0.028 -0.3116 -0.8299 -0.2735
 1703TIP3    H2 5116   3.801   3.413   0.048  0.7808  0.0230 -0.6269
 1704TIP3   OH2 5117   0.850   4.488   0.497 -0.5552  0.2176 -0.0663
 1704TIP3    H1 5118   0.817   4.537   0.573 -2.5180  0.0755 -0.7655
 1704TIP3    H2 5119   0.845   4.550   0.424  2.9376  0.9213  0.1033
 1705TIP3   OH2 5120   0.335   5.687   4.693 -0.4447 -0.8610 -0.2920
 1705TIP3    H1 5121   0.421   5.645   4.685  0.2845 -0.2699  3.0047
 1705TIP3    H2 5122   0.279   5.620   4.734 -0.2211  0.1601  1.7964
 1706TIP3   OH2 5123   4.200   4.568   1.735  0.3022 -0.7285  0.2968
 1706TIP3    H1 5124   4.202   4.604   1.823 -0.1774  0.0238  0.0127
 1706TIP3    H2 5125   4.111   4.587   1.703  0.5746 -0.6936 -0.4640
 1707TIP3   OH2 5126   0.721   0.435   1.957 -0.1690  0.5844 -0.0939
 1707TIP3    H1 5127   0.695   0.437   2.049  1.2720  2.5367  0.3455
 1707TIP3    H2 5128   0.814   0.410   1.959 -0.7076 -1.8577 -1.2708
 1708TIP3   OH2 5129   5.096   2.774   3.970  0.0524  0.4292 -0.6238
 1708TIP3    H1 5130   5.167   2.784   4.034 -0.8140 -1.5537  0.7150
 1708TIP3    H2 5131   5.115   2.691   3.926 -0.3874  0.8648 -1.6747
 1709TIP3   OH2 5132   1.257   1.397   0.869 -0.1710  0.1816  0.6566
 1709TIP3    H1 5133   1.319   1.430   0.804 -2.0960  2.3822 -0.2250
 1709TIP3    H2 5134   1.306   1.332   0.919  1.4382 -1.5883 -2.8907
 1710TIP3   OH2 5135   2.216   1.477   4.587 -0.1016  0.5434  0.1380
 1710TIP3    H1 5136   2.221   1.394   4.634  0.3069  1.1778  1.2616
 1710TIP3    H2 5137   2.244   1.542   4.651 -2.7783  1.8651  0.0799
 1711TIP3   OH2 5138   2.899   3.043   2.486 -0.0415  0.0096  0.6136
 1711TIP3    H1 5139   2.864   3.075   2.403  0.1438 -0.5167  0.3274
 1711TIP3    H2 5140   2.846   3.087   2.553 -0.4578  0.1300  0.2106
 1712TIP3   OH2 5141   5.098   0.865   2.474  0.3617  0.1856  0.2017
 1712TIP3    H1 5142   5.120   0.885   2.383  1.9289 -1.8747  0.0427
 1712TIP3    H2 5143   5.183   0.847   2.515 -0.2944  1.2939  2.1575
 1713TIP3   OH2 5144   1.009   3.600   3.524 -0.0502 -0.0971 -0.2533
 1713TIP3    H1 5145   1.103   3.611   3.541 -0.2338  0.2697  0.5617
 1713TIP3    H2 5146   0.999   3.507   3.504  0.2587 -0.4619  1.2318
 1714TIP3   OH2 5147   0.362   1.182   0.241  0.1305 -0.0556  1.0715
 1714TIP3    H1 5148   0.306   1.209   0.313 -0.0033 -1.1963  1.4247
 1714TIP3    H2 5149   0.425   1.122   0.281  1.7438  1.3418  0.7211
 1715TIP3   OH2 5150   3.669   1.713   2.140  0.2272 -0.6076  0.0582
 1715TIP3    H1 5151   3.707   1.626   2.129  0.6250 -0.4652  0.2906
 1715TIP3    H2 5152   3.582   1.697   2.177  0.7942 -0.8529  1.3331
 1716TIP3   OH2 5153   1.629   1.064   0.826  0.2813  0.1006 -0.4978
 1716TIP3    H1 5154   1.622   0.998   0.757  1.0629 -1.1721  0.6090
 1716TIP3    H2 5155   1.714   1.105   0.812  0.3285  0.0227 -0.4351
 1717TIP3   OH2 5156   1.908   1.347   2.441 -0.3218  0.2316  0.2066
 1717TIP3    H1 5157   1.895   1.410   2.512  3.4272 -0.3798  1.7082
 1717TIP3    H2 5158   1.850   1.275   2.461 -1.6603  1.4281  0.7939
 1718TIP3   OH2 5159   2.081   2.258   4.266  0.3459  0.0072  0.0923
 1718TIP3    H1 5160   2.149   2.191   4.277 -0.2354 -0.6722 -0.3931
 1718TIP3    H2 5161   2.031   2.230   4.190 -0.3162  0.6529  0.2709
 1719TIP3   OH2 5162   5.550   2.521   1.483  0.1433  0.3504 -0.8851
 1719TIP3    H1 5163   5.524   2.549   1.395 -2.2619  1.3002  0.0468
 1719TIP3    H2 5164   5.529   2.428   1.486 -1.1282  0.6126 -0.9130
 1720TIP3   OH2 5165   2.983   3.394   0.287 -0.0501  0.5854 -0.1595
 1720TIP3    H1 5166   2.910   3.395   0.348  0.6654  1.1102  0.7076
 1720TIP3    H2 5167   2.942   3.401   0.201 -1.1562 -1.4340  0.1367
 1721TIP3   OH2 5168   0.334   2.814   2.384  0.0708  0.5593 -0.2764
 1721TIP3    H1 5169   0.304   2.736   2.430 -2.9495  0.7315 -1.7090
 1721TIP3    H2 5170   0.338   2.788   2.292 -1.0767  2.0556 -0.7930
 1722TIP3   OH2 5171   3.059   5.566   2.414 -0.2379  0.5115  0.3113
 1722TIP3    H1 5172   3.044   5.517   2.334  0.2172  0.3096  0.3461
 1722TIP3    H2 5173   3.150   5.595   2.408 -0.1946  0.4841  0.7568
 1723TIP3   OH2 5174   3.233   0.294   0.710 -0.3035 -0.4333  0.1858
 1723TIP3    H1 5175   3.209   0.373   0.661  1.9962  0.2368  0.0444
 1723TIP3    H2 5176   3.165   0.231   0.688  0.2544  0.0123 -3.4444
 1724TIP3   OH2 5177   5.653   3.753   2.627  0.2758 -0.3428  0.1729
 1724TIP3    H1 5178   5.694   3.803   2.698  1.7133 -0.1418 -0.7629
 1724TIP3    H2 5179   5.723   3.698   2.592 -0.1416  0.2778 -1.7390
 1725TIP3   OH2 5180   4.039   4.646   0.240 -0.0888 -0.0520  0.1645
 1725TIP3    H1 5181   4.087   4.567   0.217  1.7610  1.1359 -0.3011
 1725TIP3    H2 5182   4.037   4.697   0.159  0.1328  1.0271  0.8128
 1726TIP3   OH2 5183   0.748   3.935   1.606  0.3390  0.1199  0.5961
 1726TIP3    H1 5184   0.781   3.864   1.552 -0.3250  0.0901  0.2224
 1726TIP3    H2 5185   0.673   3.897   1.653  0.1306  0.4986  0.5795
 1727TIP3   OH2 5186   2.669   3.365   0.706  0.0571  0.1963  0.4948
 1727TIP3    H1 5187   2.671   3.454   0.742  1.5250  0.4597 -0.1622
 1727TIP3    H2 5188   2.619   3.314   0.770 -1.7053  1.6893  0.3790
 1728TIP3   OH2 5189   2.383   5.595   2.950 -0.6359 -0.6868  0.1391
 1728TIP3    H1 5190   2.433   5.522   2.915  0.1802  0.0757 -0.3354
 1728TIP3    H2 5191   2.296   5.585   2.911 -0.0516 -0.4644 -1.2921
 1729TIP3   OH2 5192   3.043   4.896   0.916  0.1574 -0.1359  0.4439
 1729TIP3    H1 5193   3.005   4.907   0.829  0.5302 -1.5752  0.0658
 1729TIP3    H2 5194   3.081   4.808   0.915 -2.1086 -1.2947  2.9183
 1730TIP3   OH2 5195   3.760   3.434   2.257  0.5925 -0.1078 -0.2671
 1730TIP3    H1 5196   3.699   3.483   2.202 -0.2723 -1.4122 -0.5121
 1730TIP3    H2 5197   3.846   3.462   2.228  0.1906  2.7932  0.9812
 1731TIP3   OH2 5198   1.148   1.162   0.427  0.3073  0.2283  0.3485
 1731TIP3    H1 5199   1.129   1.178   0.520 -1.0828 -1.0350  0.3289
 1731TIP3    H2 5200   1.166   1.248   0.391 -0.0384  0.8624  1.6109
 1732TIP3   OH2 5201   2.437   3.955   2.699 -0.1681 -0.5225 -0.8858
 1732TIP3    H1 5202   2.426   4.041   2.658 -0.8898  0.8601  1.9403
 1732TIP3    H2 5203   2.511   3.916   2.653  0.3675  1.7451 -2.1082
 1733TIP3   OH2 5204   1.096   5.665   0.948 -0.3480 -0.3357 -0.0122
 1733TIP3    H1 5205   1.117   5.757   0.967 -1.5787 -0.5960  3.2198
 1733TIP3    H2 5206   1.034   5.670   0.875 -1.3501  1.5389  0.9008
 1734TIP3   OH2 5207   4.396   0.560   0.843  0.0962  0.1846 -0.0029
 1734TIP3    H1 5208   4.479   0.608   0.843 -0.4683  1.2032  0.4532
 1734TIP3    H2 5209   4.331   0.625   0.813 -0.6942 -0.2893  0.6328
 1735TIP3   OH2 5210   4.880   3.743   3.904  0.0683  0.5065  0.1635
 1735TIP3    H1 5211   4.880   3.818   3.964  0.2866  1.1692 -0.6436
 1735TIP3    H2 5212   4.957   3.691   3.930  0.6206  1.2065 -0.0530
 1736TIP3   OH2 5213   5.119   3.249   1.393  0.0985 -0.0795 -0.2083
 1736TIP3    H1 5214   5.148   3.245   1.484 -0.9567 -1.2677  0.1061
 1736TIP3    H2 5215   5.194   3.218   1.342  0.7449  0.7298  0.2286
 1737TIP3   OH2 5216   0.559   1.453   0.684 -0.2171 -0.5328 -0.1965
 1737TIP3    H1 5217   0.526   1.363   0.690  0.6375 -0.8713 -0.4711
 1737TIP3    H2 5218   0.563   1.470   0.589  1.4178 -0.8877 -0.2096
 1738TIP3   OH2 5219   4.100   4.233   2.241 -0.2642  0.1864 -0.3034
 1738TIP3    H1 5220   4.117   4.290   2.166 -0.1294 -1.0602 -1.2455
 1738TIP3    H2 5221   4.181   4.237   2.293 -0.2881  0.9038 -0.3140
 1739TIP3   OH2 5222   2.130   4.215   1.812 -0.2079  0.0746 -0.5181
 1739TIP3    H1 5223   2.148   4.276   1.741 -2.4589  0.8556 -0.4962
 1739TIP3    H2 5224   2.204   4.154   1.811  1.1107  1.6125 -1.8073
 1740TIP3   OH2 5225   4.411   5.587   1.700 -0.8708 -0.4569 -0.0296
 1740TIP3    H1 5226   4.412   5.584   1.795  1.5159 -1.4968 -0.0139
 1740TIP3    H2 5227   4.446   5.674   1.678  0.3523 -0.9177  0.0679
 1741TIP3   OH2 5228   5.935   1.130   0.459  0.1740 -0.0192 -0.2775
 1741TIP3    H1 5229   5.870   1.189   0.496 -0.3189 -0.3922 -0.5451
 1741TIP3    H2 5230   5.942   1.059   0.523 -0.1327 -0.2890 -0.5420
 1742TIP3   OH2 5231   1.986   4.651   0.850 -0.1127  0.0357 -0.0605
 1742TIP3    H1 5232   1.955   4.636   0.940 -2.4035 -0.7761 -0.9194
 1742TIP3    H2 5233   2.080   4.633   0.854 -0.4229 -1.5682  1.8547
 1743TIP3   OH2 5234   0.649   3.972   0.496  0.4940 -0.1454 -0.5279
 1743TIP3    H1 5235   0.652   3.960   0.591 -0.5080  0.0108 -0.4666
 1743TIP3    H2 5236   0.660   4.066   0.483 -1.1786  0.0904 -0.4420
 1744TIP3   OH2 5237   1.265   1.271   1.695  0.1359  0.2089 -0.7498
 1744TIP3    H1 5238   1.358   1.286   1.678  0.3808 -2.0321 -1.7274
 1744TIP3    H2 5239   1.225   1.269   1.608 -0.7837  0.7062 -0.3605
 1745TIP3   OH2 5240   3.212   2.513   1.168  0.3441  0.3776 -0.6473
 1745TIP3    H1 5241   3.219   2.607   1.182 -1.2563  0.6738 -1.6240
 1745TIP3    H2 5242   3.119   2.497   1.151  0.4031 -1.5298  0.4194
 1746TIP3   OH2 5243   3.910   4.703   2.426  0.0142  0.5368  1.0297
 1746TIP3    H1 5244   3.935   4.648   2.351 -1.5429  0.4542  0.5295
 1746TIP3    H2 5245   3.943   4.790   2.403  1.6156  0.0419  1.3613
 1747TIP3   OH2 5246   0.279   1.416   2.072  0.2623 -0.5065  0.2839
 1747TIP3    H1 5247   0.306   1.492   2.021 -1.1497 -0.7982 -0.9500
 1747TIP3    H2 5248   0.194   1.392   2.037 -0.0506 -1.6935  1.7370
 1748TIP3   OH2 5249   3.698   1.529   4.144  0.3958 -0.2304  0.5340
 1748TIP3    H1 5250   3.663   1.489   4.064  0.2605  1.4299 -0.2782
 1748TIP3    H2 5251   3.625   1.525   4.206 -0.4376  0.8744 -0.3202
 1749TIP3   OH2 5252   6.380   0.053   3.813  0.2766  0.1536  0.1339
 1749TIP3    H1 5253   6.333   0.111   3.753  1.4217  0.8588 -0.1072
 1749TIP3    H2 5254   6.347  -0.034   3.793  2.2230  0.0038 -3.1731
 1750TIP3   OH2 5255   0.939   3.938   3.258  0.2348  0.0309  1.2530
 1750TIP3    H1 5256   0.969   3.926   3.348 -0.8953  0.7936  1.7439
 1750TIP3    H2 5257   0.876   4.010   3.262 -1.2849 -1.1710  0.1693
 1751TIP3   OH2 5258   4.763   0.575   4.736  0.0486 -0.3117  0.0471
 1751TIP3    H1 5259   4.694   0.594   4.672  1.2811 -0.4441 -1.3922
 1751TIP3    H2 5260   4.795   0.661   4.763 -1.6318 -0.2091  1.8594
 1752TIP3   OH2 5261   0.820   3.762   1.411  0.3303  0.4809  0.0895
 1752TIP3    H1 5262   0.789   3.673   1.428 -1.5183  1.0824  0.0639
 1752TIP3    H2 5263   0.772   3.790   1.333  2.1747  0.9201 -0.9549
 1753TIP3   OH2 5264   5.273   2.470   5.189 -0.2384 -0.5605  0.4525
 1753TIP3    H1 5265   5.248   2.562   5.195  0.4145 -0.2922 -0.7642
 1753TIP3    H2 5266   5.299   2.457   5.098  2.4808 -1.2081  1.2046
 1754TIP3   OH2 5267   0.689   2.191   4.665 -0.4361 -0.3249  0.4348
 1754TIP3    H1 5268   0.633   2.178   4.742 -0.2519  0.8371  0.7876
 1754TIP3    H2 5269   0.710   2.103   4.635 -0.5174 -0.7993  1.7127
 1755TIP3   OH2 5270   1.345   0.582   2.320 -0.0330  0.2878 -0.2126
 1755TIP3    H1 5271   1.345   0.664   2.369  0.0596  0.5274 -0.6094
 1755TIP3    H2 5272   1.345   0.609   2.228 -0.8705 -0.1557 -0.3507
 1756TIP3   OH2 5273   2.557   2.800   2.302 -0.1966 -1.2246 -0.0019
 1756TIP3    H1 5274   2.465   2.777   2.313 -0.7339  0.1118 -1.3238
 1756TIP3    H2 5275   2.556   2.873   2.240  1.4551  1.3524  2.7276
 1757TIP3   OH2 5276   3.785   0.781   0.103 -0.2194  0.1354 -0.0504
 1757TIP3    H1 5277   3.876   0.752   0.107 -0.4790 -0.8877 -1.0838
 1757TIP3    H2 5278   3.763   0.780   0.010 -0.7659  2.1136 -0.0019
 1758TIP3   OH2 5279   5.670   2.742   0.164  0.2727  0.0119  0.0742
 1758TIP3    H1 5280   5.741   2.805   0.179  0.1956  0.2765 -0.6211
 1758TIP3    H2 5281   5.652   2.705   0.250  1.0248  0.1914  0.3141
 1759TIP3   OH2 5282   2.456   5.687   4.731 -0.1129 -0.0413 -0.8563
 1759TIP3    H1 5283   2.377   5.633   4.740 -0.4795  0.7483  1.2976
 1759TIP3    H2 5284   2.528   5.627   4.748 -0.4361 -0.1645  0.1441
 1760TIP3   OH2 5285   2.081   1.700   5.123  0.3396 -0.3851  0.9281
 1760TIP3    H1 5286   2.005   1.741   5.165 -1.1428 -1.5770 -0.4637
 1760TIP3    H2 5287   2.078   1.731   5.033  0.4196 -1.8983  0.3888
 1761TIP3   OH2 5288   2.107   4.745   3.503  0.4632 -0.6655 -0.4776
 1761TIP3    H1 5289   2.198   4.728   3.477  0.2830 -1.2355 -0.7699
 1761TIP3    H2 5290   2.066   4.658   3.503  0.0300 -0.4691  0.0873
 1762TIP3   OH2 5291   6.034   4.474   1.044 -0.2708 -0.6622  0.3460
 1762TIP3    H1 5292   6.030   4.379   1.033 -0.9424 -0.6283  0.2278
 1762TIP3    H2 5293   5.965   4.493   1.107  1.0313 -0.4333  1.7431
 1763TIP3   OH2 5294   0.992   0.979   2.989  0.2884  0.2548  0.0361
 1763TIP3    H1 5295   0.998   0.915   3.060 -0.3137  0.9521  0.7304
 1763TIP3    H2 5296   0.908   1.022   3.002  0.0982  0.2824 -1.2044
 1764TIP3   OH2 5297   3.768   1.282   2.376  0.1051 -0.0466 -0.4313
 1764TIP3    H1 5298   3.763   1.224   2.453  1.2995  3.2714  2.3906
 1764TIP3    H2 5299   3.861   1.300   2.365 -0.2625  2.0390 -0.5574
 1765TIP3   OH2 5300   4.207   3.011   1.055 -0.2245  0.4163 -0.3888
 1765TIP3    H1 5301   4.191   2.972   0.970  0.8233 -1.3048  0.1520
 1765TIP3    H2 5302   4.137   2.976   1.111  0.0831  0.1750 -0.1520
 1766TIP3   OH2 5303   2.373   0.169   5.087  0.5277  0.2000  0.2250
 1766TIP3    H1 5304   2.353   0.077   5.101  0.4923 -0.0940 -1.5425
 1766TIP3    H2 5305   2.288   0.211   5.079  0.5437  0.1561 -0.2232
 1767TIP3   OH2 5306   3.231   3.898   4.409 -0.3929 -0.3607  0.1893
 1767TIP3    H1 5307   3.157   3.890   4.468 -0.0977 -1.3338  0.4314
 1767TIP3    H2 5308   3.236   3.814   4.364 -0.5200  0.3055 -1.1206
 1768TIP3   OH2 5309   1.045   4.743   1.082  0.3337 -0.6890 -0.7693
 1768TIP3    H1 5310   1.140   4.736   1.076  0.3802 -1.8751  0.6297
 1768TIP3    H2 5311   1.028   4.756   1.176 -0.8717  0.0265 -1.0596
 1769TIP3   OH2 5312   1.579   2.103   3.640 -0.0089 -0.6422  0.0767
 1769TIP3    H1 5313   1.557   2.121   3.731  0.3747  1.9318 -0.2744
 1769TIP3    H2 5314   1.672   2.080   3.643  0.9322  2.6477  0.1071
 1770TIP3   OH2 5315   3.167   1.946   2.562 -0.0306  0.6286 -0.1127
 1770TIP3    H1 5316   3.142   1.854   2.561  1.7778  0.0682 -2.2429
 1770TIP3    H2 5317   3.197   1.963   2.651  0.4171 -1.0874  0.0846
 1771TIP3   OH2 5318   1.338   0.612   2.036 -0.4585 -0.2532 -0.1191
 1771TIP3    H1 5319   1.276   0.612   1.963  0.1166  2.3690 -0.6983
 1771TIP3    H2 5320   1.414   0.563   2.004 -0.6589 -0.0924 -0.8582
 1772TIP3   OH2 5321   6.108   5.719   3.335  0.3120  0.1199  0.0492
 1772TIP3    H1 5322   6.068   5.665   3.267  1.2136 -0.5821  0.0584
 1772TIP3    H2 5323   6.184   5.759   3.292  1.0909 -0.6063  0.7260
 1773TIP3   OH2 5324   1.287   2.194   3.764  0.1756 -0.3817  0.2153
 1773TIP3    H1 5325   1.343   2.272   3.762  0.4638 -0.5986 -0.8323
 1773TIP3    H2 5326   1.203   2.224   3.729  0.4579 -0.6443 -0.7396
 1774TIP3   OH2 5327   2.703   0.387   1.838 -0.0724  0.2290 -0.4571
 1774TIP3    H1 5328   2.788   0.431   1.825 -0.8023  1.4918 -1.1663
 1774TIP3    H2 5329   2.689   0.337   1.758  0.7714 -1.3918  0.3627
 1775TIP3   OH2 5330   3.473   4.428   4.365 -0.4963 -0.1759 -0.3060
 1775TIP3    H1 5331   3.438   4.443   4.277 -0.3308 -0.8375 -0.4945
 1775TIP3    H2 5332   3.437   4.343   4.390 -0.6403  0.0678  0.3191
 1776TIP3   OH2 5333   3.683   1.701   0.904  0.0839  0.2456  0.4086
 1776TIP3    H1 5334   3.638   1.654   0.974  0.6005 -3.1830 -1.3347
 1776TIP3    H2 5335   3.613   1.745   0.856 -1.0107 -1.7451  0.0603
 1777TIP3   OH2 5336   4.881   2.760   2.573  0.5282 -0.5773  0.3722
 1777TIP3    H1 5337   4.936   2.711   2.634  2.5394  0.6053 -0.3979
 1777TIP3    H2 5338   4.893   2.717   2.489 -1.2741 -1.4477  0.4948
 1778TIP3   OH2 5339   0.213   5.915   2.647 -0.1222  0.1153  0.7515
 1778TIP3    H1 5340   0.250   5.991   2.602  3.6015 -1.5352  0.6693
 1778TIP3    H2 5341   0.174   5.863   2.577 -0.4346  0.7502  0.4444
 1779TIP3   OH2 5342   1.654   1.794   2.169  0.9619 -0.6675 -0.3761
 1779TIP3    H1 5343   1.675   1.706   2.139  2.6273 -0.3602 -0.1930
 1779TIP3    H2 5344   1.725   1.817   2.229 -0.4071  0.1123  1.0231
 1780TIP3   OH2 5345   3.977   5.147   3.637 -0.0036 -0.0501 -0.8986
 1780TIP3    H1 5346   3.984   5.122   3.730  0.7727 -1.4274 -1.2949
 1780TIP3    H2 5347   3.958   5.241   3.639 -1.2828 -0.2939  0.6673
 1781TIP3   OH2 5348   3.512   1.549   1.065  0.2034  0.3160 -0.0466
 1781TIP3    H1 5349   3.421   1.553   1.035 -0.0766 -2.7219  0.0737
 1781TIP3    H2 5350   3.505   1.556   1.161 -0.1586 -1.5827  0.1103
 1782TIP3   OH2 5351   1.043   2.575   0.085  0.4970  0.0471 -0.6315
 1782TIP3    H1 5352   1.030   2.504   0.023  1.2439 -0.5941 -0.0749
 1782TIP3    H2 5353   0.962   2.627   0.079 -0.6611 -1.5837 -0.1054
 1783TIP3   OH2 5354   1.389   5.909   2.166 -0.2334  0.0516  0.0901
 1783TIP3    H1 5355   1.338   5.836   2.130 -0.1428 -1.0797  2.1392
 1783TIP3    H2 5356   1.444   5.869   2.233 -1.2983  2.1819  2.3849
 1784TIP3   OH2 5357   5.909   3.591   2.583 -0.5931  0.1384  0.4482
 1784TIP3    H1 5358   5.880   3.637   2.504 -1.3079 -0.8766  0.0992
 1784TIP3    H2 5359   5.999   3.622   2.597  0.1333 -0.7736 -1.6858
 1785TIP3   OH2 5360   0.320   1.135   5.037 -0.0774  0.5566  0.0242
 1785TIP3    H1 5361   0.305   1.048   5.073 -0.4154  0.9499  0.8613
 1785TIP3    H2 5362   0.415   1.145   5.037  0.0706 -0.3908 -1.5404
 1786TIP3   OH2 5363   5.449   2.557   1.237 -0.5335 -0.2522 -0.4465
 1786TIP3    H1 5364   5.413   2.509   1.162  1.4997 -1.6055 -0.6161
 1786TIP3    H2 5365   5.469   2.644   1.202 -1.0570 -0.3564 -1.0426
 1787TIP3   OH2 5366   2.205   4.447   3.408 -0.2642 -0.4245  0.4671
 1787TIP3    H1 5367   2.170   4.444   3.497  0.9842  0.1706  1.0023
 1787TIP3    H2 5368   2.290   4.402   3.414 -0.4963 -1.0387 -0.5927
 1788TIP3   OH2 5369   4.184   0.059   2.458 -0.5771 -0.2773  0.3252
 1788TIP3    H1 5370   4.124  -0.016   2.454 -0.1128 -0.6430  0.0904
 1788TIP3    H2 5371   4.268   0.024   2.427 -0.8424  0.8423 -1.8015
 1789TIP3   OH2 5372   5.247   3.831   1.439 -0.2825  0.0231  0.0470
 1789TIP3    H1 5373   5.236   3.926   1.439 -1.9421 -0.1053  1.5567
 1789TIP3    H2 5374   5.250   3.806   1.347  1.1875  1.5973 -0.3831
 1790TIP3   OH2 5375   2.767   3.175   4.096  0.4820  0.1385  0.2579
 1790TIP3    H1 5376   2.749   3.161   4.003 -1.2380 -2.4174  0.8766
 1790TIP3    H2 5377   2.681   3.171   4.138  1.1053  2.2153  1.9215
 1791TIP3   OH2 5378   4.277   3.337   1.624 -0.1750 -0.4209 -0.0407
 1791TIP3    H1 5379   4.226   3.404   1.578 -0.3333 -0.9728 -0.6835
 1791TIP3    H2 5380   4.304   3.379   1.706 -0.8355  0.2041 -0.1351
 1792TIP3   OH2 5381   1.494   3.844   3.598 -0.0539 -0.5093  0.4084
 1792TIP3    H1 5382   1.521   3.807   3.514 -0.6965  0.1613 -0.1088
 1792TIP3    H2 5383   1.516   3.777   3.662  1.5384 -0.5520 -0.1396
 1793TIP3   OH2 5384   3.078   1.703   1.909 -0.1868 -0.3765  0.7453
 1793TIP3    H1 5385   3.071   1.794   1.938  2.5557 -1.0859  4.2103
 1793TIP3    H2 5386   2.999   1.661   1.941 -0.5751  0.3845  0.8035
 1794TIP3   OH2 5387   5.467   4.819   2.487  0.0398 -0.2526  0.9921
 1794TIP3    H1 5388   5.551   4.774   2.472  0.0959 -0.5859  2.1774
 1794TIP3    H2 5389   5.450   4.866   2.405  1.6243  0.2143  0.8850
 1795TIP3   OH2 5390   4.004   5.698   0.587  0.0262  0.1609 -0.0418
 1795TIP3    H1 5391   3.971   5.788   0.581 -0.8968 -0.0818  1.1036
 1795TIP3    H2 5392   4.029   5.687   0.679  1.0203 -0.4648 -0.3718
 1796TIP3   OH2 5393   2.131   2.234   4.760 -0.2243  0.2065  0.0484
 1796TIP3    H1 5394   2.080   2.180   4.699  1.2822 -0.0220 -1.0689
 1796TIP3    H2 5395   2.070   2.301   4.789 -1.0872  0.1317 -1.4797
 1797TIP3   OH2 5396   2.876   2.634   0.089  0.1606  0.2283 -0.0024
 1797TIP3    H1 5397   2.824   2.564   0.050  0.4813  0.1898 -0.3670
 1797TIP3    H2 5398   2.855   2.712   0.038  0.9959  0.0639 -0.6163
 1798TIP3   OH2 5399   3.862   2.774   2.926  0.3925  0.0853  0.0033
 1798TIP3    H1 5400   3.919   2.697   2.929  1.2643  0.7306  1.6623
 1798TIP3    H2 5401   3.913   2.842   2.969 -0.8818  1.2388 -0.2676
 1799TIP3   OH2 5402   4.518   4.709   4.579  0.6475 -0.4202  0.4173
 1799TIP3    H1 5403   4.487   4.797   4.560  0.8962 -0.2832  0.6394
 1799TIP3    H2 5404   4.454   4.651   4.536  0.6599 -0.1317  0.0027
 1800TIP3   OH2 5405   6.092   2.617   4.011 -0.4562 -0.2043 -0.5894
 1800TIP3    H1 5406   6.095   2.619   3.916 -1.3020 -1.0671 -0.6419
 1800TIP3    H2 5407   6.061   2.704   4.036 -0.1067  0.0656 -1.0840
 1801TIP3   OH2 5408   0.518   2.122   4.938 -0.7645 -0.3683 -0.5753
 1801TIP3    H1 5409   0.598   2.071   4.948  0.0335  1.1481  1.5542
 1801TIP3    H2 5410   0.447   2.060   4.956 -0.0653 -1.5322 -1.6897
 1802TIP3   OH2 5411   3.950   3.437   1.802 -0.1303  0.2938 -0.4335
 1802TIP3    H1 5412   3.938   3.407   1.712  4.1205  0.2678 -1.1557
 1802TIP3    H2 5413   3.981   3.360   1.850 -1.4858  0.5323  0.9335
 1803TIP3   OH2 5414   5.564   0.275   0.750 -0.1416  0.2586  0.3655
 1803TIP3    H1 5415   5.588   0.272   0.843  0.6260  0.6342  0.1917
 1803TIP3    H2 5416   5.471   0.294   0.750  0.2342  2.3062  1.0383
 1804TIP3   OH2 5417   0.997   0.289   3.314 -0.1024  0.5882 -0.0944
 1804TIP3    H1 5418   1.033   0.363   3.363  0.7937 -0.6693  1.2091
 1804TIP3    H2 5419   0.927   0.255   3.368 -0.2655  0.2479 -0.5108
 1805TIP3   OH2 5420   4.545   5.799   1.600  0.1887 -0.3584 -0.1671
 1805TIP3    H1 5421   4.607   5.837   1.661 -0.2559 -0.9904  0.6983
 1805TIP3    H2 5422   4.521   5.871   1.542  1.2602  0.0358 -0.1359
 1806TIP3   OH2 5423   0.862   1.010   4.211  0.3102  0.3061  0.7752
 1806TIP3    H1 5424   0.846   0.930   4.261  0.2359  0.2848  0.7192
 1806TIP3    H2 5425   0.904   1.069   4.273  0.9650 -0.0057  0.6411
 1807TIP3   OH2 5426   0.591   2.679   3.867  0.4277  0.0846 -0.0643
 1807TIP3    H1 5427   0.686   2.681   3.878  0.6297 -1.2544 -1.1779
 1807TIP3    H2 5428   0.561   2.615   3.932  0.2696  0.5569  0.3324
 1808TIP3   OH2 5429   6.266   0.485   1.572  0.3587 -0.4461 -0.2972
 1808TIP3    H1 5430   6.293   0.489   1.664 -1.4871  1.1972  0.2361
 1808TIP3    H2 5431   6.338   0.439   1.528  0.8332 -2.1970  2.1090
 1809TIP3   OH2 5432   4.143   1.753   4.758 -0.3578  0.0986 -0.6303
 1809TIP3    H1 5433   4.078   1.706   4.706 -1.2314  1.6485 -1.0222
 1809TIP3    H2 5434   4.151   1.702   4.838 -1.0496 -0.8613 -1.1519
 1810TIP3   OH2 5435   5.179   2.098   4.590  0.5740 -0.0216 -0.0055
 1810TIP3    H1 5436   5.222   2.142   4.517  0.5321 -3.1587 -2.1365
 1810TIP3    H2 5437   5.089   2.085   4.561 -0.0941  0.6486  1.6275
 1811TIP3   OH2 5438   2.003   0.116   0.965 -0.3012 -0.1467 -0.2625
 1811TIP3    H1 5439   2.012   0.025   0.939  2.2528  0.6861 -2.7121
 1811TIP3    H2 5440   1.996   0.113   1.061  1.5916 -2.8215 -0.1005
 1812TIP3   OH2 5441   5.704   0.583   4.523 -0.5276  0.5143 -0.2489
 1812TIP3    H1 5442   5.633   0.646   4.513 -0.1629  1.3219  1.8139
 1812TIP3    H2 5443   5.660   0.499   4.536 -1.0319  0.5852 -1.3734
 1813TIP3   OH2 5444   2.821   4.379   0.001  0.0965 -0.4995  0.6421
 1813TIP3    H1 5445   2.768   4.381   0.080  0.2349  1.5060  0.7306
 1813TIP3    H2 5446   2.774   4.319  -0.058 -0.8581 -0.7629  1.6375
 1814TIP3   OH2 5447   1.275   0.592   1.051 -0.2650  0.2848 -0.1722
 1814TIP3    H1 5448   1.358   0.573   1.094 -1.5911  1.6999  3.3419
 1814TIP3    H2 5449   1.295   0.664   0.991  1.0999  0.2728  0.2453
 1815TIP3   OH2 5450   5.975   2.078   4.837 -0.6249  0.3003  0.4734
 1815TIP3    H1 5451   5.988   2.052   4.746 -1.4437  0.4973  0.2895
 1815TIP3    H2 5452   5.934   2.002   4.879 -1.8582  0.8158  0.2406
 1816TIP3   OH2 5453   3.051   3.060   4.002 -0.4972  0.0138 -0.3170
 1816TIP3    H1 5454   3.049   3.055   3.907  0.5683  2.5736 -0.5601
 1816TIP3    H2 5455   2.988   2.994   4.031 -0.1111 -1.5317 -2.7223
 1817TIP3   OH2 5456   6.076   0.598   3.401 -0.2038 -0.2359 -0.1464
 1817TIP3    H1 5457   6.128   0.652   3.341  0.7551  1.7459  2.2874
 1817TIP3    H2 5458   6.026   0.662   3.453  0.3861 -1.6918  2.3788
 1818TIP3   OH2 5459   4.374   1.169   5.054  0.0234 -0.1766 -0.2387
 1818TIP3    H1 5460   4.296   1.143   5.103  1.7417 -1.6001  1.8933
 1818TIP3    H2 5461   4.396   1.256   5.088  0.4045 -0.5612  0.5092
 1819TIP3   OH2 5462   2.567   4.412   4.673 -0.4400  0.0272  0.2768
 1819TIP3    H1 5463   2.475   4.386   4.664  0.0193 -1.8315  0.5832
 1819TIP3    H2 5464   2.581   4.475   4.602 -1.3181 -1.5049 -1.3384
 1820TIP3   OH2 5465   4.511   0.578   2.838 -0.1207  0.1577  0.0845
 1820TIP3    H1 5466   4.498   0.609   2.927  1.4727  0.7851  0.1280
 1820TIP3    H2 5467   4.562   0.497   2.847 -2.2463 -1.3070 -0.1589
 1821TIP3   OH2 5468   5.295   2.106   0.197 -0.2087 -0.0158  0.4273
 1821TIP3    H1 5469   5.250   2.133   0.277 -1.7965 -0.0881 -0.4034
 1821TIP3    H2 5470   5.291   2.010   0.199 -1.4636 -0.0023 -0.3659
 1822TIP3   OH2 5471   3.618   5.716   2.247 -0.6181  0.0145  0.3928
 1822TIP3    H1 5472   3.549   5.755   2.194 -0.1924  1.7311  1.0513
 1822TIP3    H2 5473   3.597   5.622   2.248 -0.9796 -0.0015 -2.2585
 1823TIP3   OH2 5474   1.918   2.569   3.357 -0.5805 -0.2072  0.0246
 1823TIP3    H1 5475   1.929   2.618   3.275 -0.2329  0.3901  0.4163
 1823TIP3    H2 5476   2.006   2.538   3.378 -0.6675 -0.3557  0.1675
 1824TIP3   OH2 5477   1.190   2.729   4.612  0.0567 -0.0571  0.4552
 1824TIP3    H1 5478   1.110   2.694   4.651 -0.7446  1.0329 -0.1685
 1824TIP3    H2 5479   1.258   2.712   4.677 -1.0830  0.9588  1.9799
 1825TIP3   OH2 5480   2.054   3.592   0.669 -0.0256  0.0872  0.3660
 1825TIP3    H1 5481   2.133   3.644   0.655  0.2119 -0.1448  0.8267
 1825TIP3    H2 5482   2.086   3.503   0.686 -0.2325  0.3640  2.6163
 1826TIP3   OH2 5483   4.478   3.308   5.006  0.4397 -0.0354  0.3359
 1826TIP3    H1 5484   4.464   3.267   5.091 -1.2761  1.5565  0.8931
 1826TIP3    H2 5485   4.573   3.303   4.992  0.6806 -0.8930  2.0230
 1827TIP3   OH2 5486   1.989   3.266   2.082 -0.6222  0.3808 -0.5041
 1827TIP3    H1 5487   1.958   3.346   2.124 -0.8607  0.1725 -0.2773
 1827TIP3    H2 5488   2.036   3.296   2.004 -0.3577  0.7638 -0.2012
 1828TIP3   OH2 5489   4.133   4.357   2.007 -0.4237  0.7210  0.1105
 1828TIP3    H1 5490   4.100   4.373   1.919 -1.2163  2.1312  0.6295
 1828TIP3    H2 5491   4.227   4.367   2.000  0.0980 -3.3207 -1.3955
 1829TIP3   OH2 5492   3.517   2.001   0.297  0.3437 -0.2038  0.3392
 1829TIP3    H1 5493   3.497   1.918   0.253  1.9489 -0.6392  0.3721
 1829TIP3    H2 5494   3.517   1.978   0.390 -0.9606  0.2563  0.4809
 1830TIP3   OH2 5495   3.264   1.585   1.657 -0.2456  0.0720 -0.1389
 1830TIP3    H1 5496   3.304   1.669   1.681 -0.3820 -0.0984  0.7181
 1830TIP3    H2 5497   3.338   1.529   1.633 -0.0922  0.2261 -0.0331
 1831TIP3   OH2 5498   1.599   3.368   2.346  0.1627  0.3690  0.6743
 1831TIP3    H1 5499   1.630   3.309   2.277  0.0118  0.3067  0.6591
 1831TIP3    H2 5500   1.612   3.319   2.427  1.0174  0.7214  0.7599
 1832TIP3   OH2 5501   3.749   4.091   1.604  0.4767 -0.0629 -0.6340
 1832TIP3    H1 5502   3.827   4.066   1.654  0.0546  2.0816  1.3227
 1832TIP3    H2 5503   3.737   4.184   1.625 -2.2861 -0.1911 -1.3060
 1833TIP3   OH2 5504   1.069   0.125   0.632 -0.0826  0.8123 -0.1938
 1833TIP3    H1 5505   1.077   0.213   0.668  0.7669  0.9803 -0.7495
 1833TIP3    H2 5506   1.158   0.090   0.636 -0.1613  0.4656 -1.1624
 1834TIP3   OH2 5507   2.931   1.801   4.586  0.3271 -0.6959  0.9370
 1834TIP3    H1 5508   2.916   1.820   4.679 -0.3376 -2.1296  1.1422
 1834TIP3    H2 5509   2.992   1.727   4.587  0.9971 -0.1768  0.1920
 1835TIP3   OH2 5510   1.283   3.852   4.767  0.2832  0.3468 -0.3271
 1835TIP3    H1 5511   1.189   3.836   4.771  0.5021 -1.1770 -0.4710
 1835TIP3    H2 5512   1.310   3.861   4.859 -0.0588  1.2750 -0.3081
 1836TIP3   OH2 5513   2.917   4.444   4.079  0.1348  0.2427  0.3920
 1836TIP3    H1 5514   2.928   4.522   4.135 -0.0082 -0.0508  0.8353
 1836TIP3    H2 5515   2.893   4.374   4.140 -1.5092  0.2402 -0.2027
 1837TIP3   OH2 5516   6.110   4.003   3.643  0.5995  0.0882  0.5538
 1837TIP3    H1 5517   6.085   4.075   3.701  0.0830  0.7666 -0.4978
 1837TIP3    H2 5518   6.050   3.932   3.667  1.3786 -0.1622  1.8741
 1838TIP3   OH2 5519   0.892   4.971   0.448  0.0556  0.2332 -0.1209
 1838TIP3    H1 5520   0.987   4.975   0.437  0.0282  1.1135 -0.1106
 1838TIP3    H2 5521   0.878   4.919   0.527  0.6883  2.7255  1.7876
 1839TIP3   OH2 5522   2.863   0.059   1.239  0.4561  0.0801  0.0895
 1839TIP3    H1 5523   2.826  -0.006   1.179  2.1339 -0.6910 -0.1486
 1839TIP3    H2 5524   2.786   0.107   1.271 -0.7633 -1.5186 -0.2776
 1840TIP3   OH2 5525   3.183   2.589   4.377 -0.1403 -0.1904 -0.2470
 1840TIP3    H1 5526   3.103   2.619   4.421 -0.6813 -1.7925 -0.0716
 1840TIP3    H2 5527   3.253   2.639   4.418 -0.8451 -0.2737  1.1080
 1841TIP3   OH2 5528   4.977   2.725   5.165 -0.2463  0.0014 -0.2114
 1841TIP3    H1 5529   4.965   2.811   5.123 -0.5104 -0.3017 -0.7675
 1841TIP3    H2 5530   5.068   2.725   5.193 -0.3783  0.6646  0.2474
 1842TIP3   OH2 5531   1.040   4.065   4.146  0.8151  0.3609  0.3282
 1842TIP3    H1 5532   1.045   4.121   4.068 -1.2462 -0.5830 -0.5574
 1842TIP3    H2 5533   0.970   4.104   4.198 -1.1457 -1.6801 -0.6335
 1843TIP3   OH2 5534   2.667   2.360   1.321  0.3764 -0.0345  0.0408
 1843TIP3    H1 5535   2.616   2.288   1.358  0.3057  0.5937  1.2223
 1843TIP3    H2 5536   2.679   2.337   1.229  1.2877 -2.0885  0.6349
 1844TIP3   OH2 5537   2.314   0.183   4.756  0.3438 -0.4308 -0.5282
 1844TIP3    H1 5538   2.271   0.211   4.837  0.4405  0.2205 -0.7022
 1844TIP3    H2 5539   2.266   0.104   4.730 -1.0963  0.5592 -0.9956
 1845TIP3   OH2 5540   3.284   2.477   3.229  0.3153 -0.1028 -0.0965
 1845TIP3    H1 5541   3.342   2.506   3.158 -0.0874  0.5513 -0.1663
 1845TIP3    H2 5542   3.287   2.382   3.225 -0.7992 -0.1093 -1.9104
 1846TIP3   OH2 5543   0.150   3.946   4.734 -0.6599  0.3497 -0.2681
 1846TIP3    H1 5544   0.243   3.964   4.715 -0.5199 -2.3967 -3.2565
 1846TIP3    H2 5545   0.104   3.972   4.654 -2.5311  1.6239  1.1529
 1847TIP3   OH2 5546   1.164   4.981   2.491  0.0308 -0.6210  0.0508
 1847TIP3    H1 5547   1.146   4.937   2.574  1.0438  0.3199  0.8092
 1847TIP3    H2 5548   1.259   4.972   2.479 -0.2560 -1.8143 -1.6602
 1848TIP3   OH2 5549   1.568   4.154   4.642 -0.8747 -0.0662 -0.4553
 1848TIP3    H1 5550   1.480   4.143   4.677 -0.7109  0.2261  0.0520
 1848TIP3    H2 5551   1.597   4.239   4.675 -0.0010 -0.6182  0.2529
 1849TIP3   OH2 5552   1.484   2.066   0.996 -0.0172  0.3752  0.4313
 1849TIP3    H1 5553   1.403   2.097   1.036 -1.1806  0.8848 -2.1590
 1849TIP3    H2 5554   1.515   2.140   0.945  0.6897 -0.6403 -0.6529
 1850TIP3   OH2 5555   3.693   3.729   1.012  0.4803  0.1358  0.2687
 1850TIP3    H1 5556   3.604   3.761   1.026  0.5168  1.8530 -2.6212
 1850TIP3    H2 5557   3.745   3.808   0.998  1.4276 -0.9247 -3.0108
 1851TIP3   OH2 5558   6.090   5.420   0.083 -0.2803  0.1738  0.5833
 1851TIP3    H1 5559   6.004   5.414   0.124 -0.4608  2.2998  0.6116
 1851TIP3    H2 5560   6.144   5.468   0.146  0.6656 -0.3148  0.1652
 1852TIP3   OH2 5561   2.091   3.984   4.777  1.1366 -0.3811  0.2730
 1852TIP3    H1 5562   2.005   4.012   4.747  1.1478 -0.2149  0.3947
 1852TIP3    H2 5563   2.127   4.060   4.823  1.6986 -0.1573 -0.5202
 1853TIP3   OH2 5564   3.986   5.171   0.290  0.5324 -0.0921 -0.6499
 1853TIP3    H1 5565   4.015   5.244   0.236  0.7006  0.6034  0.3724
 1853TIP3    H2 5566   4.066   5.136   0.329  0.4840 -0.9955 -1.3265
 1854TIP3   OH2 5567   1.953   1.318   3.637  0.5886 -0.1912  0.3948
 1854TIP3    H1 5568   1.924   1.279   3.554 -0.1076 -0.0131  0.5516
 1854TIP3    H2 5569   2.020   1.257   3.669 -0.3738 -1.2024  0.5568
 1855TIP3   OH2 5570   5.765   5.638   0.960 -0.0740  0.1174  0.4929
 1855TIP3    H1 5571   5.832   5.694   1.000  1.1947 -0.4833 -0.6875
 1855TIP3    H2 5572   5.806   5.606   0.879 -0.8412 -2.3070  0.9830
 1856TIP3   OH2 5573   4.898   1.700   3.214  0.4746  0.4575  0.2123
 1856TIP3    H1 5574   4.937   1.614   3.200 -0.3656  0.2725 -1.2030
 1856TIP3    H2 5575   4.809   1.681   3.243 -0.0927  0.8190 -1.2345
 1857TIP3   OH2 5576   1.236   5.543   4.012 -0.2815 -0.0405 -0.3507
 1857TIP3    H1 5577   1.161   5.602   4.006  1.5797  2.3086 -2.5808
 1857TIP3    H2 5578   1.208   5.476   4.074 -3.1756  2.1891  1.0044
 1858TIP3   OH2 5579   2.985   2.047   4.279 -0.3812  0.6791 -0.1834
 1858TIP3    H1 5580   2.999   2.141   4.265  0.3382  0.7592  0.9530
 1858TIP3    H2 5581   2.918   2.042   4.347  0.5366  0.4052  0.7250
 1859TIP3   OH2 5582   4.744   3.866   2.392  0.7131 -0.0067  0.1755
 1859TIP3    H1 5583   4.694   3.791   2.424  0.8947  0.8097  2.5259
 1859TIP3    H2 5584   4.835   3.848   2.417  0.9785  0.3581 -0.4947
 1860TIP3   OH2 5585   6.012   2.605   4.751 -0.1830 -0.4610 -0.1599
 1860TIP3    H1 5586   5.991   2.537   4.815 -0.0731  0.4231  0.8575
 1860TIP3    H2 5587   6.102   2.630   4.771 -0.7673  1.1757  0.6684
 1861TIP3   OH2 5588   4.150   4.055   3.215 -0.1617 -0.2566  0.2527
 1861TIP3    H1 5589   4.241   4.025   3.211  0.0059  0.1763  0.8076
 1861TIP3    H2 5590   4.137   4.081   3.306 -0.1250  1.8869 -0.2984
 1862TIP3   OH2 5591   0.711   5.152   1.209  0.3646  0.3747  0.0275
 1862TIP3    H1 5592   0.621   5.170   1.238  0.1315 -1.0449  0.2522
 1862TIP3    H2 5593   0.709   5.172   1.115 -0.8018 -1.6358 -0.4364
 1863TIP3   OH2 5594   3.876   5.271   1.800 -0.6755  0.3587 -0.2865
 1863TIP3    H1 5595   3.844   5.220   1.874  1.1906 -0.0446  0.3070
 1863TIP3    H2 5596   3.964   5.299   1.827 -1.6258  4.0690 -0.4772
 1864TIP3   OH2 5597   0.987   3.121   3.983 -0.3375  0.7695  0.2701
 1864TIP3    H1 5598   0.918   3.070   4.026 -0.2518  1.6518  1.5276
 1864TIP3    H2 5599   0.956   3.211   3.986 -0.2643  0.8863 -1.4723
 1865TIP3   OH2 5600   4.999   0.463   4.721 -0.2726 -0.3170 -0.3036
 1865TIP3    H1 5601   5.051   0.491   4.796  1.0869 -0.0316 -1.3263
 1865TIP3    H2 5602   4.914   0.505   4.734 -0.5847 -1.4382  1.8171
 1866TIP3   OH2 5603   0.546   2.254   1.996  0.1994 -0.0484 -0.1299
 1866TIP3    H1 5604   0.497   2.329   2.030  0.7587 -0.1284  0.8612
 1866TIP3    H2 5605   0.573   2.281   1.908 -0.0710  0.6895  0.0099
 1867TIP3   OH2 5606   3.046   4.117   1.186  0.0474  0.5730 -0.1912
 1867TIP3    H1 5607   3.000   4.200   1.199 -0.8600 -0.1193  1.2875
 1867TIP3    H2 5608   3.105   4.109   1.260  0.1854 -0.0682 -0.3595
 1868TIP3   OH2 5609   2.477   4.824   2.606 -0.2685 -0.2848  0.0765
 1868TIP3    H1 5610   2.475   4.863   2.519  0.5214  0.8631  0.5553
 1868TIP3    H2 5611   2.438   4.889   2.663  1.9986  0.3075  1.0486
 1869TIP3   OH2 5612   5.675   4.951   4.412  0.8524  0.2019  0.1943
 1869TIP3    H1 5613   5.736   4.977   4.343  3.3464 -1.5389  1.6174
 1869TIP3    H2 5614   5.683   4.856   4.417 -1.8455 -0.1012  0.6575
 1870TIP3   OH2 5615   4.767   1.149   2.505 -0.0013 -0.5501 -0.4440
 1870TIP3    H1 5616   4.727   1.066   2.478 -0.0334 -0.2097 -1.4758
 1870TIP3    H2 5617   4.723   1.215   2.451 -1.5319  0.4453  1.8410
 1871TIP3   OH2 5618   2.344   4.280   0.679 -0.4443  0.7472 -0.1359
 1871TIP3    H1 5619   2.304   4.295   0.593 -0.6898  2.4666  0.2282
 1871TIP3    H2 5620   2.296   4.339   0.737 -1.1662 -1.3139  1.4764
 1872TIP3   OH2 5621   0.966   4.910   3.984 -0.4789  0.1293 -0.0146
 1872TIP3    H1 5622   0.974   4.872   4.072 -3.7642  0.2398  0.4512
 1872TIP3    H2 5623   0.879   4.949   3.983  0.0395  1.4273 -2.8771
 1873TIP3   OH2 5624   0.604   2.230   0.544 -0.3554 -0.2356 -0.1528
 1873TIP3    H1 5625   0.596   2.309   0.596 -0.3069 -1.1331  1.2751
 1873TIP3    H2 5626   0.566   2.253   0.459 -0.1081  1.3707  0.1477
 1874TIP3   OH2 5627   1.756   2.880   3.551 -0.2369 -0.3243 -0.2770
 1874TIP3    H1 5628   1.696   2.951   3.572  1.6952  0.8225  1.8139
 1874TIP3    H2 5629   1.815   2.875   3.626  2.0906 -1.5765 -2.0388
 1875TIP3   OH2 5630   3.017   1.936   0.375 -0.4087  0.2568 -0.1885
 1875TIP3    H1 5631   3.084   1.985   0.423  0.1367 -1.2771  0.6777
 1875TIP3    H2 5632   3.040   1.844   0.389 -2.2095 -0.2855 -0.5844
 1876TIP3   OH2 5633   2.791   1.723   3.138  0.0862  0.0025 -0.0849
 1876TIP3    H1 5634   2.847   1.764   3.072  0.9224 -0.6293  0.2181
 1876TIP3    H2 5635   2.724   1.677   3.087  0.5027 -0.1683 -0.4818
 1877TIP3   OH2 5636   0.216   1.748   5.084  0.0782  0.1958 -0.2018
 1877TIP3    H1 5637   0.289   1.706   5.130  0.4459  1.1478  0.1077
 1877TIP3    H2 5638   0.148   1.758   5.150  0.0991  0.3359 -0.2000
 1878TIP3   OH2 5639   1.710   4.759   1.854  0.2402  0.0269 -0.1389
 1878TIP3    H1 5640   1.633   4.704   1.844  1.3511 -1.5908 -0.1877
 1878TIP3    H2 5641   1.689   4.817   1.927 -1.4626  0.4691 -0.9351
 1879TIP3   OH2 5642   3.713   2.510   1.665  0.1488  0.7166 -0.3261
 1879TIP3    H1 5643   3.704   2.602   1.639  0.6837  0.5345 -1.1905
 1879TIP3    H2 5644   3.762   2.469   1.593 -0.1289 -0.2562  0.0206
 1880TIP3   OH2 5645   5.103   0.881   4.896 -0.3383 -0.2563 -0.6111
 1880TIP3    H1 5646   5.177   0.895   4.837  2.0949  1.4683  2.5235
 1880TIP3    H2 5647   5.064   0.968   4.906 -0.9694 -0.5979  0.0146
 1881TIP3   OH2 5648   4.226   4.700   1.364 -0.1183  0.0772 -0.3283
 1881TIP3    H1 5649   4.217   4.610   1.395 -0.4843  0.5754  1.0603
 1881TIP3    H2 5650   4.223   4.753   1.443  3.1235  1.1649 -0.7947
 1882TIP3   OH2 5651   0.762   5.406   4.866  0.1635 -0.4249 -0.0943
 1882TIP3    H1 5652   0.685   5.353   4.843 -0.5912 -0.0131  1.3485
 1882TIP3    H2 5653   0.835   5.360   4.825 -0.6579 -1.7265 -0.1739
 1883TIP3   OH2 5654   3.496   1.722   0.166  0.0759 -0.1836  0.3824
 1883TIP3    H1 5655   3.514   1.675   0.248  0.7650 -0.0854  0.2933
 1883TIP3    H2 5656   3.575   1.709   0.113 -0.4234 -0.3794 -0.3329
 1884TIP3   OH2 5657   1.328   2.567   1.678  0.3709  0.0484 -0.1282
 1884TIP3    H1 5658   1.416   2.529   1.669  0.5758  0.6818 -0.9173
 1884TIP3    H2 5659   1.343   2.655   1.712 -0.0357 -0.1880  0.6891
 1885TIP3   OH2 5660   1.746   0.244   3.365  0.3359  0.3856  0.1593
 1885TIP3    H1 5661   1.792   0.162   3.382 -1.5459 -0.8529 -0.5322
 1885TIP3    H2 5662   1.761   0.260   3.272 -0.2362  0.2292  0.0408
 1886TIP3   OH2 5663   4.855   2.178   3.056 -0.1700 -0.3395 -0.4469
 1886TIP3    H1 5664   4.865   2.113   3.126 -2.1832 -0.6713 -0.4167
 1886TIP3    H2 5665   4.832   2.259   3.102  0.2231 -0.1319 -0.6156
 1887TIP3   OH2 5666   1.832   0.748   3.961 -0.1230  0.3306  0.8232
 1887TIP3    H1 5667   1.753   0.796   3.935  0.4152  0.3481 -0.8724
 1887TIP3    H2 5668   1.811   0.656   3.942 -0.1661  0.1887  1.5295
 1888TIP3   OH2 5669   5.101   3.203   3.659 -0.2752 -0.2220  0.2092
 1888TIP3    H1 5670   5.078   3.110   3.662  1.2252 -0.5954  2.0402
 1888TIP3    H2 5671   5.184   3.209   3.705 -0.2836  2.0449  0.0637
 1889TIP3   OH2 5672   0.945   0.114   4.540  0.0666  0.4521  0.2148
 1889TIP3    H1 5673   0.891   0.102   4.619 -2.2153  0.6387 -1.2151
 1889TIP3    H2 5674   0.972   0.025   4.517 -2.5789 -0.1469 -0.9111
 1890TIP3   OH2 5675   3.396   1.362   0.248  0.7337  0.1713  0.1950
 1890TIP3    H1 5676   3.309   1.370   0.209  0.2465  2.5365  1.5418
 1890TIP3    H2 5677   3.452   1.413   0.189  1.7372 -2.9860 -1.7958
 1891TIP3   OH2 5678   3.489   0.291   4.371 -0.1178 -0.1270  0.7915
 1891TIP3    H1 5679   3.564   0.275   4.313 -0.5382  2.0168 -0.4349
 1891TIP3    H2 5680   3.527   0.336   4.447 -0.0168  0.1210  0.5963
 1892TIP3   OH2 5681   0.684   3.386   4.796  0.1423 -0.4442 -0.5515
 1892TIP3    H1 5682   0.698   3.426   4.883  0.1549 -2.2111  0.2964
 1892TIP3    H2 5683   0.739   3.438   4.738  2.1432 -0.7356  0.9485
 1893TIP3   OH2 5684   4.315   0.364   1.370 -0.0015 -0.6724 -0.0733
 1893TIP3    H1 5685   4.288   0.273   1.362  0.4672 -0.8059 -0.2054
 1893TIP3    H2 5686   4.242   0.415   1.335  0.4456 -1.0766 -1.6794
 1894TIP3   OH2 5687   5.320   3.405   3.113  0.0763 -0.4497  0.6781
 1894TIP3    H1 5688   5.306   3.465   3.039 -0.7573  0.2842  1.4071
 1894TIP3    H2 5689   5.261   3.332   3.096 -3.2897  1.5915  2.5980
 1895TIP3   OH2 5690   2.953   4.154   4.584 -0.4636  0.2700  0.0290
 1895TIP3    H1 5691   2.892   4.112   4.523  0.5818 -1.0940 -0.1243
 1895TIP3    H2 5692   3.010   4.083   4.613  1.7262  1.6573 -0.6155
 1896TIP3   OH2 5693   5.631   4.108  -0.003  0.1833  0.7341 -0.1840
 1896TIP3    H1 5694   5.608   4.087   0.088 -1.2277 -2.1136 -1.0845
 1896TIP3    H2 5695   5.684   4.187   0.004 -1.2542  1.6082  2.9722
 1897TIP3   OH2 5696   6.050   0.176   4.274  0.3216 -0.4031  0.2395
 1897TIP3    H1 5697   6.029   0.098   4.325 -0.8523  1.9482  3.6484
 1897TIP3    H2 5698   6.108   0.227   4.331  1.3981  1.0740 -2.0373
 1898TIP3   OH2 5699   4.142   1.957   3.083  0.7197  0.0590 -0.1560
 1898TIP3    H1 5700   4.102   2.042   3.062  3.0422  0.6910 -2.5722
 1898TIP3    H2 5701   4.116   1.901   3.010  1.2073 -0.5838  0.1652
 1899TIP3   OH2 5702   1.183   4.545   4.009 -0.3760 -0.1917 -0.4397
 1899TIP3    H1 5703   1.105   4.601   4.017 -0.4880 -0.3646 -0.2961
 1899TIP3    H2 5704   1.255   4.606   3.992 -0.4356  0.0280  0.0787
 1900TIP3   OH2 5705   5.638   2.892   5.095  0.3483 -0.0821 -0.2168
 1900TIP3    H1 5706   5.672   2.808   5.127  0.1836  0.2702  0.9162
 1900TIP3    H2 5707   5.702   2.956   5.126 -0.3065  0.3668  0.2266
 1901TIP3   OH2 5708   4.451   4.772   1.032  0.5059  0.0793 -0.0248
 1901TIP3    H1 5709   4.422   4.764   0.942 -0.0138 -0.3130  0.1749
 1901TIP3    H2 5710   4.406   4.849   1.066  1.5831  0.9145 -0.4305
 1902TIP3   OH2 5711   4.078   0.309   2.605 -0.7034  0.4583 -0.3664
 1902TIP3    H1 5712   4.106   0.220   2.584  2.9306  1.8084 -2.1412
 1902TIP3    H2 5713   4.073   0.310   2.700  0.3687 -1.3636 -0.2313
 1903TIP3   OH2 5714   2.277   3.435   0.525  0.1012  0.3225 -0.1101
 1903TIP3    H1 5715   2.291   3.348   0.562 -1.8371  0.9383  2.3211
 1903TIP3    H2 5716   2.216   3.421   0.452 -1.9892 -0.2007  1.6493
 1904TIP3   OH2 5717   1.830   0.379   4.880 -0.0043  0.3105 -0.7767
 1904TIP3    H1 5718   1.791   0.293   4.865 -1.9222  0.9821  0.0472
 1904TIP3    H2 5719   1.760   0.441   4.860  0.1326  1.5381  2.0002
 1905TIP3   OH2 5720   5.862   5.506   4.673 -0.4415  0.8632 -0.1046
 1905TIP3    H1 5721   5.947   5.538   4.643 -0.1030  0.5118  0.4707
 1905TIP3    H2 5722   5.880   5.468   4.758 -1.0574  0.1788 -0.2777
 1906TIP3   OH2 5723   3.500   0.327   0.769 -0.0848 -0.0246 -0.3923
 1906TIP3    H1 5724   3.545   0.252   0.810  0.6139  1.0457  0.8980
 1906TIP3    H2 5725   3.409   0.299   0.761  0.3221 -1.3194 -0.7108
 1907TIP3   OH2 5726   0.239   5.868   4.088 -0.2008  0.2275 -0.3762
 1907TIP3    H1 5727   0.245   5.939   4.025 -0.5851  0.8805  0.3010
 1907TIP3    H2 5728   0.274   5.905   4.169  1.4476 -0.9760 -0.4903
 1908TIP3   OH2 5729   0.750   2.479   2.761 -0.6893  0.7322  0.0717
 1908TIP3    H1 5730   0.738   2.422   2.685 -1.1935 -0.4861  1.0297
 1908TIP3    H2 5731   0.833   2.524   2.745 -0.6298  0.2433 -1.0402
 1909TIP3   OH2 5732   2.274   5.953   1.795  0.2209 -0.1395  0.1790
 1909TIP3    H1 5733   2.245   5.989   1.879  1.9833  0.1415  0.7243
 1909TIP3    H2 5734   2.247   5.861   1.798 -0.6129  0.1123  0.6225
 1910TIP3   OH2 5735   3.727   5.801   3.801 -0.1512  0.0227  0.0496
 1910TIP3    H1 5736   3.718   5.882   3.751  2.1520  0.3992  0.1313
 1910TIP3    H2 5737   3.762   5.738   3.738  1.2140  0.0480  0.7474
 1911TIP3   OH2 5738   1.170   2.469   0.593 -0.9205 -0.2551  0.0709
 1911TIP3    H1 5739   1.208   2.382   0.604  0.1287  0.2962  1.0551
 1911TIP3    H2 5740   1.171   2.507   0.682  0.0020  1.2987 -0.5568
 1912TIP3   OH2 5741   4.315   0.930   2.553  0.1674 -0.0269  0.4059
 1912TIP3    H1 5742   4.398   0.967   2.525 -0.6856 -0.2018 -2.8116
 1912TIP3    H2 5743   4.337   0.871   2.625  2.4923  1.3796  0.9327
 1913TIP3   OH2 5744   3.507   3.639   4.366 -0.0998 -0.1271 -0.3507
 1913TIP3    H1 5745   3.545   3.594   4.290  1.0753 -0.9253  0.6519
 1913TIP3    H2 5746   3.417   3.659   4.340 -0.0356 -1.2769 -1.5794
 1914TIP3   OH2 5747   4.654   5.517   1.025  0.1826 -0.9029 -0.4847
 1914TIP3    H1 5748   4.584   5.489   1.084 -1.5653  1.3836 -1.2999
 1914TIP3    H2 5749   4.693   5.592   1.070  0.5398 -0.7240 -1.0925
 1915TIP3   OH2 5750   2.915   3.679   1.223  0.5825  0.0406 -0.4426
 1915TIP3    H1 5751   2.837   3.709   1.269 -0.2280 -3.2086  0.5860
 1915TIP3    H2 5752   2.888   3.671   1.132 -1.4433 -3.8011  0.2857
 1916TIP3   OH2 5753   4.439   5.478   1.196  0.5735  0.3340  0.3981
 1916TIP3    H1 5754   4.464   5.392   1.231  1.3358  1.3552  2.5534
 1916TIP3    H2 5755   4.367   5.506   1.251  0.5619  1.2414 -0.0628
 1917TIP3   OH2 5756   2.335   2.560   3.897 -0.1495 -0.5474  0.8063
 1917TIP3    H1 5757   2.335   2.490   3.963  0.6316  0.4381  1.9133
 1917TIP3    H2 5758   2.406   2.618   3.925 -0.5947  0.5387 -0.2397
 1918TIP3   OH2 5759   4.188   2.634   1.196 -0.3404 -0.2805 -0.3564
 1918TIP3    H1 5760   4.150   2.653   1.110 -0.6907 -0.2192 -0.1913
 1918TIP3    H2 5761   4.126   2.573   1.236 -0.7509  0.5407  0.2876
 1919TIP3   OH2 5762   0.135   5.053   2.330  0.7615  0.4596  0.8538
 1919TIP3    H1 5763   0.124   4.972   2.280  0.2177  0.7945  0.4230
 1919TIP3    H2 5764   0.138   5.024   2.421  1.8859 -0.1707  0.6432
 1920TIP3   OH2 5765   1.206   3.474   2.780  0.2291  0.0265 -0.5648
 1920TIP3    H1 5766   1.291   3.454   2.819 -1.0770 -1.1995  1.8947
 1920TIP3    H2 5767   1.168   3.541   2.837 -0.5684  0.4092 -1.5012
 1921TIP3   OH2 5768   5.551   0.335   4.548  0.1960 -0.0824  0.7516
 1921TIP3    H1 5769   5.460   0.365   4.539 -0.3028 -1.4746  0.9466
 1921TIP3    H2 5770   5.549   0.275   4.623  0.8319 -1.6944 -0.4597
 1922TIP3   OH2 5771   4.589   1.508   4.691  0.1511  0.5849 -0.1138
 1922TIP3    H1 5772   4.629   1.423   4.710 -0.2252  0.5037  0.3445
 1922TIP3    H2 5773   4.638   1.541   4.616  0.8647  0.3488  0.2336
 1923TIP3   OH2 5774   6.224   3.075   2.456 -0.8259 -0.1946 -0.0372
 1923TIP3    H1 5775   6.247   3.167   2.443 -0.3429 -0.1874  0.8652
 1923TIP3    H2 5776   6.276   3.028   2.390 -0.1661  0.0655  0.2903
 1924TIP3   OH2 5777   0.548   5.132   0.561 -0.2035  0.2549  0.4849
 1924TIP3    H1 5778   0.480   5.079   0.604 -1.2926  0.3622 -1.0388
 1924TIP3    H2 5779   0.501   5.206   0.524  0.6954  0.2151 -0.8028
 1925TIP3   OH2 5780   1.727   4.354   0.328  0.5526 -0.2820  0.2054
 1925TIP3    H1 5781   1.664   4.403   0.382 -0.7587 -1.5655 -0.0956
 1925TIP3    H2 5782   1.675   4.286   0.286  1.4667  0.6811 -2.7973
 1926TIP3   OH2 5783   3.028   4.839   3.349 -0.2402 -0.2232  0.3153
 1926TIP3    H1 5784   2.963   4.770   3.340 -0.8789 -0.1217  3.3153
 1926TIP3    H2 5785   3.095   4.802   3.406  1.4381  0.3390 -1.2034
 1927TIP3   OH2 5786   5.582   4.241   0.774  0.2581 -0.0813  0.3860
 1927TIP3    H1 5787   5.510   4.178   0.775 -0.5245  0.7743 -0.3160
 1927TIP3    H2 5788   5.610   4.247   0.865  0.6764 -1.7877  0.4074
 1928TIP3   OH2 5789   6.129   4.731   1.752 -0.2896  0.2174  0.0167
 1928TIP3    H1 5790   6.133   4.689   1.666  0.2362  0.9859 -0.3435
 1928TIP3    H2 5791   6.196   4.686   1.803  0.1448  0.4774 -0.3130
 1929TIP3   OH2 5792   0.260   0.816   1.737 -0.1413  0.1013  0.3443
 1929TIP3    H1 5793   0.207   0.781   1.665  1.0123 -0.0131 -0.4692
 1929TIP3    H2 5794   0.204   0.882   1.778 -1.2072 -0.5622  0.0011
 1930TIP3   OH2 5795   3.338   2.863   0.700 -0.0445 -0.3133  0.0303
 1930TIP3    H1 5796   3.349   2.940   0.643  3.9670 -1.5902 -1.2573
 1930TIP3    H2 5797   3.307   2.794   0.642 -1.9748 -0.1676  0.8235
 1931TIP3   OH2 5798   5.415   0.850   3.039  0.1594  0.6311 -0.0897
 1931TIP3    H1 5799   5.493   0.904   3.033  0.5967 -0.1488 -1.9289
 1931TIP3    H2 5800   5.343   0.910   3.018  0.5721  0.6704 -1.4543
 1932TIP3   OH2 5801   4.336   5.692   1.039 -0.1195 -0.4403 -0.2797
 1932TIP3    H1 5802   4.355   5.723   1.127  0.3633  2.6914 -1.3359
 1932TIP3    H2 5803   4.414   5.644   1.012 -0.0872 -1.0189  0.8116
 1933TIP3   OH2 5804   1.244   2.380   2.699 -0.0655  0.2120 -0.0758
 1933TIP3    H1 5805   1.271   2.415   2.614 -1.3578  0.0524 -0.5891
 1933TIP3    H2 5806   1.238   2.285   2.685  0.0996  0.1440  0.3100
 1934TIP3   OH2 5807   5.625   4.751   4.703  0.2719  0.3240 -0.0761
 1934TIP3    H1 5808   5.695   4.718   4.647  0.4932 -0.7390  0.7937
 1934TIP3    H2 5809   5.576   4.812   4.647  0.8378 -0.2494 -1.2359
 1935TIP3   OH2 5810   4.614   5.293   4.616  0.3084 -0.4186  0.4067
 1935TIP3    H1 5811   4.670   5.261   4.687 -0.8932 -3.2019  0.2278
 1935TIP3    H2 5812   4.526   5.267   4.641 -0.3137 -0.2597 -1.4702
 1936TIP3   OH2 5813   5.481   5.739   0.750 -0.2247 -0.2357  0.7221
 1936TIP3    H1 5814   5.462   5.681   0.823 -0.5565 -0.2964  0.5901
 1936TIP3    H2 5815   5.505   5.822   0.791  0.8297 -0.6222  0.9292
 1937TIP3   OH2 5816   2.867   2.281   3.258 -0.3770 -0.4538  0.2655
 1937TIP3    H1 5817   2.890   2.312   3.171 -0.6096 -0.9586  0.0215
 1937TIP3    H2 5818   2.887   2.355   3.316  2.7244 -1.1401  0.2080
 1938TIP3   OH2 5819   2.684   1.129   0.830  0.1108 -0.2342 -0.2947
 1938TIP3    H1 5820   2.653   1.086   0.751  0.6857 -0.4758 -0.3918
 1938TIP3    H2 5821   2.634   1.088   0.901 -0.1194 -0.2961 -0.4917
 1939TIP3   OH2 5822   3.831   5.350   5.130  0.4701 -0.3054  0.0928
 1939TIP3    H1 5823   3.878   5.396   5.199  1.0708 -0.1969 -0.3724
 1939TIP3    H2 5824   3.749   5.398   5.120  0.1868 -0.5881  1.0249
 1940TIP3   OH2 5825   2.174   3.132   4.142  0.5381  0.1393  0.9732
 1940TIP3    H1 5826   2.150   3.096   4.227 -0.1295  0.8045  1.0782
 1940TIP3    H2 5827   2.128   3.216   4.137  1.1659  0.4593  0.2698
 1941TIP3   OH2 5828   5.196   1.808   1.402  0.0262  0.0030 -0.1157
 1941TIP3    H1 5829   5.277   1.830   1.356 -0.1109 -1.1552 -0.9501
 1941TIP3    H2 5830   5.127   1.826   1.338 -0.1734 -1.5542 -0.3742
 1942TIP3   OH2 5831   0.246   1.973   2.698 -0.1068 -0.0776  0.0459
 1942TIP3    H1 5832   0.285   2.022   2.625  3.1932 -0.1701  1.5328
 1942TIP3    H2 5833   0.227   1.887   2.661  1.9958 -0.3065 -0.6898
 1943TIP3   OH2 5834   2.347   5.673   0.442  0.2658 -0.1722  0.4145
 1943TIP3    H1 5835   2.263   5.634   0.468  0.0653  0.8355  1.3662
 1943TIP3    H2 5836   2.357   5.748   0.501  1.6349 -0.0304  0.0226
 1944TIP3   OH2 5837   2.486   3.028   5.000  0.0297  0.4784  0.0834
 1944TIP3    H1 5838   2.462   2.956   5.059  1.7438  0.3173  0.6489
 1944TIP3    H2 5839   2.452   3.106   5.042 -1.5930  0.0678 -0.3831
 1945TIP3   OH2 5840   5.834   5.954   3.308 -0.6826  0.2354  0.2639
 1945TIP3    H1 5841   5.840   5.956   3.213 -2.5550 -2.3226 -0.0086
 1945TIP3    H2 5842   5.923   5.935   3.337 -0.4953 -1.2838 -1.1645
 1946TIP3   OH2 5843   5.895   0.539   4.712  0.5325  0.0134 -0.2714
 1946TIP3    H1 5844   5.926   0.586   4.635 -0.9806  0.4251 -0.6590
 1946TIP3    H2 5845   5.804   0.516   4.692  0.5223 -1.0310  0.8576
 1947TIP3   OH2 5846   4.916   3.470   0.640  0.1335 -0.8128  0.6878
 1947TIP3    H1 5847   4.921   3.533   0.568 -1.7095 -0.0791  1.1316
 1947TIP3    H2 5848   4.904   3.385   0.598  1.1152 -0.6766  0.1095
 1948TIP3   OH2 5849   2.293   2.310   3.556  0.4415 -0.3686  0.1749
 1948TIP3    H1 5850   2.215   2.359   3.581 -0.3935  0.7755 -3.8564
 1948TIP3    H2 5851   2.366   2.364   3.586 -0.4031  0.5160  0.7071
 1949TIP3   OH2 5852   3.285   3.223   5.098 -0.0033  0.0422 -0.0898
 1949TIP3    H1 5853   3.231   3.153   5.135 -1.0346  0.2169 -1.2071
 1949TIP3    H2 5854   3.373   3.187   5.098 -0.1897 -0.4882  1.1928
 1950TIP3   OH2 5855   1.885   0.750   1.730  0.4940 -0.4299 -0.2415
 1950TIP3    H1 5856   1.932   0.729   1.810 -1.1903 -0.9843  0.6600
 1950TIP3    H2 5857   1.891   0.846   1.724 -0.2639 -0.2561  1.1827
 1951TIP3   OH2 5858   5.964   0.797   3.123  0.0178 -0.3692 -0.1011
 1951TIP3    H1 5859   6.047   0.760   3.150  0.4393  1.5071  1.5129
 1951TIP3    H2 5860   5.900   0.726   3.135  0.8320 -0.7982  2.3566
 1952TIP3   OH2 5861   2.581   2.400   5.065  0.2519 -0.6697 -0.2892
 1952TIP3    H1 5862   2.500   2.369   5.024 -0.0474 -1.6608  0.9471
 1952TIP3    H2 5863   2.554   2.425   5.154  1.0077  0.6347 -0.4072
 1953TIP3   OH2 5864   5.468   2.759   1.599  0.1917  0.5060 -0.0206
 1953TIP3    H1 5865   5.470   2.665   1.580 -0.4963  0.3418  0.6720
 1953TIP3    H2 5866   5.456   2.800   1.513  0.5683 -0.0230 -0.3399
 1954TIP3   OH2 5867   0.367   4.826   3.883  0.2393  0.0540  0.0615
 1954TIP3    H1 5868   0.385   4.920   3.883 -1.4000  0.4024  1.0340
 1954TIP3    H2 5869   0.320   4.810   3.802  0.9247 -0.0299 -0.3276
 1955TIP3   OH2 5870   4.867   5.952   2.252  0.2646 -0.0168 -0.1827
 1955TIP3    H1 5871   4.832   5.888   2.190 -1.8915 -0.3322  1.2421
 1955TIP3    H2 5872   4.858   5.911   2.337 -0.1723  1.7217  0.6689
 1956TIP3   OH2 5873   5.307   2.447   1.759 -0.2905 -0.7415  0.1668
 1956TIP3    H1 5874   5.287   2.430   1.667 -1.3388  1.2773 -0.0334
 1956TIP3    H2 5875   5.392   2.406   1.773  1.4391  1.4683 -2.6024
 1957TIP3   OH2 5876   3.679   5.954   2.803  0.0906 -0.1589 -0.3939
 1957TIP3    H1 5877   3.660   5.985   2.714 -0.8081 -0.8616 -0.4628
 1957TIP3    H2 5878   3.683   6.034   2.856 -3.6408  0.1128 -0.2780
 1958TIP3   OH2 5879   1.567   5.345   5.093  0.4652  0.0441  0.3765
 1958TIP3    H1 5880   1.534   5.323   5.180  1.5726 -1.8689  0.3674
 1958TIP3    H2 5881   1.582   5.440   5.097 -2.5978  0.6131  1.1371
 1959TIP3   OH2 5882   2.122   0.349   3.704  0.6952 -0.2476 -0.3530
 1959TIP3    H1 5883   2.217   0.348   3.694  0.6028  0.0759 -1.3721
 1959TIP3    H2 5884   2.102   0.438   3.735  0.6093  0.1974 -1.6169
 1960TIP3   OH2 5885   0.940   4.079   2.152 -0.4204  0.3193  0.0245
 1960TIP3    H1 5886   0.886   4.122   2.086  0.5526  3.6571  1.1852
 1960TIP3    H2 5887   1.001   4.025   2.102 -0.9600  1.1988 -1.6771
 1961TIP3   OH2 5888   4.864   5.377   5.160  0.5737  0.3637  0.4575
 1961TIP3    H1 5889   4.940   5.330   5.194 -1.1661 -1.5192  1.9736
 1961TIP3    H2 5890   4.817   5.313   5.107  0.3527  1.6956 -1.0295
 1962TIP3   OH2 5891   4.540   2.371   3.131  0.1874 -0.6865 -0.0289
 1962TIP3    H1 5892   4.472   2.330   3.078  0.3159  0.1009 -0.8236
 1962TIP3    H2 5893   4.611   2.389   3.069  0.9426 -1.0852  0.6971
 1963TIP3   OH2 5894   1.354   5.923   3.390 -0.2308 -0.3232 -0.0366
 1963TIP3    H1 5895   1.365   5.855   3.323 -0.8758  0.4915 -0.9959
 1963TIP3    H2 5896   1.261   5.943   3.390 -0.0491  0.5993  0.1840
 1964TIP3   OH2 5897   1.538   2.401   1.616  0.4647  0.3152 -0.2802
 1964TIP3    H1 5898   1.529   2.333   1.550 -0.1509 -0.9820  1.0728
 1964TIP3    H2 5899   1.632   2.403   1.635  0.7092  0.9961 -1.4494
 1965TIP3   OH2 5900   4.854   1.709   2.681  0.6313  0.4470 -0.5214
 1965TIP3    H1 5901   4.796   1.782   2.660  0.1131  0.4192  0.7376
 1965TIP3    H2 5902   4.880   1.724   2.772  1.7034 -0.1533 -0.7130
 1966TIP3   OH2 5903   4.893   3.457   2.431 -0.5946 -0.5404 -0.1567
 1966TIP3    H1 5904   4.853   3.378   2.468  0.4474 -0.5969  0.9061
 1966TIP3    H2 5905   4.898   3.440   2.337  0.4576 -2.1528  0.1423
 1967TIP3   OH2 5906   0.896   0.894   5.163 -0.1426 -0.2097  0.2969
 1967TIP3    H1 5907   0.847   0.812   5.177 -1.4729  0.7633  1.6744
 1967TIP3    H2 5908   0.844   0.961   5.208  2.3224  0.9508  1.6497
 1968TIP3   OH2 5909   2.503   1.174   0.391  0.3515 -0.9290  0.0022
 1968TIP3    H1 5910   2.507   1.083   0.423 -2.7265 -0.2671  2.8582
 1968TIP3    H2 5911   2.410   1.190   0.377  0.7542  1.9389  0.0929
 1969TIP3   OH2 5912   3.600   4.679   4.336  0.2787  0.2000  0.6099
 1969TIP3    H1 5913   3.584   4.591   4.372  2.2299  0.1339  1.4986
 1969TIP3    H2 5914   3.519   4.703   4.293 -0.8843 -1.3544  1.8033
 1970TIP3   OH2 5915   2.763   4.830   1.976 -0.2968  0.6020 -0.5653
 1970TIP3    H1 5916   2.723   4.793   2.054 -0.4352 -0.6454 -1.2042
 1970TIP3    H2 5917   2.806   4.910   2.006 -0.3631  0.1484  0.7763
 1971TIP3   OH2 5918   5.933   2.726   2.731  0.2767  0.3298 -0.1770
 1971TIP3    H1 5919   6.017   2.771   2.741 -0.4000  1.9293 -1.1599
 1971TIP3    H2 5920   5.885   2.747   2.810  0.8841 -0.8417  0.5264
 1972TIP3   OH2 5921   4.794   4.369   0.433 -0.1810  0.2933 -0.2686
 1972TIP3    H1 5922   4.786   4.305   0.362  0.8163  0.2585 -0.3590
 1972TIP3    H2 5923   4.888   4.375   0.450 -0.2661  1.6189 -0.1533
 1973TIP3   OH2 5924   4.605   5.259   0.718 -0.0525 -0.2394 -0.1758
 1973TIP3    H1 5925   4.621   5.180   0.770 -0.2364  0.5051  1.0589
 1973TIP3    H2 5926   4.679   5.317   0.739  0.5233 -0.3898 -1.7141
 1974TIP3   OH2 5927   4.461   3.092   2.714  0.5718  0.4311 -0.3561
 1974TIP3    H1 5928   4.430   3.003   2.729  0.1685  0.5260 -0.6234
 1974TIP3    H2 5929   4.492   3.092   2.623 -0.7898  0.9477 -0.8455
 1975TIP3   OH2 5930   6.332   2.177   0.348  0.5402 -0.3121 -0.1838
 1975TIP3    H1 5931   6.305   2.161   0.439  0.3734 -0.0358 -0.1830
 1975TIP3    H2 5932   6.253   2.163   0.296  0.4269  0.3420 -0.1970
 1976TIP3   OH2 5933   2.934   5.475   2.161  0.0625  0.5932  1.2873
 1976TIP3    H1 5934   3.019   5.467   2.118 -0.9511  0.9024 -0.9542
 1976TIP3    H2 5935   2.917   5.569   2.165 -0.7376  0.5108  0.4112
 1977TIP3   OH2 5936   2.438   3.652   0.070  0.0175  0.1010  0.3572
 1977TIP3    H1 5937   2.505   3.587   0.049 -0.8856 -0.5723 -0.5177
 1977TIP3    H2 5938   2.446   3.665   0.164  1.4843  0.1672  0.2436
 1978TIP3   OH2 5939   0.438   3.849   1.797 -0.0661  0.4136 -0.3159
 1978TIP3    H1 5940   0.496   3.925   1.804 -1.2765  1.3862 -0.5244
 1978TIP3    H2 5941   0.468   3.790   1.867  0.3463  1.4738  0.4333
 1979TIP3   OH2 5942   3.459   4.392   0.107 -0.0780  0.3345 -0.1363
 1979TIP3    H1 5943   3.486   4.300   0.103 -1.7925 -0.1704 -1.8087
 1979TIP3    H2 5944   3.507   4.428   0.181  0.4283 -1.9748  0.7479
 1980TIP3   OH2 5945   2.849   3.943   4.218 -0.1473  0.3276 -0.1963
 1980TIP3    H1 5946   2.763   3.947   4.177 -0.0263  0.6638 -0.4216
 1980TIP3    H2 5947   2.842   3.872   4.282  0.0581 -1.0842 -1.6798
 1981TIP3   OH2 5948   4.000   3.171   0.463 -0.1066 -0.4694 -0.0258
 1981TIP3    H1 5949   3.908   3.191   0.480 -0.2432 -0.5282 -0.6708
 1981TIP3    H2 5950   3.998   3.091   0.412  0.3173 -0.5834  0.1318
 1982TIP3   OH2 5951   1.949   4.101   0.967 -0.6047 -0.2641  0.0309
 1982TIP3    H1 5952   2.043   4.114   0.955 -0.8555  0.3185 -1.7106
 1982TIP3    H2 5953   1.937   4.006   0.965 -0.0505 -0.3371  0.1815
 1983TIP3   OH2 5954   2.639   5.446   1.675 -0.3907 -0.2646  0.2868
 1983TIP3    H1 5955   2.621   5.540   1.682 -1.4799 -0.2094 -2.3869
 1983TIP3    H2 5956   2.707   5.440   1.609 -1.7453 -1.4354 -1.0627
 1984TIP3   OH2 5957   4.614   5.211   0.427 -0.7005  0.0473  0.3962
 1984TIP3    H1 5958   4.610   5.226   0.521 -0.9715  1.4429  0.1790
 1984TIP3    H2 5959   4.671   5.280   0.394  0.1561 -0.9800 -0.3725
 1985TIP3   OH2 5960   2.450   2.519   3.645 -0.2292 -0.1018  0.0630
 1985TIP3    H1 5961   2.391   2.556   3.710 -1.9518  0.4918 -1.7099
 1985TIP3    H2 5962   2.456   2.587   3.577  1.2425 -0.7986 -0.5541
 1986TIP3   OH2 5963   4.772   5.438   0.351  0.1451  0.3053  0.0974
 1986TIP3    H1 5964   4.763   5.481   0.436  0.4567  2.0645 -0.7285
 1986TIP3    H2 5965   4.855   5.469   0.316 -0.9171  1.2527 -1.7292
 1987TIP3   OH2 5966   2.680   3.579   2.496 -0.1986 -0.1510 -0.3598
 1987TIP3    H1 5967   2.762   3.552   2.456  0.5779  0.9447  0.4516
 1987TIP3    H2 5968   2.654   3.658   2.448  1.0213  1.4960  1.5495
 1988TIP3   OH2 5969   0.150   1.193   3.000  0.4009 -0.1783 -0.0393
 1988TIP3    H1 5970   0.103   1.116   2.968 -1.0719  0.2324  1.0214
 1988TIP3    H2 5971   0.219   1.157   3.055 -0.4741 -0.7625  0.7177
 1989TIP3   OH2 5972   4.801   4.315   1.503  0.4469  0.4477  0.1803
 1989TIP3    H1 5973   4.823   4.300   1.595  0.1128  1.3414  0.4143
 1989TIP3    H2 5974   4.725   4.373   1.506  0.7998  0.9651 -0.6601
 1990TIP3   OH2 5975   6.337   0.540   4.825 -0.2121  0.6206 -0.2021
 1990TIP3    H1 5976   6.270   0.603   4.799 -1.5610 -0.6318  0.0828
 1990TIP3    H2 5977   6.349   0.555   4.919 -1.8840 -0.6840  0.2768
 1991TIP3   OH2 5978   5.239   2.173   2.244 -0.2587  0.5004 -0.3547
 1991TIP3    H1 5979   5.168   2.227   2.209 -0.3667 -0.1883 -1.2361
 1991TIP3    H2 5980   5.288   2.145   2.167 -0.4823 -1.0284  0.0379
 1992TIP3   OH2 5981   4.713   3.724   1.213 -0.6223 -0.1005 -0.0739
 1992TIP3    H1 5982   4.708   3.703   1.120  1.2219  0.6291 -0.3888
 1992TIP3    H2 5983   4.795   3.772   1.222 -1.0027  0.2655  1.8595
 1993TIP3   OH2 5984   4.657   4.141   2.415  0.1176 -0.0587  0.1259
 1993TIP3    H1 5985   4.722   4.157   2.483 -1.3596 -0.2817  1.6757
 1993TIP3    H2 5986   4.648   4.046   2.412  0.6856 -0.0909 -0.9155
 1994TIP3   OH2 5987   1.038   0.827   4.067  0.6539 -0.1545 -0.1248
 1994TIP3    H1 5988   1.077   0.886   4.132  0.9345 -0.9962  0.4881
 1994TIP3    H2 5989   1.089   0.843   3.987  1.9055 -0.8222  0.5084
 1995TIP3   OH2 5990   1.258   2.956   1.657 -0.0034 -0.5847 -0.5936
 1995TIP3    H1 5991   1.315   2.881   1.675  0.3223 -0.1160  0.4392
 1995TIP3    H2 5992   1.275   3.016   1.729 -1.9137 -0.4775 -0.1785
 1996TIP3   OH2 5993   4.063   5.126   2.665  0.1532  0.1566  0.0492
 1996TIP3    H1 5994   3.980   5.173   2.672  1.0451  1.6736  0.8589
 1996TIP3    H2 5995   4.051   5.047   2.719 -1.4116 -0.7041 -1.4463
 1997TIP3   OH2 5996   5.244   2.622   4.919 -0.3282  0.3848  0.2057
 1997TIP3    H1 5997   5.324   2.575   4.894 -0.6645 -0.8039  1.3019
 1997TIP3    H2 5998   5.175   2.556   4.918 -1.7750  1.7768 -2.7136
 1998TIP3   OH2 5999   5.686   0.108   3.595  0.0059 -0.2766  0.0222
 1998TIP3    H1 6000   5.679   0.137   3.686 -0.7884 -0.1660 -0.0642
 1998TIP3    H2 6001   5.737   0.177   3.552 -0.8090  0.3876  0.0888
 1999TIP3   OH2 6002   2.729   2.717   3.422  0.1420  0.7292 -0.4451
 1999TIP3    H1 6003   2.647   2.737   3.468  1.0146  1.6914  0.7407
 1999TIP3    H2 6004   2.778   2.664   3.483  0.9232  1.2110 -0.6424
 2000TIP3   OH2 6005   5.631   4.496   4.832  0.3410 -0.0022 -0.2812
 2000TIP3    H1 6006   5.637   4.579   4.785 -1.2049 -0.0999 -0.7201
 2000TIP3    H2 6007   5.576   4.516   4.908  1.1985 -0.3023  0.4416
 2001TIP3   OH2 6008   1.080   1.252   0.701 -0.2996  0.3985  0.0830
 2001TIP3    H1 6009   1.141   1.310   0.747 -2.2326  3.2827 -0.7363
 2001TIP3    H2 6010   1.049   1.192   0.769  0.4755  1.4558  1.4298
 2002TIP3   OH2 6011   6.331   0.615   4.432  0.1819 -0.5093 -0.1155
 2002TIP3    H1 6012   6.311   0.618   4.338  0.7366 -0.8143 -0.2467
 2002TIP3    H2 6013   6.336   0.707   4.458 -1.2739 -0.4169 -0.0924
 2003TIP3   OH2 6014   1.067   5.762   3.949 -0.4152  0.4437  0.0336
 2003TIP3    H1 6015   1.039   5.779   3.859 -1.1914  1.4538  0.4538
 2003TIP3    H2 6016   1.013   5.820   4.003  1.6643  1.6013  0.9715
 2004TIP3   OH2 6017   2.451   2.231   0.536  0.0018  0.2293 -0.0353
 2004TIP3    H1 6018   2.525   2.242   0.475  0.1587 -0.8202 -0.0484
 2004TIP3    H2 6019   2.433   2.137   0.535 -2.1854  0.6048 -1.0281
 2005TIP3   OH2 6020   1.789   4.316   2.902 -0.2446 -0.2893  0.1608
 2005TIP3    H1 6021   1.759   4.225   2.905 -0.6845 -0.1265  0.8010
 2005TIP3    H2 6022   1.728   4.360   2.844  1.2230 -0.8393 -1.9377
 2006TIP3   OH2 6023   6.347   2.993   1.353 -0.0999  0.4591  0.1363
 2006TIP3    H1 6024   6.424   2.956   1.397  1.3281  1.8555 -1.0694
 2006TIP3    H2 6025   6.279   2.993   1.420  1.5709  1.1636  1.9229
 2007TIP3   OH2 6026   6.196   5.951   4.050  0.5689  0.6316  0.4253
 2007TIP3    H1 6027   6.211   6.013   3.979  0.7813 -0.7305 -0.7539
 2007TIP3    H2 6028   6.193   5.865   4.008  1.2279 -0.2819  2.1290
 2008TIP3   OH2 6029   1.062   3.548   4.161  0.4861 -0.2709  0.1765
 2008TIP3    H1 6030   1.076   3.621   4.221  2.8685 -0.9489  0.5670
 2008TIP3    H2 6031   1.124   3.481   4.190 -2.8571 -3.3035  1.0314
 2009TIP3   OH2 6032   0.049   3.187   4.478 -0.5029 -0.1666  0.0909
 2009TIP3    H1 6033   0.144   3.180   4.479 -0.5039 -0.1658  0.8981
 2009TIP3    H2 6034   0.018   3.098   4.460 -0.3574 -0.2996  0.4837
 2010TIP3   OH2 6035   4.773   4.161   1.807  0.3130 -0.3627 -0.7216
 2010TIP3    H1 6036   4.815   4.247   1.816 -0.3563 -0.0625 -0.4168
 2010TIP3    H2 6037   4.832   4.112   1.750  1.4017 -0.1616  0.1969
 2011TIP3   OH2 6038   1.611   0.623   4.618 -0.4924  0.2239  0.1219
 2011TIP3    H1 6039   1.701   0.648   4.642 -0.5288  0.7555 -0.2762
 2011TIP3    H2 6040   1.587   0.556   4.682  0.2066  0.0437  0.2066
 2012TIP3   OH2 6041   5.466   2.043   2.365  0.2033 -0.3816 -0.4419
 2012TIP3    H1 6042   5.404   2.104   2.403  0.4664  0.2445 -1.0063
 2012TIP3    H2 6043   5.489   2.081   2.280  0.7200 -1.0272 -0.6011
 2013TIP3   OH2 6044   6.096   4.185   1.272  0.1198  0.5188 -0.1633
 2013TIP3    H1 6045   6.074   4.261   1.326 -0.1628  0.3728 -0.0723
 2013TIP3    H2 6046   6.041   4.114   1.306 -0.1350  0.4507 -0.7055
 2014TIP3   OH2 6047   3.683   2.712   2.303  0.2989 -0.0730 -0.2710
 2014TIP3    H1 6048   3.631   2.752   2.373 -0.4920 -1.4443 -0.0542
 2014TIP3    H2 6049   3.730   2.786   2.264  0.7557  0.7331  1.6898
 2015TIP3   OH2 6050   5.209   5.853   3.841  0.0745 -0.3489 -0.1998
 2015TIP3    H1 6051   5.262   5.873   3.765 -1.3681  1.3930 -0.8130
 2015TIP3    H2 6052   5.162   5.934   3.861 -0.6738 -1.1615  1.6691
 2016TIP3   OH2 6053   5.658   4.519   2.999 -0.2214 -0.1094  0.2672
 2016TIP3    H1 6054   5.639   4.425   2.990 -0.9978  0.1323 -0.9738
 2016TIP3    H2 6055   5.574   4.558   3.026 -0.1581  0.3229 -0.1318
 2017TIP3   OH2 6056   2.971   5.768   0.904 -0.7976  0.2571  0.9921
 2017TIP3    H1 6057   2.985   5.774   0.810 -2.4015 -0.9851  0.6179
 2017TIP3    H2 6058   2.969   5.859   0.934  0.5948  0.6498 -0.0002
 2018TIP3   OH2 6059   3.205   2.474   2.814 -0.1878  0.0940  0.0917
 2018TIP3    H1 6060   3.281   2.508   2.861 -0.9189  0.7325  0.8314
 2018TIP3    H2 6061   3.188   2.389   2.854 -0.4713  0.3945  0.6250
 2019TIP3   OH2 6062   2.878   4.219   4.279 -0.3302  0.4722 -0.2504
 2019TIP3    H1 6063   2.797   4.236   4.327 -1.2080 -1.2921 -1.0090
 2019TIP3    H2 6064   2.875   4.125   4.259  1.6334  0.4755 -0.7996
 2020TIP3   OH2 6065   2.293   4.752   1.762 -0.0596  0.2769  0.2921
 2020TIP3    H1 6066   2.247   4.713   1.687 -2.5548  1.5711  1.0573
 2020TIP3    H2 6067   2.337   4.828   1.725 -3.3866  2.4513  0.4073
 2021TIP3   OH2 6068   4.681   5.432   3.183 -0.0241 -0.4503  0.3678
 2021TIP3    H1 6069   4.617   5.367   3.154  1.0050 -1.6188  0.5924
 2021TIP3    H2 6070   4.766   5.395   3.157  0.7524 -0.2691  2.4374
 2022TIP3   OH2 6071   3.929   2.255   4.776 -0.1067  0.0714 -0.3337
 2022TIP3    H1 6072   3.986   2.331   4.788 -0.8999  0.5489  0.4670
 2022TIP3    H2 6073   3.876   2.252   4.856 -3.0496  1.1805 -2.1196
 2023TIP3   OH2 6074   1.156   0.438   3.472 -0.1069  0.0796 -0.6678
 2023TIP3    H1 6075   1.153   0.442   3.567  1.2294  1.4040 -0.6446
 2023TIP3    H2 6076   1.249   0.440   3.451 -0.3416 -1.1557 -1.9909
 2024TIP3   OH2 6077   2.873   4.009   1.462  0.1725  0.4383  0.0740
 2024TIP3    H1 6078   2.968   4.014   1.468  0.3402  0.5911 -1.9886
 2024TIP3    H2 6079   2.849   4.084   1.407 -1.2015  0.7425  1.0537
 2025TIP3   OH2 6080   5.855   5.829   0.252 -0.0180  0.2666  0.1954
 2025TIP3    H1 6081   5.815   5.885   0.319 -0.2043 -0.8877  1.0878
 2025TIP3    H2 6082   5.942   5.809   0.286  1.1108  2.1427 -1.3825
 2026TIP3   OH2 6083   0.931   5.370   3.951 -0.0003  0.1329 -0.8074
 2026TIP3    H1 6084   1.005   5.352   4.010 -0.3231  0.8876 -0.1477
 2026TIP3    H2 6085   0.971   5.376   3.864  0.7873  0.9409 -0.4057
 2027TIP3   OH2 6086   3.069   5.502   2.687  0.1654  0.2636  0.7792
 2027TIP3    H1 6087   3.068   5.485   2.593 -0.3597  0.3004  0.7763
 2027TIP3    H2 6088   3.125   5.580   2.697  0.2517  0.2363  0.5045
 2028TIP3   OH2 6089   6.100   0.425   3.616  0.6540 -0.5941 -0.3372
 2028TIP3    H1 6090   6.157   0.347   3.618  0.3466 -0.8799 -1.5551
 2028TIP3    H2 6091   6.136   0.478   3.545  1.4075  0.8323  1.0689
 2029TIP3   OH2 6092   2.879   5.069   1.232 -0.0632 -0.2795 -0.1723
 2029TIP3    H1 6093   2.916   5.157   1.226 -1.2289  0.2957  0.7538
 2029TIP3    H2 6094   2.825   5.061   1.153  0.7117 -0.5139 -0.6968
 2030TIP3   OH2 6095   1.686   2.602   3.855  0.5602 -0.1054  0.1954
 2030TIP3    H1 6096   1.685   2.692   3.888  0.8035  0.0991 -0.3541
 2030TIP3    H2 6097   1.669   2.611   3.761  1.2846 -0.5863  0.0188
 2031TIP3   OH2 6098   3.605   2.099   1.583  0.5257  0.0326  0.3951
 2031TIP3    H1 6099   3.656   2.108   1.663  0.7173  1.5842  0.1254
 2031TIP3    H2 6100   3.529   2.156   1.596  0.0903 -0.3973 -0.1784
 2032TIP3   OH2 6101   2.374   2.022   1.261 -0.7303 -0.1178 -0.3562
 2032TIP3    H1 6102   2.372   2.045   1.168 -0.4264  2.5804  0.2262
 2032TIP3    H2 6103   2.467   2.017   1.283 -0.7925  0.5879  0.0841
 2033TIP3   OH2 6104   3.213   2.779   3.182 -0.3065  0.0821  0.0921
 2033TIP3    H1 6105   3.231   2.687   3.204 -0.9061  0.0383  0.4323
 2033TIP3    H2 6106   3.196   2.821   3.266 -1.2240  0.2331 -0.1502
 2034TIP3   OH2 6107   1.615   2.682   0.115  0.4711  0.2526 -0.4632
 2034TIP3    H1 6108   1.556   2.751   0.146  0.0566 -1.1267  1.9718
 2034TIP3    H2 6109   1.561   2.628   0.058 -0.0105  0.2667 -0.0247
 2035TIP3   OH2 6110   4.410   0.754   4.368  0.2676  0.3098 -0.3050
 2035TIP3    H1 6111   4.474   0.707   4.422  0.2087  0.0285 -0.4766
 2035TIP3    H2 6112   4.354   0.800   4.431 -1.4037 -2.0321  0.0571
 2036TIP3   OH2 6113   5.703   0.448   0.595  0.2412 -0.4956  0.3407
 2036TIP3    H1 6114   5.664   0.371   0.637  1.6264 -0.9239  0.8961
 2036TIP3    H2 6115   5.628   0.495   0.558 -0.5957 -2.4012 -0.5221
 2037TIP3   OH2 6116   2.012   4.809   2.597  0.1579 -0.3318 -0.6622
 2037TIP3    H1 6117   2.033   4.839   2.686  0.7535 -1.0758 -0.5413
 2037TIP3    H2 6118   1.976   4.886   2.554  1.2612  0.4618 -0.2336
 2038TIP3   OH2 6119   0.729   5.895   5.084  0.1137 -0.5697 -0.2658
 2038TIP3    H1 6120   0.639   5.892   5.053 -0.0551 -0.1684  0.1745
 2038TIP3    H2 6121   0.767   5.811   5.058 -0.3432 -0.6788 -0.5762
 2039TIP3   OH2 6122   5.655   3.271   1.528 -0.4209  0.2082 -0.2347
 2039TIP3    H1 6123   5.602   3.339   1.569  0.5718  0.8206  0.0654
 2039TIP3    H2 6124   5.624   3.190   1.568 -0.3794  0.6657  0.7748
 2040TIP3   OH2 6125   1.109   3.453   2.529 -0.4969  0.0362  0.0941
 2040TIP3    H1 6126   1.141   3.467   2.619  0.5846 -0.4595 -0.2011
 2040TIP3    H2 6127   1.080   3.540   2.501  2.4735  1.0279 -0.3192
 2041TIP3   OH2 6128   1.114   1.212   5.203 -0.2276  0.1265 -0.6088
 2041TIP3    H1 6129   1.134   1.131   5.157 -0.2791  0.1320 -0.6415
 2041TIP3    H2 6130   1.081   1.271   5.135 -0.2664  0.1477 -0.5720
 2042TIP3   OH2 6131   5.253   5.136   3.554  0.3379  0.1248  0.1274
 2042TIP3    H1 6132   5.269   5.077   3.480 -1.1998  0.3340 -0.4035
 2042TIP3    H2 6133   5.184   5.195   3.524  1.8883  2.3149  0.6023
 2043TIP3   OH2 6134   2.485   2.231   2.317  0.2481  0.2073 -0.2660
 2043TIP3    H1 6135   2.403   2.209   2.360 -0.9739  0.2771 -2.3874
 2043TIP3    H2 6136   2.511   2.315   2.355 -1.5946  1.0334 -0.7247
 2044TIP3   OH2 6137   0.032   5.280   5.110 -0.2783 -0.1359  0.1466
 2044TIP3    H1 6138   0.022   5.317   5.023 -0.6742  1.2984  0.7727
 2044TIP3    H2 6139  -0.046   5.226   5.123 -0.0339 -0.6533 -0.5220
 2045TIP3   OH2 6140   5.054   4.062   2.914  0.7574 -0.3712  0.5230
 2045TIP3    H1 6141   4.995   3.998   2.954 -0.9693  0.6365 -0.3016
 2045TIP3    H2 6142   5.102   4.100   2.988  0.0385 -0.8823  1.2671
 2046TIP3   OH2 6143   2.930   1.468   4.798  0.2010  0.1881  0.4800
 2046TIP3    H1 6144   2.873   1.481   4.874 -0.7147 -1.4801  0.1371
 2046TIP3    H2 6145   2.977   1.387   4.817  0.1639 -0.1054 -0.5919
 2047TIP3   OH2 6146   0.425   1.780   4.014  0.3050 -0.2016 -0.0754
 2047TIP3    H1 6147   0.504   1.803   3.965 -0.0673  0.7906 -0.2295
 2047TIP3    H2 6148   0.420   1.846   4.083 -1.0755  0.5316 -0.8375
 2048TIP3   OH2 6149   0.721   4.916   5.016 -0.0519  0.1691 -0.5214
 2048TIP3    H1 6150   0.770   4.834   5.018 -0.1157  0.1225  2.0718
 2048TIP3    H2 6151   0.787   4.983   5.000  0.2227 -0.2404 -1.1452
 2049TIP3   OH2 6152   6.332   5.375   3.998  0.3335  0.4350  0.1205
 2049TIP3    H1 6153   6.344   5.343   4.087  1.1740  2.3852  0.7471
 2049TIP3    H2 6154   6.271   5.448   4.005 -3.3801 -2.1747 -1.5894
 2050TIP3   OH2 6155   4.554   4.283   1.265 -0.2475  0.1389 -0.0110
 2050TIP3    H1 6156   4.484   4.226   1.232 -0.1902  0.0801 -0.0312
 2050TIP3    H2 6157   4.509   4.351   1.314 -0.3614  0.4516 -0.5443
 2051TIP3   OH2 6158   0.691   2.227   0.977  0.0341 -0.0748 -0.4212
 2051TIP3    H1 6159   0.778   2.190   0.961  0.4530  1.1413 -1.0379
 2051TIP3    H2 6160   0.668   2.196   1.065  1.5660  0.4530  0.2075
 2052TIP3   OH2 6161   5.084   5.122   0.856 -0.6072  0.5592  0.0426
 2052TIP3    H1 6162   5.176   5.105   0.873 -0.7160  1.1854  1.3748
 2052TIP3    H2 6163   5.069   5.086   0.769  0.4463 -1.2204  0.5262
 2053TIP3   OH2 6164   3.640   5.899   5.135  0.0283 -0.3502  0.0578
 2053TIP3    H1 6165   3.549   5.913   5.110  0.4025  1.1371 -0.5705
 2053TIP3    H2 6166   3.645   5.930   5.226  0.1897  0.9447 -0.3665
 2054TIP3   OH2 6167   2.802   0.011   2.620 -0.3873 -0.0784 -0.2579
 2054TIP3    H1 6168   2.895  -0.012   2.625  0.1671  1.9490 -0.4971
 2054TIP3    H2 6169   2.779   0.038   2.709 -0.2095  1.2859 -0.6126
 2055TIP3   OH2 6170   5.546   4.640   3.262 -0.4635  0.0787  0.0742
 2055TIP3    H1 6171   5.558   4.661   3.354 -0.7533 -0.1619  0.1680
 2055TIP3    H2 6172   5.477   4.574   3.261  2.0100 -2.7015  0.0213
 2056TIP3   OH2 6173   0.862   2.829   4.513 -0.2722  0.1714 -0.8632
 2056TIP3    H1 6174   0.921   2.904   4.517  0.9190 -0.6284 -2.3361
 2056TIP3    H2 6175   0.905   2.767   4.454 -0.7437 -2.0955  1.0202
 2057TIP3   OH2 6176   2.410   1.491   3.422 -0.5612 -0.0069 -0.4348
 2057TIP3    H1 6177   2.408   1.566   3.361 -2.4516 -0.5878 -1.1576
 2057TIP3    H2 6178   2.416   1.414   3.365  0.9271 -0.4653  0.2898
 2058TIP3   OH2 6179   1.610   4.079   3.736 -0.2242  0.0614 -0.7295
 2058TIP3    H1 6180   1.564   4.024   3.672 -1.4385  1.5001 -1.1563
 2058TIP3    H2 6181   1.568   4.060   3.819  1.1317 -1.5635 -0.3628
 2059TIP3   OH2 6182   2.903   5.609   1.374 -0.2896 -0.1394  0.2600
 2059TIP3    H1 6183   2.954   5.597   1.293  0.2739  0.3449  0.5353
 2059TIP3    H2 6184   2.855   5.690   1.360  0.0069  0.0809  0.5108
 2060TIP3   OH2 6185   0.863   1.266   4.639 -0.5169  0.3746 -0.1708
 2060TIP3    H1 6186   0.783   1.316   4.625 -1.0931 -0.2353  0.8561
 2060TIP3    H2 6187   0.838   1.196   4.700  0.4559 -0.6892 -0.9442
 2061TIP3   OH2 6188   3.460   2.785   2.745 -0.2529  0.4193 -0.0103
 2061TIP3    H1 6189   3.489   2.746   2.827 -0.4193  0.1085 -0.0941
 2061TIP3    H2 6190   3.373   2.748   2.731  0.3533 -0.6921 -1.0670
 2062TIP3   OH2 6191   1.627   3.909   1.426  0.0221  0.9794  0.1699
 2062TIP3    H1 6192   1.561   3.863   1.375  1.0120 -1.5657  1.0198
 2062TIP3    H2 6193   1.673   3.964   1.363  0.6770 -1.4279 -1.5884
 2063TIP3   OH2 6194   2.992   1.028   4.463 -0.3889 -0.4435 -0.2720
 2063TIP3    H1 6195   2.930   1.092   4.498  0.8154  0.3383  0.5061
 2063TIP3    H2 6196   2.999   0.961   4.531 -0.4393 -0.5736 -0.3948
 2064TIP3   OH2 6197   0.319   5.507   3.638 -0.5011 -0.1078 -1.1560
 2064TIP3    H1 6198   0.278   5.585   3.675  0.8241  0.1458 -0.1773
 2064TIP3    H2 6199   0.260   5.436   3.661 -0.3933  0.2449  0.2577
 2065TIP3   OH2 6200   6.024   4.043   1.879  0.0513 -0.2664  0.2799
 2065TIP3    H1 6201   6.119   4.051   1.892  0.0319  1.5710 -0.5212
 2065TIP3    H2 6202   6.005   3.952   1.903  2.2780 -1.2144 -1.2077
 2066TIP3   OH2 6203   6.317   4.864   0.511  0.6147  0.1299  0.2325
 2066TIP3    H1 6204   6.276   4.793   0.461 -1.7079  1.1312  0.5895
 2066TIP3    H2 6205   6.370   4.911   0.447 -0.4863  0.0150 -0.7960
 2067TIP3   OH2 6206   3.751   0.545   5.070  0.7872 -0.5735  0.4997
 2067TIP3    H1 6207   3.792   0.628   5.094  0.6599 -0.2727 -0.2884
 2067TIP3    H2 6208   3.810   0.478   5.104  2.6892 -0.1540 -1.7439
 2068TIP3   OH2 6209   5.041   5.841   1.554 -0.2293 -0.6471 -0.1020
 2068TIP3    H1 6210   5.003   5.757   1.527  1.3099 -0.5824 -2.7628
 2068TIP3    H2 6211   5.048   5.891   1.473  1.2580  1.0770  1.0338
 2069TIP3   OH2 6212   0.150   3.044   0.606  0.4264 -0.2810  0.4213
 2069TIP3    H1 6213   0.186   3.098   0.536 -1.9257  1.1582  0.2191
 2069TIP3    H2 6214   0.082   2.992   0.564  0.5297 -1.1108  1.2338
 2070TIP3   OH2 6215   2.973   0.027   2.946 -0.1542 -0.2144  0.2108
 2070TIP3    H1 6216   2.993   0.042   2.854 -1.9295 -2.0739 -0.5593
 2070TIP3    H2 6217   2.885   0.064   2.958  0.5240  1.0936  1.5132
 2071TIP3   OH2 6218   4.183   0.865   5.166  0.2251 -0.1136 -0.0185
 2071TIP3    H1 6219   4.249   0.798   5.150  0.2514 -0.1104  0.0758
 2071TIP3    H2 6220   4.102   0.828   5.132  0.5229  0.4206 -1.3668
 2072TIP3   OH2 6221   4.988   3.683   2.195 -0.1963 -0.2234 -0.1465
 2072TIP3    H1 6222   5.080   3.689   2.171 -0.0871  0.1512  0.3382
 2072TIP3    H2 6223   4.960   3.596   2.164 -0.0782  0.2336 -1.5955
 2073TIP3   OH2 6224   4.891   1.816   0.076  0.1057 -0.5098  0.7237
 2073TIP3    H1 6225   4.829   1.746   0.056 -0.1303 -0.3004  0.7101
 2073TIP3    H2 6226   4.919   1.848  -0.009  1.1663 -1.4119  0.7196
 2074TIP3   OH2 6227   0.340   1.405   2.849  0.2349  0.1118 -0.0174
 2074TIP3    H1 6228   0.287   1.378   2.775 -0.1656 -0.9200  0.6234
 2074TIP3    H2 6229   0.370   1.493   2.827 -0.2810  0.0084 -1.1712
 2075TIP3   OH2 6230   3.112   5.637   4.657 -0.3556 -0.4592 -0.1425
 2075TIP3    H1 6231   3.068   5.557   4.629 -1.7907  0.5523 -0.9547
 2075TIP3    H2 6232   3.153   5.671   4.577  0.1573 -0.3323  0.1706
 2076TIP3   OH2 6233   3.359   4.186   4.460  0.2532 -0.2179 -0.2859
 2076TIP3    H1 6234   3.286   4.197   4.399  0.8495  1.0069 -0.8136
 2076TIP3    H2 6235   3.361   4.092   4.479 -1.9638 -0.1938  0.3906
 2077TIP3   OH2 6236   5.493   0.685   0.834  0.2392  0.4765 -0.4894
 2077TIP3    H1 6237   5.444   0.625   0.891 -0.2293  1.5670  0.2966
 2077TIP3    H2 6238   5.429   0.714   0.769  0.0056  1.3829  0.1309
 2078TIP3   OH2 6239   4.653   4.337   3.670  0.2282 -0.1978  0.2446
 2078TIP3    H1 6240   4.594   4.314   3.742  2.0347  0.9054  2.1802
 2078TIP3    H2 6241   4.625   4.423   3.641 -2.5253 -1.8500 -2.7250
 2079TIP3   OH2 6242   3.567   2.695   3.993  0.3130 -0.5381  0.0082
 2079TIP3    H1 6243   3.579   2.644   4.073  0.1603  1.7351  1.5801
 2079TIP3    H2 6244   3.649   2.683   3.945 -0.0075 -2.8067 -0.0751
 2080TIP3   OH2 6245   1.451   2.018   4.369 -0.2213  0.5000  0.6059
 2080TIP3    H1 6246   1.382   1.962   4.405  0.0592 -0.5948 -0.4589
 2080TIP3    H2 6247   1.531   1.989   4.414  0.0798 -0.6600 -0.6133
 2081TIP3   OH2 6248   3.407   2.042   1.900 -0.0732  0.4037 -0.7659
 2081TIP3    H1 6249   3.349   2.055   1.975 -1.5572  0.1105 -1.8405
 2081TIP3    H2 6250   3.495   2.041   1.939 -0.8339 -0.4851  1.0698
 2082TIP3   OH2 6251   5.663   2.619   2.579 -0.5562 -0.2396  0.3160
 2082TIP3    H1 6252   5.740   2.566   2.597  0.1490  0.3363 -0.9128
 2082TIP3    H2 6253   5.596   2.556   2.554  0.1886 -0.5993 -0.8361
 2083TIP3   OH2 6254   4.748   3.988   4.460  0.7306  0.2377 -0.3461
 2083TIP3    H1 6255   4.750   4.076   4.497  3.3695  0.3025 -0.5038
 2083TIP3    H2 6256   4.712   4.000   4.372  1.3075  1.2183 -0.4602
 2084TIP3   OH2 6257   4.519   5.643   3.162  0.4063 -0.3699 -0.0227
 2084TIP3    H1 6258   4.437   5.613   3.122 -0.4633 -1.8059  2.6201
 2084TIP3    H2 6259   4.569   5.563   3.177  0.2154 -0.0693  2.6441
 2085TIP3   OH2 6260   5.836   1.323   3.869  0.2993 -0.0404  0.3097
 2085TIP3    H1 6261   5.885   1.266   3.928  0.2885  1.4347  1.8029
 2085TIP3    H2 6262   5.893   1.335   3.793  1.7837  0.6819  1.4959
 2086TIP3   OH2 6263   3.509   0.872   4.732 -0.2510  0.8199 -0.0527
 2086TIP3    H1 6264   3.566   0.795   4.737 -0.8668  0.3375 -0.3082
 2086TIP3    H2 6265   3.562   0.938   4.686  0.2842  0.5644  0.1787
 2087TIP3   OH2 6266   4.647   0.675   2.620  0.3734  0.4324  0.5196
 2087TIP3    H1 6267   4.600   0.657   2.701  0.8419  1.0420  0.9325
 2087TIP3    H2 6268   4.647   0.591   2.573 -2.4498  0.7242 -0.2169
 2088TIP3   OH2 6269   4.337   4.461   2.500 -0.1227 -0.1395  0.1882
 2088TIP3    H1 6270   4.283   4.539   2.489 -2.1267 -1.5380 -0.5388
 2088TIP3    H2 6271   4.419   4.493   2.536 -1.3264  2.1599  1.0831
 2089TIP3   OH2 6272   3.032  -0.030   4.042 -0.8442  0.2571 -0.2916
 2089TIP3    H1 6273   3.066   0.048   3.997 -0.9866 -0.1507 -1.1209
 2089TIP3    H2 6274   2.943  -0.006   4.068 -1.2355  0.0533 -1.3947
 2090TIP3   OH2 6275   1.228   5.048   3.866 -0.5770  0.5898  0.2462
 2090TIP3    H1 6276   1.173   4.988   3.917  0.4146  0.8880  1.7129
 2090TIP3    H2 6277   1.307   5.060   3.919  0.2846  1.3191 -1.1386
 2091TIP3   OH2 6278   0.232   5.280   0.533  0.4266 -0.3571  0.5116
 2091TIP3    H1 6279   0.239   5.185   0.526  0.5994 -0.2483 -1.3549
 2091TIP3    H2 6280   0.138   5.297   0.540  0.3500 -0.6303  0.1331
 2092TIP3   OH2 6281   0.026   4.140   0.940  0.2084  0.2870 -0.5834
 2092TIP3    H1 6282   0.100   4.200   0.933 -0.6964  1.9282  2.3914
 2092TIP3    H2 6283   0.029   4.108   1.030 -1.8289 -0.8064 -0.8407
 2093TIP3   OH2 6284   2.421   3.091   4.610 -0.0659 -0.0238 -0.0425
 2093TIP3    H1 6285   2.423   3.034   4.533 -0.1122 -0.8778  0.5757
 2093TIP3    H2 6286   2.450   3.177   4.577 -1.1113 -0.1004 -1.2297
 2094TIP3   OH2 6287   1.391   3.433   4.829  0.8834  0.0359 -0.1134
 2094TIP3    H1 6288   1.296   3.434   4.843  0.3208 -1.3920 -3.0197
 2094TIP3    H2 6289   1.401   3.451   4.736  3.4447 -0.6435 -0.0310
 2095TIP3   OH2 6290   3.947   5.200   4.714 -0.3840 -0.0976 -0.7783
 2095TIP3    H1 6291   4.014   5.203   4.647 -0.3992 -1.3273 -0.8686
 2095TIP3    H2 6292   3.900   5.283   4.705 -0.0211 -0.0010 -1.8949
 2096TIP3   OH2 6293   2.989   3.315   2.295 -0.5880  0.0643 -0.1030
 2096TIP3    H1 6294   2.933   3.391   2.305 -1.3592 -0.3714 -0.9577
 2096TIP3    H2 6295   3.074   3.343   2.330 -0.5172  1.7197 -1.4846
 2097TIP3   OH2 6296   5.317   1.810   4.220 -0.4268  0.2862  0.4924
 2097TIP3    H1 6297   5.412   1.801   4.235 -0.5774 -1.3390  0.6646
 2097TIP3    H2 6298   5.310   1.854   4.135  0.4625  1.6701  1.0952
 2098TIP3   OH2 6299   3.125   1.467   0.781 -0.0606  0.0252 -0.1010
 2098TIP3    H1 6300   3.071   1.436   0.708  1.1567  0.8909 -1.4256
 2098TIP3    H2 6301   3.073   1.536   0.822 -0.5347 -0.0997 -0.4813
 2099TIP3   OH2 6302   1.367   0.340   0.772 -0.3604  0.1371 -0.7404
 2099TIP3    H1 6303   1.453   0.373   0.795 -0.6799  0.1937  0.4319
 2099TIP3    H2 6304   1.379   0.299   0.686  1.0255 -0.6006 -0.2233
 2100TIP3   OH2 6305   4.234   3.586   2.176  0.3428  0.2198 -0.3197
 2100TIP3    H1 6306   4.295   3.589   2.102 -1.5549  1.0135 -1.9339
 2100TIP3    H2 6307   4.270   3.650   2.238  0.9200  1.0306 -1.4349
 2101TIP3   OH2 6308   2.483   3.432   4.009 -0.2792  0.1898 -0.3965
 2101TIP3    H1 6309   2.511   3.427   4.100 -0.2601 -2.4766 -0.4548
 2101TIP3    H2 6310   2.436   3.515   4.002 -1.1311  0.0133  2.2961
 2102TIP3   OH2 6311   3.542   4.349   3.288 -0.1221  0.1467 -0.6086
 2102TIP3    H1 6312   3.569   4.396   3.367  1.5608 -1.1231 -0.3605
 2102TIP3    H2 6313   3.469   4.295   3.317 -0.3106  0.6070 -0.2200
 2103TIP3   OH2 6314   2.441   5.144   2.818  0.2775 -0.1656  0.2356
 2103TIP3    H1 6315   2.414   5.052   2.821  0.0225 -0.1216 -0.4152
 2103TIP3    H2 6316   2.528   5.142   2.778  0.4579 -0.1585  0.6269
 2104TIP3   OH2 6317   3.353   0.825   4.043 -0.6368  0.2578  0.5074
 2104TIP3    H1 6318   3.408   0.902   4.031  0.0260 -0.1681  0.7335
 2104TIP3    H2 6319   3.264   0.856   4.031 -0.3595  1.0186  0.4098
 2105TIP3   OH2 6320   6.083   0.328   3.268 -0.6086  0.2002 -0.1149
 2105TIP3    H1 6321   6.077   0.415   3.228  1.5365  1.0414  1.1490
 2105TIP3    H2 6322   6.176   0.306   3.261 -0.7690 -1.0981  1.3268
 2106TIP3   OH2 6323   1.219   5.092   2.817  0.7926 -0.8850 -0.2716
 2106TIP3    H1 6324   1.249   5.057   2.733  1.6556 -0.1332 -0.3055
 2106TIP3    H2 6325   1.295   5.081   2.876 -0.0540 -2.1047  0.6414
 2107TIP3   OH2 6326   0.560   0.391   0.352 -0.1316  0.4832  0.5646
 2107TIP3    H1 6327   0.507   0.420   0.427 -1.8620  2.4792 -1.2668
 2107TIP3    H2 6328   0.523   0.306   0.328  0.0352  0.1096  1.5729
 2108TIP3   OH2 6329   4.215   1.405   0.499  0.7224 -0.0443 -0.1603
 2108TIP3    H1 6330   4.246   1.419   0.410  1.1723 -0.7992 -0.1316
 2108TIP3    H2 6331   4.186   1.491   0.529  0.9946  0.2962 -0.8697
 2109TIP3   OH2 6332   2.231   0.552   4.904 -0.0396  0.2852  0.6627
 2109TIP3    H1 6333   2.307   0.560   4.962  0.7667 -1.8941  0.0243
 2109TIP3    H2 6334   2.208   0.459   4.907 -1.2176  0.4753 -0.9659
 2110TIP3   OH2 6335   1.888   2.778   0.757  0.2818  0.1211  0.2286
 2110TIP3    H1 6336   1.876   2.723   0.680  1.3280  0.5880 -0.2839
 2110TIP3    H2 6337   1.925   2.719   0.823 -0.1318 -0.1544  0.2210
 2111TIP3   OH2 6338   1.138   3.199   3.436 -0.2507 -0.2000 -0.0486
 2111TIP3    H1 6339   1.091   3.164   3.360  0.2190  1.1749 -0.9906
 2111TIP3    H2 6340   1.165   3.121   3.485  1.2648 -1.2276 -2.3833
 2112TIP3   OH2 6341   1.353   2.491   4.263  0.2060 -0.2578 -0.3197
 2112TIP3    H1 6342   1.270   2.484   4.311 -0.1187  0.4090 -0.7698
 2112TIP3    H2 6343   1.360   2.409   4.215 -0.6241  0.0209 -0.9440
 2113TIP3   OH2 6344   5.709   2.997   1.336 -0.1818  0.0969  0.0924
 2113TIP3    H1 6345   5.776   3.049   1.292  0.9501  0.8418  2.5540
 2113TIP3    H2 6346   5.713   3.024   1.427 -0.8933 -2.9192  1.1301
 2114TIP3   OH2 6347   5.333   2.894   0.229  0.0188 -0.1354  0.3559
 2114TIP3    H1 6348   5.257   2.944   0.200  0.6177  0.3252 -0.4804
 2114TIP3    H2 6349   5.321   2.808   0.190  0.0968  0.0487 -0.0894
 2115TIP3   OH2 6350   1.599   4.608   0.916  0.7035  0.9237  0.0742
 2115TIP3    H1 6351   1.613   4.614   1.010 -1.1762 -2.8347  0.8114
 2115TIP3    H2 6352   1.655   4.535   0.888 -2.5421 -1.5851 -0.4993
 2116TIP3   OH2 6353   1.776   0.174   2.787 -0.0646  0.2492 -0.2675
 2116TIP3    H1 6354   1.738   0.192   2.700 -0.5586 -0.8342 -0.3010
 2116TIP3    H2 6355   1.850   0.117   2.769 -0.4823 -0.4038  0.0538
 2117TIP3   OH2 6356   6.001   2.249   4.566  0.0047 -0.5796 -0.3584
 2117TIP3    H1 6357   6.076   2.270   4.621  0.5247 -0.1309 -1.2081
 2117TIP3    H2 6358   6.000   2.154   4.562  0.2716 -0.6024 -0.0011
 2118TIP3   OH2 6359   1.011   5.260   2.941  0.4921 -0.5471 -0.0550
 2118TIP3    H1 6360   0.999   5.213   2.859 -1.2423 -2.2787  1.1053
 2118TIP3    H2 6361   1.021   5.191   3.007  0.4694  0.7650  1.3748
 2119TIP3   OH2 6362   0.214   1.230   1.395 -0.2974 -0.0551 -0.3419
 2119TIP3    H1 6363   0.270   1.264   1.325 -0.1987  0.9052  0.1830
 2119TIP3    H2 6364   0.273   1.179   1.451  0.1932  1.3714  0.4907
 2120TIP3   OH2 6365   5.412   3.361   2.472 -0.0036 -0.0494  0.0237
 2120TIP3    H1 6366   5.373   3.408   2.546  1.3820  0.7152  0.3081
 2120TIP3    H2 6367   5.371   3.399   2.395 -0.9850 -0.3954  0.3709
 2121TIP3   OH2 6368   1.580   1.436   2.535 -0.2941  0.5006 -0.3618
 2121TIP3    H1 6369   1.611   1.526   2.529  0.9866  0.0333 -1.2506
 2121TIP3    H2 6370   1.608   1.406   2.621 -2.8735  1.6612  0.9820
 2122TIP3   OH2 6371   3.132   3.693   2.332 -0.1782 -0.4099 -0.2318
 2122TIP3    H1 6372   3.220   3.685   2.370 -0.7876  0.6795  1.5629
 2122TIP3    H2 6373   3.130   3.781   2.295 -0.5049 -0.4399 -0.2851
 2123TIP3   OH2 6374   4.421   5.430   1.499 -0.1010 -0.1828  0.1547
 2123TIP3    H1 6375   4.398   5.514   1.539 -1.1758 -0.4934  0.2351
 2123TIP3    H2 6376   4.412   5.367   1.571  1.5005 -0.2805  0.3031
 2124TIP3   OH2 6377   3.635   4.071   2.395  0.2712 -0.4607  0.1610
 2124TIP3    H1 6378   3.694   4.128   2.347  0.0730 -0.8117 -0.5268
 2124TIP3    H2 6379   3.575   4.038   2.328 -1.4577  0.7996  1.0094
 2125TIP3   OH2 6380   5.610   1.152   5.027 -0.1512  0.1497  0.2841
 2125TIP3    H1 6381   5.529   1.126   4.983 -0.3678  2.5178 -0.8626
 2125TIP3    H2 6382   5.679   1.120   4.968 -0.4206  2.1654 -1.2589
 2126TIP3   OH2 6383   5.361   4.250   2.187 -0.0611  0.3665 -0.2655
 2126TIP3    H1 6384   5.396   4.285   2.105 -0.0484 -0.2245 -0.5161
 2126TIP3    H2 6385   5.266   4.255   2.177 -0.0637  1.4230  0.1785
 2127TIP3   OH2 6386   1.265   4.835   3.607 -0.0498  0.1135 -0.3701
 2127TIP3    H1 6387   1.275   4.884   3.525 -1.8929  0.1165 -0.6473
 2127TIP3    H2 6388   1.238   4.748   3.579 -1.7607  0.4101  0.2007
 2128TIP3   OH2 6389   2.534   2.965   0.151 -0.1891 -0.3752  0.0249
 2128TIP3    H1 6390   2.448   3.001   0.130 -0.5597 -0.0500  1.9311
 2128TIP3    H2 6391   2.517   2.901   0.219  0.6836 -2.9469 -2.0076
 2129TIP3   OH2 6392   6.313   4.528   0.383 -0.0976 -0.0961  0.3713
 2129TIP3    H1 6393   6.280   4.470   0.314 -1.9780  0.8317  0.4261
 2129TIP3    H2 6394   6.258   4.509   0.459  3.2598 -2.6100  2.4347
 2130TIP3   OH2 6395   2.778   5.596   4.713  1.0910 -0.3679 -0.1701
 2130TIP3    H1 6396   2.814   5.616   4.626  1.5023 -0.0653  0.0653
 2130TIP3    H2 6397   2.829   5.521   4.744  2.3998  0.8343  0.6858
 2131TIP3   OH2 6398   3.059   0.158   3.180 -0.0409  0.2191 -0.2247
 2131TIP3    H1 6399   3.034   0.098   3.109  1.5234  0.1534 -0.7410
 2131TIP3    H2 6400   2.981   0.213   3.192 -0.4114  0.1126 -1.8606
 2132TIP3   OH2 6401   2.838   4.606   3.203 -0.1194  0.4638 -0.2115
 2132TIP3    H1 6402   2.914   4.552   3.224 -0.1800  0.7550  0.7812
 2132TIP3    H2 6403   2.774   4.545   3.165  0.7822  0.3065 -1.5351
 2133TIP3   OH2 6404   5.263   3.858   4.547  0.0992  0.2686 -0.1807
 2133TIP3    H1 6405   5.326   3.852   4.619 -0.1207 -2.8851 -0.1283
 2133TIP3    H2 6406   5.212   3.937   4.566  2.1037  1.2777  1.3560
 2134TIP3   OH2 6407   4.177   5.623   1.882  0.4748  0.0335  0.0953
 2134TIP3    H1 6408   4.187   5.535   1.845  1.8904  0.4603 -0.5945
 2134TIP3    H2 6409   4.187   5.610   1.977 -2.1049 -0.9079  0.3288
 2135TIP3   OH2 6410   1.414   1.576   4.823  0.5096 -0.4156 -0.5479
 2135TIP3    H1 6411   1.424   1.670   4.831  2.0297 -0.5646 -0.4720
 2135TIP3    H2 6412   1.352   1.564   4.751 -0.9162  0.6340  0.4378
 2136TIP3   OH2 6413   4.027   0.363   5.078 -0.2411 -0.0727 -0.5860
 2136TIP3    H1 6414   4.087   0.357   5.004  1.1618 -0.4677  0.5389
 2136TIP3    H2 6415   4.083   0.384   5.152 -1.4892 -0.5990  0.5423
 2137TIP3   OH2 6416   0.513   0.768   4.973  0.0230  0.1964  0.2904
 2137TIP3    H1 6417   0.444   0.705   4.991  0.8802 -0.7955  0.2194
 2137TIP3    H2 6418   0.552   0.737   4.891 -0.3780  1.5720 -0.4464
 2138TIP3   OH2 6419   3.794   2.015   2.351 -0.2683 -0.2345 -0.5565
 2138TIP3    H1 6420   3.700   1.998   2.340 -0.0581 -1.1379 -1.0004
 2138TIP3    H2 6421   3.827   1.938   2.397  0.5025 -0.5911 -1.6632
 2139TIP3   OH2 6422   2.621   4.896   2.949  0.2820 -0.2569  0.2983
 2139TIP3    H1 6423   2.586   4.809   2.967  0.0799 -0.1927  0.2183
 2139TIP3    H2 6424   2.650   4.892   2.858 -1.0797  0.2015 -0.1700
 2140TIP3   OH2 6425   1.027   2.069   4.779  0.3567  0.1365  0.5015
 2140TIP3    H1 6426   1.016   2.110   4.693  0.3368 -1.5018 -0.3268
 2140TIP3    H2 6427   1.115   2.092   4.806  0.9486 -0.6056 -0.7045
 2141TIP3   OH2 6428   5.487   1.733   3.223  0.3165  0.6318  0.3079
 2141TIP3    H1 6429   5.425   1.665   3.197 -0.3073  1.6778 -1.1258
 2141TIP3    H2 6430   5.543   1.692   3.289 -2.3141 -0.1628  2.1978
 2142TIP3   OH2 6431   2.909   4.547   1.223  0.3125 -0.4715 -0.1383
 2142TIP3    H1 6432   2.923   4.475   1.284 -1.1582  0.8336  1.9037
 2142TIP3    H2 6433   2.902   4.624   1.279  1.5813  1.2687 -2.2098
 2143TIP3   OH2 6434   1.675   3.896   4.732 -0.1382 -0.0967 -0.0541
 2143TIP3    H1 6435   1.617   3.832   4.689 -0.8803  1.8444 -2.1984
 2143TIP3    H2 6436   1.659   3.977   4.684  4.7929  0.4917 -1.1428
 2144TIP3   OH2 6437   0.366   0.402   3.307 -0.3329 -0.3503 -0.8178
 2144TIP3    H1 6438   0.436   0.409   3.241 -0.5239  0.3758 -0.9449
 2144TIP3    H2 6439   0.413   0.395   3.390 -0.0716  2.7258 -0.6221
 2145TIP3   OH2 6440   1.672   5.018   3.553  0.0552  0.4075 -0.0320
 2145TIP3    H1 6441   1.767   5.004   3.564 -0.0650 -0.3774  0.0537
 2145TIP3    H2 6442   1.652   4.980   3.468 -0.2065  0.4538  0.0099
 2146TIP3   OH2 6443   0.213   4.032   3.533  0.3755 -0.5410  0.1847
 2146TIP3    H1 6444   0.222   4.064   3.623 -1.9662  1.6746 -0.2503
 2146TIP3    H2 6445   0.255   4.099   3.479 -0.7883 -0.3637 -0.5221
 2147TIP3   OH2 6446   1.958   4.495   2.218 -0.8097 -0.1263 -0.2670
 2147TIP3    H1 6447   1.890   4.561   2.207 -0.0754  0.8421  0.7046
 2147TIP3    H2 6448   1.999   4.488   2.132 -1.0593  0.5214 -0.4477
 2148TIP3   OH2 6449   5.445   4.797   1.104  0.0305  0.6480 -0.5143
 2148TIP3    H1 6450   5.514   4.837   1.157  0.6977 -0.2313 -0.7007
 2148TIP3    H2 6451   5.490   4.730   1.052 -1.3904 -2.1042  1.5693
 2149TIP3   OH2 6452   4.135   3.788   4.701 -0.0598 -0.1836 -0.0322
 2149TIP3    H1 6453   4.057   3.749   4.662 -1.4524  1.0614  1.3592
 2149TIP3    H2 6454   4.149   3.739   4.782  0.2107  0.0192  0.0466
 2150TIP3   OH2 6455   0.021   5.664   2.236  0.7414  0.2342 -0.3978
 2150TIP3    H1 6456   0.076   5.588   2.220 -0.9863 -1.1180 -0.3064
 2150TIP3    H2 6457  -0.034   5.672   2.158  0.1000  0.6459  0.0745
 2151TIP3   OH2 6458   2.739   4.199   3.404  0.2155 -0.2800  0.0995
 2151TIP3    H1 6459   2.817   4.243   3.372 -0.9723  1.6364 -0.3402
 2151TIP3    H2 6460   2.752   4.191   3.498  1.4472 -1.1374 -0.1151
 2152TIP3   OH2 6461   0.642   3.087   2.436 -0.4155 -0.6968  0.3236
 2152TIP3    H1 6462   0.679   3.162   2.388 -0.8171 -0.6380  0.1003
 2152TIP3    H2 6463   0.627   3.121   2.525 -0.9437 -0.3948  0.1256
 2153TIP3   OH2 6464   5.608   5.540   1.237 -0.3539  0.2835  0.3090
 2153TIP3    H1 6465   5.621   5.465   1.179  1.1055  0.2575  0.6337
 2153TIP3    H2 6466   5.662   5.609   1.199  0.7006  0.2335  1.6556
 2154TIP3   OH2 6467   2.604   0.819   1.521 -0.5831  0.2470  0.2368
 2154TIP3    H1 6468   2.534   0.761   1.494 -0.1827  0.5390 -1.5486
 2154TIP3    H2 6469   2.680   0.762   1.535 -0.6993  0.1374  0.4292
 2155TIP3   OH2 6470   1.446   0.851   4.939 -0.0160  0.1925  0.4447
 2155TIP3    H1 6471   1.533   0.834   4.974  0.4081 -1.2963 -1.1758
 2155TIP3    H2 6472   1.391   0.781   4.975 -0.9340  1.9325  2.5993
 2156TIP3   OH2 6473   1.820   4.563   1.692 -0.3182 -0.0805  0.2187
 2156TIP3    H1 6474   1.774   4.602   1.619 -0.7733 -0.4227  0.3197
 2156TIP3    H2 6475   1.800   4.619   1.767  2.2506  1.8311 -0.3670
 2157TIP3   OH2 6476   3.768   0.735   3.114  0.0850  0.6268 -0.2702
 2157TIP3    H1 6477   3.780   0.793   3.039 -1.6660 -1.5123 -2.3731
 2157TIP3    H2 6478   3.698   0.776   3.165 -1.2492  0.4016 -1.8145
 2158TIP3   OH2 6479   5.290   3.631   1.857  0.4086 -0.0820 -0.2888
 2158TIP3    H1 6480   5.250   3.616   1.943  0.4440 -0.0621 -0.2693
 2158TIP3    H2 6481   5.216   3.631   1.796 -0.2568  4.3192  0.1916
 2159TIP3   OH2 6482   0.323   3.282   4.328  0.2317 -0.1454 -0.0440
 2159TIP3    H1 6483   0.395   3.239   4.282 -0.4141 -1.6573  0.2939
 2159TIP3    H2 6484   0.349   3.280   4.420 -0.4030 -1.0712  0.1273
 2160TIP3   OH2 6485   1.846   1.996   4.980  0.3257 -0.1092  0.1397
 2160TIP3    H1 6486   1.799   1.917   4.956  0.3428 -0.4307  1.1147
 2160TIP3    H2 6487   1.794   2.068   4.944 -0.5067 -0.4984  0.5494
 2161TIP3   OH2 6488   5.016   0.378   1.551  0.3547 -0.5739 -0.3801
 2161TIP3    H1 6489   5.001   0.465   1.587 -1.2523 -0.3364 -1.5235
 2161TIP3    H2 6490   4.942   0.362   1.493  0.5480 -2.7579 -0.1323
 2162TIP3   OH2 6491   6.040   4.821   4.899  0.5500 -0.5530  0.3911
 2162TIP3    H1 6492   6.082   4.860   4.822 -1.6232  0.0541 -0.5614
 2162TIP3    H2 6493   6.079   4.734   4.906 -0.1831 -1.1862 -2.2930
 2163TIP3   OH2 6494   4.415   4.268   4.988  0.6931  0.0965 -0.3605
 2163TIP3    H1 6495   4.398   4.176   5.007 -0.0173 -0.1380 -1.9275
 2163TIP3    H2 6496   4.408   4.274   4.893  0.4079  1.8400 -0.2611
 2164TIP3   OH2 6497   4.520   1.014   0.845 -0.4461  0.5060  0.4388
 2164TIP3    H1 6498   4.453   0.946   0.832 -0.2699  0.7241 -2.0615
 2164TIP3    H2 6499   4.472   1.097   0.836  0.0844  0.6616 -1.3367
 2165TIP3   OH2 6500   6.189   2.824   2.862 -0.0895  0.2422 -0.3998
 2165TIP3    H1 6501   6.206   2.915   2.882  0.4190  0.1235 -0.2789
 2165TIP3    H2 6502   6.215   2.776   2.941 -1.4629  0.0876 -0.0166
 2166TIP3   OH2 6503   1.861   2.964   4.758 -0.3811 -0.0844 -0.2582
 2166TIP3    H1 6504   1.861   2.959   4.854 -0.8614  0.3955 -0.2308
 2166TIP3    H2 6505   1.947   3.000   4.735  0.4046 -1.7549 -0.1048
 2167TIP3   OH2 6506   3.185   0.338   2.974 -0.4382 -0.4704 -0.1363
 2167TIP3    H1 6507   3.270   0.301   2.950 -0.9219 -0.9590 -1.1944
 2167TIP3    H2 6508   3.147   0.366   2.890 -1.2178 -0.0300  0.3487
 2168TIP3   OH2 6509   6.262   0.919   3.934 -0.3653 -0.3101  0.2073
 2168TIP3    H1 6510   6.336   0.918   3.994 -0.5267  0.1226  0.4161
 2168TIP3    H2 6511   6.210   0.995   3.961 -1.2630 -1.0126  0.5254
 2169TIP3   OH2 6512   2.233   5.148   1.081  0.1059  0.2819  0.3548
 2169TIP3    H1 6513   2.178   5.074   1.108  1.1627 -0.6295  0.0984
 2169TIP3    H2 6514   2.247   5.198   1.162  0.5298 -0.5835  0.8280
 2170TIP3   OH2 6515   1.563   0.598   5.166 -0.0576 -0.1764 -0.0467
 2170TIP3    H1 6516   1.585   0.683   5.128  1.8005 -0.2267  0.7741
 2170TIP3    H2 6517   1.564   0.613   5.261  1.9056 -1.3943  0.1885
 2171TIP3   OH2 6518   1.065   0.839   3.215  0.3992 -0.1608  0.1232
 2171TIP3    H1 6519   1.036   0.752   3.243 -0.9172  0.2377  0.0577
 2171TIP3    H2 6520   1.060   0.893   3.295 -0.9950  0.3848 -0.3014
 2172TIP3   OH2 6521   4.743   2.228   2.473  0.3562  0.0892  0.1535
 2172TIP3    H1 6522   4.742   2.231   2.569 -1.8574  1.7234  0.1543
 2172TIP3    H2 6523   4.658   2.264   2.447  1.0404  0.0104 -2.4442
 2173TIP3   OH2 6524   1.885   3.303   2.340 -0.5406  0.6429 -0.2415
 2173TIP3    H1 6525   1.885   3.396   2.363 -1.8240  0.6663 -0.2190
 2173TIP3    H2 6526   1.798   3.288   2.302 -0.1340 -0.4175 -0.7925
 2174TIP3   OH2 6527   3.968   1.622   0.315 -0.6716 -0.4617 -0.3440
 2174TIP3    H1 6528   3.966   1.713   0.287 -0.7314 -0.2463  0.3526
 2174TIP3    H2 6529   4.011   1.576   0.242  0.6138  0.3330 -0.1197
 2175TIP3   OH2 6530   1.586   3.332   0.669  0.3155 -0.1917  0.0594
 2175TIP3    H1 6531   1.658   3.396   0.668  0.4619 -0.3546 -0.3603
 2175TIP3    H2 6532   1.604   3.278   0.746  1.2289 -0.8679 -0.6008
 2176TIP3   OH2 6533   0.089   5.713   1.554  0.4723  0.1535  0.3423
 2176TIP3    H1 6534   0.036   5.754   1.622  0.0967 -1.0848  0.8066
 2176TIP3    H2 6535   0.173   5.696   1.596  0.9093  1.1625 -0.0905
 2177TIP3   OH2 6536   2.581   3.941   4.167 -0.1211 -0.1325 -0.4771
 2177TIP3    H1 6537   2.531   4.021   4.147 -0.0650 -0.3890 -1.7444
 2177TIP3    H2 6538   2.568   3.927   4.261 -0.2174  1.3097 -0.2513
 2178TIP3   OH2 6539   1.820   5.716   0.721  0.1757  0.2537 -0.5847
 2178TIP3    H1 6540   1.832   5.781   0.651  0.5591 -1.2433 -1.9946
 2178TIP3    H2 6541   1.755   5.655   0.685  1.2254 -1.1799 -0.1384
 2179TIP3   OH2 6542   4.310   3.706   3.316 -0.6349  0.0368 -0.0663
 2179TIP3    H1 6543   4.228   3.698   3.268 -0.8340 -1.7450  0.4825
 2179TIP3    H2 6544   4.287   3.750   3.398 -1.0664 -0.5053  0.1076
 2180TIP3   OH2 6545   2.161   3.302   3.294 -0.1310 -0.2382  0.0631
 2180TIP3    H1 6546   2.154   3.251   3.214  0.2839  0.1921 -0.2462
 2180TIP3    H2 6547   2.194   3.387   3.267  2.6664 -0.9208  0.9903
 2181TIP3   OH2 6548   0.571   0.227   1.856  0.6223  0.2889  0.1003
 2181TIP3    H1 6549   0.573   0.176   1.937 -0.1350  1.2630  0.7637
 2181TIP3    H2 6550   0.632   0.299   1.872  3.1110 -1.3329 -1.5234
 2182TIP3   OH2 6551   2.177   1.932   2.911 -0.4478 -0.5448  0.0151
 2182TIP3    H1 6552   2.101   1.934   2.969 -0.5160  1.9675 -0.0607
 2182TIP3    H2 6553   2.201   1.839   2.907 -1.4728 -1.0245  2.6663
 2183TIP3   OH2 6554   5.973   4.969   1.567  0.3742  0.3744  1.0168
 2183TIP3    H1 6555   5.887   4.927   1.563  0.3923  0.3956  0.1676
 2183TIP3    H2 6556   5.970   5.022   1.647 -0.6180  0.8484  0.6842
 2184TIP3   OH2 6557   3.050   1.406   4.444  0.5980  0.2669 -0.0629
 2184TIP3    H1 6558   3.071   1.494   4.412  1.6747 -0.7183 -2.2744
 2184TIP3    H2 6559   3.090   1.402   4.531 -0.0247  2.1252  0.3713
 2185TIP3   OH2 6560   5.802   5.042   4.166 -0.2696 -0.1420  0.6123
 2185TIP3    H1 6561   5.771   5.093   4.092  0.2067 -0.9112 -0.1321
 2185TIP3    H2 6562   5.882   5.086   4.194  1.4178 -1.7097 -1.4734
 2186TIP3   OH2 6563   3.293   1.915   4.491 -0.1702  0.3976 -0.5823
 2186TIP3    H1 6564   3.299   1.884   4.581  1.4654 -1.0970 -1.1469
 2186TIP3    H2 6565   3.298   2.010   4.498 -1.9505  0.4498  0.9887
 2187TIP3   OH2 6566   3.786   1.894   3.561  0.0336 -0.3287  0.3730
 2187TIP3    H1 6567   3.812   1.944   3.484 -1.6355  0.9612  0.5898
 2187TIP3    H2 6568   3.869   1.863   3.599  0.9591  0.1726 -1.1505
 2188TIP3   OH2 6569   5.877   4.445   4.934 -0.0881  0.3660  0.0295
 2188TIP3    H1 6570   5.898   4.526   4.886 -2.1980  1.0422  0.1433
 2188TIP3    H2 6571   5.799   4.411   4.890  0.8984 -1.7915 -0.1756
 2189TIP3   OH2 6572   3.410   4.050   4.851 -0.2077 -0.1684 -0.0849
 2189TIP3    H1 6573   3.359   4.129   4.830  0.2548  0.1611  0.0139
 2189TIP3    H2 6574   3.500   4.081   4.859  0.0712 -0.8089 -0.6206
 2190TIP3   OH2 6575   0.044   3.857   1.422  0.0303  0.0085  0.1278
 2190TIP3    H1 6576   0.118   3.829   1.477  0.1420  0.9953  0.4947
 2190TIP3    H2 6577  -0.028   3.801   1.450  0.1213  0.3975  1.1986
 2191TIP3   OH2 6578   3.321   2.516   4.148  0.6076 -0.5579  0.0300
 2191TIP3    H1 6579   3.405   2.525   4.193 -0.8026 -0.9733  3.0186
 2191TIP3    H2 6580   3.257   2.551   4.210 -1.7646 -3.3002 -0.6419
 2192TIP3   OH2 6581   3.587   0.101   4.061 -0.8027  0.2558  0.3442
 2192TIP3    H1 6582   3.655   0.154   4.019 -1.5266  0.3171 -0.7916
 2192TIP3    H2 6583   3.598   0.118   4.155  2.2356 -1.4936  0.4536
 2193TIP3   OH2 6584   3.211   3.676   3.408 -0.2566  0.1211 -0.0772
 2193TIP3    H1 6585   3.127   3.696   3.366  0.9154  0.2570 -2.4473
 2193TIP3    H2 6586   3.214   3.580   3.410 -0.9979  0.0952  1.2234
 2194TIP3   OH2 6587   5.296   1.310   0.873 -0.1901  0.5117 -0.0198
 2194TIP3    H1 6588   5.342   1.337   0.794  0.5781  1.2592  0.6665
 2194TIP3    H2 6589   5.314   1.379   0.937 -0.1373 -0.4534  1.0533
 2195TIP3   OH2 6590   5.401   2.861   3.319 -0.9296 -0.2750 -0.1303
 2195TIP3    H1 6591   5.479   2.805   3.324 -0.5436  0.1963 -0.7329
 2195TIP3    H2 6592   5.401   2.910   3.401 -0.0268  0.4418 -0.5394
 2196TIP3   OH2 6593   0.301   3.372   0.869 -0.3206 -0.1202  0.4420
 2196TIP3    H1 6594   0.305   3.400   0.778 -0.2518  0.5913  0.6593
 2196TIP3    H2 6595   0.263   3.447   0.915 -3.6398 -1.6564  0.4860
 2197TIP3   OH2 6596   3.628   4.191   4.129  0.0310 -0.3278  0.0149
 2197TIP3    H1 6597   3.546   4.166   4.171 -0.0009  0.1914  0.2612
 2197TIP3    H2 6598   3.677   4.109   4.123 -0.2442 -0.5287  0.4487
 2198TIP3   OH2 6599   3.279   3.256   1.611 -0.2645  0.3142 -0.1580
 2198TIP3    H1 6600   3.340   3.325   1.636  0.5849 -1.1784  2.2164
 2198TIP3    H2 6601   3.333   3.192   1.564  0.3518 -1.3927  2.6300
 2199TIP3   OH2 6602   1.949   1.196   0.067 -0.2245  0.0606 -0.2195
 2199TIP3    H1 6603   1.930   1.222   0.157  3.4571 -0.9226  1.0315
 2199TIP3    H2 6604   1.918   1.106   0.061 -0.7098  0.2127  0.0011
 2200TIP3   OH2 6605   0.279   5.150   2.632  0.0665 -0.4920 -0.2272
 2200TIP3    H1 6606   0.290   5.137   2.537  0.1707  2.7625 -0.7878
 2200TIP3    H2 6607   0.340   5.221   2.653 -1.6756  0.5047  1.7914
 2201TIP3   OH2 6608   2.502   1.670   3.243  0.3996  0.2252  0.2308
 2201TIP3    H1 6609   2.514   1.764   3.255  0.5121  0.1929  0.3889
 2201TIP3    H2 6610   2.560   1.647   3.170  0.6281  0.2228  0.4098
 2202TIP3   OH2 6611   1.715   4.839   2.679 -0.0802 -0.3922 -0.4256
 2202TIP3    H1 6612   1.809   4.837   2.658 -0.1700  1.1461 -1.0937
 2202TIP3    H2 6613   1.672   4.838   2.594 -0.6902 -1.0775 -0.1191
 2203TIP3   OH2 6614   3.934   0.091   5.092  0.4335  0.1730 -0.2110
 2203TIP3    H1 6615   3.941   0.185   5.106  3.2551  0.0151 -0.1283
 2203TIP3    H2 6616   3.932   0.081   4.997  2.0055  0.2608 -0.2730
 2204TIP3   OH2 6617   4.907   3.816   1.451 -0.2399 -0.3484  0.5538
 2204TIP3    H1 6618   4.842   3.746   1.454  0.1727 -0.7383  0.4603
 2204TIP3    H2 6619   4.947   3.808   1.364 -0.3838  0.1817  0.4322
 2205TIP3   OH2 6620   2.967   0.500   1.780 -0.2860 -0.3150 -0.2988
 2205TIP3    H1 6621   3.035   0.538   1.835 -0.3145  0.5697 -0.8429
 2205TIP3    H2 6622   2.997   0.411   1.762  1.1263  0.2972 -1.1451
 2206TIP3   OH2 6623   4.834   0.076   4.642  0.3325  0.2916  0.0008
 2206TIP3    H1 6624   4.909   0.129   4.613  2.1083 -2.9059 -1.7899
 2206TIP3    H2 6625   4.874  -0.005   4.675 -2.2787 -0.5661  1.3065
 2207TIP3   OH2 6626   1.463   5.456   3.616 -0.0674 -0.0523  0.0955
 2207TIP3    H1 6627   1.421   5.383   3.662  1.2089  0.2277  1.7867
 2207TIP3    H2 6628   1.476   5.424   3.527  0.8405 -2.0622  0.9045
 2208TIP3   OH2 6629   2.654   5.376   3.620  0.0206  0.1577 -0.1734
 2208TIP3    H1 6630   2.596   5.382   3.543 -0.4681 -0.4906  0.1297
 2208TIP3    H2 6631   2.617   5.437   3.683  1.6776  2.3528 -1.2032
 2209TIP3   OH2 6632   6.127   0.360   1.182  0.2313  0.1211  0.6053
 2209TIP3    H1 6633   6.069   0.430   1.214  0.5098  0.3662  0.5701
 2209TIP3    H2 6634   6.155   0.315   1.262  0.7619  0.6052  0.6954
 2210TIP3   OH2 6635   1.785   2.441   4.083  0.4788 -0.1363 -0.3368
 2210TIP3    H1 6636   1.745   2.472   4.164 -0.2468  0.8977 -1.0574
 2210TIP3    H2 6637   1.773   2.513   4.021 -1.9305 -2.0642 -2.3254
 2211TIP3   OH2 6638   3.500   4.206   2.610  0.0732 -0.7024  0.4990
 2211TIP3    H1 6639   3.566   4.174   2.549  3.3216  0.6807  2.9932
 2211TIP3    H2 6640   3.476   4.292   2.577  0.3942 -0.7369  0.1700
 2212TIP3   OH2 6641   3.092   3.687   1.432 -0.2765 -0.3711  0.1289
 2212TIP3    H1 6642   3.062   3.776   1.409 -2.3648 -1.0300  0.0946
 2212TIP3    H2 6643   3.055   3.632   1.363  1.7745 -1.1877 -0.3632
 2213TIP3   OH2 6644   0.002   5.406   4.287  0.3227 -0.3744 -0.1962
 2213TIP3    H1 6645   0.093   5.387   4.310  0.7339  2.2704  0.7505
 2213TIP3    H2 6646  -0.006   5.501   4.297 -3.0043 -0.6605  1.5526
 2214TIP3   OH2 6647   1.100   3.427   4.872  0.2930  0.0675  0.1511
 2214TIP3    H1 6648   1.090   3.522   4.876  0.6431  0.0720  1.2478
 2214TIP3    H2 6649   1.033   3.399   4.810 -0.9763  0.8697  1.1096
 2215TIP3   OH2 6650   1.525   3.045   4.497 -0.1833 -0.7668  0.3775
 2215TIP3    H1 6651   1.510   2.956   4.467 -1.5736 -0.9780  1.5996
 2215TIP3    H2 6652   1.480   3.100   4.433  0.3701 -0.9510 -0.1780
 2216TIP3   OH2 6653   0.556   3.167   0.623  0.1295  0.5236  0.1060
 2216TIP3    H1 6654   0.632   3.109   0.621  0.0419  0.4326 -0.8411
 2216TIP3    H2 6655   0.505   3.137   0.699 -0.3682 -1.2264 -0.8710
 2217TIP3   OH2 6656   0.834   0.420   1.341  0.4603  0.2855 -0.7249
 2217TIP3    H1 6657   0.891   0.401   1.266  0.2973  0.8943 -1.0066
 2217TIP3    H2 6658   0.774   0.487   1.310  0.3517  0.5050 -0.0626
 2218TIP3   OH2 6659   0.161   0.956   3.643 -0.2034  0.7686  0.8120
 2218TIP3    H1 6660   0.123   0.873   3.672  0.1717  0.4645  0.4480
 2218TIP3    H2 6661   0.248   0.958   3.684  0.2477  0.4328 -0.0890
 2219TIP3   OH2 6662   0.123   5.014   3.996 -0.2665 -0.6111 -0.5408
 2219TIP3    H1 6663   0.144   4.972   3.912  1.2451  1.1157 -1.0926
 2219TIP3    H2 6664   0.184   5.088   4.001  0.1908 -1.0756  2.4310
 2220TIP3   OH2 6665   1.238   3.727   4.335  0.6066  0.2749 -0.4461
 2220TIP3    H1 6666   1.292   3.806   4.333  1.5329 -0.3549 -1.1466
 2220TIP3    H2 6667   1.300   3.657   4.357 -0.0126 -0.4004 -0.8314
 2221TIP3   OH2 6668   0.551   0.394   2.696  0.2679  0.0934  0.0750
 2221TIP3    H1 6669   0.543   0.307   2.734  1.8639 -0.4018 -0.6377
 2221TIP3    H2 6670   0.625   0.434   2.742 -0.4207  1.0843  0.3716
 2222TIP3   OH2 6671   0.017   3.214   3.329  0.0289 -0.5403  0.7036
 2222TIP3    H1 6672   0.070   3.155   3.382 -0.6792 -0.2502  1.7505
 2222TIP3    H2 6673  -0.071   3.207   3.365  0.1140  1.9823  1.6196
 2223TIP3   OH2 6674   1.580   1.572   5.119  0.3217 -0.0629  0.1093
 2223TIP3    H1 6675   1.557   1.625   5.195  0.0331  1.6679 -1.1191
 2223TIP3    H2 6676   1.511   1.505   5.115  0.1998 -0.0288  1.2055
 2224TIP3   OH2 6677   2.885   3.053   1.649  0.2890 -0.6481  0.0582
 2224TIP3    H1 6678   2.852   2.965   1.631  0.8906 -0.9746  0.5306
 2224TIP3    H2 6679   2.869   3.066   1.743  3.1434 -1.5656  0.7878
 2225TIP3   OH2 6680   1.065   4.477   0.064 -0.6955 -0.4761  0.9977
 2225TIP3    H1 6681   1.156   4.455   0.043 -0.7082  0.2187  0.1591
 2225TIP3    H2 6682   1.013   4.425   0.002 -0.7567  1.1217 -0.3625
 2226TIP3   OH2 6683   4.076   4.886   4.761 -0.2268  0.3537  0.3752
 2226TIP3    H1 6684   4.132   4.857   4.689  0.0797 -0.3277  0.8810
 2226TIP3    H2 6685   4.136   4.921   4.826 -0.4537  0.4186  0.5502
 2227TIP3   OH2 6686   0.267   4.495   2.754  0.5619  0.0552  0.2236
 2227TIP3    H1 6687   0.198   4.541   2.707 -0.5109 -1.2533  0.4512
 2227TIP3    H2 6688   0.259   4.404   2.725  0.5705 -0.5912  2.0992
 2228TIP3   OH2 6689   3.057   3.817   4.067 -0.1648 -0.4129 -0.1627
 2228TIP3    H1 6690   3.121   3.882   4.097 -1.3995  1.3298 -1.1725
 2228TIP3    H2 6691   2.979   3.833   4.121 -1.1746  0.3341 -1.7920
 2229TIP3   OH2 6692   0.992   4.707   0.768 -0.8488  0.0016  0.0480
 2229TIP3    H1 6693   1.052   4.782   0.769  0.0122 -0.6763  0.8944
 2229TIP3    H2 6694   0.909   4.743   0.736 -0.2276  1.1376 -0.3337
 2230TIP3   OH2 6695   0.165   1.453   4.326 -0.2371 -0.4009 -0.3088
 2230TIP3    H1 6696   0.072   1.452   4.306 -0.3167 -2.7397 -0.1018
 2230TIP3    H2 6697   0.204   1.505   4.256 -1.6698  0.5948 -0.4079
 2231TIP3   OH2 6698   4.990   1.848   0.331  0.4084  0.3846 -0.3781
 2231TIP3    H1 6699   4.963   1.776   0.387  1.6773 -0.6671 -1.0367
 2231TIP3    H2 6700   4.948   1.829   0.247 -0.1154  1.0056 -0.2552
 2232TIP3   OH2 6701   4.406   2.822   2.661  0.0057  0.3938 -0.2155
 2232TIP3    H1 6702   4.370   2.745   2.703  1.4809 -0.5448 -0.5949
 2232TIP3    H2 6703   4.459   2.788   2.588  1.4885  1.6635  0.1985
 2233TIP3   OH2 6704   4.196   5.008   1.873 -0.6902 -0.0145  0.0181
 2233TIP3    H1 6705   4.119   4.994   1.928 -0.7053  2.4084  0.7522
 2233TIP3    H2 6706   4.268   4.965   1.919 -1.2120 -0.3868  0.4846
 2234TIP3   OH2 6707   2.790   1.020   2.900  0.2046  0.2391 -0.1149
 2234TIP3    H1 6708   2.813   1.022   2.993  1.4199  2.4696 -0.3752
 2234TIP3    H2 6709   2.843   1.090   2.861 -2.3001  1.2334 -2.0178
 2235TIP3   OH2 6710   2.076   3.503   3.471 -0.2030 -0.3146  0.5569
 2235TIP3    H1 6711   2.074   3.444   3.395 -2.4028 -0.6542  0.8213
 2235TIP3    H2 6712   2.137   3.462   3.532  2.8710  0.7535 -1.5481
 2236TIP3   OH2 6713   4.608   5.631   1.397 -0.0509  0.7766  0.0920
 2236TIP3    H1 6714   4.549   5.562   1.369 -0.0647  0.7316  0.2319
 2236TIP3    H2 6715   4.568   5.667   1.476  0.3699  0.3985  0.4841
 2237TIP3   OH2 6716   3.893   4.835   1.178  0.1822 -0.1341 -0.3559
 2237TIP3    H1 6717   3.805   4.874   1.185 -0.5964 -1.3430 -2.4001
 2237TIP3    H2 6718   3.921   4.823   1.269 -2.4896 -1.2462  0.4247
 2238TIP3   OH2 6719   5.456   5.178   4.118 -0.7235 -0.1762  0.0498
 2238TIP3    H1 6720   5.391   5.247   4.104  0.0835  0.4378 -0.7770
 2238TIP3    H2 6721   5.473   5.179   4.212  0.3770  1.7772 -0.1258
 2239TIP3   OH2 6722   4.649   4.671   3.103  0.5940 -0.3320 -0.0449
 2239TIP3    H1 6723   4.578   4.674   3.039  0.4081 -1.0728  0.1182
 2239TIP3    H2 6724   4.627   4.598   3.161  1.2919 -0.3305  0.2380
 2240TIP3   OH2 6725   5.758   3.037   3.223  0.1756 -0.6073 -0.3141
 2240TIP3    H1 6726   5.702   3.084   3.285  0.3861 -0.0800 -0.5196
 2240TIP3    H2 6727   5.845   3.075   3.235  0.3509 -0.9439 -0.4869
 2241TIP3   OH2 6728   4.586   3.580   4.796  0.1314  0.0418 -0.2810
 2241TIP3    H1 6729   4.498   3.559   4.767  1.0946 -1.8236 -2.1322
 2241TIP3    H2 6730   4.608   3.661   4.749 -0.4421  0.3080 -0.0989
 2242TIP3   OH2 6731   1.814   2.907   4.452 -0.0418  0.6332  0.2537
 2242TIP3    H1 6732   1.799   2.816   4.425 -0.5780  0.7791  0.0391
 2242TIP3    H2 6733   1.828   2.902   4.546 -1.3230  0.4473  0.4576
 2243TIP3   OH2 6734   1.920   3.940   2.708 -0.1427 -0.6031  0.4554
 2243TIP3    H1 6735   1.874   4.016   2.672  0.4686  0.2069  1.3395
 2243TIP3    H2 6736   2.005   3.940   2.664  0.0369 -0.4955  0.7995
 2244TIP3   OH2 6737   0.113   1.801   4.245  0.3416  0.1069 -0.0294
 2244TIP3    H1 6738   0.076   1.890   4.247  0.3135  0.0824  1.0378
 2244TIP3    H2 6739   0.045   1.748   4.203  0.9799  0.8335 -2.1325
 2245TIP3   OH2 6740   5.059   1.638   4.474 -0.1610 -0.2532 -0.1436
 2245TIP3    H1 6741   4.970   1.605   4.466  0.6044 -2.4992  0.1276
 2245TIP3    H2 6742   5.103   1.579   4.535  1.6892  0.4456 -0.7083
 2246TIP3   OH2 6743   4.153   5.280   1.987  0.3029  0.0902  0.2820
 2246TIP3    H1 6744   4.167   5.193   1.948 -0.3590 -0.5793  1.4777
 2246TIP3    H2 6745   4.223   5.289   2.051  0.5539  0.5783 -0.0604
 2247TIP3   OH2 6746   1.809   1.810   3.946  0.4499  0.2778 -0.6296
 2247TIP3    H1 6747   1.769   1.730   3.914 -0.8391  1.6000 -2.5530
 2247TIP3    H2 6748   1.900   1.806   3.916  0.3563 -0.4066 -0.8214
 2248TIP3   OH2 6749   1.867   5.966   1.396 -0.4586 -0.2195 -0.3191
 2248TIP3    H1 6750   1.844   5.934   1.483 -0.7330  0.0483 -0.2882
 2248TIP3    H2 6751   1.896   6.056   1.410 -1.0597  0.0213 -0.5680
 2249TIP3   OH2 6752   1.423   5.176   2.423 -0.1137 -0.1163  0.0764
 2249TIP3    H1 6753   1.434   5.100   2.367  0.1502  0.0676 -0.1216
 2249TIP3    H2 6754   1.334   5.207   2.404 -0.6737 -1.0582  1.0155
 2250TIP3   OH2 6755   2.211   5.341   4.998  0.3286 -0.6442  0.1096
 2250TIP3    H1 6756   2.226   5.246   4.996  0.2116 -0.6777  0.6676
 2250TIP3    H2 6757   2.167   5.356   5.081  1.1215  0.0100  0.4247
 2251TIP3   OH2 6758   1.685   5.246   3.311  0.3179 -0.0829  0.0108
 2251TIP3    H1 6759   1.647   5.159   3.311 -0.9444  0.3890  2.0941
 2251TIP3    H2 6760   1.774   5.234   3.346  0.3060 -0.5876 -0.1351
 2252TIP3   OH2 6761   5.404   5.611   2.144 -0.2769  0.0222  0.4879
 2252TIP3    H1 6762   5.421   5.657   2.061 -0.5968 -1.9915 -0.7491
 2252TIP3    H2 6763   5.316   5.574   2.133 -0.5811  0.2204  2.0055
 2253TIP3   OH2 6764   3.805   2.236   2.570 -0.3784 -0.4665 -0.3286
 2253TIP3    H1 6765   3.821   2.329   2.556 -1.3294 -0.3315 -0.5902
 2253TIP3    H2 6766   3.753   2.209   2.494  0.0345 -1.2553 -0.3430
 2254TIP3   OH2 6767   4.987   5.085   3.379  0.6228 -0.7216 -0.4469
 2254TIP3    H1 6768   5.056   5.113   3.320 -0.7932  0.2481 -1.7350
 2254TIP3    H2 6769   4.973   4.993   3.359  1.7284 -1.0111  0.0520
 2255TIP3   OH2 6770   3.325   4.290   0.733 -0.3178  0.2558  0.2102
 2255TIP3    H1 6771   3.249   4.315   0.681 -0.0746 -0.0413 -0.2992
 2255TIP3    H2 6772   3.307   4.199   0.758  0.6288 -0.3777 -1.3297
 2256TIP3   OH2 6773   5.963   4.424   1.776  0.0416  0.2796  0.4052
 2256TIP3    H1 6774   5.927   4.381   1.854 -0.6667 -1.7515 -0.9517
 2256TIP3    H2 6775   5.888   4.471   1.739  0.3033  0.9864  0.7473
 2257TIP3   OH2 6776   0.043   5.295   2.687  0.0580  0.2520  0.0855
 2257TIP3    H1 6777   0.046   5.345   2.606 -0.6774  0.4368  0.1652
 2257TIP3    H2 6778   0.121   5.240   2.684  0.3239  0.6512 -0.4884
 2258TIP3   OH2 6779   2.062   2.368   1.731 -0.3593 -0.0093 -0.4190
 2258TIP3    H1 6780   2.112   2.319   1.796  0.1147 -1.4616 -1.7912
 2258TIP3    H2 6781   2.113   2.447   1.715  1.1558 -1.1023 -1.2343
 2259TIP3   OH2 6782   6.220   2.026   2.262  0.0288 -0.2384 -0.2539
 2259TIP3    H1 6783   6.234   2.077   2.182  0.7978  0.0348  0.0472
 2259TIP3    H2 6784   6.190   2.091   2.326 -1.5677 -0.6182 -0.5669
 2260TIP3   OH2 6785   1.000   0.043   1.011 -0.0653 -0.7492  0.0838
 2260TIP3    H1 6786   1.091   0.028   0.987  0.1172 -0.4112  0.5538
 2260TIP3    H2 6787   0.974   0.121   0.962  0.7912  0.9068  2.1281
 2261TIP3   OH2 6788   3.868   0.774   5.104 -0.5055 -0.1651 -0.2828
 2261TIP3    H1 6789   3.827   0.855   5.075  0.6844  0.2184 -0.9522
 2261TIP3    H2 6790   3.891   0.790   5.196  2.1607  1.3289 -1.1061
 2262TIP3   OH2 6791   4.139   0.938   2.873 -0.2250 -0.3060  0.5973
 2262TIP3    H1 6792   4.065   0.961   2.816  0.2092  0.3086  0.2714
 2262TIP3    H2 6793   4.201   0.894   2.815 -1.1811 -2.7203  1.2671
 2263TIP3   OH2 6794   1.363   5.105   0.682 -0.6507  0.1044  0.3996
 2263TIP3    H1 6795   1.386   5.177   0.624  1.3854  0.0469  1.0619
 2263TIP3    H2 6796   1.402   5.129   0.766  2.7217 -2.9989 -0.0283
 2264TIP3   OH2 6797   1.976   0.556   0.514  0.5601  0.1082  0.1573
 2264TIP3    H1 6798   1.964   0.461   0.502  0.9698  0.3110 -2.4311
 2264TIP3    H2 6799   2.058   0.563   0.564  0.7871 -0.9152 -0.0370
 2265TIP3   OH2 6800   2.941   2.042   2.221  0.0007  0.1758  0.1475
 2265TIP3    H1 6801   2.939   2.027   2.126 -0.4914 -3.5007  0.5668
 2265TIP3    H2 6802   3.029   2.014   2.248  0.2105  1.3884  0.7683
 2266TIP3   OH2 6803  -0.031   4.708   4.669  0.3548  0.4586  0.3515
 2266TIP3    H1 6804   0.015   4.624   4.677  0.2693  0.3929  0.1505
 2266TIP3    H2 6805   0.039   4.772   4.655  0.4496  0.4723  0.8719
 2267TIP3   OH2 6806   3.950   2.063   0.463 -0.2835 -0.2267 -0.6229
 2267TIP3    H1 6807   3.972   2.011   0.386 -0.5315 -0.6975 -0.3792
 2267TIP3    H2 6808   3.927   2.149   0.428  3.1359  0.7170 -0.8162
 2268TIP3   OH2 6809   1.933   1.251   4.497  0.0308  0.0627  0.4720
 2268TIP3    H1 6810   1.857   1.204   4.531 -0.5365  3.0150  3.9360
 2268TIP3    H2 6811   1.989   1.264   4.574  2.6654  0.5539 -1.3812
 2269TIP3   OH2 6812   5.461   5.935   2.496 -0.2713  0.0540  0.1511
 2269TIP3    H1 6813   5.511   5.950   2.416  0.3842  2.7024  0.9477
 2269TIP3    H2 6814   5.519   5.880   2.550  0.5269  0.6033 -0.1193
 2270TIP3   OH2 6815   1.340   4.426   4.897 -0.0864 -0.7115 -0.2768
 2270TIP3    H1 6816   1.327   4.520   4.908 -1.3222 -0.7338 -1.2966
 2270TIP3    H2 6817   1.352   4.393   4.986  1.4411  0.5211  0.0252
 2271TIP3   OH2 6818   0.289   2.676   4.207  0.4617  0.2469 -0.0238
 2271TIP3    H1 6819   0.266   2.682   4.114 -0.0894 -0.0600  0.0914
 2271TIP3    H2 6820   0.233   2.608   4.242  0.5740  0.4498  0.5683
 2272TIP3   OH2 6821   1.810   2.024   1.145  0.4161  0.1412  0.4334
 2272TIP3    H1 6822   1.887   2.042   1.199  1.4122  0.0251 -0.8831
 2272TIP3    H2 6823   1.736   2.028   1.206  1.3782  0.9813  1.6031
 2273TIP3   OH2 6824   0.554   2.647   2.673 -0.2891 -0.6279  0.2723
 2273TIP3    H1 6825   0.608   2.678   2.600  0.6019  0.2860  1.2925
 2273TIP3    H2 6826   0.609   2.585   2.720 -1.0215 -1.5612 -0.0660
 2274TIP3   OH2 6827   6.152   2.245   2.396 -0.2104 -0.4164 -0.2984
 2274TIP3    H1 6828   6.164   2.307   2.324  2.1229 -0.0918  0.2927
 2274TIP3    H2 6829   6.134   2.300   2.473 -0.9866 -0.6604 -0.2983
 2275TIP3   OH2 6830   2.975   5.825   4.177  0.1634 -0.6269 -0.1291
 2275TIP3    H1 6831   2.907   5.849   4.114 -1.1557  0.0250  1.4835
 2275TIP3    H2 6832   3.020   5.907   4.195  1.9775 -1.1704 -1.7523
 2276TIP3   OH2 6833   4.735   4.086   3.290 -0.3603  0.9452 -0.4262
 2276TIP3    H1 6834   4.827   4.080   3.263 -0.2016  0.1808  0.2541
 2276TIP3    H2 6835   4.737   4.075   3.385 -1.0836  1.8251 -0.2954
 2277TIP3   OH2 6836   1.484   2.344   2.855  0.4320  0.4729  0.3387
 2277TIP3    H1 6837   1.498   2.368   2.947 -1.2363 -1.1957  1.0961
 2277TIP3    H2 6838   1.389   2.338   2.846  0.6049 -2.8080 -0.5058
 2278TIP3   OH2 6839   0.742   3.040   3.018 -0.4339 -0.2525  0.0053
 2278TIP3    H1 6840   0.792   2.961   3.037 -1.5721 -0.3098  3.3234
 2278TIP3    H2 6841   0.718   3.031   2.926  2.1778 -2.1325 -0.6257
 2279TIP3   OH2 6842   1.992   1.252   3.138 -0.4107 -0.1532  0.0810
 2279TIP3    H1 6843   2.074   1.276   3.181 -0.8437  0.4673  0.5781
 2279TIP3    H2 6844   1.924   1.295   3.190 -0.8890  1.5503 -1.8361
 2280TIP3   OH2 6845   5.655   5.520   2.251 -0.3438  0.7911 -1.0801
 2280TIP3    H1 6846   5.572   5.554   2.218 -1.0507 -0.5605 -0.7702
 2280TIP3    H2 6847   5.632   5.438   2.295  1.1728  0.3187 -1.0947
 2281TIP3   OH2 6848   2.488   5.325   3.982  0.0279  0.3499  0.1499
 2281TIP3    H1 6849   2.402   5.316   4.023  0.2082 -1.2894  0.2210
 2281TIP3    H2 6850   2.476   5.393   3.916 -2.7040 -2.9313 -3.1620
 2282TIP3   OH2 6851   0.746   1.104   3.055  0.3684 -0.0863  0.2636
 2282TIP3    H1 6852   0.724   1.117   3.147  0.4733 -0.5722  0.3603
 2282TIP3    H2 6853   0.682   1.158   3.007  0.6953  0.6331  0.6372
 2283TIP3   OH2 6854   4.985   1.129   5.000 -0.2115 -0.0779  0.2228
 2283TIP3    H1 6855   4.905   1.182   4.997  0.4939  1.0566  0.7361
 2283TIP3    H2 6856   4.964   1.058   5.060 -1.2123 -0.4579 -0.5510
 2284TIP3   OH2 6857   2.807   4.650   0.958 -0.0768  0.2657 -0.1810
 2284TIP3    H1 6858   2.840   4.644   1.048  0.4470  0.3478 -0.3633
 2284TIP3    H2 6859   2.828   4.739   0.931 -2.4779  1.1074  0.4570
 2285TIP3   OH2 6860   0.176   5.592   0.619  0.1782  0.4373 -0.0512
 2285TIP3    H1 6861   0.249   5.600   0.680  0.6349  0.5122 -0.5937
 2285TIP3    H2 6862   0.108   5.547   0.668  0.4663  0.6700  0.5685
 2286TIP3   OH2 6863   3.961   0.049   1.980  0.0013 -0.0278 -0.4241
 2286TIP3    H1 6864   3.975   0.054   1.886 -0.3121 -0.3850 -0.4938
 2286TIP3    H2 6865   3.874   0.009   1.989  0.6032 -1.2793  0.0254
 2287TIP3   OH2 6866   0.831   0.467   0.760 -0.5033  0.1440 -0.0554
 2287TIP3    H1 6867   0.849   0.458   0.667 -2.0684  0.2757 -0.4019
 2287TIP3    H2 6868   0.917   0.466   0.802  0.1626 -1.2749 -1.3734
 2288TIP3   OH2 6869   4.055   4.916   4.226 -0.4194 -0.2452 -0.0858
 2288TIP3    H1 6870   4.084   4.941   4.314  1.1944 -0.4003 -0.5411
 2288TIP3    H2 6871   3.981   4.975   4.208 -0.8654 -0.3064  1.4122
 2289TIP3   OH2 6872   4.100   3.940   3.758  0.1168  0.0886 -0.9788
 2289TIP3    H1 6873   4.009   3.967   3.772 -0.0103 -0.9893  0.5053
 2289TIP3    H2 6874   4.152   4.017   3.784 -0.3063 -0.2664  1.0773
 2290TIP3   OH2 6875   6.335   4.599   1.924 -0.2058  0.4954 -0.1763
 2290TIP3    H1 6876   6.339   4.658   1.999 -1.7879  2.5497 -1.6359
 2290TIP3    H2 6877   6.286   4.523   1.956 -0.6950  1.2519  0.9087
 2291TIP3   OH2 6878   5.337   5.307   5.017  0.0299 -0.1500 -0.1977
 2291TIP3    H1 6879   5.304   5.238   5.074 -1.4463 -0.8999 -1.8558
 2291TIP3    H2 6880   5.389   5.262   4.951 -1.4979  0.1660 -1.6935
 2292TIP3   OH2 6881   3.134   3.726   4.633 -0.2772  0.2254  0.4494
 2292TIP3    H1 6882   3.082   3.672   4.693  1.6571  1.9976  4.0572
 2292TIP3    H2 6883   3.222   3.689   4.636 -0.2536 -0.0399 -1.9687
 2293TIP3   OH2 6884   2.354   2.422   4.703  0.7550 -0.4724 -0.8200
 2293TIP3    H1 6885   2.422   2.383   4.759  1.9478 -0.0522 -1.9209
 2293TIP3    H2 6886   2.279   2.363   4.713  0.5207  0.1415  2.0211
 2294TIP3   OH2 6887   0.770   2.543   0.344  0.0747  0.1238  0.0659
 2294TIP3    H1 6888   0.694   2.489   0.365 -0.1046  0.1476 -0.5077
 2294TIP3    H2 6889   0.799   2.512   0.259  0.6242  0.2156  0.2145
 2295TIP3   OH2 6890   1.262   4.734   4.259  0.4921 -0.3609 -0.5421
 2295TIP3    H1 6891   1.333   4.767   4.314  0.9707  0.1521 -1.4399
 2295TIP3    H2 6892   1.287   4.760   4.170 -0.3784 -0.9654 -0.9758
 2296TIP3   OH2 6893   1.776   3.580   0.599  0.3348 -0.3145 -0.4399
 2296TIP3    H1 6894   1.736   3.660   0.563 -1.8100 -0.1075  2.1376
 2296TIP3    H2 6895   1.860   3.610   0.635 -0.2652  0.7137  0.1522
 2297TIP3   OH2 6896   6.090   4.204   2.498 -0.1162  0.1172  0.5603
 2297TIP3    H1 6897   6.017   4.142   2.496 -1.0524  1.1963  0.4906
 2297TIP3    H2 6898   6.124   4.199   2.587 -1.9009  1.4156  1.3670
 2298TIP3   OH2 6899   1.091   0.644   1.577  0.6071  0.0275  0.3017
 2298TIP3    H1 6900   1.130   0.629   1.490 -0.9695  2.2364 -0.8969
 2298TIP3    H2 6901   1.054   0.559   1.601  2.0298 -0.9224 -0.6476
 2299TIP3   OH2 6902   4.395   5.707   4.288  0.6228  0.2250  0.2914
 2299TIP3    H1 6903   4.428   5.642   4.349 -0.3553 -0.7114 -0.1499
 2299TIP3    H2 6904   4.453   5.702   4.212 -0.1022 -0.9333 -0.2031
 2300TIP3   OH2 6905   5.094   5.410   3.291  0.5380  0.6052  0.1232
 2300TIP3    H1 6906   5.186   5.439   3.294 -0.0903  2.7229  1.0019
 2300TIP3    H2 6907   5.097   5.325   3.248  2.8760  0.8109 -0.2565
 2301TIP3   OH2 6908   3.426   2.241   2.698  0.0870 -0.2804  0.4359
 2301TIP3    H1 6909   3.368   2.215   2.770 -1.4528  0.9879 -0.2680
 2301TIP3    H2 6910   3.493   2.173   2.695  0.0620 -0.4924  2.8989
 2302TIP3   OH2 6911   3.445   5.857   1.685 -0.2030  0.2400  0.1926
 2302TIP3    H1 6912   3.520   5.841   1.628 -0.4053  0.9544 -0.2757
 2302TIP3    H2 6913   3.389   5.917   1.637 -1.0046 -0.1477  0.6097
 2303TIP3   OH2 6914   3.930   2.429   2.786  0.1472 -0.2466 -0.0341
 2303TIP3    H1 6915   3.920   2.412   2.692  1.0668 -0.6335 -0.0674
 2303TIP3    H2 6916   4.020   2.459   2.796  0.8043 -2.3651  0.9990
 2304TIP3   OH2 6917   5.377   5.229   2.728  0.2968  0.1939 -0.2915
 2304TIP3    H1 6918   5.354   5.288   2.799 -2.8467  1.5681 -2.2671
 2304TIP3    H2 6919   5.324   5.151   2.742  0.1517  0.2000 -0.7821
 2305TIP3   OH2 6920   4.215   1.216   1.061 -0.2505 -0.2241  0.1026
 2305TIP3    H1 6921   4.183   1.167   0.985 -0.4133 -1.4147  0.9060
 2305TIP3    H2 6922   4.256   1.149   1.116  0.4419  0.7244  0.7537
 2306TIP3   OH2 6923   4.412   2.249   3.648 -0.2670  0.3671  0.1707
 2306TIP3    H1 6924   4.451   2.185   3.708 -1.2376  0.4224  0.8779
 2306TIP3    H2 6925   4.406   2.330   3.700 -1.1812  0.3960  0.0348
 2307TIP3   OH2 6926   5.563   2.797   1.162 -0.0831 -0.6458  0.4369
 2307TIP3    H1 6927   5.611   2.867   1.117  0.0962 -1.5587 -0.8482
 2307TIP3    H2 6928   5.518   2.841   1.234  2.5413  0.2808  1.6235
 2308TIP3   OH2 6929   0.153   2.630   2.469  0.2697  0.1403 -0.1967
 2308TIP3    H1 6930   0.170   2.537   2.480 -1.4572 -0.3934 -1.5847
 2308TIP3    H2 6931   0.110   2.656   2.550  0.5632 -0.3165  0.1109
 2309TIP3   OH2 6932   5.110   3.623   4.025  0.2065  0.1240  0.0820
 2309TIP3    H1 6933   5.131   3.654   4.113 -2.8163 -0.1049  1.0037
 2309TIP3    H2 6934   5.091   3.530   4.037 -2.5784  0.5810 -0.2766
 2310TIP3   OH2 6935   6.019   3.907   3.021  0.5030 -0.0689 -0.0542
 2310TIP3    H1 6936   6.028   3.997   3.053  2.3305 -0.9364  2.1833
 2310TIP3    H2 6937   6.107   3.870   3.030 -0.2645 -2.1701 -0.6099
 2311TIP3   OH2 6938   2.454   4.182   4.111  0.4234  0.2203  0.4096
 2311TIP3    H1 6939   2.360   4.193   4.120  0.3197  1.3225 -1.5610
 2311TIP3    H2 6940   2.491   4.270   4.121  1.3560 -0.3112  1.9995
 2312TIP3   OH2 6941   5.970   1.532   0.773 -0.2696  0.0378  0.1326
 2312TIP3    H1 6942   5.988   1.623   0.794 -0.3916 -0.1994  1.2953
 2312TIP3    H2 6943   6.053   1.486   0.788  0.0190  0.0580 -1.2077
 2313TIP3   OH2 6944   5.148   5.531   5.035 -0.2897  0.6944 -0.4975
 2313TIP3    H1 6945   5.210   5.470   4.995 -1.3404  0.0588 -1.1972
 2313TIP3    H2 6946   5.161   5.520   5.129 -1.1537 -1.4084 -0.5621
 2314TIP3   OH2 6947   3.712   0.421   0.599 -0.3870 -0.0225 -0.0275
 2314TIP3    H1 6948   3.649   0.378   0.657 -1.6587  1.8696  0.0724
 2314TIP3    H2 6949   3.785   0.359   0.593 -1.1139 -1.1544  1.9324
 2315TIP3   OH2 6950   1.934   3.466   1.014  0.2988 -0.4967 -0.0302
 2315TIP3    H1 6951   2.014   3.501   1.053  1.1658 -1.8627 -0.5022
 2315TIP3    H2 6952   1.964   3.398   0.954 -1.2173 -0.9339 -0.3487
 2316TIP3   OH2 6953   0.819   3.512   2.806  0.1902 -0.3615  0.3375
 2316TIP3    H1 6954   0.885   3.455   2.845  0.2231 -0.7269 -0.2430
 2316TIP3    H2 6955   0.765   3.454   2.753 -0.0505  0.0809  0.0920
 2317TIP3   OH2 6956   3.839   3.146   4.826  0.3654 -0.0855 -0.6161
 2317TIP3    H1 6957   3.895   3.083   4.781  0.2678  0.9041 -2.1769
 2317TIP3    H2 6958   3.763   3.157   4.769 -0.2651  0.4301  0.2942
 2318TIP3   OH2 6959   5.413   2.036   0.666 -0.4221  0.2569  0.1252
 2318TIP3    H1 6960   5.344   1.984   0.627 -0.2040 -0.2454  0.4047
 2318TIP3    H2 6961   5.386   2.127   0.652 -1.8980  0.0809  1.5338
 2319TIP3   OH2 6962   5.044   2.161   0.836 -0.1661  0.8774 -0.2399
 2319TIP3    H1 6963   4.985   2.088   0.816  2.0053 -0.7308 -1.1951
 2319TIP3    H2 6964   5.028   2.181   0.928 -0.9565 -0.6729 -0.0155
 2320TIP3   OH2 6965   5.999   4.135   4.494  0.4562 -0.0569 -0.0317
 2320TIP3    H1 6966   6.044   4.077   4.556 -0.0233 -0.0795  0.2984
 2320TIP3    H2 6967   5.941   4.078   4.444 -0.1507  0.1601  0.4165
 2321TIP3   OH2 6968   0.900   5.526   2.899 -0.6774 -0.0447  0.6559
 2321TIP3    H1 6969   0.951   5.447   2.916 -0.2277  0.1211  0.0992
 2321TIP3    H2 6970   0.926   5.587   2.969 -1.0987 -0.4119  1.1433
 2322TIP3   OH2 6971   4.613   4.556   0.740  0.3474 -0.0468 -0.8346
 2322TIP3    H1 6972   4.536   4.529   0.790 -0.1030 -0.3759 -1.6864
 2322TIP3    H2 6973   4.580   4.572   0.652  1.2531 -0.1898 -1.2130
 2323TIP3   OH2 6974   1.658   4.115   0.212 -0.0205  0.4076 -0.1239
 2323TIP3    H1 6975   1.565   4.110   0.230  0.2792 -0.3455  1.3639
 2323TIP3    H2 6976   1.684   4.025   0.193  0.6422  0.3627  0.8942
 2324TIP3   OH2 6977   4.889   2.539   3.835  0.3291  0.5850 -0.1010
 2324TIP3    H1 6978   4.876   2.450   3.804 -1.2720  1.0339 -0.7979
 2324TIP3    H2 6979   4.814   2.556   3.892  1.5124  0.9183  1.4174
 2325TIP3   OH2 6980   0.786   0.549   2.432  0.3523 -0.0427 -0.3981
 2325TIP3    H1 6981   0.866   0.576   2.477 -0.8586 -0.6587  2.3600
 2325TIP3    H2 6982   0.723   0.618   2.452 -0.7958 -1.3470  0.7082
 2326TIP3   OH2 6983   4.132   0.589   1.175 -0.6303 -0.0744 -0.3597
 2326TIP3    H1 6984   4.063   0.655   1.169  0.0724  0.6465 -0.7901
 2326TIP3    H2 6985   4.102   0.517   1.119 -0.1067  1.1184 -2.2720
 2327TIP3   OH2 6986   1.273   1.705   2.486 -0.2904  0.1102 -0.3190
 2327TIP3    H1 6987   1.183   1.736   2.479 -0.4517 -0.3746 -0.4566
 2327TIP3    H2 6988   1.276   1.628   2.429 -0.7225 -1.9333  2.2231
 2328TIP3   OH2 6989   2.220   1.422   0.375  0.1658 -0.2882 -0.1893
 2328TIP3    H1 6990   2.210   1.331   0.348  0.6388 -0.7207  1.0072
 2328TIP3    H2 6991   2.133   1.448   0.406  0.1361 -0.4807 -0.1109
 2329TIP3   OH2 6992   4.924   0.054   0.058 -0.2115  0.2355 -0.0598
 2329TIP3    H1 6993   4.912   0.004   0.138 -0.7224  0.0096 -0.2743
 2329TIP3    H2 6994   4.894  -0.004  -0.012 -1.2261  0.9888 -0.2760
 2330TIP3   OH2 6995   1.748   3.694   5.073 -0.4675  0.1083 -0.0910
 2330TIP3    H1 6996   1.686   3.707   5.144  0.1077 -0.0620  0.4530
 2330TIP3    H2 6997   1.757   3.781   5.032  0.5930  0.6458  1.2156
 2331TIP3   OH2 6998   3.579   4.038   2.131 -0.0424 -0.1192 -0.2425
 2331TIP3    H1 6999   3.664   4.004   2.103 -0.3142 -1.0399  0.0056
 2331TIP3    H2 7000   3.573   4.124   2.090  0.1667 -0.8388 -1.8572
 2332TIP3   OH2 7001   4.493   2.275   0.806 -0.3831  0.0517  0.3064
 2332TIP3    H1 7002   4.583   2.306   0.818 -0.4881  0.0925  1.0735
 2332TIP3    H2 7003   4.450   2.344   0.756  0.2245 -0.3512 -0.8045
 2333TIP3   OH2 7004   5.183   2.197   0.422 -0.2363  0.2241  0.0169
 2333TIP3    H1 7005   5.145   2.257   0.358  0.1115 -0.1541 -0.5591
 2333TIP3    H2 7006   5.111   2.137   0.443 -0.2827  0.1951 -0.2161
 2334TIP3   OH2 7007   3.913   5.684   1.889 -0.4755 -0.2564 -0.2839
 2334TIP3    H1 7008   3.873   5.601   1.915 -0.1867 -0.2027  0.3543
 2334TIP3    H2 7009   4.004   5.662   1.869 -0.3159 -0.0494  0.1886
 2335TIP3   OH2 7010   5.989   5.306   2.851 -0.3297 -0.5007 -0.2150
 2335TIP3    H1 7011   6.035   5.387   2.828  1.1170 -1.2976 -0.2418
 2335TIP3    H2 7012   6.053   5.237   2.835 -1.2743 -1.5916  0.5805
 2336TIP3   OH2 7013   3.806   1.739   2.464 -0.2532 -0.1519 -0.2841
 2336TIP3    H1 7014   3.797   1.716   2.371 -2.1260  0.9397 -0.4184
 2336TIP3    H2 7015   3.736   1.692   2.508  1.0653 -1.2374  0.7316
 2337TIP3   OH2 7016   4.503   1.984   1.018 -0.1972  0.5580  0.1098
 2337TIP3    H1 7017   4.557   2.030   0.954 -0.2675  2.0834  1.0924
 2337TIP3    H2 7018   4.531   2.018   1.102 -1.1644 -0.2745  0.7993
 2338TIP3   OH2 7019   5.681   3.370   0.082 -0.0285  0.1785  0.2345
 2338TIP3    H1 7020   5.701   3.382   0.175 -0.1710 -2.3417  0.6683
 2338TIP3    H2 7021   5.683   3.458   0.045 -0.0566  1.2617  2.6369
 2339TIP3   OH2 7022   4.274   2.110   0.796  0.3191 -0.0189 -0.1883
 2339TIP3    H1 7023   4.344   2.161   0.835  0.3242  0.3635 -0.6931
 2339TIP3    H2 7024   4.195   2.140   0.840  0.4885 -0.6637  0.5992
 2340TIP3   OH2 7025   2.471   3.791   1.528  0.0284  0.1220 -0.6842
 2340TIP3    H1 7026   2.498   3.833   1.609  1.8189 -0.4717 -0.9388
 2340TIP3    H2 7027   2.422   3.713   1.557  0.4679  0.0315 -0.1722
 2341TIP3   OH2 7028   5.065   1.657   1.774 -0.1237 -0.4096  0.1810
 2341TIP3    H1 7029   5.053   1.597   1.848 -0.5146 -0.6072 -0.0388
 2341TIP3    H2 7030   5.060   1.601   1.697  1.5571 -0.3996  0.0330
 2342TIP3   OH2 7031   2.280   3.058   0.445 -0.1846 -0.1408  0.2327
 2342TIP3    H1 7032   2.198   3.106   0.434 -0.2742 -0.3152  0.1343
 2342TIP3    H2 7033   2.277   2.990   0.378  0.8236  0.9072 -0.9243
 2343TIP3   OH2 7034   4.965   2.664   2.307  0.3235 -0.4001 -0.0215
 2343TIP3    H1 7035   5.017   2.716   2.245  0.4690  0.8438  1.0896
 2343TIP3    H2 7036   4.900   2.621   2.253  1.8237 -1.1402 -1.3172
 2344TIP3   OH2 7037   5.251   5.426   1.034  0.1792 -0.2827  0.2653
 2344TIP3    H1 7038   5.229   5.451   1.124 -0.6328  0.6198 -0.1585
 2344TIP3    H2 7039   5.331   5.475   1.015  0.5353 -0.7282  0.6013
 2345TIP3   OH2 7040   2.459   1.232   1.701 -0.6609 -0.0754  0.0905
 2345TIP3    H1 7041   2.468   1.291   1.776  0.4629  0.1648 -0.2166
 2345TIP3    H2 7042   2.526   1.165   1.714 -0.1483  0.2222 -0.9179
 2346TIP3   OH2 7043   3.175   0.894   2.936  0.7088 -0.5159  0.3416
 2346TIP3    H1 7044   3.115   0.946   2.883  1.0210 -0.3658  0.1308
 2346TIP3    H2 7045   3.131   0.809   2.946  0.8125 -0.6763 -0.4871
 2347TIP3   OH2 7046   3.298   4.953   1.798  0.2927 -0.0662  0.1574
 2347TIP3    H1 7047   3.213   4.981   1.832 -0.2552 -2.9372  1.3724
 2347TIP3    H2 7048   3.301   4.988   1.709 -1.2483  1.7476  0.7484
 2348TIP3   OH2 7049   4.654   5.400   1.725 -0.4605 -0.7037  0.4311
 2348TIP3    H1 7050   4.566   5.433   1.705 -0.8202 -1.2035  1.1285
 2348TIP3    H2 7051   4.686   5.365   1.642 -1.6046 -2.0373  0.5160
 2349TIP3   OH2 7052   3.516   2.389   2.449 -0.0476 -0.1110  0.5276
 2349TIP3    H1 7053   3.491   2.337   2.525  0.5136  0.0394  0.8195
 2349TIP3    H2 7054   3.497   2.479   2.475 -0.7033 -0.1258  0.1463
 2350TIP3   OH2 7055   1.860   2.828   1.368 -0.3251 -0.4759  1.1057
 2350TIP3    H1 7056   1.890   2.901   1.421 -1.4097  0.3213  0.6640
 2350TIP3    H2 7057   1.892   2.750   1.414 -0.1547  0.2350  2.2309
 2351TIP3   OH2 7058   4.730   4.230   4.648  0.6456 -0.1381 -0.6677
 2351TIP3    H1 7059   4.794   4.251   4.716  0.6040  1.0123 -0.9530
 2351TIP3    H2 7060   4.722   4.311   4.597 -1.8887  0.1563  0.0589
 2352TIP3   OH2 7061   1.295   1.995   1.529 -0.4472  0.4747  0.1181
 2352TIP3    H1 7062   1.207   1.986   1.491 -0.0405 -1.8927 -0.3793
 2352TIP3    H2 7063   1.321   1.906   1.553  2.4370  0.8507 -1.1712
 2353TIP3   OH2 7064   3.315   5.661   2.387  0.1839 -0.0448  0.3735
 2353TIP3    H1 7065   3.307   5.718   2.311 -0.4020 -0.3250  0.2208
 2353TIP3    H2 7066   3.382   5.703   2.442 -0.5488  1.0207  0.4705
 2354TIP3   OH2 7067   1.406   1.297   4.830 -0.3556  0.3719 -0.8568
 2354TIP3    H1 7068   1.402   1.385   4.868  0.4140  0.4302 -0.8960
 2354TIP3    H2 7069   1.362   1.241   4.894  1.7822  0.3088  0.6364
 2355TIP3   OH2 7070   4.748   4.067   1.403  0.2372 -0.3335 -0.4562
 2355TIP3    H1 7071   4.770   4.057   1.311 -1.6676  0.0217 -0.9763
 2355TIP3    H2 7072   4.769   4.158   1.423  0.0846 -0.2484 -0.6908
 2356TIP3   OH2 7073   5.934   3.310   1.592 -0.2268  0.0911 -0.2615
 2356TIP3    H1 7074   5.848   3.323   1.552 -0.5602  0.1822  0.4713
 2356TIP3    H2 7075   5.929   3.223   1.631 -0.5702  0.7540  1.2165
 2357TIP3   OH2 7076   5.601   1.587   3.421 -0.8309 -0.5475 -0.0712
 2357TIP3    H1 7077   5.536   1.516   3.412 -0.9121 -0.8125  2.0776
 2357TIP3    H2 7078   5.676   1.545   3.462  0.4210 -0.0382 -1.7137
 2358TIP3   OH2 7079   5.353   4.220   0.328 -0.5064  0.5173  0.2276
 2358TIP3    H1 7080   5.413   4.160   0.284 -0.9173  0.0224  0.3186
 2358TIP3    H2 7081   5.311   4.268   0.257 -0.3483  0.5231  0.1382
 2359TIP3   OH2 7082   6.145   4.457   2.060  0.0227 -0.6930  0.2035
 2359TIP3    H1 7083   6.103   4.538   2.088  0.6502  0.2251 -1.3360
 2359TIP3    H2 7084   6.082   4.416   2.000  0.8311  0.1724 -1.3059
 2360TIP3   OH2 7085   3.732   0.696   4.774  0.1546  0.3700  0.0777
 2360TIP3    H1 7086   3.819   0.729   4.751  0.6311 -0.6147  0.3867
 2360TIP3    H2 7087   3.732   0.695   4.870 -1.4516  3.5162  0.2306
 2361TIP3   OH2 7088   2.477   3.811   4.748 -0.1913  0.1627  0.3000
 2361TIP3    H1 7089   2.455   3.786   4.838  0.7187 -0.0544  0.4737
 2361TIP3    H2 7090   2.413   3.765   4.694  0.1475 -0.8592  0.7528
 2362TIP3   OH2 7091   0.401   5.852   0.606  0.2864  0.4366  0.1741
 2362TIP3    H1 7092   0.399   5.772   0.659  0.8429  0.4102  0.1655
 2362TIP3    H2 7093   0.309   5.876   0.595  0.1249 -0.0682  0.3794
 2363TIP3   OH2 7094   4.274   2.924   2.067  0.1832 -0.2333 -0.2872
 2363TIP3    H1 7095   4.313   3.002   2.027  1.5031 -0.8866 -0.3347
 2363TIP3    H2 7096   4.260   2.864   1.994 -0.9752  0.0033 -0.2732
 2364TIP3   OH2 7097   1.110   2.899   0.660 -0.1065 -0.5363  0.1291
 2364TIP3    H1 7098   1.140   2.889   0.750 -1.6550  0.0080  0.7406
 2364TIP3    H2 7099   1.074   2.988   0.656 -0.7632 -0.8170 -0.7994
 2365TIP3   OH2 7100   1.261   4.317   2.072  0.4014 -0.4240  0.2942
 2365TIP3    H1 7101   1.262   4.411   2.051 -0.3793 -0.8099 -1.7818
 2365TIP3    H2 7102   1.353   4.292   2.073  0.7479  0.6830  2.7810
 2366TIP3   OH2 7103   0.856   0.202   3.514 -0.1465  0.6695  0.9782
 2366TIP3    H1 7104   0.803   0.124   3.499 -0.7520  1.4429 -1.2766
 2366TIP3    H2 7105   0.851   0.217   3.609  0.4535 -2.2882  1.5822
 2367TIP3   OH2 7106   4.372   3.088   4.853  0.3054  0.0438  0.1375
 2367TIP3    H1 7107   4.348   3.092   4.760  0.0158  0.1971  0.2186
 2367TIP3    H2 7108   4.392   3.179   4.876  2.3597 -0.2475 -0.2930
 2368TIP3   OH2 7109   2.622   4.793   4.734  0.2282 -0.0273  0.8306
 2368TIP3    H1 7110   2.642   4.728   4.667 -0.1850  1.1222 -0.4373
 2368TIP3    H2 7111   2.606   4.741   4.813 -1.2665 -1.5417 -0.4036
 2369TIP3   OH2 7112   1.878   2.344   5.161 -0.4786 -0.2275  0.3448
 2369TIP3    H1 7113   1.925   2.361   5.243  0.6927 -1.1234 -0.1194
 2369TIP3    H2 7114   1.933   2.282   5.114  0.0609  1.9586 -2.1681
 2370TIP3   OH2 7115   1.082   5.871   3.032 -0.3181  0.0093  0.2310
 2370TIP3    H1 7116   1.002   5.921   3.017  1.2175  3.0483  1.4791
 2370TIP3    H2 7117   1.099   5.881   3.126  1.9649  0.1613 -0.1502
 2371TIP3   OH2 7118   0.284   5.492   4.340 -0.1255 -0.2565 -0.1873
 2371TIP3    H1 7119   0.367   5.473   4.385  1.4241 -0.8099 -3.0153
 2371TIP3    H2 7120   0.309   5.545   4.265 -2.1499 -1.4189 -1.8025
 2372TIP3   OH2 7121   4.398   5.515   0.637  0.1246  0.7875 -0.5548
 2372TIP3    H1 7122   4.350   5.480   0.713 -0.8436  1.7779 -0.6787
 2372TIP3    H2 7123   4.471   5.455   0.625 -1.4383 -1.1868 -0.7562
 2373TIP3   OH2 7124   0.432   0.468   0.592 -0.6109  0.1382 -0.1838
 2373TIP3    H1 7125   0.369   0.417   0.643 -1.0542  1.3285  0.4966
 2373TIP3    H2 7126   0.495   0.499   0.657  1.1126 -1.5662 -0.9254
 2374TIP3   OH2 7127   1.345   3.881   2.516 -0.0596  0.3426  0.2444
 2374TIP3    H1 7128   1.416   3.939   2.488  0.7932 -0.0595  1.5228
 2374TIP3    H2 7129   1.389   3.807   2.556 -1.2073  0.0970  1.0919
 2375TIP3   OH2 7130   1.580   2.102   4.843  0.6524  0.0445 -0.1717
 2375TIP3    H1 7131   1.622   2.167   4.787  0.6743  0.7760  0.6565
 2375TIP3    H2 7132   1.581   2.142   4.931 -2.7811  0.6802 -0.2529
 2376TIP3   OH2 7133   3.547   1.756   3.511 -0.0093 -0.1583  0.1039
 2376TIP3    H1 7134   3.633   1.788   3.538 -0.1585 -1.3821  2.2123
 2376TIP3    H2 7135   3.492   1.765   3.589 -1.5404 -0.3631 -0.8980
 2377TIP3   OH2 7136   3.734   3.834   2.575  0.1886 -0.0617 -0.1522
 2377TIP3    H1 7137   3.658   3.788   2.610 -1.8084  3.0262 -0.0948
 2377TIP3    H2 7138   3.700   3.889   2.505  1.9495  2.7516  0.9953
 2378TIP3   OH2 7139   1.013   5.678   4.827  0.5018  0.6289 -0.1388
 2378TIP3    H1 7140   1.087   5.618   4.831  0.4494  0.4321 -1.6200
 2378TIP3    H2 7141   1.020   5.719   4.741 -1.3721  0.2695 -0.4965
 2379TIP3   OH2 7142   2.342   1.638   3.881  0.2231 -0.2117  0.5637
 2379TIP3    H1 7143   2.378   1.628   3.969 -0.1268 -0.2739  0.7000
 2379TIP3    H2 7144   2.390   1.713   3.845 -0.0926  0.2339  1.0468
 2380TIP3   OH2 7145   1.496   1.690   3.442 -0.3825 -0.0127 -0.6415
 2380TIP3    H1 7146   1.574   1.702   3.496 -1.0187  0.9689  0.0982
 2380TIP3    H2 7147   1.529   1.656   3.359  0.6523 -1.2472  0.2370
 2381TIP3   OH2 7148   0.981   4.373   2.794 -0.3837  0.1151  0.1594
 2381TIP3    H1 7149   1.037   4.378   2.717  0.6421  0.9842  0.9489
 2381TIP3    H2 7150   0.947   4.283   2.792  1.2697 -0.5406 -0.1626
 2382TIP3   OH2 7151   4.891   3.484   3.550 -0.5534 -0.3219 -0.3301
 2382TIP3    H1 7152   4.949   3.486   3.626 -0.7000  0.0722 -0.2275
 2382TIP3    H2 7153   4.812   3.530   3.578 -0.6773 -0.3222 -0.6654
 2383TIP3   OH2 7154   4.924   0.217   3.597  0.0962  0.3098 -0.1975
 2383TIP3    H1 7155   4.893   0.254   3.680 -1.9049 -0.1561 -0.6802
 2383TIP3    H2 7156   4.910   0.287   3.533  0.4046  0.2116 -0.3745
 2384TIP3   OH2 7157   4.334   1.539   2.313 -0.1636  0.3493 -0.1538
 2384TIP3    H1 7158   4.408   1.579   2.267 -1.6633  1.3091 -1.8923
 2384TIP3    H2 7159   4.358   1.542   2.405  2.0364  0.4270 -0.6790
 2385TIP3   OH2 7160   3.214   2.338   2.496 -0.4601 -0.1028  0.4124
 2385TIP3    H1 7161   3.214   2.429   2.468  3.7315  0.6515  2.1164
 2385TIP3    H2 7162   3.171   2.339   2.582  1.6024  0.8291  1.5021
 2386TIP3   OH2 7163   1.479   1.927   0.728 -0.0625 -0.1516 -0.0426
 2386TIP3    H1 7164   1.429   1.960   0.802  0.9288 -1.6623  1.3520
 2386TIP3    H2 7165   1.543   1.867   0.766  0.9221 -0.4812 -2.0544
 2387TIP3   OH2 7166   4.778   2.512   2.209  0.0116 -0.2770 -0.4198
 2387TIP3    H1 7167   4.705   2.572   2.190 -0.2883 -0.0569  1.2708
 2387TIP3    H2 7168   4.743   2.425   2.190 -0.9230 -0.2261  0.9471
 2388TIP3   OH2 7169   3.660   1.405   1.402  0.4034 -0.2360  0.0120
 2388TIP3    H1 7170   3.579   1.428   1.446 -1.6258 -0.6005 -3.1875
 2388TIP3    H2 7171   3.691   1.488   1.365 -0.1147 -0.5388 -1.1430
 2389TIP3   OH2 7172   4.620   0.429   2.148  0.0254  0.4025  0.3630
 2389TIP3    H1 7173   4.637   0.468   2.234 -3.4454 -1.9422  2.3892
 2389TIP3    H2 7174   4.526   0.414   2.147 -0.1319  0.3989 -4.0239
 2390TIP3   OH2 7175   1.587   0.470   2.449  0.1667 -0.1178 -0.2803
 2390TIP3    H1 7176   1.616   0.515   2.370 -0.0216  1.5293  0.5477
 2390TIP3    H2 7177   1.502   0.509   2.469  0.7762  0.4220  1.4404
 2391TIP3   OH2 7178   4.388   5.158   1.477  0.2551 -0.6881 -0.0011
 2391TIP3    H1 7179   4.318   5.100   1.446 -0.6301 -0.0953  0.8183
 2391TIP3    H2 7180   4.342   5.228   1.522  1.4480 -1.8180  3.2412
 2392TIP3   OH2 7181   4.516   2.678   4.862 -0.1669  0.5826  0.5606
 2392TIP3    H1 7182   4.516   2.642   4.773 -1.6225  1.1834  0.2955
 2392TIP3    H2 7183   4.495   2.603   4.918  0.1810  0.3229  0.3479
 2393TIP3   OH2 7184   2.068   1.191   4.723  0.7371  0.1862 -0.3438
 2393TIP3    H1 7185   2.106   1.236   4.798  0.9419 -0.8633  0.1999
 2393TIP3    H2 7186   2.043   1.105   4.756  1.7026 -0.6509 -1.6813
 2394TIP3   OH2 7187   1.358   3.604   3.345  0.1658 -0.0155 -0.8558
 2394TIP3    H1 7188   1.286   3.648   3.299 -2.3182  0.0423  2.7269
 2394TIP3    H2 7189   1.416   3.675   3.373 -2.0158  0.8084  1.9376
 2395TIP3   OH2 7190   2.177   3.498   5.131 -0.2247  0.0564  0.3152
 2395TIP3    H1 7191   2.266   3.516   5.162 -0.7095 -1.2153  2.7160
 2395TIP3    H2 7192   2.122   3.558   5.182 -1.0389 -1.8873  1.8317
 2396TIP3   OH2 7193   4.051   2.478   4.849 -0.6697  0.3253  0.0787
 2396TIP3    H1 7194   4.134   2.519   4.875  1.2695 -3.0380 -0.2278
 2396TIP3    H2 7195   4.001   2.472   4.930  1.1145 -1.0612  1.1660
 2397TIP3   OH2 7196   0.502   5.925   3.463 -0.6324 -0.4000 -0.4175
 2397TIP3    H1 7197   0.461   5.842   3.489 -0.3448 -0.4134 -0.0013
 2397TIP3    H2 7198   0.482   5.933   3.369 -0.9004 -0.7999 -0.3986
 2398TIP3   OH2 7199   1.321   5.777   2.499 -0.7710  0.2006 -0.4075
 2398TIP3    H1 7200   1.407   5.791   2.460 -1.0355  0.4328 -0.9306
 2398TIP3    H2 7201   1.336   5.774   2.593 -0.5070  2.6764 -0.3144
 2399TIP3   OH2 7202   3.675   5.207   4.914 -0.0657 -0.3822  0.1559
 2399TIP3    H1 7203   3.622   5.156   4.975 -0.4188 -0.6376 -0.3616
 2399TIP3    H2 7204   3.757   5.224   4.962 -0.2352 -0.7958  0.6015
 2400TIP3   OH2 7205   0.789   0.656   1.724 -0.0352 -0.3151  0.2839
 2400TIP3    H1 7206   0.873   0.615   1.706  0.7244  0.9171  0.8981
 2400TIP3    H2 7207   0.733   0.585   1.755  0.4763 -1.3130 -1.0310
 2401TIP3   OH2 7208   1.129   5.425   0.631  0.3026 -1.0235 -0.0502
 2401TIP3    H1 7209   1.163   5.432   0.720  0.2587  0.5230 -0.1313
 2401TIP3    H2 7210   1.202   5.450   0.575  0.1519 -1.4146 -0.4310
 2402TIP3   OH2 7211   1.608   0.912   0.261 -0.2055  0.0066  0.2238
 2402TIP3    H1 7212   1.554   0.857   0.317  0.8796 -0.7317  0.5909
 2402TIP3    H2 7213   1.549   0.943   0.192 -0.8440 -1.6557 -0.0085
 2403TIP3   OH2 7214   4.972   4.609   1.144  0.5178 -0.4421  0.2665
 2403TIP3    H1 7215   5.048   4.660   1.170 -0.0910 -0.1533  1.5321
 2403TIP3    H2 7216   4.898   4.652   1.187 -0.1442 -1.7223  0.4601
 2404TIP3   OH2 7217   0.749   5.377   4.174 -0.0128 -0.6993 -0.0305
 2404TIP3    H1 7218   0.827   5.357   4.124  0.7645  2.1607 -0.1151
 2404TIP3    H2 7219   0.686   5.408   4.110 -0.6989 -1.5081  0.2306
 2405TIP3   OH2 7220   0.505   5.718   3.743  0.1608 -0.5571  0.3242
 2405TIP3    H1 7221   0.541   5.634   3.717  3.0389  0.8788 -0.8015
 2405TIP3    H2 7222   0.525   5.726   3.836  0.3727 -0.8791  0.3055
 2406TIP3   OH2 7223   3.329   3.085   4.285 -0.8982  0.1728  0.1430
 2406TIP3    H1 7224   3.378   3.165   4.262 -1.2702  0.4535  0.3267
 2406TIP3    H2 7225   3.328   3.084   4.380  0.3914 -0.8415  0.1839
 2407TIP3   OH2 7226   2.358   3.556   1.626  0.1660 -0.2725  0.5011
 2407TIP3    H1 7227   2.271   3.582   1.595 -0.0127 -0.6448  0.6856
 2407TIP3    H2 7228   2.345   3.532   1.718  0.6228  0.4702  0.7660
 2408TIP3   OH2 7229   0.752   3.743   2.484  0.1954 -0.0535  0.2591
 2408TIP3    H1 7230   0.778   3.745   2.576  1.3849 -0.7569 -0.0451
 2408TIP3    H2 7231   0.708   3.658   2.474 -0.5095  0.2989  0.3181
 2409TIP3   OH2 7232   0.071   3.722   0.447  0.0129  0.3667  0.2389
 2409TIP3    H1 7233   0.150   3.669   0.442  0.7637  1.5012 -0.4275
 2409TIP3    H2 7234   0.026   3.692   0.525  0.1504 -1.5888 -0.3814
 2410TIP3   OH2 7235   3.716   0.595   2.265  0.6591 -0.4198 -0.4361
 2410TIP3    H1 7236   3.638   0.650   2.265  0.3370 -0.7526  2.3303
 2410TIP3    H2 7237   3.684   0.507   2.244  0.3960 -0.4208 -0.0354
 2411TIP3   OH2 7238   3.944   3.027   4.382 -0.1830 -0.3712 -1.2531
 2411TIP3    H1 7239   3.857   3.025   4.342 -1.7318 -1.2079  1.8455
 2411TIP3    H2 7240   3.949   3.114   4.422  0.2803 -0.4588 -1.1244
 2412TIP3   OH2 7241   2.261   0.086   0.282  0.1154 -0.5512 -0.5060
 2412TIP3    H1 7242   2.227   0.149   0.218 -0.7436 -0.1408  0.3296
 2412TIP3    H2 7243   2.338   0.047   0.239  0.5361  0.9054 -1.1350
 2413TIP3   OH2 7244   4.283   3.200   4.204 -0.2609 -0.1788  0.8214
 2413TIP3    H1 7245   4.288   3.295   4.210  0.0207 -0.1878  0.7277
 2413TIP3    H2 7246   4.222   3.184   4.132 -0.3848 -0.0692  0.9022
 2414TIP3   OH2 7247   2.876   1.620   0.202 -0.2706 -0.2777  0.3289
 2414TIP3    H1 7248   2.911   1.699   0.161  1.7259  0.7916  3.6886
 2414TIP3    H2 7249   2.788   1.643   0.229 -0.8067 -0.2816 -1.3144
 2415TIP3   OH2 7250   1.486   1.249   4.092  0.5086  0.6107 -0.2533
 2415TIP3    H1 7251   1.407   1.296   4.121  0.9217  0.3434  1.3840
 2415TIP3    H2 7252   1.558   1.310   4.109  0.8423  0.1443  0.0343
 2416TIP3   OH2 7253   6.282   2.587   4.794 -0.3757 -0.1753  0.3196
 2416TIP3    H1 7254   6.277   2.492   4.803  1.3165 -0.2921  0.2067
 2416TIP3    H2 7255   6.359   2.613   4.844 -0.4583  1.0756 -0.1438
 2417TIP3   OH2 7256   0.828   0.484   3.568  0.1152 -0.3049 -0.0168
 2417TIP3    H1 7257   0.846   0.400   3.526  0.4361  0.8710 -2.4093
 2417TIP3    H2 7258   0.759   0.523   3.514 -1.4037  0.2129  2.1610
 2418TIP3   OH2 7259   4.439   2.988   1.682 -0.3277  0.2745  0.1700
 2418TIP3    H1 7260   4.506   2.968   1.616 -1.1459 -0.6779 -0.4120
 2418TIP3    H2 7261   4.359   2.950   1.646 -0.6576 -0.9074  2.0298
 2419TIP3   OH2 7262   1.227   3.248   2.984 -0.1338 -0.0347  0.2320
 2419TIP3    H1 7263   1.208   3.321   2.924  0.7947 -0.7185 -0.9456
 2419TIP3    H2 7264   1.149   3.241   3.039 -0.7542  1.0411 -0.4751
 2420TIP3   OH2 7265   5.376   1.483   3.169  0.2017  0.0337  0.2230
 2420TIP3    H1 7266   5.325   1.422   3.116  0.7581  0.1502 -0.4659
 2420TIP3    H2 7267   5.374   1.447   3.257  0.0703 -0.6828 -0.0701
 2421TIP3   OH2 7268   0.367   2.132   1.456  0.2433 -0.1810 -0.4931
 2421TIP3    H1 7269   0.402   2.219   1.438  2.1579 -0.8409 -0.1079
 2421TIP3    H2 7270   0.441   2.081   1.488 -0.5436 -2.3049 -1.7933
 2422TIP3   OH2 7271   1.318   4.688   4.975 -0.0960  0.1541 -0.1711
 2422TIP3    H1 7272   1.279   4.772   4.998  0.8476  0.9483 -1.3896
 2422TIP3    H2 7273   1.408   4.692   5.006  0.1461 -0.1429 -0.7964
 2423TIP3   OH2 7274   1.477   3.621   3.790 -0.4633  0.2546  0.3831
 2423TIP3    H1 7275   1.465   3.656   3.878  1.0061 -1.3257  1.2735
 2423TIP3    H2 7276   1.551   3.561   3.798 -0.1166  0.2797 -2.0093
 2424TIP3   OH2 7277   3.201   5.024   0.550 -0.1086 -0.5419 -0.3112
 2424TIP3    H1 7278   3.279   5.027   0.494  1.0891 -2.4318  1.1413
 2424TIP3    H2 7279   3.137   4.975   0.500 -0.3761  0.8836 -1.4516
 2425TIP3   OH2 7280   2.841   3.953   1.730 -0.0171  0.0030  0.3339
 2425TIP3    H1 7281   2.872   3.982   1.644 -0.0936 -0.1860  0.2435
 2425TIP3    H2 7282   2.921   3.932   1.778 -0.0261 -3.5829 -0.9454
 2426TIP3   OH2 7283   0.470   1.988   1.953  0.2178  0.5542 -0.3891
 2426TIP3    H1 7284   0.515   2.072   1.944  1.1135  0.0754 -0.4904
 2426TIP3    H2 7285   0.539   1.926   1.977 -0.3801 -0.2085 -0.5928
 2427TIP3   OH2 7286   3.576   1.649   5.201  0.7540 -0.2801 -0.5267
 2427TIP3    H1 7287   3.507   1.715   5.188  0.9631 -0.0467 -0.4452
 2427TIP3    H2 7288   3.643   1.672   5.136  1.6122  0.6276  0.6381
 2428TIP3   OH2 7289   3.996   5.892   0.118  0.0650  0.6059 -0.0328
 2428TIP3    H1 7290   3.928   5.953   0.090  0.9387  2.2248  1.1748
 2428TIP3    H2 7291   4.076   5.946   0.121  1.3949 -1.1797 -1.2257
 2429TIP3   OH2 7292   5.224   5.794   2.712  0.0884  0.6540  0.5563
 2429TIP3    H1 7293   5.318   5.776   2.719  0.1786  1.3480  1.2754
 2429TIP3    H2 7294   5.208   5.802   2.618  1.0857  2.1323  0.4757
 2430TIP3   OH2 7295   4.784   1.610   1.301 -0.6431  0.4391  0.0671
 2430TIP3    H1 7296   4.717   1.576   1.359  0.4847  0.9201  1.7356
 2430TIP3    H2 7297   4.836   1.534   1.275 -1.2480  0.2011 -0.4577
 2431TIP3   OH2 7298   2.476   1.923   3.431 -0.2505 -0.7262  0.3397
 2431TIP3    H1 7299   2.401   1.909   3.374 -1.3771  1.4893  1.1461
 2431TIP3    H2 7300   2.452   1.879   3.513  0.1510 -1.5579  0.0185
 2432TIP3   OH2 7301   2.747   3.113   5.135  0.1524 -0.0584  0.5385
 2432TIP3    H1 7302   2.816   3.049   5.119  0.2126  0.1979 -0.3245
 2432TIP3    H2 7303   2.668   3.072   5.100 -0.0870 -0.2424  1.2816
 2433TIP3   OH2 7304   0.905   5.434   0.434  0.0116  0.3875 -0.7210
 2433TIP3    H1 7305   0.972   5.498   0.409  1.2395 -0.5937 -0.0703
 2433TIP3    H2 7306   0.924   5.413   0.525 -0.5376 -0.6727 -0.8272
 2434TIP3   OH2 7307   2.808   0.350   2.203  0.1475 -0.1588  0.2506
 2434TIP3    H1 7308   2.839   0.262   2.180 -0.7304 -0.3372 -0.3114
 2434TIP3    H2 7309   2.838   0.363   2.292 -1.2189 -1.7875  1.0232
 2435TIP3   OH2 7310   4.621   4.964   1.588  0.1963  0.3990  0.3195
 2435TIP3    H1 7311   4.558   5.015   1.536  0.0504 -1.6243 -1.6427
 2435TIP3    H2 7312   4.568   4.895   1.629  0.8876 -0.3339 -0.0087
 2436TIP3   OH2 7313   4.435   4.782   1.654  0.0181 -0.2062  0.4538
 2436TIP3    H1 7314   4.437   4.688   1.675  0.2464  0.2792  2.9267
 2436TIP3    H2 7315   4.354   4.794   1.604  1.0439 -2.0132 -1.8311
 2437TIP3   OH2 7316   0.576   3.091   1.501  0.5312  0.1104 -0.0686
 2437TIP3    H1 7317   0.603   3.098   1.409 -0.0057  0.6739 -0.1846
 2437TIP3    H2 7318   0.505   3.027   1.501  0.7810 -0.1711  0.0125
 2438TIP3   OH2 7319   5.491   0.008   2.819  0.1755  0.0605  0.0850
 2438TIP3    H1 7320   5.473   0.061   2.741 -0.4997  1.1577  0.9601
 2438TIP3    H2 7321   5.432  -0.067   2.811 -0.7668  0.7760  0.1195
 2439TIP3   OH2 7322   0.891   2.104   0.012  0.2867  0.2921 -0.3477
 2439TIP3    H1 7323   0.917   2.012   0.006 -0.7239 -0.0745  0.4890
 2439TIP3    H2 7324   0.880   2.119   0.106 -0.8219  0.8869 -0.5621
 2440TIP3   OH2 7325   6.281   4.827   1.300 -0.1756 -0.1592  0.4506
 2440TIP3    H1 7326   6.308   4.754   1.355 -2.2204 -0.6265  0.9079
 2440TIP3    H2 7327   6.261   4.897   1.361 -0.1102  0.1448  0.1281
 2441TIP3   OH2 7328   1.928   1.595   1.112  0.1774 -0.0591 -0.7394
 2441TIP3    H1 7329   1.934   1.668   1.173  0.3492 -0.1378 -0.6610
 2441TIP3    H2 7330   2.008   1.600   1.059 -0.2014  0.2964 -1.2866
 2442TIP3   OH2 7331   3.061   5.603   1.129  0.5843 -0.3710  0.0434
 2442TIP3    H1 7332   2.998   5.647   1.072 -0.5996 -2.0869 -0.0284
 2442TIP3    H2 7333   3.146   5.623   1.090  0.0409  1.1012 -0.4651
 2443TIP3   OH2 7334   3.548   5.724   2.849 -0.3041 -0.8066 -0.1085
 2443TIP3    H1 7335   3.563   5.819   2.850  0.8565 -0.9894  0.1910
 2443TIP3    H2 7336   3.531   5.704   2.757  2.0243 -0.6853 -0.6059
 2444TIP3   OH2 7337   2.240   3.547   3.197  0.1955  0.3625  0.2345
 2444TIP3    H1 7338   2.246   3.621   3.256  0.9543  0.6373 -0.1776
 2444TIP3    H2 7339   2.329   3.514   3.189  0.1844  0.5943 -1.0768
 2445TIP3   OH2 7340   3.925   0.040   4.078 -0.5398  0.6073 -0.4933
 2445TIP3    H1 7341   3.870   0.047   4.000 -1.9733 -0.7446  0.3208
 2445TIP3    H2 7342   3.926  -0.054   4.097  1.8970  0.6139 -0.3214
 2446TIP3   OH2 7343   3.621   5.883   0.125 -0.1775  0.1094 -0.4345
 2446TIP3    H1 7344   3.604   5.972   0.156 -1.7354  0.1510 -1.3172
 2446TIP3    H2 7345   3.624   5.830   0.204 -1.4586  0.6083 -0.0274
 2447TIP3   OH2 7346   3.786   4.475   0.683 -0.7297 -0.3693 -0.0082
 2447TIP3    H1 7347   3.801   4.560   0.726 -0.1709 -0.5624  0.1806
 2447TIP3    H2 7348   3.715   4.492   0.621  0.1044  0.4923 -0.7388
 2448TIP3   OH2 7349   1.402   1.969   3.435  0.3226 -0.3486 -0.0561
 2448TIP3    H1 7350   1.416   1.997   3.526  0.8343 -0.5199 -0.0814
 2448TIP3    H2 7351   1.431   1.878   3.433  0.7710 -0.2007 -0.5028
 2449TIP3   OH2 7352   5.914   3.112   3.491  0.8822  0.0259 -0.3535
 2449TIP3    H1 7353   5.938   3.179   3.556  0.0985 -0.4153  0.4060
 2449TIP3    H2 7354   5.986   3.049   3.495  0.8404  0.0024  0.0900
 2450TIP3   OH2 7355   1.801   5.223   1.369 -0.7175  0.0836  0.0624
 2450TIP3    H1 7356   1.725   5.170   1.345  1.1807 -1.7323 -2.4733
 2450TIP3    H2 7357   1.773   5.313   1.351 -2.8103 -0.3222  0.9658
 2451TIP3   OH2 7358   2.491   0.404   0.809  0.5095 -0.2078  0.1376
 2451TIP3    H1 7359   2.533   0.389   0.724 -1.0340 -1.2897 -0.4824
 2451TIP3    H2 7360   2.561   0.388   0.873  1.3956 -0.5872 -0.8903
 2452TIP3   OH2 7361   2.084   2.505   2.896  0.0232  0.1294 -0.0206
 2452TIP3    H1 7362   2.090   2.411   2.881  1.2330  0.3690 -1.2234
 2452TIP3    H2 7363   2.173   2.532   2.920  0.4205  1.3691 -2.5248
 2453TIP3   OH2 7364   4.273   0.821   0.780 -0.7148 -0.0455 -0.0405
 2453TIP3    H1 7365   4.203   0.884   0.799 -2.3053 -1.3164 -1.3532
 2453TIP3    H2 7366   4.276   0.816   0.684  1.0097 -0.2433 -0.0057
 2454TIP3   OH2 7367   1.976   5.332   1.880 -0.0742  0.1557 -0.4869
 2454TIP3    H1 7368   1.938   5.287   1.804 -0.8561  1.1469 -0.7047
 2454TIP3    H2 7369   2.059   5.367   1.847  0.2748 -0.6169 -0.4678
 2455TIP3   OH2 7370   4.497   1.584   4.946  0.5439  0.3796  0.3031
 2455TIP3    H1 7371   4.525   1.505   4.993 -1.2134 -1.2930 -1.2674
 2455TIP3    H2 7372   4.518   1.567   4.855 -1.5834  0.8429 -0.3464
 2456TIP3   OH2 7373   0.539   5.465   0.930 -0.2450  0.3029  0.1668
 2456TIP3    H1 7374   0.588   5.451   0.848  1.6116 -0.3406  1.3221
 2456TIP3    H2 7375   0.481   5.389   0.937 -0.9401  0.7177 -0.8815
 2457TIP3   OH2 7376   6.369   3.626   3.479 -0.7793 -0.7011 -0.3953
 2457TIP3    H1 7377   6.341   3.577   3.402 -1.3590 -2.6401  0.9657
 2457TIP3    H2 7378   6.312   3.703   3.480 -2.4350 -1.8526 -0.6376
 2458TIP3   OH2 7379   4.588   0.524   5.094  0.2842  0.4549 -0.1047
 2458TIP3    H1 7380   4.660   0.484   5.142  0.5631  0.1525 -0.7648
 2458TIP3    H2 7381   4.573   0.466   5.020 -2.1288 -0.7406  1.1913
 2459TIP3   OH2 7382   2.428   4.602   2.765  0.0272 -1.0563 -0.1745
 2459TIP3    H1 7383   2.456   4.663   2.697 -1.0303  0.3468  0.6098
 2459TIP3    H2 7384   2.433   4.652   2.846 -3.3179 -1.0933  0.2057
 2460TIP3   OH2 7385   1.154   0.110   3.735  0.1551 -0.3342  0.1420
 2460TIP3    H1 7386   1.249   0.103   3.745  0.1060 -0.4816  0.5242
 2460TIP3    H2 7387   1.127   0.168   3.806 -0.0137 -0.0970 -0.1157
 2461TIP3   OH2 7388   2.247   5.522   0.087 -0.4848  0.2415  0.3467
 2461TIP3    H1 7389   2.275   5.431   0.099 -0.3542  0.3675  1.0005
 2461TIP3    H2 7390   2.192   5.540   0.163  1.2393  1.3955  1.3669
 2462TIP3   OH2 7391   1.484   4.359   0.602 -0.2549  0.0793  0.2692
 2462TIP3    H1 7392   1.532   4.303   0.664 -0.2298  0.8548  0.9636
 2462TIP3    H2 7393   1.461   4.300   0.530  1.2255 -0.4554  0.1830
 2463TIP3   OH2 7394   3.820   1.390   0.331 -0.0469 -0.8210 -0.2531
 2463TIP3    H1 7395   3.826   1.358   0.421  3.0031 -2.7077 -0.9815
 2463TIP3    H2 7396   3.856   1.479   0.335 -1.1381 -0.3952  0.5477
 2464TIP3   OH2 7397   4.964   4.862   2.258  0.0672  0.0464  0.1832
 2464TIP3    H1 7398   4.963   4.860   2.163 -1.9268  1.0193  0.1372
 2464TIP3    H2 7399   5.026   4.932   2.280  0.1069  0.2020 -0.4145
 2465TIP3   OH2 7400   2.428   5.253   5.208  0.5108  0.4596 -0.3824
 2465TIP3    H1 7401   2.397   5.217   5.125  0.9129  1.2826 -0.9042
 2465TIP3    H2 7402   2.393   5.341   5.211  0.5237  0.4491  0.3197
 2466TIP3   OH2 7403   1.350   2.296   1.276  0.2661 -0.1942  0.6732
 2466TIP3    H1 7404   1.425   2.255   1.320  1.9750  2.8344  0.8971
 2466TIP3    H2 7405   1.389   2.344   1.202 -1.1674  2.5495  1.5419
 2467TIP3   OH2 7406   3.766   1.758   0.626 -0.2835 -0.1717  0.2240
 2467TIP3    H1 7407   3.775   1.720   0.714 -1.2768  1.4550  1.0702
 2467TIP3    H2 7408   3.844   1.812   0.615 -0.9642  0.9907  0.8568
 2468TIP3   OH2 7409   5.828   5.877   2.159 -0.0927 -0.1202 -0.6809
 2468TIP3    H1 7410   5.912   5.904   2.122 -0.0129  0.1826 -0.2915
 2468TIP3    H2 7411   5.810   5.792   2.119  0.5071 -0.2912 -0.6037
 2469TIP3   OH2 7412   3.315   2.393   2.228 -0.0623 -0.0140 -0.3716
 2469TIP3    H1 7413   3.369   2.374   2.304  1.0122 -1.2707 -1.3873
 2469TIP3    H2 7414   3.230   2.418   2.264  0.4344 -0.5192  1.2304
 2470TIP3   OH2 7415   4.828   3.244   0.523  0.2942 -0.1092 -0.0622
 2470TIP3    H1 7416   4.733   3.246   0.533  0.3065  1.3039 -0.0566
 2470TIP3    H2 7417   4.844   3.169   0.466 -0.6718 -1.3840  1.2530
 2471TIP3   OH2 7418   4.333   2.511   4.398 -0.0794  0.0187  0.0882
 2471TIP3    H1 7419   4.326   2.417   4.413 -0.4864 -0.2018 -1.3946
 2471TIP3    H2 7420   4.263   2.549   4.452  0.9887 -0.3562  1.8440
 2472TIP3   OH2 7421   3.873   1.088   1.695 -0.0368 -0.0756 -0.0601
 2472TIP3    H1 7422   3.846   1.112   1.606 -2.1127 -0.5850  0.3854
 2472TIP3    H2 7423   3.898   0.996   1.688  2.0375  0.4655 -0.5286
 2473TIP3   OH2 7424   4.228   1.868   1.806  0.1695  0.2065  0.1375
 2473TIP3    H1 7425   4.177   1.788   1.815  0.4432  0.1439  1.2587
 2473TIP3    H2 7426   4.305   1.854   1.862 -0.5732  1.8710  1.6636
 2474TIP3   OH2 7427   0.882   3.990   5.113 -0.8711  0.0144  0.4791
 2474TIP3    H1 7428   0.942   4.063   5.093 -1.2530  0.4431  0.8909
 2474TIP3    H2 7429   0.811   4.030   5.163 -1.3525 -0.5495  0.2582
 2475TIP3   OH2 7430   6.035   5.504   4.256  0.0065 -0.3356 -0.0587
 2475TIP3    H1 7431   6.073   5.555   4.184 -0.4668  0.6368  0.3620
 2475TIP3    H2 7432   6.086   5.528   4.333 -1.2035  0.7330  0.4457
 2476TIP3   OH2 7433   0.574   2.213   2.548  0.0498  0.3023 -0.1822
 2476TIP3    H1 7434   0.490   2.176   2.521 -0.3753  1.3874 -0.4008
 2476TIP3    H2 7435   0.594   2.170   2.631 -0.5862 -0.1637 -0.2640
 2477TIP3   OH2 7436   1.635   5.633   5.134 -0.2618  0.1875 -0.0905
 2477TIP3    H1 7437   1.659   5.693   5.063  0.4518 -0.3836 -0.3443
 2477TIP3    H2 7438   1.627   5.689   5.211 -0.7246  0.7695 -0.5489
 2478TIP3   OH2 7439   2.519   2.129   4.086 -0.1705  0.0584 -0.4370
 2478TIP3    H1 7440   2.599   2.122   4.139 -1.1163 -0.7261  0.9457
 2478TIP3    H2 7441   2.484   2.040   4.086 -1.3625  0.5165 -0.5079
 2479TIP3   OH2 7442   3.022   1.070   1.755  0.2985 -0.3699  0.5056
 2479TIP3    H1 7443   2.959   1.104   1.691  1.0783 -0.7188 -0.4805
 2479TIP3    H2 7444   2.981   0.991   1.790 -0.8131  0.6607  1.6110
 2480TIP3   OH2 7445   5.280   5.057   1.245  0.1071  0.1175  0.2363
 2480TIP3    H1 7446   5.367   5.072   1.283  0.1296 -1.8463  1.1017
 2480TIP3    H2 7447   5.242   5.144   1.236  1.3682  0.8776  1.8055
 2481TIP3   OH2 7448   0.129   4.837   4.330  0.2205  0.3879 -0.6792
 2481TIP3    H1 7449   0.190   4.898   4.288 -0.8631  1.1540 -1.1839
 2481TIP3    H2 7450   0.113   4.875   4.417 -0.3353  0.7499 -0.9360
 2482TIP3   OH2 7451   4.716   5.143   4.128  0.1372  0.1729 -0.4679
 2482TIP3    H1 7452   4.769   5.218   4.102  0.8225 -0.6190 -1.4656
 2482TIP3    H2 7453   4.709   5.150   4.223  1.5186  0.6369 -0.3808
 2483TIP3   OH2 7454   0.329   1.419   0.114  0.1971  0.6692 -0.0242
 2483TIP3    H1 7455   0.394   1.473   0.160  0.1144  1.2857 -0.6153
 2483TIP3    H2 7456   0.336   1.333   0.155  1.8985  0.5137 -0.5400
 2484TIP3   OH2 7457   4.488   4.513   2.847 -0.1673  0.1069  0.1204
 2484TIP3    H1 7458   4.528   4.525   2.761  1.1404  3.3760  1.0260
 2484TIP3    H2 7459   4.553   4.463   2.897 -0.6565 -1.2393 -0.5248
 2485TIP3   OH2 7460   5.510   0.139   1.899  0.5553 -0.0396  0.1712
 2485TIP3    H1 7461   5.541   0.049   1.909  1.3119  0.3040  1.0078
 2485TIP3    H2 7462   5.560   0.189   1.963 -0.9908  0.7126  0.8515
 2486TIP3   OH2 7463   6.377   2.547   1.983 -0.3628 -0.3987 -0.0273
 2486TIP3    H1 7464   6.370   2.592   2.067 -3.8886 -4.2282  2.0606
 2486TIP3    H2 7465   6.300   2.576   1.934  0.9606  0.7827 -1.5186
 2487TIP3   OH2 7466   6.307   5.015   4.905 -0.1639  0.6848  0.4135
 2487TIP3    H1 7467   6.393   5.056   4.916  0.0155  0.4206 -0.0185
 2487TIP3    H2 7468   6.325   4.921   4.904 -0.3352  0.6521 -0.7212
 2488TIP3   OH2 7469   0.329   3.132   4.615 -0.1182 -0.4875  0.0329
 2488TIP3    H1 7470   0.293   3.203   4.668  0.5136 -0.1685  0.0427
 2488TIP3    H2 7471   0.423   3.133   4.633  0.1549 -0.1829 -1.2998
 2489TIP3   OH2 7472   4.758   3.552   1.639  0.0331  0.0132  0.0294
 2489TIP3    H1 7473   4.806   3.476   1.608  0.5266  0.6143 -0.7197
 2489TIP3    H2 7474   4.693   3.568   1.570  0.3983  0.6833 -0.1680
 2490TIP3   OH2 7475   2.290   1.179   0.663  0.0505 -0.4389  0.6109
 2490TIP3    H1 7476   2.237   1.182   0.743  0.4467 -0.4642  0.8758
 2490TIP3    H2 7477   2.302   1.085   0.647 -0.7631 -0.4541  0.0277
 2491TIP3   OH2 7478   3.438   1.171   4.783  0.3334 -0.1238  0.5425
 2491TIP3    H1 7479   3.384   1.094   4.801  0.6857 -0.6866 -0.6963
 2491TIP3    H2 7480   3.522   1.136   4.756  0.6373  0.7088  0.3679
 2492TIP3   OH2 7481   3.447   5.242   4.778  0.1287 -0.1901  0.6492
 2492TIP3    H1 7482   3.442   5.243   4.683  0.1692  0.7150  0.6522
 2492TIP3    H2 7483   3.534   5.209   4.798 -0.8470 -3.2817  0.4371
 2493TIP3   OH2 7484   1.822   4.240   1.171 -0.5965  0.4420  0.3724
 2493TIP3    H1 7485   1.832   4.193   1.254 -1.5275 -0.6748 -0.1350
 2493TIP3    H2 7486   1.882   4.196   1.111 -2.5190 -1.1363 -0.5072
 2494TIP3   OH2 7487   2.877   1.161   4.980  0.0877  0.6028  0.3364
 2494TIP3    H1 7488   2.805   1.153   5.042  0.3759 -1.8569  0.4900
 2494TIP3    H2 7489   2.835   1.185   4.897 -0.6909  0.8823  0.8056
 2495TIP3   OH2 7490   1.041   0.102   3.013 -0.2549 -0.3992 -0.1946
 2495TIP3    H1 7491   0.965   0.073   3.064  1.4271 -0.0608  2.7622
 2495TIP3    H2 7492   1.094   0.023   3.002  0.1833 -0.1548  0.1103
 2496TIP3   OH2 7493   4.855   3.286   1.908  0.3308  0.1977 -0.1029
 2496TIP3    H1 7494   4.881   3.196   1.927 -1.1661  0.0460  1.4958
 2496TIP3    H2 7495   4.802   3.279   1.828  2.6375  0.1261 -1.7030
 2497TIP3   OH2 7496   3.623   1.929   4.607  0.1291 -0.4127 -0.1914
 2497TIP3    H1 7497   3.541   1.978   4.613  0.6159  0.4159 -0.0872
 2497TIP3    H2 7498   3.618   1.885   4.522 -0.1448  0.1616 -0.4837
 2498TIP3   OH2 7499   3.323   5.058   1.549  0.3693 -0.4641  0.1527
 2498TIP3    H1 7500   3.233   5.088   1.563 -0.1361 -1.7272 -0.2565
 2498TIP3    H2 7501   3.333   5.055   1.454  1.2287  0.7380  0.1923
 2499TIP3   OH2 7502   4.111   5.589   3.822  0.0749 -0.1438  0.4796
 2499TIP3    H1 7503   4.171   5.557   3.890 -0.6701  0.4553  1.4471
 2499TIP3    H2 7504   4.161   5.583   3.741  0.3914 -2.6079  0.7758
 2500TIP3   OH2 7505   2.673   3.066   4.766  0.4958  0.6546  0.1911
 2500TIP3    H1 7506   2.633   3.047   4.851  0.5908  0.2285  0.1412
 2500TIP3    H2 7507   2.604   3.109   4.715  0.9959  2.7178  1.1433
 2501TIP3   OH2 7508   1.735   5.715   3.753 -0.3543  0.1658 -0.2768
 2501TIP3    H1 7509   1.692   5.751   3.676  0.4999  1.5308 -0.1433
 2501TIP3    H2 7510   1.813   5.770   3.766  0.7727 -1.4549  0.2108
 2502TIP3   OH2 7511   1.748   5.130   0.619 -0.7316 -0.3595 -0.3366
 2502TIP3    H1 7512   1.751   5.189   0.695  0.1714 -1.7779  0.7811
 2502TIP3    H2 7513   1.719   5.186   0.547 -0.9054  1.2094  0.8830
 2503TIP3   OH2 7514   5.512   2.366   3.375  0.0524 -0.6138  0.4861
 2503TIP3    H1 7515   5.534   2.441   3.430 -0.8386  0.8769 -1.1128
 2503TIP3    H2 7516   5.418   2.356   3.385 -0.2130  0.0296 -1.1538
 2504TIP3   OH2 7517   3.732   3.260   0.488 -0.4843  0.3212  0.3385
 2504TIP3    H1 7518   3.654   3.314   0.482 -0.5524  0.2937  0.8983
 2504TIP3    H2 7519   3.717   3.188   0.427 -0.8987  0.3142  0.4459
 2505TIP3   OH2 7520   3.468   2.629   2.536  1.4230  0.5601 -0.5809
 2505TIP3    H1 7521   3.479   2.683   2.614  0.3629 -0.4826  0.3296
 2505TIP3    H2 7522   3.374   2.633   2.518  1.2716 -1.1802 -0.3195
 2506TIP3   OH2 7523   1.525   1.273   1.597  0.1650 -0.0006 -0.2038
 2506TIP3    H1 7524   1.511   1.237   1.510 -0.3154  1.3629 -0.7091
 2506TIP3    H2 7525   1.612   1.313   1.593  0.6171 -0.9100  0.2952
 2507TIP3   OH2 7526   1.519   2.162   1.441  0.3009 -0.2070  0.0921
 2507TIP3    H1 7527   1.445   2.102   1.443  0.8094 -0.8488  0.2622
 2507TIP3    H2 7528   1.596   2.105   1.439  0.8270  0.4218  1.1387
 2508TIP3   OH2 7529   1.735   5.597   1.127  0.0503  0.1079  0.4216
 2508TIP3    H1 7530   1.761   5.596   1.219 -0.1445 -1.2102  0.4880
 2508TIP3    H2 7531   1.791   5.664   1.087  2.1189 -1.1888  0.9688
 2509TIP3   OH2 7532   1.445   2.042   4.077 -0.0242  0.1062  0.3162
 2509TIP3    H1 7533   1.390   1.968   4.054 -0.5765  0.3567  0.8298
 2509TIP3    H2 7534   1.456   2.036   4.172 -0.5446  0.9961  0.4471
 2510TIP3   OH2 7535   5.464   0.890   1.902  0.5218 -0.0443  0.1529
 2510TIP3    H1 7536   5.557   0.866   1.905  0.0986 -1.7120  1.2470
 2510TIP3    H2 7537   5.423   0.835   1.968 -1.7518 -1.5740 -2.3364
 2511TIP3   OH2 7538   3.008   4.380   1.023  0.0413  0.5712  0.5576
 2511TIP3    H1 7539   2.954   4.432   1.083  1.1120  2.4970 -0.0731
 2511TIP3    H2 7540   3.023   4.437   0.948  3.1020  0.2187  0.7909
 2512TIP3   OH2 7541   0.609   0.604   0.769 -0.4324  0.1827  0.3418
 2512TIP3    H1 7542   0.684   0.546   0.784  0.0828  0.5712 -0.6014
 2512TIP3    H2 7543   0.631   0.685   0.816  0.1047  0.5686 -0.5526
 2513TIP3   OH2 7544   5.054   2.459   0.647 -0.2449  0.9172  0.1403
 2513TIP3    H1 7545   4.978   2.452   0.588  1.1967  0.3461 -1.7446
 2513TIP3    H2 7546   5.129   2.458   0.588  1.2359  1.7462  1.9466
 2514TIP3   OH2 7547   5.086   3.141   4.627 -0.0535  0.1693  0.1523
 2514TIP3    H1 7548   5.165   3.088   4.615  0.6060  1.1606  0.0722
 2514TIP3    H2 7549   5.118   3.230   4.642 -1.1658  0.7180 -0.5877
 2515TIP3   OH2 7550   0.793   0.141   0.515 -0.8675  0.1960  0.8843
 2515TIP3    H1 7551   0.805   0.233   0.494 -2.5451  0.6030  1.5387
 2515TIP3    H2 7552   0.872   0.115   0.561  0.3096  0.8668 -0.6917
 2516TIP3   OH2 7553   4.701   1.621   0.952  0.2867  0.4308  0.0067
 2516TIP3    H1 7554   4.711   1.581   1.038  0.7627  2.6356  1.0403
 2516TIP3    H2 7555   4.612   1.597   0.924  0.9696 -2.3379 -0.0532
 2517TIP3   OH2 7556   4.036   1.856   2.506  0.0196  0.8304 -0.3630
 2517TIP3    H1 7557   3.949   1.828   2.476 -0.1053 -0.3871  1.0239
 2517TIP3    H2 7558   4.079   1.774   2.533  0.7923  1.6525  1.0017
 2518TIP3   OH2 7559   0.610   4.335   1.627  0.4323 -0.0132 -0.6210
 2518TIP3    H1 7560   0.631   4.425   1.605 -0.5094  0.1310 -0.9872
 2518TIP3    H2 7561   0.688   4.285   1.604  1.1617  0.7633  0.0693
 2519TIP3   OH2 7562   6.039   1.482   2.948  0.0878 -0.1054  0.5739
 2519TIP3    H1 7563   6.098   1.419   2.907 -0.2303  0.5766 -0.9876
 2519TIP3    H2 7564   5.957   1.475   2.899  0.1754  1.7968  0.0657
 2520TIP3   OH2 7565   2.846   4.444   2.143 -0.0985 -0.4038 -0.1266
 2520TIP3    H1 7566   2.819   4.488   2.062  1.0997  1.8418  0.6195
 2520TIP3    H2 7567   2.872   4.357   2.114  1.5495  0.7326 -2.4482
 2521TIP3   OH2 7568   5.469   5.012   5.033  0.2956 -0.0395 -0.0176
 2521TIP3    H1 7569   5.558   5.008   5.067  0.6061 -3.1169 -0.8312
 2521TIP3    H2 7570   5.478   5.003   4.938 -0.8635  0.2221 -0.1754
 2522TIP3   OH2 7571   2.856   2.298   3.826  0.0310 -0.0751  0.3252
 2522TIP3    H1 7572   2.923   2.280   3.760 -0.7961 -1.5297 -0.1568
 2522TIP3    H2 7573   2.781   2.330   3.776 -0.1718  0.0238  0.6911
 2523TIP3   OH2 7574   6.178   2.500   0.900 -0.1183 -0.1938  0.2217
 2523TIP3    H1 7575   6.137   2.539   0.978  0.3594  2.5752 -0.8234
 2523TIP3    H2 7576   6.272   2.507   0.916 -0.0142 -0.9127 -0.0263
 2524TIP3   OH2 7577   3.677   3.278   2.000 -0.3697 -0.5102  0.2900
 2524TIP3    H1 7578   3.741   3.243   1.939 -0.2907  1.1057 -0.6358
 2524TIP3    H2 7579   3.720   3.276   2.086  0.2270 -1.0945 -0.0215
 2525TIP3   OH2 7580   2.954   5.691   3.238 -0.1255  0.5261  0.0861
 2525TIP3    H1 7581   3.024   5.718   3.297  0.5415 -0.8175 -0.0424
 2525TIP3    H2 7582   2.975   5.600   3.217 -0.9186  0.6669 -1.4157
 2526TIP3   OH2 7583   2.611   0.624   1.056 -0.4823 -0.0426  0.0167
 2526TIP3    H1 7584   2.643   0.652   1.142 -0.1864 -0.9644  0.2230
 2526TIP3    H2 7585   2.671   0.554   1.030 -1.8219 -1.2771  0.0511
 2527TIP3   OH2 7586   5.146   0.976   1.901 -0.5831  0.0265 -0.1251
 2527TIP3    H1 7587   5.128   1.035   1.828 -1.4799 -1.0969 -0.8464
 2527TIP3    H2 7588   5.221   0.924   1.872 -0.0015  0.5853  0.3711
 2528TIP3   OH2 7589   5.307   5.428   2.933 -0.1120 -0.1164  0.0410
 2528TIP3    H1 7590   5.287   5.359   2.996  0.8274 -0.0629  0.4144
 2528TIP3    H2 7591   5.399   5.449   2.949 -0.3990  1.2761 -0.0160
 2529TIP3   OH2 7592   4.076   3.736   3.195 -0.2214 -0.6252 -0.0361
 2529TIP3    H1 7593   4.000   3.680   3.214 -0.8592  0.5631  1.0521
 2529TIP3    H2 7594   4.038   3.823   3.180  0.8931 -0.1380 -0.0992
 2530TIP3   OH2 7595   2.459   4.337   3.735 -0.3693 -0.1258  0.0297
 2530TIP3    H1 7596   2.491   4.358   3.823  0.7238  0.9720 -0.6007
 2530TIP3    H2 7597   2.381   4.392   3.724 -1.6307 -1.6247  0.9633
 2531TIP3   OH2 7598   0.453   4.055   4.986  0.2724 -0.1069  0.5421
 2531TIP3    H1 7599   0.454   3.959   4.991 -0.7109 -0.1107  0.6987
 2531TIP3    H2 7600   0.491   4.083   5.069 -2.9611 -0.3463  2.2575
 2532TIP3   OH2 7601   2.040   4.763   4.923  0.1277  0.0586 -0.3599
 2532TIP3    H1 7602   1.994   4.816   4.989  0.3161  0.5275 -0.5954
 2532TIP3    H2 7603   1.970   4.727   4.868 -0.0962 -1.1468  0.6729
 2533TIP3   OH2 7604   4.313   0.172   1.641  0.3768  0.2675  0.3240
 2533TIP3    H1 7605   4.349   0.110   1.705  0.0242  0.1701  0.4349
 2533TIP3    H2 7606   4.388   0.221   1.609  0.5366  0.4425  0.9541
 2534TIP3   OH2 7607   3.287   0.095   2.617 -0.3584  0.2836 -0.6837
 2534TIP3    H1 7608   3.280   0.190   2.613 -2.0200  0.2491  0.2735
 2534TIP3    H2 7609   3.350   0.078   2.687  1.5036  0.6459 -2.1977
 2535TIP3   OH2 7610   2.410   3.394   3.036 -0.0309 -0.1701 -1.0005
 2535TIP3    H1 7611   2.444   3.352   3.115  2.7908  1.1972 -1.3620
 2535TIP3    H2 7612   2.434   3.336   2.964  0.5936  0.2551 -1.1486
 2536TIP3   OH2 7613   0.691   0.902   3.345  0.3831 -0.1858 -0.2846
 2536TIP3    H1 7614   0.703   0.891   3.439 -1.5674 -0.5475 -0.0537
 2536TIP3    H2 7615   0.716   0.993   3.328 -1.2941  0.5540  0.9753
 2537TIP3   OH2 7616   1.955   2.690   3.105  0.0341 -0.2257  0.2166
 2537TIP3    H1 7617   1.877   2.731   3.066 -1.0735 -1.4138  1.0860
 2537TIP3    H2 7618   2.011   2.670   3.030 -2.0813 -2.5319 -0.8954
 2538TIP3   OH2 7619   3.848   2.402  -0.004  0.3905  1.3416  0.7068
 2538TIP3    H1 7620   3.933   2.440  -0.025  0.3324  0.9168 -0.3582
 2538TIP3    H2 7621   3.804   2.468   0.049  1.5904  1.3411  1.7423
 2539TIP3   OH2 7622   1.771   5.001   4.801  0.5831  0.4921  0.2222
 2539TIP3    H1 7623   1.702   4.973   4.741  0.6092  1.1512 -0.1272
 2539TIP3    H2 7624   1.785   4.926   4.858  0.5495 -0.1487 -0.5880
 2540TIP3   OH2 7625   3.552   4.454   0.560  0.0630 -0.3900  0.6212
 2540TIP3    H1 7626   3.527   4.522   0.624  1.3760  0.0192  0.7241
 2540TIP3    H2 7627   3.490   4.383   0.577  0.1515 -0.1540  2.1230
 2541TIP3   OH2 7628   4.484   1.014   3.348 -0.4013  0.5186 -0.6635
 2541TIP3    H1 7629   4.565   1.045   3.387 -0.4278  1.4429 -1.3194
 2541TIP3    H2 7630   4.448   0.953   3.412  1.6685 -1.2692 -1.1115
 2542TIP3   OH2 7631   2.718   0.201   3.207 -0.6789 -0.0972  0.1839
 2542TIP3    H1 7632   2.707   0.271   3.142 -1.6793 -0.3591  0.0530
 2542TIP3    H2 7633   2.703   0.243   3.291  2.4667  0.6856  0.5037
 2543TIP3   OH2 7634   2.210   4.457   2.640  0.3122  0.3275  0.3893
 2543TIP3    H1 7635   2.197   4.536   2.691  1.0525  0.2012  0.7881
 2543TIP3    H2 7636   2.301   4.462   2.609  0.6678 -0.7774  1.1677
 2544TIP3   OH2 7637   4.932   2.122   1.737 -0.1724  0.0750 -0.0404
 2544TIP3    H1 7638   4.984   2.043   1.722  1.3359  0.8902  0.6725
 2544TIP3    H2 7639   4.878   2.130   1.659  0.2461 -1.2064 -0.4896
 2545TIP3   OH2 7640   5.928   3.798   3.675 -0.3034  0.1407 -0.1935
 2545TIP3    H1 7641   5.975   3.736   3.730 -1.4594  1.4106  2.3634
 2545TIP3    H2 7642   5.896   3.745   3.601 -0.2398 -2.0410  1.2663
 2546TIP3   OH2 7643   2.398   3.535   1.281  0.4024  0.1558 -0.1511
 2546TIP3    H1 7644   2.468   3.501   1.225  0.5531  0.1390  0.0478
 2546TIP3    H2 7645   2.439   3.606   1.330  1.0099 -1.4402  1.8177
 2547TIP3   OH2 7646   1.008   4.429   1.261 -0.1963  0.2688  0.5064
 2547TIP3    H1 7647   1.041   4.358   1.206 -0.3139  1.6615 -1.4479
 2547TIP3    H2 7648   1.085   4.466   1.303  0.0073 -0.2287  0.5697
 2548TIP3   OH2 7649   5.455   3.481   3.756 -0.4222 -0.3343  0.0794
 2548TIP3    H1 7650   5.541   3.516   3.733  0.0613 -0.8042  1.0833
 2548TIP3    H2 7651   5.397   3.557   3.757  0.4244  0.3357  1.3965
 2549TIP3   OH2 7652   0.628   2.813   2.445 -0.3974  0.6621 -0.1837
 2549TIP3    H1 7653   0.535   2.791   2.446 -0.3560  0.4919  0.7362
 2549TIP3    H2 7654   0.629   2.909   2.439 -0.5949  0.5750 -2.1411
 2550TIP3   OH2 7655   2.488   1.840   3.726  0.9470 -0.2005  0.2422
 2550TIP3    H1 7656   2.560   1.782   3.750  0.5525 -0.5462  0.6061
 2550TIP3    H2 7657   2.531   1.922   3.699  1.5526 -0.9065 -1.0466
 2551TIP3   OH2 7658   5.381   5.041   0.985  0.6361 -0.0604  0.0932
 2551TIP3    H1 7659   5.416   4.952   0.996  0.0833 -0.4465 -1.0681
 2551TIP3    H2 7660   5.356   5.068   1.073 -1.0411 -1.8620  0.2374
 2552TIP3   OH2 7661   5.207   1.189   3.526  0.2249  0.1582  0.3866
 2552TIP3    H1 7662   5.252   1.144   3.597  0.8638 -1.2393 -0.8600
 2552TIP3    H2 7663   5.130   1.135   3.508  0.6962 -0.1605 -0.7561
 2553TIP3   OH2 7664   3.567   4.515   1.873 -0.3098 -0.3991  0.2884
 2553TIP3    H1 7665   3.530   4.602   1.891 -1.9834 -0.9024 -0.5764
 2553TIP3    H2 7666   3.620   4.495   1.951 -1.4790  0.5504  1.3678
 2554TIP3   OH2 7667   4.069   2.284   1.537 -0.7310 -0.4836 -0.2060
 2554TIP3    H1 7668   4.072   2.364   1.590 -0.9904 -0.7988  0.2858
 2554TIP3    H2 7669   3.976   2.261   1.535 -0.8820  0.1139 -1.6883
 2555TIP3   OH2 7670   4.174   3.234   0.866  0.6062 -0.3093 -0.5240
 2555TIP3    H1 7671   4.219   3.232   0.950 -1.2973 -0.9346  0.5443
 2555TIP3    H2 7672   4.129   3.150   0.861 -2.0236  0.9901 -0.5396
 2556TIP3   OH2 7673   3.989   4.027   2.980  0.3375  0.2956 -0.5749
 2556TIP3    H1 7674   4.028   4.058   3.061 -1.2619 -0.1118  0.4025
 2556TIP3    H2 7675   4.063   4.016   2.920  1.5412  0.7010  0.7762
 2557TIP3   OH2 7676   0.347   1.538   3.357 -0.1168 -0.0706 -0.0438
 2557TIP3    H1 7677   0.300   1.581   3.429 -1.1701  0.3216 -0.9372
 2557TIP3    H2 7678   0.288   1.544   3.283  1.8042  1.4912 -1.5643
 2558TIP3   OH2 7679   1.678   5.898   1.596 -0.0341  0.1714  0.8311
 2558TIP3    H1 7680   1.652   5.951   1.520  0.9932  0.9734  1.0103
 2558TIP3    H2 7681   1.597   5.858   1.626 -0.8158  1.4484  0.5188
 2559TIP3   OH2 7682   0.391   2.958   0.740 -0.2650  0.2924 -0.2743
 2559TIP3    H1 7683   0.434   2.903   0.674  0.7539  2.4734 -1.5621
 2559TIP3    H2 7684   0.298   2.950   0.720 -0.0949 -0.4915 -0.8094
 2560TIP3   OH2 7685   0.859   0.902   2.628  0.4330  0.1781  0.0424
 2560TIP3    H1 7686   0.893   0.988   2.652  0.1257  0.1318  0.6496
 2560TIP3    H2 7687   0.766   0.917   2.611  0.4886  0.0637 -0.3746
 2561TIP3   OH2 7688   6.037   0.575   4.396 -0.1232  0.2532  0.2701
 2561TIP3    H1 7689   5.997   0.527   4.324 -2.3274 -1.4593  2.4597
 2561TIP3    H2 7690   6.120   0.531   4.411 -1.2090 -1.6636  0.9301
 2562TIP3   OH2 7691   2.239   2.079   0.818 -0.4662  0.0658 -0.4468
 2562TIP3    H1 7692   2.302   2.144   0.848 -0.8706  1.0078 -1.5496
 2562TIP3    H2 7693   2.286   1.996   0.822  0.8556  0.7489 -1.2554
 2563TIP3   OH2 7694   2.504   0.883   2.567  0.4403  0.0368  0.4233
 2563TIP3    H1 7695   2.547   0.954   2.519 -0.8630  0.9990  0.6282
 2563TIP3    H2 7696   2.476   0.924   2.649 -3.6647  0.4357 -0.9309
 2564TIP3   OH2 7697   3.954   0.035   4.812 -0.6637 -0.7875  0.3249
 2564TIP3    H1 7698   3.962  -0.036   4.748  0.4422  0.1550 -0.6396
 2564TIP3    H2 7699   3.951   0.115   4.759  1.5256  0.1222  1.4586
 2565TIP3   OH2 7700   4.044   2.343   1.886 -0.1187  0.2063 -0.4571
 2565TIP3    H1 7701   3.987   2.312   1.956 -0.6008 -2.4029 -1.8754
 2565TIP3    H2 7702   4.132   2.322   1.916 -0.0960  1.4267  0.4068
 2566TIP3   OH2 7703   0.615   3.862   4.583 -0.4697 -0.1827 -0.2129
 2566TIP3    H1 7704   0.545   3.893   4.525  0.5071  1.8654 -0.3832
 2566TIP3    H2 7705   0.571   3.846   4.667 -0.8949  3.4816  0.4610
 2567TIP3   OH2 7706   4.705   3.718   2.756 -0.4490 -0.4642  0.1416
 2567TIP3    H1 7707   4.674   3.802   2.792 -1.8473 -0.3781 -1.1641
 2567TIP3    H2 7708   4.799   3.717   2.775 -0.3048  1.6380 -0.2465
 2568TIP3   OH2 7709   3.084   1.715   3.795  0.1939  0.4484  0.5833
 2568TIP3    H1 7710   3.057   1.687   3.708 -3.1797 -0.4502  1.7662
 2568TIP3    H2 7711   3.093   1.810   3.788  0.3926  0.3492 -0.7894
 2569TIP3   OH2 7712   0.539   3.259   0.896 -0.4756  0.1089 -0.7385
 2569TIP3    H1 7713   0.526   3.179   0.947  0.9181  0.5317  0.3297
 2569TIP3    H2 7714   0.451   3.294   0.884 -0.9593 -0.7780  0.0990
 2570TIP3   OH2 7715   4.338   3.082   3.807  0.1683 -0.1238  0.3836
 2570TIP3    H1 7716   4.397   3.117   3.873  2.5097 -0.8113 -1.1984
 2570TIP3    H2 7717   4.294   3.158   3.770  0.3005  0.4419  1.3600
 2571TIP3   OH2 7718   5.126   5.770   2.120 -0.3859  0.3363  0.2310
 2571TIP3    H1 7719   5.079   5.733   2.196 -3.3283  1.7349 -0.7374
 2571TIP3    H2 7720   5.203   5.812   2.158 -1.2582  0.1940  2.3394
 2572TIP3   OH2 7721   2.417   4.760   4.278 -0.1941 -0.2195  0.3021
 2572TIP3    H1 7722   2.360   4.777   4.203  0.8346 -0.2331 -0.5054
 2572TIP3    H2 7723   2.473   4.838   4.284 -0.2429 -0.2341  1.0355
 2573TIP3   OH2 7724   1.729   5.815   0.277  0.2206  0.1314  0.3506
 2573TIP3    H1 7725   1.793   5.789   0.344 -0.7356  0.7612  1.5406
 2573TIP3    H2 7726   1.762   5.898   0.242  1.5556 -0.9583 -1.1399
 2574TIP3   OH2 7727   4.708   3.964   5.210 -0.0769  0.2727 -0.0719
 2574TIP3    H1 7728   4.793   4.007   5.206 -0.2452  0.6026 -0.0882
 2574TIP3    H2 7729   4.689   3.939   5.120 -0.7590  1.6864 -0.3449
 2575TIP3   OH2 7730   5.086   0.227   3.892 -0.0869  0.3887 -0.2542
 2575TIP3    H1 7731   5.007   0.274   3.865 -0.9943 -0.6601  0.4622
 2575TIP3    H2 7732   5.053   0.155   3.947  1.4285  0.3830  0.6965
 2576TIP3   OH2 7733   2.908   0.393   3.086 -0.1979 -0.2759 -0.0412
 2576TIP3    H1 7734   2.833   0.412   3.030 -0.2071  1.0976  0.4002
 2576TIP3    H2 7735   2.971   0.348   3.028 -1.2866 -1.3338 -0.4408
 2577TIP3   OH2 7736   3.120   4.628   1.922 -0.5739  0.2018 -0.3204
 2577TIP3    H1 7737   3.080   4.541   1.916 -0.7361  0.1384  1.1977
 2577TIP3    H2 7738   3.214   4.610   1.922 -0.6032  0.0473 -0.3551
 2578TIP3   OH2 7739   4.564   0.837   3.577 -0.1736  0.2630  0.4496
 2578TIP3    H1 7740   4.634   0.877   3.627  0.7298  0.0881 -0.6357
 2578TIP3    H2 7741   4.601   0.754   3.545 -1.0556 -0.0976  0.3259
 2579TIP3   OH2 7742   2.832   4.192   1.845  0.0787 -0.0721  0.0824
 2579TIP3    H1 7743   2.868   4.173   1.932  0.9354 -1.0437 -0.4613
 2579TIP3    H2 7744   2.811   4.106   1.808  0.2041  0.2889 -0.8685
 2580TIP3   OH2 7745   0.160   1.304   4.872 -0.0444 -0.5391 -0.4239
 2580TIP3    H1 7746   0.235   1.351   4.835  0.1970 -0.2859  0.3665
 2580TIP3    H2 7747   0.198   1.231   4.920 -0.4777 -2.4407 -2.7888
 2581TIP3   OH2 7748   3.688   0.229   1.752  0.8067  0.4636  0.6222
 2581TIP3    H1 7749   3.660   0.157   1.808  1.1615 -0.3157 -0.1648
 2581TIP3    H2 7750   3.737   0.288   1.809  2.1996 -0.9133  0.9098
 2582TIP3   OH2 7751   5.053   3.499   1.922  0.3857  0.3764 -0.2364
 2582TIP3    H1 7752   4.996   3.575   1.905  1.0351  1.1885  1.0550
 2582TIP3    H2 7753   4.996   3.423   1.909  0.0212  0.9789 -2.7560
 2583TIP3   OH2 7754   1.291   1.755   3.207  0.1744  0.4493  0.0751
 2583TIP3    H1 7755   1.380   1.756   3.171  0.0530  0.2174 -0.2338
 2583TIP3    H2 7756   1.256   1.670   3.181  0.0967  0.2571  0.7672
 2584TIP3   OH2 7757   1.596   4.992   2.123  0.6417  0.4399  0.7228
 2584TIP3    H1 7758   1.549   5.032   2.050  0.5076 -0.2035  0.4520
 2584TIP3    H2 7759   1.532   4.933   2.164  1.7822 -2.1769 -1.0065
 2585TIP3   OH2 7760   0.177   1.718   2.624  0.6566  0.2215 -0.3416
 2585TIP3    H1 7761   0.082   1.716   2.618  0.5122 -0.8909  1.5622
 2585TIP3    H2 7762   0.205   1.632   2.594  1.1185  0.7028 -1.3285
 2586TIP3   OH2 7763   3.221   2.628   0.603 -0.6360 -0.3745 -0.1190
 2586TIP3    H1 7764   3.146   2.637   0.662 -0.2935  1.2043  0.0963
 2586TIP3    H2 7765   3.282   2.572   0.652 -0.9442 -0.2501  0.4232
 2587TIP3   OH2 7766   5.882   4.538   0.441  0.0062  0.2520  0.1236
 2587TIP3    H1 7767   5.976   4.520   0.440 -0.1436 -0.9221 -2.3621
 2587TIP3    H2 7768   5.843   4.458   0.475 -0.1484 -0.0313 -0.6858
 2588TIP3   OH2 7769   5.774   3.398   2.745  0.1056  0.0773 -0.2507
 2588TIP3    H1 7770   5.829   3.446   2.682  0.2767  0.8872  0.4939
 2588TIP3    H2 7771   5.805   3.308   2.739  0.6727  0.2927 -0.7441
 2589TIP3   OH2 7772   4.325   4.077   4.396  0.0875 -0.1947  0.4073
 2589TIP3    H1 7773   4.399   4.090   4.456  1.1852  0.6793 -1.0645
 2589TIP3    H2 7774   4.323   4.156   4.343 -0.1403 -1.3818 -1.4474
 2590TIP3   OH2 7775   1.616   2.837   5.042 -0.0008 -0.3458  0.2669
 2590TIP3    H1 7776   1.610   2.810   5.134  0.0857 -1.8230 -0.1403
 2590TIP3    H2 7777   1.525   2.846   5.014 -0.0551 -1.3995  0.0836
 2591TIP3   OH2 7778   3.722   3.890   0.425 -0.9786  0.2634  0.1632
 2591TIP3    H1 7779   3.709   3.954   0.495  5.8099  0.6610  1.7571
 2591TIP3    H2 7780   3.714   3.805   0.469 -1.1051  0.3454  0.3012
 2592TIP3   OH2 7781   3.471   3.775   2.672  0.0622  0.2604 -0.5011
 2592TIP3    H1 7782   3.421   3.707   2.717  0.7572  0.2776  0.3325
 2592TIP3    H2 7783   3.419   3.854   2.682 -1.1581 -0.2785 -2.1920
 2593TIP3   OH2 7784   5.760   4.094   1.566  0.5777 -0.0861  0.1305
 2593TIP3    H1 7785   5.680   4.062   1.525  0.0020  0.4684  0.8009
 2593TIP3    H2 7786   5.752   4.068   1.658  1.2860 -0.2567  0.1479
 2594TIP3   OH2 7787   3.438   2.163   4.734  0.1696  0.4055  0.0349
 2594TIP3    H1 7788   3.408   2.075   4.753 -0.1571  0.5847  0.3623
 2594TIP3    H2 7789   3.359   2.217   4.735 -0.3776  0.0705 -4.3525
 2595TIP3   OH2 7790   3.863   5.552   3.064  0.7102  0.2341 -0.2597
 2595TIP3    H1 7791   3.798   5.526   3.129  0.8759  0.7200  0.1109
 2595TIP3    H2 7792   3.896   5.470   3.027  0.5332 -0.0401  0.1935
 2596TIP3   OH2 7793   2.928   4.654   2.775  0.0425  0.6272  0.0543
 2596TIP3    H1 7794   2.887   4.594   2.837  0.2171 -0.1912 -0.5924
 2596TIP3    H2 7795   2.857   4.711   2.746 -0.4646 -0.2292 -0.4242
 2597TIP3   OH2 7796   4.070   3.018   2.963  0.3887 -0.3069  0.1649
 2597TIP3    H1 7797   4.016   3.024   3.042  0.0145 -0.6038 -0.0673
 2597TIP3    H2 7798   4.040   3.091   2.908 -0.4100 -1.0107 -0.3499
 2598TIP3   OH2 7799   0.054   3.741   4.133  0.6134 -0.3871  0.1410
 2598TIP3    H1 7800   0.116   3.668   4.128  0.4618 -0.5146  0.0979
 2598TIP3    H2 7801  -0.002   3.731   4.056  0.3785 -0.4242  0.3121
 2599TIP3   OH2 7802   2.760   2.877   0.008  0.2418  0.0043  0.1241
 2599TIP3    H1 7803   2.681   2.867   0.060 -0.1723  0.6467 -0.3712
 2599TIP3    H2 7804   2.796   2.962   0.033  0.7732 -0.2789  0.3406
 2600TIP3   OH2 7805   4.486   0.298   1.890 -0.2221 -0.2911  0.5584
 2600TIP3    H1 7806   4.456   0.225   1.944 -0.5319  0.3086  1.2191
 2600TIP3    H2 7807   4.420   0.367   1.904 -0.2427 -0.0785 -0.4992
 2601TIP3   OH2 7808   4.718   4.959   3.226 -0.1585 -0.4232 -0.2750
 2601TIP3    H1 7809   4.682   4.947   3.314 -1.4367  0.6791 -0.6221
 2601TIP3    H2 7810   4.675   4.892   3.173  0.2543 -0.7730 -0.1810
 2602TIP3   OH2 7811   6.155   3.720   4.753  0.1265  0.0262 -0.6988
 2602TIP3    H1 7812   6.106   3.644   4.784  1.1519  0.2524  1.6256
 2602TIP3    H2 7813   6.219   3.684   4.692 -0.5881 -0.7143 -1.0325
 2603TIP3   OH2 7814   3.490   2.495   3.416 -0.5283 -0.0416  0.1709
 2603TIP3    H1 7815   3.418   2.481   3.355  0.1777  0.8585 -0.9124
 2603TIP3    H2 7816   3.564   2.521   3.360  0.9856 -2.0720  1.1030
 2604TIP3   OH2 7817   5.868   2.580   2.277  0.1564  0.5504  0.2222
 2604TIP3    H1 7818   5.871   2.568   2.182  1.8379  2.8493 -0.0845
 2604TIP3    H2 7819   5.959   2.593   2.303  0.0809 -2.5522  2.6059
 2605TIP3   OH2 7820   0.075   2.713   1.703  0.8818  0.2636  0.4437
 2605TIP3    H1 7821   0.054   2.630   1.744 -1.7567  0.1092 -1.0104
 2605TIP3    H2 7822   0.052   2.779   1.768  1.4298 -0.0689  0.9900
 2606TIP3   OH2 7823   0.805   4.048   4.790 -0.0379 -0.3000  0.3896
 2606TIP3    H1 7824   0.884   4.096   4.765 -0.4930  0.3199  0.1131
 2606TIP3    H2 7825   0.827   4.006   4.873  0.9044 -0.9206 -0.1588
 2607TIP3   OH2 7826   4.822   3.929   0.376  0.3216  0.3348 -0.3636
 2607TIP3    H1 7827   4.882   4.003   0.367 -0.5712  1.0244 -0.7538
 2607TIP3    H2 7828   4.769   3.950   0.452  0.7979 -0.4605  0.2185
 2608TIP3   OH2 7829   4.852   1.527   2.174  0.7367 -0.2132 -0.5843
 2608TIP3    H1 7830   4.796   1.529   2.251  0.0635  0.8164 -1.0798
 2608TIP3    H2 7831   4.932   1.483   2.203  1.4048  2.0603  1.3262
 2609TIP3   OH2 7832   3.803   0.516   2.829  0.5244  0.4745  0.0228
 2609TIP3    H1 7833   3.757   0.588   2.786 -0.6051 -0.5439 -0.5250
 2609TIP3    H2 7834   3.761   0.507   2.914  0.6413  0.4368  0.0777
 2610TIP3   OH2 7835   5.121   0.896   2.200 -0.3971  0.0787 -0.4261
 2610TIP3    H1 7836   5.025   0.893   2.204 -0.5238  1.1954 -1.6711
 2610TIP3    H2 7837   5.140   0.906   2.107  0.9604 -0.5797 -0.2348
 2611TIP3   OH2 7838   1.689   0.842   5.050  0.2340  0.4639  0.2565
 2611TIP3    H1 7839   1.777   0.809   5.071 -0.0933 -1.6055 -1.2683
 2611TIP3    H2 7840   1.703   0.933   5.024  1.7584  0.5171  1.1462
 2612TIP3   OH2 7841   4.753   5.916   0.745  0.0262 -0.0488  0.3997
 2612TIP3    H1 7842   4.711   5.868   0.817 -1.0122  0.4162  0.1223
 2612TIP3    H2 7843   4.846   5.892   0.750  0.9168  3.0739  4.5098
 2613TIP3   OH2 7844   4.448   5.039   4.111 -0.0903 -0.1881 -0.2561
 2613TIP3    H1 7845   4.416   4.992   4.188  0.5664 -0.9684 -0.4445
 2613TIP3    H2 7846   4.543   5.032   4.116  0.0205  0.9274 -0.4246
 2614TIP3   OH2 7847   1.274   0.552   0.215 -0.2748  0.7590  0.7104
 2614TIP3    H1 7848   1.183   0.571   0.194 -0.9824 -2.3626  0.5049
 2614TIP3    H2 7849   1.323   0.581   0.137 -1.3972  0.2415 -0.2094
 2615TIP3   OH2 7850   1.179   0.037   1.748 -0.2529 -0.7395 -0.0758
 2615TIP3    H1 7851   1.192  -0.034   1.685  0.0446  0.3205 -1.2620
 2615TIP3    H2 7852   1.231   0.011   1.824  1.1284 -1.0711 -1.0834
 2616TIP3   OH2 7853   0.170   0.402   1.495 -0.0245  0.3279 -0.0083
 2616TIP3    H1 7854   0.208   0.438   1.416 -0.4761 -0.0842 -0.4233
 2616TIP3    H2 7855   0.224   0.436   1.566  0.3517  0.7416 -0.4875
 2617TIP3   OH2 7856   5.850   3.483   4.576  0.7570 -0.4463  0.1422
 2617TIP3    H1 7857   5.874   3.548   4.511  0.0551 -0.7210 -0.4093
 2617TIP3    H2 7858   5.820   3.407   4.525 -1.8220  0.0820  0.7315
 2618TIP3   OH2 7859   1.618   1.071   2.145  0.4033  0.7902 -0.3070
 2618TIP3    H1 7860   1.587   0.981   2.148  0.9162  0.6083 -0.3047
 2618TIP3    H2 7861   1.598   1.107   2.232 -1.4808  1.2640 -0.9023
 2619TIP3   OH2 7862   0.771   5.987   0.282  0.2285 -0.3443 -0.4728
 2619TIP3    H1 7863   0.755   5.932   0.359  0.4010  0.5080  0.1949
 2619TIP3    H2 7864   0.689   5.986   0.234 -0.4564  0.4609  0.6201
 2620TIP3   OH2 7865   2.115   4.886   1.114 -0.0132  0.2064  0.0826
 2620TIP3    H1 7866   2.198   4.850   1.142  1.0268  1.5988 -1.0598
 2620TIP3    H2 7867   2.058   4.878   1.191  1.8645  1.3244  1.6734
 2621TIP3   OH2 7868   3.806   3.445   0.776  0.4544 -0.4036 -0.0255
 2621TIP3    H1 7869   3.884   3.500   0.787 -0.8143  1.4998  0.0993
 2621TIP3    H2 7870   3.795   3.439   0.681  0.8058 -0.7666 -0.0450
 2622TIP3   OH2 7871   4.590   0.825   3.175 -0.1428 -0.5574  0.0397
 2622TIP3    H1 7872   4.571   0.894   3.239  0.8090 -0.6832  0.4752
 2622TIP3    H2 7873   4.663   0.776   3.213  1.6407  0.4092 -1.8621
 2623TIP3   OH2 7874   4.961   4.336   3.080  0.4428  0.1842  0.0077
 2623TIP3    H1 7875   5.048   4.299   3.094  0.2681 -0.0490  0.4984
 2623TIP3    H2 7876   4.974   4.431   3.088  0.5250  0.1094  0.8047
 2624TIP3   OH2 7877   0.388   4.748   4.202  0.1259  0.3829 -0.1899
 2624TIP3    H1 7878   0.339   4.719   4.279  1.0254  0.9977  0.6528
 2624TIP3    H2 7879   0.349   4.701   4.129 -0.2868 -0.7664  0.7410
 2625TIP3   OH2 7880   3.093   1.133   3.816  0.9270  0.0994  0.0220
 2625TIP3    H1 7881   3.081   1.077   3.892 -3.6839  0.3088 -0.2112
 2625TIP3    H2 7882   3.092   1.073   3.741  1.9165  0.1208 -0.0111
 2626TIP3   OH2 7883   2.195   5.131   1.826 -0.0110  0.3641 -0.0824
 2626TIP3    H1 7884   2.146   5.201   1.868  0.4637  1.4254 -1.2345
 2626TIP3    H2 7885   2.147   5.051   1.848 -0.2316  0.9552  1.7512
 2627TIP3   OH2 7886   0.315   2.718   4.801  0.2265  0.1222 -0.0666
 2627TIP3    H1 7887   0.303   2.773   4.723  0.0378  1.5197  0.9025
 2627TIP3    H2 7888   0.230   2.718   4.844  0.5048 -0.0481  0.5027
 2628TIP3   OH2 7889   1.538   3.024   0.207  0.0488  0.7631 -0.4012
 2628TIP3    H1 7890   1.469   3.089   0.223 -0.0087  0.7442 -0.5733
 2628TIP3    H2 7891   1.556   2.988   0.294  0.9381  1.8576 -0.1102
 2629TIP3   OH2 7892   0.447   5.338   0.257 -0.1036 -0.1469  0.1427
 2629TIP3    H1 7893   0.494   5.255   0.260  0.0983 -0.1703 -1.9088
 2629TIP3    H2 7894   0.366   5.318   0.209  0.7123  1.1040 -1.9185
 2630TIP3   OH2 7895   2.060   1.637   2.951  0.0441 -0.3298  0.0111
 2630TIP3    H1 7896   2.098   1.605   2.869 -0.8377 -0.3308 -0.4077
 2630TIP3    H2 7897   2.136   1.666   3.003  0.6850 -1.2226 -0.4062
 2631TIP3   OH2 7898   5.927   1.410   4.847  0.2952  0.9662 -0.6649
 2631TIP3    H1 7899   6.005   1.420   4.901  0.2709  2.9376 -0.9084
 2631TIP3    H2 7900   5.855   1.402   4.909  0.5622  0.1876 -0.4410
 2632TIP3   OH2 7901   1.814   0.110   1.377 -0.4836  0.2141 -0.0830
 2632TIP3    H1 7902   1.836   0.144   1.464  1.1212  2.0347 -1.1117
 2632TIP3    H2 7903   1.741   0.164   1.348  1.4440  2.2944 -1.3294
 2633TIP3   OH2 7904   4.831   0.284   4.217 -0.2331  0.1721  0.1093
 2633TIP3    H1 7905   4.813   0.269   4.310  0.0268 -3.5491 -0.2925
 2633TIP3    H2 7906   4.744   0.291   4.177 -0.4474 -1.0107  0.3220
 2634TIP3   OH2 7907   6.053   0.583   1.830  0.1498 -0.0108  0.1332
 2634TIP3    H1 7908   6.056   0.564   1.923 -1.0580  1.4323  0.5147
 2634TIP3    H2 7909   5.960   0.601   1.812  0.0155 -2.1765 -1.7784
 2635TIP3   OH2 7910   0.033   2.124   4.576 -0.7940  0.6469 -0.6727
 2635TIP3    H1 7911   0.023   2.032   4.598 -1.4071  0.3270 -2.1468
 2635TIP3    H2 7912   0.085   2.161   4.647 -0.0163 -0.9628 -0.3750
 2636TIP3   OH2 7913   1.088   4.154   5.047 -0.1332 -0.9886  0.2829
 2636TIP3    H1 7914   1.124   4.117   4.967 -1.9330  3.4935 -2.9514
 2636TIP3    H2 7915   1.148   4.225   5.070 -1.8877  0.6113  0.1904
 2637TIP3   OH2 7916   1.850   1.331   0.995  0.0829 -0.1543  0.2519
 2637TIP3    H1 7917   1.938   1.313   0.962 -0.6161 -1.5743 -0.9559
 2637TIP3    H2 7918   1.858   1.413   1.043  1.4700  1.3136 -2.2940
 2638TIP3   OH2 7919   2.301   5.221   1.348 -0.2769 -0.0668 -0.1842
 2638TIP3    H1 7920   2.218   5.207   1.394 -0.3241  1.0801  0.1080
 2638TIP3    H2 7921   2.342   5.294   1.394 -0.9563  2.0928 -2.7648
 2639TIP3   OH2 7922   3.682   4.431   2.155 -0.2101 -0.1257 -1.0061
 2639TIP3    H1 7923   3.751   4.374   2.187 -1.8560 -1.3983  0.5059
 2639TIP3    H2 7924   3.645   4.470   2.234 -1.5317  0.1291 -1.7219
 2640TIP3   OH2 7925   4.064   2.492   0.386  0.3741  0.1090 -0.6723
 2640TIP3    H1 7926   4.135   2.530   0.437 -0.6272  0.1319  0.7738
 2640TIP3    H2 7927   4.001   2.563   0.375  0.1890 -0.1301 -1.2206
 2641TIP3   OH2 7928   5.470   2.504   4.442 -0.1024  0.9467 -0.0176
 2641TIP3    H1 7929   5.553   2.458   4.452  0.0146  0.4514 -2.5409
 2641TIP3    H2 7930   5.407   2.436   4.417 -0.6328  1.6910 -0.7792
 2642TIP3   OH2 7931   4.304   0.911   3.660  0.1774  0.2584 -0.7241
 2642TIP3    H1 7932   4.391   0.893   3.625  0.6642  0.9633  0.0784
 2642TIP3    H2 7933   4.320   0.966   3.737 -0.9384 -0.1889 -0.1516
 2643TIP3   OH2 7934   3.763   3.161   1.761 -0.2005  0.0446 -0.3419
 2643TIP3    H1 7935   3.843   3.170   1.813 -0.8150 -0.0174  0.6416
 2643TIP3    H2 7936   3.792   3.123   1.678  0.4146 -3.1065  1.1533
 2644TIP3   OH2 7937   4.883   2.573   4.963 -1.0073  0.6252  0.2269
 2644TIP3    H1 7938   4.905   2.585   5.056 -1.8385 -0.5692  0.5998
 2644TIP3    H2 7939   4.827   2.648   4.942  0.9038  2.0892  0.0640
 2645TIP3   OH2 7940   0.279   5.453   3.975  0.0738 -0.5061 -0.5484
 2645TIP3    H1 7941   0.335   5.515   4.022  0.4579 -0.3055 -1.2546
 2645TIP3    H2 7942   0.198   5.501   3.959 -0.1827 -0.6860  0.1890
 2646TIP3   OH2 7943   1.621   1.497   3.262 -0.0810  0.1590 -0.3433
 2646TIP3    H1 7944   1.589   1.419   3.307 -0.6749  0.1460 -0.7809
 2646TIP3    H2 7945   1.585   1.490   3.174 -0.9696  1.4385 -0.1028
 2647TIP3   OH2 7946   3.363   1.206   3.830  0.4790 -0.4910  0.3892
 2647TIP3    H1 7947   3.341   1.298   3.841  0.4248 -0.7486  3.1129
 2647TIP3    H2 7948   3.288   1.158   3.867  0.0183 -1.7111 -1.9241
 2648TIP3   OH2 7949   2.292   3.358   2.409 -0.3895  0.3235  0.0381
 2648TIP3    H1 7950   2.374   3.326   2.447 -1.0063  0.5244  1.5925
 2648TIP3    H2 7951   2.248   3.404   2.481 -1.5139  0.8908 -0.9805
 2649TIP3   OH2 7952   0.774   2.345   1.339 -0.3235  0.0598 -0.1264
 2649TIP3    H1 7953   0.803   2.409   1.404  0.8004 -0.4910 -0.0808
 2649TIP3    H2 7954   0.678   2.350   1.343 -0.3294 -0.6595  2.2801
 2650TIP3   OH2 7955   5.620   0.514   4.811  0.6368  0.2092 -0.0034
 2650TIP3    H1 7956   5.679   0.589   4.819  0.2857  0.3902  1.1332
 2650TIP3    H2 7957   5.534   0.554   4.798  0.8674 -0.0578 -2.9189
 2651TIP3   OH2 7958   5.265   3.111   4.352 -0.3105  0.4384 -0.0024
 2651TIP3    H1 7959   5.269   3.205   4.373  0.7267  0.3058  0.4464
 2651TIP3    H2 7960   5.171   3.092   4.348 -0.6189  1.9212 -2.0686
 2652TIP3   OH2 7961   3.132   4.839   3.969 -0.0678 -0.1568  0.6056
 2652TIP3    H1 7962   3.195   4.906   3.946  1.0935 -1.4511 -0.1275
 2652TIP3    H2 7963   3.166   4.758   3.930 -0.9885 -1.3417  2.0997
 2653TIP3   OH2 7964   1.115   4.256   3.957 -0.0501  0.3879  0.3990
 2653TIP3    H1 7965   1.134   4.349   3.945  1.5135  0.0852  0.2744
 2653TIP3    H2 7966   1.163   4.212   3.886 -0.4311 -0.5470  0.6938
 2654TIP3   OH2 7967   5.450   2.396   4.070  0.1315 -0.0358  0.1946
 2654TIP3    H1 7968   5.408   2.310   4.075  0.5740 -0.2725 -0.0936
 2654TIP3    H2 7969   5.520   2.392   4.135 -0.6099  0.5455  1.0575
 2655TIP3   OH2 7970   4.929   4.630   3.071  0.6706 -0.2742 -0.4003
 2655TIP3    H1 7971   4.950   4.665   2.984  2.3365 -0.8131 -0.2595
 2655TIP3    H2 7972   4.856   4.684   3.101  0.6224  0.4877 -1.7843
 2656TIP3   OH2 7973   6.020   2.332   2.117  0.6875 -0.4905 -0.3654
 2656TIP3    H1 7974   5.983   2.405   2.067  0.3237 -0.4521 -0.0474
 2656TIP3    H2 7975   6.040   2.266   2.051 -1.2170 -1.0633 -0.4480
 2657TIP3   OH2 7976   4.698   3.137   4.175 -0.6668  0.2422  0.4000
 2657TIP3    H1 7977   4.760   3.210   4.185 -1.0680  0.6573 -0.1137
 2657TIP3    H2 7978   4.732   3.069   4.234  2.2338 -0.8469 -2.2419
 2658TIP3   OH2 7979   0.801   0.073   4.791  0.3516  0.3181 -0.0442
 2658TIP3    H1 7980   0.727   0.020   4.820  0.4051 -0.3472 -1.0536
 2658TIP3    H2 7981   0.854   0.087   4.869 -0.8288  0.7913  0.6805
 2659TIP3   OH2 7982   5.647   3.022   1.627 -0.0500  0.2206 -0.2697
 2659TIP3    H1 7983   5.669   3.035   1.720 -0.6410 -0.7491  0.0106
 2659TIP3    H2 7984   5.627   2.929   1.620  0.1625  0.2554 -1.4168
 2660TIP3   OH2 7985   5.825   0.492   3.640 -0.1922  0.0083 -0.3096
 2660TIP3    H1 7986   5.919   0.477   3.631  0.0922  2.0729 -1.1264
 2660TIP3    H2 7987   5.807   0.473   3.732  1.0321 -0.3047 -0.1131
 2661TIP3   OH2 7988   0.354   3.960   4.108 -0.2244  0.4044 -0.1079
 2661TIP3    H1 7989   0.356   4.055   4.099  0.3178  0.7574  2.7552
 2661TIP3    H2 7990   0.263   3.939   4.129 -0.0192  0.5405  0.9814
 2662TIP3   OH2 7991   6.157   3.092   2.886  0.4263 -0.1046 -0.0316
 2662TIP3    H1 7992   6.173   3.158   2.954  5.1163  2.0769 -2.7168
 2662TIP3    H2 7993   6.085   3.127   2.835 -1.0778 -0.2062  1.9023
 2663TIP3   OH2 7994   1.806   5.422   2.999 -0.3635 -0.1206 -0.1157
 2663TIP3    H1 7995   1.724   5.403   3.044 -1.5614 -0.0677 -2.1489
 2663TIP3    H2 7996   1.825   5.513   3.022 -1.5226  0.2470 -0.5011
 2664TIP3   OH2 7997   1.174   2.045   0.867 -0.1444 -0.0037 -0.5714
 2664TIP3    H1 7998   1.191   2.053   0.961 -0.4688  0.1314 -0.5229
 2664TIP3    H2 7999   1.142   1.955   0.856  0.7363 -0.3043 -0.6845
 2665TIP3   OH2 8000   1.423   1.211   0.305  0.1569  0.2513 -0.4743
 2665TIP3    H1 8001   1.406   1.242   0.394 -2.3881  0.5113 -0.9838
 2665TIP3    H2 8002   1.486   1.273   0.269  0.2174  0.8961  0.6969
 2666TIP3   OH2 8003   1.224   2.281   1.633 -0.1109 -0.5308  0.3166
 2666TIP3    H1 8004   1.230   2.231   1.552 -1.5225 -1.5657  0.8060
 2666TIP3    H2 8005   1.305   2.260   1.680 -0.3966 -1.9106  0.2428
 2667TIP3   OH2 8006   0.284   2.793   1.202 -0.0581 -0.2217  0.2731
 2667TIP3    H1 8007   0.266   2.819   1.292  0.3225 -0.7019  0.4931
 2667TIP3    H2 8008   0.349   2.722   1.210  1.6456  1.1798 -0.4449
 2668TIP3   OH2 8009   0.602   4.060   1.815  0.6044  0.0857  0.3169
 2668TIP3    H1 8010   0.580   4.132   1.755 -0.8493 -0.6263 -0.0479
 2668TIP3    H2 8011   0.616   4.103   1.899  1.1138  0.9360 -0.1855
 2669TIP3   OH2 8012   3.428   2.413   0.036 -0.0154  0.0971  0.2346
 2669TIP3    H1 8013   3.382   2.369  -0.036  1.8597 -0.3651 -0.7382
 2669TIP3    H2 8014   3.410   2.359   0.113 -0.5674 -0.4185 -0.2403
 2670TIP3   OH2 8015   2.211   5.765   3.799  0.5848  0.5898  0.2476
 2670TIP3    H1 8016   2.246   5.790   3.713  1.5274  1.3205  0.8362
 2670TIP3    H2 8017   2.286   5.768   3.858 -0.1692  0.6834  1.2316
 2671TIP3   OH2 8018   1.961   0.484   0.035 -0.6439  0.5459  0.9859
 2671TIP3    H1 8019   1.910   0.532   0.101 -1.7896  0.3959  0.2308
 2671TIP3    H2 8020   1.895   0.438  -0.017  0.3233 -0.2583  0.4544
 2672TIP3   OH2 8021   4.062   4.213   4.948 -0.1698  0.0927 -0.1697
 2672TIP3    H1 8022   4.097   4.127   4.972  1.4618  0.0824 -2.3706
 2672TIP3    H2 8023   4.067   4.264   5.029  0.8109 -1.2401  0.6476
 2673TIP3   OH2 8024   5.912   2.555   1.987  0.3015  0.3591  0.5558
 2673TIP3    H1 8025   5.986   2.583   1.933  0.5764  2.1865  1.7624
 2673TIP3    H2 8026   5.849   2.517   1.926  0.7669  1.9889 -1.0051
 2674TIP3   OH2 8027   3.030   2.847   0.484 -0.3046  0.2610  0.2903
 2674TIP3    H1 8028   3.056   2.939   0.491 -1.4074  0.6067 -0.0315
 2674TIP3    H2 8029   2.998   2.825   0.572 -3.0924  1.1750 -0.3785
 2675TIP3   OH2 8030   4.073   1.205   0.647  0.4568  0.3749  0.8504
 2675TIP3    H1 8031   4.045   1.143   0.580 -1.0296  0.4502  1.3547
 2675TIP3    H2 8032   4.116   1.276   0.599 -0.1453  0.1834  0.0264
 2676TIP3   OH2 8033   2.003   0.712   1.959 -0.4619  0.4417  0.1648
 2676TIP3    H1 8034   1.959   0.791   1.990 -1.1222 -0.4349  1.5518
 2676TIP3    H2 8035   2.042   0.674   2.038  1.7509  0.5240 -0.8125
 2677TIP3   OH2 8036   0.786   2.016   4.095  0.1128  0.1528 -0.3791
 2677TIP3    H1 8037   0.798   2.081   4.165  4.5868  0.3709 -1.0636
 2677TIP3    H2 8038   0.776   2.067   4.015  0.7598  0.0159 -0.5577
 2678TIP3   OH2 8039   0.104   4.355   3.948  0.7076  0.6875 -0.3609
 2678TIP3    H1 8040   0.105   4.448   3.973 -0.1988  1.3287 -2.5407
 2678TIP3    H2 8041   0.059   4.353   3.864  0.1292 -1.8339 -0.0656
 2679TIP3   OH2 8042   6.224   3.241   4.739 -0.4605 -0.4912 -0.3216
 2679TIP3    H1 8043   6.248   3.171   4.678 -0.1744  0.9504 -1.9361
 2679TIP3    H2 8044   6.277   3.316   4.712 -1.7862  0.7733  0.4337
 2680TIP3   OH2 8045   6.128   1.728   4.882  0.4151  0.4467  0.1359
 2680TIP3    H1 8046   6.176   1.790   4.936 -0.7097  1.1796  0.3383
 2680TIP3    H2 8047   6.179   1.647   4.886  1.3874  1.0687  0.6664
 2681TIP3   OH2 8048   3.945   4.561   4.051 -0.1288 -0.4072  0.6217
 2681TIP3    H1 8049   3.885   4.496   4.016  0.6451 -0.1385 -1.4068
 2681TIP3    H2 8050   3.933   4.558   4.145 -1.7966 -1.8062  0.4123
 2682TIP3   OH2 8051   1.612   3.727   3.390  0.0209  0.1318 -0.0350
 2682TIP3    H1 8052   1.683   3.663   3.382  1.7811  2.0655 -0.8139
 2682TIP3    H2 8053   1.580   3.739   3.301 -1.2599 -0.6320  0.2965
 2683TIP3   OH2 8054   0.526   3.374   0.372 -0.1070 -0.2866  0.3214
 2683TIP3    H1 8055   0.486   3.324   0.444  2.3547  0.6489  2.4904
 2683TIP3    H2 8056   0.613   3.336   0.362  1.3983  2.6851  1.2203
 2684TIP3   OH2 8057   2.253   3.315   2.760 -0.4779 -0.0859  0.2792
 2684TIP3    H1 8058   2.218   3.366   2.834 -0.8276  0.1824 -0.0686
 2684TIP3    H2 8059   2.306   3.378   2.711  0.2667 -0.4207  0.6456
 2685TIP3   OH2 8060   6.192   0.315   4.443  0.3126  0.0803  0.1220
 2685TIP3    H1 8061   6.135   0.317   4.520  0.8698 -2.1839  0.6782
 2685TIP3    H2 8062   6.276   0.350   4.475  0.7718 -1.5599  0.8135
 2686TIP3   OH2 8063   5.179   1.852   2.740  0.4552  0.6387  0.5581
 2686TIP3    H1 8064   5.183   1.859   2.645  1.2379 -0.0581  0.5237
 2686TIP3    H2 8065   5.120   1.922   2.767 -0.8346  0.0196 -0.5274
 2687TIP3   OH2 8066   1.551   5.170   0.188  0.0270 -0.7466  0.2685
 2687TIP3    H1 8067   1.596   5.206   0.111  0.3207  2.3386  1.7561
 2687TIP3    H2 8068   1.462   5.154   0.157  0.0675  0.6841 -0.7008
 2688TIP3   OH2 8069   2.762   3.175   0.418  0.1278  0.0974 -0.4154
 2688TIP3    H1 8070   2.789   3.258   0.457  0.7924 -0.9313  1.4715
 2688TIP3    H2 8071   2.675   3.158   0.455  0.4104 -0.4840  0.0176
 2689TIP3   OH2 8072   3.243   4.446   0.359 -0.1560 -0.5093 -0.2341
 2689TIP3    H1 8073   3.244   4.427   0.265 -0.3077 -2.6898  0.1384
 2689TIP3    H2 8074   3.176   4.387   0.394  0.3004 -0.1415  1.3121
 2690TIP3   OH2 8075   0.675   5.813   1.532 -0.0063  0.4998  0.1070
 2690TIP3    H1 8076   0.625   5.893   1.549 -0.6877 -0.2264  1.6647
 2690TIP3    H2 8077   0.764   5.844   1.516 -0.0069  1.5386  1.8318
 2691TIP3   OH2 8078   3.485   4.194   3.662 -0.5703 -0.1320 -0.2828
 2691TIP3    H1 8079   3.493   4.264   3.727  1.0893  1.3187 -1.9259
 2691TIP3    H2 8080   3.476   4.114   3.714 -1.7372  1.1778  1.6651
 2692TIP3   OH2 8081   5.140   3.164   3.359  0.1817  0.0259 -0.1082
 2692TIP3    H1 8082   5.190   3.181   3.439 -0.2400  0.6041  0.0376
 2692TIP3    H2 8083   5.050   3.186   3.382 -0.2257 -1.3743 -0.2508
 2693TIP3   OH2 8084   4.749   2.893   3.863  0.1763 -0.3282 -0.2491
 2693TIP3    H1 8085   4.656   2.898   3.888  0.0968 -0.2959 -0.5412
 2693TIP3    H2 8086   4.749   2.917   3.770  0.3383 -1.3785 -0.5317
 2694TIP3   OH2 8087   2.036   1.948   0.669  0.1323 -0.4775 -0.4316
 2694TIP3    H1 8088   2.097   2.000   0.721 -0.3752 -0.8674  0.5803
 2694TIP3    H2 8089   1.949   1.981   0.693 -0.0835  0.0078 -1.7809
 2695TIP3   OH2 8090   0.830   5.214   0.956  0.4355  0.3353 -0.8115
 2695TIP3    H1 8091   0.863   5.125   0.966  0.4198  0.4933  1.1718
 2695TIP3    H2 8092   0.792   5.217   0.869 -0.0075 -1.7597 -0.7347
 2696TIP3   OH2 8093   6.104   1.462   1.395 -0.1940 -0.1045  0.2985
 2696TIP3    H1 8094   6.039   1.408   1.349 -0.1693  1.0486 -1.1425
 2696TIP3    H2 8095   6.073   1.463   1.486 -0.4242 -2.1791  0.3007
 2697TIP3   OH2 8096   1.587   0.413   0.061  0.2766  0.1546 -0.0843
 2697TIP3    H1 8097   1.525   0.462   0.007  2.0954  0.9282 -1.5802
 2697TIP3    H2 8098   1.588   0.325   0.024 -0.2518  0.0196  0.2238
 2698TIP3   OH2 8099   1.620   3.097   3.641 -0.0730  0.1386  0.0150
 2698TIP3    H1 8100   1.573   3.092   3.557  0.9997  1.7047 -0.7436
 2698TIP3    H2 8101   1.640   3.190   3.651  2.6554 -0.4000  0.3736
 2699TIP3   OH2 8102   5.060   4.989   1.378 -0.6127 -0.3152 -0.0550
 2699TIP3    H1 8103   5.128   5.034   1.328 -0.4353  0.7969  1.1304
 2699TIP3    H2 8104   4.981   4.997   1.325  0.6955 -4.5071 -3.1050
 2700TIP3   OH2 8105   1.734   1.771   1.862 -0.1582 -0.2588 -0.5024
 2700TIP3    H1 8106   1.781   1.688   1.853  2.2633  1.0021 -0.2997
 2700TIP3    H2 8107   1.669   1.754   1.930  0.4234 -1.9328 -0.3042
 2701TIP3   OH2 8108   0.315   0.626   0.893  0.2119  0.4564 -0.0036
 2701TIP3    H1 8109   0.311   0.530   0.890 -0.9983  0.5154 -1.3135
 2701TIP3    H2 8110   0.395   0.648   0.846  0.3809  0.1012  0.1103
 2702TIP3   OH2 8111   4.009   3.300   2.854 -0.3132  0.1765  0.3979
 2702TIP3    H1 8112   4.035   3.379   2.900  1.3330 -0.2498  0.2714
 2702TIP3    H2 8113   3.944   3.329   2.790 -0.1700  1.3222  0.7585
 2703TIP3   OH2 8114   2.066   2.877   3.748 -0.7721 -0.1808 -0.7095
 2703TIP3    H1 8115   2.048   2.785   3.764 -0.4144 -0.0551  0.4931
 2703TIP3    H2 8116   2.025   2.923   3.822  1.6577  0.3620  0.4001
 2704TIP3   OH2 8117   0.731   0.878   3.610 -0.5114 -0.1605 -0.0269
 2704TIP3    H1 8118   0.816   0.916   3.629  0.3409 -1.1346 -1.6974
 2704TIP3    H2 8119   0.726   0.801   3.665 -0.4199  0.0382  0.2590
 2705TIP3   OH2 8120   5.263   1.752   5.167  0.9341  0.5594  0.1911
 2705TIP3    H1 8121   5.281   1.668   5.208  1.4759  1.3338  1.5996
 2705TIP3    H2 8122   5.174   1.773   5.195 -1.0646 -1.5174 -3.7354
 2706TIP3   OH2 8123   4.654   0.547   1.400  0.1550 -0.1125 -0.5441
 2706TIP3    H1 8124   4.737   0.504   1.378  0.2551  0.5958 -1.5993
 2706TIP3    H2 8125   4.628   0.592   1.320 -1.6910 -1.0102 -0.5187
 2707TIP3   OH2 8126   0.037   0.739   2.460  0.1893 -0.1714 -0.2803
 2707TIP3    H1 8127  -0.019   0.798   2.409 -1.0052  0.3072  1.4922
 2707TIP3    H2 8128   0.036   0.657   2.412 -0.8032  0.2964 -1.0860
 2708TIP3   OH2 8129   3.513   5.796   1.421 -0.1649  0.4032  0.0287
 2708TIP3    H1 8130   3.439   5.751   1.381 -0.1030  0.7903 -0.5265
 2708TIP3    H2 8131   3.509   5.885   1.387  0.4657  0.4698  0.1114
 2709TIP3   OH2 8132   0.749   4.105   3.321 -0.0353  0.2244 -0.2499
 2709TIP3    H1 8133   0.702   4.136   3.398  0.7498  0.1014  0.2877
 2709TIP3    H2 8134   0.776   4.185   3.275 -1.3596  0.2966 -0.9457
 2710TIP3   OH2 8135   2.572   5.693   1.739 -0.0817  0.0628  0.0000
 2710TIP3    H1 8136   2.545   5.701   1.830 -0.8198  0.3705 -0.2443
 2710TIP3    H2 8137   2.635   5.765   1.727  0.0105  0.0280  0.2582
 2711TIP3   OH2 8138   2.007   0.343   2.351 -0.2975  0.7128  0.6288
 2711TIP3    H1 8139   1.992   0.337   2.257  1.8172  0.1216  0.2785
 2711TIP3    H2 8140   2.101   0.361   2.360 -0.7391  2.5731  2.5975
 2712TIP3   OH2 8141   0.965   0.983   2.134  0.1710 -0.3375  0.2531
 2712TIP3    H1 8142   0.984   1.060   2.189 -0.4909  1.5438 -1.9740
 2712TIP3    H2 8143   0.997   0.909   2.185 -0.1738  1.2755  3.0323
 2713TIP3   OH2 8144   1.953   0.448   1.240 -0.1465 -0.2391 -0.0108
 2713TIP3    H1 8145   1.926   0.483   1.154 -0.3236 -0.9410 -0.2462
 2713TIP3    H2 8146   1.871   0.432   1.286 -0.0442  1.4655  0.8606
 2714TIP3   OH2 8147   1.379   5.978   1.368  0.4351  0.2323 -0.7054
 2714TIP3    H1 8148   1.465   6.011   1.396 -0.6623  1.7435  1.1583
 2714TIP3    H2 8149   1.378   5.887   1.396  1.4177  0.2089 -0.6999
 2715TIP3   OH2 8150   4.996   5.351   4.429  0.2806 -0.2191 -0.0479
 2715TIP3    H1 8151   4.952   5.433   4.449 -0.8896 -0.5035 -1.3214
 2715TIP3    H2 8152   5.088   5.376   4.415 -0.3314  1.1749 -2.0147
 2716TIP3   OH2 8153   3.471   0.125   5.177  0.7724 -0.1297  0.0979
 2716TIP3    H1 8154   3.532   0.115   5.103  2.4397 -0.8433  1.4893
 2716TIP3    H2 8155   3.505   0.201   5.225  0.2128 -0.1811  0.5803
 2717TIP3   OH2 8156   2.810   4.158   3.042  0.3731 -0.1050  0.5755
 2717TIP3    H1 8157   2.844   4.247   3.041  0.2879 -0.0784 -0.5392
 2717TIP3    H2 8158   2.872   4.110   3.097  2.6610 -0.1986 -1.9087
 2718TIP3   OH2 8159   1.348   3.785   0.942 -0.3836  0.3464  0.2100
 2718TIP3    H1 8160   1.256   3.811   0.947 -0.3108  0.7126 -0.3478
 2718TIP3    H2 8161   1.354   3.730   0.864 -0.3895 -0.7801  0.9722
 2719TIP3   OH2 8162   2.829   5.948   1.987 -0.7572 -0.3969 -0.1302
 2719TIP3    H1 8163   2.796   5.930   1.899 -0.2667  1.1451 -0.6699
 2719TIP3    H2 8164   2.778   6.024   2.016 -0.0455 -0.1116  0.4001
 2720TIP3   OH2 8165   0.856   4.961   0.128 -0.2327  0.1339  0.0439
 2720TIP3    H1 8166   0.882   5.048   0.158  0.7068 -0.7561  2.0050
 2720TIP3    H2 8167   0.935   4.925   0.087 -0.9614  0.6135 -1.8770
 2721TIP3   OH2 8168   5.391   4.640   4.094  0.1732 -0.0343 -0.5362
 2721TIP3    H1 8169   5.375   4.642   3.999 -0.4091  0.7710 -0.4352
 2721TIP3    H2 8170   5.410   4.731   4.116 -0.9612  0.0054  0.3275
 2722TIP3   OH2 8171   5.515   5.473   2.626  0.4025 -0.3075 -0.4803
 2722TIP3    H1 8172   5.466   5.396   2.653 -1.5405  0.4771 -1.5394
 2722TIP3    H2 8173   5.601   5.440   2.603 -0.7895 -2.4343 -2.2370
 2723TIP3   OH2 8174   2.677   5.846   2.422 -0.2544  0.0119  0.2249
 2723TIP3    H1 8175   2.718   5.931   2.435 -0.9518  0.3478  0.2635
 2723TIP3    H2 8176   2.679   5.805   2.508  0.7664 -0.3305  0.0500
 2724TIP3   OH2 8177   2.167   5.789   2.240  0.1179 -0.1291 -0.0455
 2724TIP3    H1 8178   2.185   5.708   2.191  1.5151  1.4150 -2.2788
 2724TIP3    H2 8179   2.075   5.808   2.221 -0.2994 -1.2967  0.7135
 2725TIP3   OH2 8180   5.480   2.300   0.322  0.3268 -0.1551  0.4927
 2725TIP3    H1 8181   5.455   2.216   0.284  1.8372 -0.0507 -0.8142
 2725TIP3    H2 8182   5.409   2.359   0.298 -0.9270 -1.0816  1.7215
 2726TIP3   OH2 8183   2.418   1.162   3.855 -0.3370  0.0819  0.4154
 2726TIP3    H1 8184   2.511   1.163   3.878  0.0085 -0.2897 -0.8907
 2726TIP3    H2 8185   2.406   1.239   3.799 -0.3672 -0.9354 -1.0188
 2727TIP3   OH2 8186   3.607   3.359   4.971 -0.0227 -0.0978 -0.0039
 2727TIP3    H1 8187   3.674   3.385   4.908 -0.6204  0.9435 -0.2449
 2727TIP3    H2 8188   3.653   3.303   5.034  1.1900  0.9825  0.1120
 2728TIP3   OH2 8189   0.215   3.351   3.475  0.2571  0.3115  0.3675
 2728TIP3    H1 8190   0.287   3.316   3.423  0.9615  2.4289 -0.1630
 2728TIP3    H2 8191   0.139   3.346   3.416 -0.0749 -1.8102  0.8886
 2729TIP3   OH2 8192   3.628   5.013   3.260 -0.0534 -0.5052  0.2627
 2729TIP3    H1 8193   3.712   5.019   3.305  0.8161 -0.6170 -1.2726
 2729TIP3    H2 8194   3.564   5.001   3.330  0.9939  1.2846  1.6008
 2730TIP3   OH2 8195   3.225   1.933   4.222  0.0915  0.0573  0.3138
 2730TIP3    H1 8196   3.265   1.941   4.308  0.4891  1.0018  0.0529
 2730TIP3    H2 8197   3.140   1.976   4.231  1.2479  2.6451 -0.4583
 2731TIP3   OH2 8198   0.844   0.328   4.376 -0.4176 -0.0222 -0.3041
 2731TIP3    H1 8199   0.761   0.345   4.420  0.3373  3.6395 -0.0225
 2731TIP3    H2 8200   0.850   0.232   4.373 -4.1218 -0.4368  0.5481
 2732TIP3   OH2 8201   3.818   1.205   5.004  0.1535  0.2143 -0.4183
 2732TIP3    H1 8202   3.777   1.285   4.971  0.3121  0.1535 -0.7651
 2732TIP3    H2 8203   3.776   1.190   5.089 -1.1247 -0.2964 -1.1073
 2733TIP3   OH2 8204   0.901   1.355   4.921 -0.0187 -0.0196 -0.0247
 2733TIP3    H1 8205   0.805   1.349   4.919 -0.0055 -0.2760  0.1411
 2733TIP3    H2 8206   0.931   1.275   4.878  0.1359 -0.5196  0.9894
 2734TIP3   OH2 8207   5.332   5.326   1.628  0.1242  0.1683 -0.3788
 2734TIP3    H1 8208   5.396   5.350   1.561  0.5722  0.5171  0.1662
 2734TIP3    H2 8209   5.384   5.288   1.698 -0.0998  1.5958  0.6023
 2735TIP3   OH2 8210   1.963   2.829   0.186 -0.0101 -0.5218  0.1579
 2735TIP3    H1 8211   1.910   2.813   0.264 -0.8423  0.5553 -0.1571
 2735TIP3    H2 8212   1.902   2.868   0.124  0.4382 -2.1248 -1.3499
 2736TIP3   OH2 8213   0.649   2.590   4.183 -0.1930  0.0467  0.5513
 2736TIP3    H1 8214   0.716   2.560   4.245 -1.5259 -0.7276  1.6911
 2736TIP3    H2 8215   0.600   2.656   4.232 -0.4351  0.4254 -0.1863
 2737TIP3   OH2 8216   5.421   0.701   4.862 -0.0512 -0.4078  0.1355
 2737TIP3    H1 8217   5.380   0.702   4.948 -0.0368 -0.0747  0.1409
 2737TIP3    H2 8218   5.484   0.773   4.865  0.3226 -0.7287  0.0274
 2738TIP3   OH2 8219   0.029   4.022   2.625 -0.1087  0.1752 -0.2383
 2738TIP3    H1 8220   0.006   4.010   2.533 -1.3071  0.0926  0.0587
 2738TIP3    H2 8221   0.053   3.934   2.655 -2.1084 -0.2842  0.1385
 2739TIP3   OH2 8222   4.806   1.361   3.505  0.3345  0.0088  0.6320
 2739TIP3    H1 8223   4.747   1.420   3.457  0.5772  0.6499  1.1113
 2739TIP3    H2 8224   4.877   1.417   3.535  1.1425 -0.7486  0.1467
 2740TIP3   OH2 8225   3.098   0.994   4.046  0.0161  0.1323 -0.3509
 2740TIP3    H1 8226   3.006   0.972   4.059 -0.1005  0.1849 -1.0578
 2740TIP3    H2 8227   3.123   1.041   4.126 -0.5605  0.0878 -0.1432
 2741TIP3   OH2 8228   0.188   5.299   0.214 -0.4417  0.0249  0.2560
 2741TIP3    H1 8229   0.191   5.297   0.309  0.9993  0.1946  0.2347
 2741TIP3    H2 8230   0.117   5.239   0.191 -0.1585 -0.7773  1.3992
 2742TIP3   OH2 8231   2.067   5.670   0.829  0.2506 -0.0914  0.4327
 2742TIP3    H1 8232   1.989   5.692   0.779  1.0578 -0.8244 -1.2418
 2742TIP3    H2 8233   2.062   5.575   0.840  1.2349 -0.2454 -0.3256
 2743TIP3   OH2 8234   3.540   5.055   0.668  0.3641 -0.8046  0.0484
 2743TIP3    H1 8235   3.588   5.138   0.665 -0.4581 -0.2432  1.4719
 2743TIP3    H2 8236   3.513   5.040   0.578  0.9602  0.2131 -0.3184
 2744TIP3   OH2 8237   5.167   0.753   1.669  0.9355 -0.0424 -0.0690
 2744TIP3    H1 8238   5.117   0.794   1.599  2.4834 -0.2731 -1.3631
 2744TIP3    H2 8239   5.103   0.737   1.738 -0.3146  1.6649 -0.7713
 2745TIP3   OH2 8240   1.423   0.178   4.837 -0.1475  0.1975  0.3104
 2745TIP3    H1 8241   1.424   0.146   4.927 -1.3485  1.0235  0.6522
 2745TIP3    H2 8242   1.330   0.191   4.818 -0.0346 -1.5095 -1.6265
 2746TIP3   OH2 8243   5.138   3.066   2.136  0.2426  0.5057  0.2518
 2746TIP3    H1 8244   5.213   3.034   2.185  0.1147  1.4928  1.1325
 2746TIP3    H2 8245   5.156   3.159   2.123 -0.3359  0.5282 -0.4575
 2747TIP3   OH2 8246   5.198   2.390   4.681  0.1393 -0.4686  0.5974
 2747TIP3    H1 8247   5.142   2.450   4.632  0.2939 -0.6490  0.1927
 2747TIP3    H2 8248   5.170   2.303   4.652  0.7207 -0.5572  0.2847
 2748TIP3   OH2 8249   0.503   0.225   1.561  0.3008 -0.1212  0.0341
 2748TIP3    H1 8250   0.451   0.306   1.560 -1.4746 -1.1681  1.2403
 2748TIP3    H2 8251   0.544   0.224   1.647  2.2300  0.5838 -0.8340
 2749TIP3   OH2 8252   3.618   3.552   3.568  0.4626  0.1051 -0.0741
 2749TIP3    H1 8253   3.596   3.570   3.476  0.5480  1.9814  0.2313
 2749TIP3    H2 8254   3.568   3.618   3.617 -0.1656 -1.3487  1.3045
 2750TIP3   OH2 8255   2.835   0.476   3.339  0.2033 -0.4068  0.6669
 2750TIP3    H1 8256   2.750   0.518   3.333  0.1410 -0.4603  1.1608
 2750TIP3    H2 8257   2.865   0.470   3.248  0.4754  1.2022  0.6247
 2751TIP3   OH2 8258   0.397   0.169   4.882  0.2115  0.0916  0.6492
 2751TIP3    H1 8259   0.367   0.078   4.884  1.0008 -0.1728  2.4735
 2751TIP3    H2 8260   0.319   0.220   4.906 -0.1517 -0.1083 -0.0708
 2752TIP3   OH2 8261   2.875   4.299   1.361 -0.2817 -0.2612  0.0546
 2752TIP3    H1 8262   2.783   4.318   1.339 -0.1046  0.4831 -0.0740
 2752TIP3    H2 8263   2.878   4.300   1.456 -0.0241  1.7423  0.0681
 2753TIP3   OH2 8264   1.855   4.523   2.521  0.0510  0.7870  0.4736
 2753TIP3    H1 8265   1.857   4.590   2.590  0.7097  0.5058  0.7340
 2753TIP3    H2 8266   1.833   4.572   2.442 -0.3904  1.1676  0.8173
 2754TIP3   OH2 8267   3.727   1.393   2.128 -0.1934 -0.6867 -0.1548
 2754TIP3    H1 8268   3.734   1.389   2.223  0.2321 -0.1314 -0.1595
 2754TIP3    H2 8269   3.817   1.390   2.097 -0.0361  2.7000 -0.3779
 2755TIP3   OH2 8270   5.467   0.628   1.399  0.4778  0.4056 -0.0822
 2755TIP3    H1 8271   5.496   0.719   1.393  1.0384  0.2102 -0.3593
 2755TIP3    H2 8272   5.409   0.617   1.324  0.3220  0.5601  0.0123
 2756TIP3   OH2 8273   2.504   3.206   0.492 -0.3335 -0.8785  0.4070
 2756TIP3    H1 8274   2.436   3.141   0.475 -2.3458  1.0641  0.5791
 2756TIP3    H2 8275   2.484   3.239   0.579 -0.3082  1.0223 -0.2658
 2757TIP3   OH2 8276   1.546   2.386   4.591  0.9687 -0.2809  0.2833
 2757TIP3    H1 8277   1.551   2.382   4.496  2.5379  0.0326  0.3201
 2757TIP3    H2 8278   1.625   2.340   4.621  0.5763 -0.2457  1.4304
 2758TIP3   OH2 8279   2.392   4.163   4.869  0.3866 -0.1156  0.2267
 2758TIP3    H1 8280   2.319   4.138   4.925 -0.3948  0.1921 -0.6327
 2758TIP3    H2 8281   2.470   4.130   4.914 -0.1510  0.6836  1.8100
 2759TIP3   OH2 8282   4.062   1.639   1.495 -0.2915 -0.2184  0.1796
 2759TIP3    H1 8283   4.154   1.648   1.521 -0.6842  0.4955  1.3664
 2759TIP3    H2 8284   4.038   1.726   1.462 -0.9276 -0.0098  1.1692
 2760TIP3   OH2 8285   0.690   4.615   0.724 -0.4877  0.6841  0.0430
 2760TIP3    H1 8286   0.738   4.630   0.805 -0.5362  0.2715  0.1481
 2760TIP3    H2 8287   0.629   4.689   0.719 -0.9719  0.3545  0.7451
 2761TIP3   OH2 8288   5.724   5.125   2.075 -0.2855 -0.2598 -0.1717
 2761TIP3    H1 8289   5.661   5.196   2.088  0.2520  0.6180 -1.9524
 2761TIP3    H2 8290   5.731   5.083   2.160 -2.5058  0.2455  0.3399
 2762TIP3   OH2 8291   4.756   4.466   4.504  0.1624  0.2330  0.0629
 2762TIP3    H1 8292   4.730   4.504   4.420  0.0325 -1.8782 -0.9177
 2762TIP3    H2 8293   4.850   4.485   4.511 -0.5320  3.9432  1.4674
 2763TIP3   OH2 8294   1.608   2.508   4.319 -0.2692  0.1228  0.8461
 2763TIP3    H1 8295   1.514   2.507   4.300 -0.7486  0.4451  3.0102
 2763TIP3    H2 8296   1.619   2.575   4.387  1.5707  0.2504  0.4831
 2764TIP3   OH2 8297   4.097   4.383   3.907  0.3052 -0.2352  0.0412
 2764TIP3    H1 8298   4.021   4.341   3.948 -0.0549  1.0329  0.7016
 2764TIP3    H2 8299   4.116   4.459   3.962  2.1796 -0.6085 -0.0013
 2765TIP3   OH2 8300   5.781   1.185   2.736  0.3304 -0.1955 -0.0287
 2765TIP3    H1 8301   5.848   1.119   2.755 -0.4463 -0.8176  0.6168
 2765TIP3    H2 8302   5.699   1.136   2.729 -0.5124  0.8338  1.9061
 2766TIP3   OH2 8303   5.900   4.281   1.456 -0.4079 -1.0194  0.3643
 2766TIP3    H1 8304   5.837   4.318   1.394 -0.9325  0.9639  1.9838
 2766TIP3    H2 8305   5.847   4.227   1.514 -0.7687  0.8935  1.9166
 2767TIP3   OH2 8306   3.145   4.128   0.549  0.3545 -0.1319  0.2959
 2767TIP3    H1 8307   3.170   4.121   0.457 -0.7707 -1.6125  0.0502
 2767TIP3    H2 8308   3.050   4.128   0.548  0.3286  0.3537  1.4392
 2768TIP3   OH2 8309   0.939   4.108   2.748  0.3739 -0.2138 -0.2545
 2768TIP3    H1 8310   0.912   4.032   2.799 -3.3398  1.0224 -0.0589
 2768TIP3    H2 8311   1.005   4.074   2.688  0.3692 -3.1054  1.1967
 2769TIP3   OH2 8312   0.045   1.607   3.902 -0.0753  0.6075  0.4640
 2769TIP3    H1 8313   0.022   1.651   3.820  1.0284 -0.8485 -0.6840
 2769TIP3    H2 8314  -0.036   1.606   3.953 -0.9543  0.9731 -0.8959
 2770TIP3   OH2 8315   5.127   5.568   0.474 -0.0455 -0.4475 -0.1691
 2770TIP3    H1 8316   5.138   5.506   0.546  0.5164 -0.6100 -0.3889
 2770TIP3    H2 8317   5.149   5.653   0.511 -2.3829 -0.0961  0.5817
 2771TIP3   OH2 8318   2.585   4.588   4.470 -0.4671  0.2947  0.2987
 2771TIP3    H1 8319   2.508   4.621   4.425 -0.2097 -0.5632 -0.8128
 2771TIP3    H2 8320   2.659   4.632   4.427 -0.3065  0.8801  1.1487
 2772TIP3   OH2 8321   6.260   2.055   0.587 -0.4453 -0.6719 -0.5540
 2772TIP3    H1 8322   6.191   2.035   0.525 -1.2749 -1.9549  0.7106
 2772TIP3    H2 8323   6.295   1.970   0.613 -1.0730 -0.3114  1.7268
 2773TIP3   OH2 8324   5.044   1.843   2.252 -0.0991  0.5473  0.2894
 2773TIP3    H1 8325   5.044   1.835   2.157 -0.4932 -1.3344  0.3937
 2773TIP3    H2 8326   4.976   1.908   2.271 -1.6092 -0.6708 -0.6744
 2774TIP3   OH2 8327   3.298   2.932   4.946  0.0432  0.0339 -0.1517
 2774TIP3    H1 8328   3.291   2.901   5.036  0.0138  0.1703 -0.1067
 2774TIP3    H2 8329   3.227   2.887   4.899 -1.1185  1.3498  0.2856
 2775TIP3   OH2 8330   3.002   3.285   3.476 -0.3679  0.1411 -0.0313
 2775TIP3    H1 8331   2.974   3.317   3.562  0.3668 -0.3258  0.3988
 2775TIP3    H2 8332   3.082   3.335   3.457 -0.0914 -0.3032 -0.0709
 2776TIP3   OH2 8333   4.931   2.809   1.770  0.2684  0.1388  0.1898
 2776TIP3    H1 8334   4.882   2.799   1.689  0.7207 -1.6469  0.0760
 2776TIP3    H2 8335   5.011   2.758   1.755 -0.7675 -2.5104  2.6091
 2777TIP3   OH2 8336   5.036   1.185   2.446 -0.2151  0.2059  0.1394
 2777TIP3    H1 8337   4.951   1.179   2.489 -0.3983 -0.6132 -0.3089
 2777TIP3    H2 8338   5.040   1.107   2.391  0.9574  0.0833  0.3815
 2778TIP3   OH2 8339   0.960   5.355   1.351 -0.6159 -0.4197 -0.1990
 2778TIP3    H1 8340   0.922   5.378   1.266  0.3981 -0.9759 -0.8276
 2778TIP3    H2 8341   1.009   5.275   1.334  2.4489  1.2145  0.0481
 2779TIP3   OH2 8342   5.285   3.747   2.524  0.1990  0.2405 -0.0984
 2779TIP3    H1 8343   5.191   3.727   2.522  0.3215 -0.5043  0.9892
 2779TIP3    H2 8344   5.303   3.771   2.615  1.3018 -0.8724 -0.0002
 2780TIP3   OH2 8345   4.467   3.338   3.676 -0.6400 -0.0514  0.6611
 2780TIP3    H1 8346   4.505   3.292   3.750  2.8576  1.4456 -0.0006
 2780TIP3    H2 8347   4.444   3.425   3.710  0.5175  0.4730  0.1409
 2781TIP3   OH2 8348   4.135   2.669   2.565  0.1390  0.3639 -0.1276
 2781TIP3    H1 8349   4.141   2.716   2.482 -0.3910 -0.6223 -0.7462
 2781TIP3    H2 8350   4.042   2.675   2.589  0.0084 -0.5662 -0.3535
 2782TIP3   OH2 8351   0.856   3.353   3.485 -0.1781  0.0338 -0.1842
 2782TIP3    H1 8352   0.840   3.281   3.423 -1.3443  0.4022 -0.3470
 2782TIP3    H2 8353   0.772   3.399   3.489 -0.4904 -0.6332  2.5351
 2783TIP3   OH2 8354   0.070   2.645   2.219 -0.2909 -0.6428 -0.3131
 2783TIP3    H1 8355   0.164   2.640   2.201 -0.5461 -1.7815 -1.4517
 2783TIP3    H2 8356   0.064   2.644   2.315  0.7952 -2.5957 -0.2137
 2784TIP3   OH2 8357   5.650   2.282   1.217  0.2272 -0.3474  0.0258
 2784TIP3    H1 8358   5.736   2.310   1.186 -0.2688  1.1704 -0.0937
 2784TIP3    H2 8359   5.652   2.296   1.311 -0.5393  1.7148 -0.2152
 2785TIP3   OH2 8360   0.565   1.824   3.357  0.0676 -0.2765  0.1997
 2785TIP3    H1 8361   0.628   1.881   3.312 -1.5449  2.6123  1.3142
 2785TIP3    H2 8362   0.504   1.797   3.288  0.0205  0.6214 -0.1281
 2786TIP3   OH2 8363   3.460   3.106   0.582 -0.4035  0.1252  0.3680
 2786TIP3    H1 8364   3.522   3.042   0.548 -0.6107  0.7396 -1.2485
 2786TIP3    H2 8365   3.511   3.159   0.643  0.7576  0.7469 -1.0826
 2787TIP3   OH2 8366   5.793   1.021   4.240 -0.2950 -0.5440 -0.2937
 2787TIP3    H1 8367   5.842   0.969   4.303 -1.1364 -1.1244 -0.0941
 2787TIP3    H2 8368   5.761   1.096   4.290 -0.2202 -0.5468 -0.2426
 2788TIP3   OH2 8369   1.675   2.897   2.571  0.3004 -0.2861 -0.1604
 2788TIP3    H1 8370   1.672   2.820   2.514  0.2716 -0.6698  0.3479
 2788TIP3    H2 8371   1.746   2.951   2.536  0.2041 -0.4602 -0.6258
 2789TIP3   OH2 8372   4.977   2.558   3.368 -0.5583  0.3613 -0.0905
 2789TIP3    H1 8373   4.911   2.600   3.313  1.1761  3.1195 -0.2715
 2789TIP3    H2 8374   4.973   2.608   3.450  0.4845 -0.2087  0.3158
 2790TIP3   OH2 8375   3.444   5.303   1.337  0.5269  0.5816 -0.3465
 2790TIP3    H1 8376   3.416   5.221   1.299  2.0581  0.9948 -2.5999
 2790TIP3    H2 8377   3.363   5.349   1.360 -0.3475 -1.4982  1.0198
 2791TIP3   OH2 8378   0.419   5.612   0.199  0.3516 -0.6308 -0.3024
 2791TIP3    H1 8379   0.414   5.520   0.223 -1.4774 -0.4055  0.4077
 2791TIP3    H2 8380   0.496   5.645   0.246  0.4786 -1.5939  0.1882
 2792TIP3   OH2 8381   0.470   1.189   2.543  0.0332  0.0080 -0.0437
 2792TIP3    H1 8382   0.495   1.281   2.541  0.6547 -0.1722 -1.6038
 2792TIP3    H2 8383   0.522   1.148   2.474  0.6589 -1.7662  1.3964
 2793TIP3   OH2 8384   0.942   2.955   3.748  0.0125 -0.0442 -0.1371
 2793TIP3    H1 8385   0.887   3.013   3.697  0.6380 -0.9680 -1.9497
 2793TIP3    H2 8386   0.987   3.012   3.810 -1.2524  1.0234 -0.1678
 2794TIP3   OH2 8387   1.922   0.473   1.647 -0.1404 -0.9200 -0.2786
 2794TIP3    H1 8388   1.902   0.556   1.689  0.2789 -1.9302  2.1292
 2794TIP3    H2 8389   1.864   0.469   1.571  0.2560  1.7763 -0.8050
 2795TIP3   OH2 8390   2.918   4.140   2.097  0.5508  0.9695 -0.0679
 2795TIP3    H1 8391   2.869   4.128   2.178 -1.0470  1.3832 -0.9170
 2795TIP3    H2 8392   2.972   4.062   2.089 -1.5220 -0.5558 -0.0862
 2796TIP3   OH2 8393   3.542   1.902   0.555 -0.3353  0.3382  0.1043
 2796TIP3    H1 8394   3.579   1.972   0.608 -0.5132  0.5994 -0.1131
 2796TIP3    H2 8395   3.599   1.827   0.570 -1.0655  0.0556  1.6005
 2797TIP3   OH2 8396   3.750   1.562   2.925  0.1067 -0.3953 -0.0853
 2797TIP3    H1 8397   3.687   1.502   2.885  0.4847 -0.1344 -1.0801
 2797TIP3    H2 8398   3.834   1.517   2.917  0.2716 -0.0828 -0.1219
 2798TIP3   OH2 8399   2.065   0.614   1.443  0.5445 -0.1425 -0.6222
 2798TIP3    H1 8400   2.067   0.556   1.519  3.1369 -0.2044 -0.6339
 2798TIP3    H2 8401   2.024   0.562   1.374 -0.8588 -0.4586  0.4015
 2799TIP3   OH2 8402   4.302   3.196   3.004  0.7217  0.3542  0.0643
 2799TIP3    H1 8403   4.301   3.215   3.097 -0.8187  1.7411 -0.1913
 2799TIP3    H2 8404   4.219   3.151   2.988  0.1400  1.6995 -0.8934
 2800TIP3   OH2 8405   2.638   1.173   5.062  0.5044 -0.2472  0.3053
 2800TIP3    H1 8406   2.621   1.267   5.055 -0.9931 -0.5049  0.1241
 2800TIP3    H2 8407   2.609   1.137   4.978  0.5970 -0.9350  0.5582
 2801TIP3   OH2 8408   1.981   2.492   2.394 -0.3662  0.4700 -0.3082
 2801TIP3    H1 8409   1.951   2.538   2.315 -1.1863  0.0579 -0.2522
 2801TIP3    H2 8410   1.969   2.555   2.465 -0.5417  0.5159 -0.3771
 2802TIP3   OH2 8411   3.926   0.653   0.684  0.3774  0.7489 -0.1956
 2802TIP3    H1 8412   3.957   0.601   0.758  0.2636  0.8938 -0.0472
 2802TIP3    H2 8413   3.842   0.687   0.712  0.3130  0.7664 -0.4101
 2803TIP3   OH2 8414   1.035   1.827   1.005  0.3636  0.1637  0.4989
 2803TIP3    H1 8415   1.060   1.756   0.946  0.0512  0.9026 -0.5656
 2803TIP3    H2 8416   0.980   1.786   1.071  0.6398 -0.6710  0.2247
 2804TIP3   OH2 8417   0.574   0.072   4.489 -0.0316 -0.2521  0.1381
 2804TIP3    H1 8418   0.630   0.045   4.417 -1.2777  0.6237 -1.2229
 2804TIP3    H2 8419   0.578  -0.000   4.552  0.5978 -1.3215 -1.0882
 2805TIP3   OH2 8420   2.504   0.952   0.618 -0.6892  0.2057  0.4071
 2805TIP3    H1 8421   2.427   0.900   0.598  0.2785 -1.3234  0.4785
 2805TIP3    H2 8422   2.556   0.897   0.676 -0.0349  1.6350  1.2441
 2806TIP3   OH2 8423   2.308   2.514   2.189  0.2267 -0.1094  0.3263
 2806TIP3    H1 8424   2.237   2.452   2.173  0.2716 -0.1721  0.3667
 2806TIP3    H2 8425   2.387   2.467   2.159  0.0848  0.5220 -1.1339
 2807TIP3   OH2 8426   2.726   0.542   3.621 -0.0403 -0.0239  0.4612
 2807TIP3    H1 8427   2.776   0.465   3.593  0.2203  0.2299  0.2204
 2807TIP3    H2 8428   2.784   0.586   3.684 -0.5602 -0.5104  1.3013
 2808TIP3   OH2 8429   2.481   4.283   3.388 -0.4005 -0.3739 -0.0271
 2808TIP3    H1 8430   2.470   4.282   3.293 -1.3861 -0.1331  0.0765
 2808TIP3    H2 8431   2.570   4.251   3.402  0.2471  0.8739 -1.1020
 2809TIP3   OH2 8432   3.523   0.598   3.501  0.0248 -0.3560 -0.3560
 2809TIP3    H1 8433   3.512   0.548   3.582 -0.7546  0.2794 -0.0513
 2809TIP3    H2 8434   3.617   0.613   3.495  0.1354 -0.7681  0.2143
 2810TIP3   OH2 8435   5.522   1.737   4.558  0.4672 -0.0252  0.7590
 2810TIP3    H1 8436   5.517   1.758   4.465 -1.5044 -2.6268  0.1611
 2810TIP3    H2 8437   5.443   1.776   4.595  1.8084  1.9850  1.6517
 2811TIP3   OH2 8438   5.326   1.670   0.765  0.6094  0.0121 -0.6442
 2811TIP3    H1 8439   5.383   1.661   0.688  0.9336  2.0035 -0.7130
 2811TIP3    H2 8440   5.268   1.743   0.742 -0.9856 -1.0093  0.0325
 2812TIP3   OH2 8441   3.592   3.273   0.770 -0.2012 -0.0689 -0.1532
 2812TIP3    H1 8442   3.684   3.297   0.766  0.2017 -1.5452 -0.2894
 2812TIP3    H2 8443   3.549   3.347   0.813  1.0111  0.7101 -0.2538
 2813TIP3   OH2 8444   4.803   1.081   2.761 -0.2280  0.3136  0.2151
 2813TIP3    H1 8445   4.777   1.130   2.682  0.1031  0.3350  0.1183
 2813TIP3    H2 8446   4.726   1.028   2.782  0.4532 -1.4586 -1.4923
 2814TIP3   OH2 8447   6.007   0.753   2.657  0.1758 -0.7669 -0.1170
 2814TIP3    H1 8448   6.077   0.817   2.649  0.7628 -1.5385 -1.2700
 2814TIP3    H2 8449   5.928   0.801   2.633  0.4180 -0.1434  0.2956
 2815TIP3   OH2 8450   5.370   5.127   3.024  0.1540  0.3429 -0.4820
 2815TIP3    H1 8451   5.451   5.103   3.070 -1.4179 -0.8551  1.8543
 2815TIP3    H2 8452   5.356   5.055   2.961  0.9261  0.5963 -0.9516
 2816TIP3   OH2 8453   3.717   2.412   1.397 -0.6040  0.2005  0.1242
 2816TIP3    H1 8454   3.640   2.391   1.450 -1.1139 -0.3985 -0.8126
 2816TIP3    H2 8455   3.696   2.495   1.355 -0.7841 -0.0147 -0.2120
 2817TIP3   OH2 8456   2.684   5.160   2.697  0.6427 -0.6783 -0.9664
 2817TIP3    H1 8457   2.750   5.192   2.635  0.1947 -0.5032 -1.3589
 2817TIP3    H2 8458   2.732   5.149   2.779  0.4379  3.2081 -0.1270
 2818TIP3   OH2 8459   2.429   4.568   1.463 -0.2540  0.4985  0.0289
 2818TIP3    H1 8460   2.512   4.563   1.510 -0.9194 -1.2328  1.1171
 2818TIP3    H2 8461   2.452   4.551   1.372  0.5779  0.0133  0.3192
 2819TIP3   OH2 8462   4.174   2.742   2.306 -0.0373 -0.8718  0.7844
 2819TIP3    H1 8463   4.238   2.789   2.251 -0.3652 -1.1000  0.1974
 2819TIP3    H2 8464   4.100   2.727   2.248 -1.2981  0.7677  1.8685
 2820TIP3   OH2 8465   0.927   5.220   4.690  0.8054 -0.2114 -0.6389
 2820TIP3    H1 8466   0.965   5.137   4.718  1.3705 -0.0525 -0.9341
 2820TIP3    H2 8467   0.918   5.213   4.595 -0.2194 -0.3734 -0.5434
 2821TIP3   OH2 8468   0.781   2.450   4.662 -0.1254 -0.2130 -0.2940
 2821TIP3    H1 8469   0.772   2.355   4.651  0.0060 -0.4071  1.1595
 2821TIP3    H2 8470   0.755   2.466   4.752  1.2419  0.9559 -0.0812
 2822TIP3   OH2 8471   3.970   2.633   2.157 -0.0207 -0.6243  0.6929
 2822TIP3    H1 8472   3.892   2.610   2.106  0.1432  0.9789 -0.3473
 2822TIP3    H2 8473   3.997   2.550   2.197  0.0699 -2.0782 -2.1207
 2823TIP3   OH2 8474   5.760   2.932   2.108  0.0746 -1.2634 -0.2978
 2823TIP3    H1 8475   5.815   2.980   2.169 -2.2069 -0.0495  0.9137
 2823TIP3    H2 8476   5.729   2.856   2.157 -1.4437 -0.5009 -0.0176
 2824TIP3   OH2 8477   2.414   3.649   2.423  0.8440  0.4785  0.5762
 2824TIP3    H1 8478   2.435   3.597   2.501 -0.9175  1.4312  1.7685
 2824TIP3    H2 8479   2.319   3.646   2.418  0.8214  2.0241 -0.4146
 2825TIP3   OH2 8480   1.648   3.214   2.146 -0.1531 -0.2720 -0.1569
 2825TIP3    H1 8481   1.605   3.243   2.066  0.1765 -2.4528 -1.2199
 2825TIP3    H2 8482   1.612   3.126   2.162 -1.2408  0.6032  2.9226
 2826TIP3   OH2 8483   3.545   4.578   1.517  0.7151 -0.2239 -0.1459
 2826TIP3    H1 8484   3.483   4.571   1.445 -0.7026  0.3944  0.9638
 2826TIP3    H2 8485   3.612   4.638   1.486  1.7326 -2.1918 -1.9929
 2827TIP3   OH2 8486   4.158   3.679   4.958  0.5074 -0.0681 -1.0077
 2827TIP3    H1 8487   4.244   3.651   4.989  0.2423 -0.4132 -0.5520
 2827TIP3    H2 8488   4.097   3.618   5.000 -0.2842  2.2239  1.4837
 2828TIP3   OH2 8489   2.014   4.911   1.930  0.1337  0.1863 -0.1361
 2828TIP3    H1 8490   1.962   4.883   2.005 -0.8338  0.1840 -0.7923
 2828TIP3    H2 8491   2.074   4.839   1.914 -0.7483 -0.5134 -0.3586
 2829TIP3   OH2 8492   5.732   3.354   4.010  0.1212  0.2728 -0.0265
 2829TIP3    H1 8493   5.724   3.259   4.013 -0.0641  0.3007  0.3678
 2829TIP3    H2 8494   5.818   3.372   4.047  0.7346  0.1773 -1.3494
 2830TIP3   OH2 8495   3.945   0.495   3.610  0.3152 -0.0084  0.0145
 2830TIP3    H1 8496   3.992   0.441   3.547  0.7786  0.2177  0.1603
 2830TIP3    H2 8497   3.879   0.437   3.646  1.5725 -0.8576  1.0479
 2831TIP3   OH2 8498   4.655   3.585   3.816 -0.3693 -0.2164  0.2709
 2831TIP3    H1 8499   4.736   3.635   3.828 -1.1273  1.3213 -0.7427
 2831TIP3    H2 8500   4.630   3.601   3.725  0.7264 -4.6369 -1.0245
 2832TIP3   OH2 8501   1.530   3.882   2.944 -0.1064 -0.1115 -0.1999
 2832TIP3    H1 8502   1.450   3.915   2.904  0.1037 -0.0084 -0.5404
 2832TIP3    H2 8503   1.568   3.824   2.878  0.6549  0.6826 -0.4807
 2833TIP3   OH2 8504   2.022   5.436   3.593 -0.3008 -1.2139 -0.1983
 2833TIP3    H1 8505   1.928   5.445   3.609  0.0813  0.2654  1.6166
 2833TIP3    H2 8506   2.059   5.521   3.617  1.5012 -1.7269 -0.9504
 2834TIP3   OH2 8507   1.674   1.227   3.136 -0.0936 -0.2589  0.6145
 2834TIP3    H1 8508   1.640   1.286   3.069 -1.1237 -1.4396  0.0569
 2834TIP3    H2 8509   1.731   1.166   3.089 -1.6938 -1.7984  0.5389
 2835TIP3   OH2 8510   4.553   5.604   2.217  0.1500  0.3806  0.6192
 2835TIP3    H1 8511   4.504   5.608   2.135  1.3992 -1.7430 -0.3049
 2835TIP3    H2 8512   4.530   5.685   2.262 -3.0132  0.1743 -0.3811
 2836TIP3   OH2 8513   6.023   3.394   4.069 -0.2946  0.0316  0.3194
 2836TIP3    H1 8514   6.039   3.414   3.976  2.8009 -1.2317  0.4855
 2836TIP3    H2 8515   6.066   3.464   4.116 -2.1545  0.8579  0.8888
 2837TIP3   OH2 8516   4.825   5.267   4.804 -0.1264 -0.3853 -0.1612
 2837TIP3    H1 8517   4.807   5.226   4.888 -0.8867  0.1107 -0.0743
 2837TIP3    H2 8518   4.879   5.343   4.826 -2.1155  1.0255  0.1714
 2838TIP3   OH2 8519   0.829   4.262   2.531 -0.0587  0.1479  0.0301
 2838TIP3    H1 8520   0.860   4.198   2.467  0.5495  0.0910  0.3742
 2838TIP3    H2 8521   0.852   4.225   2.616 -1.0975  0.0993  0.3033
 2839TIP3   OH2 8522   4.172   3.094   3.523 -0.1006  0.2590 -0.1293
 2839TIP3    H1 8523   4.258   3.115   3.560 -0.0703  0.4858 -0.3206
 2839TIP3    H2 8524   4.117   3.074   3.598  0.0996  0.1943  0.0009
 2840TIP3   OH2 8525   4.711   2.851   4.774 -0.3416  0.0327 -0.4395
 2840TIP3    H1 8526   4.745   2.935   4.744  0.3571 -0.3167 -0.6364
 2840TIP3    H2 8527   4.625   2.872   4.812  0.0021  0.8921 -0.1180
 2841TIP3   OH2 8528   4.350   0.098   4.404  0.1503 -0.2039 -0.4045
 2841TIP3    H1 8529   4.339   0.096   4.309  1.5200 -1.8848 -0.5817
 2841TIP3    H2 8530   4.291   0.030   4.436 -0.4196  0.4587 -0.0157
 2842TIP3   OH2 8531   4.304   2.481   1.785 -0.0591  0.0111 -0.5906
 2842TIP3    H1 8532   4.358   2.509   1.711 -0.5886  0.9414 -0.6425
 2842TIP3    H2 8533   4.309   2.386   1.784 -0.3142 -0.0027 -2.0249
 2843TIP3   OH2 8534   1.963   3.946   3.679 -0.1839  0.2189 -0.1081
 2843TIP3    H1 8535   2.006   3.905   3.604 -1.0687 -0.3642 -0.3180
 2843TIP3    H2 8536   1.880   3.979   3.644  0.4064  2.0548  0.0993
 2844TIP3   OH2 8537   5.372   4.367   0.551 -0.2818 -0.2935  0.4082
 2844TIP3    H1 8538   5.444   4.430   0.544  1.1740 -1.8680  0.5433
 2844TIP3    H2 8539   5.390   4.304   0.482  0.0017 -2.1799  2.1265
 2845TIP3   OH2 8540   2.361   4.522   2.212  0.3661  0.0760  0.3787
 2845TIP3    H1 8541   2.287   4.546   2.268 -1.3160 -0.5575 -1.4340
 2845TIP3    H2 8542   2.345   4.569   2.130  2.4580  0.5743  0.2059
 2846TIP3   OH2 8543   5.700   3.765   3.433 -0.0547  0.1606  0.5047
 2846TIP3    H1 8544   5.713   3.804   3.347  0.9617  0.1690  0.6574
 2846TIP3    H2 8545   5.703   3.839   3.494 -1.0698  0.1941  0.5362
 2847TIP3   OH2 8546   0.713   4.877   0.838  0.3540  1.0429  0.1269
 2847TIP3    H1 8547   0.621   4.859   0.815  0.4734  2.2774 -1.4610
 2847TIP3    H2 8548   0.727   4.967   0.811  2.2563  0.6495 -0.2899
 2848TIP3   OH2 8549   2.753   3.791   3.095  0.0477  0.3656 -0.5678
 2848TIP3    H1 8550   2.659   3.778   3.109  0.3025 -0.8524  0.1665
 2848TIP3    H2 8551   2.770   3.881   3.123 -1.1247  1.1056 -2.0489
 2849TIP3   OH2 8552   3.362   5.561   3.231 -0.0422  0.0595  0.1128
 2849TIP3    H1 8553   3.289   5.502   3.211  1.2547 -2.2310  1.6209
 2849TIP3    H2 8554   3.435   5.527   3.179  1.1254 -0.7239  2.1421
 2850TIP3   OH2 8555   5.086   1.887   3.491 -0.0987 -0.6545 -0.4708
 2850TIP3    H1 8556   5.102   1.943   3.414  0.7596 -0.3860 -0.1190
 2850TIP3    H2 8557   4.992   1.893   3.506 -0.2956 -0.7676 -1.5439
 2851TIP3   OH2 8558   2.158   2.481   5.133 -0.6322 -0.3396 -0.6974
 2851TIP3    H1 8559   2.206   2.507   5.211  1.2537  0.8009 -2.1310
 2851TIP3    H2 8560   2.148   2.387   5.141  3.8505 -1.1067 -1.1776
 2852TIP3   OH2 8561   1.869   3.555   1.647  0.4607 -0.2406 -0.8269
 2852TIP3    H1 8562   1.826   3.637   1.624  2.0808  0.9689  0.2580
 2852TIP3    H2 8563   1.815   3.518   1.716 -0.0433  0.1225 -1.0202
 2853TIP3   OH2 8564   6.235   1.231   1.157 -0.2125  0.3875 -0.1524
 2853TIP3    H1 8565   6.304   1.296   1.141 -1.9962  1.8034 -3.0223
 2853TIP3    H2 8566   6.216   1.238   1.250  1.3506  2.2324  0.0937
 2854TIP3   OH2 8567   0.825   4.592   0.978 -0.0609 -0.1346 -0.1084
 2854TIP3    H1 8568   0.906   4.639   0.957 -0.1739 -0.7200 -1.9874
 2854TIP3    H2 8569   0.809   4.613   1.070  1.0873  1.6764 -0.2743
 2855TIP3   OH2 8570   4.282   1.376   3.552  0.5900  0.4534 -0.0650
 2855TIP3    H1 8571   4.205   1.334   3.513  0.4070 -0.4663  1.2325
 2855TIP3    H2 8572   4.313   1.314   3.618  2.7583  0.5782 -0.8788
 2856TIP3   OH2 8573   1.364   5.558   1.860 -0.5911  0.8396 -0.2850
 2856TIP3    H1 8574   1.376   5.468   1.893 -1.6008  0.5585 -0.6465
 2856TIP3    H2 8575   1.330   5.606   1.935 -0.6419  0.7720 -0.2643
 2857TIP3   OH2 8576   0.268   4.545   3.165 -0.0180  0.4841  0.3155
 2857TIP3    H1 8577   0.359   4.524   3.143  0.2484  1.3889  0.5186
 2857TIP3    H2 8578   0.225   4.557   3.080 -0.3221 -1.3841  0.1677
 2858TIP3   OH2 8579   2.501   3.554   0.423  0.1745  0.0546 -0.2335
 2858TIP3    H1 8580   2.570   3.501   0.464 -0.8923  0.0042  1.6108
 2858TIP3    H2 8581   2.420   3.518   0.458 -0.6440  2.0164  0.0045
 2859TIP3   OH2 8582   4.672   1.508   3.298 -0.2458  0.0635 -0.1309
 2859TIP3    H1 8583   4.648   1.446   3.229  1.7382 -1.7503  0.6873
 2859TIP3    H2 8584   4.590   1.529   3.341 -1.2128 -0.5226 -1.6045
 2860TIP3   OH2 8585   2.761   0.748   2.449  0.0603 -1.2817  0.3487
 2860TIP3    H1 8586   2.825   0.815   2.473 -0.6123 -0.5118  0.0344
 2860TIP3    H2 8587   2.786   0.721   2.360 -1.1606  0.4189 -0.5656
 2861TIP3   OH2 8588   5.814   1.934   0.492  0.5824  0.0475 -0.3632
 2861TIP3    H1 8589   5.840   1.927   0.400 -0.4593 -0.1589 -0.6541
 2861TIP3    H2 8590   5.834   2.024   0.516 -0.9926  0.7340 -1.4031
 2862TIP3   OH2 8591   0.548   5.932   3.151 -0.0215 -0.6620  0.0728
 2862TIP3    H1 8592   0.541   5.928   3.056  0.0916 -0.9914  0.0765
 2862TIP3    H2 8593   0.574   6.022   3.170  0.2033 -0.6633 -0.2253
 2863TIP3   OH2 8594   3.672   3.339   3.792 -0.4428 -0.6061  0.0450
 2863TIP3    H1 8595   3.714   3.285   3.726  2.0661  2.2191 -0.8601
 2863TIP3    H2 8596   3.619   3.402   3.743 -3.0098 -1.8409  1.0500
 2864TIP3   OH2 8597   2.622   0.485   3.130  0.4613 -0.6671 -0.5597
 2864TIP3    H1 8598   2.580   0.503   3.213  1.6924  0.6938 -0.2027
 2864TIP3    H2 8599   2.557   0.510   3.064  0.7444  1.6620 -0.0247
 2865TIP3   OH2 8600   4.111   1.199   1.990  0.0902 -0.5866 -0.0147
 2865TIP3    H1 8601   4.066   1.129   1.944 -1.3977  1.9683 -2.8622
 2865TIP3    H2 8602   4.043   1.264   2.008  1.7656  1.2768  0.0547
 2866TIP3   OH2 8603   6.234   3.771   3.925  0.3027 -0.3695  0.2184
 2866TIP3    H1 8604   6.176   3.837   3.963  0.2757  0.9751 -1.9987
 2866TIP3    H2 8605   6.177   3.716   3.872  0.6317 -0.9008  0.4081
 2867TIP3   OH2 8606   0.335   4.209   1.682 -0.1327  0.2589 -0.3658
 2867TIP3    H1 8607   0.288   4.183   1.603 -0.0997  0.3361 -0.4101
 2867TIP3    H2 8608   0.394   4.279   1.654 -2.5445  2.7604  0.3918
 2868TIP3   OH2 8609   0.737   4.154   1.439  0.6981 -0.0752 -0.0086
 2868TIP3    H1 8610   0.828   4.180   1.426  1.0198 -0.6248  1.0580
 2868TIP3    H2 8611   0.740   4.088   1.508 -0.4756 -0.3635 -0.2087
 2869TIP3   OH2 8612   5.383   3.424   0.162 -0.1692 -0.5467 -0.3035
 2869TIP3    H1 8613   5.374   3.433   0.257 -0.9273 -2.0977 -0.2015
 2869TIP3    H2 8614   5.474   3.449   0.144 -0.0200 -0.2238  0.8208
 2870TIP3   OH2 8615   5.329   3.372   4.449  0.3667 -0.0896 -0.3455
 2870TIP3    H1 8616   5.385   3.449   4.441  0.6529 -0.2916 -0.3214
 2870TIP3    H2 8617   5.289   3.380   4.536  2.1578 -1.1156  0.6295
 2871TIP3   OH2 8618   0.121   3.876   3.820 -0.5217  0.1118  0.1071
 2871TIP3    H1 8619   0.043   3.865   3.874  0.9260 -2.3992  1.9061
 2871TIP3    H2 8620   0.094   3.847   3.733 -2.5183  2.9079 -0.3376
 2872TIP3   OH2 8621   1.567   5.640   2.649 -0.0099 -0.0998  0.1203
 2872TIP3    H1 8622   1.484   5.639   2.697 -0.4873  0.8111 -0.6355
 2872TIP3    H2 8623   1.612   5.718   2.682 -0.3304  0.5166 -0.8569
 2873TIP3   OH2 8624   2.359   5.118   4.980  0.0056  0.0009  0.2631
 2873TIP3    H1 8625   2.399   5.033   4.965 -1.7647 -0.4409 -2.9244
 2873TIP3    H2 8626   2.380   5.169   4.901 -0.9729  1.6541  1.0062
 2874TIP3   OH2 8627   2.604   4.370   0.477 -0.3637 -0.1189 -0.2029
 2874TIP3    H1 8628   2.539   4.389   0.545  1.1429 -0.2513  1.3277
 2874TIP3    H2 8629   2.655   4.297   0.512 -1.1953 -2.0248 -2.6634
 2875TIP3   OH2 8630   6.031   4.705   0.748  0.1766  0.0323 -0.6314
 2875TIP3    H1 8631   5.974   4.768   0.703  1.1216  0.7104 -0.9228
 2875TIP3    H2 8632   5.974   4.630   0.767 -1.1380  1.2079  0.2686
 2876TIP3   OH2 8633   2.078   0.748   4.157 -0.2875  0.0290 -0.5671
 2876TIP3    H1 8634   1.998   0.734   4.106 -1.3626  1.0351  0.7588
 2876TIP3    H2 8635   2.122   0.663   4.157 -3.1293 -1.6216  1.5907
 2877TIP3   OH2 8636   6.292   0.105   5.123 -0.5418 -0.0114 -0.0974
 2877TIP3    H1 8637   6.299   0.122   5.029  0.7903  0.5825  0.0857
 2877TIP3    H2 8638   6.233   0.030   5.130  3.6018 -3.8809 -1.8606
 2878TIP3   OH2 8639   1.816   1.077   2.555 -0.0431 -0.5210 -0.1962
 2878TIP3    H1 8640   1.752   1.077   2.484 -2.9513  0.7762  2.2454
 2878TIP3    H2 8641   1.805   0.993   2.598  2.5360 -1.8076 -1.7890
 2879TIP3   OH2 8642   4.804   5.326   1.505  0.3720 -0.4925  0.4272
 2879TIP3    H1 8643   4.833   5.361   1.420 -1.2094 -4.4398 -2.0338
 2879TIP3    H2 8644   4.881   5.279   1.539  0.2519 -1.2205 -0.2717
 2880TIP3   OH2 8645   5.280   4.336   1.910 -0.0165  0.0256  0.1614
 2880TIP3    H1 8646   5.210   4.340   1.845  0.2918 -3.0701 -0.5453
 2880TIP3    H2 8647   5.318   4.249   1.898  2.2667  0.6203  2.2769
 2881TIP3   OH2 8648   1.626   0.727   1.800  0.9913  0.5909 -0.1289
 2881TIP3    H1 8649   1.592   0.815   1.780  1.7173  1.4791  2.1864
 2881TIP3    H2 8650   1.717   0.729   1.772  0.9842  0.5503 -0.1550
 2882TIP3   OH2 8651   1.721   4.793   4.239  0.3388 -0.3346  0.0290
 2882TIP3    H1 8652   1.784   4.818   4.307 -1.0510  0.8598  0.9179
 2882TIP3    H2 8653   1.637   4.824   4.271 -0.3306  0.5212 -2.3669
 2883TIP3   OH2 8654   2.370   0.218   4.495 -0.1920  0.1305  0.0940
 2883TIP3    H1 8655   2.417   0.301   4.492 -0.8824  0.5194 -0.2089
 2883TIP3    H2 8656   2.341   0.210   4.586 -0.6084  0.4974 -0.0049
 2884TIP3   OH2 8657   4.113   0.536   2.885 -0.1475 -0.1291  0.4606
 2884TIP3    H1 8658   4.089   0.464   2.942 -0.4627  0.1263  0.6553
 2884TIP3    H2 8659   4.029   0.571   2.854  0.0189 -1.2154 -1.3732
 2885TIP3   OH2 8660   3.386   3.483   4.556 -0.5713  0.4289  0.5321
 2885TIP3    H1 8661   3.418   3.533   4.481  2.3018 -1.6626  0.1914
 2885TIP3    H2 8662   3.378   3.393   4.523 -1.1232 -0.1857  2.2402
 2886TIP3   OH2 8663   0.693   1.102   1.417 -0.7885  0.3562  0.0825
 2886TIP3    H1 8664   0.768   1.159   1.431 -0.9058  0.5130  0.0726
 2886TIP3    H2 8665   0.729   1.013   1.422 -0.3672  0.4387 -1.2987
 2887TIP3   OH2 8666   4.598   3.017   2.016 -0.0904 -0.1611  0.5921
 2887TIP3    H1 8667   4.693   3.017   2.031 -0.2156  1.7968  1.7011
 2887TIP3    H2 8668   4.585   2.952   1.947  2.2802  0.6913 -0.7814
 2888TIP3   OH2 8669   1.227   3.967   2.032  0.1626 -0.1077  0.4693
 2888TIP3    H1 8670   1.213   3.905   2.103  1.6161  0.3541  1.2042
 2888TIP3    H2 8671   1.237   3.913   1.953 -0.6620 -0.6680  0.7456
 2889TIP3   OH2 8672   5.521   3.376   4.992  0.2272 -0.1573  0.0130
 2889TIP3    H1 8673   5.557   3.397   4.907  0.1826 -0.3356 -0.0505
 2889TIP3    H2 8674   5.525   3.458   5.041  0.1460 -0.0264 -0.1986
 2890TIP3   OH2 8675   3.747   0.258   4.273  0.1639  0.0102 -0.0656
 2890TIP3    H1 8676   3.766   0.165   4.263 -2.9426 -0.6148 -1.2440
 2890TIP3    H2 8677   3.832   0.298   4.292  1.8463 -2.8290 -1.0124
 2891TIP3   OH2 8678   2.004   4.393   3.088 -0.5367 -0.3892 -0.0826
 2891TIP3    H1 8679   1.917   4.398   3.048  0.7906  0.2134 -3.1695
 2891TIP3    H2 8680   2.049   4.323   3.041  1.7391  1.5877 -1.0839
 2892TIP3   OH2 8681   1.716   3.162   4.660  0.1852  0.0795  0.4858
 2892TIP3    H1 8682   1.650   3.126   4.601  2.3341  0.1767 -2.1742
 2892TIP3    H2 8683   1.753   3.086   4.704 -0.1100 -0.2081  0.2442
 2893TIP3   OH2 8684   6.172   1.269   1.632 -0.2961  0.3877 -0.0828
 2893TIP3    H1 8685   6.222   1.242   1.555 -0.6678  2.2214 -1.0434
 2893TIP3    H2 8686   6.238   1.306   1.691 -0.1450  0.0289 -0.0270
 2894TIP3   OH2 8687   3.375   1.449   3.619 -0.3985 -0.3509 -0.6672
 2894TIP3    H1 8688   3.438   1.498   3.568  1.7729 -0.5375  1.6340
 2894TIP3    H2 8689   3.348   1.509   3.689 -0.3525 -1.2672  0.1721
 2895TIP3   OH2 8690   1.411   2.933   2.536  0.3093  0.5065  0.1434
 2895TIP3    H1 8691   1.504   2.922   2.557  0.7170  1.8450 -0.8104
 2895TIP3    H2 8692   1.396   2.876   2.460  0.7223  1.3562 -0.5897
 2896TIP3   OH2 8693   5.316   0.523   1.747  0.3547 -0.0497 -0.4572
 2896TIP3    H1 8694   5.309   0.599   1.688 -0.6879  0.4768  0.3178
 2896TIP3    H2 8695   5.228   0.513   1.784  0.1319 -2.4298 -1.4759
 2897TIP3   OH2 8696   5.726   3.868   3.170  0.4503 -0.7617  0.4532
 2897TIP3    H1 8697   5.658   3.804   3.148 -1.9411  2.0545 -1.3502
 2897TIP3    H2 8698   5.778   3.875   3.090  1.4685 -1.2906  1.0587
 2898TIP3   OH2 8699   2.625   3.831   3.563  0.4277  0.5211  0.1872
 2898TIP3    H1 8700   2.553   3.883   3.598  0.1663 -1.1837  2.4287
 2898TIP3    H2 8701   2.696   3.844   3.625  0.7355 -0.8386  0.1510
 2899TIP3   OH2 8702   0.175   1.687   1.387 -0.3199  0.4946  0.3213
 2899TIP3    H1 8703   0.114   1.618   1.414  0.3141 -1.2268 -2.1917
 2899TIP3    H2 8704   0.261   1.645   1.390  0.3320  1.7890  0.5016
 2900TIP3   OH2 8705   4.391   2.293   4.798 -0.2062  0.1531 -0.2679
 2900TIP3    H1 8706   4.385   2.294   4.893 -0.3288 -0.4073 -0.2676
 2900TIP3    H2 8707   4.396   2.385   4.773  1.8268  0.2801  0.3965
 2901TIP3   OH2 8708   2.988   5.806   0.518 -0.3418  0.5318  0.2824
 2901TIP3    H1 8709   3.067   5.764   0.483 -0.5259  1.3522 -1.1551
 2901TIP3    H2 8710   2.915   5.757   0.480 -0.5482  0.8017  0.3299
 2902TIP3   OH2 8711   3.422   4.792   4.792  0.3841 -0.3890  0.3924
 2902TIP3    H1 8712   3.454   4.825   4.707  0.2905 -1.2769  0.0016
 2902TIP3    H2 8713   3.425   4.697   4.783  1.4310 -0.5178  1.7875
 2903TIP3   OH2 8714   0.403   2.889   1.644  0.1819  0.0840 -0.5165
 2903TIP3    H1 8715   0.427   2.923   1.730  2.0157  0.6196 -1.1990
 2903TIP3    H2 8716   0.454   2.809   1.635  0.0817  0.0901 -1.1609
 2904TIP3   OH2 8717   1.192   3.770   3.186 -0.2006 -0.1242  0.5128
 2904TIP3    H1 8718   1.269   3.825   3.175  0.0652 -0.4054  0.9293
 2904TIP3    H2 8719   1.119   3.832   3.194 -0.0285  0.1383  0.0567
 2905TIP3   OH2 8720   5.098   4.222   2.172  0.0540  0.2236 -0.6826
 2905TIP3    H1 8721   5.046   4.284   2.122 -0.2634  0.8140  0.3544
 2905TIP3    H2 8722   5.055   4.138   2.158 -0.3995  0.4874 -0.8909
 2906TIP3   OH2 8723   6.025   3.059   4.847 -0.0472 -0.2006 -0.5803
 2906TIP3    H1 8724   6.082   3.128   4.813  0.1665 -0.0350  0.0895
 2906TIP3    H2 8725   6.028   2.990   4.781  0.6716 -0.0574 -0.7057
 2907TIP3   OH2 8726   5.278   4.850   4.809 -0.1135 -0.4544  0.1235
 2907TIP3    H1 8727   5.294   4.756   4.796 -0.3255 -0.2895 -1.4777
 2907TIP3    H2 8728   5.299   4.890   4.725  0.9105  1.0893  1.0726
 2908TIP3   OH2 8729   3.529   0.509   4.576  0.9889 -0.1025 -0.1492
 2908TIP3    H1 8730   3.597   0.484   4.639  2.1071  0.4255 -1.0972
 2908TIP3    H2 8731   3.549   0.601   4.556 -1.6353  0.9502  1.5427
 2909TIP3   OH2 8732   5.321   0.415   2.287  0.4808 -0.4165  0.8123
 2909TIP3    H1 8733   5.296   0.325   2.264  0.5989 -0.4892  0.9670
 2909TIP3    H2 8734   5.250   0.469   2.252  0.6474 -0.5260  0.2992
 2910TIP3   OH2 8735   5.610   2.369   0.549  0.2713 -0.1380 -0.1939
 2910TIP3    H1 8736   5.533   2.399   0.597  0.4186  1.5350 -0.9156
 2910TIP3    H2 8737   5.574   2.320   0.475 -0.2061  1.5331 -1.1256
 2911TIP3   OH2 8738   2.324   2.949   0.688  0.2082  0.1676  0.0399
 2911TIP3    H1 8739   2.293   3.006   0.618 -0.4016 -1.1817 -0.8382
 2911TIP3    H2 8740   2.370   2.878   0.642  0.6112 -0.2526  1.0662
 2912TIP3   OH2 8741   3.105   2.602   1.529  0.2283 -0.1037  0.0869
 2912TIP3    H1 8742   3.064   2.525   1.568 -0.6885  0.2615 -0.1205
 2912TIP3    H2 8743   3.050   2.622   1.452  0.5019  0.6930  0.0894
 2913TIP3   OH2 8744   6.240   1.298   4.400  0.6386  0.5479 -0.1256
 2913TIP3    H1 8745   6.298   1.223   4.392 -0.9264 -0.9682  1.7187
 2913TIP3    H2 8746   6.261   1.336   4.485 -1.5364 -0.5855  1.0223
 2914TIP3   OH2 8747   0.948   0.655   3.754 -0.6565  0.1120 -0.4176
 2914TIP3    H1 8748   0.929   0.585   3.692 -2.4595 -0.6419  0.8835
 2914TIP3    H2 8749   0.971   0.609   3.835 -2.7276  0.9584  0.7156
 2915TIP3   OH2 8750   5.488   1.834   5.055  0.0705 -0.3728 -0.1620
 2915TIP3    H1 8751   5.495   1.795   4.968 -1.9810  0.1351 -0.6040
 2915TIP3    H2 8752   5.395   1.828   5.077  0.0660  2.0296  0.7827
 2916TIP3   OH2 8753   0.963   2.227   5.023 -0.2288 -0.0353 -0.2863
 2916TIP3    H1 8754   0.954   2.243   5.117 -1.6736 -0.6174 -0.3037
 2916TIP3    H2 8755   0.984   2.312   4.986  0.8738  0.1139  0.6052
 2917TIP3   OH2 8756   0.342   0.338   0.861  0.2083  0.6859 -0.2350
 2917TIP3    H1 8757   0.410   0.327   0.928  2.8173 -1.7907 -2.9600
 2917TIP3    H2 8758   0.274   0.275   0.885  0.6150  0.5535  0.6049
 2918TIP3   OH2 8759   5.369   5.748   3.318  0.3982  0.1643  0.0703
 2918TIP3    H1 8760   5.357   5.794   3.234 -2.8387  0.6101  0.6618
 2918TIP3    H2 8761   5.334   5.660   3.303 -0.1957  0.2425  0.9140
 2919TIP3   OH2 8762   3.643   3.057   0.922  0.0973  0.4715 -0.3036
 2919TIP3    H1 8763   3.609   3.138   0.884  2.5349  1.8768  0.2770
 2919TIP3    H2 8764   3.684   3.085   1.004  1.2297 -1.2942 -0.2278
 2920TIP3   OH2 8765   1.052   2.937   3.028  0.2035 -0.1679  0.0508
 2920TIP3    H1 8766   0.983   2.890   3.076 -0.2197  0.6708  0.2844
 2920TIP3    H2 8767   1.030   2.922   2.936  0.2049 -0.6165  0.1211
 2921TIP3   OH2 8768   1.362   4.182   2.637  0.0124  0.6854 -0.8804
 2921TIP3    H1 8769   1.427   4.123   2.597 -0.6614 -1.2569  0.6913
 2921TIP3    H2 8770   1.280   4.157   2.596 -0.2825  0.4637 -0.1743
 2922TIP3   OH2 8771   5.994   1.717   0.318  0.0792  0.2837  0.8607
 2922TIP3    H1 8772   5.921   1.688   0.263  1.1884 -2.6200  0.7088
 2922TIP3    H2 8773   5.986   1.664   0.397  2.1575 -0.3465  0.6995
 2923TIP3   OH2 8774   4.012   1.935   3.756 -0.5098 -0.1605  0.3146
 2923TIP3    H1 8775   3.998   2.028   3.775  1.1337  0.0592  0.6973
 2923TIP3    H2 8776   3.993   1.891   3.839  1.7058  0.2271  1.1023
 2924TIP3   OH2 8777   3.587   4.406   4.635 -0.0399  0.4750 -0.0773
 2924TIP3    H1 8778   3.553   4.414   4.546 -1.7037 -0.0293  0.4669
 2924TIP3    H2 8779   3.537   4.470   4.686  1.2044  1.0810  0.4373
 2925TIP3   OH2 8780   5.873   2.970   4.465 -0.0419  0.0619  0.1520
 2925TIP3    H1 8781   5.877   2.927   4.551 -2.6727  0.1219  0.4093
 2925TIP3    H2 8782   5.958   3.011   4.454  0.4318 -0.0756  2.6837
 2926TIP3   OH2 8783   0.998   3.240   2.266  0.0258 -0.2238  0.1687
 2926TIP3    H1 8784   0.904   3.244   2.285 -0.8164 -1.7886 -3.0226
 2926TIP3    H2 8785   1.006   3.171   2.200  3.2281  0.9922 -0.8700
 2927TIP3   OH2 8786   4.898   4.140   3.795 -0.4778 -0.0326 -0.3207
 2927TIP3    H1 8787   4.904   4.132   3.890 -1.7465 -0.2527 -0.2522
 2927TIP3    H2 8788   4.881   4.233   3.780  0.2908  0.1073 -0.3751
 2928TIP3   OH2 8789   2.337   5.981   2.338  0.5067  0.7665 -0.2521
 2928TIP3    H1 8790   2.271   5.918   2.309 -0.3529  1.2084  0.6932
 2928TIP3    H2 8791   2.406   5.976   2.271 -1.1852  1.4351 -2.1684
 2929TIP3   OH2 8792   0.740   5.199   1.505  0.1384 -0.1265 -0.0514
 2929TIP3    H1 8793   0.818   5.246   1.534  0.7383 -0.7270 -0.6880
 2929TIP3    H2 8794   0.743   5.203   1.410 -1.4349  1.1938 -0.1072
 2930TIP3   OH2 8795   5.288   2.718   3.023  0.0767 -0.0428 -0.3378
 2930TIP3    H1 8796   5.195   2.695   3.020 -0.0960  0.6937 -2.7589
 2930TIP3    H2 8797   5.293   2.787   3.090 -0.6260 -1.8250  1.6568
 2931TIP3   OH2 8798   1.991   4.003   0.313  0.2591 -0.9431 -0.5538
 2931TIP3    H1 8799   1.959   4.077   0.364 -2.8260 -2.0001 -0.7170
 2931TIP3    H2 8800   2.031   3.945   0.377 -0.9934 -0.9555  0.2523
 2932TIP3   OH2 8801   1.384   5.707   1.158 -0.4724 -0.1397 -1.1085
 2932TIP3    H1 8802   1.410   5.730   1.247 -1.5116  0.5278 -0.9597
 2932TIP3    H2 8803   1.302   5.658   1.170  0.9843 -2.9184 -1.4951
 2933TIP3   OH2 8804   1.382   1.139   3.155  0.4746 -0.0968 -0.2225
 2933TIP3    H1 8805   1.370   1.062   3.100 -0.1162 -1.4888  1.7371
 2933TIP3    H2 8806   1.473   1.166   3.139  0.1429 -0.0628 -2.2769
 2934TIP3   OH2 8807   5.996   1.464   0.440  0.3410 -0.6827 -0.2931
 2934TIP3    H1 8808   6.064   1.418   0.490  1.2921  1.3910  0.4376
 2934TIP3    H2 8809   5.916   1.448   0.489  0.2515 -2.9925 -1.0445
 2935TIP3   OH2 8810   3.380   3.550   0.108 -0.0762 -0.2879  0.5602
 2935TIP3    H1 8811   3.448   3.575   0.170  0.4568 -0.8701  0.2224
 2935TIP3    H2 8812   3.351   3.633   0.070 -1.1950  0.2039  2.3521
 2936TIP3   OH2 8813   5.885   4.887   2.160  0.4743 -0.4723  0.1359
 2936TIP3    H1 8814   5.933   4.888   2.077  0.5201  0.1467  0.1631
 2936TIP3    H2 8815   5.945   4.927   2.223 -0.9527  2.9000 -0.3769
 2937TIP3   OH2 8816   3.406   4.905   0.987 -0.2848  0.6078  0.2005
 2937TIP3    H1 8817   3.369   4.880   0.903  0.3985  0.7449 -0.1489
 2937TIP3    H2 8818   3.409   5.001   0.985 -1.9686  0.7015  1.1328
 2938TIP3   OH2 8819   5.871   3.488   1.154  0.3371 -0.0888 -0.0166
 2938TIP3    H1 8820   5.942   3.431   1.186  0.1157 -0.1764  0.3277
 2938TIP3    H2 8821   5.877   3.565   1.211 -0.2734 -0.3879  0.4620
 2939TIP3   OH2 8822   1.889   3.900   4.232  0.7497  0.0915 -0.2148
 2939TIP3    H1 8823   1.933   3.817   4.219  1.4268  0.6370 -1.6818
 2939TIP3    H2 8824   1.944   3.964   4.186 -0.4194  1.1367 -0.2265
 2940TIP3   OH2 8825   2.704   5.301   4.172 -0.2894  0.5637  0.2309
 2940TIP3    H1 8826   2.625   5.296   4.118 -0.3950  3.0172  0.0303
 2940TIP3    H2 8827   2.685   5.369   4.236  1.4683  0.8722  0.4715
 2941TIP3   OH2 8828   4.573   3.585   2.450  0.4110 -0.4579  0.7594
 2941TIP3    H1 8829   4.604   3.521   2.386  1.2920  0.7434 -0.0522
 2941TIP3    H2 8830   4.522   3.648   2.398  2.6057  1.5348  0.8512
 2942TIP3   OH2 8831   3.763   2.307   2.061  0.0335  0.3483  0.1832
 2942TIP3    H1 8832   3.670   2.306   2.035  0.4190  1.1077 -1.3253
 2942TIP3    H2 8833   3.762   2.344   2.149 -1.1184  0.1266  0.2860
 2943TIP3   OH2 8834   1.126   1.982   2.141 -0.4144  0.0753 -0.3968
 2943TIP3    H1 8835   1.216   1.954   2.151 -0.4510 -0.3129 -1.0914
 2943TIP3    H2 8836   1.075   1.901   2.135 -0.7264  0.2859 -0.6628
 2944TIP3   OH2 8837   2.014   5.557   2.423 -0.4557 -0.0231  0.0798
 2944TIP3    H1 8838   1.960   5.616   2.370  1.6103  1.0643 -0.9151
 2944TIP3    H2 8839   2.044   5.490   2.361  1.0400  0.6102  0.0709
 2945TIP3   OH2 8840   2.192   5.299   2.882 -0.5369  0.3040  0.1593
 2945TIP3    H1 8841   2.247   5.231   2.843 -0.2433  0.0089  1.0586
 2945TIP3    H2 8842   2.126   5.318   2.815  0.3636  0.3236 -0.7473
 2946TIP3   OH2 8843   2.524   3.630   2.973 -0.6806  0.5459  0.6939
 2946TIP3    H1 8844   2.479   3.555   3.012  0.7024 -1.3216 -1.0649
 2946TIP3    H2 8845   2.555   3.598   2.888  1.6316  2.5120  0.6839
 2947TIP3   OH2 8846   2.857   3.709   1.948  0.2381 -0.3774  0.3687
 2947TIP3    H1 8847   2.797   3.681   1.879  0.2053 -1.2538  0.7324
 2947TIP3    H2 8848   2.910   3.631   1.967  3.3193  1.0131 -1.7414
 2948TIP3   OH2 8849   2.379   3.099   1.883 -0.3162  0.0350 -0.7951
 2948TIP3    H1 8850   2.406   3.052   1.803  1.0290 -1.0467  0.2391
 2948TIP3    H2 8851   2.424   3.183   1.877  2.1275 -1.1077  0.0932
 2949TIP3   OH2 8852   1.017   2.529   2.718  0.0699  0.4583  0.5557
 2949TIP3    H1 8853   1.000   2.559   2.629 -0.5332 -2.7307 -0.5075
 2949TIP3    H2 8854   1.100   2.482   2.713  0.2822  0.6610  1.8065
 2950TIP3   OH2 8855   5.650   2.744   2.337  0.0444 -0.5589 -0.4751
 2950TIP3    H1 8856   5.649   2.740   2.432  0.7563  1.3048 -0.3303
 2950TIP3    H2 8857   5.734   2.706   2.312  0.4330  0.1365 -0.2487
 2951TIP3   OH2 8858   6.223   4.753   3.399  0.3307  0.0032 -0.0359
 2951TIP3    H1 8859   6.278   4.712   3.466 -0.4197  0.2713  0.7602
 2951TIP3    H2 8860   6.222   4.690   3.327  0.5295 -0.6351  0.5090
 2952TIP3   OH2 8861   2.422   4.765   1.106 -0.2710  0.0263 -0.3793
 2952TIP3    H1 8862   2.426   4.830   1.036  1.6304  2.4626  1.7911
 2952TIP3    H2 8863   2.393   4.815   1.183  1.0974 -1.7030  1.3512
 2953TIP3   OH2 8864   1.253   5.563   4.682  0.0236 -0.2984  0.4181
 2953TIP3    H1 8865   1.342   5.531   4.697  0.0931 -0.2566  0.1040
 2953TIP3    H2 8866   1.265   5.642   4.629 -0.1973 -0.2438  0.4506
 2954TIP3   OH2 8867   0.385   3.325   3.262  0.3769  0.4131  0.5348
 2954TIP3    H1 8868   0.386   3.255   3.197 -1.1367  0.8446  0.0178
 2954TIP3    H2 8869   0.435   3.396   3.222  2.8374 -0.6743  1.4868
 2955TIP3   OH2 8870   2.706   3.817   2.152  0.0759  0.0685  0.3293
 2955TIP3    H1 8871   2.780   3.792   2.097 -0.4588  0.3548 -0.5574
 2955TIP3    H2 8872   2.638   3.843   2.089 -1.5587 -2.2199  1.0102
 2956TIP3   OH2 8873   0.444   1.738   0.365  0.7677 -0.7675 -0.0280
 2956TIP3    H1 8874   0.408   1.731   0.453  0.7663 -0.7785 -0.0295
 2956TIP3    H2 8875   0.526   1.689   0.369  2.1987  1.5306  0.7539
 2957TIP3   OH2 8876   5.275   2.478   0.242  0.3288 -0.3159  0.0629
 2957TIP3    H1 8877   5.182   2.458   0.247 -0.0798  1.6031  1.4667
 2957TIP3    H2 8878   5.282   2.541   0.170  0.3964  0.1064  0.4298
 2958TIP3   OH2 8879   3.953   1.471   4.084  0.1096 -0.2317 -0.0594
 2958TIP3    H1 8880   4.008   1.497   4.158 -0.0163 -0.2062  0.0255
 2958TIP3    H2 8881   3.864   1.482   4.116  0.0502 -1.0112  0.0639
 2959TIP3   OH2 8882   6.019   2.515   1.736  0.3420 -0.9220 -1.0444
 2959TIP3    H1 8883   5.981   2.501   1.649  1.5481 -1.4554 -1.5195
 2959TIP3    H2 8884   6.073   2.594   1.726  0.1646 -0.7532 -0.6669
 2960TIP3   OH2 8885   1.583   5.121   1.243 -0.0339 -0.4448  0.6844
 2960TIP3    H1 8886   1.591   5.053   1.176 -0.1857 -0.3348  0.5534
 2960TIP3    H2 8887   1.490   5.143   1.244  0.0829  0.0913  0.3930
 2961TIP3   OH2 8888   0.672   0.578   3.322 -0.0445  0.0130  0.1248
 2961TIP3    H1 8889   0.686   0.672   3.326  1.4445 -0.2251  1.6195
 2961TIP3    H2 8890   0.661   0.559   3.229  0.3814  1.5554 -0.2684
 2962TIP3   OH2 8891   2.851   3.697   0.278  0.6554 -0.0299  0.3204
 2962TIP3    H1 8892   2.885   3.638   0.211  0.5062 -1.2548  1.2844
 2962TIP3    H2 8893   2.768   3.729   0.242  0.6817 -0.5054 -0.1811
 2963TIP3   OH2 8894   4.090   2.341   0.621 -0.7401 -0.7316  0.2485
 2963TIP3    H1 8895   4.178   2.305   0.614 -1.4509 -2.4539 -0.6518
 2963TIP3    H2 8896   4.076   2.386   0.539  0.5695  2.8827  1.8163
 2964TIP3   OH2 8897   0.227   3.146   0.991  0.3888  0.2457  0.0400
 2964TIP3    H1 8898   0.271   3.224   0.957  0.5503  0.1200 -0.0418
 2964TIP3    H2 8899   0.134   3.169   0.991  0.3938  0.2852 -0.4013
 2965TIP3   OH2 8900   0.452   2.783   3.079 -0.2540 -0.0672 -0.2746
 2965TIP3    H1 8901   0.465   2.878   3.083  0.5946 -0.2023  0.5176
 2965TIP3    H2 8902   0.371   2.772   3.029  1.0010  0.9878 -2.7451
 2966TIP3   OH2 8903   2.769   3.824   4.972  0.4393  0.6252  0.6367
 2966TIP3    H1 8904   2.815   3.769   5.036 -0.2419 -1.4371 -0.5392
 2966TIP3    H2 8905   2.684   3.841   5.012 -0.0699 -0.8468  0.2534
 2967TIP3   OH2 8906   5.815   2.437   2.723  0.0639  0.4655  0.3215
 2967TIP3    H1 8907   5.855   2.351   2.705 -1.4211 -0.1610 -0.1432
 2967TIP3    H2 8908   5.888   2.499   2.718  1.0525 -0.6848 -0.0178
 2968TIP3   OH2 8909   3.421   1.339   2.160 -0.0520  0.1438 -0.0553
 2968TIP3    H1 8910   3.504   1.347   2.112  1.0339  1.4975  1.8982
 2968TIP3    H2 8911   3.356   1.379   2.101  1.5873  3.7621  0.2801
 2969TIP3   OH2 8912   1.944   4.997   4.209 -0.1266  0.2570 -0.3690
 2969TIP3    H1 8913   1.961   5.085   4.176  1.5386  0.2651  0.4327
 2969TIP3    H2 8914   1.971   5.000   4.301 -2.5455 -0.3856  0.4417
 2970TIP3   OH2 8915   2.298   5.468   4.719 -0.2123 -0.0274  0.2700
 2970TIP3    H1 8916   2.272   5.383   4.753  0.3639  0.1023  1.0476
 2970TIP3    H2 8917   2.328   5.451   4.630 -1.1701 -0.4580  0.0146
 2971TIP3   OH2 8918   1.219   0.893   4.491 -0.3557  0.0573 -0.3892
 2971TIP3    H1 8919   1.311   0.921   4.499 -0.1801 -0.4890 -0.4986
 2971TIP3    H2 8920   1.172   0.950   4.552  0.2121 -0.4019  0.5101
 2972TIP3   OH2 8921   1.575   1.702   1.472 -0.2214  0.4962 -0.3111
 2972TIP3    H1 8922   1.490   1.703   1.516 -0.9554  2.2676 -1.6422
 2972TIP3    H2 8923   1.556   1.671   1.384  1.0955 -2.2102  0.2603
 2973TIP3   OH2 8924   0.326   4.647   0.950  0.1536  0.3141 -0.0227
 2973TIP3    H1 8925   0.275   4.566   0.944  0.7432 -0.0016 -1.2170
 2973TIP3    H2 8926   0.399   4.625   1.008 -0.3589  0.3832  0.6620
 2974TIP3   OH2 8927   2.940   1.348   0.635 -0.1139  0.5618 -0.2201
 2974TIP3    H1 8928   2.873   1.345   0.567  0.9600  0.4671 -1.3280
 2974TIP3    H2 8929   2.937   1.261   0.676 -0.9619  0.7148  0.0412
 2975TIP3   OH2 8930   1.751   0.917   4.285  0.4858  0.2234  0.1888
 2975TIP3    H1 8931   1.735   0.826   4.306  0.9854 -0.2484 -1.3445
 2975TIP3    H2 8932   1.839   0.934   4.319  0.7418 -0.1338 -0.2784
 2976TIP3   OH2 8933   4.826   0.858   4.223  0.8575 -0.1363 -0.1336
 2976TIP3    H1 8934   4.762   0.928   4.238  1.2377  0.4747 -1.2514
 2976TIP3    H2 8935   4.885   0.893   4.156  2.3215 -0.7280  0.7905
 2977TIP3   OH2 8936   2.519   0.707   4.512 -0.3591 -0.3457  0.5167
 2977TIP3    H1 8937   2.583   0.778   4.514 -0.5213 -0.1140 -1.2463
 2977TIP3    H2 8938   2.528   0.669   4.425 -3.2351  0.2728 -0.1497
 2978TIP3   OH2 8939   0.751   2.878   4.918  0.0363  0.0862  0.5103
 2978TIP3    H1 8940   0.745   2.788   4.951 -2.7441  0.4591  1.2119
 2978TIP3    H2 8941   0.842   2.903   4.936  0.8436 -2.5028  0.4294
 2979TIP3   OH2 8942   3.035   2.056   1.674  0.3779 -0.3408 -0.2020
 2979TIP3    H1 8943   3.123   2.025   1.657  0.7598  0.9954 -0.7644
 2979TIP3    H2 8944   2.997   2.071   1.588 -0.5317 -1.1885  0.0230
 2980TIP3   OH2 8945   2.284   3.990   1.386 -0.1586  0.4517 -0.1706
 2980TIP3    H1 8946   2.344   4.059   1.360  0.0873 -0.0968 -1.0797
 2980TIP3    H2 8947   2.337   3.929   1.438 -0.4992  1.2102  1.0918
 2981TIP3   OH2 8948   0.221   4.289   3.296  0.4023 -0.4310 -0.1662
 2981TIP3    H1 8949   0.135   4.276   3.336  0.7657 -1.4451  0.3270
 2981TIP3    H2 8950   0.219   4.378   3.262 -0.4179 -0.0403  0.8714
 2982TIP3   OH2 8951   0.432   3.630   1.103 -0.9163  0.4472 -0.1426
 2982TIP3    H1 8952   0.424   3.670   1.016 -0.9163 -1.6795 -1.1949
 2982TIP3    H2 8953   0.347   3.644   1.145 -0.4243  2.8257  0.1715
 2983TIP3   OH2 8954   3.326   4.616   3.252 -0.7256 -0.8173  0.3633
 2983TIP3    H1 8955   3.279   4.573   3.181 -0.8579  0.0254 -0.0769
 2983TIP3    H2 8956   3.388   4.674   3.208 -0.8560 -0.2302  0.9302
 2984TIP3   OH2 8957   5.784   4.672   2.829 -0.5187  0.0470  0.2656
 2984TIP3    H1 8958   5.871   4.665   2.868 -0.9364 -1.2908  0.9935
 2984TIP3    H2 8959   5.731   4.607   2.874 -2.0563  1.1852  0.1908
 2985TIP3   OH2 8960   1.612   5.156   3.782  0.2868 -0.9617  0.3014
 2985TIP3    H1 8961   1.577   5.238   3.747  1.0214 -1.0263 -0.6186
 2985TIP3    H2 8962   1.637   5.105   3.705  2.2079 -0.9819  0.8875
 2986TIP3   OH2 8963   4.982   1.000   3.538 -0.2919  0.0652  0.1489
 2986TIP3    H1 8964   4.906   1.008   3.480  0.0035  1.4597 -0.0992
 2986TIP3    H2 8965   4.995   0.906   3.549 -0.5540 -0.2477 -1.8209
 2987TIP3   OH2 8966   5.592   5.763   3.509 -0.0096  0.2436 -0.1288
 2987TIP3    H1 8967   5.517   5.774   3.451 -0.4616  0.6482  0.5213
 2987TIP3    H2 8968   5.630   5.679   3.484 -1.3299 -0.5066  0.2595
 2988TIP3   OH2 8969   2.146   3.090   1.544 -0.4856  0.6617 -0.5074
 2988TIP3    H1 8970   2.175   3.141   1.469 -1.0113  1.2915 -0.2919
 2988TIP3    H2 8971   2.098   3.152   1.599 -0.7775  0.0359 -0.0329
 2989TIP3   OH2 8972   3.640   5.847   1.139  0.2290  0.3355  0.0424
 2989TIP3    H1 8973   3.668   5.762   1.173  0.9202  0.9356  1.0509
 2989TIP3    H2 8974   3.591   5.827   1.060  0.3378 -1.0022  0.2944
 2990TIP3   OH2 8975   5.644   5.100   3.931 -0.0836  0.7603 -0.3094
 2990TIP3    H1 8976   5.575   5.111   3.996 -0.2104  0.0202 -0.3069
 2990TIP3    H2 8977   5.601   5.119   3.847 -0.4665 -0.2697 -0.3696
 2991TIP3   OH2 8978   1.482   4.361   1.460 -0.4700  0.2853 -0.5633
 2991TIP3    H1 8979   1.477   4.358   1.365 -0.1994 -1.3603 -0.5525
 2991TIP3    H2 8980   1.424   4.291   1.489 -1.2766  1.3665  0.5311
 2992TIP3   OH2 8981   0.501   4.553   1.134  0.0237  0.3216  0.3245
 2992TIP3    H1 8982   0.572   4.607   1.169  0.5895  1.5679 -2.5118
 2992TIP3    H2 8983   0.536   4.464   1.138  1.5560  0.8481 -0.4679
 2993TIP3   OH2 8984   2.733   0.643   0.558 -0.1084 -0.7046 -0.3209
 2993TIP3    H1 8985   2.706   0.658   0.467  1.1936 -0.3711 -0.6804
 2993TIP3    H2 8986   2.819   0.601   0.551  0.9867  1.1879  0.7218
 2994TIP3   OH2 8987   3.697   3.111   1.192  0.1132  0.2486  0.1027
 2994TIP3    H1 8988   3.695   3.185   1.253 -0.5109 -0.1816  0.6166
 2994TIP3    H2 8989   3.702   3.034   1.249  3.0410 -0.0746 -0.4266
 2995TIP3   OH2 8990   5.348   0.625   3.205 -0.3381  0.0566  0.1531
 2995TIP3    H1 8991   5.393   0.699   3.164 -0.8407  0.9912  1.2119
 2995TIP3    H2 8992   5.262   0.660   3.228 -1.1736 -1.3296 -0.7202
 2996TIP3   OH2 8993   3.193   2.605   2.424  0.6620 -0.3498  0.3977
 2996TIP3    H1 8994   3.097   2.602   2.432  0.5708 -0.3011 -0.6051
 2996TIP3    H2 8995   3.210   2.684   2.373  1.2108 -0.6492  0.1151
 2997TIP3   OH2 8996   5.791   4.222   1.885 -0.0004 -0.5759  0.1410
 2997TIP3    H1 8997   5.711   4.177   1.912  0.8238 -2.4097 -0.3437
 2997TIP3    H2 8998   5.856   4.153   1.877  1.1739  0.6191 -1.2564
 2998TIP3   OH2 8999   2.191   5.840   1.517  0.3703  0.6250 -0.3149
 2998TIP3    H1 9000   2.284   5.837   1.498  0.4997 -0.2796  0.3869
 2998TIP3    H2 9001   2.178   5.925   1.561  0.9553  0.5167  0.0687
 2999TIP3   OH2 9002   1.283   2.146   4.860  0.2152  0.3364 -0.5205
 2999TIP3    H1 9003   1.379   2.141   4.856  0.2031  0.4216 -0.9338
 2999TIP3    H2 9004   1.264   2.161   4.953  0.5661 -0.5288 -0.2891
 3000TIP3   OH2 9005   0.275   2.465   1.141 -0.1724  0.0993 -0.3849
 3000TIP3    H1 9006   0.339   2.457   1.211 -0.9462 -0.8041  0.2344
 3000TIP3    H2 9007   0.252   2.558   1.140 -1.6889 -0.1882  1.9764
 3001TIP3   OH2 9008   5.309   2.434   3.050  0.3717  0.0641  0.1346
 3001TIP3    H1 9009   5.347   2.368   2.994  1.6766  0.7970  0.1086
 3001TIP3    H2 9010   5.337   2.517   3.012 -0.0792  0.6024  0.9410
 3002TIP3   OH2 9011   2.529   5.770   4.228  0.6197  0.2910  0.0391
 3002TIP3    H1 9012   2.522   5.812   4.314  1.5281  2.5722 -0.9191
 3002TIP3    H2 9013   2.604   5.712   4.236  0.1701 -0.1866  1.0125
 3003TIP3   OH2 9014   5.738   2.351   3.154  0.6276  0.0925  0.0878
 3003TIP3    H1 9015   5.736   2.370   3.060  1.0976  0.4551  0.1514
 3003TIP3    H2 9016   5.650   2.372   3.184  0.6176  0.4444 -0.1805
 3004TIP3   OH2 9017   5.495   1.949   1.865  0.4656 -0.3063  0.3853
 3004TIP3    H1 9018   5.455   1.867   1.894 -0.8307 -0.0456 -0.5620
 3004TIP3    H2 9019   5.426   1.993   1.815  0.9025  1.6892  1.4209
 3005TIP3   OH2 9020   2.644   1.152   3.537  0.5258  0.0506  0.1493
 3005TIP3    H1 9021   2.679   1.204   3.465  0.3614  2.4752  1.7138
 3005TIP3    H2 9022   2.564   1.198   3.564 -1.1585 -2.5368 -0.0680
 3006TIP3   OH2 9023   0.958   2.691   4.747  0.0260 -0.1532  0.0880
 3006TIP3    H1 9024   0.889   2.686   4.680 -0.1381 -1.2883  0.3248
 3006TIP3    H2 9025   0.937   2.769   4.797  0.3957  0.9793 -1.4386
 3007TIP3   OH2 9026   0.494   5.201   3.566  0.5801 -0.6742 -0.2089
 3007TIP3    H1 9027   0.563   5.143   3.534  0.3501 -1.7684  1.1822
 3007TIP3    H2 9028   0.413   5.158   3.540  0.4002  0.2991 -1.3103
 3008TIP3   OH2 9029   4.984   2.341   2.388  0.3748 -0.1249  0.2353
 3008TIP3    H1 9030   4.903   2.300   2.418  0.6756 -0.1234  1.0810
 3008TIP3    H2 9031   4.956   2.420   2.342 -0.1657 -0.8315 -0.6914
 3009TIP3   OH2 9032   6.138   2.896   1.165  0.7319 -0.0081  0.4304
 3009TIP3    H1 9033   6.066   2.949   1.197 -0.1003 -1.4903  1.0914
 3009TIP3    H2 9034   6.207   2.907   1.230  0.7197  0.5504  0.3562
 3010TIP3   OH2 9035   0.130   2.905   4.399  0.4872 -0.6908 -0.7529
 3010TIP3    H1 9036   0.109   2.947   4.316 -0.1344 -1.4360 -0.9815
 3010TIP3    H2 9037   0.216   2.866   4.386  1.1903  0.6670 -0.4617
 3011TIP3   OH2 9038   3.184   1.910   1.347  0.0453  0.1350  0.1617
 3011TIP3    H1 9039   3.222   1.940   1.264  0.7636  0.0225  0.4387
 3011TIP3    H2 9040   3.248   1.936   1.413  0.5701 -1.7088  0.4502
 3012TIP3   OH2 9041   5.130   2.685   2.674  0.4341 -0.0233 -0.2106
 3012TIP3    H1 9042   5.145   2.726   2.589 -0.6925  0.4492 -0.1950
 3012TIP3    H2 9043   5.136   2.756   2.737  0.0029 -0.1545 -0.0211
 3013TIP3   OH2 9044   3.823   4.047   0.211  0.0250 -0.4217 -0.6739
 3013TIP3    H1 9045   3.903   3.994   0.215  0.4267  0.2493  0.8370
 3013TIP3    H2 9046   3.769   4.014   0.283 -0.6204 -0.1437 -1.0185
 3014TIP3   OH2 9047   0.412   0.486   1.645 -0.1736 -0.1546 -0.5851
 3014TIP3    H1 9048   0.473   0.552   1.611  2.3017 -2.5344 -1.1332
 3014TIP3    H2 9049   0.375   0.526   1.723  1.6757  1.6883 -0.5498
 3015TIP3   OH2 9050   0.715   1.252   3.905 -0.0323  0.3035  0.0420
 3015TIP3    H1 9051   0.663   1.329   3.926 -0.9856 -0.0587 -0.9449
 3015TIP3    H2 9052   0.703   1.194   3.981 -1.4615  0.0284 -0.3663
 3016TIP3   OH2 9053   2.051   5.389   0.673  0.6341  0.2232 -0.7071
 3016TIP3    H1 9054   1.968   5.369   0.715  1.0278  0.1556  0.0597
 3016TIP3    H2 9055   2.107   5.313   0.693  1.2129  0.7468 -0.2786
 3017TIP3   OH2 9056   2.117   2.832   1.178 -0.1316 -0.0697  0.3151
 3017TIP3    H1 9057   2.169   2.912   1.184 -0.7160  0.3330  0.0684
 3017TIP3    H2 9058   2.103   2.806   1.269 -0.9351  0.7620  0.4322
 3018TIP3   OH2 9059   6.294   0.088   0.185 -0.1961 -0.0310  0.0317
 3018TIP3    H1 9060   6.237   0.109   0.259 -0.0166  0.3066  0.0747
 3018TIP3    H2 9061   6.254   0.133   0.110  0.2636  0.5975  0.1503
 3019TIP3   OH2 9062   4.244   4.200   0.415  0.0420 -0.4573 -0.3867
 3019TIP3    H1 9063   4.169   4.223   0.361  0.2204 -0.0005 -0.4415
 3019TIP3    H2 9064   4.211   4.131   0.474 -0.6173  0.2437  0.0869
 3020TIP3   OH2 9065   5.846   4.163   2.825 -0.0582  0.2117 -0.2734
 3020TIP3    H1 9066   5.772   4.164   2.763 -1.2617 -1.9613  1.0008
 3020TIP3    H2 9067   5.884   4.076   2.815  0.1352  0.0647  1.5508
 3021TIP3   OH2 9068   0.670   4.272   2.303  0.9223 -0.0461 -0.4337
 3021TIP3    H1 9069   0.716   4.285   2.386 -1.0121  0.8033  0.5547
 3021TIP3    H2 9070   0.585   4.315   2.314  0.4758 -0.1543 -2.7577
 3022TIP3   OH2 9071   0.186   4.021   1.845 -0.9681 -0.1266 -0.0133
 3022TIP3    H1 9072   0.261   3.969   1.815 -0.0071  0.7133  0.8572
 3022TIP3    H2 9073   0.193   4.102   1.794 -0.4560  0.5157  1.0522
 3023TIP3   OH2 9074   5.001   5.844   0.380  0.0223  0.4734 -0.3753
 3023TIP3    H1 9075   4.908   5.858   0.359  0.4194  0.7845 -2.0399
 3023TIP3    H2 9076   5.012   5.885   0.466 -1.1276  1.4321 -0.6455
 3024TIP3   OH2 9077   3.903   2.951   0.313 -0.1579  0.2360  0.1845
 3024TIP3    H1 9078   3.968   2.945   0.243  0.3492 -0.8213  0.7222
 3024TIP3    H2 9079   3.830   2.999   0.274  0.5255  0.5486 -0.7454
 3025TIP3   OH2 9080   1.360   3.737   5.039 -0.2094  0.0886  0.8679
 3025TIP3    H1 9081   1.275   3.699   5.061 -0.5387 -0.0129 -0.5138
 3025TIP3    H2 9082   1.407   3.666   4.996  0.8347 -0.0504  2.1872
 3026TIP3   OH2 9083   2.295   5.524   2.090  0.1557 -0.1343  0.2410
 3026TIP3    H1 9084   2.305   5.460   2.020  2.0799 -1.1388  1.3541
 3026TIP3    H2 9085   2.313   5.474   2.170 -0.3218  1.3585  1.3123
 3027TIP3   OH2 9086   0.711   0.153   1.399  0.0654  0.2207  0.1104
 3027TIP3    H1 9087   0.623   0.174   1.432  0.6895  0.8976  1.4308
 3027TIP3    H2 9088   0.757   0.237   1.400  0.1968  0.2398 -2.4167
 3028TIP3   OH2 9089   2.661   2.558   0.593  0.9192 -0.0066  0.2291
 3028TIP3    H1 9090   2.640   2.465   0.603  1.3461 -0.0227  1.1228
 3028TIP3    H2 9091   2.742   2.559   0.542  1.4710 -0.1847  1.0816
 3029TIP3   OH2 9092   5.085   5.844   3.352  0.0829 -0.2876 -0.0790
 3029TIP3    H1 9093   5.039   5.764   3.377 -1.9108  1.1853  1.3675
 3029TIP3    H2 9094   5.139   5.865   3.428 -0.5091  0.4542  0.1543
 3030TIP3   OH2 9095   2.308   5.916   3.589  0.1866  0.3475 -0.3893
 3030TIP3    H1 9096   2.403   5.930   3.583  0.0357  1.8226  0.2474
 3030TIP3    H2 9097   2.277   5.922   3.499  0.8279 -1.4426 -0.7753
 3031TIP3   OH2 9098   4.569   2.277   4.007 -0.2109 -0.3717  0.2313
 3031TIP3    H1 9099   4.503   2.334   4.046 -2.4609 -2.0638 -0.8438
 3031TIP3    H2 9100   4.578   2.205   4.069 -0.5883 -0.9312 -0.3499
 3032TIP3   OH2 9101   0.648   5.882   0.758  0.2096  0.3503 -0.1360
 3032TIP3    H1 9102   0.721   5.883   0.696 -0.0641 -0.9174 -0.5076
 3032TIP3    H2 9103   0.576   5.842   0.709  0.0740 -0.9593  1.0857
 3033TIP3   OH2 9104   3.376   0.047   3.861 -0.0831 -0.0661  0.2422
 3033TIP3    H1 9105   3.445   0.069   3.924  0.5363  0.6138 -0.6424
 3033TIP3    H2 9106   3.413   0.069   3.776 -0.4022 -2.1810 -0.5175
 3034TIP3   OH2 9107   0.502   4.476   3.923 -0.6549  0.0488  0.2873
 3034TIP3    H1 9108   0.581   4.497   3.973  0.1870  0.0442 -0.9705
 3034TIP3    H2 9109   0.431   4.520   3.969  0.3250  1.4198  0.5557
 3035TIP3   OH2 9110   6.225   4.361   0.151  0.3702 -0.1023  0.1096
 3035TIP3    H1 9111   6.267   4.366   0.065  0.4542  1.0842  0.2073
 3035TIP3    H2 9112   6.214   4.267   0.166  0.5949 -0.3410 -1.0761
 3036TIP3   OH2 9113   3.609   3.657   2.959  0.3495  0.4829  0.2638
 3036TIP3    H1 9114   3.560   3.739   2.963 -0.1177  0.2845 -0.9544
 3036TIP3    H2 9115   3.612   3.627   3.050  2.9988  3.2243  1.2588
 3037TIP3   OH2 9116   5.793   4.086   4.763  0.3003  0.0583  0.1756
 3037TIP3    H1 9117   5.850   4.142   4.816 -0.4144  0.2582  0.7406
 3037TIP3    H2 9118   5.771   4.140   4.687  0.5456  0.1163  0.1429
 3038TIP3   OH2 9119   1.160   0.222   4.733 -0.3722  0.5038  0.2071
 3038TIP3    H1 9120   1.110   0.293   4.694 -1.2851 -0.1964  0.0695
 3038TIP3    H2 9121   1.114   0.202   4.815  0.1286  0.3507  0.4576
 3039TIP3   OH2 9122   5.248   2.386   3.354 -0.2309  0.2432  0.2110
 3039TIP3    H1 9123   5.290   2.398   3.268 -1.9498 -3.0202 -1.2519
 3039TIP3    H2 9124   5.175   2.448   3.353 -1.3328 -0.9602 -1.5877
 3040TIP3   OH2 9125   4.856   1.492   3.982  0.1275  0.3495  0.6982
 3040TIP3    H1 9126   4.764   1.469   3.973 -0.0268 -0.2803  3.1418
 3040TIP3    H2 9127   4.857   1.585   4.002  0.0801  0.5094 -0.0374
 3041TIP3   OH2 9128   5.595   4.626   3.534 -0.2880 -0.2169  0.0250
 3041TIP3    H1 9129   5.579   4.692   3.602  0.1924  0.8198 -0.8326
 3041TIP3    H2 9130   5.687   4.639   3.510 -0.6799  0.0333 -1.4309
 3042TIP3   OH2 9131   2.299   3.760   2.105  0.0706  0.6753  0.2869
 3042TIP3    H1 9132   2.265   3.761   2.194 -0.1298 -0.1257  0.2219
 3042TIP3    H2 9133   2.232   3.808   2.054  0.6936  2.0692  0.7252
 3043TIP3   OH2 9134   4.669   1.063   3.732  1.2826 -0.3584 -0.3649
 3043TIP3    H1 9135   4.627   1.126   3.791  0.4049  0.1680 -1.5025
 3043TIP3    H2 9136   4.683   0.985   3.786 -1.5389 -0.7210  0.0099
 3044TIP3   OH2 9137   6.099   1.846   4.212 -0.3445 -0.6004 -0.5540
 3044TIP3    H1 9138   6.111   1.941   4.212 -0.1928 -0.6192 -0.4205
 3044TIP3    H2 9139   6.115   1.819   4.302  1.1541 -0.9361 -0.8826
 3045TIP3   OH2 9140   0.888  -0.017   1.268  0.3154 -0.0900  0.0847
 3045TIP3    H1 9141   0.822   0.042   1.305 -0.2510 -1.3178  1.0958
 3045TIP3    H2 9142   0.894   0.010   1.176  0.6799  2.0646  0.6805
 3046TIP3   OH2 9143   1.028   3.492   0.588 -0.2796 -0.0071  0.6653
 3046TIP3    H1 9144   0.968   3.485   0.514 -1.6659  1.4481  1.5926
 3046TIP3    H2 9145   1.051   3.402   0.610  1.0025 -0.4595 -2.1435
 3047TIP3   OH2 9146   4.383   0.226   2.991 -0.1220 -0.0034  0.0915
 3047TIP3    H1 9147   4.288   0.233   2.989 -0.2047 -1.0131 -1.6043
 3047TIP3    H2 9148   4.412   0.263   2.908  0.6713 -2.6971 -0.9457
 3048TIP3   OH2 9149   3.640   1.918   3.110 -0.0891  0.4561  0.0185
 3048TIP3    H1 9150   3.694   1.900   3.034 -0.6184  0.9474 -0.4784
 3048TIP3    H2 9151   3.614   1.831   3.142  0.7875  0.2258  0.1312
 3049TIP3   OH2 9152   2.021   1.904   3.131 -0.1419 -0.1124  0.1197
 3049TIP3    H1 9153   1.950   1.872   3.076 -0.0139  1.2529 -0.8853
 3049TIP3    H2 9154   1.977   1.955   3.200 -0.1574  1.4170 -0.9621
 3050TIP3   OH2 9155   3.722   5.304   3.531  0.0058 -0.2255  0.2789
 3050TIP3    H1 9156   3.793   5.342   3.582  0.2704 -1.5265  0.9292
 3050TIP3    H2 9157   3.658   5.276   3.596 -1.4467  1.5113 -0.3232
 3051TIP3   OH2 9158   0.483   5.093   3.846  0.1526 -0.4352 -0.5955
 3051TIP3    H1 9159   0.578   5.098   3.855  0.4851 -2.6861 -2.2183
 3051TIP3    H2 9160   0.465   5.122   3.757 -0.8459  1.0408  0.0444
 3052TIP3   OH2 9161   2.947   0.223   4.223  0.1035 -0.0077 -0.0128
 3052TIP3    H1 9162   2.926   0.316   4.234 -0.2084 -0.1780  0.9258
 3052TIP3    H2 9163   3.025   0.210   4.276  0.4760 -0.1670 -0.5906
 3053TIP3   OH2 9164   2.688   1.943   0.015 -0.0951  0.2252  0.7322
 3053TIP3    H1 9165   2.696   1.898  -0.069 -0.9784 -0.1192  0.8182
 3053TIP3    H2 9166   2.767   1.919   0.063 -0.0781 -0.4193  0.3922
 3054TIP3   OH2 9167   0.362   4.886   2.719  0.2844  0.4167 -0.3660
 3054TIP3    H1 9168   0.426   4.862   2.652  1.3429  1.4692  0.2203
 3054TIP3    H2 9169   0.326   4.970   2.689 -1.5058 -0.5654 -1.1232
 3055TIP3   OH2 9170   1.183   4.465   1.448 -0.2626 -0.1555  0.1296
 3055TIP3    H1 9171   1.122   4.462   1.521  0.8892 -1.4162  1.0861
 3055TIP3    H2 9172   1.252   4.403   1.471  2.6235  2.7791  0.2086
 3056TIP3   OH2 9173   4.183   2.989   0.197  0.6478 -0.4602 -0.8654
 3056TIP3    H1 9174   4.223   3.026   0.275 -0.0227 -0.9365 -0.2839
 3056TIP3    H2 9175   4.233   2.910   0.179  1.2799  0.0486 -1.3661
 3057TIP3   OH2 9176   3.531   4.726   3.442  0.4344  0.0915 -0.1408
 3057TIP3    H1 9177   3.484   4.795   3.489 -0.4545 -1.2276  0.9955
 3057TIP3    H2 9178   3.475   4.705   3.367 -0.8006 -1.3714  1.1272
 3058TIP3   OH2 9179   4.886   2.745   1.138  0.2283  0.1519  0.1732
 3058TIP3    H1 9180   4.807   2.710   1.177  0.5452 -0.6834  0.0809
 3058TIP3    H2 9181   4.861   2.831   1.104 -1.3845 -1.1858 -2.3303
 3059TIP3   OH2 9182   4.617   2.517   1.887 -0.3627 -0.7072 -0.1479
 3059TIP3    H1 9183   4.523   2.515   1.900 -0.3691  0.1020 -0.0243
 3059TIP3    H2 9184   4.651   2.455   1.951 -0.6522  0.7534  1.5123
 3060TIP3   OH2 9185   1.061   1.035   4.675 -0.2612 -0.1250 -0.1289
 3060TIP3    H1 9186   1.040   0.965   4.737 -0.2708 -1.2727 -1.3910
 3060TIP3    H2 9187   0.983   1.091   4.676 -0.4803 -0.4311  0.4826
 3061TIP3   OH2 9188   0.072   3.189   1.942 -0.4376 -0.0500  0.0046
 3061TIP3    H1 9189  -0.008   3.213   1.989  0.7685 -2.1353  3.5394
 3061TIP3    H2 9190   0.142   3.227   1.995  0.9901  0.4284 -2.1409
 3062TIP3   OH2 9191   0.797   3.815   0.162 -0.4964  0.2049 -0.0135
 3062TIP3    H1 9192   0.804   3.908   0.184 -0.5703  0.4813 -1.1296
 3062TIP3    H2 9193   0.724   3.783   0.215 -0.5737  0.8149  0.2578
 3063TIP3   OH2 9194   4.542   3.395   4.323 -0.0903 -0.3507 -0.1619
 3063TIP3    H1 9195   4.608   3.414   4.389 -1.4778  0.8555  0.9628
 3063TIP3    H2 9196   4.578   3.322   4.273  1.7746 -0.1635  0.8114
 3064TIP3   OH2 9197   5.742   4.747   1.166 -0.3562  0.1559  0.0468
 3064TIP3    H1 9198   5.698   4.804   1.230  0.8468 -0.1247  1.1626
 3064TIP3    H2 9199   5.833   4.776   1.167 -0.0200 -0.8476 -0.4319
 3065TIP3   OH2 9200   4.542   4.337   0.932 -0.0900 -0.3513 -0.7174
 3065TIP3    H1 9201   4.453   4.371   0.922 -0.1593 -0.5668 -0.8453
 3065TIP3    H2 9202   4.579   4.388   1.004  0.4261  1.2350 -2.0493
 3066TIP3   OH2 9203   5.100   2.899   3.540 -0.4227  0.1010  0.5618
 3066TIP3    H1 9204   5.170   2.873   3.600 -0.0330 -0.3581 -0.0736
 3066TIP3    H2 9205   5.138   2.970   3.489 -0.0411 -0.8106 -0.4709
 3067TIP3   OH2 9206   3.633   0.733   0.695 -0.2604  0.2177  0.6673
 3067TIP3    H1 9207   3.575   0.666   0.659  0.0546 -0.5290  1.5182
 3067TIP3    H2 9208   3.647   0.794   0.622 -1.3540 -0.0914  0.1787
 3068TIP3   OH2 9209   5.835   4.516   3.217 -0.0211 -1.0927  0.1256
 3068TIP3    H1 9210   5.775   4.545   3.286  1.2295 -0.0975  0.8250
 3068TIP3    H2 9211   5.779   4.507   3.140 -0.9606  0.6392  0.5413
 3069TIP3   OH2 9212   5.621   2.409   0.872 -0.2453  0.1990  0.3795
 3069TIP3    H1 9213   5.574   2.435   0.792 -0.7652  0.8788  0.8856
 3069TIP3    H2 9214   5.552   2.376   0.930 -0.1896  1.6225  1.3008
 3070TIP3   OH2 9215   3.516   1.405   1.661 -0.3805  0.4948 -0.1622
 3070TIP3    H1 9216   3.545   1.322   1.699 -1.6765 -0.2345 -0.7118
 3070TIP3    H2 9217   3.524   1.469   1.732 -0.7941 -0.4166  0.7206
 3071TIP3   OH2 9218   2.933   2.243   1.091  0.1529  0.2681 -0.4079
 3071TIP3    H1 9219   3.007   2.244   1.031  0.4605  0.1207 -0.0302
 3071TIP3    H2 9220   2.920   2.335   1.115 -2.3671  0.9790 -3.6113
 3072TIP3   OH2 9221   2.377   0.832   1.163  0.2610  0.0046 -0.0217
 3072TIP3    H1 9222   2.383   0.765   1.095  4.4675 -0.9058  0.9514
 3072TIP3    H2 9223   2.296   0.811   1.210  0.3905 -3.1664 -0.9684
 3073TIP3   OH2 9224   2.871   2.691   1.797  0.1744 -0.4154 -0.5878
 3073TIP3    H1 9225   2.902   2.740   1.873 -0.8933 -0.0566 -0.3663
 3073TIP3    H2 9226   2.804   2.633   1.831 -1.5132  0.9300 -1.4829
 3074TIP3   OH2 9227   1.718   4.828   3.075  0.0336  0.0416 -0.3301
 3074TIP3    H1 9228   1.679   4.771   3.009 -0.1026  1.6567 -1.7169
 3074TIP3    H2 9229   1.797   4.863   3.033 -0.5805  1.8743 -0.0699
 3075TIP3   OH2 9230   2.001   4.577   5.130 -0.1484 -0.3963  0.0039
 3075TIP3    H1 9231   2.094   4.568   5.151 -0.1686  0.0218  0.2849
 3075TIP3    H2 9232   2.000   4.606   5.039  0.0812  1.6815  0.6154
 3076TIP3   OH2 9233   3.687   3.705   3.915 -0.0055 -0.0625 -0.5994
 3076TIP3    H1 9234   3.742   3.699   3.836  0.6609  1.9962 -0.3484
 3076TIP3    H2 9235   3.610   3.755   3.886  0.3065  0.8210  0.0709
 3077TIP3   OH2 9236   1.685   3.220   2.578 -0.2340  0.2886  0.5173
 3077TIP3    H1 9237   1.606   3.219   2.632  1.0937  0.0590  2.5615
 3077TIP3    H2 9238   1.703   3.128   2.560 -2.1061  0.4013 -2.7042
 3078TIP3   OH2 9239   3.441   0.262   2.930 -0.5375 -0.0073  0.2287
 3078TIP3    H1 9240   3.475   0.185   2.884 -0.7686 -0.1234  0.2523
 3078TIP3    H2 9241   3.520   0.308   2.960 -0.3658 -1.6592  2.6255
 3079TIP3   OH2 9242   0.593   1.015   4.648 -0.0650 -0.7808  0.3188
 3079TIP3    H1 9243   0.570   1.010   4.556 -0.4819 -0.5375  0.4063
 3079TIP3    H2 9244   0.519   1.061   4.689  1.3107  1.5640  0.3347
 3080TIP3   OH2 9245   1.195   5.743   2.035  0.2939  0.3005 -0.0657
 3080TIP3    H1 9246   1.138   5.698   1.973  1.6534  1.0751 -1.9730
 3080TIP3    H2 9247   1.138   5.806   2.079 -0.1578  2.0777 -2.9512
 3081TIP3   OH2 9248   1.313   5.270   3.119  0.4005  0.5503  0.0802
 3081TIP3    H1 9249   1.264   5.290   3.039  0.6218  1.1097  0.0808
 3081TIP3    H2 9250   1.348   5.182   3.104 -1.0948 -0.1194  0.3279
 3082TIP3   OH2 9251   5.365   4.938   1.557  0.0482  0.1602 -0.3140
 3082TIP3    H1 9252   5.299   4.901   1.499  0.4758 -1.7540  0.3581
 3082TIP3    H2 9253   5.431   4.974   1.497 -0.6301  0.3166 -0.9845
 3083TIP3   OH2 9254   4.963   5.712   1.002 -0.3131  0.0235  0.4605
 3083TIP3    H1 9255   5.018   5.663   1.063 -0.3481 -1.3789 -0.5852
 3083TIP3    H2 9256   4.880   5.724   1.048 -0.5759 -1.6232  0.4771
 3084TIP3   OH2 9257   1.065   4.677   4.869 -0.6754  0.3075 -0.7650
 3084TIP3    H1 9258   1.160   4.669   4.878 -0.7884  0.3457  0.6408
 3084TIP3    H2 9259   1.045   4.632   4.787  0.7478  1.7897 -2.0116
 3085TIP3   OH2 9260   2.230   0.697   4.514  0.8129  0.5313 -0.5281
 3085TIP3    H1 9261   2.314   0.699   4.467  0.4955 -1.1939 -1.2337
 3085TIP3    H2 9262   2.166   0.673   4.447  0.2001 -1.0581  0.5664
 3086TIP3   OH2 9263   3.780   0.614   2.516 -0.7496 -0.2452 -0.3623
 3086TIP3    H1 9264   3.746   0.589   2.430  1.2535  0.4305 -1.4120
 3086TIP3    H2 9265   3.874   0.593   2.511 -0.3663  0.9654  1.2094
 3087TIP3   OH2 9266   0.985   5.890   2.175 -0.1653  0.3141 -0.5691
 3087TIP3    H1 9267   0.925   5.964   2.163  1.6793  2.1692  0.9091
 3087TIP3    H2 9268   1.038   5.914   2.251  2.5664 -1.1372 -1.8587
 3088TIP3   OH2 9269   5.598   2.088   4.407  0.0425  0.0060  0.3272
 3088TIP3    H1 9270   5.623   2.176   4.380 -0.4359  0.0320 -0.0486
 3088TIP3    H2 9271   5.599   2.091   4.503 -0.3606  0.5368  0.3202
 3089TIP3   OH2 9272   5.141   4.864   3.163  0.3963  0.1728  0.6823
 3089TIP3    H1 9273   5.046   4.862   3.155  0.4031  0.6161  0.4167
 3089TIP3    H2 9274   5.171   4.785   3.118  0.1061 -0.5191  1.6860
 3090TIP3   OH2 9275   6.280   4.294   3.738  0.7154  0.6345 -0.0756
 3090TIP3    H1 9276   6.293   4.370   3.681 -0.9450  0.8110 -0.2611
 3090TIP3    H2 9277   6.188   4.298   3.764  1.2411  0.1934  2.1170
 3091TIP3   OH2 9278   3.899   1.350   1.688 -0.0998  0.3141 -0.0315
 3091TIP3    H1 9279   3.877   1.325   1.598 -0.4506  0.3606  0.0427
 3091TIP3    H2 9280   3.852   1.287   1.742 -0.2936  0.6007  0.1346
 3092TIP3   OH2 9281   3.397   1.723   0.815 -0.3738 -0.0797  0.2570
 3092TIP3    H1 9282   3.339   1.702   0.888 -0.5908  0.2903  0.1933
 3092TIP3    H2 9283   3.339   1.730   0.739 -0.4004  1.2989  0.3762
 3093TIP3   OH2 9284   6.263   5.199   1.960  0.0980  0.1246  0.0597
 3093TIP3    H1 9285   6.236   5.169   2.046  0.1001  0.7845  0.2955
 3093TIP3    H2 9286   6.272   5.119   1.908  0.3245 -0.2942  0.7323
 3094TIP3   OH2 9287   5.073   4.358   0.423  0.1078 -0.5791 -0.6723
 3094TIP3    H1 9288   5.085   4.423   0.353  1.6373 -0.0754  0.0158
 3094TIP3    H2 9289   5.152   4.365   0.476 -1.2578 -0.5857  1.4452
 3095TIP3   OH2 9290   2.456   5.461   1.199 -0.3580 -0.0720  0.4005
 3095TIP3    H1 9291   2.505   5.543   1.204 -0.7116  0.1728 -0.0441
 3095TIP3    H2 9292   2.451   5.430   1.290  1.0649 -0.3750  0.3866
 3096TIP3   OH2 9293   2.696   1.116   4.748  0.0734  0.8344  0.1050
 3096TIP3    H1 9294   2.738   1.176   4.687 -0.1344  1.7946  0.8889
 3096TIP3    H2 9295   2.608   1.102   4.712  0.0760  1.1110 -0.0060
 3097TIP3   OH2 9296   5.047   0.948   2.746  0.3197  0.6656 -0.2786
 3097TIP3    H1 9297   5.055   0.925   2.654 -0.3274  0.2682 -0.2399
 3097TIP3    H2 9298   4.959   0.986   2.753  0.6344  1.3483  0.0366
 3098TIP3   OH2 9299   3.516   1.997   2.412 -0.2045 -0.0722  0.3194
 3098TIP3    H1 9300   3.422   1.998   2.426 -0.3172  0.9936 -0.4140
 3098TIP3    H2 9301   3.545   1.915   2.451 -1.2620  0.1395  1.6320
 3099TIP3   OH2 9302   1.028   1.842   0.553  0.6048 -0.2083 -0.1175
 3099TIP3    H1 9303   0.951   1.792   0.581  0.2898 -1.0218 -2.2417
 3099TIP3    H2 9304   0.994   1.926   0.525  0.5297 -0.3903 -0.5902
 3100TIP3   OH2 9305   1.646   1.875   4.500 -1.0612  0.0518 -0.4148
 3100TIP3    H1 9306   1.567   1.878   4.554 -0.0054  1.0209  1.1312
 3100TIP3    H2 9307   1.711   1.830   4.554  0.1791  1.5127 -0.6182
 3101TIP3   OH2 9308   2.309   3.682   2.818 -0.1975 -0.0364  0.7497
 3101TIP3    H1 9309   2.259   3.656   2.896 -0.2181  0.3119  0.8509
 3101TIP3    H2 9310   2.390   3.718   2.852  0.6070 -1.5707  0.5665
 3102TIP3   OH2 9311   3.542   2.981   3.192 -0.0049 -0.1910 -0.2391
 3102TIP3    H1 9312   3.600   2.944   3.259  1.1813  0.5698 -0.8016
 3102TIP3    H2 9313   3.553   2.924   3.116 -1.4814 -1.1558  0.2333
 3103TIP3   OH2 9314   5.618   4.101   2.616 -0.6754 -0.4066  0.1592
 3103TIP3    H1 9315   5.590   4.081   2.527 -1.4107 -0.0448  0.3021
 3103TIP3    H2 9316   5.556   4.167   2.647 -0.1034 -0.1280  0.7492
 3104TIP3   OH2 9317   0.521   0.137   0.486 -0.4670  0.1905  0.3878
 3104TIP3    H1 9318   0.616   0.146   0.497 -0.4241  1.0213 -0.4830
 3104TIP3    H2 9319   0.509   0.136   0.391 -1.3621  0.4938  0.4901
 3105TIP3   OH2 9320   2.452   4.112   0.145  0.0185  0.7062  0.6187
 3105TIP3    H1 9321   2.451   4.036   0.088 -0.6934 -0.3532  1.9811
 3105TIP3    H2 9322   2.370   4.157   0.127  0.3647  1.0737 -0.0692
 3106TIP3   OH2 9323   2.657   5.119   1.052 -0.4687 -0.7815  0.0095
 3106TIP3    H1 9324   2.639   5.189   1.114  0.2890  0.1259 -0.7544
 3106TIP3    H2 9325   2.586   5.056   1.064 -2.2991  1.0560 -0.6529
 3107TIP3   OH2 9326   2.481   2.924   1.402  0.1108  0.5182 -0.3476
 3107TIP3    H1 9327   2.512   2.849   1.352 -0.3996  1.3458 -1.9676
 3107TIP3    H2 9328   2.559   2.980   1.411 -0.2201  1.3020 -2.0110
 3108TIP3   OH2 9329   5.429   2.319   1.039 -0.2279 -0.2643 -0.4433
 3108TIP3    H1 9330   5.384   2.236   1.053 -0.8211  0.1509  0.1413
 3108TIP3    H2 9331   5.497   2.322   1.107 -1.6065  0.6946  0.9505
 3109TIP3   OH2 9332   4.491   3.350   0.667  0.2185  0.4911  0.2883
 3109TIP3    H1 9333   4.562   3.286   0.672  1.6621  1.8934 -0.9446
 3109TIP3    H2 9334   4.419   3.303   0.627  1.7869 -0.0160 -2.1374
 3110TIP3   OH2 9335   0.060   1.600   2.202  1.1638 -0.0326 -0.2060
 3110TIP3    H1 9336   0.047   1.561   2.116  2.4675 -0.9625 -0.0093
 3110TIP3    H2 9337  -0.010   1.666   2.210  0.9578 -0.0181 -1.9016
 3111TIP3   OH2 9338   3.165   4.702   0.536 -0.0149  0.2626 -0.4350
 3111TIP3    H1 9339   3.103   4.633   0.511 -0.3246  0.9093 -1.5085
 3111TIP3    H2 9340   3.246   4.677   0.492  1.2699 -1.8274  2.7591
 3112TIP3   OH2 9341   2.616   4.322   0.926 -0.0804  0.3924  0.2592
 3112TIP3    H1 9342   2.706   4.301   0.904  0.3775  1.7375  0.7460
 3112TIP3    H2 9343   2.564   4.252   0.885  1.1004  0.0804 -0.7669
 3113TIP3   OH2 9344   1.451   3.590   2.233 -0.4753  0.1129  0.0650
 3113TIP3    H1 9345   1.434   3.636   2.315 -0.3718 -1.0658  0.7775
 3113TIP3    H2 9346   1.500   3.512   2.260 -0.1406 -0.1164 -1.1646
 3114TIP3   OH2 9347   0.628   1.018   1.161  0.3682 -0.3256 -0.0629
 3114TIP3    H1 9348   0.634   1.070   1.241 -2.3996  0.4644 -0.2531
 3114TIP3    H2 9349   0.675   1.069   1.095 -0.9317  1.1891  0.1355
 3115TIP3   OH2 9350   1.466   0.916   0.009  0.0136  0.1235 -0.5612
 3115TIP3    H1 9351   1.381   0.948   0.041 -0.2791 -1.5740  0.5027
 3115TIP3    H2 9352   1.499   0.987  -0.046 -1.1904  1.6473  0.5761
 3116TIP3   OH2 9353   6.000   5.478   3.818 -0.0713  0.0465  0.0341
 3116TIP3    H1 9354   5.930   5.430   3.864 -0.5610  0.1715 -0.5706
 3116TIP3    H2 9355   5.965   5.566   3.806  0.0250 -0.0007 -0.6275
 3117TIP3   OH2 9356   6.096   0.098   0.959  0.4376 -0.1716 -0.1008
 3117TIP3    H1 9357   6.123   0.161   0.892  1.0046 -1.3718 -1.0396
 3117TIP3    H2 9358   6.178   0.062   0.993  0.1231 -1.3121 -0.4948
 3118TIP3   OH2 9359   5.077   3.470   3.756 -0.5716  0.0531 -0.1260
 3118TIP3    H1 9360   5.069   3.384   3.713 -0.6460 -0.3446  0.6604
 3118TIP3    H2 9361   5.125   3.452   3.837 -0.3097  0.8138 -0.1088
 3119TIP3   OH2 9362   5.439   4.556   2.705  0.5832  0.3199 -0.1190
 3119TIP3    H1 9363   5.370   4.568   2.639 -0.0405 -2.0458  0.0363
 3119TIP3    H2 9364   5.519   4.550   2.653  0.2440 -0.3577 -0.5769
 3120TIP3   OH2 9365   6.226   5.038   1.481 -0.0552 -0.3734  0.0558
 3120TIP3    H1 9366   6.246   5.119   1.527 -0.6979  0.8548 -1.7204
 3120TIP3    H2 9367   6.134   5.021   1.500 -0.2519 -0.0048 -0.5524
 3121TIP3   OH2 9368   2.322   0.360   1.510  0.3733  0.2326  0.0870
 3121TIP3    H1 9369   2.297   0.319   1.593  1.2090  0.4659  0.4738
 3121TIP3    H2 9370   2.406   0.320   1.488 -0.0727 -0.1813 -0.9107
 3122TIP3   OH2 9371   5.377   4.276   3.902 -0.0174  0.6197  0.2914
 3122TIP3    H1 9372   5.416   4.347   3.851  0.9440 -0.2535 -0.2138
 3122TIP3    H2 9373   5.287   4.305   3.918  0.4307  2.0713  0.3288
 3123TIP3   OH2 9374   0.132   2.346   3.219  0.3487  0.2321  0.3883
 3123TIP3    H1 9375   0.090   2.280   3.163  1.3851 -0.9640  0.9775
 3123TIP3    H2 9376   0.165   2.412   3.158 -0.3294  0.0031 -0.2436
 3124TIP3   OH2 9377   1.306   0.619   4.955  0.0594  1.1381  0.2831
 3124TIP3    H1 9378   1.269   0.592   4.871  1.1229  2.1098 -0.5271
 3124TIP3    H2 9379   1.230   0.629   5.012 -0.5217 -4.3740  1.0605
 3125TIP3   OH2 9380   5.463   0.525   0.484  0.4407  0.5706  0.1913
 3125TIP3    H1 9381   5.392   0.467   0.511  0.7176  0.7390  1.3459
 3125TIP3    H2 9382   5.453   0.533   0.389 -0.4808 -0.1905  0.2095
 3126TIP3   OH2 9383   2.977   2.080   1.378  0.0977  0.4406 -0.1436
 3126TIP3    H1 9384   3.024   1.996   1.374 -1.7092 -0.7196  1.3192
 3126TIP3    H2 9385   2.979   2.113   1.289 -1.4708 -2.5153 -1.4042
 3127TIP3   OH2 9386   4.833   1.327   1.486  0.2496 -0.7990  0.2043
 3127TIP3    H1 9387   4.822   1.379   1.565 -0.3627 -2.9243  1.6275
 3127TIP3    H2 9388   4.884   1.251   1.514  0.4447 -1.3725 -1.5598
 3128TIP3   OH2 9389   0.501   3.665   2.051 -0.0836  0.7428 -0.0554
 3128TIP3    H1 9390   0.439   3.701   2.114 -1.3882  1.6374 -1.7706
 3128TIP3    H2 9391   0.447   3.614   1.991  0.7601  1.8501 -1.8225
 3129TIP3   OH2 9392   5.114   3.626   1.614  0.4516 -0.2395 -0.0085
 3129TIP3    H1 9393   5.024   3.659   1.615  0.1009 -1.1744  1.1848
 3129TIP3    H2 9394   5.159   3.680   1.548 -1.0426  0.0587 -0.8172
 3130TIP3   OH2 9395   1.089   3.917   0.313 -0.5299 -0.1028 -0.4943
 3130TIP3    H1 9396   1.057   3.975   0.382 -0.3245 -0.4557 -0.0968
 3130TIP3    H2 9397   1.170   3.880   0.349 -0.2015  0.0290 -1.0916
 3131TIP3   OH2 9398   2.207   0.496   0.698 -0.0395 -1.2132  0.5159
 3131TIP3    H1 9399   2.146   0.431   0.663  1.5408 -2.1917 -0.5483
 3131TIP3    H2 9400   2.222   0.469   0.788 -0.0046 -1.8814  0.3145
 3132TIP3   OH2 9401   1.454   0.121   3.070  0.3200 -0.0225  0.5152
 3132TIP3    H1 9402   1.465   0.109   2.975  0.2599  0.3320  0.4611
 3132TIP3    H2 9403   1.389   0.056   3.095  0.9488 -0.6876  0.4588
 3133TIP3   OH2 9404   5.308   5.959   2.196 -0.0707 -0.6703 -0.0917
 3133TIP3    H1 9405   5.399   5.969   2.222 -0.1744 -0.6457  0.2620
 3133TIP3    H2 9406   5.280   6.047   2.171 -0.5539 -0.2994  1.6244
 3134TIP3   OH2 9407   3.338   4.394   2.452 -0.5214 -0.2034  0.2893
 3134TIP3    H1 9408   3.269   4.392   2.517 -0.9593 -1.2211 -0.1761
 3134TIP3    H2 9409   3.336   4.306   2.413  2.6612 -1.1864  1.9694
 3135TIP3   OH2 9410   0.068   0.455   4.050  0.5153  0.5831 -0.3590
 3135TIP3    H1 9411   0.156   0.491   4.048  2.4525 -3.6097 -0.9979
 3135TIP3    H2 9412   0.059   0.408   3.967 -1.8539 -0.1424  0.2327
 3136TIP3   OH2 9413  -0.031   0.064   2.028  0.0210 -0.3584  0.0691
 3136TIP3    H1 9414  -0.018   0.156   2.006 -1.7545 -0.1662 -0.2965
 3136TIP3    H2 9415   0.055   0.034   2.056  0.8993  1.0907 -0.9558
 3137TIP3   OH2 9416   0.496   4.975   0.062  0.0338 -0.2892 -0.6809
 3137TIP3    H1 9417   0.524   4.995   0.152 -2.2237 -0.9629  0.2548
 3137TIP3    H2 9418   0.543   5.038   0.008  0.2322  1.2680  1.1643
 3138TIP3   OH2 9419   4.133   3.137   4.993 -0.5396 -0.9091 -0.2889
 3138TIP3    H1 9420   4.212   3.109   4.948 -0.0567  0.2988 -0.2342
 3138TIP3    H2 9421   4.067   3.072   4.968 -0.4324 -0.0655 -3.1159
 3139TIP3   OH2 9422   6.059   0.410   2.454  0.0990  0.2108 -0.1016
 3139TIP3    H1 9423   6.008   0.348   2.506 -0.9242  0.7082 -0.4912
 3139TIP3    H2 9424   6.007   0.422   2.374  0.0544  1.9066  0.1495
 3140TIP3   OH2 9425   4.611   5.791   0.064  0.5059  0.0042  0.2644
 3140TIP3    H1 9426   4.611   5.826   0.153  0.0590  0.2305  0.1804
 3140TIP3    H2 9427   4.519   5.767   0.048  0.6479 -0.3709 -0.0055
 3141TIP3   OH2 9428   5.426   4.488   2.370  0.1238  0.3789  0.3617
 3141TIP3    H1 9429   5.476   4.409   2.391  1.1283  0.7433 -0.5893
 3141TIP3    H2 9430   5.482   4.537   2.310 -0.6076  1.6835  0.7039
 3142TIP3   OH2 9431   0.281   4.841   1.749  0.5056  0.2555 -0.2900
 3142TIP3    H1 9432   0.376   4.840   1.755  0.4579  0.3727  0.6346
 3142TIP3    H2 9433   0.260   4.929   1.717  0.6665  0.6244  0.5807
 3143TIP3   OH2 9434   3.068   2.930   4.311 -0.1143 -0.4990  0.4467
 3143TIP3    H1 9435   3.128   3.003   4.299  1.0343 -1.7955 -3.4048
 3143TIP3    H2 9436   2.984   2.962   4.277 -0.2018 -0.3283  0.8178
 3144TIP3   OH2 9437   4.686   1.550   2.437  0.1152  0.8082 -0.2047
 3144TIP3    H1 9438   4.738   1.516   2.510  0.3781  1.2178 -0.2016
 3144TIP3    H2 9439   4.605   1.498   2.440  1.2016 -1.0441 -1.2667
 3145TIP3   OH2 9440   5.440   1.028   3.476 -0.2734 -0.3668 -0.5549
 3145TIP3    H1 9441   5.479   0.941   3.479 -0.3480 -0.4852 -2.3201
 3145TIP3    H2 9442   5.348   1.012   3.453 -1.0553  0.0212  1.9300
 3146TIP3   OH2 9443   2.342   3.657   3.955 -0.2182  0.2011 -0.0814
 3146TIP3    H1 9444   2.337   3.695   4.042 -0.7237 -1.5670  0.7013
 3146TIP3    H2 9445   2.365   3.730   3.898 -0.3704  1.4888  1.4532
 3147TIP3   OH2 9446   1.349   3.220   0.243  0.8323 -0.1196 -0.3262
 3147TIP3    H1 9447   1.289   3.199   0.172 -0.9493  1.9570  0.4577
 3147TIP3    H2 9448   1.293   3.257   0.311  2.8552  0.7712  0.9326
 3148TIP3   OH2 9449   2.071   5.592   4.809 -0.9041  0.5383  0.0961
 3148TIP3    H1 9450   1.995   5.534   4.799 -0.2527 -0.3387  0.1151
 3148TIP3    H2 9451   2.147   5.534   4.802 -0.2490  1.1809  1.4907
 3149TIP3   OH2 9452   3.075   3.948   1.836  0.3143 -0.0066  0.2420
 3149TIP3    H1 9453   3.141   4.016   1.854  0.2698  0.1435 -0.1635
 3149TIP3    H2 9454   3.117   3.867   1.865  0.3765  0.1859  0.7081
 3150TIP3   OH2 9455   3.003   2.464   3.110 -0.2364  0.5627  0.2518
 3150TIP3    H1 9456   3.023   2.483   3.202 -1.0390 -0.8197  0.7358
 3150TIP3    H2 9457   2.958   2.542   3.079  2.0228  2.0003  0.3400
 3151TIP3   OH2 9458   5.992   5.793   4.801 -0.1178 -0.2674  0.0577
 3151TIP3    H1 9459   5.952   5.821   4.884 -0.0761 -0.8910  0.2969
 3151TIP3    H2 9460   6.074   5.842   4.796 -0.7545  0.7778 -0.2751
 3152TIP3   OH2 9461   4.214   2.707   1.903 -0.3387  0.1302 -0.7978
 3152TIP3    H1 9462   4.123   2.680   1.914 -0.2311  0.0364 -0.0601
 3152TIP3    H2 9463   4.246   2.657   1.828 -0.4657 -0.9614 -0.1446
 3153TIP3   OH2 9464   4.328   3.417   1.872  0.5111  0.2998 -0.1740
 3153TIP3    H1 9465   4.258   3.374   1.921  0.2905  0.6562 -0.1733
 3153TIP3    H2 9466   4.406   3.364   1.891 -0.0506 -1.1058 -1.5020
 3154TIP3   OH2 9467   5.259   5.035   4.534 -0.6934  0.0047  0.5957
 3154TIP3    H1 9468   5.207   5.052   4.455 -2.5978 -1.8343  1.3712
 3154TIP3    H2 9469   5.225   5.095   4.599 -1.2901 -0.6155  0.8654
 3155TIP3   OH2 9470   4.874   3.284   3.357  0.3934 -0.1888  0.0734
 3155TIP3    H1 9471   4.791   3.240   3.378 -0.8496  1.4325 -1.2100
 3155TIP3    H2 9472   4.892   3.338   3.434  0.8230 -1.2827  0.7722
 3156TIP3   OH2 9473   5.524   5.747   2.712  0.3955  0.4919  0.0958
 3156TIP3    H1 9474   5.506   5.660   2.676 -0.6397  0.4090  0.7736
 3156TIP3    H2 9475   5.615   5.742   2.740  0.3789 -0.3536  0.0379
 3157TIP3   OH2 9476   4.855   0.510   0.275 -0.0714 -0.3983  0.2632
 3157TIP3    H1 9477   4.930   0.510   0.215  0.4100  1.7350  0.7725
 3157TIP3    H2 9478   4.779   0.502   0.218  0.4662 -3.4825 -0.2146
 3158TIP3   OH2 9479   3.224   5.957   1.195 -0.0211 -0.3188 -0.0238
 3158TIP3    H1 9480   3.216   5.864   1.217 -2.1056  0.0793  1.2206
 3158TIP3    H2 9481   3.177   5.966   1.112 -1.2422 -0.1588  0.6563
 3159TIP3   OH2 9482   0.319   5.763   5.035  0.0811 -0.1149 -0.3609
 3159TIP3    H1 9483   0.299   5.671   5.021  0.7568 -0.1565 -1.1364
 3159TIP3    H2 9484   0.380   5.785   4.965  2.3547  0.1369  1.5713
 3160TIP3   OH2 9485   3.467   3.115   1.453  0.0587  0.5611 -0.3455
 3160TIP3    H1 9486   3.528   3.185   1.428 -1.0888  1.7721  0.0789
 3160TIP3    H2 9487   3.409   3.106   1.377 -0.0449  0.3693 -0.2441
 3161TIP3   OH2 9488   1.101   1.947   5.073  0.0893 -0.4756  0.1207
 3161TIP3    H1 9489   1.083   1.885   5.144  0.8365 -1.5278 -0.5803
 3161TIP3    H2 9490   1.180   1.913   5.031 -0.0473  0.4152 -0.8967
 3162TIP3   OH2 9491   6.118   1.928   3.889 -0.3549 -0.4788  0.2077
 3162TIP3    H1 9492   6.211   1.944   3.873 -0.7026  1.1270 -0.4628
 3162TIP3    H2 9493   6.113   1.909   3.983  0.3532  2.4567  0.9478
 3163TIP3   OH2 9494   4.554   3.581   3.302 -0.0910 -0.1293 -0.5036
 3163TIP3    H1 9495   4.474   3.633   3.290  0.6515  0.9075 -1.0723
 3163TIP3    H2 9496   4.592   3.574   3.215  0.3268 -0.8200 -0.2744
 3164TIP3   OH2 9497   5.694   0.208   3.187  0.2438  0.3530 -0.4861
 3164TIP3    H1 9498   5.710   0.119   3.218  1.1008 -0.1461 -2.1806
 3164TIP3    H2 9499   5.742   0.264   3.247 -0.4795 -0.3017  0.7274
 3165TIP3   OH2 9500   3.538   4.126   1.017  0.9932  0.1039  0.3603
 3165TIP3    H1 9501   3.487   4.114   0.937  0.6472  1.5283  0.3359
 3165TIP3    H2 9502   3.477   4.105   1.087  0.0864  2.4324  0.3585
 3166TIP3   OH2 9503   4.568   1.796   3.442 -0.0320  0.1261  0.4416
 3166TIP3    H1 9504   4.507   1.853   3.395  1.0923  0.4317 -0.7168
 3166TIP3    H2 9505   4.549   1.708   3.410 -0.7904  0.0262  1.1399
 3167TIP3   OH2 9506   4.873   5.193   0.108 -0.2630 -0.3608 -0.1638
 3167TIP3    H1 9507   4.868   5.276   0.060  1.7246  0.9244  1.7410
 3167TIP3    H2 9508   4.790   5.149   0.086 -1.2257  1.9279 -1.5095
 3168TIP3   OH2 9509   3.004   1.375   1.514 -0.1738 -0.8574 -0.1759
 3168TIP3    H1 9510   3.006   1.470   1.505 -1.0400 -0.8120  0.0924
 3168TIP3    H2 9511   3.063   1.344   1.445  3.1063  0.0060  2.0233
 3169TIP3   OH2 9512   1.587   4.414   4.750 -0.0039 -0.5885 -0.7356
 3169TIP3    H1 9513   1.544   4.455   4.674 -1.1808 -0.3117  0.0534
 3169TIP3    H2 9514   1.547   4.456   4.826  2.4720  0.4709  0.0769
 3170TIP3   OH2 9515   5.789   1.483   0.982 -0.0193 -0.9165 -0.1050
 3170TIP3    H1 9516   5.752   1.569   0.962  0.6429  0.2312  2.9896
 3170TIP3    H2 9517   5.862   1.473   0.920  0.2686  1.0668 -0.1579
 3171TIP3   OH2 9518   3.889   4.396   0.092 -0.1006 -0.0203 -0.1698
 3171TIP3    H1 9519   3.904   4.407  -0.002  1.0637 -0.5878 -0.0683
 3171TIP3    H2 9520   3.803   4.354   0.098 -0.6384  0.9460 -0.9222
 3172TIP3   OH2 9521   1.679   3.822   0.525  0.6605 -0.2921 -0.0779
 3172TIP3    H1 9522   1.727   3.890   0.573 -2.0783  2.3905 -0.7937
 3172TIP3    H2 9523   1.687   3.847   0.433 -1.0904 -0.3838 -0.2978
 3173TIP3   OH2 9524   3.153   3.933   3.826 -0.3651  0.3021 -0.4151
 3173TIP3    H1 9525   3.130   3.882   3.904 -2.1657 -4.2089 -3.4790
 3173TIP3    H2 9526   3.247   3.947   3.833 -0.6677  1.5655  3.1767
 3174TIP3   OH2 9527   2.016   2.344   3.111  0.0890 -0.3286  0.2161
 3174TIP3    H1 9528   1.979   2.415   3.059 -0.9105 -0.8806  0.1451
 3174TIP3    H2 9529   2.062   2.388   3.182 -0.0107  0.4007 -0.1562
 3175TIP3   OH2 9530   2.033   2.287   1.421  0.1476  0.1249 -0.3174
 3175TIP3    H1 9531   2.090   2.321   1.490  0.6381  1.5614 -1.3769
 3175TIP3    H2 9532   2.030   2.193   1.436  2.6452  0.0220 -0.0951
 3176TIP3   OH2 9533   4.793   4.452   1.782  0.1115  0.2111  0.0345
 3176TIP3    H1 9534   4.811   4.531   1.731 -0.3392  0.1465 -0.2339
 3176TIP3    H2 9535   4.726   4.479   1.845 -0.7128 -0.1682 -0.6525
 3177TIP3   OH2 9536   2.281   5.176   4.681  0.2671  0.2262 -0.1989
 3177TIP3    H1 9537   2.198   5.136   4.708 -0.5873  0.6942 -1.9746
 3177TIP3    H2 9538   2.334   5.103   4.649  0.6277 -0.0974  1.0960
 3178TIP3   OH2 9539   4.243   2.707   0.167 -0.3768  0.0884  0.2456
 3178TIP3    H1 9540   4.163   2.696   0.116 -0.8681  1.5623  0.6411
 3178TIP3    H2 9541   4.314   2.691   0.105 -0.9585 -1.5890 -0.0267
 3179TIP3   OH2 9542   0.340   3.720   0.155  0.3082  0.6248 -0.8961
 3179TIP3    H1 9543   0.358   3.655   0.087 -1.1471 -0.7947  0.0309
 3179TIP3    H2 9544   0.310   3.797   0.107  1.5580  0.4695 -1.9779
 3180TIP3   OH2 9545   1.048   5.951   0.918  0.0876 -0.7104  0.2094
 3180TIP3    H1 9546   1.115   6.009   0.954  0.4598 -1.8162  1.3536
 3180TIP3    H2 9547   0.967   6.002   0.923  0.5909  0.1236  0.1110
 3181TIP3   OH2 9548   6.293   3.356   1.713 -0.1915 -0.3747  0.2725
 3181TIP3    H1 9549   6.310   3.320   1.800  1.6607 -0.6964 -0.1692
 3181TIP3    H2 9550   6.328   3.446   1.717  1.0837 -0.8035 -0.4595
 3182TIP3   OH2 9551   5.556   5.717   0.261  0.1096 -0.2922 -0.2025
 3182TIP3    H1 9552   5.462   5.703   0.272  0.1828 -0.1751  0.6457
 3182TIP3    H2 9553   5.595   5.631   0.279  0.1710 -0.3606 -0.6326
 3183TIP3   OH2 9554   4.242   5.510   2.670 -0.0048 -0.3981 -0.2867
 3183TIP3    H1 9555   4.231   5.564   2.592  1.1390 -0.7614 -0.7320
 3183TIP3    H2 9556   4.331   5.529   2.700  0.6595 -2.3815 -0.7835
 3184TIP3   OH2 9557   4.716   5.178   5.048  0.2557  0.2469  0.5760
 3184TIP3    H1 9558   4.734   5.101   5.102  0.9148  0.0202  0.0387
 3184TIP3    H2 9559   4.621   5.180   5.040  0.2708 -1.0209 -0.1237
 3185TIP3   OH2 9560   5.953   1.573   2.595  0.3247  0.2330 -0.0914
 3185TIP3    H1 9561   5.992   1.488   2.578  0.5695 -0.3139  2.7233
 3185TIP3    H2 9562   6.027   1.632   2.607  0.1901  0.3324  0.2540
 3186TIP3   OH2 9563   4.478   0.875   4.111  0.4258  0.3936  0.0923
 3186TIP3    H1 9564   4.524   0.827   4.179  1.4711  2.3204  0.8044
 3186TIP3    H2 9565   4.388   0.881   4.142  1.0208  1.8008  1.6756
 3187TIP3   OH2 9566   5.721   1.480   4.662 -0.2205  0.1941 -0.1771
 3187TIP3    H1 9567   5.710   1.440   4.575  1.0873  0.8423 -0.6588
 3187TIP3    H2 9568   5.762   1.412   4.715 -0.5445 -0.0238 -0.1992
 3188TIP3   OH2 9569   5.501   2.158   0.003 -0.5559  0.0954  0.3825
 3188TIP3    H1 9570   5.422   2.140   0.053 -0.7751  2.7772  1.1555
 3188TIP3    H2 9571   5.556   2.211   0.062  1.1537 -0.4111 -0.6733
 3189TIP3   OH2 9572   3.443   5.767   4.642 -0.7249  0.0159  0.1810
 3189TIP3    H1 9573   3.434   5.782   4.548 -0.9172 -0.4336  0.1268
 3189TIP3    H2 9574   3.464   5.854   4.678  0.9621 -0.0835 -0.4665
 3190TIP3   OH2 9575   5.759   5.821   0.000  0.5663  0.3131 -0.1227
 3190TIP3    H1 9576   5.715   5.897  -0.037 -2.3783 -1.5572 -0.8107
 3190TIP3    H2 9577   5.777   5.845   0.091 -0.1367  1.9103 -0.3819
 3191TIP3   OH2 9578   3.964   5.148   3.966  0.1368 -0.4856 -0.5339
 3191TIP3    H1 9579   4.050   5.156   4.007  0.7833 -0.3900 -1.8542
 3191TIP3    H2 9580   3.914   5.222   4.001  0.5876 -0.5369  0.2377
 3192TIP3   OH2 9581   2.411   5.884   1.067  0.0269  0.8467 -0.6158
 3192TIP3    H1 9582   2.414   5.842   0.981  1.6396  1.9672 -1.1384
 3192TIP3    H2 9583   2.464   5.828   1.123  2.2304  2.1201 -1.3279
 3193TIP3   OH2 9584   5.794   4.436   1.246  0.1237 -0.8992  0.3376
 3193TIP3    H1 9585   5.769   4.522   1.212  0.2943 -0.9415  0.0955
 3193TIP3    H2 9586   5.740   4.374   1.197 -0.2399 -0.9095  0.7515
 3194TIP3   OH2 9587   4.820   4.474   3.982 -0.2075 -0.3205  0.2380
 3194TIP3    H1 9588   4.843   4.464   3.890 -0.5870 -2.1555  0.3013
 3194TIP3    H2 9589   4.820   4.569   3.997  0.0174  0.0028 -1.5919
 3195TIP3   OH2 9590   2.345   3.334   0.002  0.2472 -0.1814 -0.1100
 3195TIP3    H1 9591   2.333   3.346   0.096  0.1438 -0.1956 -0.1216
 3195TIP3    H2 9592   2.427   3.379  -0.018  0.6526 -0.8076  0.1156
 3196TIP3   OH2 9593   0.396   2.522   3.728  0.4227  0.3803 -0.2956
 3196TIP3    H1 9594   0.461   2.592   3.723  0.5213  0.2437 -1.0344
 3196TIP3    H2 9595   0.446   2.442   3.710  0.5240 -0.0202  1.6328
 3197TIP3   OH2 9596   5.499   0.754   3.475 -0.4047  0.2110  0.8405
 3197TIP3    H1 9597   5.549   0.702   3.413 -2.3894 -0.1679 -0.5184
 3197TIP3    H2 9598   5.411   0.716   3.473 -1.4634  2.5200  1.1173
 3198TIP3   OH2 9599   4.571   1.587   1.501 -0.5155 -0.0427 -0.1684
 3198TIP3    H1 9600   4.540   1.670   1.536 -1.2456 -0.4444  0.1492
 3198TIP3    H2 9601   4.492   1.536   1.483 -0.0745 -1.5126  1.7092
 3199TIP3   OH2 9602   6.043   0.311   4.665 -0.3737  0.2294 -0.4050
 3199TIP3    H1 9603   5.990   0.380   4.705 -0.5787  0.8029 -1.6275
 3199TIP3    H2 9604   5.981   0.243   4.641 -0.1093 -0.6839  1.3036
 3200TIP3   OH2 9605   1.954   2.440   4.801 -0.1576  0.8564  0.8703
 3200TIP3    H1 9606   1.963   2.493   4.722  0.8900 -0.3112  0.1669
 3200TIP3    H2 9607   1.942   2.503   4.872  1.7397  2.0655  0.1722
 3201TIP3   OH2 9608   4.243   0.409   2.018  0.1492  0.1500 -0.3291
 3201TIP3    H1 9609   4.213   0.498   2.037  0.7914  0.3863 -0.4115
 3201TIP3    H2 9610   4.213   0.358   2.093  0.5247  0.6017  0.1344
 3202TIP3   OH2 9611   5.070   1.392   2.255  0.5461  0.2892  0.3294
 3202TIP3    H1 9612   5.057   1.348   2.339  2.0527 -0.3649  0.2427
 3202TIP3    H2 9613   5.089   1.322   2.193  0.7013  0.8723 -0.2968
 3203TIP3   OH2 9614   3.149   4.129   1.439 -0.5178  0.0752  0.5597
 3203TIP3    H1 9615   3.090   4.188   1.486 -0.5580  0.4317  0.0604
 3203TIP3    H2 9616   3.235   4.146   1.477  0.2769  3.3625 -2.1817
 3204TIP3   OH2 9617   4.183   4.013   2.455 -0.1550 -0.7784  0.3483
 3204TIP3    H1 9618   4.096   4.044   2.478 -0.5202 -1.1134 -0.5277
 3204TIP3    H2 9619   4.227   4.089   2.416  0.4486 -0.2240  2.0193
 3205TIP3   OH2 9620   6.261   1.635   4.109 -0.1677 -0.1918 -0.5169
 3205TIP3    H1 9621   6.223   1.705   4.162 -0.1131 -0.1152 -0.5782
 3205TIP3    H2 9622   6.211   1.557   4.133 -0.0969 -0.1735 -0.2985
 3206TIP3   OH2 9623   4.226   1.311   4.372 -0.3996  0.1726 -0.2985
 3206TIP3    H1 9624   4.285   1.237   4.357  0.5193  1.0284 -1.0120
 3206TIP3    H2 9625   4.143   1.270   4.399  0.7515 -1.0351  1.6771
 3207TIP3   OH2 9626   3.250   5.951   0.898  0.3246 -0.0805 -0.8011
 3207TIP3    H1 9627   3.243   5.909   0.812  1.6391  0.9723 -1.4386
 3207TIP3    H2 9628   3.340   5.936   0.925  0.6107  1.6767 -0.7047
 3208TIP3   OH2 9629   0.611   2.535   2.185 -0.2660  0.3510  0.1802
 3208TIP3    H1 9630   0.674   2.465   2.169 -1.2481  0.0496 -3.2467
 3208TIP3    H2 9631   0.664   2.615   2.192  0.6267 -0.2028 -0.1668
 3209TIP3   OH2 9632   1.652   5.075   4.209 -0.0429 -0.3498  0.4645
 3209TIP3    H1 9633   1.601   5.039   4.282  0.5471  0.3727  1.2445
 3209TIP3    H2 9634   1.737   5.031   4.215 -0.1507 -0.6599 -0.1086
 3210TIP3   OH2 9635   4.235   4.418   1.387 -0.4046 -0.4622  0.6527
 3210TIP3    H1 9636   4.255   4.325   1.370 -1.6250 -0.4540 -1.0201
 3210TIP3    H2 9637   4.141   4.425   1.375 -0.0821  1.4085 -1.5583
 3211TIP3   OH2 9638   4.627   4.543   1.978  0.4947  0.0607  0.6544
 3211TIP3    H1 9639   4.655   4.619   1.928 -1.7160  0.0080 -0.7978
 3211TIP3    H2 9640   4.610   4.576   2.066  2.1317  0.6514  0.7759
 3212TIP3   OH2 9641   2.022   1.238   1.473 -0.0853  0.1492 -0.4164
 3212TIP3    H1 9642   2.108   1.196   1.481  0.2347  0.9532  0.5655
 3212TIP3    H2 9643   2.039   1.330   1.493 -1.4182  0.0661  1.2878
 3213TIP3   OH2 9644   2.513   1.854   2.303  0.3952 -0.1093 -0.4606
 3213TIP3    H1 9645   2.595   1.894   2.332  1.6000 -1.8046 -1.3781
 3213TIP3    H2 9646   2.466   1.833   2.384  1.1581  0.2632  0.0899
 3214TIP3   OH2 9647   2.132   3.156   2.353  0.6939 -0.6561 -0.0493
 3214TIP3    H1 9648   2.203   3.217   2.373 -0.5336  0.9838 -0.4863
 3214TIP3    H2 9649   2.055   3.211   2.339 -0.1409 -2.1719 -2.0546
 3215TIP3   OH2 9650   3.268   5.631   3.882 -0.8777 -0.1601  0.6365
 3215TIP3    H1 9651   3.211   5.559   3.856 -0.9183 -0.2420  0.9456
 3215TIP3    H2 9652   3.231   5.708   3.839 -0.4456 -0.4288 -0.2417
 3216TIP3   OH2 9653   3.020   3.058   0.746  0.0329  1.0545  0.1617
 3216TIP3    H1 9654   3.080   3.079   0.674 -0.8180  0.8715 -0.6182
 3216TIP3    H2 9655   3.072   3.005   0.807  0.4605  0.2630 -0.8654
 3217TIP3   OH2 9656   4.235   5.183   4.042 -0.3582  0.3613  0.4200
 3217TIP3    H1 9657   4.207   5.259   4.092 -0.3026  2.3888 -2.3813
 3217TIP3    H2 9658   4.315   5.153   4.087  1.0320  3.5140  0.2834
 3218TIP3   OH2 9659   0.333   4.446   1.550 -0.5408  0.1550 -0.0083
 3218TIP3    H1 9660   0.274   4.497   1.606 -1.0041 -0.2144 -0.1565
 3218TIP3    H2 9661   0.363   4.508   1.484 -1.0680  0.2509 -0.1625
 3219TIP3   OH2 9662   0.186   5.313   4.800  0.0012 -0.6774  1.0533
 3219TIP3    H1 9663   0.208   5.246   4.864 -0.5793 -1.9649 -0.0328
 3219TIP3    H2 9664   0.218   5.278   4.717  0.6329  0.8845  0.5931
 3220TIP3   OH2 9665   3.130   4.589   0.831  0.1056 -0.1792  0.1515
 3220TIP3    H1 9666   3.152   4.500   0.859 -2.1687 -0.8109  0.1289
 3220TIP3    H2 9667   3.084   4.578   0.748  1.0582  1.1588 -0.5852
 3221TIP3   OH2 9668   2.265   1.378   3.982 -0.2095  0.0927  0.0357
 3221TIP3    H1 9669   2.278   1.461   3.936  2.0277 -0.1976  0.0189
 3221TIP3    H2 9670   2.170   1.364   3.980 -0.3814  0.9838 -2.8624
 3222TIP3   OH2 9671   3.021   5.435   4.456  0.5408 -0.6483  0.0330
 3222TIP3    H1 9672   2.993   5.349   4.426  1.4514 -0.4094 -1.5871
 3222TIP3    H2 9673   3.034   5.486   4.376 -2.0885  1.7317  0.9556
 3223TIP3   OH2 9674   2.949   5.362   4.770 -0.1575 -0.1774  0.0488
 3223TIP3    H1 9675   2.981   5.289   4.824  0.4329  1.4859  2.0639
 3223TIP3    H2 9676   2.996   5.353   4.688  2.5997 -0.1077  1.5042
 3224TIP3   OH2 9677   4.037   4.214   4.237  0.2339  0.1621 -0.4917
 3224TIP3    H1 9678   4.101   4.265   4.287 -1.5033 -0.6058  2.8667
 3224TIP3    H2 9679   3.954   4.228   4.283 -1.7201 -0.3029 -3.5805
 3225TIP3   OH2 9680   4.306   1.010   1.239  0.0401  0.4667  0.3873
 3225TIP3    H1 9681   4.353   0.961   1.306 -0.4641  0.2612  0.5945
 3225TIP3    H2 9682   4.292   0.946   1.169 -0.1476  0.4597  0.4315
 3226TIP3   OH2 9683   1.424   5.466   0.474 -0.2889 -0.0445 -0.2792
 3226TIP3    H1 9684   1.361   5.463   0.402  0.3771  1.3685 -0.9615
 3226TIP3    H2 9685   1.482   5.539   0.452  1.3890 -1.0833  0.4946
 3227TIP3   OH2 9686   5.218   0.282   1.105 -0.0691 -0.3345  0.1390
 3227TIP3    H1 9687   5.128   0.306   1.079  0.2512  0.9824  0.1450
 3227TIP3    H2 9688   5.228   0.319   1.192  0.4910 -0.4570  0.1262
 3228TIP3   OH2 9689   1.403   0.445   4.292  0.1477 -0.1440  0.6205
 3228TIP3    H1 9690   1.337   0.507   4.259 -1.2990 -2.3306 -0.8693
 3228TIP3    H2 9691   1.369   0.416   4.376 -0.1172 -0.2717  0.4704
 3229TIP3   OH2 9692   4.038   2.929   1.833 -0.3640 -0.2351 -0.4234
 3229TIP3    H1 9693   4.028   2.957   1.742  1.0120  0.1563 -0.4739
 3229TIP3    H2 9694   4.040   2.833   1.828  1.2676 -0.1902 -1.0114
 3230TIP3   OH2 9695   1.728   3.199   1.206  0.1728 -0.2054 -0.1040
 3230TIP3    H1 9696   1.752   3.250   1.282  1.2260 -1.2850  0.3238
 3230TIP3    H2 9697   1.635   3.181   1.217  0.3111 -0.3450  0.9379
 3231TIP3   OH2 9698   4.391   1.137   4.785  0.3309 -0.2430  0.2582
 3231TIP3    H1 9699   4.377   1.134   4.879  2.8022 -1.5339  0.6952
 3231TIP3    H2 9700   4.377   1.047   4.756  0.9605 -0.1633 -0.3294
 3232TIP3   OH2 9701   1.597   4.606   4.952  0.1881  0.2642 -0.3263
 3232TIP3    H1 9702   1.672   4.603   4.892 -0.0513  0.2235 -0.6233
 3232TIP3    H2 9703   1.610   4.686   5.003  1.6003 -0.8046  1.1352
 3233TIP3   OH2 9704   2.152   0.241   0.044 -0.1564  0.4577 -0.3921
 3233TIP3    H1 9705   2.098   0.319   0.058  0.5000  1.1134 -1.3134
 3233TIP3    H2 9706   2.112   0.197  -0.030 -0.8582 -0.4063  0.4864
 3234TIP3   OH2 9707   2.784   1.041   0.432  0.0898  0.1428  0.1048
 3234TIP3    H1 9708   2.825   0.986   0.499 -0.2851  0.0544  0.2640
 3234TIP3    H2 9709   2.821   1.011   0.349 -1.7487 -1.8685 -0.0596
 3235TIP3   OH2 9710   2.424   0.616   3.657  0.3213  0.2378 -0.5843
 3235TIP3    H1 9711   2.438   0.621   3.751 -1.7197 -0.9331 -0.1492
 3235TIP3    H2 9712   2.511   0.603   3.620  1.1080  0.2251  1.1815
 3236TIP3   OH2 9713   2.370   0.160   0.527  0.1491 -0.2273 -0.1616
 3236TIP3    H1 9714   2.310   0.179   0.600  0.0620 -0.2960 -0.2147
 3236TIP3    H2 9715   2.312   0.131   0.456  0.0625  1.4904 -0.8285
 3237TIP3   OH2 9716   1.345   3.384   4.070 -0.0313  0.3667 -0.7013
 3237TIP3    H1 9717   1.437   3.363   4.088  0.2330  1.9771  0.0131
 3237TIP3    H2 9718   1.318   3.319   4.006  0.6588 -2.1668  1.3672
 3238TIP3   OH2 9719   4.291   2.360   1.384  0.5425 -0.0495  0.4964
 3238TIP3    H1 9720   4.241   2.297   1.436 -0.2789  1.1221  1.1753
 3238TIP3    H2 9721   4.309   2.314   1.302 -1.2638 -0.6925  0.4016
 3239TIP3   OH2 9722   3.393   2.570   1.548  0.4119 -0.2655 -0.3191
 3239TIP3    H1 9723   3.413   2.610   1.633  0.5325  0.1538 -0.5444
 3239TIP3    H2 9724   3.298   2.557   1.551  0.3842 -0.0480 -0.2079
 3240TIP3   OH2 9725   4.267   2.370   0.211  0.0448 -0.0362 -0.1328
 3240TIP3    H1 9726   4.190   2.391   0.263  0.9132  0.5934  0.9609
 3240TIP3    H2 9727   4.237   2.371   0.120 -1.1630  0.4738  0.2577
 3241TIP3   OH2 9728   5.288   4.708   0.873 -0.0753 -0.5434 -0.4694
 3241TIP3    H1 9729   5.308   4.718   0.966  0.4218 -1.7957 -0.4291
 3241TIP3    H2 9730   5.212   4.651   0.871 -0.1485 -0.4356 -0.8380
 3242TIP3   OH2 9731   2.924   3.683   4.798 -0.0407 -0.0701 -0.4531
 3242TIP3    H1 9732   2.842   3.717   4.835 -0.3384 -0.4492 -0.7505
 3242TIP3    H2 9733   2.983   3.674   4.872 -0.4589 -0.3290 -0.1500
 3243TIP3   OH2 9734   0.126   1.743   1.116  0.4906  0.3607 -0.1375
 3243TIP3    H1 9735   0.038   1.761   1.149  0.4990  0.4268 -0.1530
 3243TIP3    H2 9736   0.178   1.729   1.195  0.5552  0.7190 -0.1168
 3244TIP3   OH2 9737   2.472   0.828   3.438 -0.3987  0.1382  0.1921
 3244TIP3    H1 9738   2.526   0.849   3.514 -1.1685  0.7437  0.5902
 3244TIP3    H2 9739   2.388   0.870   3.457 -0.3453  1.0119 -1.3640
 3245TIP3   OH2 9740   5.893   1.840   1.478  0.1449 -0.1160  0.6538
 3245TIP3    H1 9741   5.873   1.760   1.430  0.4564  0.3407 -0.2540
 3245TIP3    H2 9742   5.950   1.811   1.550  0.3143 -0.6950  0.2953
 3246TIP3   OH2 9743   5.516   0.492   1.928 -0.4574  0.5277  0.0058
 3246TIP3    H1 9744   5.478   0.547   1.997 -2.6388 -0.0260 -0.6814
 3246TIP3    H2 9745   5.452   0.493   1.858 -0.1796 -2.1595 -0.4036
 3247TIP3   OH2 9746   6.211   3.092   1.584 -0.2862  0.0389 -0.3559
 3247TIP3    H1 9747   6.242   3.181   1.602  0.1278 -0.5926  2.5633
 3247TIP3    H2 9748   6.123   3.089   1.622  0.4685 -1.2794  1.4493
 3248TIP3   OH2 9749   6.195   1.730   3.038 -0.5910  0.1411  0.1197
 3248TIP3    H1 9750   6.239   1.685   3.111 -0.8136 -0.2965 -0.0104
 3248TIP3    H2 9751   6.102   1.726   3.061 -0.5133  1.8882  0.8585
 3249TIP3   OH2 9752   2.387   0.658   1.501  0.1127  0.0158  0.2374
 3249TIP3    H1 9753   2.306   0.690   1.459  0.0502 -0.4468 -0.0087
 3249TIP3    H2 9754   2.367   0.567   1.523  0.6311 -0.1582  0.0026
 3250TIP3   OH2 9755   0.419   0.671   1.170  0.2931 -0.0507 -0.1659
 3250TIP3    H1 9756   0.419   0.680   1.075  1.2165 -1.0377 -0.2815
 3250TIP3    H2 9757   0.435   0.759   1.203 -0.8651  0.4485 -0.8902
 3251TIP3   OH2 9758   0.784   1.984   3.277 -0.0560  0.3563  0.4680
 3251TIP3    H1 9759   0.777   2.070   3.318 -0.2051  0.1872  0.8079
 3251TIP3    H2 9760   0.875   1.959   3.291  0.6875  1.5159 -1.8228
 3252TIP3   OH2 9761   1.928   0.176   1.625 -0.1055 -0.9967 -0.2162
 3252TIP3    H1 9762   2.006   0.140   1.584  0.8563  0.7698 -0.0075
 3252TIP3    H2 9763   1.947   0.269   1.638 -2.1656 -0.5446  0.0215
 3253TIP3   OH2 9764   1.396   0.637   3.430  0.5644  0.1169  0.3048
 3253TIP3    H1 9765   1.406   0.655   3.336  0.0286  0.1153  0.2463
 3253TIP3    H2 9766   1.470   0.580   3.451  1.1441  0.7591  0.0562
 3254TIP3   OH2 9767   4.823   3.077   2.264  0.1396  0.1519 -0.0574
 3254TIP3    H1 9768   4.917   3.095   2.272  0.0096  0.3118  1.5652
 3254TIP3    H2 9769   4.815   2.983   2.283  0.0090  0.0449 -0.6293
 3255TIP3   OH2 9770   1.419   2.119   0.054 -0.6847 -0.1866  0.0821
 3255TIP3    H1 9771   1.442   2.060  -0.018  1.3425  1.2960 -0.5978
 3255TIP3    H2 9772   1.477   2.092   0.126  0.6605  1.2034 -0.4093
 3256TIP3   OH2 9773   2.342   0.710   0.943  0.6860  0.1148 -0.0058
 3256TIP3    H1 9774   2.339   0.615   0.949  0.3996  0.2138  2.2573
 3256TIP3    H2 9775   2.390   0.727   0.862 -0.9277 -1.8985 -1.4997
 3257TIP3   OH2 9776   1.052   5.766   1.519  0.3283  0.1627 -0.6510
 3257TIP3    H1 9777   1.083   5.856   1.535 -1.7892  0.6502  1.1383
 3257TIP3    H2 9778   0.993   5.774   1.444  0.7045  0.1221 -0.9539
 3258TIP3   OH2 9779   5.898   0.714   0.356 -0.2484 -0.0950  0.9005
 3258TIP3    H1 9780   5.831   0.781   0.339 -2.5248 -2.5813 -0.5927
 3258TIP3    H2 9781   5.893   0.699   0.450 -2.4302 -0.7758  0.7239
 3259TIP3   OH2 9782   1.567   2.222   1.888 -0.2136  0.0388 -0.5295
 3259TIP3    H1 9783   1.592   2.239   1.798  0.3702  0.9930 -0.2051
 3259TIP3    H2 9784   1.488   2.169   1.882  0.6611 -1.1942 -1.5891
 3260TIP3   OH2 9785   4.286   3.473   4.132  0.1260  0.2630  0.2420
 3260TIP3    H1 9786   4.359   3.532   4.111 -0.9788  1.6839  0.2879
 3260TIP3    H2 9787   4.216   3.499   4.072  0.1866 -2.2910 -1.0781
 3261TIP3   OH2 9788   3.258   3.504   3.106  0.1863 -0.2102 -0.1348
 3261TIP3    H1 9789   3.165   3.506   3.126 -0.2582 -0.3971 -2.0461
 3261TIP3    H2 9790   3.292   3.585   3.144 -1.1255  0.8050 -1.0244
 3262TIP3   OH2 9791   1.815   3.085   4.230 -0.0167 -0.0217 -0.1973
 3262TIP3    H1 9792   1.889   3.140   4.255  0.7312 -0.8174 -0.6182
 3262TIP3    H2 9793   1.807   3.021   4.301  0.1609 -0.3826 -0.5003
 3263TIP3   OH2 9794   3.306   3.078   2.921  0.1019  0.5764  0.0478
 3263TIP3    H1 9795   3.368   3.012   2.951  0.5368  0.3192 -1.3456
 3263TIP3    H2 9796   3.222   3.033   2.917  0.1274  0.4928  0.4068
 3264TIP3   OH2 9797   2.926   2.780   4.107  0.1554  0.4643 -0.2855
 3264TIP3    H1 9798   3.013   2.789   4.146 -0.4363 -0.9260  1.4553
 3264TIP3    H2 9799   2.887   2.705   4.151 -1.9675  1.0851 -0.9881
 3265TIP3   OH2 9800   0.048   0.310   1.927 -0.4139  0.3879  0.0289
 3265TIP3    H1 9801   0.035   0.397   1.890  0.4378  0.1769 -0.7872
 3265TIP3    H2 9802   0.133   0.313   1.969 -1.4802  0.7140  2.3296
 3266TIP3   OH2 9803   4.623   1.779   4.152 -0.6698  0.2113 -0.0392
 3266TIP3    H1 9804   4.713   1.759   4.177 -0.4071  0.1805 -0.9780
 3266TIP3    H2 9805   4.576   1.787   4.235  0.3624  1.0268  0.4749
 3267TIP3   OH2 9806   0.976   3.907   2.960  0.3774 -0.1477  0.1912
 3267TIP3    H1 9807   0.937   3.863   3.035  0.7427 -1.1525 -0.1849
 3267TIP3    H2 9808   1.036   3.972   2.997  0.6304 -0.7044  0.7733
 3268TIP3   OH2 9809   1.864   3.282   3.432 -0.0024 -0.4312  0.0033
 3268TIP3    H1 9810   1.937   3.242   3.479 -0.2435 -1.8858 -0.7712
 3268TIP3    H2 9811   1.797   3.296   3.499  0.7932  0.4519  0.6267
 3269TIP3   OH2 9812   1.539   4.918   1.054  0.4430  0.3280  0.5396
 3269TIP3    H1 9813   1.575   4.854   1.115  2.7135  0.2766 -0.7512
 3269TIP3    H2 9814   1.465   4.874   1.013  0.0961 -0.3379  1.8317
 3270TIP3   OH2 9815   0.423   5.513   2.482 -0.0224  0.1441 -0.3329
 3270TIP3    H1 9816   0.372   5.544   2.556  1.6215  1.4960  0.2883
 3270TIP3    H2 9817   0.385   5.428   2.461  0.3514 -0.9765  2.9745
 3271TIP3   OH2 9818   4.347   0.886   4.658  0.9276 -0.2436 -0.3889
 3271TIP3    H1 9819   4.313   0.814   4.711 -0.7782  0.3562 -0.6057
 3271TIP3    H2 9820   4.271   0.919   4.610  2.0784  0.3841 -1.8681
 3272TIP3   OH2 9821   1.557   2.206   5.088  0.3655  0.3215  0.5395
 3272TIP3    H1 9822   1.611   2.271   5.134  0.3344  1.6298 -1.1780
 3272TIP3    H2 9823   1.470   2.245   5.085  0.1785 -0.1187  0.1020
 3273TIP3   OH2 9824   3.370   1.706   4.947  0.5444  0.0118 -0.4110
 3273TIP3    H1 9825   3.333   1.743   5.027  0.8684 -1.1239  0.2803
 3273TIP3    H2 9826   3.445   1.761   4.927  0.3022  0.4639 -0.0898
 3274TIP3   OH2 9827   6.197   0.221   0.440 -0.4063 -0.4661 -0.2271
 3274TIP3    H1 9828   6.156   0.228   0.527  2.0095  0.8301  0.9021
 3274TIP3    H2 9829   6.189   0.310   0.404 -0.3436 -0.7101 -0.8475
 3275TIP3   OH2 9830   1.325   2.778   3.047  0.1469  0.0567  0.2328
 3275TIP3    H1 9831   1.368   2.794   2.963  1.7858  0.3114  1.0751
 3275TIP3    H2 9832   1.246   2.831   3.043 -0.0429 -0.2745 -1.3088
 3276TIP3   OH2 9833   6.267   2.386   5.029  0.0625 -0.4957  0.0565
 3276TIP3    H1 9834   6.342   2.351   5.077 -0.8919  0.3292  2.2703
 3276TIP3    H2 9835   6.243   2.466   5.076 -1.2033  0.1570 -1.5904
 3277TIP3   OH2 9836   3.882   1.353   3.318 -0.1972  0.4956 -1.3051
 3277TIP3    H1 9837   3.889   1.372   3.412  0.7656 -3.1457 -0.4813
 3277TIP3    H2 9838   3.789   1.332   3.306 -0.5550  2.0733 -1.4716
 3278TIP3   OH2 9839   2.288   1.143   0.106 -0.1306 -0.6019  0.1261
 3278TIP3    H1 9840   2.291   1.093   0.024  0.0810 -0.3830 -0.0016
 3278TIP3    H2 9841   2.232   1.092   0.164 -0.9225 -0.3705 -0.4228
 3279TIP3   OH2 9842   3.077   1.304   1.004  0.3025  0.3707 -0.3766
 3279TIP3    H1 9843   3.048   1.389   1.038 -0.0058  0.5228 -1.0086
 3279TIP3    H2 9844   3.042   1.300   0.916  1.8773  0.3995 -1.0452
 3280TIP3   OH2 9845   2.101   5.059   0.150 -0.0737  0.5484  0.4232
 3280TIP3    H1 9846   2.029   5.004   0.119  0.5478  0.1695 -0.3785
 3280TIP3    H2 9847   2.068   5.098   0.231 -1.6751  1.4209 -0.5977
 3281TIP3   OH2 9848   4.391   5.006   4.714  0.0687 -0.3969  0.2617
 3281TIP3    H1 9849   4.402   5.099   4.730  0.0974 -0.6594  1.9434
 3281TIP3    H2 9850   4.392   4.966   4.801  0.4513 -2.0115 -0.4419
 3282TIP3   OH2 9851   1.393   0.809   4.028  0.3441 -0.5321  0.2174
 3282TIP3    H1 9852   1.452   0.831   4.100 -0.4850  1.6685  0.3075
 3282TIP3    H2 9853   1.397   0.886   3.971  0.6533 -2.0385 -1.9034
 3283TIP3   OH2 9854   3.104   1.059   2.141 -0.3534 -0.1589  0.1757
 3283TIP3    H1 9855   3.087   0.983   2.085  0.3678 -0.6345  0.5883
 3283TIP3    H2 9856   3.047   1.046   2.217 -0.3524 -0.2027  0.1689
 3284TIP3   OH2 9857   0.208   3.611   4.892  0.1591 -0.1676 -0.5651
 3284TIP3    H1 9858   0.154   3.681   4.927  0.0054 -0.1300 -0.8758
 3284TIP3    H2 9859   0.260   3.581   4.967  1.0299  1.0116 -0.6794
 3285TIP3   OH2 9860   1.907   4.222   0.474  0.0748 -0.0574  0.1167
 3285TIP3    H1 9861   1.844   4.269   0.420 -1.2791 -0.2854  1.4496
 3285TIP3    H2 9862   1.898   4.261   0.561  1.5659 -0.3110  0.4194
 3286TIP3   OH2 9863   2.979   3.405   3.724  0.2285  0.5894 -0.1295
 3286TIP3    H1 9864   3.051   3.417   3.785  0.4771  0.6488 -0.4332
 3286TIP3    H2 9865   2.902   3.389   3.780  0.2866  1.4980  0.2231
 3287TIP3   OH2 9866   4.699   3.920   0.043 -0.3415  0.0231  0.6002
 3287TIP3    H1 9867   4.660   3.943   0.127 -2.1475 -1.7285  0.3040
 3287TIP3    H2 9868   4.667   3.987  -0.017 -0.8792  0.0216  0.8761
 3288TIP3   OH2 9869   3.952   3.334   5.035  0.1225 -0.1097 -0.6560
 3288TIP3    H1 9870   3.872   3.298   4.995  1.8768 -1.6095 -3.0551
 3288TIP3    H2 9871   4.001   3.258   5.065  1.4624  0.6372 -0.8630
 3289TIP3   OH2 9872   3.283   0.813   3.480  0.0810  0.1952 -0.0253
 3289TIP3    H1 9873   3.340   0.753   3.432  0.6293  0.8996 -0.2776
 3289TIP3    H2 9874   3.314   0.807   3.571  0.8350  0.8643 -0.2249
 3290TIP3   OH2 9875   2.708   5.513   2.410  0.1572 -0.0989 -0.2982
 3290TIP3    H1 9876   2.784   5.455   2.417  0.7811  0.7062 -0.2390
 3290TIP3    H2 9877   2.745   5.601   2.407 -0.8458  0.4154  1.2782
 3291TIP3   OH2 9878   2.735   1.738   3.772 -0.1300 -0.2363  0.2479
 3291TIP3    H1 9879   2.754   1.812   3.829 -1.7748 -0.6818  1.4592
 3291TIP3    H2 9880   2.791   1.751   3.696  2.8394 -0.0774  2.3098
 3292TIP3   OH2 9881   1.992   2.609   0.020 -0.1134  0.0582 -0.0329
 3292TIP3    H1 9882   2.084   2.583   0.023 -0.2657 -0.5091  3.6504
 3292TIP3    H2 9883   1.988   2.689   0.071 -1.6384  0.2226 -0.3629
 3293TIP3   OH2 9884   0.821   3.230   1.507  0.3511  0.1033 -0.2611
 3293TIP3    H1 9885   0.751   3.169   1.529  0.6078 -0.3213 -0.6127
 3293TIP3    H2 9886   0.880   3.227   1.582 -0.1140  0.6256  0.1323
 3294TIP3   OH2 9887   1.968   3.646   4.204 -0.1847  0.7299  0.3803
 3294TIP3    H1 9888   1.953   3.641   4.299  0.5646  1.5227  0.5525
 3294TIP3    H2 9889   2.059   3.618   4.193 -0.5476 -0.2840 -0.2235
 3295TIP3   OH2 9890   5.187   3.769   4.247  0.2592 -0.2430  0.3024
 3295TIP3    H1 9891   5.206   3.753   4.339 -0.1167  0.3850  0.4967
 3295TIP3    H2 9892   5.136   3.851   4.247  0.4701 -0.1043 -0.4786
 3296TIP3   OH2 9893   4.459   2.087   0.441 -0.3787 -0.2858  0.1886
 3296TIP3    H1 9894   4.461   1.996   0.471 -1.0538  0.0791  1.3945
 3296TIP3    H2 9895   4.404   2.085   0.362  0.3238 -1.0469 -0.2984
 3297TIP3   OH2 9896   4.229   3.908   1.535  0.2518 -0.3727  0.1420
 3297TIP3    H1 9897   4.305   3.964   1.551  0.2495 -0.7816  1.7594
 3297TIP3    H2 9898   4.259   3.820   1.558 -0.5273 -0.6404  0.1586
 3298TIP3   OH2 9899   2.688   4.243   0.244 -0.2122  0.2912 -0.2456
 3298TIP3    H1 9900   2.668   4.314   0.305  0.2049  1.9984 -2.0032
 3298TIP3    H2 9901   2.602   4.212   0.215 -0.4249 -0.8209  1.4592
 3299TIP3   OH2 9902   0.438   0.188   4.046  0.1021  0.3579  0.0411
 3299TIP3    H1 9903   0.431   0.259   3.982 -0.2534  0.8981  0.6714
 3299TIP3    H2 9904   0.476   0.229   4.124 -1.2041  0.1355  0.8203
 3300TIP3   OH2 9905   2.765   4.200   2.349 -0.4290 -0.4979  0.0426
 3300TIP3    H1 9906   2.782   4.294   2.353  0.6988 -0.6675 -0.4070
 3300TIP3    H2 9907   2.679   4.193   2.309 -0.1392  0.3252 -0.7507
 3301TIP3   OH2 9908   3.204   6.001   0.570  0.3031  0.0088  0.0978
 3301TIP3    H1 9909   3.201   5.915   0.611 -0.3852 -1.0072 -1.9138
 3301TIP3    H2 9910   3.132   6.000   0.506  2.3732  0.7310 -2.4242
 3302TIP3   OH2 9911   1.297   5.153   4.823 -0.6155  0.1849 -0.2816
 3302TIP3    H1 9912   1.290   5.243   4.855  1.7437  0.3421 -0.0173
 3302TIP3    H2 9913   1.345   5.160   4.740 -0.5268 -0.8190 -0.3332
 3303TIP3   OH2 9914   0.306   1.928   2.211  0.7452  0.1593 -0.1362
 3303TIP3    H1 9915   0.366   1.862   2.177  0.3427  1.2598 -3.3305
 3303TIP3    H2 9916   0.221   1.885   2.210  0.7874  0.0766 -0.2109
 3304TIP3   OH2 9917   2.882   5.459   3.999 -0.0153 -0.6523  0.4744
 3304TIP3    H1 9918   2.819   5.529   3.984 -0.0678 -0.8536 -0.2683
 3304TIP3    H2 9919   2.835   5.397   4.055 -0.1301 -0.3262  0.7413
 3305TIP3   OH2 9920   3.700   3.635   2.062  0.4480  0.0658 -0.7003
 3305TIP3    H1 9921   3.710   3.619   1.969  0.1260 -0.6710 -0.6079
 3305TIP3    H2 9922   3.790   3.649   2.093  0.5395  0.5033 -1.1443
 3306TIP3   OH2 9923   2.854   0.037   2.210  0.4579 -0.7581  0.2320
 3306TIP3    H1 9924   2.806   0.058   2.130 -0.6761 -1.1158  0.7999
 3306TIP3    H2 9925   2.787   0.006   2.271  1.5240 -2.1927  0.7329
 3307TIP3   OH2 9926   6.318   3.881   1.723 -0.3389  0.3596  0.3693
 3307TIP3    H1 9927   6.347   3.972   1.729 -0.2555  0.4202 -0.6909
 3307TIP3    H2 9928   6.349   3.841   1.804  2.0946  0.6078 -0.3329
 3308TIP3   OH2 9929   1.214   2.323   1.968  0.3168 -0.5539  0.0190
 3308TIP3    H1 9930   1.269   2.259   1.923 -0.1236 -0.3035 -0.9114
 3308TIP3    H2 9931   1.133   2.325   1.916  0.8209  1.7439 -0.7746
 3309TIP3   OH2 9932   6.150   2.883   4.621 -0.5821 -0.4018 -0.6694
 3309TIP3    H1 9933   6.072   2.829   4.606 -0.9059 -0.2470  0.3795
 3309TIP3    H2 9934   6.162   2.931   4.539 -3.0683  1.4433 -0.0504
 3310TIP3   OH2 9935   4.894   4.329   3.366  0.0471  0.2424  0.1814
 3310TIP3    H1 9936   4.944   4.259   3.325 -1.3089  0.9734 -3.0618
 3310TIP3    H2 9937   4.818   4.341   3.309  0.4522  4.6825  0.1596
 3311TIP3   OH2 9938   0.336   3.730   4.614 -0.2015 -0.4159  0.2411
 3311TIP3    H1 9939   0.269   3.767   4.671  1.1054  3.5084 -0.4162
 3311TIP3    H2 9940   0.310   3.757   4.526  1.4967  0.0044 -0.1750
 3312TIP3   OH2 9941   0.273   5.479   5.018 -1.3714 -0.2644 -0.0534
 3312TIP3    H1 9942   0.265   5.401   4.963 -1.8928  0.2002 -0.6435
 3312TIP3    H2 9943   0.246   5.449   5.105 -1.8259 -0.6905 -0.3323
 3313TIP3   OH2 9944   3.762   5.437   2.352  0.5512 -0.1666  0.2091
 3313TIP3    H1 9945   3.835   5.460   2.295 -0.7834  2.4070 -0.5924
 3313TIP3    H2 9946   3.688   5.426   2.292 -0.1360 -0.8807  1.1644
 3314TIP3   OH2 9947   1.500   0.257   1.901  0.2970  0.7021 -0.0379
 3314TIP3    H1 9948   1.552   0.337   1.900 -0.9418  1.5358 -0.4672
 3314TIP3    H2 9949   1.425   0.276   1.844 -0.1780 -0.6521  0.0983
 3315TIP3   OH2 9950   3.925   5.423   3.663  0.3741  0.2492  1.1199
 3315TIP3    H1 9951   3.979   5.452   3.737  1.0036  0.9007  0.4247
 3315TIP3    H2 9952   3.903   5.504   3.617 -0.2488 -0.1265  0.7493
 3316TIP3   OH2 9953   3.772   5.929   0.895  0.0067  0.5001 -0.3786
 3316TIP3    H1 9954   3.838   5.966   0.954  0.8770 -0.0940 -0.9702
 3316TIP3    H2 9955   3.805   5.947   0.807 -0.6324  0.2058 -0.6866
 3317TIP3   OH2 9956   1.253   4.082   0.755 -0.1853 -0.2853 -0.2729
 3317TIP3    H1 9957   1.230   3.994   0.785  0.5754  0.4805  2.9680
 3317TIP3    H2 9958   1.175   4.134   0.774 -0.1437 -0.0019 -0.8763
 3318TIP3   OH2 9959   1.714   5.339   1.047 -0.7458 -0.6402  0.2407
 3318TIP3    H1 9960   1.722   5.429   1.079  0.6030 -0.3350 -0.8374
 3318TIP3    H2 9961   1.690   5.288   1.125  1.3347  0.2175  1.5506
 3319TIP3   OH2 9962   5.063   5.483   4.032  0.0105  0.5523  0.1449
 3319TIP3    H1 9963   5.080   5.572   4.064 -1.4926  1.4558 -1.4055
 3319TIP3    H2 9964   5.043   5.495   3.939  0.9921 -1.5785 -0.3880
 3320TIP3   OH2 9965   4.563   3.584   1.822 -0.0131  0.3094  0.2907
 3320TIP3    H1 9966   4.549   3.489   1.824 -0.5315  0.3873  0.5111
 3320TIP3    H2 9967   4.645   3.595   1.774 -1.0036 -0.1485 -1.6341
 3321TIP3   OH2 9968   0.855   2.460   2.028  0.0647  0.4034 -0.1882
 3321TIP3    H1 9969   0.802   2.469   1.949  1.5576  1.8591 -1.0996
 3321TIP3    H2 9970   0.854   2.367   2.047 -2.2683  0.2943 -0.5072
 3322TIP3   OH2 9971   5.216   5.250   3.944  0.2323 -0.1559  0.2403
 3322TIP3    H1 9972   5.266   5.184   3.896 -0.8313 -0.6868 -0.1665
 3322TIP3    H2 9973   5.133   5.208   3.965 -1.0318  1.4303 -1.2097
 3323TIP3   OH2 9974   3.148   0.503   4.446 -0.5221  0.3781 -0.7590
 3323TIP3    H1 9975   3.166   0.426   4.501  1.1963  1.2614 -0.0204
 3323TIP3    H2 9976   3.184   0.576   4.495 -1.2508  1.5510 -1.9153
 3324TIP3   OH2 9977   2.287   0.533   2.002  0.0773  0.0899 -0.2545
 3324TIP3    H1 9978   2.376   0.500   1.990  0.9243  2.7787 -2.3593
 3324TIP3    H2 9979   2.291   0.588   2.080 -0.4930 -1.8055  1.2032
 3325TIP3   OH2 9980   6.144   0.211   2.973 -0.5319  0.6113 -0.0205
 3325TIP3    H1 9981   6.225   0.163   2.957 -0.2202  1.0372  0.2380
 3325TIP3    H2 9982   6.074   0.150   2.950 -0.1570 -0.0808  0.6404
 3326TIP3   OH2 9983   6.010   1.810   1.065  0.3011 -0.2640  0.1111
 3326TIP3    H1 9984   6.000   1.886   1.123 -0.4958  0.5329 -1.0352
 3326TIP3    H2 9985   5.922   1.775   1.055  0.3924 -0.2786 -0.7427
 3327TIP3   OH2 9986   4.725   2.112   0.413  0.1522  0.0499 -0.2138
 3327TIP3    H1 9987   4.754   2.079   0.328  2.5158  0.6262  0.2815
 3327TIP3    H2 9988   4.630   2.103   0.412  0.2765 -1.6613 -2.1859
 3328TIP3   OH2 9989   1.263   1.393   4.110  0.1577  0.2055  0.0199
 3328TIP3    H1 9990   1.222   1.398   4.197 -1.6605  1.8035 -0.8741
 3328TIP3    H2 9991   1.206   1.334   4.061  0.4057  0.3962 -0.4945
 3329TIP3   OH2 9992   3.180   4.848   4.635  0.4803 -0.3176  0.0957
 3329TIP3    H1 9993   3.195   4.863   4.729 -0.1888  0.5553  0.0799
 3329TIP3    H2 9994   3.088   4.872   4.622  0.4279 -0.9259 -0.6934
 3330TIP3   OH2 9995   0.512   3.742   1.410  0.3383  0.2329  0.3936
 3330TIP3    H1 9996   0.533   3.728   1.318  2.9847  1.8354  0.6474
 3330TIP3    H2 9997   0.593   3.722   1.457 -0.9564 -0.6336  2.4320
 3331TIP3   OH2 9998   1.571   2.074   2.851 -0.1335  0.0546 -0.1647
 3331TIP3    H1 9999   1.532   2.161   2.857 -1.8397 -0.5357 -1.6436
 3331TIP3    H210000   1.548   2.044   2.762  2.4414 -0.9702 -0.5741
 3332TIP3   OH210001   1.417   0.918   1.116  0.4292 -0.4714  0.1669
 3332TIP3    H110002   1.334   0.870   1.127  1.7840 -2.8796  0.6391
 3332TIP3    H210003   1.422   0.975   1.193 -1.1003  0.2918 -0.2541
 3333TIP3   OH210004   2.761   4.444   1.871  0.0991  0.3488 -0.1116
 3333TIP3    H110005   2.796   4.357   1.854 -1.2585 -0.0238 -1.2051
 3333TIP3    H210006   2.682   4.428   1.923 -0.3498  0.8772 -0.6144
 3334TIP3   OH210007   4.978   2.577   0.124 -0.4656  0.5001 -0.2561
 3334TIP3    H110008   4.895   2.624   0.138 -1.1126 -0.1372 -1.7102
 3334TIP3    H210009   4.995   2.587   0.031  0.2585 -0.7455 -0.2691
 3335TIP3   OH210010   4.224   5.817   4.816 -0.1363  0.3364  0.1490
 3335TIP3    H110011   4.280   5.751   4.857  0.4127 -0.7144 -2.1365
 3335TIP3    H210012   4.136   5.794   4.846  0.1494 -0.8540  0.1523
 3336TIP3   OH210013   1.814   1.327   1.654  0.0327  0.0460 -0.3953
 3336TIP3    H110014   1.814   1.343   1.560  1.9149  0.1629 -0.4135
 3336TIP3    H210015   1.827   1.413   1.694 -0.5004 -0.0340 -0.0335
 3337TIP3   OH210016   1.100   0.865   1.086  0.9668  0.4316  0.4472
 3337TIP3    H110017   1.031   0.881   1.022  2.2086  2.0135 -0.5619
 3337TIP3    H210018   1.059   0.807   1.151 -0.9875  0.5423 -0.6051
 3338TIP3   OH210019   0.453   2.058   3.985  0.3402  0.1053 -0.0714
 3338TIP3    H110020   0.537   2.101   3.971 -0.3944  2.9196  2.7505
 3338TIP3    H210021   0.390   2.112   3.938 -0.1698 -0.3421  0.0821
 3339TIP3   OH210022   5.365   3.839   1.690  0.3838  0.6422 -0.2900
 3339TIP3    H110023   5.312   3.847   1.610  1.1602  1.2335 -0.7713
 3339TIP3    H210024   5.358   3.748   1.715  0.1547  0.4343 -1.0720
 3340TIP3   OH210025   2.448   4.217   3.107  0.0156  0.6353  0.2358
 3340TIP3    H110026   2.398   4.239   3.029 -1.1798 -0.7412  0.5631
 3340TIP3    H210027   2.404   4.140   3.143  0.5798  1.1612  2.2128
 3341TIP3   OH210028   0.345   2.636   2.161 -0.2124  0.3879 -0.1821
 3341TIP3    H110029   0.433   2.622   2.195 -0.3886 -0.8131 -0.1876
 3341TIP3    H210030   0.335   2.570   2.092 -1.3096  0.1415  0.1914
 3342TIP3   OH210031   4.918   2.949   2.790  0.0556 -0.8795  0.1597
 3342TIP3    H110032   4.916   2.950   2.695 -0.8070  1.4656  0.1296
 3342TIP3    H210033   5.012   2.949   2.812  0.2589 -1.5785 -0.6757
 3343TIP3   OH210034   3.706   0.932   0.514 -0.1465  0.0510  0.6636
 3343TIP3    H110035   3.726   1.025   0.506  1.0564 -0.3253 -1.1954
 3343TIP3    H210036   3.659   0.909   0.434  1.4460 -1.3493  0.0511
 3344TIP3   OH210037   3.040   5.139   1.448  0.3144  0.8725  0.0632
 3344TIP3    H110038   3.005   5.095   1.524  1.3039  0.4502  0.2921
 3344TIP3    H210039   2.968   5.142   1.385 -0.0147 -0.2985  0.3730
 3345TIP3   OH210040   3.785   0.621   3.439 -0.0660  0.3990 -0.0729
 3345TIP3    H110041   3.785   0.550   3.374  0.6644  1.4910 -1.3130
 3345TIP3    H210042   3.863   0.604   3.493  1.1524  1.2197 -1.5089
 3346TIP3   OH210043   4.001   5.853   1.504  0.1386  0.4065 -0.1200
 3346TIP3    H110044   4.080   5.877   1.553 -0.1527  0.6927  0.2111
 3346TIP3    H210045   4.017   5.887   1.416 -1.0909  3.7483  0.7715
 3347TIP3   OH210046   1.659   2.055   3.900  0.6836  0.1013  0.3582
 3347TIP3    H110047   1.704   1.971   3.909  2.4314  1.1064  1.3533
 3347TIP3    H210048   1.587   2.050   3.963 -0.5577 -1.4185 -1.0697
 3348TIP3   OH210049   2.967   2.238   0.044 -0.6671 -0.3235 -0.5288
 3348TIP3    H110050   3.010   2.304   0.099  0.7703  0.1836 -2.1761
 3348TIP3    H210051   2.926   2.178   0.106  0.6572  0.3703  1.0984
 3349TIP3   OH210052   5.872   2.043   3.069  0.4093 -0.3609  0.0325
 3349TIP3    H110053   5.778   2.025   3.065  0.5229 -1.3313  1.2056
 3349TIP3    H210054   5.885   2.087   3.154  0.9402  0.3078 -0.3812
 3350TIP3   OH210055   0.891   5.442   1.090  0.7988  0.0019 -0.4856
 3350TIP3    H110056   0.873   5.360   1.043 -0.8533 -0.7238  1.2915
 3350TIP3    H210057   0.908   5.505   1.020 -1.6001 -1.0151 -2.1471
 3351TIP3   OH210058   4.674   2.538   3.608 -0.9262 -0.0978 -0.1573
 3351TIP3    H110059   4.694   2.462   3.554 -1.4601  0.2405 -0.8450
 3351TIP3    H210060   4.759   2.565   3.645 -1.0228 -2.5291  2.1750
 3352TIP3   OH210061   6.038   1.523   5.176  0.4005 -0.2111 -0.3201
 3352TIP3    H110062   6.030   1.428   5.170  1.4602 -0.2351 -1.5382
 3352TIP3    H210063   5.950   1.552   5.202  0.0327 -1.4928 -0.0442
 3353TIP3   OH210064   4.636   3.860   1.732  0.1507  0.4125 -0.1887
 3353TIP3    H110065   4.570   3.926   1.756 -0.6038 -0.2379 -0.4351
 3353TIP3    H210066   4.689   3.903   1.665  0.1724  1.0493  0.2200
 3354TIP3   OH210067   1.082   3.047   4.546  0.3401  0.5215  0.8038
 3354TIP3    H110068   1.137   2.977   4.579 -0.9942  0.0126  2.0442
 3354TIP3    H210069   1.041   3.085   4.624 -1.3678  0.5961 -0.0859
 3355TIP3   OH210070   1.860   0.708   4.616  0.4117 -0.0150 -0.1658
 3355TIP3    H110071   1.892   0.779   4.560  1.2635  0.1616  0.5074
 3355TIP3    H210072   1.923   0.637   4.601 -1.7372 -1.5524 -2.6280
 3356TIP3   OH210073   6.194   2.928   0.886  0.1178 -0.7524 -0.2900
 3356TIP3    H110074   6.177   2.911   0.979 -0.6375 -0.1871 -0.3157
 3356TIP3    H210075   6.165   2.849   0.841 -1.3509 -0.2719 -0.2163
 3357TIP3   OH210076   2.490   5.345   1.907  0.2968  0.0446 -0.0118
 3357TIP3    H110077   2.534   5.354   1.822  0.5623 -0.9728  0.0146
 3357TIP3    H210078   2.536   5.406   1.965  0.9702 -0.2289 -0.2592
 3358TIP3   OH210079   4.251   0.671   2.438  0.0642 -0.2946  0.1357
 3358TIP3    H110080   4.269   0.753   2.392 -0.0479 -0.0495  0.5220
 3358TIP3    H210081   4.255   0.694   2.531 -2.6792 -0.0808  0.3001
 3359TIP3   OH210082   5.492   0.176   4.003  0.0158  0.1535  0.3464
 3359TIP3    H110083   5.459   0.188   3.914  0.6385 -0.0857  0.0767
 3359TIP3    H210084   5.586   0.158   3.991  0.0662 -0.0509  1.0392
 3360TIP3   OH210085   1.222   5.186   0.985 -0.0197 -0.6687 -0.4107
 3360TIP3    H110086   1.314   5.190   0.957  0.0721 -1.7765 -0.3208
 3360TIP3    H210087   1.188   5.273   0.967  0.7779 -0.5401 -1.4021
 3361TIP3   OH210088   5.230   4.246   3.046 -0.2607 -0.0422  0.0581
 3361TIP3    H110089   5.287   4.170   3.036 -0.4865 -0.1543 -0.4399
 3361TIP3    H210090   5.201   4.265   2.957 -0.5040  0.3974  0.2298
 3362TIP3   OH210091   3.866   2.103   5.062 -0.3137  0.8440  0.1509
 3362TIP3    H110092   3.827   2.111   5.149 -0.9683  2.1338 -0.2356
 3362TIP3    H210093   3.794   2.120   5.002 -0.2643 -1.6641 -0.7178
 3363TIP3   OH210094   3.638   1.997   2.718  0.1182 -0.1541 -0.0414
 3363TIP3    H110095   3.712   2.021   2.662  0.2602 -0.9051 -0.1861
 3363TIP3    H210096   3.667   1.918   2.763  0.6480  1.2893  2.3517
 3364TIP3   OH210097   2.958   5.966   3.618  0.0934 -0.4756 -1.1550
 3364TIP3    H110098   2.922   6.052   3.598  0.6714  0.6187  1.9605
 3364TIP3    H210099   2.881   5.913   3.639 -0.2120 -0.5871 -2.4368
 3365TIP3   OH210100   5.892   3.439   0.365 -0.1847  0.0057  0.2551
 3365TIP3    H110101   5.980   3.448   0.401 -0.5998 -0.8929  1.5884
 3365TIP3    H210102   5.845   3.385   0.429 -1.8165  0.7712 -0.2333
 3366TIP3   OH210103   4.602   4.631   3.701 -0.2098  0.1366  0.0031
 3366TIP3    H110104   4.568   4.702   3.755  1.3498 -0.1273  1.4262
 3366TIP3    H210105   4.669   4.672   3.646 -0.4895  0.0645 -0.3962
 3367TIP3   OH210106   2.292   3.766   3.361  0.3662  0.1500 -0.2391
 3367TIP3    H110107   2.323   3.837   3.306  0.7340  1.6415  1.7764
 3367TIP3    H210108   2.370   3.716   3.383  0.2896 -0.1548 -0.6397
 3368TIP3   OH210109   5.880   4.993   3.329 -0.8689  0.4918  0.0995
 3368TIP3    H110110   5.866   5.062   3.264 -1.9056  1.7567  1.5901
 3368TIP3    H210111   5.795   4.950   3.337 -0.5136 -0.2522  0.0046
 3369TIP3   OH210112   0.826   0.134   2.156 -0.0943 -0.0091 -0.5010
 3369TIP3    H110113   0.805   0.202   2.219  1.6167 -0.8247  1.0294
 3369TIP3    H210114   0.769   0.061   2.179  0.5470 -0.3159  0.1747
 3370TIP3   OH210115   5.639   1.982   3.873  0.1803 -0.1533  0.3467
 3370TIP3    H110116   5.626   2.073   3.847 -1.4823  0.5892  3.3721
 3370TIP3    H210117   5.697   1.987   3.949 -0.1083 -1.5966  0.6838
 3371TIP3   OH210118   5.027   2.360   2.816  0.4139  0.2110 -0.6261
 3371TIP3    H110119   5.013   2.372   2.910 -1.1234  1.0287 -0.9365
 3371TIP3    H210120   4.992   2.439   2.776  0.1235 -0.5714 -1.9734
 3372TIP3   OH210121   2.210   5.674   1.109  0.1640 -0.2331  0.0242
 3372TIP3    H110122   2.129   5.715   1.139  0.0677 -0.0216 -0.5078
 3372TIP3    H210123   2.205   5.677   1.013  1.1485  0.5037 -0.0254
 3373TIP3   OH210124   0.690   0.185   2.801  0.0105  0.3424 -0.1919
 3373TIP3    H110125   0.614   0.136   2.834  1.2195 -1.4888  0.0024
 3373TIP3    H210126   0.747   0.195   2.878  0.7841  0.0937 -0.7213
 3374TIP3   OH210127   3.767   3.111   4.175 -0.5015  0.0153 -0.9448
 3374TIP3    H110128   3.694   3.108   4.114 -1.6604  1.4061  0.2873
 3374TIP3    H210129   3.807   3.197   4.160 -0.0747 -0.1134 -0.5605
 3375TIP3   OH210130   0.236   1.535   0.919  0.1256 -0.5044  0.8693
 3375TIP3    H110131   0.324   1.566   0.940  0.0616  1.1243 -1.0566
 3375TIP3    H210132   0.180   1.576   0.985  0.3199  1.9555 -0.3959
 3376TIP3   OH210133   1.980   1.011   3.712  0.0625  0.1296 -0.0526
 3376TIP3    H110134   1.988   0.985   3.803  0.7186 -0.1572 -0.1837
 3376TIP3    H210135   2.068   1.042   3.688  0.4199 -1.5573 -1.1136
 3377TIP3   OH210136   2.599   3.951   3.294  0.4705 -0.0269 -0.3453
 3377TIP3    H110137   2.576   3.895   3.368 -4.2138 -0.0474 -1.5053
 3377TIP3    H210138   2.601   4.039   3.331 -0.7669 -0.1432  0.0418
 3378TIP3   OH210139   4.388   3.558   0.445 -0.5462  0.0728 -0.5345
 3378TIP3    H110140   4.314   3.505   0.416 -0.8114  0.1973 -0.1075
 3378TIP3    H210141   4.460   3.534   0.387 -0.9164 -0.0704 -0.9350
 3379TIP3   OH210142   0.328   1.075   3.922 -0.1644 -0.0246 -0.1220
 3379TIP3    H110143   0.315   1.152   3.978 -1.7084 -0.3703  0.0302
 3379TIP3    H210144   0.272   1.091   3.846  0.8622 -0.2002 -0.9351
 3380TIP3   OH210145   4.855   2.187   5.076  0.4268  0.2162  0.1393
 3380TIP3    H110146   4.927   2.240   5.109  0.1942 -0.5092  1.9332
 3380TIP3    H210147   4.830   2.228   4.993  3.1041  0.2688 -0.7256
 3381TIP3   OH210148   2.791   4.367   3.849 -0.0929  0.1467  0.1399
 3381TIP3    H110149   2.705   4.399   3.877 -0.9081 -1.1736 -0.7155
 3381TIP3    H210150   2.851   4.394   3.918 -1.3101  0.5807  1.0558
 3382TIP3   OH210151   2.338   2.297   4.956 -0.0510 -0.0335  0.3138
 3382TIP3    H110152   2.291   2.380   4.964  0.1191  0.2885 -1.6471
 3382TIP3    H210153   2.269   2.231   4.946 -0.1521  0.0552  0.4269
 3383TIP3   OH210154   0.378   2.475   4.674 -0.3122  0.6008  0.3078
 3383TIP3    H110155   0.338   2.552   4.717 -1.6568  0.9889 -1.5150
 3383TIP3    H210156   0.376   2.496   4.581 -0.1130 -1.3907 -0.1882
 3384TIP3   OH210157   3.522   2.070   4.316  0.2592 -0.0090  0.3996
 3384TIP3    H110158   3.456   2.121   4.362 -2.1781 -1.2371 -1.4761
 3384TIP3    H210159   3.498   2.077   4.224  3.4525  0.3352 -0.5447
 3385TIP3   OH210160   0.714   4.740   3.016 -1.0578  1.1655 -0.2971
 3385TIP3    H110161   0.741   4.693   2.938  0.0082 -0.9548  1.2639
 3385TIP3    H210162   0.779   4.809   3.027 -0.2576  0.4282 -0.3681
 3386TIP3   OH210163   6.217   0.261   1.417  0.0585  0.5765 -0.1791
 3386TIP3    H110164   6.197   0.178   1.460  0.2659  0.9173  0.5889
 3386TIP3    H210165   6.194   0.327   1.482 -0.8492  1.1617 -1.0656
 3387TIP3   OH210166   0.172   2.535   3.587 -0.2495  0.1453 -0.4652
 3387TIP3    H110167   0.263   2.559   3.609 -0.5874 -0.1089  1.4332
 3387TIP3    H210168   0.167   2.441   3.606 -0.7663  0.0295 -1.1349
 3388TIP3   OH210169   2.753   3.644   3.874  0.0895  0.1573  0.2159
 3388TIP3    H110170   2.808   3.663   3.798  0.9437 -0.2036  0.7279
 3388TIP3    H210171   2.741   3.549   3.870 -0.3235  0.2112  0.2232
 3389TIP3   OH210172   3.392   4.174   1.566 -0.3530 -0.6745 -0.3210
 3389TIP3    H110173   3.469   4.156   1.512 -0.2770 -0.9831 -0.1121
 3389TIP3    H210174   3.424   4.170   1.656 -0.6450 -0.9578 -0.2271
 3390TIP3   OH210175   5.016   1.148   3.777  0.3493  0.6007 -0.0236
 3390TIP3    H110176   5.100   1.110   3.753 -0.2046  0.0348 -1.1319
 3390TIP3    H210177   4.955   1.116   3.710 -1.1973 -0.8032  1.9115
 3391TIP3   OH210178   3.489   3.820   0.761 -0.1888  0.0794 -0.3973
 3391TIP3    H110179   3.489   3.727   0.737  0.7044 -0.0476  0.0534
 3391TIP3    H210180   3.569   3.831   0.812 -0.7023  0.9255  0.2364
 3392TIP3   OH210181   5.569   0.352   1.404 -0.2382  0.1395 -0.5810
 3392TIP3    H110182   5.550   0.446   1.404 -0.8802  0.0261  0.1428
 3392TIP3    H210183   5.532   0.320   1.487  1.8571 -0.3778  0.2412
 3393TIP3   OH210184   3.896   5.654   0.103 -0.0195 -0.8450 -0.4503
 3393TIP3    H110185   3.921   5.746   0.115  0.1373 -1.0814  1.3256
 3393TIP3    H210186   3.902   5.616   0.191 -2.4747 -1.9559 -0.6847
 3394TIP3   OH210187   5.788   2.845   2.958  0.2087 -0.1004  0.0543
 3394TIP3    H110188   5.794   2.773   3.021  0.9346 -0.8231 -0.8008
 3394TIP3    H210189   5.705   2.888   2.977  0.8401  0.2973  2.1107
 3395TIP3   OH210190   5.466   2.372   3.720 -0.0452  0.0361  0.2698
 3395TIP3    H110191   5.378   2.341   3.695  0.7085 -1.2169 -0.9566
 3395TIP3    H210192   5.484   2.444   3.660 -1.0990  1.8524  2.0044
 3396TIP3   OH210193   0.372   1.923   4.261 -0.4199  0.3368  0.2716
 3396TIP3    H110194   0.297   1.869   4.235 -0.1643  0.2265 -0.2625
 3396TIP3    H210195   0.367   2.000   4.204 -0.0629  0.2715  0.1491
 3397TIP3   OH210196   3.397   0.696   5.159  0.1963  0.2653  0.0673
 3397TIP3    H110197   3.421   0.704   5.067  0.4278 -0.1687  0.0864
 3397TIP3    H210198   3.476   0.718   5.207 -0.1004  1.1165  0.1800
 3398TIP3   OH210199   2.080   1.840   4.826 -0.1026 -0.2406 -0.2882
 3398TIP3    H110200   2.035   1.924   4.829 -2.7137 -1.5741  1.2011
 3398TIP3    H210201   2.061   1.806   4.738 -4.1486 -1.7015  0.9218
 3399TIP3   OH210202   1.621   0.898   3.718 -0.1177 -0.2058  0.4512
 3399TIP3    H110203   1.588   0.811   3.737  0.3330 -0.4908 -0.0584
 3399TIP3    H210204   1.636   0.938   3.804  2.0959 -1.5606  0.7836
 3400TIP3   OH210205   3.359   5.563   4.171 -0.1292 -0.0467 -0.4691
 3400TIP3    H110206   3.406   5.480   4.179 -0.5820 -0.1441  1.5112
 3400TIP3    H210207   3.301   5.566   4.247  1.5265  3.1663  0.8342
 3401TIP3   OH210208   4.096   1.624   2.221  0.7433  0.6193 -0.1397
 3401TIP3    H110209   4.185   1.607   2.253  0.8979 -0.4987 -1.0731
 3401TIP3    H210210   4.101   1.711   2.182  1.2054  0.9171  0.5664
 3402TIP3   OH210211   0.365   0.419   3.929  0.2149  0.5356 -0.1942
 3402TIP3    H110212   0.357   0.505   3.887 -1.4874  0.1469 -0.7380
 3402TIP3    H210213   0.313   0.360   3.875  0.7964 -0.7019  0.5541
 3403TIP3   OH210214   4.089   0.348   3.445 -0.1219  0.0541  0.0409
 3403TIP3    H110215   4.065   0.256   3.449 -1.0169  0.3266  1.2139
 3403TIP3    H210216   4.101   0.365   3.351  2.3365 -1.7966 -0.0979
 3404TIP3   OH210217   1.885   4.625   1.107 -0.2576  0.3681 -0.2557
 3404TIP3    H110218   1.957   4.605   1.167  1.3116  1.1512 -1.7610
 3404TIP3    H210219   1.817   4.665   1.161 -0.5363 -2.3875  1.6066
 3405TIP3   OH210220   4.391   5.817   2.666  0.6896 -0.9048  0.0550
 3405TIP3    H110221   4.431   5.735   2.695 -0.2434 -2.1104 -1.7921
 3405TIP3    H210222   4.402   5.815   2.570 -0.7712  0.3534 -0.1642
 3406TIP3   OH210223   1.703   1.941   1.448  0.2184 -0.3246  0.6351
 3406TIP3    H110224   1.652   1.871   1.489  0.3968 -0.9824 -0.2291
 3406TIP3    H210225   1.783   1.945   1.499 -0.4664  0.3757  1.6955
 3407TIP3   OH210226   5.655   5.107   4.626 -0.0286 -0.3981 -0.0615
 3407TIP3    H110227   5.636   5.028   4.576  0.6557 -1.4104  1.1834
 3407TIP3    H210228   5.743   5.133   4.598  0.5165 -1.1898  0.8168
 3408TIP3   OH210229   4.971   3.997   0.657 -0.3912  0.3661  0.1837
 3408TIP3    H110230   5.036   3.930   0.679 -2.3565 -1.2864  1.2594
 3408TIP3    H210231   4.984   4.013   0.563  0.2271 -1.4324 -0.0783
 3409TIP3   OH210232   2.094   3.464   2.961  0.2003  0.0405 -0.2153
 3409TIP3    H110233   2.051   3.388   3.000 -0.8642  0.3952 -0.6472
 3409TIP3    H210234   2.142   3.504   3.033  1.1547 -1.2870 -0.0852
 3410TIP3   OH210235   6.118   0.379   1.988  0.1296 -0.1149 -0.3387
 3410TIP3    H110236   6.048   0.326   2.025 -0.3076  1.4559  1.2785
 3410TIP3    H210237   6.194   0.320   1.983 -1.1273 -1.6890 -1.5902
 3411TIP3   OH210238   3.819   5.337   4.318 -0.1762 -0.1808  0.3052
 3411TIP3    H110239   3.816   5.355   4.224 -1.0418 -1.5353  0.0457
 3411TIP3    H210240   3.883   5.399   4.352  1.4842 -0.8146 -1.4673
 3412TIP3   OH210241   5.189   1.034   3.278  0.1605  0.0339 -0.0337
 3412TIP3    H110242   5.241   1.067   3.205 -0.7027  1.1859 -0.1479
 3412TIP3    H210243   5.132   1.106   3.302 -0.7991 -0.9166  0.6555
 3413TIP3   OH210244   4.165   0.871   3.136  0.0072  0.6556 -0.6151
 3413TIP3    H110245   4.219   0.938   3.176 -1.4293  2.0620 -0.9129
 3413TIP3    H210246   4.170   0.888   3.042  1.7839 -1.3936 -0.9640
 3414TIP3   OH210247   0.575   4.700   2.540 -0.2046 -0.1439 -0.8194
 3414TIP3    H110248   0.487   4.669   2.522 -0.2770 -1.2968  1.3248
 3414TIP3    H210249   0.631   4.624   2.525 -0.0753 -0.6360  1.8067
 3415TIP3   OH210250   3.126   1.721   2.909 -0.3599  0.2098 -0.3629
 3415TIP3    H110251   3.168   1.773   2.977 -3.0965  0.2781  1.3927
 3415TIP3    H210252   3.146   1.631   2.932  2.6282  0.2543 -2.2385
 3416TIP3   OH210253   0.997   2.690   0.516  0.3963 -0.5900  0.4255
 3416TIP3    H110254   0.917   2.735   0.490  0.0028 -1.8866 -0.7078
 3416TIP3    H210255   1.042   2.753   0.573 -0.8671  0.5991  0.1712
 3417TIP3   OH210256   3.775   2.691   3.506 -0.2948  0.0535 -0.1057
 3417TIP3    H110257   3.703   2.724   3.560 -1.1215  0.5604 -1.4766
 3417TIP3    H210258   3.848   2.681   3.567 -0.4209  3.0078  0.6607
 3418TIP3   OH210259   3.823   2.160   1.815  0.3021  0.5299 -0.2134
 3418TIP3    H110260   3.815   2.118   1.901  1.4172 -1.4417 -0.9900
 3418TIP3    H210261   3.822   2.253   1.833 -0.4192  0.1755  1.8362
 3419TIP3   OH210262   4.789   0.146   5.051 -0.3698  0.3069 -0.1677
 3419TIP3    H110263   4.857   0.213   5.043 -0.0312  0.2444  1.6915
 3419TIP3    H210264   4.752   0.138   4.963  1.9738  0.3758 -1.2204
 3420TIP3   OH210265   1.019   0.166   4.983 -0.0295  0.2004  0.1018
 3420TIP3    H110266   1.051   0.238   5.038 -0.1388  1.6887 -1.6529
 3420TIP3    H210267   1.075   0.092   5.005  0.4145  0.9407  1.6313
 3421TIP3   OH210268   3.223   0.498   2.393 -0.2141  0.0273 -0.1237
 3421TIP3    H110269   3.196   0.589   2.402  1.2138  0.3712  0.9904
 3421TIP3    H210270   3.221   0.481   2.298  0.7096  1.6057 -0.4549
 3422TIP3   OH210271   6.281   4.921   2.569  0.4717 -0.1058 -0.5971
 3422TIP3    H110272   6.344   4.880   2.629  0.2571  0.2565 -0.1141
 3422TIP3    H210273   6.205   4.862   2.571  1.1480 -1.0742 -1.9476
 3423TIP3   OH210274   3.791   3.801   1.275  0.0942  0.1917 -0.0398
 3423TIP3    H110275   3.863   3.781   1.335  0.1657  0.0637 -0.1679
 3423TIP3    H210276   3.827   3.785   1.188 -0.3460 -0.6882 -0.0660
 3424TIP3   OH210277   0.338   4.606   0.242 -1.0316 -0.4894 -0.2614
 3424TIP3    H110278   0.390   4.634   0.318  0.5754  0.8215 -1.7517
 3424TIP3    H210279   0.251   4.643   0.258 -0.5010  0.4410  0.5780
 3425TIP3   OH210280   5.446   5.853   0.036 -0.2576  0.4330  0.1723
 3425TIP3    H110281   5.418   5.872   0.126  0.0083  0.0586  0.3400
 3425TIP3    H210282   5.506   5.779   0.046 -0.5265  0.1415 -0.3577
 3426TIP3   OH210283   2.423   2.224   4.489  0.4436  0.1514  0.0735
 3426TIP3    H110284   2.390   2.286   4.425 -1.1477 -0.1528  0.5551
 3426TIP3    H210285   2.405   2.265   4.574 -2.0042 -1.5213  0.4588
 3427TIP3   OH210286   2.137   1.511   1.488 -0.0764 -0.0200  0.2424
 3427TIP3    H110287   2.138   1.586   1.429  3.5150 -0.7142 -0.8281
 3427TIP3    H210288   2.203   1.531   1.554  1.0478 -2.1548 -0.1244
 3428TIP3   OH210289   5.974   5.715   1.952  0.2501 -0.1249 -0.2588
 3428TIP3    H110290   5.921   5.636   1.948 -0.9816  0.5956  0.9120
 3428TIP3    H210291   5.932   5.775   1.890  1.9274 -0.7642 -2.1018
 3429TIP3   OH210292   2.840   4.532   0.683  0.6435 -0.1817 -0.0218
 3429TIP3    H110293   2.817   4.565   0.770 -0.4702 -0.1020 -0.3353
 3429TIP3    H210294   2.763   4.549   0.629  1.8487  1.1427 -1.4344
 3430TIP3   OH210295   0.132   2.246   5.175 -0.1627 -0.1037  0.0987
 3430TIP3    H110296   0.117   2.185   5.247 -0.4080  1.0994  1.0922
 3430TIP3    H210297   0.222   2.229   5.147 -0.3589 -1.1856  0.0746
 3431TIP3   OH210298   3.590   4.477   3.525 -0.3398  0.3178 -0.2706
 3431TIP3    H110299   3.597   4.478   3.620 -0.8445  0.6528 -0.2337
 3431TIP3    H210300   3.530   4.548   3.504 -0.3547  0.1493 -0.8280
 3432TIP3   OH210301   4.499   4.450   4.156 -0.1805  0.5610 -0.1896
 3432TIP3    H110302   4.435   4.511   4.117  0.3894  1.0200 -0.4130
 3432TIP3    H210303   4.558   4.506   4.206 -0.6878  0.0103  1.0616
 3433TIP3   OH210304   4.945   1.832   1.277  0.4203 -0.3123  0.5621
 3433TIP3    H110305   4.915   1.741   1.276 -0.8346  0.0595  1.4870
 3433TIP3    H210306   4.921   1.867   1.191 -0.1899 -0.5330  0.6406
 3434TIP3   OH210307   1.322   2.822   4.962 -0.2580 -0.1862 -0.4086
 3434TIP3    H110308   1.310   2.893   4.899  3.0176  0.1880 -0.7716
 3434TIP3    H210309   1.354   2.748   4.910  0.8231 -0.4228  0.5464
 3435TIP3   OH210310   2.175   2.976   4.659  0.0939  0.2164 -0.2576
 3435TIP3    H110311   2.268   2.989   4.640  0.2486 -1.4653 -0.7970
 3435TIP3    H210312   2.160   2.883   4.642 -1.7986  0.5592 -0.6164
 3436TIP3   OH210313   1.517   2.964   2.120 -0.2034  0.0153  0.4686
 3436TIP3    H110314   1.449   3.008   2.068  1.4542 -0.1581 -2.0177
 3436TIP3    H210315   1.482   2.876   2.136 -1.3842  0.5625  1.0220
 3437TIP3   OH210316   5.621   3.035   4.599 -0.1541  0.3176  0.0852
 3437TIP3    H110317   5.692   3.044   4.535  0.1302 -0.4602  0.2791
 3437TIP3    H210318   5.640   2.953   4.644 -2.1678 -0.8717 -1.0776
 3438TIP3   OH210319   6.198   0.150   3.586 -0.4787 -0.3841  0.1640
 3438TIP3    H110320   6.112   0.121   3.617 -2.3857  1.1110 -3.2386
 3438TIP3    H210321   6.234   0.074   3.539  0.0108 -0.9077  1.3286
 3439TIP3   OH210322   0.372   3.527   0.642 -0.3546  0.1418 -0.2672
 3439TIP3    H110323   0.314   3.546   0.568 -1.9920  1.1589  1.1951
 3439TIP3    H210324   0.455   3.567   0.618  0.1041 -2.1139 -2.8081
 3440TIP3   OH210325   4.177   4.897   3.653 -0.0935 -0.2013  0.3041
 3440TIP3    H110326   4.193   4.937   3.568 -1.7277  0.5103  0.2963
 3440TIP3    H210327   4.254   4.920   3.706  2.5708 -3.3026 -1.7861
 3441TIP3   OH210328   2.668   2.019   3.034 -0.4910 -0.1976  0.3203
 3441TIP3    H110329   2.737   1.953   3.046 -0.4050 -0.3846 -1.0919
 3441TIP3    H210330   2.594   1.969   2.999 -0.0896  0.5806 -1.7626
 3442TIP3   OH210331   5.493   3.113   2.852 -0.3992  0.1699  0.0627
 3442TIP3    H110332   5.518   3.045   2.914 -1.5732  0.9933  1.4889
 3442TIP3    H210333   5.541   3.191   2.879 -1.0747  0.5900  0.0785
 3443TIP3   OH210334   2.897   0.824   0.001 -0.0696 -0.2604 -0.0826
 3443TIP3    H110335   2.853   0.747  -0.035 -0.0056 -0.9419  1.2199
 3443TIP3    H210336   2.972   0.788   0.049  0.7915  0.7314 -0.6470
 3444TIP3   OH210337   5.579   4.098   1.967  0.0941 -0.6752  0.4895
 3444TIP3    H110338   5.574   4.048   2.049 -1.6708 -1.0463  0.2058
 3444TIP3    H210339   5.498   4.075   1.921  0.5857  0.3055 -0.9108
 3445TIP3   OH210340   4.298   0.175   4.688 -0.4327  0.1843  0.4985
 3445TIP3    H110341   4.356   0.098   4.687  1.4981  1.5513 -0.0910
 3445TIP3    H210342   4.313   0.217   4.603 -1.9507  0.8732  0.5427
 3446TIP3   OH210343   1.364   5.866   4.833  0.2948  0.0944 -0.1436
 3446TIP3    H110344   1.272   5.893   4.833 -0.1141 -1.2061  0.0019
 3446TIP3    H210345   1.385   5.851   4.741  0.3543  0.3593 -0.1738
 3447TIP3   OH210346   1.574   3.059   0.960  0.1066 -0.1761  0.1683
 3447TIP3    H110347   1.650   3.042   0.904 -0.7627 -0.6164 -0.9227
 3447TIP3    H210348   1.591   3.009   1.039 -0.2995 -2.5902 -1.1800
 3448TIP3   OH210349   0.689   4.244   4.376 -0.2698  0.1957 -0.1264
 3448TIP3    H110350   0.627   4.197   4.432  0.8567 -1.0809  0.0740
 3448TIP3    H210351   0.679   4.204   4.290  0.0389  0.2226 -0.1753
 3449TIP3   OH210352   5.323   1.072   4.978 -0.3446  0.2254 -0.2834
 3449TIP3    H110353   5.298   1.019   4.903  1.8272  0.6803 -1.3803
 3449TIP3    H210354   5.360   1.010   5.041 -0.5478  0.0681 -0.3199
 3450TIP3   OH210355   6.320   4.631   2.457 -0.5180 -0.1672 -0.0020
 3450TIP3    H110356   6.232   4.599   2.440 -0.6787 -0.6199  1.5612
 3450TIP3    H210357   6.318   4.665   2.546  0.5258  1.1881 -0.4394
 3451TIP3   OH210358   4.910   0.237   2.669  0.2469 -0.1335  0.2252
 3451TIP3    H110359   4.925   0.284   2.751 -0.7278  0.6146 -0.0092
 3451TIP3    H210360   4.954   0.153   2.681  2.2436  0.8919  0.5779
 3452TIP3   OH210361   1.792   0.577   1.005  0.1779 -0.5087  0.3925
 3452TIP3    H110362   1.850   0.524   0.950  0.1851 -1.8286  1.5949
 3452TIP3    H210363   1.833   0.664   1.007 -0.9857  0.2916 -3.4139
 3453TIP3   OH210364   1.495   5.628   3.826  0.1171  0.2106  0.0029
 3453TIP3    H110365   1.476   5.590   3.740  0.4548 -0.7935  0.3668
 3453TIP3    H210366   1.582   5.666   3.817  0.2252 -0.0503 -0.0453
 3454TIP3   OH210367   4.992   5.487   4.811 -0.5130 -0.9666  0.0168
 3454TIP3    H110368   5.065   5.468   4.753 -0.1713 -0.0124  0.1246
 3454TIP3    H210369   5.030   5.487   4.898 -0.6206 -0.3452  0.0628
 3455TIP3   OH210370   5.213   0.810   0.138  0.5268  0.2023 -1.0954
 3455TIP3    H110371   5.159   0.825   0.216  0.6748 -0.6466 -0.8200
 3455TIP3    H210372   5.171   0.862   0.070 -0.3398 -0.0357 -0.7584
 3456TIP3   OH210373   1.110   3.184   4.973 -0.2922  0.1361  0.1057
 3456TIP3    H110374   1.014   3.178   4.977 -0.2224 -0.1817  1.8267
 3456TIP3    H210375   1.126   3.272   4.938 -1.2242  0.5991  0.7803
 3457TIP3   OH210376   1.531   0.243   4.134  0.2086  0.2398 -0.1948
 3457TIP3    H110377   1.568   0.181   4.197  0.3612  0.0605 -0.4606
 3457TIP3    H210378   1.496   0.314   4.188 -0.9068 -0.5727  0.1798
 3458TIP3   OH210379   2.401   2.160   1.615  0.1794 -0.0997  0.5027
 3458TIP3    H110380   2.436   2.131   1.531  0.2187 -0.6998  0.7226
 3458TIP3    H210381   2.470   2.215   1.652  1.1035 -1.6051  1.1230
 3459TIP3   OH210382   5.800   3.387   0.679 -0.1633 -0.8881  0.4871
 3459TIP3    H110383   5.878   3.374   0.733 -0.4700  0.3308  1.2609
 3459TIP3    H210384   5.732   3.415   0.740 -0.9483 -0.9870 -0.3104
 3460TIP3   OH210385   5.854   1.229   2.436 -0.0355 -0.4242 -0.4489
 3460TIP3    H110386   5.811   1.244   2.521  0.3544 -1.2444 -0.0975
 3460TIP3    H210387   5.803   1.282   2.374  0.0528  0.6835  0.3925
 3461TIP3   OH210388   2.317   3.069   0.032  0.3317  0.1431  0.4186
 3461TIP3    H110389   2.227   3.081   0.002  0.5411  1.7587  0.3525
 3461TIP3    H210390   2.363   3.148   0.004  1.8723 -0.8078  0.1411
 3462TIP3   OH210391   4.274   4.458   4.566  0.1638 -0.0929  0.1935
 3462TIP3    H110392   4.215   4.396   4.610 -1.4266  1.6258  0.5957
 3462TIP3    H210393   4.359   4.442   4.605 -0.5170 -0.9718  1.3906
 3463TIP3   OH210394   5.320   0.118   2.329 -0.2298  0.8047  0.5033
 3463TIP3    H110395   5.410   0.091   2.345 -0.7162 -0.0204  1.9922
 3463TIP3    H210396   5.311   0.114   2.233  0.4243 -2.2230  0.4476
 3464TIP3   OH210397   1.158   5.951   2.388  0.5033 -0.4959 -0.3716
 3464TIP3    H110398   1.145   6.003   2.467  0.1800 -0.6543 -0.3188
 3464TIP3    H210399   1.209   5.875   2.418 -0.1715 -0.8824 -0.1844
 3465TIP3   OH210400   1.544   4.121   0.771 -0.1334 -0.0699  0.5898
 3465TIP3    H110401   1.451   4.102   0.757 -0.4511  2.0618 -0.7883
 3465TIP3    H210402   1.582   4.038   0.800 -2.5750 -0.8310  1.8785
 3466TIP3   OH210403   0.129   2.280   2.910 -0.3103  0.4633  0.0724
 3466TIP3    H110404   0.101   2.293   2.819 -0.9586  0.7574  0.3059
 3466TIP3    H210405   0.062   2.225   2.949  0.4565 -0.4481  0.1318
 3467TIP3   OH210406   4.652   4.198   2.768 -0.2465 -0.2972  0.3948
 3467TIP3    H110407   4.698   4.217   2.687 -0.4612  0.9849  0.5516
 3467TIP3    H210408   4.686   4.261   2.831 -1.0990 -0.3393  0.9185
 3468TIP3   OH210409   1.663   4.723   0.248  0.0366 -0.1491  0.3125
 3468TIP3    H110410   1.578   4.741   0.208  1.2414  0.5377 -2.1118
 3468TIP3    H210411   1.642   4.668   0.323 -2.5795  0.3480  0.0589
 3469TIP3   OH210412   1.238   2.733   4.179  0.1557  0.1530  0.3840
 3469TIP3    H110413   1.282   2.648   4.186 -2.6964 -1.3435  1.3943
 3469TIP3    H210414   1.268   2.768   4.095  1.1556 -1.9989 -0.2169
 3470TIP3   OH210415   3.364   5.122   3.143  0.1056 -0.3059 -0.2581
 3470TIP3    H110416   3.429   5.119   3.212 -0.8809 -0.4326  0.6897
 3470TIP3    H210417   3.324   5.209   3.150  1.0311  0.2659 -1.6680
 3471TIP3   OH210418   4.461   1.125   2.378  0.1179 -0.6112 -0.4267
 3471TIP3    H110419   4.433   1.173   2.455 -0.4074  0.6933 -1.3898
 3471TIP3    H210420   4.424   1.174   2.304  1.6563 -1.0727 -1.5697
 3472TIP3   OH210421   2.701   4.652   4.965  0.1985  0.0161 -0.0248
 3472TIP3    H110422   2.616   4.615   4.942  0.4587  0.6790 -2.3120
 3472TIP3    H210423   2.713   4.629   5.058 -1.1698 -2.5637 -0.3900
 3473TIP3   OH210424   5.083   1.179   4.192  0.1893  0.1932  0.2989
 3473TIP3    H110425   5.152   1.235   4.157 -2.2205  2.4321 -1.2833
 3473TIP3    H210426   5.033   1.236   4.250 -1.4259 -0.7318 -0.1079
 3474TIP3   OH210427   2.775   5.891   1.673 -0.2728  0.0417 -0.2947
 3474TIP3    H110428   2.794   5.923   1.585  0.1214 -0.0103 -0.2298
 3474TIP3    H210429   2.700   5.943   1.702 -1.2891 -0.8805 -1.1836
 3475TIP3   OH210430   4.232   0.588   4.238 -0.2314  0.6382 -0.5805
 3475TIP3    H110431   4.164   0.642   4.198 -0.1523  1.3299  0.1900
 3475TIP3    H210432   4.277   0.647   4.299  0.7436  0.0623 -0.7194
 3476TIP3   OH210433   4.827   0.313   3.846 -0.1516  0.6268  0.0596
 3476TIP3    H110434   4.765   0.383   3.868 -0.8531  0.2504 -0.6410
 3476TIP3    H210435   4.771   0.242   3.814  0.5498 -0.2701  0.7995
 3477TIP3   OH210436   4.949   5.141   2.860  0.4653  0.7265  0.2916
 3477TIP3    H110437   4.954   5.049   2.834  2.5688  0.2014  2.1941
 3477TIP3    H210438   4.964   5.189   2.778 -2.0006 -0.5047 -0.9926
 3478TIP3   OH210439   2.328   1.858   0.023  0.5336  0.5305 -0.4870
 3478TIP3    H110440   2.417   1.871   0.058 -0.0828  0.4599  1.1818
 3478TIP3    H210441   2.332   1.772  -0.021  1.1814  0.3220 -0.0388
 3479TIP3   OH210442   1.475   4.809   0.078  0.1715 -0.4083 -0.2584
 3479TIP3    H110443   1.383   4.805   0.106 -0.2471  0.7654 -1.3779
 3479TIP3    H210444   1.479   4.884   0.019  1.8138 -0.5914 -0.4294
 3480TIP3   OH210445   3.802   3.639   0.544  0.0799 -0.2989  0.1023
 3480TIP3    H110446   3.856   3.596   0.479  0.0996 -1.5251  0.8911
 3480TIP3    H210447   3.864   3.673   0.609  0.0422  0.6029 -0.3248
 3481TIP3   OH210448   4.284   5.242   1.716 -0.1061  0.2812 -0.0834
 3481TIP3    H110449   4.258   5.156   1.749 -0.6668  0.1894 -0.7401
 3481TIP3    H210450   4.207   5.273   1.668  0.0647  1.1776  0.2012
 3482TIP3   OH210451   5.760   5.173   1.161  0.8129  0.3505  0.0666
 3482TIP3    H110452   5.842   5.171   1.211  0.7908  0.7781  0.1266
 3482TIP3    H210453   5.705   5.105   1.201  0.7147  0.8294  0.7617
 3483TIP3   OH210454   1.116   3.571   3.011 -0.2484  0.7102  0.2933
 3483TIP3    H110455   1.103   3.506   3.081  0.3202  0.6229  0.3246
 3483TIP3    H210456   1.140   3.651   3.058 -0.3470  0.7794  0.2241
 3484TIP3   OH210457   0.234   0.715   4.627  0.0947 -0.2496  0.2628
 3484TIP3    H110458   0.159   0.772   4.612  0.4390 -0.1183 -1.0865
 3484TIP3    H210459   0.225   0.686   4.717 -0.4797  1.3658  0.7566
 3485TIP3   OH210460   0.255   3.783   3.440  0.0438  0.2366  0.8863
 3485TIP3    H110461   0.161   3.761   3.436  0.0205  0.0949  1.9093
 3485TIP3    H210462   0.257   3.873   3.471  0.1806  1.3483 -2.0860
 3486TIP3   OH210463   5.539   1.759   2.769 -0.3755 -0.4688 -0.7400
 3486TIP3    H110464   5.470   1.792   2.826  0.7601 -1.2661  1.1656
 3486TIP3    H210465   5.539   1.820   2.695 -1.3377  1.1228  0.4952
 3487TIP3   OH210466   0.084   5.879   3.410 -0.1415 -0.3853 -0.2515
 3487TIP3    H110467   0.135   5.841   3.339  1.8996  0.2757  0.7895
 3487TIP3    H210468   0.072   5.971   3.384 -0.4424 -0.4374 -0.2991
 3488TIP3   OH210469   1.115   0.329   0.268  0.5215  0.1766  0.0709
 3488TIP3    H110470   1.173   0.376   0.209  0.2605  0.3137 -0.0822
 3488TIP3    H210471   1.166   0.317   0.348  1.6765 -1.9535 -0.9097
 3489TIP3   OH210472   0.091   4.394   2.429 -0.2216 -0.1691  0.4437
 3489TIP3    H110473   0.037   4.473   2.421 -0.8874 -0.5349  1.2424
 3489TIP3    H210474   0.060   4.336   2.359  1.0055  0.6697 -0.8593
 3490TIP3   OH210475   4.559   2.978   1.420 -0.0507  0.1214  0.4067
 3490TIP3    H110476   4.609   3.031   1.358  2.3313 -0.6996  1.5165
 3490TIP3    H210477   4.500   2.926   1.365  0.6608  0.7524 -1.0012
 3491TIP3   OH210478   3.524   2.336   1.899 -0.0823 -1.1110 -0.0256
 3491TIP3    H110479   3.500   2.408   1.841 -1.2939 -0.1222  1.6143
 3491TIP3    H210480   3.479   2.260   1.863  0.7236 -0.9453 -1.4388
 3492TIP3   OH210481   2.268   3.323   2.136 -0.7544 -0.2510 -0.0685
 3492TIP3    H110482   2.278   3.379   2.213 -0.3202 -0.6059  0.1360
 3492TIP3    H210483   2.179   3.288   2.144 -0.5201 -0.7107  0.5579
 3493TIP3   OH210484   1.735   1.101   4.955 -0.1191 -0.7202 -0.1669
 3493TIP3    H110485   1.815   1.065   4.916 -0.1280  1.0203 -1.8891
 3493TIP3    H210486   1.710   1.173   4.898 -2.1024 -0.2571  1.1869
 3494TIP3   OH210487   0.215   3.514   4.077 -0.4020  0.6404 -0.4167
 3494TIP3    H110488   0.217   3.472   3.991  0.2321  1.4578 -0.8128
 3494TIP3    H210489   0.307   3.528   4.099 -0.5715  3.5233 -1.1630
 3495TIP3   OH210490   0.481   0.415   5.156  0.3199  0.4548  0.3012
 3495TIP3    H110491   0.498   0.388   5.246 -0.4981 -1.9159 -0.1602
 3495TIP3    H210492   0.547   0.368   5.104 -0.3849  0.2812 -0.4650
 3496TIP3   OH210493   1.230   1.652   1.297  0.0956 -0.0250 -0.0699
 3496TIP3    H110494   1.304   1.615   1.250 -1.0249 -0.9565 -1.1872
 3496TIP3    H210495   1.248   1.746   1.299  0.4418 -0.0118 -1.9535
 3497TIP3   OH210496   2.782   1.644   1.472  0.8031 -0.2993 -0.2844
 3497TIP3    H110497   2.742   1.571   1.519  0.8568  0.5746  1.1545
 3497TIP3    H210498   2.802   1.709   1.539  1.1334  0.8884 -1.4817
 3498TIP3   OH210499   2.665   1.399   2.612 -0.1848 -0.1008 -1.1292
 3498TIP3    H110500   2.687   1.436   2.526  0.9171  1.7667 -0.1065
 3498TIP3    H210501   2.575   1.429   2.628 -0.6509 -1.0291 -1.8859
 3499TIP3   OH210502   5.081   0.658   1.050 -0.5160 -0.1429  0.0084
 3499TIP3    H110503   5.127   0.658   0.966 -1.2386  0.3409 -0.4030
 3499TIP3    H210504   4.989   0.654   1.027 -0.7228 -0.0324  0.7815
 3500TIP3   OH210505   1.680   3.386   3.608 -0.2428  0.8672 -0.0405
 3500TIP3    H110506   1.626   3.439   3.549 -0.3584  1.2077  0.3594
 3500TIP3    H210507   1.727   3.451   3.660 -0.1777  0.5700  0.2703
 3501TIP3   OH210508   3.234   2.483   4.692 -0.2540  0.6571 -0.0145
 3501TIP3    H110509   3.263   2.497   4.601 -1.2192 -0.5203 -0.5271
 3501TIP3    H210510   3.165   2.418   4.685  1.9655 -2.1080  1.8885
 3502TIP3   OH210511   1.893   2.961   3.955 -0.1148  0.1290  0.4596
 3502TIP3    H110512   1.876   3.019   4.029 -1.5104  0.8504 -0.3792
 3502TIP3    H210513   1.806   2.928   3.930  0.4188 -0.7106 -0.3655
 3503TIP3   OH210514   1.785   3.366   3.997  0.2258 -0.6375  0.2313
 3503TIP3    H110515   1.705   3.335   4.040 -0.8547 -0.2056 -1.3688
 3503TIP3    H210516   1.778   3.461   3.998  1.4595 -0.5412  1.3711
 3504TIP3   OH210517   3.889   1.093   4.022 -0.2035 -0.3873  0.2212
 3504TIP3    H110518   3.842   1.014   3.996  2.0278 -1.0045 -2.4859
 3504TIP3    H210519   3.824   1.162   4.018 -1.5762 -1.6490 -0.2531
 3505TIP3   OH210520   0.037   1.364   2.822 -0.0113 -0.6069  0.3434
 3505TIP3    H110521   0.090   1.393   2.747  0.8279 -1.0525  0.7417
 3505TIP3    H210522   0.098   1.311   2.874 -1.0744 -1.8083  0.4102
 3506TIP3   OH210523   5.052   2.306   4.054 -0.4681 -0.6740 -0.6107
 3506TIP3    H110524   5.024   2.383   4.005 -1.9763 -1.1913 -0.6163
 3506TIP3    H210525   5.041   2.330   4.146  2.1037  0.1989 -0.4356
 3507TIP3   OH210526   3.735   3.169   5.126 -0.2820  0.4918 -0.0893
 3507TIP3    H110527   3.793   3.118   5.184 -3.1733  0.1615  2.8404
 3507TIP3    H210528   3.728   3.116   5.047  1.7911 -0.4212  0.2652
 3508TIP3   OH210529   0.452   4.797   0.743  0.2066  0.4443  0.5043
 3508TIP3    H110530   0.412   4.733   0.803 -0.9520  0.1587 -0.5166
 3508TIP3    H210531   0.384   4.812   0.677  0.7089  2.2616  0.3605
 3509TIP3   OH210532   4.320   1.188   3.792 -0.0239 -0.1806  0.3219
 3509TIP3    H110533   4.393   1.161   3.848  0.4837  1.0213  0.2799
 3509TIP3    H210534   4.247   1.201   3.852  0.2672  0.2357  0.5914
 3510TIP3   OH210535   3.654   3.413   4.627 -0.1104  0.0321 -0.0714
 3510TIP3    H110536   3.580   3.473   4.616  0.7836  1.3649  0.9395
 3510TIP3    H210537   3.711   3.456   4.690  0.6195 -1.8699  0.6265
 3511TIP3   OH210538   1.001   5.533   3.452 -0.1679  0.7612 -0.3177
 3511TIP3    H110539   0.943   5.592   3.406  0.1169  0.6003 -0.8873
 3511TIP3    H210540   1.010   5.457   3.394 -0.4522  0.1947  0.3533
 3512TIP3   OH210541   5.908   1.312   2.142  0.5657 -0.7090 -0.3035
 3512TIP3    H110542   5.885   1.402   2.161  1.1043 -0.4383 -0.8861
 3512TIP3    H210543   5.966   1.317   2.065 -0.2270 -1.6217 -0.9945
 3513TIP3   OH210544   4.336   5.851   0.086  0.0028  0.3244 -0.0169
 3513TIP3    H110545   4.298   5.907   0.018 -0.4789  1.1671  0.9152
 3513TIP3    H210546   4.294   5.880   0.167  1.0106 -0.2342  0.7290
 3514TIP3   OH210547   1.606   4.606   1.516  0.3913  0.1999  0.5002
 3514TIP3    H110548   1.535   4.656   1.558 -1.5141 -1.7425 -0.2124
 3514TIP3    H210549   1.563   4.526   1.485  2.5675 -0.2936 -1.4920
 3515TIP3   OH210550   4.732   5.736   1.174  0.0067  0.2638  0.0949
 3515TIP3    H110551   4.677   5.687   1.236  0.9950  0.2443  0.9928
 3515TIP3    H210552   4.712   5.828   1.192  1.0025  0.2956  1.1622
 3516TIP3   OH210553   4.985   3.669   2.829 -0.0942 -0.4660  0.0944
 3516TIP3    H110554   4.988   3.755   2.786 -1.3910  0.4001  1.6268
 3516TIP3    H210555   5.077   3.646   2.840  0.3463  1.4073  0.8613
 3517TIP3   OH210556   6.250   0.910   2.302 -0.2910  0.0895 -0.9055
 3517TIP3    H110557   6.214   0.944   2.384 -2.0977 -0.5722 -1.3898
 3517TIP3    H210558   6.196   0.950   2.233  0.3709 -0.3751 -1.7133
 3518TIP3   OH210559   4.572   5.867   0.928 -0.0128 -0.0078 -0.7503
 3518TIP3    H110560   4.565   5.927   1.002 -1.4651 -0.2673 -0.6537
 3518TIP3    H210561   4.482   5.841   0.909  0.4333 -0.7823 -1.9249
 3519TIP3   OH210562   5.503   4.567   5.088  0.3164  0.0123 -0.3423
 3519TIP3    H110563   5.584   4.592   5.134 -0.2932 -0.9984  1.3708
 3519TIP3    H210564   5.436   4.625   5.125 -0.3137 -1.2840  0.6060
 3520TIP3   OH210565   1.852   2.718   1.772  0.3432  0.1458  0.0995
 3520TIP3    H110566   1.941   2.694   1.801  1.0478  1.8607 -0.4991
 3520TIP3    H210567   1.816   2.769   1.845  0.0760 -0.0360  0.0956
 3521TIP3   OH210568   5.885   1.140   3.284  0.8802  0.4581 -0.2669
 3521TIP3    H110569   5.944   1.206   3.321  1.5928  0.8845 -2.0501
 3521TIP3    H210570   5.808   1.190   3.257 -0.3492 -0.0936  2.0260
 3522TIP3   OH210571   5.276   3.700   1.196  0.4707  0.3235 -0.2158
 3522TIP3    H110572   5.342   3.633   1.181 -0.6717 -0.4965 -1.8578
 3522TIP3    H210573   5.212   3.687   1.127 -1.0389  1.5798  0.8642
 3523TIP3   OH210574   4.325   2.596   1.533 -0.1582 -0.1695 -0.2886
 3523TIP3    H110575   4.281   2.681   1.526 -0.1564 -0.1789 -0.4181
 3523TIP3    H210576   4.325   2.562   1.443 -0.1949 -0.3243 -0.2306
 3524TIP3   OH210577   1.380   2.174   0.358 -0.7179 -0.2537 -0.3661
 3524TIP3    H110578   1.377   2.207   0.448 -1.3238 -0.0274 -0.4662
 3524TIP3    H210579   1.456   2.217   0.319 -0.9286  0.2802 -0.2019
 3525TIP3   OH210580   2.028   0.478   4.703  0.5152  0.0440 -0.0122
 3525TIP3    H110581   1.979   0.449   4.780  0.4132 -0.3590 -0.2288
 3525TIP3    H210582   2.090   0.543   4.738  0.3369  0.0090  0.3771
 3526TIP3   OH210583   2.527   1.729   4.726  0.3359  0.4612 -0.0491
 3526TIP3    H110584   2.447   1.686   4.757  0.1199  0.2505 -0.8879
 3526TIP3    H210585   2.540   1.801   4.788 -1.1906  1.2390 -0.5872
 3527TIP3   OH210586   2.810   0.957   4.023  0.4935  0.5136 -0.5937
 3527TIP3    H110587   2.761   0.898   4.081  0.0249  2.1794  0.7795
 3527TIP3    H210588   2.749   1.029   4.006  0.6092  0.1070 -3.2287
 3528TIP3   OH210589   0.856   3.367   2.001  0.3302  0.3628  0.7340
 3528TIP3    H110590   0.897   3.313   1.933 -0.1785 -0.0144  0.7154
 3528TIP3    H210591   0.821   3.443   1.954 -0.0801  0.0698  0.5550
 3529TIP3   OH210592   2.971   4.899   0.391  0.1099  0.1794 -0.2164
 3529TIP3    H110593   2.961   4.806   0.370 -0.0218  0.0853  0.2587
 3529TIP3    H210594   2.984   4.941   0.306  3.3503 -0.6719 -0.2776
 3530TIP3   OH210595   6.254   5.870   1.716 -0.0095  0.3682 -0.1024
 3530TIP3    H110596   6.243   5.929   1.642  1.9355 -0.4985 -1.1380
 3530TIP3    H210597   6.169   5.827   1.725  0.3635 -1.4304 -3.5504
 3531TIP3   OH210598   5.656   2.396   2.338  0.2701  0.2634  0.2640
 3531TIP3    H110599   5.714   2.472   2.329 -0.2353  0.4961 -1.3807
 3531TIP3    H210600   5.715   2.324   2.362  1.4816  0.3015 -2.1836
 3532TIP3   OH210601   5.580   0.053   2.230  0.1090  0.5534  0.1965
 3532TIP3    H110602   5.621  -0.013   2.173 -2.1173  0.0170 -0.9074
 3532TIP3    H210603   5.589   0.135   2.182 -1.5985  0.1321 -0.9497
 3533TIP3   OH210604   5.911   3.121   2.243  0.0486 -0.6826 -0.1990
 3533TIP3    H110605   5.935   3.046   2.297 -1.1571 -1.3653 -0.5968
 3533TIP3    H210606   5.988   3.136   2.188  0.5451 -1.2060  0.3339
 3534TIP3   OH210607   5.123   4.624   4.157  0.1768 -0.5832  0.1410
 3534TIP3    H110608   5.215   4.597   4.156 -0.3582 -3.7976  4.6212
 3534TIP3    H210609   5.087   4.591   4.075  2.5696 -1.0003 -0.8248
 3535TIP3   OH210610   2.750   5.672   0.461 -0.4836 -0.1528  0.2796
 3535TIP3    H110611   2.745   5.614   0.538 -0.0330 -0.8629 -0.2158
 3535TIP3    H210612   2.681   5.641   0.403 -0.8695  0.4290  0.4225
 3536TIP3   OH210613   0.930   0.968   0.325  0.0421  0.0590  0.2400
 3536TIP3    H110614   0.923   1.059   0.353  0.4330 -0.0213  0.6160
 3536TIP3    H210615   0.843   0.946   0.292  0.2216  0.8846 -0.8371
 3537TIP3   OH210616   2.149   0.243   4.954  0.4594 -0.3906 -0.1917
 3537TIP3    H110617   2.101   0.232   5.036 -0.2652  0.2134 -0.5178
 3537TIP3    H210618   2.086   0.220   4.886  0.4919  0.7742 -0.6451
 3538TIP3   OH210619   0.916   2.316   3.536  0.2990  0.1884  0.4107
 3538TIP3    H110620   0.980   2.261   3.491 -0.0459 -3.6867  4.0384
 3538TIP3    H210621   0.966   2.356   3.608 -0.4527  0.8878  0.5556
 3539TIP3   OH210622   5.960   1.123   0.989 -0.4997 -0.3470 -0.2489
 3539TIP3    H110623   6.035   1.142   1.046 -0.6050  2.0801 -0.8067
 3539TIP3    H210624   5.895   1.084   1.048  0.7973 -1.6178  0.4323
 3540TIP3   OH210625   5.507   3.674   3.158 -0.0291  0.2336  0.0622
 3540TIP3    H110626   5.517   3.614   3.232  1.7372  1.3485  0.7828
 3540TIP3    H210627   5.537   3.625   3.082 -0.2865 -0.3630  0.3383
 3541TIP3   OH210628   0.516   4.635   3.602 -0.0674  0.7237 -0.2320
 3541TIP3    H110629   0.478   4.548   3.588 -1.3248  1.5720 -2.5459
 3541TIP3    H210630   0.589   4.620   3.663  1.5744 -2.4182 -2.7129
 3542TIP3   OH210631   3.191   5.540   2.033 -0.0416  0.1370 -0.2082
 3542TIP3    H110632   3.267   5.522   1.978 -1.5906  0.0313 -2.4469
 3542TIP3    H210633   3.154   5.621   1.998 -3.1651 -1.8228 -1.8631
 3543TIP3   OH210634   3.731   2.964   2.460 -0.5908  0.0812 -0.6511
 3543TIP3    H110635   3.786   3.038   2.437 -0.0850  0.0102  0.2944
 3543TIP3    H210636   3.641   2.998   2.454 -0.4170  0.4206 -1.4058
 3544TIP3   OH210637   3.112   5.973   0.149 -0.0175  0.5650  0.3939
 3544TIP3    H110638   3.091   6.021   0.230  0.3153 -0.7016  1.2609
 3544TIP3    H210639   3.055   5.896   0.152  1.9712 -0.9697  0.8966
 3545TIP3   OH210640   4.070   0.589   3.831  0.1423 -0.5775  0.5742
 3545TIP3    H110641   4.143   0.650   3.841  0.2277 -0.7624  1.1491
 3545TIP3    H210642   4.063   0.575   3.737 -0.5086  1.0624  0.3454
 3546TIP3   OH210643   3.763   5.975   0.394 -0.2353 -0.4423 -0.1428
 3546TIP3    H110644   3.735   6.049   0.342 -0.1339  1.0074  1.7711
 3546TIP3    H210645   3.694   5.910   0.383 -0.6758  0.1917 -1.2766
 3547TIP3   OH210646   0.755   4.575   1.564  0.1413 -0.0242 -0.3206
 3547TIP3    H110647   0.816   4.509   1.596 -0.9634 -0.3009  1.3054
 3547TIP3    H210648   0.779   4.654   1.613 -0.5154 -0.0191 -0.0088
 3548TIP3   OH210649   3.045   0.653   2.924  0.3421 -0.2874  0.1510
 3548TIP3    H110650   2.976   0.588   2.931  0.2676 -0.3953 -1.2815
 3548TIP3    H210651   3.065   0.658   2.830 -0.0922  2.1750  0.0987
 3549TIP3   OH210652   5.426   2.530   0.700 -0.1902  0.1385  0.0172
 3549TIP3    H110653   5.364   2.525   0.627 -0.2815  0.1133  0.0959
 3549TIP3    H210654   5.376   2.570   0.771 -0.9256 -2.2230  0.9270
 3550TIP3   OH210655   0.620   5.617   4.727  0.1964 -0.6325  0.2400
 3550TIP3    H110656   0.658   5.644   4.644  0.8758 -0.5403  0.5788
 3550TIP3    H210657   0.686   5.559   4.766  0.1680 -0.1572  1.0096
 3551TIP3   OH210658   3.104   2.862   2.952 -0.5857  0.3476  0.3992
 3551TIP3    H110659   3.133   2.812   3.028  2.3444  0.7779 -0.3386
 3551TIP3    H210660   3.077   2.796   2.888  1.2639 -0.2454  0.1946
 3552TIP3   OH210661   6.157   4.239   0.806  0.7763  0.3131  0.4687
 3552TIP3    H110662   6.103   4.241   0.885 -0.1503 -0.0951 -0.1333
 3552TIP3    H210663   6.241   4.201   0.835  0.1479 -0.6656  1.0836
 3553TIP3   OH210664   4.813   5.507   2.217 -0.3206 -0.8945  0.4210
 3553TIP3    H110665   4.723   5.541   2.215  0.1229  0.3712  1.0019
 3553TIP3    H210666   4.845   5.520   2.129  0.5549  2.3256  1.1022
 3554TIP3   OH210667   3.446   4.797   3.053 -0.3124 -0.1510  0.2925
 3554TIP3    H110668   3.487   4.842   3.127 -1.8685 -1.2544  1.9030
 3554TIP3    H210669   3.514   4.796   2.985  0.9963  1.3303  1.5085
 3555TIP3   OH210670   0.505   2.827   0.509 -0.0024 -0.4910 -0.3095
 3555TIP3    H110671   0.417   2.814   0.473 -0.0477  0.5437 -0.6055
 3555TIP3    H210672   0.562   2.822   0.432 -0.1264  2.0294 -0.6398
 3556TIP3   OH210673   1.259   5.097   2.183  0.6128 -0.0109  0.8191
 3556TIP3    H110674   1.193   5.053   2.131  1.2529 -1.9332  1.5513
 3556TIP3    H210675   1.243   5.191   2.168 -0.2561 -0.4647 -1.4512
 3557TIP3   OH210676   6.004   4.821   1.197  0.0601 -0.1207 -0.2450
 3557TIP3    H110677   6.090   4.786   1.220 -0.1240 -1.7722 -1.8454
 3557TIP3    H210678   6.010   4.843   1.104 -1.1995 -0.1259 -0.3535
 3558TIP3   OH210679   6.211   5.497   2.023 -0.1371 -0.5985  0.4264
 3558TIP3    H110680   6.257   5.416   2.046 -0.2280 -0.6761  0.3392
 3558TIP3    H210681   6.168   5.477   1.940 -0.3008 -0.5179  0.4901
 3559TIP3   OH210682   6.308   5.256   1.633 -0.2616 -0.0913 -0.2890
 3559TIP3    H110683   6.313   5.290   1.723 -0.1990 -0.8423  0.0000
 3559TIP3    H210684   6.289   5.332   1.580 -1.6288  0.1601  0.5171
 3560TIP3   OH210685   4.480   4.284   3.919  0.0338  0.4102 -0.2160
 3560TIP3    H110686   4.490   4.345   3.992 -0.7123  0.3724 -0.0778
 3560TIP3    H210687   4.392   4.247   3.930  1.2161 -2.3589  0.9934
 3561TIP3   OH210688   2.207   1.399   3.233  0.0391  0.2274  0.7579
 3561TIP3    H110689   2.246   1.336   3.293  1.9500  0.7085  0.0749
 3561TIP3    H210690   2.174   1.469   3.289  0.1963 -0.1746  1.3564
 3562TIP3   OH210691   2.963   0.115   0.972  0.3052  0.8443  0.3524
 3562TIP3    H110692   2.921   0.081   1.050  0.9623  0.7012  0.6493
 3562TIP3    H210693   2.893   0.121   0.907  0.2705 -1.7951  0.0266
 3563TIP3   OH210694   3.074   5.485   3.781  0.0611 -0.2574 -0.9372
 3563TIP3    H110695   3.031   5.468   3.697 -1.5396  2.6136 -0.8203
 3563TIP3    H210696   3.007   5.470   3.847  0.2816  0.7984 -0.4532
 3564TIP3   OH210697   1.935   3.584   0.366 -0.8146  0.1460  0.1400
 3564TIP3    H110698   1.918   3.567   0.459 -1.8269  0.4340  0.0146
 3564TIP3    H210699   1.849   3.602   0.328 -0.5711 -1.1677 -1.1113
 3565TIP3   OH210700   6.096   2.917   3.597 -0.3130  0.3503 -0.2331
 3565TIP3    H110701   6.005   2.888   3.590 -0.2898  0.1434  0.2860
 3565TIP3    H210702   6.106   2.944   3.688  0.2859 -0.0955 -0.1596
 3566TIP3   OH210703   4.132   5.885   2.777  0.5818  0.0584 -0.8419
 3566TIP3    H110704   4.212   5.864   2.728  1.8899 -1.3703  1.6760
 3566TIP3    H210705   4.089   5.800   2.790 -0.5684  0.6190 -0.8785
 3567TIP3   OH210706   4.945   5.106   0.602  0.0102 -0.2053 -0.1206
 3567TIP3    H110707   4.963   5.126   0.510 -1.8225 -0.7257 -0.6263
 3567TIP3    H210708   4.905   5.019   0.600  0.4524 -0.4499  1.2361
 3568TIP3   OH210709   3.488   1.966   3.343 -0.0519 -0.8226  0.0897
 3568TIP3    H110710   3.530   1.949   3.259  2.3810 -0.2148  1.1015
 3568TIP3    H210711   3.519   1.896   3.400 -0.7876 -0.6091  0.7696
 3569TIP3   OH210712   2.749   4.313   2.730  0.3729 -0.5734  0.4194
 3569TIP3    H110713   2.806   4.239   2.714 -1.0203 -2.1498  2.2435
 3569TIP3    H210714   2.661   4.279   2.715 -0.2083  1.4641 -1.2164
 3570TIP3   OH210715   5.847   5.473   2.035 -0.0411  0.5599  0.2522
 3570TIP3    H110716   5.751   5.474   2.045 -0.1477  0.3359 -0.6348
 3570TIP3    H210717   5.880   5.478   2.124 -0.8768  1.1764  0.5503
 3571TIP3   OH210718   0.357   1.602   4.534  0.4899 -0.1706  0.0708
 3571TIP3    H110719   0.361   1.686   4.488  0.0036  0.1553  0.6118
 3571TIP3    H210720   0.304   1.620   4.612  0.4409 -0.9633  0.2247
 3572TIP3   OH210721   0.592   3.837   4.165  0.1840 -0.0042 -0.3000
 3572TIP3    H110722   0.615   3.767   4.103 -0.3394 -0.7420  0.3143
 3572TIP3    H210723   0.505   3.865   4.137  0.4461  0.5006 -0.6234
 3573TIP3   OH210724   1.590   0.706   2.964  0.5402 -0.5147 -0.2762
 3573TIP3    H110725   1.592   0.779   3.026  1.2239  1.2146 -2.2106
 3573TIP3    H210726   1.682   0.688   2.944  0.3268  0.1696 -2.0551
 3574TIP3   OH210727   5.814   3.578   3.159 -0.2251  0.0032 -0.4313
 3574TIP3    H110728   5.782   3.553   3.245  2.3744 -1.1260  0.3313
 3574TIP3    H210729   5.896   3.624   3.177  0.3409 -0.1989 -2.2921
 3575TIP3   OH210730   5.823   2.627   3.138 -0.3910  0.0326  0.4847
 3575TIP3    H110731   5.897   2.585   3.182  0.5248  1.5946  0.5137
 3575TIP3    H210732   5.785   2.558   3.083  0.4486 -1.0739  1.2588
 3576TIP3   OH210733   5.995   5.780   2.412  0.1053 -0.4526  0.3443
 3576TIP3    H110734   6.078   5.796   2.455  0.3969  0.6064 -0.5754
 3576TIP3    H210735   5.979   5.859   2.360 -1.3649 -0.7263  0.3412
 3577TIP3   OH210736   1.430   1.278   0.570 -0.0658  0.3630  0.1653
 3577TIP3    H110737   1.422   1.360   0.619 -1.0861  1.5580 -1.8740
 3577TIP3    H210738   1.519   1.248   0.589  0.6360  2.3827  0.3498
 3578TIP3   OH210739   4.378   2.158   3.340  0.1301 -0.2522  0.1095
 3578TIP3    H110740   4.353   2.093   3.274 -0.5830 -0.0914  0.2112
 3578TIP3    H210741   4.454   2.203   3.302  0.0048 -0.4697 -0.4032
 3579TIP3   OH210742   3.705   3.678   1.793 -0.1435 -0.4548 -0.0628
 3579TIP3    H110743   3.664   3.755   1.756 -1.2392 -1.3719 -0.8193
 3579TIP3    H210744   3.797   3.702   1.803 -0.7796  1.5738  1.4736
 3580TIP3   OH210745   3.805   2.939   0.725  0.5324  0.1198 -0.2778
 3580TIP3    H110746   3.769   2.986   0.800  1.2763  1.5327 -0.7607
 3580TIP3    H210747   3.758   2.976   0.649  0.6331 -0.4182 -0.6055
 3581TIP3   OH210748   5.051   4.328   1.372  0.2020 -0.0274 -0.4209
 3581TIP3    H110749   4.966   4.307   1.411  0.9638  2.2836  2.8829
 3581TIP3    H210750   5.031   4.358   1.284 -2.2089 -1.0248 -0.2689
 3582TIP3   OH210751   2.452   1.931   5.114 -0.3552 -0.2167 -0.0765
 3582TIP3    H110752   2.482   1.997   5.175 -1.0240  0.6531 -0.6674
 3582TIP3    H210753   2.425   1.857   5.170  0.6423 -0.1153  0.5647
 3583TIP3   OH210754   0.132   3.488   3.232 -0.5812  0.2596 -0.0105
 3583TIP3    H110755   0.117   3.425   3.161 -2.6069 -0.0794  0.6394
 3583TIP3    H210756   0.227   3.486   3.247 -0.5019 -2.2700 -0.3666
 3584TIP3   OH210757   0.466   0.137   2.938  0.4487 -0.5134  0.2305
 3584TIP3    H110758   0.431   0.221   2.967 -0.7204 -0.5758 -0.9134
 3584TIP3    H210759   0.390   0.089   2.904  1.1389 -1.9333  0.6085
 3585TIP3   OH210760   2.296   2.470   0.648 -0.4708  0.1176 -0.5284
 3585TIP3    H110761   2.213   2.466   0.600 -1.4315 -1.7364  1.1415
 3585TIP3    H210762   2.350   2.401   0.610 -0.6130 -0.2642 -0.0431
 3586TIP3   OH210763   6.230   5.532   5.160 -0.5069 -0.1892 -0.0628
 3586TIP3    H110764   6.184   5.614   5.144  0.3827  0.3478  0.0723
 3586TIP3    H210765   6.269   5.509   5.075 -0.3103 -0.1954  0.0293
 3587TIP3   OH210766   4.184   4.036   4.079 -0.5185 -0.1768  0.1818
 3587TIP3    H110767   4.138   4.104   4.127 -0.7896 -0.0014 -0.3182
 3587TIP3    H210768   4.197   4.073   3.991  0.1100 -0.4248  0.1606
 3588TIP3   OH210769   3.035   2.523   4.976 -0.4434 -0.3312  0.0084
 3588TIP3    H110770   3.066   2.460   5.041 -0.1937  0.5835  0.7791
 3588TIP3    H210771   3.008   2.468   4.901  2.7565 -1.2032 -0.6358
 3589TIP3   OH210772   5.349   3.998   3.046  0.3735  0.0878 -0.2333
 3589TIP3    H110773   5.435   3.973   3.012 -0.1869 -0.0839 -1.5653
 3589TIP3    H210774   5.332   3.935   3.116  0.4303 -1.2135 -1.3452
 3590TIP3   OH210775   5.552   1.074   0.501 -0.4189 -0.2706 -0.5559
 3590TIP3    H110776   5.591   1.090   0.587 -1.7210 -0.9650  0.2021
 3590TIP3    H210777   5.608   1.009   0.460  0.3037  0.1839 -0.3077
 3591TIP3   OH210778   5.513   5.344   1.429  0.3070  0.2137  0.1959
 3591TIP3    H110779   5.592   5.392   1.407  1.0872  0.0395  2.3991
 3591TIP3    H210780   5.532   5.254   1.403 -0.3225  0.6288 -1.9078
 3592TIP3   OH210781   6.135   3.983   4.721  0.0317 -0.2501  0.1338
 3592TIP3    H110782   6.146   3.891   4.746 -0.0747 -0.4298 -0.4762
 3592TIP3    H210783   6.057   4.011   4.769 -0.4596 -0.7355 -0.3736
 3593TIP3   OH210784   0.577   1.289   2.945  0.0825 -0.2823  0.5359
 3593TIP3    H110785   0.522   1.336   2.883  0.2496 -2.8591 -1.7536
 3593TIP3    H210786   0.548   1.319   3.031 -2.3964  1.0696 -0.6748
 3594TIP3   OH210787   5.167   4.648   1.841  0.1154 -0.1449  0.2467
 3594TIP3    H110788   5.188   4.625   1.932 -0.3139 -0.6319  0.2262
 3594TIP3    H210789   5.136   4.739   1.846  1.9227  0.5033  0.3119
 3595TIP3   OH210790   0.607   0.123   0.951 -0.0501  0.0409 -0.0314
 3595TIP3    H110791   0.660   0.140   0.873 -0.6008 -0.4809 -0.5267
 3595TIP3    H210792   0.563   0.040   0.933 -0.4622  0.0963  0.6826
 3596TIP3   OH210793   3.797   2.615   3.829  0.6664  0.0095 -0.0891
 3596TIP3    H110794   3.846   2.678   3.777 -0.8865  0.1617 -1.4361
 3596TIP3    H210795   3.864   2.552   3.859  1.6544  0.0081 -2.1262
 3597TIP3   OH210796   3.064   4.701   4.203  0.5125  0.2329  0.6959
 3597TIP3    H110797   3.089   4.775   4.147 -0.1890  0.5634  0.8089
 3597TIP3    H210798   3.126   4.704   4.276  1.6855 -0.4294 -0.2188
 3598TIP3   OH210799   3.982   1.197   4.443  0.2227 -0.0538  0.1587
 3598TIP3    H110800   3.975   1.103   4.458 -1.0148 -0.0972 -0.5160
 3598TIP3    H210801   3.896   1.222   4.409  0.8813  1.1245 -0.7202
 3599TIP3   OH210802   4.088   2.112   4.420  0.0615 -0.5299  0.6694
 3599TIP3    H110803   4.115   2.091   4.331 -0.8562  0.5442  0.1196
 3599TIP3    H210804   4.022   2.046   4.441  0.1889 -0.7105  0.5062
 3600TIP3   OH210805   4.257   2.167   1.701 -0.3994  0.1356 -0.2159
 3600TIP3    H110806   4.304   2.125   1.629 -0.5385 -0.5297  0.0764
 3600TIP3    H210807   4.178   2.203   1.660 -0.8355 -0.8678 -0.2774
 3601TIP3   OH210808   1.333   4.161   4.790 -0.6823 -0.1803  0.1642
 3601TIP3    H110809   1.361   4.110   4.866  0.6270  0.5660  0.1957
 3601TIP3    H210810   1.330   4.251   4.820  0.9503  0.2841 -0.9310
 3602TIP3   OH210811   0.568   3.763   0.299  0.3260 -0.3399 -0.0741
 3602TIP3    H110812   0.477   3.749   0.274 -0.1058  2.1386 -0.1428
 3602TIP3    H210813   0.568   3.848   0.344  2.4021 -0.8898  1.1128
 3603TIP3   OH210814   6.015   3.249   3.688  0.1280  0.1872 -0.1144
 3603TIP3    H110815   6.109   3.231   3.683  0.4343  1.5245  0.4116
 3603TIP3    H210816   6.008   3.326   3.744 -1.4221 -0.9155  1.3116
 3604TIP3   OH210817   4.363   2.655   3.502 -0.0316 -0.0264  0.9259
 3604TIP3    H110818   4.282   2.618   3.467  0.3000 -0.1814  0.3113
 3604TIP3    H210819   4.334   2.719   3.567 -0.6903  0.9189 -0.2681
 3605TIP3   OH210820   5.756   3.125   0.812  0.1541  0.0477  0.5023
 3605TIP3    H110821   5.714   3.187   0.753  0.1298  2.0451  2.4773
 3605TIP3    H210822   5.833   3.095   0.764 -0.5121  0.6261 -1.0066
 3606TIP3   OH210823   0.099   2.408   0.864 -0.0787  0.2695  0.1983
 3606TIP3    H110824   0.088   2.489   0.815  0.4607  1.1278  1.4536
 3606TIP3    H210825   0.180   2.420   0.913  0.3143 -1.2586 -0.0149
 3607TIP3   OH210826   6.276   0.715   0.076  0.2487  0.1598 -0.2390
 3607TIP3    H110827   6.230   0.783   0.027  0.1645  0.6631  0.5275
 3607TIP3    H210828   6.207   0.653   0.102 -0.0990  1.1653  1.3266
 3608TIP3   OH210829   2.858   4.692   4.389 -0.2936  0.1519  0.1081
 3608TIP3    H110830   2.855   4.785   4.412  0.2908  0.0358  0.6807
 3608TIP3    H210831   2.942   4.681   4.345 -0.0987 -0.2202  0.5694
 3609TIP3   OH210832   1.594   5.727   1.863 -0.3804 -0.0337 -0.0915
 3609TIP3    H110833   1.664   5.687   1.811 -0.6650  1.1302 -1.4400
 3609TIP3    H210834   1.538   5.654   1.890  0.0986 -0.7277 -0.9411
 3610TIP3   OH210835   1.919   3.661   3.033  0.1253  0.1302  0.4072
 3610TIP3    H110836   1.975   3.589   3.006  0.2695  0.1650  0.6113
 3610TIP3    H210837   1.965   3.740   3.006 -0.0478  0.1481  0.1546
 3611TIP3   OH210838   5.057   1.383   2.771 -0.5980  0.1826  0.0668
 3611TIP3    H110839   5.139   1.420   2.736 -0.3568 -0.5019 -0.1147
 3611TIP3    H210840   5.001   1.374   2.694 -0.4495 -0.3416  0.0126
 3612TIP3   OH210841   2.533   0.280   4.901  0.0060 -0.1661 -0.3313
 3612TIP3    H110842   2.473   0.266   4.827  0.2429 -0.6290 -0.4339
 3612TIP3    H210843   2.491   0.234   4.974  0.2414 -0.5099 -0.4088
 3613TIP3   OH210844   3.420   4.539   0.788  0.1329  0.3601 -0.1394
 3613TIP3    H110845   3.476   4.519   0.863 -0.5454 -0.9093  0.0500
 3613TIP3    H210846   3.379   4.456   0.765 -0.9827  1.0740 -0.8453
 3614TIP3   OH210847   0.363   0.540   4.924  0.5420  0.3047  0.0282
 3614TIP3    H110848   0.316   0.500   4.997 -0.1549  0.9023 -0.0756
 3614TIP3    H210849   0.352   0.479   4.852  0.0842  0.3395  0.0638
 3615TIP3   OH210850   0.799   5.807   0.514 -0.4063 -0.1937  0.9693
 3615TIP3    H110851   0.743   5.749   0.463  0.0559  0.3076 -0.1505
 3615TIP3    H210852   0.883   5.761   0.518  0.4412  1.0204 -1.2652
 3616TIP3   OH210853   2.323   4.912   2.819 -0.1038 -0.2176  0.3428
 3616TIP3    H110854   2.260   4.984   2.818  0.9847  0.7803  1.3829
 3616TIP3    H210855   2.270   4.834   2.839 -1.0262  0.5616  0.9999
 3617TIP3   OH210856   0.690   0.575   4.668  0.2076 -0.0726  0.1557
 3617TIP3    H110857   0.676   0.481   4.661 -0.6263 -0.0534  1.3337
 3617TIP3    H210858   0.782   0.587   4.643 -0.4110 -0.8101 -2.9034
 3618TIP3   OH210859   0.165   2.298   1.635  0.7046  0.5440  0.2041
 3618TIP3    H110860   0.102   2.292   1.707  0.0284 -0.3373 -0.4378
 3618TIP3    H210861   0.188   2.391   1.631  0.4927  0.6674  1.3222
 3619TIP3   OH210862   0.286   4.055   1.110 -0.8042  0.2403 -0.0238
 3619TIP3    H110863   0.335   4.045   1.191  0.8563  2.6269 -0.6101
 3619TIP3    H210864   0.194   4.063   1.138 -0.3652  0.1110  1.5259
 3620TIP3   OH210865   5.394   4.797   4.474 -0.0699 -0.0614  0.3449
 3620TIP3    H110866   5.434   4.801   4.387 -0.7858 -0.7585 -0.0255
 3620TIP3    H210867   5.351   4.881   4.484  0.1715  0.0939  0.1011
 3621TIP3   OH210868   3.571   0.389   1.360 -0.4061 -0.1037 -0.6811
 3621TIP3    H110869   3.585   0.483   1.362  2.0251 -0.4046 -0.1850
 3621TIP3    H210870   3.548   0.369   1.269  0.9265  0.7690 -1.2331
 3622TIP3   OH210871   3.704   3.668   0.239 -0.6687 -0.8360 -0.7270
 3622TIP3    H110872   3.743   3.753   0.258  2.7118 -2.2576 -0.7210
 3622TIP3    H210873   3.635   3.658   0.305  1.0338  0.5279  1.4017
 3623TIP3   OH210874   4.556   1.383   4.402 -0.5833 -0.2318 -0.1263
 3623TIP3    H110875   4.592   1.310   4.451 -0.7130 -1.0742 -1.2390
 3623TIP3    H210876   4.462   1.381   4.420 -0.9531 -1.8002 -1.9218
 3624TIP3   OH210877   3.380   2.679   0.098  0.3624  0.0200 -0.2112
 3624TIP3    H110878   3.388   2.586   0.074  1.5322 -0.2180  0.9938
 3624TIP3    H210879   3.338   2.677   0.184  2.0579  0.4838  0.6589
 3625TIP3   OH210880   1.771   0.557   3.745 -0.2998 -0.0760  0.0024
 3625TIP3    H110881   1.861   0.577   3.719  0.6619 -1.4398  2.0290
 3625TIP3    H210882   1.728   0.530   3.664  0.7718  1.6022 -1.2101
 3626TIP3   OH210883   5.188   4.601   5.098 -0.1134 -0.1068  0.1900
 3626TIP3    H110884   5.095   4.624   5.097  0.2486  1.4963  0.5596
 3626TIP3    H210885   5.230   4.670   5.150  1.1142 -1.5282  1.1586
 3627TIP3   OH210886   4.927   2.674   3.603  0.7037 -0.3309 -1.0992
 3627TIP3    H110887   4.924   2.659   3.698  0.0573 -2.2590 -1.3718
 3627TIP3    H210888   4.964   2.762   3.594 -0.9992  0.7094  0.9929
 3628TIP3   OH210889   0.332   0.356   1.913  0.1040  0.0854  0.6718
 3628TIP3    H110890   0.407   0.312   1.874 -1.4235 -0.7362 -1.5684
 3628TIP3    H210891   0.347   0.449   1.897 -0.3099 -0.2017 -1.7579
 3629TIP3   OH210892   1.490   0.265   1.369 -0.3876 -0.0599 -0.4045
 3629TIP3    H110893   1.442   0.182   1.372 -0.2741 -0.1051  0.6349
 3629TIP3    H210894   1.445   0.321   1.432  0.5152  0.1244  0.0876
 3630TIP3   OH210895   5.041   2.187   1.207  0.7462  0.0263  0.0373
 3630TIP3    H110896   4.964   2.204   1.154  0.9666 -0.3632 -0.4144
 3630TIP3    H210897   5.045   2.261   1.268  0.2581  0.2636 -0.2115
 3631TIP3   OH210898   2.424   1.025   4.621  0.0594  0.0443  0.0610
 3631TIP3    H110899   2.425   1.115   4.656 -2.1002  0.4895 -0.9190
 3631TIP3    H210900   2.381   0.974   4.689 -1.4714  0.3562 -0.6435
 3632TIP3   OH210901   5.334   0.577   1.144  0.0724 -0.6782 -0.6674
 3632TIP3    H110902   5.245   0.607   1.130  0.2383 -0.8276 -2.1787
 3632TIP3    H210903   5.325   0.484   1.165 -0.1906 -0.4249  0.3915
 3633TIP3   OH210904   5.715   3.587   3.750  0.1827  0.2657  0.8338
 3633TIP3    H110905   5.697   3.678   3.772 -0.6232  0.2655  0.2178
 3633TIP3    H210906   5.796   3.566   3.796  0.7515  1.5048  0.4276
 3634TIP3   OH210907   3.907   3.692   3.751 -0.0925  0.2120 -0.4559
 3634TIP3    H110908   3.985   3.732   3.713  0.1545 -0.8772 -1.1285
 3634TIP3    H210909   3.860   3.655   3.676 -2.5365  2.8951 -0.4422
 3635TIP3   OH210910   1.784   4.406   0.962 -0.1619 -0.1969 -0.6559
 3635TIP3    H110911   1.784   4.339   1.031  0.8087  0.2739 -0.1716
 3635TIP3    H210912   1.814   4.486   1.005  0.9693 -0.0072 -1.7055
 3636TIP3   OH210913   1.976   4.453   0.239  0.3102  0.0103  0.7874
 3636TIP3    H110914   1.900   4.394   0.246  0.0462  0.4650  1.9966
 3636TIP3    H210915   1.939   4.537   0.211  0.4764  0.0380  0.6455
 3637TIP3   OH210916   4.712   3.156   0.067  0.4175 -0.0680 -0.7951
 3637TIP3    H110917   4.793   3.184   0.024  1.5604 -2.5883 -0.4705
 3637TIP3    H210918   4.654   3.130  -0.005  1.1347 -1.2603 -0.9747
 3638TIP3   OH210919   1.783   3.620   4.665 -0.1868 -0.2205  0.1390
 3638TIP3    H110920   1.731   3.550   4.625 -1.5755  0.0427  1.4323
 3638TIP3    H210921   1.722   3.693   4.673  0.2605 -0.0231  2.0195
 3639TIP3   OH210922   3.041   5.212   4.175  0.0606  0.0211  0.1898
 3639TIP3    H110923   3.010   5.202   4.266 -1.1936 -2.0278 -0.3958
 3639TIP3    H210924   2.961   5.229   4.125  0.8135  1.7692 -0.5072
 3640TIP3   OH210925   4.277   0.507   1.743 -0.3527  0.2752  0.1863
 3640TIP3    H110926   4.265   0.488   1.650  1.4697  0.3537 -0.1030
 3640TIP3    H210927   4.260   0.424   1.787  0.2997 -0.1782 -0.3863
 3641TIP3   OH210928   4.402   0.828   0.133  0.3336 -0.4153 -0.0681
 3641TIP3    H110929   4.389   0.734   0.147 -1.2257 -0.2951 -0.5108
 3641TIP3    H210930   4.319   0.858   0.095  1.2973  0.8896 -1.2254
 3642TIP3   OH210931   4.499   5.577   4.507  0.0553 -0.2601  0.5920
 3642TIP3    H110932   4.576   5.523   4.522 -0.3813 -0.8878  0.6041
 3642TIP3    H210933   4.434   5.545   4.569  0.5820  1.9700  2.4531
 3643TIP3   OH210934   5.339   0.572   4.334  0.4159 -0.1747 -0.6841
 3643TIP3    H110935   5.397   0.530   4.271  0.1337  0.4600 -1.3816
 3643TIP3    H210936   5.302   0.500   4.385  3.3354 -0.5512  1.1940
 3644TIP3   OH210937   2.880   5.511   5.015  0.1579  0.1236  0.6790
 3644TIP3    H110938   2.959   5.552   4.978 -0.7970  2.4614  1.0077
 3644TIP3    H210939   2.867   5.432   4.963  0.6364  1.6255 -1.9174
 3645TIP3   OH210940   1.019   5.651   2.697  0.1814 -0.5455 -0.3896
 3645TIP3    H110941   1.005   5.592   2.623 -0.3559 -0.0350 -0.7040
 3645TIP3    H210942   0.962   5.617   2.766 -0.4314 -0.1630 -0.7044
 3646TIP3   OH210943   4.087   4.299   3.064 -0.1972  0.4931 -0.0148
 3646TIP3    H110944   4.122   4.271   2.980 -2.6094  0.4056 -1.0462
 3646TIP3    H210945   4.088   4.219   3.118 -0.0075  0.2088 -0.4345
 3647TIP3   OH210946   4.026   5.504   4.984  0.3114  0.0729 -0.3156
 3647TIP3    H110947   3.959   5.438   5.005  0.0314  0.5460  0.3329
 3647TIP3    H210948   4.035   5.554   5.065  1.1816  0.2561 -0.5230
 3648TIP3   OH210949   0.940   5.869   1.279  0.1655  0.4432  0.3382
 3648TIP3    H110950   0.993   5.912   1.212  2.5611  1.0505  2.4524
 3648TIP3    H210951   0.859   5.920   1.281 -0.9105 -0.8112 -3.3260
 3649TIP3   OH210952   0.353   0.032   1.443 -0.3930 -0.2674  0.4706
 3649TIP3    H110953   0.287   0.084   1.396 -0.1451 -0.7108 -0.3824
 3649TIP3    H210954   0.398   0.096   1.498 -0.6716  0.2708  0.0861
 3650TIP3   OH210955   1.065   2.479   1.790  0.3804 -0.2255 -0.3677
 3650TIP3    H110956   1.077   2.500   1.883  0.8861 -0.1840 -0.4374
 3650TIP3    H210957   0.971   2.483   1.776  0.3353  0.2408  0.0387
 3651TIP3   OH210958   4.593   4.507   2.584 -0.0308 -0.0435  0.1466
 3651TIP3    H110959   4.654   4.451   2.537 -0.6333 -1.2363  0.7589
 3651TIP3    H210960   4.649   4.576   2.621  1.0790 -1.4350  1.1952
 3652TIP3   OH210961   0.812   4.437   4.689  0.3013  0.2548  0.5125
 3652TIP3    H110962   0.837   4.501   4.623  0.8811 -0.1790  0.3037
 3652TIP3    H210963   0.869   4.362   4.673 -1.6163 -1.0717 -0.4369
 3653TIP3   OH210964   0.022   1.790   0.706 -0.2465 -0.0452  0.1098
 3653TIP3    H110965  -0.062   1.772   0.747  0.4175 -1.4355  0.9359
 3653TIP3    H210966   0.076   1.826   0.777  0.5600 -1.3884  0.2141
 3654TIP3   OH210967   3.193   3.475   5.171 -0.2115 -0.5396 -0.3674
 3654TIP3    H110968   3.191   3.380   5.161  1.7528 -0.6621 -0.1595
 3654TIP3    H210969   3.254   3.504   5.102  0.3192  0.3949  0.4701
 3655TIP3   OH210970   5.878   3.856   5.043 -0.1701  0.1915 -0.4704
 3655TIP3    H110971   5.788   3.887   5.031  0.1541  0.7053 -1.7041
 3655TIP3    H210972   5.906   3.829   4.956  0.7297 -0.3816 -0.0161
 3656TIP3   OH210973   4.208   5.803   0.384  0.1481 -0.0735  0.1974
 3656TIP3    H110974   4.142   5.804   0.315 -0.9219  0.7149  1.1877
 3656TIP3    H210975   4.158   5.785   0.464  0.8807  2.0528  1.1874
 3657TIP3   OH210976   2.608   5.254   4.837 -0.0128  0.0466  0.4095
 3657TIP3    H110977   2.687   5.235   4.888  0.0322  0.3459  0.4517
 3657TIP3    H210978   2.562   5.320   4.888 -0.1323  0.1061  0.2254
 3658TIP3   OH210979   1.826   3.871   0.121  0.4045  0.1835 -0.1862
 3658TIP3    H110980   1.871   3.815   0.058  0.8289  0.0097  0.2652
 3658TIP3    H210981   1.894   3.928   0.156 -0.1883  1.7112 -1.3724
 3659TIP3   OH210982   5.330   4.223   4.294  0.2179  0.3698  0.1925
 3659TIP3    H110983   5.370   4.143   4.328  0.0332  0.2063  0.0275
 3659TIP3    H210984   5.349   4.221   4.201 -1.2451 -0.3513 -0.1173
 3660TIP3   OH210985   3.262   4.030   4.088  0.1716 -0.2716 -0.1846
 3660TIP3    H110986   3.302   3.996   4.168  0.3234 -1.2099 -0.6395
 3660TIP3    H210987   3.317   3.996   4.018 -0.2294  0.1566 -0.7159
 3661TIP3   OH210988   3.872   5.946   3.483 -0.3326 -0.2462 -0.6734
 3661TIP3    H110989   3.884   5.961   3.390 -0.9177 -0.1368 -0.7336
 3661TIP3    H210990   3.849   6.032   3.519 -2.3453 -0.6838 -0.8056
 3662TIP3   OH210991   3.038   3.206   1.483 -0.5630  0.0211 -0.1460
 3662TIP3    H110992   3.124   3.211   1.523 -0.2820 -1.2386 -0.5571
 3662TIP3    H210993   2.987   3.149   1.541  0.0962 -2.5214 -1.9096
 3663TIP3   OH210994   3.906   3.751   2.925 -0.1982 -0.1227 -0.0803
 3663TIP3    H110995   3.812   3.760   2.912 -0.4232 -1.4591  0.5102
 3663TIP3    H210996   3.938   3.841   2.926 -1.5495  0.3853  0.3158
 3664TIP3   OH210997   1.715   1.268   3.412  0.1283  0.6041 -0.6102
 3664TIP3    H110998   1.688   1.181   3.442 -1.3988  1.5366  0.9431
 3664TIP3    H210999   1.708   1.263   3.317 -1.4101 -0.5573 -0.4940
 3665TIP3   OH211000   5.301   2.775   3.693 -0.1110 -0.7943 -0.0304
 3665TIP3    H111001   5.386   2.759   3.735  0.6568 -1.9319 -1.8926
 3665TIP3    H211002   5.254   2.692   3.702  0.2788 -1.2519 -1.7694
 3666TIP3   OH211003   5.457   3.520   2.695  0.0036 -0.1547 -0.0023
 3666TIP3    H111004   5.510   3.598   2.676 -0.4306  0.7896  2.3261
 3666TIP3    H211005   5.519   3.448   2.691  1.1193  0.7087  0.8852
 3667TIP3   OH211006   5.784   5.574   3.460  0.6016  0.0911  0.1726
 3667TIP3    H111007   5.823   5.592   3.546 -1.1633 -1.1794  1.3013
 3667TIP3    H211008   5.830   5.633   3.400  2.8576  0.0414  1.7174
 3668TIP3   OH211009   0.986   4.925   1.662 -0.2179  0.2875 -0.1460
 3668TIP3    H111010   0.992   4.897   1.754 -0.2777  0.6355 -0.0354
 3668TIP3    H211011   0.893   4.918   1.641  0.0598 -2.0419 -0.8971
 3669TIP3   OH211012   1.764   5.339   0.783  0.4496  0.3415 -0.4747
 3669TIP3    H111013   1.695   5.400   0.759 -1.0484 -1.6054 -1.3210
 3669TIP3    H211014   1.766   5.342   0.879 -1.4998 -0.2668 -0.3854
 3670TIP3   OH211015   0.110   4.406   1.120 -0.2158 -0.5224 -0.5485
 3670TIP3    H111016   0.044   4.361   1.173 -0.4047 -1.0298 -1.1914
 3670TIP3    H211017   0.189   4.406   1.175 -0.8826  0.5953  0.4494
 3671TIP3   OH211018   5.465   3.611   3.430  0.0751  0.3527  0.3365
 3671TIP3    H111019   5.396   3.663   3.468  0.6316  0.4748  1.2017
 3671TIP3    H211020   5.544   3.664   3.441  0.5598 -0.4455  0.7623
 3672TIP3   OH211021   0.327   5.611   2.014  0.6896  0.1105  0.1946
 3672TIP3    H111022   0.264   5.600   2.085  0.1529  0.4299 -0.2217
 3672TIP3    H211023   0.411   5.586   2.052  0.5000  0.8040  1.1077
 3673TIP3   OH211024   3.647   0.636   1.342  0.2549  0.4130  0.7575
 3673TIP3    H111025   3.615   0.717   1.381 -0.0938 -0.1756  1.7158
 3673TIP3    H211026   3.656   0.657   1.248  0.0278  1.5018  0.9637
 3674TIP3   OH211027   1.381   1.773   2.727 -0.0809  0.0824 -0.4988
 3674TIP3    H111028   1.408   1.864   2.712  1.5748 -0.4975 -1.1837
 3674TIP3    H211029   1.344   1.745   2.643  1.7856 -0.6472 -1.1237
 3675TIP3   OH211030   4.001   3.703   1.771  0.4143  0.3000 -0.0669
 3675TIP3    H111031   3.985   3.609   1.783 -0.1616  0.4516  0.3559
 3675TIP3    H211032   4.094   3.713   1.793  0.7641 -0.3388 -1.1576
 3676TIP3   OH211033   4.918   3.163   3.100  0.0139  0.4686 -0.2573
 3676TIP3    H111034   4.926   3.220   3.177 -1.8507  0.3611  0.0622
 3676TIP3    H211035   5.001   3.172   3.055  0.1272  2.7115  0.2972
 3677TIP3   OH211036   6.138   4.552   4.995  0.0601 -0.0370 -0.7390
 3677TIP3    H111037   6.225   4.518   4.972  0.1036 -0.5763  0.1735
 3677TIP3    H211038   6.077   4.484   4.968  0.1746 -1.0963  1.4330
 3678TIP3   OH211039   1.606   4.342   3.970  0.1871 -0.0402  0.2608
 3678TIP3    H111040   1.593   4.435   3.991 -0.9319 -0.1881  0.2481
 3678TIP3    H211041   1.673   4.343   3.902  1.7380  0.6209  1.6995
 3679TIP3   OH211042   4.447   3.697   1.588  0.1880  0.1214 -0.1136
 3679TIP3    H111043   4.486   3.661   1.508  0.6100 -1.3063  0.6942
 3679TIP3    H211044   4.521   3.705   1.648  0.1603  2.6295 -0.3061
 3680TIP3   OH211045   0.700   2.618   4.990  0.0433  0.2427 -0.1514
 3680TIP3    H111046   0.736   2.600   5.077  1.1583  1.1485 -0.4092
 3680TIP3    H211047   0.666   2.534   4.961 -0.1820 -0.1175  1.0825
 3681TIP3   OH211048   4.583   2.803   3.635 -0.4291  0.6422 -0.0526
 3681TIP3    H111049   4.511   2.817   3.696  1.3318  1.1493  2.0240
 3681TIP3    H211050   4.593   2.708   3.631  0.6172  0.6025  2.0263
 3682TIP3   OH211051   2.357   2.945   2.541  0.5245 -0.4390  0.0452
 3682TIP3    H111052   2.330   2.881   2.475  3.9637 -0.0937 -1.9633
 3682TIP3    H211053   2.411   2.895   2.602  1.9736  0.1911 -0.6699
 3683TIP3   OH211054   6.141   5.761   2.799 -0.4637 -0.8879  0.6624
 3683TIP3    H111055   6.175   5.823   2.736 -1.8472 -0.5629  0.1945
 3683TIP3    H211056   6.218   5.723   2.841  0.4613 -0.6375 -0.7632
 3684TIP3   OH211057   3.493   3.902   0.138 -0.0065  0.0798 -0.2849
 3684TIP3    H111058   3.512   3.886   0.230 -1.0172  0.2619 -0.0385
 3684TIP3    H211059   3.536   3.985   0.119 -1.4375  1.0621  0.5720
 3685TIP3   OH211060   1.679   3.533   0.228 -0.1209 -0.1139  0.0540
 3685TIP3    H111061   1.584   3.540   0.231 -0.0119  1.4203  0.9419
 3685TIP3    H211062   1.697   3.439   0.229 -1.5670 -0.4843  3.4983
 3686TIP3   OH211063   3.917   1.034   0.134  0.5367 -0.6170 -0.6130
 3686TIP3    H111064   3.853   1.098   0.166  1.2116 -0.9133  1.4823
 3686TIP3    H211065   3.865   0.958   0.110  0.0655 -0.8627  1.0829
 3687TIP3   OH211066   6.192   2.081   3.559 -0.1712  0.9589  0.5942
 3687TIP3    H111067   6.104   2.044   3.567 -0.3362  0.6536 -2.0214
 3687TIP3    H211068   6.186   2.165   3.606 -1.9871  1.1513  0.1190
 3688TIP3   OH211069   0.941   0.126   1.681  0.3252 -0.3655 -0.6169
 3688TIP3    H111070   1.010   0.092   1.737  1.1296  1.4171 -0.4633
 3688TIP3    H211071   0.860   0.091   1.718  0.9393 -0.2297  0.9215
 3689TIP3   OH211072   3.647   0.957   0.245  0.1528 -0.2232 -0.2755
 3689TIP3    H111073   3.623   1.019   0.176 -0.5786 -1.3128 -1.0376
 3689TIP3    H211074   3.689   0.885   0.198  1.0457 -0.2935  0.6056
 3690TIP3   OH211075   3.571   5.128   2.788  0.0395 -0.1327 -0.3207
 3690TIP3    H111076   3.604   5.074   2.859  0.1341  1.6597  1.0773
 3690TIP3    H211077   3.647   5.142   2.731  0.7793  0.8821  0.8718
 3691TIP3   OH211078   4.094   0.442   4.683 -0.1043 -1.3635  0.5816
 3691TIP3    H111079   4.142   0.408   4.759  0.9074 -0.2093  0.4896
 3691TIP3    H211080   4.153   0.431   4.609 -0.1573 -0.3733  0.3733
 3692TIP3   OH211081   0.196   0.263   2.650 -0.3829  0.0646 -0.1265
 3692TIP3    H111082   0.100   0.264   2.642 -0.6195  0.4366  2.0898
 3692TIP3    H211083   0.220   0.356   2.656  0.0660 -0.0444 -0.2090
 3693TIP3   OH211084   3.372   3.001   3.759  0.4830 -0.1448  0.8775
 3693TIP3    H111085   3.350   3.091   3.781  1.1638  0.4384 -0.6538
 3693TIP3    H211086   3.351   2.951   3.837  1.5661  1.5673  2.3428
 3694TIP3   OH211087   2.476   0.846   0.248 -0.7017 -0.0904  0.3633
 3694TIP3    H111088   2.555   0.819   0.295 -1.0672 -2.0501 -0.0679
 3694TIP3    H211089   2.508   0.902   0.177  0.3462 -1.1684 -0.0393
 3695TIP3   OH211090   0.156   1.922   0.906  0.3230  0.1911  0.1405
 3695TIP3    H111091   0.168   1.840   0.955  1.9409  0.7547  0.7468
 3695TIP3    H211092   0.109   1.979   0.967  0.2019  0.0928  0.1394
 3696TIP3   OH211093   4.007   3.984   3.470 -0.8679 -0.1790  0.0248
 3696TIP3    H111094   4.009   4.000   3.564 -0.9676 -3.1671  0.6519
 3696TIP3    H211095   3.994   4.070   3.430 -2.6204  0.9494  2.8013
 3697TIP3   OH211096   3.845   1.192   1.449 -0.2444 -0.1963 -0.5015
 3697TIP3    H111097   3.811   1.273   1.411  1.5731  0.2536 -1.2508
 3697TIP3    H211098   3.825   1.125   1.383  0.8397  0.1791 -1.2332
 3698TIP3   OH211099   2.985   0.740   1.081 -0.0483  0.0712  0.7263
 3698TIP3    H111100   2.935   0.714   1.003  0.1821 -0.3686  0.7243
 3698TIP3    H211101   2.986   0.836   1.078  0.7496  0.0431 -0.3131
 3699TIP3   OH211102   1.874   0.870   0.099 -0.4127 -0.5212  0.1638
 3699TIP3    H111103   1.934   0.796   0.107  0.1035 -0.0751  0.4825
 3699TIP3    H211104   1.801   0.849   0.156 -1.0472 -1.5282 -0.9753
 3700TIP3   OH211105   3.733   0.310   3.697  0.9315  0.2517 -0.0653
 3700TIP3    H111106   3.756   0.307   3.789 -0.4399 -0.1177  0.2898
 3700TIP3    H211107   3.699   0.222   3.678  1.8007  0.1115 -1.0967
 3701TIP3   OH211108   1.818   1.751   4.651 -0.2549 -0.1086  0.0411
 3701TIP3    H111109   1.911   1.750   4.628  0.0852  2.4494  1.0173
 3701TIP3    H211110   1.815   1.716   4.740 -0.0786  0.6914  0.3698
 3702TIP3   OH211111   0.719   2.989   4.350 -0.3445  0.7360 -0.0337
 3702TIP3    H111112   0.757   2.910   4.388  0.0914  1.3221  0.7866
 3702TIP3    H211113   0.635   2.961   4.315  0.6829 -0.5126 -1.6042
 3703TIP3   OH211114   4.931   0.349   1.047  0.0533  0.6540 -0.1036
 3703TIP3    H111115   4.922   0.325   0.955  0.0776  2.3794 -0.5825
 3703TIP3    H211116   4.871   0.423   1.059  1.2505  1.5091  0.8364
 3704TIP3   OH211117   2.345   2.583   3.059  0.2573  0.0408 -0.1645
 3704TIP3    H111118   2.307   2.670   3.052  0.4353  0.0140 -1.7792
 3704TIP3    H211119   2.417   2.593   3.121  1.6918  1.5850 -1.9424
 3705TIP3   OH211120   4.009   3.633   2.555  0.7027 -0.1823  0.5550
 3705TIP3    H111121   4.084   3.681   2.589  0.7477  1.0086 -1.0876
 3705TIP3    H211122   3.965   3.696   2.497 -0.0419 -1.6817 -0.5748
 3706TIP3   OH211123   0.264   1.927   3.238 -0.3676 -0.2978 -0.0498
 3706TIP3    H111124   0.211   1.860   3.282 -0.1170  0.2729  1.1688
 3706TIP3    H211125   0.255   2.004   3.294  0.8706  0.1305 -0.4194
 3707TIP3   OH211126   1.573   0.256   2.167  0.1302 -0.1870  0.0541
 3707TIP3    H111127   1.499   0.312   2.190 -0.4519 -0.8671 -0.0940
 3707TIP3    H211128   1.554   0.228   2.078  0.4413 -0.5677  0.1055
 3708TIP3   OH211129   4.900   1.009   0.928 -0.5111  0.2580 -0.1410
 3708TIP3    H111130   4.940   1.095   0.920  0.3194 -0.0758  0.2976
 3708TIP3    H211131   4.880   0.983   0.837 -1.5651  1.2599 -0.2142
 3709TIP3   OH211132   3.796   0.722   3.743 -1.2679  0.4620 -0.2532
 3709TIP3    H111133   3.868   0.774   3.707  0.1364 -0.1916  1.4405
 3709TIP3    H211134   3.822   0.631   3.725 -0.7093  0.1308  1.9405
 3710TIP3   OH211135   3.391   3.513   4.994  0.3655 -0.3849 -0.3834
 3710TIP3    H111136   3.435   3.553   5.070  0.6305 -1.7121  0.1971
 3710TIP3    H211137   3.455   3.451   4.960 -0.6947 -1.7006 -0.0793
 3711TIP3   OH211138   2.023   5.050   2.768 -0.6269  0.1113 -0.1817
 3711TIP3    H111139   1.997   5.077   2.856  0.1578  0.5408 -0.0749
 3711TIP3    H211140   1.978   5.111   2.710 -0.0984  0.6833 -0.0091
 3712TIP3   OH211141   4.369   4.494   3.692  0.3442  0.0126  0.3159
 3712TIP3    H111142   4.461   4.521   3.683 -0.0696  0.9444 -2.0981
 3712TIP3    H211143   4.366   4.405   3.657  0.1366  0.5308 -1.0674
 3713TIP3   OH211144   0.915   4.638   4.533 -0.0004  0.1759 -0.2511
 3713TIP3    H111145   1.000   4.681   4.539 -0.5471  1.4695 -1.2060
 3713TIP3    H211146   0.915   4.595   4.447 -0.5942  0.8749 -0.6157
 3714TIP3   OH211147   4.035   3.716   0.693  0.1553 -0.2199  0.3517
 3714TIP3    H111148   4.109   3.657   0.677  0.4135  0.1750  0.0543
 3714TIP3    H211149   4.066   3.773   0.764  0.9158  1.2368 -1.0967
 3715TIP3   OH211150   2.462   0.503   5.040  0.3684  0.3160 -0.7080
 3715TIP3    H111151   2.497   0.438   4.979  1.7109  1.2164 -0.9626
 3715TIP3    H211152   2.540   0.540   5.082 -0.3965  1.3095 -0.1121
 3716TIP3   OH211153   3.624   4.615   2.864 -0.6473  0.1047  0.7759
 3716TIP3    H111154   3.708   4.661   2.861  0.7626 -2.3220 -1.9957
 3716TIP3    H211155   3.627   4.567   2.947  0.9034 -0.2227  0.5655
 3717TIP3   OH211156   0.504   2.110   2.237  0.2314  0.0843 -0.1752
 3717TIP3    H111157   0.433   2.053   2.207 -1.3248  2.1281 -0.6204
 3717TIP3    H211158   0.533   2.155   2.157 -0.3470  1.7464  0.5145
 3718TIP3   OH211159   1.830   2.310   3.708  0.4843  0.2639  0.0496
 3718TIP3    H111160   1.825   2.215   3.718  0.1071  0.2896  0.1341
 3718TIP3    H211161   1.910   2.335   3.755 -0.8355  0.2914  2.4795
 3719TIP3   OH211162   0.979   5.824   4.584 -0.0317  0.3522 -0.4207
 3719TIP3    H111163   0.885   5.844   4.582 -0.0163  0.4153 -0.4897
 3719TIP3    H211164   1.000   5.797   4.495  0.3020  1.6398 -0.7531
 3720TIP3   OH211165   3.906   4.702   3.040 -0.0378  0.0106 -0.1855
 3720TIP3    H111166   3.977   4.727   3.098 -1.3697  0.2138  1.4359
 3720TIP3    H211167   3.848   4.649   3.094 -2.0427  1.3625 -0.8921
 3721TIP3   OH211168   2.499   0.926   1.942  0.3757 -0.0002  0.3135
 3721TIP3    H111169   2.544   0.967   1.868  2.8912 -1.4849  0.9203
 3721TIP3    H211170   2.430   0.874   1.901  1.3086 -0.2891 -0.9802
 3722TIP3   OH211171   1.652   1.683   2.625  0.0002 -0.2197  0.6577
 3722TIP3    H111172   1.581   1.688   2.689 -2.4198 -0.1885 -1.8671
 3722TIP3    H211173   1.673   1.774   2.605 -0.5749 -0.2138  0.0537
 3723TIP3   OH211174   1.689   4.162   1.846 -0.1496  0.2965  0.0752
 3723TIP3    H111175   1.704   4.215   1.768  0.1470 -0.1217 -0.1534
 3723TIP3    H211176   1.644   4.083   1.813  0.8979 -0.3597  0.1714
 3724TIP3   OH211177   0.325   1.987   5.052  0.1059  0.2789 -0.0186
 3724TIP3    H111178   0.285   1.901   5.044  0.4476  0.1775 -0.7300
 3724TIP3    H211179   0.319   2.008   5.145  0.5547 -0.7744  0.2681
 3725TIP3   OH211180   3.804   4.143   3.263  0.1907 -0.0230 -0.4273
 3725TIP3    H111181   3.742   4.177   3.198 -0.1530  1.2868  0.5570
 3725TIP3    H211182   3.791   4.197   3.340  1.4955 -0.7208  0.3235
 3726TIP3   OH211183   0.576   3.722   0.620  0.1029 -0.0090 -0.0062
 3726TIP3    H111184   0.602   3.771   0.542  0.8741 -0.5511 -0.1002
 3726TIP3    H211185   0.645   3.657   0.631 -0.6995 -0.8082  0.3549
 3727TIP3   OH211186   2.431   1.261   4.764 -0.1324  0.4631  0.5505
 3727TIP3    H111187   2.467   1.346   4.739  1.4223  0.1942  1.7534
 3727TIP3    H211188   2.359   1.282   4.823 -1.4787  0.9759 -1.1775
 3728TIP3   OH211189   5.626   0.550   1.128 -0.1803  0.0881 -0.4225
 3728TIP3    H111190   5.532   0.567   1.137 -0.3937 -1.3263  0.3647
 3728TIP3    H211191   5.667   0.611   1.188 -0.8308 -1.1812  1.4081
 3729TIP3   OH211192   2.759   3.323   1.674 -0.2076  0.3060 -0.4014
 3729TIP3    H111193   2.809   3.388   1.625  2.3605 -1.0130  0.2659
 3729TIP3    H211194   2.818   3.296   1.745 -1.5700 -1.9349 -0.0164
 3730TIP3   OH211195   0.964   5.478   2.464  0.2646 -0.0101 -0.0537
 3730TIP3    H111196   0.984   5.554   2.410 -1.2382 -0.3205 -1.0902
 3730TIP3    H211197   1.049   5.436   2.478  0.9948  1.3436 -0.2072
 3731TIP3   OH211198   0.187   2.875   1.491  0.3249  0.0139  0.0176
 3731TIP3    H111199   0.128   2.819   1.541  0.2749 -0.6983 -0.8032
 3731TIP3    H211200   0.257   2.897   1.552  1.5086 -2.7646 -0.1706
 3732TIP3   OH211201   1.686   3.872   4.396  0.2512 -0.2759  0.2264
 3732TIP3    H111202   1.752   3.889   4.329 -2.1034 -1.4439 -2.5913
 3732TIP3    H211203   1.639   3.955   4.404  0.7873 -0.0155  0.8021
 3733TIP3   OH211204   4.270   4.455   0.842  0.7808 -0.6973 -0.0032
 3733TIP3    H111205   4.182   4.417   0.841 -0.5373  2.0722  0.6392
 3733TIP3    H211206   4.257   4.545   0.870  4.0029 -0.5084  1.3532
 3734TIP3   OH211207   1.299   5.094   0.065  0.6723  0.0231 -0.2467
 3734TIP3    H111208   1.279   5.080  -0.028 -1.1386 -1.5708  0.3400
 3734TIP3    H211209   1.227   5.052   0.112  0.7006  2.1951  1.8937
 3735TIP3   OH211210   3.153   1.946   0.832 -0.1173 -0.3638  0.0696
 3735TIP3    H111211   3.153   1.900   0.748 -1.0885 -0.4397  0.1025
 3735TIP3    H211212   3.063   1.937   0.864  0.0654  0.2786  0.7790
 3736TIP3   OH211213   4.243   5.197   0.009  0.2684 -0.4081  0.0817
 3736TIP3    H111214   4.302   5.202   0.085  0.5139  0.4943 -0.1576
 3736TIP3    H211215   4.264   5.113  -0.031  2.4553  0.4931 -0.8294
 3737TIP3   OH211216   5.075   2.434   1.301 -0.0075 -0.4443  0.8259
 3737TIP3    H111217   4.991   2.456   1.342 -0.1693 -0.2415  0.3923
 3737TIP3    H211218   5.063   2.455   1.208  0.6449 -0.0436  0.8208
 3738TIP3   OH211219   1.668   2.078   0.633 -0.1548 -0.4368 -0.4992
 3738TIP3    H111220   1.585   2.037   0.653 -0.9271 -0.1150 -2.7435
 3738TIP3    H211221   1.721   2.066   0.712 -1.8062 -1.9151  0.4468
 3739TIP3   OH211222   3.372   2.415   0.751 -0.1830  0.0460  0.2064
 3739TIP3    H111223   3.419   2.448   0.827  1.2004 -1.7089  0.1765
 3739TIP3    H211224   3.373   2.320   0.761 -1.5304 -0.1520 -1.1232
 3740TIP3   OH211225   3.542   3.635   0.451  0.3784 -0.1487 -0.9108
 3740TIP3    H111226   3.625   3.626   0.496  0.0145 -1.1323 -0.4070
 3740TIP3    H211227   3.499   3.551   0.463 -1.4211  0.8687  0.2965
 3741TIP3   OH211228   1.345   4.956   0.455 -0.1437 -0.1583  0.1076
 3741TIP3    H111229   1.331   4.954   0.550  0.4014 -0.6282  0.1835
 3741TIP3    H211230   1.440   4.962   0.445 -0.2744  1.5145 -0.4041
 3742TIP3   OH211231   3.490   4.333   3.934 -0.0966  0.2250 -0.7061
 3742TIP3    H111232   3.428   4.373   3.996  0.4835  1.4696 -0.9059
 3742TIP3    H211233   3.526   4.258   3.982  1.7739  2.2277  1.2828
 3743TIP3   OH211234   1.205   1.030   2.832 -0.3962 -0.1124 -0.7750
 3743TIP3    H111235   1.287   1.032   2.882 -0.2582 -0.0024 -1.0023
 3743TIP3    H211236   1.138   1.007   2.896 -0.3259  0.6930 -0.4028
 3744TIP3   OH211237   5.030   6.007   3.153 -0.7373  0.1772  0.2090
 3744TIP3    H111238   5.060   5.947   3.221  1.7692  0.5925 -0.4257
 3744TIP3    H211239   5.012   5.952   3.077  1.4355  0.1401 -0.3329
 3745TIP3   OH211240   0.653   3.928   2.946 -0.0442  0.2697  0.2442
 3745TIP3    H111241   0.606   3.966   3.020 -0.2066 -0.5518  0.5747
 3745TIP3    H211242   0.685   3.844   2.979  0.2094  0.0660 -0.5058
 3746TIP3   OH211243   5.823   1.543   3.568 -0.3735  0.2424 -0.4903
 3746TIP3    H111244   5.894   1.548   3.505 -0.7062 -0.8650 -0.9611
 3746TIP3    H211245   5.851   1.477   3.632 -0.6012  0.4325 -0.1901
 3747TIP3   OH211246   6.059   3.643   0.645 -0.1701  0.0261 -0.6314
 3747TIP3    H111247   6.094   3.652   0.734 -1.3309  2.6021 -0.3503
 3747TIP3    H211248   5.978   3.593   0.656 -1.1021  1.6178  0.0438
 3748TIP3   OH211249   0.726   2.742   0.668 -0.5870  0.4289  0.8947
 3748TIP3    H111250   0.661   2.782   0.610 -1.7071 -0.3808  1.5618
 3748TIP3    H211251   0.688   2.657   0.692  1.3684 -0.7199  0.1533
 3749TIP3   OH211252   3.619   1.176   1.783 -0.3336  0.1476 -0.0143
 3749TIP3    H111253   3.699   1.133   1.752 -0.9390  0.0700 -1.5561
 3749TIP3    H211254   3.575   1.109   1.835  0.5998  0.2028  0.8828
 3750TIP3   OH211255   1.009   1.857   3.813  0.0900  0.1563 -0.4667
 3750TIP3    H111256   0.987   1.772   3.851 -2.3623  0.0376 -1.8822
 3750TIP3    H211257   1.086   1.886   3.861 -0.8439 -1.4356  2.2249
 3751TIP3   OH211258   2.948   3.570   1.652 -0.1506 -0.3373 -0.1385
 3751TIP3    H111259   2.976   3.619   1.575 -2.3328 -0.0791 -0.8359
 3751TIP3    H211260   3.011   3.593   1.720  0.4716  1.2565 -1.2087
 3752TIP3   OH211261   0.919   0.877   0.864  0.0553 -0.9609  0.4163
 3752TIP3    H111262   0.905   0.936   0.790  1.5693  0.1456  0.9623
 3752TIP3    H211263   0.978   0.810   0.830 -0.6081 -1.4389  0.1728
 3753TIP3   OH211264   3.428   0.496   3.984 -0.6409  0.1029 -0.3473
 3753TIP3    H111265   3.416   0.485   4.079  2.2442  0.9529  0.2254
 3753TIP3    H211266   3.340   0.513   3.951 -1.7698 -0.3431  2.1563
 3754TIP3   OH211267   4.772   1.942   2.277  0.0376  0.5266 -0.2469
 3754TIP3    H111268   4.736   1.873   2.332 -0.2065  0.0318 -1.0079
 3754TIP3    H211269   4.775   2.019   2.333 -1.4928  0.3849  0.0564
 3755TIP3   OH211270   3.825   3.478   1.553 -0.4220  0.6092  0.2833
 3755TIP3    H111271   3.794   3.557   1.597 -0.5773  0.0811  1.1417
 3755TIP3    H211272   3.850   3.508   1.466 -0.1283  1.6726  0.7159
 3756TIP3   OH211273   3.039   3.322   3.000 -0.2341  0.5507  0.3057
 3756TIP3    H111274   3.000   3.237   3.021  1.0336 -0.1033  0.1077
 3756TIP3    H211275   3.043   3.324   2.905  0.5564  0.4344  0.3286
 3757TIP3   OH211276   0.608   5.042   0.315 -0.4275  0.4541  0.1702
 3757TIP3    H111277   0.701   5.024   0.324 -0.3071  1.0786  0.2283
 3757TIP3    H211278   0.578   5.057   0.405 -0.4736  0.7632  0.1042
 3758TIP3   OH211279   4.098   1.912   2.122  0.0906  0.3594  0.0880
 3758TIP3    H111280   4.074   1.990   2.171 -1.7967  0.2295 -0.5479
 3758TIP3    H211281   4.049   1.919   2.040  0.0065 -1.3928 -0.0466
 3759TIP3   OH211282   1.117   3.457   0.252  0.1807 -0.3299  0.4691
 3759TIP3    H111283   1.102   3.366   0.278  1.1592 -0.6493 -0.0335
 3759TIP3    H211284   1.040   3.504   0.285 -0.9946 -1.5480 -0.4116
 3760TIP3   OH211285   1.890   2.553   4.546  0.3514 -0.0014  0.5580
 3760TIP3    H111286   1.798   2.579   4.550  0.1301 -0.8172  0.9351
 3760TIP3    H211287   1.888   2.460   4.523  1.1196  0.2131 -0.4259
 3761TIP3   OH211288   3.168   0.209   0.410 -0.3629  0.0360 -0.1643
 3761TIP3    H111289   3.144   0.261   0.333 -0.5174  2.2777  1.2963
 3761TIP3    H211290   3.258   0.236   0.429 -0.1774 -0.8164  0.1923
 3762TIP3   OH211291   6.357   2.968   1.790  0.1541  0.0378  0.0231
 3762TIP3    H111292   6.308   2.996   1.713 -1.2528 -2.6109 -0.1992
 3762TIP3    H211293   6.365   3.046   1.844 -3.1978  0.9638 -0.5811
 3763TIP3   OH211294   1.431   2.720   2.071 -0.3081 -0.1022  0.6703
 3763TIP3    H111295   1.361   2.721   2.006 -0.8233 -1.9087  1.1322
 3763TIP3    H211296   1.493   2.654   2.040  0.5325  0.5561  0.9227
 3764TIP3   OH211297   0.690   3.192   2.686 -0.3302 -0.3308 -0.1474
 3764TIP3    H111298   0.704   3.104   2.721 -1.8852 -0.0188  1.4213
 3764TIP3    H211299   0.778   3.229   2.680  0.2616 -1.5985  0.2815
 3765TIP3   OH211300   3.355   1.712   2.090  0.1138  0.2944 -0.3740
 3765TIP3    H111301   3.308   1.670   2.019 -0.2838  0.5821 -0.2861
 3765TIP3    H211302   3.288   1.729   2.157  0.2017  1.2918 -0.5145
 3766TIP3   OH211303   5.325   4.069   0.570  0.6712 -0.3065  0.1395
 3766TIP3    H111304   5.327   4.105   0.482  2.4793 -1.2650 -0.2554
 3766TIP3    H211305   5.292   4.141   0.625  1.9595  1.1814 -0.9450
 3767TIP3   OH211306   5.310   4.802   3.567  0.2931 -0.0433  0.5210
 3767TIP3    H111307   5.332   4.729   3.510  1.9387 -0.4746  1.6335
 3767TIP3    H211308   5.336   4.880   3.517 -0.5003 -0.2604 -0.2488
 3768TIP3   OH211309   5.150   2.180   2.574 -0.6686  0.2923  0.7013
 3768TIP3    H111310   5.094   2.207   2.648 -2.4409 -1.1608 -0.0220
 3768TIP3    H211311   5.160   2.086   2.586 -1.7570 -0.1346 -1.3467
 3769TIP3   OH211312   2.072   4.112   0.065  0.3166 -0.2223  0.2549
 3769TIP3    H111313   2.035   4.113   0.153 -0.3898  0.8574 -0.0439
 3769TIP3    H211314   2.134   4.039   0.066  0.2404 -0.2835  1.6121
 3770TIP3   OH211315   1.412   3.526   0.267  0.5512 -0.4594 -0.1548
 3770TIP3    H111316   1.408   3.467   0.341  1.4978 -1.5191 -0.9175
 3770TIP3    H211317   1.322   3.534   0.237 -0.1955  1.6047  2.2889
 3771TIP3   OH211318   0.232   5.093   1.642  0.2251  0.1453 -0.2876
 3771TIP3    H111319   0.298   5.163   1.639 -0.6214  0.9373 -2.2251
 3771TIP3    H211320   0.148   5.140   1.647 -0.3369 -0.7276 -1.1617
 3772TIP3   OH211321   1.339   1.495   1.862  0.2713  0.4732 -0.5227
 3772TIP3    H111322   1.284   1.438   1.916  0.0889  1.2731  0.1703
 3772TIP3    H211323   1.350   1.448   1.780  1.9162 -1.5478  0.7536
 3773TIP3   OH211324   5.887   5.322   1.586  0.1334 -0.0082  0.2317
 3773TIP3    H111325   5.922   5.349   1.671  1.1182  1.4408 -0.5765
 3773TIP3    H211326   5.829   5.394   1.560 -0.5279 -0.6560 -0.1283
 3774TIP3   OH211327   4.743   1.898   1.980  0.3579 -0.0236 -0.7040
 3774TIP3    H111328   4.803   1.955   1.932  0.9368 -0.6602 -0.7570
 3774TIP3    H211329   4.737   1.937   2.067  0.9437 -0.0187 -0.6628
 3775TIP3   OH211330   2.556   2.444   2.476 -0.1922  0.8875 -0.1938
 3775TIP3    H111331   2.627   2.385   2.501 -1.3298 -0.8728 -0.9775
 3775TIP3    H211332   2.567   2.519   2.535  0.7256 -0.5013  1.5257
 3776TIP3   OH211333   0.929   5.138   3.665  0.2985  0.1509 -0.0754
 3776TIP3    H111334   0.965   5.226   3.668 -2.0964  1.3816 -2.7855
 3776TIP3    H211335   0.990   5.089   3.610  1.2449  0.2701  0.8359
 3777TIP3   OH211336   2.582   5.954   3.558  0.0018  0.5866  0.4471
 3777TIP3    H111337   2.614   6.002   3.482  0.1894  1.5129  1.0991
 3777TIP3    H211338   2.632   5.872   3.558  1.1435  1.2695  0.4764
 3778TIP3   OH211339   3.095   0.712   0.703  0.1033 -0.2313 -0.0044
 3778TIP3    H111340   3.101   0.661   0.622 -0.1627 -0.1735 -0.0618
 3778TIP3    H211341   3.178   0.694   0.749  0.8080  0.7247 -0.8662
 3779TIP3   OH211342   2.503   3.874   5.067  0.1532 -0.2284 -0.1060
 3779TIP3    H111343   2.485   3.955   5.114 -0.8529 -0.8949  0.7288
 3779TIP3    H211344   2.416   3.837   5.050  0.5074 -0.2119 -2.1639
 3780TIP3   OH211345   6.253   5.553   3.510  0.2462  0.2781 -0.1409
 3780TIP3    H111346   6.246   5.467   3.553  2.0554  0.0127 -0.3086
 3780TIP3    H211347   6.168   5.565   3.467  0.0690 -1.6043 -0.4190
 3781TIP3   OH211348   1.787   0.370   4.264 -0.6875  0.4188  0.4735
 3781TIP3    H111349   1.787   0.356   4.170  1.2624 -0.5758  0.5679
 3781TIP3    H211350   1.848   0.304   4.298 -0.1421  1.7675  2.2618
 3782TIP3   OH211351   5.130   3.557   3.253  0.2543  0.0279 -0.1158
 3782TIP3    H111352   5.184   3.508   3.191 -0.7476 -1.2236 -0.0477
 3782TIP3    H211353   5.060   3.496   3.277 -1.1110  1.5306 -0.0965
 3783TIP3   OH211354   4.826   1.791   4.684 -0.0768  0.0509  0.0406
 3783TIP3    H111355   4.902   1.756   4.731  0.6431 -1.0167 -1.8416
 3783TIP3    H211356   4.760   1.805   4.753  1.1603 -0.7685  1.4521
 3784TIP3   OH211357   2.429   4.207   1.313 -0.1969 -0.2131 -0.1781
 3784TIP3    H111358   2.382   4.228   1.232  0.6375  0.7770 -0.4271
 3784TIP3    H211359   2.517   4.241   1.299 -0.0473 -0.0101  1.1649
 3785TIP3   OH211360   1.144   5.182   1.805 -0.5073 -0.0912 -0.0530
 3785TIP3    H111361   1.116   5.173   1.896 -0.8262  1.3145  0.0190
 3785TIP3    H211362   1.066   5.212   1.759 -0.4776 -1.2589 -0.9060
 3786TIP3   OH211363   2.199   2.884   1.937  0.0458  0.1419  0.1721
 3786TIP3    H111364   2.158   2.926   2.013  0.3276 -0.3184  0.5853
 3786TIP3    H211365   2.268   2.945   1.911  0.7331 -0.2396  1.0343
 3787TIP3   OH211366   4.244   4.670   1.989  0.1964 -0.2543  0.1823
 3787TIP3    H111367   4.270   4.762   1.985  1.9506 -0.7404 -2.6965
 3787TIP3    H211368   4.310   4.628   2.044 -1.4260  0.3425  2.7235
 3788TIP3   OH211369   0.689   2.889   3.544  0.4731  0.0200  0.6669
 3788TIP3    H111370   0.697   2.827   3.616  2.1880  0.0773  0.5748
 3788TIP3    H211371   0.642   2.963   3.581 -0.2741 -0.6963  1.1964
 3789TIP3   OH211372   6.146   4.460   1.573  0.2247 -0.1940  0.0378
 3789TIP3    H111373   6.070   4.457   1.515  1.9933  1.0281 -2.5079
 3789TIP3    H211374   6.108   4.459   1.661 -2.5925 -2.2651 -1.0246
 3790TIP3   OH211375   0.035   5.516   3.265  0.0983 -0.0147  0.1857
 3790TIP3    H111376   0.005   5.570   3.338  1.8724  4.9340 -2.2635
 3790TIP3    H211377   0.123   5.548   3.247 -0.2332 -0.9336 -4.0739
 3791TIP3   OH211378   2.954   1.763   4.850 -0.0152  0.1038  0.5298
 3791TIP3    H111379   2.972   1.671   4.833 -0.3656  0.0949  0.1776
 3791TIP3    H211380   2.872   1.763   4.901  0.2263  0.2009  0.9207
 3792TIP3   OH211381   1.206   2.775   1.905 -0.2089 -0.1113 -0.4600
 3792TIP3    H111382   1.134   2.798   1.963  1.0169 -1.2329  1.6729
 3792TIP3    H211383   1.244   2.858   1.879 -1.1055  0.4381 -0.0474
 3793TIP3   OH211384   5.476   2.612   3.880  0.4032 -0.3745  0.5430
 3793TIP3    H111385   5.448   2.524   3.855 -1.7662  0.6927 -1.1842
 3793TIP3    H211386   5.455   2.619   3.973  1.0679 -1.8236  0.8233
 3794TIP3   OH211387   3.846   2.170   3.784 -0.1603  0.0493 -0.1615
 3794TIP3    H111388   3.789   2.229   3.735 -0.7191 -0.5530 -0.2522
 3794TIP3    H211389   3.786   2.118   3.837  0.3942  0.2261  0.6568
 3795TIP3   OH211390   2.858   0.865   0.673 -0.0286  0.0608  0.1809
 3795TIP3    H111391   2.913   0.789   0.689 -0.3290 -0.0038  0.9911
 3795TIP3    H211392   2.793   0.835   0.610 -1.1607 -0.8916  1.7154
 3796TIP3   OH211393   0.570   4.275   4.721 -0.1190  0.0053  0.1354
 3796TIP3    H111394   0.637   4.341   4.708  0.3610 -0.4137  0.4573
 3796TIP3    H211395   0.618   4.195   4.742 -0.6919 -0.4241 -0.1368
 3797TIP3   OH211396   4.138   0.049   1.115 -0.2998 -0.0030  0.9494
 3797TIP3    H111397   4.178   0.022   1.032 -1.0727  1.1034  0.1799
 3797TIP3    H211398   4.212   0.056   1.176  0.2379 -1.1188  0.4430
 3798TIP3   OH211399   1.033   5.380   3.698  0.0731 -0.6916 -0.2570
 3798TIP3    H111400   1.024   5.471   3.668 -0.6015 -0.8792 -0.6453
 3798TIP3    H211401   1.127   5.363   3.695  0.5664  0.8612  2.4316
 3799TIP3   OH211402   4.894   3.699   0.490  0.1057  0.1953  0.5520
 3799TIP3    H111403   4.976   3.720   0.536 -1.3395  0.8199  3.0479
 3799TIP3    H211404   4.860   3.784   0.462 -0.0366  0.0045  0.1399
 3800TIP3   OH211405   3.388   4.913   2.740  0.5214 -0.4407 -0.3085
 3800TIP3    H111406   3.426   4.998   2.763 -2.1515  0.7720  0.0378
 3800TIP3    H211407   3.349   4.928   2.654 -0.9752 -0.9298  0.2558
 3801TIP3   OH211408   0.967   3.022   1.034  0.1652 -0.0399 -0.1317
 3801TIP3    H111409   0.917   2.941   1.029  2.0316 -1.2173 -0.6803
 3801TIP3    H211410   0.949   3.066   0.950 -0.3576 -0.1721 -0.0945
 3802TIP3   OH211411   3.583   4.707   0.122  0.2589  0.0902 -0.8426
 3802TIP3    H111412   3.639   4.721   0.199  1.6234 -0.8712 -1.6302
 3802TIP3    H211413   3.590   4.789   0.072 -1.0315  0.9235  0.2304
 3803TIP3   OH211414   0.793   2.553   1.557  0.5099  0.0531 -0.8083
 3803TIP3    H111415   0.697   2.545   1.557  0.4515  0.7072 -0.4409
 3803TIP3    H211416   0.810   2.639   1.596  1.2710 -0.3770 -0.1594
 3804TIP3   OH211417   2.684   2.386   3.620 -0.7077  0.0632 -0.0929
 3804TIP3    H111418   2.662   2.313   3.563 -0.4637 -0.1968  0.1439
 3804TIP3    H211419   2.600   2.422   3.647 -0.9740 -2.3104  2.6347
 3805TIP3   OH211420   5.946   5.554   3.066 -0.4010 -0.3290 -0.1658
 3805TIP3    H111421   6.007   5.493   3.107 -2.3799 -2.1262  0.2470
 3805TIP3    H211422   5.907   5.505   2.994  0.0015  1.4375 -1.6904
 3806TIP3   OH211423   1.498   1.757   3.775  0.1434 -0.2299 -0.5555
 3806TIP3    H111424   1.532   1.691   3.835  1.2334  0.8192  0.0246
 3806TIP3    H211425   1.572   1.781   3.720  0.0914  1.2778 -0.0249
 3807TIP3   OH211426   5.689   5.670   3.993  0.1084 -0.0263  0.1312
 3807TIP3    H111427   5.754   5.601   4.008 -0.2266 -0.3592  0.0404
 3807TIP3    H211428   5.742   5.748   3.975  0.7004 -1.1877 -4.8416
 3808TIP3   OH211429   6.308   0.817   2.715  0.2023  0.3325  0.3951
 3808TIP3    H111430   6.390   0.862   2.734  0.5448  0.2486 -0.7712
 3808TIP3    H211431   6.321   0.779   2.628 -1.1428  0.4985  0.0950
 3809TIP3   OH211432   2.059   5.021   5.049 -0.1484  0.0376  0.2107
 3809TIP3    H111433   2.126   4.970   5.093  1.2804  1.9748  0.4174
 3809TIP3    H211434   2.077   5.112   5.074 -2.1188  0.7452 -0.7006
 3810TIP3   OH211435   3.795   5.816   1.691 -0.1010  0.2513  0.6473
 3810TIP3    H111436   3.864   5.819   1.624 -0.5338 -2.9816 -0.1144
 3810TIP3    H211437   3.841   5.797   1.772  0.1237  0.7502  0.6394
 3811TIP3   OH211438   2.382   3.772   0.715 -0.4787 -0.4211  0.3667
 3811TIP3    H111439   2.430   3.819   0.784  0.1533  0.9989 -0.9789
 3811TIP3    H211440   2.405   3.680   0.729 -0.3726 -0.1758  2.0440
 3812TIP3   OH211441   1.823   4.634   3.668  0.3792 -0.2606 -0.2281
 3812TIP3    H111442   1.843   4.579   3.592  0.7691 -0.2271 -0.1520
 3812TIP3    H211443   1.774   4.576   3.726  2.6890 -1.2632  0.8509
 3813TIP3   OH211444   2.235   2.833   1.508  0.1015 -0.4033 -0.6799
 3813TIP3    H111445   2.317   2.867   1.472 -0.1228  0.8729 -0.0402
 3813TIP3    H211446   2.186   2.911   1.534 -1.1594 -1.1664 -0.6976
 3814TIP3   OH211447   4.207   5.973   1.093 -0.1611  0.0714 -0.0875
 3814TIP3    H111448   4.259   5.989   1.172  2.3221  0.7581 -1.7239
 3814TIP3    H211449   4.187   5.879   1.095 -0.0294  0.0653  1.2780
 3815TIP3   OH211450   3.335   4.649   3.860 -0.0734  0.7384 -0.4860
 3815TIP3    H111451   3.413   4.616   3.815  0.1417  1.3170 -0.5484
 3815TIP3    H211452   3.266   4.588   3.837  0.4010  0.1183 -0.2947
 3816TIP3   OH211453   5.457   4.165   1.618 -0.4198 -0.2596 -0.5653
 3816TIP3    H111454   5.388   4.156   1.684 -1.0344  1.1772 -0.9714
 3816TIP3    H211455   5.496   4.250   1.637  1.1123 -0.9591 -0.4890
 3817TIP3   OH211456   1.008   2.371   2.957  0.3846  0.0289  0.1787
 3817TIP3    H111457   0.976   2.408   2.875 -0.2408  1.1857  0.9232
 3817TIP3    H211458   1.104   2.373   2.947  0.3351 -2.4106 -1.5988
 3818TIP3   OH211459   1.446   2.138   3.202  0.1958 -0.1390 -0.4891
 3818TIP3    H111460   1.527   2.178   3.233 -0.0819  0.0562 -0.0006
 3818TIP3    H211461   1.422   2.077   3.271  0.3006 -0.7187 -0.9604
 3819TIP3   OH211462   4.571   3.286   1.919  0.0223 -0.0781  0.6613
 3819TIP3    H111463   4.572   3.191   1.929  1.7648 -0.0996  0.5572
 3819TIP3    H211464   4.633   3.318   1.985 -0.6439  1.0080  0.7889
 3820TIP3   OH211465   5.598   0.316   1.002 -0.7709 -0.1760 -0.2960
 3820TIP3    H111466   5.575   0.237   1.051 -0.5879 -0.0908 -0.0697
 3820TIP3    H211467   5.621   0.380   1.069  2.0047 -0.8231 -0.4928
 3821TIP3   OH211468   2.397   3.537   1.911  0.2509 -0.3225  0.3530
 3821TIP3    H111469   2.462   3.467   1.921  1.8662  0.4485 -3.1915
 3821TIP3    H211470   2.408   3.591   1.989  1.7690 -1.8697  1.2773
 3822TIP3   OH211471   1.421   3.695   1.369  0.5889 -0.0611  0.3211
 3822TIP3    H111472   1.456   3.608   1.388  1.8105 -0.2660 -2.3934
 3822TIP3    H211473   1.343   3.679   1.317 -1.2182  0.4992  2.6851
 3823TIP3   OH211474   5.797   0.683   4.267  0.1734  0.7559  0.9810
 3823TIP3    H111475   5.852   0.648   4.336 -1.6797 -1.3231  1.5172
 3823TIP3    H211476   5.714   0.704   4.310 -1.0168 -0.5389 -0.5322
 3824TIP3   OH211477   6.002   5.107   1.285  0.2498  0.5293  0.1741
 3824TIP3    H111478   5.994   5.011   1.284 -0.5029  0.5589 -1.8133
 3824TIP3    H211479   6.006   5.130   1.378  2.6758 -1.5592  0.6959
 3825TIP3   OH211480   3.016   2.355   1.911 -0.1583 -0.0189  0.1499
 3825TIP3    H111481   3.024   2.314   1.998  0.1248  1.3091  0.7770
 3825TIP3    H211482   3.098   2.404   1.900 -0.3965  0.2106 -0.6610
 3826TIP3   OH211483   1.575   0.515   1.938 -0.2465 -0.3448  0.4129
 3826TIP3    H111484   1.633   0.538   2.010  0.6063 -1.0770 -0.0220
 3826TIP3    H211485   1.585   0.586   1.874  2.1952 -1.6616 -0.8206
 3827TIP3   OH211486   2.239   3.509   4.277  0.1535  0.4868  0.0353
 3827TIP3    H111487   2.335   3.504   4.275  0.0725 -1.6819 -1.0894
 3827TIP3    H211488   2.213   3.448   4.346 -0.4507  0.4047 -0.2576
 3828TIP3   OH211489   3.413   0.090   4.621 -0.1465  0.3870 -0.1357
 3828TIP3    H111490   3.503   0.103   4.590 -0.3865  1.9276 -0.2296
 3828TIP3    H211491   3.385   0.176   4.651 -1.4847 -0.1505  0.2098
 3829TIP3   OH211492   0.737   4.893   4.307 -0.3704  0.4706 -0.6198
 3829TIP3    H111493   0.679   4.861   4.376 -0.6083  0.2038 -0.9387
 3829TIP3    H211494   0.739   4.988   4.320  0.9425  0.2956  0.8056
 3830TIP3   OH211495   1.906   1.975   1.631 -0.6645  0.1482  0.6637
 3830TIP3    H111496   1.999   1.975   1.608 -0.7663 -0.5961  0.2206
 3830TIP3    H211497   1.904   1.942   1.721 -0.3753  1.7991  1.3124
 3831TIP3   OH211498   4.833   3.460   2.923 -0.0548  0.0726 -0.0675
 3831TIP3    H111499   4.883   3.535   2.891  0.2693  0.2752  0.8918
 3831TIP3    H211500   4.900   3.396   2.948 -0.2992 -0.0649  0.2377
 3832TIP3   OH211501   2.048   2.018   4.578 -1.0432  0.5746 -0.4144
 3832TIP3    H111502   1.975   2.052   4.526 -2.6279 -1.8617  0.0771
 3832TIP3    H211503   2.097   1.963   4.518 -1.2973 -0.0772 -0.0323
 3833TIP3   OH211504   0.733   3.725   5.114 -0.1510 -0.5857  0.7059
 3833TIP3    H111505   0.654   3.762   5.077  0.6550 -0.9505 -1.5062
 3833TIP3    H211506   0.802   3.789   5.094  0.5563 -1.4533  0.2992
 3834TIP3   OH211507   0.962   5.361   1.648  0.1652  0.2967 -0.3910
 3834TIP3    H111508   0.982   5.357   1.554  0.4954 -0.5281 -0.2855
 3834TIP3    H211509   1.037   5.406   1.687  1.4113 -1.8582 -0.1429
 3835TIP3   OH211510   2.077   1.716   4.571 -0.2399 -0.0710 -0.0828
 3835TIP3    H111511   2.105   1.625   4.562 -1.0912 -0.3967  0.4524
 3835TIP3    H211512   2.093   1.755   4.485 -0.2381 -0.8249 -0.4289
 3836TIP3   OH211513   5.135   0.901   4.440  0.7022  0.1592  0.1451
 3836TIP3    H111514   5.182   0.983   4.425  1.0295  0.0455  0.5182
 3836TIP3    H211515   5.129   0.860   4.354  1.2038  0.2211  0.0793
 3837TIP3   OH211516   2.430   3.195   3.870 -0.3382 -0.0907  0.5209
 3837TIP3    H111517   2.431   3.269   3.931 -1.0004 -0.2071  0.6829
 3837TIP3    H211518   2.378   3.128   3.915  0.6962 -0.8567  0.6036
 3838TIP3   OH211519   2.260   2.528   0.057 -0.6825  0.1273 -0.0964
 3838TIP3    H111520   2.351   2.555   0.049 -0.6222  1.2775  3.2410
 3838TIP3    H211521   2.263   2.448   0.110 -1.6517  1.0461  1.4101
 3839TIP3   OH211522   4.204   2.770   0.647 -0.6443  0.4448  0.4973
 3839TIP3    H111523   4.286   2.721   0.652  0.5409  2.3205  0.7466
 3839TIP3    H211524   4.204   2.807   0.559 -1.5499 -0.0460  0.2849
 3840TIP3   OH211525   3.174   0.562   3.220 -0.1711  0.0129  0.8678
 3840TIP3    H111526   3.263   0.546   3.252  0.1854  0.3211  0.0678
 3840TIP3    H211527   3.161   0.495   3.153  0.9547  2.2516 -1.7999
 3841TIP3   OH211528   2.591   1.617   2.962  0.2285 -0.3412 -0.2114
 3841TIP3    H111529   2.567   1.654   2.877  0.6778  0.0420 -0.1738
 3841TIP3    H211530   2.623   1.530   2.942  0.4661 -0.1999 -0.4521
 3842TIP3   OH211531   2.821   5.807   2.996  0.0685 -0.7937 -0.1885
 3842TIP3    H111532   2.844   5.733   3.053 -1.9625 -1.7417 -0.5073
 3842TIP3    H211533   2.733   5.831   3.022 -1.2395 -1.7259 -3.2852
 3843TIP3   OH211534   6.200   4.089   0.229  0.3480  0.0720  0.8155
 3843TIP3    H111535   6.276   4.037   0.204  0.2249  0.0763  0.4314
 3843TIP3    H211536   6.172   4.051   0.313  1.6638  1.0305  1.7352
 3844TIP3   OH211537   3.293   1.136   2.650 -0.0565 -0.1651 -0.1910
 3844TIP3    H111538   3.236   1.059   2.653 -0.8073  0.2840 -1.7600
 3844TIP3    H211539   3.251   1.195   2.588  1.7012  0.5410 -0.7905
 3845TIP3   OH211540   0.388   1.914   0.170 -0.3518 -0.0495  0.4396
 3845TIP3    H111541   0.467   1.905   0.117 -1.3745  1.2316 -1.4337
 3845TIP3    H211542   0.396   1.846   0.238  1.7494 -0.7363 -0.4170
 3846TIP3   OH211543   5.913   1.990   2.807 -0.1593 -0.0238 -0.0821
 3846TIP3    H111544   5.916   2.039   2.889  1.2308  0.0099 -0.1265
 3846TIP3    H211545   5.862   1.912   2.827 -1.6653  1.0019  0.2227
 3847TIP3   OH211546   0.717   3.242   4.450 -0.2636  0.0519  0.5229
 3847TIP3    H111547   0.719   3.285   4.364 -0.2036  1.7481  1.3223
 3847TIP3    H211548   0.731   3.149   4.431  1.2269  0.5649 -1.1799
 3848TIP3   OH211549   1.014   1.848   4.174  0.3059 -0.1519  0.0475
 3848TIP3    H111550   0.950   1.917   4.154 -1.1396 -1.1565  0.9751
 3848TIP3    H211551   0.993   1.778   4.113  0.0382 -0.7659  0.8333
 3849TIP3   OH211552   5.735   3.390   3.377  0.4161 -0.7470 -0.0277
 3849TIP3    H111553   5.735   3.361   3.468  1.6543 -0.6432  0.0152
 3849TIP3    H211554   5.653   3.356   3.341 -2.3219  2.7887  2.2089
 3850TIP3   OH211555   0.894   2.522   3.164 -0.6622  0.3440 -0.6537
 3850TIP3    H111556   0.932   2.563   3.241 -2.4141 -1.3853  1.2724
 3850TIP3    H211557   0.827   2.584   3.134 -1.4061  0.1630  0.5519
 3851TIP3   OH211558   3.836   4.749   3.866 -0.7158 -0.6059  0.2318
 3851TIP3    H111559   3.880   4.720   3.946 -1.3421  2.8044  2.0369
 3851TIP3    H211560   3.765   4.805   3.898 -0.2613  1.8835 -2.6619
 3852TIP3   OH211561   1.324   5.150   1.272  0.1810 -0.1136  0.1681
 3852TIP3    H111562   1.243   5.119   1.231 -0.0430  0.9402 -0.2283
 3852TIP3    H211563   1.298   5.173   1.361 -0.6889  2.9450 -0.7608
 3853TIP3   OH211564   4.906   2.858   0.590  0.1634 -0.4066  0.0010
 3853TIP3    H111565   4.913   2.854   0.495  1.1361 -1.2709  0.1012
 3853TIP3    H211566   4.842   2.791   0.613  0.8736 -1.0750  0.0481
 3854TIP3   OH211567   4.025   2.415   3.771 -1.1299 -0.6069 -0.6474
 3854TIP3    H111568   3.953   2.353   3.787 -0.2373 -1.3109  0.7751
 3854TIP3    H211569   4.070   2.423   3.855 -0.0093  0.4491 -1.3102
 3855TIP3   OH211570   5.288   4.340   0.090  0.5338  0.4006 -0.0515
 3855TIP3    H111571   5.330   4.286   0.023  0.5338 -0.4439  0.6124
 3855TIP3    H211572   5.322   4.429   0.074  2.2185 -0.1649  0.1777
 3856TIP3   OH211573   2.088   2.574   3.788  0.1583  0.4308 -0.1092
 3856TIP3    H111574   2.171   2.588   3.835 -0.4448  0.5457  0.9580
 3856TIP3    H211575   2.071   2.480   3.798  0.1761  0.4028 -0.3525
 3857TIP3   OH211576   4.828   5.532   1.930 -0.0889  0.2055 -0.5717
 3857TIP3    H111577   4.914   5.502   1.903  0.3045 -0.4406  1.2708
 3857TIP3    H211578   4.768   5.496   1.863  0.8999 -0.5280 -1.0855
 3858TIP3   OH211579   1.426   2.023   2.622  0.9999  0.6875  0.1911
 3858TIP3    H111580   1.335   2.053   2.625  0.1365 -1.7593  0.7307
 3858TIP3    H211581   1.454   2.042   2.532 -0.4589  0.4160 -0.3473
 3859TIP3   OH211582   4.299   1.464   1.006 -0.4496  0.4070  0.3940
 3859TIP3    H111583   4.383   1.467   1.053  0.0591  2.0285 -0.5100
 3859TIP3    H211584   4.255   1.387   1.040  0.9304  0.1531  1.7342
 3860TIP3   OH211585   0.898   2.067   1.043  0.1472 -0.6868 -0.4872
 3860TIP3    H111586   0.821   2.024   1.082  0.7263 -2.4207 -1.1786
 3860TIP3    H211587   0.968   2.002   1.049  1.7751  1.0601  0.6618
 3861TIP3   OH211588   5.944   1.153   4.045  0.5155 -0.1889 -0.7160
 3861TIP3    H111589   5.885   1.145   4.120  0.6663 -0.4020 -0.6170
 3861TIP3    H211590   5.961   1.063   4.018  1.1017 -0.1499 -0.5016
 3862TIP3   OH211591   3.341   4.159   3.116 -0.1811  0.5139 -0.2395
 3862TIP3    H111592   3.421   4.198   3.079 -0.2556  1.3806  0.5022
 3862TIP3    H211593   3.357   4.155   3.210 -0.8479  0.2955 -0.1296
 3863TIP3   OH211594   4.514   3.041   2.462  0.4194  0.4081  0.1694
 3863TIP3    H111595   4.483   3.084   2.382 -0.9649  0.8911  0.9403
 3863TIP3    H211596   4.517   2.948   2.439 -0.2290  0.5117 -0.3704
 3864TIP3   OH211597   3.039   0.753   4.905 -0.2762  0.1627  0.3476
 3864TIP3    H111598   3.076   0.743   4.992  1.1186 -0.3563 -0.2764
 3864TIP3    H211599   2.953   0.709   4.910  0.0896 -0.4687  1.2621
 3865TIP3   OH211600   4.189   3.344   3.810  0.2091  0.0146  0.0701
 3865TIP3    H111601   4.162   3.427   3.849 -1.4305  0.0550 -1.0368
 3865TIP3    H211602   4.181   3.358   3.716 -0.6145 -1.5257 -0.1334
 3866TIP3   OH211603   0.393   2.025   1.216 -0.2754  0.1467  0.4757
 3866TIP3    H111604   0.484   2.044   1.239  0.2643 -0.8931 -0.6733
 3866TIP3    H211605   0.349   2.014   1.300  0.5077  1.3185  1.0539
 3867TIP3   OH211606   1.195   4.731   4.527  0.5932  0.0636 -0.0585
 3867TIP3    H111607   1.213   4.822   4.506  1.6960 -0.2241 -0.4195
 3867TIP3    H211608   1.211   4.684   4.445 -0.0891 -0.4482  0.0873
 3868TIP3   OH211609   2.031   2.225   2.499 -0.2719 -0.0815  0.3201
 3868TIP3    H111610   2.022   2.308   2.453  0.1108  0.4008  1.0945
 3868TIP3    H211611   2.125   2.207   2.499 -0.3336 -0.4119  0.3283
 3869TIP3   OH211612   3.865   0.208   0.550  0.2165  0.2116 -0.4015
 3869TIP3    H111613   3.874   0.215   0.455  0.1489  0.2443 -0.4055
 3869TIP3    H211614   3.807   0.133   0.564 -0.5700  0.8070 -0.4185
 3870TIP3   OH211615   3.185   5.410   1.367 -0.0491 -0.0432 -0.0761
 3870TIP3    H111616   3.156   5.419   1.458  0.7516  2.0383  0.0355
 3870TIP3    H211617   3.104   5.408   1.317 -0.5212  1.6819  0.5193
 3871TIP3   OH211618   2.304   0.660   5.200  0.4491  0.1441  0.7844
 3871TIP3    H111619   2.362   0.628   5.131 -0.7233 -0.6514  0.1381
 3871TIP3    H211620   2.229   0.600   5.198  0.9367 -0.6932  3.5957
 3872TIP3   OH211621   3.246   3.815   4.957  0.2803 -0.1771 -0.1064
 3872TIP3    H111622   3.287   3.816   5.044  1.3577  0.8019 -0.6062
 3872TIP3    H211623   3.298   3.877   4.905 -0.5800 -0.4673 -1.3482
 3873TIP3   OH211624   3.513   2.944   0.144 -0.0522 -0.0278 -0.5944
 3873TIP3    H111625   3.465   2.864   0.121 -0.0822  0.1621 -1.2059
 3873TIP3    H211626   3.447   3.003   0.179 -0.3561  0.3912 -1.8279
 3874TIP3   OH211627   1.240   0.315   1.792 -0.0663 -0.4837  0.0104
 3874TIP3    H111628   1.205   0.232   1.759 -0.3119 -0.9045  1.3054
 3874TIP3    H211629   1.182   0.339   1.864  1.5900 -0.6137  1.4569
 3875TIP3   OH211630   0.172   2.158   0.744 -0.2900  0.2436 -0.2375
 3875TIP3    H111631   0.150   2.243   0.783 -2.8422 -0.5093  0.1873
 3875TIP3    H211632   0.092   2.131   0.699  0.7500 -1.5329 -1.1282
 3876TIP3   OH211633   1.000   3.994   1.241  0.4970 -0.5411  0.0171
 3876TIP3    H111634   1.008   4.037   1.325  0.3366  0.8823 -0.6766
 3876TIP3    H211635   0.924   3.936   1.251 -0.7069  1.0235  0.2823
 3877TIP3   OH211636   4.831   2.298   1.040  0.3269 -0.2140  0.0702
 3877TIP3    H111637   4.888   2.374   1.055 -0.7289  0.9807 -1.6031
 3877TIP3    H211638   4.748   2.322   1.080 -0.1973 -0.2147 -1.0030
 3878TIP3   OH211639   2.159   5.713   1.930 -0.0519 -0.0304 -0.1683
 3878TIP3    H111640   2.086   5.657   1.959  0.0091  0.6675  1.4261
 3878TIP3    H211641   2.237   5.663   1.954  0.0013  0.6384  1.1506
 3879TIP3   OH211642   4.945   1.411   3.151 -0.3876 -0.1670 -0.6152
 3879TIP3    H111643   4.890   1.346   3.108 -0.4258  2.1172 -4.4026
 3879TIP3    H211644   5.035   1.385   3.131 -0.4075  0.9659 -2.4164
 3880TIP3   OH211645   6.037   4.922   5.170 -0.2516  0.1511  0.2409
 3880TIP3    H111646   6.069   5.006   5.137  2.1222 -0.4574  0.7434
 3880TIP3    H211647   6.031   4.866   5.093 -0.6914  0.4347  0.0646
 3881TIP3   OH211648   3.123   0.684   5.143  0.0786 -0.2330 -0.1710
 3881TIP3    H111649   3.111   0.723   5.229 -2.1460 -2.4417  0.6337
 3881TIP3    H211650   3.217   0.664   5.138  0.0924 -0.9880  2.1848
 3882TIP3   OH211651   0.760   1.695   4.652 -0.0610 -0.0429 -0.1904
 3882TIP3    H111652   0.823   1.698   4.724 -0.2380  2.2230 -0.0635
 3882TIP3    H211653   0.681   1.657   4.691  0.6165 -1.1896  0.1215
 3883TIP3   OH211654   2.226   2.754   3.287 -0.0122 -0.3590 -0.2320
 3883TIP3    H111655   2.194   2.819   3.349  1.4124  0.2485 -0.0978
 3883TIP3    H211656   2.191   2.782   3.202  1.4348  1.2307 -0.3568
 3884TIP3   OH211657   3.548   4.815   2.329  0.3415  0.1767 -0.2062
 3884TIP3    H111658   3.566   4.725   2.302  2.1700  0.6141 -0.6132
 3884TIP3    H211659   3.462   4.811   2.370 -0.2124 -1.4938 -1.4258
 3885TIP3   OH211660   5.136   0.898   1.259  0.0062 -0.4272  0.2797
 3885TIP3    H111661   5.229   0.886   1.239  0.2578  0.1581  1.0384
 3885TIP3    H211662   5.092   0.831   1.208  0.7513 -0.0655 -0.8852
 3886TIP3   OH211663   5.310   2.071   1.085 -0.9114 -0.0937 -0.1650
 3886TIP3    H111664   5.227   2.112   1.107 -1.1298  0.4293 -1.8359
 3886TIP3    H211665   5.287   1.996   1.031 -0.3271 -0.3745 -0.0382
 3887TIP3   OH211666   3.175   4.238   4.263 -0.6182  0.7421  0.6400
 3887TIP3    H111667   3.085   4.245   4.297 -0.7847 -0.8866  0.5771
 3887TIP3    H211668   3.169   4.175   4.192  0.2314  2.1632 -0.7452
 3888TIP3   OH211669   5.419   3.769   0.424  0.0168 -0.5192 -0.3752
 3888TIP3    H111670   5.507   3.806   0.429  0.2313 -1.0544 -0.2171
 3888TIP3    H211671   5.432   3.675   0.418 -0.5401 -0.5868 -0.6073
 3889TIP3   OH211672   2.295   3.386   4.705  0.0197 -0.1202 -0.2975
 3889TIP3    H111673   2.374   3.429   4.739 -0.0789  1.7762 -2.2548
 3889TIP3    H211674   2.224   3.422   4.758  0.1337  0.8813 -0.7872
 3890TIP3   OH211675   0.579   1.976   0.521  0.3789  0.2395 -0.6949
 3890TIP3    H111676   0.619   1.932   0.447  0.4334 -0.5706 -0.2014
 3890TIP3    H211677   0.578   2.068   0.497  1.8262  0.1899 -1.0534
 3891TIP3   OH211678   3.400   0.849   4.306  0.5159 -0.5586  0.0073
 3891TIP3    H111679   3.344   0.925   4.291  2.0597  0.6963  0.2720
 3891TIP3    H211680   3.410   0.810   4.220 -0.4096 -0.5516 -0.1128
 3892TIP3   OH211681   5.576   1.838   4.307  0.0114 -0.2437  0.2787
 3892TIP3    H111682   5.649   1.820   4.248  0.9903  0.3394  1.2772
 3892TIP3    H211683   5.596   1.923   4.346 -1.2322 -0.0490  0.5273
 3893TIP3   OH211684   5.514   1.247   2.199  0.4136 -0.2466  0.0976
 3893TIP3    H111685   5.475   1.320   2.246 -0.2706 -0.3468 -0.3162
 3893TIP3    H211686   5.518   1.275   2.108  0.0788 -0.7532 -0.0772
 3894TIP3   OH211687   5.242   0.027   4.295  0.5670 -0.3258 -0.0174
 3894TIP3    H111688   5.246   0.120   4.274  2.1066  0.0274  1.6418
 3894TIP3    H211689   5.264   0.022   4.388 -1.2948 -2.2117  0.3969
 3895TIP3   OH211690   2.164   2.052   0.150 -0.0773 -0.2900 -0.2452
 3895TIP3    H111691   2.088   2.084   0.101 -0.9806 -0.4187  1.0206
 3895TIP3    H211692   2.198   1.980   0.097 -1.7779 -1.2394 -0.1273
 3896TIP3   OH211693   4.936   3.480   4.880 -0.6916 -0.5484  0.5354
 3896TIP3    H111694   4.976   3.393   4.889  1.1458  0.0628 -1.2018
 3896TIP3    H211695   4.966   3.512   4.796 -2.0003  1.4847  0.7700
 3897TIP3   OH211696   2.420   2.023   2.835  0.0570 -0.3956  0.0122
 3897TIP3    H111697   2.437   2.117   2.844  0.9017 -0.7289  3.8497
 3897TIP3    H211698   2.327   2.014   2.856  0.2429 -0.4490  0.8888
 3898TIP3   OH211699   2.671   4.729   0.567  0.3125  0.2298 -0.2042
 3898TIP3    H111700   2.664   4.703   0.475  2.8864  0.1396 -0.4532
 3898TIP3    H211701   2.620   4.809   0.574  1.2568  1.0340 -2.0854
 3899TIP3   OH211702   5.220   5.753   0.931 -0.3280  0.4073  0.1396
 3899TIP3    H111703   5.283   5.761   1.003  0.0099  0.5747 -0.1689
 3899TIP3    H211704   5.137   5.782   0.969 -0.3081 -0.2052  0.6660
 3900TIP3   OH211705   1.884   5.634   2.746 -0.0847 -0.1560  0.0869
 3900TIP3    H111706   1.915   5.609   2.659  0.3744 -0.7985  0.4334
 3900TIP3    H211707   1.826   5.709   2.730 -0.3872 -0.5711 -0.8216
 3901TIP3   OH211708   4.194   5.274   4.917  0.0014 -0.1890  0.2313
 3901TIP3    H111709   4.112   5.228   4.934  0.0168 -0.2413  0.1623
 3901TIP3    H211710   4.182   5.361   4.956  0.1210 -0.3900  0.7299
 3902TIP3   OH211711   1.288   3.574   1.166  0.1372 -0.2615 -0.6249
 3902TIP3    H111712   1.228   3.633   1.121 -0.4172  0.0227  0.4536
 3902TIP3    H211713   1.358   3.557   1.103 -0.9079 -0.3500 -1.7899
 3903TIP3   OH211714   4.583   5.781   4.738 -0.0907 -0.4569 -0.0717
 3903TIP3    H111715   4.543   5.852   4.789  0.7052  1.0425 -1.4249
 3903TIP3    H211716   4.549   5.793   4.649  0.8814 -1.1144 -0.5506
 3904TIP3   OH211717   5.654   1.524   3.095  0.2058 -0.2715  0.1358
 3904TIP3    H111718   5.571   1.566   3.075 -1.2509 -2.8152  0.3659
 3904TIP3    H211719   5.702   1.524   3.012 -0.7329 -0.1913 -0.4158
 3905TIP3   OH211720   0.074   0.408   4.595  0.3389 -0.4705  0.6911
 3905TIP3    H111721   0.066   0.423   4.689  1.0723 -1.7820  0.9859
 3905TIP3    H211722   0.014   0.471   4.555 -0.6197 -0.4762  2.0759
 3906TIP3   OH211723   4.398   0.302   3.265 -0.3499  0.6846  0.1579
 3906TIP3    H111724   4.327   0.367   3.262 -0.9035  0.2268  2.0519
 3906TIP3    H211725   4.401   0.266   3.176 -1.5153  1.7293 -0.3388
 3907TIP3   OH211726   2.599   4.803   2.198 -0.4908  0.1008 -0.1448
 3907TIP3    H111727   2.523   4.753   2.229  0.4152 -0.1823  1.7756
 3907TIP3    H211728   2.594   4.886   2.247  0.0388  0.3665 -0.5353
 3908TIP3   OH211729   2.230   2.870   0.255  0.4714  0.1133  0.5986
 3908TIP3    H111730   2.136   2.867   0.243  0.5500  0.6221 -0.3154
 3908TIP3    H211731   2.264   2.890   0.167  1.5033 -1.2637  0.6628
 3909TIP3   OH211732   2.000   0.094   1.942 -0.6632  0.3574 -0.0207
 3909TIP3    H111733   2.030   0.047   1.864 -0.4652 -0.0338  0.2906
 3909TIP3    H211734   2.059   0.169   1.949  0.1372 -0.3018  0.4770
 3910TIP3   OH211735   5.434   5.631   4.762 -0.1257  0.1729 -0.2190
 3910TIP3    H111736   5.502   5.576   4.724  0.3953  0.4236  0.3382
 3910TIP3    H211737   5.465   5.650   4.850 -0.7899  0.5123 -0.0544
 3911TIP3   OH211738   2.697   2.490   3.991  0.5905  0.8165  0.3084
 3911TIP3    H111739   2.737   2.529   4.069 -0.2768  1.1478  0.6000
 3911TIP3    H211740   2.741   2.406   3.981  1.3950  1.1989  0.5858
 3912TIP3   OH211741   1.916   5.914   2.240 -0.4746 -0.1732  0.4790
 3912TIP3    H111742   1.909   5.998   2.285  0.7752 -0.2649  0.8930
 3912TIP3    H211743   1.868   5.926   2.158  0.8221  1.4274 -0.1059
 3913TIP3   OH211744   5.565   4.264   3.514 -0.7235  0.3538 -0.5207
 3913TIP3    H111745   5.606   4.179   3.527  0.2142  0.9105  0.2458
 3913TIP3    H211746   5.610   4.301   3.438  1.0979  1.4612  1.0195
 3914TIP3   OH211747   0.444   1.227   0.751 -0.2725 -0.0760 -0.2381
 3914TIP3    H111748   0.426   1.227   0.845 -0.9742  1.0431 -0.3486
 3914TIP3    H211749   0.467   1.136   0.730 -1.8795 -0.7351  0.6897
 3915TIP3   OH211750   5.626   1.170   3.800 -0.5342 -0.2515 -0.1586
 3915TIP3    H111751   5.605   1.195   3.710 -2.8461  1.0567  0.6602
 3915TIP3    H211752   5.682   1.241   3.832  1.6264 -1.4970 -0.9648
 3916TIP3   OH211753   5.222   1.613   0.152 -0.2801 -0.3417  0.1082
 3916TIP3    H111754   5.137   1.570   0.147 -0.4708  0.2038 -2.5731
 3916TIP3    H211755   5.266   1.571   0.226 -0.8736 -4.3956 -1.6076
 3917TIP3   OH211756   4.826   4.678   1.645 -0.1132  0.0149 -0.2113
 3917TIP3    H111757   4.785   4.618   1.583  0.4897 -0.1266 -0.4847
 3917TIP3    H211758   4.847   4.755   1.593 -1.5287  0.7679  0.2957
 3918TIP3   OH211759   2.000   2.367   1.158  0.3289 -0.4945  0.9617
 3918TIP3    H111760   2.022   2.335   1.245  1.2924  0.2631  1.0107
 3918TIP3    H211761   2.079   2.411   1.127 -0.4535  0.5199  0.3010
 3919TIP3   OH211762   5.893   2.850   4.696  0.4007 -0.1253  0.7357
 3919TIP3    H111763   5.830   2.871   4.765  1.0604  1.2406  0.9611
 3919TIP3    H211764   5.929   2.765   4.721  0.9982  0.5776  2.3704
 3920TIP3   OH211765   4.020   0.480   1.510  0.3630 -0.2514  0.6255
 3920TIP3    H111766   3.984   0.522   1.589 -0.8120  0.2285 -0.1316
 3920TIP3    H211767   4.070   0.549   1.466  2.0960 -0.8568  1.5562
 3921TIP3   OH211768   0.952   1.123   2.403  0.6762  0.4791  0.2192
 3921TIP3    H111769   0.910   1.209   2.392 -0.1598 -0.0337 -0.7431
 3921TIP3    H211770   0.954   1.109   2.498 -0.0072  1.1613  0.3433
 3922TIP3   OH211771   0.331   4.013   2.081 -0.3218  0.6170 -0.6394
 3922TIP3    H111772   0.358   4.104   2.090 -1.0130  0.6492  1.7634
 3922TIP3    H211773   0.280   4.011   2.000  1.5301  1.8517 -1.9203
 3923TIP3   OH211774   5.633   3.642   5.043 -0.2903 -0.2925 -0.1969
 3923TIP3    H111775   5.563   3.703   5.019  0.4591  0.1258 -1.4457
 3923TIP3    H211776   5.695   3.648   4.970  2.1650  0.9908  1.8276
 3924TIP3   OH211777   1.131   0.256   4.358 -0.2639  0.0129  0.3565
 3924TIP3    H111778   1.049   0.306   4.366  0.2645  0.9695 -0.0413
 3924TIP3    H211779   1.193   0.303   4.413  0.1933 -0.3407  0.1448
 3925TIP3   OH211780   2.009   5.757   3.438  0.4903  0.4594  0.3974
 3925TIP3    H111781   1.979   5.806   3.361 -0.5231  1.0457  1.1254
 3925TIP3    H211782   2.058   5.683   3.403  1.4361  1.5858 -0.7661
 3926TIP3   OH211783   5.015   4.667   3.451 -0.4136 -0.2853  1.1060
 3926TIP3    H111784   5.072   4.723   3.398  0.2295  0.6042  2.6446
 3926TIP3    H211785   5.069   4.591   3.473  0.1449  0.4280  2.3339
 3927TIP3   OH211786   0.274   2.547   1.587  0.1637  0.6429 -0.2616
 3927TIP3    H111787   0.334   2.545   1.513  1.3698  0.9586  0.6688
 3927TIP3    H211788   0.243   2.637   1.590  0.3561  0.7090 -0.2092
 3928TIP3   OH211789   1.296   3.415   4.322  0.0948  0.2153  0.4783
 3928TIP3    H111790   1.220   3.357   4.317  0.3372 -0.0393 -0.8470
 3928TIP3    H211791   1.336   3.409   4.235  0.7662  1.5191  0.6710
 3929TIP3   OH211792   1.596   1.538   0.474 -0.5253 -0.3832 -0.0440
 3929TIP3    H111793   1.645   1.470   0.521 -0.6834  1.3438  2.8930
 3929TIP3    H211794   1.662   1.584   0.421  0.2256 -0.7407  0.5670
 3930TIP3   OH211795   4.148   1.689   0.536 -0.4874  0.0141 -0.3311
 3930TIP3    H111796   4.086   1.682   0.463 -0.1496 -0.1872 -0.5998
 3930TIP3    H211797   4.181   1.779   0.529  0.3712 -0.3488 -1.1047
 3931TIP3   OH211798   1.228   1.261   4.594 -0.3697  0.5700  0.4533
 3931TIP3    H111799   1.180   1.192   4.639 -1.0881  0.6033 -0.2330
 3931TIP3    H211800   1.291   1.293   4.658  0.3372 -1.0674  0.6338
 3932TIP3   OH211801   3.082   0.973   3.583  0.3600 -0.1045 -0.4282
 3932TIP3    H111802   3.139   0.910   3.538 -0.1483 -0.5619 -0.4415
 3932TIP3    H211803   3.015   0.995   3.519 -1.0679 -1.6719  0.4474
 3933TIP3   OH211804   6.075   3.380   2.474  0.0363 -0.0253 -0.4704
 3933TIP3    H111805   6.062   3.445   2.405 -0.9303 -0.8897 -1.1348
 3933TIP3    H211806   5.997   3.386   2.529 -0.9314 -1.7933 -1.5556
 3934TIP3   OH211807   0.940  -0.007   1.932 -0.8789 -0.4179 -0.1680
 3934TIP3    H111808   0.870  -0.040   1.988 -1.0402 -0.7241 -0.5506
 3934TIP3    H211809   0.991   0.051   1.990 -0.4307 -1.5292  0.6026
 3935TIP3   OH211810   2.935   4.967   0.098  0.4352  0.1878  0.0295
 3935TIP3    H111811   2.880   4.967   0.019 -0.3370  0.0195  0.5583
 3935TIP3    H211812   3.010   4.912   0.074  1.3199  1.8757 -1.3162
 3936TIP3   OH211813   0.911   1.265   1.509  0.2617 -0.4389 -0.0127
 3936TIP3    H111814   0.952   1.201   1.452 -1.0147 -2.0733  0.8366
 3936TIP3    H211815   0.954   1.348   1.486  0.6462 -1.2306 -2.4371
 3937TIP3   OH211816   4.531   1.846   5.069  0.1170  0.3452  0.6702
 3937TIP3    H111817   4.526   1.763   5.022  0.4468  0.0925  1.0768
 3937TIP3    H211818   4.447   1.889   5.052 -0.1064 -0.1297  0.5768
 3938TIP3   OH211819   5.331   0.626   2.860 -0.3658 -0.8147 -0.2470
 3938TIP3    H111820   5.404   0.644   2.919  1.0147 -1.3145 -1.7190
 3938TIP3    H211821   5.356   0.544   2.815 -1.6972 -0.8498 -0.9881
 3939TIP3   OH211822   2.548   0.176   1.073  0.2433  0.0569 -0.4946
 3939TIP3    H111823   2.615   0.152   1.009 -0.1640 -0.9608 -0.5543
 3939TIP3    H211824   2.472   0.122   1.050 -0.4453  0.8482 -0.1413
 3940TIP3   OH211825   4.126   2.608   2.957 -0.0704  0.1701 -0.2659
 3940TIP3    H111826   4.171   2.691   2.969  0.2529 -0.0534  0.1183
 3940TIP3    H211827   4.189   2.554   2.909 -1.5823  1.2516 -3.7397
 3941TIP3   OH211828   4.606   4.845   2.447 -0.3443  0.2180  0.3614
 3941TIP3    H111829   4.510   4.847   2.443 -0.6945 -4.4717  0.9398
 3941TIP3    H211830   4.633   4.827   2.357  0.0475  1.5191  0.2018
 3942TIP3   OH211831   3.140   1.506   4.132  0.2530 -0.5482 -0.3810
 3942TIP3    H111832   3.046   1.487   4.134 -0.1568  1.2692 -0.0603
 3942TIP3    H211833   3.157   1.549   4.216  1.1185  0.1665 -0.9103
 3943TIP3   OH211834   0.024   4.139   1.595  0.0372 -0.2172 -0.1888
 3943TIP3    H111835  -0.069   4.144   1.574 -0.6660 -0.6142  2.4504
 3943TIP3    H211836   0.056   4.064   1.545 -1.8388 -2.0923  1.2454
 3944TIP3   OH211837   1.567   0.996   1.733 -0.4620  0.2388 -0.3507
 3944TIP3    H111838   1.507   1.069   1.750  1.1526  1.5968 -0.2198
 3944TIP3    H211839   1.573   0.990   1.638  0.9644  1.6781 -0.3885
 3945TIP3   OH211840   3.904   3.506   0.333  0.0203  0.5515  0.4666
 3945TIP3    H111841   3.857   3.550   0.263  1.1934 -0.8700 -1.3161
 3945TIP3    H211842   3.876   3.415   0.327 -0.8246  0.6058  2.7442
 3946TIP3   OH211843   5.091   5.429   0.252  0.1492  0.2383  0.4214
 3946TIP3    H111844   5.111   5.489   0.324 -0.0679  0.6910  0.1086
 3946TIP3    H211845   5.027   5.476   0.198  2.4934  1.1858 -1.7272
 3947TIP3   OH211846   5.609   5.810   1.640 -0.0136 -0.6382 -0.0570
 3947TIP3    H111847   5.626   5.776   1.728  0.4885  2.8972  1.3663
 3947TIP3    H211848   5.681   5.870   1.623 -0.1528 -1.1501 -2.9211
 3948TIP3   OH211849   5.941   2.331   5.072  0.0497 -0.1472 -0.4821
 3948TIP3    H111850   5.986   2.248   5.090  0.5981  0.2645  0.0598
 3948TIP3    H211851   6.010   2.397   5.072 -0.6704  0.7145  1.8184
 3949TIP3   OH211852   3.820   5.429   4.052 -0.3278  0.0747  0.5265
 3949TIP3    H111853   3.878   5.502   4.074  0.2013  0.2092 -1.2039
 3949TIP3    H211854   3.772   5.458   3.975 -1.1495 -0.8780  0.6536
 3950TIP3   OH211855   2.117   3.748   1.015  0.0277  0.2697  0.3426
 3950TIP3    H111856   2.028   3.752   0.980  0.1395  0.8952  0.1205
 3950TIP3    H211857   2.113   3.683   1.085 -0.5941  0.2666  0.3028
 3951TIP3   OH211858   5.685   2.985   0.465 -0.3124  0.0594 -0.7591
 3951TIP3    H111859   5.620   3.015   0.401 -2.1375 -1.8319  0.1076
 3951TIP3    H211860   5.634   2.944   0.534  1.6980  0.7331  1.2382
 3952TIP3   OH211861   0.608   2.109   2.810 -0.2027 -0.2637 -0.0574
 3952TIP3    H111862   0.517   2.105   2.839  0.2101  0.6540  1.4550
 3952TIP3    H211863   0.655   2.052   2.871  0.2485 -0.7536 -0.8467
 3953TIP3   OH211864   5.156   4.526   2.398  0.5167  0.0886 -0.1460
 3953TIP3    H111865   5.246   4.505   2.375  0.8570  0.4585  0.8104
 3953TIP3    H211866   5.123   4.448   2.442  0.2892 -0.1282 -0.6872
 3954TIP3   OH211867   0.537   0.781   2.776  0.4117  0.0615 -0.4067
 3954TIP3    H111868   0.495   0.867   2.778  0.9746  0.3559 -0.8732
 3954TIP3    H211869   0.549   0.762   2.683  1.1118 -0.1073 -0.2868
 3955TIP3   OH211870   2.832   0.629   2.195  0.0609 -0.3156 -0.1481
 3955TIP3    H111871   2.837   0.535   2.183 -1.7595 -0.6235  1.0572
 3955TIP3    H211872   2.751   0.655   2.151  0.1788  0.5743  0.1242
 3956TIP3   OH211873   4.176   2.045   3.550 -0.0793 -0.4071 -0.4073
 3956TIP3    H111874   4.154   2.003   3.633 -0.2116 -1.1111 -0.7810
 3956TIP3    H211875   4.108   2.013   3.489 -0.9563  1.3893 -0.4186
 3957TIP3   OH211876   3.223   4.724   1.531 -0.2626  0.1482  0.2098
 3957TIP3    H111877   3.225   4.630   1.551  1.8630 -0.2590 -1.6162
 3957TIP3    H211878   3.211   4.766   1.616 -2.0288 -1.7444  0.9969
 3958TIP3   OH211879   5.205   4.121   1.519 -0.5314 -0.2445 -0.5314
 3958TIP3    H111880   5.297   4.148   1.523 -0.7373  0.3226  0.8847
 3958TIP3    H211881   5.157   4.200   1.494 -0.7854 -0.1433  0.2573
 3959TIP3   OH211882   1.097   0.956   1.884  0.2894 -0.0725 -0.8651
 3959TIP3    H111883   1.038   0.981   1.955 -0.8460 -0.1394 -1.7473
 3959TIP3    H211884   1.053   0.987   1.805 -0.3668 -3.2498 -1.8903
 3960TIP3   OH211885   0.497   4.700   1.670  0.5473  0.2453 -0.1493
 3960TIP3    H111886   0.548   4.625   1.638  0.8142  0.1693  0.4337
 3960TIP3    H211887   0.561   4.771   1.677  0.2073  0.6677 -1.1340
 3961TIP3   OH211888   3.838   4.753   3.385 -0.1810  0.2980  0.0115
 3961TIP3    H111889   3.876   4.722   3.468 -0.4572 -1.2013 -0.3915
 3961TIP3    H211890   3.744   4.743   3.397 -0.3024  1.2289 -0.0650
 3962TIP3   OH211891   2.153   4.210   4.104  0.0345  0.4075 -0.2027
 3962TIP3    H111892   2.117   4.159   4.177  1.0085  1.1919  0.8478
 3962TIP3    H211893   2.135   4.156   4.026 -2.7789  0.4379  0.3228
 3963TIP3   OH211894   0.312   0.239   0.002  0.0398  0.1286  0.5205
 3963TIP3    H111895   0.308   0.333   0.017 -2.8992  0.5403 -1.8839
 3963TIP3    H211896   0.260   0.201   0.074 -0.9597  0.6083  0.0640
 3964TIP3   OH211897   1.626   1.381   1.156  0.1961  0.0866  0.0813
 3964TIP3    H111898   1.670   1.351   1.077  1.1235  0.3929  0.4694
 3964TIP3    H211899   1.573   1.306   1.184  0.3375 -0.2289 -0.4805
 3965TIP3   OH211900   5.211   2.555   2.080 -0.5225 -0.4918  0.2150
 3965TIP3    H111901   5.292   2.566   2.030 -0.7521 -0.1159 -0.0804
 3965TIP3    H211902   5.147   2.612   2.036 -0.7336 -0.1544  0.9427
 3966TIP3   OH211903   2.652   5.453   2.127 -0.2530  0.0468 -0.8543
 3966TIP3    H111904   2.684   5.499   2.205  0.6151  1.8046 -2.1839
 3966TIP3    H211905   2.726   5.453   2.066 -0.7502 -1.7589 -1.5238
 3967TIP3   OH211906   2.379   3.904   1.140  0.2821  0.1113  0.6372
 3967TIP3    H111907   2.347   3.906   1.230  0.2071  0.9641  0.6003
 3967TIP3    H211908   2.300   3.890   1.087  0.0325  1.5406  0.5913
 3968TIP3   OH211909   2.712   3.496   5.159  0.3190 -0.1021 -0.5411
 3968TIP3    H111910   2.736   3.452   5.078  1.7303  1.0382 -0.7846
 3968TIP3    H211911   2.776   3.466   5.223 -1.2662 -1.6128  0.4096
 3969TIP3   OH211912   2.993   2.742   0.731  0.9209  0.4002 -0.2231
 3969TIP3    H111913   3.045   2.795   0.791  0.7270 -0.1507  0.4473
 3969TIP3    H211914   2.910   2.729   0.777  1.7325 -2.3017  0.5998
 3970TIP3   OH211915   4.479   2.279   2.441  0.5598 -0.2811 -0.2713
 3970TIP3    H111916   4.408   2.222   2.413  0.0105 -0.2521  0.9658
 3970TIP3    H211917   4.461   2.363   2.400  0.5237 -0.5850 -0.8789
 3971TIP3   OH211918   0.485   4.255   3.770 -0.4821 -0.2197 -0.1107
 3971TIP3    H111919   0.482   4.334   3.823 -0.8068 -1.3763  1.6877
 3971TIP3    H211920   0.406   4.206   3.795 -0.2930 -1.1080 -1.1716
 3972TIP3   OH211921   3.424   3.858   4.648  0.9950 -0.5804  0.0527
 3972TIP3    H111922   3.411   3.917   4.723  0.3180 -0.3467 -0.2395
 3972TIP3    H211923   3.337   3.848   4.610  0.8132 -2.9129  0.9229
 3973TIP3   OH211924   3.298   3.659   1.725  0.6283  0.1953 -0.9724
 3973TIP3    H111925   3.281   3.690   1.636  1.5748 -1.0902 -1.6304
 3973TIP3    H211926   3.391   3.637   1.726  0.4508 -0.6119  0.0813
 3974TIP3   OH211927   2.520   4.648   1.966  0.1606  0.3104  0.6544
 3974TIP3    H111928   2.601   4.627   1.920  0.5686 -1.8731  2.1969
 3974TIP3    H211929   2.547   4.707   2.036 -0.0331  1.5913 -0.3300
 3975TIP3   OH211930   5.403   2.936   4.485 -0.1790 -0.1870 -0.8040
 3975TIP3    H111931   5.485   2.962   4.527 -0.8089 -0.9677  1.0621
 3975TIP3    H211932   5.384   3.006   4.423  2.3163 -0.4199 -1.9665
 3976TIP3   OH211933   6.000   2.686   4.470  0.2375  0.4412  0.2893
 3976TIP3    H111934   5.955   2.734   4.401 -0.4979  0.3529  0.6955
 3976TIP3    H211935   5.930   2.640   4.516  0.9437 -1.4523 -0.4090
 3977TIP3   OH211936   2.563   5.935   2.159 -0.1124 -0.0245 -0.1694
 3977TIP3    H111937   2.591   5.890   2.239  0.1294 -2.2099 -1.4021
 3977TIP3    H211938   2.610   6.018   2.162  1.6921 -1.0048  0.8760
 3978TIP3   OH211939   3.933   2.022   0.729 -0.5729  0.2675 -0.3540
 3978TIP3    H111940   3.923   2.015   0.634  0.6712 -2.4197 -0.3760
 3978TIP3    H211941   3.976   2.106   0.743 -0.2784  0.4613 -2.2207
 3979TIP3   OH211942   4.451   2.975   4.208  0.1824 -0.0346  0.4732
 3979TIP3    H111943   4.374   3.032   4.206  0.7842  0.7910  0.0381
 3979TIP3    H211944   4.524   3.034   4.190  0.8131 -0.9811 -0.1460
 3980TIP3   OH211945   6.164   3.665   5.108  0.2744  0.2227 -0.2190
 3980TIP3    H111946   6.249   3.630   5.137 -0.0244 -0.1782  0.1858
 3980TIP3    H211947   6.187   3.741   5.054  0.9974 -1.2024 -2.0497
 3981TIP3   OH211948   5.701   5.109   1.630 -0.5645 -0.1086  0.2672
 3981TIP3    H111949   5.685   5.050   1.556  0.3294 -1.1277  0.8622
 3981TIP3    H211950   5.730   5.190   1.589 -0.5082 -0.5153 -0.5303
 3982TIP3   OH211951   5.525   2.635   4.707 -0.6129  0.7082  0.5639
 3982TIP3    H111952   5.490   2.577   4.774 -0.8580 -0.4499 -0.5276
 3982TIP3    H211953   5.484   2.606   4.626  1.6285  0.3489 -0.5140
 3983TIP3   OH211954   5.540   2.949   3.765 -0.5265 -0.5759 -0.3808
 3983TIP3    H111955   5.617   2.920   3.716  0.7149  0.6599  0.7408
 3983TIP3    H211956   5.565   3.035   3.800 -2.2018 -0.4154  0.5173
 3984TIP3   OH211957   2.615   3.474   1.141  0.0525  0.0830  0.6097
 3984TIP3    H111958   2.606   3.423   1.061 -1.1068  0.9786  0.1367
 3984TIP3    H211959   2.698   3.445   1.179  0.7696 -0.1578 -1.0560
 3985TIP3   OH211960   4.488   5.116   2.285 -0.1976 -0.2521  0.0598
 3985TIP3    H111961   4.504   5.137   2.377  0.3583 -1.4058  0.2434
 3985TIP3    H211962   4.461   5.024   2.286 -3.3331  0.5571 -0.6252
 3986TIP3   OH211963   5.986   2.227   2.676 -0.2887  0.6021  0.2643
 3986TIP3    H111964   5.959   2.146   2.717  0.7299  0.6725  1.1143
 3986TIP3    H211965   6.050   2.265   2.736  3.4926 -0.6922 -2.5561
 3987TIP3   OH211966   5.592   1.078   3.037 -0.3851 -0.5011 -0.1794
 3987TIP3    H111967   5.674   1.033   3.016  0.8188  2.1894 -1.7378
 3987TIP3    H211968   5.618   1.150   3.094 -1.6526  0.4920 -0.8120
 3988TIP3   OH211969   0.165   4.318   0.509 -0.6078  0.6621  0.5466
 3988TIP3    H111970   0.232   4.386   0.511 -1.4342  1.4939  2.6122
 3988TIP3    H211971   0.082   4.365   0.515 -1.2975 -0.4430  0.0378
 3989TIP3   OH211972   5.660   2.323   5.057 -0.3458 -0.1985  0.3043
 3989TIP3    H111973   5.749   2.353   5.076 -0.0185  0.6031 -2.0677
 3989TIP3    H211974   5.671   2.233   5.026 -0.7206 -1.0292  2.4084
 3990TIP3   OH211975   5.851   5.914   1.540 -0.4630 -0.2248 -0.3153
 3990TIP3    H111976   5.792   5.966   1.486 -0.9307  0.3708  0.7447
 3990TIP3    H211977   5.868   5.968   1.616  2.0660 -0.0574 -0.9041
 3991TIP3   OH211978   0.206   4.379   0.048 -0.5406 -0.2078  0.1720
 3991TIP3    H111979   0.251   4.322   0.110 -1.2265  0.0725  0.9459
 3991TIP3    H211980   0.222   4.467   0.080  2.1132  0.2675 -2.0622
 3992TIP3   OH211981   2.037   2.231   2.836 -0.6306  0.0079  0.5758
 3992TIP3    H111982   2.024   2.143   2.802 -0.0652  0.3165 -0.4858
 3992TIP3    H211983   2.021   2.223   2.930  0.6290 -1.4826  0.6993
 3993TIP3   OH211984   2.307   0.030   3.859 -0.5298 -0.8455  0.0854
 3993TIP3    H111985   2.257   0.018   3.778 -2.7077  0.1533  1.1998
 3993TIP3    H211986   2.398   0.033   3.830 -1.2866  0.6831 -2.5309
 3994TIP3   OH211987   1.224   3.792   2.237  0.3144 -0.3271  0.7773
 3994TIP3    H111988   1.193   3.746   2.316 -0.0559 -0.1451  0.7398
 3994TIP3    H211989   1.222   3.725   2.168 -2.8685  0.3580  0.0710
 3995TIP3   OH211990   6.102   1.064   2.125 -0.0265 -0.3646 -0.2651
 3995TIP3    H111991   6.010   1.071   2.150  0.3483 -1.5344  1.6460
 3995TIP3    H211992   6.104   1.091   2.033 -2.2995 -0.5526 -0.4276
 3996TIP3   OH211993   5.594   1.668   4.876 -0.0566  0.4410 -0.1035
 3996TIP3    H111994   5.647   1.657   4.796 -0.5964  1.5253 -0.6325
 3996TIP3    H211995   5.607   1.586   4.925  1.5674  0.4116 -0.5347
 3997TIP3   OH211996   2.067   2.981   2.587  0.3636 -0.6641 -0.0386
 3997TIP3    H111997   2.036   3.050   2.530  1.3766  0.1046  0.3057
 3997TIP3    H211998   2.161   2.998   2.597 -0.0382  0.4559  3.3944
 3998TIP3   OH211999   4.661   2.260   4.620  0.1072 -0.3967 -0.0728
 3998TIP3    H112000   4.731   2.291   4.677  0.0014  0.2065 -0.2590
 3998TIP3    H212001   4.581   2.280   4.668 -0.0296  0.9451 -0.7844
 3999TIP3   OH212002   2.618   4.956   0.149  0.1796  0.2299  0.2641
 3999TIP3    H112003   2.527   4.982   0.165 -0.0957 -1.1488  1.1650
 3999TIP3    H212004   2.670   5.019   0.199 -0.3832 -0.0219  1.1997
 4000TIP3   OH212005   2.127   0.248   2.626 -0.5582  0.6087  0.3305
 4000TIP3    H112006   2.056   0.255   2.562  0.8492  0.8606 -1.2686
 4000TIP3    H212007   2.204   0.224   2.574  0.6186  0.6950  1.9584
 4001TIP3   OH212008   5.557   4.523   1.043 -0.0196 -0.1458 -0.0284
 4001TIP3    H112009   5.498   4.487   1.109  0.6391 -0.3861  0.4347
 4001TIP3    H212010   5.520   4.494   0.960  0.4610 -1.8481  0.3276
 4002TIP3   OH212011   2.457   0.496   2.655 -0.3864 -0.1638  0.1176
 4002TIP3    H112012   2.549   0.517   2.638 -0.0792 -1.0402  0.6064
 4002TIP3    H212013   2.460   0.437   2.730 -1.5210  1.6398  1.6547
 4003TIP3   OH212014   0.375   2.859   4.560  0.1753  0.0920  0.4531
 4003TIP3    H112015   0.453   2.840   4.614  1.3552 -0.3018 -1.3168
 4003TIP3    H212016   0.356   2.951   4.577  1.0574  0.2098  0.8947
 4004TIP3   OH212017   0.657   5.892   1.017  0.2100  0.0305 -0.3401
 4004TIP3    H112018   0.692   5.803   1.024 -2.3744 -0.9810  0.7318
 4004TIP3    H212019   0.616   5.894   0.930 -0.3032 -0.0621 -0.1030
 4005TIP3   OH212020   0.437   2.542   4.430 -0.0944 -0.4604 -0.1545
 4005TIP3    H112021   0.523   2.584   4.422 -0.6363  0.8194  0.4520
 4005TIP3    H212022   0.377   2.602   4.386 -0.9937 -0.2030  1.3398
 4006TIP3   OH212023   3.263   5.380   0.143  0.0238 -0.1649  0.4688
 4006TIP3    H112024   3.223   5.449   0.090 -2.1107 -0.7236  1.2628
 4006TIP3    H212025   3.194   5.315   0.154  1.0806 -1.0805  2.1519
 4007TIP3   OH212026   4.969   1.932   4.501  0.6041  0.8116 -0.4028
 4007TIP3    H112027   4.898   1.923   4.565  1.9561  1.4031  1.2800
 4007TIP3    H212028   5.004   1.844   4.491  0.4426  0.7263 -0.2258
 4008TIP3   OH212029   4.319   2.506   2.391 -0.0089 -0.5497 -0.3058
 4008TIP3    H112030   4.313   2.602   2.385 -1.8788 -0.4286  1.8263
 4008TIP3    H212031   4.232   2.475   2.365  0.7838 -1.7502 -1.6334
 4009TIP3   OH212032   2.858   3.008   2.813 -1.0313 -0.3530 -0.0695
 4009TIP3    H112033   2.887   2.922   2.784 -1.1471  0.3550 -2.4989
 4009TIP3    H212034   2.881   3.012   2.906  0.4545 -2.3609 -0.3052
 4010TIP3   OH212035   0.279   0.411   2.171  0.3881 -0.5280 -0.3375
 4010TIP3    H112036   0.294   0.376   2.084 -1.4213 -1.3372 -0.3774
 4010TIP3    H212037   0.328   0.493   2.172 -3.0409  1.9732 -3.8710
 4011TIP3   OH212038   4.221   3.807   2.648  0.1341 -0.4203  0.0541
 4011TIP3    H112039   4.144   3.836   2.697  1.7657  1.1377  1.8531
 4011TIP3    H212040   4.228   3.868   2.576  0.9173  0.8972  1.1964
 4012TIP3   OH212041   5.524   3.067   2.155  0.4307  0.1767 -0.4578
 4012TIP3    H112042   5.521   3.138   2.092 -1.3657  0.1501 -0.4586
 4012TIP3    H212043   5.597   3.012   2.127  0.3535  0.7558 -1.8415
 4013TIP3   OH212044   4.635   0.119   3.039  0.1022 -0.5727  0.2430
 4013TIP3    H112045   4.543   0.129   3.016  1.0064  1.7595 -3.0528
 4013TIP3    H212046   4.666   0.047   2.984  0.4112 -0.9567  0.9016
 4014TIP3   OH212047   3.012   0.782   4.625  0.1809 -0.6912  0.0193
 4014TIP3    H112048   2.986   0.753   4.713 -0.5874 -2.7662 -0.8394
 4014TIP3    H212049   3.105   0.761   4.620  0.0747 -1.1999  0.1120
 4015TIP3   OH212050   1.736   2.427   3.480 -0.3734  0.5140  0.1780
 4015TIP3    H112051   1.792   2.396   3.551 -0.6463  0.3293  0.3138
 4015TIP3    H212052   1.789   2.492   3.434  0.3172 -0.3657 -0.2949
 4016TIP3   OH212053   1.645   5.775   4.908  0.8360  0.8463  0.3096
 4016TIP3    H112054   1.585   5.850   4.904 -0.5351 -0.2030  0.2940
 4016TIP3    H212055   1.598   5.705   4.864  1.2130 -0.5980  2.0822
 4017TIP3   OH212056   5.699   1.150   0.723  0.5011  0.6055 -0.3526
 4017TIP3    H112057   5.772   1.089   0.729 -0.1923 -0.1107  1.1623
 4017TIP3    H212058   5.665   1.157   0.812 -1.1866  1.0452 -0.9912
 4018TIP3   OH212059   3.452   2.212   3.520  0.3020 -0.0578 -0.3715
 4018TIP3    H112060   3.485   2.261   3.446  0.8051 -1.3637 -1.0475
 4018TIP3    H212061   3.431   2.125   3.484 -1.4463 -0.0756  0.5650
 4019TIP3   OH212062   5.002   2.758   0.330 -0.3342 -0.0777  0.3058
 4019TIP3    H112063   5.042   2.836   0.291  0.4445  0.4509  2.0360
 4019TIP3    H212064   5.023   2.688   0.270  0.7490  0.7078 -0.2697
 4020TIP3   OH212065   3.243   5.230   3.828  0.1668 -0.0829  0.0027
 4020TIP3    H112066   3.231   5.287   3.752 -1.7369 -0.3786  0.0403
 4020TIP3    H212067   3.157   5.189   3.842  0.4247  0.0207  2.3416
 4021TIP3   OH212068   1.279   0.392   3.130  0.0642 -0.1054  0.6004
 4021TIP3    H112069   1.250   0.305   3.157 -0.9225  0.2894  0.8588
 4021TIP3    H212070   1.198   0.439   3.110  0.6112  0.6055  0.0049
 4022TIP3   OH212071   6.056   0.588   0.178 -1.2562  0.3053  0.0982
 4022TIP3    H112072   6.005   0.630   0.247 -1.4306  1.1588 -0.5363
 4022TIP3    H212073   5.992   0.543   0.124 -1.3311  1.1341 -0.5293
 4023TIP3   OH212074   6.029   0.951   4.585  0.3291  0.6337 -0.1576
 4023TIP3    H112075   6.008   1.045   4.584  0.4713  0.6825  0.6410
 4023TIP3    H212076   5.962   0.912   4.640  2.0427  0.7557  2.1721
 4024TIP3   OH212077   3.240   2.313   1.388  0.0508  0.2996 -0.4089
 4024TIP3    H112078   3.178   2.244   1.364  2.4533 -1.4842 -1.9172
 4024TIP3    H212079   3.213   2.389   1.337 -2.4105  0.4750  0.9779
 4025TIP3   OH212080   5.169   1.914   0.687  0.2716 -0.3326 -0.0664
 4025TIP3    H112081   5.102   1.970   0.649  0.9389 -0.7323 -1.9548
 4025TIP3    H212082   5.170   1.937   0.780  1.5338  3.9252 -0.9282
 4026TIP3   OH212083   3.943   0.743   1.083  0.0104 -0.0308  0.6357
 4026TIP3    H112084   3.933   0.803   1.010  2.2102 -1.5597 -1.0536
 4026TIP3    H212085   3.854   0.730   1.115 -0.6478  3.4158  0.6075
 4027TIP3   OH212086   1.281   0.752   3.682  0.3786  0.2292  0.0319
 4027TIP3    H112087   1.331   0.737   3.602  0.0938 -1.0881  0.0812
 4027TIP3    H212088   1.334   0.712   3.751  0.1189  0.4300  0.3516
 4028TIP3   OH212089   0.756   0.832   4.387 -0.4271 -0.0138  0.1313
 4028TIP3    H112090   0.742   0.887   4.464  0.2652  1.0612 -0.4933
 4028TIP3    H212091   0.823   0.770   4.415  1.1788  1.5289 -0.1275
 4029TIP3   OH212092   4.840   1.883   1.031  0.0537  0.4979  0.8944
 4029TIP3    H112093   4.804   1.805   0.989  2.3077  0.7235 -1.7064
 4029TIP3    H212094   4.763   1.929   1.065 -1.5006 -1.8609  0.8249
 4030TIP3   OH212095   0.340   5.060   3.376  0.1880  0.7132 -0.4326
 4030TIP3    H112096   0.344   4.986   3.316  0.8465  0.0536  0.4084
 4030TIP3    H212097   0.342   5.137   3.319 -1.7764  0.1153 -1.4069
 4031TIP3   OH212098   1.062   1.605   0.835 -0.3059  0.0926 -0.4065
 4031TIP3    H112099   1.109   1.652   0.766 -0.4982  1.8190  0.5829
 4031TIP3    H212100   1.120   1.534   0.860 -0.3100 -0.6917 -2.4408
 4032TIP3   OH212101   6.193   3.709   0.881  0.2168  0.8174  0.2089
 4032TIP3    H112102   6.192   3.737   0.973  1.0391  0.4483  0.3437
 4032TIP3    H212103   6.276   3.661   0.872  1.1922  2.6439 -1.2540
 4033TIP3   OH212104   2.256   5.685   4.998  0.2217 -0.2777  0.5393
 4033TIP3    H112105   2.192   5.666   4.928  0.6990  1.3027 -0.3723
 4033TIP3    H212106   2.262   5.780   5.000 -0.0178 -0.2509  3.0163
 4034TIP3   OH212107   2.281   2.741   2.317 -0.1716  0.6244  0.2667
 4034TIP3    H112108   2.302   2.665   2.263 -0.5004  0.4983  0.3122
 4034TIP3    H212109   2.218   2.791   2.265  0.8013  1.3989 -0.2005
 4035TIP3   OH212110   2.238   0.222   1.725  0.2895 -0.2431  0.1858
 4035TIP3    H112111   2.169   0.284   1.750 -0.2236 -0.3787 -0.8619
 4035TIP3    H212112   2.285   0.206   1.807 -0.7412  0.0712  0.8712
 4036TIP3   OH212113   6.206   1.687   1.958 -0.2108 -0.3199  0.3650
 4036TIP3    H112114   6.264   1.611   1.956 -1.0087 -0.9324 -0.4180
 4036TIP3    H212115   6.188   1.700   2.051  1.8675  0.4616  0.7112
 4037TIP3   OH212116   2.814   4.455   2.942 -0.4098  0.4553 -0.1016
 4037TIP3    H112117   2.791   4.408   2.862 -0.6753 -0.8297  0.7094
 4037TIP3    H212118   2.742   4.436   3.003  0.5747  0.0612  0.9747
 4038TIP3   OH212119   0.174   5.445   2.208 -0.4243 -0.0696  0.1785
 4038TIP3    H112120   0.122   5.393   2.146  1.2515  1.6726 -2.9150
 4038TIP3    H212121   0.253   5.393   2.222  0.5484  0.8064 -1.6760
 4039TIP3   OH212122   1.320   4.361   4.218  0.1128  0.1959 -0.0238
 4039TIP3    H112123   1.277   4.401   4.143 -1.9500 -0.0308  0.9553
 4039TIP3    H212124   1.404   4.407   4.225 -0.7262  1.9792 -0.9514
 4040TIP3   OH212125   3.278   4.129   1.945 -0.3888 -0.4145 -0.1446
 4040TIP3    H112126   3.303   4.039   1.968 -1.1667 -0.9993 -1.5046
 4040TIP3    H212127   3.355   4.164   1.901  0.0705 -0.2453  0.7573
 4041TIP3   OH212128   0.390   4.068   4.729  0.1490 -0.3615  0.2394
 4041TIP3    H112129   0.448   4.125   4.677 -0.2227  0.0000  0.2190
 4041TIP3    H212130   0.413   4.088   4.820 -0.7134  0.6046  0.2590
 4042TIP3   OH212131   3.153   1.659   4.386  0.2314  0.3033  0.2475
 4042TIP3    H112132   3.145   1.750   4.355 -0.1152  0.1477 -0.1263
 4042TIP3    H212133   3.197   1.667   4.471 -2.3411  1.0980  1.6482
 4043TIP3   OH212134   5.820   2.668   1.275  0.0646  0.0192  0.0786
 4043TIP3    H112135   5.747   2.730   1.274 -2.0102 -2.2421  1.1535
 4043TIP3    H212136   5.818   2.628   1.188  0.2377  0.1947 -0.0058
 4044TIP3   OH212137   6.204   0.904   4.372  0.0408  0.4337  0.1191
 4044TIP3    H112138   6.142   0.896   4.444 -1.2083 -1.3443 -1.0562
 4044TIP3    H212139   6.162   0.858   4.299  1.2652  2.1161 -1.7586
 4045TIP3   OH212140   2.767   5.248   3.111 -0.7092 -0.3662 -0.2474
 4045TIP3    H112141   2.696   5.307   3.088 -0.9096  0.1279  1.5059
 4045TIP3    H212142   2.728   5.186   3.173  0.3038 -0.3011  0.4712
 4046TIP3   OH212143   4.614   4.007   4.191 -0.3479 -0.1078  0.3627
 4046TIP3    H112144   4.671   4.067   4.141  0.5486 -1.4564 -0.2996
 4046TIP3    H212145   4.546   4.063   4.228  0.8489  1.4226  0.3413
 4047TIP3   OH212146   1.084   4.293   2.313  0.0635  0.6541 -0.5482
 4047TIP3    H112147   1.012   4.234   2.292 -1.3494  1.3413  1.9666
 4047TIP3    H212148   1.161   4.236   2.318 -1.1585 -0.9421  1.3030
 4048TIP3   OH212149   0.013   5.746   3.656 -0.3611  0.0497 -0.1997
 4048TIP3    H112150   0.030   5.812   3.589 -2.5938  2.6338  1.5200
 4048TIP3    H212151  -0.016   5.669   3.608  1.5593  0.5421 -2.2880
 4049TIP3   OH212152   0.890   5.190   0.294  0.0994  0.3173 -0.3537
 4049TIP3    H112153   0.887   5.278   0.332 -1.6178 -0.2182  0.8487
 4049TIP3    H212154   0.894   5.131   0.370 -0.5752 -0.6942 -1.0821
 4050TIP3   OH212155   1.304   2.988   2.870 -0.1597 -0.0411  0.2757
 4050TIP3    H112156   1.223   2.945   2.841 -0.5283  0.9897 -0.2527
 4050TIP3    H212157   1.275   3.074   2.902  0.5439 -0.2354  1.5057
 4051TIP3   OH212158   1.020   4.131   1.508  0.9565  0.9449 -0.2178
 4051TIP3    H112159   1.026   4.072   1.582  1.9798  2.1981  0.7395
 4051TIP3    H212160   1.111   4.150   1.484  0.7208 -0.7833 -2.9743
 4052TIP3   OH212161   2.445   4.454   4.209 -0.4363 -0.0292  0.5453
 4052TIP3    H112162   2.377   4.409   4.259 -0.0780  1.4741  2.5476
 4052TIP3    H212163   2.408   4.540   4.191  0.6440  0.5576  1.0308
 4053TIP3   OH212164   0.103   2.509   4.356 -0.3401 -0.4351 -0.1522
 4053TIP3    H112165   0.101   2.416   4.335 -0.0982 -0.2553 -0.9970
 4053TIP3    H212166   0.031   2.521   4.418 -2.6334 -0.6083 -2.5851
 4054TIP3   OH212167   4.387   4.768   0.739 -0.3968 -0.5255  0.3284
 4054TIP3    H112168   4.292   4.774   0.726 -0.6222 -0.4831  1.8340
 4054TIP3    H212169   4.424   4.812   0.662 -1.5847 -0.4516 -0.2368
 4055TIP3   OH212170   4.602   3.399   2.226 -0.2427 -0.0765  0.7380
 4055TIP3    H112171   4.550   3.319   2.235  0.0042 -0.3235  0.0235
 4055TIP3    H212172   4.545   3.459   2.176 -0.1668 -0.0451  0.6894
 4056TIP3   OH212173   0.128   3.624   1.190 -0.4156 -0.7037  0.1633
 4056TIP3    H112174   0.113   3.552   1.251  0.0761 -0.4505  0.5831
 4056TIP3    H212175   0.070   3.694   1.220 -0.5230 -0.7438  0.0524
 4057TIP3   OH212176   3.602   3.670   2.309  0.6451 -0.6081 -0.2948
 4057TIP3    H112177   3.626   3.676   2.216  1.4119  2.8227  0.0064
 4057TIP3    H212178   3.674   3.620   2.349  1.5312 -0.1015 -1.1981
 4058TIP3   OH212179   4.392   3.845   0.726 -0.3256  0.6341  0.0644
 4058TIP3    H112180   4.317   3.843   0.785  0.0062 -1.4660  0.4820
 4058TIP3    H212181   4.371   3.781   0.658  1.5686 -0.9865  0.8918
 4059TIP3   OH212182   3.557   1.566   1.876 -0.3957 -0.3931  0.0826
 4059TIP3    H112183   3.589   1.545   1.964  0.4459 -0.7410 -0.2947
 4059TIP3    H212184   3.534   1.659   1.881 -0.0691 -0.3317  0.5895
 4060TIP3   OH212185   0.213   3.852   0.725 -0.6370  0.3753 -0.7565
 4060TIP3    H112186   0.230   3.759   0.739 -0.5997  0.6630  1.3755
 4060TIP3    H212187   0.139   3.853   0.664 -0.6426 -1.0461 -0.8160
 4061TIP3   OH212188   5.859   3.182   5.036  0.4080 -0.4716  0.4294
 4061TIP3    H112189   5.904   3.266   5.032 -1.3962  0.4993 -0.5930
 4061TIP3    H212190   5.902   3.129   4.969  0.9067 -0.0113  0.3800
 4062TIP3   OH212191   4.436   4.575   2.189 -0.1490  0.2510 -0.2583
 4062TIP3    H112192   4.440   4.508   2.257  0.3303  0.9428  0.4106
 4062TIP3    H212193   4.521   4.620   2.193 -0.7475  1.4285 -0.1212
 4063TIP3   OH212194   1.710   3.097   5.211 -0.3450  0.3740  0.3007
 4063TIP3    H112195   1.757   3.134   5.136 -2.0588  2.1658  0.0218
 4063TIP3    H212196   1.633   3.055   5.172  1.2813 -3.3088  0.6588
 4064TIP3   OH212197   4.519   1.009   1.526 -0.4036 -0.1566  0.5191
 4064TIP3    H112198   4.515   1.101   1.555 -1.4471  0.0836 -0.3178
 4064TIP3    H212199   4.439   0.969   1.561 -1.2090 -0.0965 -1.1495
 4065TIP3   OH212200   2.217   5.521   3.376  0.1325 -0.4352 -0.1223
 4065TIP3    H112201   2.225   5.491   3.285  1.9123 -0.4029 -0.0142
 4065TIP3    H212202   2.238   5.444   3.428  1.3343  0.0938  0.2083
 4066TIP3   OH212203   4.580   2.202   0.083  0.2201 -0.1796 -0.0858
 4066TIP3    H112204   4.648   2.136   0.095  0.9356  0.7852  1.4036
 4066TIP3    H212205   4.505   2.153   0.050  1.7570 -1.1987 -2.3684
 4067TIP3   OH212206   5.104   2.852   1.509  0.3012  0.2534 -0.1314
 4067TIP3    H112207   5.046   2.922   1.477  3.5002  2.6059 -1.3366
 4067TIP3    H212208   5.099   2.784   1.442 -0.9755  0.4376 -0.2449
 4068TIP3   OH212209   5.022   2.233   4.331 -0.0663  0.2388 -0.1121
 4068TIP3    H112210   5.011   2.291   4.406 -1.6511  1.9745 -1.5750
 4068TIP3    H212211   4.936   2.193   4.318  0.2481 -0.2272 -0.8473
 4069TIP3   OH212212   0.507   3.712   3.357  0.0847  0.4801 -0.1074
 4069TIP3    H112213   0.421   3.733   3.392  1.1646  2.1386  1.7771
 4069TIP3    H212214   0.536   3.793   3.316  1.2560  0.3618  0.4452
 4070TIP3   OH212215   3.167   4.382   3.541  0.5283 -0.3147 -0.6264
 4070TIP3    H112216   3.211   4.318   3.486  2.6546 -0.0906  0.6920
 4070TIP3    H212217   3.184   4.353   3.630  0.5018  1.3759 -0.0218
 4071TIP3   OH212218   6.035   2.353   0.694 -0.3186 -0.1262 -0.4708
 4071TIP3    H112219   6.050   2.403   0.614 -2.4376  1.5409  0.0677
 4071TIP3    H212220   6.084   2.401   0.761  3.6961 -2.9740 -0.9804
 4072TIP3   OH212221   4.450   1.641   3.074 -0.0313 -0.1949 -0.1500
 4072TIP3    H112222   4.358   1.663   3.080 -0.2830 -0.7017 -1.7373
 4072TIP3    H212223   4.470   1.597   3.157 -0.5144  2.2275  1.3435
 4073TIP3   OH212224   3.508   3.388   3.306 -0.0199 -0.4253 -0.2378
 4073TIP3    H112225   3.524   3.480   3.288 -1.9257 -0.1950 -1.0401
 4073TIP3    H212226   3.589   3.356   3.344  0.5902  1.6394  0.3103
 4074TIP3   OH212227   2.338   1.807   2.544 -0.3547 -0.4454 -0.2785
 4074TIP3    H112228   2.329   1.767   2.630 -0.5151 -2.2050 -1.0744
 4074TIP3    H212229   2.263   1.774   2.494  0.8851 -1.1860 -1.7203
 4075TIP3   OH212230   5.153   0.800   3.825 -0.4078  0.4778  0.4667
 4075TIP3    H112231   5.116   0.782   3.739 -0.6517 -1.5120  0.9555
 4075TIP3    H212232   5.091   0.761   3.887  0.2473  1.0484  1.5211
 4076TIP3   OH212233   6.331   0.559   1.822  0.3788 -0.3420  0.0488
 4076TIP3    H112234   6.372   0.630   1.870  0.7937 -0.9125  0.5591
 4076TIP3    H212235   6.238   0.581   1.822  0.4982  0.1813  0.2318
 4077TIP3   OH212236   6.022   5.836   0.695 -0.3838  0.2297 -0.2390
 4077TIP3    H112237   6.103   5.881   0.718 -0.7930  1.4916 -1.1066
 4077TIP3    H212238   6.034   5.747   0.726  0.6134  0.8336  1.2434
 4078TIP3   OH212239   5.563   2.248   1.484  0.1152 -0.2159  0.4220
 4078TIP3    H112240   5.629   2.179   1.490  0.7772 -0.0254 -2.9201
 4078TIP3    H212241   5.483   2.203   1.456  0.0914  0.1384 -0.0906
 4079TIP3   OH212242   2.124   1.237   4.308  0.1107 -0.0535 -0.5060
 4079TIP3    H112243   2.146   1.150   4.343 -0.5741  0.1608  0.5112
 4079TIP3    H212244   2.050   1.266   4.361 -0.2324  0.7923 -1.4107
 4080TIP3   OH212245   4.651   4.929   0.376 -0.3773 -0.0663  0.2258
 4080TIP3    H112246   4.701   4.880   0.441 -2.5181  0.5285  2.4733
 4080TIP3    H212247   4.622   5.008   0.423 -2.9398 -0.1483 -1.0476
 4081TIP3   OH212248   5.132   3.331   1.671  0.5171 -0.2501  0.0530
 4081TIP3    H112249   5.124   3.420   1.636 -0.3106 -0.5683 -0.5957
 4081TIP3    H212250   5.067   3.328   1.742 -0.8867 -0.9330 -1.2158
 4082TIP3   OH212251   6.149   1.741   4.477 -0.0041  0.2990 -0.2780
 4082TIP3    H112252   6.230   1.763   4.524  0.8919 -3.6993  0.4865
 4082TIP3    H212253   6.103   1.682   4.537 -2.3509  0.5928 -1.6903
 4083TIP3   OH212254   5.611   1.983   3.147 -0.1420 -0.3132  0.8594
 4083TIP3    H112255   5.538   2.033   3.111  1.0671  0.3105 -0.8641
 4083TIP3    H212256   5.570   1.906   3.187 -1.6974 -0.2934 -0.5835
 4084TIP3   OH212257   0.205   0.179   0.245 -0.2760 -0.2766  0.2319
 4084TIP3    H112258   0.111   0.169   0.229 -0.4294 -0.8691  1.3450
 4084TIP3    H212259   0.212   0.190   0.340  0.7087  0.8227  0.0575
 4085TIP3   OH212260   6.007   0.656   4.063 -0.9484 -0.0929 -0.3179
 4085TIP3    H112261   6.028   0.571   4.026 -2.5278 -0.2335 -0.9829
 4085TIP3    H212262   5.949   0.637   4.137 -0.4388  0.3674  0.2198
 4086TIP3   OH212263   0.143   2.978   4.953 -0.2948  0.0612  0.0069
 4086TIP3    H112264   0.162   2.892   4.992  2.7936  0.6172 -0.0680
 4086TIP3    H212265   0.121   2.958   4.862 -1.4400 -0.7351  0.4248
 4087TIP3   OH212266   3.936   0.263   2.222 -0.2691 -0.3917  0.0029
 4087TIP3    H112267   3.939   0.350   2.263 -0.8721 -0.9024  1.1894
 4087TIP3    H212268   3.845   0.237   2.230 -0.6681 -0.0914 -2.6807
 4088TIP3   OH212269   3.364   4.054   1.258 -0.2129  0.5360 -0.1257
 4088TIP3    H112270   3.427   4.062   1.329 -2.2295 -0.9400  1.9793
 4088TIP3    H212271   3.280   4.042   1.302 -1.3743 -1.9733 -2.7449
 4089TIP3   OH212272   5.267   2.558   0.491 -0.0533  0.4393 -0.7513
 4089TIP3    H112273   5.246   2.651   0.492  1.4826  0.8221 -1.2178
 4089TIP3    H212274   5.295   2.541   0.401 -0.8901 -0.6255 -0.8295
 4090TIP3   OH212275   6.033   4.225   4.835  0.4041  0.1618 -0.4813
 4090TIP3    H112276   5.989   4.309   4.846 -1.4863 -0.8431  0.0211
 4090TIP3    H212277   6.098   4.240   4.766  0.0999  2.0126 -0.3967
 4091TIP3   OH212278   4.369   4.253   2.696 -0.7154  0.3235 -0.0532
 4091TIP3    H112279   4.400   4.332   2.653  0.4831 -0.4924 -0.7576
 4091TIP3    H212280   4.448   4.212   2.731 -1.4497  0.0060  1.3096
 4092TIP3   OH212281   4.070   1.146   2.416  0.2684 -0.1316 -0.1270
 4092TIP3    H112282   4.054   1.221   2.359  0.3808  0.9302  1.1988
 4092TIP3    H212283   4.012   1.078   2.382 -0.6944  0.9126 -0.6538
 4093TIP3   OH212284   5.273   1.344   1.742 -0.0820  0.7212 -0.0396
 4093TIP3    H112285   5.193   1.385   1.774 -1.8862 -0.2798 -2.9008
 4093TIP3    H212286   5.306   1.404   1.676 -0.0300 -0.1356 -0.8083
 4094TIP3   OH212287   3.089   4.395   4.556 -0.6076 -0.6682 -0.0685
 4094TIP3    H112288   3.061   4.305   4.541 -1.0547 -0.6396  0.5271
 4094TIP3    H212289   3.011   4.439   4.590 -0.3996 -0.0501 -0.3670
 4095TIP3   OH212290   2.679   1.612   0.851  0.0203 -0.7297  0.0978
 4095TIP3    H112291   2.653   1.607   0.943 -1.2137  0.8383 -0.1187
 4095TIP3    H212292   2.626   1.546   0.808  0.4040 -1.2833  0.4625
 4096TIP3   OH212293   0.635   0.862   0.902  0.2013  0.1876 -0.1759
 4096TIP3    H112294   0.725   0.836   0.885 -0.2534 -0.7000 -1.3436
 4096TIP3    H212295   0.642   0.938   0.961  1.7209  0.6337 -0.8953
 4097TIP3   OH212296   4.727   2.364   4.877 -0.2204 -0.4147 -0.2407
 4097TIP3    H112297   4.637   2.389   4.899 -0.0153 -0.9586  1.3357
 4097TIP3    H212298   4.780   2.439   4.904 -0.1622 -0.2868 -0.7181
 4098TIP3   OH212299   6.194   0.731   5.078 -0.4443  0.0209 -0.2162
 4098TIP3    H112300   6.158   0.743   4.990 -1.4012  0.6423  0.2490
 4098TIP3    H212301   6.149   0.653   5.112 -2.0482  1.2854  0.6853
 4099TIP3   OH212302   2.808   0.787   4.287 -0.0229 -0.2249  0.1303
 4099TIP3    H112303   2.877   0.837   4.331  0.8555  0.5761 -1.9897
 4099TIP3    H212304   2.727   0.830   4.314  0.6250  1.5194 -0.5344
 4100TIP3   OH212305   1.198   2.825   0.904  0.3876 -0.1278 -0.0828
 4100TIP3    H112306   1.109   2.798   0.927  0.8925 -1.8685 -0.0005
 4100TIP3    H212307   1.237   2.852   0.987 -0.1990  1.1587 -0.1994
 4101TIP3   OH212308   5.347   3.122   2.347  0.2913 -0.0729 -0.1759
 4101TIP3    H112309   5.420   3.126   2.287  0.4251 -0.3065 -0.0327
 4101TIP3    H212310   5.364   3.190   2.412 -1.6063  2.6387 -2.3103
 4102TIP3   OH212311   0.417   1.175   1.012 -0.7887 -0.1418  0.1325
 4102TIP3    H112312   0.463   1.155   1.094  1.8530 -0.2676 -1.2614
 4102TIP3    H212313   0.326   1.152   1.030 -0.6719  1.3742  3.5330
 4103TIP3   OH212314   3.524   5.419   1.001  0.0427  0.1162  0.0385
 4103TIP3    H112315   3.555   5.329   1.001 -1.4618 -0.4381  0.6403
 4103TIP3    H212316   3.562   5.457   1.080  1.3617  0.2944 -0.6485
 4104TIP3   OH212317   3.260   3.088   0.196  0.3119 -0.1840 -0.0711
 4104TIP3    H112318   3.237   3.158   0.136 -1.6708 -0.6645  0.0803
 4104TIP3    H212319   3.195   3.093   0.266  1.5231 -0.7359  1.1635
 4105TIP3   OH212320   3.802   2.147   1.340 -0.1853 -0.1354 -0.0658
 4105TIP3    H112321   3.783   2.241   1.334  1.4830  0.1651 -1.5199
 4105TIP3    H212322   3.748   2.116   1.413 -1.4910  1.7525 -0.1616
 4106TIP3   OH212323   0.874   4.089   0.098  0.0252  0.2583  0.2341
 4106TIP3    H112324   0.920   4.146   0.160  0.0621  0.5970 -0.1006
 4106TIP3    H212325   0.927   4.093   0.018 -1.3398  1.8113 -0.6499
 4107TIP3   OH212326   4.904   4.551   5.118 -0.0603 -0.8245  0.6658
 4107TIP3    H112327   4.866   4.552   5.206 -1.5986 -0.1036  0.0312
 4107TIP3    H212328   4.918   4.458   5.099 -0.7894 -1.0574  1.2349
 4108TIP3   OH212329   5.493   4.772   0.721 -0.2041  0.1603 -0.1305
 4108TIP3    H112330   5.407   4.760   0.762 -0.8913  0.6914 -1.3763
 4108TIP3    H212331   5.490   4.861   0.686  1.1730  0.4792  0.5296
 4109TIP3   OH212332   2.344   3.971   3.184 -0.0144  0.5324 -0.2632
 4109TIP3    H112333   2.437   3.962   3.205 -0.2993  2.3839  2.1890
 4109TIP3    H212334   2.341   3.976   3.088  2.2251 -0.9784 -0.4765
 4110TIP3   OH212335   3.987   5.548   4.662 -0.0104  0.3887 -0.4853
 4110TIP3    H112336   3.997   5.620   4.725  1.7872 -0.4024  0.2074
 4110TIP3    H212337   3.909   5.501   4.691  0.5037  0.3267  0.8951
 4111TIP3   OH212338   2.319   0.729   2.786 -0.3106 -0.3007  0.0916
 4111TIP3    H112339   2.370   0.797   2.830 -1.4392  1.0829 -0.6839
 4111TIP3    H212340   2.385   0.675   2.741  0.6370 -0.0817  1.1582
 4112TIP3   OH212341   2.446   1.588   4.145  0.0051  0.9266  0.1022
 4112TIP3    H112342   2.538   1.603   4.127 -0.0276  1.2104  0.1654
 4112TIP3    H212343   2.441   1.495   4.170  0.1469  0.7010 -0.6921
 4113TIP3   OH212344   2.102   4.818   2.266 -0.5622 -0.4911 -0.7396
 4113TIP3    H112345   2.181   4.823   2.213 -1.0920 -0.4368 -1.5392
 4113TIP3    H212346   2.116   4.742   2.323 -0.0221 -0.5951 -1.0070
 4114TIP3   OH212347   0.383   4.855   3.587  0.4798 -0.0863 -0.2800
 4114TIP3    H112348   0.420   4.923   3.530  0.4289 -0.4660 -0.7735
 4114TIP3    H212349   0.452   4.790   3.597  1.2551  0.9626  1.8296
 4115TIP3   OH212350   0.303   5.465   2.997  0.2718  0.1128  0.1862
 4115TIP3    H112351   0.299   5.468   2.902 -1.6414 -0.1241  0.2244
 4115TIP3    H212352   0.353   5.543   3.021  1.0003  0.0391 -1.0051
 4116TIP3   OH212353   3.913   2.720   5.176  0.6919  0.0943  0.5423
 4116TIP3    H112354   3.910   2.625   5.170  0.6113  0.0896  0.6541
 4116TIP3    H212355   3.823   2.745   5.199  1.0357  0.0879  2.0061
 4117TIP3   OH212356   1.820   5.653   2.244 -0.4040 -0.6208  0.3233
 4117TIP3    H112357   1.864   5.625   2.163  0.7332 -1.2130  1.1229
 4117TIP3    H212358   1.803   5.746   2.231 -2.7999 -1.2320 -1.7358
 4118TIP3   OH212359   1.872   1.575   3.665 -0.2681  0.1362  0.1514
 4118TIP3    H112360   1.885   1.480   3.676 -0.0444  0.4209  2.9890
 4118TIP3    H212361   1.934   1.615   3.726 -1.4493  2.0787  0.1528
 4119TIP3   OH212362   4.978   2.046   3.987 -0.2412 -0.0582  0.0043
 4119TIP3    H112363   4.989   2.140   3.975  1.5918 -0.2306  0.0937
 4119TIP3    H212364   4.988   2.033   4.082 -2.5038 -0.1410  0.2868
 4120TIP3   OH212365   3.500   0.391   1.107  0.2895 -0.5467  0.7965
 4120TIP3    H112366   3.432   0.438   1.059  0.9081  0.2598  0.6822
 4120TIP3    H212367   3.571   0.380   1.043  0.8825  0.0162  1.3400
 4121TIP3   OH212368   1.896   3.986   0.649 -0.2006  0.3745 -0.6228
 4121TIP3    H112369   1.863   4.075   0.635  0.4899  1.0493  1.5860
 4121TIP3    H212370   1.991   3.995   0.649 -0.0893 -0.5731 -1.3764
 4122TIP3   OH212371   5.812   5.902   3.910  0.4773 -0.3232 -0.0104
 4122TIP3    H112372   5.775   5.958   3.842  0.0993 -0.1454  0.3376
 4122TIP3    H212373   5.872   5.959   3.958 -1.2553  0.3415  1.5012
 4123TIP3   OH212374   3.966   5.746   4.853  0.6254 -0.1532  0.5695
 4123TIP3    H112375   3.955   5.682   4.923  0.6781 -0.5917  0.1861
 4123TIP3    H212376   3.896   5.810   4.867  0.3606 -0.4806  0.7626
 4124TIP3   OH212377   1.887   0.149   4.431 -0.3567  0.5172  0.6692
 4124TIP3    H112378   1.844   0.078   4.383 -1.5728  0.5078  1.7090
 4124TIP3    H212379   1.974   0.115   4.453  0.2895  0.5610 -1.5632
 4125TIP3   OH212380   0.793   4.687   1.823 -0.3028 -0.0363  0.4655
 4125TIP3    H112381   0.803   4.772   1.865  0.1081 -0.3482  1.0209
 4125TIP3    H212382   0.739   4.636   1.884  0.5691 -0.5999  0.7803
 4126TIP3   OH212383   5.014   2.785   2.069 -0.6655 -0.5299  0.5115
 4126TIP3    H112384   5.025   2.880   2.078  2.6303 -0.8982  2.2183
 4126TIP3    H212385   4.971   2.773   1.984  1.5636  2.4389 -1.2391
 4127TIP3   OH212386   1.029   3.393  -0.009  0.0291 -0.5414  0.1913
 4127TIP3    H112387   1.048   3.419   0.081 -0.4396 -0.3162  0.2280
 4127TIP3    H212388   1.111   3.408  -0.055 -0.3080  1.4678  0.1215
 4128TIP3   OH212389   0.992   2.282   1.190 -0.0928  0.5010  0.5730
 4128TIP3    H112390   0.910   2.286   1.239 -0.9979  1.8599 -0.9678
 4128TIP3    H212391   0.975   2.218   1.121  0.0251  1.0154  0.0624
 4129TIP3   OH212392   0.348   5.845   2.267 -0.4512  0.1132 -0.1936
 4129TIP3    H112393   0.409   5.893   2.322 -0.4145  0.0498 -0.1788
 4129TIP3    H212394   0.399   5.770   2.235 -0.3463  0.3647 -0.6404
 4130TIP3   OH212395   5.214   4.763   2.578 -0.0298 -0.4558 -0.3064
 4130TIP3    H112396   5.302   4.779   2.543  0.7486 -1.2134  1.1785
 4130TIP3    H212397   5.173   4.705   2.514  0.5869 -0.1694 -0.9738
 4131TIP3   OH212398   6.189   3.571   4.222  0.1889 -0.5474 -0.3641
 4131TIP3    H112399   6.239   3.508   4.273  0.7320 -0.2172 -0.4734
 4131TIP3    H212400   6.247   3.647   4.215  0.0426 -0.5035 -1.2779
 4132TIP3   OH212401   3.526   1.127   1.478 -0.4449  0.0981  0.3871
 4132TIP3    H112402   3.561   1.203   1.432  0.8704 -0.5736  0.2443
 4132TIP3    H212403   3.461   1.164   1.538 -0.1022  1.2965  0.0507
 4133TIP3   OH212404   4.288   4.333   4.317  0.1049  0.2061  1.4194
 4133TIP3    H112405   4.360   4.366   4.264  0.6225 -0.5949  1.6144
 4133TIP3    H212406   4.281   4.396   4.389 -1.2924  1.9093 -0.0722
 4134TIP3   OH212407   0.623   3.517   3.508  0.3784 -0.6949 -0.2293
 4134TIP3    H112408   0.571   3.495   3.585 -0.2959 -0.5374 -0.6361
 4134TIP3    H212409   0.578   3.591   3.468  0.4380 -1.0825 -1.0481
 4135TIP3   OH212410   4.378   2.667   0.915 -0.5078  0.3814 -0.5580
 4135TIP3    H112411   4.392   2.617   0.835  1.4164  0.0276 -0.0480
 4135TIP3    H212412   4.283   2.679   0.919 -0.7631 -0.7196 -2.1962
 4136TIP3   OH212413   3.843   4.294   3.976  0.2680  0.4505 -0.2314
 4136TIP3    H112414   3.789   4.281   4.054  0.3514  1.4365  0.0017
 4136TIP3    H212415   3.815   4.225   3.915 -1.0535  0.7813 -0.0080
 4137TIP3   OH212416   5.003   4.857   4.256  0.2417 -0.0388  0.7649
 4137TIP3    H112417   4.947   4.831   4.329 -1.7792 -0.5314 -0.8733
 4137TIP3    H212418   5.030   4.775   4.215 -0.9493  0.2226 -0.6486
 4138TIP3   OH212419   0.078   2.903   4.684 -0.0930 -0.3785  0.2598
 4138TIP3    H112420   0.101   2.906   4.591  1.2117 -1.6896  0.5108
 4138TIP3    H212421  -0.018   2.897   4.685 -0.2135  0.8356 -0.9415
 4139TIP3   OH212422   3.201   1.290   1.353  0.6385  0.5537  0.3840
 4139TIP3    H112423   3.248   1.242   1.421  2.0438  1.5620  0.1756
 4139TIP3    H212424   3.235   1.255   1.271  1.0820  1.3055  0.2314
 4140TIP3   OH212425   3.765   1.490   2.641 -0.1597 -0.6893 -0.3784
 4140TIP3    H112426   3.767   1.421   2.575  0.7767 -1.5970  0.5564
 4140TIP3    H212427   3.857   1.503   2.664 -0.4154  0.1828  0.1623
 4141TIP3   OH212428   2.531   4.251   1.804 -0.3643  0.7503 -0.2823
 4141TIP3    H112429   2.607   4.195   1.822  0.9297  2.0372 -1.4703
 4141TIP3    H212430   2.515   4.297   1.886 -0.2594  0.0039  0.1629
 4142TIP3   OH212431   3.560   4.043   0.615 -0.0437 -0.2356 -0.4127
 4142TIP3    H112432   3.632   4.060   0.676 -0.1534  2.6422 -0.9543
 4142TIP3    H212433   3.514   3.968   0.652  1.8224 -0.6612  1.2234
 4143TIP3   OH212434   0.344   3.032   3.382 -0.0310 -0.8614 -0.3421
 4143TIP3    H112435   0.412   3.079   3.432 -0.0349  0.7814 -1.7998
 4143TIP3    H212436   0.361   3.055   3.291 -2.3352 -0.6930 -0.7869
 4144TIP3   OH212437   2.297   2.302   2.759 -0.6346  0.1912  0.3760
 4144TIP3    H112438   2.274   2.372   2.697 -0.1442  3.1950  3.2866
 4144TIP3    H212439   2.213   2.261   2.781 -1.6132  2.6162  1.5312
 4145TIP3   OH212440   0.721   1.634   0.410  0.2111 -0.6032 -0.7538
 4145TIP3    H112441   0.740   1.659   0.501  0.1582 -1.5115 -0.4891
 4145TIP3    H212442   0.794   1.577   0.386  0.6730  0.3025 -1.5755
 4146TIP3   OH212443   5.433   5.901   2.963  0.6105  0.3748  0.1061
 4146TIP3    H112444   5.477   5.853   2.893 -1.2050 -0.4411 -0.5161
 4146TIP3    H212445   5.490   5.889   3.040  2.0073  0.2701 -0.9026
 4147TIP3   OH212446   3.407   2.595   4.890 -0.3118  0.0427  0.1018
 4147TIP3    H112447   3.341   2.630   4.950  0.8849  0.9355  0.9441
 4147TIP3    H212448   3.357   2.546   4.825 -1.8984  1.7162 -0.0040
 4148TIP3   OH212449   0.709   5.053   2.433 -0.0699 -0.1572 -0.0676
 4148TIP3    H112450   0.690   5.144   2.454  1.3540 -0.2349  1.7298
 4148TIP3    H212451   0.804   5.046   2.439 -0.0847 -1.5826 -1.0104
 4149TIP3   OH212452   2.941   1.881   0.092  0.4784 -0.1786 -0.4404
 4149TIP3    H112453   2.973   1.922   0.011  0.0565  0.3531 -0.3444
 4149TIP3    H212454   2.992   1.923   0.161 -0.7563  1.0492 -0.2419
 4150TIP3   OH212455   0.744   1.631   3.779  0.0217 -0.2117  0.3172
 4150TIP3    H112456   0.791   1.554   3.746  0.5701  0.5593 -0.7539
 4150TIP3    H212457   0.664   1.596   3.819 -0.6049 -1.2152 -1.7142
 4151TIP3   OH212458   2.723   3.126   2.262 -0.2409  0.6987 -0.3026
 4151TIP3    H112459   2.734   3.214   2.227  0.1898  0.4984 -0.6852
 4151TIP3    H212460   2.630   3.107   2.250  0.0406  0.2765 -2.2626
 4152TIP3   OH212461   3.164   0.461   4.838 -0.0929  0.1674 -0.6420
 4152TIP3    H112462   3.118   0.545   4.841  0.6715  0.5920 -0.7278
 4152TIP3    H212463   3.125   0.411   4.910 -1.0674  0.3138 -1.0412
 4153TIP3   OH212464   1.560   4.279   2.045 -0.5190  0.3735 -0.4968
 4153TIP3    H112465   1.600   4.253   1.962 -2.5868 -1.7627 -0.9201
 4153TIP3    H212466   1.610   4.232   2.111 -0.3260  0.2551 -0.7262
 4154TIP3   OH212467   5.854   0.870   4.780 -0.4898  0.0097 -0.3198
 4154TIP3    H112468   5.903   0.947   4.809  0.8243 -1.4562  1.6712
 4154TIP3    H212469   5.843   0.818   4.860 -1.7717 -1.6373 -1.4994
 4155TIP3   OH212470   3.562   5.735   4.009  0.0127  0.1797  0.3190
 4155TIP3    H112471   3.616   5.766   4.081 -0.6888  1.0639  0.4865
 4155TIP3    H212472   3.612   5.755   3.930 -0.5839  2.1453  0.3983
 4156TIP3   OH212473   4.596   0.187   2.425 -0.4264  0.1373  0.1209
 4156TIP3    H112474   4.676   0.165   2.378 -0.6915 -2.6403  0.7727
 4156TIP3    H212475   4.528   0.135   2.381 -1.5345  1.0317  0.7246
 4157TIP3   OH212476   5.777   2.254   3.608 -0.4177  0.2197 -0.4339
 4157TIP3    H112477   5.801   2.171   3.649  0.0556 -0.1284 -1.3815
 4157TIP3    H212478   5.705   2.287   3.661 -0.2245 -0.5083  0.3067
 4158TIP3   OH212479   5.404   4.695   0.124 -0.3520  0.1264  0.0620
 4158TIP3    H112480   5.368   4.781   0.145  0.0080  0.6519 -1.3618
 4158TIP3    H212481   5.333   4.649   0.078 -0.6611 -0.4924  1.1151
 4159TIP3   OH212482   4.317   4.569   0.436  0.0254  0.0579  0.1918
 4159TIP3    H112483   4.294   4.591   0.346 -1.0423 -0.1358  0.4068
 4159TIP3    H212484   4.397   4.517   0.428 -1.0311 -1.5152 -0.8112
 4160TIP3   OH212485   0.777   2.195   2.331 -0.2782 -0.4100  0.2601
 4160TIP3    H112486   0.765   2.253   2.406 -1.1804 -0.1704 -0.0535
 4160TIP3    H212487   0.688   2.163   2.311 -0.0053 -0.7130 -0.5102
 4161TIP3   OH212488   3.869   4.573   4.313 -0.6229 -0.1390  0.0912
 4161TIP3    H112489   3.807   4.645   4.301 -1.1090 -0.5975 -0.2112
 4161TIP3    H212490   3.927   4.602   4.383 -1.5765  0.0367  0.8240
 4162TIP3   OH212491   3.454   2.603   2.082 -0.2563  0.0680 -0.0479
 4162TIP3    H112492   3.431   2.543   2.153  0.3101  1.2261  1.1632
 4162TIP3    H212493   3.549   2.595   2.074 -0.5410 -2.1331 -2.6577
 4163TIP3   OH212494   5.240   0.986   4.061  0.3418 -0.7595  0.4169
 4163TIP3    H112495   5.228   0.899   4.098  1.4877 -0.1227  2.3918
 4163TIP3    H212496   5.174   1.040   4.104 -0.9480 -0.7470 -1.4273
 4164TIP3   OH212497   0.248   0.010   3.993 -0.5986 -0.2719 -0.0773
 4164TIP3    H112498   0.184   0.060   3.942  0.9897  1.4383 -0.5001
 4164TIP3    H212499   0.318   0.072   4.010 -0.2077 -1.3323  2.6334
 4165TIP3   OH212500   2.946   4.355   5.085 -0.0897 -0.0508  0.2633
 4165TIP3    H112501   2.945   4.411   5.008 -0.3588 -0.2143  0.1449
 4165TIP3    H212502   3.020   4.295   5.070  0.0367  0.1028  0.2686
 4166TIP3   OH212503   0.541   0.722   0.506 -0.0131 -0.4379 -0.7411
 4166TIP3    H112504   0.471   0.657   0.501  1.0319 -1.5631 -1.5437
 4166TIP3    H212505   0.576   0.712   0.595 -0.2600 -0.5324 -0.6528
 4167TIP3   OH212506   5.863   2.971   0.115 -0.4567  0.2133  0.7151
 4167TIP3    H112507   5.851   3.051   0.064 -0.0615 -0.5911 -0.6683
 4167TIP3    H212508   5.958   2.962   0.124 -0.5163  0.2094  1.3746
 4168TIP3   OH212509   2.928   0.295   2.729  0.3111 -0.0516  0.3630
 4168TIP3    H112510   2.897   0.362   2.789  0.8056  1.7800 -1.3087
 4168TIP3    H212511   3.011   0.329   2.696  0.3077 -1.2289 -0.9678
 4169TIP3   OH212512   5.643   4.719   3.779  0.0602 -0.1293 -0.6317
 4169TIP3    H112513   5.669   4.738   3.869  1.0480  0.3331 -1.0053
 4169TIP3    H212514   5.643   4.804   3.735 -2.3571 -0.0493 -0.6171
 4170TIP3   OH212515   4.491   4.854   3.862 -0.0518  0.2533 -0.0820
 4170TIP3    H112516   4.473   4.924   3.800  0.4502  0.0157 -0.5015
 4170TIP3    H212517   4.447   4.881   3.942 -2.3208 -0.2939 -1.0474
 4171TIP3   OH212518   4.597   1.011   4.418  0.3970 -0.2657 -0.0660
 4171TIP3    H112519   4.602   1.084   4.479 -1.2978 -0.9833  0.9745
 4171TIP3    H212520   4.627   0.935   4.468  1.9777 -0.3649 -1.0853
 4172TIP3   OH212521   5.710   5.629   0.597  0.9299 -0.0910  0.1666
 4172TIP3    H112522   5.661   5.695   0.647  0.4446  0.3270 -0.8391
 4172TIP3    H212523   5.678   5.545   0.629 -2.9037  0.0750 -2.6403
 4173TIP3   OH212524   1.627   0.865   0.638  0.1341 -0.8845  0.4905
 4173TIP3    H112525   1.649   0.777   0.608  1.5870 -0.6520  0.8165
 4173TIP3    H212526   1.575   0.903   0.567  1.6976 -1.1041 -0.8254
 4174TIP3   OH212527   1.803   0.825   2.677  0.6536 -0.2183  0.1642
 4174TIP3    H112528   1.753   0.746   2.652  1.5211 -0.2436 -1.6931
 4174TIP3    H212529   1.872   0.793   2.734  0.0538 -0.5570  0.7130
 4175TIP3   OH212530   0.104   0.162   1.684 -0.0311 -0.8326 -0.5430
 4175TIP3    H112531   0.103   0.186   1.777  1.1533 -1.7049 -0.2800
 4175TIP3    H212532   0.128   0.242   1.638  2.2562 -1.0391  0.1759
 4176TIP3   OH212533   2.876   1.017   3.152 -0.2543  0.4065  0.2844
 4176TIP3    H112534   2.938   0.945   3.166  0.3291  1.1178  1.5493
 4176TIP3    H212535   2.840   1.033   3.239 -2.1896  0.0581 -0.4206
 4177TIP3   OH212536   1.743   2.610   2.168 -0.4519 -0.2206  0.6322
 4177TIP3    H112537   1.668   2.567   2.128 -0.7554 -0.2033  1.1744
 4177TIP3    H212538   1.817   2.591   2.110 -0.7697 -0.6909  0.3863
 4178TIP3   OH212539   4.054   2.381   4.329 -0.2569 -0.1766  0.9459
 4178TIP3    H112540   3.968   2.355   4.364  0.3184 -1.6035  1.3917
 4178TIP3    H212541   4.113   2.312   4.359  0.8049  0.0878 -0.4503
 4179TIP3   OH212542   2.710   0.143   4.456 -0.0440  0.1048 -0.2485
 4179TIP3    H112543   2.685   0.235   4.445 -2.2560 -0.2753  1.0909
 4179TIP3    H212544   2.705   0.128   4.550 -0.6038 -1.6163 -0.5152
 4180TIP3   OH212545   5.932   2.015   5.164 -0.4727 -0.0974 -0.0977
 4180TIP3    H112546   5.927   1.957   5.241  1.3696  0.3909  0.4463
 4180TIP3    H212547   6.004   1.978   5.112 -0.3348  0.7834 -0.5398
 4181TIP3   OH212548   3.232   2.115   2.379  0.0977 -0.0102  0.2910
 4181TIP3    H112549   3.225   2.196   2.428 -1.5608 -0.7399  1.3535
 4181TIP3    H212550   3.196   2.048   2.437 -0.0011 -1.2624 -1.1323
 4182TIP3   OH212551   2.100   0.936   2.321 -0.2666 -0.2603 -0.0069
 4182TIP3    H112552   2.123   0.894   2.404 -1.0863 -2.2081 -0.6998
 4182TIP3    H212553   2.105   1.030   2.339 -2.1222 -0.5810  2.7642
 4183TIP3   OH212554   3.643   3.155   2.740 -0.4115  0.4483  0.2931
 4183TIP3    H112555   3.593   3.098   2.682  0.1682 -0.3626  0.5759
 4183TIP3    H212556   3.724   3.174   2.692 -1.6616  3.2693 -0.9759
 4184TIP3   OH212557   3.358   2.223   0.238  0.3109 -0.0376  0.0566
 4184TIP3    H112558   3.417   2.149   0.249 -0.9585 -0.9060  1.3839
 4184TIP3    H212559   3.329   2.245   0.327 -0.5357  1.0530 -0.4544
 4185TIP3   OH212560   2.176   3.940   0.621 -0.2815 -0.5326 -0.2850
 4185TIP3    H112561   2.224   3.860   0.639 -0.9508 -0.5951  1.4000
 4185TIP3    H212562   2.225   3.983   0.551  2.4345 -0.4374  1.5428
 4186TIP3   OH212563   5.951   3.195   2.653  0.0449 -0.1897  0.5322
 4186TIP3    H112564   5.896   3.120   2.632  0.6810 -0.5205  0.0158
 4186TIP3    H212565   6.038   3.170   2.623  0.1337  1.0246 -0.3063
 4187TIP3   OH212566   0.431   3.070   0.353 -0.7064  0.6949 -0.0520
 4187TIP3    H112567   0.452   3.021   0.432 -0.7741 -1.0411 -1.0594
 4187TIP3    H212568   0.516   3.094   0.317 -0.6232  0.1338 -0.2440
 4188TIP3   OH212569   1.447   3.196   1.281  0.5772 -0.4354 -0.2319
 4188TIP3    H112570   1.380   3.220   1.218  1.7414  0.4962 -1.1764
 4188TIP3    H212571   1.417   3.112   1.317 -1.6252  0.4902  0.2315
 4189TIP3   OH212572   1.603   0.811   2.267 -0.3520  0.4522  0.1265
 4189TIP3    H112573   1.691   0.825   2.303  0.4691  1.2948 -1.9733
 4189TIP3    H212574   1.544   0.833   2.338  1.1465  1.9936  0.9843
 4190TIP3   OH212575   4.233   4.049   2.886  0.3789 -0.0495  0.4139
 4190TIP3    H112576   4.301   4.094   2.836  0.3399 -1.4550 -0.9844
 4190TIP3    H212577   4.279   3.981   2.934  0.0585 -0.6279 -0.0799
 4191TIP3   OH212578   2.520   5.849   2.936 -0.1938  0.1840  0.0023
 4191TIP3    H112579   2.450   5.877   2.878 -1.7005  1.0143  2.0908
 4191TIP3    H212580   2.493   5.762   2.965  0.2882 -0.0201 -0.1607
 4192TIP3   OH212581   3.031   3.329   2.729 -0.1582  0.1939  0.4812
 4192TIP3    H112582   3.040   3.413   2.684  2.7211  0.0030  0.5186
 4192TIP3    H212583   3.093   3.271   2.684  0.0704 -1.0486  2.2847
 4193TIP3   OH212584   1.513   0.670   3.830  0.1433 -0.0351 -0.5451
 4193TIP3    H112585   1.473   0.718   3.903  0.3982 -2.2617  1.1901
 4193TIP3    H212586   1.559   0.597   3.873 -0.4066 -1.9462 -2.9884
 4194TIP3   OH212587   5.799   0.187   4.520  0.4179  0.3592 -0.1926
 4194TIP3    H112588   5.782   0.259   4.460 -0.3229  0.7386  0.4525
 4194TIP3    H212589   5.715   0.171   4.563  0.1862 -1.9164 -1.3956
 4195TIP3   OH212590   0.602   5.630   1.719  0.1811  0.1609 -0.1874
 4195TIP3    H112591   0.650   5.551   1.694 -0.5851 -0.5273  0.4317
 4195TIP3    H212592   0.593   5.680   1.638 -1.8945 -1.8176 -1.3075
 4196TIP3   OH212593   4.374   1.260   0.795  0.0994  0.1678 -0.2360
 4196TIP3    H112594   4.309   1.249   0.725  0.4772  2.5285 -1.0257
 4196TIP3    H212595   4.333   1.321   0.856  0.3702 -0.7495  0.9212
 4197TIP3   OH212596   4.714   2.261   4.352  0.6085 -0.3144  0.1331
 4197TIP3    H112597   4.724   2.269   4.447  1.5414 -1.3015  0.1214
 4197TIP3    H212598   4.631   2.215   4.341 -0.8465  2.0603  0.3714
 4198TIP3   OH212599   3.171   5.321   0.999 -0.2340  0.0727 -0.7575
 4198TIP3    H112600   3.173   5.315   0.903  2.5723  0.1164 -0.7787
 4198TIP3    H212601   3.260   5.302   1.026 -0.6019  1.5394  1.7952
 4199TIP3   OH212602   1.348   0.029   1.375  0.7707 -0.0895  0.1943
 4199TIP3    H112603   1.263   0.039   1.417 -1.1673 -0.2624 -3.3254
 4199TIP3    H212604   1.343  -0.054   1.327  1.9414  1.0281 -2.0355
 4200TIP3   OH212605   4.312   1.408   4.111 -0.1441  0.3231  0.4131
 4200TIP3    H112606   4.303   1.379   4.202  0.0980  1.3080  0.7691
 4200TIP3    H212607   4.405   1.401   4.093 -0.0452  1.0941  0.5898
 4201TIP3   OH212608   4.600   1.856   2.970 -0.0172 -0.1883  0.3939
 4201TIP3    H112609   4.552   1.918   3.024  0.5176  0.7374 -0.1612
 4201TIP3    H212610   4.555   1.772   2.983 -1.1914  0.4549  0.5920
 4202TIP3   OH212611   3.409   5.349   5.154 -0.3362  0.3892 -0.1711
 4202TIP3    H112612   3.422   5.256   5.174 -1.2163 -0.0076 -1.3148
 4202TIP3    H212613   3.314   5.360   5.156 -0.2229  2.0488  3.1306
 4203TIP3   OH212614   4.123   3.954   0.875 -0.0115  0.2121 -0.2022
 4203TIP3    H112615   4.067   3.944   0.953  0.4445 -1.0142 -0.0097
 4203TIP3    H212616   4.192   4.013   0.903  1.3467 -1.8197  1.0702
 4204TIP3   OH212617   4.287   2.926   4.598 -0.3965  0.5183 -0.1322
 4204TIP3    H112618   4.364   2.978   4.575 -0.1144 -0.1312 -0.7244
 4204TIP3    H212619   4.251   2.898   4.513 -0.3967 -0.4439  0.1697
 4205TIP3   OH212620   5.636   3.062   1.050 -0.0279  0.6596 -0.0082
 4205TIP3    H112621   5.694   3.096   0.982 -0.3600  1.0247 -0.1130
 4205TIP3    H212622   5.639   3.129   1.119 -1.4465  1.4004 -0.6287
 4206TIP3   OH212623   2.909   3.877   0.732  0.1598  0.3246 -0.2670
 4206TIP3    H112624   2.908   3.825   0.813  1.1262 -0.9120 -1.0020
 4206TIP3    H212625   2.987   3.933   0.741  0.1974  0.2751 -0.2814
 4207TIP3   OH212626   1.049   2.030   2.883 -0.1560 -0.1049 -0.1725
 4207TIP3    H112627   1.103   1.976   2.942 -2.0673 -1.4020  0.4816
 4207TIP3    H212628   1.002   2.089   2.942 -0.0225  0.4837 -0.6549
 4208TIP3   OH212629   5.654   5.683   1.869 -0.1612 -0.2531  0.1951
 4208TIP3    H112630   5.649   5.590   1.891 -1.9905 -0.5327 -1.1411
 4208TIP3    H212631   5.570   5.718   1.898  0.0519  0.7235 -0.3480
 4209TIP3   OH212632   5.688   3.321   4.782 -0.1187 -0.6275 -0.1125
 4209TIP3    H112633   5.689   3.225   4.780 -0.1468 -0.6320  0.0774
 4209TIP3    H212634   5.765   3.347   4.730  0.0363 -0.7556  0.0514
 4210TIP3   OH212635   4.362   5.631   4.951  0.0861  0.4386  0.2985
 4210TIP3    H112636   4.336   5.606   5.040 -0.4940 -0.4907 -0.1146
 4210TIP3    H212637   4.446   5.589   4.938 -1.1058 -1.8705 -0.5714
 4211TIP3   OH212638   4.843   4.784   4.999  0.0886  0.1443  0.1808
 4211TIP3    H112639   4.807   4.765   4.912 -1.4550  1.6761  0.4311
 4211TIP3    H212640   4.846   4.699   5.042  0.7513 -0.6240 -1.3044
 4212TIP3   OH212641   0.566   1.168   3.276 -0.1955 -0.5046  0.7732
 4212TIP3    H112642   0.582   1.262   3.290 -0.7489 -0.2132 -0.4029
 4212TIP3    H212643   0.494   1.147   3.336 -1.2698  0.2733 -0.1835
 4213TIP3   OH212644   3.619   2.865   1.318  0.0283  0.1555  0.3612
 4213TIP3    H112645   3.556   2.866   1.246 -0.4926 -1.7965  0.7291
 4213TIP3    H212646   3.571   2.903   1.392 -0.4973 -0.5959  0.4284
 4214TIP3   OH212647   1.648   0.258   1.121  0.1493 -0.1715 -0.1992
 4214TIP3    H112648   1.655   0.348   1.091 -1.0637  0.4652  1.3051
 4214TIP3    H212649   1.587   0.261   1.194  2.5686 -1.6879  2.0818
 4215TIP3   OH212650   0.732   4.965   4.732  0.7631 -0.1478 -0.2557
 4215TIP3    H112651   0.698   4.892   4.682  1.2151  0.0301 -0.8253
 4215TIP3    H212652   0.804   4.928   4.783 -0.0886 -0.4692  0.7642
 4216TIP3   OH212653   4.895   1.365   0.385 -0.8688 -0.3826 -0.4148
 4216TIP3    H112654   4.965   1.342   0.324 -1.3483  0.4509 -1.3054
 4216TIP3    H212655   4.837   1.289   0.386 -0.4645 -0.6929 -0.4158
 4217TIP3   OH212656   6.289   2.034   1.671  0.2630 -0.7644  0.6558
 4217TIP3    H112657   6.266   1.970   1.604  0.0564 -0.9824  0.9348
 4217TIP3    H212658   6.335   1.984   1.738 -1.1936 -0.9126  1.5866
 4218TIP3   OH212659   2.186   5.521   1.346 -0.4039  0.3351  0.0497
 4218TIP3    H112660   2.198   5.574   1.267 -0.1720 -0.0986 -0.2131
 4218TIP3    H212661   2.274   5.514   1.383 -0.6449  1.3174  0.8719
 4219TIP3   OH212662   1.387   3.492   4.576 -0.1842  0.7352 -0.4739
 4219TIP3    H112663   1.369   3.451   4.491  1.2211  1.8371 -1.3420
 4219TIP3    H212664   1.364   3.584   4.563 -0.3638  0.8362  0.4898
 4220TIP3   OH212665   0.205   3.204   1.475  0.5848  0.1289 -0.1431
 4220TIP3    H112666   0.143   3.131   1.470 -1.2354  1.5473  0.6849
 4220TIP3    H212667   0.241   3.211   1.386  1.4647 -2.2664 -0.0492
 4221TIP3   OH212668   2.228   4.424   1.627 -0.4286 -0.0563  0.2442
 4221TIP3    H112669   2.268   4.506   1.598 -0.1938 -0.8739 -1.9511
 4221TIP3    H212670   2.188   4.387   1.547 -0.4977 -2.0787  1.1467
 4222TIP3   OH212671   1.507   3.745   4.564 -0.2797  0.2747 -0.1907
 4222TIP3    H112672   1.576   3.754   4.498 -0.4900 -0.1725 -0.4748
 4222TIP3    H212673   1.444   3.814   4.543  0.2518  0.9211  0.2903
 4223TIP3   OH212674   0.191   5.804   4.479  0.2324 -0.3485 -0.5619
 4223TIP3    H112675   0.266   5.837   4.431  1.2429 -2.8134 -0.8515
 4223TIP3    H212676   0.222   5.722   4.518 -1.8367 -0.6069  0.6767
 4224TIP3   OH212677   2.839   4.911   4.548  0.2374 -0.2696 -0.7584
 4224TIP3    H112678   2.864   4.891   4.638  0.7320  1.9293 -0.3409
 4224TIP3    H212679   2.750   4.946   4.554  0.1024 -0.5287 -1.1846
 4225TIP3   OH212680   2.790   5.515   0.697  0.1056 -0.2533  0.3723
 4225TIP3    H112681   2.741   5.585   0.740 -1.0372 -0.6834 -0.1663
 4225TIP3    H212682   2.808   5.452   0.767 -1.2167 -0.6649  0.3839
 4226TIP3   OH212683   2.348   1.180   2.674 -0.0530 -0.2950 -0.0974
 4226TIP3    H112684   2.305   1.199   2.590 -1.0781  2.4622  0.9230
 4226TIP3    H212685   2.405   1.256   2.689 -0.4531 -0.3654  2.0223
 4227TIP3   OH212686   2.778   2.283   2.405 -0.0705  0.4973 -0.3008
 4227TIP3    H112687   2.820   2.284   2.491  2.2398 -0.6030 -1.3281
 4227TIP3    H212688   2.743   2.194   2.397 -1.7065  1.0803  0.1056
 4228TIP3   OH212689   4.609   0.460   4.115 -0.7748 -0.2538  0.4136
 4228TIP3    H112690   4.571   0.400   4.180  0.5284 -1.0910  0.4375
 4228TIP3    H212691   4.674   0.510   4.165  0.3247 -0.9881 -0.2474
 4229TIP3   OH212692   5.127   5.111   2.276  0.0905  0.1667  0.3077
 4229TIP3    H112693   5.145   5.175   2.207 -1.5476  1.0042  0.6092
 4229TIP3    H212694   5.037   5.129   2.302 -0.1857 -1.8249  0.8954
 4230TIP3   OH212695   5.998   1.525   3.223 -0.2927 -0.4614  0.1300
 4230TIP3    H112696   6.023   1.506   3.133 -1.9476 -0.2850 -0.3974
 4230TIP3    H212697   5.949   1.607   3.218 -0.8656 -0.7290  1.1031
 4231TIP3   OH212698   1.171   3.281   0.701  0.8173 -0.9268 -0.0193
 4231TIP3    H112699   1.239   3.269   0.768 -0.9860 -3.4492  1.5059
 4231TIP3    H212700   1.090   3.255   0.744 -0.8560 -0.0262 -2.4344
 4232TIP3   OH212701   5.557   3.431   1.871 -0.2001  0.0121 -0.1422
 4232TIP3    H112702   5.636   3.377   1.877 -0.8427 -0.9589 -0.1539
 4232TIP3    H212703   5.495   3.390   1.931 -0.9604  0.2973 -0.7172
 4233TIP3   OH212704   4.029   3.523   3.002 -0.0763  0.0414 -0.0439
 4233TIP3    H112705   3.989   3.520   3.089 -0.1954 -0.5664 -0.1136
 4233TIP3    H212706   3.999   3.605   2.965  1.9323  1.5426  1.4122
 4234TIP3   OH212707   4.379   0.470   2.319  0.7390 -0.0567  0.2627
 4234TIP3    H112708   4.320   0.543   2.341 -0.0029 -0.2455 -1.0198
 4234TIP3    H212709   4.320   0.400   2.291  1.5604 -0.3825 -0.6887
 4235TIP3   OH212710   2.661   1.878   4.937 -0.3073  0.6048 -0.0802
 4235TIP3    H112711   2.581   1.905   4.984 -1.2581  0.7059 -1.6674
 4235TIP3    H212712   2.709   1.960   4.923 -1.0498  0.8925 -1.0697
 4236TIP3   OH212713   3.796   4.972   4.606  0.0427  0.2262 -0.2421
 4236TIP3    H112714   3.825   5.060   4.630  1.4782 -0.2999  0.0376
 4236TIP3    H212715   3.872   4.916   4.622 -0.8596 -1.0816 -0.3657
 4237TIP3   OH212716   0.513   1.829   4.842  0.0489 -0.4148 -0.4307
 4237TIP3    H112717   0.589   1.875   4.877 -0.8659  0.4045  0.5374
 4237TIP3    H212718   0.464   1.896   4.794 -0.6537 -0.6588 -0.0671
 4238TIP3   OH212719   4.017   5.500   4.405  0.1034 -0.6862 -0.7212
 4238TIP3    H112720   4.051   5.582   4.371 -0.1025 -0.9344 -1.5585
 4238TIP3    H212721   4.019   5.510   4.500 -0.1271  0.3717 -0.8185
 4239TIP3   OH212722   6.002   0.120   1.541  0.1261 -1.0500 -0.0702
 4239TIP3    H112723   5.940   0.165   1.484  2.1845 -0.3576 -1.8765
 4239TIP3    H212724   6.017   0.036   1.498  1.9165 -0.4067 -0.7888
 4240TIP3   OH212725   6.000   4.500   0.053  0.1307  0.0470 -0.0435
 4240TIP3    H112726   6.064   4.455   0.107 -0.7941 -0.6319  0.5091
 4240TIP3    H212727   6.032   4.489  -0.037  0.2083 -1.2626  0.1324
 4241TIP3   OH212728   0.512   4.931   1.400 -0.8512 -0.3825 -0.5076
 4241TIP3    H112729   0.440   4.933   1.463 -1.4264 -2.5849 -1.0226
 4241TIP3    H212730   0.586   4.894   1.448 -0.9374 -0.9060 -0.7663
 4242TIP3   OH212731   0.808   5.635   0.861 -0.1024 -0.0233  0.2685
 4242TIP3    H112732   0.743   5.576   0.824 -1.4808  0.5781  1.6335
 4242TIP3    H212733   0.792   5.719   0.820 -0.0557  0.0820  0.4613
 4243TIP3   OH212734   4.660   3.050   0.650 -0.2664 -0.1908 -0.1479
 4243TIP3    H112735   4.751   3.031   0.628 -0.2051 -1.2424  0.8661
 4243TIP3    H212736   4.636   2.980   0.711 -1.8540 -0.1138 -0.6421
 4244TIP3   OH212737   4.080   2.128   2.694  0.0559  0.2230  0.0744
 4244TIP3    H112738   3.993   2.159   2.669  1.2576  1.6010 -2.9959
 4244TIP3    H212739   4.120   2.101   2.611  2.7287  0.1069  1.2941
 4245TIP3   OH212740   0.818   5.669   4.106  0.5102  0.0898  0.8392
 4245TIP3    H112741   0.812   5.590   4.053 -0.2109 -1.1426  2.6744
 4245TIP3    H212742   0.907   5.669   4.139  1.0924  1.0847 -0.6395
 4246TIP3   OH212743   4.061   1.081   0.405 -0.5522  0.3651 -0.1804
 4246TIP3    H112744   4.145   1.037   0.390 -0.9356  0.0672 -1.6715
 4246TIP3    H212745   4.005   1.048   0.335 -1.7020  1.1107  0.3713
 4247TIP3   OH212746   5.606   4.234   1.125  0.0434 -0.3614  0.5776
 4247TIP3    H112747   5.530   4.220   1.181 -1.6812  0.2471 -1.4464
 4247TIP3    H212748   5.614   4.153   1.075 -0.2573  0.1071 -0.2605
 4248TIP3   OH212749   2.988   3.195   1.053  0.0182  0.6198 -0.6872
 4248TIP3    H112750   2.964   3.102   1.055  1.1226  0.3329  0.1501
 4248TIP3    H212751   3.082   3.195   1.068 -0.3760  2.0217  2.5874
 4249TIP3   OH212752   3.997   2.613   1.512  0.1268  0.6963 -0.5910
 4249TIP3    H112753   4.057   2.683   1.537 -0.6630  1.5809 -1.0976
 4249TIP3    H212754   3.931   2.656   1.458 -2.0315  0.1808  1.4487
 4250TIP3   OH212755   4.668   5.136   1.833 -0.7122  0.2185  0.1653
 4250TIP3    H112756   4.632   5.222   1.810 -1.0059 -0.0292 -0.2969
 4250TIP3    H212757   4.647   5.080   1.759 -0.1202 -0.1436  0.2664
 4251TIP3   OH212758   3.875   3.020   1.538 -0.4858 -0.0777 -0.0317
 4251TIP3    H112759   3.955   2.969   1.554 -0.9982 -0.9975 -0.3591
 4251TIP3    H212760   3.905   3.093   1.484  0.2036 -0.1846  0.1847
 4252TIP3   OH212761   6.342   1.271   2.091 -0.1197 -0.4911  0.2024
 4252TIP3    H112762   6.247   1.275   2.087 -0.1176  1.8937  1.0040
 4252TIP3    H212763   6.372   1.322   2.015  0.4431  0.4588  1.0210
 4253TIP3   OH212764   0.195   4.110   4.324  0.0104  0.2480  0.6893
 4253TIP3    H112765   0.253   4.178   4.290  0.4842 -0.3119  0.3582
 4253TIP3    H212766   0.120   4.111   4.265  2.2269 -2.9384 -2.6461
 4254TIP3   OH212767   4.835   3.949   3.032 -0.5314 -0.3683  0.0158
 4254TIP3    H112768   4.787   3.909   3.104  0.1151  0.3481  0.8546
 4254TIP3    H212769   4.766   3.976   2.970 -1.2892  0.9803  1.3566
 4255TIP3   OH212770   5.560   4.011   1.396 -0.1371  0.5023  0.2664
 4255TIP3    H112771   5.489   4.028   1.457 -1.2218  0.7091 -1.0131
 4255TIP3    H212772   5.517   4.002   1.311  1.1869 -1.1219 -0.2774
 4256TIP3   OH212773   5.747   4.820   1.552 -0.3648  0.2080 -0.4060
 4256TIP3    H112774   5.690   4.870   1.494 -0.0545 -1.6672 -2.4422
 4256TIP3    H212775   5.747   4.732   1.515  3.9012  0.0987 -0.5612
 4257TIP3   OH212776   1.721   3.472   4.379  0.3111 -0.1131  0.7573
 4257TIP3    H112777   1.704   3.473   4.473  1.8132  0.8569  1.0498
 4257TIP3    H212778   1.707   3.380   4.354 -2.9419  0.0994  1.3065
 4258TIP3   OH212779   1.378   0.557   0.467  0.9280 -0.1496 -0.3797
 4258TIP3    H112780   1.357   0.479   0.520 -0.2526 -0.2337 -0.9355
 4258TIP3    H212781   1.321   0.550   0.390  2.6284 -0.0337 -1.6933
 4259TIP3   OH212782   1.861   5.444   4.703  0.0351  0.4554  0.5069
 4259TIP3    H112783   1.769   5.442   4.675  0.0296 -0.8325  0.5634
 4259TIP3    H212784   1.909   5.405   4.631  0.6738  1.8999  0.1099
 4260TIP3   OH212785   4.076   5.834   2.089  0.1979 -0.2263 -0.5063
 4260TIP3    H112786   4.018   5.831   2.013  1.3143 -1.1175 -1.3672
 4260TIP3    H212787   4.130   5.912   2.076 -1.0609  0.8526  0.5210
 4261TIP3   OH212788   1.407   1.923   2.130 -0.3305  0.1092  0.0320
 4261TIP3    H112789   1.377   1.832   2.132 -0.0584  0.0347  0.8505
 4261TIP3    H212790   1.501   1.918   2.147 -0.1066  0.4645 -1.0149
 4262TIP3   OH212791   6.008   2.485   3.263  0.1662  0.5137  0.1984
 4262TIP3    H112792   6.053   2.418   3.211 -1.5175  0.4855 -1.3121
 4262TIP3    H212793   6.073   2.554   3.274  1.0458 -0.1520 -0.6287
 4263TIP3   OH212794   3.012   5.081   2.335 -0.2522  0.1596 -1.0737
 4263TIP3    H112795   3.108   5.088   2.329 -0.0657 -2.3102 -2.3453
 4263TIP3    H212796   2.982   5.089   2.244 -1.4696  2.4628 -0.5414
 4264TIP3   OH212797   3.216   3.741   1.985 -0.1751  0.4036 -0.2463
 4264TIP3    H112798   3.262   3.672   2.032  2.8530  2.5651  0.2398
 4264TIP3    H212799   3.217   3.712   1.894 -1.9361 -1.6398  0.3032
 4265TIP3   OH212800   5.706   3.063   1.885  0.1356 -0.1476  0.1807
 4265TIP3    H112801   5.752   3.142   1.914  0.3008  0.0454 -0.5803
 4265TIP3    H212802   5.731   2.996   1.949  1.8128 -0.1485 -0.4185
 4266TIP3   OH212803   1.780   3.809   1.624  0.2535  0.4975  0.0864
 4266TIP3    H112804   1.729   3.832   1.546 -1.1825 -1.8396  0.2487
 4266TIP3    H212805   1.829   3.889   1.644 -1.5624  2.1307 -1.4760
 4267TIP3   OH212806   4.246   4.162   3.829 -0.2661  0.8046  0.5706
 4267TIP3    H112807   4.175   4.225   3.843  0.0903  1.2866  0.2451
 4267TIP3    H212808   4.294   4.196   3.753 -0.3647 -0.1318  0.0782
 4268TIP3   OH212809   2.549   2.720   3.908  0.4901 -0.0772 -0.1250
 4268TIP3    H112810   2.587   2.783   3.969  0.0505  0.9154 -0.8396
 4268TIP3    H212811   2.612   2.648   3.905  0.2520 -0.4367  1.9145
 4269TIP3   OH212812   2.421   4.839   5.008 -0.3844  0.3352 -0.0649
 4269TIP3    H112813   2.388   4.816   4.921  0.9154 -1.7273 -0.0924
 4269TIP3    H212814   2.347   4.823   5.067 -0.4550 -1.1107 -0.4945
 4270TIP3   OH212815   6.225   5.365   3.709  0.0868  0.1050 -1.1918
 4270TIP3    H112816   6.293   5.338   3.771 -0.6304  0.7383 -0.0950
 4270TIP3    H212817   6.167   5.421   3.760 -0.3506  0.9216 -2.5360
 4271TIP3   OH212818   5.643   3.287   0.412  0.2731 -0.3075  0.0959
 4271TIP3    H112819   5.641   3.211   0.354 -1.2105 -1.2212  1.2796
 4271TIP3    H212820   5.645   3.250   0.500  0.6888  1.0459  0.6773
 4272TIP3   OH212821   4.915   2.943   5.002  0.5356  0.3827 -0.4417
 4272TIP3    H112822   4.932   3.035   5.023  0.2580  0.9029 -2.3384
 4272TIP3    H212823   4.876   2.944   4.914 -3.4240 -1.2348  1.0591
 4273TIP3   OH212824   4.285   0.807   0.519 -0.5172 -0.1791  0.1074
 4273TIP3    H112825   4.304   0.873   0.452  1.6660  0.8475  1.6073
 4273TIP3    H212826   4.298   0.723   0.474 -0.1142  0.4668 -1.0229
 4274TIP3   OH212827   3.430   4.956   0.430 -0.1064 -0.1488 -0.3393
 4274TIP3    H112828   3.431   4.861   0.420  2.2283 -0.1396 -0.8451
 4274TIP3    H212829   3.414   4.990   0.342  1.0465 -0.1098 -0.5554
 4275TIP3   OH212830   0.820   2.503   4.399  0.1938 -0.0753 -0.3350
 4275TIP3    H112831   0.811   2.487   4.493 -1.2548  0.5949 -0.3368
 4275TIP3    H212832   0.915   2.513   4.386  0.2833  2.7593  1.5816
 4276TIP3   OH212833   2.820   1.255   4.524  0.2319 -0.7256  0.5934
 4276TIP3    H112834   2.899   1.288   4.480  0.4529  3.0379  3.2326
 4276TIP3    H212835   2.753   1.252   4.456  1.9355 -1.2117 -1.1389
 4277TIP3   OH212836   2.823   3.360   4.967 -0.3698  0.6819  0.2571
 4277TIP3    H112837   2.830   3.334   4.875 -0.3226  0.0656  0.4280
 4277TIP3    H212838   2.824   3.277   5.015 -0.8520  0.9761  0.7839
 4278TIP3   OH212839   1.206   2.193   4.292  0.0436 -0.0737  0.6256
 4278TIP3    H112840   1.283   2.149   4.328 -0.3603  0.0287  1.6611
 4278TIP3    H212841   1.219   2.191   4.197  1.9128  1.0375  0.8163
 4279TIP3   OH212842   5.919   4.766   0.235  0.0499 -0.1445  0.0178
 4279TIP3    H112843   5.921   4.727   0.322 -1.9283  0.8488  0.5768
 4279TIP3    H212844   5.911   4.691   0.176  0.3619 -0.7742  0.7568
 4280TIP3   OH212845   2.916   4.626   0.062  0.0563  0.1145 -0.3194
 4280TIP3    H112846   2.857   4.699   0.045  1.0952  1.0068 -0.2505
 4280TIP3    H212847   2.869   4.549   0.032 -1.7224  0.5997  1.0371
 4281TIP3   OH212848   0.884   2.429   0.617 -0.8086 -0.3462  0.4223
 4281TIP3    H112849   0.804   2.458   0.660 -0.7508  0.0120  0.2882
 4281TIP3    H212850   0.905   2.346   0.659 -1.3633 -0.5438  0.3215
 4282TIP3   OH212851   5.774   1.399   0.638 -0.2283  0.5173  0.5216
 4282TIP3    H112852   5.841   1.433   0.697 -1.9059  0.0229  2.8837
 4282TIP3    H212853   5.763   1.308   0.665 -0.0953 -0.1461 -1.5476
 4283TIP3   OH212854   3.705   2.661   0.701  0.5342  0.4474 -0.4357
 4283TIP3    H112855   3.751   2.738   0.735 -0.0119  0.9084 -0.7221
 4283TIP3    H212856   3.648   2.696   0.632 -0.4721 -0.0568  0.1223
 4284TIP3   OH212857   2.716   3.863   2.601 -0.3402  0.1128  0.4107
 4284TIP3    H112858   2.732   3.773   2.630 -1.0387 -0.1823 -0.1059
 4284TIP3    H212859   2.788   3.883   2.542  0.2883  0.2021  1.1887
 4285TIP3   OH212860   4.344   1.182   1.861 -0.6590 -0.9295  0.6274
 4285TIP3    H112861   4.329   1.119   1.791  1.8866 -2.2764  1.1493
 4285TIP3    H212862   4.264   1.182   1.912 -2.0975 -0.8766 -1.5142
 4286TIP3   OH212863   4.904   5.570   0.109  0.2591  0.0797 -0.3595
 4286TIP3    H112864   4.966   5.614   0.051  0.8874 -0.5021 -0.1286
 4286TIP3    H212865   4.825   5.560   0.055 -0.1237  2.0296 -0.2283
 4287TIP3   OH212866   1.053   2.708   1.268  0.0554  0.3700 -0.2137
 4287TIP3    H112867   0.969   2.754   1.271 -0.9484 -1.4454  1.9073
 4287TIP3    H212868   1.039   2.638   1.204 -1.2172 -1.8248  2.2744
 4288TIP3   OH212869   5.516   3.740   0.856 -0.2894  0.6468  0.0054
 4288TIP3    H112870   5.532   3.810   0.793 -0.6981 -0.2619 -1.1612
 4288TIP3    H212871   5.580   3.754   0.925  1.4590  0.6066 -1.5260
 4289TIP3   OH212872   4.318   5.347   2.446  0.0054 -0.3358 -0.5832
 4289TIP3    H112873   4.376   5.297   2.502  1.6244  1.7962 -0.2393
 4289TIP3    H212874   4.290   5.421   2.500 -0.6456  0.2554 -1.6933
 4290TIP3   OH212875   6.232   4.216   5.205 -0.3921  0.3570  0.3106
 4290TIP3    H112876   6.246   4.241   5.113 -0.5240  3.7705  1.0709
 4290TIP3    H212877   6.153   4.163   5.204  1.0502 -1.9623 -1.7777
 4291TIP3   OH212878   1.955   1.559   2.257 -0.0422 -0.4474 -0.1472
 4291TIP3    H112879   1.948   1.510   2.175  1.3534  0.7301 -1.0190
 4291TIP3    H212880   1.959   1.491   2.325  2.6207 -1.6585 -1.3672
 4292TIP3   OH212881   0.505   5.149   3.014 -0.4061 -0.4157 -0.4596
 4292TIP3    H112882   0.517   5.170   3.106 -1.1388 -0.1882 -0.4088
 4292TIP3    H212883   0.428   5.091   3.012 -1.6994  1.2426 -1.1090
 4293TIP3   OH212884   3.509   0.653   1.886 -0.2146  0.5542  0.0787
 4293TIP3    H112885   3.526   0.747   1.890 -3.5535  1.3825 -1.3729
 4293TIP3    H212886   3.525   0.630   1.794  1.5494 -0.5890  0.6279
 4294TIP3   OH212887   3.917   3.869   4.285 -0.5853 -0.0901  0.2370
 4294TIP3    H112888   3.974   3.812   4.233  0.7980  2.0758 -0.7525
 4294TIP3    H212889   3.963   3.953   4.287 -2.6774  1.0984  1.3926
 4295TIP3   OH212890   3.212   0.229   5.043 -0.5213 -0.1383 -0.1553
 4295TIP3    H112891   3.291   0.212   5.095 -1.7494 -1.3463  1.4315
 4295TIP3    H212892   3.212   0.161   4.976  0.5115  0.7595 -1.0944
 4296TIP3   OH212893   3.173   5.846   3.751  0.3015  0.6069 -0.3705
 4296TIP3    H112894   3.081   5.847   3.725 -0.2236  1.5784  1.3587
 4296TIP3    H212895   3.208   5.928   3.717 -0.0850  1.3132  0.8537
 4297TIP3   OH212896   4.071   0.729   0.198  0.5307 -0.5208 -0.2317
 4297TIP3    H112897   4.096   0.637   0.206  2.3259  0.0635  1.3864
 4297TIP3    H212898   4.023   0.749   0.278  1.0110  0.1912 -0.1067
 4298TIP3   OH212899   3.634   1.996   3.811 -0.0192  0.0635 -0.0080
 4298TIP3    H112900   3.670   1.983   3.723 -1.4969  1.4736 -0.8919
 4298TIP3    H212901   3.564   2.060   3.798  0.9454  1.7660  2.5171
 4299TIP3   OH212902   2.525   3.558   2.167  0.6424  0.2451 -0.1293
 4299TIP3    H112903   2.580   3.635   2.180  0.4689  0.3649 -0.1015
 4299TIP3    H212904   2.458   3.565   2.235  0.4066  0.2666 -0.3603
 4300TIP3   OH212905   3.976   4.383   2.507 -0.0432 -0.3438  0.3665
 4300TIP3    H112906   3.972   4.478   2.519  2.4093 -0.0315 -0.6927
 4300TIP3    H212907   4.026   4.351   2.582 -1.8422 -1.0334  1.3556
 4301TIP3   OH212908   2.609   0.311   0.565  0.1379  0.2894 -0.0042
 4301TIP3    H112909   2.530   0.261   0.546  1.7106 -1.4815 -2.4524
 4301TIP3    H212910   2.613   0.377   0.496  1.1078 -0.0373 -0.2707
 4302TIP3   OH212911   2.034   3.754   4.911 -0.1227  0.1932  0.3520
 4302TIP3    H112912   2.039   3.843   4.876 -1.8431  0.4295  0.5902
 4302TIP3    H212913   1.980   3.762   4.989 -0.5742 -1.1017  0.1981
 4303TIP3   OH212914   2.393   5.479   4.444  0.1028 -0.0024 -0.7551
 4303TIP3    H112915   2.358   5.568   4.448  0.0243 -0.0607  0.3523
 4303TIP3    H212916   2.472   5.486   4.390  0.0649  0.7309 -0.7232
 4304TIP3   OH212917   2.482   3.451   2.621  0.2584 -0.6298 -0.1406
 4304TIP3    H112918   2.498   3.368   2.574  0.9866  0.0491 -1.1337
 4304TIP3    H212919   2.566   3.497   2.617 -0.8711  1.4857 -2.3101
 4305TIP3   OH212920   2.196   0.626   3.495 -0.2403 -0.4445 -0.0929
 4305TIP3    H112921   2.270   0.635   3.555 -0.2875  0.0534 -0.1040
 4305TIP3    H212922   2.198   0.706   3.443 -0.4115 -0.7153 -0.5185
 4306TIP3   OH212923   0.929   1.149   2.706 -0.2297 -0.1716 -0.4050
 4306TIP3    H112924   0.979   1.119   2.783 -0.6426  0.5119  0.1405
 4306TIP3    H212925   0.865   1.210   2.742 -0.4562  0.1256 -1.3001
 4307TIP3   OH212926   1.131   5.954   4.213  0.1137 -0.1948 -0.0933
 4307TIP3    H112927   1.158   6.028   4.267 -0.3769 -0.0723 -0.0158
 4307TIP3    H212928   1.048   5.981   4.174 -0.0915 -0.7168 -0.0301
 4308TIP3   OH212929   5.750   4.378   0.062  0.0800  0.2538 -0.0343
 4308TIP3    H112930   5.836   4.421   0.061 -0.5212  1.5301  1.0298
 4308TIP3    H212931   5.688   4.448   0.047 -0.8399 -0.5506 -0.0771
 4309TIP3   OH212932   1.616   5.361   4.198 -0.6919 -0.4508  0.4602
 4309TIP3    H112933   1.623   5.386   4.290 -0.9504 -0.4477  0.4803
 4309TIP3    H212934   1.661   5.277   4.193 -0.5179 -0.3635  0.5535
 4310TIP3   OH212935   3.975   3.171   1.294 -0.7814 -0.2099  0.3838
 4310TIP3    H112936   4.067   3.174   1.319 -0.1362  0.9651 -1.8639
 4310TIP3    H212937   3.966   3.091   1.242 -0.5186  0.6807 -1.0736
 4311TIP3   OH212938   5.310   1.106   3.038 -0.6605  0.1892 -0.0982
 4311TIP3    H112939   5.405   1.120   3.040 -0.1381 -2.4108  2.4212
 4311TIP3    H212940   5.292   1.072   2.951  1.4728 -2.5348  0.3705
 4312TIP3   OH212941   0.483   3.778   5.020  0.4423 -0.2125  0.4191
 4312TIP3    H112942   0.432   3.706   5.057 -0.0443  0.3046  0.7753
 4312TIP3    H212943   0.487   3.758   4.926  0.0630 -0.5469  0.4704
 4313TIP3   OH212944   5.359   0.015   3.270 -0.5878 -0.7705  0.0350
 4313TIP3    H112945   5.347   0.094   3.217 -0.2709 -0.1673  0.8408
 4313TIP3    H212946   5.437  -0.026   3.234 -0.9077 -0.8636 -0.5645
 4314TIP3   OH212947   2.537   5.327   3.359  0.3891 -0.0453  0.2122
 4314TIP3    H112948   2.448   5.291   3.352  0.8116 -0.7550 -2.6389
 4314TIP3    H212949   2.595   5.252   3.347  1.3509  0.7606 -0.3431
 4315TIP3   OH212950   3.250   2.337   0.496 -0.4910 -0.3945  0.3504
 4315TIP3    H112951   3.190   2.295   0.558 -0.1802  0.5496  1.3216
 4315TIP3    H212952   3.305   2.393   0.550  0.3754 -0.2089 -0.6912
 4316TIP3   OH212953   4.816   4.387   0.714  0.1807 -0.2618  0.3212
 4316TIP3    H112954   4.741   4.388   0.772 -0.1665 -0.9822 -0.1000
 4316TIP3    H212955   4.779   4.386   0.626  0.6929  2.3792 -0.0144
 4317TIP3   OH212956   5.144   1.634   1.122 -0.4505  0.1130 -0.8265
 4317TIP3    H112957   5.147   1.589   1.206 -0.2128  0.4276 -0.6637
 4317TIP3    H212958   5.213   1.593   1.070 -0.8093 -0.3011 -0.9831
 4318TIP3   OH212959   0.697   2.925   2.731  0.1585  0.6190  0.5965
 4318TIP3    H112960   0.765   2.904   2.667 -1.3878  0.6078 -1.1104
 4318TIP3    H212961   0.647   2.844   2.740 -1.1606  1.3229 -0.1411
 4319TIP3   OH212962   1.851   3.488  -0.028  0.2054  0.4519  0.3331
 4319TIP3    H112963   1.897   3.412   0.009 -0.4614 -0.2503 -0.2568
 4319TIP3    H212964   1.789   3.513   0.040 -1.0640 -0.8781 -0.2739
 4320TIP3   OH212965   4.535   0.143   0.951 -0.1701 -0.6269  0.2238
 4320TIP3    H112966   4.527   0.065   1.005  2.5252  0.4354  2.4040
 4320TIP3    H212967   4.608   0.124   0.891 -1.1693 -0.6657 -1.0306
 4321TIP3   OH212968   3.851   4.278   1.850 -0.4118 -0.3253 -0.1215
 4321TIP3    H112969   3.862   4.346   1.917 -0.1911  0.0124 -0.4913
 4321TIP3    H212970   3.939   4.268   1.813 -0.5843 -0.3142 -0.5396
 4322TIP3   OH212971   5.689   5.748   2.400 -0.1856  0.0273 -0.5114
 4322TIP3    H112972   5.671   5.667   2.351  1.1262 -2.0388  2.1429
 4322TIP3    H212973   5.762   5.788   2.353 -0.0898 -0.9642 -1.2462
 4323TIP3   OH212974   2.016   0.176   4.701 -0.1262  0.2425 -0.4307
 4323TIP3    H112975   1.935   0.226   4.696  1.4054  2.9141 -0.6005
 4323TIP3    H212976   2.070   0.208   4.629  0.8180 -2.0683 -0.8640
 4324TIP3   OH212977   1.263   5.423   0.862  0.2918  0.1848 -0.3311
 4324TIP3    H112978   1.228   5.503   0.901  0.2939  0.2593 -0.4837
 4324TIP3    H212979   1.358   5.438   0.858  0.3465 -0.0167  0.0818
 4325TIP3   OH212980   0.613   3.483   2.587  0.3454 -0.0974  0.1389
 4325TIP3    H112981   0.553   3.425   2.634  2.2947 -0.1287  2.8482
 4325TIP3    H212982   0.597   3.570   2.624 -0.0482  0.4688 -1.2868
 4326TIP3   OH212983   2.135   2.294   2.138  0.1856 -0.2942  0.3130
 4326TIP3    H112984   2.095   2.207   2.142  0.8481 -0.5564  1.3375
 4326TIP3    H212985   2.194   2.289   2.063  0.2508 -0.7317  0.3899
 4327TIP3   OH212986   2.403   2.699   2.657 -0.4130  0.2363 -0.6415
 4327TIP3    H112987   2.386   2.620   2.606 -0.6055 -1.1122  1.3800
 4327TIP3    H212988   2.328   2.706   2.717  0.2521  1.1825  0.1285
 4328TIP3   OH212989   4.554   3.071   5.208  0.2477 -0.1144 -0.1564
 4328TIP3    H112990   4.575   2.978   5.197 -0.8854 -0.2870 -1.0492
 4328TIP3    H212991   4.543   3.103   5.118  0.1369  0.7721  0.1649
 4329TIP3   OH212992   6.096   4.898   0.943  0.0836 -0.1229  0.1635
 4329TIP3    H112993   6.100   4.840   0.867  1.3692 -2.6126  1.9715
 4329TIP3    H212994   6.181   4.942   0.945 -0.3421  0.7501 -0.3838
 4330TIP3   OH212995   1.158   0.286   1.247  0.2184  0.2547  0.1092
 4330TIP3    H112996   1.224   0.348   1.279 -0.7360  0.8928  0.9015
 4330TIP3    H212997   1.139   0.232   1.324 -0.1391  0.0419 -0.1339
 4331TIP3   OH212998   5.806   1.730   4.505  0.1024  0.4083  0.2628
 4331TIP3    H112999   5.719   1.728   4.545  0.4962 -1.1584  1.1155
 4331TIP3    H213000   5.790   1.716   4.412 -0.5540  0.0637  0.4216
 4332TIP3   OH213001   5.050   0.728   3.568  0.6246 -0.2134  0.0279
 4332TIP3    H113002   5.016   0.638   3.571 -0.0652  0.0048 -0.8720
 4332TIP3    H213003   5.113   0.727   3.496 -0.2832  0.3121 -0.7945
 4333TIP3   OH213004   1.970   3.317   4.223 -0.1356  0.0529  0.2777
 4333TIP3    H113005   1.921   3.332   4.141 -2.2661 -0.7694  1.3214
 4333TIP3    H213006   1.953   3.396   4.275  0.3699  0.1282  0.3309
 4334TIP3   OH213007   0.877   4.714   3.586 -0.0712 -0.6278 -0.0811
 4334TIP3    H113008   0.839   4.686   3.502  0.2805  1.3080 -0.9204
 4334TIP3    H213009   0.804   4.755   3.633 -0.5157 -2.5502  1.0357
 4335TIP3   OH213010   1.841   0.517   2.995  0.2370 -0.2729 -0.0687
 4335TIP3    H113011   1.896   0.559   3.060  1.8221 -1.9804 -0.2268
 4335TIP3    H213012   1.807   0.439   3.038  0.7295 -1.0448 -1.0251
 4336TIP3   OH213013   5.541   0.754   4.369 -0.1245 -0.4093  0.5992
 4336TIP3    H113014   5.461   0.703   4.359 -0.4512  0.1732  0.1451
 4336TIP3    H213015   5.521   0.839   4.329  0.3771  0.1034  1.3979
 4337TIP3   OH213016   0.510   3.547   3.142  0.3041 -0.2647 -0.1811
 4337TIP3    H113017   0.581   3.571   3.083  0.7792 -0.7860  0.1683
 4337TIP3    H213018   0.516   3.610   3.214  0.0172  0.0771 -0.4494
 4338TIP3   OH213019   0.092   1.000   2.137  0.2076  0.0788  0.1839
 4338TIP3    H113020   0.054   1.085   2.116  1.7544  0.1573 -2.8347
 4338TIP3    H213021   0.033   0.963   2.203  0.1058  3.8749  2.5133
 4339TIP3   OH213022   2.090   4.232   3.619  0.1907  0.5463 -0.2870
 4339TIP3    H113023   2.038   4.188   3.686  1.4765  1.8058  1.6591
 4339TIP3    H213024   2.121   4.162   3.563 -1.3462 -0.5049  0.1083
 4340TIP3   OH213025   0.176   1.940   1.541  0.3839  0.2086  0.2738
 4340TIP3    H113026   0.167   1.873   1.473 -1.7353 -0.3284  0.9974
 4340TIP3    H213027   0.202   1.891   1.619  1.2514  0.6071  0.2495
 4341TIP3   OH213028   2.757   2.242   2.898 -0.2283 -0.2835 -0.5030
 4341TIP3    H113029   2.724   2.159   2.930 -0.3390  0.0599  0.2946
 4341TIP3    H213030   2.686   2.304   2.915  1.1665  0.7065  2.2976
 4342TIP3   OH213031   5.022   4.358   0.075  0.5471  0.1046 -0.1733
 4342TIP3    H113032   5.116   4.343   0.063  0.2117 -0.8313 -2.1084
 4342TIP3    H213033   4.986   4.270   0.086 -0.1767  0.4081 -0.0814
 4343TIP3   OH213034   1.774   1.902   0.438  0.4158 -0.0246  0.3600
 4343TIP3    H113035   1.734   1.943   0.515 -0.7915  0.2211 -0.3639
 4343TIP3    H213036   1.853   1.954   0.422 -0.7564  1.7103 -0.1794
 4344TIP3   OH213037   0.648   4.010   2.684  0.3947  0.5530  0.4204
 4344TIP3    H113038   0.658   4.003   2.779 -0.0201  0.3149  0.4482
 4344TIP3    H213039   0.725   3.965   2.649 -0.8981 -2.0580  0.6372
 4345TIP3   OH213040   5.601   3.016   2.436  0.1870 -0.0909 -0.2802
 4345TIP3    H113041   5.538   3.004   2.507  0.4786 -0.4947 -0.0844
 4345TIP3    H213042   5.577   2.951   2.371  0.0240  0.1664 -0.4767
 4346TIP3   OH213043   4.758   2.650   3.221  0.0356  0.2492 -0.0295
 4346TIP3    H113044   4.744   2.657   3.127 -0.7070  0.6643  0.1023
 4346TIP3    H213045   4.670   2.652   3.259  0.2709 -0.9199  0.6158
 4347TIP3   OH213046   2.755   5.145   0.650 -0.4519  0.0202  0.2936
 4347TIP3    H113047   2.783   5.053   0.651  0.3809  0.2544  1.7669
 4347TIP3    H213048   2.821   5.191   0.703 -0.6461  1.5362 -0.7123
 4348TIP3   OH213049   4.780   1.253   0.631 -0.5773 -0.1208 -0.4843
 4348TIP3    H113050   4.852   1.191   0.617  1.3881  1.2511  2.4789
 4348TIP3    H213051   4.715   1.202   0.680  0.8019 -0.0964  1.4929
 4349TIP3   OH213052   3.387   0.180   1.824  0.2367 -0.0334  0.7528
 4349TIP3    H113053   3.417   0.226   1.745 -0.7126  1.1071  1.0261
 4349TIP3    H213054   3.427   0.227   1.897 -0.4266  0.1265  1.0230
 4350TIP3   OH213055   1.140   1.742   3.446  0.3000 -0.3100 -0.0320
 4350TIP3    H113056   1.193   1.779   3.376 -0.1597  1.5661  0.5590
 4350TIP3    H213057   1.054   1.727   3.406  0.1492  0.3974  0.0098
 4351TIP3   OH213058   2.891   2.836   2.205 -0.2082  0.1895  0.0621
 4351TIP3    H113059   2.948   2.910   2.227  2.4544 -0.9776 -2.2019
 4351TIP3    H213060   2.829   2.872   2.142 -0.6305  1.0348  0.9383
 4352TIP3   OH213061   5.170   0.730   4.191  0.7439 -0.6740  0.2745
 4352TIP3    H113062   5.101   0.664   4.199 -0.1437  0.3679  1.5142
 4352TIP3    H213063   5.249   0.686   4.223  0.1422 -1.1141  1.1937
 4353TIP3   OH213064   5.132   4.441   3.477 -0.3134  0.1002  0.3358
 4353TIP3    H113065   5.054   4.404   3.435 -0.6707  0.0213  1.0598
 4353TIP3    H213066   5.160   4.375   3.539  1.5206 -0.7421 -1.2839
 4354TIP3   OH213067   6.351   2.744   2.650 -0.2329 -0.2106  0.3629
 4354TIP3    H113068   6.403   2.822   2.631  1.1643 -0.9486  0.9815
 4354TIP3    H213069   6.313   2.760   2.736  1.9139 -1.0685  1.5653
 4355TIP3   OH213070   4.573   0.243   4.320  0.1621 -0.0643  0.3322
 4355TIP3    H113071   4.602   0.160   4.282 -0.0878 -0.1074  0.2324
 4355TIP3    H213072   4.483   0.227   4.349 -0.1388  0.3615 -0.3161
 4356TIP3   OH213073   1.089   2.414   3.740  0.7907  0.1898 -0.4396
 4356TIP3    H113074   1.077   2.461   3.822 -0.8390  1.5583 -1.3843
 4356TIP3    H213075   1.133   2.476   3.682  0.2934 -0.0915 -1.1383
 4357TIP3   OH213076   2.053   2.341   0.796  0.1146 -0.3276  0.2852
 4357TIP3    H113077   2.044   2.296   0.712 -0.6649  1.8641 -0.8915
 4357TIP3    H213078   1.977   2.312   0.847 -0.5688 -0.0936 -0.5737
 4358TIP3   OH213079   5.511   3.020   4.184  0.8741 -0.1765  0.1192
 4358TIP3    H113080   5.425   3.022   4.228  0.1330  0.2171 -1.2664
 4358TIP3    H213081   5.525   3.111   4.157  1.1568 -0.4613 -0.7152
 4359TIP3   OH213082   1.231   4.542   0.807 -0.3278  0.2503  0.1653
 4359TIP3    H113083   1.154   4.586   0.772  0.7701  1.7570 -0.4802
 4359TIP3    H213084   1.293   4.541   0.733  1.0226  0.9810  1.2327
 4360TIP3   OH213085   5.713   3.284   2.357 -0.1123 -0.0652  0.8270
 4360TIP3    H113086   5.655   3.211   2.373  0.3324 -0.8415 -0.8341
 4360TIP3    H213087   5.800   3.245   2.350  0.1316  0.6008 -0.1073
 4361TIP3   OH213088   0.645   4.021   0.771  0.1894  0.0383 -0.4466
 4361TIP3    H113089   0.648   4.105   0.725 -0.5925 -0.9083 -2.3455
 4361TIP3    H213090   0.575   4.032   0.835  0.7876  1.1491  0.0443
 4362TIP3   OH213091   3.243   1.433   1.935  0.3263 -0.7563 -0.5390
 4362TIP3    H113092   3.160   1.457   1.894  1.0807  2.3650 -0.5435
 4362TIP3    H213093   3.303   1.417   1.863  0.2172 -1.0228 -0.5697
 4363TIP3   OH213094   0.379   3.184   3.959 -0.2193 -0.3054 -0.0970
 4363TIP3    H113095   0.322   3.250   3.921 -1.1506 -1.4016 -0.6929
 4363TIP3    H213096   0.337   3.101   3.936 -0.3750 -1.0682  2.5982
 4364TIP3   OH213097   1.382  -0.022   0.847 -0.3912 -0.2245 -0.2012
 4364TIP3    H113098   1.355   0.047   0.907 -0.3820 -1.0110  0.7337
 4364TIP3    H213099   1.478  -0.024   0.855 -0.3253  0.1622 -0.8143
 4365TIP3   OH213100   5.671   4.587   1.456  0.5295  0.2841  0.1017
 4365TIP3    H113101   5.725   4.540   1.392  1.3623  1.5316 -0.1568
 4365TIP3    H213102   5.682   4.538   1.537 -0.1705 -1.0566 -0.5915
 4366TIP3   OH213103   3.079   1.978   3.758  0.0191  0.4809  0.3592
 4366TIP3    H113104   3.047   2.014   3.676 -2.2004  0.4873  1.1590
 4366TIP3    H213105   3.110   2.054   3.808  0.9782  0.5232 -0.2803
 4367TIP3   OH213106   4.041   0.830   3.596 -0.2644 -0.3910 -0.2531
 4367TIP3    H113107   4.055   0.750   3.545 -0.0688 -0.7466  0.3532
 4367TIP3    H213108   4.129   0.860   3.619 -0.2185  1.1021 -2.1246
 4368TIP3   OH213109   4.255   5.501   3.594 -0.3262 -0.0727  0.2975
 4368TIP3    H113110   4.340   5.461   3.607  0.9659  2.3129 -0.1523
 4368TIP3    H213111   4.232   5.483   3.503  2.9661  4.5709 -1.8624
 4369TIP3   OH213112   1.936   1.430   2.001 -0.0202  0.5622  0.5149
 4369TIP3    H113113   1.914   1.340   1.977  0.0968  0.3995  1.0028
 4369TIP3    H213114   1.938   1.477   1.918 -0.3268  0.1686  0.2784
 4370TIP3   OH213115   4.691   4.617   4.280 -0.9759 -0.2732 -0.2871
 4370TIP3    H113116   4.703   4.684   4.347  0.3224 -1.4249  0.6980
 4370TIP3    H213117   4.684   4.666   4.198  1.0779  1.0643  0.2574
 4371TIP3   OH213118   1.074   5.653   0.365 -0.0639  0.0239  0.0884
 4371TIP3    H113119   1.075   5.745   0.336  0.6660  0.6515  1.9661
 4371TIP3    H213120   1.157   5.617   0.333 -0.7877 -0.3093 -1.5139
 4372TIP3   OH213121   2.245   0.878   0.605  0.5231 -0.5084 -0.0196
 4372TIP3    H113122   2.163   0.871   0.653 -0.0716  0.0991 -0.9198
 4372TIP3    H213123   2.234   0.821   0.529  0.0645  1.2285 -1.3070
 4373TIP3   OH213124   0.777   5.021   2.931  0.6614  0.3072  0.2253
 4373TIP3    H113125   0.738   5.105   2.956  1.8092  1.3916 -1.4227
 4373TIP3    H213126   0.736   5.000   2.847  0.9760 -0.3785  0.2391
 4374TIP3   OH213127   1.037   5.288   5.084  0.2422  0.1569 -0.2738
 4374TIP3    H113128   1.084   5.342   5.021  1.0203 -1.3454 -1.0235
 4374TIP3    H213129   1.105   5.234   5.125 -0.1933  1.2418  2.0495
 4375TIP3   OH213130   5.082   5.796   4.610  0.5194  0.4995 -0.1818
 4375TIP3    H113131   5.059   5.821   4.700 -1.2569  0.9979 -0.7411
 4375TIP3    H213132   4.999   5.796   4.563  1.4140  0.1953 -1.8330
 4376TIP3   OH213133   4.180   0.946   4.152  0.1446 -0.2323  0.1637
 4376TIP3    H113134   4.104   0.892   4.131 -0.0002 -0.0117  0.1160
 4376TIP3    H213135   4.154   1.035   4.128  0.2185 -0.0738  0.6411
 4377TIP3   OH213136   1.832   0.436   2.556 -0.1562 -0.3812 -0.3317
 4377TIP3    H113137   1.906   0.406   2.504 -0.1921 -0.4882 -0.3231
 4377TIP3    H213138   1.756   0.395   2.515 -0.3831  0.9426 -1.2579
 4378TIP3   OH213139   1.606   5.777   4.492  0.1910 -0.3725  0.0866
 4378TIP3    H113140   1.595   5.687   4.462 -0.6422 -0.0117 -0.7043
 4378TIP3    H213141   1.687   5.775   4.544  0.3587 -1.4996 -0.2014
 4379TIP3   OH213142   5.052   3.722   4.638  0.5982  0.3690  0.0301
 4379TIP3    H113143   5.033   3.767   4.720 -0.4034 -0.4962  0.2837
 4379TIP3    H213144   5.123   3.773   4.599  0.9190  0.9337  1.3068
 4380TIP3   OH213145   3.797   0.268   3.972  0.3059 -0.1343 -0.1602
 4380TIP3    H113146   3.893   0.266   3.969  0.2941 -0.0947 -0.6450
 4380TIP3    H213147   3.777   0.337   4.035  0.5931 -0.6320  0.5020
 4381TIP3   OH213148   3.333   4.684   0.274  0.8950  0.2603  0.1135
 4381TIP3    H113149   3.306   4.599   0.307 -0.7374  0.5296 -0.4651
 4381TIP3    H213150   3.416   4.668   0.230 -0.2465 -1.4065 -1.5537
 4382TIP3   OH213151   0.122   3.228   3.077  0.1300  0.1973  0.0939
 4382TIP3    H113152   0.100   3.248   3.168  0.0394  2.4855 -0.3853
 4382TIP3    H213153   0.093   3.137   3.065 -2.2994  0.6751  1.5969
 4383TIP3   OH213154   0.940   1.401   4.148  0.1144  0.3691  0.0938
 4383TIP3    H113155   0.928   1.345   4.224 -1.9866  0.1565 -0.3365
 4383TIP3    H213156   0.986   1.346   4.084  2.9829  0.9253  1.5534
 4384TIP3   OH213157   1.334   5.801   4.552  0.3063  0.2546  0.0801
 4384TIP3    H113158   1.301   5.891   4.548 -0.5234 -0.0916 -1.6928
 4384TIP3    H213159   1.427   5.809   4.530 -0.0174  0.5719 -1.2511
 4385TIP3   OH213160   2.054   4.457   1.970  0.2979  0.1175  0.2303
 4385TIP3    H113161   2.011   4.397   1.909 -0.6189  1.0939 -0.1277
 4385TIP3    H213162   2.142   4.468   1.934 -0.8229  2.2899 -2.2124
 4386TIP3   OH213163   5.544   4.572   0.536  0.2237 -0.2936 -0.2222
 4386TIP3    H113164   5.527   4.646   0.594  0.6056 -1.0784  0.9239
 4386TIP3    H213165   5.563   4.611   0.451 -0.9118  0.8622  0.0279
 4387TIP3   OH213166   0.312   0.833   4.251 -0.7019  0.2580 -0.2745
 4387TIP3    H113167   0.336   0.907   4.307 -3.3091  0.4693  0.7195
 4387TIP3    H213168   0.368   0.762   4.281  0.2714  1.2288  0.3061
 4388TIP3   OH213169   0.609   3.587   4.355 -0.2091 -0.0922  0.4679
 4388TIP3    H113170   0.568   3.673   4.344  0.0735  0.0622  0.6209
 4388TIP3    H213171   0.596   3.543   4.271  0.4282  0.4347  0.0887
 4389TIP3   OH213172   4.935   4.011   1.645 -0.4634 -0.3680 -0.0592
 4389TIP3    H113173   5.019   4.050   1.619 -1.4887  0.3264 -2.5674
 4389TIP3    H213174   4.913   3.952   1.573 -2.2607 -0.3346  0.4218
 4390TIP3   OH213175   5.283   4.622   4.648  0.3550  0.3648  0.2657
 4390TIP3    H113176   5.342   4.683   4.605  0.0650  0.2385 -0.3240
 4390TIP3    H213177   5.292   4.541   4.598 -0.1910  0.2960  0.2744
 4391TIP3   OH213178   2.279   4.833   2.067  0.2093 -0.2403 -0.3002
 4391TIP3    H113179   2.298   4.774   1.995 -2.3728 -0.1310 -1.1621
 4391TIP3    H213180   2.345   4.902   2.059  1.8615 -1.7687 -0.6420
 4392TIP3   OH213181   5.814   3.676   1.534 -0.0658  0.5550 -0.6308
 4392TIP3    H113182   5.724   3.649   1.513  0.4936 -0.9800 -1.2479
 4392TIP3    H213183   5.804   3.754   1.588 -1.8353 -0.3583  0.4826
 4393TIP3   OH213184   1.684   2.296   3.252  0.2119 -0.0139 -0.3800
 4393TIP3    H113185   1.719   2.332   3.333  0.4648  0.7657 -0.8188
 4393TIP3    H213186   1.647   2.372   3.206 -1.8290 -0.7341 -0.0654
 4394TIP3   OH213187   6.123   2.764   3.276 -0.1372  0.4870  0.1122
 4394TIP3    H113188   6.074   2.782   3.356 -2.3789  0.2569 -1.1261
 4394TIP3    H213189   6.089   2.827   3.213  0.5274 -0.3006 -1.0594
 4395TIP3   OH213190   0.809   3.888   4.355 -0.0752  0.4422  0.0548
 4395TIP3    H113191   0.743   3.894   4.287 -0.7773  0.2038  0.6942
 4395TIP3    H213192   0.762   3.850   4.430  0.2639  2.1628  1.1932
 4396TIP3   OH213193   3.986   0.221   1.494 -0.5307 -0.0199 -0.0066
 4396TIP3    H113194   4.034   0.301   1.473  1.4861 -0.9457  0.7824
 4396TIP3    H213195   3.894   0.246   1.490  0.0283  2.7794  1.8416
 4397TIP3   OH213196   4.319   1.249   2.557 -0.0199 -0.0318  0.0154
 4397TIP3    H113197   4.255   1.182   2.534  0.4370 -0.3190 -0.4100
 4397TIP3    H213198   4.359   1.218   2.638 -1.8140  1.1048  1.4164
 4398TIP3   OH213199   3.129   2.403   0.193  0.0127  0.0683 -0.0937
 4398TIP3    H113200   3.202   2.358   0.236 -1.3638 -0.9498  1.2755
 4398TIP3    H213201   3.109   2.477   0.250 -1.0476 -0.5944  0.4258
 4399TIP3   OH213202   2.620   2.582   1.475 -0.4777 -0.3597  0.2279
 4399TIP3    H113203   2.586   2.535   1.551  2.3682 -0.7579  1.3638
 4399TIP3    H213204   2.638   2.514   1.410  0.1122 -0.4207  0.4476
 4400TIP3   OH213205   3.839   2.713   1.249  0.3182 -0.2361 -0.2636
 4400TIP3    H113206   3.772   2.764   1.293 -0.1754 -1.5702  0.5927
 4400TIP3    H213207   3.792   2.659   1.186  0.4414 -1.8007  0.9315
 4401TIP3   OH213208   3.620   1.219   4.196  0.2362 -0.0913 -0.1140
 4401TIP3    H113209   3.636   1.265   4.114  1.4848  0.4102  0.3862
 4401TIP3    H213210   3.527   1.234   4.214  0.3583  1.3257 -0.5298
 4402TIP3   OH213211   0.685   1.586   2.019 -0.4109 -0.3396  0.2451
 4402TIP3    H113212   0.744   1.516   2.045 -0.3512 -0.5524 -0.4441
 4402TIP3    H213213   0.701   1.598   1.925  0.0069  1.0022  0.4631
 4403TIP3   OH213214   6.046   5.018   0.214  0.9286 -0.1241 -0.2077
 4403TIP3    H113215   6.015   4.928   0.209  1.2842 -0.3026  0.6950
 4403TIP3    H213216   6.135   5.014   0.177  1.0289 -0.1887  0.0382
 4404TIP3   OH213217   4.814   5.898   4.004 -0.0633 -0.0619 -0.0026
 4404TIP3    H113218   4.900   5.931   3.976 -0.2205  0.7993  0.4802
 4404TIP3    H213219   4.751   5.952   3.956 -0.3278  0.7614  1.2186
 4405TIP3   OH213220   6.303   0.742   1.072 -0.3408 -0.5786  0.6635
 4405TIP3    H113221   6.295   0.734   0.977 -1.8429  0.1424  0.7064
 4405TIP3    H213222   6.349   0.662   1.099  0.7335 -0.4640 -0.7239
 4406TIP3   OH213223   4.099   4.222   2.676 -0.0878  0.1537  0.4095
 4406TIP3    H113224   4.076   4.145   2.727  1.1241 -0.0093  0.7397
 4406TIP3    H213225   4.193   4.233   2.689 -0.2185  1.6605  0.3445
 4407TIP3   OH213226   1.651   1.557   2.042 -0.4135 -0.0338  0.1448
 4407TIP3    H113227   1.595   1.479   2.033 -0.3937  0.1043 -1.4529
 4407TIP3    H213228   1.739   1.522   2.056 -0.4880 -0.2948 -0.0314
 4408TIP3   OH213229   0.391   4.977   2.053 -0.0519 -0.1389  0.3737
 4408TIP3    H113230   0.426   4.944   2.135 -1.0295 -2.8233 -0.1772
 4408TIP3    H213231   0.307   4.932   2.043 -1.5595  2.6584 -0.5067
 4409TIP3   OH213232   3.031   0.594   0.168 -0.7870 -0.5210  0.8422
 4409TIP3    H113233   3.046   0.564   0.078  0.7896 -0.1135  0.9370
 4409TIP3    H213234   2.955   0.544   0.197 -0.4241 -1.7543 -0.2233
 4410TIP3   OH213235   2.965   1.537   1.101 -0.0628 -0.6299  0.2823
 4410TIP3    H113236   2.872   1.519   1.112 -0.0446 -1.0103 -0.1506
 4410TIP3    H213237   2.997   1.558   1.189 -0.3348 -1.5584  0.6068
 4411TIP3   OH213238   1.347   1.609   0.386  0.1892  0.2168  0.2385
 4411TIP3    H113239   1.319   1.664   0.459  0.3357 -1.6197  1.7418
 4411TIP3    H213240   1.421   1.559   0.421 -0.4199 -1.4845 -0.8274
 4412TIP3   OH213241   1.921   2.550   1.505 -0.0655  0.7578  0.3693
 4412TIP3    H113242   1.862   2.500   1.562  0.3334  1.1273  1.1306
 4412TIP3    H213243   1.981   2.484   1.470 -1.8689  0.1173 -1.6977
 4413TIP3   OH213244   2.363   2.637   0.877 -0.4420  0.2010 -0.1051
 4413TIP3    H113245   2.351   2.603   0.788  0.0399 -2.0077  0.6265
 4413TIP3    H213246   2.437   2.698   0.869 -0.2608 -0.1372 -1.1736
 4414TIP3   OH213247   4.707   0.886   1.921  0.8320  0.0278  0.0790
 4414TIP3    H113248   4.620   0.920   1.941  1.5320  0.6327  2.3555
 4414TIP3    H213249   4.719   0.904   1.828 -0.8290  1.4257  0.0925
 4415TIP3   OH213250   3.426   1.114   0.682 -0.6853 -0.2918 -0.3231
 4415TIP3    H113251   3.332   1.107   0.662 -0.6219  1.1990 -1.2571
 4415TIP3    H213252   3.463   1.159   0.606  0.7963 -0.8268  0.0618
 4416TIP3   OH213253   3.026   4.819   3.649 -0.1809  0.3981  0.2277
 4416TIP3    H113254   3.096   4.761   3.619 -0.3145 -0.2627  1.1526
 4416TIP3    H213255   2.946   4.766   3.642 -0.2022  0.1579  1.8197
 4417TIP3   OH213256   1.695   3.509   2.708  0.5326 -0.5869  0.1167
 4417TIP3    H113257   1.613   3.490   2.754  1.5516  0.7186  2.6538
 4417TIP3    H213258   1.750   3.432   2.723  0.9377 -0.0784  1.3536
 4418TIP3   OH213259   5.421   3.491   1.103 -0.8692  0.5150 -0.2790
 4418TIP3    H113260   5.395   3.399   1.107 -0.5869  0.4731  1.2866
 4418TIP3    H213261   5.489   3.495   1.037  2.3263 -1.2838  2.6076
 4419TIP3   OH213262   1.966   3.293   0.108  0.0689  0.4896 -0.2826
 4419TIP3    H113263   1.986   3.213   0.059  1.7496  0.1739  0.8317
 4419TIP3    H213264   1.902   3.264   0.174  1.2399 -0.1604  0.6100
 4420TIP3   OH213265   3.678   4.457   3.075  0.5128 -0.0291  0.5720
 4420TIP3    H113266   3.768   4.473   3.104  0.5303 -0.9408  1.0344
 4420TIP3    H213267   3.639   4.403   3.144 -0.0891 -0.4573 -0.0905
 4421TIP3   OH213268   4.409   3.859   1.128 -0.0736  0.1921 -0.1887
 4421TIP3    H113269   4.495   3.849   1.168 -0.5568  0.4979  0.9699
 4421TIP3    H213270   4.414   3.943   1.081 -0.0561  0.7136  0.7294
 4422TIP3   OH213271   1.029   5.922   0.277  0.5723 -0.2310 -0.6548
 4422TIP3    H113272   1.084   5.995   0.305  0.9294  0.0456 -2.0400
 4422TIP3    H213273   0.939   5.954   0.285  0.6456 -0.2149  0.2868
 4423TIP3   OH213274   4.502   2.014   4.734  0.4814  0.1412 -0.8983
 4423TIP3    H113275   4.505   2.103   4.699 -1.8759  0.2550 -0.9447
 4423TIP3    H213276   4.588   2.002   4.775 -0.2566  3.7394  2.2857
 4424TIP3   OH213277   1.721   1.340   0.675 -0.1613  0.1395  0.0678
 4424TIP3    H113278   1.800   1.289   0.692 -0.5679 -1.3107 -2.0919
 4424TIP3    H213279   1.687   1.361   0.763  1.5159 -0.8909  1.0193
 4425TIP3   OH213280   2.238   0.807   3.125 -0.3024 -0.7319 -0.1831
 4425TIP3    H113281   2.217   0.860   3.047 -1.6867 -0.8398  0.0909
 4425TIP3    H213282   2.186   0.846   3.195  1.5687 -0.1080  0.9204
 4426TIP3   OH213283   5.511   0.866   2.727  0.1527  0.1881  0.7724
 4426TIP3    H113284   5.499   0.806   2.800 -0.6639 -0.4978  0.1024
 4426TIP3    H213285   5.438   0.928   2.733 -1.0018 -0.9798 -0.4732
 4427TIP3   OH213286   4.474   4.878   3.382  0.4279 -0.1215  0.0294
 4427TIP3    H113287   4.519   4.937   3.443 -2.1359  2.2012 -0.1165
 4427TIP3    H213288   4.424   4.819   3.439 -0.8226  1.0898  0.2189
 4428TIP3   OH213289   3.723   4.843   0.447  0.5658 -0.4651  0.3309
 4428TIP3    H113290   3.659   4.820   0.514  2.1026  0.1880  2.1304
 4428TIP3    H213291   3.781   4.767   0.441  0.0704 -0.7776 -0.7746
 4429TIP3   OH213292   0.510   2.989   4.913  0.1023  0.0306  0.0805
 4429TIP3    H113293   0.561   2.909   4.909 -1.3266 -1.0411  1.5696
 4429TIP3    H213294   0.549   3.047   4.848  2.6132 -1.0211  0.5509
 4430TIP3   OH213295   2.611   3.242   0.938 -0.4828  0.4848 -0.0134
 4430TIP3    H113296   2.679   3.182   0.908 -1.1008 -0.5275  0.5239
 4430TIP3    H213297   2.530   3.189   0.936 -1.0279  1.2711  0.5587
 4431TIP3   OH213298   0.793   3.347   4.180 -0.2848  0.1379 -0.0047
 4431TIP3    H113299   0.779   3.326   4.087 -0.2849 -0.6711  0.1729
 4431TIP3    H213300   0.843   3.429   4.178 -1.3890  0.8193 -0.6949
 4432TIP3   OH213301   1.621   5.284   0.432 -0.1396  0.4400  0.2097
 4432TIP3    H113302   1.578   5.253   0.353 -2.2937  0.5635  1.2730
 4432TIP3    H213303   1.555   5.337   0.477  0.8499 -0.0046  2.3274
 4433TIP3   OH213304   1.379   5.227   4.530 -0.2945  0.0166 -0.5574
 4433TIP3    H113305   1.399   5.139   4.499 -0.3333  0.5684 -2.2183
 4433TIP3    H213306   1.459   5.277   4.516 -0.1309  0.1758  0.7769
 4434TIP3   OH213307   2.294   0.154   3.032  0.5225  0.7459 -0.0107
 4434TIP3    H113308   2.213   0.197   3.003 -0.5021 -0.1619  1.3583
 4434TIP3    H213309   2.290   0.158   3.128 -1.3101 -4.9887  0.5460
 4435TIP3   OH213310   6.123   5.178   5.054 -0.2876  0.8577  0.2450
 4435TIP3    H113311   6.139   5.144   4.966 -1.3325  0.2166  0.2921
 4435TIP3    H213312   6.067   5.254   5.040 -1.9665 -0.3045  0.4551
 4436TIP3   OH213313   0.076   1.932   2.410  0.2919  0.1475  0.0606
 4436TIP3    H113314  -0.008   1.964   2.378 -0.8457 -1.2579  1.4629
 4436TIP3    H213315   0.056   1.845   2.446  2.4586 -0.4584 -0.0691
 4437TIP3   OH213316   3.977   4.922   2.845  0.0259  0.1140  0.0155
 4437TIP3    H113317   3.969   4.849   2.906  0.0946  0.6480  0.6818
 4437TIP3    H213318   3.904   4.910   2.784 -0.5276  0.0115  0.6855
 4438TIP3   OH213319   2.853   3.066   1.940  0.0333 -0.3027 -0.0122
 4438TIP3    H113320   2.787   3.095   2.003 -0.5223 -0.0896 -0.6745
 4438TIP3    H213321   2.909   3.142   1.928 -0.7893  0.1761 -0.9415
 4439TIP3   OH213322   2.108   5.439   3.114  0.1126  0.6481  0.8557
 4439TIP3    H113323   2.097   5.533   3.102  0.1656  0.8117  1.9724
 4439TIP3    H213324   2.141   5.407   3.030 -0.6563  1.4959  0.2151
 4440TIP3   OH213325   1.547   5.997   1.938 -0.0306  0.3873  0.2435
 4440TIP3    H113326   1.568   5.906   1.918  0.3451  0.7056 -0.8967
 4440TIP3    H213327   1.468   5.993   1.991  0.3026 -0.6224  0.6784
 4441TIP3   OH213328   0.106   4.739   0.301  0.2855  0.1701  0.7997
 4441TIP3    H113329   0.059   4.773   0.224  0.2158 -2.8859 -0.6723
 4441TIP3    H213330   0.069   4.651   0.314  3.4681 -1.1916  1.4438
 4442TIP3   OH213331   5.962   0.160   2.105  0.3176 -0.0446 -0.0812
 4442TIP3    H113332   5.930   0.095   2.168  0.5595  0.1532  0.2548
 4442TIP3    H213333   5.937   0.126   2.020 -0.7356  0.0649  0.1573
 4443TIP3   OH213334   2.306   3.058   2.847  0.5199 -0.8698 -0.3019
 4443TIP3    H113335   2.304   3.137   2.794  0.1145 -0.5009  0.2519
 4443TIP3    H213336   2.387   3.014   2.821  1.4259  0.3791  0.3252
 4444TIP3   OH213337   1.221   1.800   4.357 -0.5102  0.4244 -0.1129
 4444TIP3    H113338   1.157   1.830   4.292 -0.9300  1.6451  0.8206
 4444TIP3    H213339   1.177   1.809   4.441  1.0508  1.9335  0.6236
 4445TIP3   OH213340   5.719   4.786   4.064 -0.2947 -0.4255  0.2649
 4445TIP3    H113341   5.701   4.874   4.097  0.8615 -0.4163  0.9195
 4445TIP3    H213342   5.812   4.787   4.041 -0.5781 -1.0688 -1.0522
 4446TIP3   OH213343   4.741   1.925   4.907  0.4089  0.4142  0.0189
 4446TIP3    H113344   4.680   1.908   4.979  0.4460  0.8207  0.1460
 4446TIP3    H213345   4.826   1.940   4.950  0.3016  1.3126 -0.0612
 4447TIP3   OH213346   4.155   5.834   4.358 -0.1822 -0.1420 -0.1553
 4447TIP3    H113347   4.240   5.799   4.333 -0.0473 -1.1491  1.5734
 4447TIP3    H213348   4.174   5.896   4.429 -0.8205  0.2395 -0.3041
 4448TIP3   OH213349   2.689   3.623   0.750  0.1441 -0.1696 -0.2088
 4448TIP3    H113350   2.721   3.689   0.688 -1.1138 -0.0298 -0.7351
 4448TIP3    H213351   2.632   3.672   0.810  1.5281 -0.2576  1.2478
 4449TIP3   OH213352   0.581   0.740   2.427  0.1968 -0.4632 -0.2069
 4449TIP3    H113353   0.595   0.828   2.392  0.9214 -1.2345 -2.0055
 4449TIP3    H213354   0.489   0.740   2.454  0.0226  0.6779 -0.7157
 4450TIP3   OH213355   4.774   3.170   3.819 -0.1822 -0.0550 -0.3267
 4450TIP3    H113356   4.763   3.122   3.737  0.4564 -0.8445  0.0365
 4450TIP3    H213357   4.836   3.117   3.869  1.8246  1.9240 -0.5447
 4451TIP3   OH213358   3.339   0.760   3.744  0.1413 -0.2115  0.4757
 4451TIP3    H113359   3.336   0.778   3.838  0.3220  1.2606  0.2221
 4451TIP3    H213360   3.424   0.794   3.716 -0.2632  0.1371 -0.3614
 4452TIP3   OH213361   3.428   5.435   2.482  0.1421 -0.2925  0.1049
 4452TIP3    H113362   3.366   5.501   2.449  1.4388  1.3651  0.8487
 4452TIP3    H213363   3.513   5.479   2.480  1.0603 -1.9596  0.6576
 4453TIP3   OH213364   4.924   5.618   2.586  0.0118  0.0065 -0.6269
 4453TIP3    H113365   4.896   5.678   2.656  0.2846 -1.1485  0.5093
 4453TIP3    H213366   4.980   5.554   2.630  3.2849  1.3321 -2.5196
 4454TIP3   OH213367   0.719   5.187   4.377 -0.0372 -0.2150 -0.4283
 4454TIP3    H113368   0.813   5.169   4.374 -0.0582 -0.3419 -0.3250
 4454TIP3    H213369   0.710   5.273   4.336  0.5787  1.4892  2.6839
 4455TIP3   OH213370   4.375   4.045   3.426 -0.4251 -0.1183  0.1106
 4455TIP3    H113371   4.435   4.053   3.352 -0.1600  2.7688  0.5392
 4455TIP3    H213372   4.417   3.980   3.483  1.6984  0.8990 -0.2024
 4456TIP3   OH213373   1.559   3.914   2.272  0.1425 -0.1654 -0.3845
 4456TIP3    H113374   1.475   3.871   2.257  0.0587 -0.8728  1.8156
 4456TIP3    H213375   1.602   3.914   2.186 -1.3742 -1.3424 -1.1849
 4457TIP3   OH213376   2.425   5.431   0.678  0.5612  0.4664 -0.1927
 4457TIP3    H113377   2.357   5.443   0.745 -0.2153  0.0771 -0.8909
 4457TIP3    H213378   2.426   5.337   0.661  0.4137  0.6102 -1.0545
 4458TIP3   OH213379   6.175   2.368   1.485 -0.0032 -0.1201 -0.3206
 4458TIP3    H113380   6.213   2.432   1.425 -0.7601 -1.2214 -2.0233
 4458TIP3    H213381   6.227   2.378   1.565  0.7400  1.7010 -0.9639
 4459TIP3   OH213382   5.800   3.787   2.913 -0.6378 -0.4334  0.1373
 4459TIP3    H113383   5.891   3.815   2.916 -0.5576 -0.5647 -0.8054
 4459TIP3    H213384   5.799   3.701   2.956 -0.1796 -0.7743 -0.5233
 4460TIP3   OH213385   2.031   3.611   4.505  0.4810 -0.1626 -0.0747
 4460TIP3    H113386   1.953   3.608   4.561  0.7004 -0.9757  0.2038
 4460TIP3    H213387   2.075   3.528   4.521  2.3507  0.9978  1.0864
 4461TIP3   OH213388   0.702   1.854   2.036  0.1692 -0.2986 -0.0646
 4461TIP3    H113389   0.693   1.759   2.041  1.7093 -0.4218  1.2611
 4461TIP3    H213390   0.795   1.870   2.051 -0.0649  1.4410 -0.2286
 4462TIP3   OH213391   6.185   5.602   4.053  0.4384 -0.4678 -0.1923
 4462TIP3    H113392   6.145   5.661   3.990  0.1536  0.5286  0.8979
 4462TIP3    H213393   6.275   5.634   4.062  0.1508  0.1295  0.7515
 4463TIP3   OH213394   1.803   2.195   2.029 -0.1303  0.5282 -0.1685
 4463TIP3    H113395   1.781   2.270   2.084 -1.1248 -0.0824  0.2963
 4463TIP3    H213396   1.726   2.182   1.974 -0.5303 -0.9665  0.7003
 4464TIP3   OH213397   1.009   0.589   3.280  0.2251  0.4642 -0.3116
 4464TIP3    H113398   1.069   0.542   3.338 -1.2492 -1.1957 -0.0593
 4464TIP3    H213399   0.922   0.574   3.318 -0.4909  1.8518 -1.3072
 4465TIP3   OH213400   4.714   1.881   1.418 -0.3584  0.1320  0.4364
 4465TIP3    H113401   4.638   1.829   1.445  1.2062 -1.8443  1.3002
 4465TIP3    H213402   4.772   1.818   1.375  1.0854  1.4350  0.4084
 4466TIP3   OH213403   4.557   0.285   1.577  0.2117 -0.3614 -0.1173
 4466TIP3    H113404   4.596   0.326   1.655  0.4710 -0.6047 -0.1156
 4466TIP3    H213405   4.524   0.358   1.525 -1.7096 -0.2802  1.1258
 4467TIP3   OH213406   3.986   4.533   1.563  0.2230  0.4085 -0.7262
 4467TIP3    H113407   3.987   4.474   1.488 -1.0375  1.1961 -1.3914
 4467TIP3    H213408   3.914   4.501   1.618  0.0298  0.8586 -0.7112
 4468TIP3   OH213409   1.251   2.394   4.694  0.3256 -0.5497 -0.0117
 4468TIP3    H113410   1.205   2.347   4.764  1.8269  0.6821  1.9205
 4468TIP3    H213411   1.332   2.345   4.682  0.9006  0.2518  0.4572
 4469TIP3   OH213412   2.189   1.950   1.696 -0.0040 -0.4476 -0.1519
 4469TIP3    H113413   2.229   1.892   1.762  1.0049 -1.0255 -1.2387
 4469TIP3    H213414   2.253   2.021   1.685 -0.8381  0.4415  0.5312
 4470TIP3   OH213415   3.765   3.923   4.055  0.1265  0.2017  0.2588
 4470TIP3    H113416   3.745   3.846   4.001 -2.5072 -0.0924  1.5110
 4470TIP3    H213417   3.813   3.887   4.129  3.2718  0.5342 -1.4569
 4471TIP3   OH213418   1.350   2.646   3.295 -0.4089 -0.3154 -0.5205
 4471TIP3    H113419   1.307   2.709   3.238 -3.1617 -0.3296  1.3451
 4471TIP3    H213420   1.422   2.694   3.335 -1.2880  1.1005 -0.5803
 4472TIP3   OH213421   3.441   0.003   0.203  0.1449  0.4429  0.0565
 4472TIP3    H113422   3.409   0.093   0.205  0.7224  0.6345  0.9332
 4472TIP3    H213423   3.515   0.005   0.143  0.0085  0.4945 -0.1120
 4473TIP3   OH213424   3.266   4.153   2.355 -0.0829  0.0112 -0.6017
 4473TIP3    H113425   3.290   4.089   2.287 -0.3557 -0.2239 -0.4791
 4473TIP3    H213426   3.189   4.115   2.397 -0.8124  0.8634 -1.1396
 4474TIP3   OH213427   2.684   5.674   0.055  0.0286 -0.0230 -0.2120
 4474TIP3    H113428   2.644   5.760   0.067 -0.5136 -0.2358 -0.4489
 4474TIP3    H213429   2.639   5.637  -0.021  0.6541 -0.2876 -0.4632
 4475TIP3   OH213430   1.059   2.398   0.309  0.4285 -1.1353  0.0497
 4475TIP3    H113431   1.076   2.459   0.237  0.8210 -0.3343  0.8015
 4475TIP3    H213432   1.054   2.312   0.267  0.7237 -0.6924 -0.9239
 4476TIP3   OH213433   2.241   4.809   1.364  0.2267  0.3825  0.1660
 4476TIP3    H113434   2.233   4.717   1.389 -0.1043  0.0321 -1.1525
 4476TIP3    H213435   2.199   4.858   1.435 -0.3035 -0.5292  0.4917
 4477TIP3   OH213436   0.988   4.925   4.850 -0.6519 -0.3551 -0.0553
 4477TIP3    H113437   1.048   4.987   4.892 -0.2544 -0.2916 -0.7015
 4477TIP3    H213438   1.034   4.841   4.854 -1.3409 -0.6886  1.1335
 4478TIP3   OH213439   2.631   0.173   1.319  0.9879  0.1655 -0.5306
 4478TIP3    H113440   2.568   0.107   1.348  1.0985 -0.1877 -1.0749
 4478TIP3    H213441   2.595   0.206   1.236  1.3139  0.2419 -0.6431
 4479TIP3   OH213442   3.023   4.852   5.090 -0.0743  0.3860 -0.7493
 4479TIP3    H113443   3.020   4.801   5.171  0.8942  2.6932  0.8601
 4479TIP3    H213444   3.117   4.860   5.071 -0.2283  1.2152 -1.1745
 4480TIP3   OH213445   3.092   1.320   2.147  0.0189 -0.3302 -0.0515
 4480TIP3    H113446   3.129   1.372   2.075  0.8761  0.5839  0.9958
 4480TIP3    H213447   3.098   1.230   2.117 -1.2168  0.1248 -1.8039
 4481TIP3   OH213448   5.657   1.231   3.531 -0.4179 -0.6858 -0.2686
 4481TIP3    H113449   5.744   1.239   3.491  0.7882 -0.7839  2.1455
 4481TIP3    H213450   5.624   1.147   3.499  1.8889 -2.3401  1.3113
 4482TIP3   OH213451   0.887   1.657   4.030 -0.6351 -0.2340  0.1002
 4482TIP3    H113452   0.824   1.658   3.957 -0.9657 -1.1208  0.3623
 4482TIP3    H213453   0.870   1.574   4.075 -0.3496  0.2487  1.1164
 4483TIP3   OH213454   3.659   3.233   3.093 -0.9762  0.1045  0.0517
 4483TIP3    H113455   3.594   3.256   3.158 -0.8671  1.9152 -0.4118
 4483TIP3    H213456   3.727   3.185   3.141 -1.0013  1.2114  1.2278
 4484TIP3   OH213457   5.715   5.812   4.700 -0.0041  0.2011  0.4284
 4484TIP3    H113458   5.809   5.796   4.703 -0.1359 -0.9072 -0.4376
 4484TIP3    H213459   5.685   5.762   4.624 -1.2140  0.9768  0.3684
 4485TIP3   OH213460   4.226   3.175   1.408 -0.0444  0.1250 -0.1799
 4485TIP3    H113461   4.245   3.223   1.488 -1.5495  0.5244 -0.0315
 4485TIP3    H213462   4.221   3.083   1.436  1.2279  0.0425 -0.1698
 4486TIP3   OH213463   2.458   1.236   1.065  0.0668 -0.2163  0.2200
 4486TIP3    H113464   2.460   1.289   0.985 -1.2136 -1.1619 -0.4662
 4486TIP3    H213465   2.516   1.283   1.125  1.3719  0.3282 -1.3635
 4487TIP3   OH213466   3.066   0.981   2.697 -0.0678 -0.3649 -0.0547
 4487TIP3    H113467   3.070   0.886   2.708 -1.1309 -0.5939 -1.4304
 4487TIP3    H213468   3.018   0.994   2.615 -0.4111  1.3795  0.3892
 4488TIP3   OH213469   1.552   0.579   1.135 -0.3589 -0.2380 -0.2141
 4488TIP3    H113470   1.622   0.613   1.080 -0.8048  0.8007 -0.1667
 4488TIP3    H213471   1.579   0.600   1.224 -0.4696 -0.3244 -0.1599
 4489TIP3   OH213472   1.645   0.940   3.985  0.2225 -0.9951  0.5101
 4489TIP3    H113473   1.577   0.999   4.017 -1.2139 -2.3186  0.0579
 4489TIP3    H213474   1.705   0.930   4.059  0.5600  1.0625  0.5531
 4490TIP3   OH213475   5.910   2.059   3.765 -0.2948 -0.1265 -0.1732
 4490TIP3    H113476   5.971   2.004   3.815 -0.0438  0.3317  0.0252
 4490TIP3    H213477   5.939   2.148   3.781 -0.6598  0.0644 -0.5566
 4491TIP3   OH213478   3.438   0.603   4.895  0.6454 -0.3239  0.4070
 4491TIP3    H113479   3.370   0.539   4.916  1.3710 -1.3376 -0.2019
 4491TIP3    H213480   3.514   0.549   4.872  1.0066  0.7678 -1.0336
 4492TIP3   OH213481   5.585   0.075   1.123 -0.2681  0.2564  0.0311
 4492TIP3    H113482   5.660   0.022   1.149  0.0232  0.4324 -0.4158
 4492TIP3    H213483   5.513   0.046   1.179  0.0609 -0.1191  0.2633
 4493TIP3   OH213484   4.114   5.572   2.196 -0.1935  0.5852 -0.1527
 4493TIP3    H113485   4.037   5.531   2.157  0.6992  0.0361 -1.3862
 4493TIP3    H213486   4.112   5.662   2.162  0.2907  0.2621 -1.0378
 4494TIP3   OH213487   0.832   5.986   1.846 -0.8965 -0.1503 -0.2170
 4494TIP3    H113488   0.794   5.898   1.847  0.9894 -1.0776  2.1960
 4494TIP3    H213489   0.783   6.034   1.913 -1.1825  0.2886 -0.7383
 4495TIP3   OH213490   4.856   0.338   1.321 -0.4140  1.2565  0.4808
 4495TIP3    H113491   4.777   0.285   1.308  0.8437 -0.6792  0.3048
 4495TIP3    H213492   4.920   0.300   1.260  1.5772  0.7311  2.7715
 4496TIP3   OH213493   5.968   0.074   3.245 -0.6343 -0.5673 -0.1353
 4496TIP3    H113494   5.999   0.163   3.260 -1.8536 -0.4021  1.6175
 4496TIP3    H213495   6.005   0.051   3.159  0.9497  1.0405  0.0398
 4497TIP3   OH213496   4.763   2.797   1.532 -0.3787 -0.0167 -0.1581
 4497TIP3    H113497   4.670   2.791   1.552 -1.0024 -2.4976 -2.9904
 4497TIP3    H213498   4.771   2.876   1.479 -0.4405  1.2555  1.6463
 4498TIP3   OH213499   1.830   2.020   2.780 -0.2371 -0.1904 -0.2692
 4498TIP3    H113500   1.745   2.049   2.813  0.0094  1.2163 -0.8278
 4498TIP3    H213501   1.811   1.984   2.693 -0.3347 -0.3927 -0.1655
 4499TIP3   OH213502   2.092   0.360   1.922 -0.1695  0.2189 -0.3983
 4499TIP3    H113503   2.011   0.390   1.963 -0.3810  1.1380 -1.4454
 4499TIP3    H213504   2.146   0.439   1.914 -0.1959  0.1065 -2.0002
 4500TIP3   OH213505   4.895   3.731   1.884 -0.4748  0.7174  0.0797
 4500TIP3    H113506   4.857   3.758   1.967  0.8564  0.9245  0.6582
 4500TIP3    H213507   4.821   3.721   1.825 -1.4146  0.9010  1.1970
 4501TIP3   OH213508   1.624   5.049   1.684 -0.7634 -0.1179 -0.0979
 4501TIP3    H113509   1.709   5.009   1.703 -1.0098 -1.8411 -2.1924
 4501TIP3    H213510   1.594   5.005   1.604 -3.4822  0.6768  0.3748
 4502TIP3   OH213511   0.461   3.382   2.864  0.2995 -0.3081  0.3901
 4502TIP3    H113512   0.524   3.411   2.930  3.0974 -1.3658 -1.5886
 4502TIP3    H213513   0.396   3.452   2.860  1.2461  0.7972  2.6688
 4503TIP3   OH213514   5.175   3.524   5.083  0.1669 -0.6452  0.5199
 4503TIP3    H113515   5.259   3.532   5.038 -0.3430 -0.3450 -0.3921
 4503TIP3    H213516   5.111   3.510   5.013 -0.3936 -2.0980  1.2845
 4504TIP3   OH213517   4.391   3.793   2.349  0.2465 -0.1726  0.2463
 4504TIP3    H113518   4.406   3.824   2.259  0.4010 -1.3379 -0.1458
 4504TIP3    H213519   4.312   3.839   2.377 -0.9965 -1.2947 -1.2389
 4505TIP3   OH213520   5.609   5.032   2.723 -0.3586 -0.1720  0.1252
 4505TIP3    H113521   5.529   5.071   2.689 -0.9068 -1.9216 -0.6985
 4505TIP3    H213522   5.583   4.946   2.756  0.4155  0.8260  3.7867
 4506TIP3   OH213523   6.262   2.246   1.141  0.8778 -0.1418 -0.0814
 4506TIP3    H113524   6.250   2.298   1.062  1.8297  0.5462  0.2011
 4506TIP3    H213525   6.349   2.207   1.131  0.8838 -0.2836  0.4876
 4507TIP3   OH213526   5.460   1.284   0.234 -0.2232  0.3189 -0.0195
 4507TIP3    H113527   5.383   1.338   0.251 -0.7494 -0.6325  0.6742
 4507TIP3    H213528   5.497   1.265   0.320 -0.4179 -0.9608 -0.2002
 4508TIP3   OH213529   1.901   1.586   2.569 -0.3470  0.1839  0.3229
 4508TIP3    H113530   1.817   1.625   2.592 -0.1487 -0.0813  1.5647
 4508TIP3    H213531   1.926   1.629   2.488 -0.8017  1.6234  0.9086
 4509TIP3   OH213532   4.820   2.124   1.437  0.0542 -0.0396 -0.3340
 4509TIP3    H113533   4.795   2.032   1.441 -1.0125  0.1680 -1.6496
 4509TIP3    H213534   4.915   2.123   1.444  0.0997 -1.2862 -0.8654
 4510TIP3   OH213535   5.188   2.693   1.791  0.6115 -0.3644 -0.4622
 4510TIP3    H113536   5.233   2.609   1.784  0.1716 -0.4888 -1.9423
 4510TIP3    H213537   5.231   2.749   1.727  1.0388  0.6393  0.6502
 4511TIP3   OH213538   3.029   2.847   1.963  0.3593  0.0916 -0.2806
 4511TIP3    H113539   3.051   2.825   2.054 -0.1990  0.0567 -0.1465
 4511TIP3    H213540   2.969   2.921   1.971 -1.1285 -1.0434 -0.5185
 4512TIP3   OH213541   2.699   1.708   4.211  0.1236 -1.3315  0.3912
 4512TIP3    H113542   2.646   1.710   4.291 -0.9140 -3.3016 -0.1780
 4512TIP3    H213543   2.704   1.800   4.184  1.2858 -0.4608  3.1375
 4513TIP3   OH213544   5.634   5.483   2.972 -0.2520  0.2847 -0.3043
 4513TIP3    H113545   5.684   5.564   2.967  1.5158 -0.7777 -0.6759
 4513TIP3    H213546   5.667   5.429   2.901 -1.3930 -0.7811 -0.0740
 4514TIP3   OH213547   0.099   0.787   3.217  0.3860 -0.4417 -0.2533
 4514TIP3    H113548   0.128   0.752   3.301 -1.8688 -0.9448  0.3766
 4514TIP3    H213549   0.066   0.875   3.237 -2.1227 -1.3403 -0.1449
 4515TIP3   OH213550   4.428   1.513   2.568 -0.2766 -0.1804 -0.1445
 4515TIP3    H113551   4.469   1.492   2.652 -2.4362 -0.4624  0.9221
 4515TIP3    H213552   4.361   1.446   2.557 -2.3860  1.8123 -0.3238
 4516TIP3   OH213553   5.041   4.044   4.626 -0.0971  0.4750 -0.2442
 4516TIP3    H113554   5.001   4.131   4.630 -0.9780  0.1157 -1.0143
 4516TIP3    H213555   4.988   3.990   4.683  0.6117  0.4880  0.4452
 4517TIP3   OH213556   6.097   4.153   1.595  0.9704  0.6167  0.6310
 4517TIP3    H113557   6.055   4.223   1.544  0.9623 -0.7859 -1.3827
 4517TIP3    H213558   6.045   4.148   1.675 -0.8909  0.9253 -0.4969
 4518TIP3   OH213559   5.234   3.763   2.098  0.0475  0.1281 -0.4325
 4518TIP3    H113560   5.267   3.829   2.160 -1.4057  0.2419  0.2668
 4518TIP3    H213561   5.197   3.814   2.026 -2.8632  0.2656  1.0057
 4519TIP3   OH213562   0.152   5.869   0.517 -0.0247 -0.3130  0.0493
 4519TIP3    H113563   0.135   5.887   0.425 -1.9069 -1.2802  0.1597
 4519TIP3    H213564   0.124   5.778   0.530 -1.2418  0.2618  1.8762
 4520TIP3   OH213565   1.073   5.172   0.570  0.5061 -0.6896 -0.1906
 4520TIP3    H113566   1.148   5.122   0.602  1.0312 -0.4043 -0.9387
 4520TIP3    H213567   1.099   5.264   0.582  0.6808 -0.5752 -1.3034
 4521TIP3   OH213568   5.296   1.496   3.706 -0.6134 -0.2764 -0.0052
 4521TIP3    H113569   5.280   1.568   3.646  0.6127 -0.4376 -0.5451
 4521TIP3    H213570   5.209   1.471   3.737 -1.1764  0.4322 -0.9741
 4522TIP3   OH213571   4.866   3.411   2.161  0.6742  0.2250  0.3360
 4522TIP3    H113572   4.773   3.401   2.183  0.1406  2.6409 -0.5853
 4522TIP3    H213573   4.878   3.360   2.081 -0.1142  0.7723 -0.1340
 4523TIP3   OH213574   0.527   1.008   0.621 -0.4158 -0.2686 -0.2820
 4523TIP3    H113575   0.548   0.926   0.666 -0.4324 -0.4190 -0.5435
 4523TIP3    H213576   0.561   0.996   0.532 -1.4241 -0.4478 -0.6631
 4524TIP3   OH213577   4.372   2.853   5.050  0.6245 -0.1806  0.0240
 4524TIP3    H113578   4.417   2.775   5.016 -1.2235 -1.1739 -0.2767
 4524TIP3    H213579   4.393   2.922   4.988 -1.0363 -1.4708 -2.1315
 4525TIP3   OH213580   5.148   0.083   4.858  0.7849  0.1782 -0.2657
 4525TIP3    H113581   5.086   0.083   4.785 -0.6158  0.2404  0.8905
 4525TIP3    H213582   5.180   0.173   4.863  1.1805  0.0875 -1.0245
 4526TIP3   OH213583   2.304   1.184   3.380  0.2279  0.0158 -0.2647
 4526TIP3    H113584   2.280   1.103   3.425 -0.1068 -0.5149 -1.3382
 4526TIP3    H213585   2.343   1.154   3.297  1.8218  0.9227  0.1146
 4527TIP3   OH213586   1.787   3.031   0.795  0.5179 -0.6420 -0.3916
 4527TIP3    H113587   1.865   3.079   0.769 -0.5456  0.8299 -0.9934
 4527TIP3    H213588   1.807   2.940   0.774  1.3895 -0.0576 -2.2990
 4528TIP3   OH213589   0.249   4.306   1.335  0.3415 -0.1738  0.0776
 4528TIP3    H113590   0.284   4.345   1.415 -1.7421 -2.0969  2.0695
 4528TIP3    H213591   0.321   4.254   1.301  0.5363 -1.4378  2.2382
 4529TIP3   OH213592   2.166   0.325   4.282  0.2561  0.1568  0.0720
 4529TIP3    H113593   2.217   0.306   4.362 -0.7281  0.2203  0.7306
 4529TIP3    H213594   2.193   0.257   4.220  1.3792  0.3780  0.2837
 4530TIP3   OH213595   1.169   4.683   2.425  0.9263 -0.3355 -0.6036
 4530TIP3    H113596   1.210   4.767   2.401  1.5112 -0.8341 -1.4118
 4530TIP3    H213597   1.234   4.640   2.480  0.7586 -0.4007 -0.4554
 4531TIP3   OH213598   3.378   1.763   3.727 -0.3872 -0.1329  0.1969
 4531TIP3    H113599   3.365   1.812   3.809  0.7592  1.1513 -0.3577
 4531TIP3    H213600   3.312   1.799   3.667 -0.3794 -0.1777  0.1612
 4532TIP3   OH213601   3.990   2.282   0.201 -0.1552  0.0198  0.6463
 4532TIP3    H113602   3.932   2.327   0.141  0.5048  0.2438  0.1639
 4532TIP3    H213603   4.013   2.348   0.267  0.0422  0.1169  0.4834
 4533TIP3   OH213604   2.542   0.706   0.745 -0.3956  0.2438  0.5799
 4533TIP3    H113605   2.614   0.681   0.688 -0.6833  0.2604  0.2093
 4533TIP3    H213606   2.567   0.671   0.831 -1.7124 -3.2790 -0.2778
 4534TIP3   OH213607   1.726   1.010   1.483 -0.4277  0.0980 -0.2863
 4534TIP3    H113608   1.661   1.071   1.450 -0.8052 -0.9135 -1.4708
 4534TIP3    H213609   1.791   1.003   1.413 -0.0494 -0.3567  0.0981
 4535TIP3   OH213610   1.029   5.459   1.965  0.4175  0.0222 -0.2332
 4535TIP3    H113611   0.986   5.493   2.044  0.8192 -1.5589  0.7184
 4535TIP3    H213612   1.023   5.530   1.902  0.3336  1.4483  1.3145
 4536TIP3   OH213613   2.727   0.579   1.370  0.1326 -0.1004 -0.2550
 4536TIP3    H113614   2.741   0.528   1.450 -1.6341  1.3236  1.0451
 4536TIP3    H213615   2.636   0.563   1.347  0.4390  0.0237 -1.6471
 4537TIP3   OH213616   6.209   3.408   4.476  0.1111 -0.1036  0.1830
 4537TIP3    H113617   6.262   3.475   4.518  3.0247  0.5286 -3.8144
 4537TIP3    H213618   6.266   3.331   4.472 -0.1229 -0.2500 -1.9805
 4538TIP3   OH213619   3.074   4.403   0.617  0.1852 -0.5140 -0.0956
 4538TIP3    H113620   2.987   4.443   0.624  0.5367  0.7971 -2.4385
 4538TIP3    H213621   3.056   4.309   0.604 -0.8161 -0.4264  0.5488
 4539TIP3   OH213622   2.483   5.591   3.208 -0.3744  0.2730 -0.4506
 4539TIP3    H113623   2.513   5.501   3.219  0.3560  0.4756 -0.7418
 4539TIP3    H213624   2.411   5.584   3.146 -1.0432 -0.2313  0.3595
 4540TIP3   OH213625   2.007   1.267   3.941  0.2588 -0.2547 -0.0975
 4540TIP3    H113626   1.931   1.231   3.894  0.4407 -0.0362 -0.5621
 4540TIP3    H213627   2.049   1.190   3.980  0.3011 -0.4771 -0.5798
 4541TIP3   OH213628   3.642   1.324   2.867  0.0513  0.0486 -0.0060
 4541TIP3    H113629   3.575   1.262   2.898  0.1087 -0.9048 -1.6780
 4541TIP3    H213630   3.703   1.270   2.816  0.0038  1.4896 -1.6835
 4542TIP3   OH213631   2.222   1.393   1.920  0.0226  0.5399 -0.7542
 4542TIP3    H113632   2.140   1.403   1.967  1.7234 -1.6402  3.1837
 4542TIP3    H213633   2.218   1.304   1.884  0.1442  0.9214 -1.7333
 4543TIP3   OH213634   1.854   2.016   3.599 -0.0910  0.5697  0.0448
 4543TIP3    H113635   1.842   2.031   3.505 -0.3168  0.3622  0.0384
 4543TIP3    H213636   1.940   1.976   3.607 -0.0428  0.6513 -0.0669
 4544TIP3   OH213637   4.545   3.255   3.936  0.0507  0.2768 -0.5714
 4544TIP3    H113638   4.638   3.232   3.938  0.1477  0.4641 -1.9637
 4544TIP3    H213639   4.525   3.281   4.026  0.7802 -1.9064  0.2975
 4545TIP3   OH213640   1.516   2.062   2.340  0.6582 -0.1408 -0.1286
 4545TIP3    H113641   1.531   2.146   2.297  2.3642 -0.6945 -0.6938
 4545TIP3    H213642   1.467   2.011   2.275 -1.3398  0.7025  0.6141
 4546TIP3   OH213643   4.861   2.776   4.131 -0.0246  0.0732 -0.3919
 4546TIP3    H113644   4.928   2.709   4.123  1.7074  1.8702 -1.9057
 4546TIP3    H213645   4.850   2.809   4.042 -0.1921  2.3627  0.4226
 4547TIP3   OH213646   5.944   0.384   0.432 -0.3555  0.0958  0.7542
 4547TIP3    H113647   5.857   0.403   0.467 -0.6621 -1.1684  0.7055
 4547TIP3    H213648   5.932   0.386   0.337  0.3285  2.8265  0.6219
 4548TIP3   OH213649   4.452   4.331   3.115  0.1422  0.3763  0.6058
 4548TIP3    H113650   4.460   4.390   3.189 -2.3707 -0.0624  1.3143
 4548TIP3    H213651   4.379   4.366   3.064 -0.9662 -1.6685  0.6848
 4549TIP3   OH213652   4.998   2.957   0.835  0.9571  0.5309 -0.1918
 4549TIP3    H113653   4.981   2.920   0.748  0.3625  0.0425  0.1171
 4549TIP3    H213654   5.067   2.902   0.872  0.7291  0.3053 -0.0956
 4550TIP3   OH213655   3.431   3.524   0.782  0.1327 -0.8684 -1.1459
 4550TIP3    H113656   3.340   3.552   0.772  0.2729 -0.5114 -1.4714
 4550TIP3    H213657   3.439   3.500   0.875 -0.4265 -1.4100 -1.2384
 4551TIP3   OH213658   0.512   1.390   0.430  0.5588 -0.4140  0.4374
 4551TIP3    H113659   0.422   1.418   0.411  0.6522 -1.7145 -2.4782
 4551TIP3    H213660   0.519   1.303   0.389  2.8390 -0.8259  1.5345
 4552TIP3   OH213661   1.148   2.141   0.185  0.0199 -0.6800  0.2225
 4552TIP3    H113662   1.205   2.103   0.119 -0.2986  2.1522 -1.8944
 4552TIP3    H213663   1.207   2.175   0.252  0.9987  1.8514 -1.7352
 4553TIP3   OH213664   3.902   0.579   1.744 -0.3853 -0.8989  0.6148
 4553TIP3    H113665   3.855   0.509   1.789 -0.1999 -0.6558  1.1923
 4553TIP3    H213666   3.976   0.599   1.801 -0.5448 -0.0991  0.5504
 4554TIP3   OH213667   0.534   3.652   4.770  0.6484  1.0374  0.2447
 4554TIP3    H113668   0.466   3.693   4.717  2.0669  1.8262 -1.0383
 4554TIP3    H213669   0.548   3.566   4.729 -0.4128  0.3229  1.2877
 4555TIP3   OH213670   5.472   1.844   1.323  0.1952  0.2730  0.2112
 4555TIP3    H113671   5.546   1.874   1.271  0.0529 -0.3263 -0.3428
 4555TIP3    H213672   5.497   1.864   1.413 -0.6542  3.7259 -0.1856
 4556TIP3   OH213673   0.641   0.461   3.957 -0.5626  0.5162  0.3388
 4556TIP3    H113674   0.651   0.545   3.911 -1.6534 -0.3448 -1.6414
 4556TIP3    H213675   0.555   0.429   3.928 -0.1329 -1.3208  0.9647
 4557TIP3   OH213676   1.413   1.176   3.619  0.4382  0.0928  0.0835
 4557TIP3    H113677   1.391   1.097   3.569 -4.3741  2.3381 -1.9850
 4557TIP3    H213678   1.439   1.240   3.553 -1.8627  1.9053  0.8119
 4558TIP3   OH213679   0.955   5.144   2.029 -0.1113  0.0075  0.2924
 4558TIP3    H113680   0.910   5.228   2.028  2.1449  1.4001  2.9366
 4558TIP3    H213681   0.937   5.108   2.116  1.3302 -0.8266  0.2794
 4559TIP3   OH213682   3.742   4.790   0.903 -0.0721  0.0885  0.2535
 4559TIP3    H113683   3.830   4.795   0.864 -0.0341  2.1558  0.4948
 4559TIP3    H213684   3.684   4.776   0.828  0.3564 -0.0134 -0.0674
 4560TIP3   OH213685   1.144   4.287   3.295  0.1650  0.2885  0.1445
 4560TIP3    H113686   1.089   4.242   3.359  0.6381  2.9618  2.6293
 4560TIP3    H213687   1.081   4.326   3.234 -0.3030 -2.1734 -1.0471
 4561TIP3   OH213688   6.050   4.787   2.452  0.2880  0.3468  0.2084
 4561TIP3    H113689   6.011   4.865   2.491  0.5154  0.1419  0.8598
 4561TIP3    H213690   5.986   4.718   2.469  0.0910  0.3827 -0.3605
 4562TIP3   OH213691   0.324   2.830   0.052  0.1646 -0.6438 -0.2764
 4562TIP3    H113692   0.352   2.884   0.126 -0.4241 -2.3784  1.3046
 4562TIP3    H213693   0.399   2.774   0.033 -0.0716 -0.9777 -0.2365
 4563TIP3   OH213694   5.144   4.042   0.073 -0.1110  0.0762 -0.1714
 4563TIP3    H113695   5.127   3.971   0.011  0.6128 -0.5272  0.2952
 4563TIP3    H213696   5.216   4.091   0.033 -0.3815  0.3429 -0.3303
 4564TIP3   OH213697   4.654   0.288   3.409 -0.2333 -0.1886  0.2008
 4564TIP3    H113698   4.681   0.215   3.353 -0.3474 -1.6898  2.0165
 4564TIP3    H213699   4.564   0.307   3.382  0.2391  0.2056 -1.1866
 4565TIP3   OH213700   5.687   0.304   4.279 -0.0457 -0.1606 -0.1227
 4565TIP3    H113701   5.641   0.369   4.225 -1.0810 -0.0378  0.8804
 4565TIP3    H213702   5.640   0.303   4.362  1.8534  0.0714  1.0236
 4566TIP3   OH213703   1.251   5.592   3.357 -0.2039 -0.3695  0.2906
 4566TIP3    H113704   1.307   5.592   3.435 -0.9644  1.1445  0.8809
 4566TIP3    H213705   1.164   5.572   3.390 -0.7161  1.2517  0.0127
 4567TIP3   OH213706   5.157   1.058   0.658  0.2733  0.3034  0.2316
 4567TIP3    H113707   5.195   1.013   0.734  2.5203 -0.3906 -1.1918
 4567TIP3    H213708   5.083   1.002   0.632 -0.1508  0.2346  1.5199
 4568TIP3   OH213709   0.409   5.661   4.120 -0.1197  0.9627  0.2592
 4568TIP3    H113710   0.352   5.732   4.092  0.4612  2.0394  1.6879
 4568TIP3    H213711   0.471   5.702   4.180  0.5225 -0.6617  0.7630
 4569TIP3   OH213712   5.006   2.381   2.107  0.1433 -0.0868  0.5653
 4569TIP3    H113713   4.930   2.433   2.133  0.5170  1.1306 -0.6827
 4569TIP3    H213714   5.079   2.442   2.107  0.8906 -0.9551  0.5092
 4570TIP3   OH213715   2.802   1.321   2.037 -0.3529  0.1210 -0.2037
 4570TIP3    H113716   2.848   1.296   1.957  1.5083  1.4657  0.3788
 4570TIP3    H213717   2.794   1.239   2.087  1.4174 -0.1728 -0.3489
 4571TIP3   OH213718   4.985   4.904   3.980 -0.3390 -0.3052  0.2712
 4571TIP3    H113719   4.971   4.908   4.074 -1.9962  0.5382  0.0155
 4571TIP3    H213720   4.967   4.992   3.949 -3.9791 -1.4241 -1.3213
 4572TIP3   OH213721   0.263   5.104   4.958 -0.4250  0.2486  0.2252
 4572TIP3    H113722   0.329   5.040   4.931 -0.2795  0.3816  0.2619
 4572TIP3    H213723   0.211   5.060   5.025 -1.2848 -0.3617 -0.8139
 4573TIP3   OH213724   1.429   1.198   0.958  0.8546  0.5814  0.0306
 4573TIP3    H113725   1.502   1.147   0.923  1.4188  0.1923  1.6866
 4573TIP3    H213726   1.371   1.132   0.997 -0.1417  0.9393 -0.7875
 4574TIP3   OH213727   0.255   4.202   0.267 -0.2853  0.1363 -0.4318
 4574TIP3    H113728   0.223   4.118   0.235  0.8327 -1.0420  1.3933
 4574TIP3    H213729   0.212   4.214   0.351 -0.6269  1.5478 -0.7791
 4575TIP3   OH213730   4.230   5.111   3.470 -0.5991  0.1767  0.1238
 4575TIP3    H113731   4.178   5.146   3.543 -0.5347 -0.1448  0.3282
 4575TIP3    H213732   4.314   5.157   3.477 -0.0466 -0.9161  1.1813
 4576TIP3   OH213733   2.253   4.860   4.070  0.7121  0.0982  0.3865
 4576TIP3    H113734   2.255   4.939   4.016  1.2092 -1.0254 -1.3338
 4576TIP3    H213735   2.162   4.829   4.063  0.8446 -0.1977 -0.0474
 4577TIP3   OH213736   6.335   1.334   0.199  0.0829 -0.0559 -0.4232
 4577TIP3    H113737   6.281   1.403   0.238 -0.1593 -0.2603 -0.3933
 4577TIP3    H213738   6.424   1.366   0.207 -0.0057  0.1248 -0.1463
 4578TIP3   OH213739   2.111   0.064   2.279  0.6907  0.3265  0.2860
 4578TIP3    H113740   2.146   0.129   2.218 -0.2905  1.5921  1.0268
 4578TIP3    H213741   2.059   0.005   2.224  2.3994 -0.4765 -0.5428
 4579TIP3   OH213742   2.698   5.315   4.570 -0.2440  0.3586  0.6198
 4579TIP3    H113743   2.621   5.263   4.593  1.6258 -2.7831  0.3094
 4579TIP3    H213744   2.746   5.323   4.653  1.0389 -1.2500  0.0600
 4580TIP3   OH213745   2.301   1.809   1.922  0.4706  0.0715 -0.1894
 4580TIP3    H113746   2.270   1.764   2.002 -0.8583  0.6532 -0.3472
 4580TIP3    H213747   2.378   1.858   1.950  0.0254  0.2569  0.7491
 4581TIP3   OH213748   5.223   0.212   2.875  0.3230 -0.1957  0.1531
 4581TIP3    H113749   5.296   0.190   2.933 -0.2070 -0.7646  0.6222
 4581TIP3    H213750   5.258   0.202   2.787  1.1098  0.5601  0.3587
 4582TIP3   OH213751   4.467   4.078   1.499 -0.1612 -0.3405  0.1711
 4582TIP3    H113752   4.554   4.084   1.458  0.3692  0.6474  1.3555
 4582TIP3    H213753   4.485   4.075   1.593 -1.3851 -1.4167  0.3978
 4583TIP3   OH213754   6.310   5.276   0.564 -0.2734 -0.4246 -0.0759
 4583TIP3    H113755   6.261   5.309   0.488 -1.2009 -0.1691  0.6035
 4583TIP3    H213756   6.261   5.198   0.591  0.6653 -1.1285 -0.3717
 4584TIP3   OH213757   1.272   0.327   2.233 -0.2021  0.0653 -0.1529
 4584TIP3    H113758   1.281   0.420   2.255  0.6215 -0.4709  2.0829
 4584TIP3    H213759   1.221   0.290   2.306 -0.1696 -1.2967 -0.7884
 4585TIP3   OH213760   6.143   0.761   0.498 -0.5783 -0.2626  0.5426
 4585TIP3    H113761   6.115   0.749   0.407 -1.8498  1.7108  0.5945
 4585TIP3    H213762   6.072   0.725   0.550 -0.1144 -0.8779  0.7503
 4586TIP3   OH213763   0.736   2.419   0.113 -0.7014  0.2331 -0.1912
 4586TIP3    H113764   0.755   2.457   0.027 -1.3330  0.2958 -0.3096
 4586TIP3    H213765   0.700   2.332   0.094  1.6806 -0.8841  0.1130
 4587TIP3   OH213766   3.154   2.187   4.838  0.1719  0.5811  0.0575
 4587TIP3    H113767   3.174   2.194   4.931 -1.1480  2.0345  0.2591
 4587TIP3    H213768   3.074   2.237   4.826  0.7665  1.1569 -2.0175
 4588TIP3   OH213769   2.173   3.560   2.602 -0.3521  0.6378 -0.1961
 4588TIP3    H113770   2.113   3.498   2.644  1.3038  0.1619  1.6169
 4588TIP3    H213771   2.227   3.593   2.674  1.9854  0.5623 -1.8173
 4589TIP3   OH213772   3.519   2.158   2.162  0.4817  0.2902  0.1929
 4589TIP3    H113773   3.483   2.239   2.127 -0.9528 -0.4075 -0.0271
 4589TIP3    H213774   3.485   2.153   2.251 -1.4199 -1.1665 -0.5377
 4590TIP3   OH213775   5.323   1.747   1.666  0.0373  0.1210  0.2063
 4590TIP3    H113776   5.241   1.722   1.708  0.3212  0.5943  1.0730
 4590TIP3    H213777   5.299   1.765   1.575 -1.0860  1.5636  0.7508
 4591TIP3   OH213778   4.299   4.124   1.299 -0.2720  0.2356  0.3339
 4591TIP3    H113779   4.333   4.109   1.388  1.5163  0.9905 -0.1694
 4591TIP3    H213780   4.252   4.044   1.278  1.7434 -1.1913  0.8978
 4592TIP3   OH213781   0.527   5.840   4.851 -0.3834  0.0354  0.3646
 4592TIP3    H113782   0.580   5.764   4.830  0.6672  0.2492  2.0840
 4592TIP3    H213783   0.506   5.880   4.766  2.4552  0.1141 -0.3813
 4593TIP3   OH213784   4.251   2.482   2.758 -0.3071 -0.2757  0.2983
 4593TIP3    H113785   4.310   2.414   2.725  1.5360  1.7479 -0.9040
 4593TIP3    H213786   4.234   2.537   2.681 -2.3673  0.2197  1.0487
 4594TIP3   OH213787   5.475   0.778   2.318 -0.2260  0.1478  0.1905
 4594TIP3    H113788   5.528   0.857   2.325 -2.0524  1.4064  0.2036
 4594TIP3    H213789   5.417   0.780   2.394 -0.0942 -1.4058  0.3831
 4595TIP3   OH213790   4.349   2.322   0.509  0.3355 -0.2726 -0.0160
 4595TIP3    H113791   4.328   2.310   0.416 -0.3181  0.3743  0.0372
 4595TIP3    H213792   4.423   2.262   0.525 -0.7747 -1.8267 -0.4739
 4596TIP3   OH213793   0.059   3.743   2.539 -0.2453  0.3037 -0.0875
 4596TIP3    H113794   0.106   3.673   2.492  0.5935  0.5846  0.3161
 4596TIP3    H213795   0.033   3.805   2.470 -2.2461 -1.0531 -0.6541
 4597TIP3   OH213796   5.991   3.864   0.455  0.1106 -0.5352  0.0543
 4597TIP3    H113797   5.986   3.941   0.512  2.8732  0.9425 -1.4726
 4597TIP3    H213798   6.023   3.794   0.512  0.2419  0.1823  0.8851
 4598TIP3   OH213799   4.941   5.689   3.597  0.0730  0.0183 -0.9220
 4598TIP3    H113800   4.916   5.609   3.551 -0.8406 -1.4358  1.9131
 4598TIP3    H213801   4.995   5.659   3.670 -2.5392  1.5663  1.8869
 4599TIP3   OH213802   3.011   1.723   2.651  0.0863 -0.3596 -0.0536
 4599TIP3    H113803   3.046   1.735   2.739  1.9488 -0.6477 -0.7162
 4599TIP3    H213804   3.001   1.629   2.641  2.3021 -0.5651 -0.9717
 4600TIP3   OH213805   5.291   2.095   1.713  0.5442  0.4474 -0.4373
 4600TIP3    H113806   5.212   2.044   1.697  1.4053 -0.7461 -1.0277
 4600TIP3    H213807   5.277   2.177   1.665 -0.6014  0.5408  0.0197
 4601TIP3   OH213808   2.605   4.579   3.643  0.5769  0.0582  0.4191
 4601TIP3    H113809   2.561   4.496   3.661  2.4339 -0.9339  0.6526
 4601TIP3    H213810   2.605   4.625   3.727  0.8474 -0.3671  0.6544
 4602TIP3   OH213811   0.514   2.818   4.268  0.4952  0.0456 -0.5069
 4602TIP3    H113812   0.431   2.798   4.224  0.2451  0.4398 -0.2247
 4602TIP3    H213813   0.490   2.825   4.361  0.6647  1.1229 -0.5343
 4603TIP3   OH213814   2.859   1.616   0.537 -0.1478  0.2736  0.4493
 4603TIP3    H113815   2.872   1.528   0.573  1.3383  0.3451  0.1358
 4603TIP3    H213816   2.900   1.675   0.600 -0.6559  0.7021  0.3860
 4604TIP3   OH213817   3.699   5.650   0.770  0.5996  0.5447  0.5751
 4604TIP3    H113818   3.748   5.732   0.775  1.3814  0.2005 -1.0454
 4604TIP3    H213819   3.746   5.590   0.828  2.8040 -0.0908 -1.7042
 4605TIP3   OH213820   2.575   2.525   3.215 -0.3254 -0.4684 -0.3672
 4605TIP3    H113821   2.572   2.430   3.219  2.1214 -0.6493 -0.8321
 4605TIP3    H213822   2.617   2.551   3.297 -0.7812  0.2003 -0.3373
 4606TIP3   OH213823   0.265   2.238   4.758 -0.3050  0.1361 -0.4694
 4606TIP3    H113824   0.298   2.326   4.740  2.1535  0.1832  3.1164
 4606TIP3    H213825   0.335   2.179   4.730 -0.4281 -0.3785  0.2510
 4607TIP3   OH213826   1.748   5.453   3.664 -0.5146  0.4202 -0.1187
 4607TIP3    H113827   1.672   5.454   3.606 -0.3953  1.6502 -0.2932
 4607TIP3    H213828   1.734   5.529   3.722  0.2650  0.2810  0.2642
 4608TIP3   OH213829   0.976   4.198   3.513 -0.2177 -0.2030 -0.0401
 4608TIP3    H113830   0.890   4.238   3.525 -0.4856 -0.9096  0.4908
 4608TIP3    H213831   0.961   4.104   3.523  0.9280 -0.2234  2.1597
 4609TIP3   OH213832   0.038   0.411   3.768  0.1178  0.0431  0.0808
 4609TIP3    H113833   0.023   0.399   3.674  0.7051  0.1525 -0.0267
 4609TIP3    H213834   0.020   0.504   3.784 -1.3645 -0.2531  0.3464
 4610TIP3   OH213835   4.292   1.399   0.227 -0.1453 -0.0362  0.0454
 4610TIP3    H113836   4.244   1.316   0.222  1.0813 -0.7984  0.4322
 4610TIP3    H213837   4.247   1.456   0.165 -0.7329 -1.1403 -0.5831
 4611TIP3   OH213838   1.508   3.344   0.021  0.1953 -0.0132 -0.4001
 4611TIP3    H113839   1.472   3.299   0.097 -1.1732  0.9027 -0.4855
 4611TIP3    H213840   1.573   3.283  -0.014  0.2337 -0.8036  0.9924
 4612TIP3   OH213841   3.789   3.789   4.926  0.1998  0.0159 -0.2176
 4612TIP3    H113842   3.771   3.836   4.844 -0.3885 -1.0069 -0.6968
 4612TIP3    H213843   3.759   3.849   4.995 -2.3487 -0.3619 -0.8783
 4613TIP3   OH213844   0.373   1.510   3.756 -0.6550  0.1636 -0.0497
 4613TIP3    H113845   0.305   1.445   3.743  0.2514 -0.5900 -1.2987
 4613TIP3    H213846   0.335   1.592   3.723 -1.0428 -0.1939 -0.5047
 4614TIP3   OH213847   5.471   3.990   0.185  0.1852  0.5157 -0.1270
 4614TIP3    H113848   5.461   3.929   0.113  1.7321 -0.2225  0.2544
 4614TIP3    H213849   5.518   3.941   0.252 -0.2365  1.5357  0.9574
 4615TIP3   OH213850   1.219   4.591   2.767  0.0297 -0.0416  0.5370
 4615TIP3    H113851   1.250   4.543   2.690 -0.4073 -0.8935  0.8687
 4615TIP3    H213852   1.248   4.538   2.841 -0.3882  0.2610  0.9223
 4616TIP3   OH213853   1.914   2.206   4.043  0.4689  0.6953 -0.0138
 4616TIP3    H113854   1.837   2.153   4.068  1.5254 -1.0346 -0.2557
 4616TIP3    H213855   1.877   2.292   4.021 -1.3482  0.0571  0.3074
 4617TIP3   OH213856   1.301   4.291   5.160 -0.3403 -0.2748  0.1343
 4617TIP3    H113857   1.292   4.262   5.251  1.5310  0.6062  0.6378
 4617TIP3    H213858   1.393   4.315   5.151 -0.7046  0.6000 -1.7259
 4618TIP3   OH213859   4.401   4.903   2.038 -0.1918 -0.3344 -0.0008
 4618TIP3    H113860   4.495   4.903   2.053 -0.2128 -0.8960  0.1444
 4618TIP3    H213861   4.363   4.895   2.126 -0.3830  0.2883 -0.0243
 4619TIP3   OH213862   2.304   3.711   4.955 -0.3186  0.1500 -0.3217
 4619TIP3    H113863   2.274   3.685   5.042 -1.0785 -1.6285 -1.0572
 4619TIP3    H213864   2.225   3.738   4.909  0.1919  1.8587 -0.2395
 4620TIP3   OH213865   3.019   3.976   3.580 -0.1388  0.6928  0.1636
 4620TIP3    H113866   2.970   4.058   3.589  2.3463  2.3510 -0.3818
 4620TIP3    H213867   3.044   3.953   3.670  0.7238  1.6035  0.1758
 4621TIP3   OH213868   5.335   4.972   3.354 -0.2720  0.1661 -0.2266
 4621TIP3    H113869   5.414   4.997   3.307 -1.3587  1.4590 -1.4355
 4621TIP3    H213870   5.278   4.935   3.287 -1.1021  0.2052  0.4392
 4622TIP3   OH213871   0.937   4.371   1.603  0.1630  0.0546  0.2385
 4622TIP3    H113872   0.960   4.296   1.548  0.5228  0.4966 -0.2252
 4622TIP3    H213873   0.975   4.350   1.689  1.3205  0.2567 -0.2143
 4623TIP3   OH213874   5.509   5.757   1.395  0.5947  0.8374  0.3990
 4623TIP3    H113875   5.565   5.690   1.357 -1.7137 -1.1333  0.2694
 4623TIP3    H213876   5.538   5.765   1.486  0.2389 -1.1308  0.7147
 4624TIP3   OH213877   1.204   0.536   4.734 -0.0474 -0.5535 -0.5874
 4624TIP3    H113878   1.278   0.492   4.691  0.3382  0.9125 -1.5109
 4624TIP3    H213879   1.132   0.528   4.672  0.0422  0.1295 -0.7907
 4625TIP3   OH213880   2.868   5.700   4.418  0.2735 -0.3213  0.2923
 4625TIP3    H113881   2.923   5.717   4.341 -0.6803  1.2724 -0.0873
 4625TIP3    H213882   2.877   5.779   4.472 -0.5478 -0.6323  0.8995
 4626TIP3   OH213883   0.771   0.281   3.115  0.1759  0.3696 -0.2130
 4626TIP3    H113884   0.815   0.301   3.197  1.5027 -0.6076 -0.6588
 4626TIP3    H213885   0.765   0.186   3.112  0.1999  0.3812 -1.2566
 4627TIP3   OH213886   4.563   1.214   4.604  0.0545  0.0000  0.1905
 4627TIP3    H113887   4.632   1.204   4.669  0.1666 -2.6036 -0.2321
 4627TIP3    H213888   4.486   1.173   4.645 -0.0963 -0.9043 -0.9667
 4628TIP3   OH213889   4.269   0.762   1.872 -0.2160  0.1316  0.6354
 4628TIP3    H113890   4.194   0.745   1.928 -1.5367  0.5431 -0.9433
 4628TIP3    H213891   4.290   0.677   1.834 -0.0276  0.0630  0.8891
 4629TIP3   OH213892   1.099   4.523   3.602  0.2568  0.1534 -0.3278
 4629TIP3    H113893   1.155   4.446   3.607 -1.9281 -1.5889 -0.9455
 4629TIP3    H213894   1.123   4.565   3.520  0.1841 -1.0040 -0.9654
 4630TIP3   OH213895   5.920   0.817   1.650 -0.2612 -0.0924  0.5323
 4630TIP3    H113896   5.858   0.865   1.594 -1.3196 -0.5560  1.2726
 4630TIP3    H213897   5.917   0.727   1.617  1.3016  0.1842 -0.4905
 4631TIP3   OH213898   6.291   4.286   2.242 -0.2651 -0.1348  0.3881
 4631TIP3    H113899   6.233   4.210   2.242 -0.1634 -0.2314 -0.8854
 4631TIP3    H213900   6.276   4.328   2.157 -0.0448  1.0599  0.9143
 4632TIP3   OH213901   3.532   1.931   5.011  0.1169 -0.3462 -0.2655
 4632TIP3    H113902   3.589   1.994   4.966  0.9847 -0.0139  1.2342
 4632TIP3    H213903   3.556   1.939   5.103 -0.6942 -1.9458  0.1149
 4633TIP3   OH213904   4.797   0.612   1.640 -0.2361  0.0369  1.0713
 4633TIP3    H113905   4.734   0.593   1.570  0.5285  0.1672  0.3272
 4633TIP3    H213906   4.777   0.701   1.667  0.0333  0.3161  0.3800
 4634TIP3   OH213907   2.594   1.660   2.109 -0.3960  0.3609  0.4441
 4634TIP3    H113908   2.520   1.637   2.054 -1.0453 -0.4880  1.6177
 4634TIP3    H213909   2.566   1.739   2.156 -0.1292  0.6569  0.1145
 4635TIP3   OH213910   2.756   4.937   3.709 -0.2131 -0.6770  0.0724
 4635TIP3    H113911   2.811   4.897   3.777 -1.1966 -2.3434 -0.0498
 4635TIP3    H213912   2.727   5.020   3.747 -0.3560 -1.3562  1.5160
 4636TIP3   OH213913   3.820   0.285   0.297  0.0957 -0.3924 -0.5374
 4636TIP3    H113914   3.836   0.371   0.336 -1.1682 -0.3624 -0.0379
 4636TIP3    H213915   3.749   0.300   0.234  0.0997 -1.0062 -0.6943
 4637TIP3   OH213916   2.236   0.717   2.199 -0.2005  0.1385 -0.4430
 4637TIP3    H113917   2.297   0.704   2.271 -0.5841 -0.5903 -0.2387
 4637TIP3    H213918   2.169   0.776   2.233 -2.0277 -2.4986  0.8460
 4638TIP3   OH213919   3.588   5.547   5.134 -0.2053  0.8425 -0.0643
 4638TIP3    H113920   3.569   5.600   5.056 -2.1058  0.4000  0.0358
 4638TIP3    H213921   3.522   5.477   5.131 -0.8810  1.2882  2.3570
 4639TIP3   OH213922   4.356   0.152   0.270 -0.3711 -0.6291 -0.4595
 4639TIP3    H113923   4.263   0.155   0.290 -0.0766 -2.4730  1.6042
 4639TIP3    H213924   4.361   0.108   0.185 -1.3980  0.7779 -1.2877
 4640TIP3   OH213925   5.630   2.114   4.681 -0.1037  0.5706 -0.2224
 4640TIP3    H113926   5.681   2.074   4.751  0.5123  1.6684 -0.0189
 4640TIP3    H213927   5.543   2.129   4.718 -0.8720 -2.0085 -0.8051
 4641TIP3   OH213928   4.952   3.564   0.247 -0.3153 -0.1437  0.0681
 4641TIP3    H113929   4.967   3.598   0.335  0.7867  0.3665 -0.3008
 4641TIP3    H213930   4.925   3.640   0.196 -0.4441 -0.3379 -0.1581
 4642TIP3   OH213931   1.161   0.973   3.851  0.3838 -0.3846 -0.1752
 4642TIP3    H113932   1.239   1.028   3.845  2.0276 -2.5165  0.3856
 4642TIP3    H213933   1.178   0.901   3.790 -1.2112 -0.8499 -0.1142
 4643TIP3   OH213934   0.007   3.579   0.672  0.0168  0.0920  0.2308
 4643TIP3    H113935   0.042   3.575   0.761  3.9341  0.1616 -1.0940
 4643TIP3    H213936   0.002   3.487   0.645 -0.5951  0.0982  0.3173
 4644TIP3   OH213937   6.195   1.702   1.251  0.4939  0.8164  0.0483
 4644TIP3    H113938   6.137   1.726   1.179 -0.2378 -0.3645  0.2230
 4644TIP3    H213939   6.164   1.616   1.279  2.9411 -0.3569 -0.5321
 4645TIP3   OH213940   0.634   4.316   0.696 -0.4252  0.8192 -0.0959
 4645TIP3    H113941   0.540   4.326   0.678 -0.4923  1.4481  0.5842
 4645TIP3    H213942   0.675   4.390   0.651 -0.2327  0.4737 -0.4980
 4646TIP3   OH213943   0.770   5.131   3.900  0.1977 -0.0766  0.0223
 4646TIP3    H113944   0.837   5.143   3.833  0.6386  0.2283  0.5105
 4646TIP3    H213945   0.783   5.203   3.961 -1.1057  0.4610 -0.3014
 4647TIP3   OH213946   1.003   1.074   1.341  0.1837  0.0735 -0.5378
 4647TIP3    H113947   0.990   1.074   1.246 -0.3684 -0.1273 -0.4650
 4647TIP3    H213948   0.987   0.984   1.368 -2.8497  0.6882  0.1428
 4648TIP3   OH213949   4.935   3.957   2.165 -0.4813 -0.1284  0.1308
 4648TIP3    H113950   4.865   3.975   2.228 -1.5819  0.6064 -1.2565
 4648TIP3    H213951   4.953   3.864   2.176  0.5702  0.2967  2.7037
 4649TIP3   OH213952   0.778   4.236   3.843 -0.3376 -0.5814  0.0517
 4649TIP3    H113953   0.838   4.167   3.813 -1.6091 -1.6516 -0.1216
 4649TIP3    H213954   0.700   4.224   3.790 -1.1126  0.0981  1.0069
 4650TIP3   OH213955   2.254   5.000   2.487  0.6927 -0.0349  0.1000
 4650TIP3    H113956   2.205   5.082   2.476  1.4223  0.3996  0.0066
 4650TIP3    H213957   2.198   4.947   2.545  0.6769  0.9370  1.0222
 4651TIP3   OH213958   3.810   2.170   3.207 -0.2343 -0.6301 -0.1925
 4651TIP3    H113959   3.726   2.125   3.197 -2.1106  2.2860  0.9804
 4651TIP3    H213960   3.819   2.222   3.127 -0.1308 -0.0895  0.1662
 4652TIP3   OH213961   6.010   0.477   3.047  0.1590  0.2000  0.2210
 4652TIP3    H113962   5.993   0.391   3.007 -0.4386  0.2989  0.2534
 4652TIP3    H213963   6.035   0.533   2.974  0.8963 -0.0874  0.2475
 4653TIP3   OH213964   0.326   3.578   3.610  0.3367 -0.7286 -0.3311
 4653TIP3    H113965   0.325   3.493   3.566  0.7493 -0.3100 -1.1491
 4653TIP3    H213966   0.290   3.639   3.546 -0.4517 -0.3607  0.4413
 4654TIP3   OH213967   5.463   2.270   2.911 -0.2584 -0.1681  0.6715
 4654TIP3    H113968   5.506   2.214   2.846 -0.7558  0.0181  0.1762
 4654TIP3    H213969   5.412   2.209   2.965  0.7556 -0.4154  1.3909
 4655TIP3   OH213970   0.258   5.769   3.210 -0.2474  0.0991 -0.0774
 4655TIP3    H113971   0.273   5.712   3.285 -2.2277 -1.8056 -1.0146
 4655TIP3    H213972   0.322   5.740   3.145 -0.0013  0.2326  0.1051
 4656TIP3   OH213973   0.869   3.110   1.857  0.4813  0.0680 -0.3177
 4656TIP3    H113974   0.940   3.107   1.793  0.3913 -0.3018 -0.4006
 4656TIP3    H213975   0.902   3.059   1.931 -0.2377 -1.2845 -0.9062
 4657TIP3   OH213976   5.681   4.323   0.528 -0.1556 -0.5585 -0.2767
 4657TIP3    H113977   5.667   4.290   0.616 -1.4129 -0.0090 -0.2325
 4657TIP3    H213978   5.644   4.411   0.530  2.8663  0.8375 -0.4460
 4658TIP3   OH213979   5.676   0.910   0.326  0.2398  0.0951 -0.1843
 4658TIP3    H113980   5.684   0.967   0.249 -0.1639 -1.1301 -1.1514
 4658TIP3    H213981   5.649   0.826   0.291  0.3891 -0.5844  1.2791
 4659TIP3   OH213982   2.101   3.919   1.681  0.4018 -0.1188 -0.5493
 4659TIP3    H113983   2.042   3.985   1.644 -0.5976  1.0600  2.8279
 4659TIP3    H213984   2.188   3.944   1.650 -0.0953  2.1338 -0.2954
 4660TIP3   OH213985   2.049   4.931   0.868  0.0489 -0.3864  0.4012
 4660TIP3    H113986   2.002   4.853   0.837  1.5637 -1.1541 -0.0616
 4660TIP3    H213987   2.061   4.917   0.962  0.0569 -0.5585  0.3742
 4661TIP3   OH213988   0.138   1.831   0.026 -0.0875 -0.0347 -0.5491
 4661TIP3    H113989   0.220   1.853   0.070 -0.1159  0.0087 -0.5182
 4661TIP3    H213990   0.131   1.736   0.036 -1.3185  0.2241  1.6966
 4662TIP3   OH213991   2.780   1.519   5.031 -0.0277 -0.3087  0.1213
 4662TIP3    H113992   2.688   1.534   5.009 -0.2064  0.5407  1.3358
 4662TIP3    H213993   2.778   1.470   5.113  0.5532  1.5413  1.3115
 4663TIP3   OH213994   3.066   0.955   0.456  0.6756  0.4029  0.1970
 4663TIP3    H113995   3.089   0.896   0.384 -0.7135  0.2003 -0.1032
 4663TIP3    H213996   3.081   0.903   0.535 -0.0144 -0.1743 -0.0418
 4664TIP3   OH213997   6.245   1.608   3.654  0.2762  0.7836 -0.3716
 4664TIP3    H113998   6.261   1.525   3.609 -0.2056 -0.0169  0.8916
 4664TIP3    H213999   6.166   1.643   3.612 -0.9185 -0.5807  0.6477
 4665TIP3   OH214000   3.054   0.666   2.645  0.3187  0.0260  0.2994
 4665TIP3    H114001   3.033   0.698   2.557  1.2684  0.4483  0.2068
 4665TIP3    H214002   3.145   0.636   2.638 -0.3820 -2.3276  0.4991
 4666TIP3   OH214003   2.482   1.359   3.643 -0.3219 -0.0492  0.2493
 4666TIP3    H114004   2.540   1.409   3.699 -0.2443 -0.1398  0.2499
 4666TIP3    H214005   2.448   1.422   3.580  0.8038 -0.2534 -0.5920
 4667TIP3   OH214006   2.874   4.074   2.741 -0.8681  0.4604  0.2207
 4667TIP3    H114007   2.815   4.003   2.715 -0.2236 -0.2752  0.7391
 4667TIP3    H214008   2.860   4.083   2.836 -0.7801  0.8687  0.1952
 4668TIP3   OH214009   5.796   0.451   3.902 -0.0134  0.7256  0.1781
 4668TIP3    H114010   5.759   0.535   3.930  0.2032  0.5575  0.9933
 4668TIP3    H214011   5.873   0.440   3.957  0.0829  0.0922 -0.0809
 4669TIP3   OH214012   4.191   4.513   3.269 -0.0806  0.1832  0.3656
 4669TIP3    H114013   4.204   4.594   3.319  1.3796 -0.5134  1.1435
 4669TIP3    H214014   4.200   4.540   3.178  0.9699  0.8020  0.6442
 4670TIP3   OH214015   2.254   2.170   3.212 -0.2080 -0.0283  0.0921
 4670TIP3    H114016   2.171   2.197   3.173 -0.9734 -1.9594  0.2670
 4670TIP3    H214017   2.232   2.148   3.302  0.6243  0.0675  0.3242
 4671TIP3   OH214018   1.223   1.160   2.358  0.3872 -0.1378 -0.0078
 4671TIP3    H114019   1.132   1.176   2.379 -0.9019 -2.9756 -2.6547
 4671TIP3    H214020   1.256   1.106   2.430 -0.6632 -0.7652  0.0214
 4672TIP3   OH214021   1.711   4.607   4.019  0.1677  0.1620 -0.2769
 4672TIP3    H114022   1.801   4.575   4.030  0.4827  0.3845 -1.8706
 4672TIP3    H214023   1.710   4.691   4.063  0.0920 -0.8076  1.6597
 4673TIP3   OH214024   5.874   5.066   1.857 -0.9674 -0.0264 -0.1849
 4673TIP3    H114025   5.813   5.098   1.790 -1.3928  0.1457  0.2775
 4673TIP3    H214026   5.834   5.093   1.940  0.2426  0.9606  0.0999
 4674TIP3   OH214027   3.591   1.690   1.592  0.6058 -0.4838 -0.3013
 4674TIP3    H114028   3.595   1.770   1.644 -0.4291 -0.1769 -0.6724
 4674TIP3    H214029   3.632   1.624   1.648  0.0631 -0.0238  0.6627
 4675TIP3   OH214030   1.398   1.083   3.872 -0.4671  0.3914 -0.0300
 4675TIP3    H114031   1.442   1.141   3.935  4.0418 -1.4998 -1.0389
 4675TIP3    H214032   1.412   1.125   3.788  0.8861 -0.9833 -0.5336
 4676TIP3   OH214033   0.690   3.900   1.199  0.0848  0.3232 -0.0802
 4676TIP3    H114034   0.676   3.987   1.162  1.4586  0.4681 -0.3378
 4676TIP3    H214035   0.664   3.840   1.130 -0.7575  0.5234  0.0556
 4677TIP3   OH214036   5.127   5.597   3.765 -0.2820  0.7003 -0.6264
 4677TIP3    H114037   5.214   5.561   3.780 -0.4802 -0.4121 -1.9121
 4677TIP3    H214038   5.128   5.682   3.809  1.0379  0.1863  0.4015
 4678TIP3   OH214039   5.757   5.050   0.617 -0.0449  0.2950 -0.2919
 4678TIP3    H114040   5.790   5.071   0.704  2.3954  3.3981 -1.7624
 4678TIP3    H214041   5.758   4.954   0.613  1.3575  0.1057  2.5055
 4679TIP3   OH214042   2.451   4.945   0.477  0.1107 -0.7321  0.6887
 4679TIP3    H114043   2.425   4.926   0.387 -1.3463  0.8019  0.7465
 4679TIP3    H214044   2.371   4.934   0.528  0.3132  0.7707  1.3956
 4680TIP3   OH214045   5.802   1.732   2.857 -0.2594  0.0103 -0.0643
 4680TIP3    H114046   5.724   1.739   2.803  1.4131  1.0797 -2.5475
 4680TIP3    H214047   5.836   1.644   2.838  0.4751  0.4853 -1.0558
 4681TIP3   OH214048   3.288   3.011   3.358  0.2245 -0.4336  0.6056
 4681TIP3    H114049   3.368   3.002   3.306 -0.3778 -1.7244 -0.1419
 4681TIP3    H214050   3.229   3.062   3.301  0.8685  1.5216  1.6115
 4682TIP3   OH214051   4.427   3.413   1.249  0.2187  0.2030  0.0334
 4682TIP3    H114052   4.413   3.351   1.177 -0.8881  1.3534 -0.7745
 4682TIP3    H214053   4.397   3.367   1.327 -1.1468 -0.0736 -0.6358
 4683TIP3   OH214054   3.271   3.622   2.826  0.2620  0.2961  0.0445
 4683TIP3    H114055   3.245   3.639   2.916 -1.3042  0.3101 -0.3908
 4683TIP3    H214056   3.211   3.554   2.796 -0.0758  1.1921 -1.3843
 4684TIP3   OH214057   3.420   2.297   1.581  0.1799  0.4938  0.0253
 4684TIP3    H114058   3.367   2.283   1.502  0.5380  1.7783 -0.4626
 4684TIP3    H214059   3.407   2.389   1.603  1.3422  0.5545  0.5475
 4685TIP3   OH214060   3.734   0.268   0.998 -0.2945  0.3855 -0.1462
 4685TIP3    H114061   3.760   0.323   1.072 -1.3414 -0.4637  0.9024
 4685TIP3    H214062   3.758   0.179   1.025 -1.8305 -0.0877 -0.2621
 4686TIP3   OH214063   1.544   4.037   3.999  0.9126  0.3970  0.4950
 4686TIP3    H114064   1.615   4.063   4.057  0.7019  1.9833  0.0795
 4686TIP3    H214065   1.469   4.089   4.028 -0.2236 -1.4844  1.1554
 4687TIP3   OH214066   4.236   3.199   0.611 -0.6363 -0.0450  0.2556
 4687TIP3    H114067   4.150   3.179   0.574 -0.4153  1.2897 -1.1236
 4687TIP3    H214068   4.217   3.237   0.696 -1.5796  1.7204 -0.6738
 4688TIP3   OH214069   3.109   1.697   2.271  0.5142  0.3519  0.2040
 4688TIP3    H114070   3.147   1.643   2.339 -1.4235 -0.8778  0.3847
 4688TIP3    H214071   3.017   1.707   2.296  0.2222  1.5623 -1.1871
 4689TIP3   OH214072   2.745   0.837   4.579  0.2104 -0.2191  0.6669
 4689TIP3    H114073   2.833   0.801   4.581  1.0689  1.8161  1.4306
 4689TIP3    H214074   2.720   0.844   4.671 -0.9856 -1.2155  0.4594
 4690TIP3   OH214075   1.854   3.035   2.409  0.0092 -0.3782 -0.0816
 4690TIP3    H114076   1.850   2.985   2.327  0.5463 -1.0966  0.3252
 4690TIP3    H214077   1.877   3.124   2.381 -0.3465 -0.4863 -0.7539
 4691TIP3   OH214078   4.944   1.112   0.095 -0.2295  0.0264  0.3199
 4691TIP3    H114079   4.900   1.049   0.152 -0.0753 -0.9953 -0.6437
 4691TIP3    H214080   5.015   1.147   0.148 -0.9098  0.1289  1.1917
 4692TIP3   OH214081   1.343   5.823   4.050  0.0804 -0.0226  0.0439
 4692TIP3    H114082   1.250   5.839   4.061  0.0810 -0.1357  0.2097
 4692TIP3    H214083   1.381   5.910   4.039 -0.2111 -0.0400 -1.3464
 4693TIP3   OH214084   3.117   1.177   0.144  0.0586 -0.0518 -0.0846
 4693TIP3    H114085   3.075   1.254   0.181 -1.3539  0.0159 -1.6982
 4693TIP3    H214086   3.166   1.211   0.069  2.2767 -0.2820  1.1639
 4694TIP3   OH214087   4.915   4.910   1.011  0.1401  0.0612  0.1959
 4694TIP3    H114088   4.981   4.913   1.080 -0.2816  1.0524  0.5694
 4694TIP3    H214089   4.942   4.837   0.956 -1.4267 -3.1227  3.2771
 4695TIP3   OH214090   2.257   2.551   1.150 -0.2780 -0.0543  0.0973
 4695TIP3    H114091   2.238   2.644   1.164 -1.9092 -0.3708  0.2570
 4695TIP3    H214092   2.288   2.545   1.060  0.6497  0.7402  0.3550
 4696TIP3   OH214093   6.100   3.551   1.921 -0.0042  0.3040 -0.1561
 4696TIP3    H114094   6.060   3.567   1.835 -1.9664 -0.1494  0.6089
 4696TIP3    H214095   6.097   3.455   1.931 -2.2638  0.4579  1.4421
 4697TIP3   OH214096   1.797   3.169   3.169  0.5305  0.0646 -0.2948
 4697TIP3    H114097   1.764   3.079   3.162  0.1880 -0.0000  1.7339
 4697TIP3    H214098   1.845   3.171   3.252  0.7772  1.6927 -0.4475
 4698TIP3   OH214099   3.527   5.896   1.943 -0.7302  0.9289 -0.2133
 4698TIP3    H114100   3.608   5.946   1.931 -0.1804  0.1507  0.1795
 4698TIP3    H214101   3.490   5.889   1.855 -1.1592  2.5441 -0.2093
 4699TIP3   OH214102   0.338   1.056   4.754  0.6085  0.1975  0.6208
 4699TIP3    H114103   0.339   1.043   4.848 -0.5407  0.1599  0.6452
 4699TIP3    H214104   0.248   1.037   4.728  0.3183  2.3154 -0.1608
 4700TIP3   OH214105   2.004   5.975   0.609 -0.5956  0.3980 -0.4543
 4700TIP3    H114106   2.092   6.011   0.620  0.6587 -2.6934  0.9108
 4700TIP3    H214107   1.965   5.982   0.696 -0.4831 -0.9795 -0.2682
 4701TIP3   OH214108   1.780   3.795   1.946  0.2973 -0.3754  0.6718
 4701TIP3    H114109   1.781   3.780   1.852 -1.1576 -0.6680  0.6844
 4701TIP3    H214110   1.688   3.794   1.970  0.5585  0.9189  1.9123
 4702TIP3   OH214111   4.018   1.359   2.843 -0.2595 -0.0594 -0.3360
 4702TIP3    H114112   4.080   1.312   2.900 -0.5187 -1.9339 -1.5264
 4702TIP3    H214113   3.949   1.296   2.825 -1.2127  1.1631 -1.1481
 4703TIP3   OH214114   4.936   4.813   1.971 -0.1407 -0.4266 -0.0736
 4703TIP3    H114115   4.911   4.836   1.881  0.3123 -2.1234 -0.6693
 4703TIP3    H214116   4.867   4.752   1.999 -0.7909  0.7996  1.1035
 4704TIP3   OH214117   2.091   2.741   4.490  0.5143  0.3354  0.2627
 4704TIP3    H114118   2.015   2.691   4.516  0.5763  0.8502  1.4873
 4704TIP3    H214119   2.122   2.699   4.409 -0.1741 -0.7799  0.5732
 4705TIP3   OH214120   1.521   3.779   2.040 -0.1036  0.3347  0.0258
 4705TIP3    H114121   1.493   3.709   2.099  0.2497 -0.0346 -0.2476
 4705TIP3    H214122   1.442   3.800   1.989 -0.3490  0.5008  0.4662
 4706TIP3   OH214123   6.329   2.126   3.069 -0.8018  0.0690 -0.0553
 4706TIP3    H114124   6.340   2.047   3.016  0.4412  0.7344 -0.8451
 4706TIP3    H214125   6.324   2.094   3.159  0.1815 -0.8916 -0.3145
 4707TIP3   OH214126   2.810   0.572   4.842 -0.0620  0.2675  0.4160
 4707TIP3    H114127   2.787   0.490   4.886  0.1949  0.0262  0.1085
 4707TIP3    H214128   2.732   0.626   4.849  0.0024  0.2655  1.2411
 4708TIP3   OH214129   5.977   3.969   2.693 -0.5918 -0.2698 -0.4887
 4708TIP3    H114130   6.013   3.880   2.686 -1.6959 -0.8969  1.2533
 4708TIP3    H214131   5.932   3.983   2.610 -0.3313 -1.3200 -0.8225
 4709TIP3   OH214132   3.771   0.315   2.598 -0.7964 -0.6794  0.4037
 4709TIP3    H114133   3.849   0.357   2.634 -1.6217 -0.8861  2.5697
 4709TIP3    H214134   3.716   0.388   2.570 -0.1590 -0.5089 -0.4334
 4710TIP3   OH214135   4.427   4.875   4.362 -0.2414 -0.5698  0.0156
 4710TIP3    H114136   4.379   4.804   4.321 -0.8923 -0.1383  0.0278
 4710TIP3    H214137   4.365   4.915   4.422 -0.1495  0.5479 -0.6075
 4711TIP3   OH214138   4.421   2.024   3.100  0.1284  0.3146 -0.1049
 4711TIP3    H114139   4.402   2.105   3.053 -0.3617 -0.2736 -0.9542
 4711TIP3    H214140   4.335   1.983   3.114  0.4956 -1.2290 -1.8892
 4712TIP3   OH214141   2.917   2.648   2.406  0.1598 -0.1516 -0.1106
 4712TIP3    H114142   2.917   2.704   2.329  0.6228  1.4656  1.0242
 4712TIP3    H214143   2.831   2.663   2.447 -0.1497 -1.1230 -0.3724
 4713TIP3   OH214144   5.161   3.322   4.003  0.1790 -0.2674 -0.6201
 4713TIP3    H114145   5.115   3.239   3.993 -2.5780  0.9123  1.1055
 4713TIP3    H214146   5.206   3.316   4.087  0.4147 -0.1901 -0.7383
 4714TIP3   OH214147   0.329   4.448   5.138 -0.1172  0.2122 -0.1585
 4714TIP3    H114148   0.422   4.441   5.159 -0.3329  0.1253  0.8134
 4714TIP3    H214149   0.309   4.364   5.095  0.3351  0.4025 -0.7666
 4715TIP3   OH214150   4.024   4.005   1.698 -0.2979  0.0551 -0.1350
 4715TIP3    H114151   4.085   4.002   1.625 -0.8674 -0.3826 -0.6043
 4715TIP3    H214152   4.008   3.914   1.720 -2.1860  0.0673 -1.2321
 4716TIP3   OH214153   4.597   1.507   0.571  0.2838  0.1174  0.2976
 4716TIP3    H114154   4.658   1.440   0.602  0.8244  0.9622  1.1466
 4716TIP3    H214155   4.558   1.542   0.651 -0.8885  0.0077 -0.2021
 4717TIP3   OH214156   5.084   4.937   5.002 -0.2569  0.1471 -0.2219
 4717TIP3    H114157   5.025   4.875   4.958  1.0180 -2.6429  1.7197
 4717TIP3    H214158   5.170   4.918   4.965 -0.0069  1.8290 -0.5908
 4718TIP3   OH214159   4.142   4.937   0.690  0.0664  0.5073 -0.3323
 4718TIP3    H114160   4.223   4.988   0.685 -0.2434  0.9047 -1.6983
 4718TIP3    H214161   4.081   4.994   0.737  0.5974  0.1334  0.8682
 4719TIP3   OH214162   4.164   1.418   1.743  0.2828  0.0511 -0.7630
 4719TIP3    H114163   4.109   1.354   1.700 -0.7576  0.4605 -0.0745
 4719TIP3    H214164   4.132   1.421   1.833  0.6311  1.1647 -0.6548
 4720TIP3   OH214165   1.815   4.691   0.610 -0.5374 -0.1893  0.3027
 4720TIP3    H114166   1.870   4.764   0.580 -0.1074 -1.3048 -1.8432
 4720TIP3    H214167   1.861   4.656   0.686  0.9248 -0.1223 -0.5105
 4721TIP3   OH214168   3.945   2.693   4.209  0.2823 -0.2528  0.6678
 4721TIP3    H114169   3.976   2.604   4.228 -0.9192 -0.8155  0.1237
 4721TIP3    H214170   3.859   2.698   4.250 -0.4787 -0.0085 -0.8913
 4722TIP3   OH214171   5.367   1.279   4.168 -0.0463  0.4313  0.2368
 4722TIP3    H114172   5.326   1.360   4.198  0.3841  0.7842 -0.1117
 4722TIP3    H214173   5.391   1.297   4.077  0.2028 -0.0280  0.2096
 4723TIP3   OH214174   5.698   1.511   3.993  0.1466  0.6374 -0.0745
 4723TIP3    H114175   5.631   1.512   3.924 -0.2320  0.3252  0.2827
 4723TIP3    H214176   5.764   1.450   3.961 -0.1687  0.2676 -0.0389
 4724TIP3   OH214177   6.198   0.695   3.156 -0.6802  0.6246  0.0305
 4724TIP3    H114178   6.274   0.746   3.182  0.9711 -2.3168  1.4999
 4724TIP3    H214179   6.234   0.624   3.102 -2.5319 -0.2404 -0.1442
 4725TIP3   OH214180   0.101   0.998   0.377  0.2012  0.1761  0.3385
 4725TIP3    H114181   0.020   1.043   0.401 -0.3269  0.1481 -1.2752
 4725TIP3    H214182   0.163   1.020   0.447  0.0556  3.6407 -0.4476
 4726TIP3   OH214183   0.314   2.107   2.457 -0.1091 -0.1807  0.1765
 4726TIP3    H114184   0.266   2.024   2.447  2.3239 -1.8566  1.2678
 4726TIP3    H214185   0.378   2.107   2.386 -0.4399  1.0756 -0.1438
 4727TIP3   OH214186   1.470   3.521   0.946  0.1348  0.1120  0.1512
 4727TIP3    H114187   1.462   3.567   0.862 -1.9192 -1.7224 -0.7580
 4727TIP3    H214188   1.519   3.442   0.925  0.1343 -0.0675  0.8144
 4728TIP3   OH214189   5.090   1.412   1.304 -0.0935 -0.7418  0.1442
 4728TIP3    H114190   5.047   1.378   1.383 -0.1623  0.5588  0.6875
 4728TIP3    H214191   5.045   1.368   1.232  0.1688 -2.1798  0.8190
 4729TIP3   OH214192   3.328   0.842   1.725 -0.0392  0.0096 -0.4379
 4729TIP3    H114193   3.257   0.781   1.707 -2.3375  1.6281  2.2961
 4729TIP3    H214194   3.320   0.908   1.656 -2.5395  1.1589  0.8299
 4730TIP3   OH214195   3.977   2.501   3.196  0.0825  0.2736 -0.4282
 4730TIP3    H114196   3.981   2.540   3.109 -0.7358 -0.4735 -0.8097
 4730TIP3    H214197   3.970   2.407   3.181 -1.8095  0.2333  0.3767
 4731TIP3   OH214198   3.175   3.639   1.044  0.5288  0.3785  0.1068
 4731TIP3    H114199   3.163   3.648   0.949  0.4584 -1.7937 -0.1433
 4731TIP3    H214200   3.097   3.592   1.073  1.1855 -0.1556  1.0217
 4732TIP3   OH214201   4.488   1.793   0.524 -0.2067  0.2174  0.1120
 4732TIP3    H114202   4.470   1.783   0.617 -0.3645 -1.3329 -0.0438
 4732TIP3    H214203   4.536   1.713   0.501 -0.7854  0.2371 -1.2736
 4733TIP3   OH214204   2.588   4.016   0.572 -0.4008 -0.2073 -0.0816
 4733TIP3    H114205   2.570   4.028   0.666  1.4085  0.0406  0.2651
 4733TIP3    H214206   2.615   3.924   0.565 -0.2484 -0.1465 -0.2956
 4734TIP3   OH214207   0.972   0.087   2.740  0.7297 -0.0897 -0.0209
 4734TIP3    H114208   0.942   0.083   2.649 -0.0800  0.9599  0.1784
 4734TIP3    H214209   0.984  -0.005   2.765 -0.9154 -0.5007 -0.5909
 4735TIP3   OH214210   0.945   2.573   2.427  0.1029  0.2576 -0.5034
 4735TIP3    H114211   1.006   2.557   2.355 -1.2848  1.5900 -2.0541
 4735TIP3    H214212   0.867   2.523   2.404 -0.3333  0.6406  0.1079
 4736TIP3   OH214213   3.322   0.222   3.201  0.5466 -0.0853  0.1097
 4736TIP3    H114214   3.226   0.225   3.198  0.5008  0.9265  1.3784
 4736TIP3    H214215   3.349   0.224   3.109 -0.6347  2.9863 -0.2987
 4737TIP3   OH214216   1.037   0.454   0.998  0.1392  0.6727  0.4755
 4737TIP3    H114217   1.060   0.384   1.059 -2.0262 -0.0127  0.5719
 4737TIP3    H214218   1.102   0.523   1.015  1.6825 -0.8557  1.1052
 4738TIP3   OH214219   6.255   5.144   4.504 -0.9528 -0.5069  0.2180
 4738TIP3    H114220   6.217   5.173   4.587  0.0892 -0.8846  0.8503
 4738TIP3    H214221   6.283   5.224   4.460  0.8390 -0.4127  1.4204
 4739TIP3   OH214222   1.039   4.796   2.733 -0.0199  0.4187  0.0536
 4739TIP3    H114223   0.963   4.740   2.748 -0.0268  0.8066  1.5925
 4739TIP3    H214224   1.114   4.741   2.759 -0.0502  1.1957  1.9028
 4740TIP3   OH214225   2.798   5.935   1.380 -0.0461  0.0748  0.2181
 4740TIP3    H114226   2.750   5.870   1.329  1.3961 -0.7090 -0.2130
 4740TIP3    H214227   2.789   6.016   1.331  0.1932 -0.3664 -0.5713
 4741TIP3   OH214228   3.325   1.515   0.520  0.7007 -0.1653 -0.0404
 4741TIP3    H114229   3.364   1.439   0.476  0.1906  0.5675 -1.8671
 4741TIP3    H214230   3.259   1.478   0.579 -1.8566 -1.1750 -3.2168
 4742TIP3   OH214231   3.155   3.317   4.067 -0.2078  0.0495  0.3348
 4742TIP3    H114232   3.130   3.327   4.159 -1.3704  1.8098 -0.1185
 4742TIP3    H214233   3.103   3.243   4.035 -0.0141 -0.3860  1.0033
 4743TIP3   OH214234   5.120   1.859   0.954  0.4180  0.1624  0.5255
 4743TIP3    H114235   5.029   1.890   0.956  0.7432  1.0932  1.4235
 4743TIP3    H214236   5.119   1.780   1.008 -0.0757 -0.5071 -0.4229
 4744TIP3   OH214237   4.839   0.901   2.177 -0.3346  0.3899 -0.3129
 4744TIP3    H114238   4.764   0.869   2.228  0.4884  0.3542  0.9184
 4744TIP3    H214239   4.817   0.880   2.086 -2.1850  1.1261 -0.0793
 4745TIP3   OH214240   1.168   2.561   3.501 -0.7985  0.4620 -0.1696
 4745TIP3    H114241   1.232   2.579   3.432 -0.0690  2.4818  0.9375
 4745TIP3    H214242   1.125   2.646   3.516 -0.3722  0.3024  2.3617
 4746TIP3   OH214243   4.981   5.426   2.959  1.0283  0.0398  0.0711
 4746TIP3    H114244   4.953   5.336   2.949  2.7617 -0.4921 -0.3984
 4746TIP3    H214245   5.043   5.440   2.887 -0.5846  2.2209 -1.0415
 4747TIP3   OH214246   1.438   5.071   1.893 -0.4279  0.2802  0.5067
 4747TIP3    H114247   1.486   5.081   1.810 -0.1076  0.5148  0.7202
 4747TIP3    H214248   1.346   5.067   1.867 -0.3758  0.9898  0.1857
 4748TIP3   OH214249   1.889   4.878   1.697 -0.4512  0.5116  0.5982
 4748TIP3    H114250   1.928   4.904   1.781 -0.3591  1.8384  0.1827
 4748TIP3    H214251   1.818   4.819   1.720  1.3604 -1.4851  1.4306
 4749TIP3   OH214252   6.215   0.598   2.158 -0.2254  0.4373  0.5496
 4749TIP3    H114253   6.284   0.569   2.217  0.0997 -0.2804 -0.1686
 4749TIP3    H214254   6.187   0.519   2.112 -1.9463  0.6016  1.2515
 4750TIP3   OH214255   1.470   0.090   5.085 -0.2578 -0.1132 -0.1399
 4750TIP3    H114256   1.389   0.051   5.119 -0.5100 -0.0552 -0.6603
 4750TIP3    H214257   1.467   0.182   5.113 -0.2160 -0.1923  0.1188
 4751TIP3   OH214258   0.880   3.304   1.173 -0.1252  0.0649 -0.1252
 4751TIP3    H114259   0.861   3.371   1.238  1.3174  0.2849  0.0838
 4751TIP3    H214260   0.975   3.306   1.162 -0.0746 -1.7477 -0.3158
 4752TIP3   OH214261   2.867   2.340   2.665 -0.5135 -0.3064 -0.4468
 4752TIP3    H114262   2.830   2.299   2.743  0.5313 -0.2809  0.0696
 4752TIP3    H214263   2.855   2.434   2.679 -0.0280 -0.2863 -0.1653
 4753TIP3   OH214264   4.460   2.298   2.709 -0.0797  0.1133 -0.7676
 4753TIP3    H114265   4.453   2.266   2.619 -0.5956 -1.0139 -0.3399
 4753TIP3    H214266   4.546   2.268   2.739 -0.3400 -0.4061 -0.5425
 4754TIP3   OH214267   4.093   4.017   4.543 -0.0865  0.4136  0.3583
 4754TIP3    H114268   4.099   3.935   4.591  1.2450  0.4198  0.2426
 4754TIP3    H214269   4.176   4.023   4.495  0.4448  2.4581  1.4188
 4755TIP3   OH214270   5.139   5.558   1.940 -0.4598 -0.1825  0.0461
 4755TIP3    H114271   5.137   5.603   1.856 -0.8036 -0.0038  0.1504
 4755TIP3    H214272   5.118   5.626   2.004  1.7898  0.1817  0.4960
 4756TIP3   OH214273   3.982   1.444   4.993 -0.4929 -0.5341  0.3319
 4756TIP3    H114274   4.058   1.502   5.003 -0.3638 -0.0962 -2.3779
 4756TIP3    H214275   4.010   1.378   4.930 -1.9704 -1.0867  0.2048
 4757TIP3   OH214276   3.207   1.077   4.290 -0.3115 -0.1549  0.1923
 4757TIP3    H114277   3.139   1.060   4.354  0.7583 -0.1592  1.3783
 4757TIP3    H214278   3.222   1.172   4.295 -2.3449  0.3795 -2.3182
 4758TIP3   OH214279   0.086   5.320   3.028 -0.6000 -0.4941  0.3339
 4758TIP3    H114280   0.044   5.381   3.088  1.2614  0.3712  0.8217
 4758TIP3    H214281   0.166   5.365   3.000 -0.0479 -2.0120 -0.6514
 4759TIP3   OH214282   4.129   1.283   4.827 -0.2677 -0.2781  0.2718
 4759TIP3    H114283   4.198   1.219   4.810  1.0346  0.7310  1.4801
 4759TIP3    H214284   4.161   1.364   4.786 -1.5511 -0.1807 -0.6190
 4760TIP3   OH214285   0.030   1.765   4.611 -0.4090 -0.3123  0.1187
 4760TIP3    H114286   0.050   1.672   4.602 -0.1775 -0.2938  0.4499
 4760TIP3    H214287   0.050   1.785   4.702 -1.0616 -0.0832  0.2178
 4761TIP3   OH214288   0.952   1.795   3.118 -0.2059 -0.4107  0.1130
 4761TIP3    H114289   0.900   1.760   3.190 -0.7797 -0.8162 -0.4880
 4761TIP3    H214290   1.030   1.740   3.116 -0.2387 -0.4653  0.3544
 4762TIP3   OH214291   6.132   3.442   0.475 -0.0077 -0.0750  0.1767
 4762TIP3    H114292   6.144   3.522   0.525  0.4991  0.4498 -0.7652
 4762TIP3    H214293   6.215   3.395   0.483 -0.6527 -1.0386  1.6054
 4763TIP3   OH214294   3.875   4.865   5.014  0.2652 -0.0537  0.3255
 4763TIP3    H114295   3.930   4.843   5.089  2.7809  0.7533 -1.1846
 4763TIP3    H214296   3.904   4.806   4.945 -0.7321  0.4703 -0.5643
 4764TIP3   OH214297   4.997   3.114   4.225  0.0261 -0.3394 -0.0436
 4764TIP3    H114298   4.978   3.089   4.135  2.0105  1.9622 -1.2157
 4764TIP3    H214299   4.939   3.060   4.278  0.0525 -3.0428 -2.5668
 4765TIP3   OH214300   1.262   3.942   2.844 -0.3265 -0.1881  0.6851
 4765TIP3    H114301   1.257   4.031   2.811  0.4261 -0.6840 -0.8506
 4765TIP3    H214302   1.185   3.898   2.807  0.6108 -0.7908 -0.6273
 4766TIP3   OH214303   5.185   4.897   0.657 -0.9595  0.1946  0.0628
 4766TIP3    H114304   5.273   4.933   0.654 -0.7640 -0.3426 -0.8147
 4766TIP3    H214305   5.190   4.825   0.721  0.0579 -1.9059 -2.2336
 4767TIP3   OH214306   5.009   0.351   1.900 -0.3067  0.1943  0.0818
 4767TIP3    H114307   4.924   0.333   1.860 -0.0753 -0.7578 -0.0048
 4767TIP3    H214308   4.990   0.354   1.994 -0.6582  1.3448 -0.0066
 4768TIP3   OH214309   3.024   3.805   2.749  0.0158  0.2188  0.0895
 4768TIP3    H114310   2.986   3.893   2.745  1.5975  0.8995 -1.2489
 4768TIP3    H214311   2.958   3.753   2.794 -2.4153  1.3698 -1.8542
 4769TIP3   OH214312   4.253   1.441   4.642 -0.2939 -0.0462  0.0342
 4769TIP3    H114313   4.348   1.449   4.655 -0.4393 -0.1738  1.2544
 4769TIP3    H214314   4.245   1.406   4.553  0.8139 -0.2440 -0.0116
 4770TIP3   OH214315   3.166   1.890   3.401 -0.3137 -0.3277 -0.5620
 4770TIP3    H114316   3.098   1.936   3.351  0.8070  0.6808 -1.1959
 4770TIP3    H214317   3.227   1.858   3.335  2.0866  2.4528  0.1219
 4771TIP3   OH214318   1.278   1.003   0.650 -0.5619 -0.1118 -1.0201
 4771TIP3    H114319   1.299   0.969   0.563  1.7991 -0.2665 -0.4573
 4771TIP3    H214320   1.332   1.082   0.658  0.4801 -0.9529  0.8555
 4772TIP3   OH214321   5.055   1.900   1.655  0.3597  0.1651  0.0115
 4772TIP3    H114322   5.044   1.811   1.690 -0.0954  0.3245  0.2727
 4772TIP3    H214323   5.075   1.886   1.562 -2.1563 -0.1584 -0.5485
 4773TIP3   OH214324   3.923   5.398   2.064  0.0458  0.0453  0.8172
 4773TIP3    H114325   3.861   5.327   2.082  1.8104 -1.6720  0.5094
 4773TIP3    H214326   4.007   5.353   2.050  0.8885  2.0458 -1.2273
 4774TIP3   OH214327   3.053   3.566   2.588  0.2135 -0.1676 -0.4463
 4774TIP3    H114328   3.076   3.625   2.517 -2.3216  1.0913 -0.3510
 4774TIP3    H214329   3.029   3.624   2.660 -0.0988 -1.3668  0.4381
 4775TIP3   OH214330   0.046   2.155   1.369 -0.2528  0.1706 -0.0253
 4775TIP3    H114331  -0.019   2.086   1.385  1.6960 -1.5751  0.8400
 4775TIP3    H214332   0.019   2.195   1.287 -2.5745 -0.2691  0.4623
 4776TIP3   OH214333   5.217   2.444   0.909  0.0856 -0.3978 -0.5113
 4776TIP3    H114334   5.216   2.416   0.818 -0.3792 -1.6840 -0.1354
 4776TIP3    H214335   5.292   2.396   0.947 -1.0954 -1.6781  0.2910
 4777TIP3   OH214336   2.081   5.096   2.159  0.1666  0.2325  0.2263
 4777TIP3    H114337   2.078   5.018   2.214  0.7603  0.2251  0.2574
 4777TIP3    H214338   2.042   5.069   2.076 -1.3712  0.4279  0.8486
 4778TIP3   OH214339   0.102   0.512   3.312 -0.1099 -0.4106  0.3166
 4778TIP3    H114340   0.189   0.470   3.315 -0.7576 -1.7796  1.6173
 4778TIP3    H214341   0.075   0.505   3.221 -1.0574 -4.8876  0.7269
 4779TIP3   OH214342   4.673   3.426   2.694  0.2046  0.0821  0.1722
 4779TIP3    H114343   4.678   3.354   2.632  0.2323  0.6031 -0.4399
 4779TIP3    H214344   4.736   3.403   2.762  0.1128 -0.5341  0.0537
 4780TIP3   OH214345   4.016   5.622   4.104 -0.4715  0.1787 -0.3180
 4780TIP3    H114346   3.964   5.688   4.150 -0.2794  0.9667 -1.2076
 4780TIP3    H214347   4.075   5.672   4.048  0.2768 -0.7384 -0.3780
 4781TIP3   OH214348   2.796   1.778   5.171 -0.1791  0.5641 -0.8987
 4781TIP3    H114349   2.745   1.710   5.215 -1.3774  1.5504 -0.7001
 4781TIP3    H214350   2.749   1.794   5.089 -0.3737  1.7047 -0.5758
 4782TIP3   OH214351   5.750   1.315   0.172  0.2169  0.2970  0.3445
 4782TIP3    H114352   5.748   1.391   0.230 -3.2578  0.6806 -0.0737
 4782TIP3    H214353   5.798   1.248   0.222 -1.4702  1.0268  3.1462
 4783TIP3   OH214354   1.739   5.155   2.277  0.2804 -0.1558  0.1294
 4783TIP3    H114355   1.703   5.089   2.218  1.3187 -1.4094  0.8505
 4783TIP3    H214356   1.749   5.233   2.222  2.0077 -1.5095 -1.6231
 4784TIP3   OH214357   3.221   1.392   3.362  0.2652 -0.3126 -0.3616
 4784TIP3    H114358   3.126   1.396   3.370  0.2009 -0.3348 -1.0420
 4784TIP3    H214359   3.253   1.413   3.449 -0.3530  0.4257 -0.3022
 4785TIP3   OH214360   1.467   3.399   1.463 -0.1833 -0.5940 -0.2202
 4785TIP3    H114361   1.470   3.357   1.549 -0.1333  0.5515  0.3625
 4785TIP3    H214362   1.450   3.328   1.402  0.3056 -1.5107  0.6804
 4786TIP3   OH214363   1.239   4.573   1.992 -0.2310  0.3192 -0.3891
 4786TIP3    H114364   1.248   4.650   2.047 -3.2415  0.0248  0.6977
 4786TIP3    H214365   1.182   4.601   1.920  0.4754 -0.3245 -1.2214
 4787TIP3   OH214366   0.634   3.264   2.130  0.0739  0.3890  0.4683
 4787TIP3    H114367   0.705   3.319   2.098  1.7075 -0.3039  2.6881
 4787TIP3    H214368   0.633   3.189   2.070  0.3956  0.9657 -0.2748
 4788TIP3   OH214369   3.049   0.804   3.175  0.0907  0.3879  0.0392
 4788TIP3    H114370   3.106   0.734   3.208 -0.5157 -0.5006 -0.7128
 4788TIP3    H214371   3.019   0.771   3.090  1.2209  2.3655 -1.2027
 4789TIP3   OH214372   1.948   4.983   3.492  0.1149 -0.5648  0.3502
 4789TIP3    H114373   1.998   4.901   3.494  1.9055  0.3612 -1.5256
 4789TIP3    H214374   2.002   5.046   3.540 -1.9266 -0.7263  3.0429
 4790TIP3   OH214375   0.751   5.557   4.395  0.1055 -0.0939 -0.1717
 4790TIP3    H114376   0.843   5.583   4.394 -0.1140  0.7608 -1.7204
 4790TIP3    H214377   0.744   5.491   4.326 -0.4920  0.0960 -0.3011
 4791TIP3   OH214378   6.360   4.116   4.938  0.4420  0.0401  0.0370
 4791TIP3    H114379   6.339   4.096   4.847  1.7728 -2.4499  0.1715
 4791TIP3    H214380   6.286   4.082   4.988  0.0962  0.6407 -0.0662
 4792TIP3   OH214381   3.223   1.485   3.887  0.2088 -0.4382  0.5573
 4792TIP3    H114382   3.180   1.564   3.852 -1.7792 -2.0123 -0.7533
 4792TIP3    H214383   3.190   1.477   3.976  0.5110  0.2610  0.7382
 4793TIP3   OH214384   0.172   0.522   2.882 -0.0800 -0.3617  0.0822
 4793TIP3    H114385   0.215   0.538   2.798  1.8011  0.5254  1.1516
 4793TIP3    H214386   0.187   0.603   2.932 -0.9422 -0.9658  1.3642
 4794TIP3   OH214387   1.827   5.281   1.642 -0.2559 -0.5980 -0.3911
 4794TIP3    H114388   1.732   5.273   1.648 -0.3335  0.3456 -0.0842
 4794TIP3    H214389   1.850   5.239   1.559 -0.9608 -0.7154 -0.5308
 4795TIP3   OH214390   0.631   1.367   4.854  0.1052 -0.1922  0.5028
 4795TIP3    H114391   0.558   1.423   4.882 -0.0667  1.0957 -2.1872
 4795TIP3    H214392   0.641   1.386   4.761  2.8794 -1.5269  0.4375
 4796TIP3   OH214393   6.274   5.141   2.885 -0.3133  0.3170  0.2305
 4796TIP3    H114394   6.327   5.192   2.946 -0.1171  0.9606 -0.4710
 4796TIP3    H214395   6.293   5.179   2.799  1.2540 -2.0604 -0.5810
 4797TIP3   OH214396   3.631   5.698   4.297  0.0413  0.1894  0.2172
 4797TIP3    H114397   3.643   5.648   4.378  1.6114 -1.6058 -1.0334
 4797TIP3    H214398   3.715   5.742   4.283  0.6280 -1.3655 -1.5484
 4798TIP3   OH214399   3.597   5.964   3.339  0.4067 -0.5580  0.3511
 4798TIP3    H114400   3.688   5.988   3.321  1.1950 -3.4029  0.1920
 4798TIP3    H214401   3.585   5.984   3.432  1.5007 -1.0431  0.6103
 4799TIP3   OH214402   2.611   5.388   0.165  0.6129 -0.5057  0.0035
 4799TIP3    H114403   2.649   5.475   0.149 -1.2496  0.1817 -0.9457
 4799TIP3    H214404   2.579   5.392   0.255  0.7885 -0.3077  0.0579
 4800TIP3   OH214405   2.905   1.013   0.186  0.2583  0.1571  0.4302
 4800TIP3    H114406   2.883   0.961   0.108  0.6471  0.5606  0.0497
 4800TIP3    H214407   2.986   1.057   0.164  0.0868  0.7026  0.8664
 4801TIP3   OH214408   4.949   5.964   4.290 -0.2303  0.0289 -0.3039
 4801TIP3    H114409   5.035   5.973   4.250  0.1921  0.6946  0.7190
 4801TIP3    H214410   4.889   5.953   4.215  0.5944  0.6508 -1.0816
 4802TIP3   OH214411   5.603   5.685   4.440 -0.0522  0.2015 -0.1276
 4802TIP3    H114412   5.584   5.598   4.407  0.9817 -0.0847 -0.0138
 4802TIP3    H214413   5.518   5.727   4.449 -0.5378 -0.6904 -0.4699
 4803TIP3   OH214414   4.758   3.224   2.489 -0.0824  0.3899  0.2213
 4803TIP3    H114415   4.726   3.138   2.518  1.7188 -0.5729 -0.4385
 4803TIP3    H214416   4.774   3.212   2.395 -0.8493  1.8173 -0.1174
 4804TIP3   OH214417   1.422   3.603   1.660  0.2311 -0.2182  0.9782
 4804TIP3    H114418   1.447   3.545   1.588 -0.6324 -0.7951  1.1244
 4804TIP3    H214419   1.425   3.547   1.737  0.6665  0.2744  1.3247
 4805TIP3   OH214420   5.453   0.481   3.838 -0.8502  0.5694 -0.3945
 4805TIP3    H114421   5.421   0.404   3.790 -0.6111  1.7811 -2.5982
 4805TIP3    H214422   5.383   0.501   3.900 -1.9277 -0.0895 -1.3571
 4806TIP3   OH214423   1.054   1.235   3.967  0.0972  0.5436 -0.9757
 4806TIP3    H114424   1.073   1.141   3.977 -0.2851  0.4082 -1.4892
 4806TIP3    H214425   1.041   1.247   3.873 -1.8962  0.6997 -0.7257
 4807TIP3   OH214426   5.449   3.215   3.899 -0.1309 -0.1693  0.7338
 4807TIP3    H114427   5.438   3.240   3.990 -1.5229 -0.0659  0.5549
 4807TIP3    H214428   5.457   3.298   3.852  2.9180 -0.2282  0.9746
 4808TIP3   OH214429   4.590   0.008   0.382  0.3597 -0.0392 -0.2410
 4808TIP3    H114430   4.524   0.073   0.358  0.6578  0.3568 -0.0089
 4808TIP3    H214431   4.545  -0.052   0.441  0.1048  0.0066 -0.3889
 4809TIP3   OH214432   1.406   1.146   2.614 -0.6976 -0.1551 -0.2500
 4809TIP3    H114433   1.428   1.084   2.684 -1.9709  0.2750  0.5693
 4809TIP3    H214434   1.341   1.204   2.653 -1.9753 -0.3257 -2.0159
 4810TIP3   OH214435   0.661   2.624   3.091 -0.2842 -0.1559 -0.2277
 4810TIP3    H114436   0.574   2.659   3.109 -0.1483  0.2168 -0.2802
 4810TIP3    H214437   0.645   2.537   3.056 -0.6478 -0.0082 -0.4355
 4811TIP3   OH214438   3.139   2.237   2.979 -0.0745 -0.1645 -0.0897
 4811TIP3    H114439   3.081   2.303   3.017 -1.0281 -1.0397  0.0308
 4811TIP3    H214440   3.199   2.214   3.051 -2.3885 -2.4078  1.2976
 4812TIP3   OH214441   5.072   4.625   2.769  0.1829  0.4681  0.0656
 4812TIP3    H114442   5.093   4.536   2.740 -1.4037  0.2490 -0.5329
 4812TIP3    H214443   5.105   4.681   2.699 -0.1110  0.2297 -0.2695
 4813TIP3   OH214444   4.858   5.608   0.572  0.0670  0.1619 -0.5431
 4813TIP3    H114445   4.951   5.605   0.552 -0.1434 -1.7816 -1.4181
 4813TIP3    H214446   4.853   5.594   0.666  0.6122 -1.8311 -0.7628
 4814TIP3   OH214447   2.535   2.314   2.057 -0.6949  0.4827 -0.2045
 4814TIP3    H114448   2.549   2.279   2.145 -0.3391 -0.2632 -0.5537
 4814TIP3    H214449   2.595   2.388   2.051  0.3697 -0.3776 -0.3435
 4815TIP3   OH214450   4.839   4.287   2.568  0.2324  0.1038  0.2632
 4815TIP3    H114451   4.838   4.361   2.507 -0.5898 -1.0783 -1.2344
 4815TIP3    H214452   4.922   4.242   2.550  0.8729  0.7879  1.3826
 4816TIP3   OH214453   3.294   0.338   4.630  0.3016 -0.5137  0.5420
 4816TIP3    H114454   3.365   0.394   4.598  0.8930 -1.5907 -0.0916
 4816TIP3    H214455   3.247   0.393   4.693 -1.7827  2.2387 -3.0212
 4817TIP3   OH214456   2.414   1.354   2.990 -0.2314 -0.6242  0.3304
 4817TIP3    H114457   2.433   1.308   3.071 -1.8825 -2.4758 -0.2622
 4817TIP3    H214458   2.320   1.343   2.977 -0.2960  1.0271 -1.0232
 4818TIP3   OH214459   4.927   4.369   4.806  0.3329  0.0956  0.0283
 4818TIP3    H114460   4.996   4.343   4.867  1.6880  2.3137 -0.4605
 4818TIP3    H214461   4.969   4.432   4.748 -1.7950  0.5264 -1.1262
 4819TIP3   OH214462   3.505   0.709   0.311  0.1101  0.4790  0.6520
 4819TIP3    H114463   3.581   0.687   0.365 -0.1388  0.2023  0.8949
 4819TIP3    H214464   3.542   0.742   0.229  0.4922  0.6460  0.8875
 4820TIP3   OH214465   2.176   2.462   3.330 -0.6320  0.1349  0.4801
 4820TIP3    H114466   2.232   2.536   3.304  1.0059 -1.3969 -0.6081
 4820TIP3    H214467   2.231   2.412   3.391 -1.6749 -0.2422  1.1228
 4821TIP3   OH214468   2.525   4.153   2.218  0.1758  0.3640  0.5577
 4821TIP3    H114469   2.511   4.068   2.261 -0.5002 -1.6613 -3.2447
 4821TIP3    H214470   2.439   4.180   2.188  0.8598  0.5685 -1.3373
 4822TIP3   OH214471   2.670   0.654   5.141 -0.1437  0.0158  0.0795
 4822TIP3    H114472   2.765   0.652   5.128 -0.2841 -0.2276 -0.9792
 4822TIP3    H214473   2.654   0.739   5.182  0.6245 -0.3330  1.1519
 4823TIP3   OH214474   2.896   0.553   3.850 -0.1593 -0.2122 -0.1883
 4823TIP3    H114475   2.885   0.648   3.838  0.8642 -0.2316 -1.5277
 4823TIP3    H214476   2.986   0.536   3.825 -0.5737 -1.6649 -0.8138
 4824TIP3   OH214477   4.772   0.246   0.445  0.6929  1.0899 -0.0622
 4824TIP3    H114478   4.718   0.308   0.396  0.7193 -0.4434 -2.1667
 4824TIP3    H214479   4.733   0.161   0.425  2.2596  0.1994  0.5726
 4825TIP3   OH214480   4.382   4.893   3.111 -0.5014 -0.5461 -0.1180
 4825TIP3    H114481   4.320   4.965   3.123 -1.6788 -1.8698  2.6421
 4825TIP3    H214482   4.426   4.885   3.195  0.5772 -2.1640 -0.7887
 4826TIP3   OH214483   4.771   1.173   4.771 -0.2098  0.4361 -0.4775
 4826TIP3    H114484   4.847   1.121   4.744 -0.6989 -0.2407 -0.5815
 4826TIP3    H214485   4.803   1.263   4.774  0.9868  0.0105  0.8541
 4827TIP3   OH214486   6.082   0.078   2.487 -0.1777 -0.3067  0.5969
 4827TIP3    H114487   6.108  -0.014   2.477  0.8447 -0.0653  0.8310
 4827TIP3    H214488   6.116   0.121   2.409 -0.0480 -0.0084  0.8149
 4828TIP3   OH214489   2.155   4.680   2.885  0.2582 -0.2121 -0.0216
 4828TIP3    H114490   2.066   4.700   2.915  0.6947 -0.6517  1.6566
 4828TIP3    H214491   2.192   4.624   2.953  2.3431  1.1874  0.0845
 4829TIP3   OH214492   0.728   3.665   3.955 -0.7169 -0.1721  0.1834
 4829TIP3    H114493   0.816   3.701   3.962 -0.7796 -0.2176  1.2666
 4829TIP3    H214494   0.705   3.677   3.863  1.6209 -2.9531 -0.9255
 4830TIP3   OH214495   1.003   5.162   4.365  0.3312 -0.2231  0.4006
 4830TIP3    H114496   1.071   5.115   4.317  1.0906 -0.5193  1.7056
 4830TIP3    H214497   1.050   5.231   4.411 -0.0044 -1.1973  2.3287
 4831TIP3   OH214498   2.827   1.282   3.112 -0.0330 -0.4903 -0.5495
 4831TIP3    H114499   2.860   1.193   3.101  1.1070  0.0142 -1.4072
 4831TIP3    H214500   2.781   1.300   3.030 -0.6540 -0.4270 -0.1989
 4832TIP3   OH214501   4.316   3.824   0.440 -1.2192 -0.0124  0.5795
 4832TIP3    H114502   4.343   3.734   0.423 -0.7789 -0.1600  1.9245
 4832TIP3    H214503   4.325   3.869   0.356 -0.3587 -0.9573  0.1519
 4833TIP3   OH214504   4.880   5.546   3.349 -0.2793 -0.0054 -0.0705
 4833TIP3    H114505   4.949   5.503   3.300 -0.5790 -0.1660 -0.3568
 4833TIP3    H214506   4.800   5.524   3.302 -0.4722  0.5838 -0.0269
 4834TIP3   OH214507   5.852   2.269   1.894  0.9512 -0.1113  0.3746
 4834TIP3    H114508   5.842   2.303   1.805  0.9670  0.6134  0.6411
 4834TIP3    H214509   5.889   2.181   1.882 -0.4525 -0.6180 -0.3836
 4835TIP3   OH214510   3.977   5.115   4.957 -0.2874 -0.1471 -0.2085
 4835TIP3    H114511   3.953   5.137   4.867 -0.5553 -0.0583 -0.1149
 4835TIP3    H214512   3.944   5.027   4.970 -3.5344  1.0737  0.9708
 4836TIP3   OH214513   1.890   4.161   4.888 -0.1851  0.3206 -0.8084
 4836TIP3    H114514   1.797   4.175   4.902 -0.1050  2.6953 -2.0677
 4836TIP3    H214515   1.923   4.129   4.971 -2.0336 -0.0229 -0.1741
 4837TIP3   OH214516   3.795   3.240   2.432 -0.1755  0.1746 -0.3119
 4837TIP3    H114517   3.759   3.315   2.384  1.3395  1.3195  0.2245
 4837TIP3    H214518   3.867   3.209   2.377  0.2360  0.1732  0.2182
 4838TIP3   OH214519   3.430   1.518   1.328  0.4721  0.0187 -0.0508
 4838TIP3    H114520   3.406   1.605   1.359  1.0629  0.3765 -0.5760
 4838TIP3    H214521   3.384   1.458   1.387 -2.4037  0.6285 -1.4913
 4839TIP3   OH214522   2.635   2.522   2.215  0.0628  0.0778  0.3831
 4839TIP3    H114523   2.626   2.499   2.307  0.7414 -0.3102  0.3579
 4839TIP3    H214524   2.633   2.618   2.214  2.2639  0.1949  1.0752
 4840TIP3   OH214525   0.826   4.353   3.185  0.8456 -0.3101  0.7858
 4840TIP3    H114526   0.890   4.378   3.118  0.9799  0.3353  1.1440
 4840TIP3    H214527   0.742   4.379   3.148  0.9624  0.4838  1.0494
 4841TIP3   OH214528   5.607   5.375   0.677  0.0265  0.0531 -0.5449
 4841TIP3    H114529   5.529   5.350   0.628  0.3884 -1.8764 -0.2570
 4841TIP3    H214530   5.597   5.330   0.761  1.3777 -0.1532 -0.4727
 4842TIP3   OH214531   3.983   4.269   0.317 -0.0501  0.7418 -0.4913
 4842TIP3    H114532   3.948   4.188   0.280  0.5434  0.0202  0.4648
 4842TIP3    H214533   3.972   4.334   0.248 -0.6551 -0.1219 -1.2331
 4843TIP3   OH214534   4.092   5.717   0.858  0.1444 -0.1918 -0.0336
 4843TIP3    H114535   4.062   5.738   0.947 -1.0443  1.3863 -0.7653
 4843TIP3    H214536   4.187   5.725   0.863  0.0065  1.3595  0.7632
 4844TIP3   OH214537   3.659   0.061   0.056 -0.1854 -0.1156 -0.0539
 4844TIP3    H114538   3.681   0.123  -0.014  0.4666  0.0555  0.3027
 4844TIP3    H214539   3.742   0.042   0.099 -0.6315  0.0259  0.8900
 4845TIP3   OH214540   1.856   0.316   2.111  0.1274 -0.2467  0.1219
 4845TIP3    H114541   1.820   0.248   2.054 -0.4437  0.4301 -0.3460
 4845TIP3    H214542   1.779   0.356   2.152  0.5210 -0.7083  1.3860
 4846TIP3   OH214543   2.963   0.708   1.394 -0.6165 -0.1208  0.1827
 4846TIP3    H114544   2.883   0.661   1.370 -0.3418 -0.4763 -0.0553
 4846TIP3    H214545   3.030   0.670   1.338 -0.4393  0.7532 -0.2206
 4847TIP3   OH214546   2.891   5.359   3.326  0.0395 -0.7909  0.2917
 4847TIP3    H114547   2.871   5.281   3.378 -0.6193 -0.0802  1.1316
 4847TIP3    H214548   2.849   5.342   3.241 -0.5987 -1.1065  0.6607
 4848TIP3   OH214549   3.240   1.864   0.574 -0.2433 -0.0013 -0.1779
 4848TIP3    H114550   3.227   1.804   0.501  0.8007  1.3654 -1.5442
 4848TIP3    H214551   3.335   1.876   0.578 -0.2049 -0.5800  1.8869
 4849TIP3   OH214552   4.691   5.578   5.111 -0.1524  0.4309 -0.6312
 4849TIP3    H114553   4.665   5.543   5.025  0.0624  0.8767 -0.8852
 4849TIP3    H214554   4.770   5.529   5.133 -1.7434 -1.6901  0.6485
 4850TIP3   OH214555   5.890   4.967   2.612 -0.3369 -0.2296 -0.3077
 4850TIP3    H114556   5.824   5.007   2.668  0.0074 -1.0147  0.7039
 4850TIP3    H214557   5.934   4.903   2.669  1.0324 -0.0000 -1.0517
 4851TIP3   OH214558   2.737   5.090   3.338  0.6002  0.0618  0.5134
 4851TIP3    H114559   2.825   5.069   3.368  0.4843 -1.0033  0.1562
 4851TIP3    H214560   2.686   5.011   3.355  0.2343 -0.1354 -1.2657
 4852TIP3   OH214561   2.152   3.881   2.304  0.0857 -0.1552 -0.1507
 4852TIP3    H114562   2.111   3.959   2.265  2.8947  1.0179 -0.9769
 4852TIP3    H214563   2.119   3.880   2.394  1.0729  2.9505  0.3818
 4853TIP3   OH214564   0.202   1.320   4.029 -0.3910 -0.3631  0.4121
 4853TIP3    H114565   0.165   1.356   3.949  0.8984  1.3862  0.5476
 4853TIP3    H214566   0.215   1.396   4.086 -1.9234 -1.6264  2.5963
 4854TIP3   OH214567   0.802   3.015   0.742 -0.1843  0.7400  0.1124
 4854TIP3    H114568   0.798   3.034   0.649 -0.0106  0.8437  0.1248
 4854TIP3    H214569   0.780   2.922   0.750 -1.5337  1.0423  0.0936
 4855TIP3   OH214570   3.890   3.412   2.657  0.0370 -0.5294 -0.1767
 4855TIP3    H114571   3.851   3.361   2.585 -0.4382  0.7700 -0.8651
 4855TIP3    H214572   3.932   3.486   2.614 -1.0642  0.7942  0.9179
 4856TIP3   OH214573   6.184   0.159   2.258  1.2789 -0.3235 -0.5550
 4856TIP3    H114574   6.106   0.160   2.203  1.8004 -0.7878 -1.3411
 4856TIP3    H214575   6.255   0.138   2.197  2.1384  0.8992 -0.0063
 4857TIP3   OH214576   2.161   0.070   1.514  0.1075  0.3037  0.4649
 4857TIP3    H114577   2.205   0.111   1.588 -0.6857  2.4714 -0.1826
 4857TIP3    H214578   2.227   0.071   1.444  0.1715  0.2589  0.5244
 4858TIP3   OH214579   1.615   4.904   0.530  0.0362 -0.1058  0.0424
 4858TIP3    H114580   1.660   4.931   0.610 -0.3600  0.4299  0.0893
 4858TIP3    H214581   1.682   4.860   0.478  0.5661  0.4887  0.2090
 4859TIP3   OH214582   2.164   4.427   0.877  0.2262 -0.1799 -0.4074
 4859TIP3    H114583   2.103   4.423   0.951  1.2710 -0.9780  0.4369
 4859TIP3    H214584   2.237   4.479   0.909  1.0289 -1.1563 -0.5976
 4860TIP3   OH214585   3.162   2.195   3.895 -0.7567 -0.0515 -0.1338
 4860TIP3    H114586   3.138   2.268   3.953 -1.3648 -0.2487 -0.1333
 4860TIP3    H214587   3.252   2.214   3.869 -0.4363 -0.0097  0.9643
 4861TIP3   OH214588   2.127   0.492   3.261 -0.1185  0.1765  0.1945
 4861TIP3    H114589   2.156   0.502   3.352 -0.0630 -1.5696  0.4092
 4861TIP3    H214590   2.146   0.401   3.240 -2.9625 -0.3549 -0.5349
 4862TIP3   OH214591   6.003   0.674   2.315 -0.2740 -0.0084  0.8163
 4862TIP3    H114592   6.046   0.646   2.395 -1.0209 -0.6674  0.9978
 4862TIP3    H214593   6.065   0.654   2.245  0.0917 -0.0695  1.1596
 4863TIP3   OH214594   5.544   4.617   2.168  0.3600 -0.7743 -0.1160
 4863TIP3    H114595   5.630   4.575   2.157  0.6892 -0.1834  0.1498
 4863TIP3    H214596   5.541   4.683   2.099 -0.4173 -1.6341 -0.9291
 4864TIP3   OH214597   2.644   0.026   2.411 -0.0132  0.1457 -0.1622
 4864TIP3    H114598   2.709   0.047   2.478  0.3449  0.8307 -0.7068
 4864TIP3    H214599   2.589   0.104   2.406 -0.1129  0.0526 -0.5698
 4865TIP3   OH214600   2.003   3.194   0.517 -0.3853 -0.6067 -1.6112
 4865TIP3    H114601   1.908   3.186   0.527 -0.3924 -2.5715 -2.6969
 4865TIP3    H214602   2.016   3.281   0.480 -1.4951  0.7824  1.0344
 4866TIP3   OH214603   2.897   0.747   3.443  0.0080 -0.1289 -0.5144
 4866TIP3    H114604   2.835   0.679   3.468  0.1577 -0.3218 -0.6609
 4866TIP3    H214605   2.982   0.702   3.438 -0.1601 -0.3223 -2.2769
 4867TIP3   OH214606   2.972   3.998   5.066 -0.5558 -0.5403  0.3418
 4867TIP3    H114607   3.007   4.071   5.014  0.2387  0.7623  2.5842
 4867TIP3    H214608   2.902   3.962   5.011  0.2064  0.7588 -1.5957
 4868TIP3   OH214609   1.391   0.835   0.441 -0.5629 -0.0598  0.0791
 4868TIP3    H114610   1.382   0.740   0.455  0.0402 -0.1880 -0.3330
 4868TIP3    H214611   1.323   0.856   0.377 -0.2004 -0.3760 -0.4292
 4869TIP3   OH214612   0.793   1.067   4.807  0.3652  0.3954  0.4614
 4869TIP3    H114613   0.715   1.031   4.765 -0.1596  1.0657  0.8384
 4869TIP3    H214614   0.847   0.990   4.826 -0.2328 -0.0865  0.2638
 4870TIP3   OH214615   1.502   4.515   3.466 -0.0092  0.3979 -0.2584
 4870TIP3    H114616   1.580   4.558   3.433  0.5891 -0.3217  0.1963
 4870TIP3    H214617   1.534   4.440   3.515 -1.0432 -1.1404 -1.8215
 4871TIP3   OH214618   5.000   2.725   3.059  0.1726  0.6583  0.5067
 4871TIP3    H114619   4.941   2.757   2.990 -1.1477  0.3037  1.4299
 4871TIP3    H214620   4.955   2.746   3.141  1.3970  0.4760  1.2587
 4872TIP3   OH214621   6.035   0.065   3.809 -0.0956  0.1244  0.3563
 4872TIP3    H114622   6.094  -0.009   3.797 -0.5203 -0.2170  0.3113
 4872TIP3    H214623   6.071   0.113   3.884 -0.1931 -0.5176  0.8267
 4873TIP3   OH214624   1.101   0.763   0.410  0.2360  0.5349 -0.5959
 4873TIP3    H114625   1.061   0.847   0.387 -1.9765  0.2295  1.6515
 4873TIP3    H214626   1.076   0.704   0.340  2.2698  1.7728 -2.4894
 4874TIP3   OH214627   0.892   2.857   2.567  0.0244  0.5275  0.4790
 4874TIP3    H114628   0.957   2.918   2.531 -1.4487  2.0492  0.2585
 4874TIP3    H214629   0.859   2.810   2.490  0.6600 -0.0813  0.5634
 4875TIP3   OH214630   1.918   1.448   5.030 -0.7055  0.3548 -0.2292
 4875TIP3    H114631   2.013   1.447   5.044 -0.7144  1.4668  0.0041
 4875TIP3    H214632   1.904   1.388   4.958  0.1967  0.2756 -0.3527
 4876TIP3   OH214633   5.040   3.193   2.679  0.3314 -0.2977  0.3920
 4876TIP3    H114634   5.064   3.272   2.631  0.4748 -0.6334 -0.0978
 4876TIP3    H214635   5.033   3.125   2.612  1.0032 -0.8901  0.8947
 4877TIP3   OH214636   3.588   5.772   0.383 -0.4612  0.4170 -0.3496
 4877TIP3    H114637   3.559   5.799   0.471 -1.6842 -0.7917 -0.3642
 4877TIP3    H214638   3.614   5.681   0.394 -1.1746  0.0870 -1.3756
 4878TIP3   OH214639   4.690   5.960   1.793  0.2084  0.3307 -0.4998
 4878TIP3    H114640   4.705   6.041   1.842  2.1088 -0.6799  0.7104
 4878TIP3    H214641   4.778   5.929   1.771 -0.4362 -1.7683 -0.3083
 4879TIP3   OH214642   5.685   3.495   0.957  0.0984  0.0206 -0.5177
 4879TIP3    H114643   5.772   3.467   0.985 -0.3802 -0.7505  0.2363
 4879TIP3    H214644   5.674   3.582   0.995  0.2972 -0.1351 -0.1065
 4880TIP3   OH214645   4.523   4.607   5.111  0.0340 -0.1886  0.0597
 4880TIP3    H114646   4.577   4.574   5.040 -0.1317 -0.0304 -0.1443
 4880TIP3    H214647   4.434   4.579   5.088 -0.4399  2.0328 -1.1615
 4881TIP3   OH214648   2.806   0.265   5.101  0.4302 -0.4614 -0.3184
 4881TIP3    H114649   2.891   0.226   5.081  0.5778 -0.0426 -0.5106
 4881TIP3    H214650   2.826   0.354   5.131  0.0855 -0.4757 -0.0418
 4882TIP3   OH214651   0.587   1.466   3.222 -0.3004  0.1755  0.1630
 4882TIP3    H114652   0.525   1.523   3.268 -0.9518 -1.5726  1.5853
 4882TIP3    H214653   0.618   1.518   3.149 -3.6527  1.1264 -0.7830
 4883TIP3   OH214654   0.417   4.477   4.838 -0.4766 -0.2126  0.3510
 4883TIP3    H114655   0.474   4.409   4.802 -0.3925  1.0888 -2.2166
 4883TIP3    H214656   0.471   4.556   4.840 -1.2677  0.3413  0.9764
 4884TIP3   OH214657   0.328   4.062   3.153  0.1391  0.4038  0.0458
 4884TIP3    H114658   0.282   3.998   3.208  2.0122 -1.4180 -0.3700
 4884TIP3    H214659   0.292   4.147   3.179 -1.7051 -0.7081  1.3782
 4885TIP3   OH214660   0.251   0.299   3.049 -0.1580  0.2814  0.1416
 4885TIP3    H114661   0.282   0.340   3.130  0.7112 -1.3467  0.6699
 4885TIP3    H214662   0.237   0.373   2.989  0.1539  1.4359  1.4288
 4886TIP3   OH214663   4.560   2.549   2.588 -0.4365 -0.1335  0.3709
 4886TIP3    H114664   4.526   2.465   2.618 -1.2433  0.7320  2.0280
 4886TIP3    H214665   4.616   2.579   2.660 -1.0834  1.2504  0.3220
 4887TIP3   OH214666   3.218   3.488   4.771 -0.6922  0.0633  0.1914
 4887TIP3    H114667   3.267   3.493   4.852  0.7355 -1.9788 -0.4696
 4887TIP3    H214668   3.283   3.502   4.702 -1.4108 -0.5946 -0.6493
 4888TIP3   OH214669   6.184   3.179   4.114  0.4010 -0.4233 -0.1214
 4888TIP3    H114670   6.138   3.262   4.106 -0.0747 -0.3339  2.7013
 4888TIP3    H214671   6.272   3.203   4.143  0.6444 -0.8485 -0.4890
 4889TIP3   OH214672   3.455   0.378   2.019  0.2774  0.2732  0.5337
 4889TIP3    H114673   3.491   0.457   1.978 -0.5060  0.7609  0.7633
 4889TIP3    H214674   3.369   0.405   2.052  0.3150 -0.4698  1.2887
 4890TIP3   OH214675   3.121   0.387   1.520  0.1120  0.3662 -0.3604
 4890TIP3    H114676   3.091   0.319   1.459 -1.8170 -0.2748  1.1920
 4890TIP3    H214677   3.211   0.362   1.542  0.0307 -0.6934 -1.1522
 4891TIP3   OH214678   3.261   4.943   2.505  0.5060  0.2720 -0.1660
 4891TIP3    H114679   3.266   4.996   2.426 -1.2641 -0.0567 -0.5384
 4891TIP3    H214680   3.251   4.853   2.474  1.6784 -0.1098  0.4600
 4892TIP3   OH214681   4.591   1.538   3.988 -0.0718  0.1227 -0.1521
 4892TIP3    H114682   4.566   1.617   4.035 -2.7956 -1.6386  1.6291
 4892TIP3    H214683   4.553   1.549   3.901 -2.0006  0.0977  0.6363
 4893TIP3   OH214684   5.257   4.052   0.930  0.6456  0.4249 -0.4507
 4893TIP3    H114685   5.238   4.041   1.023 -0.6495 -1.2237 -0.8589
 4893TIP3    H214686   5.235   4.143   0.911  0.2814  0.5920  0.7234
 4894TIP3   OH214687   1.488   3.752   4.031 -0.3240  0.5013  0.3778
 4894TIP3    H114688   1.462   3.709   4.113  0.1865 -0.6843 -0.0584
 4894TIP3    H214689   1.495   3.845   4.054  0.3639  0.1201  1.8209
 4895TIP3   OH214690   6.208   0.794   1.591  0.0870 -0.0783  0.2771
 4895TIP3    H114691   6.235   0.704   1.570 -0.6956 -0.5978  1.3592
 4895TIP3    H214692   6.113   0.788   1.602 -0.4124  1.4646 -2.3905
 4896TIP3   OH214693   0.628   2.469   0.754 -0.2777 -0.3163  0.2672
 4896TIP3    H114694   0.659   2.441   0.840  1.8802 -0.6288 -0.5328
 4896TIP3    H214695   0.533   2.474   0.763 -0.1003  0.0316  2.7519
 4897TIP3   OH214696   6.363   0.781   1.991 -0.0585 -0.0279  0.2321
 4897TIP3    H114697   6.296   0.730   2.037 -0.5355 -0.4300 -0.8552
 4897TIP3    H214698   6.391   0.847   2.053 -0.8655 -0.3898  0.9958
 4898TIP3   OH214699   0.496   2.991   1.025 -0.1756 -0.3135  0.1806
 4898TIP3    H114700   0.459   2.979   0.938 -1.3132 -1.4825  0.7926
 4898TIP3    H214701   0.531   2.905   1.048 -0.4500 -0.1879  1.1244
 4899TIP3   OH214702   4.441   2.080   2.140 -0.0812 -0.0649  0.2914
 4899TIP3    H114703   4.463   2.054   2.230 -0.3461 -0.0200  0.3685
 4899TIP3    H214704   4.464   2.004   2.087  0.8427  0.1932  0.2917
 4900TIP3   OH214705   6.088   1.981   0.396 -0.1274 -0.1127 -0.1958
 4900TIP3    H114706   6.068   1.893   0.365  1.7490 -0.1041 -1.6417
 4900TIP3    H214707   6.039   2.039   0.338 -0.3127 -0.1654 -0.0943
 4901TIP3   OH214708   3.493   3.078   1.756 -0.8027 -1.2577  0.1054
 4901TIP3    H114709   3.495   3.083   1.661  0.1191 -0.5503  0.1535
 4901TIP3    H214710   3.575   3.117   1.784 -1.0405 -1.5076  1.1954
 4902TIP3   OH214711   0.091   1.398   1.175 -0.2271  0.3767  0.1089
 4902TIP3    H114712   0.065   1.451   1.250 -2.6118  0.2104 -0.5169
 4902TIP3    H214713   0.187   1.394   1.181 -0.2808  0.8747  2.7574
 4903TIP3   OH214714   2.739   2.607   2.683  0.3466 -0.4826  0.4189
 4903TIP3    H114715   2.706   2.624   2.771  0.5572 -0.6795  0.5376
 4903TIP3    H214716   2.712   2.683   2.631 -1.5821 -1.2978  0.1488
 4904TIP3   OH214717   0.897   1.425   0.223  0.4705 -0.5113  0.1730
 4904TIP3    H114718   0.983   1.415   0.262  0.7071 -1.1569 -0.4913
 4904TIP3    H214719   0.873   1.337   0.194 -1.3768 -0.8058  2.2880
 4905TIP3   OH214720   2.214   4.340   0.150  0.2151 -0.0109 -0.0009
 4905TIP3    H114721   2.176   4.270   0.098  0.3634 -0.3326  0.3221
 4905TIP3    H214722   2.140   4.397   0.172  0.0960 -0.0651 -0.2594
 4906TIP3   OH214723   2.711   5.893   0.281  0.3619  0.2242  0.0349
 4906TIP3    H114724   2.713   5.818   0.340 -0.8214 -0.7866 -1.1471
 4906TIP3    H214725   2.631   5.940   0.304 -0.0226 -0.0864 -0.6597
 4907TIP3   OH214726   5.939   0.406   4.178 -0.6087  0.2764 -0.1244
 4907TIP3    H114727   5.849   0.385   4.202  0.1269 -1.3753  1.4897
 4907TIP3    H214728   5.987   0.325   4.193  1.3677  1.4553  0.2987
 4908TIP3   OH214729   0.461   3.409   2.306  0.1001 -0.2148  0.1949
 4908TIP3    H114730   0.519   3.445   2.373  0.4867  1.7744 -1.1134
 4908TIP3    H214731   0.508   3.332   2.273  0.2870 -0.7243  1.6031
 4909TIP3   OH214732   0.280   0.632   3.766  0.0310  0.2771 -0.0665
 4909TIP3    H114733   0.184   0.625   3.768 -0.0185  0.8724  1.7788
 4909TIP3    H214734   0.301   0.692   3.838  1.8757 -0.8763  0.4315
 4910TIP3   OH214735   1.906   5.574   1.995  0.0174 -0.3408 -0.5817
 4910TIP3    H114736   1.865   5.562   1.909 -0.9421 -4.0318  0.2091
 4910TIP3    H214737   1.951   5.491   2.011  0.7000  0.4849  2.2389
 4911TIP3   OH214738   1.679   1.305   4.787  0.3846  0.8869 -0.2520
 4911TIP3    H114739   1.585   1.316   4.800  0.2291  0.5958 -1.0646
 4911TIP3    H214740   1.706   1.381   4.735  0.8577  1.6585  1.0770
 4912TIP3   OH214741   2.051   0.968   3.224 -0.1171 -0.0051  0.1146
 4912TIP3    H114742   2.035   1.036   3.158 -0.0128  0.9921  1.0904
 4912TIP3    H214743   2.014   1.004   3.305  0.5541 -0.8171  0.8005
 4913TIP3   OH214744   1.444   0.410   3.750 -0.1936  0.2002 -0.0980
 4913TIP3    H114745   1.459   0.498   3.785 -1.6520  0.8837 -1.0966
 4913TIP3    H214746   1.511   0.400   3.682  0.5049  0.1832  0.5715
 4914TIP3   OH214747   1.824   1.085   2.908  0.3394 -0.4508 -0.5008
 4914TIP3    H114748   1.857   1.116   2.824  0.3322 -1.9534 -1.0943
 4914TIP3    H214749   1.900   1.046   2.951  1.1505  3.0676  1.6668
 4915TIP3   OH214750   1.038   3.682   2.401 -0.2072 -0.2883 -0.2482
 4915TIP3    H114751   0.998   3.760   2.439 -0.1093  0.0640 -0.8575
 4915TIP3    H214752   0.973   3.651   2.338 -0.0390 -0.4199 -0.3577
 4916TIP3   OH214753   5.021   4.544   0.858  0.4062  0.3874  0.3876
 4916TIP3    H114754   4.955   4.610   0.877 -1.0624 -1.3461  1.6269
 4916TIP3    H214755   4.981   4.486   0.794  1.3731  0.2410 -0.1084
 4917TIP3   OH214756   2.685   3.111   1.462 -0.1954  0.4014 -0.1077
 4917TIP3    H114757   2.741   3.128   1.537 -1.1928  1.7771  0.3698
 4917TIP3    H214758   2.698   3.187   1.404 -1.8536  0.9931  0.2308
 4918TIP3   OH214759   2.714   3.354   2.116  0.0802 -0.1348 -0.3278
 4918TIP3    H114760   2.636   3.404   2.138  0.4395 -0.2114  1.2472
 4918TIP3    H214761   2.786   3.403   2.156  0.5166 -1.5107  0.6373
 4919TIP3   OH214762   0.360   0.965   1.271 -0.1316 -0.0569  0.3798
 4919TIP3    H114763   0.443   1.005   1.244 -0.5261  0.4609 -0.0756
 4919TIP3    H214764   0.349   0.992   1.362  1.4083 -2.1433  1.2457
 4920TIP3   OH214765   0.934   2.724   1.961  0.4002 -0.0920 -0.4653
 4920TIP3    H114766   0.939   2.630   1.981 -0.6442 -0.2590 -0.9138
 4920TIP3    H214767   0.895   2.763   2.039 -1.4154 -0.3986 -1.1714
 4921TIP3   OH214768   2.523   1.879   0.219  0.0112 -0.1203  0.3184
 4921TIP3    H114769   2.583   1.937   0.172  0.7264 -0.4161  0.8497
 4921TIP3    H214770   2.579   1.830   0.279 -0.9836  0.9151  2.1997
 4922TIP3   OH214771   3.477   5.324   0.304 -0.7706 -0.7644 -0.3929
 4922TIP3    H114772   3.401   5.351   0.253 -0.7801 -1.0737 -0.5413
 4922TIP3    H214773   3.515   5.406   0.336 -0.0436 -0.4765 -1.8985
 4923TIP3   OH214774   0.362   4.233   4.109 -0.6706 -0.1062 -0.1378
 4923TIP3    H114775   0.438   4.275   4.071  1.7905 -1.1948  3.1380
 4923TIP3    H214776   0.317   4.302   4.157  0.1197 -0.0524  0.5454
 4924TIP3   OH214777   0.964   3.883   3.544 -0.4272  0.7225  0.2263
 4924TIP3    H114778   0.966   3.789   3.525 -4.0277  0.8285 -1.4624
 4924TIP3    H214779   0.955   3.888   3.640 -0.2161 -0.6688  0.3332
 4925TIP3   OH214780   1.857   2.077   0.875 -0.2536 -0.2966 -0.3004
 4925TIP3    H114781   1.883   2.024   0.950  0.7413 -0.1060 -0.4912
 4925TIP3    H214782   1.838   2.163   0.911 -2.2367 -0.8434  0.0631
 4926TIP3   OH214783   5.721   0.351   1.713 -0.5407  0.2353  0.3856
 4926TIP3    H114784   5.812   0.330   1.736 -0.2629 -0.3640 -1.1396
 4926TIP3    H214785   5.702   0.431   1.762  0.8972  0.5180  0.5358
 4927TIP3   OH214786   1.911   5.903   3.178 -0.5017  0.7696 -0.1448
 4927TIP3    H114787   1.999   5.932   3.155 -0.1659  1.1260  1.4350
 4927TIP3    H214788   1.856   5.980   3.166 -0.1344  1.2733  1.2126
 4928TIP3   OH214789   2.461   3.072   2.169  0.2541  0.4410  0.1596
 4928TIP3    H114790   2.456   3.095   2.076 -3.5537  0.3437  0.2044
 4928TIP3    H214791   2.383   3.111   2.208  0.7823 -1.0474  2.9928
 4929TIP3   OH214792   3.576   2.467   2.796 -0.4809 -0.1959 -0.1764
 4929TIP3    H114793   3.638   2.527   2.755 -0.3802 -0.0398  0.2012
 4929TIP3    H214794   3.562   2.399   2.730 -0.5023  0.1752 -0.5597
 4930TIP3   OH214795   3.999   3.468   4.490  0.6731 -0.3881  0.2137
 4930TIP3    H114796   4.076   3.479   4.434  1.3108 -0.5728  1.0282
 4930TIP3    H214797   3.971   3.557   4.511  2.1486 -0.2606  1.8689
 4931TIP3   OH214798   4.461   1.856   1.974  0.2574 -0.2326  0.5023
 4931TIP3    H114799   4.471   1.784   2.036  0.1972  0.7105  1.6550
 4931TIP3    H214800   4.549   1.875   1.944  0.4894  0.2610  1.4550
 4932TIP3   OH214801   3.927   0.075   0.190  0.1007 -0.1025  0.3389
 4932TIP3    H114802   3.890   0.154   0.230  0.6505  0.9943 -1.1858
 4932TIP3    H214803   3.993   0.109   0.128  0.0757 -1.7388 -0.6362
 4933TIP3   OH214804   4.612   3.844   4.957  0.4688 -0.1291  0.4126
 4933TIP3    H114805   4.584   3.752   4.952  0.5785 -0.1243 -0.4505
 4933TIP3    H214806   4.628   3.869   4.866 -1.4136  1.3513  0.4345
 4934TIP3   OH214807   2.378   1.740   1.105  0.5125 -0.3678 -0.6977
 4934TIP3    H114808   2.419   1.685   1.172  2.2168 -1.7123 -2.7365
 4934TIP3    H214809   2.337   1.811   1.155  1.2905 -1.5466  1.7877
 4935TIP3   OH214810   1.792   1.640   0.337 -0.0511 -0.0277 -0.1135
 4935TIP3    H114811   1.833   1.717   0.378  1.7782 -1.1897  0.3586
 4935TIP3    H214812   1.865   1.593   0.297 -1.4747 -0.1409 -2.8242
 4936TIP3   OH214813   4.809   0.086   1.115  0.4702 -0.4438 -0.2943
 4936TIP3    H114814   4.736   0.126   1.161  0.5777 -1.6778  1.0210
 4936TIP3    H214815   4.779  -0.003   1.096  1.4511 -0.8222 -0.1369
 4937TIP3   OH214816   4.265   2.826   3.701  0.8291 -0.0178  0.2537
 4937TIP3    H114817   4.258   2.914   3.737 -1.5589 -0.8908  2.2904
 4937TIP3    H214818   4.251   2.768   3.777  1.9556 -2.1605 -1.0649
 4938TIP3   OH214819   2.924   2.471   1.652 -0.6956  0.0273 -0.2886
 4938TIP3    H114820   2.891   2.555   1.684  0.1790 -0.1187  1.0497
 4938TIP3    H214821   2.972   2.434   1.726  1.8348 -0.1152 -1.8662
 4939TIP3   OH214822   0.177   0.204   4.245  0.0619 -0.9130 -0.1880
 4939TIP3    H114823   0.181   0.293   4.279  0.1107 -0.8893 -0.2558
 4939TIP3    H214824   0.204   0.212   4.153 -0.3310 -0.9346 -0.3069
 4940TIP3   OH214825   6.163   4.981   3.934 -0.1034 -0.1683 -0.1925
 4940TIP3    H114826   6.171   5.044   3.863  2.5240  0.0992  0.2390
 4940TIP3    H214827   6.190   5.029   4.012  1.0954 -1.5285  0.2872
 4941TIP3   OH214828   0.637   5.404   3.034  0.7001  0.0039 -0.3940
 4941TIP3    H114829   0.574   5.414   2.962 -0.3790  0.6682  0.6049
 4941TIP3    H214830   0.710   5.460   3.008 -0.3378  1.4972 -0.3018
 4942TIP3   OH214831   4.118   3.338   2.115 -0.4295 -0.2220 -0.2143
 4942TIP3    H114832   4.160   3.417   2.150 -1.7617  0.6736 -0.5480
 4942TIP3    H214833   4.101   3.284   2.192  0.3536 -0.1360  0.0352
 4943TIP3   OH214834   5.257   5.815   0.608  0.5939  0.2353 -0.8089
 4943TIP3    H114835   5.325   5.785   0.668 -1.7442  1.0743  2.6313
 4943TIP3    H214836   5.296   5.889   0.561  2.4042 -0.0596  0.1391
 4944TIP3   OH214837   1.206   1.428   4.370  0.0438  0.0031 -0.0001
 4944TIP3    H114838   1.126   1.480   4.378  0.4477  0.3853  2.1705
 4944TIP3    H214839   1.213   1.381   4.453  1.9770 -0.1480 -0.2068
 4945TIP3   OH214840   2.123   0.836   1.583  0.3189 -0.2316  0.6333
 4945TIP3    H114841   2.100   0.908   1.524  0.8932 -1.4351 -1.1283
 4945TIP3    H214842   2.118   0.757   1.529 -2.0540 -1.8262  2.9054
 4946TIP3   OH214843   5.384   2.152   4.785  0.6578  0.2777  0.1025
 4946TIP3    H114844   5.314   2.140   4.720  0.2447 -1.4804  0.7943
 4946TIP3    H214845   5.341   2.135   4.869  1.8044 -0.4403  0.5735
 4947TIP3   OH214846   1.535   5.547   4.786  0.1095  0.7704 -0.2157
 4947TIP3    H114847   1.562   5.479   4.849  1.1351  1.7680  0.4587
 4947TIP3    H214848   1.554   5.509   4.701  0.9118  0.2917  0.1627
 4948TIP3   OH214849   5.874   0.896   2.230  0.4735 -0.6795  0.2622
 4948TIP3    H114850   5.901   0.806   2.250  1.5294 -1.2430 -3.0447
 4948TIP3    H214851   5.836   0.891   2.142 -1.1502  1.8436  0.7180
 4949TIP3   OH214852   1.010   5.782   3.676 -0.1571  0.3251 -0.4071
 4949TIP3    H114853   0.974   5.861   3.634 -1.5474 -0.0234  0.0672
 4949TIP3    H214854   0.934   5.725   3.688  0.7734 -0.9494 -0.4161
 4950TIP3   OH214855   1.078   0.078   1.441  0.0522 -0.2873 -0.5722
 4950TIP3    H114856   1.030   0.035   1.371 -0.0947 -0.3856 -0.4139
 4950TIP3    H214857   1.009   0.112   1.499  0.1692 -1.1559  0.0975
 4951TIP3   OH214858   5.124   1.863   3.802  0.2674 -0.0666 -0.3295
 4951TIP3    H114859   5.119   1.870   3.707  1.4011 -0.0178 -0.3987
 4951TIP3    H214860   5.036   1.885   3.833 -0.4205 -1.2492 -1.4156
 4952TIP3   OH214861   5.286   4.336   0.807 -0.4132  0.3221 -0.0340
 4952TIP3    H114862   5.212   4.397   0.806 -0.0484  0.7655  0.1530
 4952TIP3    H214863   5.337   4.358   0.730  1.3153  2.2404  1.5441
 4953TIP3   OH214864   2.687   5.652   3.940 -0.1748 -0.0761  0.7765
 4953TIP3    H114865   2.701   5.738   3.900 -0.2383  0.4891  1.9176
 4953TIP3    H214866   2.597   5.629   3.916  0.1032 -0.1934 -0.1852
 4954TIP3   OH214867   1.440   3.160   3.425 -0.2973 -0.1308  0.3065
 4954TIP3    H114868   1.476   3.249   3.423 -0.8248  0.1350  1.4709
 4954TIP3    H214869   1.420   3.140   3.334 -0.5985  1.1365  0.0646
 4955TIP3   OH214870   0.356   0.901   5.127 -0.2560 -0.2664 -0.2330
 4955TIP3    H114871   0.325   0.820   5.168 -1.2786 -0.6208 -1.6175
 4955TIP3    H214872   0.417   0.872   5.059 -0.2766  0.1401 -0.4317
 4956TIP3   OH214873   3.809   3.987   1.020  0.2733 -0.4865 -0.3525
 4956TIP3    H114874   3.761   4.026   1.093 -5.0894 -0.6485 -3.2381
 4956TIP3    H214875   3.807   4.055   0.952  1.3928 -1.7097 -1.6674
 4957TIP3   OH214876   2.733   2.838   0.627 -0.2475 -0.0999 -0.4532
 4957TIP3    H114877   2.685   2.768   0.584  0.6224  0.2004 -1.9632
 4957TIP3    H214878   2.769   2.890   0.556  2.3278 -0.3085  0.5954
 4958TIP3   OH214879   4.300   5.486   3.055 -0.1419  0.1332  0.5418
 4958TIP3    H114880   4.238   5.445   2.995 -0.0388  0.0827  0.4686
 4958TIP3    H214881   4.247   5.545   3.108 -0.8013 -2.1478  2.5829
 4959TIP3   OH214882   3.177   0.539   3.762 -0.0767  0.1782 -0.5826
 4959TIP3    H114883   3.196   0.478   3.691  1.9048  0.0586 -0.0014
 4959TIP3    H214884   3.241   0.609   3.751  0.5238 -0.0282  1.2992
 4960TIP3   OH214885   2.270   2.982   3.931  0.3163  0.1484 -0.1326
 4960TIP3    H114886   2.195   2.989   3.873  0.8661 -0.4658 -0.9433
 4960TIP3    H214887   2.249   3.039   4.005 -1.4837 -0.9422  0.2535
 4961TIP3   OH214888   1.143   2.503   4.466 -0.1986  0.1198  0.1861
 4961TIP3    H114889   1.169   2.440   4.533 -0.3433  1.0458  1.1390
 4961TIP3    H214890   1.163   2.589   4.504  0.5947  0.6468 -1.3378
 4962TIP3   OH214891   3.641   1.647   3.840 -0.3824  0.1359 -0.2345
 4962TIP3    H114892   3.564   1.673   3.789  0.9550  2.9811 -1.0654
 4962TIP3    H214893   3.647   1.713   3.909  1.6267  0.4109 -0.5990
 4963TIP3   OH214894   2.413   3.941   2.358 -0.2237 -0.1109  0.3012
 4963TIP3    H114895   2.318   3.941   2.367 -0.4341 -2.0270 -1.1954
 4963TIP3    H214896   2.439   3.851   2.375  1.4252  0.4976  1.2347
 4964TIP3   OH214897   1.143   0.782   5.159  0.2688  0.1189 -0.1375
 4964TIP3    H114898   1.050   0.806   5.166  0.8181  2.9807 -1.2611
 4964TIP3    H214899   1.189   0.854   5.201  2.0273 -1.5095  0.8652
 4965TIP3   OH214900   3.363   4.637   2.784 -0.2147  0.2370 -0.6187
 4965TIP3    H114901   3.362   4.732   2.775 -0.8881  0.2171 -0.7993
 4965TIP3    H214902   3.454   4.616   2.807 -0.4781  1.0992  1.4499
 4966TIP3   OH214903   5.647   3.894   2.152 -0.8740  0.5465 -0.1215
 4966TIP3    H114904   5.608   3.827   2.096 -1.2384  0.8416 -0.2280
 4966TIP3    H214905   5.617   3.873   2.240  0.2869 -0.3490  0.0977
 4967TIP3   OH214906   1.589   3.245   4.159  0.3737 -0.0567 -0.4664
 4967TIP3    H114907   1.518   3.193   4.197  0.5769 -1.9903 -2.4884
 4967TIP3    H214908   1.666   3.189   4.167  0.9063  0.5058 -1.4939
 4968TIP3   OH214909   2.132   4.259   2.799 -0.2808  0.5528  0.0961
 4968TIP3    H114910   2.163   4.338   2.754 -2.1537  2.0726  1.3336
 4968TIP3    H214911   2.046   4.242   2.762 -1.2070  0.9346  1.9819
 4969TIP3   OH214912   5.823   3.744   2.379  0.2273 -0.3443 -0.1876
 4969TIP3    H114913   5.883   3.760   2.306  0.6337 -1.3208 -0.0806
 4969TIP3    H214914   5.754   3.689   2.341 -1.6931  2.2687 -0.8091
 4970TIP3   OH214915   6.290   2.016   3.310 -0.4737 -0.7376 -0.1011
 4970TIP3    H114916   6.247   2.034   3.394 -0.0696 -1.6337  0.3158
 4970TIP3    H214917   6.300   1.921   3.308  1.3787 -0.5821 -0.2159
 4971TIP3   OH214918   2.891   3.972   3.259  0.3746  0.3184  0.5929
 4971TIP3    H114919   2.833   4.024   3.315  0.4456 -0.3581  1.3104
 4971TIP3    H214920   2.966   3.952   3.315  0.2019 -0.8188  0.4270
 4972TIP3   OH214921   4.314   1.001   0.340  1.1491 -0.4275  0.0982
 4972TIP3    H114922   4.357   0.960   0.265  0.6043 -0.0739 -0.4102
 4972TIP3    H214923   4.342   1.092   0.337 -0.6677  0.1301 -1.0222
 4973TIP3   OH214924   0.159   5.669   1.057 -0.1491  0.6558 -0.3411
 4973TIP3    H114925   0.144   5.706   1.144  2.0600 -1.6096  1.1627
 4973TIP3    H214926   0.129   5.578   1.064 -0.5320  0.5932 -2.1922
 4974TIP3   OH214927   4.608   3.557   1.385 -0.3933 -0.3020 -0.3239
 4974TIP3    H114928   4.660   3.602   1.318 -2.3471  2.3483 -0.2365
 4974TIP3    H214929   4.533   3.521   1.337 -1.7391  1.5029  0.2959
 4975TIP3   OH214930   1.748   3.445   1.869  0.3947  0.0376  0.3551
 4975TIP3    H114931   1.655   3.425   1.878  0.1599  1.3223  0.9450
 4975TIP3    H214932   1.775   3.476   1.956  0.8793  1.5971 -0.3137
 4976TIP3   OH214933   3.971   0.100   3.470  0.4654  0.2261  0.3626
 4976TIP3    H114934   3.879   0.103   3.495  0.7684 -0.2409  1.6016
 4976TIP3    H214935   3.984   0.012   3.435  1.0293 -0.7336  2.7711
 4977TIP3   OH214936   1.168   1.693   4.640 -0.0083 -0.2140 -0.4516
 4977TIP3    H114937   1.116   1.627   4.594 -0.5800 -1.2067  1.5234
 4977TIP3    H214938   1.106   1.734   4.701  1.0149  0.0755  0.4218
 4978TIP3   OH214939   3.515   0.457   3.739 -0.1253  0.2188 -0.0969
 4978TIP3    H114940   3.594   0.405   3.723 -1.2995 -1.7085  0.1169
 4978TIP3    H214941   3.499   0.447   3.833  0.4672  2.2742  0.2643
 4979TIP3   OH214942   2.309   5.433   0.937 -0.5639  0.1890 -1.0062
 4979TIP3    H114943   2.294   5.340   0.921  0.3465  0.0364 -1.0196
 4979TIP3    H214944   2.351   5.436   1.023 -0.9953  0.6315 -0.8021
 4980TIP3   OH214945   5.897   2.675   0.605  0.2931 -0.2518 -0.3981
 4980TIP3    H114946   5.830   2.707   0.667  1.0866  0.2578  0.2105
 4980TIP3    H214947   5.903   2.745   0.540 -0.9423 -1.0300 -1.4051
 4981TIP3   OH214948   3.919   4.553   1.874  0.2130 -0.7600  0.1619
 4981TIP3    H114949   3.864   4.606   1.817  0.0497 -0.6180  0.4495
 4981TIP3    H214950   3.909   4.592   1.961 -1.1371 -2.1701  0.7002
 4982TIP3   OH214951   1.890   0.309   0.614 -0.2268 -0.3122  0.4226
 4982TIP3    H114952   1.822   0.261   0.566  1.0739 -1.5488 -0.2407
 4982TIP3    H214953   1.844   0.347   0.689 -1.9087  0.0049 -0.7155
 4983TIP3   OH214954   1.269   1.838   0.032  0.2826  0.0854  0.0159
 4983TIP3    H114955   1.328   1.889   0.087  0.1735  0.0537  0.1639
 4983TIP3    H214956   1.208   1.797   0.094  1.0806 -1.1647  0.0132
 4984TIP3   OH214957   0.500   3.122   3.104  0.5016 -0.3301  0.5429
 4984TIP3    H114958   0.460   3.136   3.018  0.6628 -0.8222  0.3787
 4984TIP3    H214959   0.594   3.131   3.088  0.6274 -1.6444  0.3929
 4985TIP3   OH214960   4.655   2.364   1.274 -0.4971  0.2160 -0.1209
 4985TIP3    H114961   4.572   2.410   1.286 -0.0321  0.5979  2.2055
 4985TIP3    H214962   4.707   2.388   1.351  0.5682 -2.5416  0.1487
 4986TIP3   OH214963   0.740   0.821   0.058  0.2541  0.0651  0.0703
 4986TIP3    H114964   0.767   0.908   0.031  2.3301 -0.0909  1.4282
 4986TIP3    H214965   0.802   0.762   0.016 -0.4428 -0.6854  0.0509
 4987TIP3   OH214966   3.306   2.021   1.588  0.4837  0.4213 -0.0322
 4987TIP3    H114967   3.320   2.100   1.642 -1.4370  0.7032  0.1242
 4987TIP3    H214968   3.349   1.951   1.637 -0.7544  0.7700  1.6654
 4988TIP3   OH214969   5.208   3.455   4.681 -0.3500  0.5588 -0.7933
 4988TIP3    H114970   5.143   3.500   4.627  0.3119  1.3168 -0.9742
 4988TIP3    H214971   5.250   3.524   4.732  0.7686  0.1817 -1.1671
 4989TIP3   OH214972   1.919   3.947   5.188  0.1585 -0.4752 -0.1137
 4989TIP3    H114973   1.911   4.014   5.255  0.5088 -1.7937  1.2997
 4989TIP3    H214974   1.867   3.980   5.115 -3.5047 -0.6120  2.1548
 4990TIP3   OH214975   4.424   0.554   0.167 -0.6030 -0.4335 -0.5341
 4990TIP3    H114976   4.362   0.489   0.134 -0.6941 -0.4005 -0.4314
 4990TIP3    H214977   4.479   0.507   0.229 -1.4400 -0.1541  0.4452
 4991TIP3   OH214978   6.254   4.711   3.844 -0.7363  0.5373 -0.4925
 4991TIP3    H114979   6.228   4.802   3.826 -0.5908  0.7729  0.4342
 4991TIP3    H214980   6.291   4.714   3.932 -3.3343 -0.9280  0.7366
 4992TIP3   OH214981   3.589   5.527   0.505  0.5297  0.0384 -0.6964
 4992TIP3    H114982   3.674   5.509   0.544  1.0797  0.8277 -1.5080
 4992TIP3    H214983   3.536   5.559   0.578  0.8851 -0.5250 -0.1697
 4993TIP3   OH214984   4.614   3.741   4.283 -0.3209 -0.0636 -0.0389
 4993TIP3    H114985   4.625   3.831   4.253 -0.4405  0.5617  1.6831
 4993TIP3    H214986   4.702   3.711   4.304 -0.3509 -0.1485 -0.0320
 4994TIP3   OH214987   5.965   1.097   4.874 -0.0856 -0.2662  0.1119
 4994TIP3    H114988   5.960   1.147   4.792 -1.3004 -1.9845 -0.9277
 4994TIP3    H214989   6.054   1.112   4.906  0.8177 -0.4117 -2.1325
 4995TIP3   OH214990   4.960   1.500   0.143  0.1869  0.5348  0.8331
 4995TIP3    H114991   4.910   1.465   0.070 -0.7571 -0.6407  2.0227
 4995TIP3    H214992   4.897   1.510   0.214  0.9501  2.2769  1.3324
 4996TIP3   OH214993   4.620   3.644   0.610  0.2008  0.3657 -0.5646
 4996TIP3    H114994   4.579   3.558   0.622 -0.3234  0.7660  0.7043
 4996TIP3    H214995   4.700   3.625   0.561 -0.0156 -0.8225 -0.5023
 4997TIP3   OH214996   2.011   3.323   1.658  0.6411  0.5557  0.0040
 4997TIP3    H114997   1.963   3.405   1.670 -1.6162 -0.7759  0.9117
 4997TIP3    H214998   2.077   3.324   1.728 -0.0482  1.1638  0.6752
 4998TIP3   OH214999   4.302   5.097   2.916 -0.1351 -0.1743 -0.3327
 4998TIP3    H115000   4.236   5.118   2.850  0.2621  1.0673 -0.3519
 4998TIP3    H215001   4.259   5.117   3.000  0.1583  0.4953 -0.3385
 4999TIP3   OH215002   3.313  -0.026   1.637 -0.0483 -0.2644 -0.6118
 4999TIP3    H115003   3.340   0.024   1.714 -2.1976  0.1550 -0.0493
 4999TIP3    H215004   3.352   0.021   1.563 -1.7510  2.2072 -0.0866
 5000TIP3   OH215005   0.234   2.669   3.931 -0.5402 -0.2167 -0.1562
 5000TIP3    H115006   0.168   2.709   3.873 -1.7829  0.1040  1.4087
 5000TIP3    H215007   0.251   2.583   3.892 -2.7079 -0.7506 -0.0525
 5001TIP3   OH215008   4.693   5.017   0.872  0.1346  0.4590 -0.6379
 5001TIP3    H115009   4.782   5.017   0.909  0.0381 -1.4098 -0.3252
 5001TIP3    H215010   4.636   5.023   0.948 -0.0586  2.0468 -0.8582
 5002TIP3   OH215011   3.333   4.421   4.121  0.2709 -0.7448  0.1768
 5002TIP3    H115012   3.314   4.515   4.111  2.6764 -0.1249  0.7339
 5002TIP3    H215013   3.260   4.388   4.174 -0.6151  0.8120  0.0148
 5003TIP3   OH215014   5.315   1.079   4.354  0.1039 -0.4711 -0.4594
 5003TIP3    H115015   5.276   1.151   4.306  0.3635  0.5224  0.7743
 5003TIP3    H215016   5.376   1.039   4.292  0.2299  0.6011 -1.0510
 5004TIP3   OH215017   0.101   4.677   2.986 -0.2669 -0.2100  0.6289
 5004TIP3    H115018   0.105   4.737   3.060 -1.5580  0.3116  0.3199
 5004TIP3    H215019   0.015   4.635   2.993 -1.6787  1.8842 -2.0164
 5005TIP3   OH215020   1.896   5.159   2.982  0.4154 -0.0345  0.0613
 5005TIP3    H115021   1.922   5.124   3.067  1.2035  0.4135  0.0079
 5005TIP3    H215022   1.878   5.252   2.999  4.0025  0.9646 -0.8978
 5006TIP3   OH215023   1.000   2.874   1.577  0.1025 -0.0360  0.1864
 5006TIP3    H115024   1.093   2.890   1.591 -0.0827  1.9909 -0.5369
 5006TIP3    H215025   0.972   2.945   1.519 -2.3463  0.6782  2.0599
 5007TIP3   OH215026   1.559   1.900   5.156  0.2113 -0.0501 -0.5784
 5007TIP3    H115027   1.559   1.976   5.099 -1.5376  1.8673  1.7740
 5007TIP3    H215028   1.606   1.928   5.235 -0.2661 -1.4630  0.2512
 5008TIP3   OH215029   0.584   3.040   1.805  0.1928  0.4121 -0.2623
 5008TIP3    H115030   0.567   3.073   1.716  0.0675 -0.2788 -0.4958
 5008TIP3    H215031   0.678   3.051   1.817  0.3631 -0.3651 -0.8387
 5009TIP3   OH215032   3.401   3.331   1.953 -0.9491  0.0366  0.4825
 5009TIP3    H115033   3.425   3.382   1.876  0.3383 -1.2940 -0.0576
 5009TIP3    H215034   3.482   3.284   1.976 -1.4465  0.0168  2.3405
 5010TIP3   OH215035   6.270   0.955   1.285  0.5998  0.9352  0.2159
 5010TIP3    H115036   6.267   1.027   1.222  1.0642  0.4698 -0.3479
 5010TIP3    H215037   6.262   0.876   1.232  1.6223  0.5121  0.6654
 5011TIP3   OH215038   1.839   3.566   3.401 -0.6491  0.2232  0.1986
 5011TIP3    H115039   1.831   3.471   3.386  1.8009  0.1438 -1.0929
 5011TIP3    H215040   1.927   3.578   3.435 -0.2518  2.1860 -1.3325
 5012TIP3   OH215041   3.807   0.026   2.473 -0.2499 -0.5648  0.6724
 5012TIP3    H115042   3.830  -0.020   2.554 -0.1980 -0.6203  0.6268
 5012TIP3    H215043   3.777   0.112   2.501 -0.8156 -0.7930  0.7987
 5013TIP3   OH215044   0.519   2.288   4.420  0.0654  0.2076 -0.6230
 5013TIP3    H115045   0.560   2.265   4.504 -0.1318  1.2985 -0.2113
 5013TIP3    H215046   0.466   2.365   4.440  0.9319  1.1932 -1.9941
 5014TIP3   OH215047   5.946   2.449   0.156  0.2328 -0.1786  0.4601
 5014TIP3    H115048   5.956   2.534   0.200 -2.1021 -0.1509  1.0420
 5014TIP3    H215049   5.942   2.471   0.063 -0.8827  0.4405  0.6353
 5015TIP3   OH215050   2.336   1.095   4.138 -0.1569  0.1665  0.4654
 5015TIP3    H115051   2.368   1.145   4.063  1.3323 -0.8904  0.3433
 5015TIP3    H215052   2.292   1.159   4.193  1.2212  1.5290  0.0476
 5016TIP3   OH215053   6.274   1.123   3.585  0.1774 -0.3064  0.4477
 5016TIP3    H115054   6.352   1.087   3.626  0.1360 -0.5138  0.3475
 5016TIP3    H215055   6.201   1.083   3.632  0.0947  1.5531  2.0297
 5017TIP3   OH215056   1.252   3.315   2.173  0.1339  0.6898  0.2125
 5017TIP3    H115057   1.237   3.260   2.096 -0.9239  0.0509  0.8464
 5017TIP3    H215058   1.170   3.309   2.223  1.1164  0.3286  1.8495
 5018TIP3   OH215059   3.945   1.549   4.502 -0.0570  0.0144  1.0458
 5018TIP3    H115060   3.985   1.569   4.417  0.1245  1.4551  1.4356
 5018TIP3    H215061   3.938   1.454   4.504  1.6006 -0.1620  0.1747
 5019TIP3   OH215062   2.801   2.028   4.476  0.0236  0.2739 -0.1020
 5019TIP3    H115063   2.859   1.955   4.496  0.5385  0.8372  0.5265
 5019TIP3    H215064   2.742   2.033   4.551 -0.8454 -0.2754 -0.7209
 5020TIP3   OH215065   0.506   5.350   1.230  0.5156 -0.4371 -0.1678
 5020TIP3    H115066   0.571   5.416   1.206 -1.3113  1.1886 -0.9678
 5020TIP3    H215067   0.448   5.395   1.292 -0.5762 -1.4037 -0.4423
 5021TIP3   OH215068   4.968   2.041   0.522  0.5777 -0.7117 -0.5858
 5021TIP3    H115069   4.979   1.954   0.484  0.1582 -0.7850 -0.5438
 5021TIP3    H215070   4.878   2.067   0.498 -0.9501 -2.0900  2.9846
 5022TIP3   OH215071   4.798   2.948   4.342  0.3951  0.7009 -0.4461
 5022TIP3    H115072   4.803   2.893   4.264  0.7964  1.0401 -0.6665
 5022TIP3    H215073   4.735   2.904   4.399  1.2462 -0.3679 -0.3081
 5023TIP3   OH215074   2.928   0.284   2.449  0.7845  0.0943  0.6834
 5023TIP3    H115075   2.932   0.241   2.534 -2.3025 -1.8258 -0.0115
 5023TIP3    H215076   2.966   0.221   2.387  1.1395  0.6271  0.3446
 5024TIP3   OH215077   1.251   2.354   2.413 -0.1305  0.7987  0.4100
 5024TIP3    H115078   1.200   2.275   2.433  0.8435  0.5306  2.0181
 5024TIP3    H215079   1.208   2.392   2.337 -2.3505  0.2388  1.3150
 5025TIP3   OH215080   0.042   3.232   5.052 -0.0619  0.1011 -0.4307
 5025TIP3    H115081   0.113   3.180   5.015  0.5478  0.2145  0.5533
 5025TIP3    H215082  -0.005   3.266   4.976  0.9298  0.0150 -1.0954
 5026TIP3   OH215083   2.770   2.870   4.603 -0.2452 -0.0839 -0.2932
 5026TIP3    H115084   2.767   2.955   4.648  0.3945 -0.2302  0.0343
 5026TIP3    H215085   2.679   2.839   4.606 -0.4384  0.4640 -0.1853
 5027TIP3   OH215086   3.704   3.884   3.227  0.2753  0.3384 -0.0381
 5027TIP3    H115087   3.752   3.964   3.247  0.2463  0.1300  0.9232
 5027TIP3    H215088   3.684   3.890   3.133  2.9310  0.0526 -0.7249
 5028TIP3   OH215089   0.311   2.313   0.532  0.2534 -1.1658  0.0278
 5028TIP3    H115090   0.321   2.240   0.471  1.6437 -1.5205  0.6336
 5028TIP3    H215091   0.272   2.274   0.610  0.0439 -1.0526 -0.0197
 5029TIP3   OH215092   0.172   1.142   4.339 -0.8305  0.5099 -0.5084
 5029TIP3    H115093   0.210   1.227   4.360 -0.4960  0.1598  0.3781
 5029TIP3    H215094   0.215   1.115   4.258 -0.8735  1.1385 -0.7435
 5030TIP3   OH215095   2.946   5.734   0.152  0.2554 -0.3346  0.2706
 5030TIP3    H115096   2.957   5.687   0.235 -0.0482  1.1587  1.1840
 5030TIP3    H215097   2.854   5.757   0.150 -0.0935 -1.6900 -1.2584
 5031TIP3   OH215098   4.484   4.373   0.288  0.0431 -0.7381  0.0650
 5031TIP3    H115099   4.468   4.416   0.204 -0.6055  0.8471  0.9542
 5031TIP3    H215100   4.410   4.313   0.299 -0.2380 -0.4428 -0.1822
 5032TIP3   OH215101   0.334   3.622   2.926 -0.0312  0.0271  0.7402
 5032TIP3    H115102   0.358   3.613   3.018 -1.5915  0.4472  1.2197
 5032TIP3    H215103   0.288   3.706   2.922 -0.8332 -0.4406 -0.2250
 5033TIP3   OH215104   5.632   3.488   2.973  0.2450  0.1051  0.1724
 5033TIP3    H115105   5.677   3.465   2.891 -1.2011 -2.8536  0.1111
 5033TIP3    H215106   5.703   3.512   3.033  1.4901  0.2380 -1.2897
 5034TIP3   OH215107   2.022   0.841   0.748  0.3737 -0.2830  0.1632
 5034TIP3    H115108   1.958   0.787   0.701  1.0422 -0.5532 -0.4460
 5034TIP3    H215109   1.992   0.839   0.839 -1.3181  0.7909 -0.3304
 5035TIP3   OH215110   2.147   4.276   1.415 -0.5070 -0.3001 -0.1755
 5035TIP3    H115111   2.213   4.245   1.476  1.9009 -0.1740 -2.5374
 5035TIP3    H215112   2.109   4.197   1.377 -1.4737 -0.3670  0.8850
 5036TIP3   OH215113   5.371   2.808   0.471  0.5099  0.1529  0.0727
 5036TIP3    H115114   5.444   2.746   0.476 -0.9593 -1.6360  0.3290
 5036TIP3    H215115   5.368   2.835   0.380 -0.0328 -1.7596 -0.5203
 5037TIP3   OH215116   1.450   1.566   4.458  0.2002  0.5150  0.2608
 5037TIP3    H115117   1.418   1.656   4.454 -1.1168  0.0113 -1.4664
 5037TIP3    H215118   1.383   1.514   4.414  1.8056 -1.0606 -0.4509
 5038TIP3   OH215119   3.709   2.243   0.264  0.0939  0.0483 -0.5086
 5038TIP3    H115120   3.668   2.167   0.305 -0.1419 -0.0202 -0.8601
 5038TIP3    H215121   3.724   2.217   0.173  0.6498  0.1810 -0.4594
 5039TIP3   OH215122   2.468   1.016   1.382 -0.2908 -0.0901 -0.2860
 5039TIP3    H115123   2.542   0.966   1.418 -1.3187 -1.7143 -0.2945
 5039TIP3    H215124   2.442   0.966   1.304 -0.1234  1.6093 -1.4837
 5040TIP3   OH215125   4.848   1.426   4.853 -0.2046 -0.0282 -0.3091
 5040TIP3    H115126   4.914   1.494   4.843 -0.5366  0.1942 -1.0162
 5040TIP3    H215127   4.812   1.440   4.941  2.0978 -1.4320  0.9643
 5041TIP3   OH215128   0.048   2.216   0.089  0.2258 -0.8641 -0.6518
 5041TIP3    H115129  -0.008   2.208   0.166 -0.0893 -0.8456 -0.8715
 5041TIP3    H215130   0.137   2.216   0.123  0.3757 -5.0225 -0.5233
 5042TIP3   OH215131   1.892   1.030   3.481 -0.0352 -0.0524  0.1371
 5042TIP3    H115132   1.800   1.010   3.496 -0.5640  2.5494  1.0247
 5042TIP3    H215133   1.933   1.023   3.567  0.4315 -0.4091 -0.1069
 5043TIP3   OH215134   1.811   2.329   0.955 -0.3036 -0.8915 -0.5724
 5043TIP3    H115135   1.784   2.415   0.924 -0.2131 -1.1162 -1.3052
 5043TIP3    H215136   1.853   2.346   1.039 -0.7853 -0.2905 -0.4461
 5044TIP3   OH215137   0.121   0.185   1.289 -0.5196 -0.1703  0.0576
 5044TIP3    H115138   0.033   0.219   1.276 -0.6675 -0.1105  1.1212
 5044TIP3    H215139   0.165   0.253   1.341  0.6642  0.5437 -1.7998
 5045TIP3   OH215140   0.939   2.184   2.060 -0.4556 -0.0062 -0.1387
 5045TIP3    H115141   1.002   2.111   2.063 -1.3277 -0.7471  2.2249
 5045TIP3    H215142   0.891   2.178   2.142  0.8691  4.5332  1.2926
 5046TIP3   OH215143   0.831   4.599   3.337 -0.4418  0.0173 -0.2083
 5046TIP3    H115144   0.779   4.646   3.272 -2.6756  0.7098  1.9171
 5046TIP3    H215145   0.841   4.511   3.301 -1.2477  0.4808 -1.6399
 5047TIP3   OH215146   6.307   5.091   0.902 -0.1538 -0.1976 -0.0912
 5047TIP3    H115147   6.251   5.102   0.826  0.9277 -1.4069 -1.1063
 5047TIP3    H215148   6.380   5.152   0.888 -0.8239  0.8997  0.9084
 5048TIP3   OH215149   6.109   1.048   3.150  0.4021 -0.2147 -0.3984
 5048TIP3    H115150   6.047   1.099   3.203  0.3605 -1.7813  1.1632
 5048TIP3    H215151   6.058   0.974   3.117  1.2302 -1.1231  0.2947
 5049TIP3   OH215152   0.406   4.964   2.405  0.5413 -0.3322  0.1469
 5049TIP3    H115153   0.356   4.918   2.339 -0.1202  1.5500 -0.7297
 5049TIP3    H215154   0.498   4.944   2.385  0.2780 -1.6715  0.1619
 5050TIP3   OH215155   1.828   4.531   4.566 -0.0815 -0.8063  0.3212
 5050TIP3    H115156   1.886   4.473   4.516  0.1986 -1.5526  1.4750
 5050TIP3    H215157   1.740   4.509   4.537  0.1704  0.4648 -1.5907
 5051TIP3   OH215158   2.359   3.894   3.748 -0.4530 -0.0381 -0.3525
 5051TIP3    H115159   2.432   3.945   3.785 -0.2325 -0.9831  0.5810
 5051TIP3    H215160   2.328   3.946   3.674  1.0987  0.4419 -0.7061
 5052TIP3   OH215161   0.489   5.779   1.284 -0.0132  0.4938  0.5458
 5052TIP3    H115162   0.536   5.716   1.230  0.0633 -1.5275  2.7908
 5052TIP3    H215163   0.532   5.775   1.369 -1.1984  2.2491  1.2939
 5053TIP3   OH215164   0.461   2.065   0.901  0.1523  0.7011  0.0929
 5053TIP3    H115165   0.482   2.073   0.994 -2.2018  2.1858  0.5744
 5053TIP3    H215166   0.533   2.109   0.857  1.4066 -0.1875  1.1420
 5054TIP3   OH215167   0.378   1.074   3.447  0.1068 -0.7416 -0.0736
 5054TIP3    H115168   0.365   1.003   3.385 -1.4815  0.0711 -0.7148
 5054TIP3    H215169   0.349   1.038   3.531 -1.5728 -0.6000 -0.5599
 5055TIP3   OH215170   5.973   5.412   4.910  0.3270 -0.2186 -0.1133
 5055TIP3    H115171   5.906   5.381   4.971  0.2435 -1.1879 -0.6842
 5055TIP3    H215172   6.011   5.488   4.954  0.6108 -1.1745  1.3965
 5056TIP3   OH215173   5.280   1.858   0.276  0.5816 -0.5932  0.3723
 5056TIP3    H115174   5.196   1.857   0.322  0.9910  0.3630  1.2001
 5056TIP3    H215175   5.277   1.783   0.218 -0.5933 -0.9409  0.8515
 5057TIP3   OH215176   2.008   0.517   4.430 -0.4041 -0.1072 -0.5814
 5057TIP3    H115177   2.027   0.439   4.377 -1.1298  0.0907 -1.1532
 5057TIP3    H215178   2.013   0.486   4.520  0.2059 -0.6058 -0.7780
 5058TIP3   OH215179   5.115   1.561   1.529 -0.0668  0.1454  0.1310
 5058TIP3    H115180   5.128   1.654   1.508  2.1258  0.1324  1.1786
 5058TIP3    H215181   5.121   1.517   1.444  0.2045  0.8430 -0.2298
 5059TIP3   OH215182   4.909   0.815   0.203  0.4613 -0.0772 -0.4473
 5059TIP3    H115183   4.818   0.798   0.228  1.0244 -0.6355  1.3701
 5059TIP3    H215184   4.923   0.761   0.125 -0.6722 -0.1730 -0.6040
 5060TIP3   OH215185   3.200   1.659   4.654 -0.0119  0.3787  0.2495
 5060TIP3    H115186   3.216   1.724   4.722  1.9456 -0.4404  0.6491
 5060TIP3    H215187   3.230   1.577   4.692 -1.7593 -0.6603 -0.5061
 5061TIP3   OH215188   1.756   1.295   2.718  0.0458 -0.6114 -0.4974
 5061TIP3    H115189   1.761   1.209   2.676 -1.1265 -1.0962  0.2743
 5061TIP3    H215190   1.683   1.287   2.779 -1.8984  1.7692 -2.3024
 5062TIP3   OH215191   4.351   5.076   3.805  0.1711  0.5452  0.6339
 5062TIP3    H115192   4.300   5.109   3.879 -1.0177  0.6507 -0.2046
 5062TIP3    H215193   4.427   5.134   3.801 -0.4024  1.3441  0.9896
 5063TIP3   OH215194   6.366   3.502   2.023  0.2231  0.2507  0.1546
 5063TIP3    H115195   6.319   3.586   2.014  1.4790  1.0760  0.9914
 5063TIP3    H215196   6.297   3.440   2.046 -0.5891  1.2906  0.6723
 5064TIP3   OH215197   2.249   4.764   4.765 -0.0429 -0.0002 -0.4133
 5064TIP3    H115198   2.166   4.763   4.812  0.2633 -0.7002  0.1200
 5064TIP3    H215199   2.224   4.770   4.673 -0.6661  0.3884 -0.2225
 5065TIP3   OH215200   0.590   4.392   3.036 -0.1473  0.5827 -0.5467
 5065TIP3    H115201   0.570   4.450   2.963 -1.0474 -0.0647 -0.8416
 5065TIP3    H215202   0.551   4.308   3.011 -1.1407  0.5405  0.9935
 5066TIP3   OH215203   5.028   1.443   1.948 -0.5235 -0.1216 -0.0352
 5066TIP3    H115204   4.960   1.483   2.001 -1.3873 -0.7113 -0.6674
 5066TIP3    H215205   5.003   1.350   1.942  0.5353 -0.4264  0.0244
 5067TIP3   OH215206   4.097   2.597   3.421  0.0124  0.1895  0.0597
 5067TIP3    H115207   4.072   2.557   3.338  1.2342 -2.1642  0.7111
 5067TIP3    H215208   4.059   2.684   3.419 -1.1239 -0.2842 -2.3788
 5068TIP3   OH215209   5.124   5.163   3.137  0.3820  0.6202 -0.5104
 5068TIP3    H115210   5.216   5.147   3.118  0.3279 -2.3110  1.2156
 5068TIP3    H215211   5.077   5.123   3.064  0.4290  0.6728 -0.5695
 5069TIP3   OH215212   3.555   4.771   0.686  0.2310  0.2724  0.6602
 5069TIP3    H115213   3.490   4.707   0.714 -1.3519  1.1642 -0.7554
 5069TIP3    H215214   3.512   4.855   0.698  0.3003  0.7966 -2.0907
 5070TIP3   OH215215   5.009   2.499   1.045 -0.3522 -0.0715 -0.2269
 5070TIP3    H115216   4.995   2.594   1.045  1.1414  0.1826  0.5497
 5070TIP3    H215217   5.077   2.484   0.980 -0.7267 -0.6590 -0.4994
 5071TIP3   OH215218   0.438   2.342   3.023 -0.1758 -0.3379 -0.1551
 5071TIP3    H115219   0.379   2.415   3.043 -2.0659 -1.1200 -2.3708
 5071TIP3    H215220   0.380   2.268   3.007  1.5619 -1.7503 -0.2056
 5072TIP3   OH215221   2.949   2.741   5.139 -0.8256  0.0529 -0.5402
 5072TIP3    H115222   2.987   2.665   5.096  1.1533  0.9507 -0.4903
 5072TIP3    H215223   2.900   2.787   5.071  0.7120  0.4550 -1.4119
 5073TIP3   OH215224   1.121   1.077   3.530  0.0769 -0.3352  0.0637
 5073TIP3    H115225   1.067   1.124   3.593  0.1344  0.1579 -0.2554
 5073TIP3    H215226   1.101   0.984   3.546 -1.3331 -0.1441 -0.4735
 5074TIP3   OH215227   1.042   0.827   3.549  0.3218 -0.0710 -0.6543
 5074TIP3    H115228   0.977   0.793   3.611  0.4689 -0.0972 -0.5136
 5074TIP3    H215229   1.124   0.786   3.576  0.7545  1.3536  0.3264
 5075TIP3   OH215230   2.234   5.215   4.114  0.3810  0.0585 -0.2364
 5075TIP3    H115231   2.252   5.166   4.034 -0.1761 -1.1817  0.3678
 5075TIP3    H215232   2.141   5.200   4.131  0.2360  1.1882  0.0848
 5076TIP3   OH215233   5.351   2.065   3.072 -0.4740 -0.5037 -0.2298
 5076TIP3    H115234   5.329   1.977   3.042  0.7346 -0.8281 -0.2116
 5076TIP3    H215235   5.278   2.090   3.129 -1.0733 -1.2781 -0.6408
 5077TIP3   OH215236   1.787   2.995   0.029 -0.3741  0.0445 -0.0719
 5077TIP3    H115237   1.786   3.074  -0.025 -0.3975 -1.0442 -1.7488
 5077TIP3    H215238   1.702   2.954   0.013  0.3587 -1.2652 -0.7400
 5078TIP3   OH215239   2.267   2.066   3.856 -0.1968 -0.3849 -0.0943
 5078TIP3    H115240   2.336   2.042   3.795  0.1472 -0.9180  0.4947
 5078TIP3    H215241   2.291   2.023   3.938 -1.5704 -1.1148 -0.0459
 5079TIP3   OH215242   4.590   5.261   1.294  0.1346 -0.3737  0.7196
 5079TIP3    H115243   4.549   5.245   1.379  0.6667 -1.2958  0.8175
 5079TIP3    H215244   4.673   5.304   1.316 -0.7015  1.4015  0.5280
 5080TIP3   OH215245   2.630   0.227   3.478 -0.0641  0.2363  0.3184
 5080TIP3    H115246   2.702   0.254   3.535 -1.4614  3.5013  0.7456
 5080TIP3    H215247   2.619   0.134   3.496  1.8237  0.3829  2.7597
 5081TIP3   OH215248   1.798   2.490   0.172  0.3722 -0.2414  0.0762
 5081TIP3    H115249   1.877   2.508   0.121  1.2510 -1.4526  0.9425
 5081TIP3    H215250   1.741   2.565   0.155  1.9707  1.0090 -0.0618
 5082TIP3   OH215251   0.171   5.208   2.030 -0.4986 -0.8751  0.2515
 5082TIP3    H115252   0.076   5.198   2.025 -0.4794 -1.1972  0.5314
 5082TIP3    H215253   0.206   5.119   2.022 -0.1984 -0.7104 -0.3163
 5083TIP3   OH215254   4.545   0.926   0.556  0.0705 -0.7944 -0.7095
 5083TIP3    H115255   4.573   0.911   0.646 -2.5101 -1.8502 -0.0051
 5083TIP3    H215256   4.450   0.924   0.559 -0.1313  0.2147 -3.3169
 5084TIP3   OH215257   5.865   5.001   3.635  0.0655  0.1837 -0.3279
 5084TIP3    H115258   5.916   5.080   3.619  1.2388 -1.0236 -3.2990
 5084TIP3    H215259   5.900   4.937   3.573  0.0687 -3.1443  2.7429
 5085TIP3   OH215260   3.920   4.466   3.195 -0.2538 -0.3157  0.1146
 5085TIP3    H115261   3.971   4.408   3.137  0.0950  2.2321 -2.3463
 5085TIP3    H215262   3.975   4.475   3.273  2.0217  0.4342 -1.4508
 5086TIP3   OH215263   0.567   2.728   0.999  0.2589 -0.0582 -0.1364
 5086TIP3    H115264   0.530   2.734   1.087  0.7339 -2.9708  0.3453
 5086TIP3    H215265   0.634   2.660   1.006  0.2826 -0.3934 -2.7738
 5087TIP3   OH215266   5.855   0.352   0.163  0.2292 -0.2736 -0.7605
 5087TIP3    H115267   5.863   0.256   0.164 -1.3445 -0.4203  0.2407
 5087TIP3    H215268   5.795   0.371   0.091 -1.3615 -0.2565  0.5110
 5088TIP3   OH215269   3.498   0.779   2.235  0.0593  0.1638 -0.4175
 5088TIP3    H115270   3.504   0.874   2.245 -0.5249  0.2718 -0.9535
 5088TIP3    H215271   3.405   0.763   2.214  0.3112 -0.4321 -1.1449
 5089TIP3   OH215272   2.755   2.007   0.388 -0.7539  0.1950  0.4620
 5089TIP3    H115273   2.846   1.994   0.362 -0.9748  1.5444 -1.1926
 5089TIP3    H215274   2.725   1.921   0.416  0.7619 -0.4631  0.1515
 5090TIP3   OH215275   3.115   0.491   0.515  0.0700  0.6117 -0.4013
 5090TIP3    H115276   3.040   0.433   0.504 -0.1045  0.7027  0.2387
 5090TIP3    H215277   3.182   0.456   0.457 -0.4822  0.5558 -1.0190
 5091TIP3   OH215278   6.360   3.328   2.529 -0.4641  0.0307 -0.0856
 5091TIP3    H115279   6.265   3.320   2.521 -0.4366  0.1518 -0.5437
 5091TIP3    H215280   6.373   3.386   2.604 -0.7994  2.0399 -1.5110
 5092TIP3   OH215281   3.978   1.201   3.679  0.3279  0.2843  0.1206
 5092TIP3    H115282   3.969   1.177   3.771 -1.4112  0.3897  0.0147
 5092TIP3    H215283   3.981   1.297   3.680 -1.6710  0.3906 -0.0186
 5093TIP3   OH215284   4.312   2.459   2.084 -0.6290 -0.1885  0.3764
 5093TIP3    H115285   4.305   2.373   2.044  1.6840  0.0175 -0.5817
 5093TIP3    H215286   4.264   2.517   2.025  1.8989 -0.0607 -1.7361
 5094TIP3   OH215287   0.053   4.774   4.974  0.3544 -0.3343  0.1770
 5094TIP3    H115288  -0.023   4.726   4.942  1.0684 -0.5316 -1.3106
 5094TIP3    H215289   0.094   4.716   5.038  0.2313 -0.9749 -0.3153
 5095TIP3   OH215290   1.315   4.736   1.457  0.5840  0.1318  0.2172
 5095TIP3    H115291   1.273   4.650   1.458 -0.1065  0.4568 -0.1860
 5095TIP3    H215292   1.243   4.798   1.464  1.1071  0.6793  0.8611
 5096TIP3   OH215293   0.389   3.987   1.350 -0.1191 -0.1318 -0.2293
 5096TIP3    H115294   0.479   4.019   1.346 -0.1331 -0.0245  0.2191
 5096TIP3    H215295   0.397   3.894   1.371 -0.1258  0.0771  0.7656
 5097TIP3   OH215296   0.192   1.141   1.778  0.0693 -0.3051  0.3330
 5097TIP3    H115297   0.136   1.215   1.804  0.2817 -0.3070  0.7949
 5097TIP3    H215298   0.132   1.067   1.771 -0.1851 -0.0425 -0.3587
 5098TIP3   OH215299   0.104   5.043   0.376  0.6087 -0.5830 -0.2059
 5098TIP3    H115300   0.028   5.092   0.345  1.7221  2.0296  0.9109
 5098TIP3    H215301   0.157   5.029   0.298 -0.1227 -0.7883 -0.6796
 5099TIP3   OH215302   6.286   5.766   1.995 -0.2751 -0.0462 -0.1945
 5099TIP3    H115303   6.229   5.689   1.992 -2.0500  1.1335  1.3162
 5099TIP3    H215304   6.269   5.811   1.912 -0.3875 -0.4733 -0.4070
 5100TIP3   OH215305   4.909   4.416   3.726  0.2547  0.0557 -0.0636
 5100TIP3    H115306   4.832   4.394   3.673  1.5666 -0.2952 -1.9214
 5100TIP3    H215307   4.946   4.493   3.683  1.7030 -0.6031 -0.0289
 5101TIP3   OH215308   0.447   2.876   3.762 -0.0084 -0.1693  0.7882
 5101TIP3    H115309   0.382   2.844   3.700 -0.2763 -0.7831  1.3828
 5101TIP3    H215310   0.482   2.797   3.804 -1.7224  0.3207  3.3573
 5102TIP3   OH215311   4.801   4.794   3.594  0.0179  0.1162 -0.3739
 5102TIP3    H115312   4.895   4.791   3.611  0.2611 -1.5951 -1.8065
 5102TIP3    H215313   4.785   4.884   3.565  1.7304 -0.2794 -2.7836
 5103TIP3   OH215314   4.766   4.727   1.290 -0.6160  0.0045 -0.1558
 5103TIP3    H115315   4.678   4.726   1.327  0.8704 -1.3700  3.9106
 5103TIP3    H215316   4.802   4.812   1.315  0.1853 -0.6792  1.1636
 5104TIP3   OH215317   6.335   4.019   4.528 -0.2405  0.2637 -0.2390
 5104TIP3    H115318   6.279   4.009   4.451  0.6123 -1.1493 -0.7220
 5104TIP3    H215319   6.278   4.000   4.602 -0.4277 -1.2285 -0.7248
 5105TIP3   OH215320   3.397   5.230   2.002 -0.3017  0.0025  0.2620
 5105TIP3    H115321   3.379   5.318   1.969  1.0474  0.5211  0.8270
 5105TIP3    H215322   3.468   5.197   1.946 -0.4583 -0.5246  0.3680
 5106TIP3   OH215323   4.678   0.831   3.862 -0.4900 -0.0841 -0.3423
 5106TIP3    H115324   4.675   0.736   3.853  1.5195 -0.1550 -0.8105
 5106TIP3    H215325   4.771   0.851   3.879 -0.1813  2.0206 -3.5343
 5107TIP3   OH215326   3.595   2.751   3.016  0.3693  0.5506  0.2081
 5107TIP3    H115327   3.658   2.798   2.961  1.6467 -1.0798  0.1972
 5107TIP3    H215328   3.648   2.711   3.084 -0.6129 -1.0970  0.0533
 5108TIP3   OH215329   0.816   5.767   3.260  0.3822  0.3947  0.3976
 5108TIP3    H115330   0.765   5.795   3.336 -0.0835  1.5598 -0.3220
 5108TIP3    H215331   0.751   5.737   3.197  0.7043  0.2068  0.1512
 5109TIP3   OH215332   5.445   4.270   2.779 -0.0415  0.2067 -0.6030
 5109TIP3    H115333   5.480   4.358   2.792  0.2314 -0.0665  0.5743
 5109TIP3    H215334   5.485   4.218   2.848  1.1619 -1.2585 -2.3066
 5110TIP3   OH215335   2.912   5.195   4.443 -0.1146 -0.2192  0.2767
 5110TIP3    H115336   2.892   5.111   4.484 -1.4375 -0.0652 -0.0005
 5110TIP3    H215337   2.831   5.245   4.451  0.1272  0.4209 -1.0418
 5111TIP3   OH215338   3.267   4.183   0.290  0.1192 -0.0149 -0.8070
 5111TIP3    H115339   3.263   4.173   0.194  0.4124 -2.3988 -0.6454
 5111TIP3    H215340   3.360   4.175   0.311  0.0139  0.0848 -0.2921
 5112TIP3   OH215341   5.188   5.525   4.632  0.6371  0.4000 -0.5371
 5112TIP3    H115342   5.267   5.553   4.679  0.7243 -1.3664  0.4705
 5112TIP3    H215343   5.131   5.602   4.633  1.4858  1.0435  0.6564
 5113TIP3   OH215344   5.661   4.250   3.004  0.1960  0.1820  0.1153
 5113TIP3    H115345   5.654   4.193   3.081  0.5352 -0.5913 -0.4201
 5113TIP3    H215346   5.737   4.217   2.956 -0.5542  0.0748 -1.0337
 5114TIP3   OH215347   5.271   4.440   4.893 -0.5231 -0.1513 -0.1133
 5114TIP3    H115348   5.262   4.502   4.965  2.3050  0.2119  0.0182
 5114TIP3    H215349   5.262   4.494   4.814 -0.3914  0.0021 -0.0218
 5115TIP3   OH215350   0.199   3.105   3.624  0.1446 -0.4839  0.0226
 5115TIP3    H115351   0.210   3.189   3.580  1.7255 -1.1938 -0.9974
 5115TIP3    H215352   0.208   3.040   3.555  0.0204 -1.5468  0.9737
 5116TIP3   OH215353   1.378   2.953   1.408 -0.4585  0.5077  0.5297
 5116TIP3    H115354   1.438   2.879   1.419 -0.3670  0.2413 -1.3975
 5116TIP3    H215355   1.348   2.973   1.496  2.9362  1.0743  1.7013
 5117TIP3   OH215356   3.967   5.547   0.358  0.1444 -0.4076 -0.2040
 5117TIP3    H115357   3.989   5.601   0.434  0.0728  0.0050 -0.4761
 5117TIP3    H215358   3.892   5.495   0.387 -0.3100  0.2318 -0.2065
 5118TIP3   OH215359   5.030   2.679   0.811 -0.5443 -0.1827 -0.0821
 5118TIP3    H115360   5.121   2.707   0.804 -0.8270  0.3668 -3.2113
 5118TIP3    H215361   5.025   2.599   0.758 -2.4183  1.5486 -2.7521
 5119TIP3   OH215362   4.436   2.583   0.684 -0.1844 -0.7521 -0.3701
 5119TIP3    H115363   4.504   2.630   0.636  0.7628 -1.5745  0.1235
 5119TIP3    H215364   4.392   2.530   0.616 -0.7977  0.2880 -0.8037
 5120TIP3   OH215365   0.163   5.902   4.782 -0.6145  0.1581  0.5390
 5120TIP3    H115366   0.222   5.866   4.716 -0.7971  0.2121  0.3444
 5120TIP3    H215367   0.208   5.887   4.865  0.4680  1.7001  0.2875
 5121TIP3   OH215368   1.594   0.547   4.083  0.0866  0.0841 -0.3102
 5121TIP3    H115369   1.631   0.579   4.165  0.6888 -0.9127 -0.1746
 5121TIP3    H215370   1.518   0.495   4.109  0.0836  0.0424 -0.3998
 5122TIP3   OH215371   2.616   4.596   1.232  0.2480 -0.1246 -0.3446
 5122TIP3    H115372   2.701   4.641   1.232 -0.1003  0.5695 -1.5862
 5122TIP3    H215373   2.554   4.662   1.201 -0.7022 -0.7205  0.2633
 5123TIP3   OH215374   1.399   5.038   3.028 -0.2772 -0.2409 -0.0120
 5123TIP3    H115375   1.351   4.956   3.042 -1.2427  0.5709  1.6917
 5123TIP3    H215376   1.465   5.016   2.961 -0.5436 -2.3713  0.3604
 5124TIP3   OH215377   1.517   4.537   0.056  0.1121  0.8635  0.1094
 5124TIP3    H115378   1.475   4.499   0.133  0.0793  0.2597 -0.2025
 5124TIP3    H215379   1.522   4.631   0.075 -1.3973  0.9508  0.1271
 5125TIP3   OH215380   6.111   5.985   3.412  1.0443  0.1401  0.1887
 5125TIP3    H115381   6.149   6.016   3.330 -0.7469 -0.5641 -0.9493
 5125TIP3    H215382   6.151   5.899   3.427 -1.2226 -1.4028 -1.9271
 5126TIP3   OH215383   4.560   5.231   2.548  0.0396  0.6073 -0.4139
 5126TIP3    H115384   4.601   5.318   2.544 -0.5519  1.1167  2.3800
 5126TIP3    H215385   4.572   5.203   2.639 -2.0661 -1.0919 -0.5689
 5127TIP3   OH215386   0.829   5.174   0.663  0.0555 -0.3538 -0.3994
 5127TIP3    H115387   0.772   5.148   0.591 -0.0522 -3.0684  0.5589
 5127TIP3    H215388   0.918   5.164   0.627 -0.0054 -1.3019 -0.3153
 5128TIP3   OH215389   2.817   0.132   3.672 -0.3929  0.3471 -0.0312
 5128TIP3    H115390   2.894   0.162   3.624  0.6240 -1.7038  0.2416
 5128TIP3    H215391   2.816   0.185   3.751  0.6931  0.4493 -0.0753
 5129TIP3   OH215392   4.092   4.270   0.767 -0.3601 -0.4546 -0.0436
 5129TIP3    H115393   4.044   4.240   0.689 -0.9332  0.2628  0.0162
 5129TIP3    H215394   4.048   4.227   0.840 -0.2797 -0.5750 -0.0671
 5130TIP3   OH215395   2.030   5.175   0.392  0.1528  0.3026  0.7487
 5130TIP3    H115396   1.943   5.193   0.357  0.7930  1.0308 -0.5607
 5130TIP3    H215397   2.063   5.262   0.417  0.7305  0.1107  0.6546
 5131TIP3   OH215398   5.561   3.939   2.867 -0.6171 -0.2427 -0.3723
 5131TIP3    H115399   5.570   3.989   2.786 -1.2787  0.9574  0.2567
 5131TIP3    H215400   5.647   3.898   2.880  0.0755  1.0337 -0.7402
 5132TIP3   OH215401   0.505   2.403   4.923  0.1487 -0.0608  0.3065
 5132TIP3    H115402   0.490   2.310   4.941 -2.2205  0.5177  1.6109
 5132TIP3    H215403   0.456   2.420   4.842  1.7053 -0.1820 -0.7180
 5133TIP3   OH215404   0.384   2.854   5.154  0.6965 -0.8065 -1.0939
 5133TIP3    H115405   0.415   2.910   5.083 -1.7138  0.2422 -1.4470
 5133TIP3    H215406   0.369   2.769   5.113  1.5326 -0.8697 -1.2769
 5134TIP3   OH215407   0.521   3.563   1.745  0.0050  0.1968  0.4836
 5134TIP3    H115408   0.521   3.484   1.690 -0.0834 -0.2585  1.1221
 5134TIP3    H215409   0.439   3.558   1.793  1.0161 -0.5496  2.2327
 5135TIP3   OH215410   5.752   5.725   2.865  0.2456 -0.9348 -0.2689
 5135TIP3    H115411   5.782   5.757   2.950  1.5043 -0.0163 -1.0136
 5135TIP3    H215412   5.825   5.743   2.806 -0.5970 -1.5555 -1.5507
 5136TIP3   OH215413   1.491   4.816   3.755 -0.0619 -0.3245  0.2325
 5136TIP3    H115414   1.563   4.835   3.695  0.4633 -0.3946  0.8173
 5136TIP3    H215415   1.423   4.777   3.701  0.0563  0.4117 -0.4546
 5137TIP3   OH215416   6.321   5.810   3.121  0.4939  0.5540  0.4476
 5137TIP3    H115417   6.313   5.736   3.061 -0.0670  0.7972  0.2152
 5137TIP3    H215418   6.414   5.829   3.123  0.8887 -1.2481  1.8331
 5138TIP3   OH215419   1.350   1.106   4.987  0.3054  0.4170 -0.2222
 5138TIP3    H115420   1.431   1.132   5.030 -0.4951  1.4863  0.7013
 5138TIP3    H215421   1.365   1.016   4.958  1.3441  0.1411  1.1289
 5139TIP3   OH215422   1.564   4.173   1.030  0.1284  0.7304  1.0125
 5139TIP3    H115423   1.640   4.232   1.030  1.2508 -0.6578  0.1084
 5139TIP3    H215424   1.559   4.140   0.940 -0.2143 -0.8622  1.5871
 5140TIP3   OH215425   3.148   1.242   2.422 -0.0413  0.4029 -0.1702
 5140TIP3    H115426   3.095   1.162   2.419  0.8512 -0.2107 -0.2076
 5140TIP3    H215427   3.166   1.263   2.330  1.1156 -0.3406 -0.1456
 5141TIP3   OH215428   1.459   4.646   1.807  0.3564  0.1181  0.6216
 5141TIP3    H115429   1.399   4.582   1.846 -1.0233  0.3005 -1.0882
 5141TIP3    H215430   1.406   4.725   1.797  1.0461  0.4643 -0.4078
 5142TIP3   OH215431   2.196   0.863   0.306 -0.2582 -0.0661  0.1667
 5142TIP3    H115432   2.140   0.826   0.238  0.2995  0.6185 -0.6929
 5142TIP3    H215433   2.283   0.827   0.287 -0.4805 -1.6339  1.8736
 5143TIP3   OH215434   0.428   1.660   2.082 -0.7161 -0.1111 -0.3389
 5143TIP3    H115435   0.512   1.619   2.103 -1.0727 -0.9483 -0.4825
 5143TIP3    H215436   0.427   1.662   1.986 -1.3195 -1.1164 -0.3637
 5144TIP3   OH215437   1.680   3.351   0.954  0.7925  0.1079  0.4516
 5144TIP3    H115438   1.761   3.402   0.962  1.1884 -0.3008 -0.8364
 5144TIP3    H215439   1.700   3.268   0.999  0.7729  0.3514  0.9197
 5145TIP3   OH215440   1.432   1.537   0.076 -0.3469  0.2720 -0.3570
 5145TIP3    H115441   1.381   1.618   0.084 -0.9870 -0.0042 -1.4424
 5145TIP3    H215442   1.523   1.566   0.073 -0.3935  0.7740  1.6174
 5146TIP3   OH215443   4.293   4.710   3.503  1.0114 -0.0119 -0.2820
 5146TIP3    H115444   4.197   4.719   3.507  1.1862  2.9697  0.0704
 5146TIP3    H215445   4.317   4.667   3.584  0.0764  1.7466  1.0084
 5147TIP3   OH215446   3.532   3.472   1.719 -0.0926  0.3439 -0.2049
 5147TIP3    H115447   3.576   3.395   1.754 -1.8100 -0.3107  0.6471
 5147TIP3    H215448   3.570   3.546   1.766 -0.0666 -0.2229  0.6885
 5148TIP3   OH215449   1.534   0.461   4.817 -0.0993  0.2947  0.2737
 5148TIP3    H115450   1.511   0.369   4.827 -1.6737  0.5988 -0.3120
 5148TIP3    H215451   1.486   0.506   4.887  1.8195  0.5402  1.5072
 5149TIP3   OH215452   5.771   5.589   1.543 -0.0489  0.2510 -0.2603
 5149TIP3    H115453   5.777   5.661   1.606  1.5626 -1.3613  1.5456
 5149TIP3    H215454   5.797   5.629   1.460  1.8909  1.5731  0.8882
 5150TIP3   OH215455   5.177   4.628   0.379  0.1500 -0.4977  0.2395
 5150TIP3    H115456   5.172   4.714   0.336 -0.3123 -1.1257 -1.0065
 5150TIP3    H215457   5.204   4.648   0.468 -0.7229  1.0192  0.2035
 5151TIP3   OH215458   6.029   2.042   1.185  0.0455 -0.3201 -0.2453
 5151TIP3    H115459   5.971   2.051   1.109  0.1777  1.6401 -0.1576
 5151TIP3    H215460   6.039   2.131   1.218  2.3041 -0.7475  0.3638
 5152TIP3   OH215461   2.542   3.653   3.371 -0.4024 -0.3639 -0.1473
 5152TIP3    H115462   2.615   3.599   3.342 -0.1663 -0.5496  0.7678
 5152TIP3    H215463   2.583   3.720   3.427 -0.6316  1.0037 -1.5515
 5153TIP3   OH215464   0.247   1.010   0.606 -0.7325 -0.1426 -0.0703
 5153TIP3    H115465   0.341   0.992   0.612 -0.5339  0.8001 -0.2094
 5153TIP3    H215466   0.212   0.977   0.689 -0.4314 -1.3351 -0.4045
 5154TIP3   OH215467   5.770   1.040   0.104 -0.4419  0.0130 -0.1749
 5154TIP3    H115468   5.774   1.095   0.026  0.4234 -1.7989 -1.4835
 5154TIP3    H215469   5.857   1.048   0.143  0.5999 -2.2226 -1.7740
 5155TIP3   OH215470   4.637   0.133   3.780  0.0297  0.4008  0.4793
 5155TIP3    H115471   4.651   0.077   3.703  1.8873  0.4139  0.7697
 5155TIP3    H215472   4.555   0.179   3.761 -1.4633 -2.1934  0.1219
 5156TIP3   OH215473   0.246   2.181   3.400 -0.2587  0.3853  0.1385
 5156TIP3    H115474   0.216   2.250   3.341 -0.8242  0.3118  0.3384
 5156TIP3    H215475   0.210   2.204   3.485  0.1572  0.2320  0.3622
 5157TIP3   OH215476   3.283   0.452   0.958 -0.3458 -0.5202 -0.1720
 5157TIP3    H115477   3.213   0.408   1.005  0.5176 -1.2765  0.4319
 5157TIP3    H215478   3.292   0.403   0.877  0.9571 -1.8361  0.7188
 5158TIP3   OH215479   0.080   3.973   3.248  0.3121 -0.4856  0.7024
 5158TIP3    H115480   0.023   3.897   3.242 -0.1382 -0.0725 -0.2934
 5158TIP3    H215481   0.031   4.036   3.301  0.9840 -1.1213  2.1654
 5159TIP3   OH215482   1.860   2.878   2.180  0.2227 -0.5767  0.2526
 5159TIP3    H115483   1.820   2.909   2.099  0.0046 -0.9405  0.2186
 5159TIP3    H215484   1.829   2.788   2.189 -0.0593 -0.4162  0.9334
 5160TIP3   OH215485   3.851   4.038   2.041  0.0776 -0.0207  0.7313
 5160TIP3    H115486   3.941   4.010   2.055 -0.1339 -0.2679  1.7227
 5160TIP3    H215487   3.857   4.109   1.978  0.9293 -0.2462  0.5415
 5161TIP3   OH215488   6.341   1.122   2.599 -0.7106  0.0568 -0.2404
 5161TIP3    H115489   6.291   1.119   2.517 -0.2714  0.1131 -0.5113
 5161TIP3    H215490   6.432   1.112   2.572 -0.6177 -0.6650  0.3057
 5162TIP3   OH215491   0.001   4.723   2.184 -0.3167 -0.1533 -0.6189
 5162TIP3    H115492   0.095   4.738   2.194 -0.1863  0.5755 -2.4938
 5162TIP3    H215493  -0.022   4.666   2.257  0.9095  2.2508  1.8170
 5163TIP3   OH215494   0.930   0.057  -0.023  0.1224  0.1242 -0.2695
 5163TIP3    H115495   0.944  -0.026   0.022  1.1233 -1.0142 -2.5505
 5163TIP3    H215496   0.914   0.120   0.048 -0.4564 -1.9267  1.5371
 5164TIP3   OH215497   5.599   0.614   2.935  0.0066 -0.1146 -0.1722
 5164TIP3    H115498   5.642   0.680   2.881  1.0759 -0.5539  0.1112
 5164TIP3    H215499   5.646   0.617   3.018  0.0771 -1.2305 -0.1565
 5165TIP3   OH215500   0.170   5.642   0.333  0.3387 -0.1492 -0.6046
 5165TIP3    H115501   0.257   5.653   0.296  1.2175  2.7698  1.8927
 5165TIP3    H215502   0.186   5.621   0.425 -1.5008  1.5394  0.1797
 5166TIP3   OH215503   0.036   2.479   0.435 -0.3215  0.2280  0.5973
 5166TIP3    H115504   0.123   2.490   0.474 -0.4083  0.5980  0.6909
 5166TIP3    H215505   0.040   2.395   0.389  0.1851  0.3902  0.3404
 5167TIP3   OH215506   4.776   1.625   1.931  0.3031 -0.5261  0.5439
 5167TIP3    H115507   4.794   1.719   1.929 -0.2481 -0.4168  0.4863
 5167TIP3    H215508   4.775   1.602   2.023  1.0834 -0.6095  0.5397
 5168TIP3   OH215509   6.289   5.918   0.692 -0.5327  0.2049 -0.2645
 5168TIP3    H115510   6.361   5.900   0.632 -1.5151 -3.5552 -0.5791
 5168TIP3    H215511   6.302   5.856   0.765 -0.5082  3.2104  2.5241
 5169TIP3   OH215512   2.901   2.390   0.505  0.1640 -0.3394  0.2049
 5169TIP3    H115513   2.985   2.353   0.528  0.0809 -0.3485  0.4937
 5169TIP3    H215514   2.922   2.465   0.449  0.2632 -2.2643 -2.5180
 5170TIP3   OH215515   1.594   1.442   3.609  0.0723 -0.1655 -0.1252
 5170TIP3    H115516   1.653   1.456   3.535  0.8246 -1.5225  0.1893
 5170TIP3    H215517   1.587   1.347   3.617  0.8802 -0.1010  2.1933
 5171TIP3   OH215518   0.994   2.160   3.150 -0.0035 -0.2236 -0.1358
 5171TIP3    H115519   1.061   2.097   3.124  1.2103  0.2581  1.6795
 5171TIP3    H215520   0.963   2.129   3.235  1.2670  2.0591  1.2462
 5172TIP3   OH215521   3.516   3.436   1.022 -0.6822  0.2288  0.0533
 5172TIP3    H115522   3.501   3.460   1.113  1.5463 -0.1285  0.5650
 5172TIP3    H215523   3.611   3.441   1.011 -0.9178  0.6382 -2.3711
 5173TIP3   OH215524   4.453   0.091   5.128 -0.9536  0.1411 -0.3095
 5173TIP3    H115525   4.414   0.084   5.041  0.0199  0.2894 -0.7726
 5173TIP3    H215526   4.490   0.005   5.145 -1.6379 -0.0589  0.2136
 5174TIP3   OH215527   1.426   2.828   0.703  0.4113 -0.6435  0.2078
 5174TIP3    H115528   1.457   2.858   0.789 -0.7235  1.1639  0.0359
 5174TIP3    H215529   1.344   2.875   0.689 -0.1020 -1.9062 -1.3081
 5175TIP3   OH215530   2.775   3.418   3.026  0.1449 -0.1392 -0.2229
 5175TIP3    H115531   2.722   3.346   2.993  0.8526 -1.5041  1.4504
 5175TIP3    H215532   2.862   3.403   2.991  0.0235  0.6430 -0.8889
 5176TIP3   OH215533   0.880   2.733   3.898 -0.6189 -0.1663 -0.0149
 5176TIP3    H115534   0.967   2.698   3.919 -0.5190 -1.8891 -2.8272
 5176TIP3    H215535   0.898   2.814   3.851 -0.5496 -0.3696 -0.3377
 5177TIP3   OH215536   6.246   5.719   4.414  0.2371  0.0174 -0.1964
 5177TIP3    H115537   6.205   5.784   4.358 -1.3220  0.5130  1.3952
 5177TIP3    H215538   6.319   5.764   4.455 -0.3607  0.5570  0.3011
 5178TIP3   OH215539   1.623   5.448   2.168 -0.0663  0.4647 -0.1529
 5178TIP3    H115540   1.591   5.438   2.258 -0.9806 -0.8543 -0.5882
 5178TIP3    H215541   1.708   5.491   2.177  0.2804 -0.4518  1.4115
 5179TIP3   OH215542   0.416   5.366   2.760 -0.5700  0.1678  0.0785
 5179TIP3    H115543   0.509   5.384   2.751 -0.4639  0.5085  1.5376
 5179TIP3    H215544   0.411   5.302   2.830 -1.3809 -0.5854 -0.6541
 5180TIP3   OH215545   5.510   3.571   4.403 -0.4533  0.2449  0.0185
 5180TIP3    H115546   5.497   3.664   4.420  0.5066  0.7422 -1.7637
 5180TIP3    H215547   5.563   3.568   4.324 -1.6482 -1.8490 -0.7738
 5181TIP3   OH215548   5.135   3.969   3.899 -0.0342  0.3094 -0.2380
 5181TIP3    H115549   5.072   3.936   3.835  1.3970 -0.5896 -1.2530
 5181TIP3    H215550   5.094   3.955   3.984 -0.6243 -1.5626 -0.7951
 5182TIP3   OH215551   1.047   2.018   3.398  0.4889 -0.1802  0.1114
 5182TIP3    H115552   1.057   1.947   3.462 -0.2694 -0.5432 -0.1600
 5182TIP3    H215553   1.122   2.075   3.414  0.8258 -0.7663  0.6894
 5183TIP3   OH215554   4.843   0.719   3.227 -0.6761  0.1026 -0.0516
 5183TIP3    H115555   4.930   0.690   3.256 -1.2921 -1.4924  0.2799
 5183TIP3    H215556   4.835   0.684   3.138 -0.6802  0.9324 -0.3868
 5184TIP3   OH215557   1.520   4.942   1.463  0.1322 -0.1096 -0.3364
 5184TIP3    H115558   1.451   4.876   1.458 -0.0014  0.1293 -1.8113
 5184TIP3    H215559   1.504   5.000   1.389  0.7613  1.0952  0.4398
 5185TIP3   OH215560   1.574   4.834   4.684 -0.3818 -0.0666  0.7636
 5185TIP3    H115561   1.486   4.818   4.718 -0.0667 -1.8895  0.8235
 5185TIP3    H215562   1.560   4.869   4.596 -1.1651  2.2043  1.7169
 5186TIP3   OH215563   2.765   1.305   0.446  0.4229 -0.2836  0.0588
 5186TIP3    H115564   2.673   1.331   0.434  0.6917  1.3717  1.2625
 5186TIP3    H215565   2.763   1.209   0.447 -0.9656 -0.3382 -2.1813
 5187TIP3   OH215566   3.539   5.446   2.180  0.1329 -0.8248 -0.0200
 5187TIP3    H115567   3.494   5.506   2.120 -1.3016  0.4683  2.2156
 5187TIP3    H215568   3.494   5.362   2.168  0.1348 -0.6967 -1.0033
 5188TIP3   OH215569   6.288   1.270   3.164 -0.1746 -0.2494 -0.0156
 5188TIP3    H115570   6.375   1.252   3.128  0.2291  1.1983  0.1850
 5188TIP3    H215571   6.230   1.207   3.119  0.6297  0.2038 -1.7504
 5189TIP3   OH215572   5.903   4.580   2.220  0.3712  0.9490  1.1145
 5189TIP3    H115573   5.892   4.673   2.242  3.0611  1.4122  0.8088
 5189TIP3    H215574   5.962   4.546   2.287  0.4164 -0.2384  0.4941
 5190TIP3   OH215575   2.176   5.960   4.951 -0.0420 -0.3708 -0.4893
 5190TIP3    H115576   2.099   5.918   4.988 -1.4108  2.5477  0.2477
 5190TIP3    H215577   2.152   5.978   4.860 -0.6772  1.3928 -0.0061
 5191TIP3   OH215578   0.762   0.922   3.985 -0.0697  0.2927 -0.1804
 5191TIP3    H115579   0.829   0.861   4.014 -1.5198 -0.8558  0.9157
 5191TIP3    H215580   0.758   0.989   4.053  2.6406  2.6722 -2.1391
 5192TIP3   OH215581   2.543   2.874   3.056  0.3929  0.1658 -0.0699
 5192TIP3    H115582   2.603   2.820   3.108  0.3760  0.1559 -0.0605
 5192TIP3    H215583   2.464   2.881   3.111  0.7805  1.0751  0.3895
 5193TIP3   OH215584   1.071   0.568   2.487 -0.3044 -0.3767  0.2061
 5193TIP3    H115585   1.098   0.597   2.574  0.7052  0.7959 -0.4655
 5193TIP3    H215586   1.113   0.483   2.476  0.8951  0.1829  0.2751
 5194TIP3   OH215587   0.260   1.872   4.523  0.4774  0.3807 -0.1394
 5194TIP3    H115588   0.170   1.844   4.538 -0.0144  1.4047 -1.0241
 5194TIP3    H215589   0.263   1.895   4.431  1.3303  1.4374  0.1282
 5195TIP3   OH215590   2.475   5.926   4.452 -0.2501 -0.2302 -0.5036
 5195TIP3    H115591   2.525   5.967   4.524 -0.0743 -1.3903  0.0569
 5195TIP3    H215592   2.399   5.983   4.441  0.3518  0.6514 -0.2408
 5196TIP3   OH215593   2.429   4.340   2.838 -0.2447  0.1077  0.0951
 5196TIP3    H115594   2.439   4.421   2.789  0.6486 -0.0351  0.0325
 5196TIP3    H215595   2.336   4.319   2.831 -0.0324 -0.3276 -2.1903
 5197TIP3   OH215596   0.297   4.390   1.902 -0.4376 -0.1039  0.0954
 5197TIP3    H115597   0.334   4.312   1.862 -1.9877 -2.2082  2.4305
 5197TIP3    H215598   0.249   4.434   1.832  0.3957 -1.2929 -1.2510
 5198TIP3   OH215599   3.396   4.504   4.818 -0.0691 -0.3866 -0.0317
 5198TIP3    H115600   3.346   4.430   4.786  0.0609  0.0003 -1.1809
 5198TIP3    H215601   3.443   4.470   4.895 -0.4609 -1.3197 -0.1932
 5199TIP3   OH215602   0.672   5.242   3.244  0.3719  0.0757  0.0087
 5199TIP3    H115603   0.697   5.294   3.167  1.2625  1.8077  1.3895
 5199TIP3    H215604   0.635   5.306   3.305 -0.5806 -1.3038  0.9295
 5200TIP3   OH215605   4.772   2.999   3.594 -0.2423 -0.0693 -0.0010
 5200TIP3    H115606   4.833   2.987   3.521 -0.3977  1.3474 -0.4080
 5200TIP3    H215607   4.698   2.942   3.572 -0.5563  0.7884 -1.2946
 5201TIP3   OH215608   4.857   0.947   0.649  0.5516 -0.3679  0.0104
 5201TIP3    H115609   4.787   0.969   0.588  1.0913  0.5832 -0.2962
 5201TIP3    H215610   4.904   0.875   0.606  0.9116  0.2772 -0.7012
 5202TIP3   OH215611   4.584   1.901   0.187  0.1516  0.1996  0.6912
 5202TIP3    H115612   4.644   1.966   0.224  0.4447  0.4542 -0.2013
 5202TIP3    H215613   4.598   1.823   0.240 -0.3344  0.9039  1.8969
 5203TIP3   OH215614   3.654   2.118   0.691 -0.0733 -0.2558 -0.4030
 5203TIP3    H115615   3.705   2.075   0.760  0.1821  0.1628 -0.3251
 5203TIP3    H215616   3.710   2.191   0.662  0.5970 -1.4244 -2.2584
 5204TIP3   OH215617   5.853   5.739   4.330 -0.1437  0.0106  0.0809
 5204TIP3    H115618   5.884   5.652   4.304 -0.3014  0.0547 -0.2539
 5204TIP3    H215619   5.772   5.722   4.378 -0.6156  0.0246 -0.6939
 5205TIP3   OH215620   4.672   0.580   0.798 -0.0220  0.3237 -0.0433
 5205TIP3    H115621   4.733   0.507   0.810 -0.7171 -0.5774 -1.5967
 5205TIP3    H215622   4.696   0.617   0.712  0.1342  1.7711  0.5942
 5206TIP3   OH215623   2.543   2.838   0.932  0.4348  0.1865 -0.0523
 5206TIP3    H115624   2.560   2.812   1.023  0.4081 -0.3602 -0.1994
 5206TIP3    H215625   2.488   2.916   0.939 -0.1791 -0.2782  0.3948
 5207TIP3   OH215626   1.888   4.226   3.951  0.5957  0.0305 -0.0953
 5207TIP3    H115627   1.865   4.198   4.039  0.3353  1.0594  0.1818
 5207TIP3    H215628   1.863   4.153   3.895  0.5451 -0.5394  0.6587
 5208TIP3   OH215629   1.249   4.812   1.777  0.1662 -0.0815 -0.0573
 5208TIP3    H115630   1.170   4.803   1.831 -0.0280  1.1115 -0.1151
 5208TIP3    H215631   1.219   4.791   1.688  0.5717 -2.4359  0.2929
 5209TIP3   OH215632   1.917   0.991   1.288 -0.4093  0.8467 -0.2847
 5209TIP3    H115633   1.851   1.022   1.227 -0.4188  0.3265 -0.5411
 5209TIP3    H215634   1.967   1.070   1.312  0.0140  0.9549 -1.4649
 5210TIP3   OH215635   4.669   3.918   0.633 -0.1310  0.1655 -0.0800
 5210TIP3    H115636   4.726   3.926   0.710  0.2714  0.0703 -0.3702
 5210TIP3    H215637   4.660   3.824   0.619  1.8343  0.1566 -1.6516
 5211TIP3   OH215638   2.947   0.339   3.538 -0.0106  0.2277 -0.7486
 5211TIP3    H115639   3.042   0.351   3.544 -0.0431  0.2082 -0.1041
 5211TIP3    H215640   2.921   0.392   3.463  0.2642  1.7436  0.1848
 5212TIP3   OH215641   4.545   0.905   2.235 -0.3997 -0.4339 -0.1357
 5212TIP3    H115642   4.522   0.920   2.143 -2.9108 -1.4367  0.2520
 5212TIP3    H215643   4.499   0.974   2.283  0.2981 -0.3665  0.4589
 5213TIP3   OH215644   2.080   0.980   2.916 -0.0423 -0.0979 -0.2097
 5213TIP3    H115645   2.050   0.900   2.874 -0.0672 -0.2444  0.0811
 5213TIP3    H215646   2.081   1.045   2.846 -0.5445 -0.2182 -0.3359
 5214TIP3   OH215647   0.716   1.150   0.949 -0.2238 -0.2200 -0.2430
 5214TIP3    H115648   0.756   1.173   0.865 -1.4695 -0.7355 -1.0161
 5214TIP3    H215649   0.659   1.225   0.970 -0.5572 -0.4553 -0.2953
 5215TIP3   OH215650   0.401   4.498   0.574  0.0225  0.5941  0.6994
 5215TIP3    H115651   0.351   4.544   0.641  1.4113 -0.3940  2.5197
 5215TIP3    H215652   0.477   4.553   0.558  0.5883  0.0063  1.2832
 5216TIP3   OH215653   4.399   4.427   1.625  0.5165  0.1233  0.4799
 5216TIP3    H115654   4.335   4.436   1.695 -0.3656  1.6394 -0.4587
 5216TIP3    H215655   4.347   4.427   1.545  1.5161 -1.4387 -0.2086
 5217TIP3   OH215656   0.071   1.814   4.867 -0.1992  0.2615  0.2152
 5217TIP3    H115657   0.064   1.909   4.876  2.3877  0.6844 -1.1111
 5217TIP3    H215658   0.112   1.785   4.949 -1.9025  0.1026  1.0431
 5218TIP3   OH215659   2.676   5.165   3.833 -0.0959  0.1248 -0.3168
 5218TIP3    H115660   2.611   5.195   3.897 -1.3369  0.8117 -1.8614
 5218TIP3    H215661   2.682   5.236   3.769 -0.6242 -1.4949 -2.2397
 5219TIP3   OH215662   2.175   5.036   1.529 -0.4217  0.0249 -0.5338
 5219TIP3    H115663   2.248   5.008   1.585 -1.2570 -0.1690  0.4889
 5219TIP3    H215664   2.136   5.110   1.577 -0.6532  0.3914 -1.2729
 5220TIP3   OH215665   5.802   5.339   3.931 -0.1743 -0.2367  0.1961
 5220TIP3    H115666   5.773   5.257   3.892  0.2786 -0.5973  0.6029
 5220TIP3    H215667   5.780   5.331   4.023 -0.6105  0.3214  0.1418
 5221TIP3   OH215668   6.120   0.693   4.802  0.1291 -0.1605 -1.0620
 5221TIP3    H115669   6.041   0.640   4.797  0.4731 -1.1027  1.6725
 5221TIP3    H215670   6.099   0.774   4.755 -1.4937 -1.4373 -2.6389
 5222TIP3   OH215671   6.132   3.064   4.409  0.9417 -0.5279  0.0495
 5222TIP3    H115672   6.164   3.058   4.320 -1.3194  0.2433 -0.9036
 5222TIP3    H215673   6.089   3.149   4.414 -2.8135 -2.2177  0.3803
 5223TIP3   OH215674   2.479   0.465   1.290  0.3415 -0.1832  0.0607
 5223TIP3    H115675   2.482   0.508   1.205  0.3811  3.1647  1.5915
 5223TIP3    H215676   2.396   0.417   1.291 -0.3735  0.9792 -1.3134
 5224TIP3   OH215677   5.563   1.957   1.558 -0.3041  0.4008 -0.2200
 5224TIP3    H115678   5.653   1.989   1.557 -0.1682  0.0138 -1.5752
 5224TIP3    H215679   5.542   1.948   1.651  0.6996  1.4611  0.1370
 5225TIP3   OH215680   0.254   1.733   3.552  0.0531  0.0174  0.0300
 5225TIP3    H115681   0.324   1.784   3.511  1.8867 -1.3440  1.2842
 5225TIP3    H215682   0.217   1.791   3.618 -1.2040  1.3366 -1.7484
 5226TIP3   OH215683   4.190   1.222   2.996 -0.0730 -0.1735 -0.2184
 5226TIP3    H115684   4.176   1.144   2.942  1.0030  0.0507 -0.8590
 5226TIP3    H215685   4.225   1.189   3.078  0.9898 -0.3497 -0.7206
 5227TIP3   OH215686   5.038   1.117   1.666  0.4095  0.0172  0.2515
 5227TIP3    H115687   5.106   1.130   1.600  0.4733 -0.2624  0.2636
 5227TIP3    H215688   5.001   1.031   1.647 -1.3439  0.9931 -1.0236
 5228TIP3   OH215689   5.951   1.947   3.484  0.3896 -0.0214 -0.2388
 5228TIP3    H115690   5.941   1.991   3.400  0.1997  1.1150  0.3660
 5228TIP3    H215691   5.864   1.947   3.522  0.7063  0.6467  0.5188
 5229TIP3   OH215692   5.762   1.457   2.838  0.2243 -0.0687  0.0007
 5229TIP3    H115693   5.671   1.466   2.810 -0.1069 -0.6365  0.8402
 5229TIP3    H215694   5.789   1.371   2.806 -0.0445 -0.5688  1.0635
 5230TIP3   OH215695   0.517   1.385   3.552 -0.2485  0.5926 -0.0408
 5230TIP3    H115696   0.491   1.434   3.474 -0.7030  0.8137  0.2449
 5230TIP3    H215697   0.480   1.435   3.625 -1.1663 -0.4335  0.2292
 5231TIP3   OH215698   5.402   5.794   1.929 -0.4100  1.0730  0.0114
 5231TIP3    H115699   5.344   5.855   1.975 -0.3511  0.2390  1.2695
 5231TIP3    H215700   5.356   5.771   1.849 -1.2456  1.3873  0.3978
 5232TIP3   OH215701   5.390   0.039   3.558  0.1344  0.2874  0.3595
 5232TIP3    H115702   5.481   0.066   3.570  0.8149 -1.3097 -0.7452
 5232TIP3    H215703   5.370   0.063   3.467 -0.8439  1.3962  0.8561
 5233TIP3   OH215704   5.761   4.941   0.073 -0.5782  0.4583  0.4712
 5233TIP3    H115705   5.731   5.017   0.123  2.7415  2.1248  0.1865
 5233TIP3    H215706   5.818   4.894   0.133 -0.6050 -0.4168 -0.1697
 5234TIP3   OH215707   2.881   0.815   3.792 -0.1058  0.1368  0.0724
 5234TIP3    H115708   2.936   0.870   3.736 -0.5945  0.7386  0.1750
 5234TIP3    H215709   2.870   0.866   3.872 -1.3866  0.3358 -0.2098
 5235TIP3   OH215710   6.320   1.558   3.233  0.6215  0.4416  0.2454
 5235TIP3    H115711   6.389   1.521   3.179 -0.1335  0.1435 -0.5442
 5235TIP3    H215712   6.270   1.482   3.264  0.5061  0.6653  0.6176
 5236TIP3   OH215713   4.433   3.174   4.562  0.2992  0.3850 -0.0024
 5236TIP3    H115714   4.426   3.227   4.482 -1.5090  0.0766 -0.0938
 5236TIP3    H215715   4.503   3.215   4.612  0.0001  1.9194 -0.7743
 5237TIP3   OH215716   0.379   2.609   0.751 -0.2227  0.1052  0.7126
 5237TIP3    H115717   0.424   2.653   0.823 -0.9420 -0.0277  1.2613
 5237TIP3    H215718   0.296   2.656   0.742  0.0081  0.3369 -0.2658
 5238TIP3   OH215719   1.979   4.985   1.362  0.1472  0.1285 -1.0640
 5238TIP3    H115720   2.047   4.999   1.428  1.5201 -0.4435 -2.2759
 5238TIP3    H215721   1.922   5.061   1.369 -0.3062 -0.3610  1.3700
 5239TIP3   OH215722   0.451   0.671   4.428  0.4159  0.2747  0.3794
 5239TIP3    H115723   0.411   0.679   4.515  1.8710 -1.0900  1.2084
 5239TIP3    H215724   0.543   0.693   4.441  0.3810  1.4906 -1.1325
 5240TIP3   OH215725   4.391   4.837   0.467  0.6510  0.5320  0.7781
 5240TIP3    H115726   4.376   4.742   0.469  1.0082  0.4792  1.1539
 5240TIP3    H215727   4.474   4.848   0.421 -0.2699  0.7974 -0.9085
 5241TIP3   OH215728   2.086   3.021   0.827  0.0194  0.0013 -0.3321
 5241TIP3    H115729   2.053   2.943   0.871 -1.3196  0.3570 -0.6674
 5241TIP3    H215730   2.161   2.990   0.777 -0.3623 -1.0380 -0.2864
 5242TIP3   OH215731   3.193   1.008   3.251  0.0818  0.1732  0.2979
 5242TIP3    H115732   3.137   1.063   3.305 -1.6237  2.2889 -3.2775
 5242TIP3    H215733   3.137   0.935   3.224  0.6703 -0.4299  0.6427
 5243TIP3   OH215734   2.638   4.796   1.577 -0.1335 -0.3115 -0.2820
 5243TIP3    H115735   2.547   4.821   1.590  0.1645  0.5237  0.2634
 5243TIP3    H215736   2.673   4.785   1.666  0.9409  1.8093 -0.3873
 5244TIP3   OH215737   5.382   4.941   2.260  0.2376  0.1754  0.3207
 5244TIP3    H115738   5.388   4.951   2.165  1.1997  0.5795  0.4094
 5244TIP3    H215739   5.290   4.958   2.280 -0.0704 -0.3673 -0.5831
 5245TIP3   OH215740   2.567   1.259   4.350 -0.0808 -0.5167 -0.0082
 5245TIP3    H115741   2.491   1.316   4.351  0.3152  0.0187 -0.2301
 5245TIP3    H215742   2.603   1.268   4.262 -0.5184 -1.7828 -0.3431
 5246TIP3   OH215743   4.299   0.720   2.731  0.2367  0.0460  0.4618
 5246TIP3    H115744   4.235   0.668   2.780  0.4351 -1.1533 -0.4968
 5246TIP3    H215745   4.382   0.674   2.743  0.2505 -0.4367 -1.1460
 5247TIP3   OH215746   3.566   2.707   0.457  0.0867 -0.2273  0.4107
 5247TIP3    H115747   3.489   2.702   0.400  0.0399  1.1348  0.3269
 5247TIP3    H215748   3.607   2.621   0.449 -1.0674 -0.7558 -0.0493
 5248TIP3   OH215749   4.232   5.666   2.438  0.2718 -0.7023  0.1116
 5248TIP3    H115750   4.163   5.728   2.416  2.3308  0.7240 -3.0701
 5248TIP3    H215751   4.222   5.595   2.375  0.3350 -1.6815  1.1660
 5249TIP3   OH215752   6.362   0.957   1.767 -0.5189  0.0612 -0.2625
 5249TIP3    H115753   6.308   0.921   1.696 -0.1668 -0.3404 -0.3290
 5249TIP3    H215754   6.334   0.908   1.844 -1.7029  1.2573  0.1216
 5250TIP3   OH215755   3.377   0.335   1.577  0.1402  0.2216 -0.1487
 5250TIP3    H115756   3.406   0.405   1.636  2.3354 -0.3469 -0.4602
 5250TIP3    H215757   3.419   0.356   1.493  1.2369 -1.6747 -0.1295
 5251TIP3   OH215758   4.490   3.617   2.083 -0.8270  0.2682 -0.3584
 5251TIP3    H115759   4.507   3.612   1.989 -0.2276  1.7495 -0.3694
 5251TIP3    H215760   4.533   3.699   2.110 -1.4875  0.1644  1.0917
 5252TIP3   OH215761   2.412   1.456   2.280  0.3556  0.1753  0.4730
 5252TIP3    H115762   2.424   1.366   2.309  0.2735  0.6585  2.1739
 5252TIP3    H215763   2.473   1.507   2.334 -1.5130  1.4121  1.5701
 5253TIP3   OH215764   2.779   5.334   1.464  0.3174 -0.6866  0.4902
 5253TIP3    H115765   2.769   5.373   1.378 -1.0119  1.2888  1.4694
 5253TIP3    H215766   2.871   5.349   1.488  0.2256  0.4268  0.1743
 5254TIP3   OH215767   4.448   0.545   3.714  0.4791 -0.0021  0.1491
 5254TIP3    H115768   4.398   0.595   3.779 -1.2744 -0.5669 -0.6800
 5254TIP3    H215769   4.443   0.599   3.634  1.1252 -0.1164  0.0325
 5255TIP3   OH215770   1.976   4.770   4.045  0.1406 -0.0128  0.4026
 5255TIP3    H115771   1.957   4.834   4.113 -0.6798 -1.3235  1.4430
 5255TIP3    H215772   1.922   4.798   3.970  0.1162  0.7371  0.6954
 5256TIP3   OH215773   1.622   4.404   2.651  0.1407  0.2293  0.1242
 5256TIP3    H115774   1.549   4.395   2.591 -0.4480  1.2100  0.6676
 5256TIP3    H215775   1.699   4.376   2.601 -0.6145 -1.0125 -0.3855
 5257TIP3   OH215776   3.378   3.004   4.562 -0.3264 -0.3232  0.1455
 5257TIP3    H115777   3.430   2.951   4.622 -0.4146  0.2395  0.7310
 5257TIP3    H215778   3.338   3.070   4.617  0.2467  0.7220 -0.6598
 5258TIP3   OH215779   5.881   0.940   0.664  0.4186  0.1531  0.1911
 5258TIP3    H115780   5.944   0.928   0.735 -0.6765  1.4359  1.4753
 5258TIP3    H215781   5.847   0.853   0.646  3.1415 -0.7210 -1.1875
 5259TIP3   OH215782   1.382   3.863   0.414  0.4480 -0.3740 -0.4543
 5259TIP3    H115783   1.370   3.804   0.489 -0.5258 -0.9301 -1.0192
 5259TIP3    H215784   1.463   3.834   0.373  0.4814 -0.6860 -0.1716
 5260TIP3   OH215785   1.240   4.951   5.019 -0.2007  0.1827 -0.0952
 5260TIP3    H115786   1.250   5.021   5.083  1.8645 -1.1103  1.1080
 5260TIP3    H215787   1.272   4.988   4.937  3.1433  0.0628  1.0099
 5261TIP3   OH215788   6.006   4.341   3.812 -0.1393  0.2891  0.2443
 5261TIP3    H115789   5.976   4.261   3.856  0.2128 -1.2204 -2.0641
 5261TIP3    H215790   5.948   4.409   3.844  0.1173 -0.6543  2.9915
 5262TIP3   OH215791   6.000   4.273   4.162 -0.6408  0.0288 -0.4043
 5262TIP3    H115792   6.029   4.187   4.133 -1.7846 -0.3564 -0.4659
 5262TIP3    H215793   6.054   4.292   4.239 -0.6286 -0.9138 -0.1682
 5263TIP3   OH215794   5.218   1.138   1.472  0.4163 -0.4843  0.0623
 5263TIP3    H115795   5.297   1.088   1.450 -0.7896 -2.4334 -0.1156
 5263TIP3    H215796   5.226   1.219   1.421  2.1961 -0.7177 -0.0916
 5264TIP3   OH215797   0.427   1.037   2.780  0.0829  0.1833 -0.2288
 5264TIP3    H115798   0.428   1.079   2.866 -0.0960  1.4735 -0.8334
 5264TIP3    H215799   0.425   1.110   2.718  0.7054 -0.7179 -1.3414
 5265TIP3   OH215800   1.407   0.846   2.474 -0.3924 -0.1368  0.3520
 5265TIP3    H115801   1.330   0.902   2.475 -0.0962  0.4575 -2.2805
 5265TIP3    H215802   1.437   0.845   2.565 -3.2087 -0.0566  1.3661
 5266TIP3   OH215803   3.705   3.127   0.234  0.5130  0.1438 -0.3275
 5266TIP3    H115804   3.738   3.206   0.192  0.3620  0.3916  0.0212
 5266TIP3    H215805   3.633   3.098   0.179  0.7483  0.0930 -0.6082
 5267TIP3   OH215806   3.051   1.974   1.977 -0.4719 -0.3505  0.3379
 5267TIP3    H115807   3.098   2.055   1.997  0.2833 -0.6669 -0.1507
 5267TIP3    H215808   3.012   1.989   1.891 -1.1779 -0.1409  0.6792
 5268TIP3   OH215809   5.900   1.371   1.268  0.6661 -0.2010 -0.1549
 5268TIP3    H115810   5.901   1.275   1.271 -0.6210 -0.2603 -0.9211
 5268TIP3    H215811   5.888   1.392   1.175 -0.5899  0.6652  0.1774
 5269TIP3   OH215812   2.755   3.076   0.794 -0.3332 -0.0324  0.1149
 5269TIP3    H115813   2.734   2.997   0.745  0.5810 -1.5801  2.0445
 5269TIP3    H215814   2.849   3.088   0.781 -0.3743  0.4410  0.2478
 5270TIP3   OH215815   3.138   5.815   3.420  0.3999  0.3328  0.4002
 5270TIP3    H115816   3.172   5.887   3.367 -3.7240  1.7422 -0.6972
 5270TIP3    H215817   3.100   5.858   3.497  1.4100 -1.1690  1.8086
 5271TIP3   OH215818   0.282   5.927   2.906  0.2622 -0.2586  0.6385
 5271TIP3    H115819   0.246   5.910   2.819  1.4848  0.3189 -0.0076
 5271TIP3    H215820   0.230   6.000   2.940 -0.4502 -0.7153  0.5405
 5272TIP3   OH215821   0.175   2.344   2.426  0.0831 -0.1479  0.2623
 5272TIP3    H115822   0.227   2.264   2.429 -2.4176 -1.9250 -0.2703
 5272TIP3    H215823   0.136   2.344   2.338  0.4808  2.0224  0.0285
 5273TIP3   OH215824   5.607   4.184   2.317  0.2820  0.1828 -0.3402
 5273TIP3    H115825   5.660   4.250   2.274  2.4489 -0.6264  0.9157
 5273TIP3    H215826   5.589   4.119   2.249 -1.2475  1.6328 -1.3952
 5274TIP3   OH215827   4.933   0.212   3.147 -0.1435  0.4099 -0.0759
 5274TIP3    H115828   4.877   0.143   3.184  2.9119 -2.2910 -0.0223
 5274TIP3    H215829   4.953   0.182   3.059  0.1113  2.0285 -0.5938
 5275TIP3   OH215830   6.114   4.474   3.316 -0.0716 -0.0769 -0.5037
 5275TIP3    H115831   6.068   4.437   3.391 -0.7235  0.1111 -0.7967
 5275TIP3    H215832   6.046   4.481   3.248 -0.0695  1.9442 -0.3520
 5276TIP3   OH215833   1.697   0.157   4.815  0.0835  0.1182 -0.2494
 5276TIP3    H115834   1.613   0.166   4.859 -0.1353 -2.9870  0.1701
 5276TIP3    H215835   1.675   0.139   4.724  0.3644  0.7107 -0.4399
 5277TIP3   OH215836   4.546   1.363   0.331 -0.5882  0.0197 -0.3308
 5277TIP3    H115837   4.563   1.404   0.417  1.7363  2.5070 -1.8215
 5277TIP3    H215838   4.457   1.391   0.310 -1.1051 -0.4092  1.1127
 5278TIP3   OH215839   3.269   5.103   2.210 -0.2419  0.4927 -0.3276
 5278TIP3    H115840   3.325   5.158   2.154  1.1161 -1.0764 -0.5635
 5278TIP3    H215841   3.259   5.022   2.161 -2.4584  0.5789 -0.1079
 5279TIP3   OH215842   5.667   0.504   3.385 -0.0814  0.1338 -0.1926
 5279TIP3    H115843   5.576   0.477   3.391 -0.1719  0.5209  0.3159
 5279TIP3    H215844   5.699   0.500   3.476  0.5168 -0.3824 -0.4224
 5280TIP3   OH215845   6.301   2.060   2.658 -0.2093  0.2033 -0.0650
 5280TIP3    H115846   6.351   2.056   2.577  0.4083 -0.2805  0.3356
 5280TIP3    H215847   6.296   2.153   2.680 -0.8704  0.3852 -0.9568
 5281TIP3   OH215848   3.863   4.601   0.427 -0.5380  0.3613  0.3430
 5281TIP3    H115849   3.931   4.628   0.365  0.5709 -1.4706  0.6732
 5281TIP3    H215850   3.910   4.554   0.495 -2.1374 -1.1140  0.5033
 5282TIP3   OH215851   6.136   3.001   3.875  0.2845 -0.4340  0.4278
 5282TIP3    H115852   6.204   2.943   3.909  0.8716  0.2769  0.5118
 5282TIP3    H215853   6.149   3.083   3.923  1.3615  0.7246 -1.6833
 5283TIP3   OH215854   2.115   1.621   0.205  0.2122  0.4517 -0.0523
 5283TIP3    H115855   2.181   1.616   0.275  1.4901  0.5405 -1.2106
 5283TIP3    H215856   2.135   1.547   0.148  0.8948  1.8377 -1.7196
 5284TIP3   OH215857   0.764   2.625   3.650  0.4276  0.0638  0.5949
 5284TIP3    H115858   0.813   2.633   3.732  0.7744 -0.6321  0.4606
 5284TIP3    H215859   0.726   2.537   3.653  2.4978 -0.9838 -1.0885
 5285TIP3   OH215860   1.791   1.664   4.942 -0.1200 -0.2979 -0.0755
 5285TIP3    H115861   1.844   1.594   4.981 -0.6645 -2.3030 -2.6718
 5285TIP3    H215862   1.708   1.659   4.987 -0.2023 -1.4853 -0.3199
 5286TIP3   OH215863   1.631   2.667   2.411 -0.2978 -0.2154 -0.3746
 5286TIP3    H115864   1.668   2.607   2.477  1.6560  2.1714  0.8721
 5286TIP3    H215865   1.668   2.636   2.328  0.4629 -0.8951  0.1960
 5287TIP3   OH215866   0.912   3.170   0.074  0.7259 -0.2295  0.7863
 5287TIP3    H115867   0.935   3.261   0.055 -0.4110 -0.3540 -1.5812
 5287TIP3    H215868   0.932   3.123  -0.007 -0.3826 -1.7637  1.3580
 5288TIP3   OH215869   6.311   2.851   4.001 -0.1907 -0.5734 -0.1594
 5288TIP3    H115870   6.262   2.831   4.082  0.8276 -0.7754  0.4252
 5288TIP3    H215871   6.402   2.834   4.024  0.0795 -0.9723 -1.4701
 5289TIP3   OH215872   1.583   2.314   3.866  0.9301  0.6723 -0.2803
 5289TIP3    H115873   1.617   2.226   3.879  1.7597  1.2272  1.7506
 5289TIP3    H215874   1.658   2.372   3.880  0.3786  1.7168 -1.4527
 5290TIP3   OH215875   0.250   2.134   0.328  0.2485 -0.0278  0.0587
 5290TIP3    H115876   0.290   2.055   0.292  2.3615  0.0781  1.9748
 5290TIP3    H215877   0.155   2.118   0.322  0.5579 -1.5533 -1.9411
 5291TIP3   OH215878   0.597   2.925   0.042 -0.5542 -0.0555  0.3323
 5291TIP3    H115879   0.596   2.995  -0.023  1.0864  0.1442  0.4802
 5291TIP3    H215880   0.605   2.845  -0.009 -1.7427 -0.1094  0.1974
 5292TIP3   OH215881   5.404   3.009   5.107  0.3791 -0.0727 -0.1596
 5292TIP3    H115882   5.407   3.019   5.012  1.6302  2.3314  0.0439
 5292TIP3    H215883   5.485   2.965   5.130 -0.6562 -2.1703 -0.2578
 5293TIP3   OH215884   6.184   4.582   2.798 -0.6959 -0.4247 -0.0018
 5293TIP3    H115885   6.186   4.540   2.884  0.8132  0.0602  0.2308
 5293TIP3    H215886   6.248   4.533   2.746 -0.5807  0.1577 -0.4197
 5294TIP3   OH215887   1.603   3.863   0.840 -0.1800 -0.4169 -0.0653
 5294TIP3    H115888   1.585   3.810   0.763  1.1969 -2.2354  0.8002
 5294TIP3    H215889   1.532   3.842   0.902 -0.9421  0.5841 -0.5598
 5295TIP3   OH215890   3.599   5.304   4.527  0.5573 -0.4929 -0.3757
 5295TIP3    H115891   3.652   5.295   4.448 -0.4271  0.0355 -1.1201
 5295TIP3    H215892   3.510   5.315   4.495  0.1763  0.0335  0.8009
 5296TIP3   OH215893   4.919   4.347   1.107 -0.3224  0.3337 -0.2963
 5296TIP3    H115894   4.982   4.304   1.051  0.4974  0.3541  0.5824
 5296TIP3    H215895   4.935   4.441   1.095 -0.2964  0.3418 -0.2031
 5297TIP3   OH215896   0.221   4.994   0.129 -0.0904  0.1089  0.3835
 5297TIP3    H115897   0.187   4.908   0.105  0.8581  0.2923 -1.9169
 5297TIP3    H215898   0.314   4.991   0.107  0.4304  1.0819  2.2292
 5298TIP3   OH215899   0.491   5.241   1.644 -0.0090 -0.0771 -0.1779
 5298TIP3    H115900   0.542   5.292   1.707  1.7385  0.0028 -1.5481
 5298TIP3    H215901   0.550   5.233   1.568 -2.4497  0.9644 -2.3331
 5299TIP3   OH215902   5.268   1.840   4.623 -0.5453 -0.3329 -0.3893
 5299TIP3    H115903   5.255   1.935   4.623 -2.4435 -0.5668 -0.3930
 5299TIP3    H215904   5.252   1.814   4.532 -1.0481 -0.7802 -0.1748
 5300TIP3   OH215905   3.281   5.407   3.491 -0.7090  0.2825 -0.4473
 5300TIP3    H115906   3.367   5.413   3.449  1.0814 -1.7902  2.5298
 5300TIP3    H215907   3.266   5.494   3.528  1.6500 -0.0741  1.5593
 5301TIP3   OH215908   0.431   4.208   2.920  0.0039 -0.1283 -0.0732
 5301TIP3    H115909   0.383   4.160   2.987 -0.7997  0.1619 -0.4216
 5301TIP3    H215910   0.387   4.184   2.838  0.4746  0.1257 -0.4014
 5302TIP3   OH215911   2.217   5.199   0.793 -0.4711  0.1109  0.1289
 5302TIP3    H115912   2.301   5.159   0.771  0.0552  1.5376 -0.5679
 5302TIP3    H215913   2.183   5.146   0.865  0.0064 -1.7808 -0.9891
 5303TIP3   OH215914   0.189   1.503   3.085 -0.1586  0.3327 -0.1067
 5303TIP3    H115915   0.188   1.564   3.011 -0.6534  0.4398 -0.0136
 5303TIP3    H215916   0.200   1.417   3.045 -0.2970  0.4036 -0.2980
 5304TIP3   OH215917   2.758   2.473   1.943 -0.3760  0.8556 -0.8089
 5304TIP3    H115918   2.815   2.396   1.932  0.3269  1.3101 -0.4108
 5304TIP3    H215919   2.776   2.503   2.032  0.1313  2.1005 -1.3187
 5305TIP3   OH215920   3.477   2.996   2.571  0.4383  0.6003  0.0938
 5305TIP3    H115921   3.393   2.982   2.527  0.9701  0.6540 -0.9956
 5305TIP3    H215922   3.478   2.933   2.642 -0.2997  0.2198 -0.2236
 5306TIP3   OH215923   0.239   2.915   2.842  0.4034 -0.5370  0.3274
 5306TIP3    H115924   0.168   2.953   2.791  0.7471 -0.1079  0.1674
 5306TIP3    H215925   0.310   2.979   2.837  0.2254 -0.1754  1.8696
 5307TIP3   OH215926   5.730   5.325   2.751 -0.1309 -0.2892  0.1745
 5307TIP3    H115927   5.825   5.320   2.763 -0.1523  0.4673  0.7499
 5307TIP3    H215928   5.704   5.237   2.725  0.7799 -0.4097 -0.3452
 5308TIP3   OH215929   2.196   1.452   0.757  0.3588 -0.4171  0.2162
 5308TIP3    H115930   2.112   1.423   0.791  1.0847 -0.1675  2.4300
 5308TIP3    H215931   2.235   1.374   0.718  0.1371 -1.1840  1.4717
 5309TIP3   OH215932   1.272   1.560   5.098 -0.3859 -0.0122  0.5051
 5309TIP3    H115933   1.177   1.552   5.096 -0.3191 -0.9917  0.6991
 5309TIP3    H215934   1.300   1.495   5.162  0.5332 -1.1004 -0.9396
 5310TIP3   OH215935   5.706   2.286   3.866  0.3033  0.1148 -0.5531
 5310TIP3    H115936   5.721   2.351   3.935 -0.2618 -1.5907  1.2482
 5310TIP3    H215937   5.633   2.322   3.815 -0.4569  0.5655  0.8276
 5311TIP3   OH215938   2.477  -0.001   4.360 -0.4131 -0.2932  0.6940
 5311TIP3    H115939   2.571  -0.019   4.365 -0.5473 -0.8926  1.2025
 5311TIP3    H215940   2.464   0.078   4.413 -0.0395  0.4490 -0.2965
 5312TIP3   OH215941   5.069   1.415   3.801 -0.0299  0.0970 -0.0409
 5312TIP3    H115942   5.053   1.330   3.761 -0.6373  0.0660  0.2439
 5312TIP3    H215943   5.006   1.420   3.873  0.3404  0.5787  0.2609
 5313TIP3   OH215944   1.700   3.590   1.139 -0.5267  0.4919 -0.0310
 5313TIP3    H115945   1.643   3.569   1.065 -0.9462  2.5268 -0.3503
 5313TIP3    H215946   1.783   3.547   1.119 -1.9336 -2.8226  0.5999
 5314TIP3   OH215947   0.362   4.681   1.344  0.2025  0.2778  0.0723
 5314TIP3    H115948   0.367   4.629   1.263  1.2140 -0.5373  0.6350
 5314TIP3    H215949   0.436   4.740   1.339  0.9740 -0.5840  0.9270
 5315TIP3   OH215950   4.851   4.988   2.511  0.1465  0.0360 -0.0441
 5315TIP3    H115951   4.767   4.957   2.544  0.0377 -0.9762 -1.1918
 5315TIP3    H215952   4.880   4.919   2.451  0.1742  1.9243 -2.3156
 5316TIP3   OH215953   2.097   1.763   0.483 -0.3287 -0.1429  0.3597
 5316TIP3    H115954   2.076   1.820   0.557 -0.4954 -0.5004  0.5908
 5316TIP3    H215955   2.163   1.811   0.433 -0.5713  0.3140  0.4751
 5317TIP3   OH215956   2.001   5.296   3.321 -0.2291  0.1175 -0.4311
 5317TIP3    H115957   2.052   5.343   3.387  0.4544 -1.9433  0.5986
 5317TIP3    H215958   2.023   5.339   3.239  0.0197  1.8427  0.4942
 5318TIP3   OH215959   2.996   3.664   0.500  0.1250  0.3927 -0.3142
 5318TIP3    H115960   2.974   3.673   0.408  2.0641 -0.3423 -0.8864
 5318TIP3    H215961   3.046   3.743   0.522 -1.6715  1.3583  0.5955
 5319TIP3   OH215962   4.962   4.207   0.873 -0.4159  0.0106  0.5357
 5319TIP3    H115963   4.921   4.288   0.841 -0.0230 -0.2679 -0.7354
 5319TIP3    H215964   4.952   4.145   0.800  2.5514  0.0204  0.0123
 5320TIP3   OH215965   2.684   3.833   1.324  0.6949 -0.2833 -0.5618
 5320TIP3    H115966   2.734   3.898   1.374 -1.1096  1.9302 -1.5168
 5320TIP3    H215967   2.613   3.807   1.383  0.5638 -0.3004 -0.7290
 5321TIP3   OH215968   0.828   3.199   4.991 -1.1183  0.3892  0.5109
 5321TIP3    H115969   0.787   3.157   5.066 -2.5482 -2.7407 -1.8169
 5321TIP3    H215970   0.755   3.237   4.942 -0.4192  0.8384 -0.2024
 5322TIP3   OH215971   1.863   0.097   5.065  0.1851  0.3704  0.0049
 5322TIP3    H115972   1.856   0.119   4.972  0.7798  3.5216  0.5653
 5322TIP3    H215973   1.800   0.026   5.078 -1.0933  0.9155 -2.5036
 5323TIP3   OH215974   4.484   1.471   2.837  0.3169 -0.1947  0.1016
 5323TIP3    H115975   4.442   1.515   2.911  0.2857 -0.8600  0.4858
 5323TIP3    H215976   4.571   1.449   2.868  0.6700  0.4405 -0.4168
 5324TIP3   OH215977   1.025   4.275   0.738  0.4654 -0.4351 -0.6322
 5324TIP3    H115978   1.017   4.308   0.827  0.3242 -0.6284 -0.5736
 5324TIP3    H215979   1.073   4.344   0.691 -0.0665 -0.0207 -0.5761
 5325TIP3   OH215980   4.031   4.605   2.184 -0.5360 -0.2194 -0.0653
 5325TIP3    H115981   4.078   4.535   2.139  1.0498  2.0687 -2.2313
 5325TIP3    H215982   4.041   4.682   2.128  0.5366  2.5994  3.5373
 5326TIP3   OH215983   3.179   3.319   0.032 -0.3392  0.1578  0.4186
 5326TIP3    H115984   3.089   3.351   0.041  0.4216  1.9399  3.2820
 5326TIP3    H215985   3.233   3.390   0.067  2.1940 -1.0169 -0.8114
 5327TIP3   OH215986   2.573   1.508   0.131 -0.1603  0.1758 -0.2500
 5327TIP3    H115987   2.513   1.534   0.061 -0.3643  0.1279 -0.0940
 5327TIP3    H215988   2.571   1.412   0.130  1.3073  0.1206 -1.4449
 5328TIP3   OH215989   2.825   0.418   0.153 -0.2489 -0.1159 -0.0747
 5328TIP3    H115990   2.893   0.352   0.168 -0.0199  0.3504  1.0247
 5328TIP3    H215991   2.759   0.372   0.101  1.6515 -0.1057 -2.7302
 5329TIP3   OH215992   0.599   3.959   3.803 -0.2085  0.5555  0.4915
 5329TIP3    H115993   0.526   3.950   3.865 -0.7507 -0.2361 -0.2457
 5329TIP3    H215994   0.578   3.899   3.732  2.2484 -1.4020  1.2644
 5330TIP3   OH215995   0.683   2.204   3.928 -0.0019 -0.6101 -0.3060
 5330TIP3    H115996   0.680   2.298   3.943 -1.0546 -0.7216  0.2830
 5330TIP3    H215997   0.720   2.194   3.841  0.8851  0.3108 -0.0547
 5331TIP3   OH215998   4.415   2.932   0.018  0.3277 -0.0475 -0.2097
 5331TIP3    H115999   4.449   2.923   0.107 -0.8869  0.4193  0.3208
 5331TIP3    H216000   4.478   2.885  -0.036  1.4716  0.2565  0.8042
 5332TIP3   OH216001   5.520   1.150   1.319 -0.5044 -0.2976  0.1711
 5332TIP3    H116002   5.536   1.179   1.229 -0.0445 -2.6523 -0.5800
 5332TIP3    H216003   5.506   1.231   1.368 -0.7593  1.0666 -2.0039
 5333TIP3   OH216004   5.301   3.333   2.001 -0.3615  0.1347  0.8720
 5333TIP3    H116005   5.248   3.379   1.936 -0.3070  0.0785  0.7874
 5333TIP3    H216006   5.343   3.263   1.952  0.2676  0.5482  0.8027
 5334TIP3   OH216007   6.258   2.772   4.293 -0.1783 -0.4064 -0.2982
 5334TIP3    H116008   6.350   2.770   4.322 -0.1274 -0.3135 -0.4526
 5334TIP3    H216009   6.208   2.752   4.372 -0.2948  3.7070  0.9042
 5335TIP3   OH216010   5.840   5.230   3.158  0.2662  0.8550  0.1265
 5335TIP3    H116011   5.930   5.201   3.147 -0.7493 -2.3942 -0.6430
 5335TIP3    H216012   5.807   5.243   3.069 -0.3189  1.0457  0.3604
 5336TIP3   OH216013   1.434   2.623   3.592 -0.1119  0.0970  0.0919
 5336TIP3    H116014   1.473   2.654   3.510 -0.4253  0.5076  0.0949
 5336TIP3    H216015   1.361   2.567   3.564  1.1304 -1.5747  0.0719
 5337TIP3   OH216016   2.873   1.949   2.633  0.0874  0.3428  0.4999
 5337TIP3    H116017   2.917   2.026   2.669  0.3455  0.1653  0.5684
 5337TIP3    H216018   2.933   1.877   2.651  1.0577  0.4956 -1.8421
 5338TIP3   OH216019   0.443   3.104   2.810  0.3869 -0.6984 -0.3804
 5338TIP3    H116020   0.442   3.199   2.799 -0.1185 -0.5162  1.1178
 5338TIP3    H216021   0.510   3.074   2.748  0.9869  0.6766 -0.4334
 5339TIP3   OH216022   2.152   1.935   4.334  0.5749 -0.2963 -0.1312
 5339TIP3    H116023   2.247   1.939   4.335  0.5756  0.4133 -1.0793
 5339TIP3    H216024   2.129   1.945   4.241 -0.4423  0.1832  0.1603
 5340TIP3   OH216025   3.687   2.712   4.429 -0.0205 -0.4268  0.4413
 5340TIP3    H116026   3.692   2.671   4.515  2.6710  0.2538  0.7202
 5340TIP3    H216027   3.722   2.800   4.443  1.0569 -0.4995 -1.4119
 5341TIP3   OH216028   5.982   0.298   1.758 -0.2351 -0.3530  0.6213
 5341TIP3    H116029   6.064   0.345   1.776 -0.1832 -1.1512  2.8119
 5341TIP3    H216030   6.009   0.224   1.703  0.4688 -0.4371  1.0630
 5342TIP3   OH216031   0.439   5.962   1.552  0.1014 -0.0446  0.2958
 5342TIP3    H116032   0.453   5.905   1.627 -0.0149 -1.1213 -0.4803
 5342TIP3    H216033   0.353   5.936   1.518 -1.1906  2.3637  1.4327
 5343TIP3   OH216034   1.951   4.519   3.407 -0.2730 -0.0271 -0.4878
 5343TIP3    H116035   1.903   4.440   3.384 -1.0511  0.4264 -0.4527
 5343TIP3    H216036   2.039   4.504   3.373 -1.1006  0.2161 -2.9998
 5344TIP3   OH216037   2.446   4.950   1.662  0.1674 -0.0586 -0.4400
 5344TIP3    H116038   2.434   4.982   1.752  2.3965 -1.9837  0.6249
 5344TIP3    H216039   2.504   5.014   1.621 -2.0187  1.6469 -1.1137
 5345TIP3   OH216040   5.592   5.278   0.941  0.5616 -0.1411  0.0313
 5345TIP3    H116041   5.529   5.215   0.977  0.8034 -1.9926 -2.5040
 5345TIP3    H216042   5.676   5.250   0.976  0.5005 -0.4483 -0.0607
 5346TIP3   OH216043   5.668   4.078   4.467 -0.2689  0.4977  0.2979
 5346TIP3    H116044   5.720   4.008   4.427 -2.2441 -0.0692 -1.4560
 5346TIP3    H216045   5.671   4.150   4.405 -0.9893  0.7028  0.4841
 5347TIP3   OH216046   5.549   1.867   0.166  0.1517 -0.3828 -0.9271
 5347TIP3    H116047   5.472   1.838   0.213 -0.4599  0.9694 -1.0403
 5347TIP3    H216048   5.519   1.943   0.115  1.0488 -1.0824 -2.6049
 5348TIP3   OH216049   0.402   3.776   3.862 -0.1388 -0.2711 -0.0315
 5348TIP3    H116050   0.371   3.727   3.786  0.5960 -1.2815  0.2978
 5348TIP3    H216051   0.324   3.822   3.894 -0.3752  0.5317 -1.6339
 5349TIP3   OH216052   2.212   4.306   0.422  0.5101  0.0608  0.0508
 5349TIP3    H116053   2.235   4.331   0.332  0.8502 -0.1502  0.0782
 5349TIP3    H216054   2.118   4.321   0.427  0.7055  1.4564  0.1006
 5350TIP3   OH216055   5.554   3.542   0.369 -0.3532  0.2573  0.1266
 5350TIP3    H116056   5.609   3.573   0.297  0.2360  0.1258  0.5160
 5350TIP3    H216057   5.593   3.459   0.394 -0.7601  0.1417  0.3804
 5351TIP3   OH216058   3.689   4.639   1.107  0.1644 -0.2411 -0.0247
 5351TIP3    H116059   3.702   4.700   1.035 -3.3502  3.1290  1.8231
 5351TIP3    H216060   3.618   4.582   1.079  0.7744 -0.9135 -0.2479
 5352TIP3   OH216061   4.194   0.955   2.201 -0.0969 -0.3084  0.6949
 5352TIP3    H116062   4.151   0.992   2.124 -1.0425  0.5040  1.5820
 5352TIP3    H216063   4.188   1.024   2.267 -2.4721 -2.1856  2.6447
 5353TIP3   OH216064   2.960   4.360   3.324 -0.2171 -0.5923  0.0393
 5353TIP3    H116065   3.006   4.400   3.397  0.0090 -0.4301 -0.1914
 5353TIP3    H216066   3.024   4.359   3.253 -1.4777  2.5341 -1.3144
 5354TIP3   OH216067   6.012   2.230   0.322  0.1741  0.1478  0.4870
 5354TIP3    H116068   6.000   2.312   0.275 -1.8911 -1.3431 -1.8743
 5354TIP3    H216069   5.948   2.234   0.394 -0.9022  0.0839 -0.4492
 5355TIP3   OH216070   2.636   4.342   1.204  0.3139  0.0554 -0.0265
 5355TIP3    H116071   2.626   4.330   1.110  1.6264  1.0948 -0.3423
 5355TIP3    H216072   2.642   4.437   1.216 -1.3282  0.0425  1.3000
 5356TIP3   OH216073   5.223   3.826   3.220  0.0627  0.2182 -0.0508
 5356TIP3    H116074   5.237   3.739   3.258 -0.5981  1.1502  2.5360
 5356TIP3    H216075   5.127   3.832   3.213  0.1600 -0.4218 -3.3257
 5357TIP3   OH216076   4.871   3.353   4.209  0.3537 -0.8433  0.1226
 5357TIP3    H116077   4.871   3.380   4.118 -0.6844 -0.0211  0.3472
 5357TIP3    H216078   4.945   3.293   4.217  1.1721 -0.0045 -0.9779
 5358TIP3   OH216079   3.932   0.768   0.431  0.2279  0.3898  0.8944
 5358TIP3    H116080   3.970   0.747   0.516  1.3245  2.3170  0.9254
 5358TIP3    H216081   3.853   0.818   0.451  0.8576  1.4566  0.8261
 5359TIP3   OH216082   3.068   5.558   0.396 -0.3868  0.5418  0.6403
 5359TIP3    H116083   3.050   5.465   0.404 -2.3985  0.6738 -1.3344
 5359TIP3    H216084   3.161   5.563   0.372 -0.9056 -1.1925 -2.0437
 5360TIP3   OH216085   2.652   0.870   3.641 -0.2661  0.0493  0.4334
 5360TIP3    H116086   2.609   0.877   3.726  1.5644 -1.5191  1.5622
 5360TIP3    H216087   2.738   0.833   3.660  0.1817 -0.4313 -2.1210
 5361TIP3   OH216088   3.752   1.097   1.145  0.0503  0.8395  0.2212
 5361TIP3    H116089   3.773   1.190   1.145  1.2422  0.5806  0.4212
 5361TIP3    H216090   3.724   1.079   1.055 -1.6514  1.6724  0.5275
 5362TIP3   OH216091   2.121   5.629   2.885 -1.0133 -0.2828 -0.1682
 5362TIP3    H116092   2.153   5.608   2.798  0.5170 -0.4697  0.4142
 5362TIP3    H216093   2.026   5.629   2.876 -0.8894 -0.6461 -1.7447
 5363TIP3   OH216094   0.297   5.004   0.604 -0.3439 -0.1418  0.1426
 5363TIP3    H116095   0.287   5.006   0.700 -2.2368 -1.0221  0.0083
 5363TIP3    H216096   0.254   4.924   0.577  2.0284 -1.0208 -1.3262
 5364TIP3   OH216097   4.077   4.524   0.585  0.2730 -0.0131  0.2029
 5364TIP3    H116098   4.098   4.438   0.623  0.4014 -1.1664 -2.2542
 5364TIP3    H216099   4.161   4.557   0.554  0.0846  0.6273  0.3595
 5365TIP3   OH216100   5.419   3.842   5.009 -0.3678 -0.4671  0.1878
 5365TIP3    H116101   5.373   3.889   5.079  0.4956  0.0071  0.4486
 5365TIP3    H216102   5.493   3.898   4.987 -1.4341  0.1411 -2.1808
 5366TIP3   OH216103   0.087   4.731   1.501 -0.2936 -0.4270 -0.3782
 5366TIP3    H116104   0.169   4.768   1.468 -0.1569 -0.7894 -0.4430
 5366TIP3    H216105   0.113   4.661   1.560 -0.4970 -2.9177 -2.9875
 5367TIP3   OH216106   5.562   3.819   3.794  0.0846 -0.7460 -0.2987
 5367TIP3    H116107   5.579   3.841   3.885 -0.1986  1.2704 -0.6679
 5367TIP3    H216108   5.475   3.777   3.795 -0.2951  0.0244  0.2827
 5368TIP3   OH216109   1.850   2.013   4.363  0.8169  0.3304  0.4888
 5368TIP3    H116110   1.770   1.990   4.410  0.1875  0.6910 -0.3809
 5368TIP3    H216111   1.889   1.929   4.338 -0.8779  0.0846 -1.6778
 5369TIP3   OH216112   0.447   4.755   2.976 -0.5979  0.2708 -0.0810
 5369TIP3    H116113   0.543   4.752   2.969 -0.5325 -1.2978  0.9643
 5369TIP3    H216114   0.419   4.793   2.892  0.9174  0.5941 -0.4839
 5370TIP3   OH216115   1.243   2.488   0.887 -0.3207 -0.2346 -0.5179
 5370TIP3    H116116   1.290   2.571   0.889 -0.3701 -0.1964 -0.8956
 5370TIP3    H216117   1.309   2.424   0.858 -0.0469 -0.4867  0.6326
 5371TIP3   OH216118   3.892   0.352   1.963  0.0667  0.2925 -0.1353
 5371TIP3    H116119   3.851   0.354   2.049  0.8070  1.1712  0.2189
 5371TIP3    H216120   3.938   0.269   1.960 -0.5986 -0.0864  0.0049
 5372TIP3   OH216121   2.739   1.355   3.379 -0.3482  0.5329 -0.2966
 5372TIP3    H116122   2.786   1.332   3.299  1.2233  0.2320  0.6797
 5372TIP3    H216123   2.743   1.450   3.384 -1.8464  0.6831 -1.3693
 5373TIP3   OH216124   2.869   5.115   4.953 -0.0586 -0.3368 -0.4130
 5373TIP3    H116125   2.799   5.060   4.987 -1.0054  0.0516 -1.6251
 5373TIP3    H216126   2.931   5.123   5.025 -0.4988 -1.9623  0.1872
 5374TIP3   OH216127   1.678   0.554   2.736  0.1786  0.0540 -0.1319
 5374TIP3    H116128   1.728   0.522   2.661  0.9761  2.9998 -0.9711
 5374TIP3    H216129   1.722   0.517   2.812  0.6764 -1.2351 -1.0076
 5375TIP3   OH216130   4.891   5.625   1.488 -0.1549 -0.1405  0.6039
 5375TIP3    H116131   4.884   5.530   1.476  0.5528 -0.1650  0.3648
 5375TIP3    H216132   4.803   5.658   1.469 -0.2179 -0.6701 -0.0665
 5376TIP3   OH216133   3.172   2.373   3.551 -0.0837 -0.4442 -0.1341
 5376TIP3    H116134   3.192   2.456   3.593 -0.3367 -0.7637  0.6214
 5376TIP3    H216135   3.258   2.333   3.536 -0.0498 -1.3708  2.2163
 5377TIP3   OH216136   0.963   1.745   4.847  0.4450 -0.6387 -0.5806
 5377TIP3    H116137   0.892   1.798   4.882  1.1292  0.5785 -0.9965
 5377TIP3    H216138   0.994   1.694   4.922 -0.7186 -1.0430 -0.3534
 5378TIP3   OH216139   0.746   5.576   2.282 -0.2026  0.0204 -0.0755
 5378TIP3    H116140   0.841   5.574   2.268  0.0646  0.4616  1.4004
 5378TIP3    H216141   0.736   5.630   2.361 -1.6621 -0.3014 -0.0262
 5379TIP3   OH216142   5.218   0.201   0.352 -0.2042 -0.0339  0.4501
 5379TIP3    H116143   5.164   0.247   0.416  0.4829  1.6769 -0.1494
 5379TIP3    H216144   5.307   0.229   0.371  0.2023 -0.8037 -0.2171
 5380TIP3   OH216145   4.275   3.699   1.811 -0.2957 -0.0367  0.4586
 5380TIP3    H116146   4.331   3.705   1.734  0.8656  0.4264  1.3086
 5380TIP3    H216147   4.290   3.610   1.845  0.0297  0.1256  0.7504
 5381TIP3   OH216148   4.430   1.133   2.796 -0.1883 -0.5374 -0.0231
 5381TIP3    H116149   4.487   1.069   2.840  1.2355  0.4698 -0.3217
 5381TIP3    H216150   4.429   1.208   2.855  1.0374  0.4955 -1.2511
 5382TIP3   OH216151   4.460   2.459   5.017 -0.3232 -0.1491 -0.4089
 5382TIP3    H116152   4.367   2.469   5.037  0.2506  0.5235  2.2183
 5382TIP3    H216153   4.486   2.378   5.061  0.2355 -0.7224 -1.7142
 5383TIP3   OH216154   2.991   2.660   2.819 -0.6830 -0.2068 -0.2860
 5383TIP3    H116155   2.902   2.626   2.818 -0.5258 -0.6615  0.2620
 5383TIP3    H216156   3.043   2.587   2.854 -0.2855  0.4965  0.6061
 5384TIP3   OH216157   1.619   0.456   3.511  0.2193 -0.4091 -0.4723
 5384TIP3    H116158   1.653   0.526   3.455  0.2448 -0.6854 -0.8028
 5384TIP3    H216159   1.649   0.375   3.470  0.1053 -0.6189 -0.1452
 5385TIP3   OH216160   2.597   0.991   1.065  0.2460  0.0624  0.0918
 5385TIP3    H116161   2.553   0.914   1.102  0.8608 -1.2482 -1.7228
 5385TIP3    H216162   2.537   1.063   1.079 -1.2914 -1.1598  0.0317
 5386TIP3   OH216163   3.810   1.028   3.546 -0.2339 -0.0240 -0.1153
 5386TIP3    H116164   3.847   1.109   3.583 -1.0440  1.3840 -2.2280
 5386TIP3    H216165   3.883   0.966   3.548  0.6220  0.9590  0.8750
 5387TIP3   OH216166   4.086   4.995   1.046  0.0794 -0.5957 -0.7571
 5387TIP3    H116167   4.018   4.944   1.089  0.7393 -0.3280  0.6665
 5387TIP3    H216168   4.044   5.078   1.025 -0.0840 -0.4725  0.0211
 5388TIP3   OH216169   6.138   3.751   2.652 -0.3876  0.3236 -0.4227
 5388TIP3    H116170   6.195   3.762   2.576  0.3503 -2.4219 -0.3690
 5388TIP3    H216171   6.197   3.758   2.728 -1.0301  2.4982 -0.0405
 5389TIP3   OH216172   4.298   5.539   3.999 -0.3025  0.0834  0.7606
 5389TIP3    H116173   4.346   5.618   3.972 -2.0669  0.8394 -0.4188
 5389TIP3    H216174   4.363   5.469   3.996  0.8051  1.0934 -0.4871
 5390TIP3   OH216175   0.663   0.887   0.308  0.0577  0.5476  0.0554
 5390TIP3    H116176   0.677   0.854   0.220  2.5708  0.4396  0.4073
 5390TIP3    H216177   0.616   0.817   0.353 -0.5540  0.2834 -0.9785
 5391TIP3   OH216178   0.333   4.085   0.825  0.2039 -0.6168  0.3226
 5391TIP3    H116179   0.267   4.020   0.804  0.2034 -0.3458 -0.5295
 5391TIP3    H216180   0.336   4.086   0.921  1.6543 -3.3178  0.4038
 5392TIP3   OH216181   0.730   4.540   4.077  0.0889 -0.0041  0.0198
 5392TIP3    H116182   0.771   4.503   4.155 -1.1892  0.0133  0.7194
 5392TIP3    H216183   0.739   4.635   4.089  1.3634 -0.0046 -0.6886
 5393TIP3   OH216184   4.621   4.535   1.508 -0.0129 -0.1821  1.0053
 5393TIP3    H116185   4.588   4.575   1.428  0.0324  0.0821  1.1160
 5393TIP3    H216186   4.542   4.509   1.556 -0.1327  1.2895  1.7000
 5394TIP3   OH216187   4.863   3.624   5.111  0.3799 -0.1785  0.3209
 5394TIP3    H116188   4.776   3.587   5.129  1.2379 -1.8134  1.3408
 5394TIP3    H216189   4.876   3.609   5.017  0.5786 -2.3648  0.6382
 5395TIP3   OH216190   5.297   1.539   4.302 -0.0803 -0.0228 -0.4603
 5395TIP3    H116191   5.303   1.630   4.272  1.1621  0.0455 -0.0638
 5395TIP3    H216192   5.212   1.509   4.271 -0.2021  1.0550 -1.2267
 5396TIP3   OH216193   0.756   4.535   1.278  0.4049  0.3782  0.3246
 5396TIP3    H116194   0.833   4.478   1.275 -0.3549 -0.7154  1.2563
 5396TIP3    H216195   0.732   4.539   1.370  0.0457  1.7031  0.2016
 5397TIP3   OH216196   2.722   0.668   0.259  0.2719  0.6836 -0.1307
 5397TIP3    H116197   2.740   0.584   0.219  1.2596  0.6238  0.4073
 5397TIP3    H216198   2.763   0.732   0.201 -0.4298  0.8053 -0.5099
 5398TIP3   OH216199   0.927   4.130   4.450 -0.3994  0.0835  0.4137
 5398TIP3    H116200   0.843   4.158   4.414  0.0051 -1.4497 -1.9712
 5398TIP3    H216201   0.926   4.034   4.444  0.7605 -0.1062  2.2290
 5399TIP3   OH216202   1.067   0.805   2.337 -0.3941 -0.3367  0.5556
 5399TIP3    H116203   1.118   0.873   2.381  0.7299 -0.6857 -0.1531
 5399TIP3    H216204   1.074   0.728   2.393 -3.2211  0.5387  2.3390
 5400TIP3   OH216205   0.280   0.686   3.463  0.5658  0.0918  0.1214
 5400TIP3    H116206   0.215   0.623   3.433 -0.3451  0.7451  0.6890
 5400TIP3    H216207   0.283   0.675   3.558  1.1207  0.2273  0.1246
 5401TIP3   OH216208   5.826   2.480   3.477  0.1965 -0.6015 -0.0316
 5401TIP3    H116209   5.892   2.472   3.409 -0.3034 -2.3474 -0.3644
 5401TIP3    H216210   5.832   2.398   3.526 -1.4560 -0.6455  0.1532
 5402TIP3   OH216211   3.425   2.393   1.044 -0.4256 -0.4386 -0.2723
 5402TIP3    H116212   3.385   2.443   1.115  1.4115  0.3206  0.2891
 5402TIP3    H216213   3.442   2.307   1.082 -0.5691 -0.4368 -0.2005
 5403TIP3   OH216214   0.777   2.298   3.292  0.1541 -0.3353  0.5287
 5403TIP3    H116215   0.685   2.324   3.287  0.3370  0.1966 -0.2852
 5403TIP3    H216216   0.801   2.312   3.383 -0.6224 -0.6512  0.7881
 5404TIP3   OH216217   0.462   0.738   1.509  0.2352  0.1081 -0.0311
 5404TIP3    H116218   0.487   0.783   1.589  0.5093  1.3250 -0.7581
 5404TIP3    H216219   0.367   0.749   1.504  0.5538  3.4413 -1.7105
 5405TIP3   OH216220   1.671   3.961   4.985  0.0477 -0.0933  0.5615
 5405TIP3    H116221   1.667   3.946   4.890  1.9822  0.8359  0.2804
 5405TIP3    H216222   1.614   4.036   5.000  0.5443  0.4222 -0.0585
 5406TIP3   OH216223   3.995   1.724   3.280 -0.2400  0.1013 -0.4120
 5406TIP3    H116224   4.012   1.663   3.208  0.4114 -0.8667  0.5329
 5406TIP3    H216225   3.906   1.704   3.308  0.0423 -0.5732  0.0244
 5407TIP3   OH216226   4.544   1.328   3.127 -0.2608  0.1123 -0.1620
 5407TIP3    H116227   4.624   1.290   3.091 -0.7855 -0.3267 -0.8961
 5407TIP3    H216228   4.513   1.263   3.191  0.3709  0.6357  0.6934
 5408TIP3   OH216229   4.509   1.647   2.136  0.0411  0.3444  0.0172
 5408TIP3    H116230   4.530   1.584   2.068 -0.4910 -1.0168  1.0771
 5408TIP3    H216231   4.587   1.649   2.193 -0.2544  0.0088  0.4423
 5409TIP3   OH216232   6.212   2.760   1.537 -0.1543  0.0219 -0.0513
 5409TIP3    H116233   6.137   2.813   1.560  1.2600  2.5161 -0.8078
 5409TIP3    H216234   6.266   2.758   1.616  0.9053  1.8089 -0.6723
 5410TIP3   OH216235   3.417   2.119   2.982  0.6412 -0.0391 -0.0776
 5410TIP3    H116236   3.505   2.084   2.999  0.7523 -0.6644 -1.7279
 5410TIP3    H216237   3.368   2.045   2.947 -0.7881  0.1269  1.4494
 5411TIP3   OH216238   2.994   2.756   4.508 -0.8209  0.2236 -0.2982
 5411TIP3    H116239   3.012   2.828   4.447 -1.8730 -0.3097 -1.2678
 5411TIP3    H216240   2.918   2.785   4.558  0.9692  1.3579  1.9844
 5412TIP3   OH216241   2.715   5.410   1.157  0.3887 -0.2171 -0.2664
 5412TIP3    H116242   2.726   5.504   1.165 -0.5294  0.2067 -2.8201
 5412TIP3    H216243   2.620   5.398   1.146  0.4268 -1.5095  0.5819
 5413TIP3   OH216244   2.459   5.761   1.977 -0.1865  0.0942 -0.1116
 5413TIP3    H116245   2.413   5.702   2.036  0.9994 -1.0746 -0.2894
 5413TIP3    H216246   2.493   5.830   2.033  0.9379 -1.0092  0.6340
 5414TIP3   OH216247   6.338   1.906   2.890  0.3837  0.3440  0.5624
 5414TIP3    H116248   6.268   1.841   2.897 -0.5682  1.0340 -1.7811
 5414TIP3    H216249   6.314   1.960   2.815  2.4844  1.7987  0.8447
 5415TIP3   OH216250   4.714   2.663   0.159 -0.3203  0.1220  0.7550
 5415TIP3    H116251   4.664   2.730   0.114 -0.8783 -0.4305  0.5341
 5415TIP3    H216252   4.650   2.594   0.178  0.4427 -0.8463 -0.0268
 5416TIP3   OH216253   2.719   1.147   3.829  0.1027  0.1062 -0.2477
 5416TIP3    H116254   2.710   1.159   3.734 -0.2090  0.8115 -0.1382
 5416TIP3    H216255   2.775   1.220   3.857 -1.8440  1.3871  0.4573
 5417TIP3   OH216256   2.880   0.331   0.531  0.2532 -0.2351  0.4051
 5417TIP3    H116257   2.786   0.314   0.533  0.4848 -1.9958 -0.8983
 5417TIP3    H216258   2.919   0.254   0.572  1.1210  0.8796  1.7461
 5418TIP3   OH216259   1.946   0.693   3.197  0.3026  0.2222  0.1873
 5418TIP3    H116260   1.994   0.775   3.195  0.4134  0.1471 -1.1885
 5418TIP3    H216261   2.013   0.627   3.218  0.6174  0.2435 -0.7089
 5419TIP3   OH216262   1.054   5.942   3.314 -0.1948 -0.6227 -0.4722
 5419TIP3    H116263   1.020   6.022   3.273  0.4427 -0.1292 -0.0581
 5419TIP3    H216264   0.977   5.886   3.322 -0.8655  0.3388  0.1303
 5420TIP3   OH216265   3.352   3.714   4.073 -0.3053  0.0491 -0.0372
 5420TIP3    H116266   3.361   3.762   3.991  0.8564 -0.7528 -0.4037
 5420TIP3    H216267   3.417   3.754   4.131  1.0739 -1.3919 -0.5262
 5421TIP3   OH216268   2.803   5.207   0.375 -0.1444  0.1636 -0.0056
 5421TIP3    H116269   2.735   5.274   0.373 -0.3204  0.0358  1.0530
 5421TIP3    H216270   2.799   5.172   0.464  0.8452 -0.3229 -0.1423
 5422TIP3   OH216271   2.474   5.087   3.106  0.1079  0.3453 -0.2551
 5422TIP3    H116272   2.533   5.050   3.041 -0.3425 -0.2891 -0.3071
 5422TIP3    H216273   2.392   5.101   3.059 -0.5289 -1.0360  0.4101
 5423TIP3   OH216274   0.794   3.052   0.477 -0.5537 -0.4220  0.0878
 5423TIP3    H116275   0.787   2.982   0.413  1.8399 -0.8026  0.1609
 5423TIP3    H216276   0.761   3.130   0.432 -1.1974 -1.1540 -0.7308
 5424TIP3   OH216277   2.054   5.889   4.478 -0.2692  0.5930  0.2258
 5424TIP3    H116278   1.986   5.827   4.452 -0.1073  0.2709  0.5591
 5424TIP3    H216279   2.006   5.965   4.510 -0.4743  1.0356 -1.0672
 5425TIP3   OH216280   2.133   4.485   3.685  0.2250 -0.1834  0.8667
 5425TIP3    H116281   2.054   4.501   3.737 -1.7317 -2.3485 -1.2378
 5425TIP3    H216282   2.132   4.391   3.668  2.7003 -0.0933 -0.1473
 5426TIP3   OH216283   0.979   2.194   0.726 -0.0316 -0.0136 -0.6867
 5426TIP3    H116284   0.991   2.150   0.642  0.8074  0.5763 -0.8922
 5426TIP3    H216285   1.035   2.146   0.787  0.9749  0.8062 -0.9368
 5427TIP3   OH216286   3.212   4.448   1.616  0.5020  0.3375 -0.3870
 5427TIP3    H116287   3.283   4.385   1.605 -0.2257 -0.9164  1.5629
 5427TIP3    H216288   3.133   4.394   1.622 -0.1166  1.3767  1.6764
 5428TIP3   OH216289   4.467   5.700   0.417 -0.3153 -0.7209 -0.1099
 5428TIP3    H116290   4.384   5.734   0.383 -1.1942 -2.9529 -0.3550
 5428TIP3    H216291   4.446   5.669   0.505  0.8963  0.9630  0.8159
 5429TIP3   OH216292   1.347   5.404   2.812  0.4051 -0.5152  0.2162
 5429TIP3    H116293   1.270   5.365   2.770  0.3122  1.2204 -1.3913
 5429TIP3    H216294   1.420   5.378   2.756  0.8736 -1.2932  1.1568
 5430TIP3   OH216295   0.199   3.849   4.398 -0.5476  0.3743 -0.2563
 5430TIP3    H116296   0.199   3.822   4.306  2.1884 -0.0438 -0.1945
 5430TIP3    H216297   0.188   3.944   4.395  0.0527  0.4250 -1.0517
 5431TIP3   OH216298   3.152   0.769   2.403  0.1883 -0.0650  0.0164
 5431TIP3    H116299   3.074   0.825   2.394 -0.6763 -0.6968  2.6588
 5431TIP3    H216300   3.226   0.829   2.401 -0.6810  1.1625  2.0227
 5432TIP3   OH216301   1.591   2.902   0.486 -0.2877  0.1658  0.7412
 5432TIP3    H116302   1.554   2.872   0.568 -1.0631 -0.8149  0.0539
 5432TIP3    H216303   1.626   2.823   0.445 -0.4960  0.5333 -0.1677
 5433TIP3   OH216304   5.853   4.348   4.625  0.3900 -0.4964  0.0080
 5433TIP3    H116305   5.772   4.358   4.574 -0.0917  1.2112  1.0128
 5433TIP3    H216306   5.904   4.284   4.577 -0.1139  0.8850 -2.5399
 5434TIP3   OH216307   3.585   3.883   1.640 -0.2503  0.3405 -0.4644
 5434TIP3    H116308   3.647   3.953   1.620 -2.5539  2.2788 -1.2814
 5434TIP3    H216309   3.550   3.857   1.555 -0.3818 -0.9048 -0.0468
 5435TIP3   OH216310   2.039   3.248   1.164 -0.3064  0.4696 -0.9118
 5435TIP3    H116311   2.072   3.307   1.232  0.1969 -1.2962  0.4616
 5435TIP3    H216312   1.951   3.224   1.193 -0.3475  0.2214 -1.2341
 5436TIP3   OH216313   1.578   5.059   5.156 -0.1823 -0.3214  0.4402
 5436TIP3    H116314   1.489   5.077   5.187 -0.2149  0.4781 -0.0994
 5436TIP3    H216315   1.603   5.137   5.107  0.6303 -0.7468  0.1583
 5437TIP3   OH216316   0.200   1.364   0.718 -0.0396  0.2404 -0.1236
 5437TIP3    H116317   0.284   1.321   0.706 -0.9196 -2.1645  1.4520
 5437TIP3    H216318   0.214   1.427   0.789 -0.0498 -2.0450  2.0504
 5438TIP3   OH216319   0.259   4.792   2.258 -0.0346 -0.1777  0.1397
 5438TIP3    H116320   0.279   4.719   2.316 -0.4706 -0.1168  0.3708
 5438TIP3    H216321   0.291   4.764   2.172 -1.1364 -1.0859  0.0059
 5439TIP3   OH216322   4.697   3.633   0.910 -0.2299 -0.0689 -0.7993
 5439TIP3    H116323   4.603   3.616   0.919  0.1822 -2.8359 -0.8548
 5439TIP3    H216324   4.718   3.600   0.823  0.9054 -0.0560 -0.5349
 5440TIP3   OH216325   4.878   1.809   2.926 -0.6049  0.3027 -0.4104
 5440TIP3    H116326   4.922   1.801   3.011  0.5865  0.8209 -0.9584
 5440TIP3    H216327   4.797   1.857   2.946 -2.1895 -2.6613  1.0032
 5441TIP3   OH216328   6.186   4.922   2.225 -0.5884  0.0760 -0.3041
 5441TIP3    H116329   6.154   4.880   2.304  0.3570  0.2941  0.2160
 5441TIP3    H216330   6.259   4.867   2.196 -0.0580  0.7239 -0.2452
 5442TIP3   OH216331   3.877   0.180   3.110  0.0614 -0.0915 -0.5469
 5442TIP3    H116332   3.821   0.125   3.166 -1.3885  0.0402 -1.7893
 5442TIP3    H216333   3.819   0.209   3.039  1.3414  1.3254 -1.0741
 5443TIP3   OH216334   5.888   0.531   1.567  0.0393 -0.6367 -0.5549
 5443TIP3    H116335   5.926   0.467   1.627 -1.8975  0.5635  2.2014
 5443TIP3    H216336   5.796   0.507   1.562 -0.5351  1.2971 -0.2156
 5444TIP3   OH216337   0.669   1.169   3.605  0.2393 -0.2445 -0.0423
 5444TIP3    H116338   0.592   1.222   3.587 -0.9842 -1.8998  0.1430
 5444TIP3    H216339   0.637   1.079   3.609  2.2083 -1.0084 -0.1260
 5445TIP3   OH216340   4.954   0.956   1.460 -0.0352  0.2703 -0.2787
 5445TIP3    H116341   5.041   0.949   1.422 -0.3777  0.5512 -1.1214
 5445TIP3    H216342   4.900   0.994   1.391 -0.9175 -0.2647  0.1025
 5446TIP3   OH216343   4.762   5.199   3.050  0.2466  0.3604  0.5833
 5446TIP3    H116344   4.743   5.127   3.111 -0.4089  0.3032  0.3209
 5446TIP3    H216345   4.806   5.156   2.976 -0.7660  0.0941  0.1069
 5447TIP3   OH216346   1.136   1.324   1.951  0.3471  0.1156 -0.2119
 5447TIP3    H116347   1.147   1.273   1.870  2.5307 -0.6038  0.4756
 5447TIP3    H216348   1.188   1.277   2.016  1.2893  2.4512  0.8099
 5448TIP3   OH216349   3.718   4.027   2.978  0.1198 -0.1791 -0.3033
 5448TIP3    H116350   3.813   4.034   2.987  0.1209 -0.2567 -0.2509
 5448TIP3    H216351   3.691   4.113   2.944  0.0791  0.2574  0.7714
 5449TIP3   OH216352   1.023   5.627   2.254  0.8409  0.1712 -0.2942
 5449TIP3    H116353   1.013   5.715   2.220 -0.6402 -0.1762 -0.8569
 5449TIP3    H216354   1.113   5.602   2.234  0.8708  1.0722 -1.3004
 5450TIP3   OH216355   0.001   4.387   2.694  0.4932  0.6229  0.9774
 5450TIP3    H116356  -0.018   4.294   2.709 -0.7381  1.0121  1.9994
 5450TIP3    H216357   0.025   4.392   2.601  0.5512 -0.6964  0.8967
 5451TIP3   OH216358   3.621   5.598   4.559  0.6671 -0.2488  0.2431
 5451TIP3    H116359   3.670   5.542   4.619 -1.8223 -0.9352  1.7589
 5451TIP3    H216360   3.558   5.643   4.614 -0.1368  0.9404 -1.5566
 5452TIP3   OH216361   4.305   2.016   2.507 -0.1906  0.1255  0.1572
 5452TIP3    H116362   4.373   1.978   2.561 -0.4357  0.2844  0.5809
 5452TIP3    H216363   4.246   1.943   2.487 -0.7392  0.2926  1.0880
 5453TIP3   OH216364   2.627   1.780   4.469  0.0654 -0.4509  0.3864
 5453TIP3    H116365   2.587   1.757   4.553 -0.3733  1.9505  0.9222
 5453TIP3    H216366   2.715   1.811   4.492  0.1961 -0.4179 -0.1334
 5454TIP3   OH216367   3.440   0.145   3.624  0.5100 -0.0084  0.0193
 5454TIP3    H116368   3.473   0.189   3.545  0.3628  0.2104  0.0796
 5454TIP3    H216369   3.357   0.105   3.596  0.3091  0.3221  0.1414
 5455TIP3   OH216370   2.003   1.487   4.126 -0.6550  0.4386 -0.8352
 5455TIP3    H116371   1.955   1.504   4.207 -1.5284 -2.0136 -0.7516
 5455TIP3    H216372   2.000   1.392   4.115  1.3099  0.4930 -2.6360
 5456TIP3   OH216373   6.117   2.248   3.189 -0.6433  0.3280  0.1777
 5456TIP3    H116374   6.069   2.184   3.243 -1.0289 -0.1298 -0.6895
 5456TIP3    H216375   6.185   2.196   3.146 -0.3985  0.6728  0.1462
 5457TIP3   OH216376   2.435   4.479   0.045  0.0292  0.1111  0.2628
 5457TIP3    H116377   2.437   4.472   0.140  2.0818 -2.0324  0.1547
 5457TIP3    H216378   2.364   4.421   0.017  0.9077 -1.0653  0.4249
 5458TIP3   OH216379   2.257   5.067   3.877  0.8654 -0.1062 -0.2962
 5458TIP3    H116380   2.327   5.105   3.824  1.1339  0.4462  0.4409
 5458TIP3    H216381   2.178   5.078   3.823  1.1738  0.2028 -0.6935
 5459TIP3   OH216382   0.837   1.868   3.616 -0.1992  0.0256 -0.0754
 5459TIP3    H116383   0.774   1.809   3.657 -0.0923  0.2763  0.4678
 5459TIP3    H216384   0.910   1.871   3.678 -0.3590  1.0040  0.0836
 5460TIP3   OH216385   2.635   0.245   1.594 -0.0439 -0.4301 -0.2417
 5460TIP3    H116386   2.580   0.168   1.606  0.2567 -0.3980  1.5247
 5460TIP3    H216387   2.682   0.228   1.512 -1.1317 -1.3918 -0.6896
 5461TIP3   OH216388   1.374   3.108   4.248 -0.2508  0.4569 -0.2968
 5461TIP3    H116389   1.369   3.047   4.174  1.6235 -0.1926  0.0722
 5461TIP3    H216390   1.286   3.145   4.254 -0.7453 -0.3175 -2.1335
 5462TIP3   OH216391   4.011   2.701   3.679  0.1880  0.3039 -0.0103
 5462TIP3    H116392   4.088   2.751   3.651 -0.8871  0.8525 -2.2174
 5462TIP3    H216393   4.028   2.611   3.650  1.1699 -0.2216  2.0250
 5463TIP3   OH216394   3.463   3.502   1.298 -0.2346  0.3823  0.3266
 5463TIP3    H116395   3.473   3.597   1.305  0.0104  0.3111  1.0509
 5463TIP3    H216396   3.377   3.484   1.338 -0.1695  0.2747  0.4189
 5464TIP3   OH216397   5.169   5.774   1.767 -0.2298  0.3516  0.4265
 5464TIP3    H116398   5.157   5.854   1.819 -1.2819  0.8245 -0.5121
 5464TIP3    H216399   5.142   5.799   1.678  0.2365 -0.8209 -0.0567
 5465TIP3   OH216400   2.124   0.044   4.466  0.2378 -0.4244 -0.7356
 5465TIP3    H116401   2.153  -0.040   4.503  0.2424 -0.9228 -1.8089
 5465TIP3    H216402   2.202   0.077   4.420 -0.4835 -1.1627 -2.5877
 5466TIP3   OH216403   2.557   0.016   3.794  0.2790 -0.3481 -0.0954
 5466TIP3    H116404   2.593  -0.072   3.799 -1.3782 -1.3302 -3.1323
 5466TIP3    H216405   2.606   0.058   3.723 -0.5448  0.3329 -0.2837
 5467TIP3   OH216406   5.380   1.446   2.045  0.4642  0.4184  0.4756
 5467TIP3    H116407   5.308   1.507   2.061  1.0359  0.7969  1.6801
 5467TIP3    H216408   5.337   1.364   2.021 -0.3420  0.8886  0.2648
 5468TIP3   OH216409   4.524   4.088   1.789  0.2439 -0.8666  0.3252
 5468TIP3    H116410   4.610   4.130   1.794  0.6906 -1.7609  0.1780
 5468TIP3    H216411   4.477   4.120   1.866  0.4552  0.1635  0.0417
 5469TIP3   OH216412   5.995   4.208   1.026 -0.4666  0.3047 -0.1950
 5469TIP3    H116413   5.943   4.130   1.005 -0.3486  0.4880 -1.2167
 5469TIP3    H216414   6.044   4.183   1.104 -1.3201 -0.2263  0.1851
 5470TIP3   OH216415   2.977   2.490   3.377  0.4303  0.1666 -0.0979
 5470TIP3    H116416   2.932   2.536   3.448  1.0573  2.8550 -1.2798
 5470TIP3    H216417   3.062   2.466   3.414 -0.0214 -0.3101  0.6482
 5471TIP3   OH216418   4.025   0.335   4.315  0.0416 -0.1771  0.0332
 5471TIP3    H116419   4.048   0.333   4.222  0.2608  1.3760  0.0222
 5471TIP3    H216420   4.098   0.380   4.357 -1.2672  1.6185  0.5222
 5472TIP3   OH216421   1.629   4.561   0.461 -0.1191 -0.4943 -0.3331
 5472TIP3    H116422   1.689   4.617   0.511 -0.9881  0.3325 -0.1697
 5472TIP3    H216423   1.580   4.514   0.528 -1.1647  0.4859 -0.3725
 5473TIP3   OH216424   0.902   3.243   0.826 -0.3208 -0.9732 -0.3590
 5473TIP3    H116425   0.842   3.315   0.845  0.5520 -0.3618  0.1898
 5473TIP3    H216426   0.847   3.175   0.788 -1.1253  0.0919 -1.1656
 5474TIP3   OH216427   4.344   4.522   0.072 -0.2485 -0.0873 -0.2318
 5474TIP3    H116428   4.373   4.476  -0.007  0.5697 -0.1377  0.0896
 5474TIP3    H216429   4.293   4.596   0.040  2.3070  1.4747 -0.9386
 5475TIP3   OH216430   0.877   0.870   1.531 -0.6241  0.3800 -0.2781
 5475TIP3    H116431   0.929   0.918   1.595  3.0921 -0.7379 -2.1309
 5475TIP3    H216432   0.854   0.788   1.575  0.5637  0.2594  0.1579
 5476TIP3   OH216433   1.981   1.495   0.518  0.2001 -0.0284  0.0075
 5476TIP3    H116434   1.896   1.539   0.513 -0.5253 -1.3717  0.1697
 5476TIP3    H216435   2.035   1.555   0.569 -0.7750  0.6454  0.2925
 5477TIP3   OH216436   5.920   1.198   1.633  0.2172 -0.3629 -0.3152
 5477TIP3    H116437   5.927   1.102   1.630  1.7465 -0.2916  0.2526
 5477TIP3    H216438   6.010   1.229   1.628 -0.0683  0.9691  1.6684
 5478TIP3   OH216439   3.376   5.871   4.963  0.6854  0.5392  0.7652
 5478TIP3    H116440   3.360   5.798   4.903 -1.8854  0.5729  1.2974
 5478TIP3    H216441   3.408   5.942   4.907  0.5092 -0.1378 -0.2094
 5479TIP3   OH216442   0.057   5.792   1.287  0.0176 -0.4129  0.2419
 5479TIP3    H116443   0.129   5.854   1.299  1.2410 -1.4404 -1.3373
 5479TIP3    H216444   0.049   5.748   1.371  1.2645 -0.2775  0.4564
 5480TIP3   OH216445   3.112   5.332   2.887 -0.9877  0.1443  0.2729
 5480TIP3    H116446   3.059   5.364   2.814 -1.7775 -0.9111  0.3517
 5480TIP3    H216447   3.202   5.341   2.857 -1.3111 -0.6685 -1.0225
 5481TIP3   OH216448   6.070   1.137   0.197  0.1010 -0.2817  0.4782
 5481TIP3    H116449   6.019   1.134   0.278 -0.9976 -1.5758 -0.2358
 5481TIP3    H216450   6.161   1.142   0.227 -0.3515  1.2649  1.7704
 5482TIP3   OH216451   0.283   1.851   1.787  0.1603  0.2634  0.1154
 5482TIP3    H116452   0.332   1.770   1.771  1.7061  1.0367  0.7498
 5482TIP3    H216453   0.344   1.907   1.836 -0.9820  1.6986 -0.0323
 5483TIP3   OH216454   5.460   0.131   5.204 -0.1696  0.0769  0.3072
 5483TIP3    H116455   5.421   0.047   5.177  0.2219 -0.1588  0.4576
 5483TIP3    H216456   5.462   0.183   5.123  0.5251 -0.4414 -0.0286
 5484TIP3   OH216457   5.657   4.009   3.606 -0.1634  0.3470  0.7023
 5484TIP3    H116458   5.590   3.949   3.640 -0.5117  1.2522  1.6823
 5484TIP3    H216459   5.704   4.038   3.685  2.5181 -1.5208 -0.0612
 5485TIP3   OH216460   5.875   4.796   1.873  0.1093  0.6447  0.3842
 5485TIP3    H116461   5.958   4.762   1.838  0.5010  0.4216  1.4856
 5485TIP3    H216462   5.868   4.885   1.838  0.2204  0.2595 -0.6645
 5486TIP3   OH216463   3.148   4.481   2.647  0.3831 -0.6056 -0.2677
 5486TIP3    H116464   3.070   4.517   2.689 -0.0578 -1.7433 -0.0554
 5486TIP3    H216465   3.221   4.526   2.688 -0.1731  1.2625 -1.2301
 5487TIP3   OH216466   2.442   5.713   0.849 -0.1781  0.6167  0.2000
 5487TIP3    H116467   2.400   5.646   0.902 -0.5785  1.5347  1.0732
 5487TIP3    H216468   2.520   5.670   0.815 -0.3821 -0.2705  0.7924
 5488TIP3   OH216469   0.619   2.821   4.649 -0.1933  0.2284  0.3017
 5488TIP3    H116470   0.704   2.834   4.607 -1.4309  1.6373 -1.9838
 5488TIP3    H216471   0.635   2.838   4.742  1.9860  0.5389 -0.0862
 5489TIP3   OH216472   3.650   2.171   4.918 -0.0912  0.1175 -0.3911
 5489TIP3    H116473   3.598   2.181   4.838 -1.1570  0.7594  0.3514
 5489TIP3    H216474   3.596   2.210   4.987 -0.3047 -2.5464  1.1053
 5490TIP3   OH216475   0.818   1.181   0.125  0.1505  1.1613  0.2904
 5490TIP3    H116476   0.902   1.134   0.119  0.4299  1.4375  1.6122
 5490TIP3    H216477   0.798   1.207   0.035  1.4339  1.0047 -0.0613
 5491TIP3   OH216478   1.534   2.437   1.124  0.1846 -0.2339  0.1814
 5491TIP3    H116479   1.582   2.439   1.206  0.3680 -0.5627  0.0826
 5491TIP3    H216480   1.520   2.530   1.103  1.9490 -0.0582 -0.4640
 5492TIP3   OH216481   5.377   2.871   1.341  0.1362 -0.2616 -0.7996
 5492TIP3    H116482   5.369   2.958   1.303  0.0953 -0.0011 -0.2175
 5492TIP3    H216483   5.299   2.824   1.312 -0.5522  0.3472  0.0116
 5493TIP3   OH216484   5.898   5.096   0.908  0.0234  0.1291 -0.1007
 5493TIP3    H116485   5.874   5.121   0.997 -0.1581  1.7192 -0.5715
 5493TIP3    H216486   5.958   5.022   0.919 -0.3304  0.0276  1.3092
 5494TIP3   OH216487   0.284   1.555   2.389  0.4133  0.5219  0.3631
 5494TIP3    H116488   0.204   1.580   2.343 -0.3233  0.4663  1.5466
 5494TIP3    H216489   0.343   1.522   2.321 -0.9805 -0.4781 -0.4092
 5495TIP3   OH216490   3.041   0.117   0.627 -0.4148  0.2673 -0.1012
 5495TIP3    H116491   3.089   0.038   0.651 -0.6029  0.3583  0.5792
 5495TIP3    H216492   3.075   0.141   0.540 -0.2420 -0.4632 -0.2349
 5496TIP3   OH216493   4.670   0.884   1.033 -0.1805 -0.8223 -0.6384
 5496TIP3    H116494   4.612   0.933   0.975  0.8268 -0.0348 -1.0083
 5496TIP3    H216495   4.758   0.901   0.999  0.2120 -2.9509 -0.8106
 5497TIP3   OH216496   2.608   2.486   4.490 -1.0375 -0.0127 -0.5387
 5497TIP3    H116497   2.534   2.472   4.548 -1.4643 -1.7264 -1.4155
 5497TIP3    H216498   2.577   2.551   4.427 -0.3544  2.3398  1.4114
 5498TIP3   OH216499   6.023   3.111   0.726 -0.8445  0.2303 -0.5045
 5498TIP3    H116500   6.081   3.046   0.765 -0.9096  0.9365  0.8410
 5498TIP3    H216501   6.054   3.120   0.636  0.5651 -0.0663 -0.0729
 5499TIP3   OH216502   4.407   2.848   1.209  0.0932  0.0745 -0.2381
 5499TIP3    H116503   4.345   2.790   1.254  0.4109  0.2610  0.4413
 5499TIP3    H216504   4.352   2.903   1.154 -0.1814 -1.2370 -1.3326
 5500TIP3   OH216505   0.947   5.072   2.677 -0.1768  0.3915 -0.2366
 5500TIP3    H116506   0.856   5.050   2.657  0.5538 -2.3767 -0.9332
 5500TIP3    H216507   0.978   5.000   2.731  1.8845  0.7436 -0.8446
 5501TIP3   OH216508   2.059   3.162   3.035  0.4185  0.4219  0.6732
 5501TIP3    H116509   2.120   3.126   2.971  0.1539  2.8119 -1.0330
 5501TIP3    H216510   1.978   3.113   3.020  0.2313  1.2161 -1.1776
 5502TIP3   OH216511   2.275   1.627   4.817  0.2944 -0.0454 -0.2309
 5502TIP3    H116512   2.235   1.552   4.860  0.0914  0.4865  0.5322
 5502TIP3    H216513   2.224   1.702   4.848  1.0109  0.4962 -0.3379
 5503TIP3   OH216514   4.856   3.761   3.315 -0.1127 -0.5195  0.6113
 5503TIP3    H116515   4.938   3.727   3.351  0.5897 -1.1832 -1.5005
 5503TIP3    H216516   4.795   3.688   3.322  0.7203 -1.5282 -1.6940
 5504TIP3   OH216517   5.051   4.020   2.522  0.0420 -0.4587  0.1999
 5504TIP3    H116518   5.005   3.962   2.583 -0.5350  0.8739  1.0536
 5504TIP3    H216519   5.122   3.966   2.487  0.6474 -1.1273  2.3481
 5505TIP3   OH216520   6.181   3.186   5.182  0.0549 -0.3324 -0.2983
 5505TIP3    H116521   6.132   3.256   5.139  1.1962  1.3528  1.0043
 5505TIP3    H216522   6.272   3.204   5.162  0.4081 -1.1395  0.4930
 5506TIP3   OH216523   5.132   1.192   0.329 -0.1964 -0.7144  0.5187
 5506TIP3    H116524   5.128   1.203   0.424  1.2023  2.3369  0.3371
 5506TIP3    H216525   5.206   1.132   0.315  1.3603  0.9196  1.3569
 5507TIP3   OH216526   4.572   1.810   4.422  0.4464  0.3382  0.1809
 5507TIP3    H116527   4.494   1.805   4.477  0.1792  1.0115 -0.1252
 5507TIP3    H216528   4.599   1.902   4.427 -1.1629  1.1449 -2.8985
 5508TIP3   OH216529   0.469   1.565   4.943 -0.1381  0.0863 -0.0873
 5508TIP3    H116530   0.486   1.654   4.911 -0.4551 -0.1871 -1.0464
 5508TIP3    H216531   0.476   1.573   5.038  1.2018  0.8407 -0.2259
 5509TIP3   OH216532   3.151   2.297   0.951 -0.0644  0.0261  0.4035
 5509TIP3    H116533   3.210   2.370   0.967 -1.2401  0.8053  1.3852
 5509TIP3    H216534   3.203   2.233   0.903  1.3235  1.0176  0.5560
 5510TIP3   OH216535   5.242   0.366   1.356  0.3002 -0.5023 -0.2508
 5510TIP3    H116536   5.175   0.352   1.422  0.2855  1.5056  0.2274
 5510TIP3    H216537   5.319   0.319   1.389 -0.2505 -1.0631  0.2461
 5511TIP3   OH216538   2.586   4.365   2.055  0.7529  0.1758 -0.2048
 5511TIP3    H116539   2.584   4.289   2.114  0.9291 -0.5242 -1.0718
 5511TIP3    H216540   2.543   4.435   2.105 -0.0421 -0.6825  0.3643
 5512TIP3   OH216541   0.301   1.139  -0.021  0.4215  0.0809 -0.3964
 5512TIP3    H116542   0.336   1.122   0.067  0.1302 -0.4057 -0.3697
 5512TIP3    H216543   0.301   1.235  -0.028  0.6057  0.1218  0.0701
 5513TIP3   OH216544   5.239   2.985   3.141 -0.5383 -0.2183  0.2688
 5513TIP3    H116545   5.206   3.060   3.191  0.3270  0.4034 -0.0582
 5513TIP3    H216546   5.290   2.935   3.205 -0.4361 -0.0748  0.3024
 5514TIP3   OH216547   2.539   3.740   0.978 -0.2334 -0.6130 -0.3443
 5514TIP3    H116548   2.611   3.718   1.037  1.5617 -0.0552 -2.2203
 5514TIP3    H216549   2.485   3.802   1.029  1.7430  0.5664  0.4351
 5515TIP3   OH216550   3.193   0.655   1.232  0.4468  0.1138 -0.0040
 5515TIP3    H116551   3.124   0.704   1.187  0.5011  0.4672  0.2867
 5515TIP3    H216552   3.230   0.598   1.164 -0.8680 -0.9044  0.1095
 5516TIP3   OH216553   2.220   2.553   1.475 -0.0716  1.0769  0.3563
 5516TIP3    H116554   2.202   2.531   1.384  0.4859 -1.1191  0.7281
 5516TIP3    H216555   2.231   2.648   1.474 -0.7659  1.1973 -1.7284
 5517TIP3   OH216556   4.113   2.645   0.916 -0.3445  0.2390  0.6122
 5517TIP3    H116557   4.112   2.666   0.823 -0.2551  0.9185  0.7572
 5517TIP3    H216558   4.038   2.587   0.928  0.3209 -0.7927 -0.0796
 5518TIP3   OH216559   5.324   0.973   4.729  0.5210 -0.0910  0.6188
 5518TIP3    H116560   5.300   1.049   4.678  1.7863 -0.0128  0.1070
 5518TIP3    H216561   5.408   0.944   4.693  0.0526 -1.7688  0.7506
 5519TIP3   OH216562   4.290   1.820   3.810  0.1522  0.0515 -0.0837
 5519TIP3    H116563   4.212   1.839   3.758  0.4311  0.2916 -0.4143
 5519TIP3    H216564   4.260   1.827   3.901 -0.2118  0.1389 -0.2095
 5520TIP3   OH216565   3.392   3.794   1.054  0.2075  0.4830 -0.2156
 5520TIP3    H116566   3.352   3.879   1.035 -0.7730  0.6387  2.1814
 5520TIP3    H216567   3.330   3.729   1.020  0.8712  0.6756 -1.8865
 5521TIP3   OH216568   3.696   4.024   4.754  1.0413  0.1608 -0.1344
 5521TIP3    H116569   3.699   3.941   4.707  0.5560 -1.0604  1.8826
 5521TIP3    H216570   3.734   4.088   4.693  3.8816 -1.9818 -0.7978
 5522TIP3   OH216571   3.454   0.244   0.465  0.5075  0.4823 -0.0565
 5522TIP3    H116572   3.525   0.259   0.403  1.1326 -2.8759 -0.3786
 5522TIP3    H216573   3.497   0.219   0.546 -0.3022  0.5367  0.4047
 5523TIP3   OH216574   3.313   1.426   5.052 -0.0858  0.0959  0.2062
 5523TIP3    H116575   3.357   1.511   5.051  0.1479 -0.0175 -0.7752
 5523TIP3    H216576   3.236   1.438   4.996  0.3161 -0.5133 -0.4950
 5524TIP3   OH216577   5.754   1.123   2.005 -0.1614  0.6049  0.1162
 5524TIP3    H116578   5.672   1.167   1.983 -1.1292  0.3370  2.7507
 5524TIP3    H216579   5.810   1.194   2.039  0.0494  0.5194 -0.0515
 5525TIP3   OH216580   2.880   4.544   1.560  0.1807 -0.5826  0.8403
 5525TIP3    H116581   2.786   4.539   1.541  0.5196  1.2208 -1.9387
 5525TIP3    H216582   2.887   4.613   1.626 -0.4141 -0.3046  0.6223
 5526TIP3   OH216583   3.376   1.908   2.797  0.1529  0.0714  0.1653
 5526TIP3    H116584   3.356   1.815   2.781  0.2905 -0.2020  1.4948
 5526TIP3    H216585   3.457   1.924   2.748 -0.0897 -0.3886 -0.4038
 5527TIP3   OH216586   0.780   4.304   0.941  0.0790  0.5726  0.2036
 5527TIP3    H116587   0.730   4.298   0.860 -1.6633 -1.4749  1.3009
 5527TIP3    H216588   0.793   4.398   0.955 -1.9480  1.1100 -1.0910
 5528TIP3   OH216589   6.314   0.994   3.307 -0.1429  0.0264 -0.0335
 5528TIP3    H116590   6.234   1.037   3.277  1.4121  2.1708 -1.3893
 5528TIP3    H216591   6.368   1.064   3.344  1.5566 -1.1574 -0.1053
 5529TIP3   OH216592   1.033   4.220   1.053  0.2432  0.6899  0.1064
 5529TIP3    H116593   0.941   4.241   1.033  0.3643  1.3481  0.2225
 5529TIP3    H216594   1.028   4.139   1.103 -0.1601 -0.2492 -1.3841
 5530TIP3   OH216595   0.037   3.512   2.719  0.4612  0.5101 -0.3063
 5530TIP3    H116596   0.059   3.599   2.686 -0.3604  0.5702 -0.7127
 5530TIP3    H216597  -0.020   3.529   2.795  0.1051  0.3263 -0.5300
 5531TIP3   OH216598   2.275   1.601   2.093  0.3918 -0.3801  0.2171
 5531TIP3    H116599   2.226   1.532   2.048 -0.3503  0.2695  0.0061
 5531TIP3    H216600   2.311   1.558   2.170 -1.2439 -0.6743  0.8502
 5532TIP3   OH216601   3.259   1.137   5.100 -0.4579  0.0859 -0.3443
 5532TIP3    H116602   3.242   1.167   5.010  0.0877 -0.4120 -0.6201
 5532TIP3    H216603   3.351   1.111   5.100 -0.4818 -0.0190  0.3357
 5533TIP3   OH216604   2.224   1.121   5.171  0.2997  0.1705 -0.1309
 5533TIP3    H116605   2.180   1.062   5.110 -1.3531  1.3039 -0.0977
 5533TIP3    H216606   2.199   1.209   5.143 -0.2375  0.7365  1.9534
 5534TIP3   OH216607   0.200   5.432   1.538 -0.4774 -0.1603 -0.6928
 5534TIP3    H116608   0.164   5.404   1.454  0.5795  0.9678 -1.5638
 5534TIP3    H216609   0.191   5.528   1.536  2.9869  0.2781 -1.2403
 5535TIP3   OH216610   3.736   2.651   0.136  0.5107 -1.0053  0.3438
 5535TIP3    H116611   3.643   2.648   0.158  0.4773  0.7038  0.5886
 5535TIP3    H216612   3.779   2.675   0.218  1.0319 -0.5879 -0.0449
 5536TIP3   OH216613   2.560   2.955   2.767  0.8477  0.6494  0.5017
 5536TIP3    H116614   2.612   2.910   2.701 -0.4628  0.4496 -0.4371
 5536TIP3    H216615   2.570   2.902   2.846  0.3795 -0.5934 -0.2343
 5537TIP3   OH216616   3.028   1.658   3.528  0.0084 -0.6646 -0.5206
 5537TIP3    H116617   3.075   1.724   3.477 -1.8024  1.3298  0.2609
 5537TIP3    H216618   2.938   1.661   3.495 -0.8967 -0.3120  1.7657
 5538TIP3   OH216619   5.472   0.225   1.628  0.3761 -0.5183 -0.1079
 5538TIP3    H116620   5.554   0.216   1.676  0.3952 -1.4878 -0.3007
 5538TIP3    H216621   5.405   0.231   1.696  0.3872 -2.0418  0.0689
 5539TIP3   OH216622   5.628   2.727   3.315  0.1288 -0.2859 -0.5975
 5539TIP3    H116623   5.693   2.681   3.262  0.8403 -1.9866  1.5835
 5539TIP3    H216624   5.680   2.772   3.382 -0.8125  0.4044 -0.3232
 5540TIP3   OH216625   5.858   3.997   2.452 -0.5705  0.1111 -0.2416
 5540TIP3    H116626   5.810   4.032   2.377  0.4521 -0.6359 -1.2934
 5540TIP3    H216627   5.848   3.902   2.445 -2.0363  0.0538  1.6939
 5541TIP3   OH216628   1.570   5.409   1.636 -0.6020 -0.0628  0.0218
 5541TIP3    H116629   1.585   5.436   1.727 -0.7565  0.1142 -0.0052
 5541TIP3    H216630   1.498   5.346   1.642 -1.5786  1.0145 -0.1325
 5542TIP3   OH216631   4.394   0.244   3.718  0.5819 -0.3124 -0.1019
 5542TIP3    H116632   4.325   0.196   3.672 -1.3902 -0.4871  2.7980
 5542TIP3    H216633   4.384   0.335   3.688 -1.2611 -0.2559  0.5429
 5543TIP3   OH216634   2.569   2.178   3.434 -0.1198 -0.3374  0.1969
 5543TIP3    H116635   2.554   2.203   3.343 -0.7921 -0.8778  0.1516
 5543TIP3    H216636   2.503   2.111   3.452 -0.4768  0.2876  1.3039
 5544TIP3   OH216637   0.011   1.193   0.845  0.1844 -0.2397  0.3887
 5544TIP3    H116638   0.068   1.156   0.913  0.8397 -0.7231 -0.4052
 5544TIP3    H216639   0.067   1.254   0.798 -0.6402  1.1030  1.1012
 5545TIP3   OH216640   0.379   1.070   1.987 -0.5547  0.1424  0.5459
 5545TIP3    H116641   0.307   1.104   1.933 -0.5106 -0.4787  0.0919
 5545TIP3    H216642   0.369   0.975   1.983  1.3090 -0.0625 -0.9772
 5546TIP3   OH216643   3.772   0.221   2.853 -0.0067  0.3727 -0.2072
 5546TIP3    H116644   3.760   0.271   2.772 -0.6138  0.5841  0.0016
 5546TIP3    H216645   3.803   0.135   2.824 -0.8830  0.2136 -0.7281
 5547TIP3   OH216646   4.574   0.703   1.191  0.7055  0.2041  0.0748
 5547TIP3    H116647   4.603   0.792   1.172  0.0069  0.8889  1.9064
 5547TIP3    H216648   4.490   0.695   1.148  1.6854 -0.3493 -1.8378
 5548TIP3   OH216649   2.531   3.302   4.487  0.0922  0.1781  0.0082
 5548TIP3    H116650   2.586   3.349   4.550  2.2551  0.4579 -1.9225
 5548TIP3    H216651   2.465   3.365   4.460 -0.1286  0.4301  1.0981
 5549TIP3   OH216652   0.699   2.428   2.480  0.0096 -0.3312  0.5107
 5549TIP3    H116653   0.645   2.358   2.517 -0.1643  0.3978  1.6766
 5549TIP3    H216654   0.645   2.465   2.410 -0.4848 -0.4465  0.8244
 5550TIP3   OH216655   1.561   2.466   2.022 -0.0992  0.2242 -0.2554
 5550TIP3    H116656   1.589   2.399   1.960  0.8385  0.2588  0.1089
 5550TIP3    H216657   1.494   2.424   2.075  0.7969 -0.5797  0.2668
 5551TIP3   OH216658   1.247   5.411   4.931 -0.0191  0.0914  0.2244
 5551TIP3    H116659   1.255   5.462   5.011  1.0320 -0.4297  0.4733
 5551TIP3    H216660   1.285   5.467   4.863  1.7563 -0.5698  0.6127
 5552TIP3   OH216661   4.750   1.557   2.948 -0.0542 -0.3711 -0.3632
 5552TIP3    H116662   4.787   1.494   3.010 -1.8420  0.5259  1.7305
 5552TIP3    H216663   4.821   1.620   2.933  0.5260 -0.8167  0.4206
 5553TIP3   OH216664   4.014   2.436   1.235  0.2616 -0.0777  0.1360
 5553TIP3    H116665   4.078   2.375   1.272 -0.3820  0.1084  1.6172
 5553TIP3    H216666   3.964   2.467   1.311 -0.4922  1.0457 -0.7930
 5554TIP3   OH216667   1.990   2.101   0.387  0.3221 -0.3186  0.1028
 5554TIP3    H116668   2.041   2.074   0.310 -0.3608  1.2333 -0.9480
 5554TIP3    H216669   2.056   2.130   0.450  0.8976 -1.6845  0.1771
 5555TIP3   OH216670   1.129   0.705   0.714  0.3219  0.0552 -0.0089
 5555TIP3    H116671   1.124   0.737   0.623 -0.5936  1.3545  0.4622
 5555TIP3    H216672   1.213   0.738   0.746  1.2249 -1.4506 -0.7257
 5556TIP3   OH216673   1.092   2.456   2.200  0.0501 -0.1172  0.0803
 5556TIP3    H116674   1.146   2.394   2.152  0.3143  0.4506 -0.3745
 5556TIP3    H216675   1.011   2.462   2.150 -0.1848 -0.4869  0.4117
 5557TIP3   OH216676   5.867   1.312   4.409  0.3533  0.3458  0.1915
 5557TIP3    H116677   5.924   1.383   4.381  0.8693 -0.4728 -0.8989
 5557TIP3    H216678   5.787   1.324   4.358  0.2596  0.4285  0.3593
 5558TIP3   OH216679   2.881   4.667   2.507  0.5290 -0.7089  0.1262
 5558TIP3    H116680   2.934   4.658   2.586  0.0931 -1.4499  0.3394
 5558TIP3    H216681   2.847   4.756   2.511  0.7450 -0.6472  0.6249
 5559TIP3   OH216682   0.679   3.134   0.233 -0.2964 -0.0410  0.5446
 5559TIP3    H116683   0.766   3.164   0.208 -0.0822 -0.7856  0.3767
 5559TIP3    H216684   0.663   3.057   0.179  0.0940 -1.5839  2.5364
 5560TIP3   OH216685   2.218   0.346   1.237  0.2764 -0.3484  0.0628
 5560TIP3    H116686   2.205   0.272   1.297 -0.0455 -0.7730 -0.5117
 5560TIP3    H216687   2.135   0.394   1.240 -0.4704 -1.4501 -1.4570
 5561TIP3   OH216688   5.619   4.111   3.231  0.0310 -0.0948 -0.5030
 5561TIP3    H116689   5.529   4.080   3.238  0.5274 -1.0721  2.6013
 5561TIP3    H216690   5.671   4.033   3.215  0.4986  0.2850 -0.8926
 5562TIP3   OH216691   1.156   4.861   3.098  0.4035  0.0633  0.6679
 5562TIP3    H116692   1.210   4.796   3.055 -0.4951 -0.0420 -0.3286
 5562TIP3    H216693   1.106   4.812   3.163  1.0496  0.0668  1.1780
 5563TIP3   OH216694   2.499   3.503   4.872 -0.0772  0.4022  0.5635
 5563TIP3    H116695   2.510   3.456   4.955 -2.4378 -0.6980  0.3600
 5563TIP3    H216696   2.451   3.582   4.895 -0.6487  0.1438  0.2904
 5564TIP3   OH216697   6.156   4.739   4.224 -0.4611 -0.6062 -0.7476
 5564TIP3    H116698   6.220   4.712   4.159 -0.4209  0.4730 -1.1720
 5564TIP3    H216699   6.156   4.835   4.220 -0.3651 -0.5017  0.9209
 5565TIP3   OH216700   3.572   0.355   0.195 -0.0397 -0.0578 -0.5314
 5565TIP3    H116701   3.510   0.309   0.139 -1.9973  0.0942  1.4023
 5565TIP3    H216702   3.560   0.448   0.172 -1.2501  0.0566  0.4558
 5566TIP3   OH216703   0.459   1.879   3.045  0.0659 -0.1513 -0.2570
 5566TIP3    H116704   0.462   1.964   3.000 -1.5378  0.7599  1.2242
 5566TIP3    H216705   0.411   1.896   3.125  2.6005 -1.7575  1.7731
 5567TIP3   OH216706   1.964   3.335   2.646 -0.1303  0.6738 -0.4888
 5567TIP3    H116707   1.884   3.287   2.623 -0.3109  0.2546  0.9089
 5567TIP3    H216708   2.031   3.268   2.656 -0.1055  0.8058  0.3261
 5568TIP3   OH216709   6.024   3.465   2.221 -0.0155  0.0017 -0.8367
 5568TIP3    H116710   5.979   3.498   2.143  0.8131 -0.9098 -1.7416
 5568TIP3    H216711   6.059   3.380   2.194 -0.2908 -0.6532  0.7605
 5569TIP3   OH216712   1.019   4.315   1.842  0.0500 -0.1860 -0.5404
 5569TIP3    H116713   1.112   4.294   1.833 -0.0214 -0.1213 -1.5022
 5569TIP3    H216714   0.978   4.232   1.868  0.1621 -0.6030 -1.6553
 5570TIP3   OH216715   0.397   0.692   2.180  0.0586 -0.8879  0.0017
 5570TIP3    H116716   0.372   0.761   2.242  0.6972 -1.4266  0.8855
 5570TIP3    H216717   0.492   0.693   2.180  0.0772 -1.6917 -0.0624
 5571TIP3   OH216718   5.517   4.867   3.087  0.6083  0.1520 -0.4616
 5571TIP3    H116719   5.551   4.853   2.999  1.5498  0.8927 -0.2326
 5571TIP3    H216720   5.538   4.786   3.134  0.7778  0.0513 -0.7093
 5572TIP3   OH216721   2.238   0.541   4.126 -0.2470  0.3508 -0.5159
 5572TIP3    H116722   2.212   0.463   4.176  0.0082  0.2801 -0.4945
 5572TIP3    H216723   2.232   0.515   4.035  0.4048  0.1262 -0.4960
 5573TIP3   OH216724   0.292   4.584   4.488  0.0755  0.1557  0.3271
 5573TIP3    H116725   0.217   4.539   4.528  0.0718  1.3725  1.7885
 5573TIP3    H216726   0.319   4.647   4.554  1.9489  0.2458 -0.4839
 5574TIP3   OH216727   5.350   3.504   2.215  0.1681  0.0513 -0.5179
 5574TIP3    H116728   5.319   3.590   2.188  0.5389  0.3595  0.0020
 5574TIP3    H216729   5.323   3.445   2.145 -1.3164  0.3426 -0.2208
 5575TIP3   OH216730   3.349   0.473   0.370  0.2740  0.5842  0.5098
 5575TIP3    H116731   3.394   0.411   0.427 -0.1881 -1.5231 -1.2843
 5575TIP3    H216732   3.403   0.552   0.373  3.3674 -1.3135 -0.3970
 5576TIP3   OH216733   1.274   4.171   1.529 -0.2697  0.1960 -0.0722
 5576TIP3    H116734   1.279   4.161   1.624  1.0987  0.1233 -0.1338
 5576TIP3    H216735   1.290   4.083   1.494 -0.5557  0.2625 -0.3809
 5577TIP3   OH216736   4.633   0.048   4.112 -0.2056 -0.2831  0.6694
 5577TIP3    H116737   4.649  -0.040   4.146  4.6170 -0.2618 -0.7546
 5577TIP3    H216738   4.571   0.036   4.040 -1.1315 -2.1257  1.7110
 5578TIP3   OH216739   0.320   4.595   2.455  0.1881 -0.3650 -0.5827
 5578TIP3    H116740   0.230   4.608   2.485 -0.2872 -3.1914 -0.5467
 5578TIP3    H216741   0.340   4.504   2.477  3.6923  0.6186  0.9135
 5579TIP3   OH216742   1.259   3.538   3.588 -0.3130  0.5024  0.3293
 5579TIP3    H116743   1.287   3.505   3.503 -1.8528 -0.7695  0.2875
 5579TIP3    H216744   1.341   3.550   3.637  0.5131  0.1653 -0.9240
 5580TIP3   OH216745   5.184   5.748   4.347  0.4720  0.3015 -0.2298
 5580TIP3    H116746   5.217   5.671   4.396  0.9517 -0.6446 -1.9670
 5580TIP3    H216747   5.160   5.810   4.416  1.2007 -0.9283  1.2266
 5581TIP3   OH216748  -0.012   0.125   3.228 -0.3640 -0.2412  0.5693
 5581TIP3    H116749   0.082   0.128   3.244 -0.3228 -0.1898  0.3184
 5581TIP3    H216750  -0.020   0.120   3.133 -0.6626  1.7921  0.4542
 5582TIP3   OH216751   0.139   0.318   4.943 -0.1396  0.7191  0.1669
 5582TIP3    H116752   0.163   0.321   5.036  0.8657  4.6988 -0.0117
 5582TIP3    H216753   0.045   0.336   4.941  0.1789  2.7560  0.4936
 5583TIP3   OH216754   1.785   1.484   2.938  0.0028 -0.1093  0.1035
 5583TIP3    H116755   1.796   1.411   2.877 -0.7076 -0.6734  0.6307
 5583TIP3    H216756   1.690   1.490   2.952  0.1816 -0.6520  1.9012
 5584TIP3   OH216757   2.491   4.631   3.039 -0.1183 -0.4818  0.6674
 5584TIP3    H116758   2.547   4.569   3.087 -0.9389 -1.3244  0.5678
 5584TIP3    H216759   2.402   4.604   3.060 -0.5279 -1.2476 -1.7185
 5585TIP3   OH216760   5.516   5.403   3.600  0.1826 -0.1968  0.2498
 5585TIP3    H116761   5.458   5.409   3.675 -1.7927 -1.1150 -1.1081
 5585TIP3    H216762   5.576   5.476   3.610 -2.4298  2.0262  0.7810
 5586TIP3   OH216763   1.884   5.374   4.411 -0.2949 -0.2454 -0.5811
 5586TIP3    H116764   1.790   5.391   4.419 -0.1783  0.3709 -0.4941
 5586TIP3    H216765   1.891   5.313   4.338 -0.7107  0.1899 -0.9874
 5587TIP3   OH216766   6.165   0.596   2.841 -0.4923 -0.2018  0.4255
 5587TIP3    H116767   6.237   0.660   2.836 -1.3492  1.0808  2.6495
 5587TIP3    H216768   6.108   0.618   2.767 -1.4218  2.6147  1.8100
 5588TIP3   OH216769   4.299   4.946   1.217  0.3997  0.3195  0.2322
 5588TIP3    H116770   4.276   4.868   1.268  0.2557 -1.0497 -1.7966
 5588TIP3    H216771   4.218   4.968   1.169  0.3821  1.8625  0.9187
 5589TIP3   OH216772   3.383   1.061   2.136 -1.0660  0.0535  0.4100
 5589TIP3    H116773   3.406   1.144   2.177 -1.5029  0.8826 -0.9554
 5589TIP3    H216774   3.287   1.060   2.136 -1.0846  0.1368 -0.6550
 5590TIP3   OH216775   4.385   4.006   5.080  0.6652 -0.1849  0.1152
 5590TIP3    H116776   4.456   3.950   5.048 -0.8975 -1.5249 -1.1734
 5590TIP3    H216777   4.307   3.973   5.036 -0.8560  0.9651  1.8265
 5591TIP3   OH216778   6.263   0.771   0.819 -0.7879  0.1445  0.3170
 5591TIP3    H116779   6.281   0.749   0.728 -0.0945  1.6741  0.0714
 5591TIP3    H216780   6.192   0.835   0.815  0.1605  1.2595  0.7475
 5592TIP3   OH216781   2.530   3.541   4.306 -0.3458  0.1385  0.4030
 5592TIP3    H116782   2.599   3.572   4.247 -0.2001  0.3448  0.6781
 5592TIP3    H216783   2.542   3.592   4.386 -0.3868 -0.3162  0.7019
 5593TIP3   OH216784   5.072   0.654   2.853 -0.1863 -0.0348 -0.0422
 5593TIP3    H116785   5.166   0.643   2.870  0.0586 -2.5650 -2.3338
 5593TIP3    H216786   5.059   0.748   2.851  2.3768  0.3944  0.1027
 5594TIP3   OH216787   0.366   5.260   2.305  0.4120 -0.3458 -0.2930
 5594TIP3    H116788   0.299   5.193   2.297  2.0500 -1.8776 -2.1938
 5594TIP3    H216789   0.447   5.211   2.321  1.0643  1.4663  2.9404
 5595TIP3   OH216790   1.332   1.906   0.316  0.3228 -0.1513 -0.1299
 5595TIP3    H116791   1.424   1.883   0.299  0.0354 -0.7821 -0.8877
 5595TIP3    H216792   1.333   2.001   0.329  1.0729 -0.1390 -0.2051
 5596TIP3   OH216793   6.173   3.752   1.524  0.2310 -0.3013 -0.0278
 5596TIP3    H116794   6.131   3.680   1.571 -1.4056 -0.9123 -2.2244
 5596TIP3    H216795   6.204   3.811   1.593 -1.2867 -1.5016  1.7946
 5597TIP3   OH216796   0.458   4.393   2.101  0.0719  0.3038  0.4413
 5597TIP3    H116797   0.424   4.331   2.166 -0.2620  0.5245  0.4817
 5597TIP3    H216798   0.386   4.404   2.039  0.4703 -0.0732 -0.0895
 5598TIP3   OH216799   2.984   1.525   3.087 -0.4595  0.1143 -0.4434
 5598TIP3    H116800   2.943   1.439   3.095 -1.1750  0.4729 -0.1241
 5598TIP3    H216801   2.956   1.572   3.166  0.9385  0.2305  0.0204
 5599TIP3   OH216802   3.334   5.661   3.563  0.7260 -0.0126  0.0283
 5599TIP3    H116803   3.290   5.669   3.648 -0.7819 -0.9995 -0.6056
 5599TIP3    H216804   3.285   5.720   3.506  0.2756 -1.0410 -0.6699
 5600TIP3   OH216805   3.040   1.666   1.334 -0.7891  0.7698 -0.4428
 5600TIP3    H116806   3.087   1.745   1.361 -0.2659 -0.5104  2.9681
 5600TIP3    H216807   2.955   1.673   1.376 -1.5235  0.4293 -1.8239
 5601TIP3   OH216808   1.872   1.492   4.384 -1.1034 -0.1746 -0.3825
 5601TIP3    H116809   1.900   1.404   4.410  0.3760  0.4006  0.0406
 5601TIP3    H216810   1.836   1.530   4.464  0.3954  0.4116  0.0383
 5602TIP3   OH216811   1.403   2.805   4.427 -0.2547 -0.6080 -0.2458
 5602TIP3    H116812   1.315   2.799   4.463 -1.2888  2.7072 -1.8121
 5602TIP3    H216813   1.390   2.813   4.333  1.4865  1.8772 -0.3726
 5603TIP3   OH216814   5.201   0.733   5.171 -0.0361  0.0394 -0.1899
 5603TIP3    H116815   5.159   0.796   5.112 -0.3161 -0.1722 -0.2165
 5603TIP3    H216816   5.149   0.736   5.251 -1.0051 -1.2886 -0.7300
 5604TIP3   OH216817   0.366   0.055   1.145  0.5186 -0.1475  0.4811
 5604TIP3    H116818   0.424   0.127   1.171 -0.7694  0.3756  1.9882
 5604TIP3    H216819   0.291   0.061   1.203 -1.6405 -0.1199 -2.1142
 5605TIP3   OH216820   4.047   0.328   3.944  0.7217  0.0596 -0.0481
 5605TIP3    H116821   4.082   0.281   3.868 -0.7288  0.3653 -0.9551
 5605TIP3    H216822   4.051   0.420   3.920 -0.9457  0.0900 -0.3370
 5606TIP3   OH216823   2.582   0.778   2.160 -0.4150  0.4671  0.7961
 5606TIP3    H116824   2.563   0.708   2.098 -2.0885  0.5039  1.2069
 5606TIP3    H216825   2.557   0.858   2.114  0.8040  0.7457  0.5930
 5607TIP3   OH216826   0.529   2.698   1.329  0.2958  0.6802 -0.3349
 5607TIP3    H116827   0.527   2.605   1.352 -1.1200  0.7737  0.0385
 5607TIP3    H216828   0.618   2.727   1.350  0.2395 -0.1858  1.2021
 5608TIP3   OH216829   4.459   2.476   3.786  0.6232 -0.0815  0.1436
 5608TIP3    H116830   4.493   2.507   3.870 -0.8705  1.3564  0.2633
 5608TIP3    H216831   4.532   2.485   3.725  1.1516  0.6663  0.8704
 5609TIP3   OH216832   2.344   1.411   4.334  0.1047 -0.4276  0.1394
 5609TIP3    H116833   2.262   1.367   4.313 -0.9020  2.2724 -2.2536
 5609TIP3    H216834   2.331   1.445   4.423 -0.9488 -0.9678  0.2075
 5610TIP3   OH216835   1.605   1.928   0.202 -0.7325 -0.3224  1.1379
 5610TIP3    H116836   1.604   1.859   0.135  0.3409  1.3562 -0.7112
 5610TIP3    H216837   1.606   1.880   0.285 -2.6140 -2.4833  0.0279
 5611TIP3   OH216838   1.314   1.744   1.609  0.0742 -0.1196  0.7985
 5611TIP3    H116839   1.310   1.735   1.704 -0.1233 -1.2043  0.6998
 5611TIP3    H216840   1.231   1.707   1.578  0.6444 -0.9049  0.1476
 5612TIP3   OH216841   4.139   5.433   0.196 -0.4456 -0.0484  0.1556
 5612TIP3    H116842   4.226   5.471   0.186 -0.9894  1.0112 -0.9007
 5612TIP3    H216843   4.095   5.488   0.260 -0.5491 -0.1814  0.2002
 5613TIP3   OH216844   2.658   5.666   5.082 -0.4182 -0.1060 -0.0538
 5613TIP3    H116845   2.750   5.656   5.059  0.0394 -0.1536  1.6636
 5613TIP3    H216846   2.615   5.591   5.041  0.1268  0.4448 -1.6855
 5614TIP3   OH216847   0.667   1.817   0.950  0.0231 -0.7471  0.5812
 5614TIP3    H116848   0.707   1.828   1.036 -0.5170  0.8522  0.6718
 5614TIP3    H216849   0.719   1.873   0.892 -1.4769  0.6844  0.5341
 5615TIP3   OH216850   3.088   5.669   4.925 -0.5471  0.1298 -0.2517
 5615TIP3    H116851   3.169   5.621   4.945  0.1529  1.3023 -0.1904
 5615TIP3    H216852   3.096   5.693   4.833 -1.3228 -0.6410 -0.5390
 5616TIP3   OH216853   3.314   2.678   3.889 -0.1441 -0.0188  0.3527
 5616TIP3    H116854   3.288   2.766   3.916  1.8437  0.9711 -0.7286
 5616TIP3    H216855   3.390   2.658   3.944 -0.1861 -0.7935  0.1347
 5617TIP3   OH216856   5.417   2.327   2.504  0.2326  0.2967 -0.2796
 5617TIP3    H116857   5.497   2.362   2.465  0.2164 -0.7337 -1.2752
 5617TIP3    H216858   5.389   2.395   2.566  0.9421  1.4295 -1.1644
 5618TIP3   OH216859   0.014   2.276   2.152 -0.0503  0.7936  0.0136
 5618TIP3    H116860  -0.033   2.225   2.086 -0.2513 -0.0190  0.7756
 5618TIP3    H216861   0.019   2.364   2.115  0.2379  0.2482 -1.2900
 5619TIP3   OH216862   3.113   4.893   1.183  0.4441 -0.4544  0.4090
 5619TIP3    H116863   3.036   4.864   1.232 -0.3568  1.4945  0.3863
 5619TIP3    H216864   3.079   4.909   1.094 -0.1512  3.9816  1.2063
 5620TIP3   OH216865   5.004   2.741   4.421  0.3659 -0.3319  0.0150
 5620TIP3    H116866   5.047   2.738   4.507 -1.9237  0.0433  1.2486
 5620TIP3    H216867   4.972   2.831   4.414 -0.7685 -0.7700 -0.5607
 5621TIP3   OH216868   3.995   5.802   2.387 -0.1384  0.1729 -0.2971
 5621TIP3    H116869   3.931   5.772   2.451  0.4383 -0.1449  0.1433
 5621TIP3    H216870   3.955   5.783   2.302 -0.7699  0.2965 -0.0302
 5622TIP3   OH216871   4.735   5.993   3.332  0.0170 -0.1006 -0.1462
 5622TIP3    H116872   4.801   5.985   3.264  0.3213 -1.5290  0.2773
 5622TIP3    H216873   4.778   5.960   3.411 -1.5911 -2.4814 -0.1565
 5623TIP3   OH216874   1.891   0.617   0.251 -0.2728 -0.2636  0.5078
 5623TIP3    H116875   1.796   0.612   0.261 -0.2339 -1.0381  0.5477
 5623TIP3    H216876   1.926   0.600   0.339 -0.1413  3.2252  1.2524
 5624TIP3   OH216877   3.547   4.884   4.539 -0.7531  0.4664 -0.5657
 5624TIP3    H116878   3.571   4.809   4.484  0.6761  0.0762  0.5104
 5624TIP3    H216879   3.631   4.923   4.563 -1.2541  0.2095  1.8691
 5625TIP3   OH216880   1.991   0.059   3.146 -0.2634 -0.3137  0.1474
 5625TIP3    H116881   2.004   0.085   3.055  2.4560  1.0481  0.8066
 5625TIP3    H216882   2.006  -0.035   3.147  1.3449 -0.0960 -0.6088
 5626TIP3   OH216883   3.501   5.274   1.593  0.2609  0.6348 -0.6925
 5626TIP3    H116884   3.509   5.281   1.498  1.9461 -1.4076 -0.7481
 5626TIP3    H216885   3.426   5.216   1.607  0.1770  0.7259 -0.7586
 5627TIP3   OH216886   3.728   4.983   2.979  0.4767  0.9653  0.5130
 5627TIP3    H116887   3.693   4.956   3.065  1.0228 -0.0619  0.4325
 5627TIP3    H216888   3.812   4.938   2.972 -0.2057 -0.1580 -1.1770
 5628TIP3   OH216889   4.078   4.667   0.990  0.0628 -0.2841  0.5315
 5628TIP3    H116890   4.032   4.725   1.050  1.2823  0.9633  0.3226
 5628TIP3    H216891   4.031   4.675   0.907  0.2600  0.4921  0.4860
 5629TIP3   OH216892   4.167   4.853   3.988 -0.3577 -0.1029 -0.6115
 5629TIP3    H116893   4.126   4.906   3.919  0.4987  0.0479 -1.0120
 5629TIP3    H216894   4.119   4.877   4.068 -0.8210  0.3299 -1.0120
 5630TIP3   OH216895   4.016   1.472   3.122 -0.6010  0.4991 -0.2556
 5630TIP3    H116896   3.990   1.443   3.209  0.5094 -0.2961 -0.1623
 5630TIP3    H216897   4.075   1.404   3.090  0.3402  1.5846 -0.9371
 5631TIP3   OH216898   5.508   5.527   0.954  0.0853 -0.2618  0.4440
 5631TIP3    H116899   5.525   5.433   0.957  1.5506 -0.1452 -1.7303
 5631TIP3    H216900   5.594   5.567   0.965 -0.4688  0.8376  0.9488
 5632TIP3   OH216901   5.541   1.566   0.568  0.4144 -0.3199 -0.4870
 5632TIP3    H116902   5.607   1.510   0.608 -0.3946  0.2844  1.8634
 5632TIP3    H216903   5.573   1.655   0.584 -0.1158 -0.0529 -0.8946
 5633TIP3   OH216904   1.637   0.088   0.879  0.0693  0.3641 -0.1800
 5633TIP3    H116905   1.644   0.141   0.959  1.0395 -0.7877  0.5314
 5633TIP3    H216906   1.682   0.140   0.812  1.8091  0.0911  0.7167
 5634TIP3   OH216907   3.536   4.396   5.021  0.2525  0.4360 -0.8311
 5634TIP3    H116908   3.556   4.431   5.108 -0.0488 -0.3071 -0.4492
 5634TIP3    H216909   3.617   4.354   4.992  0.6141  1.4382 -1.2909
 5635TIP3   OH216910   2.674   1.718   0.384  0.3142  0.0507 -0.2146
 5635TIP3    H116911   2.612   1.646   0.394  0.4056 -0.4444 -2.5411
 5635TIP3    H216912   2.758   1.681   0.410  0.0993 -0.1805  0.1515
 5636TIP3   OH216913   4.681   4.740   2.179 -0.0909 -0.0015 -0.2326
 5636TIP3    H116914   4.764   4.733   2.226 -1.1541  0.5692  1.8599
 5636TIP3    H216915   4.688   4.823   2.131  0.4995  0.1139  0.0368
 5637TIP3   OH216916   3.578   4.959   1.570  0.3382 -0.2606 -0.0907
 5637TIP3    H116917   3.605   4.893   1.506 -1.0464  0.3692 -1.3732
 5637TIP3    H216918   3.487   4.979   1.547  0.3174  1.1449  1.0998
 5638TIP3   OH216919   2.978   5.141   3.848 -0.0056  0.2295 -0.1404
 5638TIP3    H116920   2.885   5.159   3.863  0.0940  1.1149 -0.5224
 5638TIP3    H216921   2.982   5.046   3.836 -0.6626 -0.0003  1.2058
 5639TIP3   OH216922   6.276   3.209   3.643  0.0058  0.2123 -0.3195
 5639TIP3    H116923   6.335   3.134   3.653 -0.9981 -0.3991  1.2768
 5639TIP3    H216924   6.334   3.286   3.644  0.9469 -0.4689 -0.9702
 5640TIP3   OH216925   0.244   4.625   3.987 -0.5527 -0.1896 -0.2820
 5640TIP3    H116926   0.156   4.662   4.000 -0.4409 -0.0454  0.0983
 5640TIP3    H216927   0.294   4.696   3.948  0.2526  0.8763  2.4152
 5641TIP3   OH216928   4.275   5.506   4.674 -0.0090 -0.1615 -0.0477
 5641TIP3    H116929   4.182   5.525   4.671 -0.0983 -0.4805  0.4953
 5641TIP3    H216930   4.304   5.541   4.759  0.4361  0.2528 -0.3665
 5642TIP3   OH216931   0.372   5.246   0.998 -0.3966 -0.1943 -0.2604
 5642TIP3    H116932   0.435   5.257   1.069  0.1266  1.4031 -0.9417
 5642TIP3    H216933   0.306   5.186   1.034  1.1964 -1.4791  0.6510
 5643TIP3   OH216934   1.316   5.290   1.607 -0.3745 -0.9971 -0.0919
 5643TIP3    H116935   1.252   5.253   1.667  0.6822 -0.9112  1.1268
 5643TIP3    H216936   1.290   5.382   1.598 -0.3265 -0.9184  0.5402
 5644TIP3   OH216937   5.429   5.033   0.620 -1.1101 -0.2619 -0.0060
 5644TIP3    H116938   5.505   5.034   0.561 -2.6499  0.5653 -2.1327
 5644TIP3    H216939   5.415   5.125   0.641 -1.0574 -0.4879  1.0590
 5645TIP3   OH216940   0.631   4.824   2.275 -0.5174  0.4018 -0.2610
 5645TIP3    H116941   0.613   4.786   2.361 -2.3418 -0.9393 -1.1983
 5645TIP3    H216942   0.687   4.760   2.232 -1.6373 -0.1148 -0.9682
 5646TIP3   OH216943   2.805   2.808   1.555  0.4511 -0.0168  0.1964
 5646TIP3    H116944   2.869   2.766   1.612 -0.7592 -0.9493  0.9193
 5646TIP3    H216945   2.766   2.737   1.504 -0.8857  0.3311  0.6814
 5647TIP3   OH216946   1.323   1.808   4.974  0.3143  0.0112 -0.2275
 5647TIP3    H116947   1.409   1.805   5.016  2.2994 -1.0342 -3.8811
 5647TIP3    H216948   1.286   1.721   4.989  0.0300  0.3182  0.9752
 5648TIP3   OH216949   0.126   4.314   2.954 -0.5029  0.3192  0.0840
 5648TIP3    H116950   0.096   4.383   2.895 -0.6296  0.6110  0.4859
 5648TIP3    H216951   0.191   4.265   2.903 -0.7606  0.4428 -0.3649
 5649TIP3   OH216952   5.484   0.496   0.065 -0.2407 -0.1980 -0.1146
 5649TIP3    H116953   5.554   0.437   0.039  0.3260  0.1236  0.6548
 5649TIP3    H216954   5.404   0.443   0.057  0.1665 -0.7928 -0.2833
 5650TIP3   OH216955   3.235   1.615   1.006 -0.3706  0.2775 -0.8301
 5650TIP3    H116956   3.221   1.551   0.937 -0.2864 -0.3298 -0.2939
 5650TIP3    H216957   3.156   1.611   1.060  0.9835 -1.8671  1.1661
 5651TIP3   OH216958   3.791   1.827   2.904 -0.1849 -0.1211  0.0135
 5651TIP3    H116959   3.883   1.851   2.893 -0.2140  0.7034  1.2885
 5651TIP3    H216960   3.791   1.732   2.905  0.6383 -0.1306 -0.1832
 5652TIP3   OH216961   3.504   5.457   2.991 -0.1713 -0.3999  0.0753
 5652TIP3    H116962   3.469   5.415   2.912 -0.7877  0.6016 -0.2039
 5652TIP3    H216963   3.541   5.540   2.960 -2.4122  1.0736  1.0917
 5653TIP3   OH216964   5.414   1.355   3.906  0.4507 -0.6921  0.0893
 5653TIP3    H116965   5.381   1.416   3.841  1.1271 -0.2954  0.0987
 5653TIP3    H216966   5.457   1.286   3.855  1.5689 -0.0385  0.0981
 5654TIP3   OH216967   2.517   0.736   3.896 -0.4062  0.1737 -0.1556
 5654TIP3    H116968   2.438   0.748   3.949 -0.6233 -2.8143  0.3827
 5654TIP3    H216969   2.582   0.701   3.958  0.1332 -0.9752 -1.3121
 5655TIP3   OH216970   3.193   1.517   2.466  0.6697 -0.0244  0.0245
 5655TIP3    H116971   3.146   1.435   2.450  0.8377 -0.0252 -0.4941
 5655TIP3    H216972   3.254   1.496   2.537 -0.0889 -0.0259  0.6948
 5656TIP3   OH216973   2.414   0.885   4.872 -0.0589  0.0010 -1.0045
 5656TIP3    H116974   2.494   0.938   4.866 -0.4712  0.6429 -0.9423
 5656TIP3    H216975   2.443   0.796   4.854  0.4998  0.3712 -2.0212
 5657TIP3   OH216976   0.554   5.941   2.880  0.0021 -0.0479  0.6158
 5657TIP3    H116977   0.464   5.972   2.891 -0.0467 -0.3278  1.0607
 5657TIP3    H216978   0.546   5.865   2.822  0.0712  0.5035 -0.1263
 5658TIP3   OH216979   6.101   5.591   4.606  0.0374 -0.1577  0.0964
 5658TIP3    H116980   6.102   5.661   4.672  0.0994  0.5333 -0.6237
 5658TIP3    H216981   6.162   5.620   4.539 -0.2303 -0.7227 -0.4013
 5659TIP3   OH216982   0.816   1.315   0.744  0.7456 -0.6633  0.1104
 5659TIP3    H116983   0.741   1.366   0.712  0.2292  0.0132  2.2148
 5659TIP3    H216984   0.878   1.381   0.775  0.5615 -1.2377  1.8074
 5660TIP3   OH216985   0.477   2.620   0.218  0.1496  0.4038 -0.6913
 5660TIP3    H116986   0.482   2.562   0.294 -2.9988 -1.2673 -1.5725
 5660TIP3    H216987   0.532   2.578   0.152  0.0372 -0.0962 -0.4715
 5661TIP3   OH216988   1.899   2.684   1.108  0.1083  0.1506 -0.3143
 5661TIP3    H116989   1.945   2.631   1.043 -1.9244  0.0992 -1.8149
 5661TIP3    H216990   1.965   2.744   1.142  1.7650 -1.3643 -0.7135
 5662TIP3   OH216991   4.010   0.507   2.406  0.2670 -0.2075 -0.7379
 5662TIP3    H116992   4.032   0.448   2.478 -3.1826 -0.2281  0.5069
 5662TIP3    H216993   4.081   0.571   2.405  1.4145 -1.3351  1.4172
 5663TIP3   OH216994   4.650   0.124   4.820  0.2409  0.0686  0.0846
 5663TIP3    H116995   4.582   0.057   4.818 -0.6971  0.9845  0.5441
 5663TIP3    H216996   4.704   0.104   4.743 -2.2070  0.9913 -2.0129
 5664TIP3   OH216997   4.190   3.736   3.573 -0.2404  0.0744 -0.0062
 5664TIP3    H116998   4.264   3.728   3.633 -0.5787  2.1852  0.7891
 5664TIP3    H216999   4.154   3.823   3.591 -3.0451 -0.9260 -0.1967
 5665TIP3   OH217000   1.021   4.874   1.947 -0.1047 -0.3167  1.1532
 5665TIP3    H117001   1.000   4.967   1.952  2.2395  0.3813 -0.3664
 5665TIP3    H217002   1.019   4.844   2.037 -2.3926  0.8099  1.5350
 5666TIP3   OH217003   5.001   5.175   0.353  0.2039  0.2548  0.3511
 5666TIP3    H117004   5.060   5.250   0.342  0.6368  0.1776  1.9177
 5666TIP3    H217005   4.945   5.177   0.275  2.5427  0.0504 -1.4592
 5667TIP3   OH217006   4.065   5.849   3.739  0.1866  0.1529 -0.6223
 5667TIP3    H117007   4.057   5.771   3.794  0.3147 -0.0303 -0.8611
 5667TIP3    H217008   4.125   5.823   3.669  0.4184  0.5417 -0.5709
 5668TIP3   OH217009   2.234   3.971   0.893  0.5445  0.1723  0.0611
 5668TIP3    H117010   2.199   3.979   0.804 -0.0144 -1.6592  0.0623
 5668TIP3    H217011   2.195   3.890   0.926  2.6687 -0.5175  1.0639
 5669TIP3   OH217012   3.032   2.110   2.771 -0.4152 -0.4841  0.0201
 5669TIP3    H117013   2.978   2.175   2.726 -0.7635 -0.3509  0.6209
 5669TIP3    H217014   3.069   2.157   2.846 -1.1691 -1.1348  0.8150
 5670TIP3   OH217015   3.287   0.560   2.803 -0.3394 -0.1182 -0.2571
 5670TIP3    H117016   3.276   0.509   2.883  2.7881 -1.5512 -0.5887
 5670TIP3    H217017   3.335   0.638   2.830  1.4799 -1.0029 -0.7475
 5671TIP3   OH217018   1.482   3.177   4.889 -0.2234 -0.0571  0.1535
 5671TIP3    H117019   1.450   3.262   4.861 -0.3056 -0.5170 -1.2274
 5671TIP3    H217020   1.575   3.177   4.866 -0.1593 -0.2407  0.4033
 5672TIP3   OH217021   0.987   5.095   3.146 -0.5974  1.0146 -0.2567
 5672TIP3    H117022   1.051   5.024   3.134 -0.0244  1.1556  1.6049
 5672TIP3    H217023   0.910   5.066   3.098  0.1587 -0.1410 -0.8319
 5673TIP3   OH217024   1.308   5.991   2.836  0.0955 -0.3027  0.4188
 5673TIP3    H117025   1.233   5.957   2.885  0.3454 -2.2747 -0.4633
 5673TIP3    H217026   1.385   5.958   2.883  0.4300  1.2238  0.9889
 5674TIP3   OH217027   6.235   4.316   4.673  0.0582  0.7097 -0.1393
 5674TIP3    H117028   6.226   4.391   4.614  0.4932  0.2828 -0.7638
 5674TIP3    H217029   6.329   4.311   4.692 -0.0207  0.5706  0.2359
 5675TIP3   OH217030   2.555   4.024   3.894 -0.0762  0.5902  0.2725
 5675TIP3    H117031   2.645   3.998   3.916 -0.2257  0.0921  0.3228
 5675TIP3    H217032   2.526   4.076   3.968 -0.8203 -1.6527  1.6687
 5676TIP3   OH217033   0.076   3.752   1.949 -0.0944 -0.1566  0.5231
 5676TIP3    H117034   0.106   3.783   2.035  0.4734 -0.6756  0.5219
 5676TIP3    H217035   0.150   3.769   1.891 -1.0735  1.7715 -0.2616
 5677TIP3   OH217036   5.573   2.561   3.554  0.2855  0.2231 -0.5558
 5677TIP3    H117037   5.661   2.577   3.519 -0.7015  0.2737 -3.1952
 5677TIP3    H217038   5.549   2.642   3.598  1.0582  0.6557 -0.9132
 5678TIP3   OH217039   4.663   3.111   3.318 -0.4833 -0.0227 -0.5159
 5678TIP3    H117040   4.699   3.102   3.230 -2.7843  0.5728 -1.6020
 5678TIP3    H217041   4.604   3.036   3.328 -1.4108  0.7291 -0.1310
 5679TIP3   OH217042   6.154   2.620   5.094 -0.1926 -0.3688  0.7090
 5679TIP3    H117043   6.173   2.714   5.092  0.4692 -0.4694 -2.2097
 5679TIP3    H217044   6.086   2.611   5.160 -0.5802  2.2291  0.7682
 5680TIP3   OH217045   2.451   2.741   0.402 -0.3758  0.3884  0.0076
 5680TIP3    H117046   2.370   2.758   0.353 -0.8339  1.8767  1.2340
 5680TIP3    H217047   2.421   2.702   0.484  0.3636 -1.6558 -0.6152
 5681TIP3   OH217048   1.081   3.521   1.758 -0.4206 -0.8892 -0.6171
 5681TIP3    H117049   0.986   3.534   1.754 -0.5546 -2.0821 -2.4732
 5681TIP3    H217050   1.113   3.553   1.673  1.2656  2.0131  0.9376
 5682TIP3   OH217051   4.714   5.520   2.883  0.7256 -0.0028  0.3575
 5682TIP3    H117052   4.719   5.596   2.941 -1.4993 -0.5517  1.3687
 5682TIP3    H217053   4.795   5.472   2.899  0.6357  0.4105  2.2632
 5683TIP3   OH217054  -0.014   3.434   0.117  0.3146 -0.4850  1.0166
 5683TIP3    H117055   0.052   3.365   0.127 -0.3671 -1.3820 -0.3746
 5683TIP3    H217056   0.034   3.508   0.080  0.6191 -1.0374  0.2724
 5684TIP3   OH217057   6.115   4.448   2.387  0.1280  0.3817  0.3906
 5684TIP3    H117058   6.178   4.403   2.331  0.5626  1.0871  0.3027
 5684TIP3    H217059   6.097   4.386   2.458  1.4888  0.4600  0.8197
 5685TIP3   OH217060   1.590   3.798   0.248 -0.6817 -0.1028 -0.0843
 5685TIP3    H117061   1.583   3.704   0.231 -2.1082 -0.0188 -0.1582
 5685TIP3    H217062   1.665   3.826   0.197  1.9448 -1.7292  2.5405
 5686TIP3   OH217063   5.511   4.267   4.787 -0.5691 -0.2112  0.1219
 5686TIP3    H117064   5.433   4.315   4.761  0.6048  1.8324  0.1281
 5686TIP3    H217065   5.576   4.335   4.806  1.0796 -1.8145  0.5611
 5687TIP3   OH217066   4.600   0.786   4.609  1.4119 -0.7290  0.6281
 5687TIP3    H117067   4.511   0.787   4.642  1.0077 -0.8180 -0.4139
 5687TIP3    H217068   4.653   0.823   4.680  0.1899  2.0539  0.2196
 5688TIP3   OH217069   4.210   1.820   4.364 -0.0761  0.2837 -0.2085
 5688TIP3    H117070   4.285   1.801   4.420  0.8192  0.8281 -1.1983
 5688TIP3    H217071   4.150   1.871   4.420  0.3728  0.0253  0.5199
 5689TIP3   OH217072   3.405   4.548   1.307  0.2782 -0.3552  0.4013
 5689TIP3    H117073   3.374   4.614   1.246 -0.0865  0.2691  1.2545
 5689TIP3    H217074   3.369   4.466   1.273  3.0106 -0.6188 -2.2812
 5690TIP3   OH217075   3.039   4.607   2.272 -0.1602 -0.1667 -0.1045
 5690TIP3    H117076   3.001   4.640   2.353  1.3086 -0.7923  0.8658
 5690TIP3    H217077   2.967   4.559   2.230 -1.2915  1.2183  0.1722
 5691TIP3   OH217078   3.163   2.333   5.146 -0.1795 -0.1015  0.5522
 5691TIP3    H117079   3.257   2.344   5.134 -0.2409  0.1061  0.2417
 5691TIP3    H217080   3.153   2.311   5.239  0.2315 -0.7952  0.4348
 5692TIP3   OH217081   4.463   2.543   4.637 -0.3495 -0.0653 -0.4430
 5692TIP3    H117082   4.403   2.588   4.576 -0.2642 -1.0618 -1.2834
 5692TIP3    H217083   4.542   2.527   4.586  0.7545  1.3665  0.6999
 5693TIP3   OH217084   5.013   1.247   0.871  0.0467 -0.1388  0.7263
 5693TIP3    H117085   4.988   1.338   0.854  1.1417 -0.0370 -0.5151
 5693TIP3    H217086   5.092   1.234   0.819 -0.0592 -1.7954  0.9289
 5694TIP3   OH217087   0.547   0.442   3.095 -0.4134 -0.4117 -0.3959
 5694TIP3    H117088   0.616   0.378   3.112 -0.2814  0.0934  1.1056
 5694TIP3    H217089   0.583   0.497   3.026  0.7999 -0.0421  0.4910
 5695TIP3   OH217090   3.825   2.505   2.521  0.5157 -0.1771 -0.0643
 5695TIP3    H117091   3.818   2.498   2.425  0.1505 -0.9968  0.0098
 5695TIP3    H217092   3.808   2.597   2.539 -1.6511 -0.3893 -0.6389
 5696TIP3   OH217093   5.763   4.353   2.162 -0.5691 -0.3408 -0.2901
 5696TIP3    H117094   5.759   4.328   2.070  0.5019 -2.7346  0.2398
 5696TIP3    H217095   5.828   4.424   2.165 -1.4901  0.5876 -1.4970
 5697TIP3   OH217096   0.979   0.873   4.877 -0.6340  0.3632  0.0341
 5697TIP3    H117097   1.015   0.785   4.891  0.3475  0.7852  0.2168
 5697TIP3    H217098   0.941   0.897   4.961 -3.4979 -0.9940 -0.7297
 5698TIP3   OH217099   2.597   1.467   1.630  0.1725  0.0567 -0.0073
 5698TIP3    H117100   2.629   1.458   1.720  0.8726 -1.7802 -0.3798
 5698TIP3    H217101   2.504   1.445   1.635  0.3492 -0.6734  0.1946
 5699TIP3   OH217102   5.341   2.099   1.374 -0.4905  0.1766 -0.8713
 5699TIP3    H117103   5.365   2.058   1.290  3.1288 -4.2583  1.8628
 5699TIP3    H217104   5.309   2.027   1.428 -2.9451  2.8824  1.6589
 5700TIP3   OH217105   3.994   5.785   1.108 -0.2895 -0.5864 -0.4672
 5700TIP3    H117106   3.930   5.721   1.142 -1.8056  0.5030 -1.1820
 5700TIP3    H217107   3.970   5.867   1.151  0.9205 -0.2285 -0.4447
 5701TIP3   OH217108   2.745   5.023   4.169 -0.1434 -0.3279 -0.5237
 5701TIP3    H117109   2.736   5.118   4.162 -0.4353 -0.3533 -0.4918
 5701TIP3    H217110   2.713   5.003   4.257  1.2718 -0.2878  0.0334
 5702TIP3   OH217111   4.821   2.555   1.377 -0.2939 -0.2874 -0.4516
 5702TIP3    H117112   4.753   2.578   1.313 -0.7538  0.2108  0.2061
 5702TIP3    H217113   4.824   2.629   1.437  1.5955  0.1901 -1.0716
 5703TIP3   OH217114   3.116   5.820   1.979 -0.2542 -0.8452  0.0514
 5703TIP3    H117115   3.071   5.885   2.032  0.5136  0.2103 -0.5650
 5703TIP3    H217116   3.116   5.856   1.891 -1.2898 -2.4639 -0.6506
 5704TIP3   OH217117   4.356   1.078   4.320 -0.4276  0.2189  0.3873
 5704TIP3    H117118   4.314   1.023   4.253 -1.4250  0.4398  0.8023
 5704TIP3    H217119   4.448   1.054   4.317 -1.0047 -2.6249  1.5539
 5705TIP3   OH217120   5.993   0.006   1.263 -0.6295 -0.1137 -0.2750
 5705TIP3    H117121   5.964   0.095   1.245 -0.6879 -0.1657 -0.4441
 5705TIP3    H217122   5.922  -0.049   1.230 -0.6700 -0.2163 -0.0173
 5706TIP3   OH217123   4.610   1.361   2.215  0.1092  0.3577  0.2737
 5706TIP3    H117124   4.673   1.292   2.198  1.2018  1.7137 -1.5747
 5706TIP3    H217125   4.556   1.364   2.136 -1.9262 -0.3561  1.5658
 5707TIP3   OH217126   1.298   4.815   2.108  0.2597 -0.4842  0.2172
 5707TIP3    H117127   1.339   4.882   2.054 -0.8732 -0.0167 -0.0840
 5707TIP3    H217128   1.313   4.843   2.198  1.3080 -0.7577  0.1417
 5708TIP3   OH217129   5.284   5.859   3.566  0.1535 -0.5189  0.3349
 5708TIP3    H117130   5.336   5.939   3.570  0.7839 -0.9108  0.2550
 5708TIP3    H217131   5.337   5.800   3.512 -0.9920 -0.4881 -0.8595
 5709TIP3   OH217132   3.485   2.845   0.953  0.0511 -0.2068 -0.2564
 5709TIP3    H117133   3.447   2.843   0.865  1.3351 -1.2935 -0.8159
 5709TIP3    H217134   3.545   2.919   0.952  1.8011 -1.5510 -1.1078
 5710TIP3   OH217135   0.109   0.200   0.508 -0.3975 -0.0188 -0.0423
 5710TIP3    H117136   0.113   0.289   0.543  0.0148 -0.0802  0.0757
 5710TIP3    H217137   0.016   0.181   0.500 -0.4883  0.6335 -0.6131
 5711TIP3   OH217138   4.959   4.967   1.644  0.1845 -0.7146 -0.4709
 5711TIP3    H117139   4.985   4.981   1.554 -1.9959  1.6226 -0.8452
 5711TIP3    H217140   4.957   5.054   1.683  0.3408 -1.5883  1.6454
 5712TIP3   OH217141   5.195   1.347   3.017 -0.3644 -0.2597  0.5650
 5712TIP3    H117142   5.145   1.377   2.941 -1.9002 -0.5512  1.3954
 5712TIP3    H217143   5.192   1.251   3.010  0.7494 -0.2738  0.2261
 5713TIP3   OH217144   5.631   1.026   2.370 -0.3517  0.3037 -0.1764
 5713TIP3    H117145   5.584   1.084   2.309 -0.0667  0.5729 -0.1414
 5713TIP3    H217146   5.720   1.024   2.337 -0.7370 -1.5527 -1.2378
 5714TIP3   OH217147   4.588   2.740   4.333 -1.0509 -0.0779 -0.0783
 5714TIP3    H117148   4.516   2.797   4.305 -2.4597 -0.8298  1.8062
 5714TIP3    H217149   4.555   2.651   4.319 -0.8023 -0.4410  1.4920
 5715TIP3   OH217150   1.115   3.916   1.678 -0.1633  0.6377 -0.3575
 5715TIP3    H117151   1.084   3.827   1.697 -1.9052  1.1153 -0.7474
 5715TIP3    H217152   1.169   3.906   1.600 -0.8905 -0.0051 -0.7954
 5716TIP3   OH217153   4.151   1.109   3.477 -0.0280  0.2146  0.5906
 5716TIP3    H117154   4.082   1.145   3.533  2.0174  3.5904  1.2143
 5716TIP3    H217155   4.200   1.050   3.535 -1.3297 -0.8408  0.6378
 5717TIP3   OH217156   3.950   4.509   2.774  0.4559  0.2974 -0.4516
 5717TIP3    H117157   3.976   4.426   2.815  0.1682 -0.1957 -1.2408
 5717TIP3    H217158   3.987   4.576   2.831 -0.1762 -0.3511  0.7900
 5718TIP3   OH217159   3.947   4.720   3.635 -0.0395 -0.1275 -0.7469
 5718TIP3    H117160   4.011   4.789   3.649 -1.3062  1.5933 -2.8382
 5718TIP3    H217161   3.898   4.716   3.718  1.9893 -0.7587  0.4965
 5719TIP3   OH217162   2.235   5.425   1.826  0.6876 -0.0690  0.4448
 5719TIP3    H117163   2.246   5.482   1.751 -0.6814  0.5022  0.6551
 5719TIP3    H217164   2.317   5.375   1.830  1.0087  0.2838 -1.0709
 5720TIP3   OH217165   3.639   3.322   1.430  0.4431 -0.0936 -0.1664
 5720TIP3    H117166   3.597   3.392   1.381 -0.3531 -0.3831  0.0903
 5720TIP3    H217167   3.688   3.367   1.499  1.5508  0.3087 -1.1968
 5721TIP3   OH217168   1.541   3.277   1.721  0.6122  0.4196 -0.2905
 5721TIP3    H117169   1.463   3.281   1.778  1.1198  0.7942  0.3869
 5721TIP3    H217170   1.568   3.185   1.726  0.5225  0.4016 -0.1037
 5722TIP3   OH217171   4.868   1.489   0.726 -0.1974 -0.6043 -0.3354
 5722TIP3    H117172   4.795   1.500   0.787 -0.2190  0.0899 -0.4761
 5722TIP3    H217173   4.849   1.407   0.681 -0.1830 -1.1255  0.5827
 5723TIP3   OH217174   3.167   0.199   3.985 -0.1197 -0.0360  0.0867
 5723TIP3    H117175   3.223   0.263   4.029  0.1049  0.5906 -1.0583
 5723TIP3    H217176   3.226   0.148   3.930 -0.4487 -0.4771  0.1402
 5724TIP3   OH217177   5.075   0.537   0.125  0.0303  0.0616  0.6801
 5724TIP3    H117178   5.149   0.480   0.144 -0.0973 -0.3704 -0.0658
 5724TIP3    H217179   5.115   0.621   0.101  0.2264  0.2084  1.4713
 5725TIP3   OH217180   0.845   4.692   0.310  0.7484  0.0125  0.3081
 5725TIP3    H117181   0.940   4.692   0.302  0.8653  1.6819  1.2170
 5725TIP3    H217182   0.815   4.746   0.237  0.1480 -3.3098 -2.1664
 5726TIP3   OH217183   1.470   0.997   4.255  0.2684 -0.2207 -0.1635
 5726TIP3    H117184   1.531   0.956   4.316 -0.1005 -2.2177 -1.0812
 5726TIP3    H217185   1.495   1.090   4.255  0.4679 -0.1780  2.7771
 5727TIP3   OH217186   5.436   1.351   3.407  1.0509 -0.2380 -0.2526
 5727TIP3    H117187   5.505   1.312   3.461 -0.0528  0.5224  1.8227
 5727TIP3    H217188   5.355   1.324   3.449  0.1045  0.0428 -1.8165
 5728TIP3   OH217189   0.124   0.728   1.459  0.3315  0.7074  0.0466
 5728TIP3    H117190   0.054   0.793   1.450  0.6156  0.8902 -1.1085
 5728TIP3    H217191   0.121   0.678   1.377  0.2087 -0.6575  0.8656
 5729TIP3   OH217192   4.455   3.473   0.894 -0.5233  0.6749 -0.0517
 5729TIP3    H117193   4.484   3.419   0.820  1.1250  1.0396  0.2764
 5729TIP3    H217194   4.433   3.410   0.962  1.0652  0.3606  0.2153
 5730TIP3   OH217195   5.186   5.854   0.188 -0.2285 -0.7179  0.3390
 5730TIP3    H117196   5.141   5.826   0.268  0.3148 -0.9666  0.5658
 5730TIP3    H217197   5.134   5.817   0.117 -1.8165  1.0948  0.4812
 5731TIP3   OH217198   0.210   3.209   0.389  0.3072  0.0755  0.4672
 5731TIP3    H117199   0.295   3.165   0.381  0.5285  0.3939  0.9871
 5731TIP3    H217200   0.197   3.251   0.304 -0.5583 -2.1037 -0.5543
 5732TIP3   OH217201   3.510   0.424   2.502  0.3194 -0.4965  0.2037
 5732TIP3    H117202   3.433   0.430   2.446 -0.1848 -1.0815  0.8127
 5732TIP3    H217203   3.562   0.354   2.464  1.0377  0.5270 -0.7633
 5733TIP3   OH217204   0.223   1.745   2.930  0.2885 -0.2370 -0.1576
 5733TIP3    H117205   0.272   1.807   2.983  0.8331  0.3108 -1.2658
 5733TIP3    H217206   0.141   1.790   2.909 -1.3116 -1.5813  2.6551
 5734TIP3   OH217207   4.104   5.641   3.190  0.0566 -0.4751 -0.2834
 5734TIP3    H117208   4.107   5.733   3.215 -0.5205 -0.7528  0.8652
 5734TIP3    H217209   4.025   5.633   3.138  0.9570 -0.0128 -1.7775
 5735TIP3   OH217210   1.703   1.769   3.612 -0.5447  0.6021 -0.4464
 5735TIP3    H117211   1.766   1.697   3.619 -0.3328  0.7156 -1.1146
 5735TIP3    H217212   1.757   1.846   3.594 -0.9019  0.6012 -1.6429
 5736TIP3   OH217213   4.813   0.853   4.762 -0.1690 -0.1069  0.3457
 5736TIP3    H117214   4.838   0.874   4.852  1.0207  0.2681 -0.0558
 5736TIP3    H217215   4.868   0.909   4.708 -0.3678 -0.8328 -0.6407
 5737TIP3   OH217216   2.952   2.670   1.310 -0.1106 -0.4758  0.2705
 5737TIP3    H117217   2.934   2.576   1.316 -0.6286 -0.4952 -1.1793
 5737TIP3    H217218   2.890   2.702   1.244  0.8497  0.6702 -0.1051
 5738TIP3   OH217219   4.031   4.904   2.067  0.0496  0.0291 -0.3737
 5738TIP3    H117220   4.024   4.951   2.150  1.0033 -1.3408  0.5270
 5738TIP3    H217221   3.944   4.869   2.051 -0.0432 -0.0489  0.2813
 5739TIP3   OH217222   1.434   3.173   3.155 -0.6342 -0.1087  0.4689
 5739TIP3    H117223   1.493   3.239   3.121 -0.0063 -0.1767  1.3846
 5739TIP3    H217224   1.367   3.163   3.087  0.7134 -0.4491 -0.8641
 5740TIP3   OH217225   3.753   5.959   2.287  1.1273 -0.0712 -0.4730
 5740TIP3    H117226   3.763   5.984   2.378  0.1405 -0.1060 -0.3387
 5740TIP3    H217227   3.722   5.868   2.290  1.1554 -0.0943 -0.8361
 5741TIP3   OH217228   3.643   0.405   4.851  0.2214  0.0109 -0.4188
 5741TIP3    H117229   3.593   0.339   4.898 -1.1961 -0.2438 -2.1775
 5741TIP3    H217230   3.701   0.443   4.917  0.7037 -2.5860  0.7562
 5742TIP3   OH217231   3.074   2.229   0.665 -0.0439 -0.7765 -0.1524
 5742TIP3    H117232   3.009   2.274   0.719 -0.8154 -1.4673 -0.4887
 5742TIP3    H217233   3.073   2.139   0.697  0.2247 -0.9608 -0.6500
 5743TIP3   OH217234   4.752   0.041   3.273  0.0943  0.0979 -0.9550
 5743TIP3    H117235   4.783  -0.050   3.281  0.1627  0.2764  1.5167
 5743TIP3    H217236   4.702   0.042   3.192  1.1552 -1.8323 -1.6923
 5744TIP3   OH217237   4.515   1.185   0.110  0.4941  0.1757 -0.0057
 5744TIP3    H117238   4.539   1.277   0.125  0.8768  0.2691 -1.0892
 5744TIP3    H217239   4.534   1.171   0.018 -0.0940 -0.8449  0.0226
 5745TIP3   OH217240   6.060   1.000   3.694 -0.1683  0.2440 -0.3400
 5745TIP3    H117241   6.061   0.960   3.781  0.2906 -2.0391 -1.2966
 5745TIP3    H217242   6.041   0.926   3.635  2.2413  1.1427 -2.3947
 5746TIP3   OH217243   4.320   2.205   1.149 -0.3376 -0.3148 -0.0163
 5746TIP3    H117244   4.413   2.181   1.142 -0.3437 -0.1191 -0.9453
 5746TIP3    H217245   4.295   2.230   1.059 -1.6319 -1.6234 -0.0601
 5747TIP3   OH217246   0.776   3.072   3.344  0.4174  0.1589  0.1772
 5747TIP3    H117247   0.731   3.055   3.261  0.1754  0.3880  0.2611
 5747TIP3    H217248   0.744   3.004   3.403 -1.3438  1.4680  0.8165
 5748TIP3   OH217249   6.120   1.763   0.827 -0.1487 -0.2227 -0.0600
 5748TIP3    H117250   6.092   1.742   0.916 -1.2442 -1.0862 -0.5853
 5748TIP3    H217251   6.060   1.831   0.797 -0.4912 -0.7074 -0.5065
 5749TIP3   OH217252   3.725   1.640   1.283 -0.2005 -0.0613  0.4187
 5749TIP3    H117253   3.765   1.713   1.236 -0.0144 -0.3617  0.1061
 5749TIP3    H217254   3.692   1.679   1.365 -1.1697  0.6126 -0.2692
 5750TIP3   OH217255   5.879   4.565   3.842  0.5834 -0.3255 -0.5630
 5750TIP3    H117256   5.906   4.654   3.818  3.3561 -0.3561  1.8908
 5750TIP3    H217257   5.784   4.567   3.837  0.6204  2.1151 -2.6113
 5751TIP3   OH217258   1.148   3.565   2.058  0.4591  0.5269 -0.1719
 5751TIP3    H117259   1.210   3.511   2.108  1.0407  0.9411 -0.4396
 5751TIP3    H217260   1.082   3.503   2.029 -0.3383  0.3928  1.7737
 5752TIP3   OH217261   6.274   0.805   3.505  0.5185  0.4075 -0.1983
 5752TIP3    H117262   6.179   0.798   3.511  0.5389 -0.0304 -0.4012
 5752TIP3    H217263   6.289   0.869   3.436  0.3787  0.0967 -0.5163
 5753TIP3   OH217264   1.174   2.111   2.632  0.0994 -0.0140 -0.4052
 5753TIP3    H117265   1.119   2.122   2.554  0.4578 -0.1327 -0.6791
 5753TIP3    H217266   1.121   2.060   2.692 -0.8921  1.5783  0.1529
 5754TIP3   OH217267   3.054   0.214   1.352 -0.3232  0.1698  0.4980
 5754TIP3    H117268   3.118   0.173   1.294 -1.0010  0.9003 -0.8210
 5754TIP3    H217269   2.970   0.174   1.327 -0.3929 -1.0103  2.4205
 5755TIP3   OH217270   2.583   4.717   3.882 -0.0974 -0.2766  0.0748
 5755TIP3    H117271   2.657   4.742   3.937 -1.3993  0.5903  1.5046
 5755TIP3    H217272   2.562   4.796   3.833 -0.2054 -0.4714 -0.1940
 5756TIP3   OH217273   4.047   1.893   2.828  0.4060  0.1578  0.1434
 5756TIP3    H117274   4.082   1.975   2.795  0.2205  0.8577  1.6281
 5756TIP3    H217275   4.076   1.827   2.765  0.7274  1.3229 -0.9549
 5757TIP3   OH217276   4.120   0.460   0.190 -0.2341  0.0360 -0.7964
 5757TIP3    H117277   4.117   0.365   0.184  2.9054 -0.3017  0.8758
 5757TIP3    H217278   4.092   0.480   0.279 -2.7147  0.9523 -1.6802
 5758TIP3   OH217279   2.315   0.136   2.438  0.3551  0.1107  0.2119
 5758TIP3    H117280   2.379   0.196   2.399  1.1626 -0.0824  1.2098
 5758TIP3    H217281   2.266   0.102   2.363  0.6348  1.1498 -0.4736
 5759TIP3   OH217282   5.634   2.346   2.055  0.3714 -0.5520 -0.2630
 5759TIP3    H117283   5.713   2.314   2.011 -0.2114 -0.7748 -1.1770
 5759TIP3    H217284   5.660   2.358   2.146  2.7693  3.7290 -1.2938
 5760TIP3   OH217285   4.775   4.866   4.437  1.0173 -0.1117  0.5452
 5760TIP3    H117286   4.788   4.961   4.433 -0.3279  0.0613 -1.2216
 5760TIP3    H217287   4.683   4.856   4.460  0.7164 -0.9233 -0.8920
 5761TIP3   OH217288   1.894   2.873   5.014  0.7754 -0.1510  0.2126
 5761TIP3    H117289   1.799   2.883   5.014  0.8786  1.8803 -1.8370
 5761TIP3    H217290   1.909   2.779   5.008 -1.2264 -0.4154 -2.4620
 5762TIP3   OH217291   3.033   3.467   2.053  0.3815  0.4303  0.2415
 5762TIP3    H117292   3.007   3.399   2.115  1.5037  0.2621  0.5504
 5762TIP3    H217293   3.113   3.504   2.090  0.8607  0.5896 -0.9152
 5763TIP3   OH217294   4.850   3.725   4.435  0.4614  0.3576  0.1392
 5763TIP3    H117295   4.930   3.729   4.488 -0.5078 -0.1919  1.6965
 5763TIP3    H217296   4.808   3.810   4.448  0.1356  0.1584  0.4044
 5764TIP3   OH217297   6.356   4.068   2.984  0.5947  0.4229 -0.2270
 5764TIP3    H117298   6.367   4.162   3.002  2.7699  0.2921 -0.6817
 5764TIP3    H217299   6.336   4.030   3.070 -2.5959  1.5112 -0.3394
 5765TIP3   OH217300   1.544   3.417   3.329  0.4644  0.4191  0.3320
 5765TIP3    H117301   1.469   3.472   3.307  0.5163  0.3134 -0.1248
 5765TIP3    H217302   1.575   3.384   3.244  1.2158  0.7097  0.4870
 5766TIP3   OH217303   0.035   4.026   1.195  0.6656  0.7106  0.1813
 5766TIP3    H117304  -0.027   4.095   1.218  1.4069  1.7535 -0.8239
 5766TIP3    H217305   0.040   3.972   1.274 -2.1099  0.0897  0.0401
 5767TIP3   OH217306   0.129   4.911   3.747  0.2698  0.4866 -0.5464
 5767TIP3    H117307   0.043   4.943   3.722 -0.2542  0.1427  0.7602
 5767TIP3    H217308   0.177   4.905   3.664 -1.0060  0.5005 -1.3149
 5768TIP3   OH217309   5.883   5.238   0.146 -0.0131 -0.5953  0.6364
 5768TIP3    H117310   5.843   5.269   0.227 -0.2674 -0.4837  0.4661
 5768TIP3    H217311   5.934   5.161   0.173  0.6488 -0.0272  1.0666
 5769TIP3   OH217312   5.364   5.434   3.351  0.2755 -0.6561 -0.3524
 5769TIP3    H117313   5.446   5.412   3.307  0.7468  0.4684 -0.0627
 5769TIP3    H217314   5.387   5.438   3.444 -0.1079 -0.3512 -0.2668
 5770TIP3   OH217315   0.879   0.651   2.741 -0.1777  0.9796 -0.2667
 5770TIP3    H117316   0.967   0.617   2.724  0.5936  1.9738  1.4122
 5770TIP3    H217317   0.875   0.732   2.690 -0.7566  0.1346 -1.6117
 5771TIP3   OH217318   4.084   3.253   3.296 -0.0587  0.6695 -0.0466
 5771TIP3    H117319   4.121   3.196   3.362 -0.3311 -0.2606 -0.6745
 5771TIP3    H217320   4.158   3.306   3.265  0.3334  0.2085  0.0931
 5772TIP3   OH217321   4.764   0.294   0.071 -0.3048  0.3894 -0.5436
 5772TIP3    H117322   4.814   0.214   0.077  0.2528  0.4586 -3.0200
 5772TIP3    H217323   4.727   0.293  -0.018 -1.4151  2.2108 -0.1732
 5773TIP3   OH217324   1.914   5.232   2.483  0.4867 -0.4304 -0.9560
 5773TIP3    H117325   1.842   5.195   2.433 -0.0565 -1.7329  0.6797
 5773TIP3    H217326   1.872   5.280   2.554  1.2079 -0.7225 -0.3060
 5774TIP3   OH217327   4.579   4.079   0.264  0.2278  0.6086  0.6664
 5774TIP3    H117328   4.500   4.030   0.243 -0.8361  2.0355  1.2453
 5774TIP3    H217329   4.565   4.112   0.353  1.8628  0.1534  1.1309
 5775TIP3   OH217330   3.034   5.553   4.191  0.1549  0.3893  0.0518
 5775TIP3    H117331   3.035   5.640   4.152 -1.2021  0.4276  0.0465
 5775TIP3    H217332   3.008   5.495   4.119  2.0779 -0.2076 -0.2239
 5776TIP3   OH217333   3.633   0.327   2.215 -0.5142  0.2343 -0.2579
 5776TIP3    H117334   3.584   0.262   2.265 -2.1309 -0.4231 -2.5280
 5776TIP3    H217335   3.581   0.340   2.135  0.6619  3.0423 -0.6646
 5777TIP3   OH217336   4.655   5.509   2.502 -0.0570 -0.1917 -1.1532
 5777TIP3    H117337   4.742   5.547   2.504 -0.6792  1.2632  0.1733
 5777TIP3    H217338   4.625   5.522   2.412  0.4459  0.8697 -1.1780
 5778TIP3   OH217339   0.094   3.942   0.286 -0.1782  0.0173  0.1407
 5778TIP3    H117340   0.136   3.898   0.211 -2.2940 -1.5536 -0.2168
 5778TIP3    H217341   0.095   3.876   0.355 -1.1775  0.2842  0.4237
 5779TIP3   OH217342   1.116   0.300   2.485  0.2524 -0.0331 -0.1751
 5779TIP3    H117343   1.196   0.262   2.520  0.8228 -0.5348 -1.9048
 5779TIP3    H217344   1.058   0.225   2.469 -1.2460  0.4292  2.4915
 5780TIP3   OH217345   6.319   3.895   3.509 -0.1181  0.3862 -0.7213
 5780TIP3    H117346   6.401   3.936   3.537  0.6073 -2.5957  2.1445
 5780TIP3    H217347   6.251   3.946   3.552  0.6527 -0.2200  1.3540
 5781TIP3   OH217348   5.762   1.898   2.020 -0.1868 -0.0181  0.4229
 5781TIP3    H117349   5.766   1.904   2.116  2.4309  1.0099  0.3399
 5781TIP3    H217350   5.674   1.927   1.997 -0.9531 -0.5099  2.5115
 5782TIP3   OH217351   5.010   5.815   0.731 -0.4547  0.0859  0.2342
 5782TIP3    H117352   5.102   5.815   0.703 -0.7319  1.6855 -0.8450
 5782TIP3    H217353   5.012   5.788   0.822  1.1302  0.3258  0.2979
 5783TIP3   OH217354   6.331   4.338   1.356 -0.0154 -0.2398  0.5275
 5783TIP3    H117355   6.286   4.367   1.435  0.2095 -0.2822  0.6686
 5783TIP3    H217356   6.424   4.346   1.375  0.0448  0.4254  0.0168
 5784TIP3   OH217357   6.280   1.650   5.116 -0.4988 -0.1123  1.0619
 5784TIP3    H117358   6.304   1.583   5.052 -0.4687 -0.2015  1.1671
 5784TIP3    H217359   6.202   1.616   5.159 -2.4528  1.3218 -1.0951
 5785TIP3   OH217360   5.025   3.233   5.056  0.0975  0.0416 -0.1477
 5785TIP3    H117361   5.106   3.268   5.019  0.3651  0.2658  0.6303
 5785TIP3    H217362   5.054   3.163   5.116 -0.4140 -1.4812 -1.5944
 5786TIP3   OH217363   0.528   4.520   2.797 -0.0654  0.0359  0.7994
 5786TIP3    H117364   0.434   4.533   2.808 -0.0435  0.1104  0.8919
 5786TIP3    H217365   0.536   4.479   2.711 -0.1547  0.3793  0.6235
 5787TIP3   OH217366   5.023   2.401   3.096  0.8078  0.4614 -0.1328
 5787TIP3    H117367   5.100   2.457   3.100  0.6834  0.5325  1.7651
 5787TIP3    H217368   5.052   2.319   3.136  0.1184  0.2249 -0.1192
 5788TIP3   OH217369   5.809   4.127   3.420 -0.1111  0.1223 -0.7353
 5788TIP3    H117370   5.773   4.062   3.480  0.4259  0.5048  0.0110
 5788TIP3    H217371   5.742   4.136   3.352 -1.4001  0.7238  0.5524
 5789TIP3   OH217372   4.484   3.626   4.031 -0.0521 -0.2662 -0.2574
 5789TIP3    H117373   4.552   3.643   4.096 -1.1564  1.3861  0.5504
 5789TIP3    H217374   4.530   3.586   3.958  1.1159 -2.9798  1.7968
 5790TIP3   OH217375   5.975   0.350   2.730 -0.1065 -0.1203  0.1393
 5790TIP3    H117376   6.045   0.345   2.795 -0.0244  1.6006  0.2131
 5790TIP3    H217377   5.907   0.292   2.763  0.0882  0.4388  1.5694
 5791TIP3   OH217378   4.276   3.484   4.407 -0.0711  0.3399  0.8260
 5791TIP3    H117379   4.330   3.447   4.337 -1.2172  0.0723  0.0694
 5791TIP3    H217380   4.285   3.579   4.395  0.5551  0.3045  0.9661
 5792TIP3   OH217381   0.987   3.173   3.154  0.7040  0.2555  0.2453
 5792TIP3    H117382   1.000   3.086   3.117 -2.0026  0.4219 -1.2998
 5792TIP3    H217383   0.906   3.166   3.204 -0.6151  2.2566 -1.4332
 5793TIP3   OH217384   0.683   4.905   1.984 -0.0227  0.7245 -0.5899
 5793TIP3    H117385   0.619   4.932   1.918  0.3872  0.9976 -0.8792
 5793TIP3    H217386   0.632   4.857   2.049 -0.7079  1.8701 -0.2550
 5794TIP3   OH217387   2.664   1.473   3.807 -0.1539 -0.1933 -0.2551
 5794TIP3    H117388   2.686   1.565   3.791  0.3956 -0.2209  0.3385
 5794TIP3    H217389   2.744   1.425   3.786 -0.1793 -0.4590  0.2548
 5795TIP3   OH217390   0.018   1.914   1.907 -0.3604 -0.0248  0.2315
 5795TIP3    H117391  -0.045   1.842   1.914  0.2006 -0.4350  1.2769
 5795TIP3    H217392   0.102   1.871   1.890  0.0999  0.3192  1.5409
 5796TIP3   OH217393   3.367   5.780   0.043  0.0222  0.5139  0.0296
 5796TIP3    H117394   3.404   5.866   0.063 -0.0001  0.5350 -0.0168
 5796TIP3    H217395   3.396   5.763  -0.047  1.3261 -0.2197  0.5732
 5797TIP3   OH217396   2.245   1.645   3.595  0.1990  0.1891 -0.2222
 5797TIP3    H117397   2.321   1.621   3.541 -0.7677 -1.2094 -1.0082
 5797TIP3    H217398   2.277   1.637   3.685  1.1628  0.2632 -0.5400
 5798TIP3   OH217399   5.476   4.013   4.669 -0.5771  0.1985  0.0773
 5798TIP3    H117400   5.545   3.992   4.606  0.2975 -0.9324  1.3463
 5798TIP3    H217401   5.514   4.083   4.723 -1.5696  1.6259 -1.0177
 5799TIP3   OH217402   3.877   4.096   1.315 -0.5638 -0.0997 -0.0300
 5799TIP3    H117403   3.848   4.013   1.352  1.7613 -1.0262 -0.1309
 5799TIP3    H217404   3.945   4.072   1.252 -0.6408  1.8216 -0.9085
 5800TIP3   OH217405   4.810   2.268   3.813 -0.0498  0.1622 -0.0870
 5800TIP3    H117406   4.801   2.176   3.790 -1.2899  0.3928 -0.6182
 5800TIP3    H217407   4.757   2.278   3.892 -1.8963  0.8671 -1.3444
 5801TIP3   OH217408   1.792   3.847   2.401  0.2557  0.8009  0.4632
 5801TIP3    H117409   1.837   3.916   2.352  0.4466  0.2765 -0.1146
 5801TIP3    H217410   1.704   3.846   2.365  0.3806  0.4521  0.1591
 5802TIP3   OH217411   5.563   0.483   2.355 -0.2450  0.4645 -0.5146
 5802TIP3    H117412   5.472   0.460   2.340 -0.3456 -0.8194  1.5662
 5802TIP3    H217413   5.562   0.577   2.373 -1.6976  0.0246  2.3694
 5803TIP3   OH217414   4.512   5.890   3.645 -0.3718 -0.4080  0.1489
 5803TIP3    H117415   4.550   5.834   3.578  0.1575  0.0150  0.0920
 5803TIP3    H217416   4.492   5.972   3.599  0.2682 -0.0103  0.5702
 5804TIP3   OH217417   6.224   3.890   4.305 -0.4650 -0.1761  0.5878
 5804TIP3    H117418   6.153   3.910   4.244 -0.0142  0.8311  0.3648
 5804TIP3    H217419   6.292   3.850   4.252 -0.8329 -1.1148  0.7967
 5805TIP3   OH217420   5.316   0.260   3.706  0.6475  0.5322  0.3763
 5805TIP3    H117421   5.330   0.194   3.639 -3.0800  1.0601 -1.1812
 5805TIP3    H217422   5.233   0.235   3.748  0.1783  3.0749  1.1454
 5806TIP3   OH217423   3.808   2.343   0.649  0.2999  0.0388 -0.5375
 5806TIP3    H117424   3.900   2.355   0.672  0.0326 -1.0971  1.3409
 5806TIP3    H217425   3.766   2.426   0.673  0.6764  0.2420 -0.5767
 5807TIP3   OH217426   4.001   1.982   1.695  0.0342 -0.0455  0.2107
 5807TIP3    H117427   4.094   1.981   1.714  0.5316  3.0038 -1.3479
 5807TIP3    H217428   3.970   2.065   1.731 -1.5220  0.1381 -1.3948
 5808TIP3   OH217429   1.233   4.165   1.808  0.2017 -0.1478  0.2435
 5808TIP3    H117430   1.179   4.092   1.778 -0.8919  0.3526  0.9270
 5808TIP3    H217431   1.257   4.143   1.898  1.0502 -0.3021 -0.0075
 5809TIP3   OH217432   2.555   1.358   0.815  0.8203 -0.0201 -0.1040
 5809TIP3    H117433   2.634   1.304   0.813  0.0255 -1.2990  1.0906
 5809TIP3    H217434   2.496   1.317   0.752  0.2923 -0.4307  0.6460
 5810TIP3   OH217435   0.661   4.597   4.867 -0.4607 -0.3505 -0.0121
 5810TIP3    H117436   0.719   4.547   4.810 -0.7180 -0.4489 -0.1845
 5810TIP3    H217437   0.717   4.622   4.941  0.4057  1.4334 -1.2135
 5811TIP3   OH217438   1.910   2.959   3.318  0.0079 -0.7084 -0.2802
 5811TIP3    H117439   1.996   2.985   3.352 -0.6304 -0.6167  1.3424
 5811TIP3    H217440   1.868   2.915   3.391 -1.9327  0.5927 -0.5482
 5812TIP3   OH217441   4.312   0.090   2.019 -0.3404  0.2013  0.0689
 5812TIP3    H117442   4.302   0.132   2.104 -1.2812 -0.1177  0.1189
 5812TIP3    H217443   4.223   0.077   1.987 -0.0302 -0.7487 -0.4453
 5813TIP3   OH217444   3.701   2.352   3.682  0.2345 -0.2744  0.1923
 5813TIP3    H117445   3.656   2.350   3.597 -0.6849  0.0336  0.6576
 5813TIP3    H217446   3.673   2.434   3.722  0.9063 -0.2725  0.6668
 5814TIP3   OH217447   5.479   5.159   4.392 -0.2538  0.0807 -0.1289
 5814TIP3    H117448   5.555   5.110   4.424 -0.4304  0.1211  0.3733
 5814TIP3    H217449   5.404   5.116   4.433 -0.6709 -1.0381 -1.9671
 5815TIP3   OH217450   2.978   3.297   1.857 -1.0267  0.1370  0.6990
 5815TIP3    H117451   3.010   3.365   1.916  0.9272 -0.2760  0.1791
 5815TIP3    H217452   3.056   3.263   1.815 -2.1750 -1.0276 -0.5869
 5816TIP3   OH217453   3.296   0.725   4.581  0.4339 -0.4562  0.3373
 5816TIP3    H117454   3.373   0.737   4.636  0.3084  0.2132  0.3809
 5816TIP3    H217455   3.311   0.782   4.506  0.5265 -1.2409 -0.2505
 5817TIP3   OH217456   2.170   2.060   3.444  0.2809  0.1391  0.0941
 5817TIP3    H117457   2.177   2.138   3.499  0.6233  0.2289 -0.0724
 5817TIP3    H217458   2.126   1.995   3.498 -1.5801  0.9860 -0.3231
 5818TIP3   OH217459   1.757   3.132   1.843  0.0449  0.3626 -0.1753
 5818TIP3    H117460   1.739   3.206   1.900 -2.2832 -0.0397 -0.3155
 5818TIP3    H217461   1.820   3.166   1.779 -1.0114  2.2704 -0.2760
 5819TIP3   OH217462   5.578   1.325   1.107  0.6447  0.6561 -0.0084
 5819TIP3    H117463   5.616   1.368   1.031 -2.1687  1.2172 -1.2170
 5819TIP3    H217464   5.551   1.396   1.165  0.1047  0.3456  0.1284
 5820TIP3   OH217465   1.868   0.948   2.005  0.8712 -0.1412  0.2754
 5820TIP3    H117466   1.792   0.981   2.053  1.5545  0.3534  1.0524
 5820TIP3    H217467   1.872   1.003   1.926  0.8353  0.3132  0.5837
 5821TIP3   OH217468   3.508   1.608   2.710 -0.3197  0.0112  0.5448
 5821TIP3    H117469   3.453   1.543   2.754 -1.0012 -0.3616 -0.8133
 5821TIP3    H217470   3.596   1.570   2.712 -0.7035 -0.9707 -0.2101
 5822TIP3   OH217471   0.013   0.364   3.510 -0.3378  0.4444 -0.5592
 5822TIP3    H117472   0.035   0.430   3.445  0.8683 -0.5713 -1.2412
 5822TIP3    H217473  -0.044   0.302   3.463 -1.9148  1.2440  0.2275
 5823TIP3   OH217474   1.342   5.891   0.475 -0.3314 -0.5141  0.3218
 5823TIP3    H117475   1.337   5.948   0.398 -1.4661 -0.9007  0.0846
 5823TIP3    H217476   1.250   5.875   0.498 -0.1002 -3.2968 -0.4150
 5824TIP3   OH217477   4.184   2.778   4.837 -0.2584  0.4823 -0.2546
 5824TIP3    H117478   4.245   2.801   4.907  0.3777 -1.8904  0.0427
 5824TIP3    H217479   4.234   2.793   4.756  1.6099 -3.2638  0.0024
 5825TIP3   OH217480   4.338   3.017   3.252 -0.0607 -1.2156 -0.4278
 5825TIP3    H117481   4.401   2.959   3.295  0.4170 -0.4860 -0.1423
 5825TIP3    H217482   4.326   3.089   3.313  2.0993  0.8541 -2.2436
 5826TIP3   OH217483   5.972   1.305   3.638  0.6899  0.3332 -0.3239
 5826TIP3    H117484   6.023   1.328   3.561 -0.7646  0.4139 -1.3065
 5826TIP3    H217485   6.002   1.217   3.662  0.6911  0.0207 -1.4134
 5827TIP3   OH217486   1.162   0.410   3.741  0.2221 -0.3468  0.3077
 5827TIP3    H117487   1.257   0.404   3.737  0.1372 -1.3297 -1.8275
 5827TIP3    H217488   1.144   0.456   3.823  2.4671 -1.2197  1.3724
 5828TIP3   OH217489   5.135   2.723   1.258  0.1105  0.5454  0.0862
 5828TIP3    H117490   5.135   2.628   1.247 -0.6337  0.6394 -0.8343
 5828TIP3    H217491   5.055   2.752   1.215  0.3422  1.5925  0.3423
 5829TIP3   OH217492   1.012   4.706   4.159  0.1051 -0.5223 -0.1846
 5829TIP3    H117493   1.092   4.732   4.204  1.6130 -2.8978 -1.2989
 5829TIP3    H217494   0.960   4.662   4.227  0.7954 -1.0134  0.0381
 5830TIP3   OH217495   5.711   2.248   0.163  0.3672 -0.1349 -0.0295
 5830TIP3    H117496   5.654   2.243   0.240  1.5907  0.2428  0.9289
 5830TIP3    H217497   5.787   2.297   0.192  2.8286 -3.5328 -0.2052
 5831TIP3   OH217498   1.576   4.673   1.186  0.9181  0.3153 -0.0240
 5831TIP3    H117499   1.511   4.609   1.213 -0.5138  1.3042 -0.9925
 5831TIP3    H217500   1.636   4.679   1.260 -0.5019 -0.0980  1.2042
 5832TIP3   OH217501   2.227   3.876   0.099  0.2786 -0.3564  0.1517
 5832TIP3    H117502   2.186   3.790   0.086 -0.9095 -0.0986  1.8287
 5832TIP3    H217503   2.287   3.863   0.172  1.3232 -0.1076 -0.6377
 5833TIP3   OH217504   5.548   1.592   1.203 -0.5881  0.4592 -0.2693
 5833TIP3    H117505   5.637   1.595   1.239  0.0382  0.5785 -1.7282
 5833TIP3    H217506   5.504   1.668   1.241 -0.2518  0.0959  0.8887
 5834TIP3   OH217507   3.078   3.155   3.216 -0.7326 -0.3304 -0.2754
 5834TIP3    H117508   3.069   3.197   3.302  0.2644 -0.9096  0.1330
 5834TIP3    H217509   3.099   3.227   3.156 -2.6972  0.2671 -0.2998
 5835TIP3   OH217510   0.185   2.215   1.102  0.0954 -0.2972 -0.1290
 5835TIP3    H117511   0.256   2.163   1.139 -0.0550  0.0029  0.6138
 5835TIP3    H217512   0.215   2.305   1.110  0.1269 -0.2350 -0.9114
 5836TIP3   OH217513   4.742   1.086   1.315 -0.0848  0.0230 -0.3171
 5836TIP3    H117514   4.677   1.018   1.329 -0.4748  0.8313  2.1587
 5836TIP3    H217515   4.694   1.168   1.321  1.1958  0.6866  2.6445
 5837TIP3   OH217516   0.840   4.475   4.308 -0.4077 -0.0192 -0.9936
 5837TIP3    H117517   0.921   4.439   4.344  0.0697 -0.4389 -2.4536
 5837TIP3    H217518   0.770   4.426   4.352  0.1377 -0.1787 -0.2908
 5838TIP3   OH217519   3.133   5.359   5.118 -0.3417 -0.2666 -0.1612
 5838TIP3    H117520   3.068   5.300   5.157  0.3920 -0.4176  0.8717
 5838TIP3    H217521   3.162   5.313   5.039  0.2246 -1.3143  0.6323
 5839TIP3   OH217522   2.588   2.825   1.984 -0.1190  0.3095 -0.0961
 5839TIP3    H117523   2.629   2.881   1.918  0.6027 -0.8725 -0.6959
 5839TIP3    H217524   2.501   2.862   1.996  0.3147  1.5124 -0.4998
 5840TIP3   OH217525   3.952   0.155   0.829 -0.1435 -0.1711  0.3349
 5840TIP3    H117526   4.029   0.198   0.867  0.0358 -0.7294  0.6045
 5840TIP3    H217527   3.933   0.206   0.750  1.4296 -0.9543 -0.5895
 5841TIP3   OH217528   5.043   2.072   2.848  0.1049  0.2649  0.5236
 5841TIP3    H117529   5.008   2.040   2.931  0.1984  0.8119  0.7769
 5841TIP3    H217530   5.036   2.167   2.853  1.2735  0.3712  0.4268
 5842TIP3   OH217531   5.486   4.448   3.713 -0.1057 -0.1024 -0.0635
 5842TIP3    H117532   5.505   4.367   3.665  1.1670  0.0486  0.1483
 5842TIP3    H217533   5.556   4.507   3.688  0.0509  0.2965  1.2554
 5843TIP3   OH217534   0.588   2.367   3.616 -0.1492 -0.5583 -0.5488
 5843TIP3    H117535   0.541   2.364   3.533  1.5103 -0.7682 -1.5243
 5843TIP3    H217536   0.632   2.282   3.623  0.9794  0.0229 -0.2422
 5844TIP3   OH217537   0.828   4.910   1.199 -0.2882 -0.1174 -0.2623
 5844TIP3    H117538   0.800   5.002   1.200  2.5765  0.8376 -0.3014
 5844TIP3    H217539   0.851   4.892   1.108  2.4769  0.3104  0.2713
 5845TIP3   OH217540   0.078   0.926   4.990  0.5454 -0.3513  0.3246
 5845TIP3    H117541   0.149   0.921   5.054  1.4059 -1.6993 -0.6761
 5845TIP3    H217542   0.007   0.877   5.029 -0.6308  2.5253  2.1654
 5846TIP3   OH217543   1.818   3.528   2.121 -0.8321  0.2274 -0.4404
 5846TIP3    H117544   1.779   3.615   2.114 -0.0301  0.6549  0.2212
 5846TIP3    H217545   1.855   3.524   2.209  0.3521 -0.2547 -0.9260
 5847TIP3   OH217546   2.222   3.775   4.659 -0.0822 -0.1541  0.2584
 5847TIP3    H117547   2.170   3.844   4.698  1.3780  1.6156 -0.7460
 5847TIP3    H217548   2.164   3.733   4.596 -0.0706  2.6748 -1.8559
 5848TIP3   OH217549   4.166   3.335   4.803 -0.0256  0.2403  0.1537
 5848TIP3    H117550   4.141   3.278   4.731  0.3098 -0.5720  0.6678
 5848TIP3    H217551   4.125   3.295   4.880 -1.9417  2.0942  0.2112
 5849TIP3   OH217552   5.935   3.734   1.292 -0.4610 -0.0044 -0.3011
 5849TIP3    H117553   5.959   3.821   1.326 -0.3339  0.8083 -2.3384
 5849TIP3    H217554   5.916   3.682   1.370 -0.7878  1.9265  0.9660
 5850TIP3   OH217555   0.890   2.764   0.968 -0.0560  0.3748 -0.4860
 5850TIP3    H117556   0.836   2.752   0.890 -0.4455 -0.2084 -0.1378
 5850TIP3    H217557   0.903   2.675   1.002  1.2690  0.4841 -0.6522
 5851TIP3   OH217558   3.066   3.058   2.231  0.1019 -0.0101  0.0578
 5851TIP3    H117559   3.036   3.137   2.275  1.4550 -0.0070  1.0198
 5851TIP3    H217560   3.110   3.089   2.152 -0.1309  0.1350 -0.0169
 5852TIP3   OH217561   0.866   4.659   5.073 -0.2211 -0.3492  0.1904
 5852TIP3    H117562   0.954   4.661   5.034 -0.2514 -0.3944  0.1195
 5852TIP3    H217563   0.881   4.636   5.165 -0.0872  0.5125  0.3870
 5853TIP3   OH217564   5.335   3.635   4.823 -0.4335  0.0142 -0.2289
 5853TIP3    H117565   5.344   3.714   4.877 -1.2790  1.3466 -1.9348
 5853TIP3    H217566   5.424   3.618   4.792 -0.2669  0.3717  0.0414
 5854TIP3   OH217567   3.467   3.389   0.515 -0.1669 -0.0707  0.3814
 5854TIP3    H117568   3.454   3.425   0.603  1.1375  1.3066  0.0511
 5854TIP3    H217569   3.379   3.379   0.480 -0.6558  0.7244  1.3272
 5855TIP3   OH217570   5.293   0.405   4.565  0.2297 -0.2015 -0.2105
 5855TIP3    H117571   5.274   0.495   4.593  1.0932  0.2062 -0.9052
 5855TIP3    H217572   5.280   0.352   4.644  0.1072  0.5816  0.3027
 5856TIP3   OH217573   6.210   4.231   4.336  0.8551 -0.2392  0.4525
 5856TIP3    H117574   6.245   4.149   4.300  0.2205  0.2342 -1.3068
 5856TIP3    H217575   6.154   4.203   4.408 -2.0018 -1.6870 -2.1344
 5857TIP3   OH217576   4.981   3.697   2.468  0.7438  0.0314  0.6916
 5857TIP3    H117577   4.974   3.710   2.373  0.2243  0.9910  0.8483
 5857TIP3    H217578   4.959   3.604   2.481 -2.1440  0.5317  0.1452
 5858TIP3   OH217579   0.495   2.215   0.302 -0.3144 -0.4168 -0.0876
 5858TIP3    H117580   0.546   2.211   0.221 -1.4988 -0.1407 -0.8645
 5858TIP3    H217581   0.405   2.200   0.274 -0.5621 -1.9272  1.3869
 5859TIP3   OH217582   1.008   0.633   0.193 -0.5606 -0.2527 -0.3795
 5859TIP3    H117583   0.929   0.605   0.238 -0.2494  0.4088  0.6001
 5859TIP3    H217584   1.011   0.578   0.114 -3.3677  1.4736 -1.8384
 5860TIP3   OH217585   4.630   0.903   2.500 -0.0985  0.1223  0.2439
 5860TIP3    H117586   4.605   0.886   2.409 -3.1921  1.7920  0.6621
 5860TIP3    H217587   4.634   0.816   2.540  1.0338 -0.6213 -1.3424
 5861TIP3   OH217588   4.037   3.891   0.212  0.0802  0.3712 -0.3679
 5861TIP3    H117589   4.130   3.885   0.233  0.0098  1.1153  0.1955
 5861TIP3    H217590   4.030   3.856   0.123  0.7912 -0.3416 -0.1522
 5862TIP3   OH217591   1.971   5.866   3.726  0.2670 -0.5278  0.4566
 5862TIP3    H117592   1.972   5.865   3.630 -0.1454  1.1105  0.4116
 5862TIP3    H217593   2.055   5.826   3.751  1.0642  0.3800 -0.6259
 5863TIP3   OH217594   2.979   5.795   2.559 -0.1589  0.0800 -0.3708
 5863TIP3    H117595   2.904   5.769   2.612  0.5269  0.6021  0.8953
 5863TIP3    H217596   3.003   5.716   2.510  0.0984 -0.8581  1.2078
 5864TIP3   OH217597   5.344   5.286   0.213  0.0347 -0.3930 -0.1233
 5864TIP3    H117598   5.282   5.347   0.250  1.8219  0.2111  2.1211
 5864TIP3    H217599   5.428   5.331   0.217  1.2489 -2.5535  0.6132
 5865TIP3   OH217600   0.755   0.656   5.156  0.3698 -0.2194 -0.3611
 5865TIP3    H117601   0.682   0.670   5.096  0.7480 -1.9887 -1.3034
 5865TIP3    H217602   0.803   0.582   5.119  0.5379 -1.5066  2.2267
 5866TIP3   OH217603   5.619   0.295   2.118  0.0441 -0.3701 -0.8977
 5866TIP3    H117604   5.578   0.355   2.055 -2.8117 -1.4290 -0.1720
 5866TIP3    H217605   5.601   0.333   2.203  1.6575 -0.2987 -0.5437
 5867TIP3   OH217606   6.282   2.337   1.732 -0.2447 -0.0750 -0.7062
 5867TIP3    H117607   6.220   2.375   1.794  0.7906 -1.0025  0.9537
 5867TIP3    H217608   6.254   2.246   1.722 -0.4237  0.0707 -1.6606
 5868TIP3   OH217609   1.783   4.023   2.936  0.6328 -0.6530 -0.1873
 5868TIP3    H117610   1.710   3.969   2.965  1.7093 -0.7374  2.7133
 5868TIP3    H217611   1.833   3.967   2.878 -1.1443 -0.8438 -1.6155
 5869TIP3   OH217612   6.351   4.615   0.727  0.5439  0.3371 -0.4901
 5869TIP3    H117613   6.328   4.588   0.816 -0.5916  0.8298 -0.6202
 5869TIP3    H217614   6.297   4.693   0.711  1.6302  0.9746 -1.1689
 5870TIP3   OH217615   1.375   0.154   3.932  0.2011  0.1319  0.3030
 5870TIP3    H117616   1.405   0.172   4.021 -1.3494  0.4778  0.7776
 5870TIP3    H217617   1.407   0.229   3.881  2.4510 -0.8276  0.2041
 5871TIP3   OH217618   4.088   3.959   2.183  0.6485 -0.1305  0.4056
 5871TIP3    H117619   4.158   3.945   2.120  1.1013 -0.7116  1.0309
 5871TIP3    H217620   4.103   4.048   2.217 -0.5184  0.8189 -1.4271
 5872TIP3   OH217621   4.898   0.635   2.450  0.0951 -0.1911  0.7100
 5872TIP3    H117622   4.961   0.701   2.479 -0.4654  0.0151  1.4806
 5872TIP3    H217623   4.814   0.667   2.481 -0.2306 -1.0972  0.7850
 5873TIP3   OH217624   0.675   4.606   2.081 -0.0113  0.1390 -0.1538
 5873TIP3    H117625   0.761   4.572   2.106 -0.1878  0.6373  1.2592
 5873TIP3    H217626   0.614   4.537   2.105  0.0078 -0.3828 -1.5381
 5874TIP3   OH217627   3.171   0.674   1.577 -0.3858  0.2832  0.0307
 5874TIP3    H117628   3.159   0.579   1.581  0.1247  0.0809 -1.9412
 5874TIP3    H217629   3.128   0.700   1.495 -1.4291  1.9366  1.0366
 5875TIP3   OH217630   3.107   4.340   1.972  0.6524 -0.1059 -1.0296
 5875TIP3    H117631   3.045   4.306   2.037  0.0477  0.4621 -1.2903
 5875TIP3    H217632   3.174   4.272   1.965  0.6405 -0.2495  0.0613
 5876TIP3   OH217633   1.117   5.261   2.579 -0.1354  0.2292 -0.3010
 5876TIP3    H117634   1.140   5.196   2.513  1.0698 -0.1760  0.4736
 5876TIP3    H217635   1.060   5.214   2.640 -0.6772  0.4069 -0.6601
 5877TIP3   OH217636   0.753   0.508   1.082  0.0225  0.2255 -0.0670
 5877TIP3    H117637   0.789   0.595   1.095  0.1091  0.2004 -0.1420
 5877TIP3    H217638   0.814   0.464   1.023  0.0021  0.0998  0.0037
 5878TIP3   OH217639   1.466   2.348   0.851 -0.5854 -0.1942  0.1317
 5878TIP3    H117640   1.494   2.418   0.792  0.0216 -1.6538 -1.4098
 5878TIP3    H217641   1.512   2.365   0.933  0.9784  0.2265 -0.7893
 5879TIP3   OH217642   1.745   1.093   0.443 -0.1023  0.0613 -0.3181
 5879TIP3    H117643   1.785   1.170   0.402 -1.2904  0.3443 -0.9769
 5879TIP3    H217644   1.739   1.028   0.373 -1.5474  0.3201 -0.4644
 5880TIP3   OH217645   3.256   5.154   3.400  0.4141  0.4381 -0.1933
 5880TIP3    H117646   3.245   5.240   3.442 -0.4014  0.0143  0.4887
 5880TIP3    H217647   3.242   5.091   3.471 -1.8090 -0.3317 -1.2329
 5881TIP3   OH217648   3.135   5.392   3.161 -0.1297  0.2279  0.3060
 5881TIP3    H117649   3.123   5.382   3.066  1.6335 -0.8881  0.1608
 5881TIP3    H217650   3.063   5.341   3.199  0.0283 -0.6044 -0.4568
 5882TIP3   OH217651   2.265   5.506   4.127  0.4707 -0.0402  0.3765
 5882TIP3    H117652   2.228   5.555   4.201 -1.7590  1.4257 -1.6013
 5882TIP3    H217653   2.212   5.427   4.122  1.2234 -0.5983  0.8355
 5883TIP3   OH217654   4.721   3.878   4.716 -0.2068  0.3349 -0.0463
 5883TIP3    H117655   4.734   3.917   4.630  0.6593  0.2613  0.0404
 5883TIP3    H217656   4.806   3.887   4.759 -0.6337  0.3768  0.8025
 5884TIP3   OH217657   2.738   1.869   3.476  0.1208  0.1777  0.0922
 5884TIP3    H117658   2.791   1.925   3.419  0.3336 -0.4604 -0.3526
 5884TIP3    H217659   2.648   1.893   3.456  0.2225  0.7685  0.3305
 5885TIP3   OH217660   1.169   0.663   2.736  0.4165 -0.8221 -0.3577
 5885TIP3    H117661   1.235   0.595   2.748 -0.1070 -1.4237 -0.7939
 5885TIP3    H217662   1.220   0.744   2.724  1.0274 -0.9848  0.9786
 5886TIP3   OH217663   1.633   0.407   0.809  0.2920  0.3416  1.1075
 5886TIP3    H117664   1.662   0.447   0.891  0.7921  0.4475  0.8783
 5886TIP3    H217665   1.658   0.470   0.741  2.4510 -0.9806  0.5723
 5887TIP3   OH217666   5.858   4.099   3.785  0.4851  0.4853 -0.4569
 5887TIP3    H117667   5.821   4.161   3.849  4.3988  1.8709  0.7302
 5887TIP3    H217668   5.873   4.020   3.836 -0.6122 -0.0462 -0.9199
 5888TIP3   OH217669   3.659   3.739   4.626  0.0937  0.0825 -0.4582
 5888TIP3    H117670   3.580   3.770   4.671  0.3748 -0.5514  0.4993
 5888TIP3    H217671   3.630   3.724   4.536 -0.6089  0.8926 -0.3844
 5889TIP3   OH217672   5.683   2.935   3.537 -0.8316  0.0831 -0.1010
 5889TIP3    H117673   5.762   2.975   3.500 -0.0071 -1.6883 -0.3860
 5889TIP3    H217674   5.614   2.999   3.522  0.9539  2.8899  2.4707
 5890TIP3   OH217675   4.022   3.116   2.295 -0.0240 -0.0890 -0.6954
 5890TIP3    H117676   4.039   3.064   2.373 -0.7450 -0.5367 -0.8308
 5890TIP3    H217677   3.968   3.060   2.239 -0.7130  0.7506 -0.8936
 5891TIP3   OH217678   0.229   2.129   1.960  0.4124 -0.2943 -0.1445
 5891TIP3    H117679   0.304   2.073   1.980  0.4377  0.1192  1.0264
 5891TIP3    H217680   0.155   2.069   1.953  0.4703 -0.5145  0.9168
 5892TIP3   OH217681   0.448   4.921   4.887  0.0636 -0.2286 -0.2049
 5892TIP3    H117682   0.431   4.830   4.914  0.3283  0.0547  0.9848
 5892TIP3    H217683   0.540   4.934   4.906  0.6447 -0.4190 -2.6133
 5893TIP3   OH217684   5.538   5.417   4.380 -0.6389 -0.5737 -0.4134
 5893TIP3    H117685   5.456   5.432   4.334 -0.4152  0.2102 -0.5657
 5893TIP3    H217686   5.538   5.323   4.399 -1.5853 -0.5739 -0.3708
 5894TIP3   OH217687   6.295   5.283   2.242 -0.3372 -0.1180 -0.6475
 5894TIP3    H117688   6.358   5.213   2.257  1.8426  1.6120 -1.1442
 5894TIP3    H217689   6.251   5.294   2.326  2.2194  0.5691  0.7282
 5895TIP3   OH217690   2.239   2.481   2.558  0.0019 -0.1371  0.4858
 5895TIP3    H117691   2.153   2.510   2.590  0.8558  0.0882  2.7822
 5895TIP3    H217692   2.248   2.522   2.472 -3.0620 -1.8905 -0.8552
 5896TIP3   OH217693   1.002   4.995   0.944 -0.2330  0.0138 -0.4701
 5896TIP3    H117694   1.027   4.914   0.988 -1.1979  0.3176  0.6931
 5896TIP3    H217695   1.077   5.053   0.958 -1.4294  0.9747  3.1380
 5897TIP3   OH217696   5.040   2.333   0.213 -0.1459 -0.3111  0.0210
 5897TIP3    H117697   5.021   2.283   0.133 -2.5322  0.2560  0.1885
 5897TIP3    H217698   4.998   2.418   0.199 -3.8425 -1.3460  3.2000
 5898TIP3   OH217699   2.235   6.006   1.256 -0.1996 -0.2062 -0.4278
 5898TIP3    H117700   2.302   5.953   1.212 -0.3594 -0.3522 -0.4984
 5898TIP3    H217701   2.217   5.958   1.337 -0.6365 -0.4803 -0.6800
 5899TIP3   OH217702   2.723   3.896   4.693  0.1087  0.2260  0.8972
 5899TIP3    H117703   2.773   3.906   4.773 -0.6494  0.7112  1.3280
 5899TIP3    H217704   2.632   3.886   4.723 -0.0376 -0.8499  0.1546
 5900TIP3   OH217705   2.193   1.204   3.690  0.1055 -0.2055 -0.5548
 5900TIP3    H117706   2.211   1.192   3.783 -0.3158  1.6975 -0.1752
 5900TIP3    H217707   2.273   1.246   3.656 -1.1760  2.9463 -0.0856
 5901TIP3   OH217708   3.268   4.950   4.972  0.3026  0.2712  0.0068
 5901TIP3    H117709   3.325   4.927   5.045 -0.0541  0.2809  0.2915
 5901TIP3    H217710   3.308   4.908   4.896  1.4081  1.3318 -0.0370
 5902TIP3   OH217711   0.306   2.794   3.549 -0.1062  0.3737 -0.0441
 5902TIP3    H117712   0.319   2.855   3.476 -0.0700 -0.5262 -0.8120
 5902TIP3    H217713   0.258   2.721   3.511 -1.4532  0.5569  1.1966
 5903TIP3   OH217714   1.973   5.055   3.224  0.1234 -0.0935  0.7415
 5903TIP3    H117715   1.936   4.999   3.292  1.8569 -0.3633  1.4999
 5903TIP3    H217716   1.984   5.140   3.267  0.5271 -0.0593  0.5696
 5904TIP3   OH217717   2.232   4.714   0.172 -0.1368  0.3414 -0.2370
 5904TIP3    H117718   2.140   4.721   0.196 -0.3811 -0.1300 -1.0073
 5904TIP3    H217719   2.241   4.625   0.136  0.5581  0.4740 -0.4097
 5905TIP3   OH217720   5.652   4.412   2.558 -0.2559 -0.2929 -0.6464
 5905TIP3    H117721   5.728   4.470   2.549 -0.5227  0.3019  0.7852
 5905TIP3    H217722   5.688   4.324   2.543  1.4154 -0.3785  2.9654
 5906TIP3   OH217723   1.534   2.827   2.804 -0.9563  0.0911 -0.2379
 5906TIP3    H117724   1.465   2.893   2.801 -1.8790 -0.8248 -3.5769
 5906TIP3    H217725   1.593   2.852   2.733 -0.4252 -1.7403 -0.4852
 5907TIP3   OH217726   5.335   3.116   1.229  0.0103 -0.2848 -0.4407
 5907TIP3    H117727   5.302   3.138   1.142  0.2128  1.1823 -0.1783
 5907TIP3    H217728   5.396   3.186   1.250 -1.1771  0.2595  1.4949
 5908TIP3   OH217729   5.343   2.235   4.407  0.4643 -0.1699  0.3004
 5908TIP3    H117730   5.302   2.225   4.322  0.4468 -1.9241  0.4712
 5908TIP3    H217731   5.425   2.186   4.400  2.3573  2.7878  0.1334
 5909TIP3   OH217732   4.377   5.327   2.160 -0.0882 -0.1329  0.2552
 5909TIP3    H117733   4.441   5.265   2.195 -1.0759 -0.8517  0.8206
 5909TIP3    H217734   4.327   5.355   2.236 -1.4737 -0.7869 -0.3778
 5910TIP3   OH217735   6.336   4.463   4.208  0.0481  0.4975 -0.3564
 5910TIP3    H117736   6.325   4.369   4.224  1.7693  0.1489 -1.0404
 5910TIP3    H217737   6.257   4.488   4.161 -0.8776 -0.3846  0.6642
 5911TIP3   OH217738   5.451   2.423   4.876  0.1001  0.2577 -0.1503
 5911TIP3    H117739   5.448   2.348   4.817  1.6386  0.7894 -0.9742
 5911TIP3    H217740   5.520   2.400   4.940 -0.7037  0.2055  0.7231
 5912TIP3   OH217741   2.560   2.954   1.697 -0.1253 -0.3221 -0.3361
 5912TIP3    H117742   2.511   2.959   1.615 -0.0197 -2.5956 -0.5975
 5912TIP3    H217743   2.636   2.899   1.677  1.7384  1.8028  0.4857
 5913TIP3   OH217744   6.086   0.444   3.916  0.2807 -0.1546  0.0512
 5913TIP3    H117745   6.121   0.355   3.905  1.6638  0.4204 -0.4800
 5913TIP3    H217746   6.089   0.482   3.828  0.0715  0.5501  0.3453
 5914TIP3   OH217747   5.481   2.747   2.814  0.1252 -0.1260 -0.3100
 5914TIP3    H117748   5.545   2.677   2.825 -0.3415 -0.6839 -1.0195
 5914TIP3    H217749   5.440   2.755   2.900 -0.1049 -1.0230 -0.3237
 5915TIP3   OH217750   3.236   0.339   3.530  0.5236 -0.1645 -0.0493
 5915TIP3    H117751   3.234   0.301   3.442  0.9076  0.7766 -0.4715
 5915TIP3    H217752   3.329   0.344   3.552  0.4078 -1.3333  0.8440
 5916TIP3   OH217753   1.141   0.686   1.847  0.0799 -0.5603  0.0524
 5916TIP3    H117754   1.119   0.775   1.874 -1.6290 -1.1917  0.9099
 5916TIP3    H217755   1.131   0.686   1.752  1.5587  0.5216 -0.1157
 5917TIP3   OH217756   4.953   3.895   4.863 -0.2448 -0.4930  0.2435
 5917TIP3    H117757   4.926   3.845   4.939  0.0755 -2.5305 -0.9083
 5917TIP3    H217758   5.014   3.961   4.897  0.8808 -2.1715  1.6006
 5918TIP3   OH217759   0.981   3.838   0.551 -0.1978  0.1993  0.4916
 5918TIP3    H117760   0.956   3.930   0.535 -0.0504  0.5310  2.0217
 5918TIP3    H217761   0.942   3.817   0.636  1.3115 -0.5686  1.0345
 5919TIP3   OH217762   0.425   3.235   5.020 -0.2195  0.3614  0.2026
 5919TIP3    H117763   0.441   3.144   4.996 -1.5365  0.0199  0.5507
 5919TIP3    H217764   0.375   3.271   4.946  0.8597  1.0187 -0.2460
 5920TIP3   OH217765   3.924   2.374   4.070  0.1383 -0.2037 -0.1351
 5920TIP3    H117766   3.952   2.405   4.156  0.4340  0.0604 -0.3215
 5920TIP3    H217767   3.928   2.279   4.076  0.3341 -0.1825  0.0869
 5921TIP3   OH217768   1.043   3.033   2.065  0.3319 -0.2162  0.2017
 5921TIP3    H117769   1.123   3.059   2.018  0.7362 -1.5976  0.0861
 5921TIP3    H217770   1.071   2.960   2.120 -1.1588 -1.7015 -0.9299
 5922TIP3   OH217771   1.966   4.489   3.921 -0.0037 -0.5586 -0.2046
 5922TIP3    H117772   1.969   4.393   3.930 -2.9600 -0.5841  2.1268
 5922TIP3    H217773   2.021   4.520   3.993 -1.4387 -0.5847  0.9429
 5923TIP3   OH217774   2.461   4.530   0.313 -0.5136 -0.0336 -0.2613
 5923TIP3    H117775   2.523   4.475   0.360 -0.0241  0.0878 -0.7428
 5923TIP3    H217776   2.382   4.530   0.366  0.3578  0.9448  1.0912
 5924TIP3   OH217777   4.485   1.777   2.713 -0.2860  0.3426 -0.1147
 5924TIP3    H117778   4.471   1.825   2.795  1.4809  0.6000  0.0720
 5924TIP3    H217779   4.516   1.691   2.741 -0.2977  0.2128 -0.5061
 5925TIP3   OH217780   0.458   5.682   3.029  0.4580  0.3410 -0.0097
 5925TIP3    H117781   0.506   5.746   3.082  2.1187  0.1773 -1.2335
 5925TIP3    H217782   0.487   5.699   2.940 -2.6616  0.9758 -1.0425
 5926TIP3   OH217783   1.685   2.882   1.930 -0.0780 -0.1705 -0.7190
 5926TIP3    H117784   1.720   2.967   1.902 -0.6981  0.0360 -0.8936
 5926TIP3    H217785   1.619   2.905   1.995 -0.9985 -0.4477 -1.5352
 5927TIP3   OH217786   0.781   2.776   1.718  0.0728  0.3678 -0.0439
 5927TIP3    H117787   0.802   2.759   1.810  1.0061 -1.4447 -0.5456
 5927TIP3    H217788   0.859   2.821   1.684 -0.3884  1.3010  0.0924
 5928TIP3   OH217789   5.171   4.594   0.017  0.7389 -0.3027  0.1589
 5928TIP3    H117790   5.103   4.638  -0.034  0.5149  0.9038  1.4628
 5928TIP3    H217791   5.123   4.539   0.079  0.9846 -0.4053  0.2618
 5929TIP3   OH217792   1.719   1.031   1.104 -0.2473  0.2949 -0.1189
 5929TIP3    H117793   1.665   1.091   1.154 -1.7135 -0.4614 -0.7465
 5929TIP3    H217794   1.679   1.028   1.017 -0.0164 -1.2887 -0.2089
 5930TIP3   OH217795   4.883   4.707   0.381 -0.4151 -0.1150  0.2459
 5930TIP3    H117796   4.915   4.670   0.463 -0.7519  1.3742  1.0773
 5930TIP3    H217797   4.957   4.757   0.346  0.0542 -1.5430 -0.8965
 5931TIP3   OH217798   4.107   2.816   4.414 -0.2354 -0.8341  0.5682
 5931TIP3    H117799   4.045   2.888   4.400  0.6447 -0.2586 -0.5717
 5931TIP3    H217800   4.076   2.747   4.355 -0.2050 -0.8093  0.5225
 5932TIP3   OH217801   0.306   3.535   1.919 -0.2009 -0.0279 -0.7605
 5932TIP3    H117802   0.224   3.553   1.965  0.5348 -0.9384  1.0198
 5932TIP3    H217803   0.288   3.456   1.869 -0.0178 -1.1889  0.9013
 5933TIP3   OH217804   0.937   4.667   2.326 -0.3884 -0.3460  1.0470
 5933TIP3    H117805   0.972   4.630   2.244 -0.6605  0.6283  0.4779
 5933TIP3    H217806   1.014   4.679   2.381 -0.1157 -0.3836  0.6790
 5934TIP3   OH217807   2.650   5.103   1.575 -0.0157 -0.1581  0.1208
 5934TIP3    H117808   2.667   5.179   1.520 -1.7212 -1.5871 -2.5838
 5934TIP3    H217809   2.723   5.044   1.559  0.3673  0.1247  0.7830
 5935TIP3   OH217810   3.194   4.231   3.811 -0.3798  0.1313 -0.4220
 5935TIP3    H117811   3.280   4.200   3.841  0.2524 -1.8611 -3.8214
 5935TIP3    H217812   3.134   4.160   3.834 -0.3633 -0.2123 -1.3844
 5936TIP3   OH217813   4.598   1.886   3.905 -0.3583 -0.5377  0.1186
 5936TIP3    H117814   4.542   1.828   3.852 -0.5797  0.2977 -0.5974
 5936TIP3    H217815   4.598   1.846   3.992 -1.1181 -1.2016 -0.1661
 5937TIP3   OH217816   0.362   0.387   4.662 -0.0327  0.2258 -0.0030
 5937TIP3    H117817   0.314   0.304   4.655  0.1157  0.0934  0.5103
 5937TIP3    H217818   0.306   0.451   4.618 -0.9977  0.1979  1.1397
 5938TIP3   OH217819   2.829   1.160   1.566  0.5971 -0.4024 -0.0819
 5938TIP3    H117820   2.874   1.242   1.544 -0.7556  0.0839 -1.1387
 5938TIP3    H217821   2.845   1.103   1.491 -2.2589  0.5325 -1.5665
 5939TIP3   OH217822   5.606   4.941   3.630 -0.7289 -0.5180 -0.0674
 5939TIP3    H117823   5.573   5.009   3.571 -1.0232 -0.3158  0.3267
 5939TIP3    H217824   5.698   4.966   3.646 -0.9519  0.0364  0.4143
 5940TIP3   OH217825   5.430   4.983   1.986  0.0833 -0.6678  0.3471
 5940TIP3    H117826   5.494   4.912   1.986 -0.1339 -0.8684  0.8925
 5940TIP3    H217827   5.360   4.952   1.929  1.1386  0.1823 -1.4911
 5941TIP3   OH217828   5.781   0.860   2.919 -0.3781  0.2266 -0.1583
 5941TIP3    H117829   5.834   0.808   2.979  0.5710  0.2738 -0.9265
 5941TIP3    H217830   5.843   0.918   2.876 -1.3923  1.8539  0.5110
 5942TIP3   OH217831   2.968   2.547   1.007 -0.1783  0.0970 -0.2683
 5942TIP3    H117832   2.891   2.601   0.991  0.2165  0.7666  0.0571
 5942TIP3    H217833   2.968   2.483   0.936 -1.1910 -0.0966 -0.1090
 5943TIP3   OH217834   1.547   4.119   4.366  0.4375  0.2169  0.0638
 5943TIP3    H117835   1.562   4.111   4.460 -2.1786  1.8326  0.7450
 5943TIP3    H217836   1.452   4.108   4.356  0.6651 -0.0668 -2.4122
 5944TIP3   OH217837   3.867   3.557   3.269 -0.2478 -0.3459 -0.9677
 5944TIP3    H117838   3.852   3.468   3.301 -0.6180 -0.4864 -1.5132
 5944TIP3    H217839   3.821   3.613   3.331 -0.5864 -0.5818 -1.0031
 5945TIP3   OH217840   2.630   1.010   1.714  0.3144 -0.2815 -0.6847
 5945TIP3    H117841   2.615   0.945   1.645  1.9585 -0.7182 -0.6639
 5945TIP3    H217842   2.682   1.078   1.672 -0.0176  0.2308 -0.2774
 5946TIP3   OH217843   5.583   0.872   5.027  0.2721  0.1543  0.3571
 5946TIP3    H117844   5.542   0.865   5.113  0.2211  0.6386  0.3754
 5946TIP3    H217845   5.677   0.873   5.044  0.2655  0.0276  0.3930
 5947TIP3   OH217846   3.396   5.329   2.770  0.2365 -0.5398  0.4875
 5947TIP3    H117847   3.427   5.371   2.690  0.8805 -0.0308  0.9943
 5947TIP3    H217848   3.451   5.251   2.780 -0.6395 -1.2761 -0.1931
 5948TIP3   OH217849   3.043   0.372   1.059 -0.7238  0.4518  0.2293
 5948TIP3    H117850   3.006   0.298   1.010 -0.4128  0.4303  0.0225
 5948TIP3    H217851   3.038   0.345   1.150  2.1525 -1.1616  0.0303
 5949TIP3   OH217852   3.480   3.907   4.190  0.5315 -0.5748  0.3378
 5949TIP3    H117853   3.542   3.918   4.119 -0.8787  0.3455 -0.7980
 5949TIP3    H217854   3.534   3.903   4.269  1.9862  0.5674 -0.5642
 5950TIP3   OH217855   4.647   3.215   0.897 -0.0539  0.3565 -0.5757
 5950TIP3    H117856   4.734   3.235   0.931 -0.0256  0.3634 -0.6528
 5950TIP3    H217857   4.662   3.185   0.808 -0.3995  3.3975 -1.7665
 5951TIP3   OH217858   2.069   0.302   2.988 -0.0484  0.3696 -0.8994
 5951TIP3    H117859   2.110   0.364   2.927 -2.3089  2.2932 -0.6056
 5951TIP3    H217860   1.976   0.308   2.969 -0.9775  1.5970  3.0741
 5952TIP3   OH217861   1.098   2.563   3.968  0.0646  0.0380 -0.3186
 5952TIP3    H117862   1.066   2.523   4.049 -0.4388  0.7633 -0.1489
 5952TIP3    H217863   1.192   2.570   3.981  0.0718 -0.4399 -0.0662
 5953TIP3   OH217864   0.609   0.171   5.041  0.1573 -0.4530  0.0248
 5953TIP3    H117865   0.524   0.171   4.997  0.7273 -1.6652 -1.1252
 5953TIP3    H217866   0.653   0.092   5.009  1.1458 -0.6412  1.7315
 5954TIP3   OH217867   5.405   5.940   4.080  0.2925 -0.0199  0.3098
 5954TIP3    H117868   5.449   5.960   3.998  0.6574  1.0421  0.7563
 5954TIP3    H217869   5.471   5.956   4.148 -0.5369  0.8593  0.9354
 5955TIP3   OH217870   5.303   3.248   0.971  0.2100  0.4860 -0.2276
 5955TIP3    H117871   5.386   3.235   0.925 -0.3863 -0.3964 -1.1206
 5955TIP3    H217872   5.237   3.213   0.910 -0.6864 -0.0510  1.0032
 5956TIP3   OH217873   0.176   0.846   0.833  0.3167  0.0952 -0.4096
 5956TIP3    H117874   0.089   0.814   0.855  0.2526  0.9318  0.7088
 5956TIP3    H217875   0.232   0.769   0.835 -0.0246 -0.1571  1.0890
 5957TIP3   OH217876   0.656   1.669   3.049 -0.0463  0.2375  0.1470
 5957TIP3    H117877   0.614   1.742   3.005 -0.3140 -0.0490 -0.0781
 5957TIP3    H217878   0.743   1.701   3.072 -0.5962  1.0377  1.1654
 5958TIP3   OH217879   3.649   1.104   2.566  1.2876 -0.1811  0.2729
 5958TIP3    H117880   3.589   1.042   2.609 -0.1689 -0.1252 -1.5476
 5958TIP3    H217881   3.594   1.181   2.549  2.6352  0.9739  0.9715
 5959TIP3   OH217882   5.250   2.311   1.489 -0.1822  0.0289 -0.3914
 5959TIP3    H117883   5.226   2.378   1.425  2.1861 -0.6063 -2.0713
 5959TIP3    H217884   5.275   2.235   1.437 -1.1453 -1.6395  1.4173
 5960TIP3   OH217885   5.970   4.608   4.713 -0.3709 -0.7806  0.0181
 5960TIP3    H117886   5.972   4.518   4.681 -0.8168 -0.4915 -0.8613
 5960TIP3    H217887   6.054   4.645   4.686 -0.0032 -1.0436  0.7605
 5961TIP3   OH217888   0.898   1.030   3.753  0.1602  0.2264  0.1773
 5961TIP3    H117889   0.983   1.020   3.796 -0.1341 -0.3137  0.6590
 5961TIP3    H217890   0.837   0.984   3.811 -0.1728 -1.0080 -1.1046
 5962TIP3   OH217891   3.231   3.785   3.092  0.3027 -0.4012  0.3084
 5962TIP3    H117892   3.308   3.816   3.044  0.7729 -1.3955  0.3805
 5962TIP3    H217893   3.180   3.864   3.110  1.7533  0.4246  1.0531
 5963TIP3   OH217894   3.476   0.150   2.362 -0.6129 -0.7608  0.0070
 5963TIP3    H117895   3.409   0.082   2.355 -0.8066 -0.5490 -0.1937
 5963TIP3    H217896   3.558   0.102   2.367 -0.5651 -0.9784 -2.1702
 5964TIP3   OH217897   5.159   2.564   3.754 -0.4180  0.0864 -0.0241
 5964TIP3    H117898   5.172   2.495   3.689  0.3432  0.2013 -0.0090
 5964TIP3    H217899   5.067   2.557   3.779 -0.0646 -1.7685  0.9373
 5965TIP3   OH217900   5.001   1.671   5.157 -0.0676  0.4442 -0.0854
 5965TIP3    H117901   5.017   1.599   5.095 -0.0540 -1.1501  1.6854
 5965TIP3    H217902   4.906   1.685   5.154 -0.3061 -0.8429  0.7791
 5966TIP3   OH217903   4.736   0.889   1.621 -0.1749  0.0682 -0.0826
 5966TIP3    H117904   4.654   0.926   1.591  0.3261  1.5826  0.3579
 5966TIP3    H217905   4.800   0.914   1.554  0.5439  1.7354  1.1545
 5967TIP3   OH217906   1.270   3.914   1.409  0.8637  0.3551 -0.7414
 5967TIP3    H117907   1.272   3.950   1.320  0.1926 -1.3261 -1.4796
 5967TIP3    H217908   1.339   3.847   1.410 -1.8577 -2.7174 -1.4752
 5968TIP3   OH217909   4.682   3.844   2.022  0.2029 -0.6259 -0.5336
 5968TIP3    H117910   4.708   3.931   2.053 -2.1958  0.1991 -0.6173
 5968TIP3    H217911   4.653   3.859   1.932  0.5669 -1.6967 -0.8357
 5969TIP3   OH217912   4.921   3.961   4.088 -0.1422  0.0947  0.1369
 5969TIP3    H117913   4.867   4.039   4.083 -0.0016  0.1306 -0.9052
 5969TIP3    H217914   4.961   3.966   4.175  0.2336  1.4138 -0.0949
 5970TIP3   OH217915   5.680   2.857   4.839 -0.2379  0.1925 -0.1288
 5970TIP3    H117916   5.630   2.785   4.801  1.3433 -0.4993 -1.0356
 5970TIP3    H217917   5.647   2.866   4.928 -1.3785 -0.7679 -0.4375
 5971TIP3   OH217918   5.992   3.310   4.350  0.4009 -0.3320  0.1660
 5971TIP3    H117919   6.023   3.335   4.263  1.5781  0.3647  0.7639
 5971TIP3    H217920   6.050   3.356   4.411 -1.2737  0.3146  1.3547
 5972TIP3   OH217921   3.313   1.838   3.979  0.1581  0.6730  0.1811
 5972TIP3    H117922   3.281   1.871   4.063 -0.5620  0.6817 -0.0870
 5972TIP3    H217923   3.248   1.773   3.952  0.9826 -0.1617  0.1697
 5973TIP3   OH217924   1.471   3.667   0.711  0.8950 -0.4979 -0.0986
 5973TIP3    H117925   1.512   3.617   0.641  1.0158  0.2373 -0.5729
 5973TIP3    H217926   1.381   3.680   0.681 -0.0025 -2.8082  1.3053
 5974TIP3   OH217927   4.084   4.277   4.679 -0.1885 -0.5540 -0.4657
 5974TIP3    H117928   4.090   4.273   4.775  0.6525 -1.2812 -0.5360
 5974TIP3    H217929   4.085   4.186   4.651  1.6988 -0.3478 -1.2655
 5975TIP3   OH217930   4.786   2.410   0.802 -0.2795  0.1033  0.4065
 5975TIP3    H117931   4.806   2.392   0.894  1.0300  1.1732  0.3659
 5975TIP3    H217932   4.871   2.411   0.759 -0.7969  0.5692 -0.6428
 5976TIP3   OH217933   1.103   4.430   2.567  0.1771 -0.1176  0.4774
 5976TIP3    H117934   1.099   4.379   2.486 -1.6450  0.2693  0.2840
 5976TIP3    H217935   1.102   4.521   2.538  1.5657  0.0501  0.8893
 5977TIP3   OH217936   1.810   2.552   0.585 -0.7204  0.5162  0.3386
 5977TIP3    H117937   1.832   2.461   0.564 -1.6813  0.7275 -1.8967
 5977TIP3    H217938   1.732   2.546   0.639  0.8609 -0.0111  2.7431
 5978TIP3   OH217939   3.288   2.938   4.066 -0.3982  0.3204 -0.4537
 5978TIP3    H117940   3.317   2.975   4.150  1.0875 -0.6656 -0.5011
 5978TIP3    H217941   3.197   2.967   4.058 -0.2977  1.1886  1.0623
 5979TIP3   OH217942   2.433   0.440   0.285 -0.2264 -1.3161  0.5198
 5979TIP3    H117943   2.424   0.530   0.317 -0.1581  0.0431 -2.8122
 5979TIP3    H217944   2.410   0.385   0.360 -1.5157  1.4667  2.3466
 5980TIP3   OH217945   3.767   1.874   1.751 -0.1682  0.3649 -0.5010
 5980TIP3    H117946   3.745   1.919   1.833  0.4601 -0.6648  0.2489
 5980TIP3    H217947   3.834   1.929   1.711 -1.5417  1.6815 -1.1010
 5981TIP3   OH217948   1.307   4.044   3.526 -0.0238  0.1172 -0.2464
 5981TIP3    H117949   1.316   4.063   3.433  2.9248  1.4856  0.1906
 5981TIP3    H217950   1.359   3.965   3.539 -0.8954 -0.3979  0.1651
 5982TIP3   OH217951   5.631   1.148   1.689 -0.1580 -0.2557 -0.0228
 5982TIP3    H117952   5.631   1.188   1.776  0.7927 -0.9505  0.3197
 5982TIP3    H217953   5.722   1.155   1.660 -0.0170 -1.8679 -0.0751
 5983TIP3   OH217954   2.179   2.843   3.006  0.2921  0.6043  0.7290
 5983TIP3    H117955   2.221   2.902   2.944  1.2661 -1.8048 -1.0702
 5983TIP3    H217956   2.095   2.884   3.025  0.8175  2.4311 -0.5912
 5984TIP3   OH217957   6.246   1.605   0.229  0.3123 -0.1983  0.1611
 5984TIP3    H117958   6.229   1.597   0.136  0.4729 -1.2098  0.2066
 5984TIP3    H217959   6.169   1.648   0.265  0.4418  0.5964 -0.4980
 5985TIP3   OH217960   2.268   2.266   1.885  0.3535  0.0308  0.2166
 5985TIP3    H117961   2.325   2.189   1.879  1.1389  0.4152  2.0423
 5985TIP3    H217962   2.325   2.340   1.863 -0.3814  0.1205 -1.4664
 5986TIP3   OH217963   4.533   4.503   3.296 -0.3896  1.0526  0.5813
 5986TIP3    H117964   4.618   4.509   3.341  0.3071  1.9894 -0.7677
 5986TIP3    H217965   4.469   4.522   3.364  0.3302 -1.1504  1.9882
 5987TIP3   OH217966   4.638   2.689   0.440 -0.2059 -0.7109  0.2574
 5987TIP3    H117967   4.680   2.663   0.522  1.0605 -0.1330 -0.1754
 5987TIP3    H217968   4.698   2.658   0.372 -0.2970  0.4664 -0.3747
 5988TIP3   OH217969   0.468   0.017   3.790  0.2434 -0.3160  0.2195
 5988TIP3    H117970   0.388  -0.018   3.750  0.9137  0.4569 -1.8656
 5988TIP3    H217971   0.440   0.099   3.831  0.2909  1.0218 -2.2652
 5989TIP3   OH217972   2.595   3.222   2.882  0.3826 -0.2613  0.7306
 5989TIP3    H117973   2.545   3.141   2.890  0.5354 -0.5198 -0.6140
 5989TIP3    H217974   2.631   3.218   2.793  0.5848  1.1740  0.7368
 5990TIP3   OH217975   5.124   5.734   4.083 -0.4122  0.5615  0.0460
 5990TIP3    H117976   5.182   5.759   4.155 -1.0974  1.8381  0.1844
 5990TIP3    H217977   5.159   5.779   4.007 -0.9991  1.0581  0.0588
 5991TIP3   OH217978   2.132   3.531   1.183 -0.3169 -0.5126  0.0268
 5991TIP3    H117979   2.080   3.515   1.262  0.1593 -0.2144  0.4037
 5991TIP3    H217980   2.223   3.519   1.211 -0.1699 -0.8939 -0.5958
 5992TIP3   OH217981   3.371   4.984   3.899 -0.5282 -0.1639  0.5049
 5992TIP3    H117982   3.447   4.985   3.958  0.6489 -1.8708 -0.8542
 5992TIP3    H217983   3.364   5.074   3.868  1.1131 -0.0002  0.5018
 5993TIP3   OH217984   2.189   3.164   4.880 -0.5508  0.0541  0.1692
 5993TIP3    H117985   2.243   3.219   4.822 -0.5133 -0.5857 -0.4174
 5993TIP3    H217986   2.190   3.077   4.838 -1.3869 -0.1605  0.5799
 5994TIP3   OH217987   1.982   4.238   5.150 -0.0525  0.1269 -0.3779
 5994TIP3    H117988   1.907   4.297   5.148 -2.7324 -2.8589  2.0113
 5994TIP3    H217989   2.031   4.264   5.228 -0.3940  0.1362 -0.1631
 5995TIP3   OH217990   2.138   2.956   5.026  0.0733  0.5947 -0.5107
 5995TIP3    H117991   2.051   2.918   5.041  0.0876 -0.4768 -2.6852
 5995TIP3    H217992   2.120   3.046   4.999 -0.1535  1.2165  1.5397
 5996TIP3   OH217993   3.764   2.836   4.847  0.0363 -0.6256  0.6254
 5996TIP3    H117994   3.843   2.869   4.890 -0.1050 -1.4856  1.5742
 5996TIP3    H217995   3.694   2.850   4.911 -0.6931  0.5279 -0.3659
 5997TIP3   OH217996   3.420   5.848   4.383 -0.1401 -0.1577  0.4956
 5997TIP3    H117997   3.451   5.932   4.347  1.6739 -0.6555  0.7803
 5997TIP3    H217998   3.481   5.783   4.348 -1.5425 -1.3998  0.2428
 5998TIP3   OH217999   3.694   2.425   4.496 -0.7049  0.2623  0.0076
 5998TIP3    H118000   3.733   2.487   4.556 -0.9214 -0.7849  1.2712
 5998TIP3    H218001   3.732   2.340   4.520  0.0600 -0.0526 -2.0746
 5999TIP3   OH218002   3.233   1.084   1.547 -0.3392 -0.6447  0.6520
 5999TIP3    H118003   3.208   1.037   1.467 -1.2699 -0.0440  0.5683
 5999TIP3    H218004   3.157   1.073   1.605  0.4589 -1.3664  1.6036
 6000TIP3   OH218005   5.412   2.701   1.980  0.3532  0.6173  0.2991
 6000TIP3    H118006   5.500   2.690   1.944  0.6444 -0.1422  1.1863
 6000TIP3    H218007   5.364   2.752   1.914  1.2992  0.5727 -0.4337
 6001TIP3   OH218008   2.270   0.864   1.820  0.1659  0.4130  0.1650
 6001TIP3    H118009   2.222   0.861   1.737  0.1321  0.6728  0.1724
 6001TIP3    H218010   2.225   0.802   1.877 -0.9660  1.5952  0.5947
 6002TIP3   OH218011   1.280   5.735   3.630 -0.7162 -0.4551 -0.0345
 6002TIP3    H118012   1.304   5.686   3.709  1.8742  0.3725 -0.2196
 6002TIP3    H218013   1.194   5.773   3.650 -1.1821 -2.1633  1.4448
 6003TIP3   OH218014   0.780   5.643   3.744 -0.3363 -0.4717  0.1984
 6003TIP3    H118015   0.734   5.577   3.692 -0.6399 -1.6865  1.8920
 6003TIP3    H218016   0.718   5.668   3.812  0.7911 -0.6910  1.3695
 6004TIP3   OH218017   4.450   5.265   3.487  0.2038  0.0826  0.2850
 6004TIP3    H118018   4.500   5.341   3.517  1.2982 -0.2191 -0.6836
 6004TIP3    H218019   4.431   5.283   3.395 -0.6772 -0.2420  0.3897
 6005TIP3   OH218020   3.898   2.700   0.401  0.0610 -0.7820 -0.8800
 6005TIP3    H118021   3.869   2.710   0.492 -1.0284 -1.5138 -1.1259
 6005TIP3    H218022   3.910   2.789   0.370  1.9891 -0.5341  0.4347
 6006TIP3   OH218023   0.833   4.602   2.799 -0.2572  0.0520  0.2757
 6006TIP3    H118024   0.745   4.565   2.798 -0.5384  0.4527 -3.3661
 6006TIP3    H218025   0.890   4.528   2.777 -0.2996  0.6275 -2.0767
 6007TIP3   OH218026   2.686   3.425   4.679 -0.7886  0.7416 -0.1370
 6007TIP3    H118027   2.665   3.439   4.772 -0.2743 -0.6291  0.2184
 6007TIP3    H218028   2.781   3.435   4.674 -0.8725  1.3219 -0.6223
 6008TIP3   OH218029   3.683   1.283   4.462 -0.6601  0.5672  0.3621
 6008TIP3    H118030   3.612   1.342   4.485 -0.9904  1.0844 -1.7776
 6008TIP3    H218031   3.654   1.241   4.381  1.7396  1.3722 -1.0225
 6009TIP3   OH218032   6.281   3.953   0.728 -0.0962  0.6877 -0.0124
 6009TIP3    H118033   6.285   3.859   0.745 -0.4635  0.5860 -0.4662
 6009TIP3    H218034   6.329   3.993   0.800 -2.9540  0.3954  2.2309
 6010TIP3   OH218035   1.281   0.028   4.387 -0.0110 -0.1763 -0.2980
 6010TIP3    H118036   1.256  -0.016   4.468 -0.7986 -0.1205 -0.5018
 6010TIP3    H218037   1.218   0.100   4.378  0.6266  0.3627 -0.4982
 6011TIP3   OH218038   0.781   3.458   0.974 -0.1355 -0.3033 -0.0150
 6011TIP3    H118039   0.838   3.406   1.031  2.1262  2.1426  0.0839
 6011TIP3    H218040   0.696   3.455   1.017  0.6019 -1.6350  1.4386
 6012TIP3   OH218041   2.450   2.734   3.471  0.1746  0.0823  0.0980
 6012TIP3    H118042   2.371   2.753   3.421  0.6659  2.2059  0.0223
 6012TIP3    H218043   2.443   2.790   3.548  0.7492 -1.0926  1.0336
 6013TIP3   OH218044   0.682   5.348   2.467  0.3386 -0.3841  0.7001
 6013TIP3    H118045   0.637   5.421   2.424  0.5137 -1.6976 -1.8819
 6013TIP3    H218046   0.775   5.370   2.460  0.3630 -0.5487  0.5072
 6014TIP3   OH218047   1.618   4.677   2.887 -0.6114  0.1298 -0.5288
 6014TIP3    H118048   1.658   4.734   2.822  0.9667 -0.5825 -0.2180
 6014TIP3    H218049   1.623   4.589   2.849  0.6706 -0.3502  0.6746
 6015TIP3   OH218050   1.626   2.892   3.889  0.7538  0.0254  0.0779
 6015TIP3    H118051   1.542   2.857   3.919  0.7864  0.6983  1.0244
 6015TIP3    H218052   1.605   2.980   3.857  1.2035  0.5124  1.0763
 6016TIP3   OH218053   5.037   0.222   4.595 -0.6134 -0.3031  0.3124
 6016TIP3    H118054   5.112   0.233   4.536  0.0569  0.9742  1.3568
 6016TIP3    H218055   5.053   0.284   4.666 -0.6849 -2.6745  2.5746
 6017TIP3   OH218056   1.120   4.033   2.562 -0.6234 -0.7800  0.4514
 6017TIP3    H118057   1.056   4.058   2.495  0.6309  1.1138 -0.0969
 6017TIP3    H218058   1.187   3.985   2.514  0.1366  0.3369  0.3790
 6018TIP3   OH218059   5.025   4.106   0.350  0.4839 -0.4865  0.2412
 6018TIP3    H118060   5.051   4.183   0.401 -0.9894  0.0166  0.2987
 6018TIP3    H218061   5.070   4.116   0.266  0.7733  0.1283  0.4629
 6019TIP3   OH218062   3.176   5.209   4.909  0.0306 -0.3363 -0.1985
 6019TIP3    H118063   3.196   5.116   4.921  1.0984 -0.3917 -2.0024
 6019TIP3    H218064   3.240   5.239   4.844 -1.3416  1.2583 -0.8897
 6020TIP3   OH218065   0.902   4.060   1.795 -0.0416 -0.0950  0.5979
 6020TIP3    H118066   0.809   4.041   1.806 -0.1562  0.4939  0.6702
 6020TIP3    H218067   0.937   3.984   1.750 -0.5325 -0.3825  0.6992
 6021TIP3   OH218068   2.410   1.441   2.733 -0.2963  0.2400  0.1662
 6021TIP3    H118069   2.338   1.503   2.719 -1.7709 -1.2091  0.9643
 6021TIP3    H218070   2.410   1.425   2.827 -0.1032 -1.1042 -0.0323
 6022TIP3   OH218071   5.511   5.190   1.817  0.2251 -0.3350  0.1594
 6022TIP3    H118072   5.496   5.126   1.887  0.2374 -0.9565 -0.4012
 6022TIP3    H218073   5.560   5.142   1.750  1.1502  0.5488  0.1812
 6023TIP3   OH218074   1.613   0.721   1.358  0.0555 -0.2072  0.0709
 6023TIP3    H118075   1.655   0.788   1.304 -0.5590 -1.4919 -2.1340
 6023TIP3    H218076   1.544   0.768   1.405  0.6947  1.0005 -0.1533
 6024TIP3   OH218077   3.097   5.180   1.837 -0.1917  0.4411 -0.0321
 6024TIP3    H118078   3.087   5.172   1.932 -0.2552  1.0359  0.0179
 6024TIP3    H218079   3.036   5.250   1.812  0.1213  0.5677 -0.4555
 6025TIP3   OH218080   6.226   3.655   0.258  0.2927  0.4207 -0.2129
 6025TIP3    H118081   6.289   3.683   0.325 -0.1930  2.0173 -0.3714
 6025TIP3    H218082   6.259   3.571   0.227  1.3766  0.3914  0.9389
 6026TIP3   OH218083   2.239   0.279   2.157  0.1593 -0.0822 -0.4085
 6026TIP3    H118084   2.330   0.257   2.141  0.3112  0.8814 -0.9850
 6026TIP3    H218085   2.214   0.333   2.081 -0.6213  0.4080  0.1832
 6027TIP3   OH218086   4.902   5.611   4.316 -0.1748  0.0742  0.4753
 6027TIP3    H118087   4.892   5.698   4.356  0.0067  0.3868 -0.1485
 6027TIP3    H218088   4.977   5.620   4.257 -0.9382 -0.1407 -0.5522
 6028TIP3   OH218089   2.264   4.562   5.157  0.0456  0.1074  0.3097
 6028TIP3    H118090   2.327   4.518   5.214  0.8292  0.0762 -0.5628
 6028TIP3    H218091   2.272   4.518   5.072  0.2356  1.3569 -0.3469
 6029TIP3   OH218092   3.858   0.931   4.397 -0.2582 -0.0392  0.4479
 6029TIP3    H118093   3.825   0.888   4.477 -1.3527  0.3333  0.2129
 6029TIP3    H218094   3.788   0.918   4.333  0.4643 -0.0232 -0.3476
 6030TIP3   OH218095   3.992   1.466   1.258 -0.5728  0.2438 -0.9265
 6030TIP3    H118096   3.985   1.506   1.345  0.8628  0.1398 -0.7306
 6030TIP3    H218097   4.010   1.539   1.199 -0.7069  0.2100 -1.0111
 6031TIP3   OH218098   4.817   5.771   4.534 -0.1503  0.1822 -0.1778
 6031TIP3    H118099   4.783   5.704   4.594  0.0338 -0.1439 -0.4339
 6031TIP3    H218100   4.738   5.812   4.498 -0.2621  0.3360  0.2332
 6032TIP3   OH218101   1.778   0.068   2.366 -0.5948 -0.6385 -0.0732
 6032TIP3    H118102   1.850   0.124   2.395  1.9852 -3.6574 -0.1295
 6032TIP3    H218103   1.801   0.042   2.277 -2.1374 -1.1638 -0.3661
 6033TIP3   OH218104   1.258   4.208   0.504  0.1564  0.4703  0.1342
 6033TIP3    H118105   1.164   4.225   0.498  0.2881  0.6012 -3.0586
 6033TIP3    H218106   1.268   4.154   0.582 -2.2577  2.1829  1.7728
 6034TIP3   OH218107   5.582   5.266   2.374  0.0508  0.1623 -0.4384
 6034TIP3    H118108   5.641   5.191   2.378  0.0901  0.2406  0.8380
 6034TIP3    H218109   5.511   5.245   2.435 -0.3891  0.7744 -0.7312
 6035TIP3   OH218110   5.645   0.569   5.138 -0.6253 -0.2527  0.5284
 6035TIP3    H118111   5.598   0.590   5.219 -1.2532 -2.0639  0.6753
 6035TIP3    H218112   5.678   0.480   5.151  2.5444  0.7645  0.2456
 6036TIP3   OH218113   2.865   1.009   1.059  0.3192  0.1072 -0.1963
 6036TIP3    H118114   2.878   1.103   1.066  0.9150 -0.0244  0.6099
 6036TIP3    H218115   2.770   0.998   1.052  0.1808  0.7167  0.6396
 6037TIP3   OH218116   0.144   2.271   3.632 -0.0902  0.0297  0.2583
 6037TIP3    H118117   0.063   2.296   3.676  0.4315  1.3090  0.5128
 6037TIP3    H218118   0.209   2.264   3.702  0.2821  0.0902 -0.0740
 6038TIP3   OH218119   0.568   2.199   0.053  0.5450  0.0018 -0.0570
 6038TIP3    H118120   0.476   2.218   0.039  1.1335  1.4611 -2.5639
 6038TIP3    H218121   0.588   2.129  -0.010  1.2319  0.0039  0.1425
 6039TIP3   OH218122   1.078   1.918   1.391  0.2525  0.1108  0.1637
 6039TIP3    H118123   1.057   1.838   1.440  0.7849 -1.5186 -2.1323
 6039TIP3    H218124   1.015   1.919   1.319  0.2312  1.8341  0.1552
 6040TIP3   OH218125   3.926   2.450   0.959  0.4825 -0.1760  0.1980
 6040TIP3    H118126   3.955   2.436   1.049  0.3560  0.2372  0.3077
 6040TIP3    H218127   3.841   2.493   0.968 -0.9846 -2.7871 -0.0890
 6041TIP3   OH218128   5.969   5.832   3.022 -0.0547  0.2369  0.7228
 6041TIP3    H118129   6.033   5.844   2.951  0.2037  0.2013  0.9474
 6041TIP3    H218130   5.974   5.739   3.042 -0.1588  0.2394  0.7564
 6042TIP3   OH218131   2.420   4.080   3.581 -0.0036  0.1543 -0.1503
 6042TIP3    H118132   2.371   4.138   3.523  0.4269  0.3790 -0.2898
 6042TIP3    H218133   2.461   4.139   3.645 -0.3778 -0.0783  0.3152
 6043TIP3   OH218134   4.152   3.263   2.574  0.7000  0.0710 -0.3365
 6043TIP3    H118135   4.100   3.198   2.527  0.2662  0.3619 -0.2642
 6043TIP3    H218136   4.100   3.283   2.652  1.9358 -1.2593  0.8857
 6044TIP3   OH218137   4.379   3.849   3.015 -0.0539  0.4563  0.1738
 6044TIP3    H118138   4.312   3.782   3.028 -0.3480  0.6950 -0.0635
 6044TIP3    H218139   4.411   3.868   3.103 -0.4571  0.4920  0.3191
 6045TIP3   OH218140   4.694   4.525   4.865 -0.4112  0.7162  0.2018
 6045TIP3    H118141   4.703   4.608   4.818  0.7400  1.0402  0.9480
 6045TIP3    H218142   4.784   4.498   4.882 -0.7413 -1.0002 -0.5488
 6046TIP3   OH218143   0.638   4.745   4.559 -0.0353 -0.2562 -0.0703
 6046TIP3    H118144   0.569   4.682   4.580  0.7991 -0.8192  1.0500
 6046TIP3    H218145   0.719   4.696   4.565  0.7686  1.2163  2.2779
 6047TIP3   OH218146   5.020   4.297   4.440  0.5513 -0.1173  0.4423
 6047TIP3    H118147   4.977   4.306   4.355  0.2843  0.8205  0.6601
 6047TIP3    H218148   5.044   4.387   4.464  1.6496 -0.4973  0.8356
 6048TIP3   OH218149   3.474   1.327   2.431  0.6940  0.1254 -0.0876
 6048TIP3    H118150   3.397   1.371   2.467  2.1265  2.8138 -0.0342
 6048TIP3    H218151   3.457   1.321   2.337 -0.5807 -1.5855  0.2109
 6049TIP3   OH218152   1.389   2.734   3.849 -0.0361  0.5876  0.1667
 6049TIP3    H118153   1.415   2.705   3.761 -0.6353  0.3050  0.0763
 6049TIP3    H218154   1.369   2.653   3.895  0.9111  0.6935  0.7755
 6050TIP3   OH218155   0.206   1.361   0.401  0.6645 -0.3263 -0.4102
 6050TIP3    H118156   0.181   1.448   0.372  0.9387 -0.5036 -1.2217
 6050TIP3    H218157   0.156   1.346   0.481 -2.0688 -0.7563 -2.0584
 6051TIP3   OH218158   4.709   3.041   2.995 -0.6483 -0.1856  0.3136
 6051TIP3    H118159   4.756   2.994   2.926 -1.0121 -1.0382  0.6301
 6051TIP3    H218160   4.778   3.083   3.047 -0.4259  1.9449 -1.5377
 6052TIP3   OH218161   3.832   2.079   1.060  0.0893  0.3836 -0.4258
 6052TIP3    H118162   3.858   1.987   1.055  0.4581  0.5413 -1.9536
 6052TIP3    H218163   3.841   2.101   1.153  3.0727 -0.2673 -0.4459
 6053TIP3   OH218164   1.676   4.304   3.582 -0.2814  0.0995 -0.3495
 6053TIP3    H118165   1.652   4.234   3.643 -0.4080  0.3033 -0.1664
 6053TIP3    H218166   1.742   4.264   3.525 -0.1677 -0.0932 -0.0839
 6054TIP3   OH218167   5.955   2.833   1.535  0.2237 -0.2873  0.1668
 6054TIP3    H118168   5.926   2.836   1.443 -0.5765  0.3026  0.4261
 6054TIP3    H218169   5.887   2.785   1.581  0.6794 -0.6782  0.4369
 6055TIP3   OH218170   2.568   2.753   4.825 -0.0459  0.0080 -0.5492
 6055TIP3    H118171   2.500   2.777   4.761 -0.9419 -0.1776  0.2982
 6055TIP3    H218172   2.522   2.753   4.909  1.6780  3.0967  0.5806
 6056TIP3   OH218173   2.953   0.990   1.366  0.3571 -0.2312 -0.0328
 6056TIP3    H118174   2.944   1.000   1.271 -0.5203  1.5927  0.1959
 6056TIP3    H218175   2.967   0.896   1.379  0.6452 -0.5043 -1.9645
 6057TIP3   OH218176   4.508   2.679   2.169 -0.2931  0.6134  0.1811
 6057TIP3    H118177   4.450   2.604   2.154 -0.8771  1.2912 -1.1635
 6057TIP3    H218178   4.500   2.731   2.089 -0.4559  2.4884  1.3567
 6058TIP3   OH218179   6.127   2.617   1.127  0.2575 -0.6210  0.0881
 6058TIP3    H118180   6.173   2.610   1.210  0.5855 -0.8746 -0.1113
 6058TIP3    H218181   6.109   2.710   1.117 -0.7720 -0.7066  0.9674
 6059TIP3   OH218182   2.781   0.049   4.105  0.3074 -0.2061  0.1827
 6059TIP3    H118183   2.826   0.085   4.181  0.6190  0.1166 -0.1447
 6059TIP3    H218184   2.750   0.126   4.057 -0.4947 -0.4254  0.3406
 6060TIP3   OH218185   3.172   2.625   3.659 -0.1031 -0.3211  0.3238
 6060TIP3    H118186   3.156   2.714   3.629  0.1280 -0.3186  0.2033
 6060TIP3    H218187   3.215   2.636   3.744 -1.0012 -0.3316  0.7868
 6061TIP3   OH218188   4.187   5.044   0.416 -0.3123 -0.3779 -0.5091
 6061TIP3    H118189   4.258   4.980   0.416  0.0624  0.0254 -0.1957
 6061TIP3    H218190   4.125   5.011   0.481 -0.3178 -0.6373 -0.6479
 6062TIP3   OH218191   4.791   0.613   1.037  0.1196 -0.0634 -0.1716
 6062TIP3    H118192   4.713   0.627   1.091  0.5506  2.4632 -0.0836
 6062TIP3    H218193   4.757   0.605   0.948 -0.3172 -0.2811  0.0101
 6063TIP3   OH218194   3.775   4.815   2.667  0.3083 -0.2744  0.1723
 6063TIP3    H118195   3.687   4.790   2.637  0.1646  2.1054 -1.5636
 6063TIP3    H218196   3.834   4.775   2.604  0.3003  0.4801 -0.3175
 6064TIP3   OH218197   4.419   5.174   5.045 -0.1342 -0.4824  0.0869
 6064TIP3    H118198   4.361   5.223   4.987 -0.1924  0.8831  1.2507
 6064TIP3    H218199   4.393   5.201   5.133  0.5403 -1.8346  0.7211
 6065TIP3   OH218200   2.887   3.575   2.285 -0.3323  0.0224  0.9965
 6065TIP3    H118201   2.852   3.636   2.221  1.6316 -0.4708 -0.6424
 6065TIP3    H218202   2.973   3.609   2.308  1.0504 -2.2777 -0.3536
 6066TIP3   OH218203   5.015   0.638   1.873  0.0521  0.1451 -0.2587
 6066TIP3    H118204   5.009   0.543   1.885  0.4433  0.0025 -1.1206
 6066TIP3    H218205   4.932   0.672   1.905 -0.0197 -0.4695  0.2193
 6067TIP3   OH218206   5.099   1.442   4.135  0.0769  0.3688  0.1436
 6067TIP3    H118207   5.015   1.401   4.111  1.4605 -1.6841 -1.6214
 6067TIP3    H218208   5.126   1.488   4.055  0.3474  1.6102  0.9214
 6068TIP3   OH218209   0.636   4.829   3.778  0.1120  0.4060  0.1199
 6068TIP3    H118210   0.676   4.806   3.862 -1.2352  0.2367  0.7416
 6068TIP3    H218211   0.542   4.835   3.797 -0.1616  0.8739 -1.2668
 6069TIP3   OH218212   3.388   2.905   1.940 -0.1160 -0.5327 -0.3887
 6069TIP3    H118213   3.342   2.843   1.884  1.3274 -0.4723 -1.7038
 6069TIP3    H218214   3.425   2.969   1.880  0.5631  0.1654  0.7281
 6070TIP3   OH218215   0.005   4.581   3.622  0.1927 -0.3859  0.0132
 6070TIP3    H118216  -0.046   4.629   3.687 -0.3356 -1.7696  0.6786
 6070TIP3    H218217   0.087   4.629   3.616  0.4445 -0.4562  2.0675
 6071TIP3   OH218218   4.605   3.265   2.921 -0.7826  0.4808 -0.8582
 6071TIP3    H118219   4.657   3.331   2.966 -1.6761  1.0668 -0.6685
 6071TIP3    H218220   4.659   3.186   2.925 -1.2175  0.2197  2.1395
 6072TIP3   OH218221   4.056   5.381   0.813  0.0712 -0.3764  0.5534
 6072TIP3    H118222   4.147   5.375   0.844  0.0079 -0.3467  0.7392
 6072TIP3    H218223   4.030   5.290   0.800  0.3000 -0.3749  0.0011
 6073TIP3   OH218224   6.162   2.525   2.528 -0.3560 -0.0071 -0.4313
 6073TIP3    H118225   6.123   2.560   2.449 -0.5499  1.2222  0.1948
 6073TIP3    H218226   6.163   2.598   2.590 -0.7900 -1.0829  0.9212
 6074TIP3   OH218227   5.220   3.870   2.762 -0.1490 -0.7739 -0.3139
 6074TIP3    H118228   5.293   3.901   2.817  0.1438  1.1927 -1.6935
 6074TIP3    H218229   5.161   3.945   2.756 -0.6042 -1.2234 -1.9485
 6075TIP3   OH218230   1.176   5.361   4.203  0.2127 -0.1117  0.4033
 6075TIP3    H118231   1.210   5.272   4.200  0.1057 -0.1913  1.2944
 6075TIP3    H218232   1.156   5.376   4.295 -0.3838  0.6082  0.1654
 6076TIP3   OH218233   1.395   4.734   3.050  0.1016  0.0081 -0.8192
 6076TIP3    H118234   1.380   4.646   3.083 -0.1769  0.4491  0.2526
 6076TIP3    H218235   1.464   4.723   2.984 -0.1026 -1.0343 -0.8724
 6077TIP3   OH218236   2.221   1.136   1.227 -0.2794 -0.1360  0.0545
 6077TIP3    H118237   2.236   1.172   1.314 -2.2520  1.6350 -0.2507
 6077TIP3    H218238   2.300   1.159   1.178 -0.1941  1.1085  0.7322
 6078TIP3   OH218239   2.316   2.350   0.912  0.0719  0.3769  0.0639
 6078TIP3    H118240   2.221   2.336   0.907  0.0284  0.2987  0.9645
 6078TIP3    H218241   2.327   2.444   0.899 -0.2503  0.5967  1.2164
 6079TIP3   OH218242   3.265   1.978   1.093  0.0486 -0.0541  0.2477
 6079TIP3    H118243   3.230   1.938   1.013  2.5531 -2.0843  0.0332
 6079TIP3    H218244   3.338   2.033   1.062  0.6079 -0.3193  1.0751
 6080TIP3   OH218245   2.287   1.903   0.349  0.3218 -0.6540  0.4482
 6080TIP3    H118246   2.359   1.871   0.294 -0.3072 -3.2211  0.9973
 6080TIP3    H218247   2.234   1.956   0.290  1.3086 -0.8170 -0.6182
 6081TIP3   OH218248   3.815   4.965   0.209 -0.4386  0.2671  0.6908
 6081TIP3    H118249   3.802   4.925   0.295 -2.9811  1.1798  0.8333
 6081TIP3    H218250   3.881   5.032   0.223  1.5212 -1.6715  1.1545
 6082TIP3   OH218251   0.756   2.247   4.253  0.2545  0.3218  0.1381
 6082TIP3    H118252   0.752   2.309   4.327 -0.6888  0.4857 -0.0322
 6082TIP3    H218253   0.671   2.204   4.255  1.0702 -1.3257  0.5374
 6083TIP3   OH218254   5.352   3.988   2.227 -0.6788  0.6218  0.5043
 6083TIP3    H118255   5.422   3.984   2.293  1.5497 -0.0751 -1.7412
 6083TIP3    H218256   5.358   4.077   2.193 -0.0412  0.2044 -0.5100
 6084TIP3   OH218257   0.089   0.919   4.484  0.3264 -0.6959  0.4203
 6084TIP3    H118258   0.148   0.964   4.424 -0.1470 -3.1270 -2.0882
 6084TIP3    H218259   0.006   0.913   4.437 -0.7165 -0.9224  2.1899
 6085TIP3   OH218260   3.649   5.154   3.948  0.2682  0.2071  0.0901
 6085TIP3    H118261   3.677   5.216   4.016 -1.2009  0.1399  0.8093
 6085TIP3    H218262   3.689   5.071   3.973  2.7434  0.9167 -1.2071
 6086TIP3   OH218263   0.328   5.567   3.376 -0.0050 -0.3403 -0.3351
 6086TIP3    H118264   0.368   5.485   3.347  0.6181 -0.5986  1.1965
 6086TIP3    H218265   0.316   5.557   3.470 -2.6418  0.1998 -0.5320
 6087TIP3   OH218266   4.605   4.597   0.474  0.2123  0.9578  0.0823
 6087TIP3    H118267   4.691   4.639   0.480  0.9582 -0.1390 -1.9272
 6087TIP3    H218268   4.623   4.512   0.434 -1.7734  0.5449 -0.0000
 6088TIP3   OH218269   5.805   1.743   4.174  0.0073 -0.2250  0.1327
 6088TIP3    H118270   5.900   1.746   4.161 -0.1907  0.3700 -1.3586
 6088TIP3    H218271   5.776   1.665   4.127 -0.2215 -0.5290  0.7724
 6089TIP3   OH218272   1.370   1.772   4.126  0.0929 -0.1304 -0.6876
 6089TIP3    H118273   1.441   1.716   4.159  0.3224  0.8002  0.4961
 6089TIP3    H218274   1.309   1.779   4.200  0.5994  2.0010 -0.3961
 6090TIP3   OH218275   6.092   4.039   5.018 -0.4677  0.2285 -0.3298
 6090TIP3    H118276   6.055   4.097   4.950  1.1113  0.6611 -0.8681
 6090TIP3    H218277   6.023   4.032   5.084 -1.7056  0.5458 -1.5438
 6091TIP3   OH218278   3.998   1.891   1.427  1.0586 -0.2443 -0.2608
 6091TIP3    H118279   3.952   1.959   1.377 -0.6529 -2.0193 -1.2595
 6091TIP3    H218280   3.996   1.922   1.517  0.1224  0.9447 -0.6601
 6092TIP3   OH218281   5.063   3.001   0.165  0.2133  0.0034  0.0222
 6092TIP3    H118282   5.098   3.088   0.143  0.7684  0.6096  2.9039
 6092TIP3    H218283   5.008   2.978   0.090  1.4608  2.0328 -1.6292
 6093TIP3   OH218284   2.461   5.619   3.542  0.6023 -0.2983 -0.0485
 6093TIP3    H118285   2.531   5.665   3.496 -0.4911 -1.2214 -2.8032
 6093TIP3    H218286   2.390   5.611   3.478 -1.7037 -0.2339  2.3303
 6094TIP3   OH218287   1.354   3.207   0.876  0.5273 -0.2795  0.0179
 6094TIP3    H118288   1.441   3.170   0.892  1.5578  2.2469  0.7728
 6094TIP3    H218289   1.307   3.193   0.958  1.1350  0.6243  0.5354
 6095TIP3   OH218290   3.249   3.380   2.395 -0.2166 -0.1198 -0.2902
 6095TIP3    H118291   3.252   3.321   2.470  2.0443  1.0778  0.6467
 6095TIP3    H218292   3.262   3.467   2.433  0.7715  0.5384 -2.0553
 6096TIP3   OH218293   0.484   4.367   2.548  0.4861  0.1175  0.0474
 6096TIP3    H118294   0.501   4.275   2.567  0.5738 -0.0131 -0.6297
 6096TIP3    H218295   0.566   4.400   2.511  0.5043  0.5060  0.4322
 6097TIP3   OH218296   4.394   5.189   0.261 -0.3174 -0.2821 -0.3520
 6097TIP3    H118297   4.316   5.185   0.315  1.1308 -1.4915  1.7831
 6097TIP3    H218298   4.466   5.166   0.319  1.5152 -0.4858 -2.5207
 6098TIP3   OH218299   5.211   2.879   4.845 -0.0336  0.0340 -0.3148
 6098TIP3    H118300   5.136   2.916   4.891 -1.2369 -0.9126 -1.4139
 6098TIP3    H218301   5.230   2.797   4.891 -1.4860 -1.1105 -1.6121
 6099TIP3   OH218302   4.277   1.118   3.229  0.0870  0.6526  0.4025
 6099TIP3    H118303   4.350   1.079   3.277 -0.0034 -1.5948 -1.1463
 6099TIP3    H218304   4.216   1.146   3.297  0.4473 -1.4053  1.6511
 6100TIP3   OH218305   4.358   5.404   0.913  0.0137  0.4199 -0.2529
 6100TIP3    H118306   4.355   5.351   0.992 -1.7242 -0.4327 -0.8393
 6100TIP3    H218307   4.451   5.409   0.890  0.3600 -0.8876  0.7921
 6101TIP3   OH218308   2.716   5.790   2.689 -0.4382  0.0600 -0.0490
 6101TIP3    H118309   2.644   5.731   2.711 -2.0036  2.4140  1.5165
 6101TIP3    H218310   2.739   5.833   2.771  0.6515  1.6241 -1.1023
 6102TIP3   OH218311   5.436   3.160   1.842  0.3810 -0.4001  0.2577
 6102TIP3    H118312   5.380   3.089   1.811  0.9239  0.1495 -2.2447
 6102TIP3    H218313   5.525   3.132   1.821  0.6262  0.8106 -0.4736
 6103TIP3   OH218314   1.405   0.836   2.770 -0.4328 -0.2396  0.2307
 6103TIP3    H118315   1.403   0.915   2.824 -0.9724 -0.6869  0.8895
 6103TIP3    H218316   1.468   0.778   2.814 -0.2126 -0.2652 -0.1172
 6104TIP3   OH218317   1.711   4.631   3.315  0.0279  0.0852  0.2490
 6104TIP3    H118318   1.717   4.714   3.268 -1.5089  1.7731  2.7790
 6104TIP3    H218319   1.801   4.612   3.343  1.3819 -1.9036 -4.4657
 6105TIP3   OH218320   2.617   3.998   4.454  0.0228 -0.2537 -0.2497
 6105TIP3    H118321   2.649   3.965   4.538  0.3371 -1.7564 -0.9300
 6105TIP3    H218322   2.628   4.093   4.460 -0.8456 -0.2171  1.7595
 6106TIP3   OH218323   5.941   5.912   3.652 -0.2505 -0.3090  0.4254
 6106TIP3    H118324   5.867   5.946   3.600 -0.9664 -1.3612  0.7098
 6106TIP3    H218325   6.019   5.949   3.610 -0.8738 -0.2273 -0.7085
 6107TIP3   OH218326   0.252   4.155   2.716 -0.4511 -0.2308  0.2572
 6107TIP3    H118327   0.309   4.132   2.642 -0.1451 -1.2137  0.7881
 6107TIP3    H218328   0.174   4.101   2.703  0.0209 -1.1565  1.1877
 6108TIP3   OH218329   0.667   1.922   4.552  0.3763 -0.3322  0.0189
 6108TIP3    H118330   0.681   1.895   4.461  0.9529  1.4618 -0.4658
 6108TIP3    H218331   0.715   1.858   4.603 -1.1215 -2.2169 -0.8074
 6109TIP3   OH218332   1.992   0.484   5.146  0.0726 -0.0315 -1.2338
 6109TIP3    H118333   1.933   0.443   5.083 -0.4639 -1.7953  0.3467
 6109TIP3    H218334   2.042   0.412   5.184  0.5687  0.9952  0.1589
 6110TIP3   OH218335   1.676   2.742   3.018  0.3967  0.3243 -0.0422
 6110TIP3    H118336   1.653   2.818   3.070  1.8269  0.4710  0.4253
 6110TIP3    H218337   1.631   2.755   2.934  0.5658  1.6592  0.0543
 6111TIP3   OH218338   2.930   4.900   4.785  0.1460 -1.1895 -0.1854
 6111TIP3    H118339   2.935   4.977   4.841 -1.4776 -1.1286 -0.0642
 6111TIP3    H218340   2.947   4.826   4.844  1.1065 -0.9800 -0.1823
 6112TIP3   OH218341   2.696   2.834   2.546 -0.1267  0.8465  0.0270
 6112TIP3    H118342   2.772   2.889   2.525 -0.0787  0.3585 -1.1045
 6112TIP3    H218343   2.654   2.816   2.462 -1.5835  1.1977  0.6481
 6113TIP3   OH218344   0.758   2.787   2.195 -0.0802  0.0539  0.5714
 6113TIP3    H118345   0.708   2.798   2.276 -1.3716  0.4417 -0.2391
 6113TIP3    H218346   0.705   2.830   2.128  1.2092  0.1952 -0.3999
 6114TIP3   OH218347   2.689   1.372   2.878 -0.2076  0.2206 -0.3581
 6114TIP3    H118348   2.694   1.373   2.783  0.1845  1.0582 -0.3399
 6114TIP3    H218349   2.614   1.317   2.898  0.7779 -1.4455 -1.0949
 6115TIP3   OH218350   1.741   1.064   4.613 -0.5306 -0.3479 -0.0318
 6115TIP3    H118351   1.664   1.007   4.620  0.3532 -1.6453 -0.4695
 6115TIP3    H218352   1.722   1.137   4.673 -1.2953 -1.5744  1.2900
 6116TIP3   OH218353   1.485   1.054   2.893  0.9789  0.3673 -0.4344
 6116TIP3    H118354   1.515   1.144   2.905  0.3156  0.5239  0.1708
 6116TIP3    H218355   1.564   1.001   2.897  1.2994  0.8677 -0.0902
 6117TIP3   OH218356   5.148   3.811   0.499  0.0695  0.0260 -0.0050
 6117TIP3    H118357   5.189   3.787   0.416  1.7669 -2.2656  1.3858
 6117TIP3    H218358   5.219   3.847   0.552 -0.9223  1.1991  0.5806
 6118TIP3   OH218359   5.721   0.681   4.002 -0.1310  0.4212  0.1416
 6118TIP3    H118360   5.737   0.711   4.092  0.8998  0.1431  0.0691
 6118TIP3    H218361   5.707   0.762   3.952  0.7018  0.6708  0.2983
 6119TIP3   OH218362   3.208   3.377   1.238 -0.1518  0.0665 -0.2016
 6119TIP3    H118363   3.237   3.469   1.232  0.0651 -0.0163 -0.4447
 6119TIP3    H218364   3.147   3.376   1.311 -0.2095  0.4226 -0.2414
 6120TIP3   OH218365   1.547   2.934   3.133 -0.0377 -0.3198 -0.4260
 6120TIP3    H118366   1.518   3.024   3.147  2.2263  0.4428 -0.2519
 6120TIP3    H218367   1.470   2.890   3.096 -1.2485  1.6124 -0.3758
 6121TIP3   OH218368   5.334   5.286   0.647 -0.7075  0.1877  0.1576
 6121TIP3    H118369   5.314   5.378   0.661  0.3335  0.1714  1.9985
 6121TIP3    H218370   5.250   5.246   0.626 -1.3638  1.3582  0.4769
 6122TIP3   OH218371   3.779   1.448   0.871  0.3092  0.2857 -0.3315
 6122TIP3    H118372   3.753   1.539   0.881  0.0872  0.0590  1.3843
 6122TIP3    H218373   3.774   1.411   0.959 -0.9495 -1.7588 -1.1759
 6123TIP3   OH218374   2.191   1.687   4.171  0.2859 -0.0096 -0.6270
 6123TIP3    H118375   2.119   1.625   4.166  0.4856 -0.6736  2.4910
 6123TIP3    H218376   2.270   1.633   4.168  0.5583  0.4062 -1.0094
 6124TIP3   OH218377   1.804   1.805   2.950 -0.4399 -0.0022  0.0977
 6124TIP3    H118378   1.827   1.871   2.885 -1.3074  1.4138  1.1577
 6124TIP3    H218379   1.732   1.845   2.999 -0.9391 -1.7267  0.8253
 6125TIP3   OH218380   1.429   5.293   3.372 -0.1089  0.4530  0.0160
 6125TIP3    H118381   1.392   5.313   3.286  0.7451 -0.9766 -0.7280
 6125TIP3    H218382   1.523   5.292   3.358  0.0100 -0.5615  0.7697
 6126TIP3   OH218383   1.136   3.380   1.256 -0.3475 -0.2075 -0.1443
 6126TIP3    H118384   1.154   3.405   1.346  0.7743 -1.0706 -0.1170
 6126TIP3    H218385   1.194   3.437   1.204 -0.3828 -0.2877 -0.2711
 6127TIP3   OH218386   0.413   4.988   1.154 -0.6468  0.9216  0.0234
 6127TIP3    H118387   0.323   4.958   1.168 -0.8129  1.8506  1.1152
 6127TIP3    H218388   0.461   4.957   1.231 -0.0430  0.5325 -0.4941
 6128TIP3   OH218389   6.144   5.788   5.124  0.2249  0.2817 -0.1278
 6128TIP3    H118390   6.175   5.853   5.061 -3.0477  2.3188  0.1303
 6128TIP3    H218391   6.049   5.802   5.127 -0.3455 -3.1292  1.5769
 6129TIP3   OH218392   2.353   1.988   4.686  0.0420  0.2910  0.1513
 6129TIP3    H118393   2.274   2.000   4.633  0.3045  1.5291  0.0097
 6129TIP3    H218394   2.331   2.025   4.771 -0.3862 -1.7204  0.9846
 6130TIP3   OH218395   6.305   3.069   0.131  0.6442  0.3189  0.3555
 6130TIP3    H118396   6.373   3.127   0.096  0.3827 -0.6512 -1.9798
 6130TIP3    H218397   6.256   3.041   0.054 -0.8795 -0.9330  1.7061
 6131TIP3   OH218398   6.176   2.887   5.091 -0.2371 -0.3803 -0.1169
 6131TIP3    H118399   6.222   2.969   5.109  0.8542 -1.2762  1.4285
 6131TIP3    H218400   6.092   2.915   5.054  1.1816  1.3278 -2.3047
 6132TIP3   OH218401   0.610   1.763   0.041  0.1160  0.0839  0.2703
 6132TIP3    H118402   0.595   1.680   0.086  1.4927  0.5466  1.6503
 6132TIP3    H218403   0.703   1.764   0.020  0.0712  1.1629  0.0336
 6133TIP3   OH218404   2.490   3.199   2.528  0.5379 -0.1062  0.0232
 6133TIP3    H118405   2.461   3.109   2.512  0.1086 -0.0140  0.2772
 6133TIP3    H218406   2.585   3.191   2.541  0.4038 -0.6247  0.7764
 6134TIP3   OH218407   5.854   2.201   0.565 -0.0773 -0.0564  0.4266
 6134TIP3    H118408   5.778   2.256   0.581  0.3370  0.6109  0.1554
 6134TIP3    H218409   5.925   2.243   0.615 -0.0864 -1.1948  1.4475
 6135TIP3   OH218410   3.012   2.295   4.555  0.0207  0.0051 -0.7633
 6135TIP3    H118411   3.073   2.233   4.516 -0.9895 -1.1194 -0.6143
 6135TIP3    H218412   2.954   2.320   4.483  0.0018  0.2475 -0.6644
 6136TIP3   OH218413   1.709   0.604   0.596  0.2988 -0.2460  0.6234
 6136TIP3    H118414   1.802   0.587   0.580  0.0024 -1.4934  0.0638
 6136TIP3    H218415   1.667   0.593   0.510 -0.5830 -1.4298  1.1712
 6137TIP3   OH218416   5.995   1.956   4.576 -1.0766  1.2550 -0.3954
 6137TIP3    H118417   5.925   1.896   4.603  0.1332  0.8212  2.1067
 6137TIP3    H218418   6.062   1.900   4.537 -2.1824  1.7139 -3.1467
 6138TIP3   OH218419   3.313   3.501   3.764 -0.0496  0.0289 -0.1129
 6138TIP3    H118420   3.376   3.554   3.715 -1.2445  2.0160  0.3647
 6138TIP3    H218421   3.241   3.561   3.783 -1.2062 -1.6269  1.0609
 6139TIP3   OH218422   1.356   4.446   0.266 -0.5534  0.4656 -0.1122
 6139TIP3    H118423   1.346   4.498   0.346 -0.5840 -0.8272  0.7558
 6139TIP3    H218424   1.337   4.356   0.293  0.4878 -0.1634 -1.3461
 6140TIP3   OH218425   2.381   0.599   0.514  0.3059 -0.0224  0.2905
 6140TIP3    H118426   2.317   0.554   0.570  0.5287 -0.1648  0.4320
 6140TIP3    H218427   2.441   0.640   0.576  1.3746 -1.3398  0.1667
 6141TIP3   OH218428   3.088   3.587   3.896 -0.7869  0.7283 -0.1041
 6141TIP3    H118429   3.057   3.664   3.943  0.0547  1.3972 -0.6272
 6141TIP3    H218430   3.108   3.524   3.965  0.4316  1.6938  0.4582
 6142TIP3   OH218431   2.111   5.291   1.565  0.4433  0.5568 -0.1804
 6142TIP3    H118432   2.146   5.360   1.508 -1.1644  0.7577 -0.9821
 6142TIP3    H218433   2.020   5.316   1.579  0.0071 -1.0545  0.0715
 6143TIP3   OH218434   5.415   2.947   2.639  0.3899  0.6693 -0.0451
 6143TIP3    H118435   5.428   2.867   2.689 -0.7380  0.7260  0.3634
 6143TIP3    H218436   5.456   3.015   2.693 -0.1337  0.6095  0.4463
 6144TIP3   OH218437   3.218   4.594   5.039 -0.6771  0.1478 -0.7379
 6144TIP3    H118438   3.145   4.601   4.978 -0.7010 -0.3933 -0.7786
 6144TIP3    H218439   3.294   4.620   4.988 -0.6529 -0.5938 -1.0929
 6145TIP3   OH218440   6.191   5.472   2.771  0.0540 -0.0173  0.1618
 6145TIP3    H118441   6.228   5.408   2.711  0.0661  0.4272 -0.3158
 6145TIP3    H218442   6.149   5.536   2.714 -1.5301 -0.5482  0.6918
 6146TIP3   OH218443   4.807   1.203   3.015  0.1173  0.0952 -0.2948
 6146TIP3    H118444   4.805   1.132   3.080 -2.0251 -0.1293 -0.5227
 6146TIP3    H218445   4.814   1.158   2.931 -0.4391  0.1696 -0.3891
 6147TIP3   OH218446   2.880   1.340   0.192  0.0553 -0.2779 -0.2208
 6147TIP3    H118447   2.871   1.435   0.181 -1.6828 -0.4684 -0.8611
 6147TIP3    H218448   2.852   1.324   0.283  2.6361  0.0227  0.6998
 6148TIP3   OH218449   4.266   3.577   0.739 -0.6267 -0.1376 -0.2001
 6148TIP3    H118450   4.329   3.537   0.798 -0.0702  0.6991 -0.2158
 6148TIP3    H218451   4.299   3.555   0.651 -0.3599  0.2822 -0.2080
 6149TIP3   OH218452   1.960   1.545   1.760  0.7874 -0.0236  0.7273
 6149TIP3    H118453   2.053   1.548   1.736  0.3440 -0.7597 -1.3213
 6149TIP3    H218454   1.915   1.577   1.682 -0.6362  2.5881  2.4849
 6150TIP3   OH218455   0.161   0.735   0.561 -0.1317  0.0279 -0.1339
 6150TIP3    H118456   0.132   0.728   0.470 -1.8514  0.6019  0.3277
 6150TIP3    H218457   0.174   0.829   0.574  1.7969 -0.1973 -0.2501
 6151TIP3   OH218458   5.806   5.666   3.740 -0.2475  0.4080 -0.5710
 6151TIP3    H118459   5.728   5.690   3.789  0.7439  2.0468  0.3045
 6151TIP3    H218460   5.847   5.750   3.718  0.9679 -0.3920 -1.5185
 6152TIP3   OH218461   3.517   5.853   0.879 -0.1055 -0.0635 -0.0655
 6152TIP3    H118462   3.559   5.772   0.848 -0.3139 -0.1528 -0.1163
 6152TIP3    H218463   3.590   5.913   0.895  0.0068  0.0037 -0.7833
 6153TIP3   OH218464   4.529   4.914   2.866  0.1139 -0.4091 -0.0107
 6153TIP3    H118465   4.530   4.986   2.803  2.1627 -0.7129 -0.4091
 6153TIP3    H218466   4.453   4.931   2.921  0.1705  1.7032 -0.5018
 6154TIP3   OH218467   1.380   0.827   1.467 -0.0842 -0.2091 -0.2788
 6154TIP3    H118468   1.412   0.912   1.438 -0.0747 -0.6828 -1.7304
 6154TIP3    H218469   1.344   0.843   1.554  1.6968  0.8758  0.3034
 6155TIP3   OH218470   0.243   4.416   4.296 -0.2999  0.1186 -0.1892
 6155TIP3    H118471   0.266   4.491   4.351 -1.3858  1.1633 -1.0883
 6155TIP3    H218472   0.154   4.435   4.266 -0.3590 -1.2319 -0.9549
 6156TIP3   OH218473   5.614   4.009   0.964  0.8250 -0.2842  0.0546
 6156TIP3    H118474   5.702   3.982   0.938  0.7713 -0.7497  0.3376
 6156TIP3    H218475   5.567   4.021   0.882  1.3301  0.5921 -0.1152
 6157TIP3   OH218476   3.375   5.580   4.867  0.2786 -0.2185  0.1409
 6157TIP3    H118477   3.366   5.492   4.830 -0.3045  0.5787 -1.7557
 6157TIP3    H218478   3.362   5.639   4.792 -0.7167  1.5191  1.5995
 6158TIP3   OH218479   3.571   5.662   3.412 -0.4434 -0.1722 -0.4498
 6158TIP3    H118480   3.560   5.742   3.362 -0.1347  0.2364  0.1174
 6158TIP3    H218481   3.489   5.653   3.460  0.4860  1.3244  1.5918
 6159TIP3   OH218482   4.053   0.917   2.606 -0.0131 -0.3832 -0.7875
 6159TIP3    H118483   4.042   1.007   2.573  0.1411 -0.2719 -0.5340
 6159TIP3    H218484   4.106   0.874   2.538 -0.5543 -0.4405 -1.1788
 6160TIP3   OH218485   1.713   2.560   0.887  0.0578  0.0322 -0.5381
 6160TIP3    H118486   1.689   2.625   0.954 -0.9310  0.3576 -1.1862
 6160TIP3    H218487   1.650   2.575   0.816 -0.3810 -1.8387 -0.5868
 6161TIP3   OH218488   2.701   4.010   1.063  0.2594  0.2643  0.0633
 6161TIP3    H118489   2.627   4.022   1.004  0.5131  3.4941  0.2300
 6161TIP3    H218490   2.662   3.997   1.149 -0.1182  0.0619 -0.1390
 6162TIP3   OH218491   6.271   5.942   0.311 -0.3121 -0.1712 -0.0351
 6162TIP3    H118492   6.294   5.888   0.235  0.1976 -0.3688  0.2529
 6162TIP3    H218493   6.336   6.012   0.312 -0.0118 -0.4511  0.5027
 6163TIP3   OH218494   1.825   1.417   1.355  0.5003 -0.0389 -0.5347
 6163TIP3    H118495   1.792   1.406   1.266  1.1465  1.4079 -0.9846
 6163TIP3    H218496   1.886   1.344   1.367  1.4407  0.4940 -1.8009
 6164TIP3   OH218497   3.838   0.940   1.343  0.6305 -0.3644 -0.3966
 6164TIP3    H118498   3.768   0.897   1.392  1.0782  0.0501  0.6388
 6164TIP3    H218499   3.795   0.972   1.263 -0.1482 -0.9087 -0.2144
 6165TIP3   OH218500   0.671   3.459   0.697  0.3075  0.1768 -0.1982
 6165TIP3    H118501   0.601   3.395   0.685 -0.7611  1.3985 -0.7189
 6165TIP3    H218502   0.697   3.450   0.789 -0.9095  0.0685  0.1513
 6166TIP3   OH218503   4.264   1.807   3.320 -0.0649 -0.3473  0.2121
 6166TIP3    H118504   4.234   1.840   3.405  1.0127 -1.1254  0.9180
 6166TIP3    H218505   4.204   1.845   3.257 -1.4496 -0.4809  1.4101
 6167TIP3   OH218506   5.629   1.095   0.990  0.1484  0.4393 -0.1000
 6167TIP3    H118507   5.631   1.186   1.022 -1.4566  0.0774  1.2096
 6167TIP3    H218508   5.541   1.064   1.014  0.8212 -1.6084 -0.1265
 6168TIP3   OH218509   4.658   1.280   0.924  0.3594 -0.1610  0.9382
 6168TIP3    H118510   4.579   1.262   0.872  0.6200  0.9536  0.1024
 6168TIP3    H218511   4.625   1.317   1.006  0.0077  0.2829  0.6012
 6169TIP3   OH218512   1.155   3.934   0.024  0.6153  0.1808 -0.0575
 6169TIP3    H118513   1.158   3.976   0.110 -0.7637  0.9590 -0.3476
 6169TIP3    H218514   1.109   3.852   0.039  1.7419 -0.4200  0.1994
 6170TIP3   OH218515   2.962   4.586   4.885  0.1266  0.2273  0.3313
 6170TIP3    H118516   2.938   4.595   4.793 -1.2104  2.7881  0.8260
 6170TIP3    H218517   2.882   4.609   4.933  0.2088 -2.8691  2.2200
 6171TIP3   OH218518   0.919   0.747   1.296 -0.0368 -0.1217 -0.1634
 6171TIP3    H118519   0.929   0.782   1.384 -0.2412 -0.4104 -0.0248
 6171TIP3    H218520   0.831   0.710   1.295 -0.1175  0.0752 -0.5553
 6172TIP3   OH218521   0.064   3.350   4.236  0.3197 -0.1164 -0.1781
 6172TIP3    H118522   0.119   3.320   4.309  0.6438  1.9312  0.4990
 6172TIP3    H218523   0.118   3.414   4.191  0.0054 -1.1318 -2.1028
 6173TIP3   OH218524   1.208   1.261   1.383  0.2550 -0.1888  0.1810
 6173TIP3    H118525   1.153   1.183   1.378 -0.0437  0.1047 -2.3397
 6173TIP3    H218526   1.294   1.232   1.352  0.0398  0.5298 -1.1408
 6174TIP3   OH218527   1.932   5.816   5.008  0.2253 -0.1140  0.1859
 6174TIP3    H118528   1.934   5.740   4.951  0.7328  0.8157 -1.0824
 6174TIP3    H218529   1.859   5.868   4.977  0.9125  0.7284 -0.0689
 6175TIP3   OH218530   4.171   5.413   3.354  0.3450 -1.1091  0.0365
 6175TIP3    H118531   4.144   5.480   3.290  0.0945 -1.1172  0.1324
 6175TIP3    H218532   4.089   5.387   3.397  0.4932 -1.2096  0.2578
 6176TIP3   OH218533   3.115   4.493   3.885  0.1780  0.2057  0.6548
 6176TIP3    H118534   3.039   4.488   3.943 -0.0152  2.0256  0.6098
 6176TIP3    H218535   3.134   4.401   3.863 -2.3091 -0.2898  0.2633
 6177TIP3   OH218536   0.716   5.366   1.773 -0.0940  0.3632  0.5553
 6177TIP3    H118537   0.805   5.345   1.745  0.6410  1.5500  1.8692
 6177TIP3    H218538   0.718   5.355   1.869 -1.7779 -1.0119  0.4835
 6178TIP3   OH218539   3.522   2.299   5.139  0.3558  0.1015  0.3764
 6178TIP3    H118540   3.503   2.305   5.233 -2.7471  1.9899 -0.2287
 6178TIP3    H218541   3.562   2.384   5.118  0.4681 -0.0671 -0.0898
 6179TIP3   OH218542   3.368   4.693   4.123 -0.2079  0.3587 -0.5353
 6179TIP3    H118543   3.384   4.690   4.029 -0.1975  2.0228 -0.6155
 6179TIP3    H218544   3.332   4.780   4.139  0.5022  0.3907  1.1155
 6180TIP3   OH218545   3.166   4.591   2.995  0.9005  0.1299  0.9407
 6180TIP3    H118546   3.092   4.642   2.963 -0.3459 -1.3639  1.3261
 6180TIP3    H218547   3.231   4.596   2.924  0.6958  1.9081  0.8320
 6181TIP3   OH218548   6.248   0.661   4.174  0.7929  0.2933 -0.0837
 6181TIP3    H118549   6.168   0.680   4.124 -0.1309 -0.4569  1.0740
 6181TIP3    H218550   6.282   0.581   4.134  0.5497  0.1941 -0.0975
 6182TIP3   OH218551   0.745   2.106   3.652  0.1461  0.3289  0.1810
 6182TIP3    H118552   0.835   2.132   3.629  0.7669 -2.4419 -0.8621
 6182TIP3    H218553   0.739   2.014   3.626 -2.2973 -0.2394  2.3921
 6183TIP3   OH218554   0.314   4.818   4.653 -0.1749  0.4848  0.4702
 6183TIP3    H118555   0.349   4.869   4.726 -1.2947  1.5638  0.2821
 6183TIP3    H218556   0.254   4.877   4.609 -0.9258 -0.7529 -0.2247
 6184TIP3   OH218557   1.430   0.020   3.609 -0.3046 -0.0676  0.0683
 6184TIP3    H118558   1.405  -0.069   3.582  2.1277 -1.2208  1.3240
 6184TIP3    H218559   1.403   0.075   3.536  0.5616 -2.2234 -2.0263
 6185TIP3   OH218560   4.070   1.487   0.070 -0.1680  0.3781  0.8194
 6185TIP3    H118561   4.066   1.393   0.054  0.0769  0.5124 -0.0874
 6185TIP3    H218562   4.040   1.527  -0.012  1.7233  1.1192  0.4387
 6186TIP3   OH218563   0.019   0.497   0.578  0.1877 -0.7890  0.3188
 6186TIP3    H118564  -0.044   0.547   0.526  0.5670 -0.7746 -0.1434
 6186TIP3    H218565   0.091   0.558   0.592  0.5460 -1.1199 -0.0383
 6187TIP3   OH218566   3.392   5.185   0.871 -0.2273  0.0383  0.1617
 6187TIP3    H118567   3.311   5.193   0.821 -0.3513  0.1687  0.3811
 6187TIP3    H218568   3.450   5.134   0.815 -0.8529 -1.0559  0.4823
 6188TIP3   OH218569   1.987   0.406   0.865  0.2934  0.4930 -0.0773
 6188TIP3    H118570   2.065   0.456   0.890  1.1730 -0.8992  0.0856
 6188TIP3    H218571   2.015   0.315   0.869 -1.4063 -0.0573  0.1547
 6189TIP3   OH218572   0.479   5.969   0.350  0.7525  0.7404  0.2198
 6189TIP3    H118573   0.444   5.902   0.409  1.7253  0.5028  0.5484
 6189TIP3    H218574   0.475   6.050   0.401 -0.9809  1.0792 -0.3867
 6190TIP3   OH218575   1.577   2.771   3.362  0.4827  0.1455 -0.2173
 6190TIP3    H118576   1.642   2.774   3.433 -0.4337 -2.0994  0.8192
 6190TIP3    H218577   1.619   2.815   3.289  2.8626 -0.4922  0.6797
 6191TIP3   OH218578   1.902   4.806   4.463  0.0768  0.0716 -0.0321
 6191TIP3    H118579   1.858   4.746   4.523 -0.5453  1.2237  0.6980
 6191TIP3    H218580   1.995   4.796   4.483 -0.1035  0.2409  0.9454
 6192TIP3   OH218581   2.048   3.777   3.491 -0.1967 -0.0631  0.0446
 6192TIP3    H118582   2.062   3.698   3.544 -1.0638 -0.4008 -0.2051
 6192TIP3    H218583   2.116   3.772   3.423  0.1808 -0.2408  0.4330
 6193TIP3   OH218584   6.124   5.944   2.133 -0.9775 -0.2788  0.2689
 6193TIP3    H118585   6.153   5.988   2.054 -1.1591 -0.4374  0.1133
 6193TIP3    H218586   6.163   5.856   2.127  1.5747  0.6137  1.8165
 6194TIP3   OH218587   4.383   5.575   0.173 -0.5574  0.2535 -0.2038
 6194TIP3    H118588   4.368   5.668   0.154  1.2772  0.2303 -2.0913
 6194TIP3    H218589   4.416   5.574   0.262 -1.6455  1.2616  0.2461
 6195TIP3   OH218590   5.797   0.298   4.871 -0.2081 -0.3012  0.1496
 6195TIP3    H118591   5.784   0.392   4.859  0.8415 -0.0046  1.1682
 6195TIP3    H218592   5.765   0.259   4.789 -0.5535  0.9389 -0.3326
 6196TIP3   OH218593   5.326   0.000   4.561  0.1229 -0.5656 -0.9155
 6196TIP3    H118594   5.396  -0.055   4.527  0.9464  0.5698 -1.1084
 6196TIP3    H218595   5.370   0.062   4.619 -0.7790 -0.1072 -0.7040
 6197TIP3   OH218596   3.947   3.434   1.256 -0.3854  0.3090  0.0925
 6197TIP3    H118597   3.883   3.456   1.188  0.7069 -2.1058 -1.8841
 6197TIP3    H218598   3.946   3.338   1.261  1.7762  0.2720  1.2859
 6198TIP3   OH218599   2.399   0.329   3.779 -0.3158 -0.2237  0.8441
 6198TIP3    H118600   2.480   0.348   3.827 -0.0926 -1.9028  1.1857
 6198TIP3    H218601   2.419   0.355   3.689  0.5127 -0.3506  0.9755
 6199TIP3   OH218602   1.369   4.462   3.081 -0.1603  0.4490  0.3411
 6199TIP3    H118603   1.448   4.445   3.132 -1.2785 -1.0098  1.6778
 6199TIP3    H218604   1.378   4.406   3.004  0.1127  0.2966  0.4829
 6200TIP3   OH218605   1.053   2.199   4.526  0.3275  0.2030  0.0706
 6200TIP3    H118606   0.999   2.274   4.498  2.5946  2.1986  0.6732
 6200TIP3    H218607   1.097   2.171   4.446 -1.2510 -1.2010 -0.3526
 6201TIP3   OH218608   1.871   3.846   0.891  0.4860  0.1514 -0.0206
 6201TIP3    H118609   1.906   3.847   0.802  0.2618  0.8657 -0.1040
 6201TIP3    H218610   1.779   3.868   0.881  0.0629 -1.4199  0.2349
 6202TIP3   OH218611   4.089   3.942   5.030  0.5822 -0.2015 -0.4567
 6202TIP3    H118612   4.036   3.940   5.109 -0.9356  0.3807 -1.4239
 6202TIP3    H218613   4.093   3.851   5.001 -0.0649 -0.2265 -0.4781
 6203TIP3   OH218614   3.884   3.101   3.172 -0.7035 -0.6031  0.4206
 6203TIP3    H118615   3.947   3.161   3.214 -1.0576 -1.0846  1.6721
 6203TIP3    H218616   3.849   3.049   3.244 -0.6713 -2.0885 -0.5903
 6204TIP3   OH218617   2.739   3.792   0.547 -0.1166 -0.5789  0.7239
 6204TIP3    H118618   2.806   3.845   0.590 -0.9637  2.1715 -1.1044
 6204TIP3    H218619   2.777   3.767   0.463 -1.9528  3.0070 -1.4075
 6205TIP3   OH218620   3.259   0.950   4.825 -0.4108  0.3519 -0.9549
 6205TIP3    H118621   3.348   0.915   4.820 -0.0064  0.9194  1.0887
 6205TIP3    H218622   3.204   0.873   4.842  0.2795  0.3654  1.9542
 6206TIP3   OH218623   6.055   1.025   2.479 -0.5743  0.3107 -0.8351
 6206TIP3    H118624   6.024   1.114   2.494  0.8632  0.5783  0.8319
 6206TIP3    H218625   5.989   0.986   2.420 -2.0645  1.9490 -0.3343
 6207TIP3   OH218626   6.182   3.697   2.237 -0.1977  0.3609 -0.6224
 6207TIP3    H118627   6.177   3.601   2.237  2.6030  0.0848  1.3541
 6207TIP3    H218628   6.189   3.720   2.144 -0.2873 -1.3874 -1.1132
 6208TIP3   OH218629   4.318   3.563   2.963 -0.4657  0.0364  0.0296
 6208TIP3    H118630   4.228   3.552   2.995 -0.3858 -2.5650 -0.4072
 6208TIP3    H218631   4.372   3.515   3.026  0.4413  0.2966 -0.5236
 6209TIP3   OH218632   6.323   3.712   4.508  0.5578  0.0581  0.2726
 6209TIP3    H118633   6.411   3.748   4.506  0.5868  0.0123 -1.5818
 6209TIP3    H218634   6.271   3.770   4.453 -0.5105 -0.0987  1.0644
 6210TIP3   OH218635   2.160   0.834   2.565  0.4390 -0.1587 -0.1658
 6210TIP3    H118636   2.104   0.808   2.639  0.6632  0.4400  0.2256
 6210TIP3    H218637   2.248   0.815   2.595  0.6341  1.2460  0.2378
 6211TIP3   OH218638   3.422   3.724   3.640  0.1942  0.4698 -0.2417
 6211TIP3    H118639   3.329   3.735   3.622 -0.4483  0.5210  2.5834
 6211TIP3    H218640   3.446   3.803   3.688  1.8979  0.7372 -1.4373
 6212TIP3   OH218641   0.765   3.602   1.887 -0.0422  0.1488 -0.2904
 6212TIP3    H118642   0.695   3.582   1.825 -0.9678  0.5854  0.5743
 6212TIP3    H218643   0.719   3.623   1.969  0.8969  3.4631 -0.4817
 6213TIP3   OH218644   0.609   1.161   0.327  0.5405  0.0353  0.2334
 6213TIP3    H118645   0.640   1.070   0.324 -0.8488 -0.4318 -1.2158
 6213TIP3    H218646   0.646   1.201   0.249  0.5060  0.5235  0.4625
 6214TIP3   OH218647   1.067   1.417   1.192 -0.1686  0.0586 -0.0105
 6214TIP3    H118648   1.078   1.363   1.270  0.4118  0.0860 -0.0648
 6214TIP3    H218649   1.056   1.354   1.121  0.3605  0.0112 -0.0531
 6215TIP3   OH218650   3.254   1.410   2.997  0.2501 -0.0239  0.6568
 6215TIP3    H118651   3.308   1.352   3.052  1.8002  0.6346 -0.1160
 6215TIP3    H218652   3.170   1.414   3.043 -0.0902 -3.1870  0.5542
 6216TIP3   OH218653   0.081   3.825   4.987 -0.0664  0.6302 -0.4793
 6216TIP3    H118654   0.064   3.888   5.057 -0.3730  0.8618 -0.7566
 6216TIP3    H218655   0.098   3.879   4.910  0.2055  0.3762 -0.5995
 6217TIP3   OH218656   3.791   3.800   3.485  1.0116 -0.2247 -0.4770
 6217TIP3    H118657   3.726   3.849   3.434  1.8817 -0.2804 -1.6724
 6217TIP3    H218658   3.869   3.854   3.483  1.0725 -0.2316  0.8300
 6218TIP3   OH218659   3.515   2.781   4.707  0.6649  0.2353  0.1222
 6218TIP3    H118660   3.600   2.802   4.746  0.0477 -1.2563  2.4145
 6218TIP3    H218661   3.480   2.711   4.762 -1.8905  0.5321 -1.0207
 6219TIP3   OH218662   5.396   2.713   2.278 -0.0858 -0.3238 -0.6489
 6219TIP3    H118663   5.489   2.706   2.301 -0.0072  1.7229 -0.0685
 6219TIP3    H218664   5.392   2.691   2.185  0.9778 -0.4683 -0.6667
 6220TIP3   OH218665   3.803   4.206   2.747  0.0360 -0.0589 -0.0239
 6220TIP3    H118666   3.722   4.232   2.704  0.3243 -0.5136 -0.8810
 6220TIP3    H218667   3.872   4.244   2.692  0.4012  0.3236  0.6912
 6221TIP3   OH218668   0.052   0.473   2.333 -0.7468  0.2766 -0.2544
 6221TIP3    H118669   0.127   0.424   2.300 -0.6724  0.0764  0.2012
 6221TIP3    H218670  -0.006   0.406   2.369 -1.4490  0.3655 -1.1669
 6222TIP3   OH218671   1.863   5.355   2.728 -0.4527 -0.8591 -0.0417
 6222TIP3    H118672   1.820   5.440   2.731  0.0096 -0.6482  1.0261
 6222TIP3    H218673   1.851   5.319   2.816 -0.9169 -2.0439 -0.5699
 6223TIP3   OH218674   2.352   4.970   0.173  0.1542  0.1228 -0.2820
 6223TIP3    H118675   2.263   5.005   0.173  0.3635  0.6837  0.5783
 6223TIP3    H218676   2.340   4.875   0.170 -0.4303  0.1939 -2.3071
 6224TIP3   OH218677   4.845   0.120   2.318  0.0001 -0.2105  0.1534
 6224TIP3    H118678   4.901   0.197   2.328  0.2849 -0.4061  0.0816
 6224TIP3    H218679   4.907   0.047   2.313 -0.2906 -0.4984  0.7612
 6225TIP3   OH218680   0.942   3.207   4.742 -0.2894 -0.2541 -0.1893
 6225TIP3    H118681   0.915   3.285   4.694  0.9233 -0.5824 -1.4969
 6225TIP3    H218682   0.879   3.199   4.814 -1.0857  1.2881 -0.6787
 6226TIP3   OH218683   5.633   4.810   1.978 -0.4598 -0.5807 -0.2292
 6226TIP3    H118684   5.675   4.881   2.027 -1.9661  1.6850 -2.0180
 6226TIP3    H218685   5.705   4.765   1.935  0.4818  0.5104  0.1469
 6227TIP3   OH218686   4.190   5.628   1.283 -0.5844 -0.1219  0.2729
 6227TIP3    H118687   4.105   5.592   1.310 -1.1265  0.4036 -0.7024
 6227TIP3    H218688   4.182   5.642   1.189  1.1552 -1.6257 -0.1649
 6228TIP3   OH218689   0.951   0.565   2.211  0.1967 -0.4723  0.2960
 6228TIP3    H118690   0.938   0.512   2.290  2.5559 -0.2062  0.9489
 6228TIP3    H218691   0.999   0.642   2.242 -0.0868  0.3448 -1.2013
 6229TIP3   OH218692   6.215   3.769   1.156 -0.0243  0.1241 -0.4226
 6229TIP3    H118693   6.142   3.770   1.218  1.2057 -0.5655  1.1224
 6229TIP3    H218694   6.261   3.852   1.171 -0.3262  0.4427 -1.2037
 6230TIP3   OH218695   2.365   4.169   2.566  0.4569 -0.1036 -0.3735
 6230TIP3    H118696   2.394   4.140   2.479 -0.1263  2.1806 -1.4051
 6230TIP3    H218697   2.392   4.261   2.570 -0.1246  0.0149  1.6238
 6231TIP3   OH218698   2.189   4.797   4.514 -0.3449  0.4155  0.5022
 6231TIP3    H118699   2.176   4.891   4.499  3.5005  1.1610  0.6253
 6231TIP3    H218700   2.249   4.771   4.444  0.2957 -1.4440  1.6932
 6232TIP3   OH218701   4.066   0.338   1.087 -0.2432  0.3704 -0.0420
 6232TIP3    H118702   4.143   0.342   1.029  0.0755  0.5484  0.3872
 6232TIP3    H218703   4.052   0.244   1.102 -0.2586  0.3270 -0.3091
 6233TIP3   OH218704   2.538   1.787   2.742  0.2453 -0.1673 -0.8374
 6233TIP3    H118705   2.572   1.803   2.654 -1.7089  0.8013 -1.4759
 6233TIP3    H218706   2.490   1.866   2.764 -0.9292 -1.1460  0.3028
 6234TIP3   OH218707   4.902   4.243   5.142  0.0270 -0.7346 -0.1953
 6234TIP3    H118708   4.933   4.245   5.232 -1.3621 -0.6696  0.3152
 6234TIP3    H218709   4.808   4.227   5.150 -0.5993  1.8278 -1.5333
 6235TIP3   OH218710   2.710   0.610   4.070  0.3580  0.2028  0.2858
 6235TIP3    H118711   2.776   0.585   4.005  0.4895 -1.6811  1.0495
 6235TIP3    H218712   2.761   0.651   4.140  0.8207 -1.4154  0.9581
 6236TIP3   OH218713   4.006   2.098   4.119 -0.3169 -0.4135  0.3461
 6236TIP3    H118714   3.932   2.091   4.179 -1.4458  0.6592 -0.8559
 6236TIP3    H218715   3.999   2.021   4.063  1.5644 -2.1859  2.3790
 6237TIP3   OH218716   5.325   4.674   3.811 -0.1272  0.7810  0.3615
 6237TIP3    H118717   5.319   4.747   3.749  2.5790  1.1268  0.3921
 6237TIP3    H218718   5.396   4.620   3.777  0.7747  0.4565  2.6058
 6238TIP3   OH218719   5.628   4.017   4.993 -0.5133 -0.0028  0.0433
 6238TIP3    H118720   5.664   4.066   5.068  0.2755 -0.5175  0.0083
 6238TIP3    H218721   5.673   4.054   4.917 -0.9423  0.1684 -0.1293
 6239TIP3   OH218722   0.941   3.231   2.560  0.2706 -0.1176  0.1561
 6239TIP3    H118723   1.001   3.165   2.524 -0.2359 -1.2710  1.3302
 6239TIP3    H218724   0.988   3.313   2.552  1.3510 -0.7657 -0.4076
 6240TIP3   OH218725   2.119   0.756   4.759  0.0118 -0.2993 -0.2971
 6240TIP3    H118726   2.176   0.746   4.683 -0.0633 -0.4589 -0.3322
 6240TIP3    H218727   2.151   0.691   4.821  0.3135  0.0853 -0.0454
 6241TIP3   OH218728   0.771   5.874   3.513 -0.0092 -0.3730 -0.3929
 6241TIP3    H118729   0.801   5.908   3.597 -0.1954 -1.3674  0.0927
 6241TIP3    H218730   0.686   5.914   3.499  0.6030  0.8403 -0.7682
 6242TIP3   OH218731   1.077   3.419   3.220  0.0341  0.5731 -0.1875
 6242TIP3    H118732   1.021   3.343   3.207  2.5494 -1.4391 -0.1140
 6242TIP3    H218733   1.113   3.408   3.308 -0.3624  2.4858  0.2697
 6243TIP3   OH218734   5.878   2.743   3.555 -0.6453 -0.3841 -0.0932
 6243TIP3    H118735   5.826   2.771   3.630 -0.3468  0.4176 -0.1720
 6243TIP3    H218736   5.838   2.661   3.526 -0.5817 -0.8579  1.1171
 6244TIP3   OH218737   1.144   2.854   2.269  0.1725  0.5486  0.8384
 6244TIP3    H118738   1.219   2.799   2.290  0.4131  0.8572  0.7900
 6244TIP3    H218739   1.123   2.898   2.351  0.6313  1.1707  0.6282
 6245TIP3   OH218740   2.458   4.403   2.522 -0.1821 -0.1113 -0.1919
 6245TIP3    H118741   2.524   4.423   2.588 -1.2168  1.6204  0.3813
 6245TIP3    H218742   2.480   4.459   2.448 -0.6883  0.1046 -0.1886
 6246TIP3   OH218743   3.140   2.865   0.910  0.1600 -0.0419 -0.6228
 6246TIP3    H118744   3.165   2.859   1.003  1.9062  0.2623 -1.0345
 6246TIP3    H218745   3.218   2.835   0.863 -0.6862 -0.1246 -2.0038
 6247TIP3   OH218746   4.815   0.691   2.952 -0.1251  0.2285 -0.3477
 6247TIP3    H118747   4.765   0.615   2.921 -0.0045  0.6789 -1.7222
 6247TIP3    H218748   4.901   0.681   2.912  1.0595 -0.6624  2.1746
 6248TIP3   OH218749   1.225   0.668   4.332 -0.0607  0.6554 -0.5207
 6248TIP3    H118750   1.229   0.738   4.398 -1.2995  2.0996 -1.8920
 6248TIP3    H218751   1.263   0.707   4.253  0.3590 -0.6584 -0.9873
 6249TIP3   OH218752   4.651   0.105   2.686 -0.0797  0.1369 -0.7088
 6249TIP3    H118753   4.729   0.157   2.705  2.2940 -2.7714 -1.7076
 6249TIP3    H218754   4.638   0.114   2.592  0.0907 -0.6189 -0.8189
 6250TIP3   OH218755   0.025   0.509   1.223 -0.1448 -0.1686  0.3626
 6250TIP3    H118756  -0.048   0.463   1.182 -0.4767  0.7331 -0.0616
 6250TIP3    H218757   0.103   0.468   1.185 -0.4420 -0.0561 -0.3837
 6251TIP3   OH218758   5.387   4.624   1.483 -0.0695 -0.5334  0.5290
 6251TIP3    H118759   5.473   4.631   1.442 -0.0114 -1.9838  0.3246
 6251TIP3    H218760   5.401   4.653   1.573  0.1108  1.3730 -0.0719
 6252TIP3   OH218761   5.385   4.410   3.274 -0.7892  0.2984  0.0985
 6252TIP3    H118762   5.352   4.331   3.231 -0.7435 -0.8222  1.9990
 6252TIP3    H218763   5.352   4.403   3.364  0.3467  1.7789  0.6632
 6253TIP3   OH218764   0.130   5.284   0.863  0.3365 -0.4504 -0.1997
 6253TIP3    H118765   0.148   5.309   0.772 -0.0962 -0.2472 -0.2314
 6253TIP3    H218766   0.216   5.271   0.902  0.5356 -0.0388 -0.4999
 6254TIP3   OH218767   2.314   2.713   5.015 -0.0413 -0.3319 -0.1264
 6254TIP3    H118768   2.274   2.800   5.024  1.1033  0.1118  1.1017
 6254TIP3    H218769   2.248   2.652   5.048 -0.7764  0.0696 -0.8059
 6255TIP3   OH218770   2.430   2.392   4.081  0.5118  0.0031 -0.3805
 6255TIP3    H118771   2.517   2.418   4.051  0.0436  0.4106 -1.4186
 6255TIP3    H218772   2.421   2.301   4.051  0.2008  0.2792 -1.1266
 6256TIP3   OH218773   6.111   4.512   4.065 -0.0228  0.3896  0.1279
 6256TIP3    H118774   6.083   4.553   3.983 -0.1158  0.8272  0.3761
 6256TIP3    H218775   6.046   4.444   4.082  1.0874 -1.1018 -1.2170
 6257TIP3   OH218776   3.671   4.903   4.074  0.1974  0.0354 -0.3296
 6257TIP3    H118777   3.591   4.897   4.127  0.1473  0.3007 -0.3706
 6257TIP3    H218778   3.740   4.921   4.138  0.0116  1.2094 -0.4201
 6258TIP3   OH218779   5.931   5.346   3.394 -0.1173  0.1220  0.4479
 6258TIP3    H118780   5.875   5.299   3.333  0.7473  1.5743 -1.6215
 6258TIP3    H218781   5.874   5.412   3.434 -0.6338 -0.6679  1.0279
 6259TIP3   OH218782   1.647   0.093   1.734  0.1799 -0.4147 -0.2103
 6259TIP3    H118783   1.727   0.142   1.717 -0.0591  0.0032 -0.1373
 6259TIP3    H218784   1.591   0.153   1.784 -0.7412 -0.1841 -1.4677
 6260TIP3   OH218785   6.305   3.719   3.201 -0.0443 -0.7735  0.5254
 6260TIP3    H118786   6.372   3.652   3.218  1.4421  0.6500  0.6284
 6260TIP3    H218787   6.223   3.670   3.194  1.4174 -3.1677 -3.5237
 6261TIP3   OH218788   6.162   2.315   2.856 -0.1065 -0.1589  0.8225
 6261TIP3    H118789   6.250   2.351   2.843  0.5942 -1.8442  0.6269
 6261TIP3    H218790   6.162   2.282   2.945  0.0253 -1.6167  0.2985
 6262TIP3   OH218791   6.068   5.635   1.642 -0.5035  0.0443  0.0760
 6262TIP3    H118792   6.042   5.578   1.715 -0.4121 -0.4244 -0.2530
 6262TIP3    H218793   6.158   5.610   1.623 -0.6458 -0.0822 -0.4311
 6263TIP3   OH218794   4.918   3.883   3.659 -0.1319  0.5994  0.1541
 6263TIP3    H118795   4.888   3.966   3.695 -2.1886 -0.2288  0.4902
 6263TIP3    H218796   4.896   3.819   3.727  1.6562 -0.2240  0.0226
 6264TIP3   OH218797   3.159   5.600   0.028 -0.3245  0.1025 -0.2047
 6264TIP3    H118798   3.237   5.655   0.029 -0.0253 -0.3119  1.2847
 6264TIP3    H218799   3.091   5.654   0.068 -0.4365 -0.0577 -0.1792
 6265TIP3   OH218800   4.773   3.266   1.653  0.0780  0.0138  1.0646
 6265TIP3    H118801   4.679   3.278   1.641 -0.6289 -1.8356  3.7727
 6265TIP3    H218802   4.802   3.216   1.577 -1.5358 -0.9683  1.0576
 6266TIP3   OH218803   4.125   1.032   0.859 -0.1115  0.2305  0.9367
 6266TIP3    H118804   4.034   1.008   0.877 -0.3653 -0.4126 -0.9959
 6266TIP3    H218805   4.122   1.079   0.776  1.3621 -0.1992  0.6020
 6267TIP3   OH218806   0.592   1.156   4.997 -0.0776  0.1502 -0.0946
 6267TIP3    H118807   0.604   1.228   4.935  2.9632 -1.0437 -1.0809
 6267TIP3    H218808   0.671   1.102   4.987  0.4819 -0.2941  4.6185
 6268TIP3   OH218809   4.838   1.970   3.789  0.3580  0.8141  0.1084
 6268TIP3    H118810   4.758   1.944   3.836 -0.4943  1.1534 -1.1234
 6268TIP3    H218811   4.898   1.999   3.859 -1.5776  3.2482  0.8982
 6269TIP3   OH218812   3.917   1.636   3.740  0.6203  0.7370 -0.2595
 6269TIP3    H118813   3.823   1.636   3.758  0.8126 -0.9916  0.9292
 6269TIP3    H218814   3.958   1.659   3.824  1.2963  0.2509 -0.4494
 6270TIP3   OH218815   6.018   2.683   0.272  0.1746 -0.5108 -0.3807
 6270TIP3    H118816   5.988   2.762   0.316  0.0650 -1.5755  1.5747
 6270TIP3    H218817   6.092   2.712   0.218  0.0648  0.9386  0.1982
 6271TIP3   OH218818   5.511   4.513   1.860  0.4450 -0.1217 -0.1940
 6271TIP3    H118819   5.433   4.499   1.914 -0.0059 -0.9812 -1.0453
 6271TIP3    H218820   5.497   4.599   1.821 -0.1223 -0.3036 -0.4015
 6272TIP3   OH218821   4.666   3.177   1.285  0.2283  0.1628 -0.1318
 6272TIP3    H118822   4.616   3.249   1.323  0.9749  0.2079  0.7953
 6272TIP3    H218823   4.710   3.217   1.209 -0.2126  0.4035 -0.2645
 6273TIP3   OH218824   5.546   0.847   4.633 -0.1372  0.7887 -0.2006
 6273TIP3    H118825   5.628   0.894   4.643  1.0200 -1.1859  0.1591
 6273TIP3    H218826   5.559   0.792   4.555 -0.4819 -0.6761  0.7283
 6274TIP3   OH218827   0.188   3.286   2.182  0.3166 -0.9800 -0.1499
 6274TIP3    H118828   0.145   3.371   2.179  0.5196 -0.8164  0.9977
 6274TIP3    H218829   0.239   3.288   2.263 -1.2363 -2.9202  0.9765
 6275TIP3   OH218830   2.072   3.246   5.134  0.4496  0.2735  0.1066
 6275TIP3    H118831   2.104   3.225   5.046 -0.4379 -0.5163 -0.0482
 6275TIP3    H218832   2.117   3.327   5.157  1.0630  0.2340 -0.8799
 6276TIP3   OH218833   1.886   2.099   0.036 -0.3888  0.0665 -0.3518
 6276TIP3    H118834   1.807   2.125   0.084  0.6611  2.0348  0.4544
 6276TIP3    H218835   1.861   2.105  -0.056 -1.1041  1.0279 -0.1140
 6277TIP3   OH218836   5.480   1.727   3.707  0.2547 -0.0549  0.5206
 6277TIP3    H118837   5.446   1.805   3.663 -0.8369 -0.4684  0.6049
 6277TIP3    H218838   5.406   1.667   3.712  1.0540 -1.0873  0.5194
 6278TIP3   OH218839   0.948   1.083   1.705  0.1896  0.6095 -0.6086
 6278TIP3    H118840   0.864   1.102   1.747  0.2889 -0.3466  0.0435
 6278TIP3    H218841   0.959   1.153   1.640 -0.6417  1.2891 -0.0275
 6279TIP3   OH218842   5.781   0.814   1.229  0.4953 -0.1476  0.1700
 6279TIP3    H118843   5.733   0.795   1.149  0.0879  1.1534  0.0875
 6279TIP3    H218844   5.873   0.805   1.205  0.3718  0.1591 -0.4292
 6280TIP3   OH218845   5.204   2.110   5.032  0.5611 -0.0899  0.0147
 6280TIP3    H118846   5.252   2.143   5.107 -0.1499  1.4720 -0.1649
 6280TIP3    H218847   5.154   2.186   5.000  0.7680 -0.7182 -1.9709
 6281TIP3   OH218848   3.045   3.140   4.893 -0.0716 -0.1759  0.3396
 6281TIP3    H118849   3.010   3.054   4.868 -0.3057  0.6039 -2.3137
 6281TIP3    H218850   3.076   3.128   4.982 -0.5843 -2.8748  0.2421
 6282TIP3   OH218851   1.253   4.093   2.293  0.4314 -0.2243 -0.2716
 6282TIP3    H118852   1.261   3.998   2.293  1.2410 -0.1700  0.3479
 6282TIP3    H218853   1.243   4.117   2.201 -3.1208 -1.1223 -0.2635
 6283TIP3   OH218854   3.963   4.747   0.723  0.4815  0.3700 -0.2967
 6283TIP3    H118855   4.011   4.830   0.721 -0.3135  0.8403 -0.4529
 6283TIP3    H218856   4.019   4.686   0.674  1.1396  0.7705 -0.0610
 6284TIP3   OH218857   1.912   4.945   0.544  0.3202 -0.1544  0.1468
 6284TIP3    H118858   1.850   4.994   0.598  0.3444  0.9903 -0.8221
 6284TIP3    H218859   1.932   5.004   0.471  2.1694 -0.6903  0.1769
 6285TIP3   OH218860   3.778   2.892   3.874 -0.2101 -0.4587 -0.5782
 6285TIP3    H118861   3.712   2.862   3.937 -0.5304  0.2229 -0.5835
 6285TIP3    H218862   3.858   2.901   3.925 -0.5688  0.4936 -0.1703
 6286TIP3   OH218863   3.405   5.820   3.156 -0.3258 -0.2167 -0.1655
 6286TIP3    H118864   3.491   5.804   3.118  0.2716  0.1730  0.9751
 6286TIP3    H218865   3.379   5.737   3.196 -1.3813 -0.9141 -2.1445
 6287TIP3   OH218866   1.710   0.240   3.058  0.0303 -0.1257 -0.6234
 6287TIP3    H118867   1.622   0.214   3.086 -1.1075  3.5207 -0.3612
 6287TIP3    H218868   1.715   0.209   2.967 -1.2165 -0.9695 -0.4415
 6288TIP3   OH218869   2.901   5.741   2.177  0.2680 -0.2887 -0.1798
 6288TIP3    H118870   2.891   5.801   2.251  2.4548  0.5313 -0.4859
 6288TIP3    H218871   2.874   5.793   2.101 -0.1965 -0.5209 -0.1776
 6289TIP3   OH218872   5.402   5.924   5.014 -0.0374  0.1858  0.5882
 6289TIP3    H118873   5.483   5.908   4.965 -0.4407  0.2204 -0.1094
 6289TIP3    H218874   5.398   5.853   5.077 -0.3680 -0.8637 -0.5719
 6290TIP3   OH218875   4.002   1.451   3.554 -0.0971 -0.0645 -0.3343
 6290TIP3    H118876   3.964   1.526   3.599 -0.4355 -0.8153  0.6609
 6290TIP3    H218877   4.089   1.481   3.527  0.0968  0.4333  0.7723
 6291TIP3   OH218878   4.573   4.677   0.040 -0.2443  0.1046  0.7173
 6291TIP3    H118879   4.641   4.641   0.097 -0.7977 -2.0370  0.1070
 6291TIP3    H218880   4.491   4.648   0.079 -0.6241 -2.1024 -1.5242
 6292TIP3   OH218881   5.874   4.600   2.565 -0.4520  0.7582  0.3423
 6292TIP3    H118882   5.850   4.644   2.647  2.2717  2.2823  0.4526
 6292TIP3    H218883   5.918   4.520   2.594  0.3589  1.2123  0.3840
 6293TIP3   OH218884   2.758   0.778   2.762 -0.5344 -0.4208 -0.0388
 6293TIP3    H118885   2.701   0.809   2.692 -0.4739 -0.1104  0.0472
 6293TIP3    H218886   2.762   0.852   2.823  0.3526 -0.2554 -0.2850
 6294TIP3   OH218887   1.914   5.279   4.137 -0.6747 -0.4014 -0.1174
 6294TIP3    H118888   1.905   5.371   4.115  1.8376 -0.0324  0.1593
 6294TIP3    H218889   1.873   5.232   4.064  0.1538  0.8985 -1.4587
 6295TIP3   OH218890   1.128   3.308   3.673  0.0638 -0.2473 -0.1338
 6295TIP3    H118891   1.167   3.394   3.680  1.3768 -0.8095 -0.2869
 6295TIP3    H218892   1.134   3.286   3.580 -1.2813 -0.0529 -0.2826
 6296TIP3   OH218893   2.696   0.101   4.749  0.0824  0.0684 -0.1827
 6296TIP3    H118894   2.642   0.164   4.797  1.0389  0.5458  0.3075
 6296TIP3    H218895   2.768   0.080   4.809  1.1658  0.4788 -1.2738
 6297TIP3   OH218896   2.396   2.678   4.579  0.3648  0.1067 -0.4231
 6297TIP3    H118897   2.376   2.627   4.500 -0.7868 -1.3089  0.7408
 6297TIP3    H218898   2.388   2.615   4.651  1.1277  1.4307  0.8633
 6298TIP3   OH218899   6.042   0.723   1.170 -0.0760 -0.3207 -0.3676
 6298TIP3    H118900   6.131   0.722   1.136 -0.1991  0.1637 -0.7266
 6298TIP3    H218901   6.042   0.660   1.242  0.7580  0.2496  0.1460
 6299TIP3   OH218902   6.077   1.906   2.607  0.5390 -0.0276 -0.1989
 6299TIP3    H118903   6.009   1.934   2.669 -1.1328  1.4991 -2.5600
 6299TIP3    H218904   6.141   1.978   2.609  0.4994  0.0085 -0.2170
 6300TIP3   OH218905   3.755   5.408   4.727  0.0672 -1.0693 -0.3629
 6300TIP3    H118906   3.694   5.395   4.654 -1.1445 -0.5721  0.5473
 6300TIP3    H218907   3.736   5.336   4.787 -0.4908 -0.1999  0.5099
 6301TIP3   OH218908   3.155   3.600   0.767  0.1606  0.1471  0.4656
 6301TIP3    H118909   3.086   3.535   0.755  0.8164 -0.3911 -0.5089
 6301TIP3    H218910   3.138   3.666   0.700  0.1573  0.3949  0.7101
 6302TIP3   OH218911   2.930   4.752   1.775 -0.0035 -0.1872 -0.1728
 6302TIP3    H118912   3.004   4.709   1.817 -0.0493 -0.0690  0.0307
 6302TIP3    H218913   2.868   4.769   1.846  0.4796  1.2130 -0.0483
 6303TIP3   OH218914   3.760   2.972   3.384  0.1568 -0.8116 -0.1140
 6303TIP3    H118915   3.742   3.018   3.466 -0.4587  0.2839 -0.8409
 6303TIP3    H218916   3.749   2.879   3.406 -1.7680 -0.4571  0.6491
 6304TIP3   OH218917   3.878   0.569   4.530  0.3612 -0.4199  0.4452
 6304TIP3    H118918   3.811   0.630   4.562 -0.9965 -1.1018 -0.9896
 6304TIP3    H218919   3.915   0.530   4.610 -1.2001 -0.2861  1.2708
 6305TIP3   OH218920   5.916   2.537   1.470  0.1929  0.2034 -0.1223
 6305TIP3    H118921   5.994   2.505   1.425  0.7207  0.7033  0.4156
 6305TIP3    H218922   5.866   2.583   1.402  1.5955  2.0609  0.0092
 6306TIP3   OH218923   2.401   4.728   3.422  0.1754 -0.1108 -0.1286
 6306TIP3    H118924   2.417   4.670   3.495  1.4668  1.1289  0.6246
 6306TIP3    H218925   2.486   4.770   3.405  0.2010 -1.1107 -3.0292
 6307TIP3   OH218926   5.819   5.846   2.630  0.4943  0.0344 -0.7162
 6307TIP3    H118927   5.777   5.776   2.580  2.1074 -0.3043 -1.6635
 6307TIP3    H218928   5.899   5.866   2.581  0.9518  1.3195  0.4942
 6308TIP3   OH218929   6.010   3.738   3.291 -0.0132 -0.4873 -0.5432
 6308TIP3    H118930   5.996   3.697   3.376 -2.9746 -0.3432 -0.8451
 6308TIP3    H218931   6.051   3.822   3.311  2.5548 -1.8588  0.3729
 6309TIP3   OH218932   0.624   5.803   3.954 -0.1928 -0.1948 -0.2179
 6309TIP3    H118933   0.686   5.753   4.008 -0.1853  0.8981  0.8420
 6309TIP3    H218934   0.621   5.889   3.995  0.6663  1.0735 -2.6554
 6310TIP3   OH218935   3.742   5.910   4.849 -0.1619 -0.2105 -0.0499
 6310TIP3    H118936   3.687   5.869   4.916 -0.6647 -0.9898 -0.9133
 6310TIP3    H218937   3.690   5.984   4.817  0.1526  0.2678  0.5356
 6311TIP3   OH218938   0.617   1.115   4.157 -0.6962  0.2877 -0.9391
 6311TIP3    H118939   0.702   1.089   4.194 -1.1024 -1.6037 -1.2382
 6311TIP3    H218940   0.591   1.191   4.209  0.3290 -0.2314  0.4096
 6312TIP3   OH218941   1.035   2.472   4.916  0.1051 -0.4603 -0.6505
 6312TIP3    H118942   1.047   2.530   4.841 -0.8494 -0.9423 -1.1897
 6312TIP3    H218943   1.041   2.530   4.992 -1.1872  0.4281 -1.1831
 6313TIP3   OH218944   0.495   3.986   4.375 -0.0272 -0.7201 -0.2743
 6313TIP3    H118945   0.429   4.044   4.338 -0.3322  0.1819  1.5764
 6313TIP3    H218946   0.539   3.947   4.298 -1.0648  0.5057 -1.5395
 6314TIP3   OH218947   3.619   1.630   0.406  0.1735 -0.2205 -0.4436
 6314TIP3    H118948   3.695   1.664   0.453 -0.0348 -0.2989 -0.0542
 6314TIP3    H218949   3.567   1.586   0.472 -0.4691  0.2714 -0.6128
 6315TIP3   OH218950   2.731   0.095   1.977  0.3621  0.3523  0.5530
 6315TIP3    H118951   2.675   0.024   1.946 -1.2747  0.1616  3.5736
 6315TIP3    H218952   2.701   0.172   1.928 -0.2982 -0.3587 -0.1937
 6316TIP3   OH218953   6.308   5.773   0.938  0.0009  0.1637  0.6639
 6316TIP3    H118954   6.242   5.748   1.003 -0.0500  1.5405  1.1574
 6316TIP3    H218955   6.388   5.729   0.968  0.1240  1.2455  2.0194
 6317TIP3   OH218956   2.314   4.064   0.434 -0.2777 -0.3765  0.0277
 6317TIP3    H118957   2.407   4.072   0.457  0.0739 -1.9643 -0.7024
 6317TIP3    H218958   2.283   4.155   0.428  2.0315  0.3986 -2.8501
 6318TIP3   OH218959   0.273   2.542   0.017  0.5847  0.3816 -0.0454
 6318TIP3    H118960   0.316   2.602   0.078  0.5477  1.1472 -0.7521
 6318TIP3    H218961   0.206   2.595  -0.025  0.7576 -0.0716 -0.9162
 6319TIP3   OH218962   2.009   5.612   1.531  0.5497 -0.1941  0.1971
 6319TIP3    H118963   2.024   5.706   1.546 -0.5023  0.2763 -1.3746
 6319TIP3    H218964   2.054   5.594   1.448  1.0122 -1.1822  0.6433
 6320TIP3   OH218965   4.321   0.317   0.951  0.2539 -0.4834 -0.4431
 6320TIP3    H118966   4.344   0.408   0.932 -0.5425 -0.0743  0.4850
 6320TIP3    H218967   4.405   0.271   0.953  1.0512  0.8771  2.3612
 6321TIP3   OH218968   5.504   3.239   5.216  0.1125  0.2214 -0.0967
 6321TIP3    H118969   5.521   3.287   5.135  1.4687 -0.6007 -0.3357
 6321TIP3    H218970   5.448   3.166   5.190  3.3385 -2.1439 -1.1175
 6322TIP3   OH218971   6.267   1.507   4.843 -0.2617  0.5650  0.5712
 6322TIP3    H118972   6.318   1.426   4.850 -1.3043 -0.0759  1.0815
 6322TIP3    H218973   6.263   1.524   4.749 -1.3143 -0.8736  0.3079
 6323TIP3   OH218974   4.449   5.473   1.938  0.1516 -0.1045 -0.2324
 6323TIP3    H118975   4.536   5.448   1.907  0.1671  0.1087 -0.3583
 6323TIP3    H218976   4.431   5.411   2.009 -0.4729 -1.5506 -1.5720
 6324TIP3   OH218977   6.343   0.705   3.761  0.0502  0.0084  0.3756
 6324TIP3    H118978   6.298   0.743   3.685 -0.8482 -0.4977  0.6434
 6324TIP3    H218979   6.304   0.750   3.836  0.0919 -0.3354  0.6025
 6325TIP3   OH218980   5.629   3.547   2.290  0.5010  0.0077 -0.6317
 6325TIP3    H118981   5.650   3.459   2.321  0.9015 -0.0265 -0.9849
 6325TIP3    H218982   5.536   3.557   2.307  0.9768  0.5993  2.0531
 6326TIP3   OH218983   5.224   4.318   1.113 -0.4904 -0.7693  0.0570
 6326TIP3    H118984   5.216   4.343   1.021  0.9007  0.0999  0.1488
 6326TIP3    H218985   5.216   4.401   1.161  3.0710 -0.5214  0.4370
 6327TIP3   OH218986   1.368   2.455   3.830  0.2803 -0.0731  0.1503
 6327TIP3    H118987   1.402   2.484   3.745  1.5986 -0.0025  0.6660
 6327TIP3    H218988   1.441   2.408   3.870 -0.6889 -1.0769  0.7895
 6328TIP3   OH218989   3.671   2.446   2.255  0.0671 -0.2450  0.2986
 6328TIP3    H118990   3.667   2.541   2.257 -2.1083 -0.1362 -2.4368
 6328TIP3    H218991   3.616   2.418   2.329  2.7217  0.4139  2.7252
 6329TIP3   OH218992   6.370   4.832   0.036 -0.2197  0.3562 -0.0031
 6329TIP3    H118993   6.389   4.863  -0.052 -1.3945  1.5090  0.1278
 6329TIP3    H218994   6.275   4.820   0.038 -0.0781 -0.8560  0.7386
 6330TIP3   OH218995   5.644   4.510   4.134 -0.1654 -0.3900 -0.6990
 6330TIP3    H118996   5.686   4.595   4.130  0.0898 -0.4983 -0.3533
 6330TIP3    H218997   5.550   4.529   4.126 -0.1522 -0.0301 -0.0122
 6331TIP3   OH218998   0.783   3.167   3.666 -0.3145  0.6141  0.0484
 6331TIP3    H118999   0.699   3.147   3.625  1.9054 -1.9820 -3.8488
 6331TIP3    H219000   0.822   3.234   3.610  0.6916  1.0855  1.2449
 6332TIP3   OH219001   2.577   5.054   4.626 -0.6353  0.5493  0.1457
 6332TIP3    H119002   2.618   5.106   4.695 -0.0052  1.3459 -0.8079
 6332TIP3    H219003   2.570   4.966   4.663 -4.3110  1.7436  2.8931
 6333TIP3   OH219004   5.566   5.953   3.249 -0.1947 -0.5886  0.7336
 6333TIP3    H119005   5.536   5.996   3.329  0.7875 -1.7336  1.7758
 6333TIP3    H219006   5.657   5.928   3.268  0.8567  1.1125 -1.6066
 6334TIP3   OH219007   2.200   5.076   3.043  0.1686 -0.4639 -0.7338
 6334TIP3    H119008   2.178   5.069   3.136  0.4118 -0.6989 -0.6937
 6334TIP3    H219009   2.176   5.165   3.020  0.4629 -0.2810 -0.3525
 6335TIP3   OH219010   5.733   2.720   1.640  0.1038  0.1019 -0.4707
 6335TIP3    H119011   5.640   2.729   1.619 -0.3258 -1.6668  0.5026
 6335TIP3    H219012   5.758   2.635   1.603  1.1089  0.1546  0.0479
 6336TIP3   OH219013   2.213   2.030   5.008 -0.1414  0.4048 -0.9284
 6336TIP3    H119014   2.304   2.003   5.013  0.0296  1.0104 -0.6121
 6336TIP3    H219015   2.173   1.969   4.946 -0.1603 -1.6069  0.9366
 6337TIP3   OH219016   3.339   4.857   1.327 -0.3234 -0.4520 -0.4015
 6337TIP3    H119017   3.284   4.803   1.384  0.0830  0.1355  0.5698
 6337TIP3    H219018   3.289   4.864   1.245 -0.1912 -2.6243 -0.7212
 6338TIP3   OH219019   3.713   0.932   2.952  0.5242 -0.0742 -0.0509
 6338TIP3    H119020   3.620   0.912   2.954  0.4695  0.1673 -0.1306
 6338TIP3    H219021   3.746   0.882   2.877  0.4477 -0.1148 -0.0578
 6339TIP3   OH219022   3.793   4.760   2.002  0.6602  0.1435 -0.4965
 6339TIP3    H119023   3.726   4.767   1.935 -0.2463  1.6899  0.5080
 6339TIP3    H219024   3.744   4.745   2.083  1.4959  1.3626  0.2631
 6340TIP3   OH219025   0.160   3.029   3.906  0.3490  0.1826  0.3731
 6340TIP3    H119026   0.080   2.978   3.915 -0.8161  2.0395  1.2723
 6340TIP3    H219027   0.179   3.029   3.812  0.9642 -2.6185  0.4237
 6341TIP3   OH219028   2.711   1.110   2.189 -0.0211  0.2078  0.1354
 6341TIP3    H119029   2.763   1.068   2.257 -0.9906 -0.2628  0.6011
 6341TIP3    H219030   2.632   1.139   2.234 -0.0919  1.0821 -0.5235
 6342TIP3   OH219031   3.529   0.876   1.381  0.0229 -0.0310 -0.2341
 6342TIP3    H119032   3.446   0.900   1.341  1.3635  0.6722 -2.7881
 6342TIP3    H219033   3.546   0.946   1.445 -1.0648  0.0796 -0.0442
 6343TIP3   OH219034   0.460   5.455   0.515  0.6376 -0.0656 -0.7721
 6343TIP3    H119035   0.447   5.447   0.421 -0.8066 -0.7798 -0.5424
 6343TIP3    H219036   0.375   5.432   0.553  0.8684  1.2669  0.6589
 6344TIP3   OH219037   5.278   5.715   1.225  0.3724 -0.3309 -0.1070
 6344TIP3    H119038   5.234   5.800   1.223 -0.7113 -0.8860 -1.9160
 6344TIP3    H219039   5.358   5.731   1.276  0.9059  2.1235 -1.5694
 6345TIP3   OH219040   0.187   5.914   2.036  0.4054  0.0107  0.2386
 6345TIP3    H119041   0.102   5.871   2.023 -0.3972  1.2908  1.0794
 6345TIP3    H219042   0.229   5.865   2.107 -0.4570  0.5179  1.1179
 6346TIP3   OH219043   4.131   5.383   4.167  0.0877 -0.3495 -0.4434
 6346TIP3    H119044   4.076   5.420   4.236  0.3929  0.4623 -0.6334
 6346TIP3    H219045   4.162   5.459   4.117 -0.2213 -0.9173 -1.5465
 6347TIP3   OH219046   6.313   4.333   1.792  0.4187  0.3083 -0.0366
 6347TIP3    H119047   6.268   4.406   1.748  0.0346  0.8065  1.1453
 6347TIP3    H219048   6.348   4.280   1.720  0.6302  1.6017 -0.9207
 6348TIP3   OH219049   0.095   2.980   2.302 -0.1252 -0.3841  0.5542
 6348TIP3    H119050   0.127   2.924   2.373  0.1347 -1.1041 -0.1192
 6348TIP3    H219051   0.173   3.022   2.268 -0.3596  0.6603  1.2716
 6349TIP3   OH219052   2.154   1.640   0.990 -0.1309  0.3254  0.0343
 6349TIP3    H119053   2.202   1.574   0.939 -0.5978 -1.8181  2.1632
 6349TIP3    H219054   2.220   1.676   1.049 -0.3092  0.2310  0.2918
 6350TIP3   OH219055   3.726   5.470   2.619  0.3610  0.2225  0.0413
 6350TIP3    H119056   3.752   5.562   2.616 -2.0830  0.9638 -0.1474
 6350TIP3    H219057   3.721   5.443   2.528 -2.2085  0.9764 -0.1212
 6351TIP3   OH219058   6.020   1.772   1.745 -0.2384  0.0184 -0.2204
 6351TIP3    H119059   5.942   1.733   1.784  0.9278 -1.6229  0.6142
 6351TIP3    H219060   6.093   1.737   1.798  1.1910  0.0172 -2.1006
 6352TIP3   OH219061   2.846   4.788   1.327  1.2906  0.1757  0.4616
 6352TIP3    H119062   2.790   4.796   1.405  0.5335  1.7294 -0.1866
 6352TIP3    H219063   2.855   4.878   1.295  2.0327 -0.3655 -0.9509
 6353TIP3   OH219064   0.659   1.412   4.574  0.5130  0.0351 -0.5268
 6353TIP3    H119065   0.613   1.371   4.500 -0.2078 -0.5988  0.2522
 6353TIP3    H219066   0.635   1.505   4.569 -1.2508 -0.3386  0.1043
 6354TIP3   OH219067   3.680   3.430   2.827  0.1030 -0.3720  0.4893
 6354TIP3    H119068   3.752   3.449   2.767  1.4674 -0.9338  1.8925
 6354TIP3    H219069   3.646   3.516   2.850 -0.9667 -0.1587 -1.6310
 6355TIP3   OH219070   3.826   5.234   2.741  0.4846 -0.0575 -0.2939
 6355TIP3    H119071   3.791   5.245   2.830  1.2636  1.0368 -0.1039
 6355TIP3    H219072   3.792   5.310   2.693  0.1787 -0.5718 -0.9066
 6356TIP3   OH219073   3.288   4.280   4.719  0.0182  0.2548  0.1065
 6356TIP3    H119074   3.205   4.316   4.687 -0.4259 -0.0700  0.8506
 6356TIP3    H219075   3.338   4.262   4.639 -1.1827 -0.8385 -0.4581
 6357TIP3   OH219076   2.096   3.890   1.952  0.2827  0.1053 -0.1876
 6357TIP3    H119077   2.018   3.837   1.972  0.2088  0.1664 -0.3109
 6357TIP3    H219078   2.102   3.887   1.856 -0.6927  1.7002 -0.3363
 6358TIP3   OH219079   6.017   1.590   4.657 -0.0368 -0.5933  0.0427
 6358TIP3    H119080   5.965   1.553   4.729 -2.6544  1.2058 -0.8103
 6358TIP3    H219081   5.955   1.639   4.604  2.2690  0.2791 -2.0678
 6359TIP3   OH219082   0.847   3.444   4.587  0.5355  0.8234 -0.1446
 6359TIP3    H119083   0.838   3.520   4.530  0.4427  0.5786 -0.4574
 6359TIP3    H219084   0.816   3.370   4.534 -0.1491  0.6851  0.4401
 6360TIP3   OH219085   1.834   3.187   4.994 -0.3086 -0.0320 -0.1535
 6360TIP3    H119086   1.790   3.270   4.973  1.0846  0.5325 -0.9522
 6360TIP3    H219087   1.918   3.213   5.032  0.8571 -1.0371 -1.9160
 6361TIP3   OH219088   6.236   4.993   1.803 -0.3071 -0.2674  0.2648
 6361TIP3    H119089   6.274   5.030   1.723  3.8734 -1.8693  1.2032
 6361TIP3    H219090   6.194   4.912   1.775 -1.0580  0.4099 -0.5888
 6362TIP3   OH219091   2.095   4.468   4.170 -0.5422 -0.1591  0.6151
 6362TIP3    H119092   2.131   4.383   4.146 -0.1705 -0.4779  2.1968
 6362TIP3    H219093   2.059   4.455   4.258 -1.7918  0.9482  0.2850
 6363TIP3   OH219094   4.325   2.637   0.427  0.3454 -0.1518 -0.2351
 6363TIP3    H119095   4.418   2.618   0.413 -0.1573 -1.1971 -2.4685
 6363TIP3    H219096   4.291   2.660   0.340 -1.5540 -0.0523  0.4777
 6364TIP3   OH219097   1.744   4.311   1.615 -0.1784  0.4645 -0.2779
 6364TIP3    H119098   1.673   4.336   1.555 -0.1741  0.5573 -0.2435
 6364TIP3    H219099   1.782   4.394   1.644 -0.2970  0.4232 -0.0042
 6365TIP3   OH219100   1.138   5.581   1.261 -0.0331  0.0720 -0.5542
 6365TIP3    H119101   1.090   5.521   1.318  0.9511  1.2068  1.6281
 6365TIP3    H219102   1.092   5.577   1.177 -2.0686 -1.1208  0.5300
 6366TIP3   OH219103   4.762   0.194   2.014 -0.4746  0.8511  0.2610
 6366TIP3    H119104   4.740   0.257   2.083 -1.7181  1.2307 -0.4426
 6366TIP3    H219105   4.700   0.213   1.944 -0.2053 -0.5042 -0.3805
 6367TIP3   OH219106   0.521   3.498   4.067  0.2867 -0.1591 -0.1572
 6367TIP3    H119107   0.586   3.537   4.009  1.7943 -0.6264  1.1374
 6367TIP3    H219108   0.537   3.404   4.062  0.7963 -0.1799  1.3550
 6368TIP3   OH219109   2.879   4.196   0.881 -0.7430  0.4917  0.4707
 6368TIP3    H119110   2.935   4.266   0.914  1.4976 -0.8755 -0.2043
 6368TIP3    H219111   2.835   4.162   0.959 -1.3584  2.1787  0.8913
 6369TIP3   OH219112   2.480   1.540   0.390  0.0781  0.2395  0.0323
 6369TIP3    H119113   2.514   1.517   0.304  1.7846  1.0049  0.4457
 6369TIP3    H219114   2.399   1.491   0.399  1.6243 -2.6419 -0.6088
 6370TIP3   OH219115   2.039   5.874   2.712 -0.4027  0.0838 -0.1815
 6370TIP3    H119116   1.944   5.874   2.720 -0.3851  0.2915  0.0518
 6370TIP3    H219117   2.068   5.803   2.769 -0.4570 -0.4258 -0.7844
 6371TIP3   OH219118   3.671   2.465   0.403 -0.0102 -0.1879  0.7798
 6371TIP3    H119119   3.647   2.389   0.350  1.5955  1.0260 -1.8974
 6371TIP3    H219120   3.753   2.440   0.445  0.2681 -0.1327  0.2795
 6372TIP3   OH219121   1.707   0.657   3.350 -0.2800  0.2226 -0.0919
 6372TIP3    H119122   1.793   0.641   3.311 -0.9905  1.2117 -2.1837
 6372TIP3    H219123   1.700   0.752   3.355 -1.3347  0.1619 -0.1753
 6373TIP3   OH219124   5.072   4.126   4.948 -0.1640 -0.6714 -0.0075
 6373TIP3    H119125   5.035   4.151   5.032  0.8326  0.2524  0.1848
 6373TIP3    H219126   5.159   4.167   4.947  0.4154 -1.8528 -0.8818
 6374TIP3   OH219127   0.044   5.480   2.483 -0.3095 -0.4584 -0.1085
 6374TIP3    H119128   0.090   5.468   2.400 -0.1743 -1.4117  0.0955
 6374TIP3    H219129  -0.048   5.490   2.459 -0.4484 -2.0288 -0.3006
 6375TIP3   OH219130   0.723   2.360   2.998 -0.1797 -0.1629  0.0481
 6375TIP3    H119131   0.633   2.330   2.987 -0.7203  1.3702  0.1092
 6375TIP3    H219132   0.748   2.393   2.912 -0.5638  1.6882  0.6103
 6376TIP3   OH219133   1.826   2.284   0.531  0.1455 -0.3685 -0.4521
 6376TIP3    H119134   1.873   2.234   0.465 -1.8673  1.2175 -3.2575
 6376TIP3    H219135   1.749   2.231   0.551  0.5040 -0.6182  0.3227
 6377TIP3   OH219136   2.318   5.927   4.699 -0.5345  0.5845  0.0227
 6377TIP3    H119137   2.367   5.908   4.779 -1.6236  1.6770  0.9893
 6377TIP3    H219138   2.355   5.868   4.634  1.8294  1.1329  0.7844
 6378TIP3   OH219139   2.058   1.942   4.071  0.6731  0.2207 -0.3162
 6378TIP3    H119140   1.971   1.922   4.107  0.4856 -0.7306 -1.2623
 6378TIP3    H219141   2.048   2.030   4.035  0.3075  0.3928  0.1848
 6379TIP3   OH219142   3.521   5.193   2.422  0.0565  0.2378  0.3772
 6379TIP3    H119143   3.467   5.272   2.433  2.1617  2.0636 -1.3525
 6379TIP3    H219144   3.482   5.147   2.349  1.0064  1.8382 -1.2311
 6380TIP3   OH219145   1.466   3.417   2.840 -0.1217  0.0810 -0.2819
 6380TIP3    H119146   1.445   3.330   2.806 -1.5369 -0.9262  2.8493
 6380TIP3    H219147   1.544   3.404   2.894 -2.6339 -0.3480  3.6199
 6381TIP3   OH219148   4.336   3.072   0.404  0.1188 -0.4802  0.0390
 6381TIP3    H119149   4.315   3.109   0.490  1.3173  0.2692  0.0393
 6381TIP3    H219150   4.382   3.142   0.358  1.3574 -1.5459 -0.4318
 6382TIP3   OH219151   4.563   5.723   3.440  0.5022  0.2609  0.2545
 6382TIP3    H119152   4.622   5.725   3.365 -1.1932 -1.4845 -1.2539
 6382TIP3    H219153   4.475   5.727   3.401 -0.4372 -0.5442  2.1611
 6383TIP3   OH219154   4.417   3.209   3.421  0.7013 -0.1155 -0.1917
 6383TIP3    H119155   4.438   3.250   3.505  0.9897  0.5493 -0.5786
 6383TIP3    H219156   4.497   3.217   3.370  0.1707  0.5267 -0.9369
 6384TIP3   OH219157   3.932   0.832   1.661  0.6516  0.3356  0.5851
 6384TIP3    H119158   3.896   0.747   1.688  0.2204  0.9626  2.1087
 6384TIP3    H219159   4.015   0.811   1.619 -0.7075 -1.0448 -1.6418
 6385TIP3   OH219160   5.431   3.415   1.618 -0.0853 -0.1775  0.5005
 6385TIP3    H119161   5.455   3.460   1.699  0.7445  0.8965 -0.3101
 6385TIP3    H219162   5.338   3.395   1.628 -0.1191  0.4076  1.5000
 6386TIP3   OH219163   6.289   3.473   1.426  0.0907  0.2410  0.0268
 6386TIP3    H119164   6.317   3.559   1.456 -1.1494  0.9142 -0.6460
 6386TIP3    H219165   6.302   3.415   1.501  0.4836  1.1145  0.6408
 6387TIP3   OH219166   0.618   1.214   2.301 -0.8793  0.2634  0.3701
 6387TIP3    H119167   0.671   1.292   2.318 -0.8586  0.5658 -0.9922
 6387TIP3    H219168   0.544   1.247   2.250 -1.2036 -0.5188  0.3344
 6388TIP3   OH219169   0.787   3.648   3.683  0.0978 -0.0378  0.0232
 6388TIP3    H119170   0.729   3.623   3.612  0.0346 -0.1069  0.0991
 6388TIP3    H219171   0.875   3.634   3.649  0.1038  1.1001 -0.4833
 6389TIP3   OH219172   0.256   0.072   3.216 -0.9851 -0.3002 -0.2408
 6389TIP3    H119173   0.272   0.072   3.122  1.8211  2.2829  0.0833
 6389TIP3    H219174   0.340   0.046   3.255 -2.1448 -1.5609  1.5872
 6390TIP3   OH219175   4.758   0.630   4.358  0.3156 -0.3102 -0.5664
 6390TIP3    H119176   4.828   0.608   4.420 -0.0759  0.3164  0.1145
 6390TIP3    H219177   4.786   0.712   4.318 -0.4587  0.4835  0.4362
 6391TIP3   OH219178   5.719   4.765   2.383 -0.0476  0.3359 -0.2514
 6391TIP3    H119179   5.691   4.707   2.312 -0.9900  1.0824 -0.5138
 6391TIP3    H219180   5.764   4.708   2.445 -0.2975 -0.5400 -0.8607
 6392TIP3   OH219181   1.616   2.487   5.146 -0.3492 -0.4323  0.4292
 6392TIP3    H119182   1.624   2.560   5.207  0.0499 -0.3512  0.2808
 6392TIP3    H219183   1.705   2.451   5.140 -0.4721 -0.7058  0.2271
 6393TIP3   OH219184   4.560   2.807   2.929 -0.1650 -0.2071  0.0152
 6393TIP3    H119185   4.595   2.891   2.960  1.1401 -0.6940 -0.0682
 6393TIP3    H219186   4.480   2.794   2.980  0.5135  0.2905  1.2587
 6394TIP3   OH219187   5.274   0.224   0.848  0.6210  0.0865 -0.3022
 6394TIP3    H119188   5.264   0.241   0.941 -0.4987 -0.3053 -0.3361
 6394TIP3    H219189   5.340   0.154   0.843  1.9911  1.2979  0.0687
 6395TIP3   OH219190   2.141   2.924   3.477 -0.1807  0.4407  0.4866
 6395TIP3    H119191   2.129   2.890   3.565 -1.7642  1.0292  0.5314
 6395TIP3    H219192   2.186   3.008   3.490  0.6198  0.0010  0.6277
 6396TIP3   OH219193   0.728   0.324   2.320  0.2853  0.2918 -0.7473
 6396TIP3    H119194   0.739   0.403   2.372  1.0536 -0.1579 -0.2008
 6396TIP3    H219195   0.637   0.299   2.333  0.1603  0.8344 -0.5579
 6397TIP3   OH219196   1.189   4.193   4.431 -0.0408 -0.3330  0.0327
 6397TIP3    H119197   1.199   4.254   4.358 -0.5574 -0.4339 -0.1229
 6397TIP3    H219198   1.095   4.176   4.436 -0.2568  1.0155  1.7985
 6398TIP3   OH219199   3.899   5.794   4.297  0.0872 -0.4789 -0.1316
 6398TIP3    H119200   3.993   5.809   4.301 -0.1664  1.0510  0.8336
 6398TIP3    H219201   3.862   5.853   4.363 -1.6352 -0.3369 -1.1542
 6399TIP3   OH219202   0.458   3.776   0.865 -0.0198 -0.6764  0.8114
 6399TIP3    H119203   0.430   3.868   0.863  0.4358 -0.5306  0.8164
 6399TIP3    H219204   0.500   3.763   0.780 -1.2653 -1.2746  0.2657
 6400TIP3   OH219205   2.119   2.646   1.795  0.5248 -0.6924  0.1666
 6400TIP3    H119206   2.138   2.693   1.714 -1.4021  0.5511  0.3702
 6400TIP3    H219207   2.148   2.705   1.864  0.6773 -1.0340  0.3944
 6401TIP3   OH219208   4.281   3.636   1.165  0.3001  0.4895  0.6729
 6401TIP3    H119209   4.360   3.582   1.156  0.7217  0.8842  1.8683
 6401TIP3    H219210   4.310   3.725   1.145  0.0070  0.5420  0.4780
 6402TIP3   OH219211   3.813   0.556   0.904 -0.4012 -0.1778  0.3435
 6402TIP3    H119212   3.862   0.524   0.979  2.0378 -0.0512 -1.0921
 6402TIP3    H219213   3.759   0.482   0.876  0.3044 -0.9272  0.9329
 6403TIP3   OH219214   6.127   2.140   4.195  0.4536 -0.5044  0.0180
 6403TIP3    H119215   6.115   2.190   4.276  1.8249 -0.4210  0.1872
 6403TIP3    H219216   6.214   2.166   4.164 -0.7471  0.8671 -2.4847
 6404TIP3   OH219217   4.907   0.399   3.327 -0.5934 -0.0868 -0.2818
 6404TIP3    H119218   4.823   0.354   3.336 -1.2320  0.9630 -0.7560
 6404TIP3    H219219   4.947   0.362   3.249 -2.1917  1.7495 -2.0826
 6405TIP3   OH219220   3.823   4.311   4.361 -0.3026  0.4701  0.0339
 6405TIP3    H119221   3.851   4.401   4.347 -0.8760  0.9166  1.5863
 6405TIP3    H219222   3.733   4.308   4.329  0.0043  0.2038 -0.8287
 6406TIP3   OH219223   5.307   1.059   2.762 -0.2542 -0.2181 -0.3351
 6406TIP3    H119224   5.220   1.031   2.733 -1.0607  1.4060  0.4266
 6406TIP3    H219225   5.324   1.139   2.712  0.7137 -0.4050 -0.3172
 6407TIP3   OH219226   2.288   0.230   3.316 -0.1547 -0.2123 -0.2853
 6407TIP3    H119227   2.343   0.258   3.389  0.7142 -3.1984  0.3404
 6407TIP3    H219228   2.199   0.230   3.351 -0.0100  0.4249  0.0936
 6408TIP3   OH219229   6.240   2.950   2.106  0.4458  0.0544  0.1767
 6408TIP3    H119230   6.214   3.041   2.094  0.9686  0.1075 -0.6550
 6408TIP3    H219231   6.328   2.955   2.144  0.8110 -0.0829 -0.6224
 6409TIP3   OH219232   3.455   3.909   3.010 -0.1220 -0.0529  0.3200
 6409TIP3    H119233   3.393   3.981   3.021  2.5378  2.1884  1.7853
 6409TIP3    H219234   3.531   3.949   2.969  1.0679 -2.3228  0.1644
 6410TIP3   OH219235   0.782   2.811   1.377  0.3669 -0.7829 -0.1315
 6410TIP3    H119236   0.838   2.792   1.452  0.9810 -1.1227 -0.6697
 6410TIP3    H219237   0.812   2.896   1.345 -1.1859  0.3123  1.1735
 6411TIP3   OH219238   5.045   0.486   4.201  0.5246  0.1704 -0.2878
 6411TIP3    H119239   4.986   0.421   4.161  1.0582 -0.3189 -0.2964
 6411TIP3    H219240   5.022   0.484   4.294  1.9361 -1.5770  0.0780
 6412TIP3   OH219241   3.325   3.997   2.694 -0.0362 -0.1443 -0.5511
 6412TIP3    H119242   3.235   4.027   2.679  0.0733  0.8626  0.6917
 6412TIP3    H219243   3.380   4.066   2.658  0.2385 -0.5660 -0.9400
 6413TIP3   OH219244   5.658   0.044   4.216  0.0159 -0.3282  0.4107
 6413TIP3    H119245   5.650   0.139   4.222 -0.4918 -0.2531 -0.9581
 6413TIP3    H219246   5.734   0.030   4.159  0.8090 -0.7789  1.5482
 6414TIP3   OH219247   3.703   1.260   0.145 -0.2533 -0.0291  0.1735
 6414TIP3    H119248   3.619   1.239   0.185 -0.5736  0.3402 -0.2997
 6414TIP3    H219249   3.751   1.306   0.214 -0.5383  0.0039  0.3517
 6415TIP3   OH219250   4.899   3.907   2.739  0.5253  0.2152  0.3227
 6415TIP3    H119251   4.830   3.960   2.698  0.9051  0.6769  0.2656
 6415TIP3    H219252   4.928   3.960   2.814 -0.1455 -0.6067  1.1809
 6416TIP3   OH219253   3.973   4.821   0.014  0.0625  0.3599 -0.3302
 6416TIP3    H119254   3.919   4.857   0.084  1.1566 -0.0453  0.7673
 6416TIP3    H219255   3.980   4.892  -0.050  0.9765  1.6237  1.0932
 6417TIP3   OH219256   0.525   5.371   5.111  1.3036  0.4856  0.4822
 6417TIP3    H119257   0.480   5.451   5.085  3.9041  1.9878  0.2644
 6417TIP3    H219258   0.456   5.315   5.147 -1.0120  1.7916 -1.6240
 6418TIP3   OH219259   0.849   1.544   0.978 -0.2061 -0.3772  0.3107
 6418TIP3    H119260   0.885   1.560   1.065  2.0742  0.8068 -0.7516
 6418TIP3    H219261   0.914   1.580   0.918 -1.5933 -1.3314 -1.9172
 6419TIP3   OH219262   3.477   5.887   0.589 -0.6161 -0.2653 -0.1467
 6419TIP3    H119263   3.390   5.925   0.578 -0.4319  0.6853  1.3198
 6419TIP3    H219264   3.487   5.878   0.684  0.2328 -1.9690 -0.3501
 6420TIP3   OH219265   3.618   5.496   1.234 -0.3137  0.2061 -0.3078
 6420TIP3    H119266   3.565   5.423   1.265 -0.2718  0.4585  0.3863
 6420TIP3    H219267   3.644   5.543   1.314  0.0328  0.7194 -0.7090
 6421TIP3   OH219268   3.538   4.161   0.353 -0.4932 -0.1988  0.1242
 6421TIP3    H119269   3.567   4.133   0.440  1.2718 -0.5929 -0.5734
 6421TIP3    H219270   3.593   4.236   0.332 -1.5369  0.4817 -0.3096
 6422TIP3   OH219271   3.124   0.330   0.178 -0.3450  0.6176  0.0070
 6422TIP3    H119272   3.139   0.424   0.187 -2.2000  0.9165  0.4575
 6422TIP3    H219273   3.144   0.310   0.087 -0.2318  1.5177 -0.1701
 6423TIP3   OH219274   1.686   0.625   4.343  0.1005 -0.1441  0.5152
 6423TIP3    H119275   1.651   0.611   4.431  1.5307  1.0800  1.3273
 6423TIP3    H219276   1.769   0.576   4.343  0.2898  0.1733  0.0007
 6424TIP3   OH219277   2.458   4.511   4.903 -0.1845  0.6686  0.3300
 6424TIP3    H119278   2.514   4.459   4.846  1.9079  2.7891  0.3198
 6424TIP3    H219279   2.377   4.523   4.852 -0.8901 -2.6358  0.4477
 6425TIP3   OH219280   2.409   0.389   3.505 -0.3444 -0.2618  0.4915
 6425TIP3    H119281   2.495   0.347   3.494 -1.4602 -2.4492 -0.4957
 6425TIP3    H219282   2.414   0.468   3.451  0.7905 -0.7837 -0.2178
 6426TIP3   OH219283   2.505   2.448   1.689 -1.0522 -0.6729  0.2243
 6426TIP3    H119284   2.415   2.479   1.676 -1.1476 -1.0011  0.0732
 6426TIP3    H219285   2.539   2.502   1.760 -0.4610  1.2895 -1.4622
 6427TIP3   OH219286   3.645   1.069   2.256 -0.5528  0.5215  1.1844
 6427TIP3    H119287   3.675   1.155   2.227 -1.6232  0.2940 -0.7108
 6427TIP3    H219288   3.565   1.087   2.305 -1.7118  0.5386 -0.6217
 6428TIP3   OH219289   5.864   5.349   0.791 -0.0344  0.2824 -0.1388
 6428TIP3    H119290   5.868   5.255   0.806  0.4987 -0.1296 -2.4520
 6428TIP3    H219291   5.773   5.365   0.766  0.4810 -0.1771 -2.5399
 6429TIP3   OH219292   4.850   2.186   1.982 -0.2498  0.0583  0.2523
 6429TIP3    H119293   4.856   2.177   1.887 -1.1750 -1.0379  0.2839
 6429TIP3    H219294   4.913   2.255   2.003 -0.7646  1.0271 -1.2578
 6430TIP3   OH219295   0.451   5.845   1.931  0.3965 -0.0221 -0.3188
 6430TIP3    H119296   0.372   5.885   1.966  0.1721 -1.5723  1.0642
 6430TIP3    H219297   0.430   5.752   1.925  0.9646 -0.0600 -3.2078
 6431TIP3   OH219298   5.940   4.859   3.851  0.6935  0.4676  0.3188
 6431TIP3    H119299   5.883   4.931   3.826  0.1632 -0.6816 -2.0096
 6431TIP3    H219300   6.019   4.902   3.885 -0.2526  2.0889  0.5891
 6432TIP3   OH219301   0.574   4.702   0.373 -0.1808 -0.0936  0.2690
 6432TIP3    H119302   0.669   4.707   0.362 -0.3856  1.6913 -1.1704
 6432TIP3    H219303   0.541   4.782   0.332 -2.2815 -0.3959  1.2503
 6433TIP3   OH219304   2.133   0.718   0.052 -0.2788 -0.0461 -0.9184
 6433TIP3    H119305   2.105   0.627   0.043 -1.0977  0.1219 -0.1540
 6433TIP3    H219306   2.207   0.726  -0.008  0.6781 -1.5806  0.0032
 6434TIP3   OH219307   3.742   2.578   1.966 -0.1195  0.4954 -0.5192
 6434TIP3    H119308   3.811   2.595   1.901  1.6996 -2.5056  0.4132
 6434TIP3    H219309   3.699   2.499   1.934 -1.4367  0.8756  0.2576
 6435TIP3   OH219310   0.922   0.370   2.889 -0.0250 -0.2007  0.5476
 6435TIP3    H119311   0.964   0.452   2.916 -0.7927  0.4226 -0.0641
 6435TIP3    H219312   0.846   0.362   2.947 -0.8722  0.3985 -0.4383
 6436TIP3   OH219313   5.305   0.103   2.620 -0.3467  0.4484  0.0896
 6436TIP3    H119314   5.311   0.132   2.528  1.9259  1.3249  0.4677
 6436TIP3    H219315   5.300   0.008   2.614  2.0229  0.3087 -0.9582
 6437TIP3   OH219316   3.955   0.238   4.571 -0.3324  0.4816  0.0811
 6437TIP3    H119317   3.966   0.255   4.477  0.9662 -0.1158  0.0993
 6437TIP3    H219318   3.986   0.318   4.614 -0.4952  0.5842  0.0065
 6438TIP3   OH219319   5.249   0.723   0.514 -0.0114 -0.5465  0.5337
 6438TIP3    H119320   5.279   0.808   0.480 -0.4561 -1.4365 -2.3388
 6438TIP3    H219321   5.324   0.665   0.500 -0.4201 -1.0732  0.5255
 6439TIP3   OH219322   5.990   3.774   2.033 -0.1504 -0.5140 -0.3928
 6439TIP3    H119323   6.053   3.715   1.993 -1.6993 -1.9950 -0.7235
 6439TIP3    H219324   5.910   3.723   2.042 -1.0330  0.9835  0.9729
 6440TIP3   OH219325   0.947   5.942   2.668  0.0056  1.0941 -0.3126
 6440TIP3    H119326   0.956   5.847   2.660  0.3718  0.7254  3.2667
 6440TIP3    H219327   1.036   5.976   2.661  0.3577  0.7523  1.8644
 6441TIP3   OH219328   4.709   1.092   3.470  0.1187  0.0163 -0.0494
 6441TIP3    H119329   4.666   1.088   3.556  1.4297 -0.2104  0.6183
 6441TIP3    H219330   4.748   1.179   3.467 -0.4744  0.2735 -0.7154
 6442TIP3   OH219331   0.115   3.073   4.181 -0.0096 -0.5002  0.6263
 6442TIP3    H119332   0.167   3.060   4.102 -1.6483 -0.2228 -0.5471
 6442TIP3    H219333   0.117   3.168   4.196  0.0163 -0.5155  0.7206
 6443TIP3   OH219334   1.478   3.631   2.530 -0.2157 -0.2021  0.6690
 6443TIP3    H119335   1.425   3.573   2.584 -0.5223 -1.9631 -1.3965
 6443TIP3    H219336   1.568   3.613   2.556 -0.3139 -1.5614  0.1414
 6444TIP3   OH219337   1.486   5.621   2.984  0.0961  0.0310 -0.3832
 6444TIP3    H119338   1.426   5.587   2.916  0.1050  0.1083 -0.4293
 6444TIP3    H219339   1.526   5.543   3.021  0.6162  0.0226 -0.9467
 6445TIP3   OH219340   5.029   0.884   3.040  0.1364  0.0589 -0.1548
 6445TIP3    H119341   5.034   0.928   2.955 -0.5451 -0.2979 -0.3839
 6445TIP3    H219342   4.984   0.946   3.097 -0.5865 -0.2145 -0.4093
 6446TIP3   OH219343   1.623   0.988   3.450  0.2666 -0.1760 -0.3103
 6446TIP3    H119344   1.620   0.949   3.537 -1.1448  1.0591  0.2480
 6446TIP3    H219345   1.531   1.003   3.427  0.6532  0.3161 -1.6410
 6447TIP3   OH219346   3.903   1.061   4.774 -0.2452 -0.1794 -0.3228
 6447TIP3    H119347   3.895   1.083   4.867 -0.5764  0.4348 -0.4948
 6447TIP3    H219348   3.979   1.111   4.744  0.0834 -0.6587 -0.3042
 6448TIP3   OH219349   1.354   0.009   2.256  0.2993  0.0067  0.0732
 6448TIP3    H119350   1.422  -0.044   2.214  1.2773  0.0165  1.5390
 6448TIP3    H219351   1.381   0.099   2.240  0.9151  0.0113  1.0136
 6449TIP3   OH219352   2.710   0.508   2.588  0.2718 -0.3522 -0.0269
 6449TIP3    H119353   2.787   0.464   2.552 -0.7767 -1.2111 -1.3053
 6449TIP3    H219354   2.719   0.600   2.563 -0.4300 -0.9235 -2.5965
 6450TIP3   OH219355   1.892   1.113   0.668 -0.3225 -0.6127  0.4207
 6450TIP3    H119356   1.825   1.129   0.602  2.8391  2.2879 -2.4711
 6450TIP3    H219357   1.932   1.030   0.643  0.2720  0.0400 -0.8647
 6451TIP3   OH219358   4.638   5.076   0.139 -0.3010 -0.7653 -0.2030
 6451TIP3    H119359   4.614   5.152   0.192  1.6461 -0.0803 -0.2408
 6451TIP3    H219360   4.648   5.004   0.201  4.2652  0.5336  0.8982
 6452TIP3   OH219361   2.008   2.902   0.557  0.5419 -0.2301  0.2682
 6452TIP3    H119362   1.992   2.996   0.562 -0.8549 -0.5160  2.6142
 6452TIP3    H219363   1.948   2.864   0.621  1.0565 -2.7383 -0.6335
 6453TIP3   OH219364   4.162   4.855   1.594 -0.3181 -0.1944 -0.2868
 6453TIP3    H119365   4.074   4.879   1.566 -0.0392  1.8079  0.3721
 6453TIP3    H219366   4.174   4.901   1.678  1.9367  1.0599 -1.1857
 6454TIP3   OH219367   3.197   4.941   2.987 -0.0665  0.1040 -0.8424
 6454TIP3    H119368   3.253   4.864   2.981 -0.1189 -0.0973  0.7953
 6454TIP3    H219369   3.241   4.998   3.050 -1.9819 -0.3408  0.9942
 6455TIP3   OH219370   0.132   4.928   1.981 -0.6333  0.3295  0.0374
 6455TIP3    H119371   0.182   4.884   1.913 -0.0819  0.3396  0.4259
 6455TIP3    H219372   0.041   4.902   1.965 -0.1629 -2.6263  1.4428
 6456TIP3   OH219373   5.875   0.257   3.441  0.2851 -0.0507  0.5906
 6456TIP3    H119374   5.862   0.322   3.511  0.9393 -0.7417  1.3807
 6456TIP3    H219375   5.953   0.287   3.394  1.3059 -0.8564  1.6982
 6457TIP3   OH219376   6.056   5.930   4.281  0.0482  0.6611  0.1625
 6457TIP3    H119377   5.993   5.859   4.277 -0.1152  0.6137  2.2947
 6457TIP3    H219378   6.096   5.933   4.194 -0.6386 -1.3741 -0.2603
 6458TIP3   OH219379   1.417   3.204   2.681  0.3052  0.0694  0.3205
 6458TIP3    H119380   1.384   3.115   2.698  3.2605 -1.4670 -1.1708
 6458TIP3    H219381   1.385   3.225   2.594  1.5357 -0.5962 -0.3163
 6459TIP3   OH219382   2.688   1.360   4.123 -0.1399 -0.1275 -0.2879
 6459TIP3    H119383   2.690   1.400   4.036  0.7342  0.6493  0.0645
 6459TIP3    H219384   2.758   1.405   4.171  1.6972 -2.8110 -0.1872
 6460TIP3   OH219385   2.737   4.859   2.696  0.3957  0.0809  0.2718
 6460TIP3    H119386   2.648   4.834   2.669  0.0546 -0.0247  1.4736
 6460TIP3    H219387   2.753   4.941   2.649 -1.1192  1.1667  1.5503
 6461TIP3   OH219388   2.575   0.411   4.495 -0.6300  0.4698  0.3812
 6461TIP3    H119389   2.589   0.478   4.563 -0.0710  0.3917  0.3514
 6461TIP3    H219390   2.561   0.461   4.415 -0.5995  0.5545  0.4286
 6462TIP3   OH219391   2.087   5.562   5.187  0.4038  0.9807  0.6297
 6462TIP3    H119392   2.017   5.508   5.150 -0.4872  1.7293  1.1495
 6462TIP3    H219393   2.133   5.597   5.111  0.9314 -0.4095  0.2932
 6463TIP3   OH219394   4.890   1.729   4.185 -0.1815  0.5059  0.1385
 6463TIP3    H119395   4.953   1.669   4.224 -0.8966  1.1744  2.5247
 6463TIP3    H219396   4.935   1.813   4.182 -0.1208  0.4572 -0.5784
 6464TIP3   OH219397   2.412   4.990   0.935  0.1474 -0.0724  0.2644
 6464TIP3    H119398   2.347   5.045   0.980  0.9242  0.7580  0.4067
 6464TIP3    H219399   2.431   5.037   0.854  1.2289  0.1740  0.6387
 6465TIP3   OH219400   3.952   5.125   0.772 -0.2931  0.3430  0.0466
 6465TIP3    H119401   3.904   5.121   0.689 -0.1834  1.7717 -0.1221
 6465TIP3    H219402   3.898   5.077   0.834 -0.1803 -1.0982 -0.9376
 6466TIP3   OH219403   4.147   3.424   0.432  0.1290  0.5440 -0.3907
 6466TIP3    H119404   4.074   3.468   0.387  0.5759  1.1735 -0.5130
 6466TIP3    H219405   4.118   3.333   0.441 -1.0450  0.9623  0.3386
 6467TIP3   OH219406   1.104   5.592   3.080 -0.2870  0.3318  0.4574
 6467TIP3    H119407   1.137   5.588   3.170  0.2739  1.1890  0.3041
 6467TIP3    H219408   1.123   5.681   3.052  0.4451 -0.2067 -0.8487
 6468TIP3   OH219409   4.774   2.478   2.989  0.1393  1.0202 -0.0457
 6468TIP3    H119410   4.856   2.470   3.038  0.9108  0.2860 -1.3658
 6468TIP3    H219411   4.789   2.554   2.932  0.6032 -0.1133 -1.4895
 6469TIP3   OH219412   2.391   1.834   0.833  0.2337  0.3791 -0.0396
 6469TIP3    H119413   2.404   1.755   0.781 -1.3212 -0.1187  0.2555
 6469TIP3    H219414   2.404   1.805   0.923  2.4189  1.1229 -0.0725
 6470TIP3   OH219415   4.564   3.906   3.922 -0.1687 -0.5288 -0.3564
 6470TIP3    H119416   4.551   3.811   3.926 -2.4062 -0.2324  2.5310
 6470TIP3    H219417   4.557   3.935   4.013 -0.3481  2.5255 -1.2363
 6471TIP3   OH219418   3.112   2.452   4.000 -0.1141 -0.2254  0.2341
 6471TIP3    H119419   3.128   2.503   3.921 -0.4469  0.2365  0.4547
 6471TIP3    H219420   3.181   2.481   4.061 -1.3189  1.2860  0.9616
 6472TIP3   OH219421   3.340   4.963   4.203 -0.1710 -0.1875  0.0147
 6472TIP3    H119422   3.315   4.970   4.295 -1.3545  0.3756 -0.3408
 6472TIP3    H219423   3.340   5.053   4.171 -1.8412 -0.5319 -1.0607
 6473TIP3   OH219424   1.788   4.011   2.139 -0.1426 -0.1102  0.3001
 6473TIP3    H119425   1.844   4.072   2.092 -1.2490  1.4338  0.9149
 6473TIP3    H219426   1.801   3.927   2.095  2.8442  0.0935  0.6123
 6474TIP3   OH219427   5.971   3.154   1.055 -0.3528 -0.5414 -0.4692
 6474TIP3    H119428   5.925   3.094   0.996 -1.2583 -0.8876  0.5620
 6474TIP3    H219429   5.983   3.234   1.003 -0.2536 -1.1755 -1.4369
 6475TIP3   OH219430   2.159   5.791   0.236  0.1703  0.0681  0.3600
 6475TIP3    H119431   2.203   5.844   0.170 -0.7428 -0.8607 -1.0478
 6475TIP3    H219432   2.227   5.733   0.270  0.8283  1.0915  0.8461
 6476TIP3   OH219433   3.916   4.791   1.465 -0.1581  0.1128  0.3166
 6476TIP3    H119434   3.950   4.706   1.493  2.2839  1.7426  2.7347
 6476TIP3    H219435   3.861   4.821   1.537  0.6625  1.4268  0.4381
 6477TIP3   OH219436   1.661   4.247   4.961  0.6685 -0.3722 -0.1797
 6477TIP3    H119437   1.651   4.310   4.890  1.5178 -0.0525 -0.0242
 6477TIP3    H219438   1.619   4.290   5.036  0.8591 -0.1691 -0.1851
 6478TIP3   OH219439   4.264   5.770   3.577  0.0370  0.0758 -0.4314
 6478TIP3    H119440   4.268   5.678   3.551  0.2305  0.2281 -0.9562
 6478TIP3    H219441   4.350   5.788   3.615 -0.4209 -0.2899  0.8490
 6479TIP3   OH219442   5.876   2.228   2.350 -0.4398 -0.1744 -0.0888
 6479TIP3    H119443   5.916   2.228   2.263 -2.1028 -2.2021 -0.9413
 6479TIP3    H219444   5.947   2.201   2.409  0.0232 -1.6538 -1.2597
 6480TIP3   OH219445   1.214   1.993   3.091  0.0335  0.4662 -0.4647
 6480TIP3    H119446   1.223   1.913   3.144 -0.1017 -0.3404 -1.6262
 6480TIP3    H219447   1.277   2.053   3.129  0.8330 -0.5300 -0.1620
 6481TIP3   OH219448   0.218   1.579   4.794 -0.3189 -0.0085  0.2318
 6481TIP3    H119449   0.296   1.591   4.848  0.8048  3.1818 -1.7687
 6481TIP3    H219450   0.144   1.600   4.852  0.2073 -2.5982  2.0147
 6482TIP3   OH219451   6.275   1.034   2.903 -0.7018  0.2412 -0.5921
 6482TIP3    H119452   6.206   0.972   2.926 -0.0319 -0.6230 -0.8836
 6482TIP3    H219453   6.278   1.033   2.808  0.4644 -0.5822 -0.5638
 6483TIP3   OH219454   0.215   3.739   2.189 -0.6791  0.4583  0.4527
 6483TIP3    H119455   0.257   3.791   2.257  0.5299  0.1184 -0.0153
 6483TIP3    H219456   0.196   3.655   2.231  2.4261 -0.7128 -0.2631
 6484TIP3   OH219457   1.494   0.053   2.807  0.1641  0.2848  0.1319
 6484TIP3    H119458   1.577   0.095   2.786  0.5343  0.4636  1.7974
 6484TIP3    H219459   1.495  -0.029   2.759  0.7925  0.7960 -0.7510
 6485TIP3   OH219460   2.790   1.613   3.382 -0.5288  0.0981  0.5176
 6485TIP3    H119461   2.737   1.657   3.447 -1.3210  0.4175 -0.3258
 6485TIP3    H219462   2.801   1.677   3.312 -1.0930 -0.7638 -0.3992
 6486TIP3   OH219463   3.356   3.248   3.897 -0.4856 -0.8111 -0.3689
 6486TIP3    H119464   3.295   3.263   3.970  0.3715 -0.2769  0.2647
 6486TIP3    H219465   3.360   3.332   3.851 -0.0938 -0.7784 -0.2859
 6487TIP3   OH219466   5.836   3.294   1.971  0.1467 -0.2729 -0.4424
 6487TIP3    H119467   5.923   3.254   1.963 -0.4640 -1.5872 -0.7669
 6487TIP3    H219468   5.822   3.303   2.065  0.6238 -0.0722 -0.3871
 6488TIP3   OH219469   5.450   0.117   0.036  0.3525  0.0349  0.1176
 6488TIP3    H119470   5.425   0.141  -0.054  1.4761 -1.1125 -0.5253
 6488TIP3    H219471   5.393   0.043   0.057 -0.4607  0.8008  0.6666
 6489TIP3   OH219472   2.860   1.028   3.417  0.4719  0.4107 -0.1119
 6489TIP3    H119473   2.872   0.933   3.417 -0.3758  0.2591 -1.9299
 6489TIP3    H219474   2.785   1.042   3.476  1.6293  0.1675  1.4929
 6490TIP3   OH219475   4.845   5.195   2.304  0.1245 -0.0973 -0.7031
 6490TIP3    H119476   4.861   5.286   2.277 -0.0130 -0.3909 -1.8205
 6490TIP3    H219477   4.802   5.203   2.389  1.4315  0.8377 -0.0882
 6491TIP3   OH219478   0.493   2.502   0.455  0.1288  0.7678 -0.5113
 6491TIP3    H119479   0.480   2.577   0.513 -1.1787  2.1081 -2.4154
 6491TIP3    H219480   0.433   2.435   0.488 -2.3129  2.3107 -1.5187
 6492TIP3   OH219481   4.089   5.245   1.527  0.1434  0.3404  0.2302
 6492TIP3    H119482   4.023   5.179   1.547  0.6604 -0.3200 -0.1835
 6492TIP3    H219483   4.072   5.270   1.437  0.3365  0.3075  0.1836
 6493TIP3   OH219484   4.923   1.029   4.018 -0.0826 -0.1223 -0.8288
 6493TIP3    H119485   4.938   1.065   3.931  0.8309 -0.4125 -0.8033
 6493TIP3    H219486   4.965   1.091   4.077 -1.7237  0.6999 -0.4816
 6494TIP3   OH219487   4.881   0.588   5.116  0.6013  0.0403 -0.0674
 6494TIP3    H119488   4.900   0.681   5.106  1.0763 -0.1059 -0.6279
 6494TIP3    H219489   4.841   0.580   5.203 -0.7196  0.9448 -0.5689
 6495TIP3   OH219490   4.702   1.645   0.284  0.4532 -0.1395  0.1812
 6495TIP3    H119491   4.753   1.666   0.363  0.8944  1.4385 -0.4841
 6495TIP3    H219492   4.658   1.563   0.306  1.5416 -0.3983  1.6043
 6496TIP3   OH219493   5.592   1.821   0.580  0.3927  0.2127  0.5651
 6496TIP3    H119494   5.660   1.884   0.554 -0.0780  0.5881  0.2256
 6496TIP3    H219495   5.523   1.875   0.619  0.3187 -0.1746  0.9718
 6497TIP3   OH219496   2.828   3.266   1.269 -0.7379 -0.4624  0.2578
 6497TIP3    H119497   2.891   3.278   1.339 -0.5682 -0.5789  0.1263
 6497TIP3    H219498   2.880   3.264   1.189 -0.7966 -1.5483  0.2288
 6498TIP3   OH219499   0.915   3.040   1.326 -0.3899  0.1946  0.5659
 6498TIP3    H119500   0.885   3.115   1.379 -0.6390  0.2966  0.2840
 6498TIP3    H219501   0.941   3.079   1.243 -0.9253 -0.0761  0.2638
 6499TIP3   OH219502   2.475   0.593   3.332 -0.5433  0.0079 -0.4530
 6499TIP3    H119503   2.404   0.615   3.272 -1.3507  1.5143  0.9789
 6499TIP3    H219504   2.497   0.675   3.375  0.9392 -0.7656  0.3610
 6500TIP3   OH219505   5.883   1.773   2.402 -0.5373  0.1619 -0.2405
 6500TIP3    H119506   5.916   1.854   2.440 -0.0236 -0.7037  1.2790
 6500TIP3    H219507   5.884   1.711   2.475 -1.7650 -0.9739 -1.1428
 6501TIP3   OH219508   1.810   4.881   3.800  0.1240  0.2851  0.2669
 6501TIP3    H119509   1.843   4.807   3.749  1.3237  1.4465 -0.7342
 6501TIP3    H219510   1.717   4.862   3.812  0.2743 -1.0737 -0.5047
 6502TIP3   OH219511   1.162   1.316   2.596 -0.2539 -0.5527  0.1663
 6502TIP3    H119512   1.089   1.289   2.651 -1.2375  1.5400  0.0191
 6502TIP3    H219513   1.140   1.406   2.571  1.8130 -0.2796 -0.8670
 6503TIP3   OH219514   2.589   3.676   4.531  0.0600 -0.5751 -0.6541
 6503TIP3    H119515   2.604   3.675   4.626 -1.2992  0.1930 -0.4056
 6503TIP3    H219516   2.651   3.741   4.497 -0.4996  0.2816 -0.0775
 6504TIP3   OH219517   2.155   4.570   2.362  0.6119  0.3774  0.6406
 6504TIP3    H119518   2.084   4.526   2.315 -0.8163  2.3030  0.8882
 6504TIP3    H219519   2.138   4.553   2.454  0.3110  1.0495  0.7138
 6505TIP3   OH219520   1.907   5.663   4.350 -0.1200  0.2989  0.1149
 6505TIP3    H119521   1.888   5.577   4.388 -1.5245  0.1068 -0.9184
 6505TIP3    H219522   1.972   5.645   4.282  0.8190  0.3197  0.9951
 6506TIP3   OH219523   3.888   3.231   4.542 -0.3162 -0.2862 -0.2531
 6506TIP3    H119524   3.810   3.256   4.591 -0.0570 -1.1607  0.6507
 6506TIP3    H219525   3.929   3.314   4.518 -0.7529  0.1733  0.5405
 6507TIP3   OH219526   2.512   2.667   1.227 -0.2066 -0.3652  0.0184
 6507TIP3    H119527   2.435   2.623   1.193  0.7635 -1.3266 -1.0238
 6507TIP3    H219528   2.532   2.623   1.309  0.2067 -1.2736 -0.5540
 6508TIP3   OH219529   4.087   3.157   3.976  0.2865 -0.2688 -0.0473
 6508TIP3    H119530   4.128   3.223   3.921  1.2611  0.7932  1.8584
 6508TIP3    H219531   4.003   3.196   4.002  0.5122 -0.0969  0.4395
 6509TIP3   OH219532   4.391   3.919   2.108 -0.1051 -0.0185 -0.2764
 6509TIP3    H119533   4.450   3.994   2.114  0.1035 -0.1518 -0.6789
 6509TIP3    H219534   4.336   3.936   2.032 -1.1942  0.5333  0.6092
 6510TIP3   OH219535   2.079   4.687   1.583 -0.1273 -0.1774  0.1450
 6510TIP3    H119536   2.059   4.616   1.644  5.0268 -1.5186  0.7795
 6510TIP3    H219537   2.050   4.767   1.628 -2.5946 -1.5380  1.1276
 6511TIP3   OH219538   0.349   1.391   1.209 -0.1113 -0.8243 -0.2000
 6511TIP3    H119539   0.399   1.453   1.261 -0.2509 -0.7191 -0.1910
 6511TIP3    H219540   0.395   1.386   1.125 -0.9698  0.4730 -0.7778
 6512TIP3   OH219541   0.209   0.880   2.786  0.5838 -0.0574 -0.3867
 6512TIP3    H119542   0.221   0.820   2.859  1.7267  0.2636 -0.2860
 6512TIP3    H219543   0.279   0.944   2.796  0.0189  0.6876 -1.0858
 6513TIP3   OH219544   3.724   0.178   1.471 -0.1693  0.3411  0.0465
 6513TIP3    H119545   3.679   0.253   1.433  1.2838  1.3768  0.2634
 6513TIP3    H219546   3.712   0.187   1.566  2.2944  1.9340  0.2939
 6514TIP3   OH219547   2.549   5.011   4.363  1.0817 -0.0013 -0.3270
 6514TIP3    H119548   2.478   5.067   4.332  0.2995 -1.5534 -1.4953
 6514TIP3    H219549   2.554   5.028   4.457 -0.6841  0.3477 -0.2688
 6515TIP3   OH219550   2.046   0.983   3.973 -0.2474  0.7850 -0.1473
 6515TIP3    H119551   1.966   0.940   4.005  0.9087 -2.4108 -1.1711
 6515TIP3    H219552   2.113   0.960   4.038  0.2735  1.7150 -0.3427
 6516TIP3   OH219553   2.817   0.528   2.859 -0.5261 -0.0343 -0.8122
 6516TIP3    H119554   2.832   0.619   2.832  0.0747 -0.5798 -2.4248
 6516TIP3    H219555   2.738   0.502   2.812  0.3539 -0.9065 -1.8558
 6517TIP3   OH219556   4.083   2.962   0.804 -0.3647 -0.0491 -0.2189
 6517TIP3    H119557   3.990   2.960   0.782 -0.1780 -0.0950 -1.0551
 6517TIP3    H219558   4.123   2.903   0.741  0.4017  0.9929 -0.7279
 6518TIP3   OH219559   4.534   1.244   1.651  0.0600  0.2393 -0.0670
 6518TIP3    H119560   4.467   1.219   1.714  1.0961 -0.3752  0.8346
 6518TIP3    H219561   4.597   1.295   1.702  1.1319 -0.6252 -0.4823
 6519TIP3   OH219562   6.053   6.007   0.061  0.2598 -0.4747 -0.4936
 6519TIP3    H119563   6.138   5.979   0.027 -0.1338 -3.7029  0.8492
 6519TIP3    H219564   6.001   5.926   0.066 -2.1677  1.0442  0.7367
 6520TIP3   OH219565   4.589   1.309   4.154  0.2701  0.4324 -0.5096
 6520TIP3    H119566   4.597   1.397   4.116 -1.2380  0.3340 -1.1252
 6520TIP3    H219567   4.585   1.324   4.248 -0.6256  1.1108 -0.6361
 6521TIP3   OH219568   5.369   2.544   2.646 -0.0556 -0.3683 -0.1183
 6521TIP3    H119569   5.280   2.554   2.678  0.1988 -3.6322  2.0931
 6521TIP3    H219570   5.418   2.614   2.689 -1.1060 -0.0888  0.6804
 6522TIP3   OH219571   6.272   4.459   3.042  0.0131  0.2203 -0.3912
 6522TIP3    H119572   6.350   4.406   3.028  0.0112  0.3809 -1.0107
 6522TIP3    H219573   6.244   4.436   3.131  0.0621 -0.7529 -0.6119
 6523TIP3   OH219574   4.884   1.026   3.228 -0.4444 -0.6582 -0.3608
 6523TIP3    H119575   4.885   0.933   3.250 -0.3584 -0.5064  0.2826
 6523TIP3    H219576   4.847   1.069   3.305 -0.8541 -0.1966 -0.8025
 6524TIP3   OH219577   3.490   2.547   3.715  0.0077  0.3005  0.3945
 6524TIP3    H119578   3.425   2.602   3.759 -0.4714 -0.5547  0.7756
 6524TIP3    H219579   3.490   2.579   3.624 -0.3770  0.8243  0.5712
 6525TIP3   OH219580   3.780   2.121   4.308 -0.2246 -0.2346 -0.4238
 6525TIP3    H119581   3.685   2.111   4.305 -0.4662  1.5077  0.1207
 6525TIP3    H219582   3.802   2.109   4.401  0.1621 -1.0255 -0.6057
 6526TIP3   OH219583   0.435   3.453   4.579  0.7291 -0.3279  0.3920
 6526TIP3    H119584   0.495   3.479   4.508  1.5199 -0.0483  1.1499
 6526TIP3    H219585   0.381   3.531   4.593  1.2343 -0.0346  0.7591
 6527TIP3   OH219586   1.186   1.402   0.329 -0.3064  0.1106  0.4565
 6527TIP3    H119587   1.196   1.406   0.234  1.8649 -2.8492  0.4175
 6527TIP3    H219588   1.248   1.467   0.363  2.1467 -1.7366 -0.2041
 6528TIP3   OH219589   3.807   0.052   1.219 -0.1175  0.0950  0.3417
 6528TIP3    H119590   3.893   0.042   1.260 -0.3686  0.5875  1.0116
 6528TIP3    H219591   3.761   0.116   1.274 -0.4510  0.8298 -0.7433
 6529TIP3   OH219592   5.173   4.792   1.192 -0.7454 -0.2142  0.0678
 6529TIP3    H119593   5.162   4.856   1.262  0.3282  0.5611 -0.4371
 6529TIP3    H219594   5.240   4.830   1.135 -0.3808 -1.5967 -0.4772
 6530TIP3   OH219595   5.979   3.966   1.415 -0.7759 -0.1529 -0.5163
 6530TIP3    H119596   5.896   4.005   1.441 -1.4358 -2.2078  0.6989
 6530TIP3    H219597   6.030   3.964   1.496 -0.4807 -1.0931 -0.7152
 6531TIP3   OH219598   1.047   5.055   1.368 -0.3691  0.0634  0.2204
 6531TIP3    H119599   1.122   5.023   1.417 -1.1521 -1.5829  0.4118
 6531TIP3    H219600   0.985   4.982   1.368 -2.3808  1.6652  0.8804
 6532TIP3   OH219601   5.971   2.272   1.317  0.2425  0.2378  0.2544
 6532TIP3    H119602   6.045   2.296   1.373 -0.0157  1.3725  0.1232
 6532TIP3    H219603   5.982   2.326   1.239 -2.3852  2.7605  1.4795
 6533TIP3   OH219604   2.343   5.193   4.358  0.4138  0.1000  0.4347
 6533TIP3    H119605   2.302   5.203   4.272  0.4688  0.2051  0.4204
 6533TIP3    H219606   2.358   5.283   4.387  0.8237  0.0628  0.3490
 6534TIP3   OH219607   4.923   1.977   3.274  0.4517  0.2128 -0.4551
 6534TIP3    H119608   4.880   1.968   3.359  0.1212 -1.1720 -0.7444
 6534TIP3    H219609   4.937   1.887   3.244  3.4376  0.5709 -0.4552
 6535TIP3   OH219610   3.643   0.727   1.083  0.1042  0.4106  0.6532
 6535TIP3    H119611   3.697   0.707   1.006  0.6573  1.8650  0.6277
 6535TIP3    H219612   3.574   0.784   1.049  0.2059  0.8555  1.1892
 6536TIP3   OH219613   1.055   5.683   4.320 -0.4494  0.2858  0.1960
 6536TIP3    H119614   1.140   5.648   4.348 -0.0653  2.0880  1.4972
 6536TIP3    H219615   1.073   5.775   4.302 -1.9388  0.4558 -0.5474
 6537TIP3   OH219616   3.890   5.957   0.645 -0.1159  0.4076 -0.2106
 6537TIP3    H119617   3.829   5.965   0.572  1.2550  0.6217 -1.3979
 6537TIP3    H219618   3.936   6.041   0.647  1.1722 -0.2608 -0.3426
 6538TIP3   OH219619   1.258   5.096   4.229 -0.3210 -0.0150  0.0478
 6538TIP3    H119620   1.305   5.048   4.298 -0.5055 -0.0356  0.1605
 6538TIP3    H219621   1.311   5.083   4.150  0.1869  0.4749  0.3049
 6539TIP3   OH219622   5.032   0.041   0.936  0.2733  0.1221  0.0081
 6539TIP3    H119623   5.093   0.109   0.909  2.2223 -1.4412  0.2314
 6539TIP3    H219624   4.989   0.076   1.014  2.0079  0.7042  0.7354
 6540TIP3   OH219625   5.826   5.859   0.533 -0.5660 -0.2311  0.1990
 6540TIP3    H119626   5.791   5.775   0.563  0.2788 -1.2630 -1.5118
 6540TIP3    H219627   5.904   5.873   0.586 -1.4787  0.2259  1.4753
 6541TIP3   OH219628   4.774   5.022   1.318 -0.0676  0.2112 -0.0774
 6541TIP3    H119629   4.720   5.091   1.281 -0.2353  0.6215  0.8896
 6541TIP3    H219630   4.737   5.007   1.405  1.3323  0.4717  0.5901
 6542TIP3   OH219631   0.278   5.976   1.306  0.2751 -0.5400  0.3778
 6542TIP3    H119632   0.356   5.922   1.295  0.0182 -1.1383  1.3331
 6542TIP3    H219633   0.246   5.991   1.218  1.1183 -0.8087  0.0168
 6543TIP3   OH219634   0.694   2.478   1.826 -0.0647  0.5107 -0.0662
 6543TIP3    H119635   0.661   2.566   1.813 -1.2224 -0.0915 -1.4449
 6543TIP3    H219636   0.636   2.422   1.774  0.2517 -1.1454  1.2545
 6544TIP3   OH219637   4.893   3.028   1.943 -0.8344 -0.4193  0.7972
 6544TIP3    H119638   4.880   2.965   1.872 -0.5822 -1.8514  1.9532
 6544TIP3    H219639   4.988   3.035   1.952 -0.8611  0.1669  0.6578
 6545TIP3   OH219640   1.118   4.667   0.268  0.5606 -0.4689  0.0937
 6545TIP3    H119641   1.122   4.586   0.217 -0.5325 -1.8984  2.1384
 6545TIP3    H219642   1.146   4.641   0.356  0.0649  1.3660  0.8305
 6546TIP3   OH219643   1.493   5.873   2.987 -0.1185  0.1158  0.1160
 6546TIP3    H119644   1.479   5.779   2.998  0.9979 -0.2336 -1.1931
 6546TIP3    H219645   1.571   5.880   2.931 -1.2516  1.7965 -1.3616
 6547TIP3   OH219646   2.737   2.124   0.673 -0.6364 -0.4417 -0.5521
 6547TIP3    H119647   2.695   2.065   0.735  1.8082 -2.0446 -0.2806
 6547TIP3    H219648   2.726   2.082   0.588 -0.6486 -0.2456 -0.6481
 6548TIP3   OH219649   5.613   4.409   4.496  0.1359  0.1375 -0.0619
 6548TIP3    H119650   5.541   4.372   4.548  1.0304 -0.7230  0.6040
 6548TIP3    H219651   5.622   4.348   4.422 -0.5729  0.8886 -0.7813
 6549TIP3   OH219652   6.358   2.234   3.990 -0.9101 -0.0141  0.1528
 6549TIP3    H119653   6.335   2.311   4.043  2.5740  1.8173 -0.6680
 6549TIP3    H219654   6.295   2.236   3.918 -3.3200 -0.3239  2.1093
 6550TIP3   OH219655   5.001   5.666   2.333  0.2376 -0.1046 -0.0763
 6550TIP3    H119656   4.928   5.618   2.295  1.5242 -2.4729  0.2583
 6550TIP3    H219657   4.983   5.667   2.427 -0.6299  1.6609 -0.2243
 6551TIP3   OH219658   3.183   4.658   3.489 -0.2630 -0.4463  0.6568
 6551TIP3    H119659   3.157   4.567   3.505 -0.2900 -0.4673  0.4940
 6551TIP3    H219660   3.233   4.654   3.408 -0.9219 -0.2028  0.2320
 6552TIP3   OH219661   5.686   2.048   4.959 -0.4418  0.1744  0.0977
 6552TIP3    H119662   5.763   1.991   4.965 -0.1891  0.4384 -0.5633
 6552TIP3    H219663   5.612   1.990   4.976 -0.2331 -0.4768 -1.1131
 6553TIP3   OH219664   6.111   3.351   1.248  0.1661  0.1343 -0.2437
 6553TIP3    H119665   6.173   3.289   1.210 -0.0569  0.2095 -0.7436
 6553TIP3    H219666   6.163   3.405   1.307  0.0632 -1.6317  1.5461
 6554TIP3   OH219667   4.348   5.133   0.739  0.7821 -0.1339 -0.0469
 6554TIP3    H119668   4.362   5.121   0.832 -2.0792 -0.0387  0.4857
 6554TIP3    H219669   4.403   5.208   0.716  0.3087  0.9023  1.9560
 6555TIP3   OH219670   5.313   4.548   1.240  0.2960  0.5849 -0.4727
 6555TIP3    H119671   5.332   4.552   1.334 -0.9677 -1.1092 -0.1069
 6555TIP3    H219672   5.284   4.637   1.218 -0.3025  0.7741  0.9582
 6556TIP3   OH219673   1.242   4.588   3.389  0.2420  0.2500 -0.0980
 6556TIP3    H119674   1.330   4.577   3.423 -0.9196 -1.2441  2.6755
 6556TIP3    H219675   1.243   4.543   3.304  1.8089 -0.8805  0.4789
 6557TIP3   OH219676   0.991   3.403   3.877  0.1487  0.4896 -0.2786
 6557TIP3    H119677   1.007   3.363   3.791  0.0145  0.1466 -0.1451
 6557TIP3    H219678   1.077   3.436   3.904  0.2313  0.4252 -0.4602
 6558TIP3   OH219679   3.451   1.081   0.086 -0.0768  0.2588 -0.3846
 6558TIP3    H119680   3.393   1.148   0.050 -0.1342 -0.4433 -1.6465
 6558TIP3    H219681   3.395   1.004   0.095  0.1392  0.1934  0.4602
 6559TIP3   OH219682   5.834   1.561   2.230  0.6396  0.1030  0.0042
 6559TIP3    H119683   5.762   1.550   2.292 -0.1432 -0.3017 -0.9479
 6559TIP3    H219684   5.881   1.639   2.261 -0.5196  0.6863  0.3446
 6560TIP3   OH219685   1.644   3.398   4.610  0.9853 -0.0472  0.4310
 6560TIP3    H119686   1.548   3.392   4.616  0.7979 -0.7183 -2.2764
 6560TIP3    H219687   1.675   3.312   4.637  0.7512 -0.2251  0.1322
 6561TIP3   OH219688   0.163   4.960   5.157 -0.1059 -0.5065 -0.0806
 6561TIP3    H119689   0.212   4.899   5.211  2.2307 -1.4868 -3.0316
 6561TIP3    H219690   0.097   4.906   5.114 -0.0594 -0.3379 -0.3672
 6562TIP3   OH219691   5.017   0.367   0.488 -0.1562  0.0512 -0.4199
 6562TIP3    H119692   4.997   0.437   0.426 -2.3024  0.5719  0.7673
 6562TIP3    H219693   4.944   0.306   0.479 -0.3941  0.0347  1.4202
 6563TIP3   OH219694   5.235   5.534   0.755 -0.4794 -0.2545 -0.4521
 6563TIP3    H119695   5.207   5.597   0.822 -0.4679  0.5901 -1.2239
 6563TIP3    H219696   5.316   5.497   0.790  0.2111  1.0931 -0.5259
 6564TIP3   OH219697   2.063   1.684   3.863  0.4203  0.1749 -0.0973
 6564TIP3    H119698   2.140   1.720   3.908 -0.8864  1.7986  0.9515
 6564TIP3    H219699   2.044   1.603   3.910  0.5603  0.5758  0.6653
 6565TIP3   OH219700   5.624   1.995   1.096 -0.4672 -0.0079  0.6909
 6565TIP3    H119701   5.577   2.036   1.023 -1.9532 -1.6899  0.6085
 6565TIP3    H219702   5.622   2.061   1.166  1.1505  1.7062 -0.7844
 6566TIP3   OH219703   5.598   5.365   3.221 -0.3904 -0.1966 -0.1752
 6566TIP3    H119704   5.595   5.417   3.140  1.9968 -1.3822 -1.1215
 6566TIP3    H219705   5.691   5.354   3.239 -0.8634 -0.9408  2.1413
 6567TIP3   OH219706   6.305   3.178   1.142  0.1935  0.4985  0.1285
 6567TIP3    H119707   6.231   3.124   1.114  0.8053  0.0646 -0.7042
 6567TIP3    H219708   6.355   3.121   1.200  0.9327  0.0680 -0.8853
 6568TIP3   OH219709   5.941   3.592   3.502  0.0754  0.0494  0.3626
 6568TIP3    H119710   5.848   3.568   3.502 -0.2216  1.1640  0.7259
 6568TIP3    H219711   5.978   3.544   3.576 -0.4362  0.4378  0.8733
 6569TIP3   OH219712   4.784   5.424   0.809  0.7052  0.5095 -0.3223
 6569TIP3    H119713   4.855   5.408   0.872 -0.9336 -0.8188  1.2711
 6569TIP3    H219714   4.732   5.493   0.850  0.9792  1.4235 -1.4541
 6570TIP3   OH219715   0.325   1.307   4.502 -0.2429 -0.5860 -0.2346
 6570TIP3    H119716   0.273   1.261   4.568  3.7880  0.2906  4.0529
 6570TIP3    H219717   0.296   1.398   4.507 -0.0125 -0.5395  0.3333
 6571TIP3   OH219718   5.640  -0.026   2.488 -0.5577  0.2669  0.0531
 6571TIP3    H119719   5.622   0.006   2.399 -0.7209  1.6343  0.5565
 6571TIP3    H219720   5.687   0.046   2.530 -0.5511 -0.3355  1.1096
 6572TIP3   OH219721   1.978   5.769   1.224 -0.0589  0.2979  0.3335
 6572TIP3    H119722   1.934   5.829   1.163  1.0904  2.2378  1.3347
 6572TIP3    H219723   1.955   5.802   1.311 -0.5242 -1.5967  0.9718
 6573TIP3   OH219724   5.692   0.929   3.905  0.1856 -0.3084  0.1050
 6573TIP3    H119725   5.692   1.025   3.898  1.2642 -0.1704  1.6537
 6573TIP3    H219726   5.623   0.901   3.845 -0.3402  1.4531 -0.1655
 6574TIP3   OH219727   4.758   4.740   4.011  0.4268 -0.0904 -0.3990
 6574TIP3    H119728   4.705   4.766   3.936  0.4993 -1.5318 -0.9756
 6574TIP3    H219729   4.837   4.793   4.005 -0.5074  1.4172 -0.0525
 6575TIP3   OH219730   1.216   0.122   3.449  0.3115 -0.4397 -0.4720
 6575TIP3    H119731   1.198   0.144   3.540 -0.9506 -0.4851 -0.6956
 6575TIP3    H219732   1.153   0.174   3.399  0.8328 -0.5920 -1.3075
 6576TIP3   OH219733   3.841   5.124   0.525 -0.1604  0.0139  0.0360
 6576TIP3    H119734   3.890   5.154   0.449  0.2662 -0.4577  0.1115
 6576TIP3    H219735   3.806   5.039   0.498  1.4138 -0.9736  0.9045
 6577TIP3   OH219736   0.494   2.336   3.358 -0.2008  0.7140  0.0440
 6577TIP3    H119737   0.480   2.419   3.313  0.9750 -0.1343 -2.0467
 6577TIP3    H219738   0.413   2.288   3.345  0.1116  0.4903 -1.2316
 6578TIP3   OH219739   2.650   1.432   4.699 -0.2210  0.1372 -0.4906
 6578TIP3    H119740   2.738   1.433   4.662  0.7858  1.4220  1.7115
 6578TIP3    H219741   2.617   1.521   4.686 -1.0682 -0.2252 -0.9531
 6579TIP3   OH219742   0.954   4.102   0.491 -0.4912  0.3314 -0.1525
 6579TIP3    H119743   0.974   4.151   0.411  0.2612  1.8655  0.9147
 6579TIP3    H219744   0.932   4.170   0.555 -1.6289 -0.8983  0.8054
 6580TIP3   OH219745   4.653   2.808   5.159  0.1982 -0.4050  0.0574
 6580TIP3    H119746   4.639   2.746   5.231  0.8033 -1.0168 -0.3448
 6580TIP3    H219747   4.748   2.815   5.151  0.1381 -0.9221 -1.1776
 6581TIP3   OH219748   6.254   5.042   3.658 -0.1764 -0.2049 -0.5130
 6581TIP3    H119749   6.300   5.102   3.598 -0.8312  0.1359 -0.6849
 6581TIP3    H219750   6.162   5.067   3.651 -0.1923  0.3462  1.2069
 6582TIP3   OH219751   4.342   3.514   4.681 -0.3946  0.3524  0.2014
 6582TIP3    H119752   4.307   3.508   4.592 -0.5413  1.1054  0.2026
 6582TIP3    H219753   4.291   3.451   4.731  0.3470 -0.7911 -0.4463
 6583TIP3   OH219754   1.475   3.445   1.979  0.2179 -0.0841  0.0017
 6583TIP3    H119755   1.412   3.391   2.026  1.0416  0.2637  1.6071
 6583TIP3    H219756   1.486   3.522   2.034  1.9766 -0.1125 -0.2420
 6584TIP3   OH219757   2.167   5.909   0.922  0.2957  0.5136 -0.0640
 6584TIP3    H119758   2.151   5.819   0.894 -1.5119  0.3065  1.4646
 6584TIP3    H219759   2.248   5.904   0.973 -1.0136 -0.7795  2.0455
 6585TIP3   OH219760   5.831   3.084   4.158  0.4365  0.5124  0.1983
 6585TIP3    H119761   5.745   3.063   4.194  0.2444  0.1895 -0.4371
 6585TIP3    H219762   5.883   3.112   4.234 -0.2302  0.7256  0.5823
 6586TIP3   OH219763   2.526   0.299   2.169 -0.0811  0.3202  0.6294
 6586TIP3    H119764   2.609   0.342   2.149  0.8491 -0.9777  1.5386
 6586TIP3    H219765   2.529   0.285   2.264 -0.6508 -1.1121  0.4586
 6587TIP3   OH219766   6.151   4.458   0.574  0.4155  0.7223 -0.8720
 6587TIP3    H119767   6.117   4.400   0.642 -0.5979 -0.9616 -2.7147
 6587TIP3    H219768   6.205   4.521   0.622 -2.2410  1.2171  1.7953
 6588TIP3   OH219769   3.660   2.846   1.887  0.1334 -0.2323  0.1502
 6588TIP3    H119770   3.581   2.858   1.940  0.4866 -0.7273  0.8075
 6588TIP3    H219771   3.689   2.757   1.907 -0.4505 -0.9071 -1.8866
 6589TIP3   OH219772   5.136   5.464   2.724 -0.8406  0.0936 -0.0662
 6589TIP3    H119773   5.189   5.448   2.645 -1.3000 -1.9808 -0.0253
 6589TIP3    H219774   5.198   5.456   2.796 -0.6945  0.4847 -0.1478
 6590TIP3   OH219775   1.998   0.897   4.395  0.2332 -0.3798 -0.2725
 6590TIP3    H119776   2.023   0.831   4.330 -0.8592 -1.4326  0.3330
 6590TIP3    H219777   2.072   0.957   4.398  1.7218 -2.1645 -0.0929
 6591TIP3   OH219778   0.392   3.301   2.591  0.4083  0.2719  0.1130
 6591TIP3    H119779   0.344   3.294   2.674  2.7762  1.8016  1.7269
 6591TIP3    H219780   0.323   3.301   2.524 -1.9301  2.8547  2.2551
 6592TIP3   OH219781   3.753   4.231   3.525 -0.0420 -0.0870  0.1433
 6592TIP3    H119782   3.782   4.321   3.543  0.9595 -0.3865  0.0855
 6592TIP3    H219783   3.663   4.228   3.556 -0.2597  1.0885 -0.3144
 6593TIP3   OH219784   4.646   0.030   1.668 -0.0268 -0.3712  0.0038
 6593TIP3    H119785   4.609   0.114   1.640  0.3075  0.6987  2.4948
 6593TIP3    H219786   4.591   0.004   1.742  1.5610 -0.9210  1.0395
 6594TIP3   OH219787   4.758   4.197   4.053 -0.2493  0.2782  0.4371
 6594TIP3    H119788   4.792   4.282   4.083  3.6127 -0.3842 -1.4642
 6594TIP3    H219789   4.689   4.219   3.991  3.0301  2.4898 -2.8822
 6595TIP3   OH219790   4.696   2.169   2.746 -0.3330  0.0884  0.1857
 6595TIP3    H119791   4.759   2.207   2.807 -0.7536 -0.6870  1.1207
 6595TIP3    H219792   4.714   2.075   2.748 -0.4539  0.0352 -0.7747
 6596TIP3   OH219793   1.659   1.457   4.131 -0.1258  0.0564 -0.4076
 6596TIP3    H119794   1.669   1.460   4.227  0.9654 -2.0431 -0.3944
 6596TIP3    H219795   1.671   1.548   4.103  1.3315  0.4735  1.3292
 6597TIP3   OH219796   1.173   1.416   0.059 -0.0424 -0.2554  0.1517
 6597TIP3    H119797   1.268   1.430   0.058  0.2773 -2.2635 -0.3712
 6597TIP3    H219798   1.140   1.475  -0.009  0.6609  1.2319  1.0292
 6598TIP3   OH219799   4.107   4.293   3.433  0.5353 -0.6195 -0.3392
 6598TIP3    H119800   4.056   4.351   3.490  0.7584 -1.5197  0.8282
 6598TIP3    H219801   4.155   4.352   3.375  0.7465  0.3726  0.7959
 6599TIP3   OH219802   5.698   3.914   4.038  0.2710 -0.6507 -0.3524
 6599TIP3    H119803   5.651   3.998   4.037 -1.4724 -1.4935  2.1441
 6599TIP3    H219804   5.763   3.924   4.108  0.1365 -1.3526 -0.1233
 6600TIP3   OH219805   4.171   4.685   2.514 -0.4951  0.5487 -0.0040
 6600TIP3    H119806   4.080   4.667   2.493 -1.1496  2.3679  1.0710
 6600TIP3    H219807   4.174   4.686   2.610  0.5297  1.0383 -0.0258
 6601TIP3   OH219808   0.688   4.938   2.678 -0.3187  0.7226 -0.1315
 6601TIP3    H119809   0.675   4.978   2.592 -0.8947  0.8564  0.0187
 6601TIP3    H219810   0.669   4.845   2.665 -0.3271  0.7292 -0.1641
 6602TIP3   OH219811   4.650   2.792   1.840  0.4561 -0.1316  0.4003
 6602TIP3    H119812   4.646   2.702   1.807  1.2532  0.8756 -2.7645
 6602TIP3    H219813   4.743   2.810   1.851  0.5797  1.2627 -2.2090
 6603TIP3   OH219814   4.743   5.872   2.497 -0.0470  0.0508  0.0747
 6603TIP3    H119815   4.769   5.814   2.568  2.5346  0.1704 -0.6889
 6603TIP3    H219816   4.795   5.951   2.509 -0.6304  0.6449 -1.1128
 6604TIP3   OH219817   2.921   5.030   1.667 -0.2274  0.2303  0.1326
 6604TIP3    H119818   2.936   4.936   1.682 -2.5809 -0.2133  0.2584
 6604TIP3    H219819   2.979   5.074   1.729  0.5285 -1.1636  0.4549
 6605TIP3   OH219820   4.995   5.365   0.984 -0.1383  0.0187 -0.2211
 6605TIP3    H119821   5.084   5.395   0.999 -0.2604 -0.1349  0.8688
 6605TIP3    H219822   5.003   5.272   0.963  0.1014  0.4068 -2.0244
 6606TIP3   OH219823   0.748   1.982   0.236  0.1718 -0.1389 -0.9678
 6606TIP3    H119824   0.662   1.983   0.196 -0.9177 -0.0283  1.1952
 6606TIP3    H219825   0.777   1.891   0.229 -0.7413 -0.4740 -0.5312
 6607TIP3   OH219826   3.824   0.442   1.178  0.2505  0.2822 -0.6302
 6607TIP3    H119827   3.894   0.419   1.240 -0.1100  0.2766 -0.2164
 6607TIP3    H219828   3.790   0.526   1.211  0.3952  0.5400 -1.1212
 6608TIP3   OH219829   0.910   0.414   1.613 -0.3727  0.1139  0.2355
 6608TIP3    H119830   0.941   0.331   1.650 -1.2812  0.4402  1.8211
 6608TIP3    H219831   0.882   0.391   1.524  1.3906 -0.8116 -0.1337
 6609TIP3   OH219832   6.155   3.496   3.316 -0.2633 -0.2377 -0.0425
 6609TIP3    H119833   6.079   3.536   3.273 -0.3864 -0.9579 -0.5117
 6609TIP3    H219834   6.129   3.488   3.408 -0.9170 -0.8492 -0.2746
 6610TIP3   OH219835   4.544   3.893   3.593  0.4201  0.3233  0.2482
 6610TIP3    H119836   4.597   3.968   3.564  0.4428  0.4340  0.5736
 6610TIP3    H219837   4.519   3.915   3.682  0.8991 -0.3167  0.5463
 6611TIP3   OH219838   3.155   5.836   3.008 -0.0480  0.0914  0.2913
 6611TIP3    H119839   3.241   5.849   3.048 -0.8328  0.8938  1.7937
 6611TIP3    H219840   3.097   5.819   3.082 -1.1138 -0.8971 -0.7409
 6612TIP3   OH219841   0.165   3.288   2.800  0.1851 -0.3535  0.1376
 6612TIP3    H119842   0.099   3.352   2.773 -2.0861 -2.5402  0.1742
 6612TIP3    H219843   0.174   3.301   2.894  1.5996  1.4724 -0.1969
 6613TIP3   OH219844   0.283   3.521   1.493 -0.4625  0.0968 -0.1077
 6613TIP3    H119845   0.288   3.459   1.565  1.4793 -0.3714 -0.5892
 6613TIP3    H219846   0.369   3.518   1.452 -1.1847  1.1038 -1.8330
 6614TIP3   OH219847   6.044   0.393   0.910  0.2080 -0.1227 -0.1257
 6614TIP3    H119848   5.960   0.438   0.898  1.2131  1.8026 -0.3939
 6614TIP3    H219849   6.051   0.380   1.005 -1.0906 -1.7976 -0.2255
 6615TIP3   OH219850   3.724   0.868   4.048 -0.3642 -0.0651  0.1543
 6615TIP3    H119851   3.653   0.924   4.016 -0.1322 -0.3560 -0.9068
 6615TIP3    H219852   3.681   0.809   4.110 -0.5814  1.3488  1.3991
 6616TIP3   OH219853   2.838   2.163   4.975  0.6081  0.1393 -0.2541
 6616TIP3    H119854   2.895   2.188   5.047 -0.2410  0.5222  0.3018
 6616TIP3    H219855   2.880   2.199   4.897  0.2377  1.9378  0.3446
 6617TIP3   OH219856   5.043   1.947   4.235  0.1847 -0.4367 -0.1719
 6617TIP3    H119857   5.137   1.946   4.253  0.7417  0.5378 -2.7062
 6617TIP3    H219858   5.003   1.967   4.320  2.5251  3.4903  0.2360
 6618TIP3   OH219859   4.600   0.931   2.890 -0.4766  0.5588 -0.3610
 6618TIP3    H119860   4.622   0.918   2.982  1.7248  2.1430 -0.5862
 6618TIP3    H219861   4.614   0.846   2.849 -0.0543  0.2037  0.5093
 6619TIP3   OH219862   1.537   5.801   2.360 -0.0283  0.0049 -0.3660
 6619TIP3    H119863   1.603   5.734   2.348 -1.4842 -1.4777 -0.4497
 6619TIP3    H219864   1.587   5.882   2.375  1.7628 -1.0328 -0.4687
 6620TIP3   OH219865   2.089   3.026   4.361  0.2235  0.1883 -0.3500
 6620TIP3    H119866   2.152   3.024   4.434  0.2723  1.4126 -0.3505
 6620TIP3    H219867   2.018   2.969   4.390  0.6205  0.0118  0.3113
 6621TIP3   OH219868   3.584   3.161   4.714  0.6560 -0.1007 -0.1476
 6621TIP3    H119869   3.489   3.151   4.720  0.7078  0.0368  1.1409
 6621TIP3    H219870   3.597   3.253   4.692  0.4940  0.0017  0.1718
 6622TIP3   OH219871   1.754   5.776   4.143  0.3723  0.0297  0.0879
 6622TIP3    H119872   1.809   5.724   4.202 -0.5423  0.0240  0.9675
 6622TIP3    H219873   1.673   5.725   4.134 -0.8159  1.5451  1.4958
 6623TIP3   OH219874   4.702   1.350   1.839  0.3537 -0.3932 -0.0882
 6623TIP3    H119875   4.769   1.301   1.886 -0.7933 -0.0823  1.9816
 6623TIP3    H219876   4.744   1.433   1.818  0.7730 -0.3683  0.7981
 6624TIP3   OH219877   6.127   1.404   4.163  0.1157 -0.1750 -0.1422
 6624TIP3    H119878   6.094   1.326   4.119  1.2971 -0.7282 -0.0961
 6624TIP3    H219879   6.176   1.370   4.238 -0.0839  0.6577  0.3755
 6625TIP3   OH219880   4.880   5.869   4.904 -0.0122  0.5110 -0.3790
 6625TIP3    H119881   4.874   5.866   5.000 -0.4572  0.1094 -0.4171
 6625TIP3    H219882   4.798   5.832   4.874  0.7725 -0.8547 -0.9223
 6626TIP3   OH219883   0.281   2.634   2.749  0.6297 -0.4100 -0.5861
 6626TIP3    H119884   0.375   2.643   2.731  0.5475  1.3811 -0.3463
 6626TIP3    H219885   0.255   2.721   2.781 -0.7752 -1.3406  0.9593
 6627TIP3   OH219886   0.511   3.083   3.601 -0.4602  0.8379 -0.7590
 6627TIP3    H119887   0.481   3.019   3.666  0.8021  1.2051  0.2453
 6627TIP3    H219888   0.474   3.166   3.630 -1.8586  0.6416 -1.8975
 6628TIP3   OH219889   4.389   1.674   0.014  0.4133 -0.4254  0.3443
 6628TIP3    H119890   4.434   1.590   0.021  1.1859 -0.0653 -0.2204
 6628TIP3    H219891   4.365   1.696   0.104  0.5028 -1.0855  0.5338
 6629TIP3   OH219892   5.379   1.533   0.995  0.1091  0.2640 -0.0662
 6629TIP3    H119893   5.446   1.564   1.056 -0.3541  1.7002 -0.2464
 6629TIP3    H219894   5.380   1.596   0.923  0.1788 -1.0242 -1.2359
 6630TIP3   OH219895   2.938   2.343   4.800 -0.1373 -0.1536  0.1983
 6630TIP3    H119896   2.951   2.323   4.708  0.7831  0.7097  0.1157
 6630TIP3    H219897   2.854   2.389   4.803 -1.4238 -2.3703  0.1706
 6631TIP3   OH219898   5.595   5.427   4.665  0.0216  0.0338 -0.5020
 6631TIP3    H119899   5.574   5.434   4.571 -0.0106  0.6270 -0.4559
 6631TIP3    H219900   5.690   5.437   4.669 -0.1415  1.7584 -0.3281
 6632TIP3   OH219901   4.570   1.451   1.147  0.1635  1.0654 -0.6965
 6632TIP3    H119902   4.584   1.539   1.181  1.5508  1.2117 -1.5325
 6632TIP3    H219903   4.579   1.393   1.223  1.1589  1.5172 -0.4582
 6633TIP3   OH219904   0.722   1.571   4.316 -0.1378  0.2646 -0.0474
 6633TIP3    H119905   0.704   1.660   4.286 -0.1512  0.3238  0.1364
 6633TIP3    H219906   0.797   1.543   4.264  1.1232  1.0883  1.2466
 6634TIP3   OH219907   1.271   2.345   3.080 -0.3269  0.3726  0.0369
 6634TIP3    H119908   1.328   2.272   3.104  2.5019  2.6201  0.7268
 6634TIP3    H219909   1.217   2.360   3.157 -0.4568 -0.5310  0.1311
 6635TIP3   OH219910   4.276   2.469   4.046 -0.4521  0.4868  0.7543
 6635TIP3    H119911   4.324   2.471   3.964 -0.6800 -0.1347  0.5982
 6635TIP3    H219912   4.270   2.560   4.073 -2.2625  0.9740 -1.0465
 6636TIP3   OH219913   1.777   5.022   0.275 -0.1230  0.1074  0.2545
 6636TIP3    H119914   1.726   4.941   0.277  0.7702 -0.4736 -0.2909
 6636TIP3    H219915   1.715   5.088   0.244 -0.9280 -0.2974  0.9373
 6637TIP3   OH219916   4.427   2.078   1.500 -0.5230  0.4948 -0.1855
 6637TIP3    H119917   4.507   2.118   1.467  0.4210 -0.8569  0.4042
 6637TIP3    H219918   4.387   2.037   1.423  0.5948 -0.8442 -0.0953
 6638TIP3   OH219919   4.775   4.624   2.741  0.1046 -0.0872 -0.2682
 6638TIP3    H119920   4.856   4.579   2.765 -1.0846 -2.7501 -0.8856
 6638TIP3    H219921   4.759   4.685   2.813  1.4393 -1.2043  1.0306
 6639TIP3   OH219922   0.237   2.505   3.034 -0.7882 -0.1550  0.0162
 6639TIP3    H119923   0.255   2.588   2.990 -0.8550 -0.2594 -0.2096
 6639TIP3    H219924   0.214   2.445   2.963 -0.5613 -0.4143  0.1588
 6640TIP3   OH219925   3.451   0.579   3.250 -0.2977 -0.2184  0.2478
 6640TIP3    H119926   3.462   0.573   3.345  0.5269  1.3827  0.2767
 6640TIP3    H219927   3.434   0.672   3.234  2.5542  0.1121 -1.4316
 6641TIP3   OH219928   4.410   4.384   1.902  0.1164  0.0257  0.1568
 6641TIP3    H119929   4.496   4.418   1.928 -0.6333  1.2792  1.1327
 6641TIP3    H219930   4.421   4.360   1.810  1.6456 -0.3253  0.4087
 6642TIP3   OH219931   5.375   1.166   1.935  0.0816  0.2915 -0.2690
 6642TIP3    H119932   5.375   1.217   1.854  0.5119  0.1237 -0.3802
 6642TIP3    H219933   5.400   1.077   1.907  1.6530  0.5402  0.2180
 6643TIP3   OH219934   1.039   2.795   2.805 -0.3821 -0.2268 -0.0009
 6643TIP3    H119935   1.062   2.704   2.823 -0.8142 -0.3633 -0.1301
 6643TIP3    H219936   0.998   2.793   2.718  0.0517  0.1612 -0.2173
 6644TIP3   OH219937   2.122   2.913   2.198  0.3025  0.3119 -0.2758
 6644TIP3    H119938   2.027   2.905   2.192  0.3695 -0.0910 -0.8739
 6644TIP3    H219939   2.136   2.995   2.245 -0.3592 -0.5502  1.5350
 6645TIP3   OH219940   1.147   4.967   0.249  0.0680 -0.0031  0.2193
 6645TIP3    H119941   1.135   4.873   0.237  0.2297 -0.0333  0.2977
 6645TIP3    H219942   1.230   4.975   0.297  0.2111  0.1945 -0.0597
   6.35666   5.99311   5.19020   0.00000   0.00000  -2.11889   0.00000  -2.11889  -2.99656
